FOO
141312
    1MOL0     O    1   5.629   4.964   7.326 -0.6254 -0.1292 -0.4336
    1MOL0     C    2   5.605   4.880   7.241 -0.3885  0.5305  0.2023
    1MOL0     O    3   5.697   4.797   7.189 -0.3308  0.0232 -0.6068
    1MOL0     C    4   5.808   4.871   7.142 -0.1462  0.3389 -0.1633
    1MOL0     C    5   5.797   4.990   7.068  0.3374  0.1291 -0.7591
    1MOL0     C    6   5.908   5.067   7.034  0.7000 -0.0958 -0.4374
    1MOL0     C    7   6.038   5.025   7.069  0.7996  0.2467  0.3262
    1MOL0     O    8   6.139   5.102   7.034 -0.9589  0.1870  0.4445
    1MOL0     C    9   6.265   5.097   7.108 -0.7738 -0.1998  0.6799
    1MOL0     C   10   6.362   5.207   7.074  0.5879 -0.2644  1.3720
    1MOL0     C   11   6.480   5.225   7.166  0.7070 -0.4445 -0.0187
    1MOL0     C   12   6.583   5.333   7.136 -0.6934 -0.4935  0.6726
    1MOL0     C   13   6.721   5.317   7.212 -0.0508  0.6755 -0.3677
    1MOL0     C   14   6.706   5.326   7.368  0.8919  0.5015 -0.2996
    1MOL0     C   15   6.848   5.320   7.431  0.5664  0.2827  0.0139
    1MOL0     C   16   6.911   5.462   7.413 -0.0663 -0.1971  0.9922
    1MOL0     N   17   7.062   5.453   7.409  0.6249 -0.8203  0.2053
    1MOL0     C   18   7.140   5.414   7.304  0.1472  0.2275  0.6657
    1MOL0     C   19   7.263   5.412   7.356 -0.2946  0.1515  0.5710
    1MOL0     C   20   7.388   5.391   7.278  0.0680  0.0293 -0.1719
    1MOL0     C   21   7.434   5.527   7.222 -0.1493  0.3808  0.1179
    1MOL0     C   22   7.566   5.527   7.145  0.2415  0.0387 -0.2582
    1MOL0     C   23   7.688   5.521   7.237 -0.0187  0.3070 -0.9090
    1MOL0     O   24   7.798   5.484   7.165  0.2389  0.0204 -0.3357
    1MOL0     C   25   7.922   5.503   7.212  0.3369 -0.1237 -0.9463
    1MOL0     C   26   7.950   5.565   7.337  0.3793  0.2830 -0.0276
    1MOL0     C   27   8.084   5.602   7.372 -0.3555  0.4164  0.7836
    1MOL0     C   28   8.113   5.641   7.510  0.6776 -0.0388  0.2505
    1MOL0     C   29   8.190   5.576   7.267  0.5782 -0.4245  0.1425
    1MOL0     C   30   8.328   5.597   7.296  0.5805  0.2152  0.8626
    1MOL0     O   31   8.426   5.512   7.256  0.1593  0.0949  0.1876
    1MOL0     C   32   8.557   5.554   7.254  0.7102 -0.4138 -0.2173
    1MOL0     C   33   8.655   5.449   7.272  0.1470 -0.3448 -0.2297
    1MOL0     C   34   8.792   5.473   7.243 -0.2613  0.1472  0.2987
    1MOL0     C   35   8.824   5.607   7.197 -0.0266 -0.0960  0.4684
    1MOL0     O   36   8.948   5.639   7.164 -0.0347  0.1307  0.2336
    1MOL0     C   37   8.989   5.563   7.042  0.5757 -0.0051  0.0403
    1MOL0     C   38   8.975   5.678   6.939 -0.2485 -0.5557  1.1220
    1MOL0     C   39   9.108   5.740   6.902  0.0531  0.2215  0.2230
    1MOL0     C   40   9.183   5.644   6.801  0.0569 -0.6544 -0.5086
    1MOL0     C   41   9.336   5.666   6.798 -0.5429  0.9854  0.9316
    1MOL0     C   42   9.373   5.813   6.783 -0.3806 -0.8647 -0.0056
    1MOL0     C   43   9.523   5.838   6.779 -0.3088  1.3135 -0.8724
    1MOL0     C   44   9.596   5.955   6.698 -0.1534  0.3971  0.2471
    1MOL0    Cl   45   9.770   5.909   6.681 -0.0512  0.0212  0.2543
    1MOL0     C   46   8.721   5.701   7.182  0.0308 -0.5228 -0.3358
    1MOL0     C   47   8.592   5.682   7.215  0.1282 -0.9184  0.4507
    1MOL0     O   48   8.351   5.696   7.353  1.0865 -0.0481 -0.0024
    1MOL0     C   49   8.153   5.505   7.150 -0.0778  0.2764 -0.6882
    1MOL0     C   50   8.024   5.466   7.127 -0.9641 -0.3712  0.1996
    1MOL0     N   51   7.259   5.428   7.495 -0.1857  0.2130  0.1809
    1MOL0     N   52   7.138   5.447   7.519 -0.3325  0.1143 -0.6674
    1MOL0     C   53   6.059   4.898   7.133  0.4182 -0.7707  0.3867
    1MOL0     C   54   5.941   4.821   7.168 -0.0623 -0.6156  0.3022
    1MOL0     C   55   5.471   4.845   7.199  0.1503 -0.4202  0.0303
    1MOL0     C   56   5.447   4.834   7.062  0.7376  0.1983 -0.6037
    1MOL0     C   57   5.316   4.808   7.021  0.0590  0.1350  0.2989
    1MOL0     C   58   5.213   4.782   7.105  0.4219  0.3317  0.9085
    1MOL0     O   59   5.093   4.758   7.051  0.6388 -0.8725 -0.6788
    1MOL0     C   60   4.974   4.814   7.116 -0.2253 -0.3924 -0.2460
    1MOL0     C   61   4.901   4.696   7.182  0.3442  0.5854 -0.2926
    1MOL0     C   62   4.817   4.620   7.071  0.6629  0.8028  0.4458
    1MOL0     C   63   4.737   4.502   7.116  0.3170  0.5963  1.2405
    1MOL0     C   64   4.605   4.538   7.172 -0.7133  0.0249 -0.4012
    1MOL0     C   65   4.495   4.538   7.221 -0.4940  0.2593  0.2494
    1MOL0     C   66   5.241   4.779   7.242 -0.0592 -0.2105  0.1005
    1MOL0     C   67   5.368   4.815   7.295 -0.2528 -0.1429 -0.1620
    1MOL0     C   68   5.383   4.804   7.442 -0.4891 -1.4203  0.3742
    1MOL0     H   69   5.700   5.028   7.037 -0.4451 -1.2262 -0.0295
    1MOL0     H   70   5.894   5.165   6.990 -3.8767 -0.1409  0.4302
    1MOL0     H   71   6.319   5.005   7.083  0.7591  1.2341 -1.7138
    1MOL0     H   72   6.249   5.089   7.216 -1.0927 -2.9570  0.5125
    1MOL0     H   73   6.404   5.190   6.974 -0.4140 -5.1271  1.5144
    1MOL0     H   74   6.307   5.301   7.079 -1.1313 -1.0056 -1.2476
    1MOL0     H   75   6.441   5.237   7.268 -1.0691  0.8709 -0.8096
    1MOL0     H   76   6.519   5.123   7.168 -3.3563 -2.2535 -1.4018
    1MOL0     H   77   6.610   5.324   7.030  0.1614 -0.9322  0.9176
    1MOL0     H   78   6.532   5.427   7.159 -3.5792 -1.8968  0.3546
    1MOL0     H   79   6.781   5.401   7.176 -2.1398  1.7192 -1.5925
    1MOL0     H   80   6.766   5.221   7.186 -0.2519 -0.1517  2.0853
    1MOL0     H   81   6.643   5.411   7.397 -1.4274 -1.7892  1.8362
    1MOL0     H   82   6.639   5.247   7.402 -2.1372  4.0431  3.0485
    1MOL0     H   83   6.906   5.242   7.382  1.2039  0.5386  0.3458
    1MOL0     H   84   6.841   5.285   7.534 -0.0915 -0.0438 -0.1377
    1MOL0     H   85   6.873   5.514   7.325 -0.8696  0.2879  1.6078
    1MOL0     H   86   6.880   5.527   7.496 -1.9485  0.4896 -0.1789
    1MOL0     H   87   7.110   5.386   7.203  1.2616 -2.4382  0.9795
    1MOL0     H   88   7.386   5.314   7.201 -0.9300  1.4951 -1.6681
    1MOL0     H   89   7.462   5.361   7.353  0.7808 -1.0914 -1.2936
    1MOL0     H   90   7.361   5.550   7.145  1.6649 -1.4657 -2.3172
    1MOL0     H   91   7.443   5.604   7.300 -0.0437 -1.6968  2.2726
    1MOL0     H   92   7.584   5.443   7.079  3.0522 -1.5825  2.3004
    1MOL0     H   93   7.569   5.620   7.088 -3.6206  0.1233 -0.5627
    1MOL0     H   94   7.704   5.615   7.291 -1.8317 -0.7271  1.5722
    1MOL0     H   95   7.671   5.437   7.305 -2.3688 -1.9486 -3.9637
    1MOL0     H   96   7.868   5.569   7.408  0.2040  2.0365 -0.2820
    1MOL0     H   97   8.191   5.579   7.554 -1.5877 -0.8746  3.4941
    1MOL0     H   98   8.030   5.638   7.582  0.1648  0.6853 -0.2884
    1MOL0     H   99   8.151   5.744   7.503 -0.2476  0.2632 -0.6597
    1MOL0     H  100   8.623   5.349   7.299 -1.1332  0.2142  0.3981
    1MOL0     H  101   8.867   5.395   7.236 -1.7491 -1.4928  1.6168
    1MOL0     H  102   9.089   5.521   7.059  0.7330  0.9107  1.6121
    1MOL0     H  103   8.926   5.479   7.016  0.2692 -0.3418  1.7557
    1MOL0     H  104   8.927   5.640   6.848  0.7156 -2.2839  1.2905
    1MOL0     H  105   8.906   5.754   6.976  0.7935  1.7885 -1.4131
    1MOL0     H  106   9.160   5.756   6.997  0.5742 -1.0225  0.1742
    1MOL0     H  107   9.095   5.833   6.846 -0.5686 -1.7552 -3.2473
    1MOL0     H  108   9.143   5.663   6.701  1.4592  1.2863 -0.7605
    1MOL0     H  109   9.177   5.538   6.826  3.3400 -0.9128 -0.4518
    1MOL0     H  110   9.384   5.617   6.883 -2.1933  1.8768  2.4245
    1MOL0     H  111   9.377   5.623   6.705 -0.9057  1.6544  0.4561
    1MOL0     H  112   9.328   5.869   6.865  3.8827  0.8921  1.4032
    1MOL0     H  113   9.341   5.849   6.685  1.2125 -0.8581 -0.5617
    1MOL0     H  114   9.561   5.742   6.742 -3.4336 -0.6982  0.6781
    1MOL0     H  115   9.550   5.851   6.885 -0.1634  2.2170 -1.0191
    1MOL0     H  116   9.581   6.055   6.740  4.4916  1.4051  0.0731
    1MOL0     H  117   9.559   5.962   6.596  1.2559  2.0254 -0.2026
    1MOL0     H  118   8.744   5.801   7.146 -1.8082 -0.1256 -0.4948
    1MOL0     H  119   8.528   5.769   7.206  0.7070 -0.4634  0.6623
    1MOL0     H  120   8.234   5.479   7.082 -0.8690 -0.7022 -1.2957
    1MOL0     H  121   7.995   5.427   7.029 -0.3695  0.8459 -0.4903
    1MOL0     H  122   6.160   4.863   7.152  0.5440  0.1636  1.5439
    1MOL0     H  123   5.953   4.725   7.217 -1.7860 -1.3323 -0.5827
    1MOL0     H  124   5.523   4.829   6.984 -0.0708 -0.9607 -1.3527
    1MOL0     H  125   5.309   4.817   6.913 -0.7357 -0.8094  0.2627
    1MOL0     H  126   5.002   4.885   7.194  3.4292 -3.0311  1.1512
    1MOL0     H  127   4.939   4.874   7.031  1.0251  1.9179  0.7961
    1MOL0     H  128   4.836   4.742   7.257  0.8432  3.4186 -1.4680
    1MOL0     H  129   4.975   4.629   7.226 -0.6438 -0.8281 -0.6784
    1MOL0     H  130   4.749   4.689   7.021 -0.1011 -2.6803 -3.8986
    1MOL0     H  131   4.894   4.585   7.002  1.1886  0.4789  1.1871
    1MOL0     H  132   4.799   4.451   7.191  1.3619  0.0913  0.0702
    1MOL0     H  133   4.733   4.428   7.035  2.5757  1.9447 -0.1988
    1MOL0     H  134   4.400   4.532   7.271 -0.2351 -1.0956  0.6284
    1MOL0     H  135   5.161   4.757   7.312 -1.2055  1.6373 -0.5477
    1MOL0     H  136   5.281   4.815   7.480 -0.2868 -3.7973  1.8272
    1MOL0     H  137   5.424   4.708   7.476 -1.8198 -1.0986  3.1068
    1MOL0     H  138   5.441   4.890   7.476 -0.5987 -1.5095  0.7877
    2MOL0     O  139   2.573   6.256   4.191 -0.1960 -0.0568  0.1476
    2MOL0     C  140   2.576   6.355   4.117  0.0812  0.1667  0.0998
    2MOL0     O  141   2.683   6.407   4.062 -0.0004  0.3832  0.7437
    2MOL0     C  142   2.799   6.341   4.103  0.6083  0.1826  0.2812
    2MOL0     C  143   2.851   6.368   4.220  0.4238  0.7126 -0.2576
    2MOL0     C  144   2.949   6.281   4.276 -0.7846  0.1529  0.3830
    2MOL0     C  145   3.002   6.188   4.193 -0.4407 -0.0972  0.1565
    2MOL0     O  146   3.082   6.104   4.273 -1.1081 -0.1501 -0.7299
    2MOL0     C  147   3.135   5.985   4.223 -0.2036 -0.4853 -0.0006
    2MOL0     C  148   3.219   5.919   4.320 -0.3332 -0.4573  0.5894
    2MOL0     C  149   3.357   5.987   4.323  0.1994  0.7680 -0.3639
    2MOL0     C  150   3.433   5.949   4.450 -0.6503 -0.4063  1.0647
    2MOL0     C  151   3.569   6.007   4.451  0.2682 -0.0689  0.0093
    2MOL0     C  152   3.653   5.962   4.568  0.9591 -0.3377  0.0519
    2MOL0     C  153   3.797   6.009   4.552 -0.0887  0.1676  0.4980
    2MOL0     C  154   3.890   5.928   4.453  0.4729 -0.0502  0.2392
    2MOL0     N  155   3.936   6.003   4.334 -0.5174 -1.2227  0.0275
    2MOL0     C  156   3.862   6.089   4.260 -0.9117  0.2878  0.1563
    2MOL0     C  157   3.940   6.133   4.160 -0.5067 -0.5645  0.2941
    2MOL0     C  158   3.912   6.229   4.052  0.0200  0.6553  0.3837
    2MOL0     C  159   4.007   6.354   4.062  0.5120 -0.1878  0.0970
    2MOL0     C  160   3.957   6.458   3.964  0.1976 -0.3167  0.5423
    2MOL0     C  161   4.002   6.610   3.982 -0.6552 -0.0375  0.2762
    2MOL0     O  162   3.966   6.713   3.884 -0.0406  0.1592  0.2135
    2MOL0     C  163   3.839   6.771   3.880  0.2684  0.5198  0.6615
    2MOL0     C  164   3.731   6.731   3.966 -0.5057  0.0939 -0.2759
    2MOL0     C  165   3.600   6.785   3.948  0.2233 -0.1786 -0.3930
    2MOL0     C  166   3.487   6.747   4.052 -0.5514 -0.8574 -0.1362
    2MOL0     C  167   3.578   6.884   3.852  0.1401 -0.9115 -0.2664
    2MOL0     C  168   3.446   6.943   3.829 -0.3479  0.3718  0.3647
    2MOL0     O  169   3.336   6.864   3.824 -0.1123 -0.2713  0.3624
    2MOL0     C  170   3.214   6.918   3.802 -0.5389  0.0807  0.2220
    2MOL0     C  171   3.189   7.003   3.699 -0.7327  0.1566  0.0337
    2MOL0     C  172   3.064   7.057   3.676  0.7396  0.8691  0.7567
    2MOL0     C  173   2.956   7.021   3.758  0.9451 -0.8276  1.1002
    2MOL0     O  174   2.834   7.081   3.740  0.5406  0.4149 -0.2508
    2MOL0     C  175   2.786   7.122   3.610 -0.8749  1.3608 -0.0278
    2MOL0     C  176   2.738   7.009   3.512  0.0523  0.3741 -0.1931
    2MOL0     C  177   2.622   7.050   3.416  0.7909 -0.8373 -0.5794
    2MOL0     C  178   2.497   7.092   3.495  0.8812 -0.7432  0.3492
    2MOL0     C  179   2.369   7.130   3.407  0.5857 -0.2796 -0.0668
    2MOL0     C  180   2.381   7.240   3.305  0.7828 -0.9741  1.2417
    2MOL0     C  181   2.238   7.277   3.242 -0.2982 -0.6535 -0.7789
    2MOL0     C  182   2.204   7.422   3.244 -0.5327 -0.4023  0.1382
    2MOL0    Cl  183   2.049   7.443   3.157  0.1890  0.4457 -0.1811
    2MOL0     C  184   2.979   6.936   3.866 -0.2708  0.6136 -0.3417
    2MOL0     C  185   3.105   6.873   3.882  1.2379  0.0994 -0.3950
    2MOL0     O  186   3.447   7.064   3.816 -0.6637 -0.4611 -0.0519
    2MOL0     C  187   3.690   6.923   3.768  0.7017  0.0943 -1.2719
    2MOL0     C  188   3.814   6.855   3.777  0.5569 -0.4968 -0.4638
    2MOL0     N  189   4.074   6.095   4.192  0.1505 -0.6429  0.3610
    2MOL0     N  190   4.067   6.017   4.295  0.3215 -0.0833  0.4374
    2MOL0     C  191   2.973   6.176   4.054  0.2523  0.1678 -0.8368
    2MOL0     C  192   2.869   6.257   4.010  0.3925  0.1758  0.9597
    2MOL0     C  193   2.453   6.412   4.059 -1.0762 -0.1260 -0.5764
    2MOL0     C  194   2.459   6.489   3.946  1.1634  0.0536  0.1222
    2MOL0     C  195   2.341   6.554   3.894  0.3729 -0.3889  0.6532
    2MOL0     C  196   2.221   6.540   3.953  0.0200  0.5082  0.0804
    2MOL0     O  197   2.106   6.608   3.914  0.6738 -0.3349  0.4861
    2MOL0     C  198   2.096   6.674   3.788  0.6474  0.6572  0.1594
    2MOL0     C  199   1.945   6.706   3.758  0.1690  0.5373  0.6050
    2MOL0     C  200   1.884   6.829   3.839  0.1266 -0.4885  0.3807
    2MOL0     C  201   1.903   6.965   3.767 -0.1920  0.6821  0.2936
    2MOL0     C  202   1.794   6.990   3.676  0.1744 -0.7139  0.7668
    2MOL0     C  203   1.703   6.989   3.588 -0.7328 -0.7563 -0.2804
    2MOL0     C  204   2.206   6.452   4.057 -0.2157 -0.3498  0.7794
    2MOL0     C  205   2.319   6.389   4.115  0.1506  0.2729 -0.0463
    2MOL0     C  206   2.293   6.293   4.222  1.4038 -0.0890 -0.1724
    2MOL0     H  207   2.802   6.434   4.292  2.5106  0.6778  1.3129
    2MOL0     H  208   2.971   6.288   4.382  1.2092 -1.8217  0.1943
    2MOL0     H  209   3.196   5.998   4.133  0.9283 -1.7698  0.5453
    2MOL0     H  210   3.048   5.920   4.207 -0.3009 -1.0429  2.3434
    2MOL0     H  211   3.168   5.929   4.416 -0.6754 -0.7239  0.4383
    2MOL0     H  212   3.244   5.813   4.303  1.8279  0.1103 -0.0656
    2MOL0     H  213   3.407   5.938   4.239 -0.6695 -1.1671  0.2031
    2MOL0     H  214   3.349   6.096   4.319 -1.8721  0.6183 -1.7197
    2MOL0     H  215   3.374   5.978   4.538  0.7130  0.7487  1.6297
    2MOL0     H  216   3.446   5.840   4.450 -1.0335 -0.5035 -1.3234
    2MOL0     H  217   3.573   6.115   4.431  1.7231 -0.3230 -1.3607
    2MOL0     H  218   3.623   5.952   4.374  0.1428 -0.0163 -0.1164
    2MOL0     H  219   3.598   6.006   4.651 -0.6031  1.7364 -1.9725
    2MOL0     H  220   3.644   5.854   4.581  1.6031 -0.3456  0.5008
    2MOL0     H  221   3.845   6.013   4.650 -1.2464  2.3194  1.0296
    2MOL0     H  222   3.779   6.110   4.516  2.1028  0.2678 -0.4609
    2MOL0     H  223   3.971   5.885   4.513 -0.6330 -3.8719 -0.7171
    2MOL0     H  224   3.840   5.841   4.409  0.4007 -0.7486  1.6232
    2MOL0     H  225   3.754   6.099   4.262 -0.8666  0.7153  0.9031
    2MOL0     H  226   3.808   6.261   4.055 -0.1425  0.7397 -2.8448
    2MOL0     H  227   3.934   6.178   3.958 -0.6912  1.7904 -0.4208
    2MOL0     H  228   3.991   6.397   4.162  0.0915  2.1941 -0.9100
    2MOL0     H  229   4.110   6.337   4.028  0.5313 -0.0859  0.1027
    2MOL0     H  230   3.985   6.431   3.861  0.4510  1.4643  0.1098
    2MOL0     H  231   3.850   6.457   3.986  0.1514  1.3307  0.4614
    2MOL0     H  232   3.968   6.640   4.082  4.0201  0.2692  2.0510
    2MOL0     H  233   4.111   6.610   3.993 -0.8169 -1.2373  2.6090
    2MOL0     H  234   3.750   6.664   4.049 -0.4947  0.3637 -0.0593
    2MOL0     H  235   3.423   6.828   4.089  0.7212  0.4160 -0.6497
    2MOL0     H  236   3.534   6.707   4.143 -0.4180  0.1174  0.2406
    2MOL0     H  237   3.419   6.671   4.013  0.5978 -1.3193 -1.3229
    2MOL0     H  238   3.277   7.025   3.639 -1.1462  1.7012 -0.0569
    2MOL0     H  239   3.057   7.134   3.600  0.8105 -0.5205 -0.6860
    2MOL0     H  240   2.705   7.195   3.616 -0.1400  2.4338 -2.0815
    2MOL0     H  241   2.869   7.180   3.568  0.4860 -1.0269 -0.8509
    2MOL0     H  242   2.827   6.975   3.458  0.0435 -0.0576  0.0594
    2MOL0     H  243   2.694   6.928   3.571  1.2816 -0.2098 -0.0613
    2MOL0     H  244   2.602   6.967   3.348 -4.8700  0.4018 -0.8639
    2MOL0     H  245   2.643   7.134   3.349  0.4913  1.5128  2.1031
    2MOL0     H  246   2.514   7.175   3.565 -0.5564 -0.1077 -0.0151
    2MOL0     H  247   2.483   7.005   3.559  0.8837  0.1343  1.5628
    2MOL0     H  248   2.354   7.032   3.361 -0.1245 -1.0099  1.6420
    2MOL0     H  249   2.284   7.157   3.470  0.2832  2.8649 -1.6071
    2MOL0     H  250   2.451   7.216   3.225 -1.0622 -0.4701 -0.6217
    2MOL0     H  251   2.416   7.330   3.358 -2.7075  2.9986 -2.3922
    2MOL0     H  252   2.164   7.231   3.308  1.3509 -0.0810  1.5651
    2MOL0     H  253   2.221   7.238   3.141  0.7870  1.1875 -1.7281
    2MOL0     H  254   2.285   7.484   3.203 -2.6422  2.1767 -0.4195
    2MOL0     H  255   2.186   7.457   3.346 -3.2661  0.7483 -0.6456
    2MOL0     H  256   2.899   6.913   3.936  0.5856  3.5615  1.8053
    2MOL0     H  257   3.129   6.804   3.962 -1.3926  0.6569  1.0246
    2MOL0     H  258   3.678   6.999   3.691  5.0810  2.1911 -0.1551
    2MOL0     H  259   3.899   6.889   3.719  1.1653 -0.6351  0.3236
    2MOL0     H  260   3.026   6.109   3.988  0.1546 -1.5354  0.7207
    2MOL0     H  261   2.827   6.235   3.913 -0.4226 -1.9970  1.7359
    2MOL0     H  262   2.553   6.509   3.896  2.2879  0.0046  2.1001
    2MOL0     H  263   2.359   6.614   3.806  1.0699 -1.0369  0.3467
    2MOL0     H  264   2.141   6.774   3.786  0.9610  0.5110 -0.0539
    2MOL0     H  265   2.140   6.599   3.723  0.9624 -3.1398  4.2580
    2MOL0     H  266   1.895   6.610   3.777 -4.8241  2.2648 -2.1845
    2MOL0     H  267   1.940   6.730   3.652 -0.9580  0.1870  0.5629
    2MOL0     H  268   1.778   6.809   3.852  0.0642  0.8180  2.1315
    2MOL0     H  269   1.930   6.848   3.936 -0.9199  1.5550  0.5230
    2MOL0     H  270   1.996   6.959   3.709  0.7024 -0.0685  1.7493
    2MOL0     H  271   1.904   7.042   3.844  1.3827 -0.9128  1.9435
    2MOL0     H  272   1.628   6.997   3.512 -1.5116  2.7240  0.6700
    2MOL0     H  273   2.111   6.447   4.109 -0.6834  0.2016  0.0040
    2MOL0     H  274   2.307   6.194   4.177  0.8289 -0.4966  0.5063
    2MOL0     H  275   2.362   6.308   4.305 -0.6527  1.4716  1.3647
    2MOL0     H  276   2.191   6.291   4.264  1.1914  0.9077 -0.6303
    3MOL0     O  277   3.217   3.840   6.897 -0.3352  0.7435 -0.8335
    3MOL0     C  278   3.145   3.934   6.892  0.1423  0.8404 -0.2939
    3MOL0     O  279   3.153   4.047   6.980  0.9782  0.1119 -0.2837
    3MOL0     C  280   3.268   4.048   7.056  0.1717  0.0003  0.9997
    3MOL0     C  281   3.395   4.031   7.006  0.3922 -0.8642 -0.4827
    3MOL0     C  282   3.510   4.068   7.068 -0.2585 -0.0813  0.6652
    3MOL0     C  283   3.501   4.114   7.202 -0.4235 -0.2342  0.1912
    3MOL0     O  284   3.618   4.152   7.258  0.0721 -0.0132 -0.0117
    3MOL0     C  285   3.615   4.175   7.401 -0.8511  0.3288  0.0258
    3MOL0     C  286   3.747   4.230   7.449 -0.4425  0.7357 -0.4712
    3MOL0     C  287   3.873   4.146   7.414 -0.5969  0.0623 -0.5445
    3MOL0     C  288   3.994   4.203   7.504  0.3794 -0.0816 -0.9092
    3MOL0     C  289   4.124   4.150   7.475 -0.1164  0.6448  0.3819
    3MOL0     C  290   4.129   4.000   7.485  0.0093 -0.0315  0.5203
    3MOL0     C  291   4.132   3.910   7.359  0.1739 -0.2256  0.1052
    3MOL0     C  292   4.108   3.762   7.393  0.2781 -0.1966  0.3901
    3MOL0     N  293   4.108   3.671   7.286  0.2460 -0.1687 -0.7910
    3MOL0     C  294   4.003   3.595   7.262  0.3430 -0.3490  0.7565
    3MOL0     C  295   4.037   3.519   7.148  0.0351 -0.1447 -0.2213
    3MOL0     C  296   3.959   3.410   7.082 -0.1694 -0.0888 -0.1130
    3MOL0     C  297   3.871   3.327   7.174  0.1457 -0.3688  0.3237
    3MOL0     C  298   3.776   3.238   7.088  0.3508 -1.6030 -0.7442
    3MOL0     C  299   3.851   3.164   6.984  0.0970  0.0238  0.0387
    3MOL0     O  300   3.959   3.091   7.047 -1.0640  0.0809  0.0305
    3MOL0     C  301   4.049   3.041   6.961 -1.2294 -0.7416  1.0964
    3MOL0     C  302   4.049   2.906   6.919 -0.0710 -0.7968  0.0347
    3MOL0     C  303   4.161   2.857   6.841 -0.2465 -0.4594  0.4455
    3MOL0     C  304   4.139   2.713   6.798 -0.2710 -0.1199 -0.3618
    3MOL0     C  305   4.254   2.949   6.789  0.5295 -0.6589 -0.3555
    3MOL0     C  306   4.366   2.917   6.697  0.0269 -0.1756 -1.0520
    3MOL0     O  307   4.443   3.026   6.657  0.3961  0.4147  0.4068
    3MOL0     C  308   4.560   2.999   6.582  0.1904  0.3300 -0.2736
    3MOL0     C  309   4.592   3.075   6.466 -0.1827  0.0012 -0.0798
    3MOL0     C  310   4.713   3.058   6.410  0.0709  0.1489  0.3691
    3MOL0     C  311   4.807   2.955   6.453 -0.6983 -0.2070  0.3393
    3MOL0     O  312   4.923   2.934   6.387 -0.0075 -0.1194  0.2522
    3MOL0     C  313   4.989   3.047   6.323  0.0009  0.1951  0.1889
    3MOL0     C  314   5.120   3.015   6.254 -0.3310  0.4970  0.0407
    3MOL0     C  315   5.214   2.931   6.342  0.3069  0.8204 -1.0279
    3MOL0     C  316   5.181   2.778   6.354 -0.2842  0.4066  1.1839
    3MOL0     C  317   5.300   2.711   6.427 -0.0982 -0.1398 -0.0667
    3MOL0     C  318   5.268   2.565   6.461 -0.8217  0.3881  0.4550
    3MOL0     C  319   5.272   2.474   6.340 -1.4417 -0.2104 -0.1264
    3MOL0     C  320   5.350   2.339   6.363 -0.1071  1.0692  0.5715
    3MOL0    Cl  321   5.291   2.261   6.511  0.0720 -0.1625  0.1571
    3MOL0     C  322   4.781   2.891   6.570 -0.3085 -0.0675 -0.2911
    3MOL0     C  323   4.658   2.913   6.633 -0.2282 -0.1917 -0.7843
    3MOL0     O  324   4.372   2.805   6.646 -0.0406 -0.4874  0.0252
    3MOL0     C  325   4.251   3.081   6.845 -0.0767  1.0802  1.2418
    3MOL0     C  326   4.154   3.129   6.927 -0.1028 -0.4440  0.9238
    3MOL0     N  327   4.166   3.552   7.115 -0.0864  0.0979  0.1824
    3MOL0     N  328   4.207   3.635   7.201 -0.1812 -0.6320 -0.2177
    3MOL0     C  329   3.372   4.122   7.264 -0.1527  0.0950  0.4554
    3MOL0     C  330   3.254   4.084   7.190  0.1191  1.3620 -0.5119
    3MOL0     C  331   3.029   3.924   6.801 -0.5071 -0.5161 -0.2282
    3MOL0     C  332   2.913   3.986   6.836  0.5902  0.2684 -0.6862
    3MOL0     C  333   2.809   3.997   6.743  0.3057  0.1759 -0.5898
    3MOL0     C  334   2.815   3.910   6.632  0.2871 -0.4111  0.3779
    3MOL0     O  335   2.709   3.899   6.547 -0.5030  0.0498  0.2131
    3MOL0     C  336   2.578   3.913   6.593 -0.2762  0.0032 -0.9486
    3MOL0     C  337   2.522   4.060   6.559 -0.4851  0.0220 -0.7500
    3MOL0     C  338   2.492   4.107   6.409  0.3619  0.2434 -0.1733
    3MOL0     C  339   2.620   4.108   6.327 -0.3800  0.3438  1.1973
    3MOL0     C  340   2.593   4.178   6.197 -0.4266  0.1834 -0.1654
    3MOL0     C  341   2.565   4.251   6.104 -0.0713 -0.4840  0.6811
    3MOL0     C  342   2.929   3.840   6.592 -0.5176  0.5256 -0.6142
    3MOL0     C  343   3.037   3.847   6.686  0.3669  0.1518  1.1634
    3MOL0     C  344   3.164   3.783   6.643 -0.1764  0.3109 -0.3804
    3MOL0     H  345   3.405   4.005   6.901 -2.7976  0.8350 -1.3523
    3MOL0     H  346   3.607   4.075   7.020 -0.3360  2.7536  0.7025
    3MOL0     H  347   3.596   4.086   7.461  2.0913 -0.3607  0.0919
    3MOL0     H  348   3.548   4.258   7.424 -0.6016  0.0540  1.9137
    3MOL0     H  349   3.760   4.329   7.405 -0.2109  0.7268 -0.4209
    3MOL0     H  350   3.746   4.230   7.559 -1.6906 -4.2750 -0.2276
    3MOL0     H  351   3.862   4.039   7.434  1.4375  0.0515  0.8110
    3MOL0     H  352   3.899   4.164   7.309  1.4353  0.9042  0.0508
    3MOL0     H  353   4.000   4.312   7.496 -0.7356  0.0451 -0.2267
    3MOL0     H  354   3.966   4.178   7.607  0.4444 -1.2957 -1.1744
    3MOL0     H  355   4.194   4.184   7.551 -0.6056 -0.5777  1.4121
    3MOL0     H  356   4.163   4.178   7.376 -2.0475 -0.3075 -0.7110
    3MOL0     H  357   4.226   3.969   7.526  1.1364 -2.1952 -3.2643
    3MOL0     H  358   4.052   3.963   7.553  0.5531 -1.4294  0.4301
    3MOL0     H  359   4.231   3.918   7.312  1.9082  2.2643  3.7329
    3MOL0     H  360   4.062   3.946   7.284 -0.3391  0.6176  0.9712
    3MOL0     H  361   4.189   3.727   7.457  2.0676  1.6983 -0.7268
    3MOL0     H  362   4.008   3.762   7.438  0.0840 -0.6238 -0.0400
    3MOL0     H  363   3.920   3.581   7.330 -1.1361 -0.4685 -1.0028
    3MOL0     H  364   4.038   3.344   7.047  0.9339  1.2726 -0.2890
    3MOL0     H  365   3.904   3.441   6.993  1.0643  0.1984 -0.7956
    3MOL0     H  366   3.932   3.254   7.228 -1.6221 -2.2264 -0.0689
    3MOL0     H  367   3.807   3.388   7.240  1.2045 -1.5710  2.5732
    3MOL0     H  368   3.740   3.163   7.160 -0.3508  2.7381  3.9607
    3MOL0     H  369   3.693   3.300   7.052  1.5053  0.0620 -0.6378
    3MOL0     H  370   3.785   3.085   6.946  0.2126 -0.7527  1.3818
    3MOL0     H  371   3.885   3.220   6.897 -2.0784  0.3325 -0.6820
    3MOL0     H  372   3.962   2.845   6.939 -0.3795 -0.9443 -1.6333
    3MOL0     H  373   4.031   2.695   6.806 -0.5155  0.2240 -2.4183
    3MOL0     H  374   4.209   2.653   6.857  1.1347  1.5128 -0.2919
    3MOL0     H  375   4.166   2.697   6.693 -2.2196 -1.6825 -0.6965
    3MOL0     H  376   4.510   3.138   6.432 -0.4098 -0.1902  0.1086
    3MOL0     H  377   4.731   3.123   6.325 -1.7824  2.6327  1.7443
    3MOL0     H  378   4.916   3.076   6.247 -1.4615  0.9900  1.8482
    3MOL0     H  379   5.004   3.133   6.388 -2.1430  0.2545  0.6819
    3MOL0     H  380   5.100   2.958   6.163 -3.1332  1.3443  0.0508
    3MOL0     H  381   5.179   3.104   6.231  2.3549 -1.6647 -2.2203
    3MOL0     H  382   5.198   2.965   6.444 -0.2712  0.1302 -0.8775
    3MOL0     H  383   5.320   2.939   6.316  0.5547 -0.4818 -0.4878
    3MOL0     H  384   5.166   2.734   6.255 -0.2804  1.4589  0.6910
    3MOL0     H  385   5.089   2.768   6.412 -0.8626 -0.3587  0.1576
    3MOL0     H  386   5.394   2.715   6.371 -0.0761 -0.3454 -0.0439
    3MOL0     H  387   5.316   2.772   6.517 -0.8935  1.2801 -0.8630
    3MOL0     H  388   5.172   2.556   6.512 -1.5559 -0.5307 -1.0412
    3MOL0     H  389   5.351   2.537   6.527 -1.1616 -0.4541  0.5326
    3MOL0     H  390   5.320   2.519   6.253 -0.6615 -0.8970 -0.0628
    3MOL0     H  391   5.171   2.440   6.318 -1.4259 -0.6622  0.4709
    3MOL0     H  392   5.459   2.343   6.369  0.4766 -2.8581 -2.6811
    3MOL0     H  393   5.339   2.279   6.272  0.0630  0.8333  0.7052
    3MOL0     H  394   4.842   2.817   6.620  0.9743  0.0665 -1.6143
    3MOL0     H  395   4.636   2.849   6.718 -0.7760 -0.7796 -1.3581
    3MOL0     H  396   4.335   3.145   6.820  1.9154 -2.2690 -1.4734
    3MOL0     H  397   4.166   3.232   6.959  3.5053 -1.1534  2.2950
    3MOL0     H  398   3.354   4.159   7.365  0.0777  1.4497  0.0216
    3MOL0     H  399   3.162   4.111   7.242  0.9439 -2.3509  3.4255
    3MOL0     H  400   2.897   4.033   6.933 -1.9434 -2.0602  0.1410
    3MOL0     H  401   2.722   4.059   6.764  0.6122 -0.2293  2.2716
    3MOL0     H  402   2.517   3.839   6.541 -0.8108  0.4095 -0.9123
    3MOL0     H  403   2.552   3.894   6.698 -2.4282 -0.4072 -1.5132
    3MOL0     H  404   2.600   4.128   6.595 -2.8326  0.7906  3.6537
    3MOL0     H  405   2.434   4.062   6.624 -1.3357 -0.3330 -1.8522
    3MOL0     H  406   2.416   4.047   6.359 -0.4852  1.4113 -0.3238
    3MOL0     H  407   2.460   4.210   6.425 -1.1378 -0.6141  3.4871
    3MOL0     H  408   2.655   4.009   6.298 -1.2806  0.5517 -0.7775
    3MOL0     H  409   2.697   4.167   6.378  0.6979 -0.5428  0.6219
    3MOL0     H  410   2.554   4.307   6.013  3.0068  0.7660  0.9590
    3MOL0     H  411   2.930   3.778   6.503 -0.5176 -1.7138  0.8518
    3MOL0     H  412   3.171   3.758   6.536  3.0824  0.1489 -0.2433
    3MOL0     H  413   3.245   3.857   6.647  1.8045 -1.6042 -2.1235
    3MOL0     H  414   3.186   3.693   6.702  0.5211  0.5467 -0.2708
    4MOL0     O  415   5.490   6.351   2.744 -0.1947  0.6500 -0.6007
    4MOL0     C  416   5.487   6.275   2.644  0.1992 -0.6817  0.2483
    4MOL0     O  417   5.591   6.217   2.576 -0.1613 -0.1031  0.0944
    4MOL0     C  418   5.715   6.276   2.583 -0.4858 -0.5221  0.9590
    4MOL0     C  419   5.833   6.200   2.589 -0.0662 -0.0048 -0.1080
    4MOL0     C  420   5.963   6.263   2.611 -0.7068  0.2877 -0.4314
    4MOL0     C  421   5.972   6.404   2.605  0.1243 -1.2700 -0.5436
    4MOL0     O  422   6.094   6.475   2.612 -0.3043  0.1867 -0.0129
    4MOL0     C  423   6.219   6.405   2.595 -0.1547  0.2291 -0.1505
    4MOL0     C  424   6.331   6.511   2.607  0.1595 -0.3765 -0.2156
    4MOL0     C  425   6.470   6.450   2.605  0.0577  0.1261 -0.4038
    4MOL0     C  426   6.581   6.543   2.651 -0.3049  0.1073  0.5736
    4MOL0     C  427   6.720   6.485   2.607  0.0987  0.2619  0.1627
    4MOL0     C  428   6.828   6.542   2.693 -0.6965  0.0812 -0.3665
    4MOL0     C  429   6.972   6.498   2.677 -0.5474  0.0167 -0.1469
    4MOL0     C  430   7.060   6.563   2.790  0.1123  0.1862 -0.5751
    4MOL0     N  431   7.206   6.542   2.750 -0.2924  0.6825  0.0348
    4MOL0     C  432   7.293   6.445   2.799  0.2219 -0.5671 -0.4929
    4MOL0     C  433   7.414   6.482   2.755  0.2438  0.5223  0.6245
    4MOL0     C  434   7.534   6.398   2.788  0.2340 -0.0097 -0.2962
    4MOL0     C  435   7.568   6.312   2.673 -0.6823  0.1230  0.4080
    4MOL0     C  436   7.712   6.259   2.662 -0.2894  1.0894 -0.4187
    4MOL0     C  437   7.818   6.369   2.634 -0.5115 -0.1061  0.3301
    4MOL0     O  438   7.943   6.324   2.574 -0.0909 -0.2467 -0.2015
    4MOL0     C  439   8.060   6.384   2.585  0.2377 -0.3864 -0.0966
    4MOL0     C  440   8.081   6.517   2.616 -0.5006  0.0300 -0.0177
    4MOL0     C  441   8.211   6.565   2.624 -0.1197 -0.0962 -0.9123
    4MOL0     C  442   8.223   6.714   2.635 -0.3789 -1.0522 -0.7335
    4MOL0     C  443   8.324   6.484   2.612  0.5206  0.3121 -0.1457
    4MOL0     C  444   8.457   6.536   2.626 -0.5097 -0.1777  0.5824
    4MOL0     O  445   8.483   6.630   2.720  0.2951 -0.0091  0.3199
    4MOL0     C  446   8.619   6.652   2.743 -0.6945 -0.4391 -0.4534
    4MOL0     C  447   8.700   6.558   2.806 -0.3127  0.2028 -0.7944
    4MOL0     C  448   8.836   6.587   2.825 -0.0108  0.3300  0.0205
    4MOL0     C  449   8.904   6.695   2.773 -0.2122 -0.2437  0.8870
    4MOL0     O  450   9.039   6.710   2.786 -0.2915  1.0501  0.1734
    4MOL0     C  451   9.107   6.755   2.661  0.2910  0.3365  0.1931
    4MOL0     C  452   9.256   6.703   2.654 -0.2601 -0.7075  1.1643
    4MOL0     C  453   9.262   6.557   2.616 -0.0897  0.4487  0.3540
    4MOL0     C  454   9.414   6.501   2.615 -0.4395  0.5573 -0.0886
    4MOL0     C  455   9.416   6.357   2.565  0.0366 -1.0302 -0.2370
    4MOL0     C  456   9.418   6.328   2.409 -0.2053 -0.2580  0.0307
    4MOL0     C  457   9.527   6.404   2.338  0.5467 -0.3405 -1.1378
    4MOL0     C  458   9.668   6.368   2.382 -0.7268 -0.4145 -0.0069
    4MOL0    Cl  459   9.784   6.376   2.254  0.0553  0.2189 -0.2331
    4MOL0     C  460   8.826   6.794   2.714  1.0533 -0.2823 -0.5435
    4MOL0     C  461   8.687   6.771   2.705  0.1946  0.5370  0.4742
    4MOL0     O  462   8.538   6.481   2.558 -0.2513  0.4171 -0.2185
    4MOL0     C  463   8.299   6.354   2.579 -0.2316 -0.2047  0.1690
    4MOL0     C  464   8.168   6.307   2.573  0.4408  0.3171  0.2530
    4MOL0     N  465   7.397   6.593   2.667  0.7878  0.3874 -0.4549
    4MOL0     N  466   7.273   6.635   2.682 -0.2003  0.5679 -0.2162
    4MOL0     C  467   5.853   6.477   2.582 -0.2281  0.2798  0.0768
    4MOL0     C  468   5.729   6.412   2.567 -0.0122 -0.4747 -0.3841
    4MOL0     C  469   5.339   6.253   2.614  0.0043 -0.6254 -0.3132
    4MOL0     C  470   5.239   6.325   2.687 -0.0200 -0.2901 -0.7284
    4MOL0     C  471   5.108   6.330   2.645  1.0452  0.5142 -0.0748
    4MOL0     C  472   5.065   6.256   2.532  0.2336  0.2223  0.0519
    4MOL0     O  473   4.934   6.267   2.501 -0.1180  0.4867 -0.0228
    4MOL0     C  474   4.889   6.205   2.383 -0.4341 -0.3376  0.1594
    4MOL0     C  475   4.744   6.242   2.383 -0.3708  0.0468  0.0502
    4MOL0     C  476   4.652   6.159   2.469  0.7124 -0.1417 -0.3069
    4MOL0     C  477   4.519   6.234   2.493  0.5759 -0.1244  0.4338
    4MOL0     C  478   4.431   6.235   2.375  0.0909 -0.3236 -0.7300
    4MOL0     C  479   4.344   6.239   2.291  0.2716 -0.4000  0.7555
    4MOL0     C  480   5.157   6.177   2.466 -0.1053 -0.1823 -0.1580
    4MOL0     C  481   5.298   6.182   2.493 -1.0093 -0.4082 -1.0371
    4MOL0     C  482   5.391   6.093   2.412  0.6165  0.2393  0.4900
    4MOL0     H  483   5.818   6.093   2.599  2.4848 -0.6517 -2.1856
    4MOL0     H  484   6.046   6.196   2.627 -2.8187 -1.7770  3.3236
    4MOL0     H  485   6.232   6.363   2.495 -0.4903 -1.5883  0.5271
    4MOL0     H  486   6.230   6.330   2.674  2.9680 -1.7830 -2.2690
    4MOL0     H  487   6.320   6.596   2.540 -1.7675  1.5285  2.2818
    4MOL0     H  488   6.320   6.567   2.701  2.3456  2.7626 -1.6652
    4MOL0     H  489   6.475   6.369   2.679  1.0906 -0.1107 -0.7124
    4MOL0     H  490   6.486   6.400   2.510  0.3565 -3.5153  1.3898
    4MOL0     H  491   6.571   6.644   2.610 -1.9963 -0.4754 -0.5521
    4MOL0     H  492   6.580   6.565   2.758  0.1750 -0.1328  0.6320
    4MOL0     H  493   6.737   6.500   2.500 -0.3143 -0.0239  0.0525
    4MOL0     H  494   6.718   6.376   2.623 -1.3944 -0.0312 -1.6355
    4MOL0     H  495   6.826   6.651   2.685  2.4644  0.1963 -1.0873
    4MOL0     H  496   6.812   6.521   2.799  4.4084  1.6162  1.0322
    4MOL0     H  497   7.005   6.531   2.578 -3.1135 -1.2194 -1.5097
    4MOL0     H  498   6.981   6.389   2.677 -2.6180 -0.2017 -0.4311
    4MOL0     H  499   7.038   6.670   2.794 -2.1318 -0.2680  1.8032
    4MOL0     H  500   7.026   6.521   2.885 -1.8856 -1.2012 -1.8245
    4MOL0     H  501   7.258   6.365   2.862  0.3988 -0.6477 -0.4959
    4MOL0     H  502   7.517   6.332   2.874  0.5698 -0.3984 -0.5235
    4MOL0     H  503   7.623   6.458   2.808  1.2528 -0.4998 -2.9973
    4MOL0     H  504   7.505   6.223   2.670 -3.4381  1.9162  1.5372
    4MOL0     H  505   7.555   6.370   2.581  1.3391 -0.5033 -0.3271
    4MOL0     H  506   7.740   6.218   2.760  0.9183  1.5990 -0.5337
    4MOL0     H  507   7.719   6.175   2.593  1.1352 -1.1715  2.2286
    4MOL0     H  508   7.770   6.432   2.558  0.7694 -0.1369 -0.5383
    4MOL0     H  509   7.827   6.438   2.719  2.3713 -0.5146  0.4604
    4MOL0     H  510   8.001   6.587   2.635 -1.2026  0.6039 -4.1277
    4MOL0     H  511   8.127   6.767   2.631 -0.2004 -0.8071 -1.9554
    4MOL0     H  512   8.282   6.747   2.550  1.3696  1.8817  1.4137
    4MOL0     H  513   8.276   6.757   2.721 -1.5505  1.3254 -1.1085
    4MOL0     H  514   8.664   6.460   2.838  1.9775 -0.3686  0.2659
    4MOL0     H  515   8.890   6.499   2.857 -1.0039 -0.9899 -1.7537
    4MOL0     H  516   9.051   6.723   2.573  0.8781  0.6953 -0.3097
    4MOL0     H  517   9.097   6.863   2.656 -5.9064  0.1387 -0.6665
    4MOL0     H  518   9.309   6.778   2.594 -1.7021  0.7041  1.5742
    4MOL0     H  519   9.305   6.716   2.750  3.1942  1.4543 -0.6629
    4MOL0     H  520   9.207   6.541   2.523 -2.3860 -3.9791  2.1424
    4MOL0     H  521   9.202   6.499   2.686 -3.3841 -0.7455 -3.0952
    4MOL0     H  522   9.462   6.503   2.713  3.7071  1.1598 -1.9346
    4MOL0     H  523   9.485   6.567   2.563  1.7291 -1.3397  0.3259
    4MOL0     H  524   9.504   6.316   2.615  0.2727  1.8908  1.9893
    4MOL0     H  525   9.329   6.304   2.603  1.0081 -3.3451 -1.0908
    4MOL0     H  526   9.317   6.344   2.370  0.0338  0.5939 -0.2531
    4MOL0     H  527   9.444   6.223   2.392 -3.6743 -0.8407 -2.6913
    4MOL0     H  528   9.503   6.507   2.364 -2.9760 -0.6696 -2.5733
    4MOL0     H  529   9.513   6.388   2.231 -0.1868  2.8220 -1.6107
    4MOL0     H  530   9.662   6.265   2.416 -1.4404 -0.5192 -0.4373
    4MOL0     H  531   9.700   6.434   2.464 -1.8421 -0.2531  0.3143
    4MOL0     H  532   8.860   6.892   2.682 -1.3736  1.1619  0.9980
    4MOL0     H  533   8.634   6.847   2.649 -0.0444 -1.0746 -1.5981
    4MOL0     H  534   8.391   6.298   2.562  0.7090  1.6008 -1.0722
    4MOL0     H  535   8.146   6.201   2.563 -3.6381  1.0411 -0.1860
    4MOL0     H  536   5.863   6.585   2.574  2.3893  0.0603 -0.5723
    4MOL0     H  537   5.649   6.482   2.546 -2.7009 -2.7755  1.5023
    4MOL0     H  538   5.261   6.371   2.783  1.1692  0.1489 -1.1884
    4MOL0     H  539   5.026   6.383   2.691  1.6458  0.2027  1.3939
    4MOL0     H  540   4.932   6.249   2.293 -1.4090  2.6225  1.0342
    4MOL0     H  541   4.910   6.097   2.385 -1.5224 -0.5729  3.0287
    4MOL0     H  542   4.710   6.239   2.279  3.2305  0.6384 -1.3161
    4MOL0     H  543   4.733   6.346   2.414 -1.6829 -0.1834  0.4044
    4MOL0     H  544   4.640   6.055   2.436 -1.7434  0.1166 -0.3744
    4MOL0     H  545   4.700   6.136   2.564  0.1239 -2.1437 -0.4483
    4MOL0     H  546   4.535   6.336   2.529 -2.3017  0.1102  1.2903
    4MOL0     H  547   4.459   6.172   2.561  0.1254  0.9943  1.0782
    4MOL0     H  548   4.264   6.242   2.220  0.4200  2.6065  0.5662
    4MOL0     H  549   5.127   6.136   2.369 -0.9990  0.3789 -0.1360
    4MOL0     H  550   5.434   6.006   2.461 -1.2621 -2.2215 -1.9234
    4MOL0     H  551   5.342   6.050   2.324 -0.3258  0.5305  0.8596
    4MOL0     H  552   5.467   6.144   2.352 -0.2743 -1.1875 -2.0179
    5MOL0     O  553  10.996   6.548   9.211 -0.8175 -0.0568  0.2923
    5MOL0     C  554  11.018   6.445   9.140  0.3157 -0.4360 -0.2407
    5MOL0     O  555  11.134   6.407   9.079 -0.4834 -0.8988  0.0213
    5MOL0     C  556  11.262   6.470   9.108 -0.2064 -0.0312  0.6854
    5MOL0     C  557  11.355   6.459   9.006  0.8241 -0.3478 -0.3149
    5MOL0     C  558  11.483   6.515   9.029 -0.1435 -0.1182 -0.1950
    5MOL0     C  559  11.521   6.572   9.147 -0.7274 -0.0072 -0.4371
    5MOL0     O  560  11.649   6.615   9.173 -0.3108 -0.3314 -0.0263
    5MOL0     C  561  11.699   6.620   9.306 -1.1177  0.0746 -0.0605
    5MOL0     C  562  11.857   6.592   9.313 -0.0022 -0.7714  0.0588
    5MOL0     C  563  11.922   6.723   9.265 -0.2405  0.3339  0.2724
    5MOL0     C  564  12.070   6.708   9.262 -0.5165 -0.3477  0.1222
    5MOL0     C  565  12.146   6.836   9.210  0.4292  0.7896 -0.0806
    5MOL0     C  566  12.297   6.805   9.203 -0.2368  0.4556 -0.0003
    5MOL0     C  567  12.374   6.932   9.168  0.5020  0.2607 -0.1768
    5MOL0     C  568  12.353   6.979   9.024  0.0234  0.5183 -0.3177
    5MOL0     N  569  12.442   6.895   8.940 -0.0658  0.0094 -0.2422
    5MOL0     C  570  12.563   6.944   8.908  0.2354 -0.0820 -0.1324
    5MOL0     C  571  12.609   6.873   8.809  0.6170 -0.3316 -0.4067
    5MOL0     C  572  12.735   6.895   8.716  0.1218 -0.1498  0.3404
    5MOL0     C  573  12.841   6.992   8.767  0.5682  0.7543  0.0280
    5MOL0     C  574  12.946   7.027   8.657  0.4160 -0.3338 -0.3142
    5MOL0     C  575  13.059   7.122   8.707 -0.2849 -0.4961  0.5795
    5MOL0     O  576  13.144   7.047   8.799  0.1468 -0.0917 -0.1853
    5MOL0     C  577  13.256   7.111   8.848 -0.9259  0.9835 -0.8572
    5MOL0     C  578  13.296   7.242   8.824 -0.1710  0.0502  0.2703
    5MOL0     C  579  13.407   7.301   8.888  0.2047  0.2918 -0.2973
    5MOL0     C  580  13.433   7.453   8.867  0.4976 -0.9268 -0.3491
    5MOL0     C  581  13.490   7.220   8.970 -0.5082  0.5306 -0.4997
    5MOL0     C  582  13.625   7.256   9.035  0.0835  0.1203 -0.3130
    5MOL0     O  583  13.723   7.158   9.060 -0.4638  0.2208  0.5677
    5MOL0     C  584  13.849   7.197   9.052 -0.7602  0.3005  0.3037
    5MOL0     C  585  13.898   7.301   8.966 -0.3395  0.4902 -0.3012
    5MOL0     C  586  14.034   7.328   8.954 -0.7567  0.2206 -0.6085
    5MOL0     C  587  14.131   7.249   9.034  0.8164 -0.0361  0.6387
    5MOL0     O  588  14.268   7.266   9.042 -0.2300  0.0140  0.1142
    5MOL0     C  589  14.328   7.368   8.958 -0.9480  0.2942 -0.4476
    5MOL0     C  590  14.474   7.389   8.993 -0.2653 -0.1905  1.0033
    5MOL0     C  591  14.537   7.499   8.908  0.4769 -0.3510  0.0368
    5MOL0     C  592  14.573   7.457   8.761 -0.4426 -0.9440  0.3927
    5MOL0     C  593  14.673   7.342   8.752 -0.7453 -0.4993 -0.5206
    5MOL0     C  594  14.688   7.292   8.607 -0.6788 -0.1542  0.4011
    5MOL0     C  595  14.789   7.180   8.611 -0.9027  0.4617  0.0700
    5MOL0     C  596  14.792   7.114   8.474  0.1285  0.4541 -0.3126
    5MOL0    Cl  597  14.629   7.084   8.403 -0.0864 -0.3734  0.4036
    5MOL0     C  598  14.087   7.145   9.111 -0.1221 -0.0465 -0.3156
    5MOL0     C  599  13.950   7.112   9.118 -0.2512 -0.4217  0.3333
    5MOL0     O  600  13.645   7.375   9.058  0.2097  0.6760 -0.1175
    5MOL0     C  601  13.454   7.085   8.985 -1.0325  0.0813  0.8779
    5MOL0     C  602  13.337   7.034   8.937 -0.1554 -0.6825  0.7663
    5MOL0     N  603  12.511   6.782   8.773 -0.2540  0.0545 -0.5274
    5MOL0     N  604  12.412   6.790   8.853 -0.1398  0.7363 -0.8452
    5MOL0     C  605  11.422   6.587   9.245 -0.0378 -0.0729  0.3979
    5MOL0     C  606  11.291   6.543   9.221 -0.3902 -0.2033 -0.0116
    5MOL0     C  607  10.896   6.361   9.101  0.3129 -1.3148 -0.4983
    5MOL0     C  608  10.901   6.273   8.993  0.2220  0.1431 -0.3715
    5MOL0     C  609  10.802   6.182   8.962 -0.1270 -0.6639  0.2727
    5MOL0     C  610  10.686   6.184   9.034  1.1506 -0.3050 -1.0573
    5MOL0     O  611  10.556   6.135   9.008 -0.5239  0.2307  0.1639
    5MOL0     C  612  10.537   6.066   8.889 -0.4126  0.2320  0.7859
    5MOL0     C  613  10.539   6.166   8.771 -0.1822  0.0160 -0.0315
    5MOL0     C  614  10.448   6.288   8.791  0.3668 -0.0217 -0.5047
    5MOL0     C  615  10.308   6.274   8.736  0.2311  0.7127  0.0886
    5MOL0     C  616  10.310   6.262   8.586  0.4330  0.2970 -1.0043
    5MOL0     C  617  10.297   6.255   8.468 -0.2956  0.5917  0.0633
    5MOL0     C  618  10.679   6.269   9.145 -0.6719 -0.5248 -0.1111
    5MOL0     C  619  10.775   6.363   9.177 -0.2157  0.1141 -0.4613
    5MOL0     C  620  10.743   6.448   9.302 -1.6984  1.0288  0.3779
    5MOL0     H  621  11.339   6.388   8.926 -0.3745  0.6717 -1.0187
    5MOL0     H  622  11.549   6.489   8.947  0.5843 -2.3311  1.0145
    5MOL0     H  623  11.654   6.532   9.352 -0.8758 -0.7949 -1.4645
    5MOL0     H  624  11.677   6.715   9.357 -3.9075  0.2461 -1.3607
    5MOL0     H  625  11.890   6.566   9.414 -0.4731 -0.8195  0.2034
    5MOL0     H  626  11.887   6.507   9.251 -0.0295 -1.6900  1.2733
    5MOL0     H  627  11.894   6.764   9.168  0.7260  0.6842  0.1371
    5MOL0     H  628  11.890   6.806   9.329 -1.4297  1.4510 -1.6641
    5MOL0     H  629  12.104   6.692   9.365  2.1028 -1.4560 -0.8525
    5MOL0     H  630  12.094   6.622   9.199  1.6751  0.2465  0.0862
    5MOL0     H  631  12.115   6.921   9.273 -0.4207 -0.0524  0.6793
    5MOL0     H  632  12.102   6.837   9.110  2.1425  0.2708 -0.8584
    5MOL0     H  633  12.331   6.769   9.301  0.3182  1.1697  0.0854
    5MOL0     H  634  12.311   6.725   9.131  0.1373  0.6504 -0.1502
    5MOL0     H  635  12.478   6.919   9.199  0.7538  3.6097  0.8367
    5MOL0     H  636  12.341   7.014   9.233  2.3645  1.4299 -0.6503
    5MOL0     H  637  12.248   6.967   8.995  0.1108 -0.4418 -0.2772
    5MOL0     H  638  12.372   7.087   9.028 -0.5575  0.6022  0.6580
    5MOL0     H  639  12.605   7.034   8.954 -0.7146 -1.1980  3.2207
    5MOL0     H  640  12.698   6.940   8.623  0.0963  2.2449  1.4435
    5MOL0     H  641  12.778   6.795   8.701 -1.1525 -0.2980 -3.3011
    5MOL0     H  642  12.792   7.083   8.802  0.2656  0.4820  0.3218
    5MOL0     H  643  12.883   6.952   8.860 -1.2571 -1.5003 -0.0337
    5MOL0     H  644  12.998   6.938   8.619  0.5694 -0.7590  0.8699
    5MOL0     H  645  12.899   7.071   8.568  3.2727  0.6596 -1.4567
    5MOL0     H  646  13.114   7.145   8.615 -1.9206  0.4941 -0.2079
    5MOL0     H  647  13.021   7.213   8.757  0.3820  0.0895  0.0414
    5MOL0     H  648  13.237   7.304   8.757 -1.3150  0.0778  1.2579
    5MOL0     H  649  13.523   7.469   8.808  0.5918 -2.5009 -0.6689
    5MOL0     H  650  13.440   7.506   8.963  0.7516 -2.0292  0.2658
    5MOL0     H  651  13.346   7.499   8.820  1.5271  1.7323  0.1342
    5MOL0     H  652  13.828   7.352   8.901 -0.7059  0.8930  0.3893
    5MOL0     H  653  14.068   7.414   8.898  2.4659 -1.4172 -1.3568
    5MOL0     H  654  14.320   7.321   8.860 -2.2256  0.9180 -0.6606
    5MOL0     H  655  14.278   7.465   8.966  1.2721  1.4328  0.6112
    5MOL0     H  656  14.482   7.422   9.097  1.5269 -0.8605  1.1196
    5MOL0     H  657  14.530   7.297   8.979  1.0278  0.4646  1.6935
    5MOL0     H  658  14.624   7.553   8.946  1.0212 -0.4561 -1.0167
    5MOL0     H  659  14.461   7.573   8.883  2.4016  0.5574 -3.9116
    5MOL0     H  660  14.610   7.542   8.704 -1.2342  0.2729  1.6560
    5MOL0     H  661  14.483   7.427   8.707  0.1465 -4.3854  1.0352
    5MOL0     H  662  14.768   7.384   8.787 -0.4542 -1.8968  0.4338
    5MOL0     H  663  14.647   7.256   8.814  1.6110 -0.5538  0.4785
    5MOL0     H  664  14.730   7.371   8.545  0.7970 -0.1601  1.3489
    5MOL0     H  665  14.589   7.262   8.572 -0.9104 -2.4777  2.7011
    5MOL0     H  666  14.746   7.115   8.688 -1.3355  0.8601  0.1673
    5MOL0     H  667  14.887   7.216   8.642  0.8225 -1.6140 -2.5292
    5MOL0     H  668  14.835   7.015   8.493  2.7832  1.1404 -2.1719
    5MOL0     H  669  14.857   7.163   8.402  1.2490  1.6864  1.4498
    5MOL0     H  670  14.147   7.073   9.165  2.0451  1.1848 -0.9769
    5MOL0     H  671  13.926   7.020   9.171 -0.3661 -2.0607 -2.3583
    5MOL0     H  672  13.505   7.015   9.051  0.8349 -0.6096 -1.1712
    5MOL0     H  673  13.325   6.931   8.970  2.1663 -0.9224  1.0377
    5MOL0     H  674  11.435   6.647   9.335 -3.2991 -0.7572  1.4441
    5MOL0     H  675  11.219   6.574   9.296 -1.1929  2.3918 -1.7091
    5MOL0     H  676  10.994   6.269   8.938 -1.0972 -0.8529 -2.6911
    5MOL0     H  677  10.797   6.115   8.877 -1.9570 -1.7304  1.1409
    5MOL0     H  678  10.599   5.977   8.873 -3.2649 -1.4876 -1.7229
    5MOL0     H  679  10.434   6.033   8.907 -0.4882  1.7310  3.5927
    5MOL0     H  680  10.508   6.115   8.680 -2.3349 -1.2299  1.3331
    5MOL0     H  681  10.639   6.205   8.747 -0.9485  0.2205 -3.3060
    5MOL0     H  682  10.435   6.312   8.897  0.0463 -0.3302 -0.4707
    5MOL0     H  683  10.488   6.379   8.744 -1.9989 -0.1960 -3.1116
    5MOL0     H  684  10.251   6.365   8.755  1.8852  2.0149 -0.8758
    5MOL0     H  685  10.252   6.195   8.785  1.7088 -2.2945 -2.6797
    5MOL0     H  686  10.292   6.260   8.361 -2.0593 -0.8503  0.0412
    5MOL0     H  687  10.588   6.259   9.204 -1.4440  0.7190 -1.0636
    5MOL0     H  688  10.658   6.409   9.360 -1.6537  0.6674  0.2028
    5MOL0     H  689  10.829   6.446   9.369 -1.5992  0.6405  0.2422
    5MOL0     H  690  10.729   6.548   9.260 -1.0309  1.5538  1.3917
    6MOL0     O  691   8.172  10.542   5.025 -0.0086 -0.1390  0.1953
    6MOL0     C  692   8.094  10.498   5.114  0.3605 -0.2936 -0.8214
    6MOL0     O  693   8.074  10.369   5.161  0.2272  0.3767 -0.2625
    6MOL0     C  694   8.192  10.291   5.145  0.0598  0.0800 -0.4783
    6MOL0     C  695   8.286  10.288   5.254  0.7209  0.4714  0.5097
    6MOL0     C  696   8.395  10.206   5.234 -0.4313  0.2070 -0.2245
    6MOL0     C  697   8.425  10.131   5.116  0.3068 -0.0789 -0.8678
    6MOL0     O  698   8.547  10.071   5.091  0.1306 -0.0549  0.0317
    6MOL0     C  699   8.638  10.046   5.187 -0.1184  0.5127 -0.4206
    6MOL0     C  700   8.590   9.939   5.287  0.3721  0.6719 -0.1442
    6MOL0     C  701   8.625   9.792   5.254 -0.1487  0.4647  0.0328
    6MOL0     C  702   8.767   9.755   5.281  0.0002 -0.6674 -0.2308
    6MOL0     C  703   8.806   9.613   5.228  0.4405  0.5724 -0.8840
    6MOL0     C  704   8.950   9.583   5.256  0.2270  0.1137  0.1718
    6MOL0     C  705   8.991   9.439   5.228  0.1903 -1.0520  0.1354
    6MOL0     C  706   8.943   9.378   5.100 -0.1291  0.4704 -0.5660
    6MOL0     N  707   9.020   9.411   4.983 -0.2049  0.3296  0.5021
    6MOL0     C  708   9.058   9.535   4.941 -0.4884  1.0334  0.2294
    6MOL0     C  709   9.130   9.516   4.825 -0.0947  0.2548 -0.4438
    6MOL0     C  710   9.168   9.633   4.734 -0.0317  0.7706 -0.7041
    6MOL0     C  711   9.319   9.635   4.711 -0.8387  1.3304  0.2650
    6MOL0     C  712   9.376   9.526   4.618  0.1113 -0.0494 -0.6981
    6MOL0     C  713   9.521   9.567   4.581  0.5665 -0.0045 -0.0860
    6MOL0     O  714   9.606   9.570   4.697 -0.4703  0.3180  0.4196
    6MOL0     C  715   9.672   9.448   4.716  0.4634 -0.1532 -0.6841
    6MOL0     C  716   9.638   9.355   4.814 -0.0172 -0.5308 -0.8620
    6MOL0     C  717   9.702   9.225   4.828  0.4254  0.4747 -0.2747
    6MOL0     C  718   9.661   9.137   4.943 -0.0654 -0.6117  0.7519
    6MOL0     C  719   9.801   9.181   4.730  0.7141  0.2488  0.7882
    6MOL0     C  720   9.873   9.046   4.727  0.2348 -0.2650 -0.2380
    6MOL0     O  721   9.978   9.048   4.642  0.6029 -0.1887  0.1732
    6MOL0     C  722  10.038   8.935   4.593  0.1591 -0.5060 -0.4523
    6MOL0     C  723  10.159   8.892   4.641  0.1692  0.5660 -0.6460
    6MOL0     C  724  10.225   8.781   4.574 -0.4202  0.3940 -0.2067
    6MOL0     C  725  10.162   8.712   4.472 -0.2154  0.0072  0.0506
    6MOL0     O  726  10.237   8.615   4.411 -0.8482  0.3615 -0.5491
    6MOL0     C  727  10.161   8.494   4.403 -0.6412 -0.2617 -0.1939
    6MOL0     C  728  10.266   8.396   4.365  0.2152 -0.4512 -0.1308
    6MOL0     C  729  10.212   8.262   4.300  0.2269 -0.1782  0.6959
    6MOL0     C  730  10.196   8.287   4.150  0.7339  0.9634 -0.3299
    6MOL0     C  731  10.152   8.171   4.071 -0.1489  0.0910  0.3926
    6MOL0     C  732  10.263   8.061   4.055 -0.1854 -0.1394 -0.7813
    6MOL0     C  733  10.216   7.956   3.959  0.6080  1.2659 -0.6005
    6MOL0     C  734  10.323   7.846   3.941  0.2045  0.3763 -1.1154
    6MOL0    Cl  735  10.389   7.751   4.092  0.1671  0.1732 -0.4970
    6MOL0     C  736  10.034   8.754   4.433 -0.8773  0.1311 -0.0151
    6MOL0     C  737   9.972   8.863   4.495 -1.2201 -0.3348  0.2328
    6MOL0     O  738   9.833   8.948   4.792  0.2515 -0.0725  0.1014
    6MOL0     C  739   9.835   9.281   4.632 -0.1585  0.8998 -0.7755
    6MOL0     C  740   9.767   9.406   4.628 -0.7231  0.6668  0.0880
    6MOL0     N  741   9.137   9.382   4.803  0.4775  0.7967 -0.5194
    6MOL0     N  742   9.069   9.321   4.898 -0.8300 -0.1232  0.4910
    6MOL0     C  743   8.324  10.128   5.021  0.6339 -0.5611  0.9360
    6MOL0     C  744   8.200  10.205   5.036 -0.7974  0.3720  0.2140
    6MOL0     C  745   7.993  10.586   5.159 -0.0130  0.3531  0.5924
    6MOL0     C  746   7.855  10.560   5.156  0.0520  0.5823  0.1677
    6MOL0     C  747   7.762  10.664   5.162  0.8133 -0.4396  0.2721
    6MOL0     C  748   7.801  10.802   5.171 -0.0105  0.2188  0.3094
    6MOL0     O  749   7.712  10.902   5.170 -1.2605 -0.9345  0.2958
    6MOL0     C  750   7.574  10.865   5.181 -0.4039  0.2504  0.1480
    6MOL0     C  751   7.487  10.993   5.154 -0.0642 -0.4093 -0.0950
    6MOL0     C  752   7.341  10.975   5.189  0.4654  0.0822 -0.0496
    6MOL0     C  753   7.272  10.891   5.093 -0.4477 -0.0886 -0.1681
    6MOL0     C  754   7.137  10.865   5.139  0.3026 -0.8700  0.5962
    6MOL0     C  755   7.021  10.844   5.168 -0.0624 -0.5904  0.7342
    6MOL0     C  756   7.930  10.825   5.188  0.0866  0.0591 -0.4385
    6MOL0     C  757   8.025  10.724   5.186 -0.9340  0.0696 -0.3201
    6MOL0     C  758   8.165  10.773   5.213  0.4259 -0.1094 -0.0461
    6MOL0     H  759   8.269  10.349   5.342  1.1209 -2.2667  2.5902
    6MOL0     H  760   8.456  10.211   5.323  0.2365 -1.9420 -0.5154
    6MOL0     H  761   8.654  10.138   5.244 -1.2367  0.6499 -0.3054
    6MOL0     H  762   8.738  10.026   5.147 -0.3193 -1.5565 -0.0242
    6MOL0     H  763   8.622   9.960   5.389  2.8944  2.6565 -1.2520
    6MOL0     H  764   8.481   9.947   5.277  0.6503  2.3278 -3.1573
    6MOL0     H  765   8.558   9.729   5.314  0.8905 -0.3927  0.3095
    6MOL0     H  766   8.606   9.772   5.148  0.7968  0.8897 -0.2247
    6MOL0     H  767   8.837   9.822   5.232  1.0684  0.0307  2.0887
    6MOL0     H  768   8.793   9.775   5.385  0.7816  0.2166 -0.5873
    6MOL0     H  769   8.788   9.603   5.121 -0.1841  2.9288 -1.0581
    6MOL0     H  770   8.740   9.554   5.292  1.2302 -0.7973 -1.3031
    6MOL0     H  771   9.015   9.642   5.192  0.9576 -2.0960 -1.2238
    6MOL0     H  772   8.985   9.616   5.354  1.9069  0.3626 -0.4788
    6MOL0     H  773   8.961   9.371   5.308 -0.5161  0.4817  1.2261
    6MOL0     H  774   9.100   9.429   5.229  0.3371 -0.0464 -1.3107
    6MOL0     H  775   8.957   9.271   5.116 -0.9190  0.7616  2.6570
    6MOL0     H  776   8.837   9.395   5.078  0.1355  2.4523 -0.4931
    6MOL0     H  777   9.027   9.629   4.986 -0.4021  3.5634 -4.3682
    6MOL0     H  778   9.142   9.729   4.780 -0.3676  0.4553 -0.2265
    6MOL0     H  779   9.113   9.633   4.640  0.8611  3.0625 -1.2829
    6MOL0     H  780   9.331   9.723   4.648 -0.2804  0.1230 -1.3940
    6MOL0     H  781   9.374   9.648   4.805  1.0692 -0.9493 -0.4468
    6MOL0     H  782   9.378   9.436   4.681  1.2079  1.1009  1.0101
    6MOL0     H  783   9.313   9.509   4.531  0.6596 -0.4317 -1.0281
    6MOL0     H  784   9.548   9.505   4.494 -3.0928 -0.8991 -0.7833
    6MOL0     H  785   9.523   9.671   4.549 -0.5241  0.5083  1.4318
    6MOL0     H  786   9.566   9.380   4.891 -1.1723 -6.1572  0.3066
    6MOL0     H  787   9.745   9.080   4.984  0.1916 -0.5767  0.2826
    6MOL0     H  788   9.589   9.063   4.907  0.3721 -0.6895  0.0123
    6MOL0     H  789   9.613   9.196   5.021  0.8326  0.0118  0.8510
    6MOL0     H  790  10.205   8.959   4.711  0.5826 -0.6086  0.2415
    6MOL0     H  791  10.318   8.757   4.624 -1.2932 -0.6274  0.9687
    6MOL0     H  792  10.127   8.475   4.505 -0.0470 -0.5484 -0.0502
    6MOL0     H  793  10.076   8.504   4.335 -1.2312 -0.7265  0.4571
    6MOL0     H  794  10.333   8.448   4.296 -2.5014  1.0309 -1.8242
    6MOL0     H  795  10.335   8.367   4.445 -1.9016 -2.5287  1.0721
    6MOL0     H  796  10.120   8.233   4.351 -0.4407 -0.7795 -0.7785
    6MOL0     H  797  10.283   8.180   4.311  0.1304 -0.3982 -0.2274
    6MOL0     H  798  10.294   8.312   4.108  2.2517 -3.1076  0.3045
    6MOL0     H  799  10.129   8.371   4.131  0.2974  1.0097  1.2619
    6MOL0     H  800  10.056   8.123   4.090 -0.8594  0.5442 -1.8388
    6MOL0     H  801  10.135   8.219   3.975 -1.4399 -2.5888 -0.8101
    6MOL0     H  802  10.286   8.015   4.152  2.4303 -0.1754 -1.3437
    6MOL0     H  803  10.354   8.105   4.013 -0.2785  0.7814 -0.0647
    6MOL0     H  804  10.202   8.011   3.866  1.1379  1.8618 -0.3373
    6MOL0     H  805  10.122   7.909   3.989  2.3533 -0.9253  2.0020
    6MOL0     H  806  10.413   7.891   3.897  1.9206  1.1433  2.7935
    6MOL0     H  807  10.278   7.780   3.866 -0.1877  0.5922 -1.0712
    6MOL0     H  808   9.972   8.710   4.357 -0.1531  0.7826 -1.0041
    6MOL0     H  809   9.877   8.902   4.460 -1.5041 -0.0439  1.2853
    6MOL0     H  810   9.903   9.255   4.551 -1.0884 -1.6609 -0.8186
    6MOL0     H  811   9.810   9.465   4.548  2.5419 -0.6502  0.7016
    6MOL0     H  812   8.345  10.059   4.939  0.8843  1.0539 -0.4243
    6MOL0     H  813   8.112  10.212   4.974 -1.0111  2.9043  0.6821
    6MOL0     H  814   7.818  10.463   5.125  0.3307  0.4514  0.2413
    6MOL0     H  815   7.658  10.634   5.154  0.5174  0.6923 -0.3314
    6MOL0     H  816   7.546  10.799   5.098 -1.0177  2.6349 -1.6452
    6MOL0     H  817   7.554  10.817   5.277  3.0540  0.5519  1.1260
    6MOL0     H  818   7.497  11.013   5.047 -0.9706 -4.6594 -1.1882
    6MOL0     H  819   7.528  11.074   5.214  1.1784 -1.4880  0.5797
    6MOL0     H  820   7.341  10.934   5.291  0.9995  2.6567  1.0815
    6MOL0     H  821   7.286  11.070   5.192  1.0590  0.4312 -0.1505
    6MOL0     H  822   7.319  10.794   5.075 -1.1019 -0.3443 -0.5454
    6MOL0     H  823   7.280  10.939   4.995 -1.7851  1.4703  0.4421
    6MOL0     H  824   6.923  10.814   5.201 -0.3645 -0.7983 -0.3213
    6MOL0     H  825   7.966  10.923   5.216  2.1561 -2.0237  5.8865
    6MOL0     H  826   8.235  10.690   5.202 -0.6042 -0.9982 -0.1277
    6MOL0     H  827   8.180  10.853   5.140  0.2374  0.1791  0.2305
    6MOL0     H  828   8.170  10.807   5.316  2.5110  1.7426 -0.6988
    7MOL0     O  829  10.627   1.831   9.648  0.4243  0.3721 -0.1443
    7MOL0     C  830  10.512   1.835   9.605 -0.7631  0.2556  0.3653
    7MOL0     O  831  10.487   1.818   9.473  0.2438  0.6465 -0.1159
    7MOL0     C  832  10.587   1.782   9.388 -0.4796  0.2889  0.3328
    7MOL0     C  833  10.682   1.678   9.402 -0.1454  0.2872  0.1826
    7MOL0     C  834  10.764   1.638   9.302  0.0808  0.2067  0.7491
    7MOL0     C  835  10.764   1.712   9.187  0.2266  0.4315  0.4123
    7MOL0     O  836  10.854   1.674   9.090 -0.0789  0.0759 -0.3588
    7MOL0     C  837  10.814   1.690   8.950 -0.6233 -0.4382 -0.7768
    7MOL0     C  838  10.917   1.634   8.858  0.1934 -0.0976  0.7518
    7MOL0     C  839  10.931   1.476   8.878 -0.5513  0.1007 -0.5623
    7MOL0     C  840  11.041   1.415   8.784 -0.3335  0.1646 -0.1724
    7MOL0     C  841  11.181   1.446   8.836  0.4491  0.4906  0.3863
    7MOL0     C  842  11.294   1.392   8.754  0.0037  0.2330 -0.2896
    7MOL0     C  843  11.411   1.357   8.851 -0.7943 -0.0843  0.1902
    7MOL0     C  844  11.522   1.298   8.766 -0.0532 -0.3676  0.1476
    7MOL0     N  845  11.641   1.266   8.844 -0.2162 -0.4966 -0.4062
    7MOL0     C  846  11.674   1.324   8.963  0.0954 -0.1243  0.5203
    7MOL0     C  847  11.792   1.262   8.990  0.4470 -0.4621 -0.6588
    7MOL0     C  848  11.891   1.292   9.107 -0.2121  0.1358 -0.1012
    7MOL0     C  849  11.970   1.423   9.072 -0.4898 -0.7988 -0.3836
    7MOL0     C  850  12.078   1.439   9.185 -0.2328 -0.2393 -0.1267
    7MOL0     C  851  12.136   1.585   9.166  0.3863 -0.0962  0.2577
    7MOL0     O  852  12.251   1.584   9.245  1.1507  0.0607 -0.3022
    7MOL0     C  853  12.371   1.565   9.191  0.2924  0.4681 -0.1596
    7MOL0     C  854  12.394   1.510   9.072  0.2313 -0.6695 -0.0516
    7MOL0     C  855  12.520   1.478   9.030  1.0050 -0.7492 -0.5402
    7MOL0     C  856  12.514   1.381   8.912 -1.4487  0.1428 -0.0651
    7MOL0     C  857  12.633   1.522   9.101 -0.2997 -0.6099 -0.1032
    7MOL0     C  858  12.781   1.497   9.067 -0.5784  0.7160  0.1850
    7MOL0     O  859  12.872   1.584   9.116 -0.2726 -0.3636 -0.1656
    7MOL0     C  860  13.002   1.565   9.061  0.3655 -0.3444 -0.8845
    7MOL0     C  861  13.039   1.612   8.930  0.4906  0.3000 -0.0031
    7MOL0     C  862  13.158   1.592   8.872 -0.4583  0.4886  0.3648
    7MOL0     C  863  13.256   1.527   8.945  0.0822  0.2760  0.2997
    7MOL0     O  864  13.385   1.504   8.893  0.6210  0.4319  0.0584
    7MOL0     C  865  13.454   1.612   8.826  0.0537 -0.0892 -0.2678
    7MOL0     C  866  13.570   1.640   8.925  0.2055 -0.0266  0.6165
    7MOL0     C  867  13.660   1.748   8.876 -0.8785  0.0059  0.8335
    7MOL0     C  868  13.754   1.800   8.996 -0.2626  0.2035 -0.0184
    7MOL0     C  869  13.862   1.895   8.959  0.3617  0.7339 -0.0901
    7MOL0     C  870  13.983   1.812   8.919 -0.2031  0.9175 -0.0386
    7MOL0     C  871  14.097   1.900   8.893  0.4462 -0.9140  0.1982
    7MOL0     C  872  14.233   1.828   8.885  0.8735 -0.2629 -0.2888
    7MOL0    Cl  873  14.292   1.759   9.036  0.7689  0.2063  0.3217
    7MOL0     C  874  13.227   1.487   9.074 -0.4123 -0.6149  0.3586
    7MOL0     C  875  13.098   1.508   9.137 -0.7529 -0.7770 -0.2152
    7MOL0     O  876  12.802   1.418   8.972 -0.7286 -0.0244 -0.1007
    7MOL0     C  877  12.607   1.601   9.211 -0.7830 -0.7815 -0.1820
    7MOL0     C  878  12.484   1.616   9.265  0.8019 -0.1659  0.1563
    7MOL0     N  879  11.819   1.172   8.894 -0.7969 -0.7345 -0.1724
    7MOL0     N  880  11.729   1.177   8.802  0.5463  0.4645  0.4762
    7MOL0     C  881  10.669   1.812   9.169 -0.8264 -0.3427  0.8879
    7MOL0     C  882  10.587   1.850   9.269  0.4741 -0.0926 -0.1907
    7MOL0     C  883  10.399   1.863   9.700 -0.1958  0.1292  0.9460
    7MOL0     C  884  10.412   1.848   9.832  0.2382  0.4593  0.4140
    7MOL0     C  885  10.305   1.845   9.924 -0.6363  1.4178 -0.5526
    7MOL0     C  886  10.177   1.889   9.883 -0.4591  0.1876  0.4220
    7MOL0     O  887  10.062   1.893   9.960 -0.2180 -0.5652 -0.4209
    7MOL0     C  888  10.077   1.831  10.093 -0.1531  0.2376 -0.3591
    7MOL0     C  889   9.938   1.812  10.163  0.5206 -1.0451  0.6102
    7MOL0     C  890   9.857   1.694  10.105 -0.9561  0.5220 -0.4046
    7MOL0     C  891   9.709   1.696  10.169  0.1367 -0.6253 -0.1554
    7MOL0     C  892   9.701   1.728  10.314 -0.0342 -0.0169  0.2511
    7MOL0     C  893   9.680   1.734  10.436  0.2985  1.0580  0.3837
    7MOL0     C  894  10.166   1.924   9.748 -0.4343  0.6211  0.4762
    7MOL0     C  895  10.269   1.905   9.655  0.0275 -0.8005 -0.0715
    7MOL0     C  896  10.235   1.929   9.510  0.0755 -0.0462 -0.1923
    7MOL0     H  897  10.690   1.612   9.488  2.7387 -0.0285 -0.2159
    7MOL0     H  898  10.827   1.551   9.318 -1.4189 -1.3371 -1.2617
    7MOL0     H  899  10.813   1.797   8.929  0.5286 -0.5095 -1.2566
    7MOL0     H  900  10.718   1.644   8.925 -0.2348 -0.0129 -3.2591
    7MOL0     H  901  10.878   1.639   8.756  0.9260 -4.5437  0.0640
    7MOL0     H  902  11.011   1.688   8.875  1.5130 -0.6077 -3.6474
    7MOL0     H  903  10.948   1.453   8.984  0.3138  2.0419 -0.2345
    7MOL0     H  904  10.843   1.425   8.836  0.0348 -0.8965 -0.6024
    7MOL0     H  905  11.030   1.306   8.786 -2.1674  0.2983 -0.9130
    7MOL0     H  906  11.020   1.453   8.684  0.6740  1.0256 -0.0828
    7MOL0     H  907  11.184   1.408   8.939  0.6434 -1.2358 -0.2222
    7MOL0     H  908  11.199   1.553   8.848  0.6317  0.7539 -1.9019
    7MOL0     H  909  11.270   1.299   8.702 -0.1711  0.7478 -1.1444
    7MOL0     H  910  11.309   1.466   8.675 -2.4288  0.1651 -0.9056
    7MOL0     H  911  11.373   1.282   8.922 -1.8105 -1.5050 -1.7772
    7MOL0     H  912  11.447   1.440   8.912 -1.0301  1.0431 -1.1667
    7MOL0     H  913  11.495   1.208   8.710  1.0495 -1.3510  1.1561
    7MOL0     H  914  11.549   1.366   8.684  1.5400 -3.5518 -2.1901
    7MOL0     H  915  11.625   1.403   9.020 -1.7691  1.0756 -2.4976
    7MOL0     H  916  11.958   1.207   9.123 -1.0028 -0.5671 -0.4199
    7MOL0     H  917  11.837   1.313   9.200 -0.4077  1.0410 -0.4129
    7MOL0     H  918  12.020   1.416   8.975  0.7638 -1.0895  0.2640
    7MOL0     H  919  11.910   1.513   9.060  0.7873  0.0880 -0.2863
    7MOL0     H  920  12.030   1.424   9.282  0.2729  1.4754  0.4373
    7MOL0     H  921  12.156   1.363   9.188  1.8100  1.7575  0.7280
    7MOL0     H  922  12.163   1.611   9.063  0.9186 -0.3979  0.3190
    7MOL0     H  923  12.065   1.661   9.201  0.2564  1.2040 -2.5774
    7MOL0     H  924  12.312   1.471   9.012  0.5661 -0.1628 -0.8481
    7MOL0     H  925  12.419   1.329   8.892 -0.7929  0.1099 -3.7888
    7MOL0     H  926  12.587   1.303   8.937  0.6118  2.4604  1.6184
    7MOL0     H  927  12.545   1.403   8.810 -1.6069 -2.0459 -0.6479
    7MOL0     H  928  12.951   1.658   8.886 -1.8111 -1.1939  2.6884
    7MOL0     H  929  13.168   1.632   8.771 -1.0879  2.5228  1.0628
    7MOL0     H  930  13.492   1.586   8.727 -0.8300  0.2761 -0.7079
    7MOL0     H  931  13.389   1.699   8.814  0.4167  0.2484  0.1717
    7MOL0     H  932  13.530   1.688   9.015 -1.0921  1.6660 -0.7782
    7MOL0     H  933  13.620   1.554   8.970  1.0542  1.2881  2.2886
    7MOL0     H  934  13.605   1.832   8.831 -1.9808 -0.3953  1.3909
    7MOL0     H  935  13.723   1.706   8.797  0.2500 -0.5565  2.0108
    7MOL0     H  936  13.792   1.712   9.048  2.0306  1.4845  0.6207
    7MOL0     H  937  13.682   1.855   9.058 -1.8028 -1.4007 -0.2917
    7MOL0     H  938  13.839   1.957   8.872  2.0877  0.2760 -0.9233
    7MOL0     H  939  13.891   1.949   9.050  0.7600  1.9921 -0.9300
    7MOL0     H  940  13.967   1.740   8.838  2.3395 -1.3786  1.3207
    7MOL0     H  941  14.013   1.752   9.005  2.0085  1.1542 -0.5702
    7MOL0     H  942  14.102   1.963   8.983 -2.0907 -0.0131 -0.2093
    7MOL0     H  943  14.087   1.965   8.806  3.3733  0.3640  0.6993
    7MOL0     H  944  14.304   1.906   8.856 -0.4401  1.2671  0.4474
    7MOL0     H  945  14.219   1.751   8.808 -0.1314  0.2710 -0.6674
    7MOL0     H  946  13.306   1.433   9.126 -1.9439 -0.6927  2.7357
    7MOL0     H  947  13.069   1.481   9.237 -0.2569  2.1289  0.8165
    7MOL0     H  948  12.683   1.646   9.273 -1.4111  2.5956 -1.6255
    7MOL0     H  949  12.461   1.658   9.363 -1.9629 -0.7232 -0.1615
    7MOL0     H  950  10.671   1.869   9.077  0.6414 -1.2023  0.3551
    7MOL0     H  951  10.520   1.935   9.276 -2.0972 -2.0661  0.8630
    7MOL0     H  952  10.516   1.843   9.863  1.1495 -1.0959 -2.4815
    7MOL0     H  953  10.336   1.821  10.026 -0.5762 -0.2577 -0.9291
    7MOL0     H  954  10.126   1.733  10.086 -1.0890 -0.1518 -2.2448
    7MOL0     H  955  10.153   1.893  10.141  2.8255 -1.8648 -2.0025
    7MOL0     H  956   9.879   1.905  10.161 -1.0652 -2.0247  0.4050
    7MOL0     H  957   9.960   1.794  10.268  0.3858  2.1444  1.3094
    7MOL0     H  958   9.853   1.698   9.996 -1.2334 -0.4636 -0.4411
    7MOL0     H  959   9.915   1.604  10.126 -1.4068  0.3378  0.0748
    7MOL0     H  960   9.668   1.597  10.151 -0.8795 -0.8502  2.8985
    7MOL0     H  961   9.648   1.769  10.115  1.5657  1.3769  0.7594
    7MOL0     H  962   9.663   1.724  10.541  0.0198  1.1728  0.3501
    7MOL0     H  963  10.065   1.948   9.717 -0.7984  0.3456  1.4153
    7MOL0     H  964  10.130   1.956   9.500 -0.7162 -2.7123  0.0615
    7MOL0     H  965  10.298   2.014   9.482 -2.2952  1.5316 -1.0172
    7MOL0     H  966  10.255   1.839   9.452  1.8573  0.2729 -0.1281
    8MOL0     O  967  10.540   8.060   0.075 -0.2906  0.2540 -0.7304
    8MOL0     C  968  10.538   7.956   0.015 -0.7628  0.5534 -0.0524
    8MOL0     O  969  10.646   7.884  -0.040 -0.1354 -0.4843  0.2003
    8MOL0     C  970  10.775   7.930  -0.016  0.1198 -0.8545 -0.5219
    8MOL0     C  971  10.839   7.977  -0.127 -0.3558  0.5052  0.2958
    8MOL0     C  972  10.974   8.016  -0.125  0.2123  0.0378 -0.5453
    8MOL0     C  973  11.047   8.013  -0.013  0.0851 -0.1260 -1.7630
    8MOL0     O  974  11.173   8.040  -0.027 -0.1368  1.0014  0.4831
    8MOL0     C  975  11.265   8.006   0.085  0.5534 -0.3430 -0.5245
    8MOL0     C  976  11.403   8.044   0.052 -0.1276  0.5594  0.2193
    8MOL0     C  977  11.507   8.008   0.151 -0.2827  0.3459  0.2298
    8MOL0     C  978  11.496   8.070   0.291 -0.3140 -0.3249 -1.4575
    8MOL0     C  979  11.605   8.021   0.389 -0.1220 -0.1855  0.5306
    8MOL0     C  980  11.629   8.096   0.515 -0.3915 -0.1155 -1.3227
    8MOL0     C  981  11.765   8.058   0.583 -0.0809 -0.7013 -0.0548
    8MOL0     C  982  11.849   8.190   0.590  0.1506 -0.2031 -0.2346
    8MOL0     N  983  11.985   8.180   0.640 -0.4622 -0.6539 -0.7841
    8MOL0     C  984  12.061   8.072   0.680 -0.8845  0.2347 -0.4308
    8MOL0     C  985  12.173   8.122   0.738  1.2511 -0.0964  0.3711
    8MOL0     C  986  12.272   8.035   0.793 -0.1999  0.5807  0.0223
    8MOL0     C  987  12.411   8.051   0.755 -0.8390 -0.2630  0.1160
    8MOL0     C  988  12.508   7.946   0.809 -0.2973 -0.4275  0.3948
    8MOL0     C  989  12.661   7.984   0.793  0.3176 -0.1664 -0.1418
    8MOL0     O  990  12.683   8.095   0.878 -0.1572 -0.3985 -0.6234
    8MOL0     C  991  12.805   8.158   0.883 -0.2874 -0.9703 -0.3524
    8MOL0     C  992  12.816   8.267   0.968  1.1437  0.3243  0.2537
    8MOL0     C  993  12.937   8.335   0.978  0.1885 -0.4028 -0.4835
    8MOL0     C  994  12.950   8.448   1.072 -0.8167  0.3679  0.2050
    8MOL0     C  995  13.053   8.297   0.902  0.2838 -0.2881  0.1397
    8MOL0     C  996  13.185   8.368   0.917  0.6036  0.2648  1.2780
    8MOL0     O  997  13.273   8.356   0.811  0.3572  0.4159 -0.8259
    8MOL0     C  998  13.405   8.392   0.812 -0.1268 -0.3429 -0.5914
    8MOL0     C  999  13.464   8.486   0.892 -0.8033  1.0593 -0.5153
    8MOL0     C 1000  13.604   8.504   0.901 -0.2039  1.0420 -0.0040
    8MOL0     C 1001  13.684   8.419   0.832  0.6198 -0.4425 -0.6389
    8MOL0     O 1002  13.818   8.437   0.825  0.5408 -0.4848 -0.0611
    8MOL0     C 1003  13.877   8.536   0.913 -0.1516  0.3887  0.5191
    8MOL0     C 1004  14.026   8.563   0.869  0.5353  0.5269 -0.3777
    8MOL0     C 1005  14.044   8.560   0.719  0.4397  1.0015  0.8034
    8MOL0     C 1006  14.182   8.604   0.673 -0.4019 -0.0489 -0.2585
    8MOL0     C 1007  14.210   8.568   0.525  0.3517 -0.4783 -0.6129
    8MOL0     C 1008  14.251   8.689   0.441  0.0796 -0.2188  0.2680
    8MOL0     C 1009  14.153   8.804   0.441 -0.2955 -0.5213  0.0948
    8MOL0     C 1010  14.191   8.918   0.341 -0.0397  0.4010 -0.3418
    8MOL0    Cl 1011  14.355   8.970   0.355 -0.0940 -0.7701  0.3091
    8MOL0     C 1012  13.628   8.329   0.739 -0.3697  0.4714 -0.3874
    8MOL0     C 1013  13.489   8.324   0.727  0.2288  0.2627  0.2757
    8MOL0     O 1014  13.220   8.408   1.024  0.1704 -0.7344 -0.8839
    8MOL0     C 1015  13.035   8.191   0.808 -0.2500 -0.0801  0.4111
    8MOL0     C 1016  12.916   8.122   0.802 -0.7756  0.0547  0.2163
    8MOL0     N 1017  12.164   8.259   0.733 -0.1193  0.6280  0.3568
    8MOL0     N 1018  12.056   8.289   0.674 -0.2599  0.5689  0.7386
    8MOL0     C 1019  10.984   7.967   0.104  1.0149  0.0014 -0.6578
    8MOL0     C 1020  10.849   7.918   0.106 -0.2250 -0.0241  0.0338
    8MOL0     C 1021  10.406   7.899  -0.027 -0.0712  0.5799 -0.3565
    8MOL0     C 1022  10.320   7.996  -0.076 -0.2011  0.4896  0.4633
    8MOL0     C 1023  10.193   7.955  -0.125 -0.3161  0.4306  0.1930
    8MOL0     C 1024  10.150   7.822  -0.118  1.2618 -0.7583 -0.3805
    8MOL0     O 1025  10.026   7.789  -0.181 -0.2833  0.0473 -0.1731
    8MOL0     C 1026   9.978   7.658  -0.169  0.2091  0.7481  0.5693
    8MOL0     C 1027   9.828   7.663  -0.195  0.0432 -0.5553  0.1372
    8MOL0     C 1028   9.747   7.739  -0.093  0.0659 -0.1777 -0.4488
    8MOL0     C 1029   9.692   7.649   0.018 -1.5701 -0.4639  0.5903
    8MOL0     C 1030   9.641   7.737   0.125 -0.0874 -0.1386  0.3651
    8MOL0     C 1031   9.603   7.809   0.213 -0.5477 -0.5392 -0.6530
    8MOL0     C 1032  10.241   7.733  -0.065  0.5930  0.5408 -0.0058
    8MOL0     C 1033  10.368   7.767  -0.011  0.5410 -0.0942  0.3966
    8MOL0     C 1034  10.451   7.645   0.035 -0.4351 -0.0990 -0.3803
    8MOL0     H 1035  10.778   7.997  -0.215  0.3836  1.2990 -0.0497
    8MOL0     H 1036  11.026   8.050  -0.214 -1.7462  2.2298 -0.9477
    8MOL0     H 1037  11.269   7.897   0.091 -1.5419 -0.4243 -0.1612
    8MOL0     H 1038  11.228   8.057   0.174 -0.3538 -1.7903 -0.0490
    8MOL0     H 1039  11.421   7.988  -0.041 -2.3857  0.8689 -0.4582
    8MOL0     H 1040  11.403   8.150   0.026 -0.3194  0.5217  0.0667
    8MOL0     H 1041  11.526   7.903   0.173 -1.5611  0.9657  5.7494
    8MOL0     H 1042  11.602   8.037   0.105 -1.7681 -0.5506 -3.7783
    8MOL0     H 1043  11.505   8.178   0.273 -2.1715 -0.1139 -1.3506
    8MOL0     H 1044  11.397   8.043   0.330 -0.6224  0.7354 -1.4491
    8MOL0     H 1045  11.699   8.027   0.334  0.3753  1.8633  1.5163
    8MOL0     H 1046  11.588   7.914   0.406 -0.9030 -0.4711 -1.6882
    8MOL0     H 1047  11.623   8.203   0.493 -0.1209  0.2145  0.1509
    8MOL0     H 1048  11.555   8.060   0.587 -0.3492 -3.0040 -2.5914
    8MOL0     H 1049  11.835   7.989   0.535  2.1273 -0.8603  3.1179
    8MOL0     H 1050  11.752   8.024   0.686 -1.6539  1.7553  0.6292
    8MOL0     H 1051  11.841   8.240   0.493 -0.0484 -0.1691 -0.2014
    8MOL0     H 1052  11.796   8.257   0.658  3.1037 -0.2569  2.3264
    8MOL0     H 1053  12.037   7.969   0.657  0.0586  0.4042 -2.4621
    8MOL0     H 1054  12.251   7.932   0.761 -1.3122  1.2846 -1.6245
    8MOL0     H 1055  12.258   8.043   0.902 -0.5759 -1.5789  0.1876
    8MOL0     H 1056  12.413   8.051   0.645  0.1082  1.4994  0.0950
    8MOL0     H 1057  12.440   8.147   0.796  0.9664 -0.5534 -0.3821
    8MOL0     H 1058  12.477   7.914   0.909  0.0050 -1.0409  0.2994
    8MOL0     H 1059  12.506   7.846   0.764  0.9500  0.0697 -0.8407
    8MOL0     H 1060  12.721   7.899   0.827 -0.0252  0.5833  2.5994
    8MOL0     H 1061  12.675   8.008   0.687  1.9492  0.5786  0.2149
    8MOL0     H 1062  12.732   8.295   1.031 -0.2838  0.7049 -1.7210
    8MOL0     H 1063  13.021   8.433   1.154 -0.7296 -0.0699  0.0504
    8MOL0     H 1064  12.852   8.471   1.116 -0.0996  0.7885  1.6497
    8MOL0     H 1065  12.974   8.542   1.023  1.7542 -0.6880 -0.7015
    8MOL0     H 1066  13.406   8.556   0.951 -0.3107  1.4097 -0.4416
    8MOL0     H 1067  13.636   8.581   0.971 -1.1151  0.7301  0.7892
    8MOL0     H 1068  13.827   8.629   0.887 -2.2405 -0.9081 -0.3958
    8MOL0     H 1069  13.860   8.518   1.019  0.1977  2.4488  0.9609
    8MOL0     H 1070  14.053   8.658   0.916 -0.2534  0.4224  0.3070
    8MOL0     H 1071  14.077   8.480   0.918 -0.8627  0.8921  1.8445
    8MOL0     H 1072  13.968   8.615   0.663  1.5710  1.8065 -0.0202
    8MOL0     H 1073  14.033   8.455   0.692  1.7198  1.3366 -1.2444
    8MOL0     H 1074  14.250   8.549   0.739  2.0880  0.6257 -2.0901
    8MOL0     H 1075  14.189   8.709   0.704  1.2616  0.1237 -1.0915
    8MOL0     H 1076  14.286   8.490   0.526  0.1895 -0.6536  0.9825
    8MOL0     H 1077  14.122   8.525   0.476 -1.6089  0.4401  1.8736
    8MOL0     H 1078  14.267   8.650   0.340  0.0459 -0.3481  0.3131
    8MOL0     H 1079  14.348   8.724   0.477  0.6483  1.4349 -2.5247
    8MOL0     H 1080  14.155   8.855   0.538 -0.9404  3.1557 -1.6336
    8MOL0     H 1081  14.052   8.768   0.424 -0.7719  0.7828  0.0352
    8MOL0     H 1082  14.126   9.005   0.354 -1.0482 -0.2303 -0.9911
    8MOL0     H 1083  14.174   8.872   0.243 -2.9054 -2.3745  1.2824
    8MOL0     H 1084  13.691   8.268   0.674 -0.0470 -0.6567  0.9454
    8MOL0     H 1085  13.439   8.266   0.650  0.3296  1.3290 -0.6270
    8MOL0     H 1086  13.120   8.154   0.752 -0.5874  1.3504 -1.1099
    8MOL0     H 1087  12.914   8.029   0.746  0.5485  0.0967  0.0682
    8MOL0     H 1088  11.039   7.956   0.197  2.3347  0.3985 -1.3782
    8MOL0     H 1089  10.807   7.870   0.194  1.4903  0.6632  1.2779
    8MOL0     H 1090  10.339   8.101  -0.095  0.5993  0.4072  0.7794
    8MOL0     H 1091  10.137   8.027  -0.184 -0.9197  0.9049  1.3240
    8MOL0     H 1092  10.024   7.602  -0.251  1.3039  3.3405 -0.7161
    8MOL0     H 1093  10.009   7.598  -0.083 -0.9584 -0.4001  0.2117
    8MOL0     H 1094   9.790   7.561  -0.207 -1.4707 -0.0148  0.0606
    8MOL0     H 1095   9.818   7.710  -0.293  0.6968 -2.0250 -0.6580
    8MOL0     H 1096   9.810   7.814  -0.045 -0.0789  0.3068 -1.0014
    8MOL0     H 1097   9.661   7.791  -0.136 -0.8886  0.8893  2.5250
    8MOL0     H 1098   9.766   7.579   0.060  0.5965  0.3366 -1.6171
    8MOL0     H 1099   9.617   7.582  -0.024 -0.4005  0.3333 -3.1498
    8MOL0     H 1100   9.561   7.876   0.286  1.9082  1.0094 -0.5449
    8MOL0     H 1101  10.213   7.629  -0.061 -0.3242  0.7549 -0.5394
    8MOL0     H 1102  10.413   7.545   0.012 -0.3980  0.1852 -1.7592
    8MOL0     H 1103  10.555   7.650   0.004 -0.8709  0.1112 -1.8571
    8MOL0     H 1104  10.456   7.651   0.144  1.9190  1.7631 -0.5139
    9MOL0     O 1105   1.157   4.125   5.235  0.2381  0.1396 -0.2891
    9MOL0     C 1106   1.206   4.233   5.212 -0.2862 -0.5285  0.0918
    9MOL0     O 1107   1.300   4.298   5.289  0.1122 -0.4830  0.4595
    9MOL0     C 1108   1.332   4.260   5.413  0.2124  0.2224 -0.1340
    9MOL0     C 1109   1.452   4.313   5.463  0.4528 -0.2125  0.0496
    9MOL0     C 1110   1.475   4.299   5.596 -0.3308 -0.1959 -0.2673
    9MOL0     C 1111   1.388   4.229   5.682  0.7863 -0.1625  0.1182
    9MOL0     O 1112   1.408   4.197   5.814 -0.2392  0.1964 -0.1927
    9MOL0     C 1113   1.514   4.264   5.889  1.2713  0.4545 -0.5021
    9MOL0     C 1114   1.493   4.222   6.037 -0.0329 -0.3309  0.9453
    9MOL0     C 1115   1.375   4.300   6.094 -0.2469  0.6223 -0.1770
    9MOL0     C 1116   1.354   4.250   6.236  0.3553 -1.1667 -0.1406
    9MOL0     C 1117   1.237   4.330   6.297  0.0770  0.2908  0.4940
    9MOL0     C 1118   1.190   4.262   6.421 -0.0813 -0.2367  0.4649
    9MOL0     C 1119   1.032   4.247   6.410  0.1404 -0.4168 -0.0083
    9MOL0     C 1120   0.999   4.131   6.317  0.0582  0.1191 -0.7014
    9MOL0     N 1121   0.849   4.122   6.281  0.1917  0.1829 -0.2181
    9MOL0     C 1122   0.759   4.217   6.230 -0.5772 -0.4680  1.0381
    9MOL0     C 1123   0.637   4.164   6.231  0.0869 -0.3065  0.0545
    9MOL0     C 1124   0.507   4.223   6.172  0.3929  0.2161  0.3049
    9MOL0     C 1125   0.474   4.167   6.029  0.4040  0.0978 -0.0360
    9MOL0     C 1126   0.441   4.011   6.032 -0.4725  0.4447 -0.2500
    9MOL0     C 1127   0.356   3.976   5.907  0.1364 -0.0895  0.2331
    9MOL0     O 1128   0.389   4.044   5.784 -0.4908  0.0191 -0.5383
    9MOL0     C 1129   0.318   4.005   5.673  0.0067  0.6490  0.3292
    9MOL0     C 1130   0.228   3.893   5.662 -0.6682  0.5510  0.0356
    9MOL0     C 1131   0.152   3.873   5.548 -0.3021 -0.2193  0.4187
    9MOL0     C 1132   0.057   3.751   5.548 -0.3744 -0.2033 -0.0624
    9MOL0     C 1133   0.187   3.953   5.426  0.3102  0.1217  0.2918
    9MOL0     C 1134   0.117   3.948   5.296  0.4005 -0.1085  1.1088
    9MOL0     O 1135   0.030   3.853   5.278 -0.5455 -0.2530 -0.2934
    9MOL0     C 1136   0.009   3.790   5.158 -0.2323  0.1034 -0.1595
    9MOL0     C 1137  -0.119   3.788   5.123 -0.9075 -0.4004  0.0501
    9MOL0     C 1138  -0.155   3.738   5.003 -0.2774  0.1716 -0.6617
    9MOL0     C 1139  -0.063   3.679   4.916 -0.0295  0.7895 -0.4944
    9MOL0     O 1140  -0.106   3.618   4.801  0.3449  0.1842 -0.1133
    9MOL0     C 1141  -0.068   3.481   4.787 -0.5220 -0.6054  0.2261
    9MOL0     C 1142  -0.174   3.411   4.708 -0.0559 -0.3802 -0.0445
    9MOL0     C 1143  -0.284   3.365   4.792 -0.4856  0.1503 -1.1704
    9MOL0     C 1144  -0.287   3.209   4.821  0.1046  0.0690 -0.3521
    9MOL0     C 1145  -0.415   3.174   4.903  0.2101 -0.1509 -0.6085
    9MOL0     C 1146  -0.437   3.030   4.912 -0.1264  0.4709 -0.1535
    9MOL0     C 1147  -0.551   2.998   5.022  0.3703 -0.2028  0.4187
    9MOL0     C 1148  -0.547   2.849   5.069 -0.3924  0.0572 -0.2119
    9MOL0    Cl 1149  -0.401   2.813   5.170  0.1321  0.4728 -0.4434
    9MOL0     C 1150   0.070   3.672   4.954  0.2869 -0.3396  0.3592
    9MOL0     C 1151   0.111   3.729   5.083  1.0966  0.4534 -0.3784
    9MOL0     O 1152   0.147   4.038   5.214  0.1267 -0.1716  0.1041
    9MOL0     C 1153   0.293   4.034   5.429 -0.4382 -0.3484 -0.3959
    9MOL0     C 1154   0.354   4.067   5.554 -0.0375 -0.0146  0.0124
    9MOL0     N 1155   0.640   4.040   6.291  0.3284 -0.0091 -0.1683
    9MOL0     N 1156   0.768   4.018   6.319  0.4471  0.3618 -0.2563
    9MOL0     C 1157   1.265   4.178   5.632 -0.1829 -0.7060  0.3926
    9MOL0     C 1158   1.237   4.199   5.492  0.7036 -0.9981  0.1145
    9MOL0     C 1159   1.161   4.305   5.081  0.1260  0.2585 -0.1684
    9MOL0     C 1160   1.044   4.258   5.018  0.1719  0.7968  0.0153
    9MOL0     C 1161   1.002   4.323   4.897  0.0520  0.4759 -0.5110
    9MOL0     C 1162   1.060   4.440   4.854 -0.5419 -0.0611 -0.1117
    9MOL0     O 1163   1.023   4.518   4.749 -0.3282  0.3964 -0.3498
    9MOL0     C 1164   0.904   4.486   4.677 -0.1527  0.5884  0.4034
    9MOL0     C 1165   0.785   4.552   4.746 -0.3538 -0.2630  0.4989
    9MOL0     C 1166   0.649   4.487   4.705  0.5859  0.4334  0.0506
    9MOL0     C 1167   0.613   4.506   4.565 -0.6058 -0.4583 -0.7178
    9MOL0     C 1168   0.532   4.393   4.513 -0.0471 -0.1936  0.0748
    9MOL0     C 1169   0.480   4.300   4.467  0.3919  0.3123 -0.1693
    9MOL0     C 1170   1.171   4.484   4.918 -0.0112 -0.8361  0.1884
    9MOL0     C 1171   1.224   4.414   5.022  0.6121 -0.1577  0.0211
    9MOL0     C 1172   1.339   4.480   5.087 -0.7768  0.1397  0.6674
    9MOL0     H 1173   1.530   4.361   5.406  2.1947 -0.7590  1.8627
    9MOL0     H 1174   1.567   4.350   5.625 -1.2402  1.5982 -0.3479
    9MOL0     H 1175   1.518   4.372   5.871 -2.8834  0.4677 -2.2252
    9MOL0     H 1176   1.602   4.216   5.845  0.8656  1.5180 -2.6272
    9MOL0     H 1177   1.473   4.114   6.036  0.7615 -0.5032 -0.6332
    9MOL0     H 1178   1.588   4.244   6.087  1.4890  1.6897 -2.4537
    9MOL0     H 1179   1.399   4.406   6.085  1.1423  0.5124  1.5864
    9MOL0     H 1180   1.294   4.294   6.021 -0.5339  2.1623 -0.0242
    9MOL0     H 1181   1.333   4.143   6.225  1.3673 -1.3296 -0.6338
    9MOL0     H 1182   1.442   4.268   6.297 -2.1255  2.5107  2.7814
    9MOL0     H 1183   1.161   4.341   6.219  0.9543  1.6835 -0.2141
    9MOL0     H 1184   1.277   4.429   6.322  0.0726  0.9088 -1.7265
    9MOL0     H 1185   1.230   4.161   6.425 -0.2223 -0.3124  0.0384
    9MOL0     H 1186   1.217   4.329   6.503 -0.0119  1.8619 -1.1881
    9MOL0     H 1187   0.997   4.342   6.368  1.4488 -0.5207 -1.4062
    9MOL0     H 1188   0.989   4.226   6.509  0.0820  0.1593  0.0947
    9MOL0     H 1189   1.052   4.140   6.222  1.4852 -0.9603 -0.0463
    9MOL0     H 1190   1.016   4.040   6.376 -3.5153  0.2316  0.7327
    9MOL0     H 1191   0.788   4.305   6.173  2.9101 -2.7366 -1.1310
    9MOL0     H 1192   0.508   4.332   6.174 -0.6237  0.2691 -0.7576
    9MOL0     H 1193   0.414   4.205   6.228 -1.3852  1.8414 -1.9033
    9MOL0     H 1194   0.387   4.222   5.991 -0.9906  0.0994  2.8888
    9MOL0     H 1195   0.559   4.187   5.963  1.0905  0.1948  0.8594
    9MOL0     H 1196   0.533   3.954   6.043 -1.2636 -0.8312 -0.0766
    9MOL0     H 1197   0.384   3.992   6.124  0.4821  0.4422  0.3481
    9MOL0     H 1198   0.359   3.867   5.894 -0.2831 -0.2512  1.3744
    9MOL0     H 1199   0.257   4.013   5.935  0.2232 -0.8506  1.6425
    9MOL0     H 1200   0.217   3.825   5.746  1.2776  2.4779  1.9982
    9MOL0     H 1201   0.089   3.675   5.476  1.0064  1.1350 -0.9132
    9MOL0     H 1202  -0.042   3.775   5.508 -0.2029 -2.4776 -2.1153
    9MOL0     H 1203   0.050   3.703   5.646  0.3810 -1.1795 -0.4633
    9MOL0     H 1204  -0.182   3.837   5.197 -0.7870 -2.7134  1.8055
    9MOL0     H 1205  -0.258   3.738   4.970 -0.4929 -3.1457 -0.3948
    9MOL0     H 1206   0.023   3.469   4.727  0.1771 -1.9623  1.4899
    9MOL0     H 1207  -0.050   3.431   4.883  3.0118  2.0367  1.1227
    9MOL0     H 1208  -0.225   3.480   4.639  0.6873  0.7972  0.5502
    9MOL0     H 1209  -0.131   3.324   4.658  3.1199  1.8153 -1.4157
    9MOL0     H 1210  -0.376   3.387   4.738  0.0942 -0.8199 -2.6261
    9MOL0     H 1211  -0.287   3.423   4.885 -3.2724 -3.2098  1.0746
    9MOL0     H 1212  -0.201   3.173   4.878 -1.4557  1.8819  3.4723
    9MOL0     H 1213  -0.290   3.154   4.726  0.1422 -1.1402  0.3307
    9MOL0     H 1214  -0.402   3.228   4.997  0.9314  2.8542 -2.3364
    9MOL0     H 1215  -0.502   3.218   4.854  0.5834 -0.0586 -1.1963
    9MOL0     H 1216  -0.344   2.987   4.951 -0.7003 -0.1927  0.5192
    9MOL0     H 1217  -0.469   3.002   4.811  0.7447 -0.4818 -0.1813
    9MOL0     H 1218  -0.650   3.016   4.979  0.2003 -1.8760  0.0193
    9MOL0     H 1219  -0.536   3.060   5.111  2.7769  0.1343 -0.1605
    9MOL0     H 1220  -0.538   2.785   4.981  3.4040  0.1456 -0.0137
    9MOL0     H 1221  -0.637   2.827   5.127  0.0400 -0.3174  0.3236
    9MOL0     H 1222   0.151   3.616   4.910  3.7669 -0.1890  5.6103
    9MOL0     H 1223   0.209   3.728   5.129  1.5371 -0.1217 -1.2885
    9MOL0     H 1224   0.339   4.077   5.341  0.6433 -1.6477 -0.4905
    9MOL0     H 1225   0.441   4.131   5.552 -1.7231  2.4805 -3.3387
    9MOL0     H 1226   1.209   4.103   5.686 -0.8542 -0.7992 -0.4083
    9MOL0     H 1227   1.147   4.154   5.450  0.4520  0.3160 -0.8355
    9MOL0     H 1228   0.990   4.175   5.062 -0.8795 -0.2939 -3.0369
    9MOL0     H 1229   0.902   4.288   4.871  1.1470 -2.5742 -1.0316
    9MOL0     H 1230   0.921   4.516   4.574 -2.6919 -2.6416 -1.1371
    9MOL0     H 1231   0.884   4.380   4.658  2.5576  0.2746 -1.2923
    9MOL0     H 1232   0.794   4.659   4.726  2.0855 -0.4381  0.3617
    9MOL0     H 1233   0.794   4.540   4.854 -3.8289 -1.2328  0.8161
    9MOL0     H 1234   0.653   4.380   4.728  0.8870  0.1911 -1.0839
    9MOL0     H 1235   0.572   4.531   4.769  1.7874  3.3386 -0.3517
    9MOL0     H 1236   0.699   4.529   4.502 -0.4215  3.3392  0.6407
    9MOL0     H 1237   0.558   4.600   4.558 -0.8432 -0.2795  2.2516
    9MOL0     H 1238   0.450   4.214   4.410  0.8500  0.0221  0.0164
    9MOL0     H 1239   1.219   4.573   4.877  1.2129 -1.5395  0.0479
    9MOL0     H 1240   1.296   4.530   5.174  0.2215 -0.0919  1.3138
    9MOL0     H 1241   1.420   4.413   5.121 -0.7286 -0.9429 -1.4392
    9MOL0     H 1242   1.390   4.550   5.020 -2.6536  0.3743 -0.5715
   10MOL0     O 1243   5.238   5.899   5.977  0.2386  0.0653 -0.2412
   10MOL0     C 1244   5.126   5.899   5.921  0.9320  0.2649 -0.2108
   10MOL0     O 1245   5.107   5.963   5.799  0.1186  0.5404  0.4459
   10MOL0     C 1246   5.226   5.990   5.736 -1.4401 -0.7609 -0.2617
   10MOL0     C 1247   5.272   6.124   5.721  0.0260 -0.2354  0.3395
   10MOL0     C 1248   5.390   6.155   5.658  0.2205  0.5203  0.6889
   10MOL0     C 1249   5.473   6.055   5.614 -0.5613 -0.6542  0.1776
   10MOL0     O 1250   5.581   6.101   5.546  0.0500 -0.5628 -0.0829
   10MOL0     C 1251   5.685   6.009   5.503  0.1718 -0.4985  0.3966
   10MOL0     C 1252   5.796   6.109   5.465 -0.6733 -0.7363 -0.0393
   10MOL0     C 1253   5.757   6.206   5.351 -0.2689 -0.5235  0.0026
   10MOL0     C 1254   5.871   6.301   5.322  0.1406 -0.2779 -0.9028
   10MOL0     C 1255   5.855   6.433   5.392  1.3344  0.2162 -0.4726
   10MOL0     C 1256   5.735   6.519   5.351 -0.2309 -0.0499  1.2171
   10MOL0     C 1257   5.703   6.632   5.440 -0.4517  0.6578 -0.6237
   10MOL0     C 1258   5.646   6.561   5.570  0.3236  0.1424  0.1753
   10MOL0     N 1259   5.735   6.567   5.684  0.1415 -0.1202  0.1041
   10MOL0     C 1260   5.747   6.672   5.778  0.8510  0.3514  0.1841
   10MOL0     C 1261   5.818   6.619   5.879 -0.4025  0.0201  0.3876
   10MOL0     C 1262   5.867   6.702   6.000 -0.1531 -0.3235  0.0826
   10MOL0     C 1263   5.756   6.776   6.076  0.5291 -0.1094 -0.3437
   10MOL0     C 1264   5.822   6.835   6.200 -0.3629 -0.3382  0.3869
   10MOL0     C 1265   5.852   6.728   6.310  0.1972  0.5666  0.4217
   10MOL0     O 1266   5.921   6.779   6.426 -0.0185  0.0876 -0.1414
   10MOL0     C 1267   6.065   6.767   6.414 -0.0023  0.2217 -0.7353
   10MOL0     C 1268   6.129   6.768   6.544 -0.0532 -0.3892  0.2303
   10MOL0     C 1269   6.266   6.765   6.561 -0.3228 -0.5495  0.2094
   10MOL0     C 1270   6.312   6.788   6.710 -0.4676  0.2759  0.0491
   10MOL0     C 1271   6.354   6.763   6.443 -0.1835  0.3403 -0.7909
   10MOL0     C 1272   6.497   6.768   6.441 -0.3087 -0.3572 -0.2496
   10MOL0     O 1273   6.549   6.805   6.323 -0.6370  0.6464  0.2247
   10MOL0     C 1274   6.687   6.819   6.315  0.5606 -0.7218  0.1492
   10MOL0     C 1275   6.753   6.759   6.205  0.6653 -0.1834  0.5451
   10MOL0     C 1276   6.887   6.783   6.177  0.9814  0.2804 -0.5626
   10MOL0     C 1277   6.971   6.851   6.274 -1.2809 -0.0295 -0.3446
   10MOL0     O 1278   7.106   6.877   6.272  0.6034 -0.7305  0.9772
   10MOL0     C 1279   7.174   6.829   6.153  0.7476  0.1469 -0.1443
   10MOL0     C 1280   7.313   6.871   6.184 -0.5173 -1.0481 -0.4259
   10MOL0     C 1281   7.423   6.798   6.103 -0.2238 -0.1301 -0.6729
   10MOL0     C 1282   7.568   6.848   6.144  0.2995  0.6455 -0.3859
   10MOL0     C 1283   7.656   6.731   6.110 -0.2355  0.0690  0.4822
   10MOL0     C 1284   7.806   6.749   6.154 -0.5720  0.3384  0.3750
   10MOL0     C 1285   7.899   6.636   6.090  0.8223  0.7479 -0.5947
   10MOL0     C 1286   8.041   6.636   6.144  0.0258  0.0357 -0.2020
   10MOL0    Cl 1287   8.054   6.628   6.330 -0.2440  0.3668  0.4109
   10MOL0     C 1288   6.907   6.899   6.393  0.0697  0.5354  0.7599
   10MOL0     C 1289   6.761   6.893   6.406 -1.0669  0.2827  0.4715
   10MOL0     O 1290   6.558   6.752   6.545  0.2958 -0.0284 -0.7747
   10MOL0     C 1291   6.286   6.762   6.317  0.0189  0.4881  0.2931
   10MOL0     C 1292   6.147   6.750   6.306 -0.2180  0.1234 -0.2957
   10MOL0     N 1293   5.853   6.486   5.852 -0.2471  0.1754  0.2466
   10MOL0     N 1294   5.799   6.460   5.738  0.0424  0.3833  0.1477
   10MOL0     C 1295   5.428   5.923   5.625 -0.3745  0.5912  0.4630
   10MOL0     C 1296   5.303   5.892   5.672  0.2966  0.4609  0.0003
   10MOL0     C 1297   5.008   5.828   5.978  0.3605 -0.2780  0.3189
   10MOL0     C 1298   4.875   5.848   5.923 -0.0014  0.0195 -0.1802
   10MOL0     C 1299   4.756   5.789   5.973  0.5454 -0.6471 -0.4590
   10MOL0     C 1300   4.767   5.711   6.091 -0.3691  0.5481 -0.2979
   10MOL0     O 1301   4.651   5.651   6.135 -0.1823  0.2764 -0.6853
   10MOL0     C 1302   4.662   5.519   6.196 -0.5064 -0.3170  0.3638
   10MOL0     C 1303   4.540   5.440   6.167  0.8557 -0.0752 -0.2124
   10MOL0     C 1304   4.405   5.501   6.204 -0.4969 -0.9403 -0.1645
   10MOL0     C 1305   4.292   5.400   6.236 -0.5464  0.2209  0.0564
   10MOL0     C 1306   4.239   5.336   6.112  0.8235  0.8927  0.1196
   10MOL0     C 1307   4.184   5.315   6.008 -0.3450 -0.0738 -0.5747
   10MOL0     C 1308   4.886   5.692   6.142  0.1753  0.0378 -0.2603
   10MOL0     C 1309   5.011   5.740   6.093  0.1812  0.2454  0.6124
   10MOL0     C 1310   5.137   5.696   6.161  0.6064 -0.5506  0.7683
   10MOL0     H 1311   5.207   6.208   5.743 -2.0312 -1.6188 -0.0996
   10MOL0     H 1312   5.426   6.256   5.639  0.8961  0.3541  1.0561
   10MOL0     H 1313   5.644   5.946   5.424 -0.7218  0.6408 -0.0797
   10MOL0     H 1314   5.702   5.949   5.593 -2.3552 -0.9654  0.6481
   10MOL0     H 1315   5.833   6.161   5.554  0.5519 -1.0509 -0.3440
   10MOL0     H 1316   5.871   6.036   5.434 -1.1013 -1.1344 -0.1537
   10MOL0     H 1317   5.741   6.156   5.255 -1.6644 -0.2478  0.0671
   10MOL0     H 1318   5.662   6.258   5.368  0.4569  1.1779 -0.8692
   10MOL0     H 1319   5.966   6.254   5.350  0.6115  1.0643 -0.1982
   10MOL0     H 1320   5.874   6.323   5.215  0.2758  0.0894 -0.8231
   10MOL0     H 1321   5.947   6.493   5.393  0.5980  1.4476  1.7252
   10MOL0     H 1322   5.841   6.412   5.498 -1.2067 -1.9257 -1.1467
   10MOL0     H 1323   5.758   6.554   5.250 -0.6249 -1.8445  0.4761
   10MOL0     H 1324   5.651   6.451   5.334 -0.5494  0.4359  0.8155
   10MOL0     H 1325   5.641   6.716   5.407  1.6134  1.4647 -2.7868
   10MOL0     H 1326   5.790   6.697   5.448 -0.6044  0.8515 -0.5028
   10MOL0     H 1327   5.545   6.590   5.600 -0.4322 -0.1194 -1.9043
   10MOL0     H 1328   5.622   6.457   5.543 -2.5937  0.8224 -0.1559
   10MOL0     H 1329   5.708   6.771   5.759 -2.0860 -0.9827 -1.5525
   10MOL0     H 1330   5.937   6.775   5.958 -1.5265  1.3293  0.5437
   10MOL0     H 1331   5.927   6.634   6.061  0.3745  0.4013  0.3982
   10MOL0     H 1332   5.700   6.850   6.018 -2.5306 -0.7722  1.5089
   10MOL0     H 1333   5.672   6.712   6.107  0.2708  0.5556  0.3765
   10MOL0     H 1334   5.916   6.887   6.179 -0.3310  0.1175  1.5733
   10MOL0     H 1335   5.745   6.901   6.241 -0.5227 -1.5600  2.1293
   10MOL0     H 1336   5.759   6.674   6.330  1.4603 -1.1523  1.8770
   10MOL0     H 1337   5.918   6.655   6.263  0.3816  0.6465  0.5531
   10MOL0     H 1338   6.055   6.773   6.623 -1.6860 -1.7345 -1.1479
   10MOL0     H 1339   6.388   6.711   6.728  2.5787  3.0641 -0.0643
   10MOL0     H 1340   6.223   6.789   6.773 -1.3772 -0.0521 -1.1784
   10MOL0     H 1341   6.365   6.882   6.724  0.6733 -0.0926 -1.4045
   10MOL0     H 1342   6.699   6.714   6.122  0.6429  1.3372 -0.3137
   10MOL0     H 1343   6.933   6.739   6.089 -0.6982 -0.5928 -1.0536
   10MOL0     H 1344   7.148   6.723   6.146 -1.3792  0.5263  0.9329
   10MOL0     H 1345   7.139   6.876   6.060 -2.5106  1.7267  1.6756
   10MOL0     H 1346   7.321   6.978   6.163 -0.2079 -0.2886  2.9862
   10MOL0     H 1347   7.332   6.842   6.288 -0.9453 -1.7590 -0.5344
   10MOL0     H 1348   7.405   6.823   5.997 -1.0904  0.3363 -0.4280
   10MOL0     H 1349   7.414   6.690   6.118  0.6263 -0.1997 -0.6457
   10MOL0     H 1350   7.571   6.880   6.248 -1.6261 -0.9925  0.2584
   10MOL0     H 1351   7.595   6.936   6.085  0.1602  0.9219 -0.0416
   10MOL0     H 1352   7.624   6.636   6.153  0.9141  0.0847  1.4163
   10MOL0     H 1353   7.662   6.710   6.003  0.9961 -0.6976  0.6804
   10MOL0     H 1354   7.812   6.747   6.263  0.5703 -0.3827  0.3156
   10MOL0     H 1355   7.833   6.850   6.123 -0.9787  0.4197  0.2770
   10MOL0     H 1356   7.913   6.636   5.981  1.7511 -1.4104 -0.5229
   10MOL0     H 1357   7.848   6.542   6.113 -3.2255  2.5536 -1.4297
   10MOL0     H 1358   8.080   6.736   6.122  1.6962  0.0509  2.4213
   10MOL0     H 1359   8.105   6.554   6.108 -3.2947 -3.6843  1.6032
   10MOL0     H 1360   6.971   6.939   6.470  0.6381 -0.4988  0.8369
   10MOL0     H 1361   6.714   6.941   6.491  0.4112  0.0502  1.4735
   10MOL0     H 1362   6.332   6.758   6.219 -2.3543 -2.1714 -0.8739
   10MOL0     H 1363   6.110   6.756   6.204  2.1756 -1.7002 -1.3724
   10MOL0     H 1364   5.492   5.842   5.592  0.1993  0.8334  0.9644
   10MOL0     H 1365   5.279   5.788   5.691  3.2131  0.3903  5.0256
   10MOL0     H 1366   4.859   5.918   5.841  0.3769 -3.4876 -3.5352
   10MOL0     H 1367   4.664   5.802   5.916  1.0757 -0.0828 -1.1975
   10MOL0     H 1368   4.747   5.464   6.154  0.3715  0.6566  0.8064
   10MOL0     H 1369   4.666   5.531   6.305  1.5002  0.4773  0.2487
   10MOL0     H 1370   4.554   5.336   6.196 -1.0552 -0.3869 -0.3003
   10MOL0     H 1371   4.540   5.446   6.058  1.3897  3.3945 -0.1234
   10MOL0     H 1372   4.424   5.567   6.289 -0.8550 -1.2415  0.1545
   10MOL0     H 1373   4.375   5.558   6.116  1.8099  0.4465 -0.1340
   10MOL0     H 1374   4.215   5.461   6.283  2.3976  3.5309  1.0698
   10MOL0     H 1375   4.337   5.330   6.307  0.9454  1.3965  0.3471
   10MOL0     H 1376   4.133   5.307   5.914 -0.0966  1.0631 -0.8098
   10MOL0     H 1377   4.890   5.628   6.229 -0.2079 -0.5934 -0.6966
   10MOL0     H 1378   5.147   5.749   6.257 -0.7962  0.3580  0.4457
   10MOL0     H 1379   5.130   5.590   6.186  2.5267 -0.6917  0.8641
   10MOL0     H 1380   5.229   5.688   6.102  0.5394 -2.5392  0.8918
   11MOL0     O 1381   9.739   1.093   0.955  0.0890  0.8121  0.1536
   11MOL0     C 1382   9.766   0.980   0.914  0.8644 -0.1957 -0.4886
   11MOL0     O 1383   9.886   0.948   0.869 -0.2340  0.7571 -0.1037
   11MOL0     C 1384   9.973   1.037   0.804  1.0081 -0.3348  0.0949
   11MOL0     C 1385  10.107   1.020   0.814  0.2565  0.0193  0.7397
   11MOL0     C 1386  10.194   1.103   0.735 -0.0271  0.8183 -0.0226
   11MOL0     C 1387  10.153   1.212   0.668 -0.0731 -0.1376 -0.0605
   11MOL0     O 1388  10.248   1.289   0.603 -0.3265  0.6095 -0.0317
   11MOL0     C 1389  10.223   1.433   0.611 -0.3816 -0.0283  0.4332
   11MOL0     C 1390  10.354   1.494   0.573  0.6596  0.3014 -0.2599
   11MOL0     C 1391  10.480   1.472   0.658  0.5168 -0.0881  0.0935
   11MOL0     C 1392  10.583   1.563   0.605  0.7804 -1.1511  0.0924
   11MOL0     C 1393  10.723   1.532   0.664  0.0942 -0.3365  0.1065
   11MOL0     C 1394  10.830   1.539   0.550 -0.2777  0.5522  0.7741
   11MOL0     C 1395  10.974   1.513   0.609 -0.3754  0.0195 -0.5827
   11MOL0     C 1396  11.048   1.638   0.656  0.1522 -0.1769  0.2758
   11MOL0     N 1397  11.187   1.609   0.684  0.7105  0.6789 -0.1167
   11MOL0     C 1398  11.240   1.549   0.796 -0.1657 -0.9113  0.4153
   11MOL0     C 1399  11.375   1.546   0.782  1.1865  0.6026 -0.2639
   11MOL0     C 1400  11.477   1.487   0.881  0.6682  0.4014 -0.2985
   11MOL0     C 1401  11.422   1.417   0.999  0.0870  0.9890 -0.1459
   11MOL0     C 1402  11.519   1.328   1.082  0.2382  0.3497 -0.4265
   11MOL0     C 1403  11.634   1.397   1.148 -0.0299 -0.2127  0.2303
   11MOL0     O 1404  11.717   1.299   1.200 -0.4511  0.3336 -0.0284
   11MOL0     C 1405  11.795   1.326   1.309 -0.1698 -0.0279 -0.8231
   11MOL0     C 1406  11.858   1.215   1.373  0.1270 -0.7836 -1.0696
   11MOL0     C 1407  11.936   1.236   1.492  0.2098 -0.0144 -0.5195
   11MOL0     C 1408  12.011   1.119   1.554 -0.9435  0.7918 -0.2162
   11MOL0     C 1409  11.955   1.366   1.542 -0.3039 -0.3590  0.3766
   11MOL0     C 1410  12.032   1.391   1.664 -0.3179  0.2057 -0.1436
   11MOL0     O 1411  12.155   1.452   1.642 -0.0074 -0.1464  0.1297
   11MOL0     C 1412  12.251   1.431   1.730 -0.7350 -0.4161 -0.3725
   11MOL0     C 1413  12.355   1.520   1.742  0.5504 -0.4213  0.3523
   11MOL0     C 1414  12.462   1.504   1.831 -0.0700 -0.2302 -0.0405
   11MOL0     C 1415  12.473   1.401   1.917 -0.8482 -0.1818 -0.2647
   11MOL0     O 1416  12.594   1.400   1.985  0.5418 -0.3191  0.4492
   11MOL0     C 1417  12.621   1.288   2.069  0.3094  0.2409 -0.4673
   11MOL0     C 1418  12.744   1.290   2.165 -0.2607 -0.2600  0.1091
   11MOL0     C 1419  12.755   1.178   2.261 -0.4771 -0.5920  0.0115
   11MOL0     C 1420  12.883   1.179   2.338 -0.5274  0.2275  0.0906
   11MOL0     C 1421  12.862   1.067   2.444 -0.3826  0.9317 -0.2087
   11MOL0     C 1422  12.994   1.049   2.524  1.4226  0.3135  0.2108
   11MOL0     C 1423  13.007   0.907   2.575  0.5482  0.6188 -1.1285
   11MOL0     C 1424  12.883   0.867   2.649 -0.4497 -0.0281 -0.6695
   11MOL0    Cl 1425  12.882   0.691   2.677 -0.2164  0.1996 -0.6096
   11MOL0     C 1426  12.371   1.304   1.905 -0.0078  0.1244 -0.2621
   11MOL0     C 1427  12.271   1.321   1.811  0.7132 -0.1715  0.5672
   11MOL0     O 1428  11.978   1.369   1.772 -0.4680 -0.3177 -0.5136
   11MOL0     C 1429  11.902   1.476   1.477 -0.5061 -0.2433  0.4183
   11MOL0     C 1430  11.817   1.457   1.367  0.9131 -0.2840  0.0599
   11MOL0     N 1431  11.392   1.613   0.665  0.0626  0.0701 -0.7875
   11MOL0     N 1432  11.287   1.659   0.608  0.5619  0.1439 -0.9688
   11MOL0     C 1433  10.015   1.234   0.672  0.1477  0.5027 -0.4969
   11MOL0     C 1434   9.921   1.146   0.734 -1.4054  0.3299  0.5317
   11MOL0     C 1435   9.653   0.880   0.926 -0.7276 -0.4229  0.2871
   11MOL0     C 1436   9.535   0.929   0.991  1.0187  0.2226 -0.2891
   11MOL0     C 1437   9.423   0.858   0.988 -0.5715 -0.9642  0.0427
   11MOL0     C 1438   9.414   0.740   0.915  0.7687  0.3430 -0.5407
   11MOL0     O 1439   9.298   0.674   0.915  0.2809  0.6291  0.0081
   11MOL0     C 1440   9.180   0.726   0.978  0.6682 -0.1130  1.0856
   11MOL0     C 1441   9.128   0.849   0.910 -0.6951  0.4110  1.0031
   11MOL0     C 1442   9.002   0.903   0.978 -0.4120  0.3651 -0.2016
   11MOL0     C 1443   9.028   0.965   1.118  1.1248 -1.0271  0.1169
   11MOL0     C 1444   9.105   1.087   1.113 -0.3589 -0.8191 -0.4927
   11MOL0     C 1445   9.177   1.184   1.131 -0.2041  0.2750  0.2990
   11MOL0     C 1446   9.526   0.686   0.861  0.5386  0.8307  0.1922
   11MOL0     C 1447   9.648   0.754   0.860 -0.4809  0.4230  0.4007
   11MOL0     C 1448   9.754   0.682   0.781  0.1305  0.2901 -0.7217
   11MOL0     H 1449  10.148   0.944   0.880  0.3544  0.5035  1.2477
   11MOL0     H 1450  10.298   1.075   0.751  0.5946  3.1900  0.5032
   11MOL0     H 1451  10.192   1.471   0.709  1.5630  2.1453  0.3074
   11MOL0     H 1452  10.155   1.461   0.530  0.0624 -2.6779 -0.9634
   11MOL0     H 1453  10.366   1.449   0.474 -1.8602  0.5934 -0.7565
   11MOL0     H 1454  10.342   1.601   0.554 -2.8832  0.0681  0.0836
   11MOL0     H 1455  10.458   1.511   0.757 -3.5464  0.4428 -0.8297
   11MOL0     H 1456  10.508   1.366   0.653 -0.0871 -0.1922 -2.3359
   11MOL0     H 1457  10.580   1.556   0.496  1.8557 -1.8775  0.0994
   11MOL0     H 1458  10.549   1.664   0.630 -3.0999 -2.0681 -0.7061
   11MOL0     H 1459  10.716   1.433   0.708 -0.6240 -1.7547 -2.9089
   11MOL0     H 1460  10.735   1.608   0.741 -2.7143  0.8841 -0.5162
   11MOL0     H 1461  10.817   1.465   0.471 -0.0871  1.4861 -0.1436
   11MOL0     H 1462  10.827   1.628   0.487 -0.7356 -0.2737 -0.3992
   11MOL0     H 1463  11.036   1.469   0.530  1.8549  0.5848  0.7602
   11MOL0     H 1464  10.968   1.436   0.685 -0.8748  0.1306 -0.5032
   11MOL0     H 1465  11.052   1.711   0.575 -0.1186 -0.7012 -0.2185
   11MOL0     H 1466  10.990   1.672   0.742  1.9371 -0.7856  1.7719
   11MOL0     H 1467  11.183   1.530   0.886 -1.4044 -0.9540 -0.3497
   11MOL0     H 1468  11.542   1.564   0.923  0.5421 -0.2528  1.1977
   11MOL0     H 1469  11.537   1.418   0.822  0.8732  1.0673 -0.8745
   11MOL0     H 1470  11.378   1.488   1.069 -0.4425  0.4037  0.1241
   11MOL0     H 1471  11.335   1.359   0.966  0.8696 -0.9236  0.9736
   11MOL0     H 1472  11.464   1.278   1.162  0.7710  0.3898 -0.0324
   11MOL0     H 1473  11.551   1.254   1.007 -3.8868  1.0102 -3.1990
   11MOL0     H 1474  11.689   1.456   1.075 -2.9810  0.6851 -1.4124
   11MOL0     H 1475  11.591   1.467   1.221 -0.5499  0.6313 -0.8674
   11MOL0     H 1476  11.859   1.122   1.317  3.4049 -0.2423 -2.1184
   11MOL0     H 1477  11.995   1.025   1.501  0.4286  0.7755 -0.6370
   11MOL0     H 1478  11.976   1.111   1.658 -2.8537 -4.0040 -0.9624
   11MOL0     H 1479  12.118   1.139   1.570 -0.9746 -1.0862  3.7109
   11MOL0     H 1480  12.359   1.608   1.679 -0.8025  1.5350  2.8304
   11MOL0     H 1481  12.537   1.582   1.837 -1.0798  0.7765 -0.2083
   11MOL0     H 1482  12.538   1.247   2.129  1.6195 -0.0528  1.2154
   11MOL0     H 1483  12.643   1.200   2.007  2.8837  0.4011  0.1223
   11MOL0     H 1484  12.833   1.308   2.103  0.2139 -0.3516  0.7481
   11MOL0     H 1485  12.743   1.379   2.230  1.4294  1.0209 -1.5128
   11MOL0     H 1486  12.749   1.083   2.208 -0.6107 -1.3662  1.3585
   11MOL0     H 1487  12.658   1.189   2.312 -0.2868  2.2285 -0.0734
   11MOL0     H 1488  12.899   1.276   2.384  0.1435  0.4678 -0.6356
   11MOL0     H 1489  12.969   1.160   2.273  0.3149  1.3015  0.8658
   11MOL0     H 1490  12.781   1.096   2.511 -1.6740 -1.2500 -0.7232
   11MOL0     H 1491  12.845   0.978   2.383  2.3001  1.9769 -2.7421
   11MOL0     H 1492  12.984   1.124   2.604 -0.5822 -2.2886  2.5716
   11MOL0     H 1493  13.085   1.061   2.464  2.3226  1.1238  1.6520
   11MOL0     H 1494  13.089   0.904   2.647 -1.4790  1.9137  1.4058
   11MOL0     H 1495  13.033   0.840   2.492 -2.6387 -0.5762 -1.3016
   11MOL0     H 1496  12.795   0.890   2.588 -0.7127 -1.0622 -0.7113
   11MOL0     H 1497  12.876   0.920   2.744  0.6294 -2.4411  0.8509
   11MOL0     H 1498  12.377   1.213   1.962  1.1104 -0.9951 -2.0531
   11MOL0     H 1499  12.196   1.244   1.800 -0.0940  0.7063 -0.2210
   11MOL0     H 1500  11.919   1.578   1.512  2.3758  0.7930 -3.3386
   11MOL0     H 1501  11.777   1.543   1.315  0.6780 -1.5024 -1.8544
   11MOL0     H 1502   9.975   1.321   0.622  2.9073  2.3804  0.3453
   11MOL0     H 1503   9.816   1.165   0.714 -0.8836  2.1958 -0.7132
   11MOL0     H 1504   9.541   1.020   1.049  1.6836  1.5426 -2.3026
   11MOL0     H 1505   9.355   0.911   1.053  0.6739  1.3368 -0.4124
   11MOL0     H 1506   9.106   0.647   0.967 -0.3359  1.1430 -3.4718
   11MOL0     H 1507   9.208   0.734   1.083  2.5604  1.5534  0.5166
   11MOL0     H 1508   9.083   0.810   0.818  0.1814 -4.8059  2.4772
   11MOL0     H 1509   9.191   0.933   0.879  0.9473 -0.6699  1.2986
   11MOL0     H 1510   8.953   0.974   0.910 -4.4064 -0.2688  1.6889
   11MOL0     H 1511   8.939   0.813   0.980 -0.4313  0.3877  0.3551
   11MOL0     H 1512   9.072   0.888   1.183 -0.4029 -1.3982  0.7517
   11MOL0     H 1513   8.935   0.986   1.173  1.2438 -0.2041  0.0207
   11MOL0     H 1514   9.243   1.269   1.135  1.7421 -1.1821  0.9920
   11MOL0     H 1515   9.513   0.593   0.806  1.6596  0.2456  0.8812
   11MOL0     H 1516   9.847   0.682   0.838 -0.8792  0.8568  0.9765
   11MOL0     H 1517   9.732   0.579   0.749  1.9957 -0.3941  0.0403
   11MOL0     H 1518   9.775   0.729   0.684  0.0585  0.6575 -0.5609
   12MOL0     O 1519   1.317   9.636   7.442 -0.3002  0.1017 -0.0612
   12MOL0     C 1520   1.271   9.696   7.345  0.3658  0.0549 -0.2114
   12MOL0     O 1521   1.326   9.697   7.223 -0.4893  0.2465  0.4596
   12MOL0     C 1522   1.469   9.692   7.222 -1.0998  0.4403 -0.3112
   12MOL0     C 1523   1.538   9.806   7.184  0.4139 -0.3929 -0.3405
   12MOL0     C 1524   1.677   9.821   7.180 -1.0169 -0.5825 -0.9742
   12MOL0     C 1525   1.747   9.704   7.214  0.3369 -0.5186 -0.0265
   12MOL0     O 1526   1.885   9.709   7.207 -0.1080 -0.4334 -0.5074
   12MOL0     C 1527   1.944   9.684   7.336 -0.1074  0.1470 -0.2087
   12MOL0     C 1528   2.095   9.677   7.327  0.3693 -0.4108 -0.3154
   12MOL0     C 1529   2.153   9.545   7.264 -0.6484  0.2683  0.3450
   12MOL0     C 1530   2.303   9.526   7.273 -0.0442  0.0776 -0.3472
   12MOL0     C 1531   2.349   9.391   7.212 -0.1164 -0.1281 -0.4246
   12MOL0     C 1532   2.501   9.344   7.221  1.0451  0.0829 -0.1737
   12MOL0     C 1533   2.597   9.429   7.136  0.1994  0.6533 -0.2205
   12MOL0     C 1534   2.716   9.475   7.222 -0.1130  0.2154  0.1494
   12MOL0     N 1535   2.682   9.574   7.319 -0.1658  0.2289 -0.3261
   12MOL0     C 1536   2.625   9.698   7.295  0.5768  0.2893  0.4669
   12MOL0     C 1537   2.617   9.757   7.420 -0.1968  0.5900  0.0429
   12MOL0     C 1538   2.584   9.897   7.459 -0.0285  0.4467 -0.1644
   12MOL0     C 1539   2.711   9.984   7.452 -0.1333 -0.0624  1.2247
   12MOL0     C 1540   2.747  10.016   7.303  1.6627 -0.4616  0.2840
   12MOL0     C 1541   2.874  10.097   7.279 -0.1582 -0.0769 -0.2043
   12MOL0     O 1542   2.920  10.101   7.146  0.1649  0.7845  0.1165
   12MOL0     C 1543   3.028  10.174   7.109 -0.4678  0.4023 -0.2699
   12MOL0     C 1544   3.118  10.236   7.201 -0.3699  0.9133  0.7862
   12MOL0     C 1545   3.232  10.299   7.169  0.2031  0.7505 -0.7873
   12MOL0     C 1546   3.304  10.346   7.289 -0.4966 -0.0708  0.7252
   12MOL0     C 1547   3.273  10.310   7.031  0.7522 -0.6105 -0.6938
   12MOL0     C 1548   3.401  10.362   6.994  0.3639 -0.5297  0.8132
   12MOL0     O 1549   3.399  10.397   6.870  0.6039  0.1883 -0.1783
   12MOL0     C 1550   3.518  10.419   6.813 -0.4908 -0.2589 -0.2460
   12MOL0     C 1551   3.559  10.549   6.778 -0.1236 -0.4758 -0.5749
   12MOL0     C 1552   3.667  10.574   6.699 -0.4613 -0.2302 -1.0294
   12MOL0     C 1553   3.752  10.470   6.660  0.0041  0.5318 -0.1284
   12MOL0     O 1554   3.880  10.487   6.600  0.4184 -0.1699 -0.4090
   12MOL0     C 1555   3.898  10.610   6.523 -0.3331  0.6054  0.2121
   12MOL0     C 1556   4.030  10.617   6.443  0.3633  0.1120  0.4933
   12MOL0     C 1557   4.053  10.740   6.354  0.4643  0.0459 -0.1609
   12MOL0     C 1558   4.093  10.870   6.434 -0.3394 -0.4696  0.4039
   12MOL0     C 1559   4.108  10.989   6.339 -0.1534 -0.1863 -0.4580
   12MOL0     C 1560   4.191  11.101   6.408  0.7672  0.3759  0.6380
   12MOL0     C 1561   4.179  11.226   6.317 -0.3798  1.0069 -0.7483
   12MOL0     C 1562   4.301  11.318   6.343  0.5397  0.1593 -0.3976
   12MOL0    Cl 1563   4.467  11.254   6.334  0.2394  0.3353  0.3249
   12MOL0     C 1564   3.719  10.334   6.701 -0.5083 -0.6840  0.1046
   12MOL0     C 1565   3.602  10.313   6.772 -0.8171  0.0331 -0.4610
   12MOL0     O 1566   3.499  10.365   7.065 -0.1264 -0.1182 -0.0795
   12MOL0     C 1567   3.181  10.258   6.937 -0.8434 -0.0331 -1.0118
   12MOL0     C 1568   3.061  10.193   6.976 -0.2105 -0.5504  0.1714
   12MOL0     N 1569   2.659   9.669   7.516  0.5411 -0.0130 -0.1642
   12MOL0     N 1570   2.685   9.559   7.460  0.3727  1.2284 -0.0713
   12MOL0     C 1571   1.681   9.585   7.248 -0.0299  0.8082 -0.2056
   12MOL0     C 1572   1.542   9.578   7.260 -0.9210  1.0020 -0.0333
   12MOL0     C 1573   1.134   9.758   7.369  0.1933  0.7307  1.0314
   12MOL0     C 1574   1.066   9.805   7.249 -0.2242 -0.2929  0.0090
   12MOL0     C 1575   0.942   9.868   7.265  1.0231  0.4086  0.0749
   12MOL0     C 1576   0.888   9.902   7.392 -1.0828 -0.3597 -0.1701
   12MOL0     O 1577   0.775   9.978   7.374  0.2919 -0.6841  0.7849
   12MOL0     C 1578   0.719  10.032   7.499 -0.4337  0.4197 -0.1494
   12MOL0     C 1579   0.586  10.113   7.479 -0.8077  0.4343  0.5026
   12MOL0     C 1580   0.540  10.182   7.605  0.2501  0.7901 -1.0101
   12MOL0     C 1581   0.570  10.333   7.612  0.4332 -0.6023  0.5255
   12MOL0     C 1582   0.487  10.409   7.517 -1.0022 -0.1954 -0.4618
   12MOL0     C 1583   0.408  10.459   7.436  0.0908  0.4929  0.9456
   12MOL0     C 1584   0.960   9.866   7.508  0.4736  0.0613 -0.9360
   12MOL0     C 1585   1.076   9.786   7.497  0.6870  0.3361 -0.0895
   12MOL0     C 1586   1.131   9.743   7.635 -0.6248  0.6438  0.4345
   12MOL0     H 1587   1.473   9.891   7.165  0.3615 -0.4784 -0.5502
   12MOL0     H 1588   1.733   9.908   7.147  2.5568 -1.6629  1.5762
   12MOL0     H 1589   1.908   9.586   7.370 -1.4023  0.9488  0.8624
   12MOL0     H 1590   1.912   9.755   7.414  3.1191 -0.2067  1.6227
   12MOL0     H 1591   2.134   9.757   7.264 -2.4769  0.8876 -0.5851
   12MOL0     H 1592   2.134   9.680   7.429  0.1222 -0.4220 -0.2186
   12MOL0     H 1593   2.101   9.461   7.311 -1.6248  1.9852  2.5409
   12MOL0     H 1594   2.120   9.549   7.160  2.2096 -1.0941 -0.7253
   12MOL0     H 1595   2.354   9.611   7.227  0.6440  0.2111  0.6387
   12MOL0     H 1596   2.329   9.527   7.379 -3.2126 -0.0887  0.5592
   12MOL0     H 1597   2.320   9.392   7.107 -1.1916  0.2196 -0.1385
   12MOL0     H 1598   2.290   9.311   7.257  1.5609  0.9177  4.2635
   12MOL0     H 1599   2.529   9.332   7.326 -2.1242 -1.6410  0.5963
   12MOL0     H 1600   2.491   9.243   7.180  0.6636 -0.7135  1.7609
   12MOL0     H 1601   2.538   9.513   7.097 -1.5436 -1.0702 -1.4298
   12MOL0     H 1602   2.629   9.374   7.047 -0.2282  1.5144 -0.9276
   12MOL0     H 1603   2.758   9.388   7.275 -3.7373 -2.3437 -0.8194
   12MOL0     H 1604   2.786   9.516   7.149  2.0524 -1.6821  1.0429
   12MOL0     H 1605   2.607   9.741   7.197  2.2802 -3.4272 -1.7056
   12MOL0     H 1606   2.536   9.899   7.557 -0.7284 -0.5595 -0.4704
   12MOL0     H 1607   2.513   9.939   7.387  2.1071 -1.5980 -3.7649
   12MOL0     H 1608   2.698  10.080   7.503 -0.5793  0.5928 -0.0876
   12MOL0     H 1609   2.788   9.921   7.498  0.8872 -0.5951 -1.1132
   12MOL0     H 1610   2.747   9.923   7.245  0.7764  0.2384 -0.8885
   12MOL0     H 1611   2.667  10.081   7.265  1.8766 -2.5345 -4.4455
   12MOL0     H 1612   2.858  10.198   7.317 -0.3429 -0.1855  0.0090
   12MOL0     H 1613   2.951  10.056   7.346  0.2021  2.3395  0.9717
   12MOL0     H 1614   3.100  10.228   7.308  4.2635 -0.7681  1.6495
   12MOL0     H 1615   3.412  10.330   7.280  0.0718  2.3961  2.3162
   12MOL0     H 1616   3.277  10.289   7.379  0.1739 -1.4685  0.0790
   12MOL0     H 1617   3.297  10.453   7.308 -0.9035  0.6264 -2.7910
   12MOL0     H 1618   3.497  10.634   6.805 -3.5163 -2.0818 -2.7002
   12MOL0     H 1619   3.681  10.678   6.674  2.3326 -1.2555 -4.5255
   12MOL0     H 1620   3.821  10.609   6.445  1.1598 -1.6081 -1.4005
   12MOL0     H 1621   3.892  10.704   6.577 -0.9227 -0.2647  1.7135
   12MOL0     H 1622   4.105  10.614   6.524 -1.7350  3.4716  2.8207
   12MOL0     H 1623   4.038  10.522   6.390  1.2405 -0.4806  1.6106
   12MOL0     H 1624   3.958  10.772   6.311  0.9607  0.5594 -0.9044
   12MOL0     H 1625   4.133  10.702   6.291  0.6297 -0.7429  0.5092
   12MOL0     H 1626   4.181  10.861   6.498  1.7107 -0.9043 -2.2665
   12MOL0     H 1627   4.012  10.897   6.502  0.7773  4.0207  0.2382
   12MOL0     H 1628   4.154  10.958   6.244  1.1091  0.1791  0.0141
   12MOL0     H 1629   4.014  11.034   6.307  0.0837 -1.3721 -3.0728
   12MOL0     H 1630   4.296  11.075   6.424  0.7851  0.8685  1.3389
   12MOL0     H 1631   4.148  11.113   6.508  0.0083 -1.3001  0.5656
   12MOL0     H 1632   4.090  11.280   6.350 -1.1613  0.8148 -2.4325
   12MOL0     H 1633   4.173  11.199   6.211 -1.4077 -1.5716 -0.1170
   12MOL0     H 1634   4.299  11.355   6.446 -2.1601 -0.3734 -0.1755
   12MOL0     H 1635   4.302  11.399   6.271  1.8163 -0.0442 -0.6308
   12MOL0     H 1636   3.787  10.254   6.674 -0.0236 -0.9252  1.9272
   12MOL0     H 1637   3.572  10.212   6.799 -0.6034  0.2612  0.7145
   12MOL0     H 1638   3.211  10.272   6.833  0.6310  0.7071 -0.5101
   12MOL0     H 1639   2.989  10.151   6.906 -0.1803 -1.7248  0.8212
   12MOL0     H 1640   1.742   9.503   7.284 -0.4039  2.1063  4.0021
   12MOL0     H 1641   1.493   9.488   7.296  2.2383 -0.6048  0.6382
   12MOL0     H 1642   1.110   9.780   7.152 -3.4930  0.1623 -1.7124
   12MOL0     H 1643   0.879   9.885   7.179 -0.2542  1.8495  1.2398
   12MOL0     H 1644   0.705   9.950   7.571 -0.4261 -0.1456 -0.7886
   12MOL0     H 1645   0.798  10.096   7.539  0.9615 -1.0294 -0.4800
   12MOL0     H 1646   0.505  10.053   7.438  0.5035  1.8410 -5.0608
   12MOL0     H 1647   0.593  10.184   7.396 -0.8671  2.5996  2.2300
   12MOL0     H 1648   0.433  10.174   7.626  0.9467 -0.1702  3.0077
   12MOL0     H 1649   0.585  10.140   7.695  0.8123  2.2825 -0.5744
   12MOL0     H 1650   0.678  10.352   7.603  0.1844 -0.3113 -3.9240
   12MOL0     H 1651   0.548  10.368   7.713  0.4006 -3.4463  1.5959
   12MOL0     H 1652   0.341  10.508   7.368  0.7699 -0.4038 -0.4144
   12MOL0     H 1653   0.937   9.895   7.610  0.0519 -0.8593 -0.7580
   12MOL0     H 1654   1.153   9.636   7.625  3.5157  1.5734 -4.5517
   12MOL0     H 1655   1.226   9.796   7.647  0.3995 -0.5374 -1.8321
   12MOL0     H 1656   1.060   9.763   7.716 -1.5577 -1.6145  0.2401
   13MOL0     O 1657   1.283   3.586   6.564  0.5322  0.4321 -0.8673
   13MOL0     C 1658   1.204   3.664   6.505 -0.2393 -0.9977  0.1303
   13MOL0     O 1659   1.240   3.793   6.456  0.0096  0.4348 -0.1423
   13MOL0     C 1660   1.368   3.841   6.485  0.1709 -1.0585  0.7217
   13MOL0     C 1661   1.441   3.903   6.376 -0.2247  0.9685  0.3053
   13MOL0     C 1662   1.570   3.969   6.401 -0.1057  0.5721  0.2999
   13MOL0     C 1663   1.629   3.956   6.531 -0.2488 -0.6723  0.9651
   13MOL0     O 1664   1.756   3.998   6.544  0.3904  0.5179 -0.6850
   13MOL0     C 1665   1.833   3.966   6.670  0.7240 -0.3464  0.2604
   13MOL0     C 1666   1.968   4.012   6.639 -1.2991 -0.3568  0.6524
   13MOL0     C 1667   2.044   3.919   6.541  0.4856 -0.1293 -0.3622
   13MOL0     C 1668   2.162   3.849   6.597 -0.8777 -0.3902 -0.6040
   13MOL0     C 1669   2.111   3.764   6.712  0.0464 -0.2224  0.6653
   13MOL0     C 1670   2.197   3.638   6.745  0.5917 -0.1591 -0.1188
   13MOL0     C 1671   2.338   3.661   6.797 -0.7573 -0.3599 -0.2125
   13MOL0     C 1672   2.417   3.550   6.867 -0.0690 -0.1182  0.3831
   13MOL0     N 1673   2.554   3.581   6.896 -0.6435 -0.3026  0.7532
   13MOL0     C 1674   2.651   3.488   6.921  0.3237 -0.7686 -0.2385
   13MOL0     C 1675   2.761   3.561   6.974 -0.0090  0.8240 -0.8800
   13MOL0     C 1676   2.901   3.506   7.009  0.8699 -0.9111 -0.6030
   13MOL0     C 1677   2.969   3.430   6.888 -0.5710  0.3042 -0.5770
   13MOL0     C 1678   3.099   3.376   6.938 -0.1765 -0.0918  0.2193
   13MOL0     C 1679   3.189   3.476   7.009 -0.5195 -0.1462  0.0769
   13MOL0     O 1680   3.292   3.397   7.058 -0.1118 -0.1166  0.4720
   13MOL0     C 1681   3.391   3.463   7.130 -0.7054 -0.2867 -1.2856
   13MOL0     C 1682   3.443   3.401   7.245  0.4746 -0.0553  0.4961
   13MOL0     C 1683   3.531   3.464   7.332 -0.0820 -0.0893 -0.1728
   13MOL0     C 1684   3.586   3.379   7.441  0.0260  0.0329  0.0738
   13MOL0     C 1685   3.569   3.600   7.303  1.0109  0.8871 -0.7918
   13MOL0     C 1686   3.643   3.679   7.393 -0.7875 -0.7215 -0.7040
   13MOL0     O 1687   3.636   3.659   7.523 -0.0814 -0.3044 -0.2661
   13MOL0     C 1688   3.736   3.713   7.602  0.1599  0.5789 -0.0570
   13MOL0     C 1689   3.750   3.847   7.634  0.1731 -0.0774 -0.9264
   13MOL0     C 1690   3.863   3.900   7.705  0.7969 -0.6829 -0.4295
   13MOL0     C 1691   3.954   3.811   7.750  1.0469  0.4249  0.8884
   13MOL0     O 1692   4.064   3.846   7.804 -0.5266 -0.7835 -0.0417
   13MOL0     C 1693   4.071   3.972   7.877 -0.1304 -0.2570  0.1942
   13MOL0     C 1694   4.203   4.001   7.945  0.8456  0.2705  0.2061
   13MOL0     C 1695   4.320   4.008   7.847  0.5104  0.9456  0.0077
   13MOL0     C 1696   4.457   4.012   7.909  0.3345 -0.1213 -0.2121
   13MOL0     C 1697   4.481   4.138   7.999  0.6341 -0.3784 -0.1367
   13MOL0     C 1698   4.626   4.143   8.049 -0.1483  0.1584  0.2006
   13MOL0     C 1699   4.666   4.285   8.099 -0.2212  0.3483 -0.6929
   13MOL0     C 1700   4.683   4.394   7.995 -0.9067  0.2214  0.2751
   13MOL0    Cl 1701   4.814   4.347   7.878  0.1707  0.2752  0.2090
   13MOL0     C 1702   3.944   3.673   7.718  0.0614  0.4054 -0.3782
   13MOL0     C 1703   3.840   3.627   7.645  0.4620  0.1208 -0.3029
   13MOL0     O 1704   3.721   3.757   7.343  1.0780  0.8896  0.0032
   13MOL0     C 1705   3.517   3.666   7.191 -0.2775 -0.6968  0.4723
   13MOL0     C 1706   3.432   3.602   7.104  1.1341  0.1962 -0.2802
   13MOL0     N 1707   2.728   3.694   6.976  1.4390  0.8682  0.8795
   13MOL0     N 1708   2.602   3.702   6.930 -0.0156  0.0562 -0.5958
   13MOL0     C 1709   1.551   3.897   6.632  0.8558 -0.8856 -0.1706
   13MOL0     C 1710   1.424   3.840   6.616 -0.3126 -0.2153  0.3330
   13MOL0     C 1711   1.072   3.607   6.457 -0.2093 -0.0429  0.1791
   13MOL0     C 1712   1.011   3.685   6.354  0.2481  0.2738  0.3758
   13MOL0     C 1713   0.891   3.652   6.302 -0.6433 -0.2660  0.4981
   13MOL0     C 1714   0.821   3.534   6.330  0.3376 -0.7790  0.2779
   13MOL0     O 1715   0.712   3.516   6.242  0.4288 -0.5956 -0.3962
   13MOL0     C 1716   0.624   3.425   6.304  1.6097 -0.0350  0.6212
   13MOL0     C 1717   0.498   3.432   6.213 -0.0612 -0.5841 -0.4728
   13MOL0     C 1718   0.370   3.369   6.269  0.0109  0.2409  0.5067
   13MOL0     C 1719   0.246   3.389   6.176 -0.1014 -0.2141 -0.0929
   13MOL0     C 1720   0.124   3.376   6.248 -0.0401  0.0954  0.0746
   13MOL0     C 1721   0.025   3.382   6.316 -0.0559 -0.3835  0.3506
   13MOL0     C 1722   0.883   3.449   6.419  0.6673 -0.7328 -0.9499
   13MOL0     C 1723   1.004   3.478   6.488  0.0294 -1.1433  1.3654
   13MOL0     C 1724   1.070   3.385   6.583  0.9413 -0.0500  0.0945
   13MOL0     H 1725   1.393   3.903   6.279 -1.4443 -1.4596  0.8423
   13MOL0     H 1726   1.623   4.010   6.316 -2.6476  0.5307 -1.3990
   13MOL0     H 1727   1.830   3.859   6.692  0.3188 -0.8199 -1.9052
   13MOL0     H 1728   1.797   4.026   6.755  1.2822  1.7981 -0.9582
   13MOL0     H 1729   1.979   4.115   6.605  0.2662 -0.8029 -0.3455
   13MOL0     H 1730   2.030   4.020   6.729 -0.3572  0.6999 -0.0536
   13MOL0     H 1731   1.975   3.843   6.503  1.1348 -1.1822  0.5080
   13MOL0     H 1732   2.074   3.978   6.453  0.7484  0.6543  0.2450
   13MOL0     H 1733   2.202   3.778   6.525  0.5454  1.0587 -1.3063
   13MOL0     H 1734   2.243   3.913   6.632 -1.6443  1.5518 -2.1707
   13MOL0     H 1735   2.012   3.722   6.689 -0.5991  1.3684  0.3936
   13MOL0     H 1736   2.099   3.837   6.794  0.2761  0.6048 -0.0205
   13MOL0     H 1737   2.151   3.587   6.830 -1.4444  1.5577 -0.0904
   13MOL0     H 1738   2.200   3.577   6.654 -1.0825  1.7815 -1.5752
   13MOL0     H 1739   2.328   3.741   6.871  2.0092 -0.5599  0.4948
   13MOL0     H 1740   2.402   3.701   6.717 -0.6830 -2.4730 -1.2601
   13MOL0     H 1741   2.365   3.515   6.957  2.1210 -4.4218  0.2495
   13MOL0     H 1742   2.416   3.464   6.799  2.3175  0.2329 -0.1907
   13MOL0     H 1743   2.644   3.382   6.902  0.9605 -0.8907  0.1870
   13MOL0     H 1744   2.893   3.432   7.090 -0.6253 -1.1188 -0.9051
   13MOL0     H 1745   2.951   3.597   7.043  0.9009  0.0232 -2.9944
   13MOL0     H 1746   2.888   3.363   6.856 -0.9272  0.2524  0.3828
   13MOL0     H 1747   2.996   3.506   6.814  0.9848 -0.9313 -1.3189
   13MOL0     H 1748   3.073   3.298   7.010 -0.2892  0.2724  0.5771
   13MOL0     H 1749   3.151   3.310   6.869  0.5526 -0.1787  0.8327
   13MOL0     H 1750   3.223   3.555   6.942 -1.8038  2.7684  2.6119
   13MOL0     H 1751   3.133   3.517   7.095 -1.4127 -0.5245 -0.3100
   13MOL0     H 1752   3.431   3.294   7.260  0.6706 -0.2757 -0.8032
   13MOL0     H 1753   3.506   3.357   7.513  1.0868  1.9518  1.9325
   13MOL0     H 1754   3.658   3.425   7.508 -0.2943  1.7476 -0.7223
   13MOL0     H 1755   3.625   3.284   7.403  0.1254 -0.0167  0.3014
   13MOL0     H 1756   3.679   3.921   7.598  0.0851  0.0999 -0.4035
   13MOL0     H 1757   3.871   4.008   7.713 -2.4988 -0.4031  0.3889
   13MOL0     H 1758   4.058   4.062   7.816 -0.1555 -1.4241 -1.6079
   13MOL0     H 1759   3.984   3.981   7.942 -1.8003  2.6776 -2.1599
   13MOL0     H 1760   4.176   4.096   7.993 -0.3560  0.5737 -0.9955
   13MOL0     H 1761   4.225   3.920   8.016 -4.3537 -2.8923 -1.1868
   13MOL0     H 1762   4.310   4.093   7.779 -0.1641 -0.8600 -2.2791
   13MOL0     H 1763   4.319   3.919   7.783  1.2263  1.1241 -0.2582
   13MOL0     H 1764   4.535   4.007   7.833  2.3326 -4.7750  1.7631
   13MOL0     H 1765   4.475   3.924   7.971 -1.2105 -0.2878  0.0312
   13MOL0     H 1766   4.459   4.233   7.950 -1.6660 -0.6341  0.2796
   13MOL0     H 1767   4.410   4.147   8.081  0.4885 -1.3157 -0.1527
   13MOL0     H 1768   4.691   4.103   7.971 -2.2384 -0.3604 -1.3810
   13MOL0     H 1769   4.637   4.062   8.122  2.4208 -1.1254 -1.4611
   13MOL0     H 1770   4.753   4.283   8.166 -2.4379 -4.6601  2.5641
   13MOL0     H 1771   4.585   4.309   8.168 -0.2819 -1.1547 -0.2207
   13MOL0     H 1772   4.722   4.483   8.045 -3.4347  0.8706  1.2667
   13MOL0     H 1773   4.590   4.413   7.941 -0.0062 -2.6432 -2.5640
   13MOL0     H 1774   4.024   3.604   7.745  0.6998  0.6891 -1.4912
   13MOL0     H 1775   3.837   3.521   7.622 -0.7350 -0.1473  0.9997
   13MOL0     H 1776   3.548   3.768   7.168 -0.1036 -0.9044 -0.2288
   13MOL0     H 1777   3.388   3.658   7.022  2.5304  2.3358  0.3386
   13MOL0     H 1778   1.596   3.878   6.729  2.0229  1.8800 -0.0730
   13MOL0     H 1779   1.354   3.802   6.690 -2.3767  0.8187 -0.9750
   13MOL0     H 1780   1.054   3.777   6.314 -0.2852  1.2136  1.8689
   13MOL0     H 1781   0.855   3.720   6.226 -0.0537 -1.4021 -0.8383
   13MOL0     H 1782   0.666   3.325   6.290  0.8192 -0.1211 -1.5674
   13MOL0     H 1783   0.617   3.451   6.410 -0.7557 -0.5543  0.6543
   13MOL0     H 1784   0.532   3.402   6.113 -1.0344 -0.0622 -0.9769
   13MOL0     H 1785   0.464   3.535   6.206 -0.2225 -0.6655 -0.9432
   13MOL0     H 1786   0.385   3.262   6.290  0.3896  0.2446  0.2489
   13MOL0     H 1787   0.348   3.421   6.363  2.2854  0.6910  0.8390
   13MOL0     H 1788   0.250   3.307   6.103  4.3028 -1.4495  1.2450
   13MOL0     H 1789   0.251   3.489   6.132  0.8972  1.0395  2.6488
   13MOL0     H 1790  -0.070   3.382   6.364 -0.6686  2.9002 -0.5973
   13MOL0     H 1791   0.830   3.359   6.449 -1.2225  0.5929 -0.0854
   13MOL0     H 1792   1.159   3.338   6.540  2.3213  0.5995  2.0696
   13MOL0     H 1793   1.101   3.442   6.672 -0.0659  0.1409  0.3389
   13MOL0     H 1794   0.996   3.309   6.609 -0.3273  0.9710 -0.4186
   14MOL0     O 1795  10.431   4.556   8.631  0.2075 -0.0143 -0.9248
   14MOL0     C 1796  10.423   4.484   8.531 -0.2880  0.7628  0.8049
   14MOL0     O 1797  10.524   4.401   8.493  0.1575  0.0259  0.7146
   14MOL0     C 1798  10.659   4.405   8.530  0.3584  0.0139  0.1536
   14MOL0     C 1799  10.707   4.439   8.659  0.1793  0.5028  0.5619
   14MOL0     C 1800  10.839   4.454   8.684 -1.4952 -0.0460 -0.3861
   14MOL0     C 1801  10.939   4.415   8.582  0.4094 -0.1236 -0.2040
   14MOL0     O 1802  11.070   4.416   8.599 -0.3443 -0.2062  0.0984
   14MOL0     C 1803  11.128   4.499   8.708  1.0599 -0.1167 -0.6961
   14MOL0     C 1804  11.270   4.540   8.678  0.3784 -0.0696  0.2181
   14MOL0     C 1805  11.367   4.420   8.662  0.2304 -0.5936 -1.4650
   14MOL0     C 1806  11.517   4.466   8.651 -0.2927  0.5069 -0.4186
   14MOL0     C 1807  11.615   4.346   8.662  0.3030  0.0717 -0.1299
   14MOL0     C 1808  11.765   4.372   8.694 -0.2267  0.1379 -0.5810
   14MOL0     C 1809  11.832   4.239   8.712  0.4178  0.1620 -0.3091
   14MOL0     C 1810  11.972   4.237   8.777  0.8116 -0.1274  0.3387
   14MOL0     N 1811  12.065   4.319   8.698 -0.1618 -0.3010  0.2219
   14MOL0     C 1812  12.118   4.300   8.575  0.8719 -0.4921  0.2931
   14MOL0     C 1813  12.200   4.399   8.555 -1.1074  0.0802 -0.1124
   14MOL0     C 1814  12.264   4.436   8.419  0.3542 -0.3222  0.2475
   14MOL0     C 1815  12.410   4.492   8.442 -0.1246 -0.1210 -0.6921
   14MOL0     C 1816  12.479   4.525   8.315  0.0403  0.0352 -0.2793
   14MOL0     C 1817  12.629   4.560   8.320  0.0903  0.2307 -0.3363
   14MOL0     O 1818  12.669   4.622   8.200  0.0566 -0.4219 -0.2354
   14MOL0     C 1819  12.790   4.675   8.186  0.7992 -0.9317  0.2867
   14MOL0     C 1820  12.887   4.682   8.287  0.0507  0.2408  0.3665
   14MOL0     C 1821  13.011   4.743   8.263 -0.0988  0.3889  0.5911
   14MOL0     C 1822  13.107   4.726   8.386 -0.2714  0.1194 -0.1960
   14MOL0     C 1823  13.034   4.819   8.147 -0.4350  0.1785 -0.6572
   14MOL0     C 1824  13.154   4.896   8.120 -0.9017  0.1276 -0.6010
   14MOL0     O 1825  13.265   4.825   8.105 -0.5963 -0.6096 -0.1924
   14MOL0     C 1826  13.385   4.877   8.138 -0.0498 -0.1786  0.2096
   14MOL0     C 1827  13.395   4.968   8.250 -0.1622  0.4135 -1.0160
   14MOL0     C 1828  13.523   5.018   8.290  0.4852 -0.8825  0.5719
   14MOL0     C 1829  13.642   4.973   8.228  0.3461 -1.1262 -1.0013
   14MOL0     O 1830  13.766   5.005   8.280 -0.3129  0.5212  0.3789
   14MOL0     C 1831  13.856   5.068   8.186 -0.2434 -0.1652 -0.5044
   14MOL0     C 1832  13.895   5.204   8.235 -0.5682 -0.1152 -0.4722
   14MOL0     C 1833  13.931   5.205   8.383  0.4951  0.8593 -0.5726
   14MOL0     C 1834  13.943   5.353   8.441 -0.2715 -0.1660 -0.2927
   14MOL0     C 1835  14.001   5.352   8.581  0.0651 -0.5259  0.9905
   14MOL0     C 1836  14.155   5.367   8.589 -0.3849  0.1175  0.0063
   14MOL0     C 1837  14.197   5.337   8.731 -0.7147 -1.4977  0.3099
   14MOL0     C 1838  14.341   5.357   8.741 -0.3875 -0.7355  0.0620
   14MOL0    Cl 1839  14.406   5.311   8.897  0.5652 -0.3581 -0.1577
   14MOL0     C 1840  13.630   4.884   8.121  0.1150 -0.2201 -0.6413
   14MOL0     C 1841  13.504   4.839   8.074  0.8283  0.6496  0.3684
   14MOL0     O 1842  13.149   5.010   8.096  0.0779 -0.3051  0.0858
   14MOL0     C 1843  12.935   4.817   8.056 -0.2982  0.3449 -0.0763
   14MOL0     C 1844  12.810   4.748   8.072  0.1973  0.7059  0.4356
   14MOL0     N 1845  12.196   4.479   8.666 -0.0413  0.3200 -0.1668
   14MOL0     N 1846  12.126   4.425   8.756 -0.6670 -0.3663  0.6323
   14MOL0     C 1847  10.882   4.372   8.460 -0.5441  0.1372  0.2350
   14MOL0     C 1848  10.745   4.373   8.429 -0.1564 -0.8563 -0.5317
   14MOL0     C 1849  10.291   4.469   8.464 -1.1515 -1.3260  0.8864
   14MOL0     C 1850  10.297   4.423   8.331 -0.1388  0.0375 -0.3477
   14MOL0     C 1851  10.176   4.420   8.256  0.5616 -0.1816 -0.0016
   14MOL0     C 1852  10.057   4.470   8.307 -0.1799 -0.3904 -0.1118
   14MOL0     O 1853   9.949   4.467   8.225  1.3998 -0.7806  0.4205
   14MOL0     C 1854   9.837   4.547   8.252  0.2991 -1.0570  0.4719
   14MOL0     C 1855   9.744   4.543   8.129 -0.1336  0.0396 -0.3509
   14MOL0     C 1856   9.690   4.410   8.076 -0.5834 -0.2211  0.2601
   14MOL0     C 1857   9.619   4.431   7.942  0.0139 -0.2797  0.2107
   14MOL0     C 1858   9.696   4.447   7.818  0.0471  1.1956 -0.9288
   14MOL0     C 1859   9.788   4.452   7.648 -0.0397 -0.3063 -0.1776
   14MOL0     C 1860  10.059   4.513   8.439  0.4736 -0.0483 -0.4662
   14MOL0     C 1861  10.176   4.520   8.514  0.2668 -0.1206 -0.7274
   14MOL0     C 1862  10.159   4.588   8.640 -0.1379 -0.3865  0.1515
   14MOL0     H 1863  10.636   4.466   8.737  0.0704  1.0501  0.2760
   14MOL0     H 1864  10.876   4.498   8.776  0.6866 -2.7655  0.1769
   14MOL0     H 1865  11.132   4.438   8.799  3.6989 -1.5757 -1.6954
   14MOL0     H 1866  11.075   4.593   8.723 -1.1019 -0.9474 -2.5946
   14MOL0     H 1867  11.255   4.603   8.590 -2.9182 -1.8289 -0.6460
   14MOL0     H 1868  11.299   4.602   8.764 -2.5617  2.5709 -0.4798
   14MOL0     H 1869  11.354   4.371   8.759 -2.4828  0.3120 -1.2992
   14MOL0     H 1870  11.328   4.352   8.585 -4.2409  0.3835 -0.3740
   14MOL0     H 1871  11.525   4.516   8.555 -0.3342  3.5436  1.0417
   14MOL0     H 1872  11.535   4.549   8.720 -0.5154  0.9229 -0.8561
   14MOL0     H 1873  11.610   4.294   8.567  0.8032 -2.5711  1.2005
   14MOL0     H 1874  11.578   4.275   8.737  1.4835  0.3047  0.6966
   14MOL0     H 1875  11.824   4.428   8.620  1.3929  0.5941  0.9963
   14MOL0     H 1876  11.774   4.442   8.777 -1.4744  0.5698 -0.7862
   14MOL0     H 1877  11.831   4.181   8.619  2.9305  0.6876 -0.7461
   14MOL0     H 1878  11.774   4.181   8.784  2.2901  0.3067  1.3921
   14MOL0     H 1879  11.962   4.287   8.875 -1.2342  2.5036 -1.0596
   14MOL0     H 1880  12.006   4.134   8.782  0.6783 -0.1317  3.1028
   14MOL0     H 1881  12.087   4.235   8.494  1.6854  0.3635 -0.7616
   14MOL0     H 1882  12.211   4.517   8.368  1.3511  0.7795  0.8980
   14MOL0     H 1883  12.275   4.350   8.353 -1.7464 -1.0886  0.8108
   14MOL0     H 1884  12.405   4.581   8.505 -0.2784 -0.9260  0.4638
   14MOL0     H 1885  12.466   4.408   8.484 -2.1216  0.3377  3.3286
   14MOL0     H 1886  12.476   4.437   8.249 -0.4069 -0.4044  0.3177
   14MOL0     H 1887  12.431   4.614   8.274 -0.7865 -0.4406 -0.3807
   14MOL0     H 1888  12.648   4.623   8.407 -1.5272  1.8576 -1.0999
   14MOL0     H 1889  12.682   4.465   8.333  0.0212 -0.1836 -2.7137
   14MOL0     H 1890  12.877   4.640   8.386  2.6906 -0.5131  0.4057
   14MOL0     H 1891  13.103   4.805   8.462 -1.6375 -1.1033  1.0626
   14MOL0     H 1892  13.209   4.731   8.348 -0.2231  0.8941  0.0117
   14MOL0     H 1893  13.089   4.628   8.430 -1.0601 -0.5065 -1.8160
   14MOL0     H 1894  13.309   5.000   8.307  0.4839 -2.3499  1.7975
   14MOL0     H 1895  13.529   5.100   8.361 -1.5730  1.2747 -1.5372
   14MOL0     H 1896  13.943   5.002   8.176  1.2246  1.6747 -0.3283
   14MOL0     H 1897  13.822   5.078   8.083 -0.5491  2.4005 -0.2157
   14MOL0     H 1898  13.980   5.247   8.182 -1.3091  0.2071 -1.4137
   14MOL0     H 1899  13.811   5.273   8.224 -2.6027 -2.4798 -0.4453
   14MOL0     H 1900  14.020   5.143   8.401 -1.8642 -2.4672  0.7311
   14MOL0     H 1901  13.854   5.156   8.444  0.8113  3.7452  2.4856
   14MOL0     H 1902  13.841   5.394   8.440 -0.9859 -1.8769 -0.7119
   14MOL0     H 1903  13.993   5.411   8.363 -2.1592 -1.5710 -2.6954
   14MOL0     H 1904  13.950   5.432   8.635  0.9956  1.3887 -0.8587
   14MOL0     H 1905  13.971   5.260   8.633  1.6930 -1.6582  0.0159
   14MOL0     H 1906  14.183   5.468   8.559 -0.2456  0.7892  2.2077
   14MOL0     H 1907  14.204   5.292   8.526  0.4537 -0.0914  0.8937
   14MOL0     H 1908  14.171   5.235   8.759  1.1736 -1.6344  1.7255
   14MOL0     H 1909  14.147   5.410   8.796  1.9152 -1.1603  2.0863
   14MOL0     H 1910  14.350   5.465   8.728 -4.2991 -0.2222  0.4383
   14MOL0     H 1911  14.403   5.310   8.664 -0.5181  0.9287 -1.1039
   14MOL0     H 1912  13.721   4.851   8.071  0.0554 -0.2216 -0.7486
   14MOL0     H 1913  13.486   4.780   7.985  1.9213 -1.3452  1.4091
   14MOL0     H 1914  12.934   4.870   7.962 -6.2316  0.0075 -0.5701
   14MOL0     H 1915  12.734   4.761   7.995  0.5180 -0.1494 -0.0486
   14MOL0     H 1916  10.945   4.346   8.376 -2.1689  0.6977 -1.1966
   14MOL0     H 1917  10.712   4.354   8.328 -1.4507  1.9322 -0.7014
   14MOL0     H 1918  10.390   4.387   8.289  0.0085  1.4855 -1.3776
   14MOL0     H 1919  10.174   4.383   8.154 -4.1470 -1.0239  0.2084
   14MOL0     H 1920   9.793   4.511   8.346 -0.4872  0.3137  0.6592
   14MOL0     H 1921   9.872   4.646   8.283  1.2189 -0.6657 -1.6337
   14MOL0     H 1922   9.796   4.599   8.051  1.0074  1.1243  1.1198
   14MOL0     H 1923   9.657   4.604   8.155  0.5397  0.8062  0.1962
   14MOL0     H 1924   9.769   4.334   8.066 -1.6745 -1.1669 -1.9720
   14MOL0     H 1925   9.626   4.371   8.155  0.9450  0.2605  1.7970
   14MOL0     H 1926   9.551   4.515   7.957  1.0708  0.5701  0.3521
   14MOL0     H 1927   9.550   4.348   7.925 -0.9347  0.9423 -2.5092
   14MOL0     H 1928   9.846   4.462   7.558 -1.3743 -0.6983 -1.1106
   14MOL0     H 1929   9.964   4.547   8.479  0.3422 -1.7475  0.7648
   14MOL0     H 1930  10.053   4.593   8.666  0.3601  2.9108  2.2213
   14MOL0     H 1931  10.211   4.538   8.723  0.2361  0.9791  0.7725
   14MOL0     H 1932  10.197   4.690   8.631 -1.1019 -0.1636 -1.9270
   15MOL0     O 1933   6.263   6.684   7.067  0.2627  0.3025 -0.2936
   15MOL0     C 1934   6.163   6.737   7.114  0.4568  0.4012 -0.5188
   15MOL0     O 1935   6.082   6.830   7.051  0.4210  0.2262  0.8430
   15MOL0     C 1936   6.128   6.952   7.009 -0.5724 -0.4363 -0.0538
   15MOL0     C 1937   6.256   6.997   7.051  0.9702 -0.5704  0.1876
   15MOL0     C 1938   6.299   7.124   7.016 -1.0534 -0.5812 -0.0588
   15MOL0     C 1939   6.219   7.214   6.940 -0.9770  0.6582 -0.6825
   15MOL0     O 1940   6.260   7.343   6.912 -1.0115  0.9758  0.2323
   15MOL0     C 1941   6.384   7.399   6.970  0.4446 -0.4052  1.0641
   15MOL0     C 1942   6.382   7.543   6.952  0.0683  0.3802  0.5403
   15MOL0     C 1943   6.527   7.603   6.961 -0.8708  0.1752 -0.4169
   15MOL0     C 1944   6.591   7.597   7.101  1.0606  0.7327  0.3758
   15MOL0     C 1945   6.699   7.699   7.114 -0.0560  0.1749 -0.4042
   15MOL0     C 1946   6.652   7.845   7.099 -0.8992 -0.1289 -0.0764
   15MOL0     C 1947   6.757   7.950   7.144  0.9060  0.0052 -0.1437
   15MOL0     C 1948   6.695   8.093   7.153  0.2999  0.8969  0.1282
   15MOL0     N 1949   6.773   8.201   7.197  0.5761 -0.1701  0.2147
   15MOL0     C 1950   6.861   8.266   7.116  0.7650  0.1644  0.3777
   15MOL0     C 1951   6.933   8.348   7.200 -0.0204  0.9567  1.2643
   15MOL0     C 1952   7.037   8.455   7.173  0.4117 -0.3832 -0.7300
   15MOL0     C 1953   7.157   8.418   7.239 -0.8201 -0.0486 -1.2260
   15MOL0     C 1954   7.227   8.536   7.312  0.2655 -0.1585  0.0746
   15MOL0     C 1955   7.366   8.506   7.380 -0.0459 -0.9222 -1.0996
   15MOL0     O 1956   7.428   8.624   7.440 -0.0368  0.0522  0.0107
   15MOL0     C 1957   7.555   8.599   7.494  0.5117  0.4991 -0.1731
   15MOL0     C 1958   7.616   8.713   7.539 -0.1299 -0.1263  0.9136
   15MOL0     C 1959   7.742   8.714   7.596 -0.2950  0.4800  0.0582
   15MOL0     C 1960   7.812   8.848   7.638  0.3000 -0.4401 -0.4612
   15MOL0     C 1961   7.818   8.587   7.607  0.8238  0.3001 -0.0656
   15MOL0     C 1962   7.964   8.571   7.649  1.1334 -0.5907 -0.1990
   15MOL0     O 1963   7.999   8.447   7.679  0.1229 -0.2312  0.7059
   15MOL0     C 1964   8.132   8.407   7.687 -0.1563 -0.7323 -0.2696
   15MOL0     C 1965   8.171   8.352   7.810 -0.3332 -0.6328  0.3875
   15MOL0     C 1966   8.305   8.312   7.839  0.6115 -0.0971  0.3450
   15MOL0     C 1967   8.397   8.323   7.731  0.5094  0.0534 -0.0080
   15MOL0     O 1968   8.528   8.288   7.764  0.4295 -0.0878  0.7802
   15MOL0     C 1969   8.630   8.281   7.666 -0.5238 -0.0931  0.0206
   15MOL0     C 1970   8.755   8.253   7.743 -0.1965 -0.3392 -0.7597
   15MOL0     C 1971   8.787   8.371   7.832  0.9274  0.1535 -0.0892
   15MOL0     C 1972   8.915   8.369   7.916  0.5442 -0.4145  0.7172
   15MOL0     C 1973   8.920   8.248   8.009  0.1650 -1.0307 -0.7570
   15MOL0     C 1974   8.785   8.202   8.068 -0.5109  0.6974 -0.5534
   15MOL0     C 1975   8.801   8.104   8.190 -0.1505  0.0547 -0.1510
   15MOL0     C 1976   8.685   8.106   8.287  0.3480 -0.1107  0.0093
   15MOL0    Cl 1977   8.539   8.058   8.205 -0.4016 -0.7564  0.0985
   15MOL0     C 1978   8.355   8.373   7.604 -0.6497 -0.6818 -0.1135
   15MOL0     C 1979   8.223   8.418   7.591  0.8142  0.2165 -0.2124
   15MOL0     O 1980   8.031   8.667   7.651 -0.4631 -0.6044  0.7004
   15MOL0     C 1981   7.756   8.472   7.565 -0.5948  0.2255  0.0607
   15MOL0     C 1982   7.625   8.479   7.510 -0.0816 -0.0509 -0.1192
   15MOL0     N 1983   6.880   8.330   7.324 -0.1580  0.4045 -0.1250
   15MOL0     N 1984   6.789   8.239   7.322 -0.4334 -0.6782 -0.1055
   15MOL0     C 1985   6.089   7.177   6.925 -0.8804  1.2232  0.3880
   15MOL0     C 1986   6.043   7.047   6.945  0.6642  0.7980 -0.1265
   15MOL0     C 1987   6.100   6.655   7.229 -0.8490 -1.0530  0.4545
   15MOL0     C 1988   6.009   6.566   7.184  0.1481  0.3044  0.0394
   15MOL0     C 1989   5.947   6.479   7.269 -0.1007 -0.2373  0.5359
   15MOL0     C 1990   5.987   6.467   7.400  0.4635  0.4563  1.0651
   15MOL0     O 1991   5.920   6.369   7.478 -0.2506 -0.1875  0.4211
   15MOL0     C 1992   5.950   6.350   7.624  0.2880 -1.2296 -0.7192
   15MOL0     C 1993   5.874   6.458   7.702 -0.8286 -0.2446  0.1741
   15MOL0     C 1994   5.733   6.450   7.677 -0.0724 -0.3686 -0.2661
   15MOL0     C 1995   5.669   6.553   7.775  0.2365  0.2373 -0.3284
   15MOL0     C 1996   5.532   6.576   7.728 -0.5770 -0.5993  0.2121
   15MOL0     C 1997   5.422   6.603   7.693  0.3614  0.3917 -0.1667
   15MOL0     C 1998   6.085   6.562   7.437  0.1581  0.1168 -0.4662
   15MOL0     C 1999   6.143   6.660   7.361  0.4926  0.3244  0.2311
   15MOL0     C 2000   6.241   6.757   7.423  0.5405 -0.5661 -0.3456
   15MOL0     H 2001   6.317   6.940   7.120 -0.6370  1.9072  4.0277
   15MOL0     H 2002   6.404   7.143   7.036 -0.2320 -3.8441 -0.6847
   15MOL0     H 2003   6.468   7.355   6.916  0.0085  0.4013 -0.3269
   15MOL0     H 2004   6.399   7.386   7.077  4.8533 -0.9684  0.5522
   15MOL0     H 2005   6.334   7.561   6.855  1.3688  0.3571 -0.1367
   15MOL0     H 2006   6.322   7.588   7.031  1.0264  1.2223  0.8154
   15MOL0     H 2007   6.594   7.543   6.898  0.1289 -0.2139  0.9567
   15MOL0     H 2008   6.528   7.705   6.923  0.1181  0.2283 -0.2875
   15MOL0     H 2009   6.522   7.614   7.184 -0.6405  0.7646 -0.9789
   15MOL0     H 2010   6.630   7.498   7.126 -1.5997 -0.5101  0.0503
   15MOL0     H 2011   6.784   7.686   7.046 -0.4128  3.3751 -1.6646
   15MOL0     H 2012   6.751   7.682   7.208  0.3062  0.9205 -0.4629
   15MOL0     H 2013   6.617   7.862   6.997 -0.7165 -2.0147 -0.4973
   15MOL0     H 2014   6.574   7.846   7.176  0.7691 -0.9363  1.7129
   15MOL0     H 2015   6.830   7.956   7.063 -0.2985  3.4553 -1.1339
   15MOL0     H 2016   6.794   7.925   7.244  2.8264 -0.3878 -0.9104
   15MOL0     H 2017   6.654   8.122   7.056  1.5666  0.5539 -0.5298
   15MOL0     H 2018   6.612   8.087   7.224 -0.1120  3.1306 -0.0984
   15MOL0     H 2019   6.865   8.255   7.008  2.0850  2.5861  0.1201
   15MOL0     H 2020   6.983   8.539   7.218 -0.0807  0.1418 -2.2331
   15MOL0     H 2021   7.061   8.484   7.070  2.7897 -1.0671 -0.4298
   15MOL0     H 2022   7.138   8.347   7.320 -2.1784  3.0766  1.4064
   15MOL0     H 2023   7.222   8.370   7.165 -2.5017 -2.3158 -1.3383
   15MOL0     H 2024   7.247   8.613   7.236  0.8484 -0.8941 -0.5349
   15MOL0     H 2025   7.155   8.571   7.387 -1.6285 -1.8579 -0.8606
   15MOL0     H 2026   7.355   8.439   7.465  0.4137  1.1182  0.6648
   15MOL0     H 2027   7.437   8.459   7.312 -0.1917 -1.6746 -0.7459
   15MOL0     H 2028   7.576   8.812   7.524 -0.4781  0.0447  2.6772
   15MOL0     H 2029   7.885   8.872   7.560  1.1409 -2.9384 -0.5312
   15MOL0     H 2030   7.844   8.846   7.742 -0.6686 -0.8358 -0.1592
   15MOL0     H 2031   7.743   8.930   7.613 -0.6613 -1.2295 -0.4514
   15MOL0     H 2032   8.085   8.337   7.874 -1.1450  4.7578  0.9881
   15MOL0     H 2033   8.335   8.265   7.932 -1.2479  2.4709  2.3974
   15MOL0     H 2034   8.620   8.204   7.588 -3.0874  1.0054 -0.8057
   15MOL0     H 2035   8.641   8.369   7.602  0.5526 -2.2325 -2.9803
   15MOL0     H 2036   8.734   8.153   7.782  1.7302 -0.4934 -0.0527
   15MOL0     H 2037   8.843   8.237   7.680  0.3816 -0.8475  0.1643
   15MOL0     H 2038   8.711   8.382   7.911  1.7394  0.1369  0.7121
   15MOL0     H 2039   8.795   8.462   7.773  3.5644  1.0600  1.4874
   15MOL0     H 2040   8.899   8.463   7.970 -0.6423  0.9357 -1.7770
   15MOL0     H 2041   9.010   8.370   7.863  0.5088  2.6943  0.5454
   15MOL0     H 2042   8.980   8.167   7.968  1.3189 -0.6173  0.0537
   15MOL0     H 2043   8.975   8.283   8.097  0.1164 -1.4224 -0.5694
   15MOL0     H 2044   8.719   8.152   7.996 -1.5444 -2.3785  2.2774
   15MOL0     H 2045   8.736   8.290   8.110  0.6661  0.3910  1.5932
   15MOL0     H 2046   8.884   8.138   8.251 -0.3602 -2.1981  1.5107
   15MOL0     H 2047   8.829   8.005   8.152  0.9712 -0.4671  1.9247
   15MOL0     H 2048   8.659   8.208   8.318 -2.1022 -1.6653  3.9865
   15MOL0     H 2049   8.687   8.045   8.378  3.5189 -1.0554 -0.6037
   15MOL0     H 2050   8.432   8.372   7.527  0.4393  2.3322  0.8105
   15MOL0     H 2051   8.183   8.472   7.506 -0.4320  1.4626  1.1040
   15MOL0     H 2052   7.798   8.372   7.578 -0.5909  0.2669  0.3783
   15MOL0     H 2053   7.569   8.389   7.487  1.2045 -0.5549 -1.4881
   15MOL0     H 2054   6.021   7.252   6.885 -0.7938  1.7658  1.2236
   15MOL0     H 2055   5.938   7.022   6.931  1.2482 -0.1571 -3.8704
   15MOL0     H 2056   5.977   6.572   7.080 -1.0387 -1.5321  0.2610
   15MOL0     H 2057   5.864   6.414   7.240  1.2481 -0.3580 -3.7786
   15MOL0     H 2058   5.909   6.252   7.650 -0.9131 -0.3992  0.6905
   15MOL0     H 2059   6.058   6.355   7.633  0.3311 -0.9774 -1.3004
   15MOL0     H 2060   5.920   6.551   7.667  2.5735 -1.2187  1.6573
   15MOL0     H 2061   5.896   6.453   7.809 -0.3152 -0.0027  0.0866
   15MOL0     H 2062   5.716   6.485   7.575 -0.7161 -0.2467 -0.1245
   15MOL0     H 2063   5.694   6.348   7.682  2.4382 -1.4023 -0.1120
   15MOL0     H 2064   5.716   6.650   7.793  0.5449 -0.1183  0.9108
   15MOL0     H 2065   5.663   6.511   7.876 -0.4047  3.2176  0.9744
   15MOL0     H 2066   5.326   6.620   7.649  1.2717  0.4956 -2.2184
   15MOL0     H 2067   6.098   6.578   7.543  0.2260  1.0829 -0.6148
   15MOL0     H 2068   6.339   6.769   7.375  3.0724  0.0885  4.3900
   15MOL0     H 2069   6.194   6.856   7.416 -4.0416 -2.5802 -1.1496
   15MOL0     H 2070   6.248   6.733   7.529 -0.8843 -2.7800 -0.7031
   16MOL0     O 2071   7.422   8.473   7.951  0.3249 -1.1484  0.3164
   16MOL0     C 2072   7.345   8.404   7.880 -0.8807 -0.1274 -0.2011
   16MOL0     O 2073   7.372   8.266   7.862 -0.2948  0.4992 -0.3669
   16MOL0     C 2074   7.501   8.218   7.889  0.3559 -0.1615  0.3359
   16MOL0     C 2075   7.542   8.178   8.017  0.3167  0.4799 -0.8568
   16MOL0     C 2076   7.670   8.125   8.035 -0.3543 -0.4499 -0.2619
   16MOL0     C 2077   7.745   8.084   7.926 -0.6710 -0.5319  0.1392
   16MOL0     O 2078   7.856   8.015   7.962 -0.5192 -0.0645  0.0959
   16MOL0     C 2079   7.967   7.995   7.871 -0.2174  0.9165 -0.2885
   16MOL0     C 2080   8.084   7.937   7.950 -0.0427 -0.6165 -0.7012
   16MOL0     C 2081   8.213   7.938   7.879 -0.1113  0.4477 -0.3606
   16MOL0     C 2082   8.322   7.874   7.971  0.1325  0.2277  0.5025
   16MOL0     C 2083   8.459   7.893   7.907  0.4120 -0.2236 -0.0712
   16MOL0     C 2084   8.482   7.808   7.779  0.4252  0.0195 -0.3608
   16MOL0     C 2085   8.631   7.803   7.763  0.2414 -0.1132 -0.2737
   16MOL0     C 2086   8.661   7.750   7.623  0.3217 -0.0292 -0.0253
   16MOL0     N 2087   8.802   7.741   7.588 -0.5259 -0.0747  0.6846
   16MOL0     C 2088   8.893   7.845   7.610  0.4813 -0.0809  0.2487
   16MOL0     C 2089   8.974   7.825   7.504 -0.0838 -0.8318 -0.5637
   16MOL0     C 2090   9.084   7.930   7.470  0.6134  0.7237 -0.3071
   16MOL0     C 2091   9.220   7.871   7.498  0.0411 -0.1131  0.6311
   16MOL0     C 2092   9.336   7.972   7.495 -0.5936 -0.9003 -0.0677
   16MOL0     C 2093   9.328   8.079   7.380  0.0619  0.8083  0.0843
   16MOL0     O 2094   9.433   8.181   7.392 -0.5069  1.1505  0.6055
   16MOL0     C 2095   9.562   8.149   7.376 -0.2417  0.6073  0.5733
   16MOL0     C 2096   9.657   8.248   7.409 -0.5170  0.4170 -0.1754
   16MOL0     C 2097   9.797   8.231   7.403 -0.1820 -0.4295 -0.0698
   16MOL0     C 2098   9.880   8.341   7.472 -0.1861  0.4967 -0.2955
   16MOL0     C 2099   9.849   8.112   7.351  0.1611  0.0539 -0.2212
   16MOL0     C 2100   9.994   8.080   7.334 -0.9357 -0.1729 -0.1256
   16MOL0     O 2101  10.084   8.154   7.394 -0.5224 -0.4858 -0.0098
   16MOL0     C 2102  10.220   8.121   7.383 -0.3888 -0.4132 -0.1322
   16MOL0     C 2103  10.275   7.991   7.377  0.4091  1.1958  0.6835
   16MOL0     C 2104  10.409   7.970   7.337 -0.4195 -1.1575  0.9064
   16MOL0     C 2105  10.502   8.072   7.338 -0.1944 -0.0272  0.6999
   16MOL0     O 2106  10.633   8.039   7.313  0.1800 -0.4513 -0.4393
   16MOL0     C 2107  10.715   8.146   7.246  0.2044  0.4890 -1.0025
   16MOL0     C 2108  10.832   8.082   7.180 -0.3196  0.3472  0.4610
   16MOL0     C 2109  10.879   7.940   7.227  0.3949 -0.4624 -0.6265
   16MOL0     C 2110  10.810   7.821   7.160  0.3919 -0.3453  0.6163
   16MOL0     C 2111  10.833   7.697   7.234  0.7108  0.0474  0.1474
   16MOL0     C 2112  10.734   7.683   7.350  0.1023 -0.0696 -0.0588
   16MOL0     C 2113  10.608   7.621   7.302 -0.2108  0.9577 -0.0005
   16MOL0     C 2114  10.515   7.604   7.421  0.5109  0.2550 -0.0926
   16MOL0    Cl 2115  10.362   7.514   7.373 -0.0385 -0.1409 -0.1372
   16MOL0     C 2116  10.451   8.197   7.382  0.1411 -0.5546  0.0970
   16MOL0     C 2117  10.317   8.223   7.406 -0.5641 -0.3648  0.3681
   16MOL0     O 2118  10.016   7.983   7.261  0.4955  0.1696  0.2864
   16MOL0     C 2119   9.754   8.010   7.322  0.3501  1.0231  0.7313
   16MOL0     C 2120   9.616   8.029   7.328  0.6118 -0.0625  0.5916
   16MOL0     N 2121   8.942   7.708   7.430 -0.6613  0.0957  0.0163
   16MOL0     N 2122   8.834   7.656   7.484  0.5687 -0.4198  0.1719
   16MOL0     C 2123   7.713   8.126   7.795  0.5910 -0.0741  0.1629
   16MOL0     C 2124   7.592   8.196   7.784 -0.4103 -0.3359  0.8366
   16MOL0     C 2125   7.205   8.439   7.859 -0.5931 -0.1147  0.9548
   16MOL0     C 2126   7.103   8.346   7.891 -0.3740 -0.9740  0.6944
   16MOL0     C 2127   6.977   8.397   7.874 -0.7157  0.9654 -0.6118
   16MOL0     C 2128   6.942   8.529   7.826  0.0974 -0.2484 -0.6985
   16MOL0     O 2129   6.816   8.576   7.822 -0.0578  0.0529 -0.0444
   16MOL0     C 2130   6.736   8.491   7.734 -0.1367 -0.1266  0.2494
   16MOL0     C 2131   6.716   8.567   7.604  0.5569  0.6475 -0.4649
   16MOL0     C 2132   6.614   8.481   7.525  1.2727 -0.1795  1.0247
   16MOL0     C 2133   6.472   8.525   7.542  0.5375  0.3203 -0.2894
   16MOL0     C 2134   6.394   8.469   7.659  0.4930 -0.5489  0.5877
   16MOL0     C 2135   6.340   8.422   7.758  0.1756  0.0816  0.0432
   16MOL0     C 2136   7.035   8.621   7.792 -1.0801  0.9379 -0.5478
   16MOL0     C 2137   7.172   8.569   7.798  1.2999 -0.7395  0.2808
   16MOL0     C 2138   7.271   8.667   7.742 -0.4740 -0.5518 -0.1115
   16MOL0     H 2139   7.475   8.204   8.098 -0.4866  0.7629 -1.5944
   16MOL0     H 2140   7.695   8.105   8.139 -0.3686  1.1557  0.0829
   16MOL0     H 2141   7.997   8.097   7.845 -0.6549  1.3531  0.8666
   16MOL0     H 2142   7.941   7.938   7.782  2.4383 -0.6432 -0.1772
   16MOL0     H 2143   8.096   7.994   8.042  0.6742 -2.0546  0.1398
   16MOL0     H 2144   8.060   7.833   7.976 -0.7471 -1.0168 -2.7110
   16MOL0     H 2145   8.198   7.881   7.787  1.3217  0.6778 -0.7603
   16MOL0     H 2146   8.239   8.040   7.850 -0.6476  0.5422 -0.5214
   16MOL0     H 2147   8.314   7.917   8.071 -1.1370  0.6255  0.2469
   16MOL0     H 2148   8.308   7.766   7.983 -0.6353  0.2019 -0.5113
   16MOL0     H 2149   8.535   7.863   7.979 -0.1004  1.6431  1.3458
   16MOL0     H 2150   8.479   8.000   7.892 -2.6672  0.4769  0.1707
   16MOL0     H 2151   8.449   7.706   7.802 -1.0391  0.8993  1.7922
   16MOL0     H 2152   8.433   7.849   7.689  0.8895  0.5554 -0.3714
   16MOL0     H 2153   8.684   7.744   7.839 -1.1412  0.4260  1.1523
   16MOL0     H 2154   8.672   7.903   7.773 -0.3178  0.3177 -1.9824
   16MOL0     H 2155   8.623   7.647   7.618  0.3212 -0.1297  1.5293
   16MOL0     H 2156   8.614   7.801   7.539  0.2662 -0.1048 -0.0403
   16MOL0     H 2157   8.882   7.930   7.677  0.1917  0.6092 -0.6515
   16MOL0     H 2158   9.076   8.013   7.540  0.0676 -1.6214  2.6343
   16MOL0     H 2159   9.081   7.965   7.366  1.7818  1.2182 -0.1972
   16MOL0     H 2160   9.212   7.831   7.599 -3.7223  0.6406  0.7949
   16MOL0     H 2161   9.234   7.787   7.429  1.2566  0.6342 -0.0683
   16MOL0     H 2162   9.344   8.035   7.584 -0.9631  3.2355 -2.6963
   16MOL0     H 2163   9.429   7.915   7.483 -0.3516 -0.6509  0.5772
   16MOL0     H 2164   9.330   8.026   7.285  1.1880 -3.8273  2.3687
   16MOL0     H 2165   9.233   8.134   7.384  0.7092  1.9154  0.6762
   16MOL0     H 2166   9.607   8.336   7.447  0.0800  1.3164 -1.4136
   16MOL0     H 2167   9.946   8.296   7.546 -2.3304 -4.4380 -1.0263
   16MOL0     H 2168   9.816   8.421   7.511 -0.9956  0.1367 -0.8477
   16MOL0     H 2169   9.944   8.382   7.394  1.1841 -2.0142 -0.5820
   16MOL0     H 2170  10.204   7.909   7.383 -1.3535  2.5835 -0.1503
   16MOL0     H 2171  10.446   7.873   7.305 -1.3937 -0.9450 -0.9903
   16MOL0     H 2172  10.655   8.213   7.184  1.9219  3.7389  0.5655
   16MOL0     H 2173  10.755   8.211   7.324 -2.1841 -1.8254  2.4533
   16MOL0     H 2174  10.814   8.077   7.072 -0.5146  1.7294  0.4120
   16MOL0     H 2175  10.910   8.157   7.190  0.0049 -0.0477  0.9257
   16MOL0     H 2176  10.872   7.940   7.336 -0.2203 -0.6281 -0.6638
   16MOL0     H 2177  10.987   7.929   7.211  0.8269 -1.5405  2.3670
   16MOL0     H 2178  10.848   7.813   7.058  0.2163 -0.1694  0.5375
   16MOL0     H 2179  10.703   7.842   7.149 -0.1453 -3.1709 -0.6008
   16MOL0     H 2180  10.812   7.619   7.160 -1.0197  0.0874  0.5427
   16MOL0     H 2181  10.937   7.683   7.265  1.1026  0.4120 -0.9637
   16MOL0     H 2182  10.718   7.781   7.397  1.2012  0.0745  0.0333
   16MOL0     H 2183  10.770   7.618   7.430 -0.6055 -2.2353 -1.4024
   16MOL0     H 2184  10.623   7.521   7.261  2.1732  0.2874  2.2098
   16MOL0     H 2185  10.571   7.691   7.227  1.2189  1.0760 -0.6374
   16MOL0     H 2186  10.490   7.705   7.452 -0.0454  0.8873 -2.4087
   16MOL0     H 2187  10.564   7.553   7.505 -0.4053  3.8448  2.8638
   16MOL0     H 2188  10.517   8.283   7.394  0.4999 -0.8554  0.3162
   16MOL0     H 2189  10.279   8.321   7.435 -2.0107 -0.7550 -0.1574
   16MOL0     H 2190   9.787   7.914   7.284 -2.3496 -0.6259  2.2355
   16MOL0     H 2191   9.550   7.948   7.299  0.9077  0.4693 -1.7443
   16MOL0     H 2192   7.770   8.115   7.704  1.0245  0.5841  0.3470
   16MOL0     H 2193   7.555   8.221   7.685 -1.7636 -0.2128  1.3465
   16MOL0     H 2194   7.125   8.252   7.940 -1.6582 -0.9034  1.4590
   16MOL0     H 2195   6.896   8.337   7.913  0.4433  0.2962  0.8542
   16MOL0     H 2196   6.772   8.391   7.709 -1.4745 -0.7525  0.7097
   16MOL0     H 2197   6.643   8.479   7.791 -0.7928  3.3745  0.1536
   16MOL0     H 2198   6.813   8.571   7.553  1.6926  4.0607  1.5968
   16MOL0     H 2199   6.671   8.665   7.625  0.2934  0.0464  2.1282
   16MOL0     H 2200   6.640   8.517   7.425  0.0896  0.3952  0.8993
   16MOL0     H 2201   6.623   8.373   7.535 -1.1544 -0.6246 -0.6282
   16MOL0     H 2202   6.413   8.485   7.459  1.7430 -2.0193 -0.1149
   16MOL0     H 2203   6.478   8.634   7.541  0.4049  0.3336  0.3725
   16MOL0     H 2204   6.288   8.402   7.849 -1.6027  1.7571 -0.5287
   16MOL0     H 2205   6.995   8.713   7.749 -2.2061 -0.3309 -2.3528
   16MOL0     H 2206   7.362   8.616   7.709 -0.5373 -1.0696  0.5080
   16MOL0     H 2207   7.221   8.726   7.665  0.7092  1.9538  0.9169
   16MOL0     H 2208   7.309   8.731   7.822 -2.3477 -0.1367  0.4785
   17MOL0     O 2209   5.280   5.737  10.410 -0.5709 -0.1852  0.0121
   17MOL0     C 2210   5.233   5.807  10.322  0.3980  0.0392  0.5893
   17MOL0     O 2211   5.296   5.861  10.205  1.1931 -0.1867  0.0253
   17MOL0     C 2212   5.423   5.823  10.177 -0.3944 -0.7506 -0.5660
   17MOL0     C 2213   5.451   5.826  10.046  0.1558  0.1021 -0.0815
   17MOL0     C 2214   5.580   5.805  10.002 -0.3596  0.4860 -0.2362
   17MOL0     C 2215   5.690   5.771  10.080 -0.3013  0.2829 -0.2500
   17MOL0     O 2216   5.803   5.714  10.042 -0.7693  0.5949  0.1755
   17MOL0     C 2217   5.827   5.706   9.896 -0.3506 -0.0304  0.2425
   17MOL0     C 2218   5.959   5.637   9.851  0.6579 -0.6125  0.2312
   17MOL0     C 2219   6.084   5.709   9.902 -0.6939  0.2254  0.5286
   17MOL0     C 2220   6.137   5.801   9.797  0.1710 -0.9204  0.7695
   17MOL0     C 2221   6.276   5.846   9.832  0.1156 -0.5483 -0.1281
   17MOL0     C 2222   6.286   5.958   9.941  0.0387  0.0046 -0.6483
   17MOL0     C 2223   6.382   5.928  10.047  0.7003  0.2210  0.8488
   17MOL0     C 2224   6.522   5.910   9.977 -0.3299 -0.3583 -0.2057
   17MOL0     N 2225   6.624   5.951  10.073 -0.2595  0.7218 -0.1085
   17MOL0     C 2226   6.678   5.856  10.155 -0.4680  0.2884 -0.3725
   17MOL0     C 2227   6.771   5.913  10.227 -0.0198 -0.6937 -0.2673
   17MOL0     C 2228   6.863   5.863  10.330  1.0029  0.4020  0.0024
   17MOL0     C 2229   6.807   5.895  10.475  0.1860  0.1182  0.0094
   17MOL0     C 2230   6.862   6.029  10.538 -0.7714  0.6255  0.3972
   17MOL0     C 2231   7.010   6.052  10.526 -0.3614  0.0402 -0.9162
   17MOL0     O 2232   7.077   5.966  10.626  0.3350  0.7065 -0.3061
   17MOL0     C 2233   7.210   5.933  10.604 -0.5369 -0.0300  0.1243
   17MOL0     C 2234   7.285   5.957  10.485 -0.0580  0.3076 -0.7953
   17MOL0     C 2235   7.429   5.950  10.491  0.4649  0.6582  0.6987
   17MOL0     C 2236   7.502   5.966  10.364  0.4056 -0.0494 -0.5147
   17MOL0     C 2237   7.494   5.913  10.613  0.4463 -0.9198  0.1127
   17MOL0     C 2238   7.642   5.891  10.627  0.6906 -0.7026  0.5456
   17MOL0     O 2239   7.683   5.805  10.726  0.6551 -0.8131 -0.3340
   17MOL0     C 2240   7.808   5.823  10.773 -0.0461  0.0486 -0.1508
   17MOL0     C 2241   7.827   5.861  10.906  0.0832  0.1066 -0.2039
   17MOL0     C 2242   7.953   5.861  10.961 -0.2534 -0.6805  0.0225
   17MOL0     C 2243   8.067   5.810  10.892  0.2162 -0.6427 -1.0288
   17MOL0     O 2244   8.196   5.815  10.938 -0.2423  0.5001  0.4316
   17MOL0     C 2245   8.234   5.894  11.047  0.2607  0.1147 -0.1651
   17MOL0     C 2246   8.378   5.863  11.075  1.3067  0.1558 -0.0528
   17MOL0     C 2247   8.475   5.883  10.961 -0.7070  0.6410 -0.0024
   17MOL0     C 2248   8.606   5.951  11.020 -0.0094  0.2914 -0.4342
   17MOL0     C 2249   8.704   6.002  10.912  0.0713  0.5202  0.4096
   17MOL0     C 2250   8.841   6.049  10.967  0.1407  0.2332  0.3301
   17MOL0     C 2251   8.932   6.104  10.852  0.4213 -0.1947 -0.4478
   17MOL0     C 2252   9.068   6.154  10.908  0.1637 -1.0332  0.2063
   17MOL0    Cl 2253   9.168   6.016  10.969 -0.3582  0.0917 -0.1694
   17MOL0     C 2254   8.044   5.767  10.761 -0.4428 -0.8289  0.0647
   17MOL0     C 2255   7.922   5.781  10.698  0.9605 -0.4745 -0.0579
   17MOL0     O 2256   7.713   5.952  10.556 -0.1601 -0.1857  0.1236
   17MOL0     C 2257   7.414   5.890  10.726  0.0338  0.3207 -0.3262
   17MOL0     C 2258   7.276   5.896  10.717 -0.8442 -0.4752 -0.2704
   17MOL0     N 2259   6.765   6.050  10.195  0.1187 -0.5316  0.2812
   17MOL0     N 2260   6.680   6.077  10.105 -0.1371  0.7908  0.5163
   17MOL0     C 2261   5.659   5.768  10.214  0.0357  0.5267 -0.9152
   17MOL0     C 2262   5.530   5.793  10.267  0.5424  0.5838  0.7932
   17MOL0     C 2263   5.095   5.851  10.345  0.1122  0.1157  0.1497
   17MOL0     C 2264   5.025   5.901  10.227 -0.3516 -0.8526 -0.7759
   17MOL0     C 2265   4.895   5.938  10.238  0.2699  0.4388  0.0347
   17MOL0     C 2266   4.822   5.931  10.356  0.0140  0.0798  0.3507
   17MOL0     O 2267   4.690   5.965  10.372 -0.5566  0.0734 -0.0897
   17MOL0     C 2268   4.662   6.102  10.331 -0.4698 -0.2943 -0.3180
   17MOL0     C 2269   4.754   6.209  10.402 -0.0956 -0.2141  0.1963
   17MOL0     C 2270   4.688   6.342  10.381  0.0086  0.4553  0.0988
   17MOL0     C 2271   4.704   6.438  10.491 -0.3230  0.3092 -0.2184
   17MOL0     C 2272   4.847   6.473  10.506 -0.0161  0.7522 -0.7621
   17MOL0     C 2273   4.961   6.507  10.525 -0.4077 -0.7728  0.1250
   17MOL0     C 2274   4.879   5.881  10.468 -0.4902 -0.0997  0.0861
   17MOL0     C 2275   5.014   5.833  10.471 -0.1730 -0.0390  0.1694
   17MOL0     C 2276   5.068   5.781  10.600  0.0916  0.3440  0.0597
   17MOL0     H 2277   5.373   5.832   9.971 -0.8927 -3.0208  0.6139
   17MOL0     H 2278   5.598   5.812   9.895  0.6699  1.5618 -0.0079
   17MOL0     H 2279   5.822   5.806   9.852 -0.6176 -0.2862 -0.3222
   17MOL0     H 2280   5.740   5.652   9.857 -0.0436 -0.0024 -0.5088
   17MOL0     H 2281   5.953   5.532   9.883  3.8041 -1.8759 -2.7353
   17MOL0     H 2282   5.963   5.640   9.742 -3.7250 -1.0871 -0.1448
   17MOL0     H 2283   6.071   5.759   9.998  0.4076 -0.4072  1.0260
   17MOL0     H 2284   6.174   5.648   9.920  1.3486  2.8028 -0.3028
   17MOL0     H 2285   6.146   5.755   9.698  1.8759  0.7848  0.0677
   17MOL0     H 2286   6.074   5.889   9.782  0.2466 -1.0384 -0.3064
   17MOL0     H 2287   6.327   5.883   9.743 -1.6395 -0.2983 -1.0739
   17MOL0     H 2288   6.334   5.760   9.867  0.1034 -0.6761 -0.4197
   17MOL0     H 2289   6.316   6.047   9.885  1.8908 -1.9666 -3.0170
   17MOL0     H 2290   6.188   5.971   9.989 -0.0123 -2.1091 -0.0840
   17MOL0     H 2291   6.330   5.856  10.112 -1.8331 -1.8355 -3.0373
   17MOL0     H 2292   6.395   6.022  10.101 -0.3720  0.1766  1.2072
   17MOL0     H 2293   6.537   5.808   9.942  1.3771  0.8905 -3.4760
   17MOL0     H 2294   6.541   5.980   9.896 -0.8622 -0.7387 -0.6705
   17MOL0     H 2295   6.657   5.750  10.144 -1.1670  0.5605 -2.0443
   17MOL0     H 2296   6.969   5.877  10.304  1.2216 -1.4438 -0.2573
   17MOL0     H 2297   6.852   5.754  10.329 -1.9744  0.5667 -3.1114
   17MOL0     H 2298   6.699   5.903  10.460  0.4409  1.7835 -1.1891
   17MOL0     H 2299   6.834   5.815  10.545  0.2821  1.1635  1.2108
   17MOL0     H 2300   6.803   6.103  10.484 -0.7083 -0.1447 -0.7779
   17MOL0     H 2301   6.828   6.031  10.642 -0.2339  0.0797  0.5883
   17MOL0     H 2302   7.045   6.027  10.425  2.8624 -1.0285  0.3278
   17MOL0     H 2303   7.044   6.156  10.530 -1.1765  0.2874 -0.0507
   17MOL0     H 2304   7.239   5.999  10.396  3.2579  1.8827 -1.9104
   17MOL0     H 2305   7.543   6.067  10.354 -1.2373  0.7922  0.9380
   17MOL0     H 2306   7.431   5.919  10.295 -2.6574 -0.3646  2.6101
   17MOL0     H 2307   7.590   5.901  10.352  0.6815 -0.0642  1.3126
   17MOL0     H 2308   7.745   5.893  10.969 -0.0273  2.6647 -1.4850
   17MOL0     H 2309   7.970   5.903  11.060 -1.8516  0.7615 -0.2625
   17MOL0     H 2310   8.214   5.999  11.024 -0.5880  0.2304  1.0038
   17MOL0     H 2311   8.170   5.865  11.131  0.6221  1.5031  0.6244
   17MOL0     H 2312   8.393   5.938  11.154 -0.6859  0.2931  0.2343
   17MOL0     H 2313   8.377   5.770  11.133 -1.5887  0.4670  0.5448
   17MOL0     H 2314   8.437   5.960  10.893 -0.1927 -0.4878 -1.6309
   17MOL0     H 2315   8.492   5.796  10.897 -0.4339 -1.9507  3.3496
   17MOL0     H 2316   8.660   5.871  11.070 -1.0822 -1.9778 -2.7194
   17MOL0     H 2317   8.574   6.030  11.089  0.6817  0.6474 -0.5141
   17MOL0     H 2318   8.713   5.933  10.828 -1.0987  3.3962 -2.2876
   17MOL0     H 2319   8.657   6.091  10.870 -2.3035 -1.2267 -0.8627
   17MOL0     H 2320   8.892   5.962  11.010  1.3832  0.5162 -0.5143
   17MOL0     H 2321   8.825   6.121  11.048 -3.5312 -1.6199  1.4863
   17MOL0     H 2322   8.882   6.178  10.790  2.0892 -0.8034 -2.6310
   17MOL0     H 2323   8.948   6.015  10.791 -1.4682 -2.3252  1.9567
   17MOL0     H 2324   9.048   6.234  10.980  2.2884  2.0578 -2.3292
   17MOL0     H 2325   9.117   6.198  10.820 -3.0369  1.3300 -0.5705
   17MOL0     H 2326   8.125   5.731  10.699  0.8836  0.4321  0.9961
   17MOL0     H 2327   7.919   5.732  10.602 -0.7699 -1.0701  0.2596
   17MOL0     H 2328   7.462   5.860  10.819  0.1574 -2.7933 -1.2761
   17MOL0     H 2329   7.212   5.866  10.800 -2.9210 -0.0161 -1.6273
   17MOL0     H 2330   5.739   5.746  10.284 -1.2502  0.7825  0.7153
   17MOL0     H 2331   5.520   5.778  10.374  2.0884  0.5427  0.9614
   17MOL0     H 2332   5.069   5.926  10.131  1.0052  0.4389  0.1393
   17MOL0     H 2333   4.847   5.975  10.148 -0.1029 -2.0189 -0.8513
   17MOL0     H 2334   4.673   6.114  10.222  2.7854 -1.2354 -0.1945
   17MOL0     H 2335   4.557   6.115  10.355  0.0243 -1.0263  2.5543
   17MOL0     H 2336   4.847   6.210  10.345 -1.1321  1.3104 -1.6144
   17MOL0     H 2337   4.760   6.170  10.504 -0.2125  0.0020  0.2867
   17MOL0     H 2338   4.725   6.387  10.289  2.8955  1.8185  1.7800
   17MOL0     H 2339   4.582   6.327  10.357  0.2374 -0.2195 -0.5112
   17MOL0     H 2340   4.660   6.401  10.584 -1.2911  3.1413  0.5722
   17MOL0     H 2341   4.651   6.530  10.464 -0.4031  1.0123  2.1048
   17MOL0     H 2342   5.062   6.538  10.538 -0.1957 -1.8285  1.2527
   17MOL0     H 2343   4.814   5.873  10.555 -2.7918 -1.8791 -1.6801
   17MOL0     H 2344   5.151   5.848  10.624  1.0610 -0.0995 -1.8654
   17MOL0     H 2345   4.994   5.781  10.681 -0.2780 -2.7795 -0.1400
   17MOL0     H 2346   5.114   5.682  10.588 -3.2103 -1.4743  1.0276
   18MOL0     O 2347  11.389   2.073   8.985 -0.3484  0.1044  0.2815
   18MOL0     C 2348  11.309   1.994   9.041  0.0395  0.1189 -0.3587
   18MOL0     O 2349  11.298   1.858   9.007 -0.8709 -0.2119  0.5074
   18MOL0     C 2350  11.399   1.801   8.922 -0.3241  0.1929 -0.2920
   18MOL0     C 2351  11.534   1.800   8.970  0.0183  0.1457 -0.0338
   18MOL0     C 2352  11.630   1.731   8.890  0.1967 -0.0722 -0.0130
   18MOL0     C 2353  11.599   1.670   8.771  0.2676  0.7818 -0.6450
   18MOL0     O 2354  11.699   1.600   8.706  0.5997  0.3024  0.0881
   18MOL0     C 2355  11.721   1.629   8.564 -0.3890 -0.3458  0.0667
   18MOL0     C 2356  11.802   1.758   8.528 -0.0123 -0.3296 -1.6526
   18MOL0     C 2357  11.947   1.764   8.585  0.0556  0.3122 -0.6893
   18MOL0     C 2358  12.019   1.900   8.542 -0.4897  0.4142 -0.0332
   18MOL0     C 2359  12.173   1.915   8.587 -0.1996  0.8987 -0.2520
   18MOL0     C 2360  12.215   2.055   8.559 -0.4278 -0.3417  0.0131
   18MOL0     C 2361  12.367   2.074   8.574  0.5273 -0.7705  0.4360
   18MOL0     C 2362  12.400   2.217   8.532 -0.0543 -0.1994 -0.5444
   18MOL0     N 2363  12.544   2.255   8.537  0.3827 -0.2830 -0.7039
   18MOL0     C 2364  12.633   2.213   8.629 -0.8118 -0.3803 -0.9608
   18MOL0     C 2365  12.748   2.275   8.591  0.2274  0.2092  0.3617
   18MOL0     C 2366  12.876   2.240   8.658  0.0404 -0.8665  0.9395
   18MOL0     C 2367  12.928   2.093   8.666 -0.6155 -0.6580 -0.1849
   18MOL0     C 2368  13.060   2.093   8.752 -0.0221  0.2136  0.1593
   18MOL0     C 2369  13.123   1.954   8.738 -0.5158 -0.3529  0.3527
   18MOL0     O 2370  13.181   1.905   8.861 -0.1901 -0.1085  0.7093
   18MOL0     C 2371  13.285   1.965   8.919  0.3813  0.1696  0.2816
   18MOL0     C 2372  13.323   1.930   9.047 -0.3046  0.0520  0.4453
   18MOL0     C 2373  13.437   1.988   9.116 -0.4417 -0.1701 -0.2510
   18MOL0     C 2374  13.462   1.933   9.257  0.9747 -0.7541 -0.7911
   18MOL0     C 2375  13.506   2.096   9.064 -0.1110  0.3361 -0.1533
   18MOL0     C 2376  13.621   2.171   9.122  0.3832  0.1170  0.4777
   18MOL0     O 2377  13.683   2.265   9.041  0.2504 -0.3802 -0.3906
   18MOL0     C 2378  13.787   2.341   9.090  0.4700  0.7953 -0.0317
   18MOL0     C 2379  13.765   2.473   9.133  0.3411 -1.2027  0.1436
   18MOL0     C 2380  13.861   2.542   9.199  0.6078 -0.0066  0.1982
   18MOL0     C 2381  13.986   2.485   9.225  0.4020  0.3361 -0.4015
   18MOL0     O 2382  14.080   2.533   9.307  0.7682  0.4476 -0.9853
   18MOL0     C 2383  14.161   2.644   9.256  0.0023  0.4253  0.2769
   18MOL0     C 2384  14.243   2.603   9.140  0.2349 -0.3001  0.4913
   18MOL0     C 2385  14.324   2.720   9.090  0.2209  0.5007  0.8223
   18MOL0     C 2386  14.432   2.669   8.985 -0.5096  0.5697 -0.2376
   18MOL0     C 2387  14.521   2.783   8.961 -0.6297 -0.3087 -0.1255
   18MOL0     C 2388  14.616   2.840   9.076  0.6755  0.9253 -0.1436
   18MOL0     C 2389  14.715   2.926   9.001 -0.0522 -0.2113 -0.2476
   18MOL0     C 2390  14.757   3.044   9.090 -0.5145  0.5773  0.0082
   18MOL0    Cl 2391  14.886   3.144   9.012 -0.2288 -0.2306  0.4837
   18MOL0     C 2392  14.011   2.355   9.187  0.3030 -0.7744  0.2679
   18MOL0     C 2393  13.915   2.279   9.116 -0.5125 -0.0065  0.0729
   18MOL0     O 2394  13.661   2.148   9.235  0.0218 -0.5382  0.9904
   18MOL0     C 2395  13.476   2.123   8.924  0.3121  0.6624  0.1303
   18MOL0     C 2396  13.368   2.059   8.852 -0.3744  0.3385 -0.2383
   18MOL0     N 2397  12.733   2.347   8.477  0.6444 -0.3739 -0.1570
   18MOL0     N 2398  12.609   2.340   8.447 -0.0061 -0.5166  0.5769
   18MOL0     C 2399  11.470   1.686   8.724 -0.0970  0.1137 -0.1624
   18MOL0     C 2400  11.366   1.750   8.799 -0.4055 -0.4679 -0.3699
   18MOL0     C 2401  11.216   2.042   9.142  0.6586 -0.4591  0.3772
   18MOL0     C 2402  11.100   1.967   9.164 -0.8987  0.0548  0.5834
   18MOL0     C 2403  10.999   2.025   9.229  0.6538 -0.0039 -0.6278
   18MOL0     C 2404  11.014   2.143   9.295  0.9583  0.2989  0.0296
   18MOL0     O 2405  10.910   2.188   9.368 -0.0588 -0.1827 -0.2002
   18MOL0     C 2406  10.826   2.086   9.444  0.1844  0.2111  0.4393
   18MOL0     C 2407  10.802   2.116   9.599  0.8840  0.3870 -0.1619
   18MOL0     C 2408  10.692   2.222   9.629  0.8276 -0.5003  0.9609
   18MOL0     C 2409  10.564   2.224   9.541  0.0641  1.1137 -0.6736
   18MOL0     C 2410  10.464   2.311   9.590  0.3725 -0.6368 -0.6762
   18MOL0     C 2411  10.370   2.382   9.625 -0.2005  0.6014 -0.7615
   18MOL0     C 2412  11.134   2.210   9.285  0.3007  0.7909  0.0951
   18MOL0     C 2413  11.235   2.166   9.202  0.0830 -0.5132 -0.0871
   18MOL0     C 2414  11.366   2.245   9.196  0.3432  0.1935  0.2669
   18MOL0     H 2415  11.575   1.845   9.060  2.1307 -2.6705  0.5527
   18MOL0     H 2416  11.734   1.737   8.920 -0.4219 -0.6715  2.4741
   18MOL0     H 2417  11.634   1.624   8.498  0.7792  1.4265 -1.7235
   18MOL0     H 2418  11.788   1.548   8.533  0.9437  0.6773  0.1917
   18MOL0     H 2419  11.810   1.766   8.419  2.0099 -0.7622 -1.5788
   18MOL0     H 2420  11.751   1.847   8.566  1.2519  0.2591 -1.2943
   18MOL0     H 2421  11.943   1.761   8.694 -0.8414  0.0261 -0.7195
   18MOL0     H 2422  12.010   1.685   8.543  1.9589  0.2557  2.0470
   18MOL0     H 2423  12.018   1.919   8.434 -1.5466  1.9394  0.2149
   18MOL0     H 2424  11.965   1.984   8.587  0.1059  1.4104 -1.1277
   18MOL0     H 2425  12.238   1.847   8.531 -1.4482  0.5241 -1.2753
   18MOL0     H 2426  12.184   1.904   8.696 -0.4560 -0.1718 -0.3212
   18MOL0     H 2427  12.185   2.082   8.458  1.1036  2.6032  0.2125
   18MOL0     H 2428  12.166   2.126   8.627 -1.2335 -1.8850  1.0887
   18MOL0     H 2429  12.413   2.002   8.506  3.0011  0.0791  1.1065
   18MOL0     H 2430  12.395   2.053   8.678  1.9280 -3.3990 -0.3785
   18MOL0     H 2431  12.355   2.246   8.436 -0.2533 -0.0723 -0.4127
   18MOL0     H 2432  12.367   2.284   8.612 -1.0008 -1.4499  0.1329
   18MOL0     H 2433  12.620   2.137   8.705 -1.1621  0.6337  0.0183
   18MOL0     H 2434  12.870   2.278   8.760  1.3115  0.1588  0.6654
   18MOL0     H 2435  12.949   2.303   8.606 -2.1195  0.9733 -0.0010
   18MOL0     H 2436  12.846   2.053   8.727  1.2882 -0.8925  2.4020
   18MOL0     H 2437  12.933   2.035   8.574 -3.0576 -1.6421  0.2091
   18MOL0     H 2438  13.126   2.154   8.690  2.1495 -1.1793  0.9788
   18MOL0     H 2439  13.056   2.131   8.855  0.0824  0.7658 -0.0369
   18MOL0     H 2440  13.051   1.875   8.715  0.9655 -1.0451 -2.2967
   18MOL0     H 2441  13.187   1.962   8.649 -3.0029 -0.3798 -1.5505
   18MOL0     H 2442  13.268   1.842   9.077  2.5970 -1.9692  0.2699
   18MOL0     H 2443  13.438   1.996   9.343  3.4469 -1.5391  0.5621
   18MOL0     H 2444  13.569   1.924   9.276  0.9040 -2.7540 -1.1715
   18MOL0     H 2445  13.424   1.831   9.261  0.5225 -0.6630 -2.2454
   18MOL0     H 2446  13.669   2.524   9.124  0.0103 -1.8732 -0.1641
   18MOL0     H 2447  13.839   2.637   9.246  1.2975  1.5969 -2.4741
   18MOL0     H 2448  14.095   2.723   9.221 -3.0624 -2.3793 -0.8204
   18MOL0     H 2449  14.226   2.685   9.334 -0.3804  3.9168 -1.0534
   18MOL0     H 2450  14.313   2.522   9.161  1.1652 -0.0670 -1.4643
   18MOL0     H 2451  14.177   2.568   9.060 -0.5232  1.1402  0.4590
   18MOL0     H 2452  14.377   2.763   9.175 -1.4174  3.6400  0.3921
   18MOL0     H 2453  14.265   2.802   9.049  5.3763  4.2877  0.0318
   18MOL0     H 2454  14.401   2.627   8.889  0.7135  1.8256 -1.2310
   18MOL0     H 2455  14.492   2.591   9.033  0.1996  0.2152 -1.6577
   18MOL0     H 2456  14.587   2.757   8.878 -0.9743  2.1098 -1.2689
   18MOL0     H 2457  14.465   2.870   8.924  1.5786  2.9842  3.4031
   18MOL0     H 2458  14.657   2.766   9.146 -0.2062  1.4576  0.9674
   18MOL0     H 2459  14.548   2.891   9.145 -1.2376  0.9046 -1.9275
   18MOL0     H 2460  14.678   2.967   8.906 -1.0224 -1.2485 -0.3452
   18MOL0     H 2461  14.801   2.865   8.972  0.5491  0.5413 -0.0626
   18MOL0     H 2462  14.796   2.997   9.181  1.6238  0.4450 -0.9343
   18MOL0     H 2463  14.672   3.113   9.099  0.0301  1.5086 -1.6668
   18MOL0     H 2464  14.106   2.308   9.212  1.0101 -0.2186 -1.2612
   18MOL0     H 2465  13.924   2.172   9.100 -0.4112  0.0434 -0.2132
   18MOL0     H 2466  13.535   2.193   8.865 -2.2325  3.5788  0.7555
   18MOL0     H 2467  13.349   2.095   8.752 -3.2086  0.9892  0.4540
   18MOL0     H 2468  11.441   1.639   8.630  0.3202  1.0751 -0.7796
   18MOL0     H 2469  11.270   1.764   8.751 -0.0278  5.1657 -0.1150
   18MOL0     H 2470  11.088   1.866   9.126  0.2339  0.2013 -0.2124
   18MOL0     H 2471  10.899   1.983   9.218 -0.1897  2.0843 -1.6385
   18MOL0     H 2472  10.734   2.067   9.388  0.4054  0.4521 -0.0120
   18MOL0     H 2473  10.868   1.985   9.442  2.6227  1.0406 -4.0582
   18MOL0     H 2474  10.899   2.138   9.645  2.4470 -3.8584 -1.0494
   18MOL0     H 2475  10.758   2.029   9.648 -2.1691  1.4298 -0.8077
   18MOL0     H 2476  10.666   2.212   9.735  1.5074 -2.0479  1.0060
   18MOL0     H 2477  10.737   2.321   9.622 -0.2445 -0.1000 -1.2300
   18MOL0     H 2478  10.513   2.128   9.536  1.8667  0.0176  0.6340
   18MOL0     H 2479  10.585   2.263   9.441  1.0258 -0.2244 -1.0137
   18MOL0     H 2480  10.296   2.448   9.666 -0.6046 -0.8820  1.0117
   18MOL0     H 2481  11.146   2.296   9.350  0.0329 -0.6283  2.0753
   18MOL0     H 2482  11.364   2.331   9.263 -1.9979  0.4920 -0.0909
   18MOL0     H 2483  11.447   2.181   9.231 -0.6307 -1.1125  0.1788
   18MOL0     H 2484  11.382   2.279   9.093 -0.1971 -0.3105  0.0072
   19MOL0     O 2485   0.430   2.157   4.249 -0.2325 -0.0469 -0.0293
   19MOL0     C 2486   0.360   2.076   4.307 -0.2659 -0.7331 -0.3655
   19MOL0     O 2487   0.255   2.020   4.255  1.0472 -0.1685  0.3626
   19MOL0     C 2488   0.229   1.997   4.124  0.0645 -0.3270  1.2966
   19MOL0     C 2489   0.308   2.023   4.008  0.1688 -0.1284 -0.6433
   19MOL0     C 2490   0.264   1.986   3.882  0.5350 -1.2717 -0.1874
   19MOL0     C 2491   0.140   1.945   3.861  0.3521 -0.0052 -0.0338
   19MOL0     O 2492   0.090   1.926   3.738 -0.2014  0.6969  0.5586
   19MOL0     C 2493  -0.042   1.884   3.703  0.6952 -0.1193 -0.1627
   19MOL0     C 2494  -0.057   1.873   3.553 -0.1555 -0.0425 -0.0005
   19MOL0     C 2495  -0.195   1.810   3.519  0.7899 -0.0286 -0.8153
   19MOL0     C 2496  -0.308   1.918   3.516  0.3025  0.9357  0.0594
   19MOL0     C 2497  -0.437   1.849   3.475  0.1209 -1.0701  0.2390
   19MOL0     C 2498  -0.489   1.736   3.571  0.2157 -0.2273  0.4306
   19MOL0     C 2499  -0.639   1.700   3.538  0.8044  0.2409 -0.5012
   19MOL0     C 2500  -0.736   1.807   3.596 -0.3505  0.1890  0.6118
   19MOL0     N 2501  -0.868   1.746   3.631  0.6434  0.1435  0.1781
   19MOL0     C 2502  -1.000   1.797   3.604 -0.1114  0.7485 -0.3817
   19MOL0     C 2503  -1.075   1.713   3.675  0.2673 -0.3828  0.3606
   19MOL0     C 2504  -1.221   1.709   3.710 -0.6233 -0.2331  0.0604
   19MOL0     C 2505  -1.252   1.691   3.864  0.0416 -0.2753  0.1313
   19MOL0     C 2506  -1.208   1.810   3.956  0.4760 -0.3429  1.0730
   19MOL0     C 2507  -1.232   1.781   4.098 -0.1660 -0.5531 -0.3499
   19MOL0     O 2508  -1.365   1.735   4.119 -0.2321  0.8004  0.1278
   19MOL0     C 2509  -1.404   1.712   4.253 -0.1295  0.6002 -0.5249
   19MOL0     C 2510  -1.330   1.738   4.368  0.7683  0.2024 -0.4017
   19MOL0     C 2511  -1.381   1.742   4.502  0.0919  0.1584 -0.4889
   19MOL0     C 2512  -1.296   1.779   4.625  0.8505 -0.8529 -0.4820
   19MOL0     C 2513  -1.518   1.707   4.512  0.3106 -0.1405 -0.1613
   19MOL0     C 2514  -1.591   1.703   4.640 -0.3065  0.5428  0.0304
   19MOL0     O 2515  -1.726   1.704   4.631 -0.0098  0.2844  0.4067
   19MOL0     C 2516  -1.804   1.653   4.736  0.4659  0.0191  0.3630
   19MOL0     C 2517  -1.769   1.541   4.818 -0.5829 -0.4200 -0.3367
   19MOL0     C 2518  -1.862   1.493   4.907  0.5998 -0.5913 -0.5064
   19MOL0     C 2519  -1.991   1.554   4.926  0.0102  0.1468 -0.6217
   19MOL0     O 2520  -2.077   1.496   5.020 -0.1892 -0.2974 -0.2684
   19MOL0     C 2521  -2.217   1.521   4.995  0.1367  0.1110  0.7004
   19MOL0     C 2522  -2.302   1.480   5.109  0.2640  0.0622  0.3297
   19MOL0     C 2523  -2.252   1.557   5.230  0.2474  0.5133 -0.0814
   19MOL0     C 2524  -2.376   1.571   5.325 -0.1766 -0.6700 -0.6436
   19MOL0     C 2525  -2.406   1.439   5.387 -0.5780  0.3215  0.0236
   19MOL0     C 2526  -2.534   1.418   5.466  0.6150 -0.0572  0.2309
   19MOL0     C 2527  -2.564   1.272   5.518 -0.4581  0.8214 -0.2115
   19MOL0     C 2528  -2.699   1.243   5.590 -0.4028  0.4791  0.2857
   19MOL0    Cl 2529  -2.830   1.264   5.472 -0.0886  0.2696 -0.3573
   19MOL0     C 2530  -2.022   1.658   4.841  0.5797  0.5649 -0.0538
   19MOL0     C 2531  -1.928   1.714   4.752  0.2910  0.5907  0.4642
   19MOL0     O 2532  -1.529   1.699   4.742 -0.6589 -0.7270 -0.3472
   19MOL0     C 2533  -1.590   1.677   4.396  0.4759 -1.0795  1.0896
   19MOL0     C 2534  -1.536   1.677   4.272 -0.7091 -0.6407  0.2641
   19MOL0     N 2535  -1.001   1.619   3.732  0.0320  0.1835  0.0818
   19MOL0     N 2536  -0.883   1.634   3.696 -0.0881  0.1666 -0.2479
   19MOL0     C 2537   0.058   1.917   3.971 -0.4709  0.4396 -0.2970
   19MOL0     C 2538   0.102   1.947   4.103 -0.5671 -0.0153  0.0533
   19MOL0     C 2539   0.384   2.050   4.449  0.4749 -1.1815 -0.6653
   19MOL0     C 2540   0.310   1.943   4.518  0.0527 -0.5046 -0.0261
   19MOL0     C 2541   0.343   1.899   4.643  0.1505  0.2805  0.2100
   19MOL0     C 2542   0.458   1.946   4.700 -0.4185 -0.6297  0.2722
   19MOL0     O 2543   0.505   1.882   4.807  0.1340  0.0251 -1.0180
   19MOL0     C 2544   0.637   1.832   4.799  0.2133  0.2621 -0.5346
   19MOL0     C 2545   0.741   1.897   4.899 -0.2859  0.1769 -0.8032
   19MOL0     C 2546   0.832   1.801   4.980 -0.2805 -1.0303 -0.4134
   19MOL0     C 2547   0.937   1.881   5.058  0.0191 -0.2521 -1.0759
   19MOL0     C 2548   1.041   1.933   4.970 -0.1385 -0.3502  0.5047
   19MOL0     C 2549   1.129   1.996   4.912  0.0679  0.4242 -0.4857
   19MOL0     C 2550   0.534   2.049   4.638  0.1083 -0.1414  0.0345
   19MOL0     C 2551   0.492   2.108   4.520  0.1768  0.0499  0.1317
   19MOL0     C 2552   0.573   2.234   4.492  0.0638 -0.5858  1.3856
   19MOL0     H 2553   0.410   2.060   4.010  0.3299 -0.0666 -4.0365
   19MOL0     H 2554   0.329   2.003   3.797 -1.7611  1.7386 -1.5740
   19MOL0     H 2555  -0.114   1.962   3.730 -0.2120 -0.9059 -0.2183
   19MOL0     H 2556  -0.053   1.790   3.758 -0.0472 -2.3447 -3.7758
   19MOL0     H 2557  -0.045   1.977   3.520 -0.3349  0.7609  2.2880
   19MOL0     H 2558   0.036   1.820   3.528  0.4569  1.4349 -1.0271
   19MOL0     H 2559  -0.175   1.768   3.420 -0.2566 -1.4946 -0.4318
   19MOL0     H 2560  -0.222   1.742   3.600  2.2540  2.4489  1.9179
   19MOL0     H 2561  -0.323   1.954   3.618 -1.7736  0.2729  0.0558
   19MOL0     H 2562  -0.283   2.005   3.456  0.4874  1.0226  0.2593
   19MOL0     H 2563  -0.424   1.793   3.382  4.4688 -0.9824  0.5979
   19MOL0     H 2564  -0.517   1.923   3.468 -1.6243 -2.8125  0.6279
   19MOL0     H 2565  -0.419   1.652   3.573  2.7042  1.7478  1.8647
   19MOL0     H 2566  -0.488   1.770   3.675  2.0243  1.1213  0.0204
   19MOL0     H 2567  -0.660   1.613   3.602 -1.8039  1.7571  0.8739
   19MOL0     H 2568  -0.658   1.679   3.433  0.2407 -2.0640  0.0077
   19MOL0     H 2569  -0.696   1.843   3.691  0.1136  1.5785 -0.0760
   19MOL0     H 2570  -0.744   1.893   3.528 -1.3147 -1.7512 -1.8843
   19MOL0     H 2571  -1.027   1.879   3.538  0.3461  0.2011 -1.2648
   19MOL0     H 2572  -1.272   1.632   3.651 -3.0214  1.4382 -0.2070
   19MOL0     H 2573  -1.275   1.802   3.688 -0.7633  0.0028  1.3021
   19MOL0     H 2574  -1.359   1.673   3.875  0.1414 -0.3472  1.1247
   19MOL0     H 2575  -1.205   1.607   3.916  2.2088 -0.0101 -1.2640
   19MOL0     H 2576  -1.102   1.838   3.958  0.4406 -0.2470  2.2570
   19MOL0     H 2577  -1.262   1.902   3.931  0.5540 -0.1203  1.6887
   19MOL0     H 2578  -1.164   1.707   4.138 -1.4525 -0.0074  3.1685
   19MOL0     H 2579  -1.207   1.869   4.158 -0.5013 -1.7097  1.5683
   19MOL0     H 2580  -1.228   1.772   4.353  0.6240  1.1127  0.5871
   19MOL0     H 2581  -1.262   1.693   4.683 -3.6362 -0.9723  2.4763
   19MOL0     H 2582  -1.346   1.833   4.706  1.3779 -0.1869 -0.5966
   19MOL0     H 2583  -1.209   1.831   4.585 -0.4084  0.5355 -1.5477
   19MOL0     H 2584  -1.670   1.498   4.807  0.4116  1.3959  0.9847
   19MOL0     H 2585  -1.832   1.407   4.965  0.1938 -1.0134 -0.9091
   19MOL0     H 2586  -2.234   1.626   4.971  3.5071  0.4342 -0.8681
   19MOL0     H 2587  -2.243   1.462   4.907  1.0816  1.7984 -0.7832
   19MOL0     H 2588  -2.406   1.495   5.078 -1.1050 -0.6029  4.0825
   19MOL0     H 2589  -2.287   1.372   5.123 -4.7911 -1.2175 -1.6517
   19MOL0     H 2590  -2.228   1.660   5.204 -0.3546  1.4502  2.7586
   19MOL0     H 2591  -2.168   1.508   5.281  0.4534  1.4735  0.5265
   19MOL0     H 2592  -2.466   1.609   5.276 -0.1497 -1.3193 -1.2193
   19MOL0     H 2593  -2.352   1.644   5.403  3.2699 -2.1538 -0.1555
   19MOL0     H 2594  -2.410   1.357   5.315 -3.4785 -1.4890  2.0323
   19MOL0     H 2595  -2.325   1.423   5.459  0.6285  1.6850 -0.9549
   19MOL0     H 2596  -2.616   1.450   5.399 -2.7066 -0.7101  3.6586
   19MOL0     H 2597  -2.539   1.478   5.557  0.3011  0.8079 -0.3411
   19MOL0     H 2598  -2.479   1.263   5.586  0.2399  1.7008 -0.9335
   19MOL0     H 2599  -2.550   1.195   5.441 -0.5333 -0.2962  0.8719
   19MOL0     H 2600  -2.704   1.288   5.689  6.3555  3.6897 -0.3218
   19MOL0     H 2601  -2.693   1.136   5.613  0.0072  0.1992 -0.9853
   19MOL0     H 2602  -2.109   1.722   4.856  1.1276  1.6493 -1.2854
   19MOL0     H 2603  -1.956   1.795   4.686 -0.4048 -1.7963 -2.4019
   19MOL0     H 2604  -1.698   1.665   4.399 -0.1522  2.9003  0.3749
   19MOL0     H 2605  -1.580   1.648   4.178 -0.2149 -2.4586  0.5484
   19MOL0     H 2606  -0.040   1.873   3.956 -1.3924  1.6623  1.6239
   19MOL0     H 2607   0.036   1.929   4.187 -1.7469  2.8099 -0.1296
   19MOL0     H 2608   0.219   1.904   4.473 -1.9800 -2.1840  4.9377
   19MOL0     H 2609   0.282   1.831   4.701  2.5100 -0.1919  2.2610
   19MOL0     H 2610   0.610   1.736   4.845  0.4191  1.8755  3.3735
   19MOL0     H 2611   0.688   1.817   4.703  2.1667 -0.9478  0.6091
   19MOL0     H 2612   0.678   1.953   4.969  0.1561  0.8432 -0.9289
   19MOL0     H 2613   0.800   1.965   4.836  1.5729  0.0452  0.6911
   19MOL0     H 2614   0.764   1.755   5.052 -0.6531  3.3570  2.4335
   19MOL0     H 2615   0.883   1.736   4.909  1.6897  1.5703 -1.5379
   19MOL0     H 2616   0.984   1.826   5.140 -3.3463 -2.1268 -0.2349
   19MOL0     H 2617   0.898   1.972   5.104  1.7479 -1.2700  2.8223
   19MOL0     H 2618   1.213   2.042   4.863 -0.4008  0.9152 -0.8419
   19MOL0     H 2619   0.632   2.064   4.683  0.2274  1.5874 -0.7287
   19MOL0     H 2620   0.574   2.293   4.584  0.2663  2.3532 -0.3643
   19MOL0     H 2621   0.675   2.222   4.452  0.2880  1.7280  1.1135
   19MOL0     H 2622   0.523   2.301   4.422  0.4173  0.7878  2.4072
   20MOL0     O 2623   5.497   3.774   6.695 -0.1943 -0.8538 -0.5028
   20MOL0     C 2624   5.501   3.868   6.777 -0.0411  0.6354  0.7776
   20MOL0     O 2625   5.586   3.971   6.783 -0.2450 -0.1326 -0.1888
   20MOL0     C 2626   5.700   3.969   6.707  0.3525  0.0206  0.2671
   20MOL0     C 2627   5.775   3.850   6.677 -0.1862 -1.0403  0.0926
   20MOL0     C 2628   5.906   3.859   6.633  0.7532 -0.2706 -0.4143
   20MOL0     C 2629   5.967   3.983   6.610  1.5681 -0.8795 -0.7576
   20MOL0     O 2630   6.096   3.987   6.570 -0.8505 -0.0914 -0.3534
   20MOL0     C 2631   6.183   3.936   6.665  0.3627 -0.1298  0.1472
   20MOL0     C 2632   6.309   4.018   6.664 -0.4371 -0.1168 -0.7237
   20MOL0     C 2633   6.363   4.036   6.522  0.6328  0.2965 -0.1715
   20MOL0     C 2634   6.519   4.031   6.523  0.4760  0.1140 -0.5122
   20MOL0     C 2635   6.564   4.079   6.385 -0.0857 -0.4473 -0.2357
   20MOL0     C 2636   6.561   3.974   6.269 -0.3338 -0.0365 -0.3185
   20MOL0     C 2637   6.673   3.987   6.178  0.2823 -0.0910 -0.1102
   20MOL0     C 2638   6.662   4.112   6.082 -0.6312 -0.1707 -0.1078
   20MOL0     N 2639   6.800   4.143   6.023  0.1720 -0.7412  0.0650
   20MOL0     C 2640   6.864   4.088   5.912  0.8961 -0.1055 -0.3483
   20MOL0     C 2641   6.971   4.161   5.873 -0.4544 -0.4997 -0.4403
   20MOL0     C 2642   7.078   4.127   5.767 -0.0746  0.2175  0.2152
   20MOL0     C 2643   7.036   4.023   5.668 -0.6923  0.3071 -0.1464
   20MOL0     C 2644   7.131   3.989   5.551 -0.6870 -0.1775  0.2797
   20MOL0     C 2645   7.241   3.884   5.577 -0.3445  1.0399  0.0326
   20MOL0     O 2646   7.327   3.872   5.465  0.1156 -0.5763 -0.2687
   20MOL0     C 2647   7.426   3.962   5.444  0.2295  0.3769 -0.8080
   20MOL0     C 2648   7.445   4.078   5.521  0.3851 -0.2267  0.1035
   20MOL0     C 2649   7.563   4.147   5.510  0.3070 -0.5767 -0.7182
   20MOL0     C 2650   7.590   4.266   5.593  0.0685 -0.0350 -0.2738
   20MOL0     C 2651   7.649   4.123   5.400  0.2782  0.6492  0.0622
   20MOL0     C 2652   7.774   4.193   5.376  0.3498 -0.9458 -0.8289
   20MOL0     O 2653   7.800   4.233   5.255 -0.1397 -0.0476  0.0020
   20MOL0     C 2654   7.920   4.295   5.237 -0.7826 -0.7270 -0.2529
   20MOL0     C 2655   8.041   4.236   5.187  0.7154 -0.6280 -0.4448
   20MOL0     C 2656   8.152   4.317   5.161  0.6926 -0.0376  0.2355
   20MOL0     C 2657   8.158   4.452   5.202 -0.2766  0.6253  0.8256
   20MOL0     O 2658   8.273   4.530   5.184 -0.2848 -0.0687 -0.0987
   20MOL0     C 2659   8.398   4.483   5.128 -0.5188 -0.4147 -0.0179
   20MOL0     C 2660   8.495   4.599   5.122 -0.5789 -0.9552  0.3379
   20MOL0     C 2661   8.481   4.686   5.001 -0.0102  0.5971 -0.3773
   20MOL0     C 2662   8.596   4.784   4.976 -0.1744 -0.1237 -0.1901
   20MOL0     C 2663   8.733   4.722   4.962  0.5027 -0.0140 -1.0179
   20MOL0     C 2664   8.841   4.823   4.936 -0.6560 -0.3240 -0.1642
   20MOL0     C 2665   8.979   4.768   4.983 -0.1572 -0.7776  0.4944
   20MOL0     C 2666   9.080   4.881   4.991  0.1644  1.6549 -0.9558
   20MOL0    Cl 2667   9.086   4.964   4.832  0.0640 -0.2483  0.0914
   20MOL0     C 2668   8.035   4.509   5.230  0.0654 -0.1957 -0.5593
   20MOL0     C 2669   7.924   4.430   5.249 -0.0640  0.6574  0.4905
   20MOL0     O 2670   7.835   4.220   5.480 -0.8574 -1.0093  0.3614
   20MOL0     C 2671   7.620   4.017   5.313  0.1454 -0.4814  0.0013
   20MOL0     C 2672   7.512   3.940   5.336 -0.2031  0.1597  0.2855
   20MOL0     N 2673   6.972   4.275   5.949 -0.1585 -0.3665 -0.2340
   20MOL0     N 2674   6.873   4.259   6.041 -0.3803 -0.2008  0.0290
   20MOL0     C 2675   5.894   4.099   6.634 -0.4446  0.5108  0.1615
   20MOL0     C 2676   5.763   4.092   6.674  0.7877 -0.3678 -0.8084
   20MOL0     C 2677   5.377   3.886   6.856  0.1447  0.4359  0.6570
   20MOL0     C 2678   5.389   3.982   6.960 -0.0868  0.6929  0.2685
   20MOL0     C 2679   5.291   4.006   7.049 -0.0179 -0.7073  0.2006
   20MOL0     C 2680   5.169   3.948   7.037  0.2710  0.4529  0.3521
   20MOL0     O 2681   5.088   3.983   7.139 -0.2437 -0.7657  0.0323
   20MOL0     C 2682   4.950   4.001   7.100 -0.0783  0.4450  0.9039
   20MOL0     C 2683   4.943   4.108   6.987  0.1164 -0.3505  0.6685
   20MOL0     C 2684   4.799   4.158   6.972 -0.2386 -0.3453  0.3433
   20MOL0     C 2685   4.773   4.236   6.842  0.3918 -0.3361 -0.0856
   20MOL0     C 2686   4.864   4.342   6.805  0.0497 -0.3124 -0.4230
   20MOL0     C 2687   4.944   4.422   6.777  0.1398 -0.9370  0.8550
   20MOL0     C 2688   5.142   3.855   6.933 -0.2075  0.6758 -0.7180
   20MOL0     C 2689   5.247   3.823   6.842 -0.0423  0.3961 -0.5957
   20MOL0     C 2690   5.210   3.719   6.742  0.5502 -0.0445  0.5837
   20MOL0     H 2691   5.728   3.767   6.729 -1.3866  1.0056  2.5614
   20MOL0     H 2692   5.972   3.773   6.641  1.8517  0.7331  2.9759
   20MOL0     H 2693   6.209   3.833   6.640  4.2927  0.0662  2.4783
   20MOL0     H 2694   6.143   3.927   6.766  1.9124 -2.6491  0.6259
   20MOL0     H 2695   6.288   4.113   6.714  1.0964 -0.0240 -0.1973
   20MOL0     H 2696   6.380   3.975   6.736 -0.6423  0.6383 -0.0563
   20MOL0     H 2697   6.335   3.952   6.458  1.0403  0.7675 -0.9838
   20MOL0     H 2698   6.312   4.119   6.471  1.0637 -0.2611 -1.5808
   20MOL0     H 2699   6.558   4.089   6.607  1.0129 -4.9406  3.1986
   20MOL0     H 2700   6.555   3.931   6.549  1.3663  0.2114 -1.3135
   20MOL0     H 2701   6.669   4.107   6.397  0.3694 -2.2610  0.2967
   20MOL0     H 2702   6.511   4.173   6.364  0.5788  0.0914  0.4433
   20MOL0     H 2703   6.577   3.879   6.321 -0.0344  1.1767  1.9471
   20MOL0     H 2704   6.462   3.971   6.221  0.5385 -2.5939 -2.1426
   20MOL0     H 2705   6.681   3.894   6.121 -1.0493 -1.0577  1.1908
   20MOL0     H 2706   6.765   3.997   6.236  3.2680  0.0123 -4.4142
   20MOL0     H 2707   6.592   4.090   6.000  0.7101  0.5483 -1.5061
   20MOL0     H 2708   6.626   4.197   6.140  1.3934 -0.3191  1.4711
   20MOL0     H 2709   6.820   3.999   5.868 -0.3287 -0.1855  0.9576
   20MOL0     H 2710   7.168   4.090   5.818  1.4086  1.4078 -1.4255
   20MOL0     H 2711   7.119   4.223   5.733 -1.7781  2.0490  2.9082
   20MOL0     H 2712   7.022   3.926   5.717 -1.5268 -0.5017 -1.9052
   20MOL0     H 2713   6.938   4.053   5.629 -0.7721 -0.2621 -0.3943
   20MOL0     H 2714   7.070   3.956   5.467 -0.3215  2.6934 -1.2461
   20MOL0     H 2715   7.184   4.081   5.523  2.3289 -2.2804 -1.5455
   20MOL0     H 2716   7.308   3.914   5.658  0.8266  4.4904 -1.9793
   20MOL0     H 2717   7.191   3.790   5.600 -0.6520  1.7525  2.5225
   20MOL0     H 2718   7.383   4.101   5.608  3.6092  0.3352  2.4246
   20MOL0     H 2719   7.589   4.358   5.534 -3.2336 -0.2394 -0.7367
   20MOL0     H 2720   7.683   4.263   5.650  0.3243 -0.3731 -0.7047
   20MOL0     H 2721   7.505   4.288   5.658 -0.0964  0.2943 -0.5993
   20MOL0     H 2722   8.040   4.137   5.141  1.2958  0.1990 -2.3502
   20MOL0     H 2723   8.242   4.272   5.120 -0.3775  0.3921 -2.8843
   20MOL0     H 2724   8.438   4.403   5.191 -0.1996 -0.0636  0.2272
   20MOL0     H 2725   8.370   4.442   5.030 -0.5039  1.9820 -1.1065
   20MOL0     H 2726   8.499   4.665   5.209  3.3254  0.9146 -1.0222
   20MOL0     H 2727   8.593   4.553   5.109 -0.5669 -0.5892 -1.0706
   20MOL0     H 2728   8.387   4.742   5.001 -1.1746 -1.2425 -0.2563
   20MOL0     H 2729   8.477   4.621   4.913 -1.9829  1.9364 -1.3295
   20MOL0     H 2730   8.596   4.852   5.062  1.3951  1.4058 -1.3211
   20MOL0     H 2731   8.575   4.838   4.883  1.6871 -0.4690 -0.8402
   20MOL0     H 2732   8.754   4.665   5.053  1.6327 -1.1611 -1.9543
   20MOL0     H 2733   8.737   4.654   4.876  2.8305  1.5149 -2.2506
   20MOL0     H 2734   8.828   4.926   4.969  0.0801  0.1388 -1.2768
   20MOL0     H 2735   8.847   4.814   4.827  1.9538 -0.2413 -0.0908
   20MOL0     H 2736   9.011   4.705   4.899  1.1344  0.9970 -0.4087
   20MOL0     H 2737   8.980   4.713   5.078  2.0474 -0.6022  0.6167
   20MOL0     H 2738   9.177   4.843   5.026  0.7630  2.7508 -1.3562
   20MOL0     H 2739   9.057   4.957   5.065  2.5029  2.4983 -0.9918
   20MOL0     H 2740   8.046   4.610   5.268  3.1362  0.2097 -2.1639
   20MOL0     H 2741   7.843   4.501   5.269 -0.0626  1.0939 -0.9489
   20MOL0     H 2742   7.682   3.998   5.226 -2.4236  1.6375 -2.5113
   20MOL0     H 2743   7.515   3.851   5.274  1.9894  0.0964  0.3893
   20MOL0     H 2744   5.944   4.191   6.607  3.0218 -1.0706  0.4930
   20MOL0     H 2745   5.708   4.182   6.698 -1.2925 -1.7383 -0.2175
   20MOL0     H 2746   5.484   4.021   6.997  0.2455 -2.5451  3.4068
   20MOL0     H 2747   5.300   4.080   7.128 -0.5449  0.4726 -0.8072
   20MOL0     H 2748   4.917   3.898   7.082  3.1035 -0.5339  0.0101
   20MOL0     H 2749   4.899   4.034   7.192  2.2985  2.0746  1.7290
   20MOL0     H 2750   4.978   4.068   6.891 -0.5691  0.2414  0.1629
   20MOL0     H 2751   5.005   4.194   7.012  0.9872  0.3677 -3.2189
   20MOL0     H 2752   4.729   4.073   6.970 -2.6225  1.4949  1.0288
   20MOL0     H 2753   4.780   4.215   7.063 -1.1470 -2.1073  1.3102
   20MOL0     H 2754   4.671   4.276   6.836  0.7761  0.8877  1.0799
   20MOL0     H 2755   4.783   4.162   6.762  2.7295  0.0523 -0.2115
   20MOL0     H 2756   5.001   4.508   6.747 -0.1940 -1.1047 -0.3198
   20MOL0     H 2757   5.057   3.788   6.931  0.5660 -0.3602 -0.0922
   20MOL0     H 2758   5.197   3.758   6.641  0.8459  1.1301  0.9848
   20MOL0     H 2759   5.294   3.650   6.731 -1.2787 -2.2244 -0.7706
   20MOL0     H 2760   5.125   3.654   6.764 -0.1271  1.0744  1.3968
   21MOL0     O 2761  10.377   9.105   9.770 -0.1564  0.5265 -0.1016
   21MOL0     C 2762  10.445   9.140   9.869  0.0894  0.1122  0.2985
   21MOL0     O 2763  10.572   9.176   9.862  0.1197  0.2711  0.5934
   21MOL0     C 2764  10.630   9.143   9.744 -0.8294 -0.1232  0.3409
   21MOL0     C 2765  10.703   9.025   9.733 -0.3753  0.4240  0.2418
   21MOL0     C 2766  10.763   8.983   9.614 -0.3116 -0.1602  0.9040
   21MOL0     C 2767  10.760   9.068   9.502  1.0242 -0.2525 -0.1263
   21MOL0     O 2768  10.832   9.038   9.394 -0.4336 -0.1492  0.4490
   21MOL0     C 2769  10.923   9.135   9.345  0.0210  0.1700 -0.7090
   21MOL0     C 2770  11.039   9.162   9.440  1.0863 -0.7942  0.1117
   21MOL0     C 2771  11.140   9.042   9.459  0.1757  0.5772 -0.8882
   21MOL0     C 2772  11.280   9.085   9.483 -0.1399 -0.6555  1.1798
   21MOL0     C 2773  11.386   8.974   9.527  0.0057 -0.1911  0.3446
   21MOL0     C 2774  11.399   8.983   9.679 -1.2032 -0.2256  0.0657
   21MOL0     C 2775  11.495   8.864   9.735  1.0053 -0.2411  0.7615
   21MOL0     C 2776  11.562   8.901   9.871  0.3064 -0.1788 -0.2382
   21MOL0     N 2777  11.661   9.009   9.869  1.1261 -0.2719  0.3034
   21MOL0     C 2778  11.641   9.134   9.932  0.1670  0.9212  0.7954
   21MOL0     C 2779  11.765   9.181   9.938 -0.5283 -0.6383  0.7868
   21MOL0     C 2780  11.786   9.309  10.005 -0.2419  0.3017  0.3889
   21MOL0     C 2781  11.922   9.379   9.994 -0.0238  0.4970  0.5048
   21MOL0     C 2782  11.926   9.514  10.080 -0.4601 -0.6354 -0.0580
   21MOL0     C 2783  12.064   9.572  10.061  0.8028 -0.4961 -0.9114
   21MOL0     O 2784  12.065   9.686  10.149 -0.5997 -0.3040  0.1557
   21MOL0     C 2785  12.178   9.759  10.181  0.0021  0.5170 -0.0167
   21MOL0     C 2786  12.167   9.870  10.263 -0.8338 -0.2966 -0.0784
   21MOL0     C 2787  12.282   9.940  10.313 -0.2579  0.5227  0.3189
   21MOL0     C 2788  12.262  10.049  10.413 -0.6187 -0.2899 -0.2386
   21MOL0     C 2789  12.416   9.902  10.264 -0.0159  0.0778 -0.4771
   21MOL0     C 2790  12.545   9.962  10.302  0.0456 -0.8423  0.1137
   21MOL0     O 2791  12.653   9.910  10.247 -0.1378 -0.6965 -0.5591
   21MOL0     C 2792  12.775   9.985  10.250  0.4323  0.8334 -0.6103
   21MOL0     C 2793  12.823  10.058  10.147  0.0739 -0.2078 -0.5112
   21MOL0     C 2794  12.950  10.117  10.162  0.7379  0.7599  1.2447
   21MOL0     C 2795  13.028  10.102  10.279 -0.5015  0.6609  1.0687
   21MOL0     O 2796  13.158  10.147  10.286  0.4965  0.5393  0.6105
   21MOL0     C 2797  13.187  10.261  10.205 -0.9827 -0.2199  0.4685
   21MOL0     C 2798  13.327  10.312  10.246 -0.1541  0.4500  0.2566
   21MOL0     C 2799  13.370  10.437  10.176  0.4681 -0.5426 -0.8587
   21MOL0     C 2800  13.488  10.498  10.249 -0.4983 -0.0196  0.5897
   21MOL0     C 2801  13.550  10.607  10.164  0.4595  0.8919 -0.7718
   21MOL0     C 2802  13.691  10.646  10.186  0.4012 -0.1984 -0.1623
   21MOL0     C 2803  13.736  10.769  10.100 -0.2078  0.4262  0.0675
   21MOL0     C 2804  13.883  10.803  10.137  0.4730  0.4470  0.0947
   21MOL0    Cl 2805  13.943  10.910  10.008  0.2086 -0.2510  0.1206
   21MOL0     C 2806  12.975  10.042  10.388  0.3934  0.7650  0.3028
   21MOL0     C 2807  12.846   9.975  10.377 -0.4079 -0.3201  0.2472
   21MOL0     O 2808  12.548  10.062  10.369  0.4439 -0.6251  0.1244
   21MOL0     C 2809  12.423   9.794  10.176 -0.3480 -0.4818  0.9007
   21MOL0     C 2810  12.310   9.723  10.134 -0.3241  0.6636 -0.6541
   21MOL0     N 2811  11.852   9.098   9.871  0.2771 -0.0791  0.8642
   21MOL0     N 2812  11.786   8.999   9.828 -0.7706  0.0338  0.8975
   21MOL0     C 2813  10.678   9.187   9.501  0.6483 -0.1923 -0.5532
   21MOL0     C 2814  10.620   9.226   9.628 -0.0684  0.4360  0.3488
   21MOL0     C 2815  10.380   9.143  10.001  0.5241  0.6499 -0.1178
   21MOL0     C 2816  10.241   9.155  10.021  0.5641  0.6154  0.5691
   21MOL0     C 2817  10.187   9.147  10.147  0.3829  0.1474  0.3200
   21MOL0     C 2818  10.258   9.144  10.259  0.6670 -0.1977  0.3231
   21MOL0     O 2819  10.200   9.148  10.381  0.3204  0.5454  0.9491
   21MOL0     C 2820  10.083   9.070  10.407  0.5216  1.2742 -0.4718
   21MOL0     C 2821  10.099   8.921  10.376 -0.2750  0.1954  0.1934
   21MOL0     C 2822   9.979   8.843  10.444  0.0425 -0.0273 -1.0239
   21MOL0     C 2823   9.991   8.699  10.397  0.0844  0.2170  0.2139
   21MOL0     C 2824   9.855   8.631  10.408  0.4112 -0.7088 -0.4155
   21MOL0     C 2825   9.743   8.583  10.427 -0.0428 -0.1554  0.0988
   21MOL0     C 2826  10.392   9.123  10.244  0.3123  0.2612 -0.2322
   21MOL0     C 2827  10.457   9.123  10.116 -0.1291  0.4229  0.2278
   21MOL0     C 2828  10.604   9.085  10.125  0.2635  0.1413  0.0871
   21MOL0     H 2829  10.692   8.959   9.818  0.8443 -1.2877 -0.8610
   21MOL0     H 2830  10.820   8.892   9.606  2.0196  1.0628  2.4917
   21MOL0     H 2831  10.874   9.228   9.316 -1.9880 -1.2085 -2.0517
   21MOL0     H 2832  10.976   9.110   9.252  0.1074  3.8041 -1.7991
   21MOL0     H 2833  11.091   9.243   9.386  1.6471 -1.9907 -1.2092
   21MOL0     H 2834  11.000   9.212   9.529 -0.1245 -1.5003 -0.0094
   21MOL0     H 2835  11.101   8.987   9.545  0.1898 -0.8824 -1.7795
   21MOL0     H 2836  11.133   8.959   9.388  0.6712 -2.1105  1.9710
   21MOL0     H 2837  11.313   9.131   9.389  0.8572 -0.6289  1.5275
   21MOL0     H 2838  11.276   9.170   9.551  3.1431  1.5796 -1.0961
   21MOL0     H 2839  11.481   8.996   9.477  0.3271 -0.9651  0.6000
   21MOL0     H 2840  11.345   8.877   9.496  1.4928 -0.7426  0.0490
   21MOL0     H 2841  11.436   9.084   9.701 -0.5518 -0.1439 -1.2874
   21MOL0     H 2842  11.299   8.968   9.720 -1.2350 -1.4921 -0.4254
   21MOL0     H 2843  11.565   8.867   9.651 -0.4928  0.8019 -0.4873
   21MOL0     H 2844  11.428   8.778   9.730 -3.0058  2.6526 -0.3958
   21MOL0     H 2845  11.483   8.920   9.944 -1.8847 -0.0521 -2.5175
   21MOL0     H 2846  11.622   8.821   9.916  1.8900  0.9677 -0.2052
   21MOL0     H 2847  11.545   9.166   9.972 -0.0780 -1.0755  1.9321
   21MOL0     H 2848  11.766   9.286  10.110  0.6266 -0.1785  0.4593
   21MOL0     H 2849  11.718   9.380   9.957 -1.4045  0.3312  2.0115
   21MOL0     H 2850  11.995   9.303  10.021 -1.1821 -0.9812 -0.3923
   21MOL0     H 2851  11.946   9.410   9.892  1.4428 -0.8523  0.4005
   21MOL0     H 2852  11.847   9.585  10.056 -1.6944 -2.1098 -0.5646
   21MOL0     H 2853  11.917   9.484  10.185 -0.6052  2.2305  0.8103
   21MOL0     H 2854  12.136   9.502  10.105  2.1916  1.2403 -0.2669
   21MOL0     H 2855  12.092   9.591   9.957  3.4445  1.5879  0.0497
   21MOL0     H 2856  12.068   9.908  10.285  0.0944  2.5756 -0.4080
   21MOL0     H 2857  12.322  10.032  10.503 -1.7890 -1.9373  0.2784
   21MOL0     H 2858  12.167  10.039  10.465 -0.4232  2.0372  0.6799
   21MOL0     H 2859  12.283  10.152  10.382  0.3705  0.5856  2.9542
   21MOL0     H 2860  12.763  10.075  10.058 -0.7981  2.1876  0.4634
   21MOL0     H 2861  12.988  10.157  10.069  2.0427  0.2938  1.5592
   21MOL0     H 2862  13.202  10.229  10.101  3.3631 -0.1282  0.8830
   21MOL0     H 2863  13.116  10.344  10.216  0.1112  0.5554  2.0205
   21MOL0     H 2864  13.325  10.327  10.355  2.2973  0.4070  0.3623
   21MOL0     H 2865  13.395  10.228  10.228 -0.3567  0.4146 -0.3542
   21MOL0     H 2866  13.292  10.513  10.179  1.2242  0.3208 -1.8414
   21MOL0     H 2867  13.393  10.409  10.072 -1.7648 -1.0152 -1.2770
   21MOL0     H 2868  13.558  10.419  10.279  0.0562  0.2344  0.0115
   21MOL0     H 2869  13.446  10.540  10.341  0.6090  0.7812  0.7508
   21MOL0     H 2870  13.540  10.579  10.059 -1.1677 -0.1250 -0.3709
   21MOL0     H 2871  13.491  10.699  10.166 -0.4119  0.4087 -2.6244
   21MOL0     H 2872  13.752  10.561  10.154 -0.6097 -2.4970  3.4689
   21MOL0     H 2873  13.709  10.657  10.293  0.7363  0.8198 -0.3157
   21MOL0     H 2874  13.670  10.850  10.134 -0.5151 -0.5175  1.8681
   21MOL0     H 2875  13.717  10.747   9.995  2.0475  1.4380 -0.6114
   21MOL0     H 2876  13.942  10.713  10.122 -1.4505 -0.4852 -2.9024
   21MOL0     H 2877  13.907  10.840  10.237 -1.5636  0.3418  0.6707
   21MOL0     H 2878  13.035  10.046  10.479  3.3481  3.4162 -1.5754
   21MOL0     H 2879  12.810   9.921  10.464  1.0751 -1.1995  0.3627
   21MOL0     H 2880  12.521   9.762  10.143  0.2722  0.1705  2.0532
   21MOL0     H 2881  12.310   9.637  10.068  2.5015  1.0284 -1.2482
   21MOL0     H 2882  10.675   9.256   9.418  2.6984  0.1823 -0.3767
   21MOL0     H 2883  10.562   9.317   9.632  1.8041  1.6451  1.8870
   21MOL0     H 2884  10.176   9.172   9.935  2.0533  2.2251 -0.3100
   21MOL0     H 2885  10.080   9.167  10.148  0.3930  0.8406 -2.6889
   21MOL0     H 2886  10.070   9.069  10.515  2.4296 -2.8473 -0.0818
   21MOL0     H 2887   9.995   9.109  10.356 -0.8702  0.7314  1.4099
   21MOL0     H 2888  10.196   8.904  10.424 -0.6525  2.1811  1.8076
   21MOL0     H 2889  10.103   8.893  10.270 -2.4074 -0.6492  0.2838
   21MOL0     H 2890   9.960   8.863  10.550 -1.4677 -2.1950 -0.8014
   21MOL0     H 2891   9.889   8.888  10.401  1.6395  2.4384 -2.0084
   21MOL0     H 2892  10.071   8.656  10.458  0.5018  1.2308  0.4083
   21MOL0     H 2893  10.012   8.695  10.290  4.0564 -0.9290  0.8902
   21MOL0     H 2894   9.644   8.544  10.414  0.1271  0.1671 -2.8383
   21MOL0     H 2895  10.452   9.116  10.334 -1.7423  1.3790  1.3081
   21MOL0     H 2896  10.613   9.012  10.044  0.9862  0.7088 -0.3591
   21MOL0     H 2897  10.669   9.171  10.108 -0.9616  1.1023  0.0780
   21MOL0     H 2898  10.629   9.033  10.218  1.6107  0.9021  0.1742
   22MOL0     O 2899   6.817   6.071   1.653 -0.6390  0.5138  0.2909
   22MOL0     C 2900   6.755   6.039   1.759  0.0935 -0.4862  0.7481
   22MOL0     O 2901   6.812   6.021   1.878 -0.5703  0.4939  0.1644
   22MOL0     C 2902   6.951   6.022   1.901 -0.0367  0.3843  0.4588
   22MOL0     C 2903   7.014   6.144   1.905  0.2518  0.6075 -0.7299
   22MOL0     C 2904   7.148   6.150   1.932 -1.4009 -0.5558 -0.2697
   22MOL0     C 2905   7.226   6.032   1.942 -0.9448  0.2683 -0.1043
   22MOL0     O 2906   7.363   6.042   1.954  0.9004 -0.6155  0.3172
   22MOL0     C 2907   7.452   5.928   1.928 -0.3753 -0.3015 -0.5498
   22MOL0     C 2908   7.576   5.987   2.001 -0.6251  0.3148  0.0250
   22MOL0     C 2909   7.698   5.898   2.011 -0.6237  0.0918  0.2917
   22MOL0     C 2910   7.810   5.928   1.907  0.0562  0.2636 -0.8364
   22MOL0     C 2911   7.923   5.826   1.913 -0.0439 -0.8547  0.3722
   22MOL0     C 2912   7.996   5.823   2.041 -0.3345  0.0442 -0.5308
   22MOL0     C 2913   8.080   5.694   2.044  0.1692 -0.9590  1.2403
   22MOL0     C 2914   8.155   5.686   2.175  0.8983  0.0639 -0.2541
   22MOL0     N 2915   8.251   5.578   2.191  0.3360  0.3818  0.1740
   22MOL0     C 2916   8.273   5.513   2.308  0.5397 -0.2384 -0.5340
   22MOL0     C 2917   8.365   5.420   2.277  1.1143 -0.5442 -0.7987
   22MOL0     C 2918   8.427   5.319   2.373  0.0022 -0.4383 -0.4905
   22MOL0     C 2919   8.579   5.313   2.344  0.0809  0.0521  0.0619
   22MOL0     C 2920   8.651   5.448   2.352 -0.3130 -0.5922 -0.5103
   22MOL0     C 2921   8.794   5.455   2.319 -1.0851  0.2494 -0.1320
   22MOL0     O 2922   8.872   5.369   2.403  0.3348 -0.1035 -0.2605
   22MOL0     C 2923   9.007   5.370   2.400  0.0832  0.0856 -0.6034
   22MOL0     C 2924   9.083   5.484   2.402 -1.2381 -0.6935 -0.2190
   22MOL0     C 2925   9.228   5.472   2.398  0.5120  0.2987  0.6398
   22MOL0     C 2926   9.309   5.596   2.374 -0.2087 -0.7808  0.7195
   22MOL0     C 2927   9.290   5.345   2.396 -0.6680 -0.5667 -0.5543
   22MOL0     C 2928   9.430   5.313   2.404 -1.1321  0.5696  1.4901
   22MOL0     O 2929   9.471   5.193   2.343  0.4213 -0.1320 -0.2781
   22MOL0     C 2930   9.599   5.161   2.371  0.7170 -0.2856  0.2018
   22MOL0     C 2931   9.617   5.032   2.423  0.2871  0.5521  0.4090
   22MOL0     C 2932   9.748   4.981   2.435 -0.1301  0.5361 -0.0513
   22MOL0     C 2933   9.864   5.056   2.404  0.2723 -0.5215 -0.6041
   22MOL0     O 2934   9.987   4.990   2.396  0.6377  0.0030 -0.0396
   22MOL0     C 2935  10.110   5.064   2.393 -0.1014 -0.0705  0.2212
   22MOL0     C 2936  10.224   4.967   2.421  0.4489  0.0040 -0.9379
   22MOL0     C 2937  10.368   5.016   2.408 -0.8540 -0.2847  0.3416
   22MOL0     C 2938  10.412   5.021   2.262  0.7920 -0.1454 -0.4214
   22MOL0     C 2939  10.549   5.087   2.246 -0.8176  0.1739 -0.4519
   22MOL0     C 2940  10.629   5.056   2.120 -0.0585  0.2563 -0.1058
   22MOL0     C 2941  10.774   5.116   2.141  1.0241  0.8750 -0.2898
   22MOL0     C 2942  10.867   5.058   2.036  0.1255 -0.3301  0.8914
   22MOL0    Cl 2943  11.025   5.141   2.038  0.0527 -0.3391  0.2215
   22MOL0     C 2944   9.840   5.194   2.370  0.3970 -0.6352 -0.4025
   22MOL0     C 2945   9.708   5.242   2.344 -0.4936  1.1672 -0.4679
   22MOL0     O 2946   9.497   5.387   2.477  0.1592 -0.0524 -0.4966
   22MOL0     C 2947   9.203   5.235   2.399  0.4058 -0.2770  1.1765
   22MOL0     C 2948   9.066   5.240   2.410  0.6162  0.1079  0.1940
   22MOL0     N 2949   8.379   5.411   2.140 -0.5075 -1.3398  1.3089
   22MOL0     N 2950   8.311   5.515   2.095  0.2711 -0.3310  0.3794
   22MOL0     C 2951   7.161   5.911   1.928  1.0207  0.7752  0.2292
   22MOL0     C 2952   7.016   5.910   1.918 -0.5015 -0.1177 -1.0813
   22MOL0     C 2953   6.612   6.008   1.748 -0.0236 -0.3371  0.2324
   22MOL0     C 2954   6.553   5.907   1.828 -0.1359 -0.0623  0.8608
   22MOL0     C 2955   6.426   5.863   1.802  0.8131 -0.0454 -0.0904
   22MOL0     C 2956   6.333   5.935   1.725  0.3007 -1.2417  0.7978
   22MOL0     O 2957   6.196   5.900   1.718  0.1580  0.0328  0.5570
   22MOL0     C 2958   6.103   5.953   1.814  0.0378  0.2399  0.1538
   22MOL0     C 2959   6.019   6.058   1.749  0.9144  0.1336  0.0647
   22MOL0     C 2960   5.945   6.140   1.854 -0.2652 -0.0104 -0.2445
   22MOL0     C 2961   5.843   6.237   1.800 -0.7254  0.7617  0.3326
   22MOL0     C 2962   5.901   6.348   1.715  0.3105 -0.3005 -0.3273
   22MOL0     C 2963   5.956   6.432   1.646 -0.0980 -0.4544 -0.3655
   22MOL0     C 2964   6.387   6.040   1.646  0.3034  0.0972 -0.3567
   22MOL0     C 2965   6.525   6.076   1.657  0.0933 -1.3944  0.2129
   22MOL0     C 2966   6.571   6.190   1.559 -0.2097 -0.7137  0.1780
   22MOL0     H 2967   6.958   6.235   1.882  2.4013  1.6543 -2.2342
   22MOL0     H 2968   7.205   6.241   1.920 -1.0781 -0.5395  1.2882
   22MOL0     H 2969   7.478   5.908   1.824  2.3003  1.5311 -0.3100
   22MOL0     H 2970   7.418   5.838   1.981 -1.9725 -0.2639 -1.4485
   22MOL0     H 2971   7.607   6.082   1.956 -3.5575  1.9366  1.1561
   22MOL0     H 2972   7.550   6.008   2.105 -0.1511 -1.1343  0.4519
   22MOL0     H 2973   7.729   5.903   2.116 -2.1730 -2.4491  0.9804
   22MOL0     H 2974   7.681   5.791   1.997  3.5157 -0.6550 -0.5111
   22MOL0     H 2975   7.762   5.921   1.809 -1.4705  1.2128 -0.1820
   22MOL0     H 2976   7.850   6.030   1.913  0.2486  0.1051  1.3377
   22MOL0     H 2977   7.990   5.852   1.830  1.3279 -1.9432  1.1018
   22MOL0     H 2978   7.884   5.724   1.900  0.3740 -1.2257  1.8801
   22MOL0     H 2979   8.064   5.908   2.054  0.0463 -0.3020 -0.2394
   22MOL0     H 2980   7.924   5.826   2.124 -0.8395  2.5715 -0.9818
   22MOL0     H 2981   8.145   5.699   1.956  0.2406 -2.2511  1.2039
   22MOL0     H 2982   8.013   5.608   2.033 -1.1058  0.1416 -0.0692
   22MOL0     H 2983   8.210   5.779   2.192 -0.7898  1.1241 -0.3447
   22MOL0     H 2984   8.082   5.677   2.256 -2.1713 -0.1741 -2.8566
   22MOL0     H 2985   8.250   5.543   2.410 -1.1080 -2.3089 -0.2442
   22MOL0     H 2986   8.388   5.219   2.357  1.4544 -1.1118 -0.0441
   22MOL0     H 2987   8.401   5.350   2.475 -1.7817 -1.3827 -0.6249
   22MOL0     H 2988   8.618   5.239   2.414  1.3661  0.1571 -0.5147
   22MOL0     H 2989   8.585   5.269   2.243  1.9862  0.6209 -0.1072
   22MOL0     H 2990   8.602   5.520   2.285  1.7342  2.8329  1.3651
   22MOL0     H 2991   8.639   5.496   2.450 -1.7370  1.8364 -1.7784
   22MOL0     H 2992   8.807   5.424   2.215 -1.5672 -0.5683  0.0489
   22MOL0     H 2993   8.828   5.559   2.321  3.3868 -1.0066 -0.7056
   22MOL0     H 2994   9.020   5.573   2.410 -0.3708 -0.0809  0.0259
   22MOL0     H 2995   9.260   5.674   2.316  1.2990  1.9647  2.9087
   22MOL0     H 2996   9.403   5.569   2.325  0.5096  0.7707  1.1771
   22MOL0     H 2997   9.348   5.638   2.467  2.1802 -1.0567 -0.0834
   22MOL0     H 2998   9.535   4.978   2.468  0.6931  0.4529  1.0304
   22MOL0     H 2999   9.763   4.877   2.460 -1.8024  0.3700  0.3258
   22MOL0     H 3000  10.124   5.118   2.299  1.2556  0.4132  0.6662
   22MOL0     H 3001  10.116   5.139   2.472  0.8177  2.5248 -2.1657
   22MOL0     H 3002  10.214   4.919   2.518  2.5299 -1.8185 -1.5365
   22MOL0     H 3003  10.200   4.895   2.342  2.7316 -0.4988 -1.2550
   22MOL0     H 3004  10.435   4.946   2.459 -2.2834 -1.9763  0.0103
   22MOL0     H 3005  10.378   5.119   2.442  0.0012  0.6134 -2.3651
   22MOL0     H 3006  10.344   5.072   2.192 -1.2315 -2.4396 -0.2415
   22MOL0     H 3007  10.404   4.921   2.220 -1.3295  0.3114 -1.2656
   22MOL0     H 3008  10.544   5.197   2.249  2.1587  0.4457  3.4527
   22MOL0     H 3009  10.607   5.049   2.330  0.2483  0.6914 -0.9283
   22MOL0     H 3010  10.573   5.094   2.034 -0.2693 -0.1362 -0.1489
   22MOL0     H 3011  10.633   4.947   2.108 -2.8330 -0.0562  0.9957
   22MOL0     H 3012  10.804   5.089   2.243  4.9433  1.3742 -1.1552
   22MOL0     H 3013  10.772   5.226   2.142  0.8826  0.8904 -1.1687
   22MOL0     H 3014  10.823   5.077   1.938 -1.4917 -0.5769  1.5520
   22MOL0     H 3015  10.873   4.951   2.060  0.3956 -0.2349  1.2603
   22MOL0     H 3016   9.934   5.248   2.367 -0.6905  1.6371  1.9007
   22MOL0     H 3017   9.697   5.346   2.315 -0.2731  1.2293 -0.3323
   22MOL0     H 3018   9.251   5.138   2.401 -0.0276 -0.5069  0.3717
   22MOL0     H 3019   9.004   5.152   2.419  0.4512 -0.0379 -2.0101
   22MOL0     H 3020   7.216   5.818   1.936 -1.3420 -0.6199  1.4720
   22MOL0     H 3021   6.955   5.822   1.905 -1.9486  0.7629 -0.5012
   22MOL0     H 3022   6.606   5.864   1.913 -0.4289 -2.0026  0.1044
   22MOL0     H 3023   6.388   5.782   1.864 -0.7804 -1.1578 -2.3879
   22MOL0     H 3024   6.039   5.876   1.858 -0.9501  0.2166 -1.2700
   22MOL0     H 3025   6.146   6.005   1.901 -0.3882  1.9822 -0.6293
   22MOL0     H 3026   5.958   6.005   1.674  3.0001  1.7157 -2.9463
   22MOL0     H 3027   6.073   6.123   1.680  2.5650 -2.3589 -1.1576
   22MOL0     H 3028   5.893   6.077   1.927  0.3501  1.4471  1.5316
   22MOL0     H 3029   6.019   6.203   1.904  3.1494 -0.5233 -4.1036
   22MOL0     H 3030   5.786   6.276   1.885 -1.9615  2.4261 -1.1935
   22MOL0     H 3031   5.778   6.181   1.732  0.8241  0.3174 -0.8418
   22MOL0     H 3032   6.013   6.497   1.584  1.7049 -2.3981 -0.8313
   22MOL0     H 3033   6.323   6.102   1.585 -0.2052  0.2553  0.3193
   22MOL0     H 3034   6.593   6.281   1.616  1.0874 -0.9355  0.0574
   22MOL0     H 3035   6.664   6.175   1.503  0.6478  0.5179  1.2050
   22MOL0     H 3036   6.488   6.188   1.487  1.0790 -1.4592 -1.3639
   23MOL0     O 3037   2.879   9.169   0.875  0.3312 -0.6044  0.2737
   23MOL0     C 3038   2.856   9.055   0.861 -0.5611 -0.2944  0.6517
   23MOL0     O 3039   2.930   8.959   0.799 -0.6985 -0.6716 -0.5586
   23MOL0     C 3040   3.067   8.991   0.789  0.1115  0.6826 -0.1215
   23MOL0     C 3041   3.150   8.971   0.901  0.9280  0.2800  0.3501
   23MOL0     C 3042   3.285   8.983   0.893  0.4343  0.0408 -0.2521
   23MOL0     C 3043   3.347   9.030   0.778  0.2537  0.1466 -0.8805
   23MOL0     O 3044   3.480   9.052   0.770 -0.4427  0.7651 -0.7588
   23MOL0     C 3045   3.564   9.076   0.885  0.4247  0.5771  0.2652
   23MOL0     C 3046   3.698   9.095   0.834  0.4631  0.3979  1.3037
   23MOL0     C 3047   3.798   9.073   0.958  0.3178 -0.1056  0.1243
   23MOL0     C 3048   3.934   9.060   0.893  0.9640  0.1113 -0.7490
   23MOL0     C 3049   4.054   9.035   0.992  0.0913  0.0482  0.5178
   23MOL0     C 3050   4.144   9.165   1.011 -0.0406  0.1865 -0.2816
   23MOL0     C 3051   4.064   9.291   1.068  0.5666  0.7731  0.5571
   23MOL0     C 3052   4.175   9.392   1.112  0.0535 -0.5637  0.2822
   23MOL0     N 3053   4.143   9.531   1.120  0.3583 -0.4042 -0.2358
   23MOL0     C 3054   4.116   9.604   1.003 -0.2899  0.6267 -0.1117
   23MOL0     C 3055   4.129   9.732   1.048  0.0161 -0.8852  0.1739
   23MOL0     C 3056   4.077   9.851   0.968  0.3501 -0.1140 -0.6092
   23MOL0     C 3057   4.118   9.855   0.825  0.1763  0.4903 -0.1725
   23MOL0     C 3058   4.086   9.995   0.764 -0.9041  0.5092 -0.2282
   23MOL0     C 3059   4.216  10.079   0.790  0.4728  0.7409  0.6014
   23MOL0     O 3060   4.304  10.044   0.685  0.0983 -0.2285  0.2120
   23MOL0     C 3061   4.424  10.101   0.680  0.3974 -0.4029  0.6419
   23MOL0     C 3062   4.443  10.239   0.704  0.2692 -0.6585  0.1150
   23MOL0     C 3063   4.572  10.292   0.694 -0.3738 -0.1767 -0.0900
   23MOL0     C 3064   4.580  10.437   0.738  0.1528 -0.5839  0.0123
   23MOL0     C 3065   4.689  10.213   0.670  0.5279  0.4876 -1.0128
   23MOL0     C 3066   4.823  10.268   0.658  0.4114  0.2642  0.0482
   23MOL0     O 3067   4.865  10.360   0.748  0.1693  0.7393  0.7900
   23MOL0     C 3068   4.996  10.402   0.742 -0.0790 -1.4930  1.3651
   23MOL0     C 3069   5.016  10.534   0.708 -0.0226  0.3979 -0.4582
   23MOL0     C 3070   5.143  10.581   0.729 -0.4907  0.4139 -0.2197
   23MOL0     C 3071   5.251  10.498   0.765  1.2993  1.0405  0.2640
   23MOL0     O 3072   5.365  10.556   0.802 -0.3248 -0.5049  0.0903
   23MOL0     C 3073   5.464  10.563   0.702 -0.8037  0.2286  0.3778
   23MOL0     C 3074   5.582  10.651   0.737 -0.0280 -0.1429 -0.4052
   23MOL0     C 3075   5.711  10.622   0.664  0.3595  0.4412  0.1028
   23MOL0     C 3076   5.798  10.523   0.750 -0.6572  0.3440 -0.2490
   23MOL0     C 3077   5.894  10.449   0.657 -1.6791  0.1210 -0.0364
   23MOL0     C 3078   5.997  10.547   0.597 -0.1583 -0.4328  0.5006
   23MOL0     C 3079   6.113  10.477   0.515 -0.3183 -0.1352  0.4587
   23MOL0     C 3080   6.224  10.583   0.480 -0.1748  0.3093  0.5216
   23MOL0    Cl 3081   6.167  10.727   0.378  0.1065  0.1000  0.0957
   23MOL0     C 3082   5.223  10.363   0.779 -0.4475 -0.4109  0.1546
   23MOL0     C 3083   5.097  10.315   0.767 -0.5132 -0.4158 -0.1280
   23MOL0     O 3084   4.898  10.216   0.573  0.4524 -0.2033 -0.4450
   23MOL0     C 3085   4.662  10.081   0.649 -0.8508 -0.0495  0.5767
   23MOL0     C 3086   4.534  10.024   0.654  0.5268 -0.6267 -0.1817
   23MOL0     N 3087   4.171   9.736   1.181 -0.4510  0.3095 -0.6082
   23MOL0     N 3088   4.178   9.618   1.226 -0.4908  0.9210 -0.6143
   23MOL0     C 3089   3.267   9.047   0.661  0.0232  0.3204 -0.2917
   23MOL0     C 3090   3.126   9.024   0.671 -0.2443 -1.0040 -0.1828
   23MOL0     C 3091   2.718   9.014   0.890  0.0600  0.1877  0.2001
   23MOL0     C 3092   2.635   8.999   0.780  0.7675  0.2479  0.5605
   23MOL0     C 3093   2.501   8.954   0.794  0.9684 -0.1050 -1.1088
   23MOL0     C 3094   2.450   8.939   0.924 -0.3249 -0.6841 -0.4720
   23MOL0     O 3095   2.320   8.901   0.955  0.0095  0.2812 -0.8730
   23MOL0     C 3096   2.264   9.022   1.001  0.8712 -0.0314  0.1501
   23MOL0     C 3097   2.118   9.029   0.958  0.0288  0.0133 -0.2401
   23MOL0     C 3098   2.042   8.893   1.001 -0.1720  0.1316 -0.2184
   23MOL0     C 3099   1.886   8.899   0.995 -0.4467  0.4590 -0.1313
   23MOL0     C 3100   1.826   8.968   1.109 -0.5183 -1.1458 -0.5105
   23MOL0     C 3101   1.778   9.010   1.218  0.4807  0.3765  0.5393
   23MOL0     C 3102   2.534   8.973   1.026 -0.1053  0.8105  0.2848
   23MOL0     C 3103   2.667   9.004   1.019  0.0924 -0.1177 -0.0380
   23MOL0     C 3104   2.747   9.039   1.143 -0.4948 -0.2678 -0.1338
   23MOL0     H 3105   3.100   8.943   0.994  3.3120 -2.2417  1.0244
   23MOL0     H 3106   3.355   8.954   0.971  0.6454 -0.8161 -0.7525
   23MOL0     H 3107   3.562   8.986   0.947 -0.4068  1.2480  1.2323
   23MOL0     H 3108   3.526   9.160   0.943 -1.5694 -0.6323  0.7995
   23MOL0     H 3109   3.727   9.023   0.757  0.1668  0.5173  1.0784
   23MOL0     H 3110   3.700   9.195   0.792  1.4421  0.8072  2.2708
   23MOL0     H 3111   3.788   9.164   1.018 -0.5322 -1.1679  1.6277
   23MOL0     H 3112   3.774   8.981   1.012 -2.3914 -1.0344 -2.4225
   23MOL0     H 3113   3.921   8.972   0.829  1.0084  0.3733 -1.1261
   23MOL0     H 3114   3.963   9.135   0.819  2.1468 -1.4820 -1.9704
   23MOL0     H 3115   4.115   8.961   0.941 -1.6496  0.6041 -2.5997
   23MOL0     H 3116   4.014   8.999   1.087 -3.6258  3.0794  0.3764
   23MOL0     H 3117   4.229   9.146   1.077 -0.8000  2.5303  1.4928
   23MOL0     H 3118   4.186   9.186   0.912  1.3475 -0.3351  0.1780
   23MOL0     H 3119   3.994   9.261   1.146 -0.3841 -2.5488 -1.3706
   23MOL0     H 3120   4.009   9.330   0.982  1.9329 -1.2907 -1.3684
   23MOL0     H 3121   4.211   9.357   1.210  4.0916  1.1857 -0.3636
   23MOL0     H 3122   4.259   9.383   1.042 -0.1110 -0.4159  0.0667
   23MOL0     H 3123   4.084   9.565   0.906 -2.4283 -0.6495  1.0264
   23MOL0     H 3124   4.104   9.950   1.005  2.1185 -0.7806 -0.0089
   23MOL0     H 3125   3.968   9.847   0.975  0.2076  2.8383  0.0838
   23MOL0     H 3126   4.224   9.835   0.808  0.0438  1.7500 -3.3434
   23MOL0     H 3127   4.053   9.781   0.777 -0.9317  1.9207 -0.9469
   23MOL0     H 3128   4.056   9.986   0.659 -1.5540 -3.6038  0.1322
   23MOL0     H 3129   4.000  10.039   0.815 -0.7972  1.5788 -0.9387
   23MOL0     H 3130   4.192  10.185   0.780 -1.4662  0.1130 -4.6535
   23MOL0     H 3131   4.243  10.058   0.894 -0.2735 -1.1817  0.4568
   23MOL0     H 3132   4.362  10.309   0.721 -1.3062 -2.4464  0.3101
   23MOL0     H 3133   4.594  10.436   0.846  2.9394 -1.2729 -0.2817
   23MOL0     H 3134   4.482  10.484   0.728 -0.0774 -0.1194  3.3179
   23MOL0     H 3135   4.654  10.506   0.698 -1.2026  1.3003  0.5967
   23MOL0     H 3136   4.935  10.605   0.696  0.7610  1.5086  0.6121
   23MOL0     H 3137   5.154  10.689   0.736  0.1463  0.2510  2.4394
   23MOL0     H 3138   5.515  10.469   0.679  1.5454  1.7233 -0.9035
   23MOL0     H 3139   5.424  10.602   0.608 -0.7898 -4.6075 -1.9503
   23MOL0     H 3140   5.556  10.757   0.731 -0.7978 -0.2183  1.0985
   23MOL0     H 3141   5.600  10.647   0.845  0.8055  4.8033 -0.1478
   23MOL0     H 3142   5.763  10.716   0.645  2.9636 -0.5487  1.7891
   23MOL0     H 3143   5.692  10.576   0.567 -0.0122 -1.4557  1.0134
   23MOL0     H 3144   5.734  10.447   0.796  0.7518  1.2817  3.5544
   23MOL0     H 3145   5.850  10.574   0.831 -1.1217 -0.6134  0.6773
   23MOL0     H 3146   5.945  10.366   0.707  0.0682  0.8913 -0.4492
   23MOL0     H 3147   5.844  10.395   0.576  2.4641 -1.6703 -1.7213
   23MOL0     H 3148   6.045  10.607   0.676  1.6746  0.0704 -0.9327
   23MOL0     H 3149   5.939  10.618   0.537  1.3601 -1.2784 -2.1175
   23MOL0     H 3150   6.067  10.433   0.426  1.1688  1.2556 -1.0729
   23MOL0     H 3151   6.161  10.403   0.580 -0.6988 -0.1894  0.6822
   23MOL0     H 3152   6.302  10.529   0.426 -0.3275  1.0735 -0.4980
   23MOL0     H 3153   6.269  10.624   0.571  0.0548 -1.3123  1.1554
   23MOL0     H 3154   5.306  10.298   0.807  0.8955  0.4211 -1.6898
   23MOL0     H 3155   5.075  10.210   0.783 -0.5047 -0.3489  0.3273
   23MOL0     H 3156   4.737  10.003   0.645  1.2230  1.7889  1.5656
   23MOL0     H 3157   4.513   9.918   0.648  3.1284 -1.1553 -1.2008
   23MOL0     H 3158   3.311   9.083   0.568  0.0126  1.0873 -0.0098
   23MOL0     H 3159   3.056   9.030   0.588 -1.0270  0.6044  0.5454
   23MOL0     H 3160   2.661   9.019   0.676 -1.4301 -2.7371 -0.7474
   23MOL0     H 3161   2.435   8.938   0.709 -0.5285  1.9718 -0.4310
   23MOL0     H 3162   2.264   9.046   1.108 -0.2933 -0.0288  0.1594
   23MOL0     H 3163   2.311   9.105   0.948  0.6158 -0.0710 -0.1410
   23MOL0     H 3164   2.131   9.041   0.850  4.2498  1.6007  0.2729
   23MOL0     H 3165   2.066   9.115   1.001 -0.7083 -1.1104  1.2253
   23MOL0     H 3166   2.075   8.813   0.934  0.7300 -0.3406  0.7726
   23MOL0     H 3167   2.075   8.865   1.101  1.9897 -1.8413 -1.3655
   23MOL0     H 3168   1.848   8.798   0.980 -0.4398  0.2031  1.4037
   23MOL0     H 3169   1.859   8.956   0.906  1.3397  0.7338 -0.5273
   23MOL0     H 3170   1.737   9.025   1.316  1.0449 -1.8874  1.1868
   23MOL0     H 3171   2.490   8.966   1.125 -2.7891  2.5587 -0.6788
   23MOL0     H 3172   2.810   9.124   1.117 -2.1955  0.5845 -1.7035
   23MOL0     H 3173   2.678   9.060   1.226 -2.9096  2.5194 -2.6307
   23MOL0     H 3174   2.809   8.952   1.166 -1.1857 -1.1337 -1.4697
   24MOL0     O 3175   8.880   0.480   9.582  0.4544  0.1870 -0.3034
   24MOL0     C 3176   8.855   0.566   9.502  0.0029  0.1754  0.0326
   24MOL0     O 3177   8.735   0.636   9.495  0.3819 -0.0786  0.1368
   24MOL0     C 3178   8.647   0.642   9.601 -0.5148  0.1387 -0.4062
   24MOL0     C 3179   8.624   0.764   9.653  0.0603  0.1142  0.2229
   24MOL0     C 3180   8.522   0.779   9.752  0.8137  0.1094 -0.4351
   24MOL0     C 3181   8.458   0.671   9.817  1.0022 -0.0108  0.8049
   24MOL0     O 3182   8.362   0.682   9.916  0.2820 -0.2127  0.0295
   24MOL0     C 3183   8.361   0.806   9.984 -0.1399  0.3138  0.1513
   24MOL0     C 3184   8.248   0.816  10.086  0.6202 -0.1084 -0.3198
   24MOL0     C 3185   8.113   0.796  10.030  0.8370 -0.4061  0.6138
   24MOL0     C 3186   8.019   0.909  10.070  0.5086 -0.4654 -0.2757
   24MOL0     C 3187   7.872   0.877  10.083  0.8221 -0.3751  0.3631
   24MOL0     C 3188   7.803   0.800   9.957 -0.1685 -0.8892 -0.5287
   24MOL0     C 3189   7.788   0.895   9.833  0.0553 -0.1569 -0.2572
   24MOL0     C 3190   7.675   0.996   9.854  0.4960 -0.9547 -0.2587
   24MOL0     N 3191   7.695   1.099   9.754  0.3825 -0.2127 -0.0932
   24MOL0     C 3192   7.753   1.223   9.781 -0.3964 -0.2680 -0.4861
   24MOL0     C 3193   7.730   1.290   9.667 -0.1252 -0.0945 -0.2044
   24MOL0     C 3194   7.774   1.432   9.640 -0.1094  0.4662 -0.6754
   24MOL0     C 3195   7.905   1.423   9.567  0.7414  0.0746  0.6139
   24MOL0     C 3196   7.896   1.457   9.423  0.1285  0.5755  0.1664
   24MOL0     C 3197   7.880   1.597   9.389 -0.4727  0.9001  0.2059
   24MOL0     O 3198   7.970   1.676   9.470 -0.0272  0.5055  0.2625
   24MOL0     C 3199   8.073   1.748   9.421 -0.2585 -0.0178 -0.6379
   24MOL0     C 3200   8.115   1.847   9.505 -0.2172 -0.0297 -0.0253
   24MOL0     C 3201   8.236   1.911   9.472 -0.2829 -0.3785 -0.1213
   24MOL0     C 3202   8.293   2.017   9.571  0.1760  1.1285  0.4733
   24MOL0     C 3203   8.299   1.881   9.347 -0.3139 -0.2117  0.0192
   24MOL0     C 3204   8.438   1.928   9.316  0.0428 -0.3107 -0.2433
   24MOL0     O 3205   8.526   1.908   9.410  0.2278 -0.0831 -0.1234
   24MOL0     C 3206   8.641   1.981   9.399 -0.1068 -0.1358 -0.2177
   24MOL0     C 3207   8.759   1.913   9.429 -0.3239 -0.9938  0.2271
   24MOL0     C 3208   8.884   1.986   9.425  0.8113  0.0130 -0.1470
   24MOL0     C 3209   8.893   2.123   9.395  0.2825 -0.4665  0.2955
   24MOL0     O 3210   8.997   2.210   9.377 -0.2342 -0.1086  0.1706
   24MOL0     C 3211   9.121   2.185   9.450 -0.0427  0.4304  0.2801
   24MOL0     C 3212   9.234   2.280   9.408  0.2936 -0.7506  0.3863
   24MOL0     C 3213   9.364   2.263   9.486  0.1377  0.3033  0.5803
   24MOL0     C 3214   9.415   2.116   9.504  0.5890  0.3324  0.1446
   24MOL0     C 3215   9.440   2.056   9.365 -1.0878  0.0803 -0.1337
   24MOL0     C 3216   9.465   1.906   9.365 -0.3965  0.3462 -0.2497
   24MOL0     C 3217   9.512   1.861   9.226 -0.0160 -0.3864  0.8956
   24MOL0     C 3218   9.665   1.892   9.202 -0.0116 -0.5961 -0.1193
   24MOL0    Cl 3219   9.783   1.824   9.329 -0.3993  0.4820  0.1697
   24MOL0     C 3220   8.763   2.185   9.376  0.1635  0.1032 -0.3948
   24MOL0     C 3221   8.646   2.115   9.379 -0.1060 -0.3700  0.1599
   24MOL0     O 3222   8.463   1.969   9.201  0.4357 -0.3191  0.1430
   24MOL0     C 3223   8.239   1.801   9.259  0.1856 -0.1094  0.0338
   24MOL0     C 3224   8.117   1.733   9.291 -0.2331 -0.1788  0.5476
   24MOL0     N 3225   7.674   1.206   9.568  0.5092 -0.6811 -0.3270
   24MOL0     N 3226   7.654   1.092   9.623  0.5809  0.2125  0.1787
   24MOL0     C 3227   8.496   0.544   9.762  0.4382  0.6334  0.8759
   24MOL0     C 3228   8.590   0.525   9.662  0.3266  0.5538  0.7336
   24MOL0     C 3229   8.959   0.613   9.405 -0.2063  0.8459  0.1432
   24MOL0     C 3230   8.919   0.639   9.276 -0.1938 -0.0098  0.6080
   24MOL0     C 3231   9.009   0.686   9.173 -0.5114 -0.0572 -0.3597
   24MOL0     C 3232   9.133   0.716   9.208  0.8512  0.7089  0.0405
   24MOL0     O 3233   9.228   0.744   9.115  0.5956 -0.5263 -0.0184
   24MOL0     C 3234   9.241   0.880   9.085  0.6619 -0.9344  0.7367
   24MOL0     C 3235   9.242   0.899   8.937  0.0175  0.0426 -0.5362
   24MOL0     C 3236   9.387   0.886   8.889  0.1462 -0.4705  0.5051
   24MOL0     C 3237   9.389   0.893   8.730 -0.4322  0.0839 -0.5230
   24MOL0     C 3238   9.326   0.784   8.654 -0.7190  0.2240 -0.6666
   24MOL0     C 3239   9.260   0.697   8.599  0.7185  0.6246 -0.8210
   24MOL0     C 3240   9.178   0.693   9.331 -0.2142  0.4301  0.2990
   24MOL0     C 3241   9.091   0.651   9.433  0.5028  0.8102  0.8599
   24MOL0     C 3242   9.144   0.637   9.575  0.9988  0.1417  0.2262
   24MOL0     H 3243   8.676   0.849   9.608  2.2929  1.4233  4.6894
   24MOL0     H 3244   8.499   0.882   9.777 -2.2516 -0.7818  0.7841
   24MOL0     H 3245   8.348   0.888   9.913  1.2827  1.1350  0.8038
   24MOL0     H 3246   8.458   0.831  10.027  0.1077 -0.7709  0.2408
   24MOL0     H 3247   8.271   0.745  10.166 -1.7636 -1.0707 -0.4186
   24MOL0     H 3248   8.259   0.913  10.136 -0.4824  0.3784 -0.9845
   24MOL0     H 3249   8.115   0.782   9.921  0.4204 -1.7936  0.7690
   24MOL0     H 3250   8.079   0.702  10.074  2.3375 -1.9466 -1.3329
   24MOL0     H 3251   8.045   0.922  10.176 -0.2108  1.8217 -0.3367
   24MOL0     H 3252   8.025   0.998  10.007  1.4685  0.4039  1.0048
   24MOL0     H 3253   7.815   0.967  10.106  2.5357  1.4075 -1.9995
   24MOL0     H 3254   7.855   0.812  10.170 -1.2609  0.1560  0.3939
   24MOL0     H 3255   7.870   0.721   9.922 -0.2951 -0.9824 -0.5603
   24MOL0     H 3256   7.710   0.748   9.980 -0.6232 -0.6767 -1.8165
   24MOL0     H 3257   7.754   0.829   9.753 -1.0685 -1.7353  1.4516
   24MOL0     H 3258   7.882   0.942   9.804 -0.4693  0.1405 -1.5499
   24MOL0     H 3259   7.578   0.951   9.832  0.6280 -0.6549 -1.5484
   24MOL0     H 3260   7.675   1.045   9.951 -1.6787  1.3335 -1.2989
   24MOL0     H 3261   7.800   1.262   9.871  1.3098  1.5957 -2.0863
   24MOL0     H 3262   7.791   1.498   9.726  0.5339  2.5624 -2.3185
   24MOL0     H 3263   7.700   1.492   9.586 -1.4048  0.4080  0.9536
   24MOL0     H 3264   7.981   1.486   9.613  0.6807  0.2739  0.4405
   24MOL0     H 3265   7.947   1.322   9.576  0.7346  0.0841  0.7530
   24MOL0     H 3266   7.993   1.427   9.383 -1.4097 -1.2519 -2.4919
   24MOL0     H 3267   7.826   1.389   9.374 -0.1698  0.9020  0.1295
   24MOL0     H 3268   7.905   1.594   9.283  2.2999  3.4474  0.6475
   24MOL0     H 3269   7.777   1.633   9.403 -1.4861 -2.0771  1.0714
   24MOL0     H 3270   8.071   1.869   9.601  0.3344  0.8351  0.0302
   24MOL0     H 3271   8.349   2.094   9.517  1.6486 -0.1933  0.0461
   24MOL0     H 3272   8.361   1.963   9.638  2.3355  1.8624 -1.0219
   24MOL0     H 3273   8.207   2.063   9.620  0.2795  1.2698  0.5214
   24MOL0     H 3274   8.764   1.806   9.448 -0.8648 -0.8152  1.4722
   24MOL0     H 3275   8.974   1.926   9.433  0.9128  0.3494  1.6469
   24MOL0     H 3276   9.099   2.186   9.558  0.4053  2.9659  0.4096
   24MOL0     H 3277   9.145   2.082   9.422  1.6396  1.0975 -0.9152
   24MOL0     H 3278   9.241   2.263   9.300  0.2535  0.3219  0.2041
   24MOL0     H 3279   9.211   2.386   9.412  1.4616 -0.4482 -0.1903
   24MOL0     H 3280   9.349   2.299   9.589 -1.7377  0.8725  0.1487
   24MOL0     H 3281   9.446   2.314   9.435  1.5776 -2.4713 -0.0400
   24MOL0     H 3282   9.348   2.048   9.558 -0.6212 -0.4698 -2.1729
   24MOL0     H 3283   9.516   2.111   9.546  0.3809  1.2058  0.7635
   24MOL0     H 3284   9.358   2.067   9.293 -0.4135 -1.0258 -1.1048
   24MOL0     H 3285   9.521   2.112   9.317  0.2864 -1.2206  0.5991
   24MOL0     H 3286   9.368   1.858   9.383 -0.7346  0.3611 -1.8877
   24MOL0     H 3287   9.536   1.875   9.443 -2.1453 -0.8273  0.9601
   24MOL0     H 3288   9.452   1.901   9.144 -1.4153 -1.5778  1.2970
   24MOL0     H 3289   9.492   1.754   9.218 -2.3134  0.0726  0.0256
   24MOL0     H 3290   9.673   2.001   9.199  0.5313 -0.6614 -1.8119
   24MOL0     H 3291   9.699   1.864   9.102 -1.4426  1.1638 -1.1740
   24MOL0     H 3292   8.741   2.285   9.341  0.9696 -0.3079 -2.2002
   24MOL0     H 3293   8.550   2.162   9.360  0.2865  1.8982  3.0523
   24MOL0     H 3294   8.292   1.782   9.166  1.4943 -0.8174  0.9013
   24MOL0     H 3295   8.072   1.659   9.226 -3.0392  2.0093 -0.1979
   24MOL0     H 3296   8.458   0.454   9.808  0.1563  0.5605  0.5054
   24MOL0     H 3297   8.617   0.428   9.621 -2.1419 -0.0224  0.3304
   24MOL0     H 3298   8.817   0.615   9.245 -0.2832  0.5716  0.4505
   24MOL0     H 3299   8.962   0.696   9.075 -0.2102 -0.5471 -0.5598
   24MOL0     H 3300   9.152   0.934   9.118  0.8945 -1.4114  2.2576
   24MOL0     H 3301   9.331   0.926   9.129  1.8526 -1.4834 -1.0355
   24MOL0     H 3302   9.210   0.999   8.907 -1.6911  0.3021  1.8477
   24MOL0     H 3303   9.180   0.822   8.891  2.9257 -2.6223 -0.3364
   24MOL0     H 3304   9.461   0.960   8.920  0.6543 -1.0894  0.7582
   24MOL0     H 3305   9.422   0.788   8.922 -0.8646 -1.0578 -0.1253
   24MOL0     H 3306   9.494   0.892   8.698  0.2648 -0.3837  1.6085
   24MOL0     H 3307   9.350   0.987   8.690  0.2476  0.8162  0.4830
   24MOL0     H 3308   9.207   0.621   8.545  0.4737  1.5593 -1.9337
   24MOL0     H 3309   9.285   0.688   9.349 -0.2663 -1.1046  0.2940
   24MOL0     H 3310   9.128   0.534   9.606 -2.0965  1.0125  2.0118
   24MOL0     H 3311   9.250   0.659   9.584  1.2423 -0.8523 -0.1383
   24MOL0     H 3312   9.090   0.705   9.642  3.7439  1.5507  1.1627
   25MOL0     O 3313  11.110   8.370   4.448  0.6157  0.1096 -0.4587
   25MOL0     C 3314  11.040   8.314   4.368 -0.2773 -0.2397  0.3849
   25MOL0     O 3315  11.076   8.200   4.304 -0.1343 -0.1909 -0.3028
   25MOL0     C 3316  11.182   8.136   4.365 -0.0348  0.0734  0.5886
   25MOL0     C 3317  11.309   8.146   4.316 -0.1961  0.6578 -0.8173
   25MOL0     C 3318  11.414   8.067   4.375 -0.6676 -0.2254  0.7366
   25MOL0     C 3319  11.396   7.991   4.492 -0.7440 -0.2144 -0.1507
   25MOL0     O 3320  11.500   7.920   4.543  0.3431 -0.0463  0.0350
   25MOL0     C 3321  11.552   7.993   4.658  0.4736  0.9417  0.5733
   25MOL0     C 3322  11.682   7.932   4.711 -0.1634  0.1544 -0.1235
   25MOL0     C 3323  11.775   7.883   4.598 -0.0908  0.1846 -0.3852
   25MOL0     C 3324  11.843   7.983   4.501 -0.1116  1.3306  0.4225
   25MOL0     C 3325  11.928   7.899   4.397 -0.1188 -0.8340  0.3171
   25MOL0     C 3326  11.973   7.989   4.276 -0.3794  0.2049  0.2524
   25MOL0     C 3327  12.070   7.918   4.194 -0.2593  0.5135 -0.1157
   25MOL0     C 3328  12.086   7.989   4.062  0.6257 -0.5163 -0.5479
   25MOL0     N 3329  12.203   7.948   3.983  0.1486  0.6100 -0.5415
   25MOL0     C 3330  12.327   8.012   3.992  0.5693 -0.7143 -0.6052
   25MOL0     C 3331  12.398   7.959   3.892 -0.0861 -0.1943  0.7169
   25MOL0     C 3332  12.542   7.994   3.849 -0.3720 -0.7400  0.7453
   25MOL0     C 3333  12.642   7.978   3.970 -0.0419  0.7266 -0.1326
   25MOL0     C 3334  12.785   7.933   3.931 -0.0123  0.0764 -0.3358
   25MOL0     C 3335  12.784   7.786   3.885 -0.7930 -0.4999 -0.3049
   25MOL0     O 3336  12.893   7.750   3.797  0.4930 -0.7046 -0.1881
   25MOL0     C 3337  13.015   7.769   3.854  0.8015 -0.1764 -0.0678
   25MOL0     C 3338  13.124   7.756   3.755  0.6677  0.6754 -0.2219
   25MOL0     C 3339  13.256   7.763   3.786  0.2227 -0.3284  0.2844
   25MOL0     C 3340  13.359   7.764   3.680 -0.4151 -0.5976  0.2326
   25MOL0     C 3341  13.289   7.761   3.923 -0.1003 -0.6272  0.4179
   25MOL0     C 3342  13.428   7.769   3.972  0.7211  0.5645 -0.3656
   25MOL0     O 3343  13.526   7.817   3.897  0.2838 -0.0310 -0.0404
   25MOL0     C 3344  13.654   7.806   3.936  0.2726  0.2586  0.2044
   25MOL0     C 3345  13.740   7.904   3.898 -0.3587  0.9744  0.3831
   25MOL0     C 3346  13.878   7.881   3.913  0.4213  0.7478  0.2687
   25MOL0     C 3347  13.926   7.759   3.971 -0.6535 -0.1738  0.8898
   25MOL0     O 3348  14.064   7.747   3.999 -0.2672 -0.0088  0.4303
   25MOL0     C 3349  14.145   7.843   3.932 -0.5112  0.6990 -0.6118
   25MOL0     C 3350  14.299   7.806   3.930  1.3050 -0.4175 -0.7359
   25MOL0     C 3351  14.319   7.663   3.884  0.1697 -0.4569  0.4600
   25MOL0     C 3352  14.454   7.635   3.811 -0.0134 -0.0541  0.2797
   25MOL0     C 3353  14.464   7.501   3.738 -0.0605 -0.1390  0.0552
   25MOL0     C 3354  14.394   7.525   3.601 -0.1001  0.9420  0.8525
   25MOL0     C 3355  14.478   7.592   3.487 -0.1617 -0.2013 -0.7273
   25MOL0     C 3356  14.399   7.669   3.382  0.9030 -1.2642 -0.0281
   25MOL0    Cl 3357  14.292   7.574   3.257 -0.5763  0.3125  0.0729
   25MOL0     C 3358  13.839   7.656   4.004 -0.5334  0.4701 -0.1416
   25MOL0     C 3359  13.701   7.682   3.986 -0.7781  0.3355 -0.1166
   25MOL0     O 3360  13.442   7.745   4.096  0.3901 -1.2200 -0.4396
   25MOL0     C 3361  13.188   7.757   4.020 -0.0871 -0.1715  0.6693
   25MOL0     C 3362  13.049   7.756   3.990 -0.2725 -0.6850 -0.3538
   25MOL0     N 3363  12.323   7.867   3.831  0.8102  0.3560 -0.3481
   25MOL0     N 3364  12.199   7.875   3.872  0.1907  0.2206 -0.7897
   25MOL0     C 3365  11.268   7.979   4.539  0.5468  0.0625 -1.0481
   25MOL0     C 3366  11.160   8.044   4.472  0.6926 -0.2516  0.8723
   25MOL0     C 3367  10.908   8.374   4.333 -0.5691  0.0090 -0.1277
   25MOL0     C 3368  10.885   8.507   4.381  0.1619 -0.4177  0.2678
   25MOL0     C 3369  10.774   8.571   4.341  0.2639 -0.6478 -0.6659
   25MOL0     C 3370  10.673   8.514   4.259  0.5445  0.1429  0.0613
   25MOL0     O 3371  10.557   8.572   4.220  0.1412 -0.6697  0.4112
   25MOL0     C 3372  10.555   8.716   4.224  1.1947  0.2360  0.2596
   25MOL0     C 3373  10.428   8.770   4.157  0.0660  0.5789 -0.7288
   25MOL0     C 3374  10.398   8.733   4.022 -0.4794  0.4032  0.2726
   25MOL0     C 3375  10.272   8.795   3.959 -0.7306 -0.7382 -0.2507
   25MOL0     C 3376  10.153   8.745   4.027 -0.0529  0.3817  0.0207
   25MOL0     C 3377  10.043   8.707   4.065  0.7047  0.0135 -0.6173
   25MOL0     C 3378  10.690   8.381   4.217 -0.9582  0.7345 -0.0920
   25MOL0     C 3379  10.809   8.311   4.256  0.5756 -0.6122 -0.7799
   25MOL0     C 3380  10.799   8.164   4.226  0.3868 -0.0406 -0.0638
   25MOL0     H 3381  11.333   8.207   4.230  2.7450  0.4232 -0.2596
   25MOL0     H 3382  11.514   8.066   4.333  0.1448 -0.5136  2.5774
   25MOL0     H 3383  11.474   7.983   4.734 -0.9481  0.5399 -0.8846
   25MOL0     H 3384  11.578   8.096   4.632  2.6681 -0.1024 -1.7717
   25MOL0     H 3385  11.733   8.012   4.765 -0.7099  0.7065 -0.4113
   25MOL0     H 3386  11.663   7.846   4.776 -3.5300  0.4952 -0.4718
   25MOL0     H 3387  11.864   7.851   4.653 -1.4053 -1.2875  0.9529
   25MOL0     H 3388  11.734   7.795   4.548  2.0676 -0.3715 -1.2815
   25MOL0     H 3389  11.770   8.040   4.442 -3.1705 -2.0725  0.5702
   25MOL0     H 3390  11.902   8.055   4.559 -1.5140  1.4619  1.7599
   25MOL0     H 3391  11.872   7.815   4.355  1.3532 -1.6806 -0.0456
   25MOL0     H 3392  12.014   7.850   4.444  0.6689 -1.5036 -1.6683
   25MOL0     H 3393  11.881   8.003   4.218  0.6352  2.0467 -1.0045
   25MOL0     H 3394  12.008   8.089   4.303  0.5439 -0.0940  0.2007
   25MOL0     H 3395  12.037   7.816   4.172 -0.6735  1.0981 -2.5219
   25MOL0     H 3396  12.162   7.901   4.250  0.3100  0.8505 -0.9247
   25MOL0     H 3397  11.995   7.981   4.001 -0.9428  3.3600  0.9695
   25MOL0     H 3398  12.086   8.094   4.091 -4.6236 -0.2760 -0.4321
   25MOL0     H 3399  12.353   8.091   4.063 -0.5047 -0.0139 -0.9709
   25MOL0     H 3400  12.533   8.094   3.805 -2.6955 -0.6613  1.2486
   25MOL0     H 3401  12.575   7.933   3.764 -0.6408  1.9426 -1.4223
   25MOL0     H 3402  12.639   8.070   4.029 -0.9018 -0.6875  2.1732
   25MOL0     H 3403  12.608   7.900   4.039 -2.0690  2.5385  1.0354
   25MOL0     H 3404  12.835   8.009   3.871 -0.2808 -0.3701 -1.1356
   25MOL0     H 3405  12.837   7.942   4.027  1.0777 -0.2841 -0.8859
   25MOL0     H 3406  12.771   7.722   3.972  1.8656 -0.3573  0.2914
   25MOL0     H 3407  12.698   7.763   3.822 -0.8342  0.3489 -0.5757
   25MOL0     H 3408  13.106   7.733   3.651 -0.7091 -1.7633  0.4668
   25MOL0     H 3409  13.311   7.727   3.588  1.9831  0.0398 -1.3500
   25MOL0     H 3410  13.444   7.700   3.704  0.1857  1.3874  3.9997
   25MOL0     H 3411  13.395   7.866   3.668 -3.7837  1.1065  2.8486
   25MOL0     H 3412  13.704   7.988   3.839 -2.4262 -1.6665 -2.4790
   25MOL0     H 3413  13.937   7.960   3.866  0.4671  0.4291 -0.2170
   25MOL0     H 3414  14.117   7.834   3.827  2.8211  0.4316 -1.5825
   25MOL0     H 3415  14.136   7.941   3.979 -1.5066  1.1637 -1.7278
   25MOL0     H 3416  14.342   7.886   3.869 -2.0739  1.8246 -0.4355
   25MOL0     H 3417  14.338   7.819   4.032  1.0765  1.1258 -0.8268
   25MOL0     H 3418  14.235   7.617   3.831 -0.4584  0.6880  0.4145
   25MOL0     H 3419  14.332   7.599   3.972 -1.5509  2.6912  3.2230
   25MOL0     H 3420  14.538   7.650   3.879 -0.8283 -0.8207  1.5131
   25MOL0     H 3421  14.462   7.706   3.729  1.7512  0.0865  0.5407
   25MOL0     H 3422  14.570   7.473   3.743 -0.8175 -3.1510  1.2162
   25MOL0     H 3423  14.408   7.422   3.789  0.9881 -1.3273 -0.5656
   25MOL0     H 3424  14.296   7.569   3.625 -0.6841 -0.7947  1.8640
   25MOL0     H 3425  14.364   7.435   3.547  0.7098  0.1555  1.6727
   25MOL0     H 3426  14.536   7.527   3.421  2.7202  1.6317 -0.2148
   25MOL0     H 3427  14.552   7.654   3.538 -0.7267 -0.5650  0.5721
   25MOL0     H 3428  14.452   7.741   3.318  1.1586 -0.3798  1.1390
   25MOL0     H 3429  14.330   7.734   3.437  0.3912 -2.2974  0.5803
   25MOL0     H 3430  13.878   7.560   4.037 -1.5516 -0.0710 -0.4657
   25MOL0     H 3431  13.636   7.596   3.975 -1.1232  0.6603 -0.6543
   25MOL0     H 3432  13.206   7.747   4.127  0.5189  3.1566  0.9879
   25MOL0     H 3433  12.971   7.754   4.065 -1.5931  2.6364 -1.4849
   25MOL0     H 3434  11.234   7.910   4.616 -2.2488  3.6821  1.2514
   25MOL0     H 3435  11.058   8.033   4.506  0.4851  0.5453  0.5331
   25MOL0     H 3436  10.961   8.546   4.448  1.4148 -1.1669 -0.6783
   25MOL0     H 3437  10.754   8.671   4.380 -0.7149 -0.9122 -0.4758
   25MOL0     H 3438  10.555   8.742   4.330  0.1848  0.1648  0.2801
   25MOL0     H 3439  10.647   8.760   4.183 -0.2787  2.2204 -1.0484
   25MOL0     H 3440  10.450   8.876   4.173  2.9584  0.0622 -0.6788
   25MOL0     H 3441  10.340   8.741   4.215  0.4003 -3.4089 -1.9517
   25MOL0     H 3442  10.487   8.756   3.962  0.2876  0.6441  1.4525
   25MOL0     H 3443  10.392   8.624   4.017 -0.9850  0.4878 -1.5496
   25MOL0     H 3444  10.263   8.769   3.853  0.0208  1.0969 -0.7999
   25MOL0     H 3445  10.277   8.903   3.968 -1.9364 -0.6010 -0.9899
   25MOL0     H 3446   9.948   8.663   4.086  0.3100  0.4632 -1.4076
   25MOL0     H 3447  10.609   8.338   4.159 -0.3418  0.1187 -0.5115
   25MOL0     H 3448  10.707   8.123   4.184  1.0263 -2.2121  0.5112
   25MOL0     H 3449  10.872   8.141   4.148 -0.2650 -2.5578 -0.0273
   25MOL0     H 3450  10.821   8.107   4.316 -0.3585  1.0292  0.8180
   26MOL0     O 3451   5.202   5.752   0.255  0.2073  0.3044  0.3305
   26MOL0     C 3452   5.239   5.861   0.291  0.1522  0.7733 -0.6942
   26MOL0     O 3453   5.328   5.885   0.390  0.0996  0.0636 -0.0757
   26MOL0     C 3454   5.369   5.771   0.451  0.9012  0.1645 -0.8623
   26MOL0     C 3455   5.279   5.686   0.520  0.3356  0.2164  0.5849
   26MOL0     C 3456   5.315   5.554   0.576 -0.3836 -0.3824 -0.1941
   26MOL0     C 3457   5.449   5.513   0.564 -0.1997 -0.0247 -0.6021
   26MOL0     O 3458   5.466   5.390   0.603 -0.3055  1.3739  0.2628
   26MOL0     C 3459   5.595   5.327   0.566 -0.2428  0.2326 -0.2297
   26MOL0     C 3460   5.689   5.309   0.683 -0.2023  0.9377 -0.0640
   26MOL0     C 3461   5.639   5.215   0.802  0.2170 -0.3688  0.4219
   26MOL0     C 3462   5.592   5.310   0.918 -0.4411  0.3278  0.0104
   26MOL0     C 3463   5.574   5.235   1.047 -0.0150 -0.2732  0.2095
   26MOL0     C 3464   5.544   5.333   1.159  0.2203  0.7398 -1.2380
   26MOL0     C 3465   5.413   5.420   1.161 -0.3936  0.6749  1.4868
   26MOL0     C 3466   5.294   5.330   1.196  1.0240 -0.2291  0.2494
   26MOL0     N 3467   5.167   5.386   1.150 -0.4072 -0.5541 -0.0262
   26MOL0     C 3468   5.094   5.350   1.039 -0.5273  0.3200  0.1445
   26MOL0     C 3469   4.982   5.418   1.043  0.7990 -0.2608 -0.9315
   26MOL0     C 3470   4.866   5.401   0.945 -0.9939 -0.5216 -0.8927
   26MOL0     C 3471   4.780   5.284   0.995 -0.1466  0.4278 -0.2821
   26MOL0     C 3472   4.657   5.247   0.917 -0.3319 -0.0466  0.3643
   26MOL0     C 3473   4.668   5.198   0.773  0.2776  0.7885 -0.9098
   26MOL0     O 3474   4.708   5.053   0.769  0.1530  0.1761  0.0960
   26MOL0     C 3475   4.841   5.024   0.786 -0.1794 -0.6027  0.3015
   26MOL0     C 3476   4.947   5.105   0.750  0.6127  1.1572  0.3601
   26MOL0     C 3477   5.080   5.074   0.754  0.1052 -1.1212  0.2157
   26MOL0     C 3478   5.181   5.182   0.712 -0.1739  0.2153 -0.2138
   26MOL0     C 3479   5.110   4.960   0.825  0.1212  0.1077  0.0109
   26MOL0     C 3480   5.259   4.923   0.847  0.3558 -0.1589  0.2211
   26MOL0     O 3481   5.301   4.802   0.805  0.4657  0.5058  0.2554
   26MOL0     C 3482   5.427   4.758   0.841  0.1449  0.3302  0.8991
   26MOL0     C 3483   5.452   4.670   0.945  0.2049 -0.5978 -0.2423
   26MOL0     C 3484   5.582   4.649   0.990 -0.4462 -0.1027 -0.7964
   26MOL0     C 3485   5.689   4.703   0.916  0.4199  0.9691 -0.2032
   26MOL0     O 3486   5.815   4.679   0.944 -0.6365  0.6160  0.6332
   26MOL0     C 3487   5.882   4.759   1.039  0.4604 -0.6723 -0.7993
   26MOL0     C 3488   6.024   4.709   1.061 -0.4609 -0.8882 -0.3342
   26MOL0     C 3489   6.109   4.814   1.131  0.2461 -0.6389  0.2843
   26MOL0     C 3490   6.144   4.773   1.275  0.5643 -0.2912 -0.4228
   26MOL0     C 3491   6.235   4.860   1.362 -0.1641 -0.7682  1.4725
   26MOL0     C 3492   6.385   4.877   1.310  0.9150 -0.7844 -0.2901
   26MOL0     C 3493   6.453   4.989   1.381  0.2802  0.5265  0.4265
   26MOL0     C 3494   6.584   5.028   1.296 -0.4546  0.4217 -0.7391
   26MOL0    Cl 3495   6.542   5.096   1.125 -0.6411 -0.1584 -0.1778
   26MOL0     C 3496   5.665   4.773   0.806  0.4854  0.7983 -0.4030
   26MOL0     C 3497   5.535   4.806   0.769 -0.4640  0.0800 -0.0252
   26MOL0     O 3498   5.331   5.005   0.901 -0.0244  0.2518  0.3890
   26MOL0     C 3499   5.009   4.862   0.859 -0.1530 -0.1802  0.5884
   26MOL0     C 3500   4.876   4.902   0.838  0.1079 -0.5667 -0.2752
   26MOL0     N 3501   4.980   5.482   1.163  0.3097 -0.0779 -0.3271
   26MOL0     N 3502   5.095   5.468   1.227  0.6273  1.2142 -0.4549
   26MOL0     C 3503   5.545   5.610   0.527  0.2033 -0.8456  0.0165
   26MOL0     C 3504   5.496   5.735   0.463 -1.1122 -0.6191 -0.5155
   26MOL0     C 3505   5.193   5.972   0.217 -0.5387 -0.2095  0.3169
   26MOL0     C 3506   5.285   6.078   0.199  0.5091 -0.4819  0.6484
   26MOL0     C 3507   5.263   6.179   0.108  0.2722  0.6865 -0.0923
   26MOL0     C 3508   5.134   6.189   0.041  0.2462 -0.4702 -0.3946
   26MOL0     O 3509   5.097   6.302  -0.029  0.1512  1.2201 -0.1190
   26MOL0     C 3510   5.065   6.421   0.046  0.4040  0.6637 -0.0659
   26MOL0     C 3511   4.959   6.503  -0.026  0.6387  0.3193  0.4607
   26MOL0     C 3512   5.005   6.542  -0.173 -0.3544  0.2733  0.2736
   26MOL0     C 3513   4.925   6.655  -0.242 -0.3045  0.3020 -0.3304
   26MOL0     C 3514   4.782   6.611  -0.266 -0.6815 -0.2332 -0.2333
   26MOL0     C 3515   4.666   6.576  -0.274  0.0180  1.4287 -0.3436
   26MOL0     C 3516   5.035   6.096   0.084  0.0526 -0.7943  0.2366
   26MOL0     C 3517   5.066   5.971   0.153  0.2742  0.0494 -0.5875
   26MOL0     C 3518   4.960   5.866   0.173 -0.2282  0.3944 -0.0755
   26MOL0     H 3519   5.175   5.712   0.539  0.2552 -1.2511  2.4811
   26MOL0     H 3520   5.238   5.494   0.623 -5.2133  5.8781  1.2943
   26MOL0     H 3521   5.635   5.368   0.473 -1.6460 -1.1993 -1.5264
   26MOL0     H 3522   5.576   5.223   0.538  1.4843  0.1353 -1.1857
   26MOL0     H 3523   5.778   5.258   0.646 -2.0117 -1.8840 -0.9105
   26MOL0     H 3524   5.714   5.405   0.728 -0.3350  0.7802  0.3536
   26MOL0     H 3525   5.565   5.143   0.766  1.1007  0.4145 -3.3988
   26MOL0     H 3526   5.726   5.157   0.835 -0.1089 -1.8184 -1.1076
   26MOL0     H 3527   5.676   5.379   0.930 -0.9361  1.1052 -0.8839
   26MOL0     H 3528   5.502   5.367   0.895 -1.0509 -0.6328 -0.0546
   26MOL0     H 3529   5.655   5.164   1.068 -0.4339 -1.8490 -2.9160
   26MOL0     H 3530   5.485   5.173   1.032  0.3862 -0.8278  0.0641
   26MOL0     H 3531   5.548   5.271   1.248  4.6803  1.0574 -0.9969
   26MOL0     H 3532   5.628   5.402   1.173  1.3535 -1.0779  1.6915
   26MOL0     H 3533   5.393   5.458   1.061 -0.4027 -4.5328 -0.8579
   26MOL0     H 3534   5.413   5.494   1.241 -0.2065 -0.9707  3.0992
   26MOL0     H 3535   5.300   5.231   1.151 -0.1129 -1.5166  2.7486
   26MOL0     H 3536   5.288   5.310   1.303  1.0532 -0.0716  0.2815
   26MOL0     H 3537   5.117   5.282   0.958  2.9511  0.1098  1.1666
   26MOL0     H 3538   4.920   5.373   0.854 -0.2395 -3.2602  0.2914
   26MOL0     H 3539   4.810   5.494   0.932 -1.7049 -0.7110  0.6101
   26MOL0     H 3540   4.841   5.195   1.018  1.2990  1.5919  0.5924
   26MOL0     H 3541   4.744   5.314   1.094 -3.2476 -0.2053 -1.1234
   26MOL0     H 3542   4.614   5.163   0.973 -3.0338  1.3749  0.5797
   26MOL0     H 3543   4.596   5.338   0.917  1.5392  1.2629 -0.5028
   26MOL0     H 3544   4.566   5.202   0.734 -0.3057 -1.1981  0.2354
   26MOL0     H 3545   4.725   5.272   0.716  0.1731  2.0474  0.5483
   26MOL0     H 3546   4.912   5.187   0.688 -0.9059  0.4021  0.1510
   26MOL0     H 3547   5.247   5.143   0.634  0.3271 -0.1053  0.3529
   26MOL0     H 3548   5.236   5.202   0.805  0.0739  3.8670 -1.0121
   26MOL0     H 3549   5.135   5.276   0.681 -2.1283  0.4389  2.8818
   26MOL0     H 3550   5.382   4.619   1.011  2.0620 -1.1622  1.3748
   26MOL0     H 3551   5.605   4.581   1.072 -0.0824 -0.5250 -1.2393
   26MOL0     H 3552   5.878   4.866   1.016 -0.8342 -0.3224  0.8507
   26MOL0     H 3553   5.827   4.749   1.133 -0.2173 -0.1378 -1.1304
   26MOL0     H 3554   6.021   4.610   1.107  0.3250 -0.0146  1.6886
   26MOL0     H 3555   6.061   4.696   0.959  1.5418  0.0779  0.2019
   26MOL0     H 3556   6.067   4.915   1.128  3.1810  0.7005  0.3034
   26MOL0     H 3557   6.197   4.826   1.066 -0.3369 -0.0264 -0.4107
   26MOL0     H 3558   6.173   4.667   1.272 -0.0844 -0.5164  0.5569
   26MOL0     H 3559   6.054   4.776   1.337  0.5989  1.4781 -0.4074
   26MOL0     H 3560   6.188   4.959   1.357  1.9217  0.3312  2.2903
   26MOL0     H 3561   6.233   4.830   1.467 -2.4678 -1.3608  1.3123
   26MOL0     H 3562   6.385   4.893   1.201  2.1207  0.4064 -0.1507
   26MOL0     H 3563   6.453   4.793   1.327  0.2171 -1.8414 -2.3622
   26MOL0     H 3564   6.472   4.960   1.485 -0.8986  0.3099  0.5976
   26MOL0     H 3565   6.390   5.078   1.381  1.5691  1.4646  1.1202
   26MOL0     H 3566   6.652   4.943   1.282 -0.6632  0.4587 -2.0317
   26MOL0     H 3567   6.632   5.097   1.367  0.2811 -1.3407  0.5488
   26MOL0     H 3568   5.743   4.798   0.735 -0.1939 -2.2237 -2.4263
   26MOL0     H 3569   5.509   4.860   0.678 -0.8736  0.0238  0.0599
   26MOL0     H 3570   5.031   4.758   0.884 -1.1607 -0.4938  0.2132
   26MOL0     H 3571   4.798   4.827   0.846  0.9951 -1.6265 -1.2751
   26MOL0     H 3572   5.652   5.599   0.543  0.4237 -0.1181 -0.8735
   26MOL0     H 3573   5.576   5.794   0.420  1.3438 -0.4534  3.6925
   26MOL0     H 3574   5.376   6.073   0.258  0.4696 -1.7880  0.6343
   26MOL0     H 3575   5.344   6.247   0.083  1.3813 -1.3857 -2.5776
   26MOL0     H 3576   5.026   6.397   0.146  4.0909  1.0397  1.6657
   26MOL0     H 3577   5.155   6.479   0.067  1.1976  0.1037 -1.7576
   26MOL0     H 3578   4.953   6.593   0.035 -1.2154  0.6398 -0.1197
   26MOL0     H 3579   4.868   6.443  -0.016  2.0165 -1.5534  2.6992
   26MOL0     H 3580   5.106   6.583  -0.164 -0.4046  0.5399 -0.3033
   26MOL0     H 3581   5.019   6.451  -0.232  1.7581 -0.9214  2.4336
   26MOL0     H 3582   4.976   6.677  -0.336  2.6092 -3.8769 -0.0016
   26MOL0     H 3583   4.926   6.747  -0.183 -1.1892  0.6136 -0.7768
   26MOL0     H 3584   4.565   6.542  -0.283 -0.4632  2.9312 -0.9650
   26MOL0     H 3585   4.938   6.107   0.038  0.1014 -3.4095 -0.6927
   26MOL0     H 3586   4.856   5.899   0.167 -0.7642 -0.9329  1.1079
   26MOL0     H 3587   4.957   5.787   0.097  1.1778  0.3760 -0.1262
   26MOL0     H 3588   4.969   5.831   0.276  1.3980  0.7486 -0.0685
   27MOL0     O 3589   8.017   4.068   9.231 -0.1325 -0.8222 -0.0014
   27MOL0     C 3590   8.125   4.066   9.168 -0.1943 -0.4896 -0.2382
   27MOL0     O 3591   8.232   4.141   9.189 -0.8550 -0.3768  0.0123
   27MOL0     C 3592   8.234   4.238   9.288 -0.6234  0.8502  0.4593
   27MOL0     C 3593   8.357   4.242   9.349  0.4142 -0.2954  0.6384
   27MOL0     C 3594   8.379   4.349   9.440 -0.2601  0.3156 -0.5392
   27MOL0     C 3595   8.283   4.436   9.473 -0.8249 -0.3944 -0.2622
   27MOL0     O 3596   8.308   4.529   9.567 -0.0910 -0.0405  0.2579
   27MOL0     C 3597   8.207   4.552   9.672  0.8648 -0.3806  0.1879
   27MOL0     C 3598   8.267   4.560   9.812  0.0675  0.2624 -0.3250
   27MOL0     C 3599   8.372   4.444   9.843  0.6707  0.1999 -0.3054
   27MOL0     C 3600   8.397   4.442   9.997  0.4073  0.3078  0.9918
   27MOL0     C 3601   8.495   4.327  10.022  0.2288  0.1332  0.3036
   27MOL0     C 3602   8.519   4.309  10.171  0.3437 -1.0674 -0.1739
   27MOL0     C 3603   8.571   4.431  10.250  0.1379  0.8426  0.3416
   27MOL0     C 3604   8.562   4.410  10.404  0.1577 -0.0783  0.2868
   27MOL0     N 3605   8.677   4.332  10.460 -0.5026 -0.3450  0.3817
   27MOL0     C 3606   8.804   4.383  10.503  0.4281 -0.8919 -0.2974
   27MOL0     C 3607   8.868   4.276  10.564 -0.6342  0.1915 -0.0047
   27MOL0     C 3608   8.987   4.290  10.659 -0.6669 -0.9093  0.6204
   27MOL0     C 3609   9.106   4.363  10.597  0.2860  0.0622 -0.2089
   27MOL0     C 3610   9.235   4.334  10.677 -0.3925  0.3931  0.6000
   27MOL0     C 3611   9.362   4.414  10.644 -0.3372 -1.4172  0.4529
   27MOL0     O 3612   9.419   4.377  10.515  0.1055  0.2579  0.2802
   27MOL0     C 3613   9.525   4.447  10.462  0.6074  0.4015  0.3505
   27MOL0     C 3614   9.590   4.405  10.355  0.3741 -0.4999  0.8961
   27MOL0     C 3615   9.691   4.477  10.290 -0.0794 -0.5930  0.3629
   27MOL0     C 3616   9.749   4.434  10.153 -0.3090  1.0397  0.3290
   27MOL0     C 3617   9.742   4.589  10.361 -0.3518 -0.3076  0.7929
   27MOL0     C 3618   9.867   4.652  10.313  0.4805 -0.9484 -0.3549
   27MOL0     O 3619   9.981   4.581  10.315 -0.0179  0.3117  0.6743
   27MOL0     C 3620  10.095   4.611  10.243  0.6413  0.0557 -1.3289
   27MOL0     C 3621  10.218   4.566  10.299  0.7199  0.1104  0.0392
   27MOL0     C 3622  10.347   4.591  10.245 -0.1051 -0.4966  0.0572
   27MOL0     C 3623  10.347   4.683  10.129 -0.6865  0.4857 -0.2720
   27MOL0     O 3624  10.453   4.731  10.058 -0.2232 -0.2942 -0.1535
   27MOL0     C 3625  10.579   4.738  10.128  0.6706  0.9511  0.1470
   27MOL0     C 3626  10.695   4.800  10.053  0.6317 -0.4396  0.1850
   27MOL0     C 3627  10.727   4.745   9.920  0.2397 -0.0046  0.7983
   27MOL0     C 3628  10.817   4.840   9.839 -0.5368 -0.3084 -0.4539
   27MOL0     C 3629  10.890   4.769   9.723  0.5705  0.2149  0.0500
   27MOL0     C 3630  10.983   4.857   9.642  0.2129  0.0261 -0.2822
   27MOL0     C 3631  10.985   4.821   9.504 -0.1917  0.0607  1.1522
   27MOL0     C 3632  11.080   4.917   9.431  0.1426  0.5976 -0.3470
   27MOL0    Cl 3633  11.155   4.833   9.284 -0.5712  0.3152  0.1410
   27MOL0     C 3634  10.233   4.751  10.095 -0.1204  1.3112  0.1417
   27MOL0     C 3635  10.108   4.709  10.148  0.8111 -0.8328  0.0684
   27MOL0     O 3636   9.859   4.775  10.297 -0.7513 -0.2128  0.0086
   27MOL0     C 3637   9.677   4.642  10.465 -0.0122  0.3881 -0.6275
   27MOL0     C 3638   9.567   4.570  10.522 -0.4824  0.0032  0.9076
   27MOL0     N 3639   8.781   4.168  10.560 -0.6142 -0.0134  0.5187
   27MOL0     N 3640   8.676   4.203  10.503 -0.6425  0.8165 -0.2808
   27MOL0     C 3641   8.159   4.434   9.415 -0.0957 -0.0693  0.2629
   27MOL0     C 3642   8.132   4.339   9.313 -0.9979  1.0743 -0.5425
   27MOL0     C 3643   8.147   3.946   9.074  0.2164 -0.5091  0.0739
   27MOL0     C 3644   8.086   3.830   9.111  0.2616  0.3278 -0.2222
   27MOL0     C 3645   8.092   3.713   9.031 -0.4721  0.5455  0.5710
   27MOL0     C 3646   8.164   3.722   8.907 -0.7159 -0.3788 -0.5385
   27MOL0     O 3647   8.187   3.618   8.821 -0.2822  0.2402 -0.3594
   27MOL0     C 3648   8.181   3.485   8.872 -0.5115  0.3969 -0.0582
   27MOL0     C 3649   8.176   3.390   8.752  1.4630 -0.1675  0.6241
   27MOL0     C 3650   8.218   3.459   8.617 -0.4519 -0.0251 -0.4548
   27MOL0     C 3651   8.369   3.503   8.611  0.5993  0.2332  0.1970
   27MOL0     C 3652   8.456   3.393   8.629  0.0802  0.4296  0.5803
   27MOL0     C 3653   8.537   3.302   8.635 -0.8545 -0.3957  0.2192
   27MOL0     C 3654   8.236   3.840   8.885 -0.0763 -0.9814  0.0823
   27MOL0     C 3655   8.225   3.963   8.955  0.2980 -0.5376  0.3607
   27MOL0     C 3656   8.282   4.083   8.898 -0.3963 -0.5119  0.1456
   27MOL0     H 3657   8.428   4.163   9.327 -2.5168 -3.1083  0.4646
   27MOL0     H 3658   8.477   4.355   9.487 -1.2002  1.9356  1.3947
   27MOL0     H 3659   8.131   4.474   9.670 -0.5517  0.9632 -1.3764
   27MOL0     H 3660   8.164   4.649   9.643  2.4545  0.5658  0.8081
   27MOL0     H 3661   8.312   4.659   9.818  0.8201  0.1612 -2.9218
   27MOL0     H 3662   8.191   4.543   9.888  2.1479 -1.7529  1.4902
   27MOL0     H 3663   8.328   4.349   9.813 -0.2053 -0.0445  1.6354
   27MOL0     H 3664   8.466   4.455   9.787  0.8693  0.8751  0.1308
   27MOL0     H 3665   8.429   4.540  10.031 -2.8275  1.4535  1.0931
   27MOL0     H 3666   8.306   4.413  10.050  0.2199 -1.7370 -0.3002
   27MOL0     H 3667   8.587   4.350   9.967 -0.0032 -1.7361 -0.9477
   27MOL0     H 3668   8.464   4.229   9.984 -1.5168  1.5105 -2.1456
   27MOL0     H 3669   8.426   4.271  10.214  0.3598 -1.8613 -0.8295
   27MOL0     H 3670   8.588   4.226  10.189  1.0087 -0.4882  0.0056
   27MOL0     H 3671   8.501   4.513  10.229  0.8035  1.3681  0.1114
   27MOL0     H 3672   8.675   4.451  10.219  0.1701 -0.6165 -0.5867
   27MOL0     H 3673   8.547   4.505  10.457  0.7268  0.2521 -0.1258
   27MOL0     H 3674   8.471   4.360  10.439 -0.6559  1.1079 -0.0635
   27MOL0     H 3675   8.849   4.481  10.496 -0.7241 -0.1095  2.1102
   27MOL0     H 3676   9.016   4.189  10.689  1.1846 -0.7904 -0.5709
   27MOL0     H 3677   8.958   4.346  10.748  0.7977 -1.6203  1.5804
   27MOL0     H 3678   9.127   4.335  10.494  1.7879  0.2616  0.0272
   27MOL0     H 3679   9.071   4.467  10.590 -4.8603 -1.4188 -1.5331
   27MOL0     H 3680   9.214   4.365  10.779  2.0009  0.3711  1.1467
   27MOL0     H 3681   9.262   4.228  10.674 -2.7718 -0.2635 -1.6273
   27MOL0     H 3682   9.332   4.519  10.645 -0.6453 -1.4579 -1.4814
   27MOL0     H 3683   9.440   4.408  10.720 -2.3415  1.8387  3.0370
   27MOL0     H 3684   9.545   4.319  10.306  2.0135 -0.5051 -0.7207
   27MOL0     H 3685   9.858   4.432  10.162  0.0738 -0.3825 -3.0800
   27MOL0     H 3686   9.717   4.502  10.073 -2.6945 -0.7764 -0.3742
   27MOL0     H 3687   9.715   4.334  10.125 -0.6352  1.9859 -3.0648
   27MOL0     H 3688  10.216   4.500  10.385 -0.7634 -0.0150 -0.0517
   27MOL0     H 3689  10.436   4.539  10.278 -0.7516 -2.9026 -1.7282
   27MOL0     H 3690  10.568   4.784  10.227  0.4453 -0.2191  0.6984
   27MOL0     H 3691  10.616   4.637  10.151 -1.3553  0.5762  2.2333
   27MOL0     H 3692  10.680   4.909  10.053  0.2716 -0.4833  0.8085
   27MOL0     H 3693  10.780   4.793  10.121 -0.5875  3.6620  2.4982
   27MOL0     H 3694  10.635   4.719   9.866  1.4688  2.0175 -2.5264
   27MOL0     H 3695  10.783   4.652   9.930  1.4875  0.5358 -0.7233
   27MOL0     H 3696  10.897   4.868   9.908 -0.2072 -1.2971 -0.4160
   27MOL0     H 3697  10.764   4.929   9.806  2.0840  2.4260  2.0603
   27MOL0     H 3698  10.948   4.686   9.764  0.3919 -0.3550 -0.8359
   27MOL0     H 3699  10.823   4.714   9.656  0.1609 -0.4867  1.0110
   27MOL0     H 3700  11.083   4.845   9.684  0.4316  0.1092 -0.7661
   27MOL0     H 3701  10.958   4.963   9.655 -1.4435 -0.1174 -1.8309
   27MOL0     H 3702  10.886   4.826   9.458  0.5124  1.5719 -0.2748
   27MOL0     H 3703  11.009   4.715   9.490 -2.7439 -0.2432 -1.9852
   27MOL0     H 3704  11.160   4.945   9.500 -0.2166  0.1329  0.2779
   27MOL0     H 3705  11.021   5.005   9.406 -2.3656 -0.5703  1.0573
   27MOL0     H 3706  10.227   4.835  10.027 -0.8689  1.0982 -0.0640
   27MOL0     H 3707  10.015   4.757  10.117  0.8496 -0.7013  0.1556
   27MOL0     H 3708   9.710   4.739  10.501 -0.7224  0.4392 -0.1172
   27MOL0     H 3709   9.514   4.606  10.609 -1.5968 -1.2299  0.7703
   27MOL0     H 3710   8.090   4.512   9.445  1.2196  0.4437  2.1351
   27MOL0     H 3711   8.039   4.346   9.257 -0.9577  1.5103 -0.5543
   27MOL0     H 3712   8.031   3.826   9.205 -1.0008  0.1775 -0.9443
   27MOL0     H 3713   8.036   3.630   9.073 -1.5520  1.6478  1.3872
   27MOL0     H 3714   8.279   3.465   8.915 -0.6490 -2.6614 -0.9227
   27MOL0     H 3715   8.096   3.463   8.938 -0.2523 -2.0399 -0.4640
   27MOL0     H 3716   8.081   3.338   8.741  3.2398 -3.1680 -2.8933
   27MOL0     H 3717   8.227   3.296   8.777  0.0897 -1.0666  0.1642
   27MOL0     H 3718   8.218   3.380   8.542 -1.4418  0.4617 -0.9876
   27MOL0     H 3719   8.139   3.534   8.605 -1.5081 -0.9164  0.6374
   27MOL0     H 3720   8.389   3.578   8.688  3.2265 -0.7097  0.5166
   27MOL0     H 3721   8.394   3.547   8.514 -1.9173 -1.1571 -1.1836
   27MOL0     H 3722   8.607   3.222   8.645  2.6369  1.9487 -2.7567
   27MOL0     H 3723   8.292   3.846   8.793  1.8278  2.0074  1.2858
   27MOL0     H 3724   8.335   4.056   8.805  1.6148 -1.8893  1.5997
   27MOL0     H 3725   8.215   4.169   8.894  1.0196  1.1539  5.1729
   27MOL0     H 3726   8.374   4.108   8.953 -1.2592  0.4372  1.1924
   28MOL0     O 3727  10.520   6.315   0.932 -0.4289 -0.0696 -0.1525
   28MOL0     C 3728  10.541   6.200   0.886  0.0136  0.0192  0.8028
   28MOL0     O 3729  10.452   6.118   0.821 -0.0402  0.1918 -0.4389
   28MOL0     C 3730  10.332   6.178   0.787 -0.3651 -0.0808  0.2512
   28MOL0     C 3731  10.325   6.294   0.709  0.8917 -0.3562  0.2916
   28MOL0     C 3732  10.196   6.338   0.679 -1.0309 -0.2091  0.1064
   28MOL0     C 3733  10.080   6.267   0.695 -0.6906 -0.5740 -0.8557
   28MOL0     O 3734   9.963   6.315   0.646  0.3531  0.3775  0.0372
   28MOL0     C 3735   9.858   6.223   0.603 -0.5558 -0.1165  0.4074
   28MOL0     C 3736   9.897   6.115   0.500 -0.6479 -0.0790 -0.0870
   28MOL0     C 3737   9.777   6.025   0.469  0.4787 -0.1290  0.2896
   28MOL0     C 3738   9.826   5.902   0.377 -0.2257 -0.2111  1.0185
   28MOL0     C 3739   9.860   5.939   0.230  0.0421 -0.6321 -0.5292
   28MOL0     C 3740   9.920   5.812   0.163  0.5287  0.9283 -0.2114
   28MOL0     C 3741   9.959   5.840   0.019  0.1884  0.1493  0.4525
   28MOL0     C 3742  10.057   5.736  -0.042  0.5879  0.2250 -0.0193
   28MOL0     N 3743  10.181   5.739   0.036 -0.5861 -0.3128 -0.5123
   28MOL0     C 3744  10.219   5.635   0.114 -0.9106 -0.0773  0.0941
   28MOL0     C 3745  10.344   5.674   0.166  0.3036 -0.4993  0.1019
   28MOL0     C 3746  10.415   5.588   0.269 -0.0588 -0.7401  0.3557
   28MOL0     C 3747  10.543   5.534   0.216  0.2660  0.0375  0.2744
   28MOL0     C 3748  10.522   5.445   0.092 -0.8419 -0.5941  0.7280
   28MOL0     C 3749  10.656   5.414   0.016  0.3146  0.4767  0.8001
   28MOL0     O 3750  10.763   5.354   0.095 -0.5162 -0.0870 -0.9383
   28MOL0     C 3751  10.882   5.335   0.032  0.4195 -0.0331  0.1452
   28MOL0     C 3752  10.989   5.282   0.108 -0.7348 -0.8251  0.1367
   28MOL0     C 3753  11.117   5.266   0.059  0.1046 -0.8434  0.1247
   28MOL0     C 3754  11.223   5.255   0.172 -0.0848 -0.2867 -0.2152
   28MOL0     C 3755  11.146   5.292  -0.080  0.4594  0.4879 -0.6374
   28MOL0     C 3756  11.283   5.272  -0.146  0.4666 -0.1003 -0.9438
   28MOL0     O 3757  11.396   5.298  -0.063 -0.1551 -0.4785 -0.5677
   28MOL0     C 3758  11.513   5.277  -0.126 -0.5021  0.1513  0.4902
   28MOL0     C 3759  11.580   5.371  -0.202 -0.5875 -0.0635 -0.0089
   28MOL0     C 3760  11.698   5.330  -0.271 -1.2549  0.4508  0.5257
   28MOL0     C 3761  11.755   5.202  -0.253 -0.2760 -0.0822  0.3589
   28MOL0     O 3762  11.878   5.180  -0.318  0.1031 -0.2366  0.2499
   28MOL0     C 3763  11.979   5.080  -0.273  0.3918 -0.7007 -0.1093
   28MOL0     C 3764  12.116   5.112  -0.333 -0.3341  0.2237 -0.2257
   28MOL0     C 3765  12.213   4.990  -0.300  0.0356  0.5221  0.2212
   28MOL0     C 3766  12.355   5.040  -0.347 -0.4383 -1.2755  0.3854
   28MOL0     C 3767  12.451   4.935  -0.373 -0.5858  0.2421 -0.0738
   28MOL0     C 3768  12.597   4.990  -0.409  0.3791  0.0529 -0.3613
   28MOL0     C 3769  12.697   4.875  -0.408  0.4059  0.4134 -0.3435
   28MOL0     C 3770  12.758   4.846  -0.267 -0.5613 -0.4141  0.4386
   28MOL0    Cl 3771  12.856   4.695  -0.256 -0.0952  0.4195 -0.0593
   28MOL0     C 3772  11.676   5.110  -0.181 -0.3003  0.9312 -0.2152
   28MOL0     C 3773  11.565   5.150  -0.117 -0.6214 -0.0229 -1.3048
   28MOL0     O 3774  11.287   5.218  -0.261  0.1264  0.1496  0.2670
   28MOL0     C 3775  11.031   5.327  -0.161  0.2202 -0.2217 -0.9662
   28MOL0     C 3776  10.906   5.359  -0.098 -0.4518  0.0492  0.2317
   28MOL0     N 3777  10.370   5.802   0.117 -0.1952 -0.1765 -0.5238
   28MOL0     N 3778  10.273   5.839   0.046  0.0694  0.2143  0.5606
   28MOL0     C 3779  10.096   6.142   0.760 -0.1751  0.3370 -0.8612
   28MOL0     C 3780  10.222   6.107   0.806 -0.4676  0.2462 -0.6478
   28MOL0     C 3781  10.681   6.153   0.880  0.1664  0.3611 -0.8670
   28MOL0     C 3782  10.747   6.217   0.784 -0.2544  0.2704 -0.4342
   28MOL0     C 3783  10.876   6.195   0.755 -0.2876  0.3658  0.7427
   28MOL0     C 3784  10.948   6.112   0.834 -0.1787 -0.1557 -0.7999
   28MOL0     O 3785  11.078   6.113   0.799 -0.7236  0.4001 -0.2368
   28MOL0     C 3786  11.172   6.014   0.852 -1.1722  0.3199  0.1605
   28MOL0     C 3787  11.319   6.046   0.820  0.1028  0.2108 -0.1679
   28MOL0     C 3788  11.407   5.930   0.854  1.2831 -0.3757  0.2666
   28MOL0     C 3789  11.554   5.954   0.819 -0.0312  0.0954 -0.3378
   28MOL0     C 3790  11.648   5.860   0.888  0.3056  0.9542  0.7104
   28MOL0     C 3791  11.724   5.792   0.951 -0.9663  0.2756 -0.8468
   28MOL0     C 3792  10.886   6.043   0.939 -0.6764 -1.0228  0.1357
   28MOL0     C 3793  10.750   6.057   0.956  0.7513  0.2741 -0.6791
   28MOL0     C 3794  10.689   5.979   1.064  0.6425  0.4748  0.1937
   28MOL0     H 3795  10.408   6.355   0.677 -0.4056 -0.1244 -2.9991
   28MOL0     H 3796  10.208   6.431   0.623  3.1787 -0.0817  0.8557
   28MOL0     H 3797   9.786   6.294   0.560 -1.7570 -0.8841  1.1022
   28MOL0     H 3798   9.813   6.191   0.697  0.5453  1.8271  1.6864
   28MOL0     H 3799   9.950   6.153   0.413 -0.2827  1.8750  0.9374
   28MOL0     H 3800   9.967   6.054   0.558 -0.1250 -0.4499 -1.0917
   28MOL0     H 3801   9.722   5.978   0.551 -2.0025  0.4573 -0.9275
   28MOL0     H 3802   9.705   6.093   0.423  1.5112  1.2066  0.5761
   28MOL0     H 3803   9.915   5.860   0.424  0.5175  1.1745  0.9126
   28MOL0     H 3804   9.745   5.828   0.375 -2.7757  2.3521 -1.4633
   28MOL0     H 3805   9.936   6.018   0.236  0.1845 -0.6054 -2.3165
   28MOL0     H 3806   9.777   5.984   0.175  0.7572  3.1092  1.1093
   28MOL0     H 3807  10.007   5.783   0.222 -0.1879  2.8482  1.9681
   28MOL0     H 3808   9.837   5.741   0.165  0.5057  0.9646  0.2196
   28MOL0     H 3809   9.988   5.944   0.002 -0.8430  0.3406 -0.2465
   28MOL0     H 3810   9.871   5.822  -0.045  0.7732 -1.6713  0.0990
   28MOL0     H 3811  10.022   5.632  -0.041  0.4583  0.1677 -2.6495
   28MOL0     H 3812  10.064   5.766  -0.147 -1.7019 -0.8055 -0.5329
   28MOL0     H 3813  10.164   5.543   0.133  0.2334 -0.5033  1.5091
   28MOL0     H 3814  10.351   5.502   0.290 -0.4756 -0.3785  0.5788
   28MOL0     H 3815  10.433   5.639   0.365  0.8828 -1.9486  0.8481
   28MOL0     H 3816  10.617   5.614   0.203  0.3700  0.1861  1.5992
   28MOL0     H 3817  10.575   5.465   0.295 -0.7892 -0.2194  0.4928
   28MOL0     H 3818  10.468   5.357   0.126 -0.0022 -0.8490  1.4459
   28MOL0     H 3819  10.455   5.501   0.026  0.3386  1.3242  1.0660
   28MOL0     H 3820  10.622   5.335  -0.052 -0.2866 -1.6420  3.4067
   28MOL0     H 3821  10.702   5.500  -0.033  1.0060 -0.6721 -0.6829
   28MOL0     H 3822  10.954   5.274   0.211 -2.6013  0.3897 -0.3446
   28MOL0     H 3823  11.258   5.359   0.183  0.5212 -0.3458 -1.4443
   28MOL0     H 3824  11.311   5.195   0.148  1.7485  2.2801 -0.3683
   28MOL0     H 3825  11.190   5.211   0.266  2.9866 -1.1015  0.5996
   28MOL0     H 3826  11.532   5.469  -0.199  0.6936  0.5609  1.3750
   28MOL0     H 3827  11.760   5.400  -0.327 -0.8971  0.1394  0.5244
   28MOL0     H 3828  11.996   5.063  -0.166  4.3872 -1.1314 -0.6593
   28MOL0     H 3829  11.937   4.985  -0.305 -1.6463  0.0172  0.3237
   28MOL0     H 3830  12.109   5.140  -0.439 -2.4477 -0.6240 -0.3561
   28MOL0     H 3831  12.143   5.204  -0.280 -1.1740  2.6072 -3.5660
   28MOL0     H 3832  12.173   4.904  -0.355  0.3445 -0.0582  0.8866
   28MOL0     H 3833  12.211   4.969  -0.193 -2.2923  2.1442  0.5683
   28MOL0     H 3834  12.387   5.106  -0.266 -0.1955  0.3157 -0.9574
   28MOL0     H 3835  12.356   5.109  -0.433 -1.0708 -2.8500 -0.9432
   28MOL0     H 3836  12.460   4.862  -0.292  2.8744  0.9352  0.3279
   28MOL0     H 3837  12.437   4.882  -0.468  1.5577  0.8941 -0.8026
   28MOL0     H 3838  12.619   5.065  -0.332 -0.1941 -0.2018  0.0554
   28MOL0     H 3839  12.576   5.047  -0.500 -1.6272 -0.9285 -0.5562
   28MOL0     H 3840  12.783   4.892  -0.473 -1.7234  0.2172 -3.4486
   28MOL0     H 3841  12.641   4.788  -0.446 -1.2549  1.3478 -0.1431
   28MOL0     H 3842  12.686   4.842  -0.184 -1.7405  2.2143 -0.3459
   28MOL0     H 3843  12.813   4.940  -0.253 -1.6878  0.8774 -2.9318
   28MOL0     H 3844  11.718   5.011  -0.171  0.0458  1.2381  1.7624
   28MOL0     H 3845  11.511   5.083  -0.050 -0.1385  0.4509 -0.4178
   28MOL0     H 3846  11.044   5.344  -0.267 -1.0467  0.3345 -1.0521
   28MOL0     H 3847  10.826   5.389  -0.164 -0.6072  0.3676  0.5632
   28MOL0     H 3848  10.005   6.090   0.786 -0.3866  1.4987  0.8963
   28MOL0     H 3849  10.236   6.024   0.874 -1.5539  0.5105 -0.0694
   28MOL0     H 3850  10.698   6.295   0.725 -1.1156  1.8118  2.1606
   28MOL0     H 3851  10.938   6.263   0.696  1.0506  1.3129  3.0999
   28MOL0     H 3852  11.161   6.002   0.960  1.7201 -0.0608  0.5079
   28MOL0     H 3853  11.139   5.917   0.814 -0.5434 -0.6230  1.8993
   28MOL0     H 3854  11.353   6.138   0.871 -0.1979  0.9176 -1.2177
   28MOL0     H 3855  11.325   6.065   0.713 -0.8967 -1.1684 -0.4820
   28MOL0     H 3856  11.393   5.915   0.962 -2.1236  1.0669  0.1442
   28MOL0     H 3857  11.386   5.843   0.792 -0.4763  0.0652  0.1850
   28MOL0     H 3858  11.573   6.048   0.873  3.0331 -1.6990  2.0890
   28MOL0     H 3859  11.563   5.965   0.711  0.8287 -0.6470 -0.3544
   28MOL0     H 3860  11.788   5.731   1.011 -0.6468  1.5501  0.1471
   28MOL0     H 3861  10.946   5.979   1.003  1.9051  1.3613  0.2868
   28MOL0     H 3862  10.685   6.044   1.152  2.0495  0.1989  0.4708
   28MOL0     H 3863  10.584   5.959   1.037 -0.1309 -0.8585  3.7010
   28MOL0     H 3864  10.746   5.892   1.096  0.3421  0.8545  1.8357
   29MOL0     O 3865   1.725   4.489   4.457  0.9351 -0.2779  0.0170
   29MOL0     C 3866   1.735   4.437   4.344 -0.0396 -0.3136  0.5245
   29MOL0     O 3867   1.795   4.324   4.317 -0.5549 -0.3465  0.4430
   29MOL0     C 3868   1.866   4.255   4.415 -0.2412 -0.4937  0.1980
   29MOL0     C 3869   1.829   4.130   4.460 -0.2794 -0.6369  0.0239
   29MOL0     C 3870   1.902   4.056   4.548 -0.8886  0.3122  0.2300
   29MOL0     C 3871   2.022   4.111   4.604  0.3777 -0.6168  0.1382
   29MOL0     O 3872   2.097   4.031   4.682  0.3973  0.8376 -0.4151
   29MOL0     C 3873   2.232   4.016   4.633  0.3535  0.1517  0.4604
   29MOL0     C 3874   2.274   3.870   4.636  0.1343 -0.2013  0.0672
   29MOL0     C 3875   2.420   3.846   4.600 -0.2262 -0.2522 -0.1114
   29MOL0     C 3876   2.477   3.889   4.464 -0.1003 -0.0668 -0.3627
   29MOL0     C 3877   2.623   3.832   4.454  0.9572  0.4938 -0.0109
   29MOL0     C 3878   2.637   3.731   4.338 -0.6485 -0.1974  0.7883
   29MOL0     C 3879   2.614   3.788   4.213  0.3319 -0.8612  0.2302
   29MOL0     C 3880   2.632   3.688   4.094  0.0314 -0.7904 -0.9021
   29MOL0     N 3881   2.625   3.765   3.965 -0.0682  0.5058  0.2674
   29MOL0     C 3882   2.741   3.820   3.898 -0.1747 -0.4320  0.3206
   29MOL0     C 3883   2.686   3.897   3.797  0.0527  0.8050  0.1889
   29MOL0     C 3884   2.758   3.967   3.684  1.0661 -0.9392  0.2956
   29MOL0     C 3885   2.708   4.112   3.662  0.1211 -0.6613  0.3194
   29MOL0     C 3886   2.766   4.155   3.529  0.6606 -0.4662  0.5192
   29MOL0     C 3887   2.919   4.151   3.520  0.2013 -0.0560 -0.7841
   29MOL0     O 3888   2.956   4.226   3.633 -0.1969 -0.6098 -0.5226
   29MOL0     C 3889   3.089   4.231   3.665 -0.3232  0.4549 -0.3640
   29MOL0     C 3890   3.130   4.190   3.791  0.0047 -0.1793  0.5442
   29MOL0     C 3891   3.264   4.166   3.827  0.3927 -0.7084 -0.2898
   29MOL0     C 3892   3.284   4.108   3.971 -0.8656 -1.0099  0.8009
   29MOL0     C 3893   3.359   4.202   3.727 -1.1241  0.9206  0.3767
   29MOL0     C 3894   3.514   4.192   3.750  0.5632 -0.0744  0.9755
   29MOL0     O 3895   3.588   4.208   3.638 -0.2093 -0.1950 -0.2712
   29MOL0     C 3896   3.726   4.206   3.649 -0.5020  0.4259  0.7730
   29MOL0     C 3897   3.807   4.120   3.724  0.8179  0.1056 -0.2652
   29MOL0     C 3898   3.948   4.116   3.719 -0.6243 -0.2132 -0.6641
   29MOL0     C 3899   4.009   4.228   3.647  0.1342  0.3066  0.3497
   29MOL0     O 3900   4.147   4.260   3.655  0.1634 -0.5656 -0.3036
   29MOL0     C 3901   4.232   4.160   3.698  1.2869  0.0358 -0.1536
   29MOL0     C 3902   4.376   4.203   3.679  0.3476 -0.8151 -0.0869
   29MOL0     C 3903   4.469   4.102   3.728  1.0281 -0.1957 -0.3549
   29MOL0     C 3904   4.602   4.164   3.765 -0.3307  0.0031 -0.5600
   29MOL0     C 3905   4.698   4.051   3.813  0.0936  0.5290 -0.7245
   29MOL0     C 3906   4.831   4.117   3.869 -0.2442 -0.5071 -0.0364
   29MOL0     C 3907   4.915   4.005   3.938 -0.3845 -0.2761 -0.0006
   29MOL0     C 3908   5.045   4.053   3.999 -1.7325 -0.1746  1.0861
   29MOL0    Cl 3909   5.159   4.141   3.886 -0.0554  0.4944  0.0582
   29MOL0     C 3910   3.928   4.310   3.573 -0.6322  0.5472 -0.1464
   29MOL0     C 3911   3.793   4.298   3.573 -1.2889  0.0461  1.2632
   29MOL0     O 3912   3.551   4.155   3.862  0.1810 -0.5763  1.1944
   29MOL0     C 3913   3.314   4.248   3.600  0.0736  0.2737 -0.5267
   29MOL0     C 3914   3.181   4.251   3.571 -0.8714 -0.0890  0.0055
   29MOL0     N 3915   2.549   3.880   3.808  0.1661 -0.2071 -0.2057
   29MOL0     N 3916   2.511   3.810   3.904  1.3305  0.5521 -0.5182
   29MOL0     C 3917   2.055   4.248   4.574 -0.1456  1.2466 -0.1649
   29MOL0     C 3918   1.979   4.316   4.476 -0.3285  0.5054  0.4147
   29MOL0     C 3919   1.671   4.503   4.232  0.0895 -0.9966 -0.3928
   29MOL0     C 3920   1.602   4.430   4.147  0.5542  0.0670  0.4516
   29MOL0     C 3921   1.530   4.480   4.036  0.1599 -0.1311 -0.2957
   29MOL0     C 3922   1.541   4.619   4.014  0.4825 -0.0727  0.1029
   29MOL0     O 3923   1.469   4.687   3.924  0.8936 -0.1489  0.6662
   29MOL0     C 3924   1.330   4.665   3.928  0.6995  0.2647 -0.3864
   29MOL0     C 3925   1.253   4.772   3.846 -0.1984 -0.4282 -0.0364
   29MOL0     C 3926   1.103   4.751   3.843 -0.1598  0.0054 -0.1381
   29MOL0     C 3927   1.025   4.820   3.955 -0.3252  0.7405 -1.2991
   29MOL0     C 3928   1.044   4.768   4.097  0.3913 -0.2754  0.2756
   29MOL0     C 3929   1.058   4.724   4.207  0.3621 -0.2814  0.5131
   29MOL0     C 3930   1.630   4.700   4.090 -0.3369 -0.0267  0.1293
   29MOL0     C 3931   1.687   4.643   4.208  0.7857 -0.0649 -0.7668
   29MOL0     C 3932   1.765   4.733   4.294 -0.1735  0.6321  0.1473
   29MOL0     H 3933   1.741   4.089   4.410 -0.4854  3.0935 -3.0981
   29MOL0     H 3934   1.869   3.961   4.587  1.1759 -0.9482 -0.8827
   29MOL0     H 3935   2.302   4.073   4.694  1.5497  3.2590 -3.3982
   29MOL0     H 3936   2.241   4.044   4.528  1.6453 -3.4943 -0.5597
   29MOL0     H 3937   2.256   3.832   4.736 -0.3696  1.1921  0.5232
   29MOL0     H 3938   2.202   3.807   4.583  0.3130 -0.6285  0.3198
   29MOL0     H 3939   2.484   3.887   4.679  1.3534  2.1779 -2.4767
   29MOL0     H 3940   2.426   3.737   4.602  2.3863 -0.1658  0.5119
   29MOL0     H 3941   2.402   3.857   4.392 -2.5841 -2.3637  2.9410
   29MOL0     H 3942   2.489   3.998   4.464  2.2022 -0.2148  1.6106
   29MOL0     H 3943   2.660   3.785   4.546  4.0069  2.4660 -0.0625
   29MOL0     H 3944   2.693   3.915   4.438  5.5020 -3.0196 -0.6685
   29MOL0     H 3945   2.739   3.692   4.346 -0.6250  0.0433  1.8259
   29MOL0     H 3946   2.560   3.657   4.360 -1.0097  0.8607  3.5159
   29MOL0     H 3947   2.691   3.866   4.209  0.6500 -0.9497  2.8454
   29MOL0     H 3948   2.515   3.834   4.210 -0.4824 -2.5804  0.0562
   29MOL0     H 3949   2.728   3.639   4.109  0.3560  0.3371  1.0509
   29MOL0     H 3950   2.557   3.609   4.106  0.0175 -0.6849 -0.2600
   29MOL0     H 3951   2.843   3.796   3.926 -0.0211 -0.5200 -0.3187
   29MOL0     H 3952   2.735   3.911   3.593  0.0763 -0.7867  0.4404
   29MOL0     H 3953   2.867   3.966   3.694  1.0222  2.5591  3.5625
   29MOL0     H 3954   2.602   4.124   3.642  0.4568 -0.2577 -1.3654
   29MOL0     H 3955   2.734   4.183   3.742 -2.3297  0.9109 -0.2033
   29MOL0     H 3956   2.721   4.090   3.453  1.4089  1.7922 -2.0187
   29MOL0     H 3957   2.733   4.258   3.512  1.8651 -0.1560 -0.0556
   29MOL0     H 3958   2.961   4.050   3.518 -0.8938 -0.5199 -1.7538
   29MOL0     H 3959   2.953   4.201   3.429  0.2074 -0.5353 -1.0510
   29MOL0     H 3960   3.045   4.176   3.857 -1.8198  1.0603 -1.4487
   29MOL0     H 3961   3.181   4.082   3.997 -1.0244 -2.0105 -0.7302
   29MOL0     H 3962   3.330   4.175   4.045  1.3951 -0.2736 -1.1479
   29MOL0     H 3963   3.346   4.019   3.960 -0.1360 -0.7117  2.2415
   29MOL0     H 3964   3.747   4.043   3.771 -1.2679  1.4545 -0.5685
   29MOL0     H 3965   4.009   4.062   3.791  0.2144  2.4227  0.7174
   29MOL0     H 3966   4.211   4.136   3.803 -0.8924 -2.4157 -1.0157
   29MOL0     H 3967   4.207   4.070   3.640  2.7196 -1.6941  1.7856
   29MOL0     H 3968   4.394   4.239   3.577 -1.4035  0.8466  0.1276
   29MOL0     H 3969   4.396   4.289   3.743  1.1809 -1.0849  0.0327
   29MOL0     H 3970   4.476   4.021   3.654 -0.5716  0.0042 -0.7694
   29MOL0     H 3971   4.426   4.048   3.812 -1.9416 -0.6198 -1.9885
   29MOL0     H 3972   4.594   4.232   3.850 -0.6688 -1.1065  0.3219
   29MOL0     H 3973   4.638   4.224   3.680 -1.7389  0.6624 -0.7205
   29MOL0     H 3974   4.653   3.991   3.893  1.4323 -1.3972 -1.3545
   29MOL0     H 3975   4.712   3.983   3.729 -1.1897 -0.6085 -0.0637
   29MOL0     H 3976   4.815   4.199   3.939  1.2170 -1.1864  1.1620
   29MOL0     H 3977   4.895   4.152   3.787 -1.9710  0.8682 -0.8609
   29MOL0     H 3978   4.930   3.934   3.857 -1.2804 -3.2291  2.2652
   29MOL0     H 3979   4.858   3.942   4.007 -0.9985 -1.4671 -1.5514
   29MOL0     H 3980   5.100   3.960   4.019 -1.2293  0.1999  1.4599
   29MOL0     H 3981   5.048   4.104   4.095 -2.6933 -0.8257  1.4808
   29MOL0     H 3982   3.969   4.383   3.505  2.0757 -0.2196  0.5437
   29MOL0     H 3983   3.733   4.371   3.520 -0.1733 -1.1342 -1.8425
   29MOL0     H 3984   3.381   4.287   3.523  1.4682 -0.7867  0.1120
   29MOL0     H 3985   3.143   4.296   3.480 -1.8519 -1.5277 -0.3372
   29MOL0     H 3986   2.148   4.287   4.613  1.4974 -1.1462 -1.4708
   29MOL0     H 3987   2.005   4.410   4.429 -0.4463 -0.1794 -1.0823
   29MOL0     H 3988   1.603   4.324   4.168  0.5339  0.1005  0.6235
   29MOL0     H 3989   1.466   4.417   3.976 -2.0527  0.3502  1.4317
   29MOL0     H 3990   1.307   4.562   3.899  1.6910 -0.2373  0.5237
   29MOL0     H 3991   1.304   4.677   4.034 -1.6463  0.5930 -0.9421
   29MOL0     H 3992   1.280   4.756   3.741 -3.1509 -3.9807 -0.4459
   29MOL0     H 3993   1.290   4.870   3.876 -2.0346  0.5074 -0.7101
   29MOL0     H 3994   1.057   4.781   3.748 -0.9499 -0.8873 -0.0560
   29MOL0     H 3995   1.086   4.643   3.841 -0.6843  0.0863 -2.3405
   29MOL0     H 3996   0.919   4.803   3.936 -0.9893  2.5740  0.3132
   29MOL0     H 3997   1.040   4.928   3.945  1.0882  0.5823 -1.0706
   29MOL0     H 3998   1.073   4.693   4.308 -4.0395  2.1622  2.2237
   29MOL0     H 3999   1.650   4.804   4.068  2.2569 -0.6275 -0.7936
   29MOL0     H 4000   1.707   4.734   4.387 -0.3199 -2.5815  0.2023
   29MOL0     H 4001   1.867   4.696   4.307 -0.2489 -0.3878 -1.8634
   29MOL0     H 4002   1.777   4.837   4.262  0.7846  0.5236  0.1256
   30MOL0     O 4003  11.212  11.244   2.539  0.3137 -0.6389 -0.0984
   30MOL0     C 4004  11.274  11.347   2.574  1.3485  0.1305  1.1980
   30MOL0     O 4005  11.395  11.381   2.531  0.0622  0.0046  0.5088
   30MOL0     C 4006  11.485  11.295   2.476  0.1542 -0.1250  1.3441
   30MOL0     C 4007  11.573  11.336   2.370  0.0664 -0.6341 -0.5341
   30MOL0     C 4008  11.673  11.250   2.328  0.2694  0.5427 -0.4413
   30MOL0     C 4009  11.684  11.128   2.396 -0.3217 -0.2090  0.4779
   30MOL0     O 4010  11.773  11.039   2.346 -0.0211 -0.1638 -0.0408
   30MOL0     C 4011  11.918  11.072   2.363 -0.3977 -0.1696 -1.0769
   30MOL0     C 4012  11.994  10.966   2.279  0.0862 -0.9451  0.8002
   30MOL0     C 4013  12.150  11.008   2.265  0.4416  0.4328 -0.8589
   30MOL0     C 4014  12.190  10.963   2.117  0.2837 -0.5013 -0.3634
   30MOL0     C 4015  12.338  10.990   2.075  0.2196 -1.2437 -0.3732
   30MOL0     C 4016  12.374  10.928   1.940  0.4498  0.2463  0.6981
   30MOL0     C 4017  12.523  10.923   1.916 -0.0903  0.7085  0.3022
   30MOL0     C 4018  12.587  11.056   1.949 -0.0762 -0.1938 -0.3482
   30MOL0     N 4019  12.722  11.061   1.896  0.6712  0.6660 -0.5067
   30MOL0     C 4020  12.827  10.968   1.907  0.4904 -0.7788  1.5020
   30MOL0     C 4021  12.925  11.023   1.827 -0.0756  0.6204 -0.2251
   30MOL0     C 4022  13.048  10.963   1.770 -1.1151  1.3263  0.6465
   30MOL0     C 4023  13.147  11.051   1.697 -0.0859  0.0738 -0.0411
   30MOL0     C 4024  13.282  10.982   1.659  1.0720  0.5326 -0.0742
   30MOL0     C 4025  13.370  10.971   1.774 -0.0352 -0.9717  0.1827
   30MOL0     O 4026  13.461  11.082   1.778  0.0899 -0.1418 -0.4691
   30MOL0     C 4027  13.593  11.039   1.811 -0.5156 -0.0436  0.2231
   30MOL0     C 4028  13.625  11.009   1.945  0.6802 -0.4651 -1.2035
   30MOL0     C 4029  13.751  10.960   1.982  0.2400 -0.6912 -0.2910
   30MOL0     C 4030  13.777  10.943   2.129  0.2409  0.4453 -0.4115
   30MOL0     C 4031  13.849  10.942   1.879  1.1805 -0.7123 -0.4778
   30MOL0     C 4032  13.983  10.903   1.906 -0.5399 -0.8820 -1.2705
   30MOL0     O 4033  14.005  10.770   1.937  0.2863  0.0255  0.0697
   30MOL0     C 4034  14.136  10.730   1.959  0.7306 -0.1972  0.5528
   30MOL0     C 4035  14.157  10.667   2.077 -0.5571  0.1623 -0.1234
   30MOL0     C 4036  14.277  10.597   2.096  0.3635 -0.0864  0.6491
   30MOL0     C 4037  14.377  10.593   1.998  1.0152  0.7237 -0.7158
   30MOL0     O 4038  14.497  10.526   2.005 -0.2745 -0.2461  0.0235
   30MOL0     C 4039  14.524  10.435   2.111  0.5387 -0.2976 -0.0068
   30MOL0     C 4040  14.635  10.348   2.065  0.5742 -0.4342 -0.5289
   30MOL0     C 4041  14.732  10.311   2.179 -0.1742 -0.5626 -0.2684
   30MOL0     C 4042  14.867  10.297   2.109  0.3622 -0.1260 -1.2350
   30MOL0     C 4043  14.979  10.240   2.201 -0.0048 -0.0208 -0.4737
   30MOL0     C 4044  15.106  10.232   2.112 -0.0796  0.1944 -0.3886
   30MOL0     C 4045  15.233  10.202   2.190  0.3674  0.1562 -0.2974
   30MOL0     C 4046  15.357  10.209   2.099 -0.1610 -0.1559  0.2143
   30MOL0    Cl 4047  15.403  10.369   2.056  0.1753 -0.6141  0.0967
   30MOL0     C 4048  14.360  10.670   1.884 -0.1586 -0.1118  0.0715
   30MOL0     C 4049  14.242  10.744   1.858 -0.0546  0.1438  0.4808
   30MOL0     O 4050  14.073  10.989   1.908  0.4752 -0.5221 -0.2878
   30MOL0     C 4051  13.817  10.987   1.751  0.2583 -0.4149 -0.0297
   30MOL0     C 4052  13.687  11.024   1.714  0.1152 -0.4184 -0.0058
   30MOL0     N 4053  12.888  11.153   1.799  0.0013  0.0326  0.5465
   30MOL0     N 4054  12.762  11.166   1.823 -0.9177 -0.2957 -0.7594
   30MOL0     C 4055  11.590  11.074   2.477 -0.4713  0.3882 -0.0426
   30MOL0     C 4056  11.486  11.163   2.522 -0.7003  0.3548 -0.3759
   30MOL0     C 4057  11.191  11.438   2.653 -0.2945 -0.0271 -0.2391
   30MOL0     C 4058  11.114  11.381   2.767 -0.2562 -0.2556 -0.1138
   30MOL0     C 4059  11.042  11.469   2.847  0.0947 -0.2313 -0.7246
   30MOL0     C 4060  11.046  11.608   2.839  0.3249  0.1519 -0.4521
   30MOL0     O 4061  10.976  11.671   2.937  0.5489 -0.2883 -0.5199
   30MOL0     C 4062  10.987  11.813   2.963  0.0232 -0.0823 -0.7633
   30MOL0     C 4063  10.866  11.869   3.052 -0.3576 -0.5961  0.1261
   30MOL0     C 4064  10.878  11.812   3.196  0.4206 -0.1517 -0.0291
   30MOL0     C 4065  10.802  11.902   3.296 -0.2044  0.3383 -0.6689
   30MOL0     C 4066  10.799  11.850   3.437  0.2388 -0.4065 -0.5267
   30MOL0     C 4067  10.791  11.830   3.557  0.0886  0.5224 -0.4535
   30MOL0     C 4068  11.104  11.658   2.727 -0.6959 -0.3681  0.0754
   30MOL0     C 4069  11.180  11.578   2.643 -0.2706 -0.4776  0.5150
   30MOL0     C 4070  11.252  11.650   2.533 -0.2863  0.1163 -0.1505
   30MOL0     H 4071  11.570  11.435   2.328  0.1147 -0.6124 -0.4858
   30MOL0     H 4072  11.749  11.281   2.257 -0.6312 -0.4652 -1.9227
   30MOL0     H 4073  11.946  11.067   2.469 -3.7488 -0.3801 -0.0644
   30MOL0     H 4074  11.943  11.168   2.318 -3.1414  1.7750  1.2029
   30MOL0     H 4075  11.984  10.865   2.318  0.2787 -0.4453  2.1787
   30MOL0     H 4076  11.950  10.971   2.178  1.7254  0.0463  0.0954
   30MOL0     H 4077  12.164  11.114   2.286  0.7569 -0.1134  2.1755
   30MOL0     H 4078  12.228  10.955   2.320  2.3477 -0.3899 -4.0689
   30MOL0     H 4079  12.172  10.855   2.114  0.1600 -0.4655 -1.1177
   30MOL0     H 4080  12.125  11.011   2.044 -0.7370 -0.9622  0.2236
   30MOL0     H 4081  12.406  10.957   2.153  0.3969  1.2135  0.5894
   30MOL0     H 4082  12.361  11.097   2.073 -0.2354 -1.1535 -0.8404
   30MOL0     H 4083  12.321  10.833   1.937 -0.7824  0.8562  1.9336
   30MOL0     H 4084  12.334  10.992   1.860  0.4672  0.2972  0.7299
   30MOL0     H 4085  12.550  10.892   1.815  2.0211  0.7306  0.8250
   30MOL0     H 4086  12.578  10.852   1.978  0.1258  3.4737  3.5859
   30MOL0     H 4087  12.542  11.141   1.898 -0.3807 -1.1351 -1.7199
   30MOL0     H 4088  12.593  11.093   2.051 -1.6322 -0.7805 -0.0132
   30MOL0     H 4089  12.801  10.876   1.958  2.0385 -1.6665  0.7509
   30MOL0     H 4090  13.021  10.879   1.705  1.2208 -0.7445  2.1673
   30MOL0     H 4091  13.105  10.928   1.857 -0.7459  1.9407  0.6536
   30MOL0     H 4092  13.104  11.092   1.605  2.0402  0.0984 -1.0978
   30MOL0     H 4093  13.162  11.133   1.767 -1.6246  0.8284 -0.5428
   30MOL0     H 4094  13.258  10.880   1.630  1.2801  0.3391  0.4267
   30MOL0     H 4095  13.323  11.042   1.577 -1.1827  1.5976 -0.4743
   30MOL0     H 4096  13.313  10.954   1.866 -1.2837 -2.2191 -0.7731
   30MOL0     H 4097  13.428  10.880   1.758 -1.6209 -1.9773 -0.0329
   30MOL0     H 4098  13.546  11.033   2.016 -0.5238  0.2480 -2.7193
   30MOL0     H 4099  13.825  11.035   2.165  0.2656 -0.0011  0.7210
   30MOL0     H 4100  13.831  10.851   2.154 -3.4287 -1.2504  2.1566
   30MOL0     H 4101  13.689  10.937   2.193 -0.2198 -1.2453 -1.1587
   30MOL0     H 4102  14.072  10.652   2.143 -2.0829  0.3220 -1.9563
   30MOL0     H 4103  14.295  10.549   2.191  1.9827  3.0729  2.1114
   30MOL0     H 4104  14.546  10.500   2.196  1.8887  0.4190 -0.8579
   30MOL0     H 4105  14.445  10.364   2.138  1.9741 -1.7893  0.4646
   30MOL0     H 4106  14.617  10.259   2.005  0.2564  0.4716 -1.8303
   30MOL0     H 4107  14.692  10.420   2.005  0.9968  1.0642  1.5527
   30MOL0     H 4108  14.694  10.221   2.227 -0.6645 -0.1667  0.0947
   30MOL0     H 4109  14.749  10.382   2.260  1.0873 -2.0553  0.8307
   30MOL0     H 4110  14.890  10.399   2.077 -0.0379  0.0775 -0.8744
   30MOL0     H 4111  14.858  10.238   2.017  1.5980  2.5151 -3.1937
   30MOL0     H 4112  14.993  10.319   2.276  1.2237  0.0577 -0.7727
   30MOL0     H 4113  14.942  10.152   2.254  0.8219 -0.4943 -0.6699
   30MOL0     H 4114  15.123  10.329   2.064  0.1143  0.7473  0.7644
   30MOL0     H 4115  15.099  10.160   2.030 -2.3421 -0.0173 -0.0816
   30MOL0     H 4116  15.238  10.100   2.229  0.7923  0.3230  0.0875
   30MOL0     H 4117  15.230  10.266   2.278 -0.5996 -3.2391  2.3537
   30MOL0     H 4118  15.339  10.153   2.006  0.6672  0.6420 -0.4439
   30MOL0     H 4119  15.437  10.151   2.147 -0.0248 -1.5338 -1.5383
   30MOL0     H 4120  14.442  10.666   1.814  0.3393  0.8136  0.5756
   30MOL0     H 4121  14.237  10.794   1.762 -2.2155  0.0610  0.5181
   30MOL0     H 4122  13.894  10.987   1.674 -1.2582 -2.2583 -1.6772
   30MOL0     H 4123  13.668  11.048   1.610 -0.6891 -0.2213  0.1754
   30MOL0     H 4124  11.596  10.969   2.502 -4.6345 -0.3285 -1.2114
   30MOL0     H 4125  11.415  11.127   2.595 -0.8336  1.2678 -0.0453
   30MOL0     H 4126  11.120  11.273   2.781  2.1661 -0.1416  0.2124
   30MOL0     H 4127  11.000  11.414   2.930  0.8658 -1.9139 -1.3881
   30MOL0     H 4128  11.083  11.828   3.014 -0.9655 -0.2592  1.2395
   30MOL0     H 4129  10.982  11.873   2.872  0.2936 -0.9829 -1.3711
   30MOL0     H 4130  10.771  11.852   3.000 -1.2149  3.0897  0.2054
   30MOL0     H 4131  10.876  11.978   3.057 -1.7447 -0.2108 -2.8165
   30MOL0     H 4132  10.827  11.716   3.200  1.5015 -0.7135  1.1094
   30MOL0     H 4133  10.976  11.807   3.244 -1.6810  1.8207  5.2039
   30MOL0     H 4134  10.705  11.924   3.250 -1.3894  0.8318  1.8247
   30MOL0     H 4135  10.850  11.999   3.306 -2.4778  1.4653 -0.0713
   30MOL0     H 4136  10.778  11.815   3.663  0.8883  0.3384 -0.3719
   30MOL0     H 4137  11.092  11.765   2.719 -0.8071 -0.4129 -0.3612
   30MOL0     H 4138  11.353  11.678   2.564  0.2510 -0.9586 -0.8844
   30MOL0     H 4139  11.256  11.602   2.435  0.6803 -0.6040  0.2258
   30MOL0     H 4140  11.191  11.740   2.519 -0.4812  0.3311  1.7846
   31MOL0     O 4141   3.460   5.558   3.324  0.2682  0.0220 -0.0410
   31MOL0     C 4142   3.355   5.610   3.360  0.3227 -0.1219  0.8871
   31MOL0     O 4143   3.351   5.706   3.453 -0.2279  0.4733 -0.0263
   31MOL0     C 4144   3.457   5.709   3.546  0.1849 -0.5247  0.7823
   31MOL0     C 4145   3.487   5.603   3.636  0.5961 -0.1021  0.0788
   31MOL0     C 4146   3.608   5.607   3.709  0.9892 -0.0198  0.1657
   31MOL0     C 4147   3.686   5.718   3.706 -0.8535 -0.3238  0.5561
   31MOL0     O 4148   3.806   5.707   3.778 -1.3113 -0.1143  0.7188
   31MOL0     C 4149   3.907   5.802   3.753  0.0110 -0.5327 -0.2253
   31MOL0     C 4150   4.021   5.793   3.842 -0.3500  0.6089 -0.1959
   31MOL0     C 4151   4.128   5.907   3.840 -0.8526 -0.4221 -0.3780
   31MOL0     C 4152   4.196   5.949   3.704 -0.3433 -0.3288  0.6130
   31MOL0     C 4153   4.151   6.091   3.663 -0.2496 -0.1565  0.0025
   31MOL0     C 4154   4.013   6.116   3.605  0.0466 -0.3126  0.4676
   31MOL0     C 4155   3.990   6.264   3.569 -0.1227  0.3459  0.3817
   31MOL0     C 4156   3.853   6.290   3.503  0.4448  0.0159 -0.6909
   31MOL0     N 4157   3.743   6.251   3.593 -0.0620  0.9516 -0.1150
   31MOL0     C 4158   3.720   6.303   3.718 -0.2717 -0.7857  0.2228
   31MOL0     C 4159   3.602   6.254   3.756 -1.0841 -0.1639  1.0296
   31MOL0     C 4160   3.522   6.299   3.874  0.9220 -0.3632  0.2459
   31MOL0     C 4161   3.383   6.359   3.833 -0.4899 -0.6959  0.2118
   31MOL0     C 4162   3.282   6.379   3.945  0.1078 -0.0393 -0.1851
   31MOL0     C 4163   3.153   6.445   3.902 -0.2933 -0.0956  0.1445
   31MOL0     O 4164   3.083   6.358   3.815  0.3185  0.2847  1.0406
   31MOL0     C 4165   2.966   6.399   3.757 -0.0625  1.3275  0.0516
   31MOL0     C 4166   2.916   6.527   3.749 -0.3959 -0.4901 -0.0363
   31MOL0     C 4167   2.797   6.560   3.681 -0.0685  0.0242  0.2769
   31MOL0     C 4168   2.739   6.699   3.698 -0.2867  0.1933 -1.0578
   31MOL0     C 4169   2.744   6.453   3.603  0.1161  0.5005  0.6067
   31MOL0     C 4170   2.617   6.468   3.524 -0.6984 -0.4060  0.2813
   31MOL0     O 4171   2.541   6.575   3.551  0.5606  0.4353 -0.2819
   31MOL0     C 4172   2.418   6.607   3.489 -0.4036  0.4195 -0.1174
   31MOL0     C 4173   2.365   6.720   3.548  0.7886  1.1952 -0.0384
   31MOL0     C 4174   2.246   6.770   3.499  0.2737 -0.0523 -0.2041
   31MOL0     C 4175   2.179   6.704   3.391  0.0406 -0.9358  0.4800
   31MOL0     O 4176   2.063   6.755   3.335 -0.3411 -0.2265 -0.6702
   31MOL0     C 4177   2.022   6.889   3.361  0.7233 -0.2433  0.5240
   31MOL0     C 4178   1.952   6.952   3.233  0.1168  0.7562 -0.3802
   31MOL0     C 4179   1.887   7.086   3.263 -0.0802 -0.4912  0.3336
   31MOL0     C 4180   1.810   7.138   3.137  0.4418 -0.0198  0.0638
   31MOL0     C 4181   1.699   7.050   3.084  0.2475 -0.0492  0.8595
   31MOL0     C 4182   1.631   7.101   2.951  0.5188  0.1224 -0.3056
   31MOL0     C 4183   1.556   7.237   2.982  0.3275  0.2065 -0.4198
   31MOL0     C 4184   1.449   7.280   2.875 -0.4035 -0.6533 -0.1060
   31MOL0    Cl 4185   1.522   7.331   2.712 -0.0784  0.0506 -0.3144
   31MOL0     C 4186   2.235   6.597   3.334 -0.3686 -0.2955  0.3642
   31MOL0     C 4187   2.346   6.534   3.384  0.3649 -0.0048  0.2852
   31MOL0     O 4188   2.582   6.375   3.445  0.0344 -0.2552  0.5981
   31MOL0     C 4189   2.798   6.322   3.613  0.1061  1.0783  0.0836
   31MOL0     C 4190   2.902   6.295   3.692  0.1824 -0.6611  0.0654
   31MOL0     N 4191   3.550   6.172   3.655  0.9725  0.0072  0.2346
   31MOL0     N 4192   3.638   6.166   3.561 -0.7158 -0.2416  0.7508
   31MOL0     C 4193   3.650   5.834   3.630 -0.1111 -0.8024 -0.0825
   31MOL0     C 4194   3.536   5.826   3.554  0.1968 -1.1125 -0.0367
   31MOL0     C 4195   3.228   5.598   3.281 -0.1111 -0.1301  0.3031
   31MOL0     C 4196   3.115   5.668   3.327 -0.2398  0.2048 -0.5595
   31MOL0     C 4197   2.991   5.665   3.255  0.7996 -0.0982  0.2055
   31MOL0     C 4198   2.979   5.604   3.131  0.8220  0.6231  0.2235
   31MOL0     O 4199   2.865   5.614   3.059 -0.4269  0.0801  0.7277
   31MOL0     C 4200   2.813   5.741   3.030  0.2467  0.0729  0.6599
   31MOL0     C 4201   2.760   5.754   2.883 -0.2401  0.7108 -0.7010
   31MOL0     C 4202   2.708   5.611   2.830  0.2888  0.0236 -0.0133
   31MOL0     C 4203   2.647   5.615   2.689  0.0604 -0.6345  1.4256
   31MOL0     C 4204   2.594   5.480   2.658 -0.5883  0.9144 -0.1815
   31MOL0     C 4205   2.567   5.362   2.636  0.6430 -0.3519  0.5502
   31MOL0     C 4206   3.084   5.527   3.089  0.4363  0.4989  0.4907
   31MOL0     C 4207   3.210   5.523   3.161  0.0837 -0.3297 -0.1861
   31MOL0     C 4208   3.319   5.448   3.092  0.5389  0.3608  0.4586
   31MOL0     H 4209   3.443   5.506   3.620  0.4598  0.1084 -0.9023
   31MOL0     H 4210   3.637   5.520   3.767  0.9304  0.5784  1.1267
   31MOL0     H 4211   3.862   5.901   3.770 -1.9901 -1.6865  1.6703
   31MOL0     H 4212   3.940   5.799   3.649  0.8518  1.4383 -0.0734
   31MOL0     H 4213   3.984   5.788   3.944  2.9157  2.8617  1.2441
   31MOL0     H 4214   4.058   5.696   3.807 -0.2391  0.6245 -0.1212
   31MOL0     H 4215   4.091   5.999   3.886  0.5097 -0.7471  1.4501
   31MOL0     H 4216   4.209   5.880   3.908  0.4584  1.0183 -1.3099
   31MOL0     H 4217   4.304   5.948   3.719  0.7288  2.6193 -4.5836
   31MOL0     H 4218   4.169   5.884   3.620  0.7038  0.4969 -0.3977
   31MOL0     H 4219   4.225   6.131   3.592 -1.5587  1.0169 -0.7386
   31MOL0     H 4220   4.160   6.146   3.757  1.5226  1.0021 -0.7971
   31MOL0     H 4221   4.004   6.056   3.514 -1.5501  0.7530 -0.1142
   31MOL0     H 4222   3.939   6.082   3.678  0.1228 -1.3595  0.0695
   31MOL0     H 4223   4.071   6.289   3.500  2.6010 -4.1767  1.5127
   31MOL0     H 4224   4.004   6.319   3.662 -1.7280  0.3990  0.6233
   31MOL0     H 4225   3.853   6.395   3.472  1.0766  0.1497 -0.2476
   31MOL0     H 4226   3.846   6.231   3.412  1.8457  0.7570 -1.3070
   31MOL0     H 4227   3.775   6.379   3.772  0.4866  0.5424 -2.2602
   31MOL0     H 4228   3.569   6.377   3.936 -3.5884  0.5210  3.0195
   31MOL0     H 4229   3.532   6.211   3.938  1.6730  0.5728  1.4684
   31MOL0     H 4230   3.397   6.460   3.794 -0.7856 -0.2183  1.3048
   31MOL0     H 4231   3.337   6.288   3.763 -0.5118 -1.9005  1.3888
   31MOL0     H 4232   3.267   6.289   4.006 -1.9052 -2.1668 -3.4776
   31MOL0     H 4233   3.329   6.459   4.002  0.4984  0.5169 -1.2611
   31MOL0     H 4234   3.107   6.434   4.001  2.6612  1.6774  1.8761
   31MOL0     H 4235   3.164   6.549   3.869  2.2145 -0.8178 -1.6135
   31MOL0     H 4236   2.971   6.603   3.804 -1.6774 -0.9259  1.9569
   31MOL0     H 4237   2.813   6.761   3.750  0.1447 -1.5317  0.4769
   31MOL0     H 4238   2.648   6.681   3.754 -0.5200 -1.0126 -1.7900
   31MOL0     H 4239   2.716   6.734   3.596 -0.3119  1.8088 -0.5286
   31MOL0     H 4240   2.406   6.766   3.636 -0.3804  1.9560  0.1286
   31MOL0     H 4241   2.194   6.852   3.548  0.0351  0.5339 -1.3992
   31MOL0     H 4242   1.950   6.886   3.443  0.9879 -2.9409  0.7518
   31MOL0     H 4243   2.111   6.950   3.380 -0.5163  2.1343 -0.8050
   31MOL0     H 4244   2.042   6.962   3.172  0.7915 -3.3969 -0.3404
   31MOL0     H 4245   1.875   6.878   3.209  0.9997  0.2981 -1.9286
   31MOL0     H 4246   1.966   7.162   3.271 -0.9695  0.8036 -2.1373
   31MOL0     H 4247   1.824   7.076   3.351 -0.7175 -4.8695 -0.3936
   31MOL0     H 4248   1.876   7.166   3.054 -0.8240 -3.5101 -2.3265
   31MOL0     H 4249   1.762   7.235   3.150 -1.3983 -0.7814 -0.7487
   31MOL0     H 4250   1.724   6.944   3.073 -0.7077 -0.4847  2.5882
   31MOL0     H 4251   1.621   7.065   3.158  0.1845 -0.1436  0.8113
   31MOL0     H 4252   1.567   7.018   2.921  0.1815 -0.0366  0.7956
   31MOL0     H 4253   1.698   7.115   2.866 -1.5648  1.0491 -1.8825
   31MOL0     H 4254   1.632   7.314   2.998  1.2181 -0.7982  0.2745
   31MOL0     H 4255   1.504   7.233   3.078 -1.2343  1.3462 -1.1662
   31MOL0     H 4256   1.389   7.363   2.911  0.5694  0.6345 -1.3517
   31MOL0     H 4257   1.367   7.206   2.877 -1.7161  0.7345  2.6946
   31MOL0     H 4258   2.189   6.552   3.247 -1.4577  0.9307  0.2815
   31MOL0     H 4259   2.374   6.452   3.319  0.1193  1.3087 -1.5317
   31MOL0     H 4260   2.752   6.242   3.556 -0.1314  0.0161  1.6851
   31MOL0     H 4261   2.936   6.193   3.707  0.3998 -0.6361 -0.2547
   31MOL0     H 4262   3.703   5.928   3.624 -1.3104 -0.0589  0.6013
   31MOL0     H 4263   3.526   5.911   3.486 -0.8579 -1.5439 -0.4475
   31MOL0     H 4264   3.121   5.728   3.417 -0.7777 -2.6535  1.5063
   31MOL0     H 4265   2.907   5.708   3.310  0.9706  0.2062  0.2311
   31MOL0     H 4266   2.735   5.754   3.106  0.9262 -0.4652  1.4650
   31MOL0     H 4267   2.894   5.814   3.034  0.0829  0.3751 -0.9192
   31MOL0     H 4268   2.844   5.789   2.823  1.2736 -1.3444  0.0906
   31MOL0     H 4269   2.684   5.833   2.889  0.4010  1.3697 -1.1224
   31MOL0     H 4270   2.795   5.547   2.813  0.4225  0.5026 -1.2225
   31MOL0     H 4271   2.649   5.559   2.906 -1.7740  1.0248 -0.8570
   31MOL0     H 4272   2.721   5.651   2.617 -1.9175  0.7894 -0.0047
   31MOL0     H 4273   2.557   5.678   2.682  0.5263 -0.0028  1.0252
   31MOL0     H 4274   2.530   5.262   2.629  0.3932 -0.3133  1.2268
   31MOL0     H 4275   3.065   5.474   2.996 -0.7631 -1.5425  1.8030
   31MOL0     H 4276   3.277   5.400   3.003 -1.7660 -0.2017  1.7883
   31MOL0     H 4277   3.399   5.517   3.062  1.6516 -1.6859 -1.7043
   31MOL0     H 4278   3.363   5.373   3.158 -0.0784  0.5426  1.0880
   32MOL0     O 4279   4.051   1.325   2.460 -0.2656  0.3427  0.0063
   32MOL0     C 4280   4.032   1.440   2.441 -0.0645  0.4026  0.3356
   32MOL0     O 4281   4.126   1.539   2.474  0.9719 -0.6634 -0.4791
   32MOL0     C 4282   4.250   1.508   2.527 -0.3920  0.1788  0.2401
   32MOL0     C 4283   4.272   1.471   2.656  0.0811  0.4860 -1.0572
   32MOL0     C 4284   4.391   1.418   2.705 -0.3065 -0.1060  0.0844
   32MOL0     C 4285   4.494   1.403   2.612  0.2431  0.8899 -0.1644
   32MOL0     O 4286   4.617   1.365   2.663  0.6453  0.2978  0.0064
   32MOL0     C 4287   4.711   1.298   2.573  0.0303 -0.1825 -0.1947
   32MOL0     C 4288   4.775   1.185   2.665 -0.0403  0.3798  0.6240
   32MOL0     C 4289   4.897   1.131   2.582  0.3125  0.1838  0.8207
   32MOL0     C 4290   4.949   1.002   2.634 -0.0968 -0.3509 -0.0044
   32MOL0     C 4291   5.092   0.985   2.575 -0.1773  1.1982  0.0793
   32MOL0     C 4292   5.200   1.064   2.650 -0.0670  0.4069  0.5074
   32MOL0     C 4293   5.339   1.005   2.645 -0.3728  0.2666  0.3494
   32MOL0     C 4294   5.409   1.026   2.509 -0.5675 -0.0406  0.7219
   32MOL0     N 4295   5.553   0.990   2.510 -1.0817 -0.1865 -0.1354
   32MOL0     C 4296   5.603   0.861   2.531 -0.2685  0.2396 -0.7328
   32MOL0     C 4297   5.739   0.887   2.538 -0.1655 -0.1250 -1.4436
   32MOL0     C 4298   5.843   0.777   2.569  0.4746  0.1106 -0.6070
   32MOL0     C 4299   5.788   0.652   2.630  0.7424 -0.5405 -0.5081
   32MOL0     C 4300   5.729   0.663   2.770 -0.6991 -0.5482  0.3007
   32MOL0     C 4301   5.820   0.738   2.865 -0.2612 -0.3835  0.0954
   32MOL0     O 4302   5.782   0.701   2.991  0.4369 -0.1809  0.1324
   32MOL0     C 4303   5.854   0.613   3.069 -0.4457 -0.6254 -0.0912
   32MOL0     C 4304   5.800   0.494   3.115  0.1381  0.4468  0.1630
   32MOL0     C 4305   5.873   0.397   3.192  0.2281 -0.0693 -0.5134
   32MOL0     C 4306   5.794   0.284   3.237 -0.7106  0.0212 -0.3600
   32MOL0     C 4307   6.003   0.425   3.233 -0.1120 -0.4975  0.5532
   32MOL0     C 4308   6.083   0.337   3.325  0.1153 -0.0555 -0.2196
   32MOL0     O 4309   6.209   0.389   3.359 -0.1335  0.3298  1.0003
   32MOL0     C 4310   6.278   0.328   3.455 -0.1190  0.7783 -0.8601
   32MOL0     C 4311   6.262   0.383   3.577 -0.9103  0.5815  0.0123
   32MOL0     C 4312   6.345   0.342   3.684 -0.1512  0.3589  0.0409
   32MOL0     C 4313   6.426   0.232   3.671  0.1964  1.0390 -1.5503
   32MOL0     O 4314   6.500   0.178   3.775  0.1167  0.4518 -0.1510
   32MOL0     C 4315   6.468   0.210   3.916  0.5142 -0.7408  0.1106
   32MOL0     C 4316   6.525   0.105   4.007  0.0465 -0.4520 -0.6496
   32MOL0     C 4317   6.676   0.115   3.986  0.8356 -0.2847 -0.0513
   32MOL0     C 4318   6.758   0.143   4.116  1.1338  0.2830  0.0463
   32MOL0     C 4319   6.909   0.125   4.094 -0.0776 -0.0809  0.1661
   32MOL0     C 4320   6.959   0.215   3.981 -0.3662 -0.4829 -0.2399
   32MOL0     C 4321   7.117   0.225   3.980  0.1447 -0.5816 -0.5650
   32MOL0     C 4322   7.153   0.342   3.880  0.9639 -0.1345  0.1884
   32MOL0    Cl 4323   7.143   0.510   3.950  0.0469  0.8460  0.1746
   32MOL0     C 4324   6.434   0.165   3.550  0.8297 -0.3644  0.6216
   32MOL0     C 4325   6.353   0.208   3.439 -0.1761 -0.6842  0.2984
   32MOL0     O 4326   6.049   0.225   3.349  0.7692  0.5036  0.4349
   32MOL0     C 4327   6.048   0.555   3.195 -0.4611 -0.0168  0.7256
   32MOL0     C 4328   5.976   0.639   3.118  0.6121 -0.0110  0.6016
   32MOL0     N 4329   5.769   1.022   2.546  0.0917 -0.8780  0.0116
   32MOL0     N 4330   5.655   1.080   2.519  0.1666 -0.3571  0.0785
   32MOL0     C 4331   4.476   1.435   2.477  0.2196  0.7569  0.3008
   32MOL0     C 4332   4.355   1.488   2.441  0.4675 -0.3366 -1.2404
   32MOL0     C 4333   3.903   1.501   2.381 -0.1257  0.5144 -1.3274
   32MOL0     C 4334   3.873   1.631   2.417  0.9354 -0.8671 -0.3162
   32MOL0     C 4335   3.761   1.700   2.368 -0.2651  0.6357  0.3850
   32MOL0     C 4336   3.683   1.631   2.271  0.5749 -0.0381 -0.8088
   32MOL0     O 4337   3.571   1.691   2.222 -0.1483 -0.0045 -0.2858
   32MOL0     C 4338   3.595   1.812   2.155 -0.2441 -0.2291 -0.9931
   32MOL0     C 4339   3.473   1.888   2.099 -0.7784 -0.2429  0.2957
   32MOL0     C 4340   3.338   1.842   2.153 -0.4377 -0.1356 -0.0323
   32MOL0     C 4341   3.230   1.936   2.083  0.2774  0.6123 -0.3403
   32MOL0     C 4342   3.092   1.902   2.143 -0.5003 -0.4338 -0.9372
   32MOL0     C 4343   2.998   1.876   2.207  0.9186 -0.4147 -0.2692
   32MOL0     C 4344   3.716   1.505   2.228  0.1813 -0.4518  0.8513
   32MOL0     C 4345   3.826   1.440   2.281 -0.2990 -0.2228 -0.2858
   32MOL0     C 4346   3.834   1.296   2.257  0.5435 -0.1285 -0.0082
   32MOL0     H 4347   4.193   1.481   2.731 -0.4398 -0.6385 -1.4345
   32MOL0     H 4348   4.401   1.409   2.813  2.2845 -3.0291 -0.2608
   32MOL0     H 4349   4.779   1.377   2.539  1.3249  0.8662  4.1983
   32MOL0     H 4350   4.662   1.240   2.494  1.6997  0.4922 -1.7977
   32MOL0     H 4351   4.804   1.219   2.765 -0.3759 -0.9273  1.1772
   32MOL0     H 4352   4.702   1.105   2.682  1.2933 -0.7614  1.1182
   32MOL0     H 4353   4.863   1.139   2.478 -2.3379  1.0291  1.6793
   32MOL0     H 4354   4.972   1.212   2.585  0.6924 -0.1193 -0.0878
   32MOL0     H 4355   4.938   0.992   2.742 -0.6284 -0.7972 -0.0910
   32MOL0     H 4356   4.888   0.920   2.594  0.7804 -0.8408 -0.3583
   32MOL0     H 4357   5.084   1.015   2.470  0.2223 -0.3480 -0.4222
   32MOL0     H 4358   5.110   0.878   2.584 -0.1416  1.2424  0.5775
   32MOL0     H 4359   5.208   1.165   2.608  1.4380  0.2362  0.3166
   32MOL0     H 4360   5.172   1.080   2.755  2.2170  0.9073  1.1009
   32MOL0     H 4361   5.332   0.897   2.661 -0.5725  0.0661 -1.0243
   32MOL0     H 4362   5.395   1.042   2.732  1.7622 -2.3003  0.2263
   32MOL0     H 4363   5.359   0.960   2.437 -0.9881 -0.1567  1.1144
   32MOL0     H 4364   5.393   1.128   2.473  1.9155 -0.9414 -3.6542
   32MOL0     H 4365   5.552   0.766   2.533 -0.1371  0.1751 -0.3540
   32MOL0     H 4366   5.927   0.813   2.630 -1.1374 -0.5737  2.1995
   32MOL0     H 4367   5.882   0.748   2.471  1.5612 -1.5094  0.2659
   32MOL0     H 4368   5.712   0.608   2.565 -2.3911  1.5411  1.4729
   32MOL0     H 4369   5.863   0.573   2.637 -1.3740 -2.5452  1.8575
   32MOL0     H 4370   5.629   0.708   2.776  0.6262  2.5967  0.7380
   32MOL0     H 4371   5.725   0.561   2.810 -2.0410 -0.8038 -0.3963
   32MOL0     H 4372   5.922   0.701   2.853 -0.4424 -0.6686 -0.5653
   32MOL0     H 4373   5.820   0.845   2.842  1.8651  0.5096  3.5405
   32MOL0     H 4374   5.699   0.482   3.079 -0.2186 -2.5614  1.8744
   32MOL0     H 4375   5.690   0.283   3.204 -1.4043 -0.2123  1.6789
   32MOL0     H 4376   5.782   0.304   3.344 -0.4470  0.9046 -0.4901
   32MOL0     H 4377   5.839   0.185   3.226 -0.4496  0.1031 -0.0606
   32MOL0     H 4378   6.198   0.470   3.583 -2.9261 -0.8836  1.8409
   32MOL0     H 4379   6.329   0.391   3.779 -0.0195  0.7044 -0.1140
   32MOL0     H 4380   6.500   0.312   3.943  3.0951 -1.4290 -0.0620
   32MOL0     H 4381   6.360   0.206   3.928  0.4711  0.2932  0.1659
   32MOL0     H 4382   6.501   0.129   4.111  0.4714 -1.5892 -0.2798
   32MOL0     H 4383   6.492   0.005   3.976  0.7055 -0.1659 -2.4385
   32MOL0     H 4384   6.704   0.183   3.905 -1.5065  0.1819 -0.5242
   32MOL0     H 4385   6.709   0.016   3.955  1.4753  0.2827 -1.2537
   32MOL0     H 4386   6.728   0.075   4.196 -2.3457  1.6220  0.0205
   32MOL0     H 4387   6.742   0.244   4.154 -2.8761  0.2827 -1.1781
   32MOL0     H 4388   6.960   0.141   4.190 -1.5157  3.2781  0.5061
   32MOL0     H 4389   6.938   0.021   4.075 -1.3860 -0.8405  1.9733
   32MOL0     H 4390   6.918   0.314   4.005 -0.6174 -1.1619  2.3262
   32MOL0     H 4391   6.922   0.191   3.881  2.7705 -1.1387 -1.3538
   32MOL0     H 4392   7.153   0.129   3.940  0.7148 -0.5387 -0.1603
   32MOL0     H 4393   7.152   0.247   4.081  0.1243  0.9412 -0.8620
   32MOL0     H 4394   7.076   0.342   3.803 -0.9971 -2.5504  1.9959
   32MOL0     H 4395   7.246   0.321   3.826  0.3135  1.4866 -1.6816
   32MOL0     H 4396   6.502   0.081   3.540  0.2742 -0.7525  0.0699
   32MOL0     H 4397   6.372   0.164   3.342 -1.0567 -0.3450 -0.0405
   32MOL0     H 4398   6.145   0.587   3.232 -0.6618 -1.5065  2.6749
   32MOL0     H 4399   6.014   0.741   3.112  0.1909  0.3963  3.3627
   32MOL0     H 4400   4.548   1.422   2.396  2.5974 -4.7014  2.7598
   32MOL0     H 4401   4.340   1.503   2.334  0.9127 -0.3401 -1.3051
   32MOL0     H 4402   3.931   1.676   2.497  0.3938 -0.8487  0.0656
   32MOL0     H 4403   3.730   1.790   2.419  0.3372  0.9960  0.1200
   32MOL0     H 4404   3.655   1.884   2.212 -1.6841 -0.9058  1.5386
   32MOL0     H 4405   3.651   1.786   2.065 -0.9552 -3.0406 -0.6950
   32MOL0     H 4406   3.485   1.879   1.991  1.8881  2.7143  0.1959
   32MOL0     H 4407   3.488   1.991   2.134  3.7704 -0.5321 -0.1904
   32MOL0     H 4408   3.319   1.736   2.132  0.8897 -0.3153 -0.3859
   32MOL0     H 4409   3.339   1.865   2.260  0.2665 -3.0832  0.6788
   32MOL0     H 4410   3.231   1.915   1.976  2.7616  1.0954 -0.4557
   32MOL0     H 4411   3.247   2.043   2.097 -3.7888  1.7650 -2.5462
   32MOL0     H 4412   2.916   1.858   2.272  2.7366 -1.2867  1.9100
   32MOL0     H 4413   3.641   1.454   2.169 -0.0477  0.5716  0.2454
   32MOL0     H 4414   3.749   1.268   2.194  0.3240  2.6134 -1.0650
   32MOL0     H 4415   3.929   1.278   2.206  2.9591  1.2421  3.5869
   32MOL0     H 4416   3.840   1.240   2.351  1.9022  0.8075  0.5005
   33MOL0     O 4417   8.969  10.901   3.206 -0.0430  0.0907 -0.8868
   33MOL0     C 4418   8.913  10.801   3.254 -1.1662  0.2511  0.1239
   33MOL0     O 4419   8.964  10.676   3.250  0.8131 -0.3966  0.0363
   33MOL0     C 4420   9.065  10.628   3.182 -1.2472 -0.1720 -0.1050
   33MOL0     C 4421   9.122  10.509   3.225  0.1168  0.8994 -0.4373
   33MOL0     C 4422   9.234  10.458   3.153 -0.7996  0.4887 -0.8761
   33MOL0     C 4423   9.295  10.522   3.049 -0.2045  0.4569 -0.0697
   33MOL0     O 4424   9.416  10.469   3.009  0.0304 -0.0341 -0.6456
   33MOL0     C 4425   9.504  10.551   2.930  0.6186  0.2443  0.7413
   33MOL0     C 4426   9.649  10.521   2.958 -0.3349  0.2754 -0.9266
   33MOL0     C 4427   9.732  10.590   2.842  0.3046 -0.1658 -0.0319
   33MOL0     C 4428   9.880  10.571   2.845 -0.0002 -0.5898 -0.5939
   33MOL0     C 4429   9.960  10.637   2.735 -0.0853 -0.4068  0.9156
   33MOL0     C 4430   9.909  10.614   2.599  0.3677  0.1964 -0.3349
   33MOL0     C 4431   9.984  10.686   2.485 -0.2348  0.5918  0.5384
   33MOL0     C 4432  10.133  10.648   2.472 -0.9783  0.0751  0.0022
   33MOL0     N 4433  10.147  10.503   2.436 -0.2251  0.0945 -0.5252
   33MOL0     C 4434  10.165  10.455   2.307  0.1504 -0.7575  0.0100
   33MOL0     C 4435  10.161  10.322   2.318  0.2911  0.4027 -0.0027
   33MOL0     C 4436  10.200  10.224   2.210  0.1306 -0.1740 -0.3982
   33MOL0     C 4437  10.298  10.124   2.261  0.1595  0.9184  0.9043
   33MOL0     C 4438  10.357  10.019   2.159 -0.0010 -0.4213 -0.2612
   33MOL0     C 4439  10.427  10.086   2.044  0.5294  0.4769 -0.2712
   33MOL0     O 4440  10.546  10.146   2.081 -0.4071 -0.6360 -0.2569
   33MOL0     C 4441  10.655  10.109   2.013  0.2520 -0.1717  0.0378
   33MOL0     C 4442  10.716   9.988   2.047  0.1330 -0.2515 -0.5653
   33MOL0     C 4443  10.838   9.956   1.983  1.1102 -0.3230  0.2810
   33MOL0     C 4444  10.911   9.841   2.039  0.3586 -0.6804 -0.0545
   33MOL0     C 4445  10.886  10.038   1.878  0.6999  0.2366 -0.2973
   33MOL0     C 4446  11.001  10.007   1.789 -0.3013  0.9769 -0.0116
   33MOL0     O 4447  11.067   9.889   1.819  0.4284 -0.3788  0.3785
   33MOL0     C 4448  11.175   9.852   1.742  0.4711 -0.8722 -0.6551
   33MOL0     C 4449  11.161   9.823   1.605 -0.7158  0.1829  0.9481
   33MOL0     C 4450  11.273   9.768   1.524  0.5559 -0.0879 -0.5333
   33MOL0     C 4451  11.402   9.764   1.588  0.6072 -0.1110 -0.1220
   33MOL0     O 4452  11.506   9.712   1.513  0.3766  0.9411 -0.7301
   33MOL0     C 4453  11.642   9.689   1.553 -0.1709 -0.1989  0.2871
   33MOL0     C 4454  11.712   9.618   1.433  0.3515 -0.7191  0.7114
   33MOL0     C 4455  11.853   9.590   1.469 -0.3605  0.0322  0.2942
   33MOL0     C 4456  11.926   9.545   1.339  0.1450  0.4627  0.3959
   33MOL0     C 4457  12.065   9.495   1.387  0.4446  0.0232  0.3767
   33MOL0     C 4458  12.131   9.412   1.277 -0.5522  0.2182 -0.1246
   33MOL0     C 4459  12.139   9.475   1.146  0.3122 -0.2215  0.6556
   33MOL0     C 4460  12.242   9.390   1.059  1.0031 -0.3507  0.5686
   33MOL0    Cl 4461  12.410   9.409   1.117  0.2580  0.3435 -0.0971
   33MOL0     C 4462  11.413   9.785   1.727  0.5775 -0.4730  0.3234
   33MOL0     C 4463  11.303   9.834   1.798  0.5764 -1.0461  0.1975
   33MOL0     O 4464  11.035  10.079   1.694 -0.1828 -0.7549 -0.9751
   33MOL0     C 4465  10.816  10.154   1.844  0.1922  1.1399 -0.2511
   33MOL0     C 4466  10.694  10.193   1.909 -0.6865 -0.4059  0.0892
   33MOL0     N 4467  10.148  10.294   2.457  0.1639 -0.7825 -0.1106
   33MOL0     N 4468  10.142  10.400   2.523 -0.1027 -0.5111 -0.1437
   33MOL0     C 4469   9.234  10.637   3.003 -0.2406  0.0959 -0.1261
   33MOL0     C 4470   9.115  10.685   3.068 -0.6008 -0.2326 -0.2024
   33MOL0     C 4471   8.794  10.816   3.345 -0.0912 -0.6679 -1.2346
   33MOL0     C 4472   8.746  10.698   3.408  0.3811  0.0853  0.1395
   33MOL0     C 4473   8.643  10.695   3.499  0.3236  0.5573 -0.5673
   33MOL0     C 4474   8.582  10.814   3.531  0.0529 -0.0161 -0.4619
   33MOL0     O 4475   8.468  10.815   3.611 -0.0891 -0.2581 -0.1422
   33MOL0     C 4476   8.389  10.696   3.639 -0.5275  0.3030 -0.7245
   33MOL0     C 4477   8.260  10.731   3.715  0.2628 -0.1795 -0.4187
   33MOL0     C 4478   8.268  10.758   3.871  0.3995  0.1597 -0.1291
   33MOL0     C 4479   8.368  10.868   3.909 -0.0244  0.0206  0.7411
   33MOL0     C 4480   8.339  11.002   3.856 -0.0944  0.0443  0.2722
   33MOL0     C 4481   8.295  11.113   3.829 -0.5032 -0.3331 -0.1159
   33MOL0     C 4482   8.619  10.926   3.462  0.7155 -0.3341 -0.3196
   33MOL0     C 4483   8.722  10.938   3.368 -0.7605 -0.0108  0.1377
   33MOL0     C 4484   8.739  11.070   3.297 -0.5465  0.1656  0.1984
   33MOL0     H 4485   9.084  10.466   3.317  3.1125 -0.4478  0.2924
   33MOL0     H 4486   9.267  10.368   3.203 -2.2447 -0.2622 -1.2227
   33MOL0     H 4487   9.491  10.656   2.960  1.2649  0.1954  1.2184
   33MOL0     H 4488   9.491  10.543   2.822  1.0335  2.0147  0.5137
   33MOL0     H 4489   9.676  10.559   3.057  0.9946 -1.7010 -0.4661
   33MOL0     H 4490   9.674  10.414   2.952 -0.4728  0.3288 -3.1340
   33MOL0     H 4491   9.688  10.531   2.761 -0.5785 -1.4618  1.3373
   33MOL0     H 4492   9.716  10.698   2.837 -1.5712 -0.4811 -2.6888
   33MOL0     H 4493   9.916  10.626   2.932  1.7663  0.9631 -2.1993
   33MOL0     H 4494   9.903  10.466   2.863  2.1809  0.1447  1.4448
   33MOL0     H 4495  10.062  10.599   2.746 -0.1686 -0.3912  1.8022
   33MOL0     H 4496   9.959  10.745   2.749 -2.2579  0.2193 -2.7470
   33MOL0     H 4497   9.902  10.506   2.585 -0.8733  0.1391  0.5470
   33MOL0     H 4498   9.810  10.659   2.591  1.2237  1.9555 -1.5889
   33MOL0     H 4499   9.975  10.792   2.508  2.4787  1.4975 -1.8813
   33MOL0     H 4500   9.938  10.661   2.389  0.9867  0.5748 -0.0571
   33MOL0     H 4501  10.189  10.708   2.400 -0.3319  0.4434  0.8049
   33MOL0     H 4502  10.193  10.666   2.562 -0.5530 -0.1231 -0.2378
   33MOL0     H 4503  10.184  10.520   2.221 -0.3849  1.9445  1.8036
   33MOL0     H 4504  10.252  10.279   2.130  1.2592 -1.8158 -0.8343
   33MOL0     H 4505  10.112  10.178   2.164  0.8952  0.5998 -2.7833
   33MOL0     H 4506  10.379  10.166   2.320  2.6918 -2.3122  0.0217
   33MOL0     H 4507  10.244  10.062   2.332 -2.0462 -0.7557 -1.9909
   33MOL0     H 4508  10.424   9.956   2.219  1.1482  1.7204  0.7879
   33MOL0     H 4509  10.265   9.970   2.125  0.5179  0.1345 -2.6097
   33MOL0     H 4510  10.443  10.004   1.973  0.5345  0.9762 -0.8624
   33MOL0     H 4511  10.365  10.164   1.998  1.3923  1.1444 -0.3211
   33MOL0     H 4512  10.667   9.940   2.132  1.6323  0.0196  0.4924
   33MOL0     H 4513  10.868   9.803   2.132  0.0584 -2.0029 -0.7134
   33MOL0     H 4514  11.008   9.884   2.067  0.0377 -0.0002  0.0373
   33MOL0     H 4515  10.936   9.764   1.965 -0.3135  2.4134 -3.8811
   33MOL0     H 4516  11.062   9.843   1.567 -1.8613 -0.1025  3.5340
   33MOL0     H 4517  11.260   9.729   1.424  1.2110  0.4479 -0.8355
   33MOL0     H 4518  11.691   9.781   1.585 -1.3956  0.5586  0.0576
   33MOL0     H 4519  11.644   9.615   1.634 -0.5410  0.3084  0.7672
   33MOL0     H 4520  11.657   9.527   1.406  2.0375 -2.3134  2.2952
   33MOL0     H 4521  11.705   9.685   1.347 -2.1982 -1.6684  0.0757
   33MOL0     H 4522  11.861   9.513   1.546 -0.1454 -0.6110 -0.3659
   33MOL0     H 4523  11.902   9.681   1.506 -1.0669  0.3729  0.4066
   33MOL0     H 4524  11.931   9.629   1.269 -0.0686  1.0937  1.1141
   33MOL0     H 4525  11.876   9.465   1.285  0.6529  0.7331 -0.4917
   33MOL0     H 4526  12.130   9.582   1.402  2.9937 -1.6699 -0.1782
   33MOL0     H 4527  12.055   9.443   1.483  1.6383 -0.2376  0.3667
   33MOL0     H 4528  12.081   9.315   1.265  1.4127 -0.6966 -1.3233
   33MOL0     H 4529  12.231   9.380   1.308 -1.0233  1.6937  3.4913
   33MOL0     H 4530  12.164   9.581   1.153 -1.4030  0.2154  0.7187
   33MOL0     H 4531  12.041   9.466   1.099  0.7325  1.5741 -0.6387
   33MOL0     H 4532  12.243   9.428   0.956 -0.0224  1.3902  1.1627
   33MOL0     H 4533  12.214   9.285   1.055  0.8199 -0.2750 -2.7678
   33MOL0     H 4534  11.504   9.775   1.785 -0.0458 -1.0428  1.2314
   33MOL0     H 4535  11.314   9.862   1.902  0.1259  0.6431 -0.1725
   33MOL0     H 4536  10.854  10.210   1.759 -0.7877  0.6322 -1.0495
   33MOL0     H 4537  10.637  10.285   1.899  1.1931  0.9816  1.1942
   33MOL0     H 4538   9.259  10.701   2.919  0.5561 -0.6127 -0.4388
   33MOL0     H 4539   9.076  10.777   3.026 -0.0531 -0.1378 -0.5152
   33MOL0     H 4540   8.787  10.603   3.376 -2.8820 -0.8281 -1.7570
   33MOL0     H 4541   8.607  10.597   3.530  1.3152 -0.4767 -2.4915
   33MOL0     H 4542   8.355  10.631   3.558 -0.3643 -1.7768  0.7965
   33MOL0     H 4543   8.450  10.626   3.697  0.6709  1.2315 -0.8327
   33MOL0     H 4544   8.182  10.655   3.702 -1.6913  1.9861 -2.4582
   33MOL0     H 4545   8.229  10.827   3.672 -1.9659 -0.7478 -0.2185
   33MOL0     H 4546   8.168  10.795   3.898  0.4161  2.2189 -2.5493
   33MOL0     H 4547   8.296  10.662   3.917  0.1319  0.4993  0.7666
   33MOL0     H 4548   8.470  10.845   3.877 -0.7053 -0.4492 -1.2369
   33MOL0     H 4549   8.371  10.869   4.018 -5.2346 -2.0025  1.1760
   33MOL0     H 4550   8.254  11.209   3.807  3.1409  1.6850  1.1212
   33MOL0     H 4551   8.553  11.013   3.461 -1.9327 -2.2065 -2.3811
   33MOL0     H 4552   8.700  11.052   3.197 -0.4448 -1.0363  0.3555
   33MOL0     H 4553   8.693  11.156   3.346 -1.1203 -0.0149 -0.0201
   33MOL0     H 4554   8.846  11.095   3.304 -1.2954  3.4190  1.8191
   34MOL0     O 4555   1.022   2.208   6.937  0.4490  0.3165  0.2394
   34MOL0     C 4556   1.051   2.090   6.959  0.2596 -1.0016 -0.8152
   34MOL0     O 4557   1.093   2.037   7.083  0.5087  0.2252 -0.6199
   34MOL0     C 4558   1.101   2.100   7.208 -0.5629 -0.4399 -0.3970
   34MOL0     C 4559   1.119   2.238   7.230  0.2333  0.2381  0.2838
   34MOL0     C 4560   1.126   2.295   7.358 -0.7672 -1.1695 -0.5305
   34MOL0     C 4561   1.128   2.219   7.472 -1.0887  0.5953 -0.8256
   34MOL0     O 4562   1.148   2.267   7.603  0.3261 -0.6894  0.6948
   34MOL0     C 4563   1.144   2.410   7.644 -1.0100  0.2390  0.8033
   34MOL0     C 4564   1.291   2.456   7.675 -0.6381  0.8168  0.7391
   34MOL0     C 4565   1.368   2.371   7.777  0.0573 -0.2684  1.0490
   34MOL0     C 4566   1.291   2.289   7.887  0.3091 -0.3175  0.5916
   34MOL0     C 4567   1.375   2.229   7.990  0.5104 -0.4814 -0.2019
   34MOL0     C 4568   1.299   2.182   8.118  0.2981 -0.2934 -0.0468
   34MOL0     C 4569   1.220   2.051   8.096 -0.2934  0.0769 -0.0780
   34MOL0     C 4570   1.152   2.005   8.228 -0.5564 -0.4042 -0.4956
   34MOL0     N 4571   1.048   1.896   8.209 -0.4861  0.0424  0.5296
   34MOL0     C 4572   0.925   1.915   8.167  0.1654 -0.5435  0.0307
   34MOL0     C 4573   0.875   1.790   8.164 -0.4650  0.2836  0.3759
   34MOL0     C 4574   0.736   1.763   8.134 -0.3554  0.1212 -0.8336
   34MOL0     C 4575   0.706   1.771   7.982  0.5329  0.5913 -1.0614
   34MOL0     C 4576   0.561   1.767   7.958  0.2977  0.5508  0.1404
   34MOL0     C 4577   0.492   1.906   7.969  0.2389 -0.1364 -0.1667
   34MOL0     O 4578   0.394   1.907   8.081 -0.7573 -0.1779  0.9872
   34MOL0     C 4579   0.353   2.032   8.120  0.3702  0.1549  0.2505
   34MOL0     C 4580   0.335   2.063   8.254  0.1533  0.9316  0.0494
   34MOL0     C 4581   0.311   2.191   8.293 -0.1695  0.1461 -0.6449
   34MOL0     C 4582   0.328   2.200   8.445 -0.6106  0.4422  0.8078
   34MOL0     C 4583   0.274   2.284   8.190  0.0326 -0.3274 -0.4025
   34MOL0     C 4584   0.229   2.420   8.221  0.6136  0.2810  0.1755
   34MOL0     O 4585   0.129   2.484   8.153  0.0979 -0.3956 -0.3400
   34MOL0     C 4586   0.090   2.614   8.175  0.2591 -0.5058  0.1232
   34MOL0     C 4587   0.178   2.718   8.162 -0.3192 -0.0119 -0.7917
   34MOL0     C 4588   0.143   2.856   8.175 -0.6483  0.1889  0.3913
   34MOL0     C 4589   0.005   2.876   8.217 -0.0290 -0.0172 -0.8464
   34MOL0     O 4590  -0.061   2.996   8.237 -0.5005 -0.3560 -0.1772
   34MOL0     C 4591   0.002   3.127   8.216 -0.4212  0.3066  0.1955
   34MOL0     C 4592  -0.052   3.228   8.325  0.2706  1.4187  0.0934
   34MOL0     C 4593   0.048   3.256   8.433 -0.9522 -0.6684  0.3125
   34MOL0     C 4594  -0.007   3.358   8.535  0.3898  0.7584 -0.1187
   34MOL0     C 4595   0.087   3.362   8.648 -0.2823  0.8458 -0.0913
   34MOL0     C 4596   0.050   3.469   8.747 -0.3233 -0.6745  0.4921
   34MOL0     C 4597   0.158   3.487   8.849 -0.2864 -0.4993 -0.1962
   34MOL0     C 4598   0.104   3.552   8.981  0.2161 -0.1388  1.3157
   34MOL0    Cl 4599   0.061   3.722   8.943 -0.2226 -0.2906  0.0296
   34MOL0     C 4600  -0.078   2.765   8.230  0.1433 -0.1766 -0.1462
   34MOL0     C 4601  -0.040   2.640   8.209  0.1332  0.0515  1.1291
   34MOL0     O 4602   0.292   2.485   8.301 -0.4771  0.2519 -0.8822
   34MOL0     C 4603   0.274   2.246   8.058 -0.1284  0.5288  0.2721
   34MOL0     C 4604   0.319   2.120   8.023 -0.2190 -0.2622 -0.1755
   34MOL0     N 4605   0.974   1.705   8.184  0.8342  0.4057  0.0996
   34MOL0     N 4606   1.076   1.769   8.205 -0.1714 -0.6912  0.1974
   34MOL0     C 4607   1.124   2.081   7.453  0.0812 -0.4584  0.3835
   34MOL0     C 4608   1.110   2.020   7.325  0.7990  0.0430 -1.0887
   34MOL0     C 4609   1.071   1.994   6.855  0.5232  0.2903  0.1303
   34MOL0     C 4610   1.078   1.857   6.878 -1.1138  0.2607 -0.1831
   34MOL0     C 4611   1.079   1.762   6.775 -0.2424  0.0834 -0.4104
   34MOL0     C 4612   1.074   1.798   6.649  0.6314  1.3838  0.7027
   34MOL0     O 4613   1.084   1.685   6.566  0.4730 -0.9064 -0.2357
   34MOL0     C 4614   1.159   1.708   6.449  0.3219 -0.0769  0.1674
   34MOL0     C 4615   1.146   1.587   6.353 -0.0899  0.6645 -0.7461
   34MOL0     C 4616   1.174   1.443   6.412  0.7517 -0.1216 -0.8207
   34MOL0     C 4617   1.155   1.338   6.300  0.3492 -0.0610 -1.3696
   34MOL0     C 4618   1.007   1.324   6.290  0.2903  0.4355  0.2062
   34MOL0     C 4619   0.885   1.320   6.284 -0.8137  0.0009  0.5871
   34MOL0     C 4620   1.071   1.930   6.613 -0.5548  0.1170  0.1821
   34MOL0     C 4621   1.070   2.033   6.714  0.1411 -0.5583  0.3722
   34MOL0     C 4622   1.047   2.175   6.659  0.2014  0.5424  1.1640
   34MOL0     H 4623   1.124   2.303   7.143 -0.3828 -0.8557 -0.5833
   34MOL0     H 4624   1.140   2.403   7.357 -4.0011 -0.6031 -2.4738
   34MOL0     H 4625   1.073   2.419   7.727 -0.8198 -0.1087  1.0031
   34MOL0     H 4626   1.106   2.466   7.558 -0.8389 -1.4093 -0.3695
   34MOL0     H 4627   1.349   2.433   7.584 -2.2591 -1.4255  0.1756
   34MOL0     H 4628   1.297   2.562   7.699 -0.9169  1.0002  0.0294
   34MOL0     H 4629   1.426   2.289   7.735 -0.4181 -0.9792  1.7543
   34MOL0     H 4630   1.439   2.449   7.807 -1.3709  2.4472 -1.8714
   34MOL0     H 4631   1.234   2.367   7.938  0.3844  0.9405 -1.1304
   34MOL0     H 4632   1.236   2.212   7.831 -0.3462  0.1105  0.6273
   34MOL0     H 4633   1.457   2.291   8.028 -0.6144 -1.1208  3.7175
   34MOL0     H 4634   1.422   2.143   7.941 -0.3347 -1.5921  0.8834
   34MOL0     H 4635   1.384   2.163   8.185  0.9480 -2.9621 -1.4808
   34MOL0     H 4636   1.229   2.253   8.163 -0.7828 -2.6382  2.3096
   34MOL0     H 4637   1.291   1.974   8.065 -0.4451 -0.7047  1.3849
   34MOL0     H 4638   1.142   2.052   8.019 -0.4765  1.2508  0.1039
   34MOL0     H 4639   1.228   1.973   8.300  0.2465 -2.4601 -2.1632
   34MOL0     H 4640   1.100   2.093   8.267 -2.2453 -1.6551  0.1472
   34MOL0     H 4641   0.876   2.008   8.141 -1.1828 -0.7159  1.7824
   34MOL0     H 4642   0.666   1.828   8.187 -0.7270 -1.0705  0.1798
   34MOL0     H 4643   0.704   1.663   8.164  1.1042 -0.3231 -0.6718
   34MOL0     H 4644   0.748   1.866   7.949  2.6214  0.4343  0.8516
   34MOL0     H 4645   0.749   1.687   7.928 -2.3300 -2.0656  0.4637
   34MOL0     H 4646   0.530   1.715   7.867 -2.3819 -1.8881  2.2230
   34MOL0     H 4647   0.512   1.700   8.030 -1.1340  0.5309 -0.8012
   34MOL0     H 4648   0.562   1.990   7.973  0.0840  0.0476  4.7958
   34MOL0     H 4649   0.442   1.920   7.873  1.2131 -0.1338 -0.6882
   34MOL0     H 4650   0.372   1.981   8.315  2.6597  1.4113 -0.6990
   34MOL0     H 4651   0.422   2.164   8.486 -1.0596 -0.4909  1.0541
   34MOL0     H 4652   0.254   2.135   8.493  0.7706 -1.4393  0.4699
   34MOL0     H 4653   0.319   2.303   8.482  0.9119  1.5879 -1.7350
   34MOL0     H 4654   0.274   2.694   8.117  1.2320  1.1012  1.7371
   34MOL0     H 4655   0.201   2.943   8.146 -0.9945 -0.9297 -4.6688
   34MOL0     H 4656   0.111   3.128   8.221 -0.3817  1.8003 -0.4352
   34MOL0     H 4657  -0.032   3.173   8.123  1.9985 -0.6994 -1.2516
   34MOL0     H 4658  -0.079   3.326   8.285 -1.6506  1.0901  0.4789
   34MOL0     H 4659  -0.144   3.178   8.359  0.7034  0.4566 -0.1244
   34MOL0     H 4660   0.139   3.290   8.382 -0.7495 -1.9504 -0.1965
   34MOL0     H 4661   0.063   3.161   8.483  1.2596 -0.0113  1.0030
   34MOL0     H 4662  -0.104   3.317   8.567  2.0896 -4.0528 -0.3023
   34MOL0     H 4663  -0.018   3.456   8.489 -1.9485 -0.9344 -3.5934
   34MOL0     H 4664   0.096   3.271   8.708 -1.7002 -0.2807 -1.5051
   34MOL0     H 4665   0.186   3.391   8.609 -0.9388  3.4428 -0.0594
   34MOL0     H 4666  -0.049   3.443   8.784 -1.3600  1.1126 -0.8372
   34MOL0     H 4667   0.045   3.562   8.689 -0.2929 -1.6147 -1.0961
   34MOL0     H 4668   0.247   3.539   8.810  0.5337 -2.5209 -1.1549
   34MOL0     H 4669   0.188   3.384   8.869 -1.0518 -0.9414 -1.2761
   34MOL0     H 4670   0.174   3.556   9.065  2.1126  0.9949 -0.2521
   34MOL0     H 4671   0.013   3.499   9.013 -1.3459 -0.4584 -3.0454
   34MOL0     H 4672  -0.182   2.788   8.249  0.8495  2.1234  1.3634
   34MOL0     H 4673  -0.116   2.562   8.219  0.5351 -0.6452 -0.7874
   34MOL0     H 4674   0.255   2.322   7.983  1.9128  3.1293  2.2177
   34MOL0     H 4675   0.321   2.096   7.917 -1.3702  1.7591 -0.7100
   34MOL0     H 4676   1.125   2.021   7.544  0.5636 -0.8726  0.1032
   34MOL0     H 4677   1.099   1.912   7.321  0.6237  0.0289 -0.4436
   34MOL0     H 4678   1.076   1.813   6.977 -0.3699  5.1530  2.2813
   34MOL0     H 4679   1.077   1.656   6.800 -0.2601  0.2904  0.4969
   34MOL0     H 4680   1.111   1.777   6.379  0.4278  0.8278  0.9695
   34MOL0     H 4681   1.261   1.746   6.457  0.3171  2.7389 -6.6775
   34MOL0     H 4682   1.209   1.602   6.265  1.7099 -2.6928 -0.1713
   34MOL0     H 4683   1.042   1.593   6.319  0.8957  0.4754 -4.2454
   34MOL0     H 4684   1.275   1.439   6.454 -0.0936  0.3271  1.3840
   34MOL0     H 4685   1.101   1.423   6.492 -0.4131 -1.2829 -2.1134
   34MOL0     H 4686   1.201   1.242   6.323 -0.1578  0.4416  2.3331
   34MOL0     H 4687   1.210   1.369   6.210  4.0206 -4.2043 -0.8703
   34MOL0     H 4688   0.779   1.312   6.288 -0.7860 -2.0778 -1.0464
   34MOL0     H 4689   1.068   1.957   6.509  0.5988  0.5520  0.2408
   34MOL0     H 4690   1.009   2.154   6.558 -1.8247  0.3644  1.9219
   34MOL0     H 4691   0.962   2.229   6.702 -2.0139  1.5988 -3.7635
   34MOL0     H 4692   1.139   2.233   6.656  0.6695 -0.1982 -1.6382
   35MOL0     O 4693   2.266   4.491   4.836  0.3925  0.6784  0.2669
   35MOL0     C 4694   2.212   4.540   4.932  0.1700  0.2628 -0.2895
   35MOL0     O 4695   2.273   4.559   5.051  0.0024 -0.1185 -0.7470
   35MOL0     C 4696   2.405   4.532   5.066 -0.5502 -0.0169 -0.9243
   35MOL0     C 4697   2.441   4.418   5.136 -0.5754 -0.0520 -0.4925
   35MOL0     C 4698   2.575   4.398   5.159  0.2159 -0.3807 -0.8064
   35MOL0     C 4699   2.675   4.483   5.117  0.9613  0.6725  0.5052
   35MOL0     O 4700   2.808   4.466   5.149  0.3202 -0.2680  0.0877
   35MOL0     C 4701   2.867   4.337   5.125  0.7562  1.2832 -0.3461
   35MOL0     C 4702   3.010   4.344   5.169 -0.6154  0.1516 -0.2558
   35MOL0     C 4703   3.084   4.219   5.164 -0.3938 -1.0174  1.0140
   35MOL0     C 4704   3.231   4.239   5.180 -0.2712  0.4401 -0.3627
   35MOL0     C 4705   3.280   4.110   5.246  0.1903 -0.3032  0.6891
   35MOL0     C 4706   3.274   3.981   5.160  0.1525 -1.3783  0.0967
   35MOL0     C 4707   3.330   3.853   5.216  0.1434  0.2547 -0.6070
   35MOL0     C 4708   3.306   3.733   5.109  0.6765  0.8214  0.5153
   35MOL0     N 4709   3.434   3.659   5.083  0.2594 -0.2247  0.3761
   35MOL0     C 4710   3.461   3.583   4.964 -0.0778  0.5417 -1.4192
   35MOL0     C 4711   3.580   3.524   4.991  0.4422 -0.0300 -0.2403
   35MOL0     C 4712   3.651   3.432   4.896 -0.2620  0.2180  0.6891
   35MOL0     C 4713   3.758   3.352   4.972 -0.1564 -0.1909  0.0197
   35MOL0     C 4714   3.816   3.241   4.880 -0.8699 -0.2790 -0.7829
   35MOL0     C 4715   3.926   3.291   4.790 -0.3586 -0.1093 -0.3763
   35MOL0     O 4716   3.942   3.215   4.672  0.3074  0.3279  0.3087
   35MOL0     C 4717   4.070   3.164   4.652  0.3287 -0.2208 -0.2663
   35MOL0     C 4718   4.085   3.033   4.675  0.7601  0.2793 -0.0202
   35MOL0     C 4719   4.206   2.970   4.655  0.8392 -1.4281  0.0921
   35MOL0     C 4720   4.214   2.824   4.684 -0.5270 -0.6366  0.8457
   35MOL0     C 4721   4.322   3.050   4.609  1.0330 -0.1289  0.7070
   35MOL0     C 4722   4.453   2.992   4.590 -0.0053 -1.2199 -0.3720
   35MOL0     O 4723   4.550   3.071   4.539  0.1165 -0.0816  0.0124
   35MOL0     C 4724   4.670   3.011   4.518 -0.1358  0.1554 -0.5056
   35MOL0     C 4725   4.686   2.908   4.427  0.0849  0.1446  0.5221
   35MOL0     C 4726   4.821   2.863   4.401  0.5918 -0.2732  0.0597
   35MOL0     C 4727   4.937   2.926   4.457  0.1922 -0.0455 -0.0484
   35MOL0     O 4728   5.062   2.875   4.424  0.6466 -0.8169 -0.4708
   35MOL0     C 4729   5.143   2.837   4.543  0.8403 -0.5373  0.5640
   35MOL0     C 4730   5.228   2.714   4.529 -0.4779  0.4155 -0.0110
   35MOL0     C 4731   5.319   2.697   4.653  0.3906  0.3753 -0.3012
   35MOL0     C 4732   5.418   2.586   4.631 -0.0757  0.2295 -0.2050
   35MOL0     C 4733   5.527   2.571   4.746  0.7599  0.2207 -0.0544
   35MOL0     C 4734   5.618   2.693   4.749  0.0716  1.3436 -0.9680
   35MOL0     C 4735   5.727   2.662   4.849  0.2002  0.5066  0.4827
   35MOL0     C 4736   5.822   2.548   4.808  0.2429 -0.0698  1.0536
   35MOL0    Cl 4737   5.889   2.574   4.637 -0.1830 -0.3599 -0.0395
   35MOL0     C 4738   4.912   3.028   4.546  0.3986 -0.2076 -0.9561
   35MOL0     C 4739   4.781   3.075   4.569 -0.3883 -0.2552 -0.4599
   35MOL0     O 4740   4.475   2.883   4.637 -0.3648  0.1141 -0.6357
   35MOL0     C 4741   4.302   3.185   4.586  0.0202  0.4458 -0.4606
   35MOL0     C 4742   4.177   3.238   4.607 -0.0208 -0.6072 -0.2807
   35MOL0     N 4743   3.617   3.559   5.125 -0.1861 -0.6206  0.2014
   35MOL0     N 4744   3.534   3.643   5.172  0.3986  0.5577  0.2983
   35MOL0     C 4745   2.635   4.603   5.048 -1.1358  0.6585 -0.3887
   35MOL0     C 4746   2.496   4.634   5.041  1.0565 -1.2797 -0.0927
   35MOL0     C 4747   2.060   4.528   4.927 -0.0042  0.1809 -0.3438
   35MOL0     C 4748   1.995   4.471   5.045  0.5321 -0.1167 -0.8490
   35MOL0     C 4749   1.855   4.461   5.057  0.3835  0.6049 -0.2080
   35MOL0     C 4750   1.778   4.480   4.940 -0.2007  1.0260  0.3373
   35MOL0     O 4751   1.656   4.431   4.955  0.4471  0.3194  0.2787
   35MOL0     C 4752   1.581   4.420   4.826 -0.3350 -0.2433  0.3530
   35MOL0     C 4753   1.625   4.299   4.741 -0.5001  0.0622 -0.7227
   35MOL0     C 4754   1.627   4.155   4.804  0.2611 -0.2006 -0.6003
   35MOL0     C 4755   1.515   4.140   4.898  0.1923 -0.2945 -0.3480
   35MOL0     C 4756   1.495   4.001   4.925 -0.2901 -0.9079 -0.8370
   35MOL0     C 4757   1.467   3.886   4.962  0.7137 -0.0144  0.1752
   35MOL0     C 4758   1.839   4.530   4.825  0.3119 -0.8563  0.5534
   35MOL0     C 4759   1.977   4.562   4.821  0.3630 -1.0043 -0.3141
   35MOL0     C 4760   2.044   4.635   4.704 -0.4127  0.4257  1.1608
   35MOL0     H 4761   2.366   4.343   5.160 -0.4577  0.2307  0.8305
   35MOL0     H 4762   2.605   4.317   5.225 -2.1522 -2.1675 -1.8000
   35MOL0     H 4763   2.866   4.309   5.019  0.0180 -1.9573  0.4185
   35MOL0     H 4764   2.820   4.263   5.191 -2.8620  2.0231 -1.8401
   35MOL0     H 4765   3.071   4.424   5.124  1.7986 -1.7224 -0.4974
   35MOL0     H 4766   3.007   4.366   5.276 -1.5382 -0.7276 -0.0943
   35MOL0     H 4767   3.049   4.143   5.234  2.3918 -2.1993  1.2715
   35MOL0     H 4768   3.073   4.171   5.066 -2.5837  0.3294  0.5454
   35MOL0     H 4769   3.282   4.253   5.084  2.0992 -0.2203  0.7302
   35MOL0     H 4770   3.247   4.325   5.245 -0.1330  0.1073  0.0491
   35MOL0     H 4771   3.235   4.095   5.345 -1.5842  0.2060 -0.0066
   35MOL0     H 4772   3.388   4.121   5.262 -0.2707  1.6014  2.8981
   35MOL0     H 4773   3.168   3.959   5.143  0.3060 -1.6404 -0.5607
   35MOL0     H 4774   3.322   4.001   5.064 -1.1326 -0.8036 -0.4472
   35MOL0     H 4775   3.286   3.831   5.314  0.4494  0.5307 -0.4034
   35MOL0     H 4776   3.434   3.876   5.244  0.4183 -1.1803 -0.3805
   35MOL0     H 4777   3.226   3.664   5.137 -0.0919  2.1977  1.7835
   35MOL0     H 4778   3.273   3.765   5.009  1.1123 -2.9919 -1.0414
   35MOL0     H 4779   3.393   3.570   4.880 -1.7028 -0.1029 -0.0756
   35MOL0     H 4780   3.703   3.489   4.819  1.3529  1.5194  2.6247
   35MOL0     H 4781   3.591   3.355   4.848  1.0326 -0.5556  0.2478
   35MOL0     H 4782   3.837   3.418   5.010  1.7412 -1.9277 -0.7542
   35MOL0     H 4783   3.706   3.302   5.054 -1.3041  0.2366 -0.4236
   35MOL0     H 4784   3.866   3.166   4.942  0.1965 -0.5758 -1.9648
   35MOL0     H 4785   3.728   3.197   4.832 -1.7100  0.6759 -0.1641
   35MOL0     H 4786   3.909   3.395   4.762  1.3860  1.6515  4.1989
   35MOL0     H 4787   4.015   3.300   4.852 -1.3866 -2.0061  1.5352
   35MOL0     H 4788   4.002   2.974   4.714  0.3085  1.3545  0.7107
   35MOL0     H 4789   4.281   2.779   4.610  1.8978  2.3581  1.0087
   35MOL0     H 4790   4.122   2.769   4.707 -0.3473 -0.9554  0.7925
   35MOL0     H 4791   4.271   2.819   4.777  1.5526  0.4136 -0.3097
   35MOL0     H 4792   4.602   2.863   4.374  0.2039  2.3744 -1.7499
   35MOL0     H 4793   4.834   2.789   4.324  3.6806 -1.5319  1.6084
   35MOL0     H 4794   5.204   2.925   4.564  1.4976 -0.1977 -2.2764
   35MOL0     H 4795   5.078   2.813   4.628  0.5170 -1.9613 -0.0574
   35MOL0     H 4796   5.155   2.632   4.531 -2.6802  2.2319  2.8909
   35MOL0     H 4797   5.296   2.721   4.444  0.3776 -2.0498  0.3916
   35MOL0     H 4798   5.259   2.678   4.743  0.4377  0.8764 -0.1630
   35MOL0     H 4799   5.376   2.789   4.667 -2.0879  1.7650  1.5597
   35MOL0     H 4800   5.471   2.593   4.536 -0.1593  2.0696 -0.1410
   35MOL0     H 4801   5.362   2.492   4.634  0.4983 -0.1268  2.3885
   35MOL0     H 4802   5.483   2.569   4.846  3.5451 -0.1000  1.2791
   35MOL0     H 4803   5.579   2.475   4.734 -1.7379 -1.0558 -1.4135
   35MOL0     H 4804   5.562   2.771   4.800  0.1408  0.8774 -0.1695
   35MOL0     H 4805   5.654   2.719   4.649  0.8501 -0.0707 -1.0783
   35MOL0     H 4806   5.689   2.629   4.946  3.4392  0.9748  2.0457
   35MOL0     H 4807   5.789   2.749   4.873  4.1338 -0.8603 -3.2526
   35MOL0     H 4808   5.777   2.448   4.814  0.2886 -0.0464  1.9635
   35MOL0     H 4809   5.908   2.556   4.876  1.4721 -2.6211 -0.0390
   35MOL0     H 4810   4.999   3.081   4.584  1.1045  0.7328 -3.7032
   35MOL0     H 4811   4.765   3.164   4.629 -2.5090 -0.5269 -0.5553
   35MOL0     H 4812   4.383   3.247   4.551  3.2807 -0.8732  3.9289
   35MOL0     H 4813   4.158   3.343   4.590  2.8389 -0.1391 -1.0510
   35MOL0     H 4814   2.713   4.665   5.005 -2.1437  0.7012 -2.2682
   35MOL0     H 4815   2.457   4.725   4.997  4.4916 -0.0442 -0.8587
   35MOL0     H 4816   2.065   4.450   5.124  1.4235  5.0626  0.0947
   35MOL0     H 4817   1.810   4.434   5.152  0.5977  1.7932  0.2541
   35MOL0     H 4818   1.477   4.402   4.856 -1.2647  2.8968 -0.5843
   35MOL0     H 4819   1.585   4.514   4.770 -0.7731 -1.2797 -1.5082
   35MOL0     H 4820   1.727   4.319   4.707 -0.9224  2.2786 -0.8486
   35MOL0     H 4821   1.564   4.310   4.650  2.2312 -0.2624 -2.7061
   35MOL0     H 4822   1.619   4.087   4.719 -1.4107 -0.0274 -0.5963
   35MOL0     H 4823   1.724   4.141   4.854 -0.2154  0.6406  0.6039
   35MOL0     H 4824   1.419   4.176   4.860 -0.8968 -0.5493  1.9809
   35MOL0     H 4825   1.539   4.181   4.997 -0.7497  0.1940 -0.3163
   35MOL0     H 4826   1.455   3.781   4.975 -0.2556  0.1597  0.7367
   35MOL0     H 4827   1.785   4.566   4.738  2.7587  1.9714  0.0421
   35MOL0     H 4828   1.971   4.672   4.630 -0.6886 -3.4391 -0.7332
   35MOL0     H 4829   2.105   4.717   4.743 -1.0982  0.7933  1.4781
   35MOL0     H 4830   2.107   4.565   4.649 -0.2731 -2.0029  4.1699
   36MOL0     O 4831   1.268   4.958   5.247 -0.2197 -0.6184 -0.1462
   36MOL0     C 4832   1.215   4.908   5.151  0.8789 -0.9003  0.1580
   36MOL0     O 4833   1.284   4.872   5.041 -0.1357  0.1564 -0.0096
   36MOL0     C 4834   1.425   4.889   5.033  0.3826 -0.4360  0.5662
   36MOL0     C 4835   1.495   4.998   5.085  0.8629  0.0757 -0.2315
   36MOL0     C 4836   1.630   5.018   5.078  0.1859  0.4687  0.3620
   36MOL0     C 4837   1.701   4.921   5.014 -0.7237 -0.6577  0.7414
   36MOL0     O 4838   1.830   4.947   5.006 -0.5423 -0.4383 -0.4530
   36MOL0     C 4839   1.917   4.847   4.964  0.1953 -0.6147 -0.5942
   36MOL0     C 4840   2.052   4.860   5.026  0.5041 -0.1075 -0.1037
   36MOL0     C 4841   2.060   4.864   5.182 -0.5724  0.4152 -0.1125
   36MOL0     C 4842   2.183   4.801   5.239  0.3862 -0.9258  0.2656
   36MOL0     C 4843   2.199   4.827   5.384 -0.0660 -0.4858  0.2466
   36MOL0     C 4844   2.278   4.719   5.460 -0.2067  0.7061  0.2679
   36MOL0     C 4845   2.194   4.603   5.482  0.1464  0.0776 -0.7507
   36MOL0     C 4846   2.260   4.477   5.546  0.2074  0.5060  0.1060
   36MOL0     N 4847   2.334   4.513   5.668 -0.1667  0.0766  0.0007
   36MOL0     C 4848   2.461   4.563   5.674  0.2226 -0.1698  0.0119
   36MOL0     C 4849   2.498   4.552   5.802 -0.0641 -0.4198 -0.7208
   36MOL0     C 4850   2.629   4.590   5.864 -0.1827 -0.1394  0.3180
   36MOL0     C 4851   2.741   4.499   5.810 -0.6987  0.2172  0.5630
   36MOL0     C 4852   2.877   4.526   5.890 -0.6220  0.3975 -0.0386
   36MOL0     C 4853   2.906   4.397   5.961  0.5109  0.4199 -0.2402
   36MOL0     O 4854   3.034   4.396   6.019  0.0817 -0.7985 -0.3756
   36MOL0     C 4855   3.083   4.275   6.058  0.6969  0.0063  0.3476
   36MOL0     C 4856   3.004   4.161   6.084 -0.4425  0.4688 -0.0021
   36MOL0     C 4857   3.058   4.040   6.132  0.3107 -0.3559 -0.2606
   36MOL0     C 4858   2.984   3.911   6.136  0.3209 -0.8448 -0.1813
   36MOL0     C 4859   3.201   4.037   6.154 -0.5562  0.6975 -1.0304
   36MOL0     C 4860   3.283   3.916   6.203 -0.7701 -0.7949  0.6262
   36MOL0     O 4861   3.418   3.919   6.162 -0.1232 -0.1163  0.0976
   36MOL0     C 4862   3.508   3.832   6.227 -0.1007  0.0144  0.4471
   36MOL0     C 4863   3.481   3.692   6.232 -0.9620  0.4324 -0.5659
   36MOL0     C 4864   3.568   3.606   6.297 -0.9397  0.1827  0.6250
   36MOL0     C 4865   3.689   3.650   6.356  0.0586  0.0653  0.2410
   36MOL0     O 4866   3.786   3.561   6.402  0.6263 -1.5478 -0.1908
   36MOL0     C 4867   3.908   3.619   6.454  0.2626  1.1912 -0.3773
   36MOL0     C 4868   3.994   3.504   6.504 -0.1621  0.1890 -0.9069
   36MOL0     C 4869   4.108   3.560   6.596 -0.8453 -0.4504  0.4187
   36MOL0     C 4870   4.196   3.459   6.660 -0.4022 -0.3100  0.1475
   36MOL0     C 4871   4.292   3.523   6.764 -0.6907  0.2519 -0.1945
   36MOL0     C 4872   4.398   3.427   6.810 -0.0672 -0.4950  0.0588
   36MOL0     C 4873   4.488   3.486   6.927 -0.0762 -0.2195 -0.0582
   36MOL0     C 4874   4.532   3.369   7.018 -0.0343 -1.2654 -0.1896
   36MOL0    Cl 4875   4.581   3.214   6.932 -0.0530  0.0837 -0.0161
   36MOL0     C 4876   3.713   3.790   6.350 -0.7832 -0.1321  0.0406
   36MOL0     C 4877   3.621   3.877   6.292 -0.4408  0.2043 -0.9243
   36MOL0     O 4878   3.228   3.821   6.252 -0.2995 -0.8752 -0.5923
   36MOL0     C 4879   3.270   4.158   6.143 -0.2117 -0.9496 -0.6570
   36MOL0     C 4880   3.212   4.278   6.097  0.4453  0.0750  0.3926
   36MOL0     N 4881   2.412   4.480   5.870  0.0197 -0.0672 -0.1068
   36MOL0     N 4882   2.312   4.466   5.789 -0.1338  0.6897  0.3764
   36MOL0     C 4883   1.642   4.811   4.948 -0.8588 -0.3643  0.2483
   36MOL0     C 4884   1.502   4.804   4.955 -0.3472 -0.1913  0.0410
   36MOL0     C 4885   1.071   4.915   5.147 -0.1419 -0.2980  0.2237
   36MOL0     C 4886   1.012   4.827   5.054  0.2263 -1.1084 -0.3589
   36MOL0     C 4887   0.876   4.828   5.024 -0.5699  0.8472 -0.0805
   36MOL0     C 4888   0.788   4.904   5.090  0.9140 -0.7174  0.6464
   36MOL0     O 4889   0.657   4.897   5.068  0.2052 -0.5666  0.8078
   36MOL0     C 4890   0.569   4.895   5.182 -1.3925  0.4562  0.4896
   36MOL0     C 4891   0.450   4.824   5.132  0.2341 -0.7384 -0.2171
   36MOL0     C 4892   0.365   4.919   5.048 -0.0927  0.1951  0.7464
   36MOL0     C 4893   0.233   4.851   5.003 -0.2416 -0.1337 -0.3703
   36MOL0     C 4894   0.147   4.948   4.934 -0.1773  0.2827 -0.5255
   36MOL0     C 4895   0.065   5.030   4.884 -0.2826 -0.4344  0.1416
   36MOL0     C 4896   0.846   4.991   5.189  0.2391 -0.2658  0.3876
   36MOL0     C 4897   0.981   4.992   5.221  0.4115 -0.4517  0.4445
   36MOL0     C 4898   1.018   5.080   5.326 -0.1699  0.6775  0.3496
   36MOL0     H 4899   1.434   5.077   5.127 -1.1891 -0.7124 -1.5078
   36MOL0     H 4900   1.683   5.103   5.121 -0.5293  1.3741 -0.4875
   36MOL0     H 4901   1.923   4.843   4.855  1.9436  1.6316 -0.6524
   36MOL0     H 4902   1.876   4.750   4.994 -0.3475 -0.5045 -0.9725
   36MOL0     H 4903   2.127   4.789   4.989  2.3696  2.1071 -0.8447
   36MOL0     H 4904   2.091   4.958   4.998 -0.8290 -0.3512 -3.1788
   36MOL0     H 4905   2.054   4.970   5.209 -0.7251  0.6632 -1.0640
   36MOL0     H 4906   1.971   4.809   5.215 -0.8091  0.6702 -0.3186
   36MOL0     H 4907   2.168   4.694   5.218 -2.6529 -0.1025 -2.4909
   36MOL0     H 4908   2.272   4.835   5.185 -1.5245  2.5581 -0.9373
   36MOL0     H 4909   2.098   4.848   5.421 -0.6824  1.1012 -2.0664
   36MOL0     H 4910   2.244   4.926   5.396  2.1452 -1.6398  2.0927
   36MOL0     H 4911   2.371   4.682   5.417  1.1701  1.5425  2.3829
   36MOL0     H 4912   2.304   4.771   5.552 -1.7559  2.5861 -0.2812
   36MOL0     H 4913   2.144   4.578   5.388 -0.8473 -1.4246  0.1368
   36MOL0     H 4914   2.110   4.634   5.545  0.2559 -1.0270 -0.0370
   36MOL0     H 4915   2.175   4.409   5.562  1.9689 -1.9156 -0.1932
   36MOL0     H 4916   2.314   4.420   5.469  1.6738  2.7486 -0.6319
   36MOL0     H 4917   2.515   4.618   5.597 -1.1566 -0.2205 -1.0165
   36MOL0     H 4918   2.616   4.575   5.972 -0.1513  1.8398  0.6406
   36MOL0     H 4919   2.650   4.694   5.838 -2.0515  0.2203  0.0852
   36MOL0     H 4920   2.714   4.394   5.817  0.1563 -0.0358  0.2328
   36MOL0     H 4921   2.758   4.526   5.705 -0.6993 -0.4298  0.3969
   36MOL0     H 4922   2.950   4.542   5.810  0.9674 -0.2410  1.2312
   36MOL0     H 4923   2.880   4.612   5.958  0.9533 -0.9017  1.6242
   36MOL0     H 4924   2.819   4.382   6.026 -0.1852  0.6494 -1.1019
   36MOL0     H 4925   2.906   4.313   5.892  4.1464 -1.0220  1.2712
   36MOL0     H 4926   2.896   4.162   6.070 -0.2642  0.5238 -1.4341
   36MOL0     H 4927   2.891   3.920   6.079  1.1812 -2.1529 -1.8929
   36MOL0     H 4928   2.960   3.888   6.240 -2.0318 -0.0481 -0.5014
   36MOL0     H 4929   3.047   3.835   6.088  0.1465 -2.6736  2.2979
   36MOL0     H 4930   3.397   3.649   6.178  0.9451 -0.9892 -2.5240
   36MOL0     H 4931   3.552   3.499   6.308 -4.4403  0.8091  3.9374
   36MOL0     H 4932   3.961   3.673   6.374  1.7566  0.9650  0.4118
   36MOL0     H 4933   3.884   3.685   6.538 -2.0757  0.7791 -0.6708
   36MOL0     H 4934   3.939   3.425   6.555  0.0670  0.0193 -0.9207
   36MOL0     H 4935   4.034   3.444   6.422  1.9585 -1.5065  1.2190
   36MOL0     H 4936   4.060   3.615   6.677 -0.5538  0.4789 -0.0234
   36MOL0     H 4937   4.163   3.624   6.526 -2.8842 -0.4529 -1.2765
   36MOL0     H 4938   4.255   3.398   6.590  0.7941  3.7945 -2.8344
   36MOL0     H 4939   4.130   3.383   6.702 -0.8328  0.9493  1.8400
   36MOL0     H 4940   4.347   3.607   6.721  1.5437 -0.7962  0.4473
   36MOL0     H 4941   4.237   3.561   6.850 -0.0461  1.6783 -0.3856
   36MOL0     H 4942   4.464   3.398   6.728 -1.0511  3.2583 -2.3272
   36MOL0     H 4943   4.341   3.343   6.852 -0.3634 -0.2862  0.0765
   36MOL0     H 4944   4.426   3.558   6.982  1.4878  1.5385 -0.5046
   36MOL0     H 4945   4.564   3.558   6.895  0.5084  0.0982  1.9187
   36MOL0     H 4946   4.452   3.340   7.087  1.0991 -2.5935  0.6093
   36MOL0     H 4947   4.614   3.412   7.076  0.4125 -2.4556  0.0677
   36MOL0     H 4948   3.801   3.835   6.394 -0.1747 -1.1115 -0.1491
   36MOL0     H 4949   3.634   3.985   6.291  4.6365 -0.1448 -0.7545
   36MOL0     H 4950   3.376   4.173   6.159 -0.6381  0.0787  1.5819
   36MOL0     H 4951   3.268   4.371   6.094  1.0494 -0.3163 -1.2109
   36MOL0     H 4952   1.692   4.739   4.884  0.1922  2.7769 -2.8383
   36MOL0     H 4953   1.441   4.725   4.913 -1.3651  0.9919 -0.7910
   36MOL0     H 4954   1.076   4.763   4.993  0.6621 -2.5573  1.4934
   36MOL0     H 4955   0.842   4.761   4.946 -2.5770  0.9480  0.6461
   36MOL0     H 4956   0.617   4.830   5.256 -0.8723 -0.5694 -0.7294
   36MOL0     H 4957   0.548   4.993   5.227 -1.3176 -0.1624  1.9544
   36MOL0     H 4958   0.393   4.785   5.217  0.9851 -2.4941 -0.4604
   36MOL0     H 4959   0.478   4.736   5.072  1.1786 -1.1588  0.7989
   36MOL0     H 4960   0.334   5.009   5.101 -2.8098 -0.0542 -0.2562
   36MOL0     H 4961   0.427   4.933   4.959  1.2196 -2.5344  1.1414
   36MOL0     H 4962   0.179   4.817   5.092  0.5347  0.1452  0.2160
   36MOL0     H 4963   0.251   4.766   4.936 -2.0212  0.6622 -1.9693
   36MOL0     H 4964  -0.007   5.094   4.837  2.6897  3.2601  0.1248
   36MOL0     H 4965   0.776   5.051   5.246  0.0145 -2.1217  2.1579
   36MOL0     H 4966   1.083   5.028   5.397  2.4732  3.8356  0.4842
   36MOL0     H 4967   1.070   5.164   5.278 -1.4622 -0.0216 -2.4841
   36MOL0     H 4968   0.932   5.114   5.384 -0.3500 -2.5820  2.2310
   37MOL0     O 4969   8.541   1.375   5.891  0.1718  0.4148  0.5635
   37MOL0     C 4970   8.565   1.413   6.003 -0.3768 -0.2825 -0.2439
   37MOL0     O 4971   8.686   1.422   6.061 -0.7133  1.2913  0.2199
   37MOL0     C 4972   8.791   1.362   5.993  0.6322  0.5700 -0.6118
   37MOL0     C 4973   8.868   1.443   5.907  0.2585 -0.4877  0.6399
   37MOL0     C 4974   8.973   1.391   5.830  0.0373 -0.2029 -0.4829
   37MOL0     C 4975   9.012   1.260   5.849 -0.2607 -0.2083  0.5682
   37MOL0     O 4976   9.124   1.219   5.782  0.7421  0.0413  0.6828
   37MOL0     C 4977   9.158   1.084   5.785 -0.5330  0.0211 -0.1394
   37MOL0     C 4978   9.265   1.062   5.686  1.2786  0.6131  0.0801
   37MOL0     C 4979   9.215   1.100   5.540 -0.1173  0.0669 -0.0216
   37MOL0     C 4980   9.326   1.116   5.452 -0.5851 -0.6580  0.7541
   37MOL0     C 4981   9.282   1.106   5.309 -0.2042 -0.5864  0.2662
   37MOL0     C 4982   9.393   1.169   5.218  0.2706 -0.0635  0.9859
   37MOL0     C 4983   9.338   1.150   5.073  0.1761 -0.0384 -0.1185
   37MOL0     C 4984   9.414   1.030   5.010  0.5469 -0.9131 -0.5013
   37MOL0     N 4985   9.549   1.058   4.970  0.9951  0.7281 -0.7473
   37MOL0     C 4986   9.668   1.064   5.042  0.5638  0.1895 -0.1808
   37MOL0     C 4987   9.762   1.126   4.966  0.0113  1.2431  0.4154
   37MOL0     C 4988   9.901   1.166   5.010 -0.4356 -0.4865  0.4406
   37MOL0     C 4989   9.903   1.317   5.059  0.5979  0.0889 -0.1964
   37MOL0     C 4990   9.992   1.421   5.008 -0.2232 -0.8818  0.1814
   37MOL0     C 4991  10.134   1.380   5.010 -0.5769 -0.1905 -0.4289
   37MOL0     O 4992  10.215   1.503   5.005  0.3130 -0.3182 -0.8929
   37MOL0     C 4993  10.328   1.501   4.934 -0.6745 -0.1174 -0.3805
   37MOL0     C 4994  10.373   1.615   4.861 -0.8327  0.4944 -0.5620
   37MOL0     C 4995  10.493   1.609   4.785  0.7666  0.0497 -0.4682
   37MOL0     C 4996  10.524   1.737   4.710 -0.5125  1.3485 -0.0482
   37MOL0     C 4997  10.568   1.485   4.782 -0.1545  0.1610  0.1724
   37MOL0     C 4998  10.699   1.479   4.708 -0.0440  0.5634  1.2442
   37MOL0     O 4999  10.770   1.369   4.728 -0.3275  0.0415 -0.1581
   37MOL0     C 5000  10.863   1.322   4.636 -0.2552 -0.1368 -0.2854
   37MOL0     C 5001  10.949   1.405   4.572 -0.8941 -0.3591 -0.0576
   37MOL0     C 5002  11.049   1.343   4.486  0.6754  0.7910 -0.0898
   37MOL0     C 5003  11.036   1.201   4.450  0.0817 -0.7932 -0.3823
   37MOL0     O 5004  11.127   1.137   4.368  0.0776 -0.4993  0.3211
   37MOL0     C 5005  11.071   1.082   4.252 -0.1393  0.3031  0.2662
   37MOL0     C 5006  11.180   1.001   4.178 -0.2103  0.5657 -0.3866
   37MOL0     C 5007  11.206   0.860   4.241 -0.0351  0.2199 -0.3908
   37MOL0     C 5008  11.282   0.860   4.373 -0.4964 -1.0236 -0.6635
   37MOL0     C 5009  11.330   0.726   4.429 -0.0998 -0.0983  0.4279
   37MOL0     C 5010  11.458   0.666   4.375  0.0884 -0.8663  0.3100
   37MOL0     C 5011  11.478   0.521   4.431  0.4202 -0.5126  0.2278
   37MOL0     C 5012  11.621   0.462   4.400  0.1924  0.4140  0.5778
   37MOL0    Cl 5013  11.627   0.430   4.227 -0.0657 -0.0236 -0.0499
   37MOL0     C 5014  10.939   1.123   4.516 -1.1144 -0.3694 -0.0604
   37MOL0     C 5015  10.865   1.183   4.619 -0.1836 -0.0030  0.2445
   37MOL0     O 5016  10.741   1.582   4.646  0.4246 -0.0177 -0.0183
   37MOL0     C 5017  10.532   1.377   4.863 -0.7983  0.1543  0.1055
   37MOL0     C 5018  10.416   1.386   4.944 -0.9949  0.2445  0.2005
   37MOL0     N 5019   9.698   1.170   4.850  0.1817  0.4747 -0.1590
   37MOL0     N 5020   9.579   1.127   4.857 -0.5184  0.4494  0.2219
   37MOL0     C 5021   8.928   1.172   5.922 -0.4496 -0.1460  0.6017
   37MOL0     C 5022   8.820   1.222   5.999 -0.3872 -0.4551 -0.1280
   37MOL0     C 5023   8.440   1.452   6.076  0.0630 -0.8067 -0.4792
   37MOL0     C 5024   8.464   1.511   6.202  0.1735 -0.1236  0.7637
   37MOL0     C 5025   8.357   1.564   6.274 -0.5455 -1.0451 -0.1836
   37MOL0     C 5026   8.223   1.551   6.220 -0.7936  0.5037  0.0211
   37MOL0     O 5027   8.117   1.614   6.283 -0.2772  0.5702 -0.0156
   37MOL0     C 5028   8.003   1.662   6.210  0.9765  0.1507  0.3632
   37MOL0     C 5029   7.886   1.570   6.251  0.2000 -0.7176  0.5743
   37MOL0     C 5030   7.774   1.579   6.138 -0.2188 -0.0606 -0.1942
   37MOL0     C 5031   7.667   1.481   6.138 -0.0894  0.6059  0.1441
   37MOL0     C 5032   7.710   1.347   6.153 -0.4411 -0.2698 -0.2034
   37MOL0     C 5033   7.747   1.232   6.173 -0.0701  0.4516 -0.1506
   37MOL0     C 5034   8.197   1.467   6.115 -0.1136  1.1239  0.4923
   37MOL0     C 5035   8.304   1.430   6.033  0.0220 -0.5846 -0.3151
   37MOL0     C 5036   8.260   1.367   5.901 -0.7130  0.3098  1.1522
   37MOL0     H 5037   8.840   1.546   5.889  0.9040  0.2170  3.2327
   37MOL0     H 5038   9.035   1.446   5.760  0.3284 -0.6763 -0.6073
   37MOL0     H 5039   9.075   1.023   5.749 -1.5866  1.0721  0.4498
   37MOL0     H 5040   9.189   1.043   5.881 -0.8739 -3.0402 -1.2197
   37MOL0     H 5041   9.350   1.127   5.705 -0.1106  2.0428  1.7231
   37MOL0     H 5042   9.281   0.955   5.700  0.9983  0.6859  1.0036
   37MOL0     H 5043   9.143   1.027   5.501  1.1579 -1.9475  1.2514
   37MOL0     H 5044   9.163   1.197   5.541 -0.5066 -0.1225 -0.9136
   37MOL0     H 5045   9.374   1.213   5.471  0.1864 -0.2240 -2.6340
   37MOL0     H 5046   9.403   1.039   5.461 -0.8601 -1.2152 -1.1097
   37MOL0     H 5047   9.189   1.162   5.298 -0.2840 -0.9321 -0.9956
   37MOL0     H 5048   9.260   1.004   5.278  1.8635 -1.9518  2.9417
   37MOL0     H 5049   9.400   1.278   5.228  3.0577 -0.0236 -0.2685
   37MOL0     H 5050   9.491   1.125   5.243 -0.6407 -1.8474  1.6053
   37MOL0     H 5051   9.355   1.244   5.020  1.4828 -1.0005 -1.4922
   37MOL0     H 5052   9.232   1.120   5.079  0.0827 -0.7778 -3.3204
   37MOL0     H 5053   9.409   0.950   5.084 -0.1846 -1.1614 -0.8117
   37MOL0     H 5054   9.352   0.999   4.925 -0.3014 -1.9941  0.4818
   37MOL0     H 5055   9.675   1.031   5.145 -2.8762 -1.9287 -0.4680
   37MOL0     H 5056   9.973   1.144   4.930  1.1093  2.0465  1.0236
   37MOL0     H 5057   9.937   1.103   5.093  0.1604 -2.9470 -1.5538
   37MOL0     H 5058   9.802   1.355   5.041  0.3196 -0.5602 -0.0339
   37MOL0     H 5059   9.913   1.318   5.168 -1.4796  1.6466  0.0389
   37MOL0     H 5060   9.968   1.437   4.903  2.5070  2.0818 -0.1641
   37MOL0     H 5061   9.971   1.514   5.062  0.7536  1.3139 -2.8754
   37MOL0     H 5062  10.157   1.315   5.095 -1.5071 -1.0929 -0.8386
   37MOL0     H 5063  10.153   1.318   4.922  0.8708 -0.6501  0.1688
   37MOL0     H 5064  10.301   1.696   4.852 -2.1484 -0.5553  0.1691
   37MOL0     H 5065  10.622   1.770   4.745 -1.0052  0.4401  2.4049
   37MOL0     H 5066  10.462   1.821   4.743 -1.1409 -0.1565  2.9457
   37MOL0     H 5067  10.511   1.725   4.602 -1.6215 -0.6945  0.2438
   37MOL0     H 5068  10.975   1.506   4.602 -3.2706 -0.2687  1.9401
   37MOL0     H 5069  11.129   1.406   4.448  0.9708  0.6334  0.2631
   37MOL0     H 5070  10.989   1.019   4.287  1.4435 -0.5212  2.6692
   37MOL0     H 5071  11.031   1.156   4.181  0.9727  0.1249 -0.5619
   37MOL0     H 5072  11.136   0.972   4.082 -4.2119  0.7415  1.1923
   37MOL0     H 5073  11.271   1.057   4.157  2.3021 -3.1459 -0.4310
   37MOL0     H 5074  11.248   0.793   4.166 -2.2892 -0.4779 -1.1188
   37MOL0     H 5075  11.105   0.820   4.259 -1.6153  3.1044 -2.1568
   37MOL0     H 5076  11.211   0.901   4.445 -0.3175 -1.4164 -0.2649
   37MOL0     H 5077  11.368   0.927   4.362  0.8420 -2.5162  0.2985
   37MOL0     H 5078  11.339   0.734   4.538 -3.5529 -0.6241  0.8651
   37MOL0     H 5079  11.246   0.656   4.418  0.7118 -0.7691 -2.0020
   37MOL0     H 5080  11.538   0.735   4.403 -0.8664  0.0162  0.9351
   37MOL0     H 5081  11.453   0.668   4.266  1.2802  0.3546  0.2553
   37MOL0     H 5082  11.398   0.459   4.389 -0.7118  2.3329 -2.1622
   37MOL0     H 5083  11.463   0.524   4.539 -0.1800  0.5562  0.1241
   37MOL0     H 5084  11.631   0.366   4.452 -1.4238 -1.4371 -2.2680
   37MOL0     H 5085  11.703   0.527   4.432  0.8563  0.0512 -0.3324
   37MOL0     H 5086  10.930   1.016   4.498 -2.5897  0.1064 -2.5886
   37MOL0     H 5087  10.779   1.132   4.661 -0.1165  0.2334  0.6695
   37MOL0     H 5088  10.604   1.300   4.889 -0.3463  0.6777  0.4215
   37MOL0     H 5089  10.380   1.310   5.013 -2.1211  1.6815  1.2641
   37MOL0     H 5090   8.944   1.065   5.928 -3.3572 -0.7811 -1.0938
   37MOL0     H 5091   8.760   1.155   6.060  1.6441  0.1152  2.6922
   37MOL0     H 5092   8.565   1.522   6.238  0.5071 -3.2980  1.0508
   37MOL0     H 5093   8.386   1.596   6.373  3.6499  1.8588 -2.0532
   37MOL0     H 5094   7.981   1.761   6.251  0.5883 -0.1999  1.0140
   37MOL0     H 5095   8.026   1.672   6.103 -0.6362  1.4246  0.1010
   37MOL0     H 5096   7.846   1.601   6.348  1.7835  0.4109  0.9140
   37MOL0     H 5097   7.917   1.465   6.257 -0.7143 -1.0546 -0.3501
   37MOL0     H 5098   7.700   1.658   6.156  0.0003  0.4421 -1.4311
   37MOL0     H 5099   7.815   1.586   6.037 -1.1421  0.4268 -0.5439
   37MOL0     H 5100   7.594   1.491   6.057  1.9254 -4.3501 -2.7148
   37MOL0     H 5101   7.619   1.495   6.236 -0.3262 -0.2939  0.1635
   37MOL0     H 5102   7.775   1.130   6.186  0.9955  0.8180  0.6386
   37MOL0     H 5103   8.099   1.429   6.088  1.0138 -1.9186  0.2642
   37MOL0     H 5104   8.155   1.338   5.914 -1.0858  1.5419  1.0306
   37MOL0     H 5105   8.264   1.443   5.822 -0.1464 -0.9483 -0.0694
   37MOL0     H 5106   8.321   1.280   5.873 -0.3465  0.5063  1.3300
   38MOL0     O 5107   8.831   4.395   3.114  0.2581 -0.2583 -0.3610
   38MOL0     C 5108   8.736   4.423   3.195 -0.1741 -0.6777  0.2686
   38MOL0     O 5109   8.686   4.550   3.221 -0.8828  0.0275  0.2825
   38MOL0     C 5110   8.772   4.650   3.174 -0.5628  0.3455 -0.2800
   38MOL0     C 5111   8.768   4.687   3.038  0.6453  0.2951  0.3561
   38MOL0     C 5112   8.856   4.779   2.984  0.3212 -0.4217  0.7223
   38MOL0     C 5113   8.959   4.831   3.061 -0.5417 -0.2861 -0.5502
   38MOL0     O 5114   9.069   4.902   3.014 -0.3035  0.7847 -0.0554
   38MOL0     C 5115   9.108   4.877   2.882  0.6019  0.0708  0.3095
   38MOL0     C 5116   9.241   4.944   2.849  0.0410 -0.0910 -0.3964
   38MOL0     C 5117   9.219   5.099   2.823  0.3943 -0.3422  0.3046
   38MOL0     C 5118   9.348   5.171   2.803 -0.0099  0.9877 -0.6714
   38MOL0     C 5119   9.321   5.317   2.799  0.0537 -0.0067 -0.5449
   38MOL0     C 5120   9.415   5.401   2.880  0.0907  0.3038 -0.0566
   38MOL0     C 5121   9.392   5.551   2.892  0.4875  0.6506 -1.1427
   38MOL0     C 5122   9.449   5.639   2.786 -0.7031 -0.0223 -0.2857
   38MOL0     N 5123   9.599   5.642   2.786  0.1549  1.3825 -0.2916
   38MOL0     C 5124   9.680   5.557   2.717 -0.5316  0.2717  0.6141
   38MOL0     C 5125   9.801   5.589   2.757  0.0292  0.3583  0.0378
   38MOL0     C 5126   9.940   5.536   2.725 -0.7332  0.7384 -0.4733
   38MOL0     C 5127   9.943   5.384   2.684 -0.5320  0.0151  0.1473
   38MOL0     C 5128  10.085   5.331   2.709  0.0245 -0.2485 -0.1780
   38MOL0     C 5129  10.203   5.415   2.654 -0.5221  0.3446  0.6172
   38MOL0     O 5130  10.321   5.337   2.632 -0.2719  0.6150  0.8193
   38MOL0     C 5131  10.435   5.400   2.582  0.4344  0.0126  0.5728
   38MOL0     C 5132  10.459   5.535   2.553  0.0209  0.3369  0.3485
   38MOL0     C 5133  10.571   5.593   2.480  0.5554  0.4901  0.3196
   38MOL0     C 5134  10.564   5.738   2.443 -0.1123 -0.0682  0.5965
   38MOL0     C 5135  10.674   5.501   2.450  0.1407  0.0573 -0.1766
   38MOL0     C 5136  10.795   5.531   2.372 -0.4760  0.4722  0.7139
   38MOL0     O 5137  10.874   5.423   2.329  0.6805 -0.2624  0.0517
   38MOL0     C 5138  10.983   5.450   2.259 -0.5919  0.2091  0.2017
   38MOL0     C 5139  10.985   5.466   2.118  0.0921  0.6866  0.7511
   38MOL0     C 5140  11.095   5.500   2.044  0.3583  0.0290  0.3125
   38MOL0     C 5141  11.221   5.495   2.096  0.2218 -0.3109  0.6429
   38MOL0     O 5142  11.335   5.507   2.021 -0.1626  0.3735 -0.1799
   38MOL0     C 5143  11.336   5.540   1.881  0.3805  0.2099 -0.4865
   38MOL0     C 5144  11.296   5.678   1.842  0.5879  0.1437 -0.7481
   38MOL0     C 5145  11.368   5.780   1.927  0.3574 -0.1849 -0.2401
   38MOL0     C 5146  11.517   5.777   1.946 -0.4206  0.0831  0.1828
   38MOL0     C 5147  11.567   5.876   2.064 -0.0001  1.0720  0.5866
   38MOL0     C 5148  11.717   5.891   2.047 -0.5897  0.0622 -0.1671
   38MOL0     C 5149  11.776   6.018   2.105 -0.9378 -0.2894 -0.5365
   38MOL0     C 5150  11.935   6.013   2.097  0.6599  0.1556 -0.4369
   38MOL0    Cl 5151  11.984   6.160   2.191  0.6085 -0.4243  0.4111
   38MOL0     C 5152  11.227   5.471   2.231 -0.2554  0.0714  0.0975
   38MOL0     C 5153  11.113   5.462   2.318 -0.1754 -1.3888  1.0713
   38MOL0     O 5154  10.808   5.645   2.324  0.5759  1.0478 -0.2023
   38MOL0     C 5155  10.658   5.368   2.501 -0.3759 -0.1161  0.4531
   38MOL0     C 5156  10.539   5.317   2.550 -0.9557  0.5423 -0.1696
   38MOL0     N 5157   9.797   5.695   2.849  0.2521  0.4274 -0.2513
   38MOL0     N 5158   9.675   5.726   2.863  0.0717 -0.0522 -0.2813
   38MOL0     C 5159   8.969   4.789   3.192 -0.6904  0.0689 -0.8506
   38MOL0     C 5160   8.879   4.708   3.253  0.6151 -0.8658 -0.0314
   38MOL0     C 5161   8.665   4.315   3.276 -0.4530 -0.1778 -0.4221
   38MOL0     C 5162   8.600   4.356   3.397  0.0253 -0.2808 -0.0497
   38MOL0     C 5163   8.534   4.258   3.482 -0.0569 -1.2195 -0.2212
   38MOL0     C 5164   8.548   4.132   3.456 -0.1936 -0.2791 -0.7813
   38MOL0     O 5165   8.488   4.034   3.527  0.2799 -0.6281  0.4787
   38MOL0     C 5166   8.430   4.067   3.661  0.7081 -0.1957  0.6365
   38MOL0     C 5167   8.376   3.946   3.733  0.1411 -0.0869  0.1690
   38MOL0     C 5168   8.305   3.842   3.649 -0.1791 -0.9380  0.5668
   38MOL0     C 5169   8.237   3.737   3.731  0.1205 -0.1574  0.3154
   38MOL0     C 5170   8.119   3.791   3.802 -1.2205 -0.6859  0.3375
   38MOL0     C 5171   8.042   3.852   3.863 -0.0009  0.1626  0.0215
   38MOL0     C 5172   8.623   4.085   3.349  0.3033  0.1580 -0.0554
   38MOL0     C 5173   8.683   4.174   3.253  0.1516  0.2646  0.0951
   38MOL0     C 5174   8.750   4.099   3.139 -1.3976  0.1487 -1.1628
   38MOL0     H 5175   8.693   4.656   2.966 -0.3686 -0.3727  1.6536
   38MOL0     H 5176   8.845   4.806   2.879 -1.0329 -0.4109  0.8494
   38MOL0     H 5177   9.026   4.905   2.815 -1.4902 -0.0378  2.6882
   38MOL0     H 5178   9.123   4.769   2.885 -0.2117 -0.0662 -0.1264
   38MOL0     H 5179   9.321   4.914   2.917 -0.4779  0.8754  0.6702
   38MOL0     H 5180   9.275   4.898   2.756 -1.9556  1.3649 -1.9109
   38MOL0     H 5181   9.152   5.122   2.739  1.1104  1.2670  0.1336
   38MOL0     H 5182   9.179   5.148   2.913 -2.6331  0.8360 -1.5221
   38MOL0     H 5183   9.416   5.149   2.886  1.2639  0.5374 -1.7906
   38MOL0     H 5184   9.402   5.129   2.718 -0.6996 -1.1555 -0.1166
   38MOL0     H 5185   9.221   5.347   2.832 -0.0659 -0.8562 -0.1217
   38MOL0     H 5186   9.332   5.349   2.694 -1.3572 -1.0307 -1.0309
   38MOL0     H 5187   9.393   5.365   2.981 -3.4985  0.5309 -0.6271
   38MOL0     H 5188   9.521   5.391   2.851  0.1387  0.2749  0.1310
   38MOL0     H 5189   9.445   5.580   2.984 -2.2355 -1.0441  1.1352
   38MOL0     H 5190   9.289   5.582   2.913  0.6859  2.3373 -2.4754
   38MOL0     H 5191   9.411   5.618   2.685  3.0894  2.8787 -2.6044
   38MOL0     H 5192   9.428   5.742   2.816  0.6844  0.6649 -1.5556
   38MOL0     H 5193   9.654   5.471   2.657  1.9003 -0.8545  1.0352
   38MOL0     H 5194  10.000   5.557   2.814 -1.1060  3.7714 -0.8321
   38MOL0     H 5195   9.979   5.593   2.641  0.2262  0.1408 -0.4497
   38MOL0     H 5196   9.884   5.325   2.754  1.0599  1.1732  2.6028
   38MOL0     H 5197   9.915   5.367   2.580 -1.0817  1.5596  0.0260
   38MOL0     H 5198  10.102   5.328   2.817  3.2638  1.1428 -0.5245
   38MOL0     H 5199  10.103   5.228   2.676  3.0866 -0.1207  0.8073
   38MOL0     H 5200  10.158   5.463   2.567 -2.9898  3.3880  3.3032
   38MOL0     H 5201  10.229   5.498   2.721  0.9145 -0.5312  1.1967
   38MOL0     H 5202  10.369   5.593   2.572  0.0823  1.8334 -3.0924
   38MOL0     H 5203  10.654   5.798   2.460 -2.5894  3.1842  4.1206
   38MOL0     H 5204  10.488   5.781   2.509 -1.5397 -1.2006 -0.2571
   38MOL0     H 5205  10.537   5.754   2.339 -0.5381 -1.1166  0.5342
   38MOL0     H 5206  10.892   5.458   2.063  0.5109  0.1807  0.0902
   38MOL0     H 5207  11.085   5.523   1.939  2.5089  2.0636  0.4733
   38MOL0     H 5208  11.436   5.521   1.841 -0.8129 -1.2940 -3.0410
   38MOL0     H 5209  11.268   5.474   1.826 -0.7582  2.0011 -1.3154
   38MOL0     H 5210  11.317   5.703   1.738  2.0902  1.2675 -0.2101
   38MOL0     H 5211  11.187   5.688   1.844  0.7028  1.9659  2.3490
   38MOL0     H 5212  11.323   5.765   2.026  0.6853 -2.5302 -0.4015
   38MOL0     H 5213  11.353   5.879   1.883  0.6175  0.8585  1.8983
   38MOL0     H 5214  11.565   5.795   1.849 -3.1916 -4.2906 -2.3118
   38MOL0     H 5215  11.545   5.681   1.990 -1.4501  0.3344  1.4249
   38MOL0     H 5216  11.513   5.971   2.053 -2.4494 -0.0783  1.8670
   38MOL0     H 5217  11.565   5.835   2.165  3.0599  0.9022  0.6849
   38MOL0     H 5218  11.743   5.894   1.941 -0.4819  0.1179 -0.1390
   38MOL0     H 5219  11.751   5.793   2.082 -1.2479 -0.5136 -1.1042
   38MOL0     H 5220  11.746   6.035   2.209  0.3620 -0.7017 -0.0704
   38MOL0     H 5221  11.742   6.106   2.050 -1.0267 -0.8681 -1.4216
   38MOL0     H 5222  11.965   6.011   1.992  1.2236 -0.6893 -0.2722
   38MOL0     H 5223  11.971   5.925   2.152 -1.9793 -0.4750  0.4068
   38MOL0     H 5224  11.324   5.473   2.279 -0.9112  2.8436  1.4462
   38MOL0     H 5225  11.118   5.456   2.426 -1.1987 -0.1902  1.1992
   38MOL0     H 5226  10.733   5.291   2.485 -0.4979  0.0860 -1.2058
   38MOL0     H 5227  10.534   5.212   2.579 -2.4911  0.6355  0.0090
   38MOL0     H 5228   9.035   4.836   3.265  0.7709 -0.6939 -1.6176
   38MOL0     H 5229   8.873   4.694   3.361 -0.8233 -1.0883 -0.1238
   38MOL0     H 5230   8.601   4.461   3.422  2.2954 -0.5055  1.1646
   38MOL0     H 5231   8.457   4.288   3.552  1.0054  0.2654  0.3525
   38MOL0     H 5232   8.509   4.122   3.713  0.2183  0.3278  0.8462
   38MOL0     H 5233   8.345   4.136   3.651  1.0591 -0.1079 -3.2563
   38MOL0     H 5234   8.313   3.986   3.813  0.3197  2.6340 -0.9624
   38MOL0     H 5235   8.460   3.899   3.785 -0.8470 -1.6638  0.4138
   38MOL0     H 5236   8.227   3.891   3.590 -1.1764 -2.3521  0.6474
   38MOL0     H 5237   8.378   3.796   3.582 -0.5753  2.6109 -2.6242
   38MOL0     H 5238   8.310   3.700   3.804  1.5522  0.9987 -0.4697
   38MOL0     H 5239   8.207   3.652   3.669  0.2508  1.4061 -2.0212
   38MOL0     H 5240   7.976   3.902   3.931 -0.1885 -0.3833  0.2519
   38MOL0     H 5241   8.639   3.979   3.332  0.8793  0.4510 -1.5071
   38MOL0     H 5242   8.678   4.083   3.058 -2.3061  1.5332 -0.6745
   38MOL0     H 5243   8.844   4.145   3.107 -1.8786  1.2704 -1.0456
   38MOL0     H 5244   8.768   4.000   3.180  0.1472  1.5963  2.0326
   39MOL0     O 5245   3.612   2.460   9.523  0.7687  0.6369  0.2147
   39MOL0     C 5246   3.660   2.439   9.636 -0.5510  0.0803 -0.9234
   39MOL0     O 5247   3.795   2.411   9.658 -0.5025 -0.2637  1.2792
   39MOL0     C 5248   3.887   2.442   9.563 -0.2133 -0.3084 -0.5761
   39MOL0     C 5249   3.980   2.346   9.538  0.5533  0.2426  0.1071
   39MOL0     C 5250   4.076   2.377   9.444 -0.3572  0.2428 -0.1030
   39MOL0     C 5251   4.093   2.510   9.386  0.5538 -0.0867 -0.4903
   39MOL0     O 5252   4.188   2.547   9.294 -0.6973 -0.5427 -0.1080
   39MOL0     C 5253   4.287   2.446   9.268 -0.0240  0.0165 -0.1733
   39MOL0     C 5254   4.393   2.506   9.177 -0.2199 -0.6775 -0.3031
   39MOL0     C 5255   4.507   2.401   9.178 -0.3437  0.3870  0.1185
   39MOL0     C 5256   4.626   2.458   9.103 -0.2920  0.5486  0.4612
   39MOL0     C 5257   4.762   2.382   9.120 -0.8493  0.8556 -0.7513
   39MOL0     C 5258   4.831   2.392   9.255  0.5381  0.9362 -0.2652
   39MOL0     C 5259   4.961   2.307   9.250 -0.7652 -0.4476 -0.4741
   39MOL0     C 5260   5.072   2.352   9.353 -0.0792 -1.1023 -0.1406
   39MOL0     N 5261   5.199   2.291   9.310 -0.6094  0.0614 -0.4564
   39MOL0     C 5262   5.224   2.155   9.311 -0.7010  0.8238 -0.6131
   39MOL0     C 5263   5.366   2.153   9.311 -0.1149 -1.0268 -0.2580
   39MOL0     C 5264   5.443   2.026   9.317  0.1937 -0.0576  0.6261
   39MOL0     C 5265   5.592   2.040   9.326 -0.3555 -0.0417 -0.0304
   39MOL0     C 5266   5.655   2.060   9.186  0.7370 -0.3310  0.3350
   39MOL0     C 5267   5.795   2.099   9.191 -0.8197  0.7051  0.5133
   39MOL0     O 5268   5.866   1.977   9.246  0.2051  0.1234 -0.9086
   39MOL0     C 5269   6.002   1.970   9.234  0.7456  0.1955  0.1400
   39MOL0     C 5270   6.087   1.900   9.325  0.4699 -0.7450 -0.4655
   39MOL0     C 5271   6.227   1.896   9.304  0.4574  0.1663 -0.2286
   39MOL0     C 5272   6.300   1.822   9.414  1.0733  0.1544  0.6795
   39MOL0     C 5273   6.286   1.942   9.184 -0.3865 -0.3358 -0.4455
   39MOL0     C 5274   6.433   1.921   9.154 -0.7276  0.4458 -0.3231
   39MOL0     O 5275   6.515   1.828   9.227 -0.4240 -1.0585  0.1681
   39MOL0     C 5276   6.642   1.781   9.182 -0.2810  0.1377 -0.6559
   39MOL0     C 5277   6.738   1.760   9.279  0.2380 -0.0024 -0.1258
   39MOL0     C 5278   6.869   1.714   9.247  0.4659 -1.2365 -0.0795
   39MOL0     C 5279   6.890   1.666   9.114 -0.7948 -0.3288 -0.5092
   39MOL0     O 5280   7.019   1.613   9.099  0.0270  0.2597 -0.5162
   39MOL0     C 5281   7.050   1.558   8.965  0.2067 -0.4671  0.0285
   39MOL0     C 5282   7.205   1.556   8.956 -0.4517 -0.4499  0.3350
   39MOL0     C 5283   7.253   1.467   9.068 -0.4849  0.3845 -0.6030
   39MOL0     C 5284   7.414   1.462   9.083  0.2232  0.0420  0.2105
   39MOL0     C 5285   7.469   1.364   9.192 -0.3397 -0.0455 -0.1090
   39MOL0     C 5286   7.453   1.209   9.147  0.1284  0.3452 -1.0638
   39MOL0     C 5287   7.505   1.114   9.248  0.0093 -0.1974  0.5827
   39MOL0     C 5288   7.481   0.968   9.225 -0.2508  0.0306  0.4219
   39MOL0    Cl 5289   7.503   0.925   9.051  0.1204  0.3175 -0.2269
   39MOL0     C 5290   6.792   1.680   9.017 -0.0167  0.9032 -0.5908
   39MOL0     C 5291   6.676   1.739   9.057  0.7122 -0.2240  0.4167
   39MOL0     O 5292   6.479   1.981   9.056 -0.2601  0.1683  0.3212
   39MOL0     C 5293   6.204   2.013   9.096  0.5470 -0.0628  0.5484
   39MOL0     C 5294   6.068   2.020   9.116 -0.2351 -0.6922  0.2027
   39MOL0     N 5295   5.416   2.279   9.297  0.0179 -1.0471 -0.1087
   39MOL0     N 5296   5.313   2.358   9.309 -0.5467 -0.2071 -0.1252
   39MOL0     C 5297   3.996   2.609   9.422  0.2094 -0.1021  0.1423
   39MOL0     C 5298   3.900   2.574   9.513  0.3287 -0.4794 -0.4673
   39MOL0     C 5299   3.572   2.448   9.763 -0.1873 -0.5533  1.2523
   39MOL0     C 5300   3.435   2.428   9.753 -0.2290  0.2981  0.2435
   39MOL0     C 5301   3.351   2.426   9.862 -0.1755  0.2474 -0.4356
   39MOL0     C 5302   3.391   2.438   9.995 -0.4589  0.0526  0.6209
   39MOL0     O 5303   3.318   2.440  10.112  0.3794 -0.8785  0.4043
   39MOL0     C 5304   3.174   2.415  10.105 -0.0554  0.3005  0.8484
   39MOL0     C 5305   3.116   2.447  10.238 -0.3553 -0.1208  0.8813
   39MOL0     C 5306   2.971   2.424  10.241  0.0819 -0.1810  0.5686
   39MOL0     C 5307   2.926   2.463  10.377  0.4978  0.1510  0.4051
   39MOL0     C 5308   2.794   2.420  10.394  0.2143  0.2272 -0.9279
   39MOL0     C 5309   2.683   2.398  10.443  0.4221  0.1585 -0.2846
   39MOL0     C 5310   3.533   2.456  10.004 -0.6658  0.1506 -0.1382
   39MOL0     C 5311   3.626   2.454   9.896 -0.0426 -0.2872  0.8497
   39MOL0     C 5312   3.766   2.500   9.926  0.4107 -0.6088 -0.0572
   39MOL0     H 5313   3.981   2.254   9.596  0.3907 -1.7589 -2.8631
   39MOL0     H 5314   4.143   2.297   9.415  0.7302  0.7940  0.8377
   39MOL0     H 5315   4.235   2.364   9.217 -1.4344 -0.6451  2.1705
   39MOL0     H 5316   4.339   2.410   9.358 -0.6575  0.1091  0.2376
   39MOL0     H 5317   4.354   2.519   9.075  1.7169 -1.2787 -1.1508
   39MOL0     H 5318   4.416   2.597   9.235 -0.5521 -1.7823  1.6547
   39MOL0     H 5319   4.538   2.373   9.279  0.7782 -0.6155 -0.4772
   39MOL0     H 5320   4.470   2.314   9.123 -1.5196  0.6441  0.4569
   39MOL0     H 5321   4.600   2.470   8.997 -0.6600 -0.1983  0.4564
   39MOL0     H 5322   4.646   2.562   9.128  1.2348  0.7146 -1.3006
   39MOL0     H 5323   4.826   2.413   9.036  1.1541 -0.5261  0.1669
   39MOL0     H 5324   4.746   2.281   9.080  1.5896 -0.4001  1.1534
   39MOL0     H 5325   4.850   2.498   9.273  4.1425  0.5975 -1.4416
   39MOL0     H 5326   4.761   2.347   9.327  1.4656  0.5146  0.3891
   39MOL0     H 5327   4.999   2.321   9.148 -5.0091  0.0211 -2.1605
   39MOL0     H 5328   4.931   2.204   9.274 -2.1448  0.0359 -0.0744
   39MOL0     H 5329   5.081   2.461   9.364 -1.4832 -0.7993 -1.5887
   39MOL0     H 5330   5.049   2.328   9.457  2.4247  0.9191  1.0095
   39MOL0     H 5331   5.159   2.070   9.298  0.6253 -0.4768  0.8544
   39MOL0     H 5332   5.414   1.960   9.235 -1.7106 -0.6732  1.7185
   39MOL0     H 5333   5.414   1.966   9.405  0.7949  0.4708  1.1945
   39MOL0     H 5334   5.611   2.127   9.391 -2.1749  2.3507 -2.5115
   39MOL0     H 5335   5.631   1.946   9.366  0.7510  0.5814  0.4359
   39MOL0     H 5336   5.643   1.969   9.127  0.1236 -1.1335  1.6626
   39MOL0     H 5337   5.594   2.140   9.141  0.5712 -0.9844 -0.6387
   39MOL0     H 5338   5.818   2.117   9.086  0.5725 -0.7331  0.5456
   39MOL0     H 5339   5.808   2.187   9.255 -3.9772  2.9795 -1.6461
   39MOL0     H 5340   6.032   1.844   9.401  0.4941  1.0835  0.9509
   39MOL0     H 5341   6.287   1.713   9.407  1.2727  0.1799 -0.2929
   39MOL0     H 5342   6.241   1.855   9.499 -1.8234 -1.7012 -0.4272
   39MOL0     H 5343   6.406   1.842   9.430  0.7160  1.7792  1.1497
   39MOL0     H 5344   6.716   1.791   9.381  0.8473 -2.6602  0.8861
   39MOL0     H 5345   6.940   1.706   9.329 -0.8571  0.5518  1.3328
   39MOL0     H 5346   7.027   1.451   8.971 -0.1517 -0.4260 -0.5737
   39MOL0     H 5347   7.006   1.600   8.875  1.6807 -1.8470 -1.3976
   39MOL0     H 5348   7.235   1.521   8.857 -0.3325 -1.5957  0.7606
   39MOL0     H 5349   7.234   1.661   8.970 -1.5261 -0.0312 -0.5090
   39MOL0     H 5350   7.216   1.366   9.051  0.4268  0.1862 -1.5115
   39MOL0     H 5351   7.214   1.501   9.164  0.7118  2.4648 -0.8022
   39MOL0     H 5352   7.446   1.565   9.104 -0.3969  0.7216 -1.8908
   39MOL0     H 5353   7.459   1.447   8.984  0.3566 -0.3000  0.3219
   39MOL0     H 5354   7.577   1.376   9.203  0.2981 -3.8959 -0.5602
   39MOL0     H 5355   7.420   1.376   9.289 -1.4038 -2.8267 -0.2044
   39MOL0     H 5356   7.506   1.210   9.052 -3.5848  0.5816 -3.3462
   39MOL0     H 5357   7.348   1.196   9.121 -0.0328 -0.9116  0.1065
   39MOL0     H 5358   7.481   1.137   9.353  1.2013  3.0497  0.2684
   39MOL0     H 5359   7.612   1.128   9.236 -0.2643  1.8134  0.1875
   39MOL0     H 5360   7.383   0.937   9.265  0.0275  0.3973  1.4056
   39MOL0     H 5361   7.555   0.918   9.288  0.5881 -0.9810 -1.3028
   39MOL0     H 5362   6.804   1.655   8.912  0.1069  3.6303 -1.2896
   39MOL0     H 5363   6.602   1.731   8.977  0.9711 -5.1590  0.3684
   39MOL0     H 5364   6.228   2.042   8.994 -2.8427 -0.1929 -0.4141
   39MOL0     H 5365   6.021   2.073   9.034  1.8505  1.2367  0.1634
   39MOL0     H 5366   3.992   2.707   9.374 -0.9310 -1.7042 -3.3349
   39MOL0     H 5367   3.839   2.658   9.544  1.3100 -0.2977  1.0948
   39MOL0     H 5368   3.386   2.416   9.657 -2.0037 -0.1755  1.1708
   39MOL0     H 5369   3.247   2.406   9.843  1.0036 -6.1744 -2.6006
   39MOL0     H 5370   3.125   2.479  10.031 -1.0888 -0.1736  1.0881
   39MOL0     H 5371   3.149   2.312  10.075  1.5334  0.3272 -0.7052
   39MOL0     H 5372   3.131   2.555  10.243 -1.8986  0.2069 -0.5735
   39MOL0     H 5373   3.158   2.394  10.324 -2.0027 -0.6549  1.3945
   39MOL0     H 5374   2.928   2.503  10.179  1.6199 -0.3021 -0.7196
   39MOL0     H 5375   2.932   2.324  10.223 -0.3547 -0.0397  0.7186
   39MOL0     H 5376   2.912   2.571  10.388 -1.1220  0.2417 -1.8106
   39MOL0     H 5377   2.988   2.428  10.460  2.4333  4.2181  0.9478
   39MOL0     H 5378   2.581   2.375  10.463  1.0352 -0.3769  2.7129
   39MOL0     H 5379   3.568   2.467  10.106  0.5754 -0.4144 -0.4837
   39MOL0     H 5380   3.831   2.412   9.918 -2.5735 -2.9566 -0.4623
   39MOL0     H 5381   3.792   2.583   9.860  0.2604 -1.6977 -1.5411
   39MOL0     H 5382   3.784   2.536  10.027  0.3525 -0.6023 -0.0490
   40MOL0     O 5383   0.349   2.924   5.898 -0.1086 -0.4287 -0.1321
   40MOL0     C 5384   0.250   2.948   5.964 -0.5227 -0.3411  0.1060
   40MOL0     O 5385   0.254   2.971   6.095 -0.5582 -0.0469  0.1131
   40MOL0     C 5386   0.378   3.002   6.150  0.2506 -0.1650 -0.1769
   40MOL0     C 5387   0.469   3.096   6.089  0.6805 -0.2702 -0.0362
   40MOL0     C 5388   0.589   3.131   6.147 -0.3368  0.0348  0.3996
   40MOL0     C 5389   0.631   3.060   6.264 -0.2485  0.4927 -0.4701
   40MOL0     O 5390   0.762   3.084   6.300  0.0926  0.3643 -0.3782
   40MOL0     C 5391   0.798   3.017   6.419 -0.6540 -0.2978 -0.2528
   40MOL0     C 5392   0.955   3.012   6.423  1.2704  0.1773 -0.8523
   40MOL0     C 5393   1.016   2.930   6.537 -0.0018 -0.0680  0.2835
   40MOL0     C 5394   1.170   2.904   6.503 -0.1896 -1.0103  0.8146
   40MOL0     C 5395   1.262   3.036   6.499  0.0260  0.2350 -0.1149
   40MOL0     C 5396   1.321   3.050   6.641 -0.3662  1.1856 -0.9196
   40MOL0     C 5397   1.395   3.186   6.660 -0.1271  0.9039 -0.3869
   40MOL0     C 5398   1.502   3.205   6.539  0.1895  0.4417  0.1436
   40MOL0     N 5399   1.616   3.118   6.571  0.7716  0.3436  0.3235
   40MOL0     C 5400   1.704   3.115   6.678  0.3082  0.0632  0.4014
   40MOL0     C 5401   1.790   3.026   6.646  0.8495 -0.1740  0.1748
   40MOL0     C 5402   1.894   2.970   6.742  0.3202  0.2217  0.0805
   40MOL0     C 5403   2.030   2.999   6.687 -0.0725 -0.6482  0.0131
   40MOL0     C 5404   2.151   2.975   6.787  0.2799  0.5079  0.7034
   40MOL0     C 5405   2.274   2.951   6.701 -0.1190  0.8931 -0.6664
   40MOL0     O 5406   2.273   2.818   6.649 -0.0729  0.1391  0.0078
   40MOL0     C 5407   2.379   2.772   6.576  0.1726 -0.0668  0.1465
   40MOL0     C 5408   2.502   2.837   6.576  0.5281 -0.4273  0.3819
   40MOL0     C 5409   2.611   2.784   6.508 -0.1928 -0.3679  0.9310
   40MOL0     C 5410   2.742   2.858   6.520  0.1871  0.3781 -0.3091
   40MOL0     C 5411   2.601   2.654   6.450 -0.0648  0.3484  0.7514
   40MOL0     C 5412   2.713   2.585   6.382 -0.4955  0.6550 -0.4021
   40MOL0     O 5413   2.835   2.638   6.384  0.1342  0.1496  0.2231
   40MOL0     C 5414   2.943   2.567   6.344 -0.5946  1.0586  0.6344
   40MOL0     C 5415   2.978   2.427   6.364 -0.0485 -0.0023 -1.4531
   40MOL0     C 5416   3.097   2.372   6.317 -0.2183  0.2579  0.1094
   40MOL0     C 5417   3.190   2.441   6.252  0.0919 -0.0241 -0.1604
   40MOL0     O 5418   3.311   2.381   6.214  0.0976  0.1508  0.2555
   40MOL0     C 5419   3.361   2.442   6.096  0.1279 -1.2133  0.1482
   40MOL0     C 5420   3.456   2.349   6.032 -0.0536  0.4740  0.9009
   40MOL0     C 5421   3.598   2.354   6.084  0.4073  0.4211 -0.0066
   40MOL0     C 5422   3.698   2.287   5.984 -0.0096 -0.2087 -0.7303
   40MOL0     C 5423   3.832   2.253   6.044  0.2036  0.1213 -0.3717
   40MOL0     C 5424   3.934   2.203   5.938 -0.6958 -0.5636 -0.2239
   40MOL0     C 5425   3.922   2.047   5.901  0.2026  0.3882 -0.3790
   40MOL0     C 5426   3.946   2.025   5.763 -0.9021 -0.6918  0.4224
   40MOL0    Cl 5427   3.793   2.069   5.669 -0.6790  0.1111 -0.1454
   40MOL0     C 5428   3.163   2.580   6.240 -0.6095 -0.4825 -0.0618
   40MOL0     C 5429   3.045   2.638   6.278 -0.1168  0.4042 -1.1873
   40MOL0     O 5430   2.689   2.481   6.321 -0.0984 -0.1044  0.7462
   40MOL0     C 5431   2.474   2.594   6.451  0.4576 -0.4235  0.4718
   40MOL0     C 5432   2.363   2.647   6.516  0.9618  0.8772 -0.1044
   40MOL0     N 5433   1.777   2.985   6.521 -0.1445 -0.4350  0.4936
   40MOL0     N 5434   1.668   3.038   6.471  0.8395 -0.0428 -0.3618
   40MOL0     C 5435   0.542   2.966   6.326  0.7771  0.2128 -0.1016
   40MOL0     C 5436   0.412   2.942   6.274  0.4969 -0.3577  0.6022
   40MOL0     C 5437   0.125   2.927   5.895  0.3515 -0.8968  0.1812
   40MOL0     C 5438   0.013   2.920   5.972 -0.6037  0.8024  0.1005
   40MOL0     C 5439  -0.105   2.862   5.929 -0.0612  0.0127  0.0702
   40MOL0     C 5440  -0.132   2.853   5.793 -0.7748 -0.5136 -0.5617
   40MOL0     O 5441  -0.239   2.808   5.728 -0.2857 -0.3317 -0.1141
   40MOL0     C 5442  -0.365   2.819   5.788  0.1608  0.4368  0.0230
   40MOL0     C 5443  -0.467   2.894   5.692 -0.8998 -0.6167  0.3798
   40MOL0     C 5444  -0.416   3.030   5.657  0.3028 -0.0176 -0.0405
   40MOL0     C 5445  -0.509   3.109   5.568  0.1639 -0.5075  0.1962
   40MOL0     C 5446  -0.649   3.113   5.614  1.0838 -0.3413  0.3042
   40MOL0     C 5447  -0.763   3.118   5.658 -0.0277  0.2778 -0.4524
   40MOL0     C 5448  -0.023   2.888   5.709 -0.0547  0.8952 -0.8358
   40MOL0     C 5449   0.110   2.919   5.755  0.2213 -0.1158  1.0361
   40MOL0     C 5450   0.209   2.941   5.642  0.5958  0.0619  0.1704
   40MOL0     H 5451   0.439   3.139   5.994 -0.0084 -0.1544  0.2293
   40MOL0     H 5452   0.658   3.202   6.103  3.5595 -0.8782  4.3215
   40MOL0     H 5453   0.775   2.910   6.425  1.9179 -0.8177  2.2059
   40MOL0     H 5454   0.759   3.076   6.503 -0.9773  1.1346 -1.3709
   40MOL0     H 5455   0.993   2.977   6.326 -0.8595 -1.8225 -1.0599
   40MOL0     H 5456   0.982   3.114   6.451  1.4587  0.0007 -0.3830
   40MOL0     H 5457   1.017   2.987   6.631  2.4768 -2.2101  1.6710
   40MOL0     H 5458   0.967   2.833   6.546  0.3097 -0.3037 -0.5180
   40MOL0     H 5459   1.208   2.843   6.586 -3.4159  0.9854  4.1021
   40MOL0     H 5460   1.185   2.844   6.413  2.1004  2.2263 -1.1636
   40MOL0     H 5461   1.208   3.126   6.469 -2.0298 -1.2747 -1.2008
   40MOL0     H 5462   1.337   3.007   6.424 -1.6658 -2.6930 -0.8587
   40MOL0     H 5463   1.240   3.040   6.715  2.1347 -3.0208  1.7166
   40MOL0     H 5464   1.370   2.958   6.676 -2.1400  0.3966 -0.3377
   40MOL0     H 5465   1.439   3.188   6.760 -2.1252 -2.6970  0.7478
   40MOL0     H 5466   1.325   3.270   6.660 -0.0759  0.9770  1.6167
   40MOL0     H 5467   1.459   3.184   6.441 -2.3258 -0.6602  1.3964
   40MOL0     H 5468   1.533   3.310   6.527 -1.6922  1.0958  0.7014
   40MOL0     H 5469   1.703   3.178   6.767  2.9457  1.0565 -0.1634
   40MOL0     H 5470   1.878   2.862   6.735 -2.5024 -0.0331  5.3981
   40MOL0     H 5471   1.871   3.000   6.844 -0.0781 -0.7858  0.2913
   40MOL0     H 5472   2.045   2.936   6.599 -0.8756  0.9015 -1.2850
   40MOL0     H 5473   2.031   3.103   6.652 -1.9792 -1.0938 -1.4869
   40MOL0     H 5474   2.160   3.064   6.851 -0.8321  1.5302 -0.4972
   40MOL0     H 5475   2.135   2.887   6.849  0.6045 -2.8570 -3.5148
   40MOL0     H 5476   2.267   3.013   6.611 -1.1689  3.1925  0.8806
   40MOL0     H 5477   2.360   2.979   6.763 -1.8015  1.9434  1.3431
   40MOL0     H 5478   2.512   2.928   6.633  1.0115 -0.2244 -0.0154
   40MOL0     H 5479   2.792   2.863   6.423 -1.6513  0.0923 -1.3239
   40MOL0     H 5480   2.804   2.809   6.595 -1.1114  2.5085  2.3176
   40MOL0     H 5481   2.726   2.960   6.554  1.3624  0.1909  0.8553
   40MOL0     H 5482   2.906   2.364   6.416  0.6283  1.0085  0.8378
   40MOL0     H 5483   3.106   2.265   6.332 -4.8800 -0.4530 -0.7165
   40MOL0     H 5484   3.275   2.463   6.032  0.2874  3.7860  1.1975
   40MOL0     H 5485   3.410   2.538   6.114  0.6282 -0.8998 -2.4858
   40MOL0     H 5486   3.405   2.253   6.025 -0.9572  1.0519 -1.6972
   40MOL0     H 5487   3.460   2.375   5.926  1.8687 -1.7558  0.3466
   40MOL0     H 5488   3.596   2.301   6.180  0.3900 -0.7128 -0.6150
   40MOL0     H 5489   3.628   2.454   6.115  0.0357  0.2720  0.8881
   40MOL0     H 5490   3.725   2.369   5.917 -2.3706 -0.8068 -2.5440
   40MOL0     H 5491   3.655   2.199   5.935  1.5194 -2.9360  2.4329
   40MOL0     H 5492   3.864   2.349   6.086 -0.7551  0.0681  0.5160
   40MOL0     H 5493   3.809   2.182   6.125 -4.6599  1.8017  0.0560
   40MOL0     H 5494   4.036   2.215   5.978 -0.2861  0.2467 -1.4733
   40MOL0     H 5495   3.926   2.268   5.851  1.0630 -1.9023 -1.4632
   40MOL0     H 5496   3.821   2.011   5.925  1.3842 -2.8025  0.2180
   40MOL0     H 5497   3.994   1.994   5.964  2.7831  2.4253 -1.4023
   40MOL0     H 5498   3.994   1.929   5.744  0.9255  0.0382  1.1343
   40MOL0     H 5499   4.032   2.090   5.743 -1.2426 -0.6074 -0.8830
   40MOL0     H 5500   3.228   2.656   6.197  0.0453 -1.2688 -0.4997
   40MOL0     H 5501   3.039   2.745   6.260 -1.1177  0.2245 -2.0916
   40MOL0     H 5502   2.460   2.499   6.401 -0.3608 -2.0483  3.5312
   40MOL0     H 5503   2.274   2.585   6.518  1.3847  0.2249 -0.9511
   40MOL0     H 5504   0.574   2.914   6.416  1.9880  2.1811  0.6843
   40MOL0     H 5505   0.339   2.886   6.331 -0.0706 -1.0032 -0.7125
   40MOL0     H 5506   0.030   2.950   6.075 -1.9839  2.5219 -0.1249
   40MOL0     H 5507  -0.180   2.837   6.004 -2.5289  0.2932 -2.1474
   40MOL0     H 5508  -0.402   2.724   5.827  0.5159  0.0507 -0.5680
   40MOL0     H 5509  -0.367   2.877   5.881  1.4072  0.8833 -0.2208
   40MOL0     H 5510  -0.565   2.904   5.738 -0.2455 -0.7420  1.8637
   40MOL0     H 5511  -0.474   2.836   5.599 -0.2147 -1.2736  0.7215
   40MOL0     H 5512  -0.396   3.085   5.750  0.9563  3.0030 -1.8507
   40MOL0     H 5513  -0.319   3.028   5.606  0.5807 -0.0250  0.4773
   40MOL0     H 5514  -0.525   3.055   5.474 -0.6038 -0.4877  0.3068
   40MOL0     H 5515  -0.465   3.209   5.562  0.7022 -0.6588  1.4118
   40MOL0     H 5516  -0.864   3.122   5.694  0.7388 -0.4402  1.9746
   40MOL0     H 5517  -0.049   2.871   5.605 -1.6977  0.1001 -0.3280
   40MOL0     H 5518   0.293   2.872   5.645 -0.3082 -1.5629 -4.0404
   40MOL0     H 5519   0.158   2.934   5.545 -0.8329 -1.4095  0.9908
   40MOL0     H 5520   0.251   3.041   5.659  0.7460  0.0678 -0.2261
   41MOL0     O 5521   7.148   5.231   1.173  0.5435  0.8740  0.2340
   41MOL0     C 5522   7.088   5.325   1.131 -0.0008  0.1650  0.0042
   41MOL0     O 5523   7.131   5.450   1.140  0.8193  0.1587 -0.4652
   41MOL0     C 5524   7.256   5.473   1.190 -0.5730 -0.7747  0.5568
   41MOL0     C 5525   7.273   5.503   1.322  1.0328 -0.3832 -0.7277
   41MOL0     C 5526   7.390   5.559   1.370  0.5595  0.3340  0.0958
   41MOL0     C 5527   7.502   5.569   1.284 -0.4864  0.2889 -0.6961
   41MOL0     O 5528   7.612   5.577   1.367  0.0243 -0.1281  0.9762
   41MOL0     C 5529   7.707   5.476   1.328  0.2365 -0.2589  0.0376
   41MOL0     C 5530   7.833   5.512   1.405  0.2976 -0.1426 -0.4873
   41MOL0     C 5531   7.933   5.399   1.425 -0.0848 -0.8288 -0.5355
   41MOL0     C 5532   8.068   5.429   1.496 -0.1027  0.0649 -0.2751
   41MOL0     C 5533   8.178   5.488   1.411 -0.2218 -0.5096 -0.6397
   41MOL0     C 5534   8.317   5.474   1.478 -0.0647 -0.0228  0.0418
   41MOL0     C 5535   8.422   5.562   1.418  0.0375 -0.0487 -0.1384
   41MOL0     C 5536   8.566   5.508   1.413 -0.1287  0.5321 -0.2367
   41MOL0     N 5537   8.659   5.621   1.413  0.2066 -0.1828 -0.0015
   41MOL0     C 5538   8.728   5.669   1.525  0.1949 -0.9160  0.9264
   41MOL0     C 5539   8.791   5.776   1.473 -0.3532 -0.3232  0.3575
   41MOL0     C 5540   8.884   5.851   1.560 -0.3993 -0.3791  1.1144
   41MOL0     C 5541   9.016   5.867   1.502  0.1948 -0.3626  0.1407
   41MOL0     C 5542   9.120   5.929   1.600 -0.4410 -0.1845  0.1025
   41MOL0     C 5543   9.083   6.063   1.663 -0.3354 -0.0706  0.5724
   41MOL0     O 5544   9.179   6.088   1.762 -0.3053  0.1863 -0.1495
   41MOL0     C 5545   9.296   6.148   1.729 -0.2793  0.6454 -0.2044
   41MOL0     C 5546   9.378   6.188   1.833  0.3172  0.6919 -0.8227
   41MOL0     C 5547   9.496   6.260   1.812 -0.0313  0.6391 -0.1583
   41MOL0     C 5548   9.561   6.296   1.939 -0.0300  0.7467 -0.3839
   41MOL0     C 5549   9.550   6.288   1.683  0.1667  0.1869  0.2957
   41MOL0     C 5550   9.687   6.361   1.653  0.3295 -0.3319  0.9100
   41MOL0     O 5551   9.745   6.409   1.767 -0.0817 -0.5423  0.0557
   41MOL0     C 5552   9.858   6.486   1.768 -0.6803 -0.4505 -0.2875
   41MOL0     C 5553   9.927   6.551   1.664  0.6624 -0.0442 -0.8976
   41MOL0     C 5554  10.047   6.622   1.683 -0.1691 -0.7031  0.1602
   41MOL0     C 5555  10.098   6.644   1.812  0.9674  0.0593  0.2909
   41MOL0     O 5556  10.208   6.712   1.848  0.1045 -0.4088 -0.3239
   41MOL0     C 5557  10.276   6.780   1.741  0.2715 -0.1066  0.2026
   41MOL0     C 5558  10.357   6.895   1.811  0.7285  0.2099 -0.3792
   41MOL0     C 5559  10.492   6.914   1.729 -0.7446 -0.4104 -0.4133
   41MOL0     C 5560  10.589   7.016   1.800  1.1851 -0.3836  0.1075
   41MOL0     C 5561  10.721   7.017   1.732  0.3697 -0.3758 -0.2553
   41MOL0     C 5562  10.715   7.084   1.595 -0.6225  1.0077 -0.5858
   41MOL0     C 5563  10.845   7.150   1.552  0.4999 -0.4425  0.5472
   41MOL0     C 5564  10.972   7.055   1.532 -0.9965  0.5465  0.4360
   41MOL0    Cl 5565  10.924   6.960   1.386 -0.5285 -0.3641  0.1756
   41MOL0     C 5566  10.027   6.591   1.925 -0.2582  0.2110 -0.5198
   41MOL0     C 5567   9.918   6.510   1.902  0.1092  0.0086  1.0861
   41MOL0     O 5568   9.728   6.369   1.541  0.0194  0.1180  0.2464
   41MOL0     C 5569   9.468   6.238   1.578 -0.3669 -1.6495  0.7064
   41MOL0     C 5570   9.344   6.173   1.599 -1.0629 -0.0496 -0.3028
   41MOL0     N 5571   8.757   5.807   1.343  0.1165  0.4728  0.7229
   41MOL0     N 5572   8.675   5.706   1.311  0.0408 -0.0299  0.4222
   41MOL0     C 5573   7.492   5.528   1.154  0.0141 -0.3072 -0.0587
   41MOL0     C 5574   7.368   5.492   1.106  0.0384 -0.9237  0.2148
   41MOL0     C 5575   6.961   5.319   1.059 -0.4970 -0.6966  0.7458
   41MOL0     C 5576   6.966   5.303   0.917 -0.1971  0.6877 -0.2962
   41MOL0     C 5577   6.855   5.308   0.840  0.1701  0.6391 -0.3487
   41MOL0     C 5578   6.734   5.324   0.900  0.6877 -0.2558  0.0335
   41MOL0     O 5579   6.628   5.318   0.812  0.4852 -0.3735 -0.1688
   41MOL0     C 5580   6.509   5.380   0.847  0.0060  0.0960  0.7526
   41MOL0     C 5581   6.432   5.433   0.722 -0.0812 -0.0141  0.1666
   41MOL0     C 5582   6.377   5.316   0.645 -0.3286  0.4629 -0.2052
   41MOL0     C 5583   6.263   5.234   0.723  1.2381  0.4356 -1.0437
   41MOL0     C 5584   6.146   5.328   0.745 -0.9204 -0.0953 -0.3121
   41MOL0     C 5585   6.064   5.421   0.757 -0.1797  0.1432  0.4407
   41MOL0     C 5586   6.726   5.335   1.038  0.5356 -0.3114 -0.3448
   41MOL0     C 5587   6.838   5.341   1.118  0.2175 -0.7342  0.4009
   41MOL0     C 5588   6.826   5.356   1.276  0.6111 -0.6150  0.2016
   41MOL0     H 5589   7.179   5.508   1.375  1.2934  2.5689 -0.3990
   41MOL0     H 5590   7.406   5.591   1.473 -1.8380  3.2425 -0.3026
   41MOL0     H 5591   7.736   5.490   1.223 -0.3063  0.2255 -0.0511
   41MOL0     H 5592   7.670   5.376   1.352  1.1785 -0.0137  2.8772
   41MOL0     H 5593   7.886   5.589   1.346 -1.2628  0.4795 -1.1294
   41MOL0     H 5594   7.800   5.549   1.502 -0.4740 -2.3196  0.1319
   41MOL0     H 5595   7.893   5.331   1.501 -1.7491  0.8200  0.1393
   41MOL0     H 5596   7.954   5.343   1.334 -2.0252 -0.9777 -0.9224
   41MOL0     H 5597   8.051   5.499   1.578 -1.0925  0.0537 -0.4516
   41MOL0     H 5598   8.115   5.335   1.527 -2.5888 -1.4854 -0.8846
   41MOL0     H 5599   8.151   5.593   1.400  0.8239 -0.2249 -0.6137
   41MOL0     H 5600   8.195   5.440   1.314  1.7384 -1.1775 -0.0238
   41MOL0     H 5601   8.309   5.488   1.586  0.0285 -1.2042  0.2194
   41MOL0     H 5602   8.348   5.369   1.466 -3.1298 -0.9632 -0.6403
   41MOL0     H 5603   8.416   5.655   1.476 -3.6366 -0.4775  0.3765
   41MOL0     H 5604   8.383   5.598   1.322 -0.0439  1.7251  0.5131
   41MOL0     H 5605   8.587   5.457   1.508 -1.2680 -0.4316 -0.4792
   41MOL0     H 5606   8.583   5.456   1.319 -1.4996  0.8809 -0.7009
   41MOL0     H 5607   8.730   5.642   1.630 -1.9068  0.1143  1.2709
   41MOL0     H 5608   8.897   5.793   1.652  2.0956 -1.2356  0.3000
   41MOL0     H 5609   8.844   5.951   1.576  3.3942  1.9958 -2.3467
   41MOL0     H 5610   9.061   5.779   1.455  4.6053  2.2977 -1.2337
   41MOL0     H 5611   9.004   5.930   1.413  1.5854  0.5866  0.5952
   41MOL0     H 5612   9.130   5.852   1.678  0.3655 -1.9415 -1.6456
   41MOL0     H 5613   9.222   5.927   1.560 -0.1482 -2.3320  0.8025
   41MOL0     H 5614   9.086   6.147   1.593  1.0102 -1.5351 -1.2409
   41MOL0     H 5615   8.987   6.045   1.711 -1.5114 -1.3100 -2.0439
   41MOL0     H 5616   9.344   6.160   1.933  0.4358 -0.0201 -0.9795
   41MOL0     H 5617   9.551   6.405   1.943 -1.6535  0.7045 -2.2145
   41MOL0     H 5618   9.665   6.261   1.949 -0.3941 -0.4821 -0.8011
   41MOL0     H 5619   9.508   6.258   2.027  0.5009 -0.4451 -0.5592
   41MOL0     H 5620   9.878   6.552   1.568 -1.4317  2.3350  0.0964
   41MOL0     H 5621  10.079   6.676   1.594 -0.7982  0.3578  0.5547
   41MOL0     H 5622  10.343   6.706   1.696 -0.8492  0.1672 -2.0897
   41MOL0     H 5623  10.216   6.819   1.658  0.5126 -2.5929 -1.2413
   41MOL0     H 5624  10.306   6.992   1.818  0.1130 -0.1170 -0.2390
   41MOL0     H 5625  10.366   6.869   1.917  0.2327  2.5785  0.3048
   41MOL0     H 5626  10.477   6.952   1.628  2.6993  0.1675 -0.8480
   41MOL0     H 5627  10.546   6.824   1.698  0.5810  0.7742 -1.6766
   41MOL0     H 5628  10.601   6.985   1.904  0.5921 -0.0389  0.2842
   41MOL0     H 5629  10.540   7.114   1.807 -0.4132 -1.2281  1.4410
   41MOL0     H 5630  10.786   7.058   1.809 -1.2898 -0.3615  1.2125
   41MOL0     H 5631  10.754   6.914   1.714  1.6475 -0.3487  1.6566
   41MOL0     H 5632  10.650   7.173   1.595 -0.9701  0.7725  0.5806
   41MOL0     H 5633  10.683   7.002   1.530  2.5110 -3.1541  2.6421
   41MOL0     H 5634  10.871   7.230   1.622 -4.2094  1.2618  0.7192
   41MOL0     H 5635  10.813   7.199   1.460  0.2002  0.4898  1.1315
   41MOL0     H 5636  11.005   6.988   1.612  5.0796 -1.6894 -3.3341
   41MOL0     H 5637  11.058   7.115   1.503 -1.7456 -0.2278 -4.0422
   41MOL0     H 5638  10.064   6.615   2.024 -3.7000  3.3189  0.1867
   41MOL0     H 5639   9.863   6.477   1.990 -0.3794  3.7213  2.3474
   41MOL0     H 5640   9.490   6.251   1.473  1.5981 -0.8531  1.1702
   41MOL0     H 5641   9.282   6.133   1.520 -1.9774 -0.6073  0.6573
   41MOL0     H 5642   7.580   5.522   1.092  0.5508  0.7043  0.5835
   41MOL0     H 5643   7.342   5.466   1.003 -0.9433  1.9778 -0.3570
   41MOL0     H 5644   7.058   5.262   0.877 -0.6186 -0.2128 -0.3716
   41MOL0     H 5645   6.854   5.292   0.733  1.2383  3.9971 -0.9742
   41MOL0     H 5646   6.444   5.311   0.901 -2.0746  1.8278  0.6089
   41MOL0     H 5647   6.517   5.468   0.912 -2.8763 -1.3748  3.3768
   41MOL0     H 5648   6.496   5.497   0.661 -0.3429  0.6762  0.6018
   41MOL0     H 5649   6.349   5.498   0.752 -1.7320 -1.3456 -1.3214
   41MOL0     H 5650   6.334   5.354   0.552  1.0452 -0.4273 -1.2444
   41MOL0     H 5651   6.458   5.255   0.605 -0.0252  1.4861 -1.2093
   41MOL0     H 5652   6.293   5.198   0.822  4.0603 -1.9592 -2.5850
   41MOL0     H 5653   6.224   5.157   0.655 -1.7517  0.8816  0.0211
   41MOL0     H 5654   6.004   5.506   0.781  1.0887  1.6163 -1.3677
   41MOL0     H 5655   6.625   5.341   1.076  0.7685  1.8641  0.0513
   41MOL0     H 5656   6.719   5.370   1.296  0.1262 -0.2722 -2.2690
   41MOL0     H 5657   6.869   5.268   1.324  2.9728 -0.1191 -0.8681
   41MOL0     H 5658   6.882   5.441   1.316  2.0144 -2.0464  1.4035
   42MOL0     O 5659   5.350   5.529   6.664 -0.1809 -0.2963  0.0429
   42MOL0     C 5660   5.318   5.426   6.602 -0.6624 -0.1929 -0.4701
   42MOL0     O 5661   5.408   5.339   6.541 -0.6285 -0.9981 -0.1111
   42MOL0     C 5662   5.533   5.337   6.597 -0.1567  0.3367  0.1162
   42MOL0     C 5663   5.557   5.296   6.721 -0.4055  0.5030 -0.0234
   42MOL0     C 5664   5.689   5.277   6.765 -0.3696 -0.1027  0.3286
   42MOL0     C 5665   5.794   5.327   6.685  0.5090 -0.9727  0.4635
   42MOL0     O 5666   5.924   5.307   6.724  0.2488  0.7082  0.3652
   42MOL0     C 5667   6.022   5.406   6.678 -0.9036 -0.6406 -0.0988
   42MOL0     C 5668   6.138   5.408   6.782  0.0657  0.6564  0.4312
   42MOL0     C 5669   6.263   5.455   6.716  0.4689 -0.0271  0.7113
   42MOL0     C 5670   6.369   5.510   6.816  0.4957 -0.2410  0.6305
   42MOL0     C 5671   6.509   5.504   6.772 -0.6249 -0.2347  0.6718
   42MOL0     C 5672   6.599   5.589   6.867  0.2255 -0.7120 -1.0427
   42MOL0     C 5673   6.745   5.574   6.848 -0.1596 -1.1056 -0.4442
   42MOL0     C 5674   6.827   5.650   6.953  0.3034  0.4475  0.1945
   42MOL0     N 5675   6.971   5.633   6.923 -0.1702 -0.2101  0.7191
   42MOL0     C 5676   7.054   5.718   6.853 -0.3449  0.1289 -0.0507
   42MOL0     C 5677   7.183   5.680   6.885 -0.3340 -0.3896  0.2684
   42MOL0     C 5678   7.304   5.750   6.831 -0.1564 -0.1073  0.2133
   42MOL0     C 5679   7.387   5.833   6.932 -0.6282 -0.3157  0.1629
   42MOL0     C 5680   7.522   5.894   6.885  1.4438  0.6556 -0.0773
   42MOL0     C 5681   7.615   5.781   6.841 -0.2922 -0.5009 -0.2577
   42MOL0     O 5682   7.725   5.843   6.776  0.8626 -0.4265 -0.0232
   42MOL0     C 5683   7.833   5.767   6.776  0.2053  0.8219 -0.1359
   42MOL0     C 5684   7.942   5.843   6.741 -0.5861 -0.8500  0.9252
   42MOL0     C 5685   8.072   5.788   6.731  0.6097  0.8529  0.5080
   42MOL0     C 5686   8.173   5.889   6.686 -0.2211 -0.7914 -1.3180
   42MOL0     C 5687   8.089   5.643   6.754 -0.7659 -0.3393 -1.2097
   42MOL0     C 5688   8.220   5.576   6.742 -0.1982 -1.2477 -0.3535
   42MOL0     O 5689   8.330   5.636   6.795 -0.4744  0.1089  0.6892
   42MOL0     C 5690   8.449   5.593   6.732 -0.1460 -0.6040  0.0519
   42MOL0     C 5691   8.551   5.543   6.817  0.0516  0.1330  0.0752
   42MOL0     C 5692   8.675   5.507   6.764  0.8533 -0.5268 -0.4283
   42MOL0     C 5693   8.689   5.506   6.625 -0.0300 -0.4767  0.1082
   42MOL0     O 5694   8.809   5.454   6.570 -0.3710 -0.7238 -0.0719
   42MOL0     C 5695   8.878   5.539   6.481  0.0349 -0.3306  0.1051
   42MOL0     C 5696   8.875   5.692   6.518 -0.3531 -0.2180  0.0141
   42MOL0     C 5697   8.974   5.764   6.428 -0.7306  0.5781  0.7212
   42MOL0     C 5698   9.013   5.903   6.478  0.1328 -0.6916 -1.2502
   42MOL0     C 5699   9.081   5.984   6.371  0.2942  0.2573  0.0081
   42MOL0     C 5700   8.979   6.073   6.288  1.2600  0.3600 -0.0419
   42MOL0     C 5701   8.851   6.003   6.242 -0.2579  0.3987  0.4760
   42MOL0     C 5702   8.864   5.931   6.113 -0.8520 -0.2576 -0.5171
   42MOL0    Cl 5703   8.874   6.039   5.971 -0.0212  0.5664  0.2620
   42MOL0     C 5704   8.587   5.550   6.545  0.2437 -0.0798  0.1523
   42MOL0     C 5705   8.464   5.596   6.588  0.0111 -0.1221 -0.4388
   42MOL0     O 5706   8.230   5.464   6.687  0.2602  0.3214  0.7639
   42MOL0     C 5707   7.976   5.570   6.800 -0.2975 -0.6923 -0.9623
   42MOL0     C 5708   7.851   5.628   6.807  0.6928  1.2563  0.1906
   42MOL0     N 5709   7.172   5.557   6.953 -0.0583  0.8611 -0.2670
   42MOL0     N 5710   7.050   5.538   6.979 -0.1756 -0.5015  0.1869
   42MOL0     C 5711   5.761   5.390   6.565 -0.6063  0.1491  0.0835
   42MOL0     C 5712   5.632   5.394   6.518 -0.0736 -0.0750  0.4450
   42MOL0     C 5713   5.180   5.407   6.570  0.4864  0.4693  0.2142
   42MOL0     C 5714   5.144   5.276   6.525 -1.2708 -0.7660  0.5575
   42MOL0     C 5715   5.014   5.246   6.488 -0.8436 -0.7362 -0.0012
   42MOL0     C 5716   4.909   5.339   6.500  0.5396 -0.8610 -0.3032
   42MOL0     O 5717   4.787   5.309   6.458  0.0367 -0.0577  0.2846
   42MOL0     C 5718   4.746   5.173   6.476 -0.2094 -0.0413 -0.3152
   42MOL0     C 5719   4.598   5.167   6.508  0.2161 -0.0499  0.3051
   42MOL0     C 5720   4.536   5.024   6.508  0.0802 -0.9210 -0.8545
   42MOL0     C 5721   4.552   4.927   6.380 -0.2249 -0.0877  0.5891
   42MOL0     C 5722   4.448   4.950   6.284  0.6079  0.6025  0.2749
   42MOL0     C 5723   4.343   4.964   6.229  0.4462  0.1348  0.2833
   42MOL0     C 5724   4.940   5.465   6.542 -0.4245  0.0606  0.1541
   42MOL0     C 5725   5.079   5.503   6.567  0.8292  0.2128  0.3087
   42MOL0     C 5726   5.096   5.641   6.607 -0.5082 -0.1545 -0.1647
   42MOL0     H 5727   5.478   5.246   6.776  3.8098 -3.0024  3.6615
   42MOL0     H 5728   5.704   5.232   6.863  2.3606  0.0633  0.0501
   42MOL0     H 5729   5.986   5.509   6.666  1.9999  0.2193 -2.5968
   42MOL0     H 5730   6.068   5.380   6.582  0.4536 -0.8747  0.5916
   42MOL0     H 5731   6.106   5.483   6.855 -2.7241  2.0239 -1.9776
   42MOL0     H 5732   6.163   5.313   6.830  1.3206  0.6393 -0.2122
   42MOL0     H 5733   6.303   5.374   6.654  1.0415  1.7470 -1.3211
   42MOL0     H 5734   6.234   5.540   6.654 -0.3156 -1.0133 -0.3013
   42MOL0     H 5735   6.334   5.605   6.858  0.7236  0.1548 -0.0671
   42MOL0     H 5736   6.367   5.444   6.904  2.9466  0.4943  1.3147
   42MOL0     H 5737   6.514   5.537   6.668  0.4705 -0.7925  0.5379
   42MOL0     H 5738   6.544   5.402   6.789 -1.1473 -0.0142  3.6028
   42MOL0     H 5739   6.576   5.695   6.853  3.3114  0.4389  1.4002
   42MOL0     H 5740   6.579   5.553   6.969  3.9766  0.4665  0.2809
   42MOL0     H 5741   6.775   5.623   6.755 -0.2988  1.6888  0.8771
   42MOL0     H 5742   6.771   5.468   6.854 -1.1936 -1.3372  0.1517
   42MOL0     H 5743   6.787   5.752   6.950 -0.8245  0.0054 -1.1212
   42MOL0     H 5744   6.816   5.603   7.051 -0.3109  0.8864  0.3424
   42MOL0     H 5745   7.008   5.792   6.787 -2.1052 -1.4389 -0.6718
   42MOL0     H 5746   7.264   5.815   6.753 -3.1623 -1.8324  0.1328
   42MOL0     H 5747   7.360   5.668   6.784  0.7004 -0.1950  1.3542
   42MOL0     H 5748   7.325   5.920   6.951  2.3382  2.0624 -0.2004
   42MOL0     H 5749   7.404   5.771   7.020  1.8880 -2.5633 -1.7136
   42MOL0     H 5750   7.522   5.970   6.807  2.7205 -1.2166 -2.0249
   42MOL0     H 5751   7.566   5.939   6.974  1.1186  0.1254  0.3626
   42MOL0     H 5752   7.641   5.720   6.929  1.7562 -4.1275 -3.1078
   42MOL0     H 5753   7.572   5.712   6.769 -3.5507 -0.2457  1.2496
   42MOL0     H 5754   7.922   5.946   6.714 -1.0304 -0.4051  2.8032
   42MOL0     H 5755   8.176   5.967   6.763 -1.1743 -2.0259  0.0354
   42MOL0     H 5756   8.156   5.942   6.592 -3.2513 -2.0160 -1.5774
   42MOL0     H 5757   8.270   5.837   6.680  0.3362 -0.0492  0.4849
   42MOL0     H 5758   8.541   5.540   6.925 -1.5235 -0.4343 -0.0760
   42MOL0     H 5759   8.758   5.486   6.831  0.4453 -2.6884 -0.5481
   42MOL0     H 5760   8.983   5.507   6.477  1.4347  3.0372  3.3467
   42MOL0     H 5761   8.832   5.534   6.382  0.7739 -0.2525 -0.2487
   42MOL0     H 5762   8.778   5.742   6.504  0.3732  0.7795 -1.9521
   42MOL0     H 5763   8.908   5.700   6.622 -1.6024 -1.9897  0.6017
   42MOL0     H 5764   8.942   5.772   6.324  1.3807 -1.9990 -0.2601
   42MOL0     H 5765   9.067   5.709   6.411  0.0457  1.2252  2.5985
   42MOL0     H 5766   9.073   5.885   6.568  2.1783  3.0302 -1.6609
   42MOL0     H 5767   8.935   5.962   6.526  0.4440 -2.4704  1.7025
   42MOL0     H 5768   9.148   6.058   6.416  0.6274  0.3720 -0.6720
   42MOL0     H 5769   9.143   5.917   6.311 -2.1161 -1.6291 -0.5746
   42MOL0     H 5770   9.024   6.127   6.205 -2.1984  1.0545 -1.6514
   42MOL0     H 5771   8.948   6.157   6.351  0.2907 -0.0566  0.0561
   42MOL0     H 5772   8.771   6.079   6.235  1.3480  2.0885 -0.3584
   42MOL0     H 5773   8.809   5.933   6.314  0.4037  0.6598  1.1283
   42MOL0     H 5774   8.784   5.863   6.084 -0.2009 -1.6487  0.7772
   42MOL0     H 5775   8.956   5.873   6.124 -1.0826 -0.6145 -0.4648
   42MOL0     H 5776   8.599   5.560   6.438 -0.8395  1.8590  0.1599
   42MOL0     H 5777   8.388   5.628   6.518 -2.1998 -0.0500  1.8598
   42MOL0     H 5778   7.995   5.466   6.825  2.2412  0.1854  1.2107
   42MOL0     H 5779   7.766   5.563   6.825  1.4095  0.1683 -0.2783
   42MOL0     H 5780   5.838   5.423   6.497 -0.5732 -0.1167 -0.0106
   42MOL0     H 5781   5.607   5.441   6.423  2.0791  0.7372  0.2143
   42MOL0     H 5782   5.228   5.209   6.508 -2.1468 -2.2494  1.9237
   42MOL0     H 5783   5.002   5.141   6.462  1.9630 -1.8695  2.6710
   42MOL0     H 5784   4.776   5.114   6.389  1.1386 -0.4673  0.4165
   42MOL0     H 5785   4.802   5.133   6.560 -1.4511 -0.7589  0.1955
   42MOL0     H 5786   4.542   5.231   6.438 -3.3268 -1.5266  1.5423
   42MOL0     H 5787   4.579   5.211   6.606 -0.5316 -0.8432  0.5308
   42MOL0     H 5788   4.586   4.979   6.594  0.7450  1.0919 -0.1196
   42MOL0     H 5789   4.428   5.021   6.526 -0.3889  1.2383 -2.7504
   42MOL0     H 5790   4.535   4.823   6.406 -1.2559 -0.5858 -1.8018
   42MOL0     H 5791   4.651   4.926   6.332 -1.5582 -1.5142 -2.4303
   42MOL0     H 5792   4.251   4.981   6.177 -0.6724 -2.3185  1.3022
   42MOL0     H 5793   4.858   5.535   6.535  1.1720  2.1754  1.2675
   42MOL0     H 5794   5.186   5.677   6.558 -1.1503  2.0621  0.2032
   42MOL0     H 5795   5.008   5.705   6.606 -1.4876 -1.4626 -1.1974
   42MOL0     H 5796   5.132   5.642   6.710  1.6665  3.5273 -0.7779
   43MOL0     O 5797   1.377   5.494   6.687  0.1993 -0.4872 -0.6726
   43MOL0     C 5798   1.281   5.506   6.766  0.1792 -0.6107  0.5969
   43MOL0     O 5799   1.303   5.514   6.905 -0.1250  0.1068 -0.0032
   43MOL0     C 5800   1.430   5.526   6.956  0.7892  1.0997 -0.0917
   43MOL0     C 5801   1.433   5.605   7.071  0.0364  0.4259 -0.6621
   43MOL0     C 5802   1.555   5.625   7.131 -0.0007 -0.0519  0.3188
   43MOL0     C 5803   1.674   5.557   7.100  0.1502 -0.0148 -0.1897
   43MOL0     O 5804   1.800   5.581   7.159  0.5459  0.3540 -0.1928
   43MOL0     C 5805   1.816   5.674   7.265  0.6080  0.3925  0.5503
   43MOL0     C 5806   1.965   5.700   7.293  0.2309 -0.4084  0.0258
   43MOL0     C 5807   2.027   5.789   7.182  0.6397  0.3656 -0.8304
   43MOL0     C 5808   2.171   5.813   7.215 -0.3992 -0.4395 -0.3830
   43MOL0     C 5809   2.191   5.932   7.317  0.0123 -0.1441  0.3381
   43MOL0     C 5810   2.341   5.951   7.352  0.0117 -0.2522  0.1285
   43MOL0     C 5811   2.362   5.875   7.484  0.9532 -0.1595 -0.5159
   43MOL0     C 5812   2.512   5.850   7.500  0.2378 -0.4035  0.5287
   43MOL0     N 5813   2.542   5.779   7.621  0.9463 -0.2305 -0.1201
   43MOL0     C 5814   2.554   5.831   7.738 -0.6925 -0.3453 -0.7343
   43MOL0     C 5815   2.571   5.719   7.822 -0.0330  0.5691 -0.0583
   43MOL0     C 5816   2.600   5.727   7.972  0.3493  0.2382  0.1229
   43MOL0     C 5817   2.502   5.657   8.073  0.5489  0.5024  1.2906
   43MOL0     C 5818   2.383   5.758   8.080  0.6655 -0.3274 -0.7720
   43MOL0     C 5819   2.264   5.677   8.134  0.0757  0.3019 -0.2345
   43MOL0     O 5820   2.146   5.760   8.132 -1.2873  0.9300 -0.3896
   43MOL0     C 5821   2.031   5.711   8.168  0.2953 -0.2825 -0.2934
   43MOL0     C 5822   2.009   5.587   8.232  0.7152 -0.6544  0.1049
   43MOL0     C 5823   1.880   5.543   8.275 -0.9743 -0.9737 -0.1861
   43MOL0     C 5824   1.878   5.409   8.342  0.3241 -0.3286  0.1264
   43MOL0     C 5825   1.768   5.614   8.243 -0.0814 -0.5913 -0.2913
   43MOL0     C 5826   1.628   5.576   8.260  0.5605  0.4599 -0.4223
   43MOL0     O 5827   1.540   5.639   8.169 -0.5286 -0.2085 -0.4477
   43MOL0     C 5828   1.411   5.613   8.203 -0.9078  0.5264  0.2811
   43MOL0     C 5829   1.331   5.712   8.262  0.2462 -0.6334  0.0077
   43MOL0     C 5830   1.198   5.691   8.287  0.6157 -0.9511 -0.3912
   43MOL0     C 5831   1.144   5.567   8.254  0.4077 -0.6616  0.5764
   43MOL0     O 5832   1.009   5.556   8.291  0.5416  0.4863  0.3338
   43MOL0     C 5833   0.916   5.480   8.207  0.4650  0.3782 -0.5089
   43MOL0     C 5834   0.790   5.461   8.287  0.1991  0.3617  0.0307
   43MOL0     C 5835   0.674   5.420   8.193 -0.5930  0.6993 -0.4751
   43MOL0     C 5836   0.534   5.469   8.244 -0.0358 -0.5519 -0.9142
   43MOL0     C 5837   0.424   5.428   8.150  0.4311 -0.7872  0.0412
   43MOL0     C 5838   0.289   5.450   8.226 -0.4230  0.4741  0.4521
   43MOL0     C 5839   0.182   5.392   8.143 -0.3188  0.2474 -0.1360
   43MOL0     C 5840   0.186   5.247   8.131 -0.4272  0.7468 -0.4849
   43MOL0    Cl 5841   0.213   5.151   8.270  0.1822 -0.2909  0.4282
   43MOL0     C 5842   1.218   5.468   8.195  0.4495  0.9725  0.3810
   43MOL0     C 5843   1.357   5.484   8.175 -0.2251 -0.1918 -0.5950
   43MOL0     O 5844   1.592   5.499   8.358 -0.0354 -0.9039 -0.5254
   43MOL0     C 5845   1.783   5.743   8.178  0.2447 -0.3077  0.7390
   43MOL0     C 5846   1.912   5.784   8.132 -0.1183  0.5248 -0.5566
   43MOL0     N 5847   2.548   5.608   7.750 -0.1650  0.3214 -0.3611
   43MOL0     N 5848   2.529   5.648   7.637 -0.3560 -0.1510 -0.2071
   43MOL0     C 5849   1.672   5.483   6.982 -0.9360  0.3823 -0.1443
   43MOL0     C 5850   1.548   5.474   6.908 -0.0959  0.3555 -0.1495
   43MOL0     C 5851   1.140   5.497   6.718  0.4471 -1.0502  0.1755
   43MOL0     C 5852   1.041   5.527   6.810 -0.6646  0.2038 -0.9106
   43MOL0     C 5853   0.908   5.501   6.784 -0.3249 -0.0199  0.0685
   43MOL0     C 5854   0.866   5.464   6.654 -0.2455  0.2048  0.2574
   43MOL0     O 5855   0.740   5.457   6.610  0.3030 -0.0498 -0.3444
   43MOL0     C 5856   0.637   5.509   6.697  0.7607  0.4432 -0.3132
   43MOL0     C 5857   0.507   5.476   6.619 -0.2955 -0.2808 -0.5963
   43MOL0     C 5858   0.463   5.586   6.528  0.8371  0.7298  0.9848
   43MOL0     C 5859   0.560   5.623   6.414 -0.6014  0.5519 -1.0923
   43MOL0     C 5860   0.604   5.511   6.330  0.1393 -0.9503 -0.5892
   43MOL0     C 5861   0.654   5.418   6.265 -0.0225  0.0588  0.3987
   43MOL0     C 5862   0.972   5.439   6.565 -0.2370 -0.2731  0.0191
   43MOL0     C 5863   1.110   5.454   6.585  0.1849  0.3354 -0.5124
   43MOL0     C 5864   1.206   5.407   6.470  0.1906 -0.1503 -0.4774
   43MOL0     H 5865   1.348   5.650   7.122  1.8239  0.4760  2.4852
   43MOL0     H 5866   1.557   5.697   7.213 -1.0873 -1.0125  1.2213
   43MOL0     H 5867   1.769   5.640   7.358  3.5944  1.8208  2.7527
   43MOL0     H 5868   1.780   5.773   7.237 -1.7133 -0.5236  0.0335
   43MOL0     H 5869   1.977   5.765   7.380  0.4911  0.9577 -1.0083
   43MOL0     H 5870   2.011   5.607   7.329  0.0258 -0.9868 -1.1512
   43MOL0     H 5871   2.019   5.736   7.087 -1.1908 -2.5485  0.8028
   43MOL0     H 5872   1.970   5.881   7.169  0.0127 -0.2074 -2.2567
   43MOL0     H 5873   2.213   5.723   7.262 -0.9896 -0.3997  0.2357
   43MOL0     H 5874   2.217   5.845   7.121 -1.5863 -0.6330 -1.0517
   43MOL0     H 5875   2.135   5.919   7.410  0.1699  0.5868  0.5346
   43MOL0     H 5876   2.161   6.022   7.263  2.9844 -0.8116 -2.7780
   43MOL0     H 5877   2.406   5.924   7.269  0.7662 -1.0607  0.9555
   43MOL0     H 5878   2.369   6.055   7.374  0.4544 -0.1965 -0.6596
   43MOL0     H 5879   2.319   5.775   7.490  1.2851 -0.3202 -0.7956
   43MOL0     H 5880   2.330   5.931   7.572  2.2548 -1.2047  0.6741
   43MOL0     H 5881   2.553   5.791   7.417 -0.3421  0.7028 -0.5852
   43MOL0     H 5882   2.562   5.948   7.503 -1.1208  0.3679  5.1636
   43MOL0     H 5883   2.543   5.937   7.759  1.9796  0.2013 -1.6741
   43MOL0     H 5884   2.610   5.832   8.001  1.4473 -0.1939  1.3991
   43MOL0     H 5885   2.702   5.687   7.981  0.9187  0.8066 -2.7151
   43MOL0     H 5886   2.472   5.556   8.042  1.3158  0.5548  0.3359
   43MOL0     H 5887   2.551   5.653   8.170  1.4126  2.3573  0.9771
   43MOL0     H 5888   2.404   5.843   8.146  1.7271 -0.1701 -1.2884
   43MOL0     H 5889   2.353   5.802   7.985 -2.3091  2.6379  1.3001
   43MOL0     H 5890   2.244   5.595   8.065  0.0201 -0.8352  1.0777
   43MOL0     H 5891   2.292   5.643   8.234 -1.7858  0.8189  0.5113
   43MOL0     H 5892   2.100   5.536   8.264  1.5021  0.0304 -0.9532
   43MOL0     H 5893   1.981   5.374   8.350  0.2425 -0.7856 -0.7362
   43MOL0     H 5894   1.824   5.338   8.279 -0.2930  1.9458 -2.0559
   43MOL0     H 5895   1.819   5.421   8.434 -2.8611  1.2282 -1.9408
   43MOL0     H 5896   1.385   5.797   8.303  2.2344 -1.6144 -0.4159
   43MOL0     H 5897   1.125   5.767   8.315  0.2348 -1.0145 -1.1690
   43MOL0     H 5898   0.886   5.548   8.127 -1.3473 -1.6733 -1.6771
   43MOL0     H 5899   0.953   5.386   8.166 -1.4667  1.3027 -5.0120
   43MOL0     H 5900   0.794   5.409   8.383 -1.6906  3.8102  2.1917
   43MOL0     H 5901   0.769   5.561   8.328 -0.4562  0.6474 -0.9806
   43MOL0     H 5902   0.672   5.311   8.179  1.6032  0.8640 -2.8227
   43MOL0     H 5903   0.693   5.460   8.093 -0.3392  1.2089 -0.2279
   43MOL0     H 5904   0.531   5.577   8.258 -3.2307 -0.6453 -0.2761
   43MOL0     H 5905   0.526   5.415   8.339 -1.2375  0.3037 -0.5020
   43MOL0     H 5906   0.428   5.486   8.058  1.2643 -1.2669 -0.2305
   43MOL0     H 5907   0.442   5.322   8.129 -0.6800 -0.6404 -1.8586
   43MOL0     H 5908   0.265   5.557   8.220  0.0731  0.4971 -3.5787
   43MOL0     H 5909   0.276   5.403   8.324  0.1921 -1.1542 -0.2152
   43MOL0     H 5910   0.174   5.435   8.043  0.6305  1.2723  0.1988
   43MOL0     H 5911   0.095   5.427   8.198  0.5180  0.9696  0.7819
   43MOL0     H 5912   0.269   5.215   8.066  0.5030  1.0439  0.5289
   43MOL0     H 5913   0.092   5.217   8.085 -0.5174  0.1935  0.0507
   43MOL0     H 5914   1.179   5.371   8.167  1.1127  0.4254  1.3294
   43MOL0     H 5915   1.429   5.411   8.140  0.6866 -0.6010  1.9073
   43MOL0     H 5916   1.696   5.806   8.164  0.0903 -0.4192  1.1848
   43MOL0     H 5917   1.913   5.876   8.075  2.2601  0.4389 -0.7452
   43MOL0     H 5918   1.767   5.438   6.954 -0.6473 -0.7836  2.4144
   43MOL0     H 5919   1.554   5.410   6.820 -0.2033  0.0458  0.0679
   43MOL0     H 5920   1.067   5.576   6.903 -1.2297 -2.8567  1.0200
   43MOL0     H 5921   0.840   5.523   6.866  2.2385  0.7374  2.1484
   43MOL0     H 5922   0.629   5.461   6.795 -0.3749  0.2731 -0.4738
   43MOL0     H 5923   0.665   5.614   6.705  0.0937  0.5155  1.7236
   43MOL0     H 5924   0.431   5.452   6.694 -1.0455  1.5293 -0.7130
   43MOL0     H 5925   0.519   5.386   6.558 -0.6266  0.4098 -1.7208
   43MOL0     H 5926   0.365   5.569   6.482  1.5771  0.7111 -0.6127
   43MOL0     H 5927   0.455   5.675   6.592 -0.1155 -0.9712  3.4127
   43MOL0     H 5928   0.652   5.667   6.453  0.3371 -1.4236 -1.0119
   43MOL0     H 5929   0.485   5.684   6.362 -2.3961  0.3750  1.1095
   43MOL0     H 5930   0.711   5.342   6.214  0.8703  0.0457  1.3899
   43MOL0     H 5931   0.931   5.424   6.465 -0.6154  0.2120  0.0937
   43MOL0     H 5932   1.289   5.473   6.441 -0.7352  0.7471 -1.1421
   43MOL0     H 5933   1.248   5.317   6.515 -2.9424 -0.3246  2.4508
   43MOL0     H 5934   1.156   5.381   6.376 -0.8951  1.7205 -0.4729
   44MOL0     O 5935   8.544   1.115   2.010  0.0841  0.1028  0.4809
   44MOL0     C 5936   8.560   1.195   1.918 -0.0579  0.1617 -0.4010
   44MOL0     O 5937   8.460   1.265   1.856 -0.6706  0.1933  0.5486
   44MOL0     C 5938   8.337   1.242   1.886  0.5270  0.0059  0.7148
   44MOL0     C 5939   8.259   1.155   1.807 -0.6575  0.2952 -0.4110
   44MOL0     C 5940   8.132   1.133   1.849 -0.3654  0.1089 -0.4192
   44MOL0     C 5941   8.084   1.182   1.972 -0.2834  0.9968 -0.3605
   44MOL0     O 5942   7.959   1.151   2.019  0.0823  0.0445 -0.0680
   44MOL0     C 5943   7.901   1.022   2.005  0.6653  0.1597  0.3622
   44MOL0     C 5944   7.753   1.030   2.050  0.9311  0.0750  0.2000
   44MOL0     C 5945   7.690   0.904   2.033  1.1167  0.7530  0.0222
   44MOL0     C 5946   7.560   0.894   2.121  0.6792 -0.7754 -0.1082
   44MOL0     C 5947   7.455   1.006   2.090  0.0881  0.4007 -0.1151
   44MOL0     C 5948   7.384   0.998   1.956 -0.7006  0.6101  0.5896
   44MOL0     C 5949   7.295   1.122   1.927 -0.5229 -0.5571  0.9403
   44MOL0     C 5950   7.189   1.160   2.028 -0.7408  0.9497 -0.0999
   44MOL0     N 5951   7.124   1.281   2.002  0.1791 -0.5777  0.5536
   44MOL0     C 5952   7.135   1.360   1.892  0.2562  0.0059 -0.0857
   44MOL0     C 5953   7.087   1.489   1.928 -0.3700 -0.2703 -0.3888
   44MOL0     C 5954   7.069   1.614   1.845 -1.0934  0.0463  0.4998
   44MOL0     C 5955   6.924   1.643   1.803  0.1993 -0.6779  0.5072
   44MOL0     C 5956   6.899   1.757   1.697 -0.3424 -0.6705  0.4038
   44MOL0     C 5957   6.932   1.892   1.741 -0.5369 -1.3979 -0.8265
   44MOL0     O 5958   7.051   1.916   1.813  0.4030  0.2014  0.7573
   44MOL0     C 5959   7.175   1.940   1.747 -0.3526  0.2071  0.9853
   44MOL0     C 5960   7.215   1.893   1.619  0.9085  0.6805 -0.0725
   44MOL0     C 5961   7.343   1.924   1.564  0.5622 -0.0877 -0.1056
   44MOL0     C 5962   7.370   1.873   1.422  0.3277  0.2640  0.1416
   44MOL0     C 5963   7.433   2.006   1.635 -0.0333  0.2666 -0.8876
   44MOL0     C 5964   7.564   2.040   1.586  0.2127 -0.7808  0.3223
   44MOL0     O 5965   7.666   2.057   1.680  0.2121 -0.2300 -0.0392
   44MOL0     C 5966   7.799   2.059   1.640 -0.1145 -0.2725  0.5274
   44MOL0     C 5967   7.859   1.949   1.586  0.3671 -0.2581 -0.7358
   44MOL0     C 5968   7.993   1.947   1.562 -0.8149 -0.6503 -0.4351
   44MOL0     C 5969   8.076   2.060   1.576 -0.4067 -0.0614 -0.7312
   44MOL0     O 5970   8.214   2.040   1.564 -0.5127  0.5462  0.5876
   44MOL0     C 5971   8.289   2.155   1.542  0.5597  0.0130  1.0485
   44MOL0     C 5972   8.437   2.122   1.515 -0.0115 -0.4361  0.6445
   44MOL0     C 5973   8.519   2.248   1.492 -0.3647 -0.3380 -0.2173
   44MOL0     C 5974   8.666   2.217   1.467 -0.6543 -0.6059  0.1484
   44MOL0     C 5975   8.725   2.356   1.453 -0.1231 -1.0522  0.1016
   44MOL0     C 5976   8.861   2.352   1.398 -0.9081 -0.4587 -0.4153
   44MOL0     C 5977   8.932   2.488   1.413  0.6992  1.1061  0.4978
   44MOL0     C 5978   9.083   2.496   1.385  0.1383  0.0956  0.4107
   44MOL0    Cl 5979   9.173   2.388   1.502  0.1965 -0.3491 -0.3017
   44MOL0     C 5980   8.015   2.177   1.617  0.8228 -0.4799  0.9568
   44MOL0     C 5981   7.873   2.178   1.655 -0.4203  0.0815  0.2391
   44MOL0     O 5982   7.578   2.059   1.466 -0.5821  0.1033  0.2139
   44MOL0     C 5983   7.391   2.040   1.771  0.2709 -0.7093 -0.7802
   44MOL0     C 5984   7.270   2.021   1.818  0.5534  0.3956  0.1515
   44MOL0     N 5985   7.048   1.480   2.055 -0.1657  0.3064  0.3735
   44MOL0     N 5986   7.067   1.360   2.104 -0.1928  0.0038  0.4566
   44MOL0     C 5987   8.170   1.251   2.052  0.4878  0.1422 -0.0172
   44MOL0     C 5988   8.290   1.284   2.007  0.0626 -1.1470 -1.2138
   44MOL0     C 5989   8.706   1.211   1.863  0.1185  0.2813 -0.8228
   44MOL0     C 5990   8.740   1.321   1.773 -0.3964 -0.4895 -0.0363
   44MOL0     C 5991   8.870   1.334   1.728 -0.2825 -0.9087  0.0015
   44MOL0     C 5992   8.973   1.261   1.778  0.0526 -0.2433  0.9458
   44MOL0     O 5993   9.103   1.290   1.746  0.0552  0.3522 -0.0929
   44MOL0     C 5994   9.199   1.290   1.854  0.2778  0.9580  0.1182
   44MOL0     C 5995   9.314   1.381   1.819 -0.1037 -0.7624  0.6617
   44MOL0     C 5996   9.278   1.533   1.808  0.1706 -0.0814 -0.3793
   44MOL0     C 5997   9.407   1.615   1.778 -0.6174 -0.4051 -0.7084
   44MOL0     C 5998   9.482   1.653   1.900 -0.3101  0.5686 -1.1846
   44MOL0     C 5999   9.542   1.685   1.997 -0.1277 -0.9578 -0.8909
   44MOL0     C 6000   8.949   1.144   1.855  0.2124 -0.5713  0.4842
   44MOL0     C 6001   8.811   1.119   1.896 -0.2224  0.1021 -0.2437
   44MOL0     C 6002   8.784   0.981   1.967  0.5685  0.1144 -0.1014
   44MOL0     H 6003   8.291   1.128   1.707 -0.4063  2.0466 -0.8484
   44MOL0     H 6004   8.061   1.082   1.784  0.1904 -0.6087 -0.4649
   44MOL0     H 6005   7.948   0.948   2.071 -0.3150 -0.4192  0.4252
   44MOL0     H 6006   7.903   0.988   1.901 -0.5198  0.5946  0.1916
   44MOL0     H 6007   7.754   1.048   2.158 -0.0469 -0.8916  0.3896
   44MOL0     H 6008   7.695   1.104   1.994 -0.8551 -1.7302 -0.4578
   44MOL0     H 6009   7.669   0.905   1.926  0.7491  1.2710  0.0978
   44MOL0     H 6010   7.755   0.818   2.054  0.4619  0.2293 -0.0596
   44MOL0     H 6011   7.510   0.799   2.100  0.0034 -1.4238  3.7752
   44MOL0     H 6012   7.584   0.897   2.227 -2.5006  2.7504  0.7494
   44MOL0     H 6013   7.505   1.103   2.087 -2.1359  1.5832 -2.9872
   44MOL0     H 6014   7.377   1.009   2.167  0.6325 -1.2281  0.5542
   44MOL0     H 6015   7.465   0.991   1.883  1.2254 -1.6828  2.7588
   44MOL0     H 6016   7.320   0.909   1.953 -0.7990  0.6846  0.4664
   44MOL0     H 6017   7.253   1.125   1.826  1.3078 -1.0665  0.1076
   44MOL0     H 6018   7.356   1.213   1.926  0.8793 -1.4364 -0.5147
   44MOL0     H 6019   7.117   1.079   2.044  2.2442 -2.1450 -0.9802
   44MOL0     H 6020   7.237   1.170   2.126 -4.9301  0.7014  2.2162
   44MOL0     H 6021   7.159   1.323   1.793  3.3256 -0.3420  0.7149
   44MOL0     H 6022   7.135   1.616   1.758 -0.8840  2.1598  0.6461
   44MOL0     H 6023   7.112   1.696   1.903  0.9993 -0.4159 -0.3182
   44MOL0     H 6024   6.883   1.549   1.766  2.4526 -0.8644 -1.8548
   44MOL0     H 6025   6.872   1.676   1.893 -1.1550 -0.4601 -0.3193
   44MOL0     H 6026   6.964   1.729   1.613 -0.1673  0.9346 -0.0382
   44MOL0     H 6027   6.795   1.774   1.665 -0.6934 -0.6345  1.5246
   44MOL0     H 6028   6.928   1.961   1.657  0.1624  1.6342  1.4324
   44MOL0     H 6029   6.858   1.925   1.815 -2.0573  2.0581 -3.5521
   44MOL0     H 6030   7.152   1.830   1.556 -1.0989 -2.4945  4.5325
   44MOL0     H 6031   7.472   1.836   1.409 -0.3092 -1.8495  0.8729
   44MOL0     H 6032   7.367   1.963   1.359  1.4788  1.1633  1.3188
   44MOL0     H 6033   7.310   1.783   1.403  0.1780  0.2560  0.6393
   44MOL0     H 6034   7.782   1.879   1.556 -0.0262  0.3175 -1.0790
   44MOL0     H 6035   8.042   1.857   1.528  0.8581  0.0187  0.0871
   44MOL0     H 6036   8.247   2.220   1.464  0.7755 -0.2134  0.7387
   44MOL0     H 6037   8.278   2.198   1.642 -1.6323  1.1209  0.3885
   44MOL0     H 6038   8.458   2.080   1.614 -0.2944  0.7129  1.2088
   44MOL0     H 6039   8.450   2.050   1.435 -3.4942  1.7766 -2.2543
   44MOL0     H 6040   8.515   2.315   1.578 -0.1466  2.4260 -2.1974
   44MOL0     H 6041   8.468   2.302   1.411 -2.8101  1.2798  2.2409
   44MOL0     H 6042   8.696   2.165   1.375  2.8464 -0.1878  0.9445
   44MOL0     H 6043   8.718   2.174   1.553  1.6161  1.7962  0.0864
   44MOL0     H 6044   8.663   2.425   1.393  1.3915  1.0072  0.7760
   44MOL0     H 6045   8.734   2.409   1.548  2.1651 -0.6023 -0.3042
   44MOL0     H 6046   8.854   2.332   1.291  1.9870  0.3421 -0.8435
   44MOL0     H 6047   8.916   2.272   1.450  0.2596 -1.0482 -2.4583
   44MOL0     H 6048   8.910   2.517   1.517 -2.8046  0.1928  0.1459
   44MOL0     H 6049   8.878   2.558   1.349 -1.1756  0.5056  1.3513
   44MOL0     H 6050   9.104   2.603   1.373 -1.1464  0.4289  0.9133
   44MOL0     H 6051   9.096   2.457   1.284  2.0532  0.5676  0.4451
   44MOL0     H 6052   8.072   2.268   1.605  0.8863 -0.6451 -0.1601
   44MOL0     H 6053   7.826   2.267   1.696  1.5335  2.1096 -1.7148
   44MOL0     H 6054   7.455   2.107   1.827 -1.7575 -1.5393  2.7723
   44MOL0     H 6055   7.236   2.058   1.914  0.7002 -0.7753  0.6750
   44MOL0     H 6056   8.128   1.286   2.146 -1.7102 -0.1497 -0.8199
   44MOL0     H 6057   8.357   1.340   2.071 -0.5381 -2.0491  0.2624
   44MOL0     H 6058   8.652   1.375   1.740  0.3420 -0.0084 -1.3217
   44MOL0     H 6059   8.888   1.414   1.657 -1.0370 -0.4680  0.2848
   44MOL0     H 6060   9.145   1.332   1.939 -0.2398 -0.0788  0.3304
   44MOL0     H 6061   9.223   1.188   1.886  0.4836 -0.5899 -4.2274
   44MOL0     H 6062   9.360   1.340   1.729 -1.2788  0.1890 -0.4061
   44MOL0     H 6063   9.395   1.377   1.893  0.6201  2.0579  0.1445
   44MOL0     H 6064   9.199   1.550   1.735 -0.6232 -0.0108  0.4720
   44MOL0     H 6065   9.248   1.562   1.910  1.2598  4.5535 -1.1515
   44MOL0     H 6066   9.392   1.704   1.718  1.4268  2.9450  3.2337
   44MOL0     H 6067   9.479   1.557   1.720  0.8812 -1.5649  2.1044
   44MOL0     H 6068   9.591   1.723   2.084  3.4502 -0.6874 -2.8211
   44MOL0     H 6069   9.030   1.077   1.883  1.2535 -0.4123 -1.9007
   44MOL0     H 6070   8.700   0.924   1.926  0.1093 -1.3565  2.5915
   44MOL0     H 6071   8.868   0.913   1.950 -1.3487 -2.1477 -1.0687
   44MOL0     H 6072   8.786   0.987   2.077  4.3427  1.1302 -0.0689
   45MOL0     O 6073   4.621  10.843   5.204  0.0126  0.4968  0.2806
   45MOL0     C 6074   4.612  10.823   5.319 -0.0363 -0.4251  1.0432
   45MOL0     O 6075   4.712  10.835   5.411 -0.1412 -0.1822 -0.5155
   45MOL0     C 6076   4.825  10.897   5.367 -0.0617  0.5896 -1.1600
   45MOL0     C 6077   4.836  11.023   5.307  0.2246  0.4455 -1.1208
   45MOL0     C 6078   4.960  11.087   5.294 -0.6483 -0.0478  0.1783
   45MOL0     C 6079   5.075  11.036   5.348 -0.1530 -0.6818 -0.1296
   45MOL0     O 6080   5.179  11.114   5.318 -0.5801  0.0230  0.2461
   45MOL0     C 6081   5.277  11.123   5.417 -0.3414  0.0274  0.3267
   45MOL0     C 6082   5.341  11.265   5.403  0.3085 -0.5860 -0.4978
   45MOL0     C 6083   5.476  11.262   5.478  0.1650  0.6261 -0.7067
   45MOL0     C 6084   5.445  11.283   5.630 -0.3991 -1.0108  0.1779
   45MOL0     C 6085   5.569  11.263   5.726  0.8833 -0.0174 -0.2048
   45MOL0     C 6086   5.669  11.381   5.723  0.1286 -0.4599 -0.5565
   45MOL0     C 6087   5.793  11.339   5.808  0.0431 -0.2317 -0.6360
   45MOL0     C 6088   5.765  11.347   5.963 -0.4598  0.8030  0.6827
   45MOL0     N 6089   5.873  11.297   6.046 -0.0558 -0.5121  1.1167
   45MOL0     C 6090   5.910  11.168   6.055 -1.2708  0.1899  0.2437
   45MOL0     C 6091   6.013  11.169   6.146  0.2713  0.4275  0.0530
   45MOL0     C 6092   6.077  11.044   6.211 -0.9703 -0.7698 -0.0091
   45MOL0     C 6093   6.198  10.985   6.120 -0.3739  0.0184 -0.0688
   45MOL0     C 6094   6.317  11.082   6.132 -0.0581 -0.1769  0.0143
   45MOL0     C 6095   6.451  11.013   6.086  0.5512 -0.7324 -0.3242
   45MOL0     O 6096   6.545  11.124   6.111  0.4888 -0.1352  0.7539
   45MOL0     C 6097   6.669  11.074   6.086 -0.0075  1.0114 -0.2362
   45MOL0     C 6098   6.720  10.962   6.149 -0.0978  0.3139  0.5501
   45MOL0     C 6099   6.849  10.926   6.124 -1.2160  0.1212  0.1743
   45MOL0     C 6100   6.898  10.799   6.189 -0.1283 -0.2681 -0.0009
   45MOL0     C 6101   6.937  11.005   6.038  1.0839  0.3766  0.1341
   45MOL0     C 6102   7.078  10.971   6.013 -1.1532  0.1758 -0.1547
   45MOL0     O 6103   7.162  11.077   6.010 -0.4678  0.0495 -0.2308
   45MOL0     C 6104   7.299  11.064   6.011  0.4481  0.7948  0.6049
   45MOL0     C 6105   7.378  11.151   6.090  0.1761  0.0383 -0.0377
   45MOL0     C 6106   7.525  11.147   6.094  0.0175  0.4640  0.5298
   45MOL0     C 6107   7.594  11.057   6.011  0.1632 -0.7400  0.6152
   45MOL0     O 6108   7.729  11.036   6.013  0.1312  0.0272 -0.2296
   45MOL0     C 6109   7.817  11.129   5.956 -0.1115  0.0215 -0.3122
   45MOL0     C 6110   7.853  11.227   6.060  0.0298 -0.5822 -1.1348
   45MOL0     C 6111   7.954  11.321   6.000 -0.5680  0.3453 -0.2626
   45MOL0     C 6112   8.106  11.280   6.028 -0.4914 -0.7195 -0.1748
   45MOL0     C 6113   8.194  11.408   5.989 -0.1318 -0.0753  0.3507
   45MOL0     C 6114   8.341  11.384   6.004  0.2728  0.2045  0.1559
   45MOL0     C 6115   8.423  11.496   5.941 -0.8472  0.2909  0.1860
   45MOL0     C 6116   8.572  11.474   5.959  0.2208  0.2973  0.8999
   45MOL0    Cl 6117   8.630  11.362   5.840  0.1007 -0.1514 -0.0749
   45MOL0     C 6118   7.517  10.980   5.923  0.2255  0.0813 -0.4837
   45MOL0     C 6119   7.377  10.969   5.925  0.1594 -0.4442  0.2989
   45MOL0     O 6120   7.115  10.859   6.002  1.1452 -0.2204  0.0953
   45MOL0     C 6121   6.878  11.122   5.981 -0.2587 -1.0080  0.0398
   45MOL0     C 6122   6.750  11.149   6.009  0.5529 -0.5439  0.2679
   45MOL0     N 6123   6.038  11.289   6.198 -1.0745 -0.8703 -0.2303
   45MOL0     N 6124   5.949  11.366   6.138 -0.7365 -0.2703 -0.2586
   45MOL0     C 6125   5.072  10.911   5.414  0.0721  0.5222 -0.4007
   45MOL0     C 6126   4.951  10.840   5.417 -0.6432 -0.3240 -0.5395
   45MOL0     C 6127   4.481  10.786   5.374 -0.0698  0.2194 -0.5738
   45MOL0     C 6128   4.471  10.790   5.514 -0.1078  0.3101 -0.2389
   45MOL0     C 6129   4.357  10.757   5.583 -0.1745 -0.0626 -0.1100
   45MOL0     C 6130   4.239  10.739   5.515 -0.2476 -0.4160  0.3601
   45MOL0     O 6131   4.116  10.706   5.567 -0.4055  0.1692  0.0050
   45MOL0     C 6132   4.084  10.566   5.589 -0.1863  0.8115  0.0249
   45MOL0     C 6133   4.024  10.513   5.456  0.6122  0.0700  0.1930
   45MOL0     C 6134   3.942  10.384   5.484  0.9887  0.2403  1.3075
   45MOL0     C 6135   3.809  10.403   5.563  1.1922  0.8901 -0.0021
   45MOL0     C 6136   3.735  10.533   5.551  0.4679  0.0725 -0.4771
   45MOL0     C 6137   3.665  10.632   5.544  0.0296  0.3963 -0.2860
   45MOL0     C 6138   4.241  10.753   5.375  0.4929  0.1470  0.4359
   45MOL0     C 6139   4.363  10.770   5.301 -0.1427 -0.6471  0.2720
   45MOL0     C 6140   4.349  10.770   5.159  0.2590 -0.5549 -0.1295
   45MOL0     H 6141   4.745  11.069   5.271 -1.1875 -1.2490  0.1062
   45MOL0     H 6142   4.973  11.180   5.240 -1.0416 -1.4253 -2.4567
   45MOL0     H 6143   5.360  11.052   5.408 -2.1154 -2.2521  0.9780
   45MOL0     H 6144   5.249  11.109   5.522  1.0689 -3.9652  0.3375
   45MOL0     H 6145   5.357  11.285   5.297 -0.5219 -2.1310 -0.9428
   45MOL0     H 6146   5.280  11.348   5.439  0.7702 -0.2332 -0.5154
   45MOL0     H 6147   5.533  11.170   5.461  0.3238  0.7487 -0.8412
   45MOL0     H 6148   5.544  11.339   5.441 -1.2331  1.3456 -1.8704
   45MOL0     H 6149   5.417  11.388   5.641  2.0889 -0.2670  0.1649
   45MOL0     H 6150   5.364  11.222   5.671  1.0901 -3.4183 -0.2285
   45MOL0     H 6151   5.617  11.167   5.704 -0.6437 -0.2615 -2.9976
   45MOL0     H 6152   5.532  11.253   5.828 -1.7516 -1.5542 -1.2204
   45MOL0     H 6153   5.709  11.390   5.622  1.9951 -0.2966  0.1542
   45MOL0     H 6154   5.629  11.477   5.757 -1.2934 -0.8756 -0.9878
   45MOL0     H 6155   5.867  11.417   5.784  0.8116 -0.5363  0.6863
   45MOL0     H 6156   5.844  11.246   5.782  3.6624  1.1744  0.7337
   45MOL0     H 6157   5.750  11.455   5.976 -3.8862  0.4766  0.3491
   45MOL0     H 6158   5.677  11.292   5.993 -0.1424 -0.4717 -0.6225
   45MOL0     H 6159   5.861  11.088   6.001 -2.8454  1.6893 -0.6726
   45MOL0     H 6160   5.998  10.969   6.218 -0.6239 -1.3084 -1.5462
   45MOL0     H 6161   6.127  11.066   6.306  1.8573  0.8424 -1.7300
   45MOL0     H 6162   6.229  10.889   6.164 -0.0772 -0.9104 -2.2009
   45MOL0     H 6163   6.168  10.969   6.016 -2.3359 -1.8894  0.7073
   45MOL0     H 6164   6.301  11.180   6.086 -0.8507  0.3397  1.3507
   45MOL0     H 6165   6.331  11.104   6.238 -0.8768 -0.0804  0.1104
   45MOL0     H 6166   6.469  10.918   6.136 -1.7114 -1.5625 -0.9354
   45MOL0     H 6167   6.436  10.998   5.979 -1.5438  0.4180 -0.2568
   45MOL0     H 6168   6.664  10.885   6.200  0.5017  0.9383  2.2351
   45MOL0     H 6169   6.834  10.777   6.275  1.4690 -1.4257  0.9529
   45MOL0     H 6170   6.994  10.803   6.243  0.1504 -1.5551 -0.3625
   45MOL0     H 6171   6.894  10.708   6.128 -1.2635 -0.6149  0.5567
   45MOL0     H 6172   7.335  11.220   6.163 -1.5259  0.9093 -1.7764
   45MOL0     H 6173   7.579  11.218   6.157  1.7415 -0.9579  0.7390
   45MOL0     H 6174   7.900  11.073   5.913  1.0099  0.8226  0.7414
   45MOL0     H 6175   7.765  11.174   5.871  0.9889  2.4358  0.2013
   45MOL0     H 6176   7.760  11.280   6.082  0.6297 -0.3247  0.9934
   45MOL0     H 6177   7.889  11.188   6.156  1.7756  0.6135 -1.2448
   45MOL0     H 6178   7.942  11.423   6.036  1.1360  0.2220  0.7891
   45MOL0     H 6179   7.947  11.328   5.891  2.7537  0.3975 -0.5785
   45MOL0     H 6180   8.137  11.196   5.964  2.3637 -1.3710  1.8658
   45MOL0     H 6181   8.116  11.263   6.136 -1.0480  1.9085  0.3574
   45MOL0     H 6182   8.165  11.433   5.886  2.2725 -0.5887 -0.5132
   45MOL0     H 6183   8.163  11.490   6.054  2.0431  1.1489 -0.0844
   45MOL0     H 6184   8.366  11.287   5.962  0.3404  0.0143  0.6337
   45MOL0     H 6185   8.360  11.377   6.111 -0.2357  1.3058  0.3381
   45MOL0     H 6186   8.395  11.595   5.979  0.0221  0.6305 -0.0243
   45MOL0     H 6187   8.410  11.496   5.832 -0.0552 -1.1752  0.0603
   45MOL0     H 6188   8.583  11.444   6.063  3.4867 -1.9720  0.0714
   45MOL0     H 6189   8.623  11.568   5.935  0.8052 -0.5165 -1.4108
   45MOL0     H 6190   7.570  10.914   5.855 -0.0619 -1.9137  1.1291
   45MOL0     H 6191   7.327  10.904   5.854 -0.6932 -0.1280  0.5989
   45MOL0     H 6192   6.934  11.195   5.923 -2.3032 -0.0754 -0.8577
   45MOL0     H 6193   6.706  11.247   5.991 -0.4032 -0.3440  3.1999
   45MOL0     H 6194   5.162  10.859   5.444 -0.7751  0.7242  2.7924
   45MOL0     H 6195   4.951  10.755   5.484  2.3574 -0.0710 -0.0910
   45MOL0     H 6196   4.560  10.797   5.576  0.4701  0.8598 -1.1039
   45MOL0     H 6197   4.362  10.745   5.691  0.2696  0.3974 -0.0754
   45MOL0     H 6198   4.175  10.507   5.608  0.2888  1.2454 -0.8799
   45MOL0     H 6199   4.018  10.566   5.676 -1.6670  1.6744 -1.0521
   45MOL0     H 6200   4.097  10.494   5.377  3.0604 -0.2026  2.3842
   45MOL0     H 6201   3.947  10.581   5.419 -0.0555 -0.8965 -0.2612
   45MOL0     H 6202   3.912  10.356   5.383 -0.7846  2.0873  1.2576
   45MOL0     H 6203   4.002  10.301   5.523  0.9006  0.3726  1.7325
   45MOL0     H 6204   3.835  10.385   5.668  1.1844  0.3516 -0.0912
   45MOL0     H 6205   3.749  10.320   5.527  2.7403  0.1942 -1.0763
   45MOL0     H 6206   3.598  10.715   5.557  0.1220  0.7293 -1.7245
   45MOL0     H 6207   4.149  10.746   5.319  1.3787  0.2019 -1.0825
   45MOL0     H 6208   4.398  10.851   5.104 -0.2479  1.4413  2.2173
   45MOL0     H 6209   4.388  10.681   5.109  0.5400  1.2745 -3.4639
   45MOL0     H 6210   4.243  10.793   5.143  0.1447  1.7135  3.1170
   46MOL0     O 6211   6.985   9.083   7.287 -0.4951  0.2057 -0.5123
   46MOL0     C 6212   7.013   8.982   7.221 -0.3789 -0.8487 -0.0474
   46MOL0     O 6213   7.133   8.926   7.215 -0.0867  0.0063  0.2523
   46MOL0     C 6214   7.237   8.990   7.260 -0.6687 -0.3012 -0.1104
   46MOL0     C 6215   7.276   8.967   7.388 -0.4513 -1.1273 -0.4566
   46MOL0     C 6216   7.403   9.011   7.434  0.1276  0.2656  0.2623
   46MOL0     C 6217   7.494   9.076   7.352  0.6447  0.2643  0.4183
   46MOL0     O 6218   7.609   9.114   7.411 -0.1160 -0.3793 -0.1371
   46MOL0     C 6219   7.688   9.210   7.343 -0.5426  0.2243  0.5164
   46MOL0     C 6220   7.819   9.245   7.420  1.0474 -0.2600  0.8932
   46MOL0     C 6221   7.912   9.128   7.397  0.2533 -0.3814 -0.1230
   46MOL0     C 6222   8.047   9.151   7.470  0.5984  0.5180 -0.0417
   46MOL0     C 6223   8.174   9.085   7.417 -0.0929 -0.2256  0.1233
   46MOL0     C 6224   8.163   8.938   7.412 -0.4264  1.0155  0.2093
   46MOL0     C 6225   8.299   8.880   7.388 -0.1519 -0.1915 -0.2373
   46MOL0     C 6226   8.305   8.731   7.377 -1.1781  0.7461  0.0288
   46MOL0     N 6227   8.436   8.671   7.355 -0.2047 -0.7129  0.4308
   46MOL0     C 6228   8.564   8.720   7.399 -0.2417 -0.2202 -0.2745
   46MOL0     C 6229   8.644   8.613   7.389  0.4408  0.2289 -0.2066
   46MOL0     C 6230   8.785   8.612   7.443  0.8382 -0.8685 -0.7364
   46MOL0     C 6231   8.870   8.489   7.400  0.6395 -0.2327 -0.7809
   46MOL0     C 6232   8.975   8.472   7.505  0.1132  0.0964  0.3019
   46MOL0     C 6233   9.045   8.333   7.483 -0.1731  0.3442  0.0902
   46MOL0     O 6234   9.132   8.303   7.597 -0.2595 -0.2480 -0.1840
   46MOL0     C 6235   9.257   8.354   7.613  0.4752 -0.7948  0.9634
   46MOL0     C 6236   9.324   8.323   7.725  0.5695 -0.3043  0.4116
   46MOL0     C 6237   9.452   8.375   7.752  0.1759  0.3593 -0.5047
   46MOL0     C 6238   9.517   8.313   7.873 -0.4990  0.5240 -0.3797
   46MOL0     C 6239   9.496   8.481   7.667 -0.7894  0.1404  0.0575
   46MOL0     C 6240   9.624   8.551   7.694  0.2871 -0.1206  0.0069
   46MOL0     O 6241   9.685   8.544   7.814 -0.4929  1.2542 -0.1700
   46MOL0     C 6242   9.817   8.583   7.828  0.7111 -0.3756  0.2546
   46MOL0     C 6243   9.913   8.487   7.857  0.6551 -0.2996 -0.7895
   46MOL0     C 6244  10.045   8.511   7.888 -0.3599 -0.1257 -1.2966
   46MOL0     C 6245  10.084   8.646   7.904  0.4927 -0.1580  0.4347
   46MOL0     O 6246  10.219   8.661   7.931 -0.0662 -0.0098  0.8599
   46MOL0     C 6247  10.264   8.798   7.943 -0.0968  0.0347 -0.3051
   46MOL0     C 6248  10.419   8.809   7.963  0.7455 -0.5073 -0.8770
   46MOL0     C 6249  10.485   8.698   8.049  0.8169  0.7401  0.2892
   46MOL0     C 6250  10.638   8.727   8.067  0.0331 -0.2889 -0.6246
   46MOL0     C 6251  10.714   8.633   8.146 -0.3758  0.2863 -0.1306
   46MOL0     C 6252  10.866   8.649   8.119  0.7381 -0.3290 -0.6396
   46MOL0     C 6253  10.940   8.557   8.213  0.4703  0.8356 -0.4058
   46MOL0     C 6254  11.055   8.490   8.145 -0.0629  0.2423 -0.2214
   46MOL0    Cl 6255  11.165   8.620   8.086  0.3192 -0.3582  0.0492
   46MOL0     C 6256   9.993   8.753   7.875  0.1023 -0.2536 -0.0816
   46MOL0     C 6257   9.860   8.722   7.843  0.7948 -0.2689  0.2440
   46MOL0     O 6258   9.670   8.620   7.602 -0.0126  0.2912  0.4778
   46MOL0     C 6259   9.424   8.512   7.546  0.5684  0.2708  0.4528
   46MOL0     C 6260   9.307   8.450   7.523  0.2378  0.1454 -0.3244
   46MOL0     N 6261   8.579   8.515   7.312  0.2563  0.5836  0.5508
   46MOL0     N 6262   8.455   8.546   7.298  0.4247  0.0175 -0.0220
   46MOL0     C 6263   7.446   9.116   7.223 -0.0947  1.1101  0.3014
   46MOL0     C 6264   7.315   9.084   7.182 -0.4964 -0.2430 -0.3903
   46MOL0     C 6265   6.908   8.905   7.160 -0.6821  0.2403 -0.0998
   46MOL0     C 6266   6.777   8.910   7.214  0.3832 -0.2268  0.1110
   46MOL0     C 6267   6.682   8.820   7.179  0.2675  0.3525 -0.2226
   46MOL0     C 6268   6.705   8.726   7.080 -0.4297  0.2590  0.8989
   46MOL0     O 6269   6.605   8.644   7.028  0.1269 -0.1353 -0.1429
   46MOL0     C 6270   6.504   8.594   7.113  1.1735  0.0947  0.2718
   46MOL0     C 6271   6.450   8.460   7.059  0.2269 -0.7401 -0.0103
   46MOL0     C 6272   6.362   8.404   7.164  0.6075 -0.0702  0.6905
   46MOL0     C 6273   6.222   8.458   7.128  0.0054 -0.4263  0.4982
   46MOL0     C 6274   6.140   8.451   7.248  0.5750 -0.3071 -0.3075
   46MOL0     C 6275   6.085   8.467   7.354  1.2082 -0.2816  0.0962
   46MOL0     C 6276   6.827   8.728   7.009 -0.2197 -0.6449  0.5281
   46MOL0     C 6277   6.923   8.822   7.050 -0.8878  0.8696 -0.6188
   46MOL0     C 6278   7.047   8.826   6.969 -1.5127  0.0026  0.5394
   46MOL0     H 6279   7.203   8.914   7.449  0.3914  0.6875  2.2740
   46MOL0     H 6280   7.412   8.994   7.541  1.5433 -2.3571 -0.1814
   46MOL0     H 6281   7.627   9.301   7.332  0.8824  1.0462 -1.0453
   46MOL0     H 6282   7.690   9.167   7.242 -0.9127 -1.4045  1.1812
   46MOL0     H 6283   7.869   9.332   7.378  4.2939 -3.7937 -3.6417
   46MOL0     H 6284   7.790   9.243   7.526 -0.8248  0.1243  0.4212
   46MOL0     H 6285   7.864   9.039   7.439 -0.5907 -0.3558 -1.0063
   46MOL0     H 6286   7.926   9.096   7.293 -3.2284 -3.6516  0.2180
   46MOL0     H 6287   8.075   9.255   7.489  3.3398 -0.2187  0.4884
   46MOL0     H 6288   8.022   9.106   7.566  0.8542 -2.3724 -1.2250
   46MOL0     H 6289   8.265   9.121   7.466 -0.6275  0.7915  0.3999
   46MOL0     H 6290   8.181   9.109   7.310 -1.0103  0.1977  0.1482
   46MOL0     H 6291   8.128   8.891   7.504 -2.0402 -1.1536 -1.4237
   46MOL0     H 6292   8.095   8.919   7.329  0.2521 -0.0007 -0.1355
   46MOL0     H 6293   8.368   8.912   7.467 -0.1411  1.7830 -0.9689
   46MOL0     H 6294   8.346   8.913   7.294 -1.9660 -2.7957 -2.1897
   46MOL0     H 6295   8.263   8.695   7.472 -1.5425 -0.1543 -0.4616
   46MOL0     H 6296   8.240   8.692   7.298 -1.7781 -1.6162  1.5838
   46MOL0     H 6297   8.579   8.811   7.455  2.2224 -0.4657 -0.4170
   46MOL0     H 6298   8.786   8.614   7.552 -1.8908 -0.3314 -0.6525
   46MOL0     H 6299   8.835   8.703   7.407  0.4373  0.8133  2.6255
   46MOL0     H 6300   8.808   8.399   7.399 -2.0226  1.4156  1.0772
   46MOL0     H 6301   8.916   8.509   7.303  0.9175  2.6677 -0.1440
   46MOL0     H 6302   9.052   8.549   7.508 -0.5519  0.7441  2.4232
   46MOL0     H 6303   8.939   8.465   7.608  0.6294 -2.5554  0.3703
   46MOL0     H 6304   8.977   8.247   7.481 -1.5583  1.4237 -1.3839
   46MOL0     H 6305   9.092   8.325   7.385 -2.8425  2.9876 -1.5488
   46MOL0     H 6306   9.259   8.268   7.792 -3.0710  2.5477 -0.4335
   46MOL0     H 6307   9.626   8.320   7.872 -0.5601  2.4767  1.2445
   46MOL0     H 6308   9.500   8.205   7.875 -0.6524  0.4363 -2.7501
   46MOL0     H 6309   9.491   8.363   7.967 -0.7617  1.8594 -1.1391
   46MOL0     H 6310   9.891   8.380   7.854  2.2279 -0.7188  0.9216
   46MOL0     H 6311  10.121   8.435   7.901 -1.4799 -0.8346  2.2459
   46MOL0     H 6312  10.232   8.852   7.853 -5.0030 -1.9695 -0.0533
   46MOL0     H 6313  10.209   8.848   8.023  0.7613  0.7401 -0.1362
   46MOL0     H 6314  10.469   8.813   7.866  1.3609  0.0536 -0.5425
   46MOL0     H 6315  10.426   8.902   8.020  2.9965 -2.0430  1.5777
   46MOL0     H 6316  10.468   8.598   8.008 -2.2900  1.7094 -1.0771
   46MOL0     H 6317  10.431   8.694   8.144 -2.7397 -2.2820 -1.5748
   46MOL0     H 6318  10.639   8.831   8.100  1.3434  0.6705 -3.3723
   46MOL0     H 6319  10.681   8.724   7.967 -1.2751 -1.8926 -1.1874
   46MOL0     H 6320  10.692   8.653   8.252 -0.7995  0.4103 -0.2434
   46MOL0     H 6321  10.687   8.528   8.130  1.4982 -0.4019  0.8710
   46MOL0     H 6322  10.899   8.752   8.133 -0.3652 -0.0156 -0.2085
   46MOL0     H 6323  10.894   8.624   8.017 -1.3857 -0.0093 -1.3551
   46MOL0     H 6324  10.870   8.482   8.250  0.5988  0.4440 -0.9275
   46MOL0     H 6325  10.974   8.611   8.301 -0.4030  0.9676 -0.1387
   46MOL0     H 6326  11.022   8.430   8.060 -3.4739  2.1817 -0.4290
   46MOL0     H 6327  11.108   8.425   8.215 -1.4685  0.7987  1.4228
   46MOL0     H 6328  10.034   8.853   7.885 -0.6423  0.0113  0.4585
   46MOL0     H 6329   9.800   8.811   7.827  2.6795  0.9167 -0.6436
   46MOL0     H 6330   9.461   8.583   7.473 -0.5948  2.6255  2.0059
   46MOL0     H 6331   9.249   8.489   7.439 -1.3506 -3.8127 -1.2877
   46MOL0     H 6332   7.508   9.175   7.157 -1.0624  1.7136 -0.0803
   46MOL0     H 6333   7.293   9.111   7.079  2.0610  1.3503 -0.6228
   46MOL0     H 6334   6.758   8.984   7.291  1.5704  1.5385 -1.1939
   46MOL0     H 6335   6.589   8.823   7.237 -0.1253  0.6506 -0.8620
   46MOL0     H 6336   6.537   8.567   7.214 -1.5279 -1.6384  0.7720
   46MOL0     H 6337   6.431   8.675   7.114  1.0759  0.0673  2.7088
   46MOL0     H 6338   6.533   8.389   7.051  0.1434 -0.8053 -0.2847
   46MOL0     H 6339   6.394   8.465   6.965 -0.1107  1.0938  0.2476
   46MOL0     H 6340   6.357   8.295   7.172 -0.3717  0.0359  1.7681
   46MOL0     H 6341   6.392   8.435   7.264  2.7676 -0.8724  0.3405
   46MOL0     H 6342   6.198   8.396   7.041  0.9544 -0.2609  0.1053
   46MOL0     H 6343   6.223   8.561   7.092 -2.6439  0.0296  1.5419
   46MOL0     H 6344   6.020   8.474   7.439  0.5894  1.3212 -0.4681
   46MOL0     H 6345   6.829   8.671   6.917 -0.1087  0.2179 -0.0143
   46MOL0     H 6346   7.042   8.772   6.874 -0.4915  0.1523  0.3884
   46MOL0     H 6347   7.071   8.932   6.957  1.7347 -0.3159  2.9625
   46MOL0     H 6348   7.130   8.778   7.022  1.6652 -0.2294 -4.1160
   47MOL0     O 6349   1.354  10.345   6.502  0.0039  0.2275  0.1392
   47MOL0     C 6350   1.283  10.356   6.604  0.3446 -0.8695  0.1057
   47MOL0     O 6351   1.307  10.315   6.726  0.3987  1.0250 -0.0799
   47MOL0     C 6352   1.431  10.265   6.757 -0.2895  0.1267  0.2633
   47MOL0     C 6353   1.554  10.317   6.712 -0.0693  0.1920 -0.4042
   47MOL0     C 6354   1.671  10.263   6.752 -0.0570  0.1791  0.4474
   47MOL0     C 6355   1.679  10.161   6.848 -0.5455  1.1112  0.5835
   47MOL0     O 6356   1.797  10.109   6.900  0.1803  0.3246 -0.0001
   47MOL0     C 6357   1.930  10.141   6.848 -0.1541 -0.2945 -0.3158
   47MOL0     C 6358   2.039  10.038   6.888 -0.7820  0.7368 -0.2665
   47MOL0     C 6359   2.033   9.900   6.821  0.1528 -0.8858 -0.4840
   47MOL0     C 6360   2.133   9.802   6.895 -0.3897  0.6156  0.4206
   47MOL0     C 6361   2.164   9.691   6.787 -0.4562 -0.1552 -0.6034
   47MOL0     C 6362   2.253   9.584   6.845 -0.5130  0.7755 -0.3554
   47MOL0     C 6363   2.285   9.471   6.742 -0.5153  0.3133 -0.2918
   47MOL0     C 6364   2.424   9.412   6.766 -0.5504  0.0728 -0.0379
   47MOL0     N 6365   2.536   9.498   6.719 -0.7287  0.0390 -0.3515
   47MOL0     C 6366   2.572   9.509   6.585 -0.5873  0.3210 -0.4581
   47MOL0     C 6367   2.698   9.548   6.603 -1.0132 -0.3360 -0.6220
   47MOL0     C 6368   2.799   9.578   6.490 -1.2298  0.0161 -0.7321
   47MOL0     C 6369   2.943   9.568   6.527 -0.7505  0.7411 -0.3093
   47MOL0     C 6370   3.044   9.573   6.407  0.0022  0.0981 -0.3524
   47MOL0     C 6371   3.191   9.574   6.441  1.0495  0.0421  0.3575
   47MOL0     O 6372   3.218   9.471   6.537  0.2438 -0.4955 -0.1466
   47MOL0     C 6373   3.328   9.488   6.611  0.4884  0.1207 -0.7145
   47MOL0     C 6374   3.446   9.557   6.578 -0.4900 -0.8315 -0.6097
   47MOL0     C 6375   3.569   9.532   6.640 -0.1659  0.3061  0.2356
   47MOL0     C 6376   3.688   9.602   6.568 -0.3540  0.6587  0.3635
   47MOL0     C 6377   3.568   9.437   6.750  0.0041 -0.7245 -0.0068
   47MOL0     C 6378   3.691   9.396   6.827  0.0157 -0.1365  0.3373
   47MOL0     O 6379   3.684   9.289   6.907 -0.2224 -0.1057  0.4993
   47MOL0     C 6380   3.790   9.250   6.983 -1.2362  0.1102 -0.5743
   47MOL0     C 6381   3.855   9.329   7.074  0.1229 -0.3401 -0.4402
   47MOL0     C 6382   3.968   9.271   7.144 -0.0523 -0.3523  0.9156
   47MOL0     C 6383   4.029   9.157   7.093 -0.4925 -0.6416  0.2319
   47MOL0     O 6384   4.139   9.103   7.149 -0.1377 -0.8795 -0.3558
   47MOL0     C 6385   4.233   9.037   7.059  0.0004 -1.0022 -0.7666
   47MOL0     C 6386   4.366   9.015   7.141  0.6126 -0.1030 -0.2989
   47MOL0     C 6387   4.439   9.138   7.189  0.3209  0.3455 -0.1096
   47MOL0     C 6388   4.362   9.238   7.280 -0.0185  0.0489 -0.1295
   47MOL0     C 6389   4.460   9.316   7.357 -0.0942  0.1144  0.2436
   47MOL0     C 6390   4.400   9.441   7.426 -0.0262  0.3502  0.0844
   47MOL0     C 6391   4.274   9.421   7.512  0.1427  0.4975 -0.4985
   47MOL0     C 6392   4.171   9.535   7.491  0.1759  0.2999 -0.1953
   47MOL0    Cl 6393   4.110   9.568   7.323  0.1574 -0.1612 -0.0158
   47MOL0     C 6394   3.954   9.075   7.003  0.4755 -0.6646  0.0859
   47MOL0     C 6395   3.837   9.126   6.948  0.2826 -0.0233 -0.1305
   47MOL0     O 6396   3.788   9.465   6.800  0.3999  0.2095 -0.1555
   47MOL0     C 6397   3.448   9.372   6.783 -0.4153  0.9412  0.4578
   47MOL0     C 6398   3.333   9.395   6.713  0.2088  0.5643  0.1728
   47MOL0     N 6399   2.732   9.575   6.735  0.0569 -0.8278  0.3605
   47MOL0     N 6400   2.634   9.542   6.808 -0.5133 -0.1527  1.1174
   47MOL0     C 6401   1.566  10.097   6.879  0.4254 -0.2646  0.8150
   47MOL0     C 6402   1.440  10.146   6.834 -0.2288 -0.4403 -0.6687
   47MOL0     C 6403   1.149  10.422   6.584  0.0896  0.5326 -0.8014
   47MOL0     C 6404   1.075  10.385   6.465  0.5120 -0.2654  0.0157
   47MOL0     C 6405   0.958  10.460   6.433  0.5172  0.4186 -0.2593
   47MOL0     C 6406   0.901  10.542   6.529  0.0100 -0.3767 -0.1721
   47MOL0     O 6407   0.778  10.606   6.525  0.4977  0.9536 -0.1035
   47MOL0     C 6408   0.685  10.555   6.427  0.0802  0.5292  0.1239
   47MOL0     C 6409   0.615  10.430   6.487  0.5124  0.1205  0.3564
   47MOL0     C 6410   0.544  10.333   6.385  0.7327 -0.9701 -0.0119
   47MOL0     C 6411   0.464  10.400   6.272  0.2563  0.2265 -0.1430
   47MOL0     C 6412   0.357  10.486   6.331 -0.6011 -0.3138  0.0535
   47MOL0     C 6413   0.279  10.558   6.402 -0.4110  1.3576  0.3483
   47MOL0     C 6414   0.973  10.569   6.641 -0.2345  1.0113 -0.2795
   47MOL0     C 6415   1.098  10.524   6.677 -0.7551  0.2481  0.1680
   47MOL0     C 6416   1.159  10.566   6.808 -0.5626  1.2130 -0.8425
   47MOL0     H 6417   1.566  10.405   6.649  2.7790  0.6355  0.5895
   47MOL0     H 6418   1.761  10.316   6.723 -0.1204  0.4096  0.6607
   47MOL0     H 6419   1.967  10.234   6.892 -1.3133 -0.9198  2.1669
   47MOL0     H 6420   1.928  10.138   6.739  0.7204 -3.5925 -0.3455
   47MOL0     H 6421   2.139  10.075   6.864  0.8894 -0.9308  3.2692
   47MOL0     H 6422   2.033  10.034   6.998 -0.0851 -2.0497 -0.2464
   47MOL0     H 6423   1.933   9.859   6.838 -0.4544  1.2021  1.4640
   47MOL0     H 6424   2.066   9.908   6.717 -2.3069 -0.7275 -1.3022
   47MOL0     H 6425   2.227   9.854   6.917  0.7989 -1.7349  1.2680
   47MOL0     H 6426   2.091   9.768   6.990  0.5330  2.2652  1.4731
   47MOL0     H 6427   2.216   9.737   6.702 -0.4888  0.5077 -0.2694
   47MOL0     H 6428   2.072   9.641   6.756  0.2979 -0.6412 -2.1947
   47MOL0     H 6429   2.341   9.636   6.883 -0.5125 -0.2811  1.1949
   47MOL0     H 6430   2.207   9.535   6.931 -1.8612  2.2992 -0.1566
   47MOL0     H 6431   2.289   9.504   6.638 -1.6958 -0.0659 -0.4627
   47MOL0     H 6432   2.212   9.391   6.755  0.1860 -0.4646 -1.0345
   47MOL0     H 6433   2.447   9.383   6.869  0.2760 -0.6329 -0.4073
   47MOL0     H 6434   2.430   9.322   6.704 -0.2981  0.7982 -1.0883
   47MOL0     H 6435   2.522   9.491   6.490 -0.2548  0.4022 -0.6529
   47MOL0     H 6436   2.781   9.680   6.454  1.7593  0.4879 -1.1243
   47MOL0     H 6437   2.772   9.504   6.414  1.7602 -1.8566 -0.1602
   47MOL0     H 6438   2.963   9.641   6.606  1.4005 -1.7843  1.6311
   47MOL0     H 6439   2.958   9.480   6.590 -1.8230 -1.0212 -2.3690
   47MOL0     H 6440   3.044   9.482   6.345  3.3126 -0.0138 -0.3547
   47MOL0     H 6441   3.029   9.656   6.337  1.2152  0.3350 -0.3546
   47MOL0     H 6442   3.236   9.564   6.341 -1.2346  0.1713 -0.7401
   47MOL0     H 6443   3.223   9.671   6.480  1.3523 -0.7969  2.2808
   47MOL0     H 6444   3.440   9.620   6.489 -0.1957  0.2552  0.1275
   47MOL0     H 6445   3.756   9.658   6.634  1.4730 -1.2993  0.2607
   47MOL0     H 6446   3.660   9.659   6.479  3.1793 -0.1641 -1.4553
   47MOL0     H 6447   3.754   9.520   6.537  0.0359  0.5008  1.5503
   47MOL0     H 6448   3.802   9.419   7.102 -0.6947 -1.4332  1.7894
   47MOL0     H 6449   4.031   9.337   7.203 -1.6912  2.3139 -0.1458
   47MOL0     H 6450   4.200   8.935   7.038  1.5419 -2.1915  2.0270
   47MOL0     H 6451   4.251   9.101   6.972 -1.4048  2.5103  1.2705
   47MOL0     H 6452   4.339   8.952   7.227 -0.2494 -2.3361 -2.1081
   47MOL0     H 6453   4.439   8.953   7.088  2.1744  1.6767 -0.3342
   47MOL0     H 6454   4.474   9.193   7.101 -1.8543  1.8975 -0.0914
   47MOL0     H 6455   4.525   9.110   7.249 -0.2593  2.5744  1.9067
   47MOL0     H 6456   4.300   9.187   7.354  1.8419 -0.8353  0.9088
   47MOL0     H 6457   4.306   9.303   7.213 -1.0653  1.0919  1.6793
   47MOL0     H 6458   4.504   9.247   7.430 -0.4070 -0.4538 -0.1026
   47MOL0     H 6459   4.544   9.348   7.295  0.9307 -1.2799  0.8439
   47MOL0     H 6460   4.378   9.523   7.358  2.5401 -0.0530 -1.3760
   47MOL0     H 6461   4.480   9.481   7.489  1.4131 -2.5638  0.3054
   47MOL0     H 6462   4.299   9.422   7.618 -1.5902  1.8838 -0.0588
   47MOL0     H 6463   4.226   9.324   7.502  1.2999 -0.2371  0.7330
   47MOL0     H 6464   4.221   9.624   7.529 -1.5533  0.3918  2.0143
   47MOL0     H 6465   4.093   9.502   7.560  1.8778 -0.0972  1.6164
   47MOL0     H 6466   3.973   8.973   6.970  0.4728 -0.4343 -0.6423
   47MOL0     H 6467   3.778   9.062   6.882  0.3031 -0.3527  0.1696
   47MOL0     H 6468   3.442   9.301   6.865  0.4643  1.4339  0.9532
   47MOL0     H 6469   3.246   9.332   6.732 -0.9100  2.1751  0.6140
   47MOL0     H 6470   1.571  10.016   6.951  1.0390 -2.5055 -1.5969
   47MOL0     H 6471   1.356  10.096   6.882  0.5321 -1.0339  0.0767
   47MOL0     H 6472   1.117  10.316   6.392  0.7498 -0.3601  0.2402
   47MOL0     H 6473   0.906  10.431   6.342 -0.7313 -0.9671  0.8385
   47MOL0     H 6474   0.613  10.636   6.412 -0.9567  0.1599  2.5264
   47MOL0     H 6475   0.729  10.540   6.328 -0.6861 -0.5974 -0.0711
   47MOL0     H 6476   0.545  10.473   6.559  0.7714 -0.0120  0.6888
   47MOL0     H 6477   0.678  10.362   6.546 -0.3873 -1.2000 -0.1466
   47MOL0     H 6478   0.624  10.286   6.328  1.3046  1.1273 -1.0122
   47MOL0     H 6479   0.487  10.254   6.436 -1.5048  1.5478  1.6789
   47MOL0     H 6480   0.425  10.315   6.215  2.7936 -1.3052  0.2554
   47MOL0     H 6481   0.535  10.458   6.214  2.7889 -1.0916  1.4196
   47MOL0     H 6482   0.203  10.598   6.466 -1.6483 -0.1339 -0.1175
   47MOL0     H 6483   0.918  10.626   6.715  0.7331  0.8559  0.5769
   47MOL0     H 6484   1.236  10.643   6.801  0.5350  0.2879  0.5383
   47MOL0     H 6485   1.085  10.603   6.879 -1.9471 -0.1356 -1.5229
   47MOL0     H 6486   1.215  10.493   6.867  1.1512  1.4067 -2.1303
   48MOL0     O 6487   6.984   9.868   3.435 -0.1685  0.1756  0.1813
   48MOL0     C 6488   6.884   9.829   3.379  1.0318  0.0917 -0.2905
   48MOL0     O 6489   6.806   9.735   3.430  0.2505 -0.3869  0.3778
   48MOL0     C 6490   6.838   9.673   3.553 -0.3359 -0.5752 -0.2196
   48MOL0     C 6491   6.853   9.759   3.661 -0.4092 -0.4647  0.7515
   48MOL0     C 6492   6.864   9.715   3.793  0.2639  0.7030  0.9617
   48MOL0     C 6493   6.876   9.576   3.821  0.9926 -0.6298 -0.1358
   48MOL0     O 6494   6.899   9.532   3.953  0.3912 -0.2973  0.4388
   48MOL0     C 6495   6.865   9.397   3.986 -0.1859  0.0461 -0.2700
   48MOL0     C 6496   6.907   9.381   4.129  0.6609  0.0319  0.5312
   48MOL0     C 6497   7.057   9.395   4.150 -0.6976  0.1018  0.0688
   48MOL0     C 6498   7.108   9.418   4.295  0.5414  0.0825  0.6952
   48MOL0     C 6499   7.250   9.480   4.316  0.4095 -0.0203  0.2478
   48MOL0     C 6500   7.349   9.404   4.238  0.1146 -0.1524  0.0502
   48MOL0     C 6501   7.488   9.452   4.268 -0.4597  0.5157 -0.2017
   48MOL0     C 6502   7.540   9.375   4.388  0.9085  0.1158  0.6871
   48MOL0     N 6503   7.672   9.426   4.419 -0.1918 -0.2226 -0.2334
   48MOL0     C 6504   7.773   9.460   4.335 -1.2785  0.5666  0.4090
   48MOL0     C 6505   7.883   9.456   4.413  0.3804  0.2780 -0.4878
   48MOL0     C 6506   8.017   9.503   4.367 -0.9357 -0.3742  0.4580
   48MOL0     C 6507   8.139   9.395   4.374  0.1345  0.5790 -0.0116
   48MOL0     C 6508   8.155   9.337   4.523 -0.3864 -0.9800  0.6597
   48MOL0     C 6509   8.285   9.251   4.537 -0.0758 -0.1956  0.2419
   48MOL0     O 6510   8.402   9.324   4.520 -0.5248 -0.1954  0.0845
   48MOL0     C 6511   8.524   9.259   4.534 -0.6092  0.4359 -0.1942
   48MOL0     C 6512   8.540   9.114   4.544 -0.0297 -0.1253 -0.0562
   48MOL0     C 6513   8.664   9.056   4.565 -0.1461  0.1916  0.1826
   48MOL0     C 6514   8.667   8.906   4.558 -0.7141  0.7506 -0.1298
   48MOL0     C 6515   8.773   9.149   4.573  0.0856 -0.0333 -0.9325
   48MOL0     C 6516   8.907   9.093   4.583  0.3143 -0.0360  0.4356
   48MOL0     O 6517   8.928   8.982   4.653 -0.0967  0.1988 -0.0428
   48MOL0     C 6518   9.049   8.926   4.659  0.2763  0.5532 -0.3666
   48MOL0     C 6519   9.093   8.811   4.587  0.0454  0.4055 -0.7747
   48MOL0     C 6520   9.225   8.764   4.606 -0.1989  0.0631  0.0081
   48MOL0     C 6521   9.318   8.836   4.688 -0.0612  1.0888  0.4615
   48MOL0     O 6522   9.443   8.787   4.693  0.3368  0.5726  0.7237
   48MOL0     C 6523   9.534   8.873   4.626  0.3496  0.0046 -0.0149
   48MOL0     C 6524   9.556   8.872   4.473 -0.1992  0.4463 -0.0203
   48MOL0     C 6525   9.621   8.736   4.433  0.3943  0.5559 -0.2831
   48MOL0     C 6526   9.508   8.650   4.381  0.5684  0.2371  0.3247
   48MOL0     C 6527   9.552   8.537   4.279  0.3421 -0.8729  0.1229
   48MOL0     C 6528   9.631   8.434   4.345 -0.4404  0.1994 -0.5545
   48MOL0     C 6529   9.661   8.320   4.243  0.3974  0.0494  0.3728
   48MOL0     C 6530   9.694   8.182   4.312  0.0505 -0.4572 -0.3450
   48MOL0    Cl 6531   9.846   8.209   4.414 -0.1013  0.3999  0.3945
   48MOL0     C 6532   9.269   8.946   4.764  0.5413 -0.7795 -0.0848
   48MOL0     C 6533   9.140   8.997   4.745  0.1919  0.0282 -0.6441
   48MOL0     O 6534   8.997   9.151   4.529 -0.6843  0.1439 -0.7231
   48MOL0     C 6535   8.755   9.288   4.554 -0.6389 -0.6789  0.0968
   48MOL0     C 6536   8.636   9.342   4.532  0.2781  0.2821  0.3036
   48MOL0     N 6537   7.839   9.432   4.543 -0.6347 -0.2553  0.4136
   48MOL0     N 6538   7.713   9.406   4.545 -0.5301 -0.0996 -0.5042
   48MOL0     C 6539   6.863   9.493   3.708  0.2822 -0.6560  0.2351
   48MOL0     C 6540   6.848   9.540   3.577  0.0980  0.2269 -1.2898
   48MOL0     C 6541   6.846   9.869   3.240 -0.6525  0.5035  0.6477
   48MOL0     C 6542   6.746   9.800   3.175 -0.4137 -0.2954  0.1370
   48MOL0     C 6543   6.704   9.848   3.055  0.5124  0.2512  0.6608
   48MOL0     C 6544   6.759   9.961   2.988  0.5539  1.6305  0.3070
   48MOL0     O 6545   6.695   9.993   2.871  0.0879  0.5456 -0.2027
   48MOL0     C 6546   6.739  10.107   2.797  0.3946  0.7643 -0.1289
   48MOL0     C 6547   6.688  10.238   2.867  0.1075  0.6874 -0.3098
   48MOL0     C 6548   6.532  10.242   2.885 -0.1801  0.4387 -1.0766
   48MOL0     C 6549   6.484  10.392   2.899  0.6647 -0.3912 -1.2442
   48MOL0     C 6550   6.529  10.458   3.022  0.1259  0.4734 -0.0022
   48MOL0     C 6551   6.566  10.520   3.125 -0.1102  0.2639 -0.0070
   48MOL0     C 6552   6.869  10.020   3.047 -0.1617 -0.7211 -0.0294
   48MOL0     C 6553   6.915   9.979   3.167  0.3460  0.7737 -0.5261
   48MOL0     C 6554   7.042  10.040   3.226 -0.2674 -0.3101  0.8453
   48MOL0     H 6555   6.836   9.866   3.648 -0.1214 -0.3074  1.5616
   48MOL0     H 6556   6.871   9.777   3.882 -0.7381 -0.7730  2.1149
   48MOL0     H 6557   6.917   9.327   3.920  1.7080  1.4202 -0.3147
   48MOL0     H 6558   6.760   9.367   3.982  0.1654 -1.1136 -1.5179
   48MOL0     H 6559   6.858   9.470   4.171  0.3730  0.4474 -0.6415
   48MOL0     H 6560   6.877   9.288   4.178  2.0923 -0.7211  0.0187
   48MOL0     H 6561   7.098   9.304   4.105  0.8127 -0.3592  2.2016
   48MOL0     H 6562   7.099   9.476   4.090  2.7001 -1.8707 -0.4754
   48MOL0     H 6563   7.033   9.479   4.345 -0.5694 -1.6926  1.2915
   48MOL0     H 6564   7.120   9.319   4.340  1.7788  0.6997  1.8009
   48MOL0     H 6565   7.265   9.470   4.424 -3.1971  0.1119  0.8685
   48MOL0     H 6566   7.265   9.582   4.279 -1.4740 -0.4922 -2.0514
   48MOL0     H 6567   7.338   9.296   4.252  1.6302 -0.7274 -2.5437
   48MOL0     H 6568   7.324   9.421   4.132 -2.7480 -1.1082  0.4659
   48MOL0     H 6569   7.496   9.560   4.285 -0.9883  0.9350 -2.2943
   48MOL0     H 6570   7.553   9.426   4.183  0.7905 -0.5752  1.0330
   48MOL0     H 6571   7.478   9.385   4.477 -0.2780  1.5046 -0.2595
   48MOL0     H 6572   7.540   9.270   4.359 -0.0560 -1.3129  5.1149
   48MOL0     H 6573   7.773   9.490   4.231 -0.0948 -4.0537 -1.1696
   48MOL0     H 6574   8.040   9.592   4.426 -2.1023 -0.1553  0.6007
   48MOL0     H 6575   8.008   9.530   4.261  0.9847  0.5110  0.4794
   48MOL0     H 6576   8.117   9.307   4.314 -1.2302  0.4015  0.7250
   48MOL0     H 6577   8.236   9.431   4.336  1.3510 -1.4176  1.0426
   48MOL0     H 6578   8.169   9.423   4.589  0.1098  0.8295 -1.6435
   48MOL0     H 6579   8.070   9.279   4.559  1.3059 -3.1392  1.4246
   48MOL0     H 6580   8.278   9.216   4.640 -1.5148  0.3590  0.3581
   48MOL0     H 6581   8.266   9.175   4.461 -0.2388 -1.1451  1.2185
   48MOL0     H 6582   8.456   9.046   4.537  0.5197 -0.9452  0.9019
   48MOL0     H 6583   8.582   8.858   4.509 -0.3768  0.4351 -0.4180
   48MOL0     H 6584   8.670   8.856   4.655 -2.4785 -1.9897 -1.3409
   48MOL0     H 6585   8.750   8.877   4.493 -0.9665  4.1457 -2.2049
   48MOL0     H 6586   9.019   8.755   4.531 -0.5685  0.0414  0.3764
   48MOL0     H 6587   9.257   8.673   4.556  3.5120 -0.2740  2.5725
   48MOL0     H 6588   9.513   8.977   4.651  0.2425 -0.1961  0.7359
   48MOL0     H 6589   9.633   8.872   4.674 -0.4016 -1.1336  1.5947
   48MOL0     H 6590   9.462   8.887   4.418 -0.6853  4.4154  1.5383
   48MOL0     H 6591   9.613   8.960   4.441 -0.6832  0.2997 -1.3658
   48MOL0     H 6592   9.666   8.682   4.516 -3.7751 -0.4375  1.6012
   48MOL0     H 6593   9.684   8.763   4.348  1.4379 -0.5204  0.1297
   48MOL0     H 6594   9.441   8.717   4.327 -0.2127 -1.4606 -0.8719
   48MOL0     H 6595   9.446   8.606   4.460 -1.7698 -1.1052 -2.1101
   48MOL0     H 6596   9.457   8.507   4.234  0.5739  0.0019 -0.9949
   48MOL0     H 6597   9.612   8.584   4.201 -0.9383  0.5431 -0.0560
   48MOL0     H 6598   9.586   8.386   4.433  2.5152 -2.4819 -0.3223
   48MOL0     H 6599   9.728   8.479   4.371  1.2077 -2.8692 -0.9200
   48MOL0     H 6600   9.750   8.348   4.185 -1.0124 -1.2668 -2.6030
   48MOL0     H 6601   9.576   8.299   4.177 -0.2576 -0.2533  1.2885
   48MOL0     H 6602   9.700   8.100   4.241 -5.0014 -1.2212 -0.2527
   48MOL0     H 6603   9.603   8.159   4.368 -0.3619  4.6043  1.6815
   48MOL0     H 6604   9.329   8.999   4.838  0.9152 -0.1456 -0.8264
   48MOL0     H 6605   9.106   9.088   4.793 -0.6211 -0.2674 -0.6349
   48MOL0     H 6606   8.840   9.353   4.572 -1.4647  0.1490  1.1700
   48MOL0     H 6607   8.634   9.451   4.533  0.7811  0.2954  1.5676
   48MOL0     H 6608   6.852   9.386   3.727  0.2808 -0.5527  0.8496
   48MOL0     H 6609   6.827   9.458   3.509  0.6272 -0.1374 -1.0221
   48MOL0     H 6610   6.686   9.720   3.217 -1.2182 -0.1332 -0.6838
   48MOL0     H 6611   6.615   9.804   3.013 -0.0975 -0.6163  2.7343
   48MOL0     H 6612   6.847  10.124   2.786  0.5579  0.6929  1.1944
   48MOL0     H 6613   6.706  10.105   2.693 -1.8629 -1.2317  0.5381
   48MOL0     H 6614   6.716  10.326   2.808 -0.0449 -0.1536 -1.6910
   48MOL0     H 6615   6.731  10.243   2.967  1.9753  0.4879 -1.0575
   48MOL0     H 6616   6.484  10.192   2.800  1.1511 -0.9241 -1.0591
   48MOL0     H 6617   6.515  10.185   2.977  1.0802 -0.0820 -1.1574
   48MOL0     H 6618   6.374  10.397   2.897  0.6923  0.6640 -0.9958
   48MOL0     H 6619   6.530  10.440   2.813  0.2410 -0.0741 -1.2980
   48MOL0     H 6620   6.604  10.572   3.210 -1.9383  1.2589  0.2618
   48MOL0     H 6621   6.914  10.104   2.996  1.7223 -1.2762  0.6654
   48MOL0     H 6622   7.114   9.958   3.231 -2.2823 -2.5813 -3.0875
   48MOL0     H 6623   7.072  10.120   3.157 -0.0641 -0.0396  1.2386
   48MOL0     H 6624   7.032  10.087   3.325  1.5460  2.3585 -0.1230
   49MOL0     O 6625   4.197   4.359   8.969 -0.6061 -0.2700  0.0590
   49MOL0     C 6626   4.152   4.278   9.051  0.5769 -0.4506  0.5527
   49MOL0     O 6627   4.218   4.194   9.135  0.3850  0.3196 -0.3455
   49MOL0     C 6628   4.349   4.194   9.107 -0.4286 -0.4648  0.6699
   49MOL0     C 6629   4.425   4.301   9.137  0.1988  0.3107  0.0343
   49MOL0     C 6630   4.567   4.294   9.119 -0.6047 -0.7060  0.5959
   49MOL0     C 6631   4.628   4.180   9.079  0.1766  0.0142 -0.3188
   49MOL0     O 6632   4.764   4.177   9.066 -0.5832 -0.0524 -0.5403
   49MOL0     C 6633   4.813   4.112   8.940 -0.0331 -0.2022  0.2280
   49MOL0     C 6634   4.904   4.215   8.873 -0.5176  0.4468 -0.3398
   49MOL0     C 6635   5.050   4.220   8.947 -0.2319  0.6459 -0.5224
   49MOL0     C 6636   5.119   4.339   8.888 -0.9879  0.1115 -0.5238
   49MOL0     C 6637   5.271   4.342   8.928  0.3540  0.6963  0.8075
   49MOL0     C 6638   5.363   4.262   8.828  0.6117  0.6699 -0.1241
   49MOL0     C 6639   5.500   4.245   8.880 -0.5005 -0.1844 -0.4817
   49MOL0     C 6640   5.571   4.379   8.882  0.1002  0.7914  0.2900
   49MOL0     N 6641   5.714   4.363   8.872  0.6460 -0.8397  0.3255
   49MOL0     C 6642   5.773   4.336   8.749  0.0799 -0.3512  0.8942
   49MOL0     C 6643   5.906   4.318   8.782 -0.3861 -0.0186 -0.3494
   49MOL0     C 6644   6.022   4.273   8.700  0.2629  0.1001 -0.9537
   49MOL0     C 6645   6.069   4.126   8.710 -0.2453  0.5488 -0.6821
   49MOL0     C 6646   5.955   4.022   8.721  0.0072 -0.0175  0.1076
   49MOL0     C 6647   6.025   3.894   8.758 -0.6868 -0.2339  0.1109
   49MOL0     O 6648   5.922   3.807   8.780  0.2183  0.6765 -0.2709
   49MOL0     C 6649   5.949   3.673   8.813 -0.3934 -0.6713 -0.0666
   49MOL0     C 6650   6.077   3.615   8.783 -0.0530  1.0552  0.5009
   49MOL0     C 6651   6.087   3.470   8.787  0.1126 -0.1801 -0.9774
   49MOL0     C 6652   6.217   3.406   8.742  0.2265 -0.5820  0.3206
   49MOL0     C 6653   5.967   3.388   8.822 -0.7750 -0.0547  0.4539
   49MOL0     C 6654   5.973   3.242   8.827 -0.2769 -0.0500  0.3641
   49MOL0     O 6655   6.084   3.176   8.860 -0.1241 -0.1578  0.3031
   49MOL0     C 6656   6.103   3.038   8.878  1.0399  0.0873  0.4719
   49MOL0     C 6657   6.003   2.932   8.891  0.0514 -0.1620 -0.8973
   49MOL0     C 6658   6.041   2.795   8.906  0.3527 -0.4543 -0.2687
   49MOL0     C 6659   6.178   2.768   8.900 -0.2182  0.6114  0.1616
   49MOL0     O 6660   6.214   2.639   8.938  0.1487  0.5242 -0.5789
   49MOL0     C 6661   6.348   2.606   8.972 -0.3006  0.7969  0.0190
   49MOL0     C 6662   6.336   2.456   9.013  0.3935  0.0728  0.3597
   49MOL0     C 6663   6.458   2.392   9.087  0.1028  0.1895  0.0986
   49MOL0     C 6664   6.583   2.409   8.999 -0.1672  0.2595 -0.7295
   49MOL0     C 6665   6.692   2.308   9.028  0.0673  0.6162  0.5542
   49MOL0     C 6666   6.751   2.336   9.169  0.1234 -0.6397  0.1094
   49MOL0     C 6667   6.846   2.224   9.198 -0.1451  0.2542 -1.1712
   49MOL0     C 6668   6.896   2.238   9.338 -1.1629  0.8748  0.1310
   49MOL0    Cl 6669   6.781   2.276   9.476  0.2715  0.3642 -0.2116
   49MOL0     C 6670   6.278   2.868   8.882  0.3737 -0.1798 -0.2357
   49MOL0     C 6671   6.235   3.000   8.872  0.0285  0.5101  0.2276
   49MOL0     O 6672   5.877   3.186   8.778 -0.5156 -0.4897 -0.4633
   49MOL0     C 6673   5.859   3.452   8.884 -0.1562 -0.4693  0.6911
   49MOL0     C 6674   5.853   3.594   8.875  0.0473  1.1000  0.4592
   49MOL0     N 6675   5.919   4.342   8.913 -0.2542 -0.3743  0.3975
   49MOL0     N 6676   5.806   4.379   8.966 -1.1861  0.6115  0.1228
   49MOL0     C 6677   4.556   4.054   9.066  0.1132 -0.6336  0.1140
   49MOL0     C 6678   4.417   4.066   9.071  0.7978 -0.6331  0.5023
   49MOL0     C 6679   3.998   4.280   9.064 -0.3929 -0.0191 -0.3984
   49MOL0     C 6680   3.955   4.229   9.195  0.1486  0.2989  1.4192
   49MOL0     C 6681   3.817   4.209   9.210 -0.3754  0.2748  0.1210
   49MOL0     C 6682   3.725   4.239   9.113 -0.0200 -0.1551  0.3335
   49MOL0     O 6683   3.596   4.224   9.131 -0.1810 -0.5653  0.4410
   49MOL0     C 6684   3.547   4.126   9.216  0.2084 -0.2230  0.1675
   49MOL0     C 6685   3.493   4.189   9.346  1.2003  0.4714 -0.1992
   49MOL0     C 6686   3.378   4.283   9.328 -0.4580 -0.0745 -0.1311
   49MOL0     C 6687   3.280   4.295   9.455 -0.4204  1.0768 -0.3690
   49MOL0     C 6688   3.203   4.408   9.416 -0.3128  0.1977 -0.0046
   49MOL0     C 6689   3.140   4.505   9.384  0.3691  0.5634 -0.7556
   49MOL0     C 6690   3.766   4.284   8.987  0.1895 -0.4842  0.7000
   49MOL0     C 6691   3.900   4.304   8.958 -0.0903 -0.5594 -0.4746
   49MOL0     C 6692   3.931   4.354   8.819 -0.5363  1.2403  0.1143
   49MOL0     H 6693   4.367   4.385   9.175 -1.3083 -1.4486  1.7795
   49MOL0     H 6694   4.625   4.384   9.137 -0.8297 -0.2555 -0.7993
   49MOL0     H 6695   4.740   4.079   8.865  0.8343 -3.5183  0.6916
   49MOL0     H 6696   4.873   4.025   8.969  0.2606 -0.2959 -0.6352
   49MOL0     H 6697   4.912   4.186   8.768  0.4958 -1.0686  0.1092
   49MOL0     H 6698   4.863   4.316   8.875 -2.1056 -0.1407 -1.6511
   49MOL0     H 6699   5.046   4.241   9.054  0.3929 -0.4878 -0.2549
   49MOL0     H 6700   5.110   4.130   8.929 -1.8744 -0.4301 -0.8183
   49MOL0     H 6701   5.114   4.349   8.779 -2.6945  1.8499 -0.3357
   49MOL0     H 6702   5.069   4.431   8.917  0.5676  1.1300 -0.9458
   49MOL0     H 6703   5.278   4.302   9.030 -0.0658 -3.7179 -0.6640
   49MOL0     H 6704   5.308   4.445   8.921 -0.1315  0.8134 -0.0789
   49MOL0     H 6705   5.320   4.163   8.809 -2.3396  2.4556 -4.5750
   49MOL0     H 6706   5.342   4.309   8.731  0.0142  2.3146  0.7728
   49MOL0     H 6707   5.548   4.188   8.801  1.1446  1.1632 -0.4972
   49MOL0     H 6708   5.509   4.195   8.977  2.1861 -1.1977 -1.1690
   49MOL0     H 6709   5.539   4.455   8.809 -1.8532  0.1544  0.4408
   49MOL0     H 6710   5.556   4.434   8.976 -0.2527  0.4111  0.4579
   49MOL0     H 6711   5.730   4.304   8.655  1.6767 -1.0418  0.3682
   49MOL0     H 6712   6.111   4.335   8.715 -0.1178  0.1814  1.4242
   49MOL0     H 6713   5.997   4.300   8.598 -0.8958  1.0107 -0.4458
   49MOL0     H 6714   6.115   4.085   8.619 -1.6415 -2.6147 -0.1028
   49MOL0     H 6715   6.138   4.112   8.793  1.5240  1.1062 -1.9741
   49MOL0     H 6716   5.883   4.060   8.794  0.0931  1.8581 -0.7248
   49MOL0     H 6717   5.902   4.006   8.626 -0.1299 -2.1618  0.5115
   49MOL0     H 6718   6.098   3.856   8.686  1.2918 -3.5713  3.4985
   49MOL0     H 6719   6.085   3.916   8.846  0.0949  1.5608 -0.8074
   49MOL0     H 6720   6.162   3.674   8.749  1.0966  0.7831  2.7543
   49MOL0     H 6721   6.277   3.371   8.826 -0.8066 -1.3399  0.7656
   49MOL0     H 6722   6.278   3.478   8.687  1.1821 -1.1357  0.6355
   49MOL0     H 6723   6.201   3.325   8.670  0.4202  0.1520 -0.5693
   49MOL0     H 6724   5.898   2.957   8.897 -0.6062 -2.9483  0.7736
   49MOL0     H 6725   5.982   2.707   8.930  0.2212  0.4302  3.1832
   49MOL0     H 6726   6.420   2.619   8.890 -0.3065  3.3420  0.3499
   49MOL0     H 6727   6.387   2.657   9.060  0.0700  1.9549 -0.7934
   49MOL0     H 6728   6.249   2.438   9.076  1.5019 -0.4657  1.8086
   49MOL0     H 6729   6.312   2.395   8.925 -0.2599 -0.0103  0.5913
   49MOL0     H 6730   6.452   2.286   9.112  0.3375  0.4527  1.3636
   49MOL0     H 6731   6.460   2.443   9.184 -3.1347  1.0433 -0.1538
   49MOL0     H 6732   6.620   2.506   9.032  0.3057  0.0704 -0.6851
   49MOL0     H 6733   6.551   2.411   8.894 -1.1264  3.0978 -0.4480
   49MOL0     H 6734   6.644   2.210   9.021 -0.2281  0.8287 -0.6086
   49MOL0     H 6735   6.772   2.309   8.953  0.8637  0.0636  1.3831
   49MOL0     H 6736   6.679   2.348   9.251  4.4107 -1.6097  4.5176
   49MOL0     H 6737   6.805   2.431   9.158 -2.3781  0.6729 -1.5673
   49MOL0     H 6738   6.921   2.224   9.118 -1.5475  0.6736 -2.5344
   49MOL0     H 6739   6.793   2.128   9.193  1.2982 -0.5438 -1.7167
   49MOL0     H 6740   6.978   2.309   9.351 -0.2145  0.0484 -1.1263
   49MOL0     H 6741   6.942   2.140   9.356 -0.3054  0.9003 -1.7205
   49MOL0     H 6742   6.381   2.834   8.880  1.0627  1.1443  3.6464
   49MOL0     H 6743   6.314   3.073   8.856  1.4386 -0.3923  2.6446
   49MOL0     H 6744   5.776   3.395   8.923 -0.8179 -0.4459 -0.6414
   49MOL0     H 6745   5.763   3.646   8.907 -1.7097  2.0384 -5.0112
   49MOL0     H 6746   4.609   3.963   9.039  0.2786 -1.7038  3.5983
   49MOL0     H 6747   4.364   3.974   9.048  1.6567 -0.5236 -2.2315
   49MOL0     H 6748   4.013   4.212   9.285  1.8340 -1.7519  0.0686
   49MOL0     H 6749   3.792   4.168   9.308 -0.0864 -0.3506 -0.0658
   49MOL0     H 6750   3.473   4.073   9.155  0.2398 -1.4496  1.1477
   49MOL0     H 6751   3.617   4.044   9.237 -1.0229 -1.1996  0.5945
   49MOL0     H 6752   3.569   4.246   9.402  0.4746  0.1677  1.1163
   49MOL0     H 6753   3.457   4.113   9.415 -1.2962 -0.0935 -2.0233
   49MOL0     H 6754   3.427   4.381   9.317  2.8961 -1.7935 -2.2617
   49MOL0     H 6755   3.325   4.259   9.235  0.4514 -1.2359 -0.3768
   49MOL0     H 6756   3.337   4.308   9.547 -1.3604 -0.8068  0.5191
   49MOL0     H 6757   3.220   4.205   9.472  1.2513 -0.0133 -0.0193
   49MOL0     H 6758   3.077   4.585   9.351 -4.2611 -2.0001  0.8015
   49MOL0     H 6759   3.689   4.307   8.914  3.2950  2.0014 -2.1368
   49MOL0     H 6760   3.837   4.390   8.777 -0.5858 -0.5879 -1.5080
   49MOL0     H 6761   3.997   4.440   8.830 -0.1063  0.7562  1.5815
   49MOL0     H 6762   3.984   4.277   8.761  0.6342 -0.2117  2.9085
   50MOL0     O 6763  10.399  11.147   5.533 -0.6654 -0.0192 -0.1380
   50MOL0     C 6764  10.292  11.208   5.563 -1.0518 -0.0813 -0.5550
   50MOL0     O 6765  10.220  11.282   5.471 -0.7358 -0.1329  1.0165
   50MOL0     C 6766  10.261  11.276   5.344  0.9468  0.8564  0.2495
   50MOL0     C 6767  10.189  11.190   5.258 -0.0596  0.9633  0.6939
   50MOL0     C 6768  10.211  11.198   5.120 -1.1671  0.8262  0.7492
   50MOL0     C 6769  10.320  11.276   5.072  0.5982  0.4244 -0.0343
   50MOL0     O 6770  10.347  11.292   4.940 -0.2372 -0.3916 -0.6951
   50MOL0     C 6771  10.251  11.256   4.835 -0.1406 -0.4005 -0.7319
   50MOL0     C 6772  10.298  11.126   4.761  0.2344 -0.3074  0.8185
   50MOL0     C 6773  10.422  11.149   4.677 -0.4979 -0.0932 -0.8135
   50MOL0     C 6774  10.491  11.016   4.648 -0.9439  0.0254  0.8037
   50MOL0     C 6775  10.647  11.039   4.611  0.3532 -0.7850  0.1459
   50MOL0     C 6776  10.730  10.912   4.616 -0.2107 -0.5887  0.0153
   50MOL0     C 6777  10.883  10.934   4.596  0.3828 -0.4729  0.2201
   50MOL0     C 6778  10.950  10.816   4.664 -0.5901  0.0775 -0.1949
   50MOL0     N 6779  11.081  10.774   4.609  0.6545  0.0482  0.3682
   50MOL0     C 6780  11.189  10.848   4.564  0.3911  0.0239 -0.2651
   50MOL0     C 6781  11.265  10.759   4.499 -0.4306 -0.0823 -0.8060
   50MOL0     C 6782  11.387  10.796   4.429 -0.6707 -0.0831 -1.0206
   50MOL0     C 6783  11.509  10.787   4.529  0.0098  0.6361  0.7230
   50MOL0     C 6784  11.525  10.914   4.614 -0.0993 -0.1517 -0.2580
   50MOL0     C 6785  11.579  10.883   4.757  0.3501  0.4233  0.3710
   50MOL0     O 6786  11.681  10.782   4.769 -0.3673 -0.0348  0.0287
   50MOL0     C 6787  11.812  10.814   4.760 -0.5095 -0.3631 -0.7869
   50MOL0     C 6788  11.861  10.942   4.730 -0.5516 -0.2979 -1.2510
   50MOL0     C 6789  11.998  10.968   4.723 -0.3134  0.7699  0.7252
   50MOL0     C 6790  12.042  11.109   4.681  0.4504  0.5408 -0.1421
   50MOL0     C 6791  12.093  10.858   4.742 -0.4676  1.1678 -0.2597
   50MOL0     C 6792  12.241  10.875   4.734 -0.6535 -0.4543  0.5825
   50MOL0     O 6793  12.323  10.771   4.753  0.7898  0.5420 -0.2671
   50MOL0     C 6794  12.453  10.778   4.748  0.3582  0.1007 -0.5595
   50MOL0     C 6795  12.532  10.870   4.825  0.4269 -0.6850 -0.3001
   50MOL0     C 6796  12.674  10.857   4.826 -0.2830  0.3965 -0.5950
   50MOL0     C 6797  12.729  10.755   4.750  0.0530 -0.6413  1.0378
   50MOL0     O 6798  12.873  10.750   4.744  0.1950  0.2726 -0.3403
   50MOL0     C 6799  12.924  10.630   4.683  0.3246 -0.2372 -0.5250
   50MOL0     C 6800  13.069  10.608   4.733 -0.0644  0.2411 -0.9424
   50MOL0     C 6801  13.170  10.716   4.688  0.7635  0.9293 -0.3287
   50MOL0     C 6802  13.314  10.673   4.719  0.2550 -0.1752  0.2504
   50MOL0     C 6803  13.404  10.787   4.665  0.3985  0.2897 -0.5227
   50MOL0     C 6804  13.539  10.791   4.729  0.5916  0.5809 -0.2109
   50MOL0     C 6805  13.624  10.673   4.699 -0.1581 -0.5031  0.8362
   50MOL0     C 6806  13.769  10.679   4.761 -0.3179 -0.1013  0.7027
   50MOL0    Cl 6807  13.763  10.762   4.916  0.6050 -0.1410  0.0705
   50MOL0     C 6808  12.645  10.672   4.672  0.4244  0.8612  0.0155
   50MOL0     C 6809  12.509  10.674   4.678 -0.6473  0.3688 -0.3905
   50MOL0     O 6810  12.284  10.989   4.714  0.3275  0.5335  0.1268
   50MOL0     C 6811  12.044  10.731   4.767 -0.4154 -0.2532 -0.3821
   50MOL0     C 6812  11.907  10.707   4.781  0.9890  0.3639 -0.1974
   50MOL0     N 6813  11.211  10.636   4.505 -0.7413  0.6315 -1.2956
   50MOL0     N 6814  11.105  10.649   4.567  0.2037 -0.1575  0.0396
   50MOL0     C 6815  10.393  11.344   5.164  0.5753 -0.4880 -0.5913
   50MOL0     C 6816  10.358  11.358   5.293  0.1514  0.0261  0.0541
   50MOL0     C 6817  10.235  11.214   5.703 -0.3776  0.6518  0.5025
   50MOL0     C 6818  10.138  11.306   5.729  0.0481  0.2075  0.0771
   50MOL0     C 6819  10.056  11.298   5.844 -0.5491 -0.6850  0.2340
   50MOL0     C 6820  10.084  11.212   5.953  0.5943 -0.5302  1.0746
   50MOL0     O 6821  10.005  11.202   6.062  0.1770 -0.0489 -0.8680
   50MOL0     C 6822   9.875  11.265   6.067 -0.5461 -0.1942 -0.4018
   50MOL0     C 6823   9.790  11.176   6.160 -0.0095  0.7295 -0.0693
   50MOL0     C 6824   9.647  11.202   6.141  0.2828 -0.4329  0.3167
   50MOL0     C 6825   9.554  11.115   6.223 -0.1546 -0.4552 -0.6025
   50MOL0     C 6826   9.574  11.122   6.369  0.8217  0.3072  0.5803
   50MOL0     C 6827   9.589  11.117   6.491  0.1316  0.2731 -0.5659
   50MOL0     C 6828  10.197  11.121   5.938  0.6319 -1.0887 -0.0830
   50MOL0     C 6829  10.269  11.118   5.811 -0.5685  0.9170 -0.2893
   50MOL0     C 6830  10.368  11.012   5.791  0.7150 -1.2703  0.2779
   50MOL0     H 6831  10.111  11.122   5.292  2.0880 -1.5346  0.9217
   50MOL0     H 6832  10.155  11.144   5.044  0.3290  1.1621 -0.6634
   50MOL0     H 6833  10.252  11.341   4.767  2.1285 -0.3258 -0.6789
   50MOL0     H 6834  10.146  11.237   4.857 -0.4520 -0.6885 -2.3541
   50MOL0     H 6835  10.311  11.045   4.834 -1.1473  1.1744  2.8333
   50MOL0     H 6836  10.221  11.096   4.689  1.2476 -2.0007  0.3910
   50MOL0     H 6837  10.416  11.194   4.577  2.4058  2.2553 -0.0506
   50MOL0     H 6838  10.485  11.223   4.727 -1.4380  1.1298 -1.3855
   50MOL0     H 6839  10.485  10.945   4.731 -1.0926 -1.1711 -0.2146
   50MOL0     H 6840  10.438  10.969   4.564 -0.2116  1.0706 -0.2669
   50MOL0     H 6841  10.683  11.115   4.681  0.2700 -0.2448 -0.3880
   50MOL0     H 6842  10.648  11.073   4.507 -1.2781 -1.2831 -0.0617
   50MOL0     H 6843  10.718  10.869   4.716  1.8289 -3.0103 -0.6834
   50MOL0     H 6844  10.696  10.833   4.547  3.0345 -2.5935  0.5355
   50MOL0     H 6845  10.913  11.031   4.638  0.0658 -0.4042  0.2929
   50MOL0     H 6846  10.906  10.936   4.489 -0.9676  0.5194 -0.0756
   50MOL0     H 6847  10.966  10.841   4.769 -2.1146 -2.3989  0.6883
   50MOL0     H 6848  10.897  10.721   4.657  1.0909 -0.8221 -1.6360
   50MOL0     H 6849  11.202  10.953   4.591  2.2854 -0.9993  3.4659
   50MOL0     H 6850  11.397  10.897   4.388  3.3434  0.7729  1.5203
   50MOL0     H 6851  11.406  10.719   4.353  2.0761 -0.4616 -0.0544
   50MOL0     H 6852  11.501  10.694   4.586  1.4490 -0.2653 -0.4502
   50MOL0     H 6853  11.608  10.777   4.483  0.8451  0.3861  2.4614
   50MOL0     H 6854  11.592  10.981   4.559 -1.6032  0.6038 -1.2396
   50MOL0     H 6855  11.428  10.964   4.624 -0.1730  0.0420 -1.7387
   50MOL0     H 6856  11.616  10.973   4.807 -0.3512  1.5433 -1.0746
   50MOL0     H 6857  11.488  10.856   4.812  0.0438 -0.7449 -0.6742
   50MOL0     H 6858  11.791  11.024   4.715 -2.0734 -1.0407  1.1706
   50MOL0     H 6859  12.085  11.160   4.768  2.2124  1.3831 -1.4358
   50MOL0     H 6860  11.951  11.157   4.646 -0.1194 -0.0354  0.5245
   50MOL0     H 6861  12.114  11.109   4.599  1.2969  1.4034  0.5719
   50MOL0     H 6862  12.492  10.952   4.883 -0.1986 -1.0427 -0.2155
   50MOL0     H 6863  12.736  10.923   4.885  1.1545 -1.9596  0.7237
   50MOL0     H 6864  12.856  10.551   4.714 -0.1541  0.1674 -0.5368
   50MOL0     H 6865  12.920  10.638   4.573  0.8864  1.1546 -0.4755
   50MOL0     H 6866  13.067  10.603   4.842 -0.0386 -2.2386 -1.0064
   50MOL0     H 6867  13.103  10.511   4.696  2.7515  0.8789 -0.2556
   50MOL0     H 6868  13.137  10.801   4.749 -1.3223  0.1852 -0.3278
   50MOL0     H 6869  13.146  10.741   4.585 -1.5215  1.7645  0.3383
   50MOL0     H 6870  13.329  10.576   4.670 -2.0322  0.1307 -1.2120
   50MOL0     H 6871  13.328  10.663   4.827  1.7951  0.6955  0.1600
   50MOL0     H 6872  13.407  10.784   4.556 -0.6675  0.3036 -0.5616
   50MOL0     H 6873  13.343  10.876   4.684  2.4215  1.8264 -0.9166
   50MOL0     H 6874  13.529  10.800   4.838  0.3376  2.5503 -0.3500
   50MOL0     H 6875  13.594  10.880   4.699 -0.1812  0.5715 -1.7594
   50MOL0     H 6876  13.627  10.652   4.592 -0.1807 -1.1843  0.9610
   50MOL0     H 6877  13.571  10.587   4.742 -0.7794 -0.8415 -0.5443
   50MOL0     H 6878  13.833  10.726   4.686 -1.0688 -0.9665 -0.5446
   50MOL0     H 6879  13.811  10.581   4.786  5.0315  1.8276  0.5589
   50MOL0     H 6880  12.686  10.589   4.615 -2.7764 -0.9485  0.1065
   50MOL0     H 6881  12.449  10.604   4.620  0.9234 -1.5360  0.1976
   50MOL0     H 6882  12.108  10.646   4.789  0.7315  0.6953  0.0503
   50MOL0     H 6883  11.876  10.610   4.816  1.0827  0.8217  1.2229
   50MOL0     H 6884  10.483  11.392   5.127  0.9205 -0.5584  0.1414
   50MOL0     H 6885  10.415  11.424   5.359 -0.5031  1.6378 -0.9337
   50MOL0     H 6886  10.117  11.379   5.651  0.9651  1.3517  0.8559
   50MOL0     H 6887   9.979  11.375   5.851  1.8457  1.8810 -0.0802
   50MOL0     H 6888   9.886  11.365   6.110  1.3911 -0.9417  1.0193
   50MOL0     H 6889   9.840  11.248   5.965  0.4204 -2.2922 -0.4332
   50MOL0     H 6890   9.818  11.205   6.262  1.5475  1.6484 -0.7160
   50MOL0     H 6891   9.816  11.071   6.144 -3.3771 -0.6423  2.3686
   50MOL0     H 6892   9.635  11.305   6.175 -4.3768 -0.0469 -1.7622
   50MOL0     H 6893   9.629  11.196   6.033  1.4052 -0.7747  0.1345
   50MOL0     H 6894   9.566  11.014   6.184 -0.3190 -1.0885  0.9037
   50MOL0     H 6895   9.454  11.149   6.194 -0.2271 -0.2707 -0.1505
   50MOL0     H 6896   9.608  11.123   6.596 -2.1759 -2.3267  0.1082
   50MOL0     H 6897  10.231  11.054   6.016  2.7727  0.6703  0.5750
   50MOL0     H 6898  10.360  10.940   5.872  2.9576  0.1949  1.9348
   50MOL0     H 6899  10.347  10.953   5.701  0.3868  1.6003 -1.6828
   50MOL0     H 6900  10.466  11.060   5.780  0.6729 -0.9400  1.2976
   51MOL0     O 6901   2.321   1.038   2.832 -0.0741  0.9225  0.0839
   51MOL0     C 6902   2.249   1.099   2.910  0.6525  0.1897  0.0110
   51MOL0     O 6903   2.271   1.224   2.963 -0.2143  0.0478  0.0599
   51MOL0     C 6904   2.370   1.299   2.905 -0.1644 -0.4732 -0.3878
   51MOL0     C 6905   2.374   1.323   2.764  0.0979 -0.9102 -0.2559
   51MOL0     C 6906   2.471   1.404   2.701 -0.2551  0.3570  0.2163
   51MOL0     C 6907   2.576   1.449   2.785  0.2544 -0.4652  0.0643
   51MOL0     O 6908   2.683   1.510   2.730 -0.2635  0.3177 -0.0978
   51MOL0     C 6909   2.810   1.466   2.769 -0.0536 -0.0690 -0.2761
   51MOL0     C 6910   2.874   1.577   2.853 -0.4153  0.6451 -0.0182
   51MOL0     C 6911   3.026   1.544   2.862  0.1802  0.2472  0.4944
   51MOL0     C 6912   3.100   1.662   2.927 -0.5800 -0.0020 -0.1008
   51MOL0     C 6913   3.247   1.630   2.947 -0.0441  0.2757 -0.2384
   51MOL0     C 6914   3.322   1.758   2.980  0.2105 -0.0461  0.2974
   51MOL0     C 6915   3.464   1.728   2.994 -0.8573 -0.1380 -0.0853
   51MOL0     C 6916   3.509   1.667   3.132 -0.2890 -0.6252 -0.3144
   51MOL0     N 6917   3.605   1.750   3.205 -0.5816  0.1911 -0.1248
   51MOL0     C 6918   3.741   1.751   3.168  0.0357 -0.9426 -0.5022
   51MOL0     C 6919   3.802   1.820   3.263  0.1393 -0.3935 -0.8144
   51MOL0     C 6920   3.947   1.862   3.263 -0.0575 -0.1959  0.2474
   51MOL0     C 6921   4.050   1.776   3.338 -0.7022  0.3004 -0.0406
   51MOL0     C 6922   4.085   1.653   3.262 -0.4461 -0.7424 -0.2448
   51MOL0     C 6923   4.239   1.636   3.249  0.5416  0.7153 -0.6129
   51MOL0     O 6924   4.281   1.538   3.157  0.6026  0.3118 -0.4033
   51MOL0     C 6925   4.419   1.515   3.141 -0.1276 -0.0274 -0.2492
   51MOL0     C 6926   4.521   1.592   3.193  0.1211 -0.3285  0.0077
   51MOL0     C 6927   4.658   1.554   3.185  0.3389  0.3987  0.3460
   51MOL0     C 6928   4.752   1.653   3.244  0.1931  0.3867 -0.6209
   51MOL0     C 6929   4.692   1.432   3.124 -0.1452  0.9832  0.6740
   51MOL0     C 6930   4.827   1.363   3.118  0.0757  0.1401 -0.6738
   51MOL0     O 6931   4.828   1.230   3.087 -0.1880  0.0059 -0.1698
   51MOL0     C 6932   4.953   1.170   3.078 -0.0552  0.3485  0.8119
   51MOL0     C 6933   4.959   1.039   3.130  0.8499 -0.7242  0.6319
   51MOL0     C 6934   5.076   0.961   3.113 -1.1029 -0.1171 -0.1831
   51MOL0     C 6935   5.193   1.020   3.060 -0.5072  0.5339 -0.7810
   51MOL0     O 6936   5.307   0.935   3.059 -0.2206 -0.3262 -0.2125
   51MOL0     C 6937   5.430   1.009   3.051  0.5452 -0.1884  1.1116
   51MOL0     C 6938   5.551   0.921   3.069  0.1492  0.9481 -0.6957
   51MOL0     C 6939   5.554   0.845   3.206 -1.0304  0.6821 -0.0690
   51MOL0     C 6940   5.579   0.930   3.334 -0.6432 -0.5134  0.3353
   51MOL0     C 6941   5.555   0.842   3.455 -0.5955 -0.6387  0.3309
   51MOL0     C 6942   5.605   0.915   3.577 -0.5045  1.1299 -0.0966
   51MOL0     C 6943   5.509   1.014   3.646  0.0299  0.2948 -0.6331
   51MOL0     C 6944   5.403   0.935   3.723  0.3961  0.6092  0.1057
   51MOL0    Cl 6945   5.463   0.878   3.886 -0.5772  0.4179 -0.0717
   51MOL0     C 6946   5.189   1.149   3.025  0.0980 -0.3241 -0.0039
   51MOL0     C 6947   5.067   1.220   3.015 -0.3820 -0.0819 -0.7614
   51MOL0     O 6948   4.929   1.420   3.165 -0.5517  0.1990  0.9158
   51MOL0     C 6949   4.589   1.356   3.072  0.3648 -0.6033  0.0052
   51MOL0     C 6950   4.456   1.396   3.076 -0.5258  0.4523 -0.2338
   51MOL0     N 6951   3.709   1.847   3.365 -0.3205  0.0190  0.5421
   51MOL0     N 6952   3.592   1.807   3.325  0.4012 -0.1406 -0.0959
   51MOL0     C 6953   2.575   1.418   2.923 -0.0088 -0.1760 -0.5334
   51MOL0     C 6954   2.472   1.345   2.981 -0.0797 -0.5401  0.2854
   51MOL0     C 6955   2.120   1.035   2.947  0.3858  0.4579 -0.3034
   51MOL0     C 6956   2.025   0.987   2.846 -0.0207  0.2680  0.3033
   51MOL0     C 6957   1.909   0.911   2.885  0.8603 -0.2456  0.0231
   51MOL0     C 6958   1.872   0.895   3.019  0.3472 -0.0777 -0.4001
   51MOL0     O 6959   1.746   0.841   3.039 -0.0672 -0.2999 -0.1363
   51MOL0     C 6960   1.682   0.911   3.152 -0.1766 -0.3881 -0.5024
   51MOL0     C 6961   1.530   0.891   3.146 -0.4494  0.0391  0.8166
   51MOL0     C 6962   1.479   0.744   3.120  0.5981 -0.1210  0.1486
   51MOL0     C 6963   1.326   0.738   3.078  0.7883 -0.8900 -0.2783
   51MOL0     C 6964   1.251   0.700   3.194  0.5996 -0.2016 -0.6906
   51MOL0     C 6965   1.197   0.679   3.295 -0.0039  0.4893  0.4489
   51MOL0     C 6966   1.963   0.947   3.114  0.3733  1.4867  0.2804
   51MOL0     C 6967   2.084   1.010   3.082 -0.8047  1.0739  0.4847
   51MOL0     C 6968   2.184   1.042   3.200 -0.3580  0.1940  0.2195
   51MOL0     H 6969   2.287   1.297   2.704  0.2328  2.4385 -2.1748
   51MOL0     H 6970   2.475   1.429   2.596 -1.4983  2.4003  0.5842
   51MOL0     H 6971   2.876   1.461   2.682  1.4433  1.8116  0.6574
   51MOL0     H 6972   2.825   1.369   2.818  4.4066  0.1903 -0.7049
   51MOL0     H 6973   2.864   1.672   2.799 -1.3415 -0.8957 -2.7535
   51MOL0     H 6974   2.828   1.588   2.952  1.2161  0.8807  0.7460
   51MOL0     H 6975   3.039   1.451   2.918 -0.4662 -1.0414 -1.4094
   51MOL0     H 6976   3.072   1.514   2.767  0.4965 -2.5994  1.4489
   51MOL0     H 6977   3.094   1.743   2.854 -0.2420 -1.5753 -1.9683
   51MOL0     H 6978   3.058   1.692   3.023 -2.4822 -1.5504 -0.3778
   51MOL0     H 6979   3.281   1.590   2.851  3.1495  0.9446  0.5064
   51MOL0     H 6980   3.258   1.557   3.028 -0.2689  0.9001  0.3617
   51MOL0     H 6981   3.319   1.829   2.897  0.1963  3.0212  2.7278
   51MOL0     H 6982   3.280   1.803   3.071  2.5089 -0.5474  1.6863
   51MOL0     H 6983   3.519   1.822   2.986 -3.3954  1.7073  2.1704
   51MOL0     H 6984   3.512   1.678   2.910 -0.5975  0.8615 -0.5404
   51MOL0     H 6985   3.423   1.665   3.199 -0.3273 -0.7433 -0.3648
   51MOL0     H 6986   3.538   1.562   3.117 -3.2804 -1.9084  1.7530
   51MOL0     H 6987   3.795   1.707   3.085  1.0656 -0.3913 -0.1390
   51MOL0     H 6988   3.950   1.963   3.306 -2.7755  0.2231 -0.3927
   51MOL0     H 6989   3.976   1.870   3.158 -2.8172  0.3677 -0.5507
   51MOL0     H 6990   4.133   1.846   3.351 -2.6040  2.2991  2.5361
   51MOL0     H 6991   4.018   1.751   3.439 -2.0426 -1.8588 -0.9425
   51MOL0     H 6992   4.041   1.565   3.310  1.6433 -0.6494  2.0454
   51MOL0     H 6993   4.039   1.663   3.163 -0.5302 -1.8944 -0.3308
   51MOL0     H 6994   4.279   1.735   3.225  0.4115  1.8164  3.0955
   51MOL0     H 6995   4.282   1.601   3.343 -0.9612 -0.6034 -0.3691
   51MOL0     H 6996   4.497   1.693   3.224  0.0883  0.6303 -2.8426
   51MOL0     H 6997   4.858   1.631   3.226  0.2850  0.0953  0.2392
   51MOL0     H 6998   4.735   1.654   3.352  1.6991 -0.9791 -0.3286
   51MOL0     H 6999   4.738   1.746   3.189  1.6440  0.6891 -0.5344
   51MOL0     H 7000   4.867   1.010   3.179  0.6501 -0.7965  0.2186
   51MOL0     H 7001   5.090   0.860   3.151 -0.8754 -0.5645 -1.4081
   51MOL0     H 7002   5.430   1.066   2.958  0.0287 -1.5248  0.2548
   51MOL0     H 7003   5.412   1.090   3.123 -0.6052  0.0158  0.6168
   51MOL0     H 7004   5.560   0.844   2.991 -1.0117  0.0653  0.0179
   51MOL0     H 7005   5.636   0.990   3.069  0.3655  0.6881 -0.9686
   51MOL0     H 7006   5.639   0.776   3.194 -1.0946  0.8815 -2.0292
   51MOL0     H 7007   5.454   0.802   3.213 -1.3013  1.4559  1.3902
   51MOL0     H 7008   5.509   1.013   3.328  0.7725  0.6798 -0.5111
   51MOL0     H 7009   5.675   0.981   3.324 -1.5177  0.7514 -3.0054
   51MOL0     H 7010   5.447   0.825   3.458 -0.4823 -1.2943  2.0378
   51MOL0     H 7011   5.611   0.748   3.445 -2.0385 -1.3697 -1.4733
   51MOL0     H 7012   5.700   0.968   3.567 -1.6933  3.1940 -1.1186
   51MOL0     H 7013   5.624   0.837   3.652  0.6237  0.6801 -0.8139
   51MOL0     H 7014   5.477   1.088   3.572  0.8810  1.0781 -0.2379
   51MOL0     H 7015   5.577   1.064   3.716  0.3361 -0.9295 -0.0265
   51MOL0     H 7016   5.378   0.849   3.661  0.7087 -0.6290  1.6550
   51MOL0     H 7017   5.317   1.001   3.737  1.4664  2.1260 -0.1266
   51MOL0     H 7018   5.278   1.200   2.989 -0.9900  0.9826 -0.9094
   51MOL0     H 7019   5.058   1.317   2.969 -1.5975  1.0832  1.7211
   51MOL0     H 7020   4.595   1.254   3.035  1.9052 -0.7208  0.5203
   51MOL0     H 7021   4.372   1.337   3.039 -1.1658  0.6909  0.8045
   51MOL0     H 7022   2.648   1.454   2.994 -1.2909 -3.0278  2.4739
   51MOL0     H 7023   2.474   1.329   3.088  4.5443 -1.8211  0.2564
   51MOL0     H 7024   2.039   0.996   2.739 -4.2295  0.6604 -0.3737
   51MOL0     H 7025   1.850   0.857   2.811  2.5129 -0.8420 -0.9170
   51MOL0     H 7026   1.721   0.884   3.250 -0.7705 -3.5928 -1.0356
   51MOL0     H 7027   1.697   1.019   3.140  2.0249 -0.0309  3.6669
   51MOL0     H 7028   1.489   0.964   3.076  2.0892  0.3617 -0.4516
   51MOL0     H 7029   1.500   0.910   3.250 -1.0063 -0.0203  0.6675
   51MOL0     H 7030   1.547   0.691   3.053  1.1220  0.8455 -0.1131
   51MOL0     H 7031   1.499   0.695   3.216 -1.8762 -0.3722  0.5851
   51MOL0     H 7032   1.319   0.663   2.998  1.9161  0.1626 -1.4014
   51MOL0     H 7033   1.295   0.829   3.027  0.9043 -0.8457 -0.2706
   51MOL0     H 7034   1.145   0.670   3.388 -0.3255 -2.0704  0.0887
   51MOL0     H 7035   1.948   0.922   3.219  1.9242  0.4973  0.2957
   51MOL0     H 7036   2.285   1.049   3.158 -0.7780 -0.0531 -0.8693
   51MOL0     H 7037   2.169   1.141   3.244  3.2590  0.0842  2.0403
   51MOL0     H 7038   2.176   0.964   3.276  0.6108  0.1610  0.3058
   52MOL0     O 7039  10.136   4.290   3.644 -0.5546 -0.2332  0.9266
   52MOL0     C 7040  10.056   4.209   3.687  0.5417  0.1758  0.7439
   52MOL0     O 7041  10.082   4.074   3.702  0.4411  0.7265 -0.4164
   52MOL0     C 7042  10.212   4.039   3.659  0.2374 -0.0240 -0.5673
   52MOL0     C 7043  10.335   4.097   3.683 -0.2636 -0.0130  0.1328
   52MOL0     C 7044  10.456   4.056   3.629  0.4557  0.4239  0.1755
   52MOL0     C 7045  10.453   3.943   3.545 -0.0369  0.3859 -0.6855
   52MOL0     O 7046  10.567   3.883   3.514  1.0625 -0.7354  0.8851
   52MOL0     C 7047  10.655   3.949   3.431 -0.7285  0.0307  0.4235
   52MOL0     C 7048  10.614   3.938   3.283 -0.1512  0.6971  0.1685
   52MOL0     C 7049  10.729   3.986   3.198  0.4832 -0.8165  0.9067
   52MOL0     C 7050  10.694   4.122   3.129  0.2613 -0.9683  0.9265
   52MOL0     C 7051  10.798   4.179   3.032 -0.3659  0.2248 -0.1022
   52MOL0     C 7052  10.917   4.255   3.098 -0.1890  0.5072  0.4906
   52MOL0     C 7053  11.022   4.308   2.997 -0.0293 -1.1169 -0.3383
   52MOL0     C 7054  11.156   4.314   3.070  0.2369  0.1296 -0.6255
   52MOL0     N 7055  11.264   4.355   2.984 -0.3631  0.0323 -0.8256
   52MOL0     C 7056  11.398   4.330   3.014  0.4174  0.0332  0.2841
   52MOL0     C 7057  11.463   4.407   2.919 -0.2357  0.6853  0.0722
   52MOL0     C 7058  11.612   4.423   2.910 -0.8734 -0.7902  0.3188
   52MOL0     C 7059  11.670   4.566   2.935  0.8143  0.2372  0.5394
   52MOL0     C 7060  11.814   4.572   2.897 -0.7934  0.2377  0.4337
   52MOL0     C 7061  11.898   4.519   3.017 -0.7072  0.0738 -0.4387
   52MOL0     O 7062  11.910   4.619   3.121 -0.4543  0.0327 -0.2757
   52MOL0     C 7063  12.005   4.590   3.218  1.1278 -0.6339 -0.6356
   52MOL0     C 7064  12.031   4.698   3.309 -0.4446  0.7237 -0.6516
   52MOL0     C 7065  12.122   4.681   3.416  0.3543 -0.3085  0.5321
   52MOL0     C 7066  12.130   4.799   3.516 -0.1942 -0.1727  0.7825
   52MOL0     C 7067  12.187   4.558   3.436 -0.6863  0.4396 -0.4621
   52MOL0     C 7068  12.282   4.527   3.552 -0.4132  0.2735  1.3452
   52MOL0     O 7069  12.313   4.396   3.558 -0.4686  0.2555  0.2131
   52MOL0     C 7070  12.407   4.362   3.654 -1.0484  0.5217  0.0405
   52MOL0     C 7071  12.553   4.372   3.627  0.3550  0.9291  0.5249
   52MOL0     C 7072  12.647   4.338   3.728  0.2738  0.1182  0.6882
   52MOL0     C 7073  12.601   4.293   3.855  0.7018 -0.2655  0.3676
   52MOL0     O 7074  12.693   4.263   3.958  0.1462 -0.4506  0.1122
   52MOL0     C 7075  12.682   4.140   4.036 -0.1734 -0.5877 -0.4998
   52MOL0     C 7076  12.810   4.112   4.114  0.1465 -0.2078  1.4279
   52MOL0     C 7077  12.812   3.971   4.178  0.5644  0.4543  0.6182
   52MOL0     C 7078  12.915   3.964   4.292  0.3589 -0.1331 -0.4370
   52MOL0     C 7079  12.889   3.846   4.384 -1.1472  0.0521 -0.0424
   52MOL0     C 7080  13.008   3.833   4.479 -0.1821  0.4651 -0.1778
   52MOL0     C 7081  13.004   3.685   4.526  0.0579 -0.3179  0.3202
   52MOL0     C 7082  13.125   3.652   4.613  0.1023 -0.3218  0.0072
   52MOL0    Cl 7083  13.129   3.758   4.762  0.0807  0.1210 -0.4766
   52MOL0     C 7084  12.462   4.279   3.873 -0.3986 -0.1081  1.1175
   52MOL0     C 7085  12.365   4.323   3.783 -0.5925 -0.2718 -0.9287
   52MOL0     O 7086  12.337   4.612   3.612 -0.1874  0.2659 -0.1362
   52MOL0     C 7087  12.163   4.456   3.340  0.2516  0.0396  0.1005
   52MOL0     C 7088  12.081   4.476   3.230 -1.0372  0.0368 -0.4528
   52MOL0     N 7089  11.374   4.473   2.845  0.3212 -0.0608  0.5047
   52MOL0     N 7090  11.253   4.444   2.881 -0.4163  0.1726  0.2075
   52MOL0     C 7091  10.338   3.880   3.511  0.2764 -0.4611  0.3598
   52MOL0     C 7092  10.219   3.923   3.573 -0.3373 -0.3032  0.2941
   52MOL0     C 7093   9.908   4.241   3.719 -0.2944 -0.8921  1.2599
   52MOL0     C 7094   9.823   4.156   3.787 -0.2219 -0.9836  1.2914
   52MOL0     C 7095   9.693   4.195   3.820 -0.0050 -0.2137  0.5253
   52MOL0     C 7096   9.639   4.316   3.776 -0.1393  0.9691  0.1327
   52MOL0     O 7097   9.511   4.345   3.820  0.4721 -0.0667 -0.4782
   52MOL0     C 7098   9.430   4.434   3.745 -0.5015 -0.1188  0.1789
   52MOL0     C 7099   9.281   4.445   3.798  0.3883  0.4707 -0.9674
   52MOL0     C 7100   9.272   4.501   3.941 -0.6651  0.9113  0.6817
   52MOL0     C 7101   9.129   4.523   3.988 -0.3135 -0.0487  0.2439
   52MOL0     C 7102   9.068   4.645   3.921  0.2474 -0.6781 -0.5947
   52MOL0     C 7103   9.013   4.742   3.874  0.6785 -0.9134  0.4747
   52MOL0     C 7104   9.719   4.406   3.705 -0.3820  0.3555  0.6073
   52MOL0     C 7105   9.850   4.370   3.671 -0.0670  0.5256  0.3625
   52MOL0     C 7106   9.935   4.470   3.584  0.2446  0.0063 -0.7064
   52MOL0     H 7107  10.332   4.185   3.747 -1.6474  1.6160 -2.0275
   52MOL0     H 7108  10.540   4.106   3.675  0.4583  1.4332 -0.8743
   52MOL0     H 7109  10.750   3.898   3.448 -0.0338  1.1679  0.0055
   52MOL0     H 7110  10.665   4.050   3.471 -0.8483 -0.1548  0.9318
   52MOL0     H 7111  10.590   3.836   3.250  0.6939 -0.0935  1.8544
   52MOL0     H 7112  10.519   3.989   3.265 -0.3873  1.4595  3.0218
   52MOL0     H 7113  10.815   3.996   3.264  0.3604  0.5453  0.8984
   52MOL0     H 7114  10.758   3.925   3.112  0.5497 -0.8535  0.9565
   52MOL0     H 7115  10.604   4.094   3.073  1.9611 -2.1110 -1.4034
   52MOL0     H 7116  10.658   4.192   3.205  0.1464 -1.1183  1.0111
   52MOL0     H 7117  10.752   4.257   2.970  1.8068  1.2412 -0.5305
   52MOL0     H 7118  10.842   4.102   2.969  0.8540  0.0285  0.9491
   52MOL0     H 7119  10.875   4.343   3.146  0.0514  0.7666  0.2297
   52MOL0     H 7120  10.957   4.174   3.161  1.6981 -1.1541 -2.6002
   52MOL0     H 7121  10.980   4.398   2.948 -0.4800 -1.9478 -1.5323
   52MOL0     H 7122  11.024   4.229   2.922  2.2050  0.4461 -2.0827
   52MOL0     H 7123  11.134   4.385   3.150 -1.6894 -1.9119  0.7954
   52MOL0     H 7124  11.182   4.223   3.125  0.2899 -1.3178 -2.9125
   52MOL0     H 7125  11.448   4.277   3.094  0.2895  0.9320  0.9641
   52MOL0     H 7126  11.639   4.385   2.812  0.3368  1.0336 -0.1036
   52MOL0     H 7127  11.657   4.361   2.988 -0.0400  0.3159  0.7609
   52MOL0     H 7128  11.607   4.635   2.879  1.4276  0.8409  0.5795
   52MOL0     H 7129  11.653   4.589   3.040 -3.0426 -1.0113  0.3496
   52MOL0     H 7130  11.834   4.516   2.805  2.1844  3.9484 -1.4712
   52MOL0     H 7131  11.853   4.672   2.873 -0.5953  0.1726  0.4892
   52MOL0     H 7132  11.852   4.431   3.063  0.5077  0.4507  1.6012
   52MOL0     H 7133  11.992   4.476   2.982  1.6524  4.3852 -0.0422
   52MOL0     H 7134  11.978   4.792   3.299 -2.5926 -0.3259  0.2772
   52MOL0     H 7135  12.218   4.807   3.580 -0.3091 -3.3956  1.5239
   52MOL0     H 7136  12.048   4.790   3.589 -0.8683 -2.6424 -0.1636
   52MOL0     H 7137  12.122   4.897   3.468  0.0940 -1.2830 -1.6733
   52MOL0     H 7138  12.574   4.397   3.524 -1.7728  0.2993 -0.1105
   52MOL0     H 7139  12.748   4.345   3.690 -0.7735  0.5710 -2.3012
   52MOL0     H 7140  12.603   4.166   4.108  0.2490 -0.1073 -0.2042
   52MOL0     H 7141  12.665   4.057   3.966 -0.0915  0.4168 -1.7383
   52MOL0     H 7142  12.885   4.100   4.035 -1.4440 -0.2985 -0.1516
   52MOL0     H 7143  12.810   4.195   4.185 -0.9185  2.0432 -0.9989
   52MOL0     H 7144  12.841   3.897   4.102 -1.4163 -0.8433  1.0311
   52MOL0     H 7145  12.711   3.944   4.212  0.7717 -2.1872 -0.5913
   52MOL0     H 7146  12.908   4.054   4.354 -1.2063 -0.1470 -0.5437
   52MOL0     H 7147  13.017   3.960   4.252 -0.1882 -0.6901 -1.8324
   52MOL0     H 7148  12.796   3.851   4.443 -0.3681 -1.7629  1.4417
   52MOL0     H 7149  12.880   3.759   4.319  1.6891 -1.1839  1.0653
   52MOL0     H 7150  12.997   3.906   4.560  2.5056 -0.1712  0.8804
   52MOL0     H 7151  13.103   3.854   4.428 -0.4754 -1.0070 -1.4116
   52MOL0     H 7152  13.001   3.611   4.446 -0.2007  0.9998 -0.9201
   52MOL0     H 7153  12.910   3.674   4.581 -1.8994  2.3101 -2.1976
   52MOL0     H 7154  13.212   3.664   4.548 -0.5176 -0.6784 -0.8977
   52MOL0     H 7155  13.123   3.548   4.649 -2.0282  0.0173  1.0036
   52MOL0     H 7156  12.418   4.243   3.966  0.8470  0.2516  1.8681
   52MOL0     H 7157  12.261   4.327   3.814 -0.7860 -0.3800 -1.5499
   52MOL0     H 7158  12.206   4.357   3.353  0.4688  0.0839 -0.2650
   52MOL0     H 7159  12.070   4.394   3.160 -1.0958 -1.3182  1.0999
   52MOL0     H 7160  10.336   3.792   3.447 -0.3166 -1.8719  2.2522
   52MOL0     H 7161  10.127   3.869   3.550  0.2125 -1.4375  0.7017
   52MOL0     H 7162   9.866   4.063   3.824  1.4476  0.1482  2.3412
   52MOL0     H 7163   9.644   4.117   3.877 -0.0245  0.8278  1.9842
   52MOL0     H 7164   9.475   4.533   3.759  1.2167 -1.0975  1.8927
   52MOL0     H 7165   9.429   4.412   3.637 -0.7150 -5.3735  1.0124
   52MOL0     H 7166   9.226   4.352   3.779  0.0111  0.7656 -1.3532
   52MOL0     H 7167   9.230   4.516   3.732  1.1612  0.5423 -1.5033
   52MOL0     H 7168   9.321   4.428   4.006 -3.3571 -0.6451  1.1298
   52MOL0     H 7169   9.333   4.592   3.937  0.4955  0.1396 -2.8886
   52MOL0     H 7170   9.135   4.539   4.096 -0.7393 -2.0813  0.6069
   52MOL0     H 7171   9.065   4.438   3.963 -0.6096 -1.4087  4.8487
   52MOL0     H 7172   8.947   4.814   3.831  0.7254 -0.8529  0.5042
   52MOL0     H 7173   9.687   4.506   3.676 -1.0172 -0.2819 -1.0061
   52MOL0     H 7174  10.030   4.513   3.617  1.2230 -0.7808 -2.3588
   52MOL0     H 7175   9.972   4.414   3.497  1.3632  0.0499 -0.2628
   52MOL0     H 7176   9.870   4.551   3.548  0.0456 -0.8980 -2.5158
   53MOL0     O 7177   1.878   1.105   0.387  0.1465  0.6247 -0.6781
   53MOL0     C 7178   1.993   1.064   0.361  0.2099 -0.4760 -0.2463
   53MOL0     O 7179   2.084   1.126   0.279  0.6387  0.1483 -0.2384
   53MOL0     C 7180   2.062   1.262   0.250  0.7599  0.2044 -0.6742
   53MOL0     C 7181   2.149   1.352   0.302 -0.4076 -0.3024 -0.0634
   53MOL0     C 7182   2.128   1.492   0.286 -0.0879  0.5095  0.1795
   53MOL0     C 7183   2.015   1.542   0.213 -0.5541 -0.0121 -0.7585
   53MOL0     O 7184   1.996   1.681   0.205 -0.3489 -0.1484  0.1759
   53MOL0     C 7185   2.101   1.740   0.114 -0.4285 -0.1508 -0.1545
   53MOL0     C 7186   2.094   1.897   0.121 -0.6074  0.3328 -0.3352
   53MOL0     C 7187   2.094   1.953   0.256  0.4421  0.4737 -0.4094
   53MOL0     C 7188   2.035   2.087   0.263  0.2368 -0.1709  0.2790
   53MOL0     C 7189   2.131   2.199   0.213  0.6948 -0.0745 -0.0267
   53MOL0     C 7190   2.087   2.342   0.222  0.8713 -0.2181 -0.4161
   53MOL0     C 7191   2.197   2.441   0.184  0.6772  0.3528 -0.1775
   53MOL0     C 7192   2.135   2.579   0.168 -0.6049  0.1862 -0.9790
   53MOL0     N 7193   2.233   2.677   0.112  1.0573 -0.7936  0.4701
   53MOL0     C 7194   2.307   2.649  -0.006 -1.2894  0.8081 -0.7786
   53MOL0     C 7195   2.355   2.771  -0.031  0.0394  0.0715  0.0652
   53MOL0     C 7196   2.436   2.825  -0.149  0.5827 -0.8669 -0.1188
   53MOL0     C 7197   2.569   2.749  -0.163 -1.6339  0.8152 -1.0953
   53MOL0     C 7198   2.652   2.778  -0.028 -0.2749 -0.2524  0.3541
   53MOL0     C 7199   2.682   2.926   0.004 -0.4454 -0.2596  0.5119
   53MOL0     O 7200   2.727   3.000  -0.118 -0.2693  0.8877 -1.4368
   53MOL0     C 7201   2.864   2.996  -0.143  0.0106 -0.4848 -0.3565
   53MOL0     C 7202   2.960   2.924  -0.088 -0.0194  0.3659  0.3577
   53MOL0     C 7203   3.093   2.937  -0.129 -0.3057  0.4657 -0.0887
   53MOL0     C 7204   3.193   2.854  -0.053  0.5799  0.5387  0.2359
   53MOL0     C 7205   3.130   3.034  -0.225  0.4258  0.3030  0.4562
   53MOL0     C 7206   3.276   3.060  -0.263 -0.4191  0.0555  0.3179
   53MOL0     O 7207   3.369   3.028  -0.171  0.4807  0.0577  0.7503
   53MOL0     C 7208   3.495   3.053  -0.217  0.1517 -0.1436  0.6620
   53MOL0     C 7209   3.556   2.971  -0.310  0.0855 -0.6071 -0.1886
   53MOL0     C 7210   3.689   2.979  -0.333 -0.1232 -0.4782  0.3622
   53MOL0     C 7211   3.773   3.075  -0.282 -0.7356 -0.1078 -0.7665
   53MOL0     O 7212   3.902   3.082  -0.331  0.0719  0.1627 -0.0976
   53MOL0     C 7213   3.959   3.211  -0.363 -0.7788 -0.2383  0.1287
   53MOL0     C 7214   4.100   3.192  -0.405  0.0067  0.2779  0.3959
   53MOL0     C 7215   4.182   3.319  -0.406  0.5266 -0.1793 -0.1817
   53MOL0     C 7216   4.137   3.401  -0.527 -0.2633  0.4309 -0.2536
   53MOL0     C 7217   4.209   3.529  -0.533  0.0691 -0.1391 -0.5390
   53MOL0     C 7218   4.178   3.599  -0.670  0.6941 -0.0194  0.6918
   53MOL0     C 7219   4.241   3.739  -0.659 -0.7984 -0.2637  0.5506
   53MOL0     C 7220   4.245   3.806  -0.798 -0.6735  0.2398  0.7599
   53MOL0    Cl 7221   4.075   3.814  -0.861 -0.0735  0.0937 -0.2409
   53MOL0     C 7222   3.707   3.166  -0.196 -0.4894  0.2586 -1.0628
   53MOL0     C 7223   3.578   3.145  -0.156 -0.4169 -1.7133 -0.3996
   53MOL0     O 7224   3.290   3.122  -0.375 -0.1342  0.3202 -0.3071
   53MOL0     C 7225   3.025   3.111  -0.273  0.2848  1.1100  0.6447
   53MOL0     C 7226   2.891   3.094  -0.242  0.6049  0.6591  0.7895
   53MOL0     N 7227   2.304   2.863   0.057 -0.2847 -0.1377 -0.1713
   53MOL0     N 7228   2.235   2.806   0.153  0.4655  0.0269  0.1922
   53MOL0     C 7229   1.935   1.445   0.153  0.2307  0.0540  0.4041
   53MOL0     C 7230   1.953   1.310   0.183  0.1116  0.3862  0.9025
   53MOL0     C 7231   2.036   0.941   0.426 -0.6298  0.7548 -0.2234
   53MOL0     C 7232   2.121   0.858   0.348  0.6646  0.1336  0.1108
   53MOL0     C 7233   2.178   0.742   0.394  0.3785 -0.6955  0.3435
   53MOL0     C 7234   2.143   0.703   0.521 -1.5871  0.2664 -1.0218
   53MOL0     O 7235   2.192   0.592   0.583 -0.4921  0.1292  0.1259
   53MOL0     C 7236   2.280   0.493   0.515  0.0893 -1.3245  0.3876
   53MOL0     C 7237   2.320   0.382   0.607 -0.4828 -0.2412  0.0444
   53MOL0     C 7238   2.433   0.301   0.541  0.1247  0.3461  0.2220
   53MOL0     C 7239   2.466   0.167   0.614 -0.6049  0.7821  0.8269
   53MOL0     C 7240   2.576   0.082   0.557 -0.3541 -0.0789  0.1952
   53MOL0     C 7241   2.665   0.011   0.507 -0.0189 -0.1955  1.0037
   53MOL0     C 7242   2.055   0.777   0.596  0.5760 -0.8793  0.1584
   53MOL0     C 7243   1.994   0.892   0.550  0.0813 -0.4138  0.0574
   53MOL0     C 7244   1.891   0.957   0.643  0.1950 -0.1467 -0.7543
   53MOL0     H 7245   2.235   1.316   0.357 -0.0819 -0.8713 -0.9111
   53MOL0     H 7246   2.205   1.553   0.332  0.4192 -1.4145  2.0579
   53MOL0     H 7247   2.070   1.713   0.013 -4.1895  2.1421  0.1919
   53MOL0     H 7248   2.204   1.704   0.124  0.2476  0.6747 -3.2520
   53MOL0     H 7249   2.178   1.931   0.059 -1.4618  1.9752 -0.6530
   53MOL0     H 7250   1.996   1.917   0.077 -1.6624 -1.9985  0.7866
   53MOL0     H 7251   2.034   1.892   0.324 -0.3497  0.6179 -0.9577
   53MOL0     H 7252   2.193   1.953   0.301  0.2405  1.2412  0.0510
   53MOL0     H 7253   1.938   2.101   0.214  1.6839  3.5203 -2.0219
   53MOL0     H 7254   2.017   2.116   0.366 -0.0616 -1.3188  0.5552
   53MOL0     H 7255   2.150   2.180   0.107  1.1455  2.9519 -0.5703
   53MOL0     H 7256   2.219   2.186   0.277  1.7284  1.5374 -1.0394
   53MOL0     H 7257   1.997   2.351   0.160  1.2515 -3.2575 -1.5986
   53MOL0     H 7258   2.056   2.369   0.323 -0.0626  0.0117 -0.7501
   53MOL0     H 7259   2.249   2.407   0.095  0.3159  1.2864 -0.7548
   53MOL0     H 7260   2.267   2.427   0.267 -1.1011  0.5871  1.4481
   53MOL0     H 7261   2.041   2.576   0.112  1.1778 -2.4328 -4.1266
   53MOL0     H 7262   2.108   2.617   0.267  0.9155 -0.9009 -0.1094
   53MOL0     H 7263   2.313   2.547  -0.044 -1.6453 -1.9185  5.2801
   53MOL0     H 7264   2.446   2.933  -0.137 -0.6410 -0.8913  1.4745
   53MOL0     H 7265   2.382   2.815  -0.244  2.2338 -1.1776 -1.0587
   53MOL0     H 7266   2.561   2.642  -0.185 -0.1188  0.2375  0.9010
   53MOL0     H 7267   2.626   2.788  -0.248 -0.5924  2.5856  0.3433
   53MOL0     H 7268   2.626   2.723   0.063  2.3329 -0.8121  0.8428
   53MOL0     H 7269   2.749   2.738  -0.057 -1.2968 -1.9461 -0.9060
   53MOL0     H 7270   2.595   2.981   0.040  1.4529  1.9212  2.0942
   53MOL0     H 7271   2.750   2.934   0.089  1.9774 -0.6857 -1.2536
   53MOL0     H 7272   2.938   2.848  -0.014 -4.6950  0.5053 -0.5825
   53MOL0     H 7273   3.246   2.913   0.022 -1.3048  0.3437  1.7998
   53MOL0     H 7274   3.271   2.811  -0.116  3.3574 -0.6675  4.1039
   53MOL0     H 7275   3.148   2.772   0.003  0.3642 -0.0275 -0.7369
   53MOL0     H 7276   3.498   2.901  -0.369 -2.0187  1.3185 -0.5738
   53MOL0     H 7277   3.738   2.904  -0.395 -1.8952 -3.1312  1.9620
   53MOL0     H 7278   3.894   3.262  -0.435  1.0609  2.0241 -0.0320
   53MOL0     H 7279   3.960   3.282  -0.280  0.0519 -0.9907  0.7681
   53MOL0     H 7280   4.143   3.113  -0.342  0.5929 -0.1828 -0.5535
   53MOL0     H 7281   4.089   3.150  -0.505  0.1040  1.5182 -0.1540
   53MOL0     H 7282   4.288   3.292  -0.401  0.1854 -1.4562  0.5896
   53MOL0     H 7283   4.169   3.383  -0.318  0.9125  3.4405 -2.5313
   53MOL0     H 7284   4.030   3.422  -0.533  0.0857  2.4103 -0.2648
   53MOL0     H 7285   4.152   3.345  -0.620 -3.5873  1.9235 -1.9081
   53MOL0     H 7286   4.178   3.609  -0.466  1.3419  0.5450 -0.7487
   53MOL0     H 7287   4.312   3.507  -0.505  0.3188  1.8231  0.2206
   53MOL0     H 7288   4.069   3.608  -0.671  0.5775 -1.3133  0.5933
   53MOL0     H 7289   4.208   3.533  -0.752 -1.4912 -1.3865  0.9346
   53MOL0     H 7290   4.342   3.732  -0.617 -0.5432 -0.4246 -0.0857
   53MOL0     H 7291   4.175   3.795  -0.592  1.0776  1.3302  1.1476
   53MOL0     H 7292   4.303   3.744  -0.867 -2.0649  0.7487 -0.9407
   53MOL0     H 7293   4.295   3.902  -0.780  3.6976 -1.5646 -0.2626
   53MOL0     H 7294   3.763   3.250  -0.155 -3.9689  3.3931 -2.2367
   53MOL0     H 7295   3.545   3.205  -0.072  3.7606 -1.6466  1.4165
   53MOL0     H 7296   3.051   3.179  -0.353  1.6283  1.1802  1.0995
   53MOL0     H 7297   2.815   3.160  -0.284  0.9265  0.7954  0.4127
   53MOL0     H 7298   1.844   1.471   0.099  0.9975 -1.3422 -1.6779
   53MOL0     H 7299   1.884   1.233   0.150  1.0395 -0.8950  1.8232
   53MOL0     H 7300   2.138   0.886   0.245 -2.8542 -0.5376 -0.7607
   53MOL0     H 7301   2.227   0.685   0.315 -3.1326 -0.9047 -1.8602
   53MOL0     H 7302   2.235   0.451   0.425 -1.2321  0.0888  0.3552
   53MOL0     H 7303   2.373   0.544   0.487 -0.3576 -0.7656 -0.0955
   53MOL0     H 7304   2.230   0.320   0.615 -0.3370 -0.4382  0.1661
   53MOL0     H 7305   2.341   0.422   0.706 -0.4429  0.9004 -0.4129
   53MOL0     H 7306   2.407   0.278   0.437 -3.1401  1.4362  0.6636
   53MOL0     H 7307   2.523   0.362   0.551  0.6545 -0.3549 -0.2024
   53MOL0     H 7308   2.379   0.100   0.612 -0.8490  1.1044  0.6532
   53MOL0     H 7309   2.494   0.179   0.719 -1.1008  0.7102  0.9716
   53MOL0     H 7310   2.749  -0.047   0.473  2.6249  2.8087  1.8873
   53MOL0     H 7311   2.045   0.749   0.700  1.6177  0.2990  0.6040
   53MOL0     H 7312   1.851   0.890   0.720  0.2046  0.8690  0.1510
   53MOL0     H 7313   1.927   1.052   0.683 -0.0895  0.3476 -1.6393
   53MOL0     H 7314   1.800   0.979   0.586 -1.1532 -0.8048  1.0172
   54MOL0     O 7315   6.521   1.872   0.208 -0.5388 -0.4299  0.8559
   54MOL0     C 7316   6.586   1.920   0.114 -0.6117 -0.5619 -0.3678
   54MOL0     O 7317   6.726   1.923   0.110 -0.3940  0.1060  0.6616
   54MOL0     C 7318   6.789   1.839   0.196  0.4148 -0.2894  0.3239
   54MOL0     C 7319   6.867   1.738   0.135 -0.3408 -0.5129 -0.0967
   54MOL0     C 7320   6.953   1.657   0.216  0.2698  0.0837 -0.4257
   54MOL0     C 7321   6.942   1.676   0.355  0.4704  0.1779  0.3121
   54MOL0     O 7322   7.001   1.593   0.440 -0.1307  0.1381 -0.9223
   54MOL0     C 7323   7.122   1.527   0.403  0.7843  0.1997 -1.3373
   54MOL0     C 7324   7.193   1.482   0.530 -0.2702  0.1631  0.8607
   54MOL0     C 7325   7.341   1.453   0.496 -0.3245  0.6430 -0.1917
   54MOL0     C 7326   7.437   1.414   0.612 -0.6508  0.4180 -0.7237
   54MOL0     C 7327   7.582   1.382   0.561  0.7638  0.2507 -0.2219
   54MOL0     C 7328   7.655   1.290   0.664 -0.2630  0.3784  0.0537
   54MOL0     C 7329   7.798   1.273   0.605 -0.4684  0.6202 -0.3472
   54MOL0     C 7330   7.887   1.386   0.638  0.4496 -0.0643 -0.1650
   54MOL0     N 7331   8.030   1.338   0.631 -0.4521 -0.1072  0.0169
   54MOL0     C 7332   8.103   1.319   0.512 -0.5727  1.0839 -0.4753
   54MOL0     C 7333   8.233   1.311   0.558  0.7303 -0.0393 -0.3700
   54MOL0     C 7334   8.356   1.285   0.484 -0.3544 -0.3713 -0.2402
   54MOL0     C 7335   8.436   1.418   0.481 -0.6651  0.0360 -0.1907
   54MOL0     C 7336   8.563   1.408   0.380  0.2080  0.9132  0.9288
   54MOL0     C 7337   8.634   1.538   0.367  0.0359  0.0303 -0.6010
   54MOL0     O 7338   8.731   1.548   0.257 -0.1932  0.1006 -0.2621
   54MOL0     C 7339   8.779   1.663   0.220 -0.8125  0.0660  0.4457
   54MOL0     C 7340   8.893   1.668   0.132  0.3543 -0.0575 -0.1575
   54MOL0     C 7341   8.958   1.783   0.081 -0.1868  0.6911  0.2001
   54MOL0     C 7342   9.084   1.756   0.003 -0.5079 -0.5328  0.9546
   54MOL0     C 7343   8.894   1.908   0.110  0.1796 -0.1918 -0.0844
   54MOL0     C 7344   8.945   2.035   0.055  0.0456 -0.3844 -0.1313
   54MOL0     O 7345   9.085   2.038   0.039 -0.3654 -0.7417  0.2781
   54MOL0     C 7346   9.149   2.158   0.041  0.5336  0.4186  0.1974
   54MOL0     C 7347   9.115   2.272   0.120 -0.0108 -0.3718 -0.7745
   54MOL0     C 7348   9.182   2.397   0.097  0.1636  0.3081 -0.5732
   54MOL0     C 7349   9.293   2.399   0.007  0.1375  0.2830  0.4725
   54MOL0     O 7350   9.363   2.512  -0.024 -0.8692  0.4912  0.5616
   54MOL0     C 7351   9.288   2.627  -0.030  0.0933  0.9617  0.0951
   54MOL0     C 7352   9.363   2.714  -0.127  0.6819 -0.2660  0.0567
   54MOL0     C 7353   9.486   2.789  -0.077 -0.1628 -0.0835  0.1063
   54MOL0     C 7354   9.472   2.862   0.058 -0.6546 -0.2062 -0.0532
   54MOL0     C 7355   9.366   2.969   0.060  0.5164 -0.0178  0.0240
   54MOL0     C 7356   9.365   3.030   0.204  0.8197 -0.0436  0.3724
   54MOL0     C 7357   9.269   2.956   0.297 -0.1695 -0.1244 -0.3954
   54MOL0     C 7358   9.292   3.005   0.439 -1.6553  0.2099 -0.7341
   54MOL0    Cl 7359   9.285   3.182   0.453 -0.1917 -0.3353 -0.0744
   54MOL0     C 7360   9.330   2.279  -0.065  0.2413  0.1106 -0.0815
   54MOL0     C 7361   9.259   2.163  -0.044 -0.5432  0.2208  0.0918
   54MOL0     O 7362   8.860   2.125   0.038 -0.7932  0.0466 -0.7664
   54MOL0     C 7363   8.773   1.908   0.185  0.0859 -0.2677  0.0369
   54MOL0     C 7364   8.734   1.790   0.255  0.2589 -0.2688  0.1783
   54MOL0     N 7365   8.240   1.325   0.696  0.0933  0.2595 -0.1577
   54MOL0     N 7366   8.117   1.341   0.733 -0.6474 -0.3510 -0.7781
   54MOL0     C 7367   6.863   1.773   0.415  0.5515  0.4674 -0.8775
   54MOL0     C 7368   6.793   1.857   0.337  0.1351  0.3115  0.5967
   54MOL0     C 7369   6.524   2.000   0.010  0.2419  0.8584 -0.6247
   54MOL0     C 7370   6.593   2.109  -0.050 -0.3625  0.5975  0.1413
   54MOL0     C 7371   6.529   2.200  -0.137 -0.2119 -1.5335 -0.3164
   54MOL0     C 7372   6.398   2.184  -0.174 -0.5407  0.4349  0.0258
   54MOL0     O 7373   6.351   2.277  -0.266  0.4432  0.4879 -0.0965
   54MOL0     C 7374   6.214   2.291  -0.308  1.0950  0.1860 -0.4211
   54MOL0     C 7375   6.191   2.198  -0.436  0.6342 -0.2739 -0.3871
   54MOL0     C 7376   6.041   2.165  -0.456  0.0467  0.0554 -1.0837
   54MOL0     C 7377   5.955   2.288  -0.453  0.6572 -0.0449  0.3954
   54MOL0     C 7378   5.812   2.250  -0.462  0.9509  0.1084 -0.5823
   54MOL0     C 7379   5.696   2.234  -0.464  0.2409  1.0298 -0.6580
   54MOL0     C 7380   6.328   2.071  -0.130  0.9975  0.1101  0.0847
   54MOL0     C 7381   6.388   1.981  -0.033  0.2689 -0.4096 -0.1896
   54MOL0     C 7382   6.290   1.873   0.017 -0.1141  0.7107  1.0406
   54MOL0     H 7383   6.858   1.724   0.028 -0.7866  1.8705 -0.4390
   54MOL0     H 7384   7.007   1.571   0.177 -1.7682 -0.6107 -1.9141
   54MOL0     H 7385   7.184   1.606   0.361  0.4450  1.1764 -0.0948
   54MOL0     H 7386   7.111   1.438   0.341  3.2963 -0.8481 -0.4049
   54MOL0     H 7387   7.189   1.548   0.617 -0.8334  1.1938  0.0844
   54MOL0     H 7388   7.143   1.389   0.558  1.1688 -1.0359 -0.3639
   54MOL0     H 7389   7.343   1.378   0.417  0.2659  2.0172 -1.5470
   54MOL0     H 7390   7.384   1.544   0.452  0.3156  0.1839 -0.5328
   54MOL0     H 7391   7.435   1.493   0.688  0.0537 -1.0613  0.9009
   54MOL0     H 7392   7.394   1.324   0.657 -1.7058  0.4913 -1.5494
   54MOL0     H 7393   7.637   1.473   0.534  1.5652 -0.5272 -1.2856
   54MOL0     H 7394   7.595   1.333   0.464  1.3182  1.4268 -0.7621
   54MOL0     H 7395   7.669   1.357   0.750  2.3009 -0.1937  0.1563
   54MOL0     H 7396   7.598   1.202   0.693 -3.3462  2.1756 -0.0544
   54MOL0     H 7397   7.805   1.260   0.496  3.1022 -0.8590 -0.0664
   54MOL0     H 7398   7.828   1.179   0.650 -0.2720  1.5115  1.4568
   54MOL0     H 7399   7.864   1.468   0.569 -1.7589 -0.6601 -0.2247
   54MOL0     H 7400   7.882   1.430   0.738  0.1279  0.9329 -0.6067
   54MOL0     H 7401   8.060   1.304   0.414 -1.4132  2.1539 -0.2891
   54MOL0     H 7402   8.349   1.242   0.384 -1.0789 -2.9916  0.8476
   54MOL0     H 7403   8.405   1.202   0.536 -1.7611  0.9489  3.5490
   54MOL0     H 7404   8.370   1.497   0.444  1.3007  0.5334 -2.9781
   54MOL0     H 7405   8.467   1.443   0.583  1.7704 -0.8824 -0.6470
   54MOL0     H 7406   8.629   1.331   0.421  0.9244  1.4297  0.7629
   54MOL0     H 7407   8.515   1.377   0.287 -0.0952  3.3456  0.1974
   54MOL0     H 7408   8.562   1.619   0.374  1.0760  0.8394  2.0002
   54MOL0     H 7409   8.682   1.553   0.464 -0.1115  1.2808 -0.7071
   54MOL0     H 7410   8.924   1.568   0.102  0.8699  0.1249 -0.2395
   54MOL0     H 7411   9.117   1.652   0.006 -0.0505 -0.3939  0.8781
   54MOL0     H 7412   9.171   1.806   0.046 -0.8355 -0.6282  1.7388
   54MOL0     H 7413   9.079   1.806  -0.094  0.5670  3.7588  2.8758
   54MOL0     H 7414   9.033   2.272   0.191 -1.9314  0.3309 -2.8737
   54MOL0     H 7415   9.159   2.482   0.161 -2.3442 -0.1161 -0.8110
   54MOL0     H 7416   9.187   2.605  -0.069  0.5030  1.4827 -1.3334
   54MOL0     H 7417   9.269   2.670   0.068  2.2622  2.2089  0.0144
   54MOL0     H 7418   9.402   2.651  -0.208  0.1530 -2.1552  1.2089
   54MOL0     H 7419   9.299   2.794  -0.167 -0.1391  0.0781  1.9616
   54MOL0     H 7420   9.519   2.851  -0.161  1.2274 -0.5845  0.2623
   54MOL0     H 7421   9.565   2.717  -0.058 -1.5947 -1.1837  2.3122
   54MOL0     H 7422   9.572   2.888   0.095 -0.4632 -0.3368 -0.4680
   54MOL0     H 7423   9.452   2.790   0.138 -0.6923 -0.1719 -0.0317
   54MOL0     H 7424   9.395   3.049  -0.009  0.5813  1.5204  1.7751
   54MOL0     H 7425   9.264   2.933   0.043  0.5107 -0.7915  1.6007
   54MOL0     H 7426   9.335   3.135   0.203  0.3951 -0.1404 -1.9952
   54MOL0     H 7427   9.469   3.031   0.240  1.4177  0.4572 -1.2804
   54MOL0     H 7428   9.283   2.848   0.292  1.2055 -0.0763  1.4555
   54MOL0     H 7429   9.167   2.969   0.259 -0.2084  0.4873 -0.0933
   54MOL0     H 7430   9.391   2.968   0.467 -1.4757  2.0197  1.2599
   54MOL0     H 7431   9.242   2.965   0.527  1.3548  1.1699  1.5913
   54MOL0     H 7432   9.398   2.266  -0.148 -0.4087 -0.1081 -0.5812
   54MOL0     H 7433   9.286   2.078  -0.106  2.0919  0.6929  0.4485
   54MOL0     H 7434   8.730   2.005   0.210  2.2749  1.1897 -1.5134
   54MOL0     H 7435   8.646   1.812   0.315 -0.2087  3.5660 -1.5544
   54MOL0     H 7436   6.848   1.764   0.522 -0.3818 -3.2946 -1.1917
   54MOL0     H 7437   6.730   1.930   0.387 -1.2161 -0.6386  0.3435
   54MOL0     H 7438   6.696   2.124  -0.017 -0.1901  0.7000 -0.4264
   54MOL0     H 7439   6.594   2.272  -0.186 -1.8888 -0.6959 -1.3720
   54MOL0     H 7440   6.146   2.275  -0.224 -0.6697  0.3701 -1.7623
   54MOL0     H 7441   6.212   2.399  -0.328  0.9682  0.3967  0.6386
   54MOL0     H 7442   6.248   2.104  -0.429 -1.4398 -1.4993  4.3425
   54MOL0     H 7443   6.238   2.253  -0.518  0.4921 -0.8009 -0.8261
   54MOL0     H 7444   6.031   2.106  -0.547  0.9715 -1.2338 -0.3844
   54MOL0     H 7445   6.016   2.097  -0.374  1.7348  1.0340  0.3135
   54MOL0     H 7446   5.994   2.332  -0.546 -0.0205  2.1257  1.0570
   54MOL0     H 7447   5.971   2.349  -0.363 -0.0183  1.7400 -0.6322
   54MOL0     H 7448   5.596   2.200  -0.448  0.5199 -0.8991 -2.5095
   54MOL0     H 7449   6.226   2.053  -0.162 -0.8160 -0.0303  5.0333
   54MOL0     H 7450   6.233   1.832  -0.067  2.5357  0.5868 -0.8046
   54MOL0     H 7451   6.339   1.787   0.063  0.1869 -0.1996 -0.9064
   54MOL0     H 7452   6.231   1.906   0.103  2.0648  1.3811  2.3743
   55MOL0     O 7453   3.223   2.826   1.636 -0.4317  0.1611  1.2265
   55MOL0     C 7454   3.333   2.841   1.690 -0.2691  0.3665  0.0819
   55MOL0     O 7455   3.448   2.774   1.666  0.3926  0.6751 -0.1437
   55MOL0     C 7456   3.470   2.711   1.545 -0.2670  0.0680  0.1724
   55MOL0     C 7457   3.607   2.693   1.518  0.1557 -0.1857 -0.7804
   55MOL0     C 7458   3.655   2.655   1.395 -0.1479  0.1365  0.6123
   55MOL0     C 7459   3.564   2.612   1.287  0.2941  0.0866 -0.3503
   55MOL0     O 7460   3.602   2.585   1.156 -0.0877 -0.1577 -0.5234
   55MOL0     C 7461   3.741   2.617   1.115 -0.0443 -0.1278 -0.7161
   55MOL0     C 7462   3.812   2.487   1.124  0.1469 -0.2851 -0.6792
   55MOL0     C 7463   3.960   2.495   1.110  0.2114  0.8366 -0.4512
   55MOL0     C 7464   4.006   2.576   0.990 -0.1548  0.9175  0.6230
   55MOL0     C 7465   4.152   2.599   1.002  0.2953  0.2215  0.7216
   55MOL0     C 7466   4.237   2.505   0.912  0.1637 -0.0481  0.4431
   55MOL0     C 7467   4.385   2.537   0.890 -0.0707  0.0208 -0.4517
   55MOL0     C 7468   4.416   2.662   0.802  0.2518  0.8630 -0.1167
   55MOL0     N 7469   4.545   2.730   0.815  0.0819 -0.0495 -1.0406
   55MOL0     C 7470   4.658   2.699   0.738 -0.2523 -0.7729 -0.2708
   55MOL0     C 7471   4.758   2.768   0.794  0.6846 -0.3644  0.8281
   55MOL0     C 7472   4.897   2.782   0.729 -0.1890 -0.2082 -0.0750
   55MOL0     C 7473   4.942   2.652   0.664 -0.1763 -0.1720 -0.2850
   55MOL0     C 7474   5.070   2.668   0.579 -0.0299  0.1547  0.1082
   55MOL0     C 7475   5.148   2.535   0.575  0.2049  0.4502 -0.0337
   55MOL0     O 7476   5.073   2.428   0.523  0.5617 -0.3385 -0.0898
   55MOL0     C 7477   5.139   2.309   0.486 -0.1221 -0.3200  0.0234
   55MOL0     C 7478   5.070   2.210   0.420 -1.2923  0.2318 -0.4899
   55MOL0     C 7479   5.133   2.087   0.367  0.1317 -0.2632 -0.7590
   55MOL0     C 7480   5.051   1.999   0.271  0.2106 -0.3836  0.6016
   55MOL0     C 7481   5.268   2.062   0.406  0.3309  0.3915 -0.2752
   55MOL0     C 7482   5.344   1.930   0.375  0.0842 -0.2913 -0.0296
   55MOL0     O 7483   5.461   1.927   0.453  0.0266  0.6109 -0.0858
   55MOL0     C 7484   5.549   1.825   0.452 -0.6802 -0.1975 -0.3561
   55MOL0     C 7485   5.676   1.850   0.523  0.2473 -0.2596  0.3088
   55MOL0     C 7486   5.779   1.758   0.542 -0.0944 -0.5017 -0.0732
   55MOL0     C 7487   5.770   1.630   0.488  0.9109  0.0073  0.4777
   55MOL0     O 7488   5.860   1.532   0.491 -0.3910 -0.1791  0.1509
   55MOL0     C 7489   5.998   1.582   0.470 -0.3061 -0.6874  0.1536
   55MOL0     C 7490   6.082   1.458   0.469 -0.0216  0.1649 -0.0221
   55MOL0     C 7491   6.226   1.507   0.438 -0.0859  0.4423  0.5295
   55MOL0     C 7492   6.265   1.515   0.283 -0.1457 -0.1708 -0.7518
   55MOL0     C 7493   6.413   1.532   0.255  0.0436  0.2191 -0.4657
   55MOL0     C 7494   6.503   1.445   0.340  0.3783  0.8638 -0.4495
   55MOL0     C 7495   6.635   1.403   0.261 -0.4371  0.1133 -0.4131
   55MOL0     C 7496   6.738   1.359   0.371 -0.6718  0.7032 -0.1466
   55MOL0    Cl 7497   6.866   1.284   0.270 -0.2380 -0.6405  0.5431
   55MOL0     C 7498   5.642   1.585   0.430 -0.5272  0.0170  0.3984
   55MOL0     C 7499   5.539   1.688   0.415 -0.4555 -0.6969  0.4583
   55MOL0     O 7500   5.315   1.857   0.279 -0.7788 -0.2139  0.0320
   55MOL0     C 7501   5.335   2.162   0.475 -0.9493  0.2224 -0.4284
   55MOL0     C 7502   5.271   2.279   0.517 -0.2616  0.0329  0.8056
   55MOL0     N 7503   4.705   2.844   0.902 -0.4034  1.0016 -0.4081
   55MOL0     N 7504   4.577   2.811   0.926 -0.1670 -0.6320  0.2120
   55MOL0     C 7505   3.438   2.609   1.329 -0.1658 -0.1567 -0.6449
   55MOL0     C 7506   3.385   2.653   1.451  0.3101  0.3794 -0.1688
   55MOL0     C 7507   3.333   2.934   1.798 -0.2068 -0.6485 -0.5793
   55MOL0     C 7508   3.219   2.943   1.886 -0.7647  0.0743 -0.6826
   55MOL0     C 7509   3.211   3.028   1.998 -0.3810  0.5055 -0.6449
   55MOL0     C 7510   3.307   3.118   2.024 -0.3178 -0.5854 -0.3093
   55MOL0     O 7511   3.294   3.190   2.136 -0.1615 -0.3431 -0.4366
   55MOL0     C 7512   3.397   3.290   2.164 -0.3939 -0.1654  0.0762
   55MOL0     C 7513   3.374   3.348   2.300  1.2003  0.3433 -0.9660
   55MOL0     C 7514   3.361   3.234   2.415  0.2743 -0.8869  0.7416
   55MOL0     C 7515   3.497   3.161   2.422 -0.0468 -0.3462 -0.3602
   55MOL0     C 7516   3.504   3.082   2.542 -1.2645 -0.3845 -0.7101
   55MOL0     C 7517   3.521   2.997   2.639 -0.5131 -0.4399  0.4035
   55MOL0     C 7518   3.412   3.128   1.932 -0.8752 -0.7896 -0.0987
   55MOL0     C 7519   3.432   3.033   1.830 -0.5835 -0.3733  0.0773
   55MOL0     C 7520   3.552   3.041   1.738 -0.8554 -0.6217 -0.7364
   55MOL0     H 7521   3.666   2.733   1.599  0.5050 -1.0408 -0.5919
   55MOL0     H 7522   3.761   2.640   1.382 -0.5745 -3.4280  0.1878
   55MOL0     H 7523   3.790   2.694   1.176  1.9976 -1.6924 -0.2490
   55MOL0     H 7524   3.744   2.647   1.010  3.0618  4.5728  0.3794
   55MOL0     H 7525   3.782   2.453   1.223 -1.0558  3.1302  0.2917
   55MOL0     H 7526   3.779   2.417   1.047 -0.0010 -0.0253 -0.8560
   55MOL0     H 7527   3.996   2.544   1.201 -0.8061 -0.2989  0.5855
   55MOL0     H 7528   4.009   2.397   1.118  0.1518  0.9509  1.7153
   55MOL0     H 7529   3.978   2.535   0.893 -1.2825  2.5601  0.2258
   55MOL0     H 7530   3.963   2.676   1.003  0.9892  1.1744  3.1076
   55MOL0     H 7531   4.189   2.587   1.105 -0.4419 -2.3566  0.7591
   55MOL0     H 7532   4.171   2.698   0.960  2.6566 -1.2643 -2.0574
   55MOL0     H 7533   4.228   2.406   0.958 -4.3956 -0.5622 -1.0732
   55MOL0     H 7534   4.189   2.511   0.814 -0.0841 -0.3090  0.5472
   55MOL0     H 7535   4.431   2.447   0.847 -0.6482  0.2703 -1.6461
   55MOL0     H 7536   4.423   2.557   0.991 -2.5644  2.0568  0.1726
   55MOL0     H 7537   4.406   2.628   0.698  1.2259  1.0607 -0.2780
   55MOL0     H 7538   4.345   2.742   0.824 -0.0398  0.5732  0.0168
   55MOL0     H 7539   4.666   2.625   0.660  0.9667  0.8195 -1.7445
   55MOL0     H 7540   4.963   2.806   0.813 -0.1722  1.8296 -0.6171
   55MOL0     H 7541   4.893   2.868   0.661 -1.3170  2.4644  3.0775
   55MOL0     H 7542   4.957   2.583   0.747  0.7267  0.1927 -0.1391
   55MOL0     H 7543   4.874   2.602   0.594 -0.0167 -1.3546  0.3821
   55MOL0     H 7544   5.059   2.693   0.473  0.1022 -0.8520 -0.1598
   55MOL0     H 7545   5.135   2.741   0.628  0.0930 -0.5146  0.9726
   55MOL0     H 7546   5.237   2.550   0.514  0.6274  1.3588  0.7772
   55MOL0     H 7547   5.180   2.510   0.677 -0.9298 -2.9326 -0.3772
   55MOL0     H 7548   4.963   2.226   0.406 -1.0670  1.3023 -1.1389
   55MOL0     H 7549   5.005   1.920   0.330  0.4376  0.6829  2.2626
   55MOL0     H 7550   5.112   1.956   0.190  1.5516 -0.1819  1.4663
   55MOL0     H 7551   4.979   2.065   0.221  0.4648 -0.9069 -0.4943
   55MOL0     H 7552   5.679   1.946   0.574  0.2918 -0.1427  0.0886
   55MOL0     H 7553   5.862   1.787   0.606  0.4964 -2.1471 -0.0294
   55MOL0     H 7554   6.022   1.625   0.372  2.3322 -0.3758  0.8641
   55MOL0     H 7555   6.028   1.650   0.551 -0.6576  1.6777 -1.5878
   55MOL0     H 7556   6.084   1.417   0.570 -1.4572  1.3991  0.5457
   55MOL0     H 7557   6.050   1.378   0.402 -0.6775  0.4960 -0.1099
   55MOL0     H 7558   6.291   1.444   0.500  3.2224  2.3138 -0.7832
   55MOL0     H 7559   6.237   1.610   0.474 -0.7977  0.8439 -0.3481
   55MOL0     H 7560   6.205   1.592   0.233  0.3286  2.5412  2.4839
   55MOL0     H 7561   6.230   1.418   0.245 -3.2289  0.0102  1.2081
   55MOL0     H 7562   6.433   1.509   0.150 -1.2892  0.8399 -0.8693
   55MOL0     H 7563   6.444   1.636   0.267 -0.1982  0.2497 -0.0789
   55MOL0     H 7564   6.446   1.355   0.366  1.6293  0.7964  2.3898
   55MOL0     H 7565   6.522   1.500   0.433 -1.3881  1.8558 -0.6224
   55MOL0     H 7566   6.673   1.487   0.202 -1.1849 -1.2361 -2.9673
   55MOL0     H 7567   6.623   1.316   0.195  2.8698 -0.0814 -0.9302
   55MOL0     H 7568   6.703   1.285   0.443 -2.6658  0.9412 -0.8080
   55MOL0     H 7569   6.781   1.443   0.426  2.5963  0.6901 -2.3868
   55MOL0     H 7570   5.625   1.480   0.406  1.1513  0.1630 -1.7773
   55MOL0     H 7571   5.455   1.653   0.355 -1.8284 -2.7039  3.3102
   55MOL0     H 7572   5.428   2.143   0.528 -2.0174 -2.1217  0.7927
   55MOL0     H 7573   5.323   2.346   0.585 -1.7786 -1.0858  3.2384
   55MOL0     H 7574   3.369   2.597   1.246  1.5326  0.5528 -2.2057
   55MOL0     H 7575   3.279   2.646   1.474 -0.1601  5.0177  0.1083
   55MOL0     H 7576   3.133   2.877   1.877 -0.2550 -1.1909  2.3891
   55MOL0     H 7577   3.115   3.033   2.049  0.0326 -0.5329  0.2556
   55MOL0     H 7578   3.495   3.242   2.164 -0.7017 -0.8507  1.5753
   55MOL0     H 7579   3.392   3.374   2.094 -1.8414  2.3147  2.9055
   55MOL0     H 7580   3.272   3.387   2.293  0.6413 -1.0500 -0.7954
   55MOL0     H 7581   3.439   3.427   2.339  0.3996 -0.4296  2.1833
   55MOL0     H 7582   3.331   3.273   2.513 -0.4565  2.2950 -0.6325
   55MOL0     H 7583   3.287   3.156   2.395  0.7064 -0.7126 -1.8365
   55MOL0     H 7584   3.587   3.224   2.413 -1.4193  1.5530 -1.5320
   55MOL0     H 7585   3.513   3.092   2.339 -0.2941 -1.9701  0.8881
   55MOL0     H 7586   3.538   2.937   2.725  1.0668  0.1900  0.5645
   55MOL0     H 7587   3.502   3.188   1.944 -2.5042  2.0047 -0.8708
   55MOL0     H 7588   3.615   3.128   1.758 -1.7156 -0.0777 -0.3426
   55MOL0     H 7589   3.608   2.947   1.752 -2.6162 -1.4486  1.2302
   55MOL0     H 7590   3.515   3.036   1.635 -2.3112 -0.1848 -0.2586
   56MOL0     O 7591   4.990  10.034   1.431  0.0374  1.0502  0.1399
   56MOL0     C 7592   5.032   9.940   1.356  0.8510 -0.1794  0.3737
   56MOL0     O 7593   5.132   9.954   1.271 -0.0752  0.6485 -0.4083
   56MOL0     C 7594   5.219  10.059   1.263  0.6140 -0.1870 -0.7143
   56MOL0     C 7595   5.278  10.113   1.380  0.5295 -0.1290 -0.3191
   56MOL0     C 7596   5.388  10.205   1.369  0.2707 -0.5135 -0.1993
   56MOL0     C 7597   5.439  10.247   1.244 -0.6397 -0.3274 -0.0208
   56MOL0     O 7598   5.540  10.340   1.229 -0.3875  0.8832  0.3077
   56MOL0     C 7599   5.562  10.406   1.099  0.9321  0.5756  0.1576
   56MOL0     C 7600   5.663  10.512   1.128  0.3159  0.4702 -0.3684
   56MOL0     C 7601   5.800  10.453   1.174  0.0372  0.6019 -1.3233
   56MOL0     C 7602   5.911  10.542   1.174  0.1315  0.0536 -0.3220
   56MOL0     C 7603   6.024  10.493   1.272  0.1651 -0.3297  0.0336
   56MOL0     C 7604   6.100  10.364   1.235 -0.2085 -0.3036  0.2310
   56MOL0     C 7605   6.215  10.343   1.332 -0.1118  0.9287  1.0179
   56MOL0     C 7606   6.300  10.206   1.300 -0.0903 -0.1696 -0.4921
   56MOL0     N 7607   6.231  10.094   1.360 -0.3601 -0.1529  0.2412
   56MOL0     C 7608   6.129  10.029   1.301 -0.2555 -0.4363  0.7310
   56MOL0     C 7609   6.118   9.914   1.379 -0.6418  0.6236  0.5529
   56MOL0     C 7610   6.033   9.795   1.341 -0.3581  0.6654 -0.0490
   56MOL0     C 7611   6.101   9.708   1.242  0.6814  0.2509 -0.2417
   56MOL0     C 7612   6.119   9.773   1.102 -0.6195  0.1193  1.4043
   56MOL0     C 7613   5.983   9.786   1.031 -0.4711 -0.3871  1.1182
   56MOL0     O 7614   5.926   9.662   1.019  0.2433 -0.1744  0.3698
   56MOL0     C 7615   5.793   9.664   0.986 -0.2008  0.7916 -0.2361
   56MOL0     C 7616   5.740   9.749   0.891 -0.8320 -0.4519  0.3335
   56MOL0     C 7617   5.603   9.749   0.871 -0.2885 -0.9776 -0.2537
   56MOL0     C 7618   5.558   9.838   0.766 -0.9773 -0.8884 -0.1305
   56MOL0     C 7619   5.512   9.665   0.946 -0.3339  0.3260 -0.6228
   56MOL0     C 7620   5.367   9.670   0.928 -0.2382 -0.3612 -0.2213
   56MOL0     O 7621   5.311   9.790   0.891 -0.2074 -0.0475 -0.1882
   56MOL0     C 7622   5.210   9.788   0.795 -0.4124  0.6685  0.5674
   56MOL0     C 7623   5.108   9.882   0.810  0.5627  0.0433  0.1529
   56MOL0     C 7624   4.992   9.868   0.730 -1.0925  0.1926 -0.0879
   56MOL0     C 7625   4.987   9.785   0.625  0.3623  0.0669 -0.3501
   56MOL0     O 7626   4.864   9.805   0.556 -0.2220  0.0258 -0.6969
   56MOL0     C 7627   4.847   9.737   0.425  0.5469 -1.0437 -1.1279
   56MOL0     C 7628   4.719   9.777   0.358 -0.2928 -1.2381  0.1034
   56MOL0     C 7629   4.600   9.719   0.435  0.1705 -0.1070  0.3034
   56MOL0     C 7630   4.467   9.771   0.394 -0.2270  0.0337 -0.4039
   56MOL0     C 7631   4.349   9.728   0.485 -1.0347 -0.1378 -0.4731
   56MOL0     C 7632   4.211   9.760   0.424  0.1503  0.3361 -0.1884
   56MOL0     C 7633   4.093   9.681   0.478  0.5867  0.1426  0.0997
   56MOL0     C 7634   3.974   9.711   0.397  0.7102 -0.1912  0.1322
   56MOL0    Cl 7635   3.915   9.875   0.440  0.2672  0.1612 -0.1534
   56MOL0     C 7636   5.097   9.706   0.596 -0.3146 -1.1489  0.0477
   56MOL0     C 7637   5.209   9.700   0.681 -0.1485 -0.3364 -0.4638
   56MOL0     O 7638   5.311   9.570   0.962  0.0335  0.4197 -0.4518
   56MOL0     C 7639   5.574   9.577   1.038  0.3087 -0.3843 -0.1666
   56MOL0     C 7640   5.708   9.574   1.058 -0.6999 -0.6680  0.0596
   56MOL0     N 7641   6.217   9.910   1.480 -0.6953 -0.3417 -0.4596
   56MOL0     N 7642   6.281  10.026   1.468  0.0298  0.3084  0.0121
   56MOL0     C 7643   5.371  10.202   1.133  0.5448 -0.4527 -0.1354
   56MOL0     C 7644   5.272  10.100   1.143 -0.8292 -0.8758  0.5839
   56MOL0     C 7645   4.956   9.807   1.359 -0.4071 -0.7858  0.1305
   56MOL0     C 7646   4.872   9.788   1.466  0.3328  0.2338  0.2371
   56MOL0     C 7647   4.806   9.669   1.486  0.7786 -0.3241 -0.0802
   56MOL0     C 7648   4.821   9.559   1.401  0.3376 -0.9695 -0.0765
   56MOL0     O 7649   4.748   9.453   1.429 -0.5493 -0.0025 -0.8696
   56MOL0     C 7650   4.762   9.334   1.345  0.2279  1.1732  0.3360
   56MOL0     C 7651   4.672   9.220   1.395 -0.3488 -0.2243  0.3901
   56MOL0     C 7652   4.527   9.261   1.409  0.2930  0.5039  0.1337
   56MOL0     C 7653   4.446   9.131   1.434 -0.4080  0.4688 -0.1455
   56MOL0     C 7654   4.322   9.163   1.488  0.0212 -0.1617 -0.3378
   56MOL0     C 7655   4.227   9.224   1.535 -0.1228  0.5470  0.8931
   56MOL0     C 7656   4.906   9.576   1.289  0.8784 -0.0578 -0.3595
   56MOL0     C 7657   4.962   9.698   1.270 -0.8707 -1.1475  0.1079
   56MOL0     C 7658   5.064   9.719   1.148  0.6152  0.1467  0.2662
   56MOL0     H 7659   5.244  10.078   1.476 -0.4760 -3.2798 -1.7151
   56MOL0     H 7660   5.424  10.252   1.460 -3.6849  1.1801  0.6937
   56MOL0     H 7661   5.476  10.460   1.059  1.2319  2.3403  1.7570
   56MOL0     H 7662   5.594  10.323   1.035 -1.7402  0.0103 -0.5467
   56MOL0     H 7663   5.673  10.560   1.031 -1.1231 -2.0237 -1.8487
   56MOL0     H 7664   5.636  10.589   1.201  1.3224 -1.6286  2.3953
   56MOL0     H 7665   5.786  10.411   1.274  0.3477  1.7905 -0.7614
   56MOL0     H 7666   5.829  10.366   1.113  2.1106 -0.9212  1.5570
   56MOL0     H 7667   5.951  10.555   1.074  1.2306  1.7266  0.2947
   56MOL0     H 7668   5.872  10.636   1.215  0.9872  0.9145 -1.4429
   56MOL0     H 7669   5.973  10.472   1.367 -1.2661  0.1967 -0.5786
   56MOL0     H 7670   6.093  10.578   1.284 -1.5734  1.0998  0.4354
   56MOL0     H 7671   6.037  10.275   1.237 -1.1792  0.3675  0.6263
   56MOL0     H 7672   6.140  10.372   1.133  2.0668 -0.1360  1.0799
   56MOL0     H 7673   6.195  10.345   1.440  0.6639  0.4630  1.1829
   56MOL0     H 7674   6.289  10.422   1.318 -0.7274  1.1118 -1.6932
   56MOL0     H 7675   6.304  10.196   1.191  0.4838 -0.2375 -0.4684
   56MOL0     H 7676   6.401  10.202   1.341 -0.5861  1.6530  1.0318
   56MOL0     H 7677   6.060  10.058   1.222  1.2327  3.1916  0.5833
   56MOL0     H 7678   5.935   9.832   1.308 -0.0928  1.1277 -0.3342
   56MOL0     H 7679   6.024   9.731   1.429  0.7124  1.2703  0.5134
   56MOL0     H 7680   6.195   9.678   1.289 -0.3935  1.2324  2.7880
   56MOL0     H 7681   6.043   9.616   1.229  0.2786  0.8470 -3.6656
   56MOL0     H 7682   6.170   9.869   1.104 -1.2147  0.5957 -1.8566
   56MOL0     H 7683   6.169   9.705   1.032  0.8267  0.8032  1.7421
   56MOL0     H 7684   5.915   9.853   1.084 -0.9255 -1.2505  1.6418
   56MOL0     H 7685   5.992   9.820   0.927 -0.8601  2.9311  2.0617
   56MOL0     H 7686   5.802   9.826   0.847 -1.9547 -0.2750 -0.9764
   56MOL0     H 7687   5.635   9.849   0.689 -1.4501 -0.6909 -0.5842
   56MOL0     H 7688   5.540   9.939   0.805  0.5116 -1.6580  2.8341
   56MOL0     H 7689   5.473   9.792   0.716 -0.5630 -3.0392  1.0534
   56MOL0     H 7690   5.096   9.937   0.903 -2.0226 -1.7416  0.9752
   56MOL0     H 7691   4.907   9.932   0.752 -0.2751  1.1557  0.3125
   56MOL0     H 7692   4.935   9.760   0.366  2.1278 -1.9499  0.7567
   56MOL0     H 7693   4.844   9.628   0.440 -4.1211 -0.9320  0.7243
   56MOL0     H 7694   4.716   9.886   0.361 -0.9728 -1.1274 -2.2435
   56MOL0     H 7695   4.730   9.752   0.252  2.0001  1.7466 -0.5146
   56MOL0     H 7696   4.618   9.751   0.538  0.4824  3.1381 -0.6327
   56MOL0     H 7697   4.608   9.611   0.419 -0.1621  0.1974 -2.4668
   56MOL0     H 7698   4.454   9.735   0.292  1.0044  1.1091 -0.9777
   56MOL0     H 7699   4.468   9.881   0.399  3.2339  0.0884 -0.0334
   56MOL0     H 7700   4.357   9.622   0.509  1.5030  0.0615 -0.1065
   56MOL0     H 7701   4.362   9.784   0.578 -2.1047 -2.8228  1.4105
   56MOL0     H 7702   4.218   9.744   0.316  2.0798  2.2700 -0.4137
   56MOL0     H 7703   4.185   9.864   0.439 -1.3005 -0.2067  1.2577
   56MOL0     H 7704   4.077   9.711   0.582 -3.1691  2.8622 -1.0354
   56MOL0     H 7705   4.119   9.575   0.480 -0.0781 -0.1137 -2.0908
   56MOL0     H 7706   3.893   9.647   0.434  0.4319  0.0217 -0.1157
   56MOL0     H 7707   3.993   9.702   0.290  0.6364  0.7073  0.0403
   56MOL0     H 7708   5.094   9.650   0.503  1.8591  1.6452 -1.8473
   56MOL0     H 7709   5.283   9.622   0.666 -0.4137 -0.6495 -0.1609
   56MOL0     H 7710   5.511   9.500   1.082  0.3608 -0.4372 -0.1837
   56MOL0     H 7711   5.753   9.500   1.123  1.0080  0.4405  0.2002
   56MOL0     H 7712   5.397  10.223   1.029  2.9028  0.9847  0.6783
   56MOL0     H 7713   5.232  10.052   1.055 -6.2129  0.7200  1.7836
   56MOL0     H 7714   4.848   9.863   1.541 -0.5223 -0.7789  1.0044
   56MOL0     H 7715   4.732   9.667   1.565 -0.2341  0.6732 -0.9621
   56MOL0     H 7716   4.735   9.357   1.242  1.3079 -0.9394 -0.4974
   56MOL0     H 7717   4.864   9.293   1.352 -0.0712  0.3007 -0.2318
   56MOL0     H 7718   4.699   9.206   1.500 -2.0350  2.2739  1.2533
   56MOL0     H 7719   4.694   9.132   1.333 -3.7510  0.8557 -2.7902
   56MOL0     H 7720   4.520   9.328   1.495  1.6673  0.9682 -0.1006
   56MOL0     H 7721   4.493   9.306   1.315  0.0994 -3.2774 -1.8169
   56MOL0     H 7722   4.499   9.073   1.509 -0.7264  0.7710  0.3177
   56MOL0     H 7723   4.429   9.068   1.346  1.4400 -2.0490  1.1878
   56MOL0     H 7724   4.134   9.266   1.569 -0.4109  1.7075 -1.1539
   56MOL0     H 7725   4.924   9.496   1.218 -1.1239  1.4773 -2.7397
   56MOL0     H 7726   5.063   9.630   1.083 -1.3366  0.0674  0.3365
   56MOL0     H 7727   5.031   9.811   1.099 -1.0014  2.2425  4.7693
   56MOL0     H 7728   5.167   9.731   1.183  1.0785 -1.8126 -0.3032
   57MOL0     O 7729   6.644   6.696   9.891  0.2083 -0.1020 -0.1893
   57MOL0     C 7730   6.547   6.681   9.812 -0.3812  0.2008 -0.3251
   57MOL0     O 7731   6.538   6.577   9.724 -0.0782 -0.3917  0.8528
   57MOL0     C 7732   6.635   6.480   9.726 -0.0473 -0.1702  0.1568
   57MOL0     C 7733   6.594   6.356   9.771 -0.3222 -0.7007  0.3515
   57MOL0     C 7734   6.684   6.249   9.769 -0.7013  0.0815 -0.0993
   57MOL0     C 7735   6.818   6.263   9.730  0.4409  1.1091  0.7371
   57MOL0     O 7736   6.899   6.144   9.723 -0.1224 -0.6616 -1.0470
   57MOL0     C 7737   7.017   6.158   9.642 -0.0700  0.2990  0.7785
   57MOL0     C 7738   7.107   6.029   9.643  0.0567 -0.0191  0.6084
   57MOL0     C 7739   7.257   6.064   9.652 -0.3128 -0.0848 -0.3746
   57MOL0     C 7740   7.349   5.944   9.664 -0.2919 -0.2119  0.5037
   57MOL0     C 7741   7.501   5.976   9.678  0.9461 -0.0813 -0.0764
   57MOL0     C 7742   7.559   6.039   9.551 -0.2964 -0.5068 -0.5597
   57MOL0     C 7743   7.709   6.077   9.554 -0.0534 -0.3248 -0.2400
   57MOL0     C 7744   7.801   5.951   9.562  0.3446 -0.0283 -0.2503
   57MOL0     N 7745   7.944   5.978   9.574  0.5251  0.0834 -0.3907
   57MOL0     C 7746   8.007   6.033   9.682  0.1592  0.2945  0.3070
   57MOL0     C 7747   8.128   6.038   9.647 -0.2600 -1.5107  0.3969
   57MOL0     C 7748   8.239   6.093   9.744  0.2959  0.4860  0.2174
   57MOL0     C 7749   8.276   5.983   9.843  0.4833  0.1263 -0.5671
   57MOL0     C 7750   8.324   5.865   9.770 -0.4537  0.5022 -0.0124
   57MOL0     C 7751   8.473   5.866   9.724  0.3944  0.2600  0.0805
   57MOL0     O 7752   8.566   5.921   9.819 -0.0515  0.7223 -0.1346
   57MOL0     C 7753   8.690   5.939   9.773  0.4447 -0.2451 -0.1301
   57MOL0     C 7754   8.775   5.831   9.794  0.8501  0.7327 -0.2070
   57MOL0     C 7755   8.910   5.835   9.766  0.2814  0.0620  1.2085
   57MOL0     C 7756   8.991   5.712   9.801 -0.3195 -0.4727  0.2814
   57MOL0     C 7757   8.960   5.962   9.717 -0.3374  0.2209  0.3238
   57MOL0     C 7758   9.106   5.983   9.682  0.3807 -0.7929  0.2699
   57MOL0     O 7759   9.149   6.116   9.653  0.1206  0.2698 -1.0523
   57MOL0     C 7760   9.276   6.156   9.620 -0.6853 -0.0549  0.2280
   57MOL0     C 7761   9.377   6.091   9.547  0.9518 -0.0073  0.3875
   57MOL0     C 7762   9.493   6.154   9.513 -1.2477  0.3504 -0.2631
   57MOL0     C 7763   9.519   6.288   9.547 -1.1682 -0.3898  0.2993
   57MOL0     O 7764   9.622   6.363   9.494 -0.4275 -0.1820 -0.3483
   57MOL0     C 7765   9.755   6.305   9.492  0.3150  0.1668  0.1080
   57MOL0     C 7766   9.860   6.426   9.494  0.6563  0.5432  0.3542
   57MOL0     C 7767   9.837   6.525   9.605 -0.0334  0.1688 -0.3884
   57MOL0     C 7768   9.938   6.510   9.724 -0.2651  0.0904 -0.3718
   57MOL0     C 7769  10.079   6.550   9.669  0.5117  0.2681 -0.3832
   57MOL0     C 7770  10.177   6.565   9.777 -0.3407 -0.5667  0.1584
   57MOL0     C 7771  10.306   6.647   9.734  0.0854  0.1797 -0.4302
   57MOL0     C 7772  10.406   6.566   9.645  0.2640  0.3944 -0.4292
   57MOL0    Cl 7773  10.535   6.659   9.551  0.2330 -0.2843  0.2599
   57MOL0     C 7774   9.428   6.351   9.627 -0.6480  0.3887  1.7110
   57MOL0     C 7775   9.303   6.289   9.646 -1.1908  0.3758 -0.0834
   57MOL0     O 7776   9.174   5.885   9.664  0.1670 -0.3309 -0.2140
   57MOL0     C 7777   8.877   6.073   9.699  0.7704  0.1630 -0.4742
   57MOL0     C 7778   8.743   6.055   9.721  0.3425  0.7897  0.3927
   57MOL0     N 7779   8.135   6.032   9.513 -0.9246 -0.3788 -0.0535
   57MOL0     N 7780   8.021   5.999   9.464 -0.9642 -0.6201 -0.2853
   57MOL0     C 7781   6.856   6.389   9.688 -0.4078  0.2457 -1.5685
   57MOL0     C 7782   6.768   6.497   9.692 -0.9772  0.4699  0.7048
   57MOL0     C 7783   6.441   6.778   9.809 -0.6768  0.1979  0.8163
   57MOL0     C 7784   6.380   6.807   9.686 -0.6563  0.0142  0.9152
   57MOL0     C 7785   6.274   6.891   9.668  0.6745  0.2826 -0.5101
   57MOL0     C 7786   6.224   6.962   9.773 -0.2165 -0.3997 -0.4887
   57MOL0     O 7787   6.128   7.058   9.756  0.3598 -0.1226 -0.0102
   57MOL0     C 7788   6.040   7.052   9.638 -0.3718  0.5849  0.4631
   57MOL0     C 7789   5.919   7.137   9.686 -0.6119 -0.3230  0.0595
   57MOL0     C 7790   5.956   7.277   9.649 -0.3639 -0.4895  0.3673
   57MOL0     C 7791   5.871   7.385   9.719  0.1853  0.4267 -0.2218
   57MOL0     C 7792   5.895   7.522   9.672 -0.1568  0.0794  0.0969
   57MOL0     C 7793   5.926   7.631   9.620  0.3028  0.3643 -0.0563
   57MOL0     C 7794   6.282   6.939   9.896  0.8883  0.2906 -0.3281
   57MOL0     C 7795   6.391   6.854   9.917 -0.1048  0.5588  0.3313
   57MOL0     C 7796   6.432   6.840  10.062  0.5505 -0.1928 -0.3090
   57MOL0     H 7797   6.489   6.347   9.798 -0.6376 -1.5971 -1.0779
   57MOL0     H 7798   6.646   6.156   9.808  0.6069 -0.7293 -0.6896
   57MOL0     H 7799   7.076   6.232   9.698 -0.1124  0.1055  1.0801
   57MOL0     H 7800   6.994   6.183   9.538 -0.0876 -2.5811 -0.0013
   57MOL0     H 7801   7.069   5.963   9.722  0.4816 -0.9016  0.0815
   57MOL0     H 7802   7.082   5.983   9.547 -1.0328 -1.5920  1.5846
   57MOL0     H 7803   7.281   6.113   9.557 -1.4294 -0.3728 -0.8197
   57MOL0     H 7804   7.283   6.133   9.732 -2.0912 -0.9113  0.9759
   57MOL0     H 7805   7.314   5.885   9.749 -2.2375  1.4423  0.9448
   57MOL0     H 7806   7.341   5.886   9.572 -0.9944  2.3403 -1.1714
   57MOL0     H 7807   7.548   5.881   9.702 -2.0218 -1.1860  1.9796
   57MOL0     H 7808   7.512   6.051   9.758 -2.8930 -0.5843  1.1488
   57MOL0     H 7809   7.540   5.966   9.472 -1.3997  0.1777 -0.9469
   57MOL0     H 7810   7.510   6.134   9.529  1.3082  0.4782  0.0032
   57MOL0     H 7811   7.723   6.132   9.647 -0.0691 -0.4494 -0.1635
   57MOL0     H 7812   7.734   6.136   9.465  0.1989 -3.4063 -2.3998
   57MOL0     H 7813   7.776   5.894   9.652  0.8395 -0.2648 -0.2615
   57MOL0     H 7814   7.781   5.885   9.477  1.0948 -2.8077  1.6127
   57MOL0     H 7815   7.976   6.051   9.784 -0.7725  0.3863  0.0209
   57MOL0     H 7816   8.212   6.186   9.794  0.1063 -1.1302  3.3870
   57MOL0     H 7817   8.327   6.119   9.686  0.2711 -1.1578 -0.6187
   57MOL0     H 7818   8.345   6.013   9.922 -1.2769  0.1809  1.0310
   57MOL0     H 7819   8.190   5.948   9.901  0.7980 -1.0461 -0.7861
   57MOL0     H 7820   8.318   5.780   9.839  0.8208 -0.5453 -1.1468
   57MOL0     H 7821   8.260   5.842   9.685  1.0736  0.8976 -1.3232
   57MOL0     H 7822   8.498   5.759   9.726  2.0522  0.6228  1.0058
   57MOL0     H 7823   8.487   5.903   9.623 -0.8979  3.0888  0.8452
   57MOL0     H 7824   8.725   5.741   9.827  2.1228 -0.1336 -0.5492
   57MOL0     H 7825   9.075   5.740   9.866  0.5139  0.8474 -1.2695
   57MOL0     H 7826   9.042   5.666   9.716  0.9955 -0.3676  0.9902
   57MOL0     H 7827   8.935   5.632   9.849 -1.5242  0.7902  1.0621
   57MOL0     H 7828   9.367   5.988   9.514 -1.9020  0.4847 -0.5951
   57MOL0     H 7829   9.563   6.103   9.448 -1.1491 -0.2308  0.2885
   57MOL0     H 7830   9.764   6.246   9.583  0.6604 -1.3735 -0.8898
   57MOL0     H 7831   9.769   6.231   9.413 -0.5603 -0.5408  0.6054
   57MOL0     H 7832   9.963   6.391   9.501  1.0244  1.2930 -1.0867
   57MOL0     H 7833   9.858   6.460   9.390  0.5567 -1.3043 -0.2819
   57MOL0     H 7834   9.739   6.512   9.653  2.2331  0.7367  5.0214
   57MOL0     H 7835   9.829   6.627   9.566 -0.9838 -0.0666 -0.8552
   57MOL0     H 7836   9.944   6.403   9.747 -1.6387  0.0042 -0.3404
   57MOL0     H 7837   9.902   6.561   9.813 -2.5695 -0.7343 -0.7635
   57MOL0     H 7838  10.117   6.474   9.600  1.2059  0.1992  0.0682
   57MOL0     H 7839  10.067   6.639   9.607 -1.4205 -0.7602 -1.6069
   57MOL0     H 7840  10.208   6.469   9.819  2.3806 -0.1160 -0.6172
   57MOL0     H 7841  10.129   6.620   9.858 -0.3372 -1.1378  0.5575
   57MOL0     H 7842  10.362   6.681   9.821 -1.4176  3.9934 -0.7914
   57MOL0     H 7843  10.287   6.733   9.670  0.4065 -0.9350 -2.0922
   57MOL0     H 7844  10.347   6.499   9.581  1.6275 -2.0467  0.7324
   57MOL0     H 7845  10.454   6.494   9.712  0.1598 -1.0735 -1.8492
   57MOL0     H 7846   9.447   6.456   9.643  3.9360 -0.3286  2.2062
   57MOL0     H 7847   9.220   6.345   9.686 -1.5067  2.3765 -3.1842
   57MOL0     H 7848   8.913   6.170   9.669 -1.5667  0.8089 -1.4644
   57MOL0     H 7849   8.687   6.147   9.718 -0.4401  0.3172 -1.7224
   57MOL0     H 7850   6.960   6.414   9.675 -0.9604  4.0121 -0.0957
   57MOL0     H 7851   6.821   6.591   9.679  0.9845 -0.5655  0.7199
   57MOL0     H 7852   6.400   6.751   9.596 -1.4799  2.1167 -0.6418
   57MOL0     H 7853   6.229   6.899   9.570 -2.2376  1.7659  0.8380
   57MOL0     H 7854   6.089   7.091   9.549 -2.9511  0.5204 -1.0959
   57MOL0     H 7855   6.012   6.947   9.624  1.4817 -0.4599  3.4842
   57MOL0     H 7856   5.901   7.125   9.793 -2.0891 -0.8191 -0.2080
   57MOL0     H 7857   5.830   7.107   9.628 -0.5042  1.2632 -0.9949
   57MOL0     H 7858   6.059   7.298   9.679 -0.5575  2.1389 -0.5454
   57MOL0     H 7859   5.952   7.294   9.541 -2.2624  1.5401  0.6931
   57MOL0     H 7860   5.878   7.381   9.828 -0.0249 -0.1898 -0.2230
   57MOL0     H 7861   5.766   7.367   9.694  0.3934 -0.1359 -0.7305
   57MOL0     H 7862   5.966   7.720   9.577  0.8385 -1.1297 -2.9287
   57MOL0     H 7863   6.235   6.987   9.981 -0.3754 -0.7608 -0.4050
   57MOL0     H 7864   6.478   6.933  10.096  0.2523 -0.2829  0.3334
   57MOL0     H 7865   6.349   6.808  10.126  0.6215 -3.6940 -1.7119
   57MOL0     H 7866   6.502   6.758  10.079  1.1545  0.5854  1.0978
   58MOL0     O 7867   7.904   9.445   1.019 -0.5959  0.2566  0.2867
   58MOL0     C 7868   7.876   9.327   1.002 -0.3537  0.0533  0.0471
   58MOL0     O 7869   7.966   9.223   1.008 -0.0416 -0.6980  0.0881
   58MOL0     C 7870   8.101   9.265   1.027  0.1653  0.6453 -0.1753
   58MOL0     C 7871   8.149   9.302   1.156 -0.8350  0.9016 -0.7610
   58MOL0     C 7872   8.282   9.333   1.181 -0.3791 -1.3195  0.0361
   58MOL0     C 7873   8.371   9.339   1.071  0.6400 -0.0851 -0.6311
   58MOL0     O 7874   8.505   9.371   1.088  0.1570  0.2647  1.0447
   58MOL0     C 7875   8.556   9.415   1.215 -0.3211  0.6930 -0.6222
   58MOL0     C 7876   8.573   9.303   1.323  1.0733 -0.0416 -0.6243
   58MOL0     C 7877   8.681   9.204   1.287 -0.2275  1.2318 -0.3614
   58MOL0     C 7878   8.714   9.099   1.389 -0.5503 -0.4953 -0.3923
   58MOL0     C 7879   8.861   9.056   1.361 -0.5140  0.3081  0.0314
   58MOL0     C 7880   8.892   8.962   1.471 -0.0482 -0.0132 -0.3305
   58MOL0     C 7881   9.039   8.937   1.467 -0.5037 -0.0078  0.2418
   58MOL0     C 7882   9.097   8.850   1.583  0.3682 -0.1003  0.2547
   58MOL0     N 7883   9.243   8.860   1.598 -0.2213 -0.5025  0.4791
   58MOL0     C 7884   9.344   8.764   1.572 -0.4020  0.1908  0.6421
   58MOL0     C 7885   9.463   8.811   1.625  0.0295  0.2014  0.9032
   58MOL0     C 7886   9.603   8.759   1.618  0.7874 -0.2090  0.4096
   58MOL0     C 7887   9.678   8.833   1.513 -0.1033 -0.7138  0.0582
   58MOL0     C 7888   9.822   8.781   1.528  0.2554 -0.0183  0.1182
   58MOL0     C 7889   9.908   8.883   1.464  0.3653 -0.5538 -0.2710
   58MOL0     O 7890  10.037   8.816   1.462 -0.0434  0.5028  0.4990
   58MOL0     C 7891  10.153   8.891   1.463  0.1461 -0.0364  0.3773
   58MOL0     C 7892  10.270   8.824   1.480  0.7270 -0.3321 -0.6987
   58MOL0     C 7893  10.400   8.888   1.464  0.5407 -1.0902 -1.0591
   58MOL0     C 7894  10.517   8.806   1.503  0.5330  0.6532  0.0577
   58MOL0     C 7895  10.414   9.022   1.418  0.1917  0.3865 -0.0521
   58MOL0     C 7896  10.548   9.091   1.421  0.0894  1.1244  0.9546
   58MOL0     O 7897  10.641   9.060   1.517 -0.0392 -0.2196  0.3796
   58MOL0     C 7898  10.770   9.115   1.545 -0.1507  0.2622 -0.2904
   58MOL0     C 7899  10.856   9.041   1.626 -0.0822  0.4701  0.6308
   58MOL0     C 7900  10.997   9.065   1.627  1.0026 -0.3014  0.3440
   58MOL0     C 7901  11.043   9.179   1.572  0.2576 -0.3143  0.1407
   58MOL0     O 7902  11.182   9.193   1.587  0.0281 -0.6784  0.2794
   58MOL0     C 7903  11.244   9.322   1.582  0.0567  0.9646 -0.6058
   58MOL0     C 7904  11.383   9.315   1.531 -0.7989 -0.4420 -0.2752
   58MOL0     C 7905  11.485   9.253   1.622 -0.7600  0.1608 -0.2666
   58MOL0     C 7906  11.599   9.202   1.540 -0.1721  0.9135  0.6107
   58MOL0     C 7907  11.707   9.152   1.626 -0.5513  0.3785 -0.3154
   58MOL0     C 7908  11.836   9.113   1.552  0.5706 -0.2454 -0.3590
   58MOL0     C 7909  11.947   9.083   1.655  0.3428  0.4095 -0.7332
   58MOL0     C 7910  12.090   9.064   1.603 -0.7860 -0.3066 -0.5409
   58MOL0    Cl 7911  12.175   9.219   1.572  0.1964 -0.8173  0.1100
   58MOL0     C 7912  10.958   9.278   1.514 -0.2841 -0.4353  0.0900
   58MOL0     C 7913  10.821   9.240   1.496  0.5793 -1.0788 -1.0403
   58MOL0     O 7914  10.567   9.169   1.333 -0.1202 -0.3810 -0.8368
   58MOL0     C 7915  10.293   9.087   1.388  0.3840 -0.1260 -0.6583
   58MOL0     C 7916  10.169   9.021   1.413  0.4939  0.7118 -0.4324
   58MOL0     N 7917   9.427   8.936   1.665  0.3755  0.1083  0.1374
   58MOL0     N 7918   9.305   8.958   1.665  0.0538  0.3732  0.2025
   58MOL0     C 7919   8.329   9.304   0.945  0.0189  0.2245  0.3248
   58MOL0     C 7920   8.195   9.264   0.924  0.7943  0.1617 -0.0974
   58MOL0     C 7921   7.739   9.300   0.966 -0.2062 -0.5426  0.4448
   58MOL0     C 7922   7.699   9.170   0.974 -0.7772  0.8342  0.4003
   58MOL0     C 7923   7.570   9.124   0.946 -1.1037  0.0103 -0.2699
   58MOL0     C 7924   7.469   9.217   0.916  0.0772  0.6620  0.0932
   58MOL0     O 7925   7.333   9.189   0.879 -0.6897 -0.8622  0.1642
   58MOL0     C 7926   7.291   9.048   0.871  0.6174 -0.0344  0.5688
   58MOL0     C 7927   7.148   9.050   0.842  0.9192  0.1641 -0.0316
   58MOL0     C 7928   7.111   9.091   0.701 -0.1753 -0.4167 -0.2053
   58MOL0     C 7929   6.957   9.098   0.685  0.0958  0.9989  0.5664
   58MOL0     C 7930   6.893   8.968   0.727  0.3920  0.6506  0.0599
   58MOL0     C 7931   6.833   8.870   0.751  0.1245  0.5055 -1.2409
   58MOL0     C 7932   7.501   9.350   0.918  0.2019 -1.1277 -0.6585
   58MOL0     C 7933   7.638   9.393   0.933  0.3696  0.1221  0.1278
   58MOL0     C 7934   7.661   9.545   0.923  0.0339  0.3870 -0.1413
   58MOL0     H 7935   8.072   9.299   1.233  0.5537  0.3280  0.6612
   58MOL0     H 7936   8.311   9.370   1.279 -0.2878  0.7762 -0.7208
   58MOL0     H 7937   8.493   9.500   1.243 -4.0048 -2.3186  1.1611
   58MOL0     H 7938   8.654   9.462   1.205  0.4770 -0.4795  1.1501
   58MOL0     H 7939   8.605   9.354   1.414 -0.4234  0.2253 -0.2287
   58MOL0     H 7940   8.478   9.251   1.337  1.9173 -1.3903  0.2184
   58MOL0     H 7941   8.662   9.150   1.194 -0.0647  1.5053 -0.5569
   58MOL0     H 7942   8.768   9.259   1.250  0.2063 -0.6127 -2.2479
   58MOL0     H 7943   8.701   9.146   1.486 -1.2893 -0.2677 -0.5963
   58MOL0     H 7944   8.650   9.010   1.389  0.0957 -0.9646 -0.4089
   58MOL0     H 7945   8.917   9.150   1.373 -0.9970  0.6902 -0.6746
   58MOL0     H 7946   8.878   9.021   1.259 -0.2143 -0.9975  0.5156
   58MOL0     H 7947   8.877   9.006   1.570  1.4407  0.2654 -0.1949
   58MOL0     H 7948   8.834   8.872   1.450  0.6854 -1.2541  2.5181
   58MOL0     H 7949   9.089   9.034   1.482 -0.3292  0.3190 -2.1147
   58MOL0     H 7950   9.075   8.877   1.383 -3.2747 -0.6390 -0.5737
   58MOL0     H 7951   9.050   8.871   1.680 -3.3604  0.6829 -1.5514
   58MOL0     H 7952   9.068   8.747   1.564  0.0171  0.2532 -1.2290
   58MOL0     H 7953   9.335   8.669   1.521 -2.7655  0.6037  0.1947
   58MOL0     H 7954   9.610   8.650   1.608  1.6316 -0.1305  0.0171
   58MOL0     H 7955   9.634   8.790   1.718 -1.9724  0.2299  1.2104
   58MOL0     H 7956   9.638   8.830   1.411 -0.1614 -0.6916  0.0801
   58MOL0     H 7957   9.678   8.940   1.539 -1.7798  0.2773 -3.4097
   58MOL0     H 7958   9.855   8.755   1.629 -1.7370  2.2560  1.4576
   58MOL0     H 7959   9.833   8.693   1.464  0.6906  1.0163 -1.2697
   58MOL0     H 7960   9.876   8.904   1.362  1.3749  1.6780 -0.1761
   58MOL0     H 7961   9.911   8.970   1.530  1.4806 -0.8747  0.1355
   58MOL0     H 7962  10.261   8.722   1.518  0.5342  0.5710  1.8884
   58MOL0     H 7963  10.570   8.853   1.586 -0.5866  2.0630  0.0140
   58MOL0     H 7964  10.584   8.789   1.417  0.2786 -0.2830  0.0362
   58MOL0     H 7965  10.493   8.704   1.534  1.5853  1.0046  2.2079
   58MOL0     H 7966  10.799   8.955   1.662 -1.2269  1.0923  0.3555
   58MOL0     H 7967  11.061   8.989   1.669  1.7487  1.1260  1.9108
   58MOL0     H 7968  11.192   9.393   1.517  0.6586  0.0903 -2.0933
   58MOL0     H 7969  11.243   9.359   1.685 -2.6573  0.2009 -0.2813
   58MOL0     H 7970  11.390   9.274   1.430  3.1916  1.1362 -0.8312
   58MOL0     H 7971  11.410   9.421   1.519 -0.1615 -0.6630 -0.8514
   58MOL0     H 7972  11.441   9.168   1.675  0.7669  0.3485  1.4243
   58MOL0     H 7973  11.510   9.330   1.696 -1.0184 -0.4481  0.4761
   58MOL0     H 7974  11.641   9.276   1.471 -0.1702 -0.3485 -0.7783
   58MOL0     H 7975  11.580   9.109   1.486  0.8423  1.2457 -0.3671
   58MOL0     H 7976  11.738   9.235   1.690 -1.3517  1.5969 -1.4433
   58MOL0     H 7977  11.668   9.071   1.688 -0.9272  1.4927  0.9518
   58MOL0     H 7978  11.861   9.197   1.487  0.6807  0.6622  0.8378
   58MOL0     H 7979  11.824   9.030   1.481  1.3896 -0.0361 -0.7536
   58MOL0     H 7980  11.924   8.984   1.696  1.2453 -0.0009 -1.1656
   58MOL0     H 7981  11.938   9.138   1.749 -1.2413 -3.1262  1.3799
   58MOL0     H 7982  12.090   9.005   1.510 -1.2852 -3.3685  1.2635
   58MOL0     H 7983  12.136   9.009   1.685 -2.8981 -1.0662  0.2059
   58MOL0     H 7984  10.987   9.377   1.482 -0.7908 -0.7504 -1.4195
   58MOL0     H 7985  10.746   9.305   1.452 -0.4167 -1.3992  0.1458
   58MOL0     H 7986  10.295   9.187   1.348  1.0392 -0.2686 -0.9903
   58MOL0     H 7987  10.076   9.071   1.385 -0.0530  2.3220  3.5327
   58MOL0     H 7988   8.398   9.310   0.861 -0.1425 -1.6054  0.0248
   58MOL0     H 7989   8.167   9.229   0.825 -0.7931 -0.2968  0.4727
   58MOL0     H 7990   7.771   9.089   0.984 -1.7733  0.0201  1.1839
   58MOL0     H 7991   7.564   9.016   0.953  1.1240 -0.0938  1.9308
   58MOL0     H 7992   7.340   9.004   0.784  2.0927 -2.6426  2.5873
   58MOL0     H 7993   7.312   8.989   0.961 -1.5735 -2.7528 -0.5388
   58MOL0     H 7994   7.096   9.114   0.915 -0.9099 -1.7923  0.4809
   58MOL0     H 7995   7.126   8.944   0.851  1.3085  0.0336 -0.5971
   58MOL0     H 7996   7.152   9.191   0.683 -1.5701  0.5274  1.4526
   58MOL0     H 7997   7.156   9.024   0.628  0.3241 -2.3191  1.7481
   58MOL0     H 7998   6.939   9.111   0.577 -0.6553  2.5401  0.8456
   58MOL0     H 7999   6.924   9.189   0.735 -1.9486  0.1537  0.8296
   58MOL0     H 8000   6.767   8.786   0.761 -2.3611  2.4285 -0.5275
   58MOL0     H 8001   7.420   9.419   0.892 -2.3464 -3.8155 -0.3805
   58MOL0     H 8002   7.719   9.580   0.837 -0.9619  2.6753  0.0583
   58MOL0     H 8003   7.563   9.591   0.908 -0.8243 -1.3688 -0.1097
   58MOL0     H 8004   7.704   9.598   1.008  0.5073  0.9607 -0.7248
   59MOL0     O 8005   0.774   1.387   4.077  0.7808  0.6638 -0.4248
   59MOL0     C 8006   0.818   1.276   4.036  1.2421  1.1143  0.3300
   59MOL0     O 8007   0.952   1.231   4.059  0.6640  0.0682  0.4561
   59MOL0     C 8008   1.036   1.320   4.108 -0.0703 -0.2652  0.8626
   59MOL0     C 8009   1.046   1.457   4.071 -1.1175 -0.4973  0.2550
   59MOL0     C 8010   1.155   1.537   4.115 -1.1746 -0.0933 -1.2303
   59MOL0     C 8011   1.245   1.485   4.217 -0.2046  0.4591  0.6338
   59MOL0     O 8012   1.331   1.571   4.272  0.3811 -0.7241 -0.1335
   59MOL0     C 8013   1.467   1.528   4.316  0.5885 -0.4079  0.3541
   59MOL0     C 8014   1.542   1.489   4.197  0.2331 -0.4733  0.0833
   59MOL0     C 8015   1.682   1.441   4.226 -0.0900  0.7867 -0.1166
   59MOL0     C 8016   1.682   1.318   4.312 -0.5095  0.1414 -0.3343
   59MOL0     C 8017   1.822   1.296   4.371  0.5346  0.3353 -0.4891
   59MOL0     C 8018   1.814   1.194   4.483 -0.3679 -0.4851 -0.5108
   59MOL0     C 8019   1.958   1.153   4.524  1.0919 -0.8096  0.4462
   59MOL0     C 8020   2.027   1.257   4.607  0.1730 -0.6177  0.1830
   59MOL0     N 8021   1.986   1.256   4.753 -0.6166 -0.3268  0.3666
   59MOL0     C 8022   2.053   1.175   4.843  0.0855  0.7932 -0.2620
   59MOL0     C 8023   2.006   1.213   4.969 -0.1750  1.1143  0.7253
   59MOL0     C 8024   2.022   1.143   5.099  0.3117 -0.1352  0.2664
   59MOL0     C 8025   2.144   1.206   5.170  0.0630  0.3953 -0.7511
   59MOL0     C 8026   2.287   1.177   5.118  0.8282  0.2460 -0.8065
   59MOL0     C 8027   2.335   1.030   5.147 -0.0200  0.4653 -1.1534
   59MOL0     O 8028   2.341   1.002   5.296 -0.0438  0.7146  0.3086
   59MOL0     C 8029   2.443   1.048   5.367 -0.5465  0.0593 -0.0410
   59MOL0     C 8030   2.427   1.045   5.507 -0.4677  0.3892 -0.1370
   59MOL0     C 8031   2.522   1.093   5.602  0.5560 -0.0730  0.3500
   59MOL0     C 8032   2.491   1.086   5.747 -0.3821 -0.2662 -0.5674
   59MOL0     C 8033   2.636   1.155   5.548  0.7060 -0.7728  0.8102
   59MOL0     C 8034   2.738   1.225   5.631 -0.1844  0.6954 -0.4147
   59MOL0     O 8035   2.833   1.139   5.683  0.6967 -0.2377 -0.7765
   59MOL0     C 8036   2.894   1.163   5.806  0.8200  0.6208 -0.2328
   59MOL0     C 8037   3.025   1.140   5.825  1.1057  0.5575  0.0097
   59MOL0     C 8038   3.091   1.183   5.950  0.6029  0.0146  0.8390
   59MOL0     C 8039   3.019   1.265   6.034 -0.6845 -0.3568 -0.2179
   59MOL0     O 8040   3.071   1.321   6.148  0.2163  0.6283  0.5565
   59MOL0     C 8041   3.202   1.376   6.154 -0.2438 -0.2835  0.3190
   59MOL0     C 8042   3.222   1.408   6.302  1.0695  0.4708 -0.0621
   59MOL0     C 8043   3.355   1.464   6.357 -0.1154 -0.2458  0.1682
   59MOL0     C 8044   3.378   1.601   6.309  0.8329  0.1323  0.0907
   59MOL0     C 8045   3.504   1.667   6.367  0.7576 -1.2333 -0.6214
   59MOL0     C 8046   3.536   1.804   6.306  0.0357 -0.3574  0.3062
   59MOL0     C 8047   3.645   1.808   6.193  0.3367  1.0922  0.1516
   59MOL0     C 8048   3.605   1.936   6.125  0.3563  0.4279  0.6021
   59MOL0    Cl 8049   3.439   1.930   6.046  0.0686  0.4480  0.0255
   59MOL0     C 8050   2.884   1.293   6.017  0.4673  0.4223 -0.0553
   59MOL0     C 8051   2.822   1.234   5.907 -0.6131 -0.1550 -0.3427
   59MOL0     O 8052   2.741   1.345   5.646 -0.1674 -0.6490 -0.0088
   59MOL0     C 8053   2.651   1.164   5.407 -0.1302  0.0002 -0.8318
   59MOL0     C 8054   2.560   1.106   5.319  0.3706 -0.2221 -0.2110
   59MOL0     N 8055   1.916   1.319   4.953 -0.0121  0.1035 -0.0979
   59MOL0     N 8056   1.904   1.340   4.823  0.4507 -0.8098  0.0614
   59MOL0     C 8057   1.231   1.353   4.250  0.0736 -0.3150  0.4416
   59MOL0     C 8058   1.127   1.269   4.201  0.0732 -0.9693 -0.5183
   59MOL0     C 8059   0.731   1.164   3.968 -0.2879  0.3690  0.5743
   59MOL0     C 8060   0.782   1.031   3.974  0.7834 -0.2877  1.0687
   59MOL0     C 8061   0.708   0.923   3.926  0.5384  0.9685 -0.0614
   59MOL0     C 8062   0.578   0.944   3.870  0.2009 -0.2390  0.0584
   59MOL0     O 8063   0.484   0.858   3.826 -0.4416  0.1557  0.9676
   59MOL0     C 8064   0.492   0.716   3.837 -0.4666  0.1590 -0.3188
   59MOL0     C 8065   0.356   0.649   3.801 -0.3009  0.0041  0.4654
   59MOL0     C 8066   0.362   0.498   3.801  0.1919  0.2055 -0.0147
   59MOL0     C 8067   0.223   0.425   3.785  0.0084 -0.1732  0.1056
   59MOL0     C 8068   0.160   0.439   3.652  0.0561 -0.3734  0.8620
   59MOL0     C 8069   0.107   0.450   3.545  0.1605 -0.0311 -0.5518
   59MOL0     C 8070   0.532   1.076   3.861 -0.2909 -0.0092  0.0908
   59MOL0     C 8071   0.598   1.184   3.913  0.4000  0.6373  0.3976
   59MOL0     C 8072   0.527   1.312   3.916  0.4199 -1.4655 -0.0630
   59MOL0     H 8073   0.991   1.510   3.994 -0.8426  0.2821  0.5785
   59MOL0     H 8074   1.182   1.637   4.081  0.3563 -0.7172 -1.9408
   59MOL0     H 8075   1.449   1.449   4.390 -0.4192  3.7640  5.0815
   59MOL0     H 8076   1.510   1.610   4.374  1.3800  0.7684 -1.8207
   59MOL0     H 8077   1.499   1.401   4.149 -0.4814  1.0146 -2.1551
   59MOL0     H 8078   1.549   1.566   4.119  1.1297  2.0866  2.5300
   59MOL0     H 8079   1.743   1.414   4.139  1.7507  1.6935  0.8373
   59MOL0     H 8080   1.735   1.516   4.284 -0.4588  0.8121  0.1895
   59MOL0     H 8081   1.615   1.325   4.399 -0.6111  0.6873 -0.4549
   59MOL0     H 8082   1.653   1.243   4.237 -1.0598  1.2171 -1.2149
   59MOL0     H 8083   1.867   1.387   4.414 -1.3608  0.4623  1.3863
   59MOL0     H 8084   1.895   1.256   4.300  0.6234 -0.5964  0.1118
   59MOL0     H 8085   1.754   1.236   4.563 -1.7501  0.3069 -1.9111
   59MOL0     H 8086   1.762   1.114   4.429  0.4305 -2.4073  1.4185
   59MOL0     H 8087   2.023   1.147   4.435  0.7641  1.2820 -0.0029
   59MOL0     H 8088   1.949   1.055   4.571 -5.1214  0.2353  2.2042
   59MOL0     H 8089   2.134   1.237   4.610  0.6911  1.7510 -0.5495
   59MOL0     H 8090   2.015   1.358   4.567 -1.3244  0.5445  3.2078
   59MOL0     H 8091   2.120   1.093   4.820 -0.7441 -0.9893  2.9683
   59MOL0     H 8092   2.025   1.035   5.088  1.3452  0.0025 -0.9424
   59MOL0     H 8093   1.927   1.162   5.150 -1.4893  0.8210 -3.1545
   59MOL0     H 8094   2.122   1.312   5.161 -4.6697  0.1117  2.9467
   59MOL0     H 8095   2.142   1.183   5.277  0.9989 -0.0669 -0.8201
   59MOL0     H 8096   2.295   1.193   5.010  3.1209 -2.2361 -1.0873
   59MOL0     H 8097   2.349   1.250   5.171 -0.0268  1.8896 -1.9789
   59MOL0     H 8098   2.269   0.959   5.095  1.1506  1.4779 -4.2987
   59MOL0     H 8099   2.433   1.017   5.100  0.9549 -0.2951  0.9503
   59MOL0     H 8100   2.339   0.994   5.545 -0.0840 -0.8896 -0.9043
   59MOL0     H 8101   2.389   1.051   5.766  0.0746 -0.6606  1.4260
   59MOL0     H 8102   2.491   1.190   5.782 -1.0716  0.7123 -3.2575
   59MOL0     H 8103   2.563   1.023   5.799  4.0625  2.9112 -2.1907
   59MOL0     H 8104   3.075   1.084   5.746  0.1575  0.9494 -0.8900
   59MOL0     H 8105   3.189   1.147   5.978  1.2056  1.5219  0.7479
   59MOL0     H 8106   3.275   1.296   6.137  2.0262  1.3325  1.8502
   59MOL0     H 8107   3.210   1.466   6.091 -1.6665  0.1400  0.7143
   59MOL0     H 8108   3.145   1.485   6.312  1.6918  1.0506  0.4143
   59MOL0     H 8109   3.194   1.318   6.358 -0.8521  1.0625  0.0075
   59MOL0     H 8110   3.422   1.389   6.314 -1.9310 -1.4360 -0.7153
   59MOL0     H 8111   3.360   1.450   6.465 -2.0255 -0.8428  0.2169
   59MOL0     H 8112   3.293   1.667   6.329 -0.5111 -1.3599 -0.4930
   59MOL0     H 8113   3.390   1.604   6.200 -0.0570  0.8197 -0.0041
   59MOL0     H 8114   3.470   1.683   6.470 -0.5938  1.0832 -1.3533
   59MOL0     H 8115   3.591   1.601   6.363  1.5221 -0.2412 -0.8710
   59MOL0     H 8116   3.575   1.869   6.386 -0.5353  0.7268 -0.2868
   59MOL0     H 8117   3.449   1.857   6.268  0.5247 -0.3916 -0.9159
   59MOL0     H 8118   3.647   1.721   6.127  5.8701  2.2912 -1.7155
   59MOL0     H 8119   3.744   1.819   6.237 -0.4631 -0.8139  2.6960
   59MOL0     H 8120   3.669   1.948   6.036 -0.7650  0.5936 -0.2090
   59MOL0     H 8121   3.616   2.022   6.191 -0.4685 -1.1289  2.8626
   59MOL0     H 8122   2.831   1.356   6.086  0.6389  0.2852  0.2033
   59MOL0     H 8123   2.716   1.251   5.890 -1.1519 -0.9283  1.8992
   59MOL0     H 8124   2.745   1.204   5.369 -0.2816  3.0032  1.5676
   59MOL0     H 8125   2.565   1.119   5.211 -1.5057 -0.5508 -0.3788
   59MOL0     H 8126   1.294   1.313   4.329 -0.7740 -2.8155 -0.0677
   59MOL0     H 8127   1.136   1.168   4.239  0.3518 -0.6651  0.2463
   59MOL0     H 8128   0.880   1.014   4.016  1.0836  2.6141  1.7604
   59MOL0     H 8129   0.740   0.820   3.935  1.5710  1.4093  1.7951
   59MOL0     H 8130   0.564   0.679   3.764 -0.5243 -1.1209  0.2463
   59MOL0     H 8131   0.531   0.700   3.938 -1.2757 -1.1189 -0.1868
   59MOL0     H 8132   0.330   0.683   3.701  3.0549 -0.1193 -0.5881
   59MOL0     H 8133   0.283   0.680   3.876 -1.6704  0.1960 -0.8967
   59MOL0     H 8134   0.419   0.468   3.712 -0.9129 -2.5894  0.1136
   59MOL0     H 8135   0.427   0.458   3.879  0.8799  1.4081  0.0536
   59MOL0     H 8136   0.165   0.475   3.863  1.6652 -1.3554  2.1864
   59MOL0     H 8137   0.234   0.318   3.805  3.2127 -0.1258 -0.8201
   59MOL0     H 8138   0.058   0.481   3.455 -0.9824  0.4516  0.2176
   59MOL0     H 8139   0.430   1.083   3.826 -0.4666 -0.7357  0.4212
   59MOL0     H 8140   0.490   1.337   4.016  1.5153 -1.2798  0.3138
   59MOL0     H 8141   0.586   1.399   3.884 -3.9670  1.0237 -2.3737
   59MOL0     H 8142   0.442   1.308   3.847 -1.8979 -1.4949  2.6222
   60MOL0     O 8143   4.906   7.243   3.725 -0.6199 -0.1133  0.2635
   60MOL0     C 8144   4.864   7.294   3.626 -0.1220 -0.6846 -0.1409
   60MOL0     O 8145   4.930   7.327   3.517 -0.4379 -0.3864 -0.1005
   60MOL0     C 8146   5.064   7.341   3.529 -0.8113 -0.0557 -0.0904
   60MOL0     C 8147   5.126   7.447   3.602  0.3243  0.1519  0.8233
   60MOL0     C 8148   5.261   7.461   3.595 -0.6121 -0.3123  0.4554
   60MOL0     C 8149   5.344   7.378   3.525  0.0187 -0.6176 -0.4091
   60MOL0     O 8150   5.485   7.400   3.523 -0.3737 -1.0676  0.6333
   60MOL0     C 8151   5.579   7.334   3.438  0.3539 -0.6696  1.1350
   60MOL0     C 8152   5.722   7.390   3.465  0.2116  0.4741  0.2487
   60MOL0     C 8153   5.796   7.341   3.594  1.1962 -0.2723 -0.0743
   60MOL0     C 8154   5.922   7.428   3.606 -0.3445 -0.2293 -0.4851
   60MOL0     C 8155   6.047   7.354   3.574 -0.6537  0.0846  0.1914
   60MOL0     C 8156   6.164   7.434   3.631  0.4636  1.0046  0.1918
   60MOL0     C 8157   6.293   7.380   3.569  0.1105  0.7158  0.0232
   60MOL0     C 8158   6.344   7.246   3.622 -0.1247  0.6628  0.5054
   60MOL0     N 8159   6.486   7.232   3.598  0.0732 -0.3035  0.3959
   60MOL0     C 8160   6.596   7.289   3.672 -0.0473 -0.1071 -0.4793
   60MOL0     C 8161   6.705   7.231   3.628 -0.5759 -0.0586  0.7255
   60MOL0     C 8162   6.846   7.272   3.671 -0.8125 -0.0085 -0.1962
   60MOL0     C 8163   6.884   7.414   3.644  0.8851  0.3353  0.2826
   60MOL0     C 8164   6.877   7.465   3.501  0.4646  0.3347  0.1410
   60MOL0     C 8165   6.736   7.517   3.449 -0.5396 -0.1411 -0.2452
   60MOL0     O 8166   6.759   7.573   3.324  0.3104 -0.0278  0.8344
   60MOL0     C 8167   6.644   7.614   3.260  0.0229  0.0010  0.0322
   60MOL0     C 8168   6.533   7.669   3.327 -0.2620  0.3850 -0.5628
   60MOL0     C 8169   6.407   7.677   3.271 -0.1929 -0.6024  0.1598
   60MOL0     C 8170   6.294   7.752   3.336  0.7894 -0.4476 -0.5156
   60MOL0     C 8171   6.399   7.633   3.130 -0.3519 -0.5350 -0.5741
   60MOL0     C 8172   6.279   7.643   3.049 -1.1630 -0.5238  0.2104
   60MOL0     O 8173   6.294   7.628   2.919  0.0069  0.0280  0.0339
   60MOL0     C 8174   6.199   7.611   2.823 -0.0786  0.4126 -0.2587
   60MOL0     C 8175   6.064   7.600   2.836  0.1177  0.2804  1.6544
   60MOL0     C 8176   5.981   7.559   2.724 -0.1077  0.1667 -0.2743
   60MOL0     C 8177   6.037   7.509   2.605 -0.8294 -0.3053 -0.1926
   60MOL0     O 8178   5.973   7.472   2.492 -0.0325 -0.6996 -0.1349
   60MOL0     C 8179   5.833   7.419   2.502  0.6055  0.5519 -0.3463
   60MOL0     C 8180   5.811   7.317   2.383  0.3144  0.3481 -0.4958
   60MOL0     C 8181   5.677   7.254   2.396  0.1260 -0.1677  0.1689
   60MOL0     C 8182   5.643   7.174   2.267  0.0968 -0.3630 -0.8478
   60MOL0     C 8183   5.498   7.129   2.256 -0.2374  0.4207  0.4245
   60MOL0     C 8184   5.494   7.000   2.172  0.2866  0.1332  0.0648
   60MOL0     C 8185   5.348   6.969   2.159  0.1946  0.4805  0.0412
   60MOL0     C 8186   5.324   6.849   2.073 -0.8901  0.2273  0.4872
   60MOL0    Cl 8187   5.378   6.889   1.913 -0.1839  0.0442 -0.0163
   60MOL0     C 8188   6.172   7.524   2.593 -0.9151 -0.0508 -0.6036
   60MOL0     C 8189   6.255   7.577   2.695 -0.3348 -0.1422  0.2412
   60MOL0     O 8190   6.175   7.660   3.110  1.6535 -0.6044  0.0007
   60MOL0     C 8191   6.511   7.581   3.059  0.5318 -0.3380 -0.7852
   60MOL0     C 8192   6.626   7.572   3.125  0.3003 -0.1538  0.5611
   60MOL0     N 8193   6.670   7.140   3.528  0.4786 -0.5879  0.8739
   60MOL0     N 8194   6.545   7.143   3.515  0.1931 -0.3612  0.3733
   60MOL0     C 8195   5.291   7.270   3.451 -0.0508 -0.0593 -0.6671
   60MOL0     C 8196   5.148   7.248   3.457 -0.1796  0.6329 -0.0338
   60MOL0     C 8197   4.723   7.359   3.655  0.7222  0.4037  0.4413
   60MOL0     C 8198   4.638   7.285   3.736  0.3073  0.3318 -0.0876
   60MOL0     C 8199   4.518   7.341   3.776  0.5144 -0.1439 -0.5743
   60MOL0     C 8200   4.488   7.465   3.745 -0.4217  0.2994  0.9931
   60MOL0     O 8201   4.366   7.509   3.788 -0.0629 -0.1355 -0.1036
   60MOL0     C 8202   4.331   7.648   3.820  0.6183 -0.8250 -0.1300
   60MOL0     C 8203   4.407   7.686   3.945 -0.8685  0.3810  0.7592
   60MOL0     C 8204   4.376   7.605   4.068 -0.4976  0.4196 -0.3993
   60MOL0     C 8205   4.474   7.654   4.188  0.0941  0.2958  0.0697
   60MOL0     C 8206   4.504   7.561   4.301 -0.1289  0.3618 -0.2095
   60MOL0     C 8207   4.542   7.489   4.390  0.0108 -0.9173 -0.0630
   60MOL0     C 8208   4.568   7.539   3.658  0.4689 -0.7671 -0.2187
   60MOL0     C 8209   4.691   7.488   3.612 -0.2833  0.1777 -0.0795
   60MOL0     C 8210   4.765   7.578   3.518  0.0797  0.0649  0.5601
   60MOL0     H 8211   5.065   7.522   3.653  0.0985 -0.1678  1.0306
   60MOL0     H 8212   5.298   7.544   3.654  1.1251  1.0912 -2.3794
   60MOL0     H 8213   5.550   7.363   3.336  0.2621 -2.3275  0.6666
   60MOL0     H 8214   5.582   7.226   3.453  0.4088 -0.4361  2.9926
   60MOL0     H 8215   5.790   7.362   3.384  0.0669 -0.6723  0.5128
   60MOL0     H 8216   5.717   7.499   3.479  0.0581  0.6595 -1.0643
   60MOL0     H 8217   5.739   7.345   3.688  2.4763 -3.6841  0.9826
   60MOL0     H 8218   5.824   7.236   3.579 -2.5081 -1.3437 -0.4342
   60MOL0     H 8219   5.914   7.518   3.546  1.3743  0.1625 -0.1611
   60MOL0     H 8220   5.939   7.466   3.707  1.1500 -0.4571 -0.6399
   60MOL0     H 8221   6.050   7.336   3.466  3.0164 -1.3485  0.4033
   60MOL0     H 8222   6.042   7.257   3.623  2.2541  1.0143  2.6464
   60MOL0     H 8223   6.150   7.539   3.601  0.7973  1.3113  1.0717
   60MOL0     H 8224   6.151   7.413   3.737 -1.0634  0.5103 -0.0679
   60MOL0     H 8225   6.373   7.447   3.602  1.4751 -1.9479  2.6415
   60MOL0     H 8226   6.281   7.367   3.461  0.5181 -0.8840  0.1450
   60MOL0     H 8227   6.322   7.244   3.729  0.1498  0.5158  0.5601
   60MOL0     H 8228   6.291   7.166   3.569  0.0300  1.2535 -0.5625
   60MOL0     H 8229   6.571   7.357   3.753 -3.3124 -0.5430 -0.9620
   60MOL0     H 8230   6.915   7.212   3.610 -2.1938  1.9174 -3.9614
   60MOL0     H 8231   6.852   7.263   3.780  1.0278  1.1825 -0.1586
   60MOL0     H 8232   6.816   7.473   3.707 -2.4814 -2.4255 -0.4978
   60MOL0     H 8233   6.984   7.431   3.686  0.0057  1.3481  2.0933
   60MOL0     H 8234   6.948   7.548   3.494 -2.5727  3.5601  3.2880
   60MOL0     H 8235   6.907   7.389   3.429  3.5513  3.4778 -2.2405
   60MOL0     H 8236   6.660   7.440   3.439 -1.0771  0.4244 -0.5205
   60MOL0     H 8237   6.704   7.597   3.517 -0.7497 -2.9421  3.2113
   60MOL0     H 8238   6.559   7.720   3.420  4.5978 -2.3851 -0.0397
   60MOL0     H 8239   6.321   7.797   3.432 -1.9953 -2.1054  1.1789
   60MOL0     H 8240   6.211   7.686   3.363  1.4030 -1.0068  0.0532
   60MOL0     H 8241   6.256   7.840   3.283 -1.0657 -0.0877  1.2523
   60MOL0     H 8242   6.019   7.615   2.934 -0.2663 -0.4963  1.6107
   60MOL0     H 8243   5.874   7.559   2.739  0.0679  3.4153  1.9863
   60MOL0     H 8244   5.816   7.367   2.597  0.7443  0.1414 -0.5427
   60MOL0     H 8245   5.756   7.496   2.497  0.4149  0.2966 -1.6616
   60MOL0     H 8246   5.811   7.367   2.286 -2.8297 -2.6468 -2.2528
   60MOL0     H 8247   5.887   7.238   2.382  0.1977  0.1674  1.1939
   60MOL0     H 8248   5.605   7.335   2.410  1.8740  2.3246 -3.5692
   60MOL0     H 8249   5.672   7.182   2.478  1.6605 -1.7489 -1.0328
   60MOL0     H 8250   5.712   7.089   2.270  0.1270 -0.3130  1.2136
   60MOL0     H 8251   5.663   7.231   2.176  1.8444 -0.3641 -0.4983
   60MOL0     H 8252   5.470   7.121   2.361 -0.5394 -1.1783  0.2491
   60MOL0     H 8253   5.449   7.211   2.202  3.1058  0.6006 -2.6923
   60MOL0     H 8254   5.544   6.914   2.217  2.7497  1.0901 -0.6223
   60MOL0     H 8255   5.539   7.008   2.072  0.5710 -2.9487 -0.1375
   60MOL0     H 8256   5.300   7.058   2.117  1.8355  0.5338 -1.8872
   60MOL0     H 8257   5.299   6.951   2.255 -0.1082 -1.0975 -0.3718
   60MOL0     H 8258   5.217   6.826   2.070 -0.6558 -0.8240 -1.7142
   60MOL0     H 8259   5.372   6.758   2.112 -0.3069  0.9512  1.5167
   60MOL0     H 8260   6.220   7.496   2.500  1.2628  1.2735  0.0464
   60MOL0     H 8261   6.363   7.572   2.687 -0.2604 -2.1640  1.6094
   60MOL0     H 8262   6.512   7.562   2.952  2.6688  2.8623 -1.4619
   60MOL0     H 8263   6.707   7.513   3.082 -0.1679 -0.0469 -0.4864
   60MOL0     H 8264   5.351   7.201   3.393  1.2169 -0.0463  0.5712
   60MOL0     H 8265   5.091   7.177   3.399 -1.4375  0.8828  0.8546
   60MOL0     H 8266   4.655   7.178   3.748  2.9898  0.6839 -0.2910
   60MOL0     H 8267   4.437   7.284   3.821 -0.6149  1.5385 -0.3973
   60MOL0     H 8268   4.342   7.721   3.740  0.5468  1.3534  1.7512
   60MOL0     H 8269   4.227   7.652   3.855 -0.1565  2.4972 -2.4138
   60MOL0     H 8270   4.389   7.793   3.958 -0.8357  0.8503 -2.2585
   60MOL0     H 8271   4.512   7.670   3.917 -1.6392 -1.6751 -1.3066
   60MOL0     H 8272   4.274   7.619   4.104  0.0077  0.5511  1.0100
   60MOL0     H 8273   4.398   7.498   4.054 -0.6201  0.2277  0.7970
   60MOL0     H 8274   4.438   7.744   4.237 -0.9162 -0.9973  1.8218
   60MOL0     H 8275   4.567   7.684   4.138 -0.5424 -1.1354 -2.1284
   60MOL0     H 8276   4.581   7.439   4.476 -0.2233  0.4329  0.8429
   60MOL0     H 8277   4.546   7.643   3.633 -1.6592 -0.6036  2.0203
   60MOL0     H 8278   4.868   7.593   3.550  1.4382 -1.6160 -2.5532
   60MOL0     H 8279   4.783   7.519   3.427  0.7373  0.7053  0.2638
   60MOL0     H 8280   4.722   7.676   3.492  0.4384 -0.4619 -2.4052
   61MOL0     O 8281   0.015   1.436   8.329  0.3022 -0.3747  0.2744
   61MOL0     C 8282  -0.000   1.330   8.255  1.1121  0.1870 -0.1768
   61MOL0     O 8283   0.101   1.263   8.191  0.3072 -0.5432 -0.3883
   61MOL0     C 8284   0.227   1.314   8.166 -0.8163 -0.2610 -0.0220
   61MOL0     C 8285   0.293   1.426   8.217 -0.1976 -1.1867  0.6331
   61MOL0     C 8286   0.429   1.444   8.201  0.5147  1.3652 -0.5692
   61MOL0     C 8287   0.504   1.352   8.121  0.3294 -0.6108 -0.6083
   61MOL0     O 8288   0.634   1.374   8.104  0.4831 -0.4503 -0.0660
   61MOL0     C 8289   0.731   1.281   8.158 -0.1335  0.0935  0.1072
   61MOL0     C 8290   0.855   1.348   8.227  0.5768 -1.1996  0.5628
   61MOL0     C 8291   0.966   1.253   8.256  0.2051  0.1915  0.5286
   61MOL0     C 8292   1.027   1.176   8.137  0.3052  0.7159 -0.3482
   61MOL0     C 8293   1.156   1.104   8.170 -0.1862  0.0762 -0.2213
   61MOL0     C 8294   1.271   1.211   8.175  0.3434  0.0983  0.1409
   61MOL0     C 8295   1.417   1.161   8.152  0.9628  0.4531 -0.6061
   61MOL0     C 8296   1.478   1.080   8.270  0.2420 -0.2284 -0.9160
   61MOL0     N 8297   1.622   1.042   8.246  0.4861  0.7010  0.2647
   61MOL0     C 8298   1.666   0.954   8.152 -0.1431 -0.2172 -0.4273
   61MOL0     C 8299   1.805   0.963   8.168  0.3692  0.0804 -0.3961
   61MOL0     C 8300   1.890   0.886   8.089  0.2517 -0.3218  0.9030
   61MOL0     C 8301   2.016   0.967   8.052 -0.1980 -0.0757  0.5684
   61MOL0     C 8302   2.113   0.986   8.163 -0.8238  0.3646  0.3138
   61MOL0     C 8303   2.261   1.012   8.104 -0.3458 -0.6108  0.6293
   61MOL0     O 8304   2.339   1.014   8.222  0.3939 -0.5359 -0.6570
   61MOL0     C 8305   2.474   1.053   8.224  0.3414 -0.4488  0.1241
   61MOL0     C 8306   2.550   1.099   8.107 -0.3532 -0.0223 -0.3288
   61MOL0     C 8307   2.682   1.137   8.118 -0.2201 -0.0852  0.5317
   61MOL0     C 8308   2.754   1.139   7.987  0.2925 -0.6605  0.3586
   61MOL0     C 8309   2.742   1.139   8.242  0.1415  0.0577  0.4132
   61MOL0     C 8310   2.885   1.168   8.271  0.0698 -1.2559  0.5988
   61MOL0     O 8311   2.943   1.120   8.389  0.6922 -1.0950  0.4216
   61MOL0     C 8312   3.052   1.171   8.445 -0.1223 -0.0590  0.6441
   61MOL0     C 8313   3.118   1.100   8.541  0.3936  0.0461  0.9519
   61MOL0     C 8314   3.233   1.145   8.601  0.1076 -0.4083  0.0570
   61MOL0     C 8315   3.293   1.270   8.586 -0.1725 -0.8146 -1.2081
   61MOL0     O 8316   3.410   1.308   8.653  0.2414 -0.8863 -0.0454
   61MOL0     C 8317   3.467   1.434   8.609  0.4771  0.2373 -0.2589
   61MOL0     C 8318   3.606   1.458   8.675  0.5885 -0.1224  0.4949
   61MOL0     C 8319   3.720   1.365   8.635 -0.1795  1.1756  0.2288
   61MOL0     C 8320   3.853   1.420   8.681 -0.1376 -0.6065  0.6766
   61MOL0     C 8321   3.962   1.316   8.645  0.7464  0.0176  0.6004
   61MOL0     C 8322   4.028   1.344   8.501 -0.2496  0.5639 -0.7376
   61MOL0     C 8323   4.168   1.276   8.491 -0.1549 -0.6456 -0.7861
   61MOL0     C 8324   4.283   1.357   8.563 -0.1845  0.8918  0.2428
   61MOL0    Cl 8325   4.354   1.495   8.480 -0.1172  0.0892  0.1827
   61MOL0     C 8326   3.232   1.346   8.490 -0.7678 -0.0721  0.0065
   61MOL0     C 8327   3.112   1.300   8.419 -0.1668  0.3158  0.2189
   61MOL0     O 8328   2.948   1.229   8.184 -0.6533  0.2731 -0.7161
   61MOL0     C 8329   2.670   1.108   8.353  0.2925 -0.5480 -0.4568
   61MOL0     C 8330   2.529   1.076   8.346  0.5165  0.4361 -0.2504
   61MOL0     N 8331   1.832   1.062   8.268  0.0722  0.8385  0.6518
   61MOL0     N 8332   1.720   1.107   8.313  0.3759 -0.3849 -0.2687
   61MOL0     C 8333   0.434   1.249   8.060 -0.0715 -0.3562  0.2679
   61MOL0     C 8334   0.301   1.225   8.085 -0.5864 -0.5044 -0.3981
   61MOL0     C 8335  -0.142   1.265   8.257  0.2864  0.0555 -0.1677
   61MOL0     C 8336  -0.152   1.136   8.195 -0.2071 -0.0230 -0.0511
   61MOL0     C 8337  -0.270   1.063   8.200  0.4557  1.3121 -0.0285
   61MOL0     C 8338  -0.390   1.109   8.252 -0.0384  0.1572 -1.0187
   61MOL0     O 8339  -0.507   1.031   8.262  0.3495  0.0126  0.2105
   61MOL0     C 8340  -0.624   1.086   8.329  0.3595  0.1172  0.3021
   61MOL0     C 8341  -0.747   0.998   8.299  0.6372 -0.8515  0.5618
   61MOL0     C 8342  -0.876   1.055   8.363  0.0199  0.9340  0.7165
   61MOL0     C 8343  -0.998   1.003   8.285 -0.0321  0.0466  0.0460
   61MOL0     C 8344  -1.116   1.007   8.365  0.4058 -0.2507 -0.2687
   61MOL0     C 8345  -1.215   1.023   8.442 -0.5395 -1.1924 -0.0737
   61MOL0     C 8346  -0.379   1.237   8.318  0.0488  1.0965  0.1382
   61MOL0     C 8347  -0.262   1.313   8.313  0.7342  0.2573  0.9612
   61MOL0     C 8348  -0.282   1.444   8.388 -0.0212  0.5057 -0.1656
   61MOL0     H 8349   0.241   1.506   8.268  0.1581 -0.1151 -0.6301
   61MOL0     H 8350   0.477   1.531   8.245 -0.9028  0.7050  2.5585
   61MOL0     H 8351   0.755   1.219   8.072 -2.3682 -0.4390 -0.1984
   61MOL0     H 8352   0.676   1.228   8.236  0.1790  0.5878  0.6799
   61MOL0     H 8353   0.880   1.431   8.160 -1.7266 -0.1874  0.8335
   61MOL0     H 8354   0.830   1.391   8.325 -0.7485 -4.5319  1.8478
   61MOL0     H 8355   1.041   1.318   8.304 -2.4237  1.2521  3.5318
   61MOL0     H 8356   0.941   1.176   8.330  0.6073 -3.2283 -2.6207
   61MOL0     H 8357   0.949   1.102   8.118 -0.2480  1.0587  0.4732
   61MOL0     H 8358   1.036   1.241   8.050  0.3269  0.4437 -0.5504
   61MOL0     H 8359   1.172   1.033   8.089  2.6253 -1.0476  1.1914
   61MOL0     H 8360   1.156   1.059   8.270  1.7011 -1.2507 -0.7629
   61MOL0     H 8361   1.239   1.286   8.102 -0.7420  1.6498  2.1108
   61MOL0     H 8362   1.266   1.268   8.268 -1.8654  1.1516 -0.5522
   61MOL0     H 8363   1.482   1.248   8.147  0.4639  0.8581 -0.1973
   61MOL0     H 8364   1.434   1.106   8.059  1.2888 -0.5230  0.0123
   61MOL0     H 8365   1.468   1.134   8.365  4.7989  2.1865 -1.5447
   61MOL0     H 8366   1.423   0.986   8.277 -0.1847  0.0707 -0.1741
   61MOL0     H 8367   1.614   0.891   8.081 -2.6054  1.0745  0.1292
   61MOL0     H 8368   1.838   0.860   7.997 -1.9732  5.1676  0.2065
   61MOL0     H 8369   1.918   0.796   8.145 -0.6455 -2.1071 -1.3413
   61MOL0     H 8370   2.057   0.900   7.975 -0.0104  1.0415 -0.3399
   61MOL0     H 8371   1.996   1.064   8.006  1.5236 -0.0016 -0.1080
   61MOL0     H 8372   2.071   1.067   8.225 -1.7060 -0.8407  1.3471
   61MOL0     H 8373   2.116   0.898   8.228  0.6609  0.1163 -0.0712
   61MOL0     H 8374   2.287   0.926   8.043 -3.8214 -0.8032 -0.8427
   61MOL0     H 8375   2.270   1.107   8.050  1.0304 -0.5028  1.0064
   61MOL0     H 8376   2.502   1.088   8.010  0.0724  0.9660 -0.6661
   61MOL0     H 8377   2.853   1.099   8.008 -0.3729 -2.0925  0.8871
   61MOL0     H 8378   2.752   1.243   7.952 -0.1656 -0.8796 -0.2998
   61MOL0     H 8379   2.707   1.077   7.910  1.5405  0.5059 -1.4339
   61MOL0     H 8380   3.066   1.008   8.564 -1.3826  0.6854 -0.2125
   61MOL0     H 8381   3.270   1.082   8.682 -1.4299  0.2932  1.3525
   61MOL0     H 8382   3.496   1.421   8.504 -0.4276  0.4440 -0.5410
   61MOL0     H 8383   3.392   1.513   8.611 -2.9354 -2.4100 -4.6493
   61MOL0     H 8384   3.634   1.561   8.651  0.2308 -0.5449 -2.0198
   61MOL0     H 8385   3.603   1.449   8.783  1.8117 -1.2800  0.4616
   61MOL0     H 8386   3.720   1.332   8.530 -0.8563 -1.0939  0.8733
   61MOL0     H 8387   3.706   1.273   8.692 -3.2977  0.0510 -2.0382
   61MOL0     H 8388   3.845   1.445   8.787 -2.2760 -2.7329  1.1029
   61MOL0     H 8389   3.864   1.514   8.626  0.7408  0.0188  1.8862
   61MOL0     H 8390   4.027   1.319   8.733  0.0737  1.2442  1.0667
   61MOL0     H 8391   3.925   1.213   8.652  0.9572 -0.1599 -0.6733
   61MOL0     H 8392   4.051   1.450   8.487 -1.0449  0.4664 -3.1273
   61MOL0     H 8393   3.961   1.312   8.421 -2.2735  2.3126  0.1760
   61MOL0     H 8394   4.194   1.255   8.387  0.2682 -0.0554 -0.8059
   61MOL0     H 8395   4.171   1.178   8.539  0.5355  0.3591  1.3775
   61MOL0     H 8396   4.372   1.296   8.582 -0.6139  0.7862  2.1320
   61MOL0     H 8397   4.250   1.375   8.666  1.5135 -0.1086  0.9940
   61MOL0     H 8398   3.265   1.448   8.474  2.1225 -1.1727 -1.8193
   61MOL0     H 8399   3.054   1.373   8.364 -2.2161 -2.9367 -2.3120
   61MOL0     H 8400   2.723   1.104   8.447  0.7793  1.0879 -0.6324
   61MOL0     H 8401   2.472   1.063   8.437  0.7766 -3.1218 -0.4556
   61MOL0     H 8402   0.494   1.184   7.996 -1.2853 -0.5827 -0.6698
   61MOL0     H 8403   0.254   1.140   8.037 -4.2181  0.9781  0.1901
   61MOL0     H 8404  -0.066   1.096   8.143  0.2358  3.0857 -1.9472
   61MOL0     H 8405  -0.257   0.963   8.160  1.4710  0.3958  2.3692
   61MOL0     H 8406  -0.595   1.085   8.434  3.4542  1.9307 -0.4001
   61MOL0     H 8407  -0.645   1.187   8.294  2.4148 -0.6295 -3.7030
   61MOL0     H 8408  -0.727   0.897   8.334 -1.6142 -2.0985 -1.4278
   61MOL0     H 8409  -0.757   1.001   8.190 -0.2080  3.5339  0.5688
   61MOL0     H 8410  -0.887   1.009   8.462 -0.4574 -0.3615  0.0875
   61MOL0     H 8411  -0.883   1.163   8.348 -0.5971  0.9515  1.0687
   61MOL0     H 8412  -0.975   0.898   8.267  0.3823 -0.2600  2.0933
   61MOL0     H 8413  -1.020   1.050   8.188 -0.5314 -3.4694 -1.6893
   61MOL0     H 8414  -1.297   1.040   8.509 -0.9092  0.9906 -0.9924
   61MOL0     H 8415  -0.471   1.271   8.365 -1.2509 -1.7906 -0.0881
   61MOL0     H 8416  -0.387   1.450   8.416  0.7579  3.4538  2.6737
   61MOL0     H 8417  -0.228   1.436   8.483 -0.3313 -1.9445 -0.1427
   61MOL0     H 8418  -0.253   1.534   8.332  0.1983  0.6691  0.2077
   62MOL0     O 8419   5.040   1.365   5.869 -0.0214 -0.6578  0.2075
   62MOL0     C 8420   4.976   1.473   5.837 -1.2250  0.2883 -0.6638
   62MOL0     O 8421   5.042   1.589   5.802 -0.5161 -0.4362  0.5341
   62MOL0     C 8422   5.179   1.583   5.818  0.4023  0.2198 -0.4103
   62MOL0     C 8423   5.257   1.516   5.721  0.2822 -0.2588  0.4395
   62MOL0     C 8424   5.394   1.507   5.725 -0.2399  0.3169 -0.4306
   62MOL0     C 8425   5.467   1.582   5.824  1.1894 -0.0124 -0.5178
   62MOL0     O 8426   5.606   1.594   5.842  0.7746 -0.2170 -0.0082
   62MOL0     C 8427   5.696   1.521   5.758  0.3823 -0.8918 -0.9672
   62MOL0     C 8428   5.825   1.485   5.841  0.6013  0.7038  1.0278
   62MOL0     C 8429   5.916   1.598   5.890  0.2644 -0.1933  0.3449
   62MOL0     C 8430   6.032   1.561   5.986  0.4911 -0.4196  0.0624
   62MOL0     C 8431   6.140   1.668   6.002 -0.2952  0.1324 -0.2131
   62MOL0     C 8432   6.217   1.667   5.875 -0.2486  0.2876  0.2994
   62MOL0     C 8433   6.346   1.746   5.889  0.2465 -0.4782  0.2010
   62MOL0     C 8434   6.320   1.894   5.893  0.3857 -0.5583 -0.8048
   62MOL0     N 8435   6.447   1.978   5.896 -0.0839  0.0968  0.6891
   62MOL0     C 8436   6.483   2.066   5.788 -0.5355  0.6835  0.0855
   62MOL0     C 8437   6.574   2.152   5.837 -0.6096  0.0466  0.1131
   62MOL0     C 8438   6.637   2.272   5.765  0.1330 -0.0748  0.2494
   62MOL0     C 8439   6.731   2.219   5.653  0.2829 -0.8233  0.3647
   62MOL0     C 8440   6.793   2.333   5.565 -0.1050  0.1274 -0.5828
   62MOL0     C 8441   6.906   2.281   5.473 -0.9025  0.5520 -0.0611
   62MOL0     O 8442   6.922   2.364   5.349  0.0807  0.1371 -0.4090
   62MOL0     C 8443   6.996   2.481   5.353  0.3094 -0.0655 -1.0832
   62MOL0     C 8444   7.062   2.532   5.461  0.0619 -1.1967  0.7946
   62MOL0     C 8445   7.135   2.657   5.456 -0.2272  0.7194 -0.5628
   62MOL0     C 8446   7.206   2.694   5.590  0.2950  0.0051  0.0371
   62MOL0     C 8447   7.162   2.717   5.336  0.5255 -0.2853 -0.0621
   62MOL0     C 8448   7.249   2.833   5.308 -0.2765  0.4833  0.0442
   62MOL0     O 8449   7.303   2.898   5.411  0.2392  0.5142 -0.1597
   62MOL0     C 8450   7.365   3.015   5.379 -0.4369  0.0181 -0.5370
   62MOL0     C 8451   7.286   3.121   5.335 -0.4130 -0.4198 -0.0653
   62MOL0     C 8452   7.345   3.248   5.315  0.6427  0.0040  0.5494
   62MOL0     C 8453   7.488   3.262   5.330  0.2574  0.5126  0.2195
   62MOL0     O 8454   7.551   3.372   5.276 -0.0711 -0.2229  0.3336
   62MOL0     C 8455   7.656   3.427   5.360 -0.1252  0.2985  0.2601
   62MOL0     C 8456   7.671   3.569   5.308  0.6818 -0.4457  0.3652
   62MOL0     C 8457   7.763   3.662   5.388  0.3380  0.0886  0.4863
   62MOL0     C 8458   7.915   3.625   5.358  0.0053 -0.2598  0.5236
   62MOL0     C 8459   8.020   3.695   5.438 -0.1757  0.5271 -0.5736
   62MOL0     C 8460   8.154   3.667   5.368 -0.9294 -0.2280 -0.2480
   62MOL0     C 8461   8.196   3.790   5.277  0.2504  0.4486  1.3134
   62MOL0     C 8462   8.286   3.893   5.339  0.8627  0.2791 -0.2142
   62MOL0    Cl 8463   8.335   4.011   5.205  0.0728 -0.0874  0.1464
   62MOL0     C 8464   7.562   3.143   5.368 -0.0635 -0.4771 -0.5544
   62MOL0     C 8465   7.500   3.026   5.395  0.3177  0.1654 -0.0292
   62MOL0     O 8466   7.276   2.862   5.189 -0.4532  0.5113  0.0299
   62MOL0     C 8467   7.100   2.658   5.224  0.0320  0.0043 -0.8185
   62MOL0     C 8468   7.021   2.545   5.229  0.6005  0.4382  0.3357
   62MOL0     N 8469   6.600   2.116   5.967 -0.0541  0.3190 -0.5424
   62MOL0     N 8470   6.522   2.016   6.006 -0.0125  0.4132 -0.4235
   62MOL0     C 8471   5.387   1.661   5.909  0.5052 -0.3416  0.1972
   62MOL0     C 8472   5.244   1.656   5.914  1.0677 -0.4566  0.4467
   62MOL0     C 8473   4.828   1.463   5.810 -0.3851  0.3879  0.1665
   62MOL0     C 8474   4.774   1.576   5.753  0.6437 -0.4113 -0.0708
   62MOL0     C 8475   4.632   1.590   5.735 -0.3257  0.1303 -0.7531
   62MOL0     C 8476   4.552   1.486   5.771  0.1365 -0.1542 -0.9438
   62MOL0     O 8477   4.420   1.508   5.753  0.1641  0.0427 -0.0139
   62MOL0     C 8478   4.323   1.405   5.767  0.4422 -0.0972 -0.3459
   62MOL0     C 8479   4.312   1.312   5.647  0.3266 -0.2621  0.0054
   62MOL0     C 8480   4.172   1.247   5.645 -1.4829 -0.0390 -0.8896
   62MOL0     C 8481   4.165   1.155   5.525  0.1149 -0.1088  0.9500
   62MOL0     C 8482   4.025   1.119   5.503 -0.4742  0.2098 -0.4923
   62MOL0     C 8483   3.909   1.098   5.494  0.1196  0.1581 -0.4961
   62MOL0     C 8484   4.605   1.368   5.825 -0.4202  0.4726 -0.4115
   62MOL0     C 8485   4.741   1.350   5.848 -1.0498 -0.1523 -0.0420
   62MOL0     C 8486   4.787   1.231   5.919 -0.6423  0.9473  0.0679
   62MOL0     H 8487   5.202   1.460   5.646  0.3569 -1.4905  1.2600
   62MOL0     H 8488   5.441   1.431   5.663 -0.3829 -0.8837  0.8876
   62MOL0     H 8489   5.729   1.569   5.666  1.6201  0.9098  0.3406
   62MOL0     H 8490   5.656   1.427   5.720  0.9027 -1.7937  0.5778
   62MOL0     H 8491   5.788   1.424   5.924 -0.7426  1.9658  1.3955
   62MOL0     H 8492   5.889   1.425   5.775  2.8035  1.7900  2.0484
   62MOL0     H 8493   5.955   1.641   5.797  0.4052  0.2836  0.6224
   62MOL0     H 8494   5.857   1.679   5.932 -2.1683 -0.0128 -3.0067
   62MOL0     H 8495   5.991   1.545   6.086 -1.0054  2.9380  0.1313
   62MOL0     H 8496   6.074   1.466   5.952 -1.9150 -1.5697  0.0939
   62MOL0     H 8497   6.197   1.640   6.091 -3.3794 -0.4527  1.7140
   62MOL0     H 8498   6.087   1.762   6.016  0.7871  0.7063  0.0961
   62MOL0     H 8499   6.258   1.566   5.863 -1.2323 -0.0731 -0.1445
   62MOL0     H 8500   6.160   1.695   5.786  3.0361 -1.3101 -2.6071
   62MOL0     H 8501   6.404   1.724   5.798  1.3403 -1.0875  1.0238
   62MOL0     H 8502   6.403   1.727   5.980 -0.0350 -2.7848 -0.0414
   62MOL0     H 8503   6.258   1.933   5.812 -1.0022  3.4122  1.8741
   62MOL0     H 8504   6.263   1.912   5.984  0.0776 -1.7653 -0.7435
   62MOL0     H 8505   6.448   2.066   5.685 -1.2153 -6.4797 -0.1933
   62MOL0     H 8506   6.696   2.331   5.835  0.9619  2.0766 -2.1101
   62MOL0     H 8507   6.552   2.327   5.724 -0.3536 -0.2966  0.9387
   62MOL0     H 8508   6.804   2.151   5.697 -0.9706 -3.2872 -1.1767
   62MOL0     H 8509   6.671   2.152   5.591  1.8499 -1.1517 -0.8696
   62MOL0     H 8510   6.712   2.369   5.501  0.4921 -0.5957 -1.7889
   62MOL0     H 8511   6.833   2.415   5.624  1.2503  0.3327 -1.7515
   62MOL0     H 8512   6.997   2.282   5.533 -1.8310  2.5969  1.4441
   62MOL0     H 8513   6.864   2.186   5.438  0.9103 -0.4141  0.2562
   62MOL0     H 8514   7.033   2.503   5.562  0.4262 -0.8552  0.9952
   62MOL0     H 8515   7.313   2.674   5.579 -0.3395 -3.3291 -1.5061
   62MOL0     H 8516   7.180   2.631   5.676  1.9014  1.8923  2.0059
   62MOL0     H 8517   7.181   2.796   5.619 -2.1678 -0.5594  0.1291
   62MOL0     H 8518   7.180   3.104   5.317 -0.2031  0.1639 -2.0828
   62MOL0     H 8519   7.283   3.331   5.284  0.2132 -0.3638  0.4171
   62MOL0     H 8520   7.617   3.428   5.462 -2.9082 -0.6138 -0.7169
   62MOL0     H 8521   7.751   3.373   5.358 -0.8672 -1.1628  1.9157
   62MOL0     H 8522   7.699   3.569   5.202  2.0773  5.1001  0.4203
   62MOL0     H 8523   7.575   3.620   5.322  3.1563  4.2461  2.0863
   62MOL0     H 8524   7.747   3.673   5.495  0.9176  4.9891  0.3132
   62MOL0     H 8525   7.740   3.765   5.357 -3.2771 -0.8385 -0.3623
   62MOL0     H 8526   7.931   3.659   5.256  0.1121 -1.3188  0.1705
   62MOL0     H 8527   7.932   3.517   5.371 -2.1311 -0.6901  0.1461
   62MOL0     H 8528   8.008   3.800   5.467 -2.2292  0.5657 -1.4083
   62MOL0     H 8529   8.033   3.650   5.537  5.0775  0.8569 -0.8464
   62MOL0     H 8530   8.159   3.578   5.304  2.2723 -0.4450  0.1706
   62MOL0     H 8531   8.230   3.638   5.441 -0.5234  0.3303 -0.4370
   62MOL0     H 8532   8.107   3.838   5.236  1.1005 -0.4822 -1.9287
   62MOL0     H 8533   8.245   3.748   5.189 -2.5258  0.9175 -0.6053
   62MOL0     H 8534   8.368   3.846   5.394 -1.3823  1.5131  4.7457
   62MOL0     H 8535   8.219   3.947   5.406 -1.1809  1.0288 -2.6879
   62MOL0     H 8536   7.669   3.159   5.368 -0.4550  3.4606  1.4255
   62MOL0     H 8537   7.557   2.938   5.422 -1.3370 -0.6725  0.8734
   62MOL0     H 8538   7.134   2.692   5.126 -0.0068  0.3180 -0.7222
   62MOL0     H 8539   6.976   2.502   5.141 -0.6052  0.0368  1.1175
   62MOL0     H 8540   5.429   1.721   5.989 -1.1716  0.1878  0.7283
   62MOL0     H 8541   5.188   1.711   5.989 -0.1016  1.8517 -1.9594
   62MOL0     H 8542   4.833   1.660   5.717 -0.9961  0.4783 -0.8224
   62MOL0     H 8543   4.582   1.681   5.703  1.3958  3.0256  3.7963
   62MOL0     H 8544   4.341   1.349   5.860 -1.3355 -2.4939 -1.3427
   62MOL0     H 8545   4.233   1.467   5.770  2.4137  2.9438  0.0863
   62MOL0     H 8546   4.393   1.240   5.661 -0.1243 -0.8762 -0.4412
   62MOL0     H 8547   4.326   1.368   5.554  4.8753  0.4143  0.8773
   62MOL0     H 8548   4.153   1.184   5.732  0.8017 -0.8041 -0.8842
   62MOL0     H 8549   4.101   1.330   5.637 -0.6713  0.7651  0.0707
   62MOL0     H 8550   4.221   1.066   5.553  0.7315  0.0512  0.2586
   62MOL0     H 8551   4.215   1.187   5.433  2.0153 -2.9019  0.8981
   62MOL0     H 8552   3.807   1.067   5.507 -0.0503  0.3322 -1.3809
   62MOL0     H 8553   4.547   1.285   5.863  1.0058 -0.5102 -0.3349
   62MOL0     H 8554   4.817   1.148   5.854  0.0225  2.0938 -1.1659
   62MOL0     H 8555   4.862   1.265   5.991 -0.0470  0.5520 -0.3518
   62MOL0     H 8556   4.700   1.189   5.969  0.4948 -3.1550 -0.9825
   63MOL0     O 8557  10.971  10.074   3.601 -0.3744 -0.1370 -0.2066
   63MOL0     C 8558  10.995  10.092   3.718  0.2089 -0.0310  0.6726
   63MOL0     O 8559  11.112  10.117   3.767  0.1411  0.2439  0.4536
   63MOL0     C 8560  11.221  10.075   3.696 -0.8809 -0.8354  0.3823
   63MOL0     C 8561  11.260   9.936   3.682 -0.3722  0.7252 -0.3753
   63MOL0     C 8562  11.369   9.902   3.602 -0.5566 -0.6020  0.2715
   63MOL0     C 8563  11.438  10.002   3.531 -1.3817  0.9548 -0.7224
   63MOL0     O 8564  11.534   9.954   3.446  0.4703  0.0450 -0.7744
   63MOL0     C 8565  11.653  10.020   3.449 -0.0777 -1.0355 -0.3217
   63MOL0     C 8566  11.719   9.997   3.321  0.7313  0.4396  0.5906
   63MOL0     C 8567  11.801   9.863   3.321 -0.2291 -0.1052  0.9629
   63MOL0     C 8568  11.885   9.864   3.182  0.3178  0.1634  0.0537
   63MOL0     C 8569  11.991   9.754   3.195 -0.2434  0.6421 -1.0643
   63MOL0     C 8570  12.040   9.709   3.070 -0.1322 -0.3006  0.8457
   63MOL0     C 8571  12.156   9.608   3.074  0.6157 -0.6673 -0.3140
   63MOL0     C 8572  12.185   9.562   2.933 -0.4182  0.0779 -0.4688
   63MOL0     N 8573  12.323   9.507   2.928  0.3379 -0.4092 -0.6605
   63MOL0     C 8574  12.355   9.378   2.929 -0.1757  1.1985  0.6234
   63MOL0     C 8575  12.498   9.384   2.921  0.0755 -0.1750  0.0291
   63MOL0     C 8576  12.582   9.260   2.924  1.2302 -0.4397  0.2340
   63MOL0     C 8577  12.634   9.238   2.779 -0.1565 -0.1777 -0.3712
   63MOL0     C 8578  12.761   9.317   2.741 -0.0335  0.6311  0.0818
   63MOL0     C 8579  12.836   9.258   2.622 -0.3710 -0.6744  0.6951
   63MOL0     O 8580  12.960   9.326   2.590 -0.0499  0.0742  0.3153
   63MOL0     C 8581  12.952   9.464   2.538 -0.1828  0.5037 -0.3709
   63MOL0     C 8582  13.072   9.533   2.531  0.2068  0.0897  0.4596
   63MOL0     C 8583  13.079   9.666   2.487 -0.1393  0.1372  0.6317
   63MOL0     C 8584  13.215   9.726   2.474 -0.7019  0.1018 -0.0637
   63MOL0     C 8585  12.960   9.731   2.443 -0.1124 -0.1112 -0.2595
   63MOL0     C 8586  12.952   9.875   2.393 -0.0398  0.3280 -1.1524
   63MOL0     O 8587  12.826   9.931   2.399  0.1148  0.2059  0.1476
   63MOL0     C 8588  12.797  10.059   2.418 -0.6290 -0.6304  0.0252
   63MOL0     C 8589  12.660  10.088   2.425 -0.8329  0.3486 -0.0077
   63MOL0     C 8590  12.624  10.214   2.460 -0.3734 -0.3084 -0.1563
   63MOL0     C 8591  12.720  10.314   2.476 -0.0325  0.1648  0.5991
   63MOL0     O 8592  12.656  10.434   2.512  0.2937  0.2432  0.2294
   63MOL0     C 8593  12.701  10.546   2.427 -0.3105 -0.6167 -0.1093
   63MOL0     C 8594  12.651  10.544   2.274  0.5777  0.1985 -0.6254
   63MOL0     C 8595  12.502  10.542   2.287  0.5838  0.1666 -0.1216
   63MOL0     C 8596  12.423  10.561   2.150  0.8197 -0.4602  0.4688
   63MOL0     C 8597  12.274  10.537   2.171  1.1068  0.0894  0.5455
   63MOL0     C 8598  12.188  10.551   2.038 -0.0418  1.0656 -0.3076
   63MOL0     C 8599  12.043  10.578   2.060  0.2162  0.0649  0.8918
   63MOL0     C 8600  11.976  10.614   1.926 -0.3973  0.7235  0.8070
   63MOL0    Cl 8601  12.049  10.751   1.839 -0.0522  0.3697  0.0306
   63MOL0     C 8602  12.856  10.294   2.457  0.0393 -0.0010 -0.3401
   63MOL0     C 8603  12.891  10.161   2.436 -0.6279 -0.5679  0.3904
   63MOL0     O 8604  13.044   9.919   2.333 -0.1205 -0.0184  0.8209
   63MOL0     C 8605  12.839   9.660   2.453 -0.0711 -0.3789 -0.4236
   63MOL0     C 8606  12.835   9.526   2.497 -0.3486  0.1632 -0.6292
   63MOL0     N 8607  12.534   9.519   2.913 -0.1249  1.2379  0.3304
   63MOL0     N 8608  12.429   9.591   2.921 -0.2287  0.0625  0.7713
   63MOL0     C 8609  11.403  10.132   3.555 -0.6956  0.7592 -0.0093
   63MOL0     C 8610  11.297  10.175   3.635  0.0372  0.5316 -0.4268
   63MOL0     C 8611  10.881  10.099   3.804  0.7040  0.2729 -0.4336
   63MOL0     C 8612  10.782   9.998   3.805 -0.8749 -0.2346  0.0422
   63MOL0     C 8613  10.670  10.010   3.889 -0.1611  0.4003  0.7420
   63MOL0     C 8614  10.650  10.128   3.967  0.0185 -0.5635  0.2413
   63MOL0     O 8615  10.556  10.119   4.071 -0.0464  0.0417  0.1405
   63MOL0     C 8616  10.552  10.234   4.162  0.5599  0.0964 -0.2828
   63MOL0     C 8617  10.666  10.227   4.267 -0.5873  0.2218 -0.6684
   63MOL0     C 8618  10.698  10.359   4.326 -0.0515 -0.2780 -0.3861
   63MOL0     C 8619  10.818  10.353   4.417  0.1419  0.4114 -0.2656
   63MOL0     C 8620  10.941  10.341   4.340  0.0980 -0.0381 -0.4648
   63MOL0     C 8621  11.041  10.342   4.269  0.0754  0.0284 -0.8149
   63MOL0     C 8622  10.740  10.232   3.950 -0.5611 -0.3871  0.3859
   63MOL0     C 8623  10.855  10.219   3.873  0.4959  0.1517 -0.0221
   63MOL0     C 8624  10.951  10.332   3.898 -0.8015 -0.3560 -0.5957
   63MOL0     H 8625  11.199   9.864   3.735 -0.8269 -0.5425 -2.5094
   63MOL0     H 8626  11.392   9.796   3.593 -0.3828 -0.4770 -0.8963
   63MOL0     H 8627  11.703   9.989   3.541 -0.4311 -0.0260  0.2255
   63MOL0     H 8628  11.632  10.128   3.451  0.9292 -0.8234  1.4866
   63MOL0     H 8629  11.646   9.989   3.240 -0.8147  0.7919  1.8978
   63MOL0     H 8630  11.790  10.075   3.295  0.1097  1.7620  2.5835
   63MOL0     H 8631  11.860   9.853   3.413  0.6579  3.6289  0.9575
   63MOL0     H 8632  11.730   9.780   3.316  0.0091 -0.2704  0.1163
   63MOL0     H 8633  11.820   9.843   3.097  0.0164  3.1880 -0.5982
   63MOL0     H 8634  11.932   9.961   3.162 -0.6229  0.5226 -0.4187
   63MOL0     H 8635  11.952   9.666   3.247  0.4948  1.4043  0.8895
   63MOL0     H 8636  12.069   9.799   3.258 -0.4916  1.4362 -1.3056
   63MOL0     H 8637  11.957   9.668   3.013 -2.6733  2.5182  2.2244
   63MOL0     H 8638  12.083   9.791   3.011  0.3437 -1.8198 -1.0034
   63MOL0     H 8639  12.129   9.529   3.145 -2.4614  0.6334  0.1136
   63MOL0     H 8640  12.244   9.663   3.106  0.5229 -0.7194  0.0283
   63MOL0     H 8641  12.107   9.496   2.894  0.6760  0.0539 -2.7914
   63MOL0     H 8642  12.179   9.650   2.868 -2.6223  0.0661 -0.3657
   63MOL0     H 8643  12.299   9.286   2.930  0.3857  0.8486  0.5825
   63MOL0     H 8644  12.513   9.182   2.955 -1.1635  0.7817 -1.7304
   63MOL0     H 8645  12.667   9.276   2.992  1.0994 -0.5209  0.4169
   63MOL0     H 8646  12.641   9.129   2.775 -1.0537 -0.3090  0.7882
   63MOL0     H 8647  12.559   9.279   2.710 -0.6189  0.2616  0.3737
   63MOL0     H 8648  12.735   9.422   2.726 -0.1088  1.4625  4.5502
   63MOL0     H 8649  12.831   9.308   2.825 -1.8052 -1.9992  1.4152
   63MOL0     H 8650  12.846   9.149   2.630 -2.7380 -0.8889  1.6876
   63MOL0     H 8651  12.772   9.272   2.535  0.1869  0.9659  0.5153
   63MOL0     H 8652  13.156   9.476   2.569  1.5696  0.4042 -1.8937
   63MOL0     H 8653  13.284   9.677   2.544  1.1590  0.0906 -1.8098
   63MOL0     H 8654  13.214   9.834   2.492 -0.8521  0.0793  0.0598
   63MOL0     H 8655  13.254   9.719   2.372 -0.0783  4.2783 -0.2909
   63MOL0     H 8656  12.577  10.020   2.412 -1.0090  0.5832 -0.1377
   63MOL0     H 8657  12.520  10.234   2.483 -0.4554 -0.1913 -0.6137
   63MOL0     H 8658  12.654  10.634   2.472 -0.9137 -0.1371 -1.6051
   63MOL0     H 8659  12.809  10.561   2.434 -0.3333  0.3281 -1.3340
   63MOL0     H 8660  12.682  10.624   2.206 -2.3787  1.2332 -0.8777
   63MOL0     H 8661  12.684  10.455   2.219 -0.1587 -0.0753 -0.6350
   63MOL0     H 8662  12.480  10.623   2.356  1.5970  1.0915 -0.8568
   63MOL0     H 8663  12.465  10.452   2.337 -0.1603  0.3718 -0.2932
   63MOL0     H 8664  12.471  10.494   2.078  2.8032 -0.6957  1.9084
   63MOL0     H 8665  12.436  10.662   2.110  0.0687 -0.0580  1.2009
   63MOL0     H 8666  12.248  10.436   2.203 -1.4395  0.6060  0.3827
   63MOL0     H 8667  12.246  10.610   2.248 -2.4542 -0.6711  0.1482
   63MOL0     H 8668  12.201  10.460   1.979  2.7272  2.1002 -1.5035
   63MOL0     H 8669  12.224  10.637   1.981 -0.5787  0.8401 -0.9953
   63MOL0     H 8670  12.032  10.662   2.130 -1.7540 -0.7838  1.6614
   63MOL0     H 8671  12.011  10.484   2.104  0.3964 -1.1120 -1.3595
   63MOL0     H 8672  11.867  10.620   1.936 -0.2462  0.4991  3.0833
   63MOL0     H 8673  11.992  10.528   1.861 -3.1471  1.1585 -0.5801
   63MOL0     H 8674  12.928  10.374   2.471 -0.9015  1.1392 -1.7301
   63MOL0     H 8675  12.997  10.142   2.424 -0.5142 -0.5978  1.3488
   63MOL0     H 8676  12.744   9.697   2.416 -0.8510  1.6646  3.1623
   63MOL0     H 8677  12.735   9.485   2.497 -0.7792  1.1880 -1.1623
   63MOL0     H 8678  11.465  10.217   3.525  2.2997  0.2685  3.8636
   63MOL0     H 8679  11.284  10.281   3.653 -0.2230  0.3996  0.2211
   63MOL0     H 8680  10.795   9.905   3.752  1.7363 -0.0538  0.2657
   63MOL0     H 8681  10.614   9.917   3.885  0.8626 -0.2229 -2.3363
   63MOL0     H 8682  10.549  10.331   4.113 -2.0576  0.1326 -0.1966
   63MOL0     H 8683  10.460  10.231   4.222  1.2122 -1.9983  0.7159
   63MOL0     H 8684  10.754  10.181   4.220 -2.6573 -1.8452 -2.7671
   63MOL0     H 8685  10.634  10.165   4.351 -0.1754  0.4319 -0.3514
   63MOL0     H 8686  10.706  10.432   4.246  3.4080  2.8958  2.4700
   63MOL0     H 8687  10.613  10.398   4.383  0.7989  2.6178 -0.9285
   63MOL0     H 8688  10.794  10.274   4.489  1.7044  1.3914  1.3914
   63MOL0     H 8689  10.841  10.445   4.471 -2.1896 -0.2605  2.0529
   63MOL0     H 8690  11.127  10.340   4.205  0.2437  3.5040 -0.8790
   63MOL0     H 8691  10.737  10.322   4.011  3.8284  0.3941 -0.2213
   63MOL0     H 8692  10.974  10.378   3.801  1.4117  0.7293  0.3926
   63MOL0     H 8693  10.922  10.400   3.978  1.7283  1.6167 -1.2312
   63MOL0     H 8694  11.051  10.294   3.924 -0.4510 -0.6306 -2.2019
   64MOL0     O 8695   9.814   8.003   9.386 -0.0981  0.1695  0.8311
   64MOL0     C 8696   9.750   8.092   9.321 -0.7718  0.4418 -0.2694
   64MOL0     O 8697   9.754   8.103   9.183 -0.4095 -0.3647 -0.0839
   64MOL0     C 8698   9.802   8.001   9.113 -0.4004  0.2565  0.4135
   64MOL0     C 8699   9.751   7.875   9.107  0.2719  0.6757 -1.1930
   64MOL0     C 8700   9.782   7.787   9.009 -0.1317 -0.1836 -0.1461
   64MOL0     C 8701   9.877   7.822   8.914 -0.3332  0.1168 -0.4721
   64MOL0     O 8702   9.917   7.741   8.809  0.4624  0.1300 -0.3923
   64MOL0     C 8703   9.920   7.601   8.809 -0.2680  0.6240 -0.7413
   64MOL0     C 8704   9.969   7.560   8.667 -0.8169 -0.2893 -0.3410
   64MOL0     C 8705  10.127   7.558   8.678  0.0058  0.3073  0.7420
   64MOL0     C 8706  10.204   7.531   8.544  0.1408 -0.7140 -0.2635
   64MOL0     C 8707  10.353   7.542   8.562 -0.2808  0.2206  0.3012
   64MOL0     C 8708  10.428   7.511   8.429  0.3653  0.0242 -0.7374
   64MOL0     C 8709  10.581   7.471   8.468 -0.4243  0.1081  0.4642
   64MOL0     C 8710  10.654   7.380   8.366 -0.3764  0.3737 -0.1727
   64MOL0     N 8711  10.725   7.473   8.271 -0.0785 -0.1057  0.2257
   64MOL0     C 8712  10.839   7.543   8.306 -0.9942 -0.0941 -0.4960
   64MOL0     C 8713  10.875   7.605   8.190 -0.6420 -0.6655 -0.6652
   64MOL0     C 8714  10.993   7.702   8.185  0.3867  0.1142  0.5268
   64MOL0     C 8715  11.118   7.649   8.248  0.2703  0.8832 -0.2733
   64MOL0     C 8716  11.174   7.523   8.182 -0.3093 -0.4063 -0.7016
   64MOL0     C 8717  11.291   7.567   8.106  0.0518  0.7415  0.2330
   64MOL0     O 8718  11.261   7.646   7.995 -0.5649 -0.0739 -0.1544
   64MOL0     C 8719  11.363   7.672   7.904  0.9702 -0.1547 -0.1785
   64MOL0     C 8720  11.497   7.634   7.927  0.8566 -1.2802  0.4876
   64MOL0     C 8721  11.596   7.678   7.838  0.1649 -0.2718 -0.1119
   64MOL0     C 8722  11.734   7.644   7.871 -0.9743  0.3392 -0.0092
   64MOL0     C 8723  11.558   7.740   7.717 -0.0458 -0.3559 -0.0977
   64MOL0     C 8724  11.659   7.781   7.612  0.1385  0.4608  0.1992
   64MOL0     O 8725  11.661   7.900   7.556  0.4908 -0.7759 -0.8090
   64MOL0     C 8726  11.755   7.931   7.461 -1.1351 -0.1152  0.8950
   64MOL0     C 8727  11.736   7.873   7.337  0.4681  0.5282 -0.3453
   64MOL0     C 8728  11.820   7.895   7.233 -0.5158  0.2640 -0.1604
   64MOL0     C 8729  11.918   7.998   7.246  0.1995 -0.0358 -1.2416
   64MOL0     O 8730  11.983   8.023   7.135 -0.9176  0.1340 -0.6314
   64MOL0     C 8731  12.046   8.152   7.113 -0.0110  0.3309  0.0429
   64MOL0     C 8732  12.034   8.202   6.972 -0.3565  0.0670  0.7589
   64MOL0     C 8733  11.883   8.207   6.929 -0.9825  0.3030  0.0750
   64MOL0     C 8734  11.839   8.082   6.854  0.3391 -1.0818  0.0118
   64MOL0     C 8735  11.697   8.074   6.790 -0.4889 -0.6913  0.1069
   64MOL0     C 8736  11.690   7.966   6.678  0.3087  0.3612 -0.1846
   64MOL0     C 8737  11.544   7.927   6.649 -0.0843  0.0609  0.5545
   64MOL0     C 8738  11.481   7.833   6.756  0.1592 -0.2487  0.4788
   64MOL0    Cl 8739  11.579   7.682   6.755  0.0216 -0.4215 -0.0590
   64MOL0     C 8740  11.936   8.062   7.364  0.1172  0.6858 -1.1995
   64MOL0     C 8741  11.861   8.025   7.473 -0.1836  0.4281 -0.3708
   64MOL0     O 8742  11.734   7.689   7.570  0.4293 -0.6764  0.6279
   64MOL0     C 8743  11.423   7.771   7.687  0.2677 -0.1356 -0.8500
   64MOL0     C 8744  11.327   7.742   7.786 -0.5859  0.2272 -0.4055
   64MOL0     N 8745  10.787   7.571   8.094  0.1205  0.7366  0.1255
   64MOL0     N 8746  10.698   7.488   8.140  0.2302  0.2072 -0.1908
   64MOL0     C 8747   9.930   7.952   8.912 -0.2426 -0.0119 -0.7012
   64MOL0     C 8748   9.892   8.046   9.012 -1.2256  0.0563  0.5498
   64MOL0     C 8749   9.661   8.181   9.397 -0.4763 -0.0353  0.1331
   64MOL0     C 8750   9.653   8.306   9.326  1.3095  0.1143  0.8869
   64MOL0     C 8751   9.564   8.405   9.362 -0.8613  0.2558 -0.0536
   64MOL0     C 8752   9.499   8.402   9.486 -0.1297  0.6911 -0.7540
   64MOL0     O 8753   9.434   8.504   9.554 -0.8758  0.2171 -0.1960
   64MOL0     C 8754   9.339   8.578   9.473 -0.6136  0.1282 -0.3915
   64MOL0     C 8755   9.218   8.597   9.558 -0.3403  0.3189 -0.6211
   64MOL0     C 8756   9.252   8.680   9.682 -0.0331 -0.2186 -0.6055
   64MOL0     C 8757   9.132   8.721   9.766 -0.5432 -0.2611 -0.7037
   64MOL0     C 8758   9.064   8.598   9.816 -0.0097 -0.0724 -0.3990
   64MOL0     C 8759   9.015   8.498   9.859  0.1037  0.6164 -0.5020
   64MOL0     C 8760   9.506   8.280   9.559  0.6805  0.3386 -0.4097
   64MOL0     C 8761   9.586   8.164   9.512  0.2194 -0.3796  0.1656
   64MOL0     C 8762   9.573   8.044   9.605 -0.0439 -0.1290  0.1541
   64MOL0     H 8763   9.671   7.850   9.176  0.9045 -0.5289 -0.8808
   64MOL0     H 8764   9.741   7.686   9.014 -0.6492  0.0944  3.1712
   64MOL0     H 8765   9.814   7.578   8.816  0.2867 -1.7999  0.6074
   64MOL0     H 8766   9.978   7.560   8.892 -0.1778 -0.9390 -1.5316
   64MOL0     H 8767   9.929   7.458   8.658  0.2999 -1.0243  2.1531
   64MOL0     H 8768   9.935   7.623   8.585  0.2189  0.4203 -0.2418
   64MOL0     H 8769  10.158   7.661   8.699  1.0118  0.0573  0.5682
   64MOL0     H 8770  10.147   7.487   8.758 -0.8718 -2.9758 -1.7431
   64MOL0     H 8771  10.175   7.428   8.520 -1.9937 -0.2045 -0.0507
   64MOL0     H 8772  10.187   7.596   8.457  1.0698 -3.0971 -2.3808
   64MOL0     H 8773  10.383   7.470   8.639  0.1009  2.5552  2.4999
   64MOL0     H 8774  10.374   7.641   8.605 -0.1842  2.4703 -4.2467
   64MOL0     H 8775  10.385   7.424   8.379  0.1328 -0.9564  1.0685
   64MOL0     H 8776  10.419   7.601   8.369 -2.0568  1.0800  1.0131
   64MOL0     H 8777  10.590   7.416   8.562  0.8323  0.2715  0.4504
   64MOL0     H 8778  10.641   7.562   8.480 -0.0140 -0.2651  1.3664
   64MOL0     H 8779  10.722   7.304   8.406  1.3584  1.0399 -1.7307
   64MOL0     H 8780  10.586   7.320   8.304  0.7514 -0.4055 -0.6930
   64MOL0     H 8781  10.879   7.561   8.405 -1.6529  1.2612 -0.4508
   64MOL0     H 8782  10.957   7.794   8.233 -0.1684  0.2856 -0.2009
   64MOL0     H 8783  11.016   7.738   8.085  0.9156 -2.4697 -0.3569
   64MOL0     H 8784  11.192   7.729   8.256  0.2048  0.8846  0.4078
   64MOL0     H 8785  11.103   7.617   8.352  2.3273  3.3847  0.9014
   64MOL0     H 8786  11.206   7.453   8.259  1.2644 -0.5327 -1.4304
   64MOL0     H 8787  11.096   7.470   8.127  0.5956 -1.5861 -0.8771
   64MOL0     H 8788  11.359   7.622   8.172  1.8522  0.2889 -1.1762
   64MOL0     H 8789  11.335   7.475   8.068 -1.9712  0.1079 -0.6640
   64MOL0     H 8790  11.528   7.587   8.020 -2.2133 -1.4868  1.4957
   64MOL0     H 8791  11.753   7.563   7.800 -0.1406  0.0166  0.5715
   64MOL0     H 8792  11.741   7.602   7.972  0.2314  1.7549  0.5194
   64MOL0     H 8793  11.803   7.727   7.855  0.0803 -0.6716 -0.9476
   64MOL0     H 8794  11.652   7.805   7.325  1.4359 -0.5280 -1.4386
   64MOL0     H 8795  11.809   7.854   7.133  1.0608 -2.5169  0.6921
   64MOL0     H 8796  11.996   8.224   7.179 -1.2808  1.4540 -2.0548
   64MOL0     H 8797  12.153   8.144   7.136 -0.1503  2.7139  1.9743
   64MOL0     H 8798  12.070   8.305   6.975 -1.6551  0.5515  0.4200
   64MOL0     H 8799  12.090   8.148   6.895 -3.2187 -2.4255  0.2288
   64MOL0     H 8800  11.858   8.290   6.862 -0.9180  2.0260  2.0808
   64MOL0     H 8801  11.812   8.226   7.010 -1.0400  0.3091  0.0235
   64MOL0     H 8802  11.847   7.998   6.923 -2.7662 -0.9698  0.6724
   64MOL0     H 8803  11.901   8.064   6.765  0.1979  1.3015 -0.6381
   64MOL0     H 8804  11.632   8.048   6.874  2.0870  0.7723  2.7220
   64MOL0     H 8805  11.666   8.170   6.746  0.8744 -0.4160 -0.3010
   64MOL0     H 8806  11.743   7.875   6.706 -1.6335 -0.4249  1.1907
   64MOL0     H 8807  11.735   8.010   6.589  0.6403  1.7701  0.6487
   64MOL0     H 8808  11.540   7.877   6.552 -1.7312 -0.1230  0.6972
   64MOL0     H 8809  11.487   8.020   6.646  0.1046  0.1676  0.2088
   64MOL0     H 8810  11.373   7.821   6.745  0.1072  0.3038  0.3432
   64MOL0     H 8811  11.493   7.874   6.856  0.8822 -1.5667  0.9585
   64MOL0     H 8812  12.001   8.144   7.391 -2.3849  1.8966  1.8571
   64MOL0     H 8813  11.880   8.068   7.571  1.6351 -0.8813 -0.0849
   64MOL0     H 8814  11.387   7.829   7.603  1.1745  0.8833 -0.5485
   64MOL0     H 8815  11.219   7.752   7.775 -0.8017  0.0369  1.2113
   64MOL0     H 8816  10.000   7.973   8.833  0.7989 -1.1387 -0.1139
   64MOL0     H 8817   9.938   8.145   9.006 -0.9616 -0.1136 -0.3897
   64MOL0     H 8818   9.711   8.351   9.246 -2.7796  3.5269 -0.5337
   64MOL0     H 8819   9.559   8.498   9.306 -0.3967  2.1524  2.8594
   64MOL0     H 8820   9.371   8.675   9.434 -0.6986  0.1021 -0.5268
   64MOL0     H 8821   9.310   8.513   9.390 -1.9655 -1.7852  1.4511
   64MOL0     H 8822   9.178   8.503   9.597  0.0819  0.9381  1.4311
   64MOL0     H 8823   9.138   8.645   9.501 -0.4536 -2.8126 -3.3769
   64MOL0     H 8824   9.325   8.634   9.748  0.5751 -0.8601 -1.7051
   64MOL0     H 8825   9.295   8.776   9.650  0.0048 -1.1608 -3.7688
   64MOL0     H 8826   9.070   8.796   9.716  1.4136  0.0149 -2.9237
   64MOL0     H 8827   9.165   8.776   9.854 -2.6008  0.5177 -0.3606
   64MOL0     H 8828   8.970   8.403   9.879 -0.5338  0.5829 -1.9597
   64MOL0     H 8829   9.460   8.275   9.657  1.1005  0.4339 -0.2053
   64MOL0     H 8830   9.608   8.067   9.706 -2.6712  1.1269  0.8630
   64MOL0     H 8831   9.466   8.026   9.613 -0.1920 -0.2310 -1.5440
   64MOL0     H 8832   9.614   7.947   9.573  2.0516  1.7705 -3.6540
   65MOL0     O 8833   7.553   2.931   6.804 -0.0775 -0.6922  0.8240
   65MOL0     C 8834   7.478   2.971   6.711 -0.3251  0.4633 -0.7378
   65MOL0     O 8835   7.522   3.061   6.611 -0.1252 -1.2080  0.0662
   65MOL0     C 8836   7.659   3.093   6.613  0.9816  0.6886 -0.2304
   65MOL0     C 8837   7.713   3.215   6.657 -0.0051 -0.4290 -0.0088
   65MOL0     C 8838   7.841   3.249   6.629 -0.4144 -0.7843 -0.0928
   65MOL0     C 8839   7.928   3.162   6.569 -0.4901  0.1587 -0.5795
   65MOL0     O 8840   8.059   3.197   6.536  0.0794  0.3101 -0.1226
   65MOL0     C 8841   8.129   3.273   6.637 -0.2067 -0.1365 -0.4413
   65MOL0     C 8842   8.272   3.212   6.636  0.6065 -0.1219 -0.9337
   65MOL0     C 8843   8.338   3.258   6.509 -0.5663 -0.0094 -0.6511
   65MOL0     C 8844   8.485   3.231   6.494  0.3420  0.2048  0.2112
   65MOL0     C 8845   8.515   3.071   6.497  0.3753 -0.0388 -0.3233
   65MOL0     C 8846   8.663   3.028   6.491  0.5231 -0.4083  0.3150
   65MOL0     C 8847   8.764   3.113   6.557 -0.7772  0.1245 -0.2756
   65MOL0     C 8848   8.903   3.032   6.567 -0.5593  0.3441  0.1169
   65MOL0     N 8849   8.946   2.972   6.438  0.6171  0.1516  0.0762
   65MOL0     C 8850   8.924   2.845   6.378 -0.0858 -1.1990 -0.3539
   65MOL0     C 8851   8.961   2.857   6.247 -0.4939  0.4214 -0.0598
   65MOL0     C 8852   8.984   2.739   6.148 -0.4633  0.4749 -0.6370
   65MOL0     C 8853   9.124   2.684   6.166 -0.2368  1.1737  0.3460
   65MOL0     C 8854   9.147   2.585   6.051 -0.0383 -0.4480 -0.1444
   65MOL0     C 8855   9.285   2.523   6.052 -0.0804  0.6076  0.0856
   65MOL0     O 8856   9.361   2.630   5.982 -0.1301  0.8481  0.0830
   65MOL0     C 8857   9.484   2.597   5.950 -0.6265 -0.5172 -0.6866
   65MOL0     C 8858   9.566   2.708   5.915 -0.4881  0.3647 -0.5207
   65MOL0     C 8859   9.708   2.694   5.886  0.4284  1.1823 -0.0939
   65MOL0     C 8860   9.789   2.807   5.834  0.0710 -0.6797 -0.6915
   65MOL0     C 8861   9.763   2.567   5.903  0.5441 -0.7625 -0.1988
   65MOL0     C 8862   9.901   2.537   5.872  1.1684 -0.6776  0.4387
   65MOL0     O 8863   9.954   2.465   5.981  1.0964  0.1812  0.1459
   65MOL0     C 8864  10.069   2.393   5.943  0.1048 -0.0507 -0.9972
   65MOL0     C 8865  10.193   2.453   5.975 -1.1542  0.9947  0.0461
   65MOL0     C 8866  10.307   2.376   5.956  0.2156  0.6593 -0.3716
   65MOL0     C 8867  10.305   2.246   5.900  0.5116  0.0441 -0.3269
   65MOL0     O 8868  10.409   2.159   5.883  0.4887  0.0455 -0.3883
   65MOL0     C 8869  10.529   2.203   5.941  1.2277  0.4934  0.5276
   65MOL0     C 8870  10.638   2.116   5.886  0.6268  0.5289  0.8332
   65MOL0     C 8871  10.671   2.106   5.735  1.0010 -0.3096 -0.9838
   65MOL0     C 8872  10.806   2.035   5.703  0.2053  0.7910 -0.4375
   65MOL0     C 8873  10.842   2.047   5.554 -0.0603  0.5396  0.8333
   65MOL0     C 8874  10.965   1.966   5.515  0.4437 -0.0945  0.0371
   65MOL0     C 8875  10.985   1.961   5.352  0.0649  0.7848 -0.4006
   65MOL0     C 8876  11.014   2.096   5.282  0.4666  0.0816 -0.1788
   65MOL0    Cl 8877  11.028   2.068   5.100 -0.2067 -0.2579 -0.1097
   65MOL0     C 8878  10.175   2.198   5.861 -0.1595 -0.1126  0.3192
   65MOL0     C 8879  10.059   2.270   5.882 -0.2578  1.0996  0.1142
   65MOL0     O 8880   9.961   2.588   5.780 -0.2537  0.3476 -0.4154
   65MOL0     C 8881   9.687   2.459   5.945 -0.1296  0.1119  0.1998
   65MOL0     C 8882   9.546   2.476   5.971 -0.2005 -0.3572  0.4239
   65MOL0     N 8883   8.990   2.996   6.225  0.3011 -0.0016 -0.5729
   65MOL0     N 8884   8.984   3.056   6.338  0.2900  0.4788 -0.2756
   65MOL0     C 8885   7.879   3.032   6.537  0.0910  0.5439 -0.1119
   65MOL0     C 8886   7.744   2.995   6.567 -0.8031 -0.0486  0.4601
   65MOL0     C 8887   7.335   2.907   6.702 -0.2018  0.3862  0.4610
   65MOL0     C 8888   7.256   2.958   6.596 -0.5495  0.0902 -0.1363
   65MOL0     C 8889   7.119   2.924   6.586 -1.0156 -0.6129  0.4706
   65MOL0     C 8890   7.064   2.821   6.658  1.2125  0.2386 -0.3623
   65MOL0     O 8891   6.936   2.771   6.644 -0.2405 -0.2128  0.3518
   65MOL0     C 8892   6.858   2.825   6.543 -0.1395 -0.1749  0.9607
   65MOL0     C 8893   6.714   2.781   6.552  0.5530 -0.1692 -0.8723
   65MOL0     C 8894   6.639   2.821   6.681 -0.2253 -0.2317  0.5558
   65MOL0     C 8895   6.483   2.804   6.679  0.3389  0.3133 -0.0261
   65MOL0     C 8896   6.430   2.836   6.811 -0.2976 -0.0440  0.7007
   65MOL0     C 8897   6.406   2.881   6.914 -0.1039 -0.8217 -0.9044
   65MOL0     C 8898   7.145   2.774   6.762 -0.1803  0.0099  0.1724
   65MOL0     C 8899   7.276   2.816   6.792 -0.2643  0.0364  0.4882
   65MOL0     C 8900   7.353   2.754   6.903  0.2551  0.4043  1.0135
   65MOL0     H 8901   7.652   3.293   6.702 -2.1040 -0.4275 -2.6287
   65MOL0     H 8902   7.877   3.347   6.658 -1.0437 -0.4635 -0.3817
   65MOL0     H 8903   8.088   3.267   6.738  0.7790  1.8587  0.1199
   65MOL0     H 8904   8.129   3.378   6.606 -0.2565  0.3768  1.2359
   65MOL0     H 8905   8.322   3.256   6.723  0.6797  1.3440 -1.6897
   65MOL0     H 8906   8.266   3.103   6.638  2.9096 -0.3472  3.0784
   65MOL0     H 8907   8.288   3.207   6.426  1.4931  0.9634 -2.6004
   65MOL0     H 8908   8.326   3.364   6.484  0.1616 -0.2049 -1.9451
   65MOL0     H 8909   8.517   3.274   6.399 -0.9312  1.8503  0.4684
   65MOL0     H 8910   8.537   3.292   6.568 -0.0875  3.0975 -1.6998
   65MOL0     H 8911   8.452   3.021   6.423  0.4749 -0.4486 -0.1296
   65MOL0     H 8912   8.471   3.037   6.591  1.7377 -1.4203 -0.1464
   65MOL0     H 8913   8.664   2.931   6.543 -0.3854 -0.2306  0.6802
   65MOL0     H 8914   8.687   3.013   6.385 -1.3924  0.9730 -0.3659
   65MOL0     H 8915   8.742   3.135   6.662  0.9033 -0.6723  0.2765
   65MOL0     H 8916   8.766   3.209   6.505  0.7202  0.7012  0.7856
   65MOL0     H 8917   8.981   3.098   6.607 -0.6894 -1.6056  4.0871
   65MOL0     H 8918   8.896   2.960   6.649  2.8293 -2.0759 -1.4833
   65MOL0     H 8919   8.912   2.752   6.433 -1.8510 -1.6845 -1.4794
   65MOL0     H 8920   8.955   2.783   6.052 -3.7952  0.3201  0.1861
   65MOL0     H 8921   8.917   2.657   6.172  0.2391 -0.4695 -1.7890
   65MOL0     H 8922   9.197   2.764   6.151  1.7247 -0.7571 -1.0908
   65MOL0     H 8923   9.143   2.635   6.261  0.1895  0.2394 -0.2085
   65MOL0     H 8924   9.069   2.509   6.046  1.1137 -1.5916 -2.0528
   65MOL0     H 8925   9.131   2.636   5.955 -2.0235 -1.7073 -0.5521
   65MOL0     H 8926   9.313   2.497   6.155 -2.2956 -2.2961  0.1012
   65MOL0     H 8927   9.282   2.422   6.011  2.6472 -0.9442  3.2034
   65MOL0     H 8928   9.515   2.804   5.906 -1.8925 -0.3952 -0.9892
   65MOL0     H 8929   9.720   2.892   5.835 -0.9683 -1.4976  0.6629
   65MOL0     H 8930   9.839   2.795   5.738 -0.0149  0.8137 -0.9456
   65MOL0     H 8931   9.872   2.822   5.904 -0.3857  0.6894 -0.4208
   65MOL0     H 8932  10.190   2.553   6.017 -1.0128  0.9238  0.2272
   65MOL0     H 8933  10.399   2.427   5.983 -0.5723  1.0241  1.8645
   65MOL0     H 8934  10.552   2.306   5.911 -1.7490  1.0978  0.0237
   65MOL0     H 8935  10.531   2.191   6.050 -1.2561  2.0223  0.8157
   65MOL0     H 8936  10.729   2.126   5.945 -0.3349 -1.2703  2.7550
   65MOL0     H 8937  10.598   2.017   5.910 -2.5424  1.2352 -0.9089
   65MOL0     H 8938  10.672   2.206   5.691  1.7492  0.5515  0.8728
   65MOL0     H 8939  10.585   2.056   5.689 -1.0355  0.2341  1.9729
   65MOL0     H 8940  10.796   1.929   5.730 -1.5229  0.7343 -1.1828
   65MOL0     H 8941  10.891   2.069   5.762 -1.1710  3.2899  0.2192
   65MOL0     H 8942  10.757   2.009   5.496 -1.4432 -3.0850  4.7301
   65MOL0     H 8943  10.863   2.153   5.537 -1.2427  0.9381  1.6890
   65MOL0     H 8944  10.961   1.872   5.571 -0.4620 -0.0667  0.0302
   65MOL0     H 8945  11.049   2.026   5.554  0.3063  1.4202 -1.8353
   65MOL0     H 8946  10.891   1.914   5.321 -0.4142  0.5620  1.2800
   65MOL0     H 8947  11.068   1.894   5.327 -1.5294 -1.0323 -1.1480
   65MOL0     H 8948  11.112   2.137   5.307  1.3610 -1.2090 -1.4299
   65MOL0     H 8949  10.927   2.162   5.290 -0.8658 -1.5685 -0.3470
   65MOL0     H 8950  10.178   2.102   5.811  1.7630  0.3207 -0.4679
   65MOL0     H 8951   9.959   2.231   5.864  0.5910 -0.3234 -1.8563
   65MOL0     H 8952   9.739   2.367   5.971  0.3229 -0.8035 -3.4105
   65MOL0     H 8953   9.497   2.390   6.015 -2.4483 -0.5880 -2.2352
   65MOL0     H 8954   7.949   2.957   6.502  0.5983  1.9198 -2.2196
   65MOL0     H 8955   7.710   2.896   6.540  1.4374 -0.6111 -0.5085
   65MOL0     H 8956   7.284   3.051   6.548 -2.5013  0.9964  0.3778
   65MOL0     H 8957   7.066   2.988   6.516  0.8001 -0.0333 -0.4600
   65MOL0     H 8958   6.860   2.934   6.547 -0.4974 -0.0929 -0.5209
   65MOL0     H 8959   6.890   2.788   6.445  0.2465  2.1750  0.1564
   65MOL0     H 8960   6.721   2.673   6.565  4.2715  0.2581  3.0167
   65MOL0     H 8961   6.661   2.814   6.462 -0.3138  1.8024  0.2904
   65MOL0     H 8962   6.681   2.756   6.758 -1.7791 -2.2223 -0.1743
   65MOL0     H 8963   6.653   2.927   6.703 -0.1451 -0.2987  0.8213
   65MOL0     H 8964   6.448   2.703   6.655 -1.8424  0.7612  1.0264
   65MOL0     H 8965   6.432   2.875   6.613  0.5379  1.9275  1.4905
   65MOL0     H 8966   6.381   2.909   7.015  0.9442 -3.2899  0.1452
   65MOL0     H 8967   7.109   2.686   6.814  1.8382 -0.5494  0.7415
   65MOL0     H 8968   7.294   2.681   6.958  1.4305 -3.2490 -2.1448
   65MOL0     H 8969   7.439   2.695   6.867 -0.9137 -3.5094  3.9287
   65MOL0     H 8970   7.392   2.828   6.974  1.3007 -0.8755  1.8383
   66MOL0     O 8971  11.198  10.530   1.744  0.4154  0.3993  0.0345
   66MOL0     C 8972  11.138  10.473   1.653  0.0937 -0.3055  0.4637
   66MOL0     O 8973  11.196  10.429   1.538  0.3443  0.0581 -0.1223
   66MOL0     C 8974  11.334  10.434   1.529 -0.6546  1.2763  0.9577
   66MOL0     C 8975  11.393  10.489   1.414  0.1857  0.3418 -0.0966
   66MOL0     C 8976  11.527  10.483   1.392  0.8245 -0.1397  0.6986
   66MOL0     C 8977  11.617  10.443   1.489 -0.4689  0.0514 -0.3278
   66MOL0     O 8978  11.752  10.438   1.468 -0.2453  0.1876  0.4205
   66MOL0     C 8979  11.854  10.440   1.564 -0.0688  0.1633 -0.1487
   66MOL0     C 8980  11.993  10.415   1.501 -0.3262  0.2737  0.4131
   66MOL0     C 8981  12.115  10.443   1.596  0.1225 -0.1861 -0.1799
   66MOL0     C 8982  12.246  10.420   1.526 -0.2950  0.1156  0.6577
   66MOL0     C 8983  12.365  10.454   1.621 -0.1365 -0.2645  0.3723
   66MOL0     C 8984  12.500  10.416   1.566 -0.7176  0.8684  0.4134
   66MOL0     C 8985  12.612  10.475   1.645 -0.2396 -0.2151 -0.0934
   66MOL0     C 8986  12.625  10.407   1.776  0.5034  1.0033 -0.3547
   66MOL0     N 8987  12.722  10.466   1.865  0.2674  0.0740 -0.0338
   66MOL0     C 8988  12.857  10.442   1.858  0.0341  0.0388 -0.1927
   66MOL0     C 8989  12.908  10.549   1.928 -0.1987  0.9703 -1.0095
   66MOL0     C 8990  13.050  10.583   1.950 -0.2744 -0.4660  0.1272
   66MOL0     C 8991  13.093  10.615   2.100  0.8713 -0.1991  0.5338
   66MOL0     C 8992  13.174  10.501   2.152  0.0542  0.9161 -0.0296
   66MOL0     C 8993  13.194  10.511   2.312 -0.2494  0.5839 -0.2366
   66MOL0     O 8994  13.199  10.643   2.367 -0.3361  0.0819  0.8064
   66MOL0     C 8995  13.167  10.658   2.498 -0.1178  0.2520  0.1940
   66MOL0     C 8996  13.201  10.563   2.595  0.5499 -0.4920  0.6730
   66MOL0     C 8997  13.176  10.584   2.733 -0.1364 -0.8766 -0.3353
   66MOL0     C 8998  13.231  10.485   2.832 -0.6178 -0.2065  0.5492
   66MOL0     C 8999  13.116  10.704   2.776  0.1958 -0.9503 -0.6557
   66MOL0     C 9000  13.082  10.743   2.917 -0.1968 -0.5001 -0.9114
   66MOL0     O 9001  13.110  10.874   2.941  0.4861  0.2544 -0.1432
   66MOL0     C 9002  13.079  10.928   3.066  0.1871  0.3749 -0.2628
   66MOL0     C 9003  13.175  10.986   3.152 -0.0809  0.5159 -0.2560
   66MOL0     C 9004  13.143  11.047   3.273  0.6174 -0.4497 -0.3017
   66MOL0     C 9005  13.011  11.054   3.306  0.9844 -0.0077  0.0607
   66MOL0     O 9006  12.965  11.107   3.420 -0.4738 -0.3558  0.2572
   66MOL0     C 9007  13.049  11.146   3.528 -0.0258 -0.2439 -0.3455
   66MOL0     C 9008  13.130  11.029   3.591  0.1267  0.1547 -0.1791
   66MOL0     C 9009  13.051  10.952   3.699 -0.3266  0.0867 -0.0342
   66MOL0     C 9010  13.160  10.902   3.800  0.4782  0.0249 -0.6566
   66MOL0     C 9011  13.105  10.807   3.911  0.2110 -0.2659  0.7423
   66MOL0     C 9012  13.216  10.755   4.008 -0.4043  0.0690  0.6330
   66MOL0     C 9013  13.143  10.693   4.133 -0.8185  0.7170 -0.4709
   66MOL0     C 9014  13.255  10.626   4.227 -0.1332  0.0893 -0.3798
   66MOL0    Cl 9015  13.356  10.766   4.280  0.3080  0.3149 -0.3155
   66MOL0     C 9016  12.910  11.003   3.221  0.6883 -0.0489  0.0681
   66MOL0     C 9017  12.945  10.932   3.111  0.2821 -0.2156 -0.4704
   66MOL0     O 9018  13.034  10.663   3.001 -0.5319  0.3585 -0.2350
   66MOL0     C 9019  13.078  10.794   2.677 -0.3325  0.8830  0.1304
   66MOL0     C 9020  13.097  10.773   2.537  0.3451 -1.0273 -0.1896
   66MOL0     N 9021  12.808  10.634   1.972  0.4800  0.5122 -0.2263
   66MOL0     N 9022  12.701  10.580   1.940  0.2547  0.2270 -0.5767
   66MOL0     C 9023  11.566  10.383   1.602 -0.5718 -0.3776 -0.1738
   66MOL0     C 9024  11.422  10.372   1.623 -0.0860 -0.2796 -0.3414
   66MOL0     C 9025  10.986  10.464   1.661  0.1656  0.7464 -0.0346
   66MOL0     C 9026  10.919  10.550   1.751  0.0367 -0.3007  0.2281
   66MOL0     C 9027  10.781  10.563   1.759  1.0132 -0.0725 -0.5575
   66MOL0     C 9028  10.703  10.478   1.681 -0.1553  0.2253  0.7789
   66MOL0     O 9029  10.568  10.467   1.677 -0.1354 -0.2547  0.7985
   66MOL0     C 9030  10.500  10.535   1.789  0.1813  0.6114 -0.0733
   66MOL0     C 9031  10.368  10.470   1.809  0.0827  0.0721  0.7856
   66MOL0     C 9032  10.293  10.530   1.928 -0.9210 -0.4384  0.6533
   66MOL0     C 9033  10.216  10.660   1.907  0.0331  0.7704  0.5924
   66MOL0     C 9034  10.151  10.715   2.026 -0.1741 -0.1359  1.0376
   66MOL0     C 9035  10.084  10.763   2.114 -0.4212  0.4494 -0.8074
   66MOL0     C 9036  10.766  10.407   1.578 -0.4642  0.0908 -0.1198
   66MOL0     C 9037  10.906  10.394   1.566  0.0001  0.2931  0.2953
   66MOL0     C 9038  10.952  10.301   1.460 -0.3914 -0.4069 -0.6705
   66MOL0     H 9039  11.330  10.542   1.343 -0.3598  2.3077  1.7445
   66MOL0     H 9040  11.549  10.523   1.294  0.7937 -1.0887  0.2920
   66MOL0     H 9041  11.840  10.358   1.635  1.0338 -0.5082 -0.6785
   66MOL0     H 9042  11.851  10.534   1.621 -0.0192  0.1362 -0.1027
   66MOL0     H 9043  12.007  10.318   1.452  0.1875  1.5332 -2.1220
   66MOL0     H 9044  12.012  10.491   1.424 -1.3175  2.4521  2.2212
   66MOL0     H 9045  12.116  10.548   1.627  1.8344 -0.0352 -0.6249
   66MOL0     H 9046  12.111  10.376   1.683  1.0620  2.1982  1.8068
   66MOL0     H 9047  12.251  10.315   1.497  0.7900  0.6865 -1.3822
   66MOL0     H 9048  12.239  10.486   1.439  1.4616  0.6903  0.9235
   66MOL0     H 9049  12.344  10.407   1.717 -3.1137  1.3010  0.5849
   66MOL0     H 9050  12.372  10.563   1.635  0.1024 -0.2494  0.1632
   66MOL0     H 9051  12.510  10.308   1.563 -0.2393  0.4812  5.6449
   66MOL0     H 9052  12.517  10.469   1.472  1.1718  1.0644  0.8214
   66MOL0     H 9053  12.602  10.582   1.665  0.8972 -0.1260  0.0734
   66MOL0     H 9054  12.711  10.456   1.602  0.5190  0.1868  1.3844
   66MOL0     H 9055  12.525  10.410   1.822  0.3641  1.0707 -0.6591
   66MOL0     H 9056  12.672  10.309   1.767  0.5403  0.8544  1.2004
   66MOL0     H 9057  12.897  10.352   1.812  0.2532  0.5012 -0.9352
   66MOL0     H 9058  13.066  10.677   1.897  0.7499  0.1212  1.4220
   66MOL0     H 9059  13.112  10.508   1.900 -1.9861 -0.9474 -1.3768
   66MOL0     H 9060  13.146  10.710   2.113  0.9977 -0.1582 -0.2069
   66MOL0     H 9061  13.005  10.623   2.164  0.8025 -1.2763  0.5828
   66MOL0     H 9062  13.122  10.407   2.135 -0.3099  1.2687 -0.9010
   66MOL0     H 9063  13.272  10.499   2.104  0.2432  1.5484  0.3044
   66MOL0     H 9064  13.111  10.459   2.360  0.1643 -1.0152 -1.1804
   66MOL0     H 9065  13.283  10.454   2.340 -0.8432 -0.7540 -0.9714
   66MOL0     H 9066  13.237  10.465   2.567  0.8140 -0.3928  0.6584
   66MOL0     H 9067  13.300  10.416   2.783 -0.4557  0.5232 -0.2762
   66MOL0     H 9068  13.149  10.433   2.883 -2.3008  0.9261 -0.8392
   66MOL0     H 9069  13.292  10.538   2.905  0.5250 -0.1628 -0.4122
   66MOL0     H 9070  13.275  10.993   3.111  0.9809 -2.2212  1.5656
   66MOL0     H 9071  13.229  11.097   3.317 -0.6818  0.3619  1.4100
   66MOL0     H 9072  13.118  11.226   3.501 -0.2469  0.4057  0.9359
   66MOL0     H 9073  12.988  11.192   3.607  0.1439 -2.1864  1.0004
   66MOL0     H 9074  13.169  10.964   3.511  0.7965  0.6389 -0.2587
   66MOL0     H 9075  13.215  11.075   3.643 -0.7733  1.2075  0.4131
   66MOL0     H 9076  13.006  10.864   3.652  2.0221 -1.3278  0.1974
   66MOL0     H 9077  12.974  11.014   3.745 -2.4495  0.5210 -3.7298
   66MOL0     H 9078  13.202  10.995   3.841 -0.3745 -0.1670  0.7122
   66MOL0     H 9079  13.244  10.851   3.752  0.7893  0.0942 -0.1904
   66MOL0     H 9080  13.029  10.851   3.975  0.7299 -0.7377  1.7034
   66MOL0     H 9081  13.065  10.720   3.858 -1.4049  0.8779 -0.0058
   66MOL0     H 9082  13.276  10.839   4.043 -1.7913  1.8808 -1.1193
   66MOL0     H 9083  13.288  10.685   3.963 -2.0856 -0.1091 -1.9593
   66MOL0     H 9084  13.081  10.610   4.098  2.1282 -0.7890 -2.6342
   66MOL0     H 9085  13.076  10.757   4.191 -1.8270  0.5548 -1.4282
   66MOL0     H 9086  13.317  10.559   4.167  0.6228  0.3842  0.0515
   66MOL0     H 9087  13.209  10.569   4.308  0.6447 -0.0095  0.0044
   66MOL0     H 9088  12.806  11.013   3.249  0.3629 -2.9805  0.2552
   66MOL0     H 9089  12.865  10.889   3.052 -1.8983  3.7333 -0.7250
   66MOL0     H 9090  13.052  10.897   2.700  2.2109  1.0621  2.6930
   66MOL0     H 9091  13.074  10.857   2.472  1.4164 -1.0481 -0.6158
   66MOL0     H 9092  11.637  10.333   1.668  0.4597 -0.3236 -1.2188
   66MOL0     H 9093  11.380  10.322   1.710  2.3564  0.9009  1.6425
   66MOL0     H 9094  10.981  10.603   1.822 -1.2196 -1.1332  2.0125
   66MOL0     H 9095  10.743  10.628   1.837 -1.4005 -4.5787  2.4724
   66MOL0     H 9096  10.562  10.527   1.879  1.2492  2.1192 -0.6303
   66MOL0     H 9097  10.481  10.643   1.781 -0.2791  0.7856  2.3895
   66MOL0     H 9098  10.390  10.362   1.812  0.8897  0.1634 -0.7940
   66MOL0     H 9099  10.303  10.485   1.722 -0.8071  0.4289  1.4969
   66MOL0     H 9100  10.220  10.461   1.972 -0.6614 -1.6915 -0.7926
   66MOL0     H 9101  10.370  10.559   2.000  0.1525  1.8929 -1.2881
   66MOL0     H 9102  10.147  10.652   1.823  0.5544  0.3024  0.1992
   66MOL0     H 9103  10.289  10.738   1.885 -0.7042  0.7999 -2.0795
   66MOL0     H 9104  10.018  10.794   2.192  0.3838 -0.8814  0.4418
   66MOL0     H 9105  10.706  10.348   1.510  1.6640 -1.2466 -0.9415
   66MOL0     H 9106  10.864  10.269   1.404 -1.3881  4.5383 -2.4269
   66MOL0     H 9107  11.028  10.347   1.395  0.4901 -0.6388  0.1658
   66MOL0     H 9108  11.002  10.217   1.509 -0.4560 -0.0171  0.0734
   67MOL0     O 9109   4.190   3.206   6.391  0.7888 -0.2839  0.3930
   67MOL0     C 9110   4.158   3.099   6.340  0.5124 -0.4595 -0.5375
   67MOL0     O 9111   4.051   3.026   6.359 -0.0245 -0.0482 -0.0758
   67MOL0     C 9112   3.961   3.068   6.453 -0.0936  0.9513  0.2361
   67MOL0     C 9113   3.864   3.158   6.411  0.4658 -0.2198 -0.7392
   67MOL0     C 9114   3.745   3.176   6.492  0.4983 -0.9524 -0.4516
   67MOL0     C 9115   3.742   3.116   6.621  0.7444 -0.4884 -0.0513
   67MOL0     O 9116   3.650   3.125   6.726  0.1038  0.2533  0.1412
   67MOL0     C 9117   3.516   3.171   6.698 -0.5296  0.3414  0.6592
   67MOL0     C 9118   3.503   3.295   6.765  0.6589 -0.1549 -0.3986
   67MOL0     C 9119   3.586   3.413   6.713 -1.3737 -0.8231  0.4998
   67MOL0     C 9120   3.595   3.524   6.810  0.6568  0.2599  0.1607
   67MOL0     C 9121   3.681   3.643   6.747  0.0313  0.7732  0.0754
   67MOL0     C 9122   3.672   3.757   6.841 -0.8554 -0.4149 -0.2303
   67MOL0     C 9123   3.771   3.754   6.967  0.3203 -0.3258 -0.0225
   67MOL0     C 9124   3.920   3.771   6.933  0.2184 -0.2760 -0.1773
   67MOL0     N 9125   3.953   3.892   6.859  0.1295  0.0911  0.5788
   67MOL0     C 9126   3.938   4.017   6.909  1.0031  0.5774  0.6232
   67MOL0     C 9127   3.966   4.101   6.802 -0.6113  0.5464 -0.2574
   67MOL0     C 9128   3.935   4.246   6.798  0.2969  0.8818 -0.2729
   67MOL0     C 9129   3.794   4.269   6.765  1.0608  0.1032  0.1842
   67MOL0     C 9130   3.750   4.218   6.617  0.5977 -0.2988 -0.6831
   67MOL0     C 9131   3.643   4.313   6.560 -0.1993  0.4935 -1.0134
   67MOL0     O 9132   3.637   4.287   6.423 -0.6703  0.1137  0.2961
   67MOL0     C 9133   3.571   4.387   6.349 -0.5882 -0.2487 -0.3087
   67MOL0     C 9134   3.619   4.429   6.229  1.0910  0.9371  1.0698
   67MOL0     C 9135   3.573   4.530   6.151 -0.0561  0.6459  0.6830
   67MOL0     C 9136   3.644   4.553   6.016  0.5106 -0.5451  0.8784
   67MOL0     C 9137   3.462   4.601   6.203  0.0162 -0.1747  0.2017
   67MOL0     C 9138   3.400   4.732   6.141  0.2642 -0.3580  0.4694
   67MOL0     O 9139   3.270   4.760   6.189  0.1048 -0.2850 -1.0254
   67MOL0     C 9140   3.176   4.832   6.124  1.0597 -0.4217  0.4740
   67MOL0     C 9141   3.156   4.813   5.978 -1.0352 -1.1262  0.6644
   67MOL0     C 9142   3.056   4.895   5.916 -0.3006  0.0165 -0.0689
   67MOL0     C 9143   2.981   4.991   5.985 -1.0680  0.0606  0.1006
   67MOL0     O 9144   2.887   5.051   5.903  1.1536  0.1038  0.1651
   67MOL0     C 9145   2.776   5.120   5.972  0.3583  0.6268 -0.0075
   67MOL0     C 9146   2.642   5.103   5.897  0.6086 -0.5806 -0.2846
   67MOL0     C 9147   2.585   4.961   5.935  1.1253 -0.1358 -0.0682
   67MOL0     C 9148   2.465   4.932   5.848 -0.8846  0.4192  0.0143
   67MOL0     C 9149   2.331   5.006   5.871 -0.3897 -0.3478 -0.2696
   67MOL0     C 9150   2.221   4.966   5.786  0.6210 -0.1938 -0.0586
   67MOL0     C 9151   2.185   4.811   5.786  0.3631  0.3442  0.5203
   67MOL0     C 9152   2.152   4.761   5.926 -0.8972  0.4096  0.7094
   67MOL0    Cl 9153   1.988   4.814   5.981 -0.1437  0.1977  0.1745
   67MOL0     C 9154   2.994   4.991   6.126  0.1549  0.7414 -0.2546
   67MOL0     C 9155   3.090   4.916   6.190 -0.5886 -0.5513 -0.5156
   67MOL0     O 9156   3.452   4.795   6.045 -0.4205 -0.2110  0.1909
   67MOL0     C 9157   3.403   4.548   6.324 -0.3429 -0.1959  0.2188
   67MOL0     C 9158   3.456   4.447   6.399  0.2666 -0.0193 -0.3312
   67MOL0     N 9159   3.997   4.018   6.691 -0.9059 -0.8448  0.3256
   67MOL0     N 9160   3.993   3.891   6.731  0.3700 -0.0095  0.0227
   67MOL0     C 9161   3.840   3.025   6.654  0.7859  0.0893 -0.5019
   67MOL0     C 9162   3.950   3.003   6.573  0.0500 -0.3152 -0.5256
   67MOL0     C 9163   4.268   3.032   6.286  0.3698  0.1016  0.9613
   67MOL0     C 9164   4.311   2.906   6.335  0.1602 -0.6637  0.5653
   67MOL0     C 9165   4.425   2.845   6.275 -1.1231 -1.0149  0.0762
   67MOL0     C 9166   4.491   2.901   6.163 -0.5971 -0.4779  0.3968
   67MOL0     O 9167   4.599   2.841   6.100 -0.1234 -0.5555  0.0337
   67MOL0     C 9168   4.671   2.742   6.177 -0.9809  0.2765  0.5742
   67MOL0     C 9169   4.818   2.725   6.133 -0.4610 -0.2829  0.2239
   67MOL0     C 9170   4.832   2.672   5.987 -0.6037  0.4129 -0.3668
   67MOL0     C 9171   4.962   2.703   5.921 -0.4972  0.2527  0.4091
   67MOL0     C 9172   4.987   2.847   5.904  0.0726 -0.1091  0.4328
   67MOL0     C 9173   5.040   2.956   5.879  0.8359  0.0406 -0.5909
   67MOL0     C 9174   4.438   3.016   6.113 -0.5365 -0.5424  0.3535
   67MOL0     C 9175   4.335   3.092   6.173  0.5992 -0.8111 -0.9037
   67MOL0     C 9176   4.294   3.231   6.120 -0.0895  0.1670  0.6939
   67MOL0     H 9177   3.883   3.205   6.315  1.3839 -0.8642 -0.8872
   67MOL0     H 9178   3.668   3.243   6.453  1.7982  1.4148  0.8015
   67MOL0     H 9179   3.450   3.094   6.737 -0.7920 -1.3032 -2.6570
   67MOL0     H 9180   3.491   3.197   6.595 -2.0907 -0.6476  0.7642
   67MOL0     H 9181   3.399   3.322   6.744  1.3588  3.1916 -0.0658
   67MOL0     H 9182   3.518   3.275   6.872  2.7830  3.4932  0.1481
   67MOL0     H 9183   3.688   3.379   6.693 -1.8249 -1.8039 -0.1859
   67MOL0     H 9184   3.544   3.452   6.620  1.0167 -1.8411 -1.1016
   67MOL0     H 9185   3.499   3.571   6.833  0.9597  0.8219  0.2894
   67MOL0     H 9186   3.634   3.487   6.905 -1.8822 -2.6693  0.1993
   67MOL0     H 9187   3.641   3.663   6.647  1.5297  0.1341 -0.6860
   67MOL0     H 9188   3.782   3.603   6.733 -0.0598  0.9950 -1.3250
   67MOL0     H 9189   3.685   3.850   6.785 -3.6208  0.0619 -0.2433
   67MOL0     H 9190   3.573   3.767   6.887  0.3631  1.3603  2.2420
   67MOL0     H 9191   3.754   3.669   7.033 -0.1465 -1.8419 -2.0205
   67MOL0     H 9192   3.748   3.844   7.027 -1.8477 -1.3342  0.7783
   67MOL0     H 9193   3.972   3.784   7.028  0.1086 -0.5905 -0.0722
   67MOL0     H 9194   3.960   3.682   6.884 -0.5402  0.4040 -2.1142
   67MOL0     H 9195   3.894   4.044   7.005 -1.4439 -2.4270  0.5144
   67MOL0     H 9196   4.009   4.294   6.733 -0.1764  0.8808 -0.8166
   67MOL0     H 9197   3.938   4.294   6.896  0.2334 -0.1505  0.2488
   67MOL0     H 9198   3.728   4.219   6.836 -2.0891 -0.3772 -2.7951
   67MOL0     H 9199   3.780   4.377   6.771 -1.0776  0.0154 -1.6313
   67MOL0     H 9200   3.836   4.218   6.549  1.6495  1.0576  0.5439
   67MOL0     H 9201   3.705   4.119   6.626 -1.7102  0.8507  1.6980
   67MOL0     H 9202   3.549   4.294   6.612 -0.3279  2.3483 -0.5183
   67MOL0     H 9203   3.669   4.416   6.585 -0.5436 -0.0508  1.9439
   67MOL0     H 9204   3.712   4.378   6.204  0.0836  0.7025 -2.7293
   67MOL0     H 9205   3.710   4.473   5.983 -2.4863 -3.1448  0.7043
   67MOL0     H 9206   3.704   4.644   6.018  2.5242 -1.6767 -1.8265
   67MOL0     H 9207   3.569   4.571   5.938  1.2716 -2.5926 -0.4066
   67MOL0     H 9208   3.221   4.746   5.922  1.1894  2.4911 -1.4270
   67MOL0     H 9209   3.041   4.882   5.810 -1.0629 -1.0573  0.1493
   67MOL0     H 9210   2.757   5.087   6.074 -0.7279  1.7051  0.1527
   67MOL0     H 9211   2.796   5.227   5.965 -2.1898  1.0723 -1.8056
   67MOL0     H 9212   2.571   5.180   5.926 -0.6690 -1.7048 -0.3073
   67MOL0     H 9213   2.658   5.107   5.789 -0.0470 -0.4703 -0.3801
   67MOL0     H 9214   2.550   4.954   6.039 -0.0222 -1.2465 -0.5017
   67MOL0     H 9215   2.666   4.890   5.912 -0.3538 -1.5922 -0.9719
   67MOL0     H 9216   2.440   4.826   5.862  1.3754  0.0419  1.6058
   67MOL0     H 9217   2.497   4.948   5.745  1.6761  0.9500  0.8320
   67MOL0     H 9218   2.308   5.011   5.978  0.1545  1.5869 -0.1909
   67MOL0     H 9219   2.345   5.114   5.857 -0.7728 -0.2405  0.1624
   67MOL0     H 9220   2.243   5.001   5.685  1.5558  0.1646  0.2556
   67MOL0     H 9221   2.129   5.020   5.808  1.7875  3.4487 -3.1293
   67MOL0     H 9222   2.265   4.746   5.749  1.1748  2.6399 -2.0783
   67MOL0     H 9223   2.094   4.798   5.727  1.4917 -1.6418 -0.8789
   67MOL0     H 9224   2.229   4.781   6.001 -1.0671  0.4198  0.8797
   67MOL0     H 9225   2.157   4.652   5.916 -1.5950  0.4984 -0.9472
   67MOL0     H 9226   2.923   5.051   6.181  1.5343  3.2064 -1.0190
   67MOL0     H 9227   3.094   4.932   6.297 -2.4128 -2.7749 -0.0315
   67MOL0     H 9228   3.310   4.585   6.365  1.0569  0.9485  2.6133
   67MOL0     H 9229   3.408   4.416   6.491  0.7604 -0.6696 -0.2852
   67MOL0     H 9230   3.833   2.962   6.742  1.1782  0.4835 -0.1869
   67MOL0     H 9231   4.021   2.928   6.604 -0.8514 -0.3355  1.6795
   67MOL0     H 9232   4.255   2.859   6.415 -1.3039 -0.5351 -0.3420
   67MOL0     H 9233   4.458   2.750   6.316 -0.7231 -1.4515 -1.2148
   67MOL0     H 9234   4.674   2.769   6.283  2.6759 -1.3842  1.0509
   67MOL0     H 9235   4.629   2.643   6.158  2.0049 -0.5684 -2.6147
   67MOL0     H 9236   4.870   2.652   6.196 -0.5125  0.6846  1.4164
   67MOL0     H 9237   4.855   2.828   6.141 -2.5319  0.4345  1.1785
   67MOL0     H 9238   4.821   2.564   6.000 -0.1800  0.5024  0.8286
   67MOL0     H 9239   4.750   2.713   5.928 -0.4925  0.3573 -0.5623
   67MOL0     H 9240   4.959   2.656   5.822 -0.4887  2.8914 -0.9653
   67MOL0     H 9241   5.045   2.656   5.975 -2.7231 -1.2986  2.6762
   67MOL0     H 9242   5.112   3.034   5.869  4.1871 -2.7655 -0.2925
   67MOL0     H 9243   4.474   3.063   6.022 -0.9647  1.2575  1.0681
   67MOL0     H 9244   4.374   3.303   6.138  0.5466 -0.2239 -0.5231
   67MOL0     H 9245   4.288   3.225   6.011  1.4813  1.3361  0.5069
   67MOL0     H 9246   4.199   3.276   6.151  0.5237  2.7519 -0.8874
   68MOL0     O 9247   2.364   5.497   3.843  0.3210  0.6989  0.1460
   68MOL0     C 9248   2.393   5.467   3.730 -0.7644  0.7210 -0.3459
   68MOL0     O 9249   2.490   5.387   3.685 -0.3490  0.9196 -0.2490
   68MOL0     C 9250   2.590   5.345   3.769 -0.0911  0.6580 -1.2737
   68MOL0     C 9251   2.648   5.433   3.863 -1.4311  0.0229 -0.1881
   68MOL0     C 9252   2.716   5.373   3.970  0.2104 -0.0045  0.0392
   68MOL0     C 9253   2.731   5.232   3.977 -0.0064 -1.4007 -0.7291
   68MOL0     O 9254   2.796   5.168   4.080 -0.0417 -0.7817 -0.0914
   68MOL0     C 9255   2.774   5.197   4.218 -0.9360 -0.4514  0.5239
   68MOL0     C 9256   2.787   5.067   4.294 -0.3993 -0.3295  0.1492
   68MOL0     C 9257   2.931   5.019   4.313 -0.1639 -0.3310 -0.6155
   68MOL0     C 9258   3.006   5.101   4.424 -1.2298  0.0641 -0.1320
   68MOL0     C 9259   3.157   5.076   4.434  0.5354  0.0574  0.3123
   68MOL0     C 9260   3.175   4.923   4.449 -0.1629 -0.4270 -0.2910
   68MOL0     C 9261   3.312   4.883   4.507 -0.1943  0.3993  0.1288
   68MOL0     C 9262   3.317   4.729   4.525 -0.1043  0.1068  0.0857
   68MOL0     N 9263   3.460   4.678   4.535 -0.5280 -0.6951 -0.6455
   68MOL0     C 9264   3.548   4.677   4.430 -0.4397 -0.4081  0.4578
   68MOL0     C 9265   3.658   4.614   4.482  0.1928  0.1161 -0.3767
   68MOL0     C 9266   3.787   4.572   4.424  0.3059 -0.0795  0.0160
   68MOL0     C 9267   3.908   4.609   4.520  0.7554  0.0111  0.0003
   68MOL0     C 9268   4.046   4.579   4.453  0.3738 -0.8491  0.9823
   68MOL0     C 9269   4.163   4.586   4.558 -0.1640 -0.2084  0.7287
   68MOL0     O 9270   4.283   4.589   4.481  0.0718  0.0581  0.2501
   68MOL0     C 9271   4.391   4.583   4.558 -0.3593  0.3786 -0.0480
   68MOL0     C 9272   4.424   4.676   4.659 -0.3359 -0.9320 -0.2484
   68MOL0     C 9273   4.550   4.675   4.720 -0.0516  0.0152 -0.3186
   68MOL0     C 9274   4.591   4.781   4.814 -0.1821 -0.5509 -0.5952
   68MOL0     C 9275   4.642   4.572   4.694  0.1154 -0.2309  0.2273
   68MOL0     C 9276   4.771   4.560   4.761 -0.2201  0.1795 -0.6396
   68MOL0     O 9277   4.880   4.551   4.672  0.6261  0.2245  0.1304
   68MOL0     C 9278   5.004   4.522   4.720  0.7034  0.0059  0.5003
   68MOL0     C 9279   5.059   4.609   4.815 -0.9962 -0.6842 -0.0591
   68MOL0     C 9280   5.175   4.569   4.879 -0.6464 -0.6449 -0.6003
   68MOL0     C 9281   5.247   4.451   4.842 -0.5997 -0.3982 -0.3103
   68MOL0     O 9282   5.344   4.418   4.940 -0.4042 -0.0255  0.4773
   68MOL0     C 9283   5.443   4.322   4.912 -0.5863 -0.1474 -0.3295
   68MOL0     C 9284   5.554   4.381   4.840  1.1772 -0.1071  0.6582
   68MOL0     C 9285   5.687   4.295   4.835 -0.3184  0.6591 -0.5584
   68MOL0     C 9286   5.807   4.373   4.766  0.2088  0.1910 -0.5061
   68MOL0     C 9287   5.929   4.290   4.731 -0.0363  0.2517  0.5073
   68MOL0     C 9288   6.050   4.379   4.682 -0.2857  0.7717 -0.1740
   68MOL0     C 9289   6.185   4.293   4.681  1.1786 -0.2143 -0.6866
   68MOL0     C 9290   6.302   4.382   4.711  0.2373  0.2996  0.2636
   68MOL0    Cl 9291   6.437   4.278   4.664 -0.1616 -0.0232  0.3687
   68MOL0     C 9292   5.196   4.373   4.742  0.3407  0.1036  0.2535
   68MOL0     C 9293   5.073   4.405   4.680  0.3074 -0.1048  0.3854
   68MOL0     O 9294   4.783   4.542   4.880 -0.5638  0.2591 -0.4407
   68MOL0     C 9295   4.608   4.478   4.606 -0.6003  0.0908  0.1310
   68MOL0     C 9296   4.485   4.485   4.538 -0.1722 -0.0183  0.3922
   68MOL0     N 9297   3.632   4.596   4.623 -0.1021  0.1759  0.7224
   68MOL0     N 9298   3.518   4.639   4.656  0.8570 -0.7266  0.4940
   68MOL0     C 9299   2.700   5.153   3.867 -0.1078  0.4663  0.1476
   68MOL0     C 9300   2.627   5.210   3.761 -1.0013 -0.1111 -0.3117
   68MOL0     C 9301   2.318   5.533   3.632  0.5544  0.4076  0.4748
   68MOL0     C 9302   2.217   5.457   3.569  0.5694 -0.8581 -0.0047
   68MOL0     C 9303   2.139   5.510   3.465  0.2891 -0.0927 -0.5094
   68MOL0     C 9304   2.165   5.641   3.415 -0.1972 -0.0609  0.7501
   68MOL0     O 9305   2.090   5.713   3.318  0.6401  0.3241 -0.7533
   68MOL0     C 9306   2.063   5.637   3.203 -0.9281 -0.2621  0.0547
   68MOL0     C 9307   2.027   5.738   3.095  0.4131 -0.8201  0.8121
   68MOL0     C 9308   1.881   5.804   3.115 -1.0927  1.1701  0.1443
   68MOL0     C 9309   1.759   5.716   3.108  0.1095  0.7623  0.4791
   68MOL0     C 9310   1.745   5.635   2.982 -0.0977 -0.0383 -0.5410
   68MOL0     C 9311   1.739   5.578   2.874  0.5116 -0.5702  0.3067
   68MOL0     C 9312   2.273   5.711   3.473  0.1303  0.2441  0.1717
   68MOL0     C 9313   2.348   5.656   3.575  0.0294  0.1815 -0.2562
   68MOL0     C 9314   2.476   5.729   3.622 -0.1467  0.5886 -0.3113
   68MOL0     H 9315   2.638   5.541   3.858  0.3037  0.1968 -0.3084
   68MOL0     H 9316   2.765   5.431   4.048 -1.6329 -0.1498  1.3493
   68MOL0     H 9317   2.672   5.233   4.228 -0.8946  1.1053 -3.1720
   68MOL0     H 9318   2.844   5.273   4.257  0.0724  0.4486 -2.7173
   68MOL0     H 9319   2.741   5.090   4.390 -0.0233 -0.2070  0.2998
   68MOL0     H 9320   2.725   4.994   4.240  0.1793  0.8074 -2.1958
   68MOL0     H 9321   2.938   4.913   4.341  1.4629 -0.1711 -0.3085
   68MOL0     H 9322   2.982   5.009   4.216 -1.7935 -3.7912 -1.2816
   68MOL0     H 9323   2.981   5.207   4.421  2.1683  1.0454  1.5424
   68MOL0     H 9324   2.959   5.073   4.519 -2.9312  1.0274 -0.6403
   68MOL0     H 9325   3.207   5.132   4.514  3.9537 -0.5918 -1.1530
   68MOL0     H 9326   3.197   5.096   4.334  0.2622  0.8236  0.3543
   68MOL0     H 9327   3.102   4.877   4.515 -0.6196  0.1670 -0.3728
   68MOL0     H 9328   3.162   4.881   4.349  0.2830  1.0671 -1.0108
   68MOL0     H 9329   3.319   4.932   4.604 -1.8865 -0.9149  0.9634
   68MOL0     H 9330   3.389   4.919   4.438  0.5810  0.5309  1.0498
   68MOL0     H 9331   3.259   4.702   4.614 -0.2723 -2.1708 -0.6376
   68MOL0     H 9332   3.265   4.691   4.436 -0.8686  2.3476 -0.4930
   68MOL0     H 9333   3.543   4.718   4.330  1.6191 -2.1675 -0.4426
   68MOL0     H 9334   3.792   4.615   4.323 -0.7573  0.4246  0.1679
   68MOL0     H 9335   3.787   4.464   4.403 -0.0400 -0.0709 -0.0273
   68MOL0     H 9336   3.898   4.715   4.544  0.8514 -0.0131  0.1465
   68MOL0     H 9337   3.906   4.556   4.615  2.1606  0.4565  0.3075
   68MOL0     H 9338   4.045   4.478   4.409 -1.3468 -0.8881  1.0293
   68MOL0     H 9339   4.074   4.648   4.373 -0.0461 -1.8423 -0.0655
   68MOL0     H 9340   4.158   4.669   4.629  6.1569  1.3390  0.0076
   68MOL0     H 9341   4.148   4.492   4.611  1.0735 -1.6631 -1.3608
   68MOL0     H 9342   4.358   4.757   4.687  2.2716  2.2781 -2.6129
   68MOL0     H 9343   4.695   4.813   4.808  0.4447 -1.3021  3.4002
   68MOL0     H 9344   4.576   4.754   4.919  1.2599  1.8541  0.3118
   68MOL0     H 9345   4.526   4.866   4.790  0.8509  0.5898  0.5404
   68MOL0     H 9346   5.008   4.701   4.842  1.3190  0.6353  0.0133
   68MOL0     H 9347   5.227   4.639   4.943 -0.5441  1.2058 -2.6154
   68MOL0     H 9348   5.484   4.265   4.995  3.3767 -0.6838 -2.4531
   68MOL0     H 9349   5.401   4.253   4.837 -1.4402  1.5879 -1.5427
   68MOL0     H 9350   5.528   4.407   4.737 -0.1653  1.7061  1.3903
   68MOL0     H 9351   5.571   4.476   4.893 -2.9500 -0.1822  2.4639
   68MOL0     H 9352   5.670   4.202   4.778 -0.5397 -0.1857  0.8458
   68MOL0     H 9353   5.712   4.255   4.933 -2.0597  1.5457  0.3015
   68MOL0     H 9354   5.838   4.451   4.836 -0.2031 -0.2186  0.1463
   68MOL0     H 9355   5.758   4.417   4.679 -2.2946  0.3034  0.8691
   68MOL0     H 9356   5.952   4.226   4.817 -1.4566 -0.3808  0.4547
   68MOL0     H 9357   5.896   4.219   4.655  1.3489  0.4373 -0.2961
   68MOL0     H 9358   6.060   4.455   4.760  1.6707  0.3519  0.0515
   68MOL0     H 9359   6.028   4.405   4.579  1.2297 -2.8355 -1.5721
   68MOL0     H 9360   6.202   4.251   4.582  0.9005  0.5269 -1.0619
   68MOL0     H 9361   6.197   4.214   4.756  4.8068 -0.4925 -1.3751
   68MOL0     H 9362   6.320   4.417   4.813  0.3236 -0.7687  0.6327
   68MOL0     H 9363   6.301   4.468   4.644 -0.2301  1.0608  1.2170
   68MOL0     H 9364   5.221   4.274   4.706 -5.6053 -0.8799 -2.3533
   68MOL0     H 9365   5.023   4.337   4.612  2.6596 -0.5487 -0.9903
   68MOL0     H 9366   4.679   4.400   4.582 -0.5564  0.0164  0.4947
   68MOL0     H 9367   4.462   4.405   4.468 -0.5578  1.3927 -1.1602
   68MOL0     H 9368   2.734   5.051   3.877 -1.1519  0.0934  0.0689
   68MOL0     H 9369   2.585   5.147   3.683 -1.0615 -0.3523 -0.0881
   68MOL0     H 9370   2.191   5.358   3.605  3.0869 -1.7025 -0.3040
   68MOL0     H 9371   2.058   5.451   3.424  0.3033  1.7615 -3.5648
   68MOL0     H 9372   2.143   5.575   3.162 -0.8379 -0.6159  0.7602
   68MOL0     H 9373   1.974   5.575   3.218 -1.5109  0.1735 -1.4459
   68MOL0     H 9374   2.020   5.691   2.997  0.1055  0.1793  0.3409
   68MOL0     H 9375   2.106   5.814   3.099  0.1171 -0.5478  1.6979
   68MOL0     H 9376   1.894   5.854   3.211 -3.1623  0.7282  0.7014
   68MOL0     H 9377   1.874   5.874   3.031  1.2625 -0.7560 -1.8515
   68MOL0     H 9378   1.667   5.772   3.127 -0.7457 -1.4395  3.8567
   68MOL0     H 9379   1.775   5.650   3.194  0.7301 -0.3325 -0.4464
   68MOL0     H 9380   1.734   5.517   2.785 -0.9785  0.5712 -0.4372
   68MOL0     H 9381   2.306   5.810   3.443 -0.7293 -0.1153 -2.0713
   68MOL0     H 9382   2.531   5.662   3.690 -4.1023 -0.7977  1.8604
   68MOL0     H 9383   2.541   5.775   3.548  0.4121 -0.7390 -0.6836
   68MOL0     H 9384   2.446   5.815   3.683 -0.9803  2.3215 -3.0310
   69MOL0     O 9385   3.753   1.419   6.055  0.1367 -0.6110 -0.1631
   69MOL0     C 9386   3.695   1.318   6.009 -0.1498  0.2397 -0.2617
   69MOL0     O 9387   3.742   1.190   6.013 -0.1555 -0.5703  0.2382
   69MOL0     C 9388   3.858   1.165   6.086 -0.4547  0.1790  0.1673
   69MOL0     C 9389   3.859   1.166   6.226 -0.2584  0.2171  0.2685
   69MOL0     C 9390   3.974   1.127   6.304 -0.0680  0.7611 -0.0780
   69MOL0     C 9391   4.079   1.070   6.234  0.4701 -0.5824  0.3070
   69MOL0     O 9392   4.183   1.008   6.294 -0.2351 -0.7164  0.1997
   69MOL0     C 9393   4.199   1.021   6.434 -0.8905  1.0530 -0.3916
   69MOL0     C 9394   4.343   0.987   6.464 -0.3640 -0.1742  0.9843
   69MOL0     C 9395   4.424   1.087   6.382 -0.6238  0.3641  0.0698
   69MOL0     C 9396   4.580   1.088   6.404  0.8368 -0.8374  0.2851
   69MOL0     C 9397   4.631   1.216   6.346 -0.0692 -0.4804  0.6793
   69MOL0     C 9398   4.782   1.226   6.366  0.3867  0.4192  0.9088
   69MOL0     C 9399   4.828   1.366   6.313  0.2780 -0.0126  0.4732
   69MOL0     C 9400   4.972   1.367   6.264  0.1000  1.0079 -0.6913
   69MOL0     N 9401   5.019   1.506   6.250  0.1147 -0.3966  0.1472
   69MOL0     C 9402   5.110   1.554   6.338 -0.6056 -1.4739 -0.9584
   69MOL0     C 9403   5.113   1.691   6.324 -0.8652 -0.4529 -0.3375
   69MOL0     C 9404   5.210   1.786   6.395  0.1607 -0.1184  0.1406
   69MOL0     C 9405   5.316   1.835   6.293  0.2292  0.1127  0.4293
   69MOL0     C 9406   5.404   1.930   6.360  0.4623 -0.3163 -0.3952
   69MOL0     C 9407   5.530   1.978   6.282  0.2671 -0.7862 -0.5361
   69MOL0     O 9408   5.497   2.030   6.151 -0.0735 -0.1260  0.8564
   69MOL0     C 9409   5.617   2.062   6.077  0.5402  0.5356  0.5475
   69MOL0     C 9410   5.656   2.196   6.054 -0.7170  0.3072  0.1757
   69MOL0     C 9411   5.760   2.224   5.968 -0.5962  0.6272 -0.4864
   69MOL0     C 9412   5.788   2.366   5.940 -0.5543 -0.2855  0.3544
   69MOL0     C 9413   5.849   2.119   5.924  0.3203  0.2999  0.2166
   69MOL0     C 9414   5.971   2.142   5.842  0.6069 -0.3573  1.1499
   69MOL0     O 9415   5.989   2.256   5.770 -0.1468 -0.1342 -0.0032
   69MOL0     C 9416   6.079   2.238   5.665  0.3702  0.7541 -0.5908
   69MOL0     C 9417   6.055   2.170   5.544 -0.1624  0.1101  0.2861
   69MOL0     C 9418   6.165   2.156   5.456 -0.1676  0.1184 -0.5028
   69MOL0     C 9419   6.282   2.230   5.466  0.1577  0.0153  0.1215
   69MOL0     O 9420   6.390   2.217   5.378 -0.1668  0.1575  0.2267
   69MOL0     C 9421   6.395   2.117   5.271 -0.4007  0.5530 -0.2470
   69MOL0     C 9422   6.512   2.132   5.173  0.3096 -0.3163  0.2652
   69MOL0     C 9423   6.651   2.115   5.231 -0.6196 -0.0399  0.1166
   69MOL0     C 9424   6.752   2.050   5.142  0.0750 -0.0852 -0.1083
   69MOL0     C 9425   6.893   2.035   5.198 -0.5905  0.0905 -0.3607
   69MOL0     C 9426   6.982   1.923   5.125  0.2122 -0.1289 -0.3093
   69MOL0     C 9427   7.037   1.981   4.981 -0.6395  0.2468 -0.9294
   69MOL0     C 9428   7.174   1.924   4.949  0.0126 -0.6831  0.7234
   69MOL0    Cl 9429   7.308   1.985   5.052 -0.2266 -0.7316 -0.2638
   69MOL0     C 9430   6.297   2.313   5.575  0.6180 -0.7414 -0.5412
   69MOL0     C 9431   6.201   2.310   5.679 -0.4872 -0.5631 -0.3236
   69MOL0     O 9432   6.058   2.063   5.871 -0.8108  0.4239  0.0839
   69MOL0     C 9433   5.814   1.986   5.962  0.0764  0.8932  0.3004
   69MOL0     C 9434   5.699   1.963   6.035  0.0140  1.1830 -0.5405
   69MOL0     N 9435   5.033   1.721   6.220  0.2598  0.8575  0.0626
   69MOL0     N 9436   4.974   1.609   6.176 -0.3033 -0.3420 -0.4249
   69MOL0     C 9437   4.081   1.076   6.099 -0.1436 -0.0398 -0.0503
   69MOL0     C 9438   3.974   1.118   6.017  1.0135  0.1307  0.4124
   69MOL0     C 9439   3.565   1.341   5.936 -0.8253  0.7918  0.8725
   69MOL0     C 9440   3.501   1.469   5.946 -0.5043  0.4257  0.1561
   69MOL0     C 9441   3.392   1.504   5.867 -0.1986  0.2079 -0.8776
   69MOL0     C 9442   3.330   1.411   5.789  0.2517 -0.1158  0.1876
   69MOL0     O 9443   3.209   1.453   5.732  0.4178  0.3370 -0.1256
   69MOL0     C 9444   3.123   1.545   5.802 -0.6605 -0.0065  0.8850
   69MOL0     C 9445   3.125   1.683   5.724 -1.0258  0.2734 -1.1044
   69MOL0     C 9446   3.028   1.790   5.785 -0.1871  0.3504  0.1118
   69MOL0     C 9447   3.074   1.840   5.924 -0.2032  0.4838  0.1348
   69MOL0     C 9448   3.022   1.747   6.027  0.0468 -1.4547 -0.4254
   69MOL0     C 9449   2.973   1.662   6.100  0.2444 -0.1758 -0.2445
   69MOL0     C 9450   3.374   1.289   5.780  0.5315 -0.9452  0.1411
   69MOL0     C 9451   3.493   1.246   5.851 -0.6825 -0.6512 -0.5517
   69MOL0     C 9452   3.547   1.113   5.810 -1.2846 -0.8581 -0.3187
   69MOL0     H 9453   3.771   1.206   6.274 -0.9335 -0.7390 -0.1341
   69MOL0     H 9454   3.968   1.139   6.411  0.3734  1.1375 -0.0953
   69MOL0     H 9455   4.132   0.950   6.483 -0.1790  1.7004  1.6039
   69MOL0     H 9456   4.171   1.115   6.482 -0.7739 -0.2459  2.3745
   69MOL0     H 9457   4.377   0.980   6.568 -0.6481  0.0678  1.0976
   69MOL0     H 9458   4.361   0.884   6.434 -0.1143 -0.2484  1.3834
   69MOL0     H 9459   4.417   1.059   6.277  0.0359  0.7842 -0.0982
   69MOL0     H 9460   4.390   1.191   6.393  1.5577  1.0493  0.9802
   69MOL0     H 9461   4.608   1.093   6.510  3.7968 -0.6156 -0.4171
   69MOL0     H 9462   4.627   1.011   6.343 -2.6549 -0.1785 -3.6469
   69MOL0     H 9463   4.587   1.298   6.404 -0.0471 -1.8156  2.6886
   69MOL0     H 9464   4.597   1.232   6.243 -0.3163  1.0587  0.9700
   69MOL0     H 9465   4.801   1.212   6.473 -3.1627  1.5407  1.8229
   69MOL0     H 9466   4.818   1.148   6.299 -1.0112  0.4136  0.1241
   69MOL0     H 9467   4.821   1.445   6.388 -0.4520  1.1118 -0.7321
   69MOL0     H 9468   4.762   1.398   6.232  2.3595 -1.1583 -1.8049
   69MOL0     H 9469   5.046   1.316   6.327 -0.2303  0.2840 -0.8839
   69MOL0     H 9470   4.971   1.323   6.164 -2.2980 -1.5466  0.3294
   69MOL0     H 9471   5.171   1.513   6.418  1.5177  1.8090 -0.6948
   69MOL0     H 9472   5.244   1.736   6.486 -1.0201 -3.0968 -0.9285
   69MOL0     H 9473   5.136   1.864   6.418 -1.5688 -1.7439  0.3199
   69MOL0     H 9474   5.358   1.741   6.256 -0.2090  0.3119 -0.6155
   69MOL0     H 9475   5.276   1.893   6.209  0.2442  1.0043  1.0313
   69MOL0     H 9476   5.343   2.012   6.398 -2.0136 -2.0577 -0.3932
   69MOL0     H 9477   5.439   1.879   6.451 -1.8018  1.5387  1.6642
   69MOL0     H 9478   5.588   2.047   6.344 -1.0875 -0.1146  0.0293
   69MOL0     H 9479   5.595   1.891   6.270  1.7857  0.2493 -0.0869
   69MOL0     H 9480   5.604   2.273   6.110 -0.6388  0.7691 -0.3686
   69MOL0     H 9481   5.887   2.404   5.969  2.0473 -3.4707 -3.2111
   69MOL0     H 9482   5.712   2.437   5.974  0.6993  1.4467 -0.3058
   69MOL0     H 9483   5.794   2.370   5.830 -0.6676 -0.2552  0.3497
   69MOL0     H 9484   5.961   2.119   5.528 -1.7044  2.1401  2.2175
   69MOL0     H 9485   6.153   2.095   5.367  1.1747  0.0504 -0.6516
   69MOL0     H 9486   6.396   2.016   5.313 -2.7001  0.4771 -0.2394
   69MOL0     H 9487   6.314   2.131   5.198 -0.6413  0.6021  0.0273
   69MOL0     H 9488   6.488   2.049   5.106 -0.1787 -0.0978  0.1570
   69MOL0     H 9489   6.501   2.227   5.119 -0.0225  0.1981  1.2211
   69MOL0     H 9490   6.633   2.046   5.314 -0.2219 -2.2848 -1.5779
   69MOL0     H 9491   6.691   2.213   5.260 -1.0817  0.4335 -0.8229
   69MOL0     H 9492   6.770   2.118   5.058  2.0408 -3.1722 -2.4193
   69MOL0     H 9493   6.709   1.958   5.102 -0.8535  0.6059 -0.7614
   69MOL0     H 9494   6.938   2.133   5.215 -0.4728 -0.0340  0.0766
   69MOL0     H 9495   6.866   1.984   5.292 -3.7440 -1.5546 -1.9693
   69MOL0     H 9496   6.925   1.830   5.114 -0.7215  0.4012 -0.0495
   69MOL0     H 9497   7.072   1.905   5.185  0.5514 -2.0020 -1.3012
   69MOL0     H 9498   7.038   2.090   4.970 -0.0266  0.0470 -3.2326
   69MOL0     H 9499   6.964   1.945   4.908  1.2826  1.1450 -3.4455
   69MOL0     H 9500   7.201   1.958   4.849  1.2557 -0.8068  0.9948
   69MOL0     H 9501   7.188   1.816   4.958  2.7840 -0.3332  1.4831
   69MOL0     H 9502   6.380   2.383   5.579 -0.6517  0.7687  2.5354
   69MOL0     H 9503   6.211   2.366   5.771 -2.0478 -3.4402  1.7605
   69MOL0     H 9504   5.886   1.908   5.938 -1.4091  0.5009 -3.5648
   69MOL0     H 9505   5.682   1.859   6.063  1.7520  0.9783 -0.1300
   69MOL0     H 9506   4.175   1.050   6.052  0.9835  1.1249  1.4435
   69MOL0     H 9507   3.981   1.113   5.909 -0.5505 -5.1780  0.2612
   69MOL0     H 9508   3.546   1.546   6.008 -0.8858  0.3407  0.5470
   69MOL0     H 9509   3.365   1.609   5.866 -1.3923 -0.0742 -0.3315
   69MOL0     H 9510   3.017   1.517   5.802 -1.0366  1.3749  0.4052
   69MOL0     H 9511   3.149   1.564   5.907 -3.7577  0.2443  1.6950
   69MOL0     H 9512   3.103   1.679   5.617  0.4590  1.1163 -1.4718
   69MOL0     H 9513   3.226   1.720   5.745 -0.9659 -0.8788  0.8628
   69MOL0     H 9514   3.054   1.864   5.709  3.8424 -0.0668  0.8387
   69MOL0     H 9515   2.923   1.758   5.787  0.7194 -3.0481 -0.2599
   69MOL0     H 9516   3.030   1.940   5.923 -0.5623  0.3750 -2.4702
   69MOL0     H 9517   3.183   1.852   5.935 -0.0523 -0.5939 -0.0709
   69MOL0     H 9518   2.951   1.587   6.173  3.2278 -0.6859  0.2628
   69MOL0     H 9519   3.315   1.210   5.734 -1.8469  0.9142 -0.1479
   69MOL0     H 9520   3.484   1.045   5.751 -1.0648 -2.6513  1.4006
   69MOL0     H 9521   3.636   1.121   5.748 -0.9458 -2.9068 -0.1744
   69MOL0     H 9522   3.560   1.060   5.905  0.1592 -2.4364 -1.3404
   70MOL0     O 9523   0.284   8.520   1.796 -0.2534 -0.4105  0.0351
   70MOL0     C 9524   0.233   8.587   1.705 -0.1808 -0.5796 -1.4616
   70MOL0     O 9525   0.301   8.653   1.607 -0.2485 -0.4411  1.1433
   70MOL0     C 9526   0.438   8.655   1.590 -0.3746  0.1123  0.5573
   70MOL0     C 9527   0.501   8.635   1.464  0.2626  0.2110  0.0205
   70MOL0     C 9528   0.638   8.650   1.459  0.4609 -0.5111  0.6275
   70MOL0     C 9529   0.720   8.681   1.570  0.2437 -0.8207 -0.4441
   70MOL0     O 9530   0.856   8.696   1.556  0.1828 -0.3283 -0.4238
   70MOL0     C 9531   0.928   8.766   1.660 -0.1781  0.3947  0.8096
   70MOL0     C 9532   1.060   8.814   1.592 -0.3414 -0.4049 -1.2113
   70MOL0     C 9533   1.046   8.949   1.530  0.1483 -1.0104  0.4852
   70MOL0     C 9534   1.176   8.999   1.469 -0.2047 -0.4897 -0.3149
   70MOL0     C 9535   1.156   9.132   1.399  0.1586  0.1007 -0.2912
   70MOL0     C 9536   1.287   9.188   1.347 -0.3882  0.2619 -0.7703
   70MOL0     C 9537   1.266   9.330   1.312 -0.1939 -0.0893 -0.5543
   70MOL0     C 9538   1.383   9.420   1.357  0.4729 -0.3025 -0.3356
   70MOL0     N 9539   1.517   9.386   1.300  0.5368 -0.2565  0.0246
   70MOL0     C 9540   1.538   9.377   1.166  0.1040  0.2169  0.1220
   70MOL0     C 9541   1.673   9.343   1.154 -0.1373 -0.0515 -0.9040
   70MOL0     C 9542   1.745   9.327   1.025 -0.3288 -0.5719 -0.3963
   70MOL0     C 9543   1.875   9.408   1.038 -0.2356  0.9219 -0.0884
   70MOL0     C 9544   1.921   9.460   0.900 -0.1777  0.1214  0.1338
   70MOL0     C 9545   2.061   9.512   0.897  0.5521 -0.0040 -0.0860
   70MOL0     O 9546   2.080   9.603   1.010  0.5638  0.4527 -0.1642
   70MOL0     C 9547   2.208   9.618   1.046  0.5912  0.0359 -0.2453
   70MOL0     C 9548   2.278   9.509   1.099  0.5932 -0.8588 -0.2050
   70MOL0     C 9549   2.416   9.514   1.129  0.0243 -0.1562 -0.1558
   70MOL0     C 9550   2.486   9.395   1.180 -0.2961  0.2312 -0.5132
   70MOL0     C 9551   2.481   9.645   1.112 -0.2834 -0.1376 -0.3290
   70MOL0     C 9552   2.630   9.674   1.135  0.2409  0.4992 -0.3643
   70MOL0     O 9553   2.699   9.762   1.052  0.3341 -0.6394 -0.3134
   70MOL0     C 9554   2.835   9.769   1.050  0.2527  0.5582  0.4507
   70MOL0     C 9555   2.879   9.836   0.937  0.1094 -0.5589  0.4225
   70MOL0     C 9556   3.011   9.861   0.913  0.7214  0.2868  0.1737
   70MOL0     C 9557   3.105   9.806   0.999  0.7394 -0.2381  0.3844
   70MOL0     O 9558   3.238   9.841   0.962  0.5535  0.8164 -0.2051
   70MOL0     C 9559   3.343   9.790   1.054  0.8169 -0.2749 -0.4998
   70MOL0     C 9560   3.482   9.855   1.030 -0.4547 -0.7489  0.5275
   70MOL0     C 9561   3.563   9.852   1.155 -0.3899  0.5252  0.3539
   70MOL0     C 9562   3.688   9.924   1.122 -0.4466 -0.4829 -0.4783
   70MOL0     C 9563   3.780   9.942   1.241  0.3997 -0.2430  0.3770
   70MOL0     C 9564   3.834   9.823   1.333  0.3543 -0.0773  0.5168
   70MOL0     C 9565   3.716   9.762   1.418  0.5932  0.4264  0.1726
   70MOL0     C 9566   3.765   9.693   1.551 -0.1489  0.2191  0.6224
   70MOL0    Cl 9567   3.634   9.657   1.669 -0.0822  0.0497 -0.0913
   70MOL0     C 9568   3.063   9.747   1.117 -0.5968 -0.1349  0.1547
   70MOL0     C 9569   2.930   9.723   1.142  0.0687 -0.4602 -0.0324
   70MOL0     O 9570   2.674   9.627   1.243  0.0876  0.3310  0.0728
   70MOL0     C 9571   2.406   9.755   1.069 -0.4823 -0.1429  0.1442
   70MOL0     C 9572   2.270   9.743   1.033  0.2368  0.4434  1.0362
   70MOL0     N 9573   1.730   9.324   1.278  0.4675 -0.0070 -0.0758
   70MOL0     N 9574   1.634   9.360   1.367 -0.2071  0.2294  0.5286
   70MOL0     C 9575   0.659   8.677   1.699  0.2456 -0.1243  0.1030
   70MOL0     C 9576   0.521   8.677   1.699 -0.5999 -0.0800 -0.0233
   70MOL0     C 9577   0.091   8.583   1.680  0.0385 -0.8854  0.7512
   70MOL0     C 9578   0.024   8.468   1.723 -0.0158 -0.2508 -0.6542
   70MOL0     C 9579  -0.107   8.467   1.708  0.1697  0.4036 -0.2340
   70MOL0     C 9580  -0.182   8.567   1.657  0.8665  0.0617  0.6531
   70MOL0     O 9581  -0.319   8.556   1.637  0.1633 -0.0150  0.3836
   70MOL0     C 9582  -0.401   8.640   1.717  0.2157 -0.8661  0.3807
   70MOL0     C 9583  -0.551   8.597   1.715 -0.5221  0.2429  0.6139
   70MOL0     C 9584  -0.626   8.662   1.833  0.0611 -0.3447 -0.5626
   70MOL0     C 9585  -0.780   8.619   1.837 -0.8771 -0.2003 -1.2721
   70MOL0     C 9586  -0.803   8.473   1.831  0.0701 -0.1026  0.3781
   70MOL0     C 9587  -0.809   8.351   1.807 -0.7634 -0.6420  0.0145
   70MOL0     C 9588  -0.120   8.689   1.630  0.3625 -0.1058  0.0116
   70MOL0     C 9589   0.018   8.693   1.625  0.1209  0.0179 -0.3890
   70MOL0     C 9590   0.076   8.828   1.579 -0.2168  0.1915  0.1090
   70MOL0     H 9591   0.449   8.616   1.371 -1.1115 -3.1977  1.3197
   70MOL0     H 9592   0.675   8.632   1.358 -3.1356  4.1672 -1.9970
   70MOL0     H 9593   0.961   8.694   1.735  1.8119  1.8681  1.4234
   70MOL0     H 9594   0.870   8.847   1.705 -1.0500 -0.2882  0.9410
   70MOL0     H 9595   1.134   8.830   1.671 -1.9182  0.2512  0.1949
   70MOL0     H 9596   1.093   8.732   1.527 -0.6028 -0.9076 -0.7246
   70MOL0     H 9597   0.969   8.940   1.453 -0.4811  1.6789  0.6763
   70MOL0     H 9598   1.011   9.031   1.593 -2.6153 -0.4349 -1.6288
   70MOL0     H 9599   1.243   9.020   1.553  0.5219 -0.3183 -0.9223
   70MOL0     H 9600   1.212   8.928   1.394  0.5217 -0.6698  0.1919
   70MOL0     H 9601   1.104   9.203   1.464  3.9741  2.4790  0.5251
   70MOL0     H 9602   1.094   9.105   1.314 -2.6234  2.4562  0.8507
   70MOL0     H 9603   1.360   9.180   1.429  0.2433 -1.4864 -1.4612
   70MOL0     H 9604   1.327   9.131   1.263 -1.6229 -3.1511  0.7767
   70MOL0     H 9605   1.181   9.372   1.366  0.6050 -1.8480  2.2757
   70MOL0     H 9606   1.245   9.340   1.205 -2.9380  1.4060  0.0171
   70MOL0     H 9607   1.363   9.522   1.321 -1.4906 -0.8237 -0.8238
   70MOL0     H 9608   1.379   9.421   1.466  0.4032 -0.8518 -0.3306
   70MOL0     H 9609   1.473   9.385   1.079  1.5887  3.7167 -0.8434
   70MOL0     H 9610   1.683   9.368   0.944 -1.0056  0.1913  0.4959
   70MOL0     H 9611   1.772   9.222   1.012 -0.6060 -1.0567  2.3601
   70MOL0     H 9612   1.856   9.498   1.096 -0.1136  0.3726  0.8138
   70MOL0     H 9613   1.942   9.337   1.087 -2.2773 -0.3795  0.9570
   70MOL0     H 9614   1.908   9.381   0.825 -0.3843  1.8693 -1.7587
   70MOL0     H 9615   1.856   9.540   0.864 -0.8178 -0.3553  0.2099
   70MOL0     H 9616   2.123   9.422   0.900  2.0192  0.9818  0.5828
   70MOL0     H 9617   2.088   9.563   0.804  5.1731 -2.4098 -0.3470
   70MOL0     H 9618   2.220   9.418   1.113 -2.2213  0.8670  0.0725
   70MOL0     H 9619   2.470   9.308   1.115  1.7938  1.3025 -2.6011
   70MOL0     H 9620   2.454   9.384   1.284 -0.2941  3.6860 -0.0395
   70MOL0     H 9621   2.595   9.399   1.184 -0.2402 -1.5653  2.1568
   70MOL0     H 9622   2.800   9.863   0.867 -0.1377 -0.5876  0.6879
   70MOL0     H 9623   3.042   9.911   0.822 -1.5671  1.2759 -0.1324
   70MOL0     H 9624   3.308   9.838   1.147 -1.8164  0.8812 -1.9837
   70MOL0     H 9625   3.344   9.681   1.059  0.3189 -0.2657  0.0272
   70MOL0     H 9626   3.527   9.793   0.952  2.9993  1.1377  0.8255
   70MOL0     H 9627   3.462   9.955   0.990 -2.8744 -1.9346 -1.5227
   70MOL0     H 9628   3.579   9.746   1.179 -2.0917 -0.5435 -2.6672
   70MOL0     H 9629   3.507   9.902   1.235 -2.1480 -0.5587 -0.1253
   70MOL0     H 9630   3.660  10.023   1.083 -2.6793 -0.1748  1.6668
   70MOL0     H 9631   3.743   9.879   1.039  0.6882  2.6074 -1.5188
   70MOL0     H 9632   3.870   9.990   1.200  0.0814  1.7963  1.9022
   70MOL0     H 9633   3.724  10.019   1.295  2.6949  0.8244  1.4016
   70MOL0     H 9634   3.900   9.874   1.404  0.1669  0.9722 -0.0370
   70MOL0     H 9635   3.884   9.742   1.279 -0.8650 -0.0275 -0.7438
   70MOL0     H 9636   3.660   9.686   1.363 -0.7199  1.4846  0.0140
   70MOL0     H 9637   3.649   9.841   1.453 -0.7295 -0.5341 -0.1439
   70MOL0     H 9638   3.835   9.769   1.588  1.1092 -0.9872  0.7768
   70MOL0     H 9639   3.825   9.605   1.530 -0.1979  0.1043  0.9558
   70MOL0     H 9640   3.128   9.714   1.198 -0.3531 -1.6402 -0.6322
   70MOL0     H 9641   2.896   9.669   1.230 -1.4395 -1.3551 -1.1267
   70MOL0     H 9642   2.460   9.849   1.063 -0.1565 -0.4109 -2.3846
   70MOL0     H 9643   2.203   9.825   1.005 -2.0322  0.0417  4.7075
   70MOL0     H 9644   0.712   8.687   1.793 -1.4942 -1.7796  1.3435
   70MOL0     H 9645   0.473   8.685   1.796 -0.1054  0.8670  0.1601
   70MOL0     H 9646   0.067   8.377   1.764 -1.0542 -0.0952  0.8555
   70MOL0     H 9647  -0.158   8.372   1.721 -0.3925  0.3838 -2.1968
   70MOL0     H 9648  -0.363   8.632   1.820  0.3500 -1.6460  0.2822
   70MOL0     H 9649  -0.385   8.743   1.687 -0.0153 -0.7222  0.7447
   70MOL0     H 9650  -0.562   8.488   1.718  2.0582 -0.1202 -0.3255
   70MOL0     H 9651  -0.598   8.634   1.624  0.0655 -1.1859 -0.3084
   70MOL0     H 9652  -0.583   8.641   1.932  0.0864  2.7815  0.1813
   70MOL0     H 9653  -0.611   8.770   1.829 -0.8501 -0.1637  0.2434
   70MOL0     H 9654  -0.831   8.670   1.755 -2.3737  1.9449  0.8416
   70MOL0     H 9655  -0.817   8.659   1.932  2.5551  1.6453 -0.5600
   70MOL0     H 9656  -0.809   8.244   1.792 -2.0315 -0.9719  2.0521
   70MOL0     H 9657  -0.172   8.781   1.606 -0.1129 -0.6499 -1.1287
   70MOL0     H 9658   0.143   8.807   1.495 -1.6205 -1.4245 -0.6639
   70MOL0     H 9659   0.006   8.909   1.559 -0.4212 -0.0733 -0.2624
   70MOL0     H 9660   0.137   8.864   1.663 -0.8307  2.6808 -0.4330
   71MOL0     O 9661   1.851   1.393  10.965 -0.8691  0.3080  0.3082
   71MOL0     C 9662   1.876   1.484  11.041  0.7001  1.1419  0.1528
   71MOL0     O 9663   1.964   1.476  11.148  0.3747  0.5913  0.1861
   71MOL0     C 9664   2.044   1.363  11.165 -0.0243 -0.0920 -0.2532
   71MOL0     C 9665   2.100   1.284  11.060 -0.0918  0.6478  0.4101
   71MOL0     C 9666   2.191   1.182  11.103  0.1456  0.6924  0.4927
   71MOL0     C 9667   2.225   1.161  11.243 -0.7291  0.0838  0.2899
   71MOL0     O 9668   2.308   1.056  11.286 -0.2459 -0.0290  0.3944
   71MOL0     C 9669   2.392   0.969  11.205 -0.4009 -0.2540  0.3016
   71MOL0     C 9670   2.511   1.032  11.116  0.7802  0.5643 -0.4087
   71MOL0     C 9671   2.616   1.074  11.203 -0.0501 -0.0242 -0.5533
   71MOL0     C 9672   2.728   1.132  11.112 -0.0710 -0.3809 -0.0989
   71MOL0     C 9673   2.817   1.219  11.202  0.0721 -0.2458 -0.4159
   71MOL0     C 9674   2.940   1.256  11.133  0.7355  0.7855  0.6696
   71MOL0     C 9675   3.026   1.354  11.223 -0.6858 -0.1469 -0.1734
   71MOL0     C 9676   3.083   1.306  11.356  0.6211 -0.3796  0.1303
   71MOL0     N 9677   3.153   1.412  11.436  0.4354 -0.8010  0.1175
   71MOL0     C 9678   3.277   1.399  11.496 -0.4597 -1.0854  0.6799
   71MOL0     C 9679   3.276   1.500  11.587  0.4673  0.4808  0.5220
   71MOL0     C 9680   3.352   1.507  11.714 -0.2480  0.6872  0.7568
   71MOL0     C 9681   3.492   1.434  11.715 -0.6179 -0.1926  0.0260
   71MOL0     C 9682   3.598   1.503  11.626 -0.2887  0.0847  0.5960
   71MOL0     C 9683   3.721   1.408  11.584 -0.5740  0.2843 -0.4424
   71MOL0     O 9684   3.797   1.379  11.701 -0.0287  0.3286 -0.0324
   71MOL0     C 9685   3.935   1.388  11.694 -0.1470  0.7509 -0.1318
   71MOL0     C 9686   4.002   1.436  11.795 -0.3862  0.1718 -0.4834
   71MOL0     C 9687   4.139   1.452  11.796  0.1995  0.9775 -0.7190
   71MOL0     C 9688   4.193   1.520  11.918  0.0215 -0.3045  0.7404
   71MOL0     C 9689   4.215   1.414  11.682  0.6452  0.1480  0.1740
   71MOL0     C 9690   4.364   1.441  11.667 -0.1437  0.4814  0.1094
   71MOL0     O 9691   4.421   1.375  11.556 -0.0223 -0.5116 -0.3026
   71MOL0     C 9692   4.559   1.375  11.543 -1.0771  1.4157  0.3530
   71MOL0     C 9693   4.623   1.252  11.529  0.1551  0.0529  0.1594
   71MOL0     C 9694   4.759   1.237  11.498 -0.0025  0.5714 -0.9288
   71MOL0     C 9695   4.838   1.347  11.476  0.1682  0.2039  0.2414
   71MOL0     O 9696   4.965   1.330  11.429  0.6397  0.2045  0.2231
   71MOL0     C 9697   5.018   1.410  11.323  0.2114 -0.0693 -0.1052
   71MOL0     C 9698   5.140   1.365  11.241  0.1193 -0.5138  0.4901
   71MOL0     C 9699   5.116   1.212  11.208  0.0937 -0.3101  0.0195
   71MOL0     C 9700   5.184   1.175  11.073 -0.0289  0.8198  0.0744
   71MOL0     C 9701   5.133   1.040  11.010  0.5655 -0.2104  0.1170
   71MOL0     C 9702   5.223   0.999  10.891 -0.7781  0.3585  0.6598
   71MOL0     C 9703   5.237   1.121  10.794  0.2982 -0.3914  0.2229
   71MOL0     C 9704   5.244   1.081  10.643  0.3140 -0.3314 -0.1914
   71MOL0    Cl 9705   5.285   1.221  10.541 -1.0031 -0.7316 -0.2094
   71MOL0     C 9706   4.780   1.471  11.491  0.5736 -0.8638 -0.3734
   71MOL0     C 9707   4.641   1.486  11.525 -0.5650  0.2895 -0.4105
   71MOL0     O 9708   4.415   1.534  11.725 -0.1532  0.0378  0.6911
   71MOL0     C 9709   4.144   1.365  11.575  0.2762  0.1165  0.0385
   71MOL0     C 9710   4.003   1.347  11.582 -0.6935  0.6553 -0.0828
   71MOL0     N 9711   3.162   1.574  11.569  0.1942  0.4432 -0.0226
   71MOL0     N 9712   3.091   1.535  11.474  0.7638  0.4457  0.4078
   71MOL0     C 9713   2.179   1.245  11.335 -0.2764 -0.4549  0.2299
   71MOL0     C 9714   2.093   1.352  11.295 -0.1181 -0.6837  0.7537
   71MOL0     C 9715   1.800   1.601  11.022  0.1682 -0.3157  0.3106
   71MOL0     C 9716   1.658   1.593  11.007 -0.4068 -0.4984  0.4086
   71MOL0     C 9717   1.581   1.711  10.970  0.3958  0.5063  0.6594
   71MOL0     C 9718   1.651   1.829  10.931 -0.6054 -1.2885  0.5487
   71MOL0     O 9719   1.592   1.944  10.874 -0.1459 -0.1241 -0.1372
   71MOL0     C 9720   1.454   1.969  10.919 -0.5975 -0.6683 -0.3257
   71MOL0     C 9721   1.410   2.105  10.888 -0.4270 -0.2756  0.6766
   71MOL0     C 9722   1.502   2.214  10.950 -0.9112 -0.5181 -0.2762
   71MOL0     C 9723   1.443   2.354  10.935 -0.5749 -0.6226  0.1462
   71MOL0     C 9724   1.300   2.370  10.971 -0.4270 -0.3621 -0.1119
   71MOL0     C 9725   1.181   2.386  11.003 -0.3477  0.1436  0.1715
   71MOL0     C 9726   1.794   1.832  10.932 -0.8707  0.1682  0.0236
   71MOL0     C 9727   1.864   1.721  10.992  0.3923 -0.8199  0.3152
   71MOL0     C 9728   2.010   1.737  10.998  0.1516  0.0879  0.7271
   71MOL0     H 9729   2.093   1.314  10.956  3.8422  1.6042  0.2665
   71MOL0     H 9730   2.225   1.110  11.029 -0.5058 -0.6716  1.4820
   71MOL0     H 9731   2.320   0.930  11.132  0.2053  2.1402 -1.7126
   71MOL0     H 9732   2.430   0.883  11.261 -0.3146 -0.9305 -0.7678
   71MOL0     H 9733   2.545   0.964  11.037 -0.3873 -0.0847 -0.3769
   71MOL0     H 9734   2.469   1.118  11.063 -0.6245 -0.7358 -1.5010
   71MOL0     H 9735   2.556   1.142  11.265  0.0142 -1.0633  0.6994
   71MOL0     H 9736   2.648   0.983  11.255  4.4345  1.3810 -0.4561
   71MOL0     H 9737   2.787   1.053  11.065 -0.7570 -0.8225 -0.2321
   71MOL0     H 9738   2.699   1.200  11.031  1.0223  0.1601 -0.0565
   71MOL0     H 9739   2.836   1.154  11.288 -1.4161 -1.2448 -0.7997
   71MOL0     H 9740   2.760   1.305  11.238  0.2670 -0.4040  0.2955
   71MOL0     H 9741   3.003   1.172  11.101  1.8193  1.1890  1.6906
   71MOL0     H 9742   2.919   1.310  11.040 -4.1692 -0.9307  0.4886
   71MOL0     H 9743   2.970   1.440  11.261 -3.1066 -1.0214 -1.5860
   71MOL0     H 9744   3.106   1.404  11.167 -0.7507  0.1274 -0.0239
   71MOL0     H 9745   3.002   1.266  11.418 -0.6648  3.1465  0.9955
   71MOL0     H 9746   3.156   1.231  11.326  0.6915  0.4460 -1.9183
   71MOL0     H 9747   3.333   1.307  11.487 -2.1599 -1.9698 -2.2941
   71MOL0     H 9748   3.278   1.472  11.787 -1.9750  3.1718  0.3375
   71MOL0     H 9749   3.370   1.612  11.740 -1.6103  0.9699  0.6316
   71MOL0     H 9750   3.520   1.427  11.820 -3.3160 -0.6631  0.7903
   71MOL0     H 9751   3.478   1.331  11.681 -0.0744  0.2225 -1.5274
   71MOL0     H 9752   3.556   1.528  11.528  0.3826 -0.6365  0.1116
   71MOL0     H 9753   3.642   1.593  11.670  2.1234 -1.5298  1.7539
   71MOL0     H 9754   3.680   1.315  11.543 -2.3902  0.8400  0.0191
   71MOL0     H 9755   3.776   1.469  11.512  1.0118  0.2294  0.6721
   71MOL0     H 9756   3.940   1.478  11.874  1.6531 -0.9999  1.9006
   71MOL0     H 9757   4.129   1.513  12.006 -0.5765  1.7124  0.5063
   71MOL0     H 9758   4.203   1.628  11.903 -1.6501 -0.2458 -0.2680
   71MOL0     H 9759   4.291   1.481  11.945  1.0784  2.4603  1.1860
   71MOL0     H 9760   4.563   1.163  11.543  1.7390 -1.3444 -1.4727
   71MOL0     H 9761   4.800   1.136  11.494 -3.4967 -1.0470 -0.3685
   71MOL0     H 9762   4.949   1.416  11.239  1.1653 -0.8556 -0.9739
   71MOL0     H 9763   5.038   1.514  11.347  1.1092 -0.3548  0.4324
   71MOL0     H 9764   5.146   1.424  11.149 -3.6579  3.4331  2.3651
   71MOL0     H 9765   5.230   1.372  11.303  0.7727  1.0843 -0.5731
   71MOL0     H 9766   5.010   1.185  11.202  0.2829 -0.9814 -0.4432
   71MOL0     H 9767   5.154   1.160  11.297  1.4094  1.8933  0.8257
   71MOL0     H 9768   5.292   1.164  11.087  0.1704  2.1397 -0.2995
   71MOL0     H 9769   5.167   1.258  11.004 -2.6248  0.5055  0.2266
   71MOL0     H 9770   5.141   0.959  11.084  1.0783 -0.9490 -0.7320
   71MOL0     H 9771   5.027   1.046  10.983  0.8667 -0.1091 -1.0930
   71MOL0     H 9772   5.179   0.918  10.833 -1.4971  0.8785  0.4535
   71MOL0     H 9773   5.321   0.969  10.928  0.5097  0.7218 -2.2010
   71MOL0     H 9774   5.309   1.195  10.832 -0.3571 -1.1446  3.2032
   71MOL0     H 9775   5.144   1.176  10.811  1.7965  2.4086 -0.0491
   71MOL0     H 9776   5.151   1.028  10.623  0.1512  0.4063 -1.4191
   71MOL0     H 9777   5.331   1.014  10.637  0.9862  0.1782  2.5087
   71MOL0     H 9778   4.826   1.565  11.463  0.1186  0.3408  2.6175
   71MOL0     H 9779   4.594   1.583  11.515  1.3351  1.5097  1.6308
   71MOL0     H 9780   4.188   1.335  11.480 -2.9198 -2.7237 -0.7603
   71MOL0     H 9781   3.947   1.320  11.492 -0.2957  1.3199 -0.5355
   71MOL0     H 9782   2.219   1.235  11.435  0.0129 -2.4754 -0.0505
   71MOL0     H 9783   2.057   1.423  11.368  0.5584  1.4105 -0.8649
   71MOL0     H 9784   1.607   1.497  11.016  1.4133 -1.7977 -1.8870
   71MOL0     H 9785   1.476   1.718  10.943  0.9100  2.1245 -1.1696
   71MOL0     H 9786   1.387   1.891  10.883  0.1943 -1.8380  0.6594
   71MOL0     H 9787   1.464   1.971  11.028  1.4694  0.4567 -0.4781
   71MOL0     H 9788   1.312   2.111  10.936 -0.8685 -0.5309 -0.1692
   71MOL0     H 9789   1.397   2.128  10.782  1.3629 -0.6808  0.3407
   71MOL0     H 9790   1.513   2.186  11.055 -2.3088  0.2863  0.1103
   71MOL0     H 9791   1.605   2.214  10.914  0.0323  0.2552  2.2103
   71MOL0     H 9792   1.459   2.379  10.830  2.0466  1.3563  0.9029
   71MOL0     H 9793   1.495   2.424  11.001  2.1225  0.1484 -2.5629
   71MOL0     H 9794   1.076   2.399  11.019 -0.4882 -0.9570  0.2058
   71MOL0     H 9795   1.858   1.901  10.879 -0.5104 -1.9306 -2.4990
   71MOL0     H 9796   2.026   1.844  10.982  1.8973  0.3437  3.5099
   71MOL0     H 9797   2.071   1.716  11.086  2.2968  0.9709 -0.4540
   71MOL0     H 9798   2.057   1.682  10.916  0.5739 -0.5464  1.3900
   72MOL0     O 9799  10.505   4.667   6.339  0.6191  0.2793 -0.1618
   72MOL0     C 9800  10.473   4.546   6.366 -1.6146  0.1323  0.1714
   72MOL0     O 9801  10.569   4.451   6.393 -0.5102 -0.2620 -0.0553
   72MOL0     C 9802  10.697   4.494   6.393 -0.2951 -0.5821  0.8051
   72MOL0     C 9803  10.786   4.476   6.495  0.7243  0.6483 -0.9329
   72MOL0     C 9804  10.920   4.528   6.498  0.6092 -0.1721  0.1394
   72MOL0     C 9805  10.966   4.599   6.379  0.6984  1.2026 -0.9090
   72MOL0     O 9806  11.080   4.666   6.362  0.1794 -0.2998 -0.6613
   72MOL0     C 9807  11.177   4.667   6.470  0.2675 -0.0161  0.2024
   72MOL0     C 9808  11.156   4.782   6.578  0.1825 -0.7664 -0.3201
   72MOL0     C 9809  11.148   4.924   6.524  0.2770 -0.7275 -0.3160
   72MOL0     C 9810  11.189   5.039   6.618 -0.9278  0.8710 -0.4458
   72MOL0     C 9811  11.066   5.081   6.701  0.9262 -0.1230  0.7072
   72MOL0     C 9812  11.115   5.193   6.798  0.4585  0.3571  0.2319
   72MOL0     C 9813  11.002   5.217   6.888  0.1563 -0.4883 -0.3188
   72MOL0     C 9814  11.056   5.318   6.993 -0.6017 -0.2885 -0.7765
   72MOL0     N 9815  11.070   5.454   6.938 -0.1772 -0.1535 -0.0765
   72MOL0     C 9816  10.988   5.523   6.859  0.0711 -1.3103  0.3251
   72MOL0     C 9817  11.048   5.651   6.845  0.9764  0.2316 -0.3147
   72MOL0     C 9818  10.971   5.769   6.792 -0.4983 -0.0572 -0.4093
   72MOL0     C 9819  10.946   5.873   6.905  0.8216  0.2874  0.0431
   72MOL0     C 9820  11.056   5.976   6.911  0.1956  0.2605 -0.2899
   72MOL0     C 9821  11.063   6.047   7.049 -0.6287 -0.0339 -0.0051
   72MOL0     O 9822  11.145   5.981   7.155 -0.0129 -0.4160  0.3927
   72MOL0     C 9823  11.280   6.012   7.149  0.6398 -0.9264  0.4721
   72MOL0     C 9824  11.323   6.120   7.226 -0.9852  0.2586  0.0435
   72MOL0     C 9825  11.461   6.163   7.229 -0.2252 -0.3784  0.2445
   72MOL0     C 9826  11.502   6.260   7.339 -0.4091  1.4905  1.2685
   72MOL0     C 9827  11.558   6.101   7.140  0.2009  0.2949 -0.4320
   72MOL0     C 9828  11.694   6.159   7.123  0.1094 -0.3498 -0.7142
   72MOL0     O 9829  11.790   6.064   7.107 -0.3747 -0.1208 -0.1716
   72MOL0     C 9830  11.927   6.091   7.106 -0.0049 -0.0227 -0.3001
   72MOL0     C 9831  11.973   6.176   7.016 -0.0007 -0.3351  0.5359
   72MOL0     C 9832  12.103   6.215   7.017 -0.6632 -0.2622  0.4998
   72MOL0     C 9833  12.192   6.162   7.110 -0.4401 -0.7260 -0.3653
   72MOL0     O 9834  12.324   6.183   7.118 -0.3091  0.2640 -0.4749
   72MOL0     C 9835  12.392   6.234   7.007 -1.1445  0.5914 -0.1718
   72MOL0     C 9836  12.454   6.369   7.017 -0.0488  0.6113 -0.2898
   72MOL0     C 9837  12.348   6.480   7.049 -0.1402  0.5428  0.0305
   72MOL0     C 9838  12.428   6.603   7.093  0.7154 -0.3661 -0.4629
   72MOL0     C 9839  12.533   6.665   6.998 -1.0064 -0.0207  0.4377
   72MOL0     C 9840  12.590   6.798   7.045 -0.6689 -0.6673  0.1821
   72MOL0     C 9841  12.676   6.869   6.937  0.0992 -0.4099 -0.1284
   72MOL0     C 9842  12.718   7.000   7.007 -0.5282  0.7613  0.5465
   72MOL0    Cl 9843  12.839   7.071   6.901  0.0180 -0.2870  0.0896
   72MOL0     C 9844  12.153   6.060   7.190  0.1094  0.3472  0.5373
   72MOL0     C 9845  12.017   6.026   7.194  0.6459  0.0098  0.0031
   72MOL0     O 9846  11.706   6.279   7.122  0.0040  0.2066  0.5306
   72MOL0     C 9847  11.510   5.989   7.071  0.6250 -0.2360  0.3707
   72MOL0     C 9848  11.378   5.946   7.079  0.2542  0.1692  0.0767
   72MOL0     N 9849  11.168   5.651   6.915  0.2933  0.4163  0.6701
   72MOL0     N 9850  11.182   5.526   6.963 -0.1905 -0.6712 -0.1582
   72MOL0     C 9851  10.886   4.595   6.267 -0.0373 -0.0118 -0.3752
   72MOL0     C 9852  10.752   4.549   6.271  0.0205 -0.1549  0.4410
   72MOL0     C 9853  10.332   4.502   6.363  0.0383  1.0223  0.7010
   72MOL0     C 9854  10.240   4.601   6.358 -0.4978  0.6874 -0.1113
   72MOL0     C 9855  10.106   4.574   6.347  0.3325  0.1232 -0.0891
   72MOL0     C 9856  10.054   4.446   6.366 -0.0714 -0.3636  0.8830
   72MOL0     O 9857   9.917   4.424   6.356 -0.4155  0.4102 -0.3255
   72MOL0     C 9858   9.840   4.481   6.257  0.6106  0.2749  1.0366
   72MOL0     C 9859   9.692   4.427   6.261 -1.3517 -1.2977 -0.7406
   72MOL0     C 9860   9.685   4.279   6.288  0.1392  0.5052 -0.0376
   72MOL0     C 9861   9.535   4.230   6.290 -0.0714  0.5065 -0.3837
   72MOL0     C 9862   9.455   4.269   6.405  0.4182  0.7300  0.7030
   72MOL0     C 9863   9.383   4.292   6.501 -0.5212  0.2618  0.0218
   72MOL0     C 9864  10.141   4.343   6.376 -0.1624  0.2138 -0.0615
   72MOL0     C 9865  10.279   4.369   6.385  0.1844  0.4379  0.6366
   72MOL0     C 9866  10.369   4.238   6.413  0.5377 -0.3057  0.3963
   72MOL0     H 9867  10.757   4.427   6.588  2.0316  0.3650 -0.6379
   72MOL0     H 9868  10.981   4.509   6.585 -1.0657 -1.3928  1.0891
   72MOL0     H 9869  11.271   4.691   6.420  0.3659 -0.0445  0.3710
   72MOL0     H 9870  11.195   4.566   6.509 -0.4116 -1.3794 -2.7067
   72MOL0     H 9871  11.064   4.777   6.637 -0.8075  1.3478 -1.5732
   72MOL0     H 9872  11.234   4.766   6.653 -0.9929 -1.2662  0.8413
   72MOL0     H 9873  11.209   4.933   6.434 -0.6089 -1.0736 -0.9638
   72MOL0     H 9874  11.048   4.935   6.481 -1.4542 -2.3593  2.9595
   72MOL0     H 9875  11.268   5.015   6.690 -0.3324 -0.0884 -1.3871
   72MOL0     H 9876  11.232   5.119   6.558 -1.9238  2.1339  0.4799
   72MOL0     H 9877  11.027   4.998   6.760 -2.3119 -0.8991 -2.2176
   72MOL0     H 9878  10.988   5.120   6.634 -0.3855 -1.2260  1.5475
   72MOL0     H 9879  11.207   5.159   6.846 -0.7122 -4.7091 -0.5525
   72MOL0     H 9880  11.132   5.286   6.743  0.9388  2.2128  3.3176
   72MOL0     H 9881  10.984   5.128   6.949  2.5182  0.2387  1.5891
   72MOL0     H 9882  10.910   5.250   6.839  0.7584 -0.3573 -1.3945
   72MOL0     H 9883  10.991   5.331   7.080  2.5665 -0.2931  1.8122
   72MOL0     H 9884  11.153   5.285   7.032 -1.6792 -0.1537  2.3436
   72MOL0     H 9885  10.890   5.505   6.816  1.0231 -3.8867 -0.9940
   72MOL0     H 9886  10.872   5.725   6.775  0.2537 -2.2094  0.4511
   72MOL0     H 9887  11.021   5.814   6.705 -1.6950  3.5965  0.5826
   72MOL0     H 9888  10.852   5.928   6.892 -2.5083 -5.0219 -1.6150
   72MOL0     H 9889  10.934   5.827   7.004  1.9247  1.2384  0.6370
   72MOL0     H 9890  11.151   5.931   6.879 -1.3732 -1.9251 -2.2660
   72MOL0     H 9891  11.032   6.047   6.832  0.1356 -1.2000 -1.6364
   72MOL0     H 9892  11.101   6.148   7.032 -0.5948  0.3505  2.0880
   72MOL0     H 9893  10.964   6.072   7.090  0.3206  2.4365  0.9856
   72MOL0     H 9894  11.251   6.163   7.294  0.3097 -0.0314  1.6636
   72MOL0     H 9895  11.418   6.277   7.406 -0.6768 -0.1111  1.3759
   72MOL0     H 9896  11.535   6.357   7.301 -2.5982  1.0021 -2.3377
   72MOL0     H 9897  11.578   6.205   7.395 -1.6487  0.9163  2.4303
   72MOL0     H 9898  11.905   6.227   6.948  1.4422 -0.4676 -1.0672
   72MOL0     H 9899  12.143   6.292   6.951 -0.7717  0.0274  0.7689
   72MOL0     H 9900  12.473   6.164   6.983  0.2473  2.7635 -2.3170
   72MOL0     H 9901  12.332   6.240   6.916  0.7600 -0.1089 -1.5326
   72MOL0     H 9902  12.536   6.363   7.088 -3.6840 -0.9370  4.2921
   72MOL0     H 9903  12.494   6.400   6.920 -0.1730  0.9595 -0.2323
   72MOL0     H 9904  12.279   6.449   7.128  0.9756  0.7904  1.1358
   72MOL0     H 9905  12.275   6.495   6.969 -0.0663  0.5101 -0.0437
   72MOL0     H 9906  12.481   6.577   7.186  0.2582 -1.9317 -0.6147
   72MOL0     H 9907  12.357   6.682   7.120  1.1723 -0.1271  0.0487
   72MOL0     H 9908  12.609   6.588   6.981 -2.2539 -0.8113 -1.9391
   72MOL0     H 9909  12.479   6.677   6.904  1.1317 -1.0381 -0.9853
   72MOL0     H 9910  12.644   6.785   7.140 -0.6537 -2.7291 -0.0696
   72MOL0     H 9911  12.508   6.863   7.075  0.9563  1.0529  1.0883
   72MOL0     H 9912  12.625   6.888   6.842  0.0179 -1.1049 -0.2268
   72MOL0     H 9913  12.765   6.805   6.930  4.0237  3.9488  3.2535
   72MOL0     H 9914  12.760   6.984   7.107 -0.5312 -0.2630  0.3877
   72MOL0     H 9915  12.632   7.068   7.012 -0.0733  1.2701  3.9847
   72MOL0     H 9916  12.216   6.000   7.254 -1.0619 -1.8672 -0.2746
   72MOL0     H 9917  11.978   5.941   7.249 -0.0159  0.3713  0.1110
   72MOL0     H 9918  11.587   5.926   7.029  2.3092  0.8119  1.7808
   72MOL0     H 9919  11.354   5.866   7.010  2.0563  0.9750 -1.5772
   72MOL0     H 9920  10.930   4.630   6.174 -0.2078 -0.0028 -0.4524
   72MOL0     H 9921  10.684   4.550   6.186  0.5912  3.1368 -0.1012
   72MOL0     H 9922  10.272   4.705   6.358  1.6531  0.0992  1.0812
   72MOL0     H 9923  10.031   4.653   6.351 -1.1060 -1.2159  1.2388
   72MOL0     H 9924   9.828   4.589   6.261  1.5366  0.4631 -0.4878
   72MOL0     H 9925   9.886   4.447   6.164  3.4851  1.8174  1.7813
   72MOL0     H 9926   9.639   4.454   6.169 -2.3451  5.6377  1.3048
   72MOL0     H 9927   9.637   4.483   6.337 -0.1327 -1.2480  0.1244
   72MOL0     H 9928   9.734   4.220   6.210 -6.3339 -1.7473 -3.1068
   72MOL0     H 9929   9.733   4.256   6.383 -1.2304  0.5544  0.6826
   72MOL0     H 9930   9.530   4.120   6.289 -0.2571  0.3300  3.5179
   72MOL0     H 9931   9.491   4.288   6.208  1.9688  1.7158 -0.6887
   72MOL0     H 9932   9.329   4.306   6.593  1.4956 -0.6169  1.4286
   72MOL0     H 9933  10.096   4.247   6.397  1.2227 -0.1808  1.3374
   72MOL0     H 9934  10.296   4.157   6.403  1.4428 -1.1704  0.6435
   72MOL0     H 9935  10.451   4.217   6.344  0.1434  1.3459 -0.6148
   72MOL0     H 9936  10.411   4.237   6.514 -0.1640  3.2237  0.8626
   73MOL0     O 9937   6.976   5.303  10.060 -0.2224  0.1324 -0.4463
   73MOL0     C 9938   6.931   5.354  10.162  0.1201 -0.6929 -0.7155
   73MOL0     O 9939   7.000   5.409  10.268  0.6166  0.2593  0.3286
   73MOL0     C 9940   7.133   5.421  10.257 -0.7395  0.2006 -0.2913
   73MOL0     C 9941   7.185   5.547  10.259  0.4083 -0.3281 -0.3988
   73MOL0     C 9942   7.326   5.562  10.264 -0.9020 -0.7403 -0.4270
   73MOL0     C 9943   7.405   5.451  10.279 -0.5084  0.6252 -1.2186
   73MOL0     O 9944   7.542   5.462  10.285  0.4836 -1.1017  0.3309
   73MOL0     C 9945   7.582   5.573  10.367  0.6833 -0.2857 -0.0824
   73MOL0     C 9946   7.692   5.526  10.457  0.2500  0.3612 -0.3680
   73MOL0     C 9947   7.832   5.501  10.395 -0.9412 -0.1770  0.1926
   73MOL0     C 9948   7.928   5.451  10.510 -0.0201 -0.3280 -0.3615
   73MOL0     C 9949   8.069   5.507  10.492 -0.0663 -0.6277 -0.4575
   73MOL0     C 9950   8.143   5.472  10.614 -0.0474 -0.5569 -0.5143
   73MOL0     C 9951   8.281   5.518  10.600  0.1031  0.4546  0.0334
   73MOL0     C 9952   8.364   5.490  10.726  0.3756 -0.0144 -0.7465
   73MOL0     N 9953   8.497   5.555  10.710  0.5148  1.3553  0.6780
   73MOL0     C 9954   8.611   5.481  10.714  0.5669 -0.1981  0.3765
   73MOL0     C 9955   8.701   5.572  10.685  0.0069 -0.3315 -0.2205
   73MOL0     C 9956   8.853   5.557  10.667 -0.6742 -0.7544  0.6504
   73MOL0     C 9957   8.921   5.691  10.698  0.5641  0.0448  0.0902
   73MOL0     C 9958   9.071   5.674  10.682  0.0981  0.6175  1.0529
   73MOL0     C 9959   9.137   5.804  10.685  0.0311 -1.0332  0.4891
   73MOL0     O 9960   9.284   5.792  10.694  0.2096  0.3047 -0.6970
   73MOL0     C 9961   9.367   5.896  10.726  0.7928 -0.7569 -0.1064
   73MOL0     C 9962   9.477   5.869  10.810 -0.4647  1.3311  0.6585
   73MOL0     C 9963   9.557   5.967  10.859 -0.4757 -0.7224 -0.1104
   73MOL0     C 9964   9.654   5.924  10.954 -0.2470  0.0640 -0.2852
   73MOL0     C 9965   9.549   6.105  10.800 -0.2357  0.2414 -0.5895
   73MOL0     C 9966   9.662   6.205  10.798 -1.0722 -0.6828  0.3450
   73MOL0     O 9967   9.642   6.319  10.730 -0.0084  0.6538  0.4743
   73MOL0     C 9968   9.741   6.407  10.705  0.1466  0.6603  0.0458
   73MOL0     C 9969   9.734   6.476  10.578 -0.2578  0.5266 -0.2833
   73MOL0     C 9970   9.839   6.563  10.539  0.2137  0.3195  0.1233
   73MOL0     C 9971   9.944   6.589  10.630 -0.1254 -0.9246 -0.5465
   73MOL0     O 9972  10.042   6.679  10.596  0.1101  0.1428  0.1300
   73MOL0     C 9973  10.175   6.646  10.629  0.5820  0.1213  0.3562
   73MOL0     C 9974  10.263   6.691  10.513 -0.4779  0.0402  0.0820
   73MOL0     C 9975  10.399   6.622  10.519 -0.0885 -0.0619 -0.1638
   73MOL0     C 9976  10.488   6.672  10.636  0.0759  0.2561  0.1252
   73MOL0     C 9977  10.609   6.584  10.651 -0.2941 -0.4052  0.3558
   73MOL0     C 9978  10.710   6.648  10.740 -0.3934  0.6109 -0.3038
   73MOL0     C 9979  10.822   6.546  10.771 -0.0554  0.2887 -0.6841
   73MOL0     C 9980  10.927   6.596  10.868  0.1729  0.5499  0.1147
   73MOL0    Cl 9981  10.999   6.750  10.822 -0.1202 -0.3971  0.0319
   73MOL0     C 9982   9.935   6.540  10.759  0.3298  0.4953  0.0462
   73MOL0     C 9983   9.835   6.446  10.798 -0.1783  0.5402 -0.5563
   73MOL0     O 9984   9.763   6.182  10.867 -0.8335 -0.2016 -0.0473
   73MOL0     C 9985   9.433   6.128  10.719  0.4157  0.1825  0.3384
   73MOL0     C 9986   9.341   6.029  10.684 -0.7516 -0.2863 -0.0869
   73MOL0     N 9987   8.641   5.691  10.669 -0.1748 -0.6299 -0.0099
   73MOL0     N 9988   8.519   5.677  10.680  0.3321  0.6137 -0.6728
   73MOL0     C 9989   7.353   5.320  10.278  0.5318 -0.3580  0.0038
   73MOL0     C 9990   7.216   5.307  10.264 -0.3212  0.4970  0.2116
   73MOL0     C 9991   6.784   5.346  10.175  0.9392  0.0806  0.0513
   73MOL0     C 9992   6.724   5.470  10.199  0.0789 -0.0646 -0.3164
   73MOL0     C 9993   6.585   5.493  10.199  0.4940 -0.1050 -0.2725
   73MOL0     C 9994   6.507   5.379  10.185  0.4918  0.1658 -0.9915
   73MOL0     O 9995   6.366   5.392  10.166 -0.3491 -0.5891  0.1727
   73MOL0     C 9996   6.308   5.424  10.296 -1.0588  0.7767 -0.1808
   73MOL0     C 9997   6.208   5.538  10.270 -0.1447 -0.3957 -0.4507
   73MOL0     C 9998   6.140   5.578  10.400  0.3332  0.3987  0.1673
   73MOL0     C 9999   6.005   5.654  10.372 -0.7953  0.4738  0.1157
   73MOL0     C10000   5.944   5.678  10.506  0.3626  0.6715  0.1697
   73MOL0     C10001   5.904   5.698  10.615 -0.4183 -0.2368 -0.4363
   73MOL0     C10002   6.569   5.261  10.164  0.6242  0.7852  0.0810
   73MOL0     C10003   6.705   5.230  10.160  0.8559 -0.1843  0.3515
   73MOL0     C10004   6.761   5.091  10.149 -0.0866  0.7284 -1.1116
   73MOL0     H10005   7.120   5.634  10.263  0.1025 -0.5876  1.7772
   73MOL0     H10006   7.361   5.664  10.276  0.6679 -1.5167  2.5845
   73MOL0     H10007   7.504   5.611  10.434  1.9947  0.7327  0.9131
   73MOL0     H10008   7.620   5.656  10.306 -0.2492  0.1866 -0.0454
   73MOL0     H10009   7.696   5.596  10.541 -2.9242  0.7436 -0.4191
   73MOL0     H10010   7.673   5.426  10.497 -1.2818  0.6834 -0.2601
   73MOL0     H10011   7.824   5.427  10.315  0.2926 -1.1509  0.9411
   73MOL0     H10012   7.882   5.590  10.355  1.6844 -1.4950  0.3018
   73MOL0     H10013   7.887   5.489  10.604  0.6611  0.3323 -0.3205
   73MOL0     H10014   7.921   5.342  10.521 -1.1397 -0.0066  3.7854
   73MOL0     H10015   8.070   5.617  10.487 -0.2138 -0.6570 -5.1150
   73MOL0     H10016   8.115   5.466  10.402  0.3673 -0.4466 -0.3256
   73MOL0     H10017   8.091   5.522  10.697 -1.3107  0.2473 -1.7567
   73MOL0     H10018   8.151   5.363  10.628 -2.1856 -0.5104  1.9388
   73MOL0     H10019   8.286   5.626  10.581 -1.1460  0.9304  2.1041
   73MOL0     H10020   8.323   5.470  10.511 -1.0086 -1.9339  0.7262
   73MOL0     H10021   8.312   5.534  10.811  0.7522 -1.3186  0.1870
   73MOL0     H10022   8.377   5.381  10.730 -1.1494 -0.1964 -0.4025
   73MOL0     H10023   8.629   5.375  10.728  2.9981  0.3471  2.1554
   73MOL0     H10024   8.875   5.527  10.565 -0.5662  2.4758 -0.4121
   73MOL0     H10025   8.904   5.481  10.727  2.2387  0.1869 -0.4492
   73MOL0     H10026   8.880   5.778  10.646 -0.4235  1.1421  2.5543
   73MOL0     H10027   8.919   5.725  10.802  0.0227  2.1780 -0.5587
   73MOL0     H10028   9.105   5.602  10.757  1.9991 -0.6150 -0.8544
   73MOL0     H10029   9.092   5.614  10.593  2.8647 -0.6693  2.4298
   73MOL0     H10030   9.120   5.858  10.591 -0.1102  1.1804  1.6952
   73MOL0     H10031   9.089   5.860  10.767  3.4080  3.1393 -0.0324
   73MOL0     H10032   9.485   5.768  10.849  0.1813  1.0754 -0.1333
   73MOL0     H10033   9.744   5.893  10.900  0.1276  0.1937  0.2628
   73MOL0     H10034   9.623   5.837  11.012 -1.6325 -1.0955 -2.5883
   73MOL0     H10035   9.662   5.996  11.036 -1.2849 -0.0692 -0.0439
   73MOL0     H10036   9.651   6.453  10.512  0.1564  0.8282 -0.9188
   73MOL0     H10037   9.840   6.606  10.439 -0.9912 -2.4353 -1.1932
   73MOL0     H10038  10.201   6.690  10.726 -0.0851 -0.7291  0.9289
   73MOL0     H10039  10.177   6.539  10.649  0.4877  0.2973  1.3355
   73MOL0     H10040  10.213   6.659  10.421  3.1475  1.4280 -2.5640
   73MOL0     H10041  10.264   6.800  10.512 -2.4727  0.1836 -3.3501
   73MOL0     H10042  10.445   6.639  10.421  0.5209  1.9469  0.4222
   73MOL0     H10043  10.386   6.513  10.526 -2.6859  0.1330 -0.8791
   73MOL0     H10044  10.434   6.684  10.731  1.6429 -1.0072  1.2304
   73MOL0     H10045  10.522   6.773  10.611  1.0895  0.2225  1.3161
   73MOL0     H10046  10.577   6.487  10.691  2.9105 -1.0159  1.6767
   73MOL0     H10047  10.656   6.574  10.553  3.3809  0.5511  1.8768
   73MOL0     H10048  10.664   6.672  10.837  1.7219  1.5490  0.5357
   73MOL0     H10049  10.755   6.739  10.699 -1.5800  1.3614 -0.0046
   73MOL0     H10050  10.869   6.513  10.678  1.4915  0.2960  0.0621
   73MOL0     H10051  10.782   6.454  10.815  3.4686 -2.4353 -2.6879
   73MOL0     H10052  11.014   6.530  10.876  0.2875  0.0119 -3.6883
   73MOL0     H10053  10.874   6.598  10.963 -2.3798 -1.6208 -1.1576
   73MOL0     H10054  10.013   6.575  10.826  0.9635 -2.4941  1.0327
   73MOL0     H10055   9.849   6.411  10.900 -0.5793 -2.5869 -1.4778
   73MOL0     H10056   9.419   6.223  10.667 -1.5615 -0.6079 -0.6786
   73MOL0     H10057   9.261   6.047  10.612 -0.5909  0.4851 -0.0825
   73MOL0     H10058   7.414   5.230  10.276 -0.0909 -0.8697  1.5496
   73MOL0     H10059   7.169   5.208  10.268  0.6414 -0.1482 -2.6413
   73MOL0     H10060   6.781   5.555  10.235 -0.8728  0.7494 -0.6642
   73MOL0     H10061   6.544   5.594  10.202 -0.2383 -0.3747  3.0655
   73MOL0     H10062   6.250   5.338  10.333  0.8496 -0.7588 -0.5748
   73MOL0     H10063   6.384   5.446  10.371  0.0144  2.5623 -1.7276
   73MOL0     H10064   6.128   5.514  10.200 -0.1535  0.5636 -0.7926
   73MOL0     H10065   6.271   5.620  10.233  0.6683 -0.3115  1.0729
   73MOL0     H10066   6.137   5.495  10.471  2.2818 -1.6436 -1.9644
   73MOL0     H10067   6.214   5.648  10.439  1.3760 -0.9448  0.6676
   73MOL0     H10068   5.926   5.601  10.317 -1.6649  0.7760  1.0392
   73MOL0     H10069   6.015   5.751  10.324 -1.5887 -0.6799 -2.5528
   73MOL0     H10070   5.872   5.736  10.710  0.6861  0.3150 -0.2722
   73MOL0     H10071   6.501   5.176  10.154  2.2735 -0.8867  2.0981
   73MOL0     H10072   6.758   5.048  10.049  0.7657 -3.2974  0.3934
   73MOL0     H10073   6.868   5.085  10.173  0.0172 -0.8285 -1.8802
   73MOL0     H10074   6.715   5.019  10.217  1.5389  1.9110  1.3987
   74MOL0     O10075   5.218  11.067   4.013 -0.4860  1.0188 -0.1767
   74MOL0     C10076   5.227  11.174   4.078  0.3937 -0.0664 -0.6194
   74MOL0     O10077   5.336  11.257   4.069 -0.4944  0.0618 -0.6697
   74MOL0     C10078   5.443  11.215   3.995 -0.0111  0.0338  0.0886
   74MOL0     C10079   5.525  11.101   4.017 -0.3655  0.9753 -1.2541
   74MOL0     C10080   5.626  11.049   3.933 -0.7922  0.4006 -0.2572
   74MOL0     C10081   5.665  11.112   3.812  0.4284 -0.5485  0.3666
   74MOL0     O10082   5.765  11.062   3.730  0.2649 -0.8799 -0.0395
   74MOL0     C10083   5.775  10.920   3.730  0.2230 -0.0108 -0.2279
   74MOL0     C10084   5.828  10.865   3.596 -0.0387  0.2853  0.2375
   74MOL0     C10085   5.983  10.861   3.617  0.5007 -0.3019 -0.0254
   74MOL0     C10086   6.047  10.794   3.501 -0.2942  0.2859 -0.5264
   74MOL0     C10087   6.199  10.798   3.518  1.1312 -0.9081  0.3296
   74MOL0     C10088   6.262  10.728   3.407  0.6889 -0.0008 -0.3104
   74MOL0     C10089   6.411  10.760   3.381 -0.2840 -0.1657 -0.6748
   74MOL0     C10090   6.487  10.770   3.503  0.2832  0.5648 -0.6943
   74MOL0     N10091   6.626  10.751   3.482 -1.1122  0.1595  0.3694
   74MOL0     C10092   6.684  10.625   3.502  0.8506 -0.3986 -0.2749
   74MOL0     C10093   6.813  10.651   3.495  0.2636 -0.4317  0.5507
   74MOL0     C10094   6.920  10.552   3.494  0.1194 -0.1377 -0.1023
   74MOL0     C10095   6.989  10.511   3.360  0.5985  0.3056 -1.1743
   74MOL0     C10096   6.892  10.463   3.255 -0.0771  0.0500 -0.3441
   74MOL0     C10097   6.956  10.426   3.117  0.3977 -0.2796 -0.5469
   74MOL0     O10098   7.040  10.523   3.063 -0.6075 -0.1039 -0.0076
   74MOL0     C10099   7.132  10.501   2.968  0.5199 -0.2362 -0.6118
   74MOL0     C10100   7.253  10.578   2.964  0.5757 -0.0799  0.1470
   74MOL0     C10101   7.348  10.555   2.870  0.3850  0.2030 -0.6093
   74MOL0     C10102   7.483  10.633   2.887 -0.4493 -1.1505 -0.3555
   74MOL0     C10103   7.323  10.468   2.765  0.6340 -0.0130 -0.4167
   74MOL0     C10104   7.396  10.458   2.644  1.0571  0.4335 -0.6902
   74MOL0     O10105   7.318  10.409   2.538  0.3272  0.3435  0.3168
   74MOL0     C10106   7.380  10.324   2.453  0.6314 -0.4052  0.4598
   74MOL0     C10107   7.504  10.264   2.468 -0.0078  0.3897  0.0897
   74MOL0     C10108   7.576  10.197   2.363  0.6475 -0.3957  1.0361
   74MOL0     C10109   7.518  10.181   2.241 -0.8813 -0.2103  1.1271
   74MOL0     O10110   7.597  10.111   2.151  0.9237  0.7645  0.0053
   74MOL0     C10111   7.613  10.164   2.019  0.5781 -0.4578 -0.5038
   74MOL0     C10112   7.706  10.081   1.939 -0.0346 -0.0204  0.1324
   74MOL0     C10113   7.851  10.096   1.988 -0.3428  0.4418  0.1312
   74MOL0     C10114   7.930   9.981   1.928  0.0790 -0.7877 -0.0022
   74MOL0     C10115   8.075   9.988   1.970  0.0123 -0.2439 -0.9515
   74MOL0     C10116   8.163   9.875   1.916  0.0363 -0.7292  0.4285
   74MOL0     C10117   8.306   9.903   1.950 -0.3187 -0.9637 -0.1505
   74MOL0     C10118   8.373   9.929   1.815  0.4360  0.6574 -0.1363
   74MOL0    Cl10119   8.550   9.919   1.823  0.2373  0.4465 -0.0970
   74MOL0     C10120   7.392  10.243   2.218  0.5401 -0.6601 -0.0903
   74MOL0     C10121   7.321  10.311   2.324 -0.4075 -0.5095 -0.3491
   74MOL0     O10122   7.512  10.493   2.636  0.1477 -0.8064 -0.1869
   74MOL0     C10123   7.210  10.385   2.775  0.4291  0.2930 -0.7435
   74MOL0     C10124   7.111  10.408   2.871  0.0846  0.0025  0.3654
   74MOL0     N10125   6.827  10.785   3.483  0.2470  0.4306  0.6068
   74MOL0     N10126   6.716  10.848   3.484 -0.1270  0.0516  0.0355
   74MOL0     C10127   5.594  11.236   3.794  0.3216  0.2937 -0.0151
   74MOL0     C10128   5.482  11.283   3.880  0.7216 -1.0601  0.1725
   74MOL0     C10129   5.111  11.215   4.162  0.7955  0.1680 -0.3428
   74MOL0     C10130   5.017  11.116   4.188 -0.0011  0.0870  0.6444
   74MOL0     C10131   4.896  11.141   4.266 -1.0037  0.4131 -1.6747
   74MOL0     C10132   4.874  11.268   4.308  0.3281  0.4571  0.7965
   74MOL0     O10133   4.772  11.289   4.391 -0.0121 -0.9956 -0.6522
   74MOL0     C10134   4.658  11.348   4.333  0.8145  0.5339 -0.4482
   74MOL0     C10135   4.533  11.307   4.405  1.1016  0.4534  0.0975
   74MOL0     C10136   4.420  11.314   4.302  0.6129 -0.5028 -0.6023
   74MOL0     C10137   4.425  11.202   4.196 -0.5702  0.8421  0.2385
   74MOL0     C10138   4.291  11.183   4.151  0.1963 -0.0473 -0.1313
   74MOL0     C10139   4.169  11.171   4.129 -0.1765  0.6150  0.0563
   74MOL0     C10140   4.955  11.366   4.266 -0.1817 -0.0538 -0.6334
   74MOL0     C10141   5.075  11.347   4.190  0.9642  0.1187 -0.4069
   74MOL0     C10142   5.131  11.477   4.133 -0.0062 -0.5681 -0.4389
   74MOL0     H10143   5.496  11.044   4.105  3.0903  0.8582 -0.0132
   74MOL0     H10144   5.675  10.956   3.959 -1.2881  0.8657  2.6779
   74MOL0     H10145   5.669  10.891   3.735  0.2665 -0.6085 -2.0134
   74MOL0     H10146   5.825  10.876   3.816  0.6882 -0.0455 -0.5150
   74MOL0     H10147   5.783  10.767   3.578 -1.1764  0.5920  1.2462
   74MOL0     H10148   5.811  10.924   3.506 -0.6471  0.9115  0.7537
   74MOL0     H10149   6.032  10.959   3.625  1.7967 -1.1171  5.3552
   74MOL0     H10150   6.013  10.810   3.708 -0.7371  2.2595  1.9480
   74MOL0     H10151   6.017  10.689   3.494  0.8336 -0.2535  1.6690
   74MOL0     H10152   6.035  10.857   3.413  1.4766 -0.0768 -1.0805
   74MOL0     H10153   6.224  10.761   3.617  2.0020 -1.1655  0.0268
   74MOL0     H10154   6.220  10.903   3.496  1.7346 -0.6790  1.9360
   74MOL0     H10155   6.242  10.622   3.424  0.5523  0.1180  0.2942
   74MOL0     H10156   6.213  10.745   3.311  2.0128  0.7878 -0.8772
   74MOL0     H10157   6.424  10.854   3.327  0.5307 -0.3976 -0.8996
   74MOL0     H10158   6.442  10.687   3.305  0.1562  0.4508 -1.0941
   74MOL0     H10159   6.463  10.870   3.541 -2.9814 -1.1885  2.5249
   74MOL0     H10160   6.442  10.696   3.570 -0.8051  0.7658 -1.1866
   74MOL0     H10161   6.626  10.534   3.519  2.2567 -1.0340  1.4159
   74MOL0     H10162   6.865  10.466   3.535 -1.0056  1.7602  2.6322
   74MOL0     H10163   7.001  10.575   3.563 -1.7631 -1.4760  2.7912
   74MOL0     H10164   7.041  10.594   3.311 -1.1255  0.6390 -2.5777
   74MOL0     H10165   7.048  10.429   3.401 -1.8758  0.5163  3.5459
   74MOL0     H10166   6.841  10.374   3.293  0.4706 -0.6558 -1.2182
   74MOL0     H10167   6.817  10.541   3.239 -0.1838 -0.0108 -0.1392
   74MOL0     H10168   7.016  10.339   3.143  0.7156 -0.0048 -0.3496
   74MOL0     H10169   6.882  10.402   3.040  0.6375 -1.1513 -0.5053
   74MOL0     H10170   7.265  10.644   3.050 -0.4495  0.3819 -0.0480
   74MOL0     H10171   7.500  10.715   2.817 -0.5747 -1.1286 -0.3614
   74MOL0     H10172   7.572  10.570   2.892 -1.7554 -3.0018  3.4987
   74MOL0     H10173   7.479  10.681   2.986 -2.9014 -1.8616 -0.0240
   74MOL0     H10174   7.557  10.263   2.562 -0.4005  0.4651  0.3124
   74MOL0     H10175   7.675  10.157   2.381  1.1698  0.9288  1.2148
   74MOL0     H10176   7.516  10.153   1.969  0.0556 -3.2495  0.9179
   74MOL0     H10177   7.643  10.269   2.029  0.0950 -0.4873  2.2886
   74MOL0     H10178   7.661   9.983   1.924 -1.2248  0.6041 -0.5385
   74MOL0     H10179   7.700  10.134   1.843 -0.0376  0.2287  0.2690
   74MOL0     H10180   7.864  10.086   2.096 -1.7037  1.3659  0.4065
   74MOL0     H10181   7.895  10.188   1.948 -2.1540  1.7834  1.0580
   74MOL0     H10182   7.923   9.997   1.820  4.0577 -2.3664 -0.6606
   74MOL0     H10183   7.883   9.888   1.962 -0.3624 -0.4499  0.3202
   74MOL0     H10184   8.103  10.090   1.943  0.1504 -0.4760 -1.6875
   74MOL0     H10185   8.077   9.980   2.079  0.5665  3.6487 -0.5297
   74MOL0     H10186   8.144   9.862   1.809 -1.8221 -0.8322  0.7389
   74MOL0     H10187   8.132   9.782   1.964 -0.8030  0.7440  2.8816
   74MOL0     H10188   8.349   9.821   2.009  0.7825 -3.7343 -4.3050
   74MOL0     H10189   8.314  10.000   2.000 -1.8521 -0.7660 -0.2491
   74MOL0     H10190   8.341  10.025   1.774 -1.2957 -0.6634 -2.1201
   74MOL0     H10191   8.339   9.852   1.745  0.0087 -1.6808  2.4314
   74MOL0     H10192   7.358  10.251   2.115  1.4849  2.2581 -0.2544
   74MOL0     H10193   7.231  10.368   2.305  0.6107  1.4925  0.5437
   74MOL0     H10194   7.194  10.313   2.696 -0.6134  1.3294 -1.5235
   74MOL0     H10195   7.022  10.347   2.859 -0.8015  1.5183 -1.3284
   74MOL0     H10196   5.631  11.288   3.706  1.7390  0.0875  0.4311
   74MOL0     H10197   5.427  11.372   3.849 -0.3807 -2.6733 -2.9031
   74MOL0     H10198   5.033  11.014   4.155  2.7605  0.2054  1.3719
   74MOL0     H10199   4.827  11.064   4.299  0.3510  0.3064  1.2250
   74MOL0     H10200   4.663  11.456   4.347  0.5471  0.6280 -1.0460
   74MOL0     H10201   4.650  11.341   4.224  1.6801  4.8444 -0.9726
   74MOL0     H10202   4.521  11.380   4.485  1.3225  1.0821 -0.4386
   74MOL0     H10203   4.543  11.209   4.454  1.2358  0.9851  1.1607
   74MOL0     H10204   4.332  11.322   4.368  0.5350  1.7925 -0.8946
   74MOL0     H10205   4.415  11.411   4.252 -2.2699  0.3845  1.0940
   74MOL0     H10206   4.470  11.110   4.234 -1.0584  0.0707 -0.9743
   74MOL0     H10207   4.486  11.225   4.108 -0.6722 -0.1589 -0.1013
   74MOL0     H10208   4.064  11.173   4.109 -0.3821  1.5966  1.0913
   74MOL0     H10209   4.942  11.472   4.286  0.9125  0.2935 -1.6847
   74MOL0     H10210   5.208  11.458   4.057  0.0456 -1.8520 -0.0966
   74MOL0     H10211   5.045  11.531   4.094  0.4210  0.0473 -0.5366
   74MOL0     H10212   5.187  11.533   4.209 -1.0109  1.6026 -1.2328
   75MOL0     O10213  10.897   1.197   3.912 -0.4577 -0.1286  0.3299
   75MOL0     C10214  10.822   1.111   3.871 -1.1134 -0.0693 -0.4442
   75MOL0     O10215  10.853   0.994   3.823 -0.8008 -0.2214  0.1471
   75MOL0     C10216  10.978   0.953   3.824  0.0631 -0.7026 -0.2243
   75MOL0     C10217  11.074   1.035   3.762  0.4427  0.0239 -0.2344
   75MOL0     C10218  11.210   1.000   3.766 -0.5931 -0.0628 -0.8273
   75MOL0     C10219  11.253   0.892   3.842 -0.4435  0.2495 -0.1402
   75MOL0     O10220  11.383   0.849   3.863  0.0163  0.0654  0.1126
   75MOL0     C10221  11.486   0.944   3.847 -0.1196 -0.3551 -0.4963
   75MOL0     C10222  11.502   1.057   3.960 -0.4709  1.4448 -1.1031
   75MOL0     C10223  11.544   0.986   4.092 -0.2760 -0.5381 -1.1747
   75MOL0     C10224  11.692   0.988   4.100 -0.2568 -0.3409  0.1247
   75MOL0     C10225  11.739   0.903   4.221 -0.0307 -0.4337 -0.6285
   75MOL0     C10226  11.893   0.888   4.227  0.1564 -0.2020  0.6438
   75MOL0     C10227  11.924   0.770   4.310 -0.1446 -0.5146  1.0085
   75MOL0     C10228  12.080   0.768   4.333  0.4161  0.8667  0.3211
   75MOL0     N10229  12.133   0.669   4.431 -0.6606 -0.0898 -0.0478
   75MOL0     C10230  12.076   0.542   4.445 -0.0420  0.4964 -0.0878
   75MOL0     C10231  12.173   0.480   4.515  0.0034  0.9145 -0.0061
   75MOL0     C10232  12.164   0.345   4.562 -0.1746  0.0137  0.4313
   75MOL0     C10233  12.190   0.331   4.718  0.0476 -0.1351 -0.0481
   75MOL0     C10234  12.080   0.390   4.812  0.6237 -0.2115  0.1706
   75MOL0     C10235  11.935   0.357   4.769  0.2907  1.0445 -0.4265
   75MOL0     O10236  11.858   0.361   4.889 -0.1868 -0.0265 -0.4238
   75MOL0     C10237  11.729   0.331   4.904  0.3599 -0.4354  0.7005
   75MOL0     C10238  11.641   0.309   4.794  0.3800  0.0649  0.3023
   75MOL0     C10239  11.503   0.291   4.809 -0.2520 -0.3403  0.1417
   75MOL0     C10240  11.419   0.259   4.689  0.4626  0.1291 -0.2200
   75MOL0     C10241  11.447   0.299   4.940  1.5935 -0.1947 -0.6666
   75MOL0     C10242  11.300   0.285   4.982 -0.5734  0.1874 -0.4956
   75MOL0     O10243  11.274   0.326   5.106  0.0321 -0.0182  0.7852
   75MOL0     C10244  11.143   0.347   5.145 -0.5787  1.2634  0.0355
   75MOL0     C10245  11.087   0.239   5.213 -0.6158 -0.6328 -0.3670
   75MOL0     C10246  10.963   0.256   5.253  1.5342  0.1810 -0.0810
   75MOL0     C10247  10.888   0.379   5.246 -0.1699  1.4656  0.6432
   75MOL0     O10248  10.767   0.405   5.294 -0.2043 -0.0896 -0.0942
   75MOL0     C10249  10.724   0.317   5.400 -1.0143  0.0402  0.4412
   75MOL0     C10250  10.608   0.370   5.468 -0.4190 -0.0559  1.3376
   75MOL0     C10251  10.491   0.372   5.367 -0.4427 -0.2499 -0.3415
   75MOL0     C10252  10.357   0.407   5.428 -0.8028 -0.7078  1.4415
   75MOL0     C10253  10.285   0.288   5.480 -0.1113  0.8856  0.0216
   75MOL0     C10254  10.193   0.231   5.371 -0.1544 -0.6311 -0.8722
   75MOL0     C10255  10.068   0.316   5.342 -0.2174  0.0387  0.0431
   75MOL0     C10256   9.965   0.245   5.255  0.1610  0.8282 -0.5443
   75MOL0    Cl10257  10.028   0.214   5.083  0.3037 -0.1485 -0.5664
   75MOL0     C10258  10.944   0.489   5.172 -0.2702  0.7269  0.2799
   75MOL0     C10259  11.079   0.474   5.136  0.3593  0.0684  0.4648
   75MOL0     O10260  11.223   0.232   4.901  0.7969 -0.1775 -0.7563
   75MOL0     C10261  11.537   0.325   5.049 -0.3276  0.3634 -0.1614
   75MOL0     C10262  11.678   0.342   5.033 -0.1109  0.1846 -0.6539
   75MOL0     N10263  12.285   0.559   4.539 -0.7596 -0.1127  1.0012
   75MOL0     N10264  12.257   0.671   4.484 -0.0360 -0.3160  0.9386
   75MOL0     C10265  11.158   0.801   3.888  0.2042 -0.7641 -0.4325
   75MOL0     C10266  11.018   0.833   3.887  0.7457 -0.5522 -0.0448
   75MOL0     C10267  10.680   1.131   3.883  0.3652  0.0625 -0.0578
   75MOL0     C10268  10.616   1.260   3.836  0.7120  0.4959  0.3092
   75MOL0     C10269  10.488   1.294   3.856 -0.5092 -0.5623 -0.9309
   75MOL0     C10270  10.408   1.204   3.931  0.1405 -0.4348 -0.0462
   75MOL0     O10271  10.282   1.236   3.955  0.8445 -0.1367 -0.6589
   75MOL0     C10272  10.277   1.297   4.082  0.1715 -0.3191  0.1556
   75MOL0     C10273  10.134   1.272   4.122 -0.1945  0.2107  0.1181
   75MOL0     C10274  10.030   1.341   4.025  0.8160  0.7061 -0.2730
   75MOL0     C10275   9.895   1.283   4.053  0.7799  0.3187 -0.3326
   75MOL0     C10276   9.800   1.318   3.939 -0.3212  1.8948 -0.2314
   75MOL0     C10277   9.729   1.350   3.849 -0.1820  0.0579  0.3734
   75MOL0     C10278  10.454   1.087   3.983 -0.2738 -0.3897  0.0527
   75MOL0     C10279  10.591   1.049   3.963 -1.2657  0.8890 -0.1604
   75MOL0     C10280  10.625   0.911   4.019 -0.0998 -0.1550 -0.6726
   75MOL0     H10281  11.042   1.119   3.701 -0.4483  0.5702  0.9479
   75MOL0     H10282  11.288   1.055   3.715  1.0116 -1.8025 -0.3699
   75MOL0     H10283  11.471   0.995   3.751 -0.9564  2.5802  1.0766
   75MOL0     H10284  11.580   0.889   3.839  0.0440 -0.2433  0.5247
   75MOL0     H10285  11.579   1.129   3.929  0.8555  1.0128  0.9435
   75MOL0     H10286  11.413   1.120   3.973 -0.7556  0.8673 -0.1661
   75MOL0     H10287  11.516   1.051   4.176  2.3409  0.9378 -1.3514
   75MOL0     H10288  11.497   0.888   4.104 -1.6595  0.3645  1.9431
   75MOL0     H10289  11.735   0.947   4.008 -1.7225 -1.9994  0.1205
   75MOL0     H10290  11.724   1.092   4.112 -2.6285  0.4206  0.2478
   75MOL0     H10291  11.697   0.802   4.220  0.3720 -0.8579  4.0585
   75MOL0     H10292  11.697   0.956   4.307 -3.2104 -1.0766 -1.6351
   75MOL0     H10293  11.929   0.881   4.124  1.0326 -1.5352  1.0149
   75MOL0     H10294  11.934   0.982   4.267  0.7031  0.6716 -1.8375
   75MOL0     H10295  11.897   0.677   4.259 -1.3138  1.4704 -2.3137
   75MOL0     H10296  11.859   0.791   4.396 -2.1219 -0.6234 -0.3748
   75MOL0     H10297  12.127   0.754   4.235 -0.2374 -1.4580  0.2888
   75MOL0     H10298  12.112   0.868   4.367  0.0381  0.6080  1.4687
   75MOL0     H10299  11.985   0.495   4.409 -0.4992 -0.7831  2.4840
   75MOL0     H10300  12.234   0.278   4.513  0.3644  0.9145 -0.0456
   75MOL0     H10301  12.064   0.306   4.540 -0.4902 -0.4789  2.5663
   75MOL0     H10302  12.204   0.225   4.739  0.7664  0.2133  1.3404
   75MOL0     H10303  12.281   0.386   4.743  0.0635 -0.3849  0.4578
   75MOL0     H10304  12.106   0.343   4.908 -0.2404  1.5535  1.3281
   75MOL0     H10305  12.099   0.497   4.823  0.5234  0.1685 -2.6960
   75MOL0     H10306  11.904   0.426   4.690  0.8515  1.0761 -0.6235
   75MOL0     H10307  11.931   0.257   4.726  0.0973  1.2872 -0.9843
   75MOL0     H10308  11.689   0.306   4.697  0.2351  1.2543  0.1826
   75MOL0     H10309  11.386   0.155   4.688  1.6296 -0.2827 -2.5949
   75MOL0     H10310  11.470   0.276   4.594 -2.7285  1.6338 -1.8472
   75MOL0     H10311  11.344   0.339   4.691  1.0188  1.0731 -4.8782
   75MOL0     H10312  11.131   0.140   5.211  0.5361 -0.1921 -3.9662
   75MOL0     H10313  10.918   0.168   5.297 -0.2664  0.2768 -1.6062
   75MOL0     H10314  10.705   0.219   5.357  0.1603  0.2969 -0.7332
   75MOL0     H10315  10.806   0.317   5.473 -1.1087  1.2557  0.5699
   75MOL0     H10316  10.574   0.300   5.545  0.1205 -1.2354  0.5257
   75MOL0     H10317  10.629   0.469   5.510  0.8361  0.5326 -0.5464
   75MOL0     H10318  10.482   0.287   5.299 -0.4194  0.6336 -1.4736
   75MOL0     H10319  10.518   0.453   5.299 -0.4216  0.5459  0.5960
   75MOL0     H10320  10.295   0.461   5.356 -0.4531  0.0470  1.6947
   75MOL0     H10321  10.387   0.477   5.507  0.1990  0.7411 -0.1360
   75MOL0     H10322  10.352   0.211   5.520 -0.6362  0.8010  0.7743
   75MOL0     H10323  10.219   0.326   5.560 -0.9024 -1.0734  0.3576
   75MOL0     H10324  10.172   0.128   5.401  0.2505 -1.0655 -2.0081
   75MOL0     H10325  10.252   0.235   5.279  0.2257 -0.6298 -0.6270
   75MOL0     H10326  10.080   0.405   5.280 -2.0065 -0.6894 -1.4685
   75MOL0     H10327  10.015   0.335   5.436 -0.9257  1.7405 -0.6591
   75MOL0     H10328   9.870   0.300   5.256  0.8849  2.1016  0.5731
   75MOL0     H10329   9.943   0.145   5.296 -1.2822  1.5689  0.5939
   75MOL0     H10330  10.883   0.577   5.156 -1.4842 -0.2065 -0.3421
   75MOL0     H10331  11.121   0.563   5.091  1.9893  0.2058  2.1187
   75MOL0     H10332  11.512   0.327   5.155  1.3681  1.0911  0.2669
   75MOL0     H10333  11.730   0.368   5.125  0.3366  0.6809 -1.0439
   75MOL0     H10334  11.196   0.709   3.931 -0.0280 -1.1027 -0.9438
   75MOL0     H10335  10.939   0.777   3.935  1.4226 -1.6855 -0.2130
   75MOL0     H10336  10.685   1.322   3.780 -0.5670 -0.1333 -2.0936
   75MOL0     H10337  10.441   1.391   3.842 -2.1596 -0.8046  2.0565
   75MOL0     H10338  10.345   1.258   4.158 -2.5964 -1.5180  2.1672
   75MOL0     H10339  10.299   1.404   4.073 -1.7223 -0.0899 -4.2320
   75MOL0     H10340  10.129   1.309   4.225  1.5042 -0.2824  0.4028
   75MOL0     H10341  10.112   1.166   4.132  1.0507 -0.6216 -4.2618
   75MOL0     H10342  10.022   1.450   4.037  1.3005  0.5980  1.3336
   75MOL0     H10343  10.041   1.318   3.919 -3.7503  2.8250 -1.4619
   75MOL0     H10344   9.859   1.336   4.141 -0.3407  1.5385 -1.4686
   75MOL0     H10345   9.893   1.175   4.072 -0.2159  0.3915  0.0335
   75MOL0     H10346   9.673   1.355   3.757 -0.1573 -2.8992  0.0949
   75MOL0     H10347  10.386   1.029   4.044 -1.8808  2.0611  0.7508
   75MOL0     H10348  10.535   0.877   4.070 -1.0025 -1.6554 -3.0915
   75MOL0     H10349  10.660   0.838   3.945  0.3586  0.2057 -0.8232
   75MOL0     H10350  10.706   0.920   4.092  0.6188  0.9758 -1.5707
   76MOL0     O10351   2.705   8.242   3.306 -0.5312  0.0703  0.9202
   76MOL0     C10352   2.708   8.150   3.229 -0.7440  0.0689  1.4033
   76MOL0     O10353   2.813   8.060   3.222 -0.7805  0.0095  0.5046
   76MOL0     C10354   2.895   8.042   3.328 -0.4285 -0.9451  0.0505
   76MOL0     C10355   2.848   7.990   3.458 -0.0375 -0.0237 -0.4565
   76MOL0     C10356   2.948   7.977   3.562  0.1514  0.9934  0.6796
   76MOL0     C10357   3.084   7.992   3.541 -0.1232 -0.7325  0.4399
   76MOL0     O10358   3.162   7.976   3.657  0.3156  0.2364  0.0265
   76MOL0     C10359   3.305   8.005   3.648 -0.8396 -1.0028  0.0444
   76MOL0     C10360   3.366   7.985   3.786  0.4130 -0.3452 -0.1541
   76MOL0     C10361   3.369   7.837   3.824  1.0986  0.4796 -0.0262
   76MOL0     C10362   3.462   7.811   3.933  0.5781  0.2552 -0.6641
   76MOL0     C10363   3.444   7.676   3.997  0.8282  0.0373 -0.0819
   76MOL0     C10364   3.424   7.557   3.896 -0.4362 -0.4000  0.6335
   76MOL0     C10365   3.556   7.526   3.828 -0.2327  0.3358  0.2021
   76MOL0     C10366   3.557   7.388   3.749 -0.4220  0.2885 -1.0095
   76MOL0     N10367   3.674   7.386   3.654  0.0525 -0.2276  0.5746
   76MOL0     C10368   3.814   7.363   3.688 -0.3411 -1.0042  0.5711
   76MOL0     C10369   3.882   7.406   3.581  0.1062 -0.7417 -0.9051
   76MOL0     C10370   4.030   7.402   3.578  0.2233  0.2609 -0.7816
   76MOL0     C10371   4.079   7.255   3.568  0.2197  0.4823  0.4203
   76MOL0     C10372   4.188   7.246   3.666 -0.1234 -0.4596 -0.4288
   76MOL0     C10373   4.229   7.097   3.670 -0.2576  0.1765  0.2868
   76MOL0     O10374   4.320   7.064   3.779  0.0848 -0.1885  0.2165
   76MOL0     C10375   4.339   6.930   3.793  0.0460 -0.1287  0.3439
   76MOL0     C10376   4.318   6.824   3.699 -0.0281 -0.3526  0.2766
   76MOL0     C10377   4.349   6.696   3.723 -0.0854  0.1798 -0.1774
   76MOL0     C10378   4.302   6.596   3.616  0.7085  0.7513  0.0364
   76MOL0     C10379   4.402   6.657   3.843 -0.4293  0.8788 -0.2749
   76MOL0     C10380   4.444   6.524   3.870  0.3960  0.9303 -0.5594
   76MOL0     O10381   4.349   6.422   3.896 -0.4186 -0.0464  0.3086
   76MOL0     C10382   4.392   6.299   3.875 -0.4556  0.2654 -0.4025
   76MOL0     C10383   4.429   6.223   3.986  0.2112  0.3141  0.1190
   76MOL0     C10384   4.486   6.097   3.964 -0.0974  0.4676 -0.3297
   76MOL0     C10385   4.526   6.053   3.839  0.0390  0.9767  0.1079
   76MOL0     O10386   4.608   5.947   3.810 -0.8083 -0.4612  0.8148
   76MOL0     C10387   4.565   5.823   3.862  0.3203 -0.0169 -0.5674
   76MOL0     C10388   4.672   5.760   3.958  0.5966 -0.0029  0.0584
   76MOL0     C10389   4.784   5.668   3.899  0.2560 -1.0693  0.7513
   76MOL0     C10390   4.880   5.632   4.011 -0.2200  0.6393 -0.7570
   76MOL0     C10391   4.980   5.524   3.967  0.3807 -1.5547  0.6825
   76MOL0     C10392   5.082   5.500   4.079 -0.2475  1.2198  0.3359
   76MOL0     C10393   5.035   5.413   4.195  0.9240  0.4790 -0.5092
   76MOL0     C10394   5.158   5.327   4.249  0.8673 -0.0211  0.4504
   76MOL0    Cl10395   5.289   5.451   4.277 -0.5179 -0.3648 -0.6141
   76MOL0     C10396   4.499   6.140   3.732  0.0490 -0.0596  0.1997
   76MOL0     C10397   4.424   6.254   3.744  0.3281  0.0046 -0.2108
   76MOL0     O10398   4.562   6.507   3.879  0.1072 -1.3105 -0.2166
   76MOL0     C10399   4.419   6.758   3.935  1.5004  0.8482 -0.6351
   76MOL0     C10400   4.375   6.886   3.918  0.4443 -0.7848 -0.1503
   76MOL0     N10401   3.793   7.441   3.481 -1.2345  0.0107  0.4471
   76MOL0     N10402   3.676   7.423   3.522  0.7824  0.1020  0.0165
   76MOL0     C10403   3.131   8.032   3.412  1.3518  0.4191 -0.0113
   76MOL0     C10404   3.033   8.063   3.311  0.1052  0.2148 -0.6251
   76MOL0     C10405   2.597   8.104   3.131  0.1581 -0.0112 -0.8495
   76MOL0     C10406   2.625   8.018   3.020  0.3100  0.9213  0.3129
   76MOL0     C10407   2.535   7.992   2.916  0.1595  0.0944  0.2157
   76MOL0     C10408   2.409   8.061   2.916 -0.4054  1.0331 -0.7941
   76MOL0     O10409   2.319   8.028   2.819  0.0299  0.0668 -0.1894
   76MOL0     C10410   2.197   8.107   2.805  0.5773  0.5811  0.7684
   76MOL0     C10411   2.066   8.048   2.864  0.4892 -0.5821 -0.2224
   76MOL0     C10412   2.001   7.925   2.792  0.6473  0.0869  0.9000
   76MOL0     C10413   2.106   7.821   2.741  0.2335 -0.5156 -0.3419
   76MOL0     C10414   2.030   7.706   2.691  0.2517 -0.3785 -0.0846
   76MOL0     C10415   1.963   7.617   2.647 -0.7712 -0.2713  0.2530
   76MOL0     C10416   2.383   8.146   3.026  0.2953 -0.4298  0.8031
   76MOL0     C10417   2.474   8.167   3.134 -0.0911 -0.1489  0.7656
   76MOL0     C10418   2.416   8.247   3.251  0.1247  0.5114  0.3925
   76MOL0     H10419   2.740   7.980   3.466 -0.1624 -0.1652 -1.9091
   76MOL0     H10420   2.905   7.934   3.652  0.8810 -0.7158  0.2453
   76MOL0     H10421   3.322   8.110   3.619 -0.5931 -1.2246 -0.6216
   76MOL0     H10422   3.356   7.938   3.579  3.9770 -0.6803  2.8053
   76MOL0     H10423   3.471   8.014   3.790  0.6949 -1.3167 -0.3468
   76MOL0     H10424   3.312   8.049   3.857  0.1114  0.4284 -1.0628
   76MOL0     H10425   3.267   7.822   3.858 -0.0918  3.8773 -1.6637
   76MOL0     H10426   3.380   7.769   3.739 -2.8006 -3.0127  1.9551
   76MOL0     H10427   3.565   7.813   3.897  1.7442  1.9236  2.3783
   76MOL0     H10428   3.459   7.892   4.006  0.0107  0.3454 -0.7784
   76MOL0     H10429   3.356   7.680   4.061  0.6514  0.9041 -0.3600
   76MOL0     H10430   3.532   7.670   4.062  2.3053 -0.4014 -2.0240
   76MOL0     H10431   3.389   7.469   3.951  2.1271 -0.7258  1.8734
   76MOL0     H10432   3.353   7.571   3.814  0.8969 -1.8482 -0.8369
   76MOL0     H10433   3.633   7.522   3.907 -0.6182 -2.2657  0.5538
   76MOL0     H10434   3.587   7.605   3.760  2.0806 -2.4359 -2.2648
   76MOL0     H10435   3.566   7.302   3.816 -1.6103  0.2131 -0.9288
   76MOL0     H10436   3.467   7.379   3.687  0.1000 -0.4435 -1.6975
   76MOL0     H10437   3.847   7.332   3.787  1.8673  0.7414  0.4620
   76MOL0     H10438   4.063   7.447   3.673  1.2839 -2.7211  0.3735
   76MOL0     H10439   4.063   7.464   3.495  0.6556 -0.9138 -1.5013
   76MOL0     H10440   3.998   7.183   3.581  0.3731 -0.0896 -1.5141
   76MOL0     H10441   4.118   7.233   3.468  2.8632 -1.7898  1.8115
   76MOL0     H10442   4.277   7.304   3.639 -0.0815  1.4459  3.2045
   76MOL0     H10443   4.154   7.274   3.766 -0.8465  3.4007 -1.5633
   76MOL0     H10444   4.144   7.031   3.686  0.7615 -1.4000 -0.4804
   76MOL0     H10445   4.268   7.075   3.570 -0.6835  1.7249 -0.2471
   76MOL0     H10446   4.274   6.841   3.601 -1.4226 -0.9816  0.7652
   76MOL0     H10447   4.387   6.544   3.570  0.8078 -0.6669  1.7060
   76MOL0     H10448   4.251   6.642   3.531 -1.4313 -0.3240  0.6663
   76MOL0     H10449   4.235   6.522   3.661 -0.5602  1.8986  0.0726
   76MOL0     H10450   4.412   6.268   4.083 -0.8629 -1.2476  0.6853
   76MOL0     H10451   4.524   6.045   4.052  2.7871  0.0947 -1.6934
   76MOL0     H10452   4.472   5.845   3.915  0.7169  0.4655 -0.0646
   76MOL0     H10453   4.553   5.747   3.784  0.8793 -1.2369  0.4846
   76MOL0     H10454   4.733   5.829   4.017  1.1651 -2.5721  2.6991
   76MOL0     H10455   4.607   5.689   4.010 -1.0422  1.2646 -0.1505
   76MOL0     H10456   4.845   5.723   3.826  1.0924 -2.2260  0.5447
   76MOL0     H10457   4.737   5.582   3.851 -0.0482 -1.0867  1.0828
   76MOL0     H10458   4.828   5.597   4.101  1.5289  1.1637  0.5048
   76MOL0     H10459   4.932   5.723   4.045  0.0298  0.9901 -2.0370
   76MOL0     H10460   4.928   5.432   3.938  1.1989 -2.4413  1.8995
   76MOL0     H10461   5.037   5.559   3.881  0.5627  1.4910  1.9060
   76MOL0     H10462   5.123   5.594   4.118  1.8392  0.1654  0.8116
   76MOL0     H10463   5.170   5.446   4.042 -3.4714 -1.8390 -3.8633
   76MOL0     H10464   4.966   5.336   4.160  1.6088  0.0891 -1.0174
   76MOL0     H10465   4.983   5.467   4.275 -2.3868 -1.2090 -1.3102
   76MOL0     H10466   5.190   5.252   4.176 -0.5869 -0.2653  0.0209
   76MOL0     H10467   5.143   5.276   4.345  0.2773 -1.3561 -0.3211
   76MOL0     H10468   4.554   6.112   3.643  1.5589  1.1494  0.7001
   76MOL0     H10469   4.398   6.315   3.659 -2.7370 -0.8713 -0.0085
   76MOL0     H10470   4.464   6.723   4.027 -3.5297 -0.2906  1.7257
   76MOL0     H10471   4.382   6.962   3.996  0.0030 -1.0938  0.1914
   76MOL0     H10472   3.239   8.044   3.414  1.4219 -0.1607  0.0588
   76MOL0     H10473   3.080   8.102   3.222 -0.1011  0.9624 -0.4151
   76MOL0     H10474   2.722   7.968   3.023 -0.6099 -0.8895  1.7936
   76MOL0     H10475   2.558   7.920   2.837 -1.3017  1.4455 -1.5456
   76MOL0     H10476   2.201   8.209   2.843 -0.6103  0.4561  1.2722
   76MOL0     H10477   2.186   8.109   2.696  2.5167  1.7349  0.5450
   76MOL0     H10478   1.989   8.125   2.875 -0.6598 -1.8817  1.5071
   76MOL0     H10479   2.087   8.024   2.969 -0.6572  3.2264  1.0454
   76MOL0     H10480   1.924   7.882   2.856 -0.8439  3.3387  1.4740
   76MOL0     H10481   1.949   7.956   2.702 -0.2898 -2.7313  0.3578
   76MOL0     H10482   2.168   7.782   2.822  2.6104 -0.4407 -2.0372
   76MOL0     H10483   2.171   7.866   2.666  0.9856  0.6224  0.9419
   76MOL0     H10484   1.903   7.543   2.598  1.1773 -1.1521 -0.9518
   76MOL0     H10485   2.285   8.193   3.034 -1.0875 -2.8222 -0.5940
   76MOL0     H10486   2.496   8.299   3.303  2.4466 -2.0628 -0.3966
   76MOL0     H10487   2.344   8.316   3.206 -0.4487 -1.1755 -1.3973
   76MOL0     H10488   2.355   8.196   3.327 -0.6879  1.8050  0.6443
   77MOL0     O10489   7.903   0.537   0.501  0.8173  0.2532 -0.6132
   77MOL0     C10490   7.855   0.426   0.498  0.6221 -0.2491 -0.5574
   77MOL0     O10491   7.896   0.316   0.424  0.1654 -0.5992 -0.0059
   77MOL0     C10492   8.020   0.323   0.355  0.0312  0.0040 -0.3787
   77MOL0     C10493   8.081   0.440   0.309 -0.1987 -0.2629 -0.2521
   77MOL0     C10494   8.209   0.434   0.259 -0.1076  0.2995  0.0234
   77MOL0     C10495   8.278   0.307   0.239 -0.2102 -1.1555  0.1976
   77MOL0     O10496   8.393   0.307   0.166  0.1593 -1.2215  0.1116
   77MOL0     C10497   8.484   0.196   0.196 -0.0127  0.0334 -0.5646
   77MOL0     C10498   8.619   0.213   0.110  0.0779 -0.1052 -0.2662
   77MOL0     C10499   8.728   0.108   0.152  0.3625  0.1353  0.6077
   77MOL0     C10500   8.860   0.114   0.072  0.2382 -0.6048  0.3482
   77MOL0     C10501   8.940  -0.018   0.071  0.1345 -0.0088  0.2681
   77MOL0     C10502   9.064   0.001  -0.010 -0.7123 -0.0142 -0.4812
   77MOL0     C10503   9.165  -0.109   0.020 -0.0956  0.4259 -0.0419
   77MOL0     C10504   9.266  -0.106  -0.088 -0.5098  0.7268 -0.0973
   77MOL0     N10505   9.329  -0.236  -0.089  0.0641 -0.0616 -0.0387
   77MOL0     C10506   9.468  -0.253  -0.110 -0.2458  0.0966 -0.1305
   77MOL0     C10507   9.481  -0.385  -0.137  0.4636 -0.0113  0.0696
   77MOL0     C10508   9.601  -0.466  -0.168 -0.1497  0.0428  0.1206
   77MOL0     C10509   9.653  -0.536  -0.043  0.0210  0.0290  0.6100
   77MOL0     C10510   9.790  -0.601  -0.069 -0.9306 -0.1100  0.4975
   77MOL0     C10511   9.796  -0.729  -0.159  0.6045 -0.5147  0.0616
   77MOL0     O10512   9.766  -0.688  -0.293 -0.1261 -0.2166  0.5206
   77MOL0     C10513   9.866  -0.683  -0.385 -0.0383  0.2950  0.6952
   77MOL0     C10514   9.995  -0.649  -0.359 -0.1665 -0.3260 -0.3784
   77MOL0     C10515  10.084  -0.622  -0.468  0.1489  0.0159 -0.3885
   77MOL0     C10516  10.212  -0.548  -0.438 -0.0350  0.4636 -0.4080
   77MOL0     C10517  10.045  -0.648  -0.605  0.9172 -1.1961 -0.4561
   77MOL0     C10518  10.125  -0.610  -0.723 -0.5551 -0.5269  0.1528
   77MOL0     O10519  10.261  -0.621  -0.711 -0.0317 -0.2554 -0.0452
   77MOL0     C10520  10.344  -0.605  -0.824  0.1552 -0.0345  1.0650
   77MOL0     C10521  10.308  -0.582  -0.955  0.1814 -0.3925  0.1441
   77MOL0     C10522  10.407  -0.547  -1.047  0.0520 -0.2852 -0.0808
   77MOL0     C10523  10.548  -0.547  -1.021  0.5063 -0.3605 -0.1905
   77MOL0     O10524  10.661  -0.524  -1.096 -0.7346 -0.2563 -0.0226
   77MOL0     C10525  10.638  -0.547  -1.229 -0.4162  0.4421  0.1197
   77MOL0     C10526  10.758  -0.494  -1.303 -0.5729  0.5355  0.9423
   77MOL0     C10527  10.898  -0.558  -1.266 -0.5576  0.2502 -0.1144
   77MOL0     C10528  11.012  -0.558  -1.367  0.8870 -0.3838  0.9397
   77MOL0     C10529  11.111  -0.439  -1.356  0.1235  0.8072 -0.0019
   77MOL0     C10530  11.060  -0.304  -1.379  0.0425  0.3431 -0.0895
   77MOL0     C10531  11.155  -0.184  -1.360  1.0373  0.4851  0.6379
   77MOL0     C10532  11.261  -0.169  -1.467 -0.5855 -0.9260  0.0127
   77MOL0    Cl10533  11.210  -0.115  -1.628 -0.1238 -0.4011 -0.1876
   77MOL0     C10534  10.576  -0.588  -0.887  0.7901 -0.2665  0.1951
   77MOL0     C10535  10.479  -0.612  -0.796  0.1579 -0.8159 -0.0144
   77MOL0     O10536  10.068  -0.570  -0.821  0.0924 -0.6586  0.0045
   77MOL0     C10537   9.903  -0.677  -0.626  0.4662 -0.1708  0.3414
   77MOL0     C10538   9.817  -0.699  -0.515 -0.4977  0.0559  0.4821
   77MOL0     N10539   9.350  -0.438  -0.151 -0.4867  0.6891 -0.0666
   77MOL0     N10540   9.263  -0.353  -0.122  0.4376  0.2591 -0.3937
   77MOL0     C10541   8.206   0.183   0.275 -0.5789 -0.0509 -0.1276
   77MOL0     C10542   8.083   0.198   0.335  0.1113  0.2341 -0.7016
   77MOL0     C10543   7.734   0.407   0.577  0.4427 -0.3335 -0.5852
   77MOL0     C10544   7.640   0.512   0.584  0.7109  0.4443 -1.2005
   77MOL0     C10545   7.515   0.500   0.655 -0.1273  1.1898 -0.8272
   77MOL0     C10546   7.476   0.382   0.718 -0.0204  0.5962 -0.0260
   77MOL0     O10547   7.355   0.368   0.788 -0.9620 -0.6921  0.5718
   77MOL0     C10548   7.329   0.251   0.869 -0.0259  0.6037 -0.8709
   77MOL0     C10549   7.205   0.255   0.968  0.4930 -0.2155 -0.3109
   77MOL0     C10550   7.075   0.313   0.896  0.2642  0.5545  0.3628
   77MOL0     C10551   6.972   0.316   1.007  0.0271  0.3734  0.4557
   77MOL0     C10552   6.833   0.343   0.964 -0.6525 -0.1789 -0.0293
   77MOL0     C10553   6.718   0.376   0.942  0.2785  0.4632  0.3408
   77MOL0     C10554   7.580   0.279   0.712 -0.3369 -0.6095 -0.5040
   77MOL0     C10555   7.700   0.290   0.642  0.1297 -0.9043 -0.7129
   77MOL0     C10556   7.802   0.173   0.642  0.2091  0.5744 -0.6425
   77MOL0     H10557   8.018   0.529   0.302 -0.3377 -0.1989  1.4202
   77MOL0     H10558   8.255   0.516   0.204  2.2929 -0.6893  0.4387
   77MOL0     H10559   8.449   0.096   0.166  2.2826 -1.4664  1.3159
   77MOL0     H10560   8.502   0.180   0.303  0.8430 -0.7508 -0.8059
   77MOL0     H10561   8.594   0.208   0.004 -2.9681 -0.7703  0.4024
   77MOL0     H10562   8.655   0.314   0.131 -2.6364  0.9604 -0.3144
   77MOL0     H10563   8.756   0.120   0.257  1.3734 -3.7344  0.9464
   77MOL0     H10564   8.676   0.013   0.137 -2.1446  1.5082  0.1759
   77MOL0     H10565   8.837   0.144  -0.030  4.1642  3.9390  0.4598
   77MOL0     H10566   8.924   0.194   0.110  0.8725 -2.8094  4.4868
   77MOL0     H10567   8.879  -0.098   0.026  0.2027  2.3508 -4.6297
   77MOL0     H10568   8.960  -0.048   0.174 -2.1289 -3.7881 -0.1707
   77MOL0     H10569   9.042   0.018  -0.116 -1.2332  2.7500 -0.0293
   77MOL0     H10570   9.094   0.103   0.019 -3.6739  0.2669  2.2277
   77MOL0     H10571   9.113  -0.204   0.009  1.6730 -0.3978 -1.9130
   77MOL0     H10572   9.196  -0.099   0.124 -3.5272  0.0918  1.1452
   77MOL0     H10573   9.216  -0.075  -0.181 -2.4389  0.4760  0.8113
   77MOL0     H10574   9.346  -0.033  -0.071  1.4295 -1.1617 -0.7303
   77MOL0     H10575   9.549  -0.181  -0.112 -0.8654  0.8429  0.7087
   77MOL0     H10576   9.677  -0.402  -0.212 -1.3666  2.9463  1.9577
   77MOL0     H10577   9.561  -0.533  -0.245  1.2800 -0.8980  0.1556
   77MOL0     H10578   9.677  -0.463   0.035  3.0492 -0.5399  0.3619
   77MOL0     H10579   9.576  -0.609  -0.015 -0.6313  0.0490 -1.0706
   77MOL0     H10580   9.857  -0.529  -0.117 -1.2403  2.2521  3.3343
   77MOL0     H10581   9.828  -0.640   0.025 -0.8361 -3.4488 -0.7672
   77MOL0     H10582   9.900  -0.763  -0.163  1.5439  2.0505  0.8862
   77MOL0     H10583   9.727  -0.810  -0.133  0.8304 -0.6818  0.1412
   77MOL0     H10584  10.021  -0.613  -0.260 -0.2188  1.3070 -0.9176
   77MOL0     H10585  10.239  -0.465  -0.504  2.3884  1.5555  1.8040
   77MOL0     H10586  10.297  -0.614  -0.417 -0.4681 -0.4441 -1.3679
   77MOL0     H10587  10.186  -0.484  -0.354 -0.9982  0.1135 -0.4262
   77MOL0     H10588  10.205  -0.571  -0.987  0.9654 -0.0013 -2.5248
   77MOL0     H10589  10.383  -0.533  -1.152  0.5044 -0.9659 -0.2783
   77MOL0     H10590  10.625  -0.655  -1.242  1.9603  0.2054 -0.9268
   77MOL0     H10591  10.555  -0.489  -1.270  1.7512  3.0213 -0.8402
   77MOL0     H10592  10.746  -0.537  -1.403  0.5343 -2.8000  2.0904
   77MOL0     H10593  10.767  -0.386  -1.312 -2.7532  0.7609  0.9120
   77MOL0     H10594  10.879  -0.654  -1.216  0.7604  0.2728  0.4738
   77MOL0     H10595  10.939  -0.496  -1.186  0.1272  0.2379 -0.4498
   77MOL0     H10596  10.974  -0.564  -1.470 -0.4211 -0.9243  1.4314
   77MOL0     H10597  11.070  -0.650  -1.354 -0.8252 -2.2530 -2.9042
   77MOL0     H10598  11.144  -0.447  -1.252 -0.2593 -1.1099  0.0009
   77MOL0     H10599  11.193  -0.463  -1.423 -1.6971 -0.1895 -1.9754
   77MOL0     H10600  10.975  -0.286  -1.313 -0.5489  0.6830 -0.9319
   77MOL0     H10601  11.025  -0.293  -1.481 -1.0556 -1.9907 -0.0288
   77MOL0     H10602  11.217  -0.189  -1.270  0.8696 -1.1883  0.6897
   77MOL0     H10603  11.100  -0.090  -1.361 -0.1169 -0.1515  1.5257
   77MOL0     H10604  11.321  -0.260  -1.476  1.0907  0.1126  0.2890
   77MOL0     H10605  11.338  -0.101  -1.429 -0.7821 -0.1460 -0.9502
   77MOL0     H10606  10.679  -0.600  -0.855  0.2995 -1.6053  1.3557
   77MOL0     H10607  10.501  -0.629  -0.691  0.9431  2.3718  0.4629
   77MOL0     H10608   9.865  -0.685  -0.727 -2.6422 -0.5670  1.4559
   77MOL0     H10609   9.716  -0.732  -0.532 -0.6876 -0.6495  2.6342
   77MOL0     H10610   8.239   0.082   0.257 -0.6610  0.1924 -1.8315
   77MOL0     H10611   8.037   0.105   0.366  3.8379 -0.8345  2.5514
   77MOL0     H10612   7.670   0.605   0.535 -1.1220  1.0886 -1.1587
   77MOL0     H10613   7.447   0.585   0.643  0.5766  2.5160  3.0880
   77MOL0     H10614   7.312   0.159   0.811  1.5531  0.1143 -0.5965
   77MOL0     H10615   7.421   0.235   0.925 -0.4403 -0.4161 -0.4446
   77MOL0     H10616   7.237   0.319   1.051 -0.0306  1.2731 -1.2043
   77MOL0     H10617   7.177   0.156   1.004 -0.7018  0.3493  0.3662
   77MOL0     H10618   7.090   0.411   0.850 -0.3003 -0.2754 -1.7132
   77MOL0     H10619   7.044   0.246   0.816 -0.7002  0.3150  0.9255
   77MOL0     H10620   7.002   0.396   1.075  0.4057  0.0195  0.7087
   77MOL0     H10621   6.959   0.226   1.068 -0.1501 -2.4382 -3.3416
   77MOL0     H10622   6.619   0.375   0.902  0.0628 -3.4795  0.5690
   77MOL0     H10623   7.567   0.194   0.777 -0.5895  0.5164  0.9782
   77MOL0     H10624   7.767   0.103   0.718  2.4921  0.0349 -0.0055
   77MOL0     H10625   7.826   0.116   0.551  0.4677  0.1814 -0.3328
   77MOL0     H10626   7.904   0.194   0.673  0.5172 -0.8798 -0.5912
   78MOL0     O10627   5.640   8.213   3.256 -0.2227 -0.3776 -0.0702
   78MOL0     C10628   5.557   8.133   3.206 -1.4022 -0.3661 -0.3005
   78MOL0     O10629   5.434   8.131   3.236 -0.4936  0.5669  0.3344
   78MOL0     C10630   5.370   8.241   3.285 -0.7601  0.2209 -0.9318
   78MOL0     C10631   5.342   8.354   3.212  0.2917  1.0945  1.2046
   78MOL0     C10632   5.263   8.457   3.269 -0.0415 -0.0922 -0.1383
   78MOL0     C10633   5.211   8.446   3.400  1.2344 -0.8108 -0.5852
   78MOL0     O10634   5.126   8.546   3.448  0.0181 -0.2508 -0.6359
   78MOL0     C10635   5.202   8.661   3.490 -0.1354  0.5263 -0.6023
   78MOL0     C10636   5.128   8.743   3.585 -0.4577 -0.3227 -0.3103
   78MOL0     C10637   4.993   8.785   3.524  0.0886 -0.0662  0.4559
   78MOL0     C10638   5.004   8.918   3.447 -0.3538  0.1251  0.3184
   78MOL0     C10639   4.870   8.979   3.408 -0.4878  0.1998  0.1023
   78MOL0     C10640   4.889   9.115   3.364  0.4483 -0.6162 -0.1771
   78MOL0     C10641   4.743   9.170   3.350  0.4810  0.1216  0.1846
   78MOL0     C10642   4.737   9.300   3.266 -0.1481 -0.6465 -0.4626
   78MOL0     N10643   4.786   9.414   3.343 -0.6764 -0.6159  0.1375
   78MOL0     C10644   4.922   9.444   3.361 -0.9294 -0.2085 -0.1216
   78MOL0     C10645   4.926   9.568   3.435  0.2443  0.9196 -0.3800
   78MOL0     C10646   5.048   9.653   3.449  0.4112 -0.7292  1.0417
   78MOL0     C10647   5.125   9.608   3.579 -0.4871 -0.3936 -0.1282
   78MOL0     C10648   5.140   9.732   3.662 -1.5753  0.5335 -0.2822
   78MOL0     C10649   5.242   9.711   3.776 -0.6514  0.5357  0.6872
   78MOL0     O10650   5.363   9.654   3.720 -0.0157  0.0460 -0.3174
   78MOL0     C10651   5.430   9.551   3.783 -0.2910  0.2012  0.2507
   78MOL0     C10652   5.526   9.501   3.712 -0.4464  0.2752  0.6408
   78MOL0     C10653   5.604   9.395   3.754 -0.0148  0.2903  0.3752
   78MOL0     C10654   5.707   9.331   3.658  0.2590 -0.6985  0.1118
   78MOL0     C10655   5.588   9.347   3.893  0.2240  0.5367  0.3722
   78MOL0     C10656   5.676   9.243   3.951 -0.1387 -0.8196 -0.0547
   78MOL0     O10657   5.806   9.232   3.902 -0.0618 -0.6126 -0.1023
   78MOL0     C10658   5.876   9.119   3.936  0.3168  0.1431  0.7605
   78MOL0     C10659   5.850   8.994   3.884  0.6138 -0.3655 -0.0739
   78MOL0     C10660   5.907   8.885   3.935 -0.5931 -0.6366  0.2474
   78MOL0     C10661   6.015   8.893   4.023 -0.6631  0.2330  0.4396
   78MOL0     O10662   6.076   8.778   4.078  0.1431 -0.0733 -0.3592
   78MOL0     C10663   6.055   8.648   4.028  0.7453 -0.0436  0.3376
   78MOL0     C10664   6.153   8.558   4.103  1.0195 -0.0155 -0.0875
   78MOL0     C10665   6.089   8.454   4.184 -0.1645 -0.4419 -0.0163
   78MOL0     C10666   6.202   8.371   4.259 -0.0193  0.7033  0.6356
   78MOL0     C10667   6.134   8.245   4.338 -0.2840 -0.6620  0.5379
   78MOL0     C10668   6.243   8.153   4.397  0.4208 -0.2807  0.4717
   78MOL0     C10669   6.194   8.014   4.448  0.4317 -0.8396  0.0081
   78MOL0     C10670   6.098   8.031   4.568  0.4245  0.0954 -0.9020
   78MOL0    Cl10671   6.023   7.874   4.629  0.1646 -0.5065 -0.1196
   78MOL0     C10672   6.057   9.021   4.062 -0.7622 -0.7252 -0.0901
   78MOL0     C10673   5.984   9.134   4.021 -0.1591 -0.5464  0.0214
   78MOL0     O10674   5.634   9.182   4.048 -0.1257  0.4646  1.1445
   78MOL0     C10675   5.485   9.407   3.972  0.3876  0.2339  0.3465
   78MOL0     C10676   5.401   9.498   3.906  1.0801  0.5837 -0.3735
   78MOL0     N10677   4.790   9.601   3.448 -0.8918 -0.5639  0.2864
   78MOL0     N10678   4.712   9.516   3.391  0.1361  0.0493  0.0828
   78MOL0     C10679   5.234   8.329   3.466  0.1716  0.0154  0.0413
   78MOL0     C10680   5.312   8.231   3.414 -0.7418  0.7742  0.9086
   78MOL0     C10681   5.614   8.047   3.100 -0.0406  0.1224  0.3502
   78MOL0     C10682   5.761   8.038   3.084 -0.0788  0.2960  0.0315
   78MOL0     C10683   5.817   7.971   2.979  0.6771  0.2588  0.5059
   78MOL0     C10684   5.729   7.900   2.893 -1.0391  0.1778  0.7708
   78MOL0     O10685   5.783   7.822   2.791  0.2045  0.4510 -0.4288
   78MOL0     C10686   5.712   7.779   2.677 -0.1388 -0.1997  0.5589
   78MOL0     C10687   5.677   7.904   2.587 -0.2177 -0.0044 -0.6435
   78MOL0     C10688   5.594   7.848   2.475 -0.0769 -0.0583  0.1113
   78MOL0     C10689   5.591   7.961   2.360 -0.7200 -0.2731  0.6811
   78MOL0     C10690   5.485   7.936   2.253  0.4685  1.3348  0.8378
   78MOL0     C10691   5.407   7.952   2.164  0.0648 -0.1226 -0.8243
   78MOL0     C10692   5.585   7.894   2.910  0.1716  0.1341  0.0298
   78MOL0     C10693   5.533   7.974   3.012 -0.1228  0.7265 -0.1904
   78MOL0     C10694   5.381   7.982   3.011  0.0061 -0.1766  0.0432
   78MOL0     H10695   5.377   8.364   3.110 -2.3542 -3.0133 -0.3594
   78MOL0     H10696   5.231   8.551   3.225 -2.9842 -1.1810 -0.5713
   78MOL0     H10697   5.230   8.725   3.406  5.1023 -0.4421  0.0851
   78MOL0     H10698   5.298   8.637   3.535 -0.3371 -0.1803 -0.5378
   78MOL0     H10699   5.122   8.677   3.672  2.0041 -0.4846 -0.1895
   78MOL0     H10700   5.186   8.834   3.600  0.6510 -0.9575 -0.6808
   78MOL0     H10701   4.947   8.708   3.462 -1.3240 -0.1953  1.6018
   78MOL0     H10702   4.918   8.797   3.604 -1.0153  0.8885 -0.6645
   78MOL0     H10703   5.058   8.989   3.511 -0.5792  0.8156 -0.2380
   78MOL0     H10704   5.059   8.901   3.354  0.6188  2.6093  0.3547
   78MOL0     H10705   4.797   8.977   3.489 -1.4633  1.1926 -0.7200
   78MOL0     H10706   4.839   8.916   3.324 -1.1969  0.6089  0.0540
   78MOL0     H10707   4.944   9.171   3.440 -0.8754 -0.6354  0.8293
   78MOL0     H10708   4.941   9.109   3.267  2.9234  2.1549  0.8001
   78MOL0     H10709   4.698   9.194   3.447  0.1817  0.9161 -0.1397
   78MOL0     H10710   4.681   9.099   3.295 -2.3262  2.1417  0.5110
   78MOL0     H10711   4.795   9.285   3.175 -1.2824  2.1904 -1.7747
   78MOL0     H10712   4.634   9.324   3.236 -0.4692 -1.9006 -0.4197
   78MOL0     H10713   5.008   9.387   3.325  0.4137  0.3161  2.0623
   78MOL0     H10714   5.020   9.759   3.458  0.2938 -0.6819  0.2022
   78MOL0     H10715   5.110   9.633   3.362  3.2904 -1.7508  3.1765
   78MOL0     H10716   5.079   9.528   3.637  0.0354  0.2209  1.1697
   78MOL0     H10717   5.224   9.583   3.540 -1.5153  0.9181 -4.0995
   78MOL0     H10718   5.177   9.817   3.604 -0.6043  0.6245  0.4505
   78MOL0     H10719   5.040   9.757   3.698 -2.6239 -0.6163 -2.2194
   78MOL0     H10720   5.266   9.801   3.833  1.3918  0.4114  0.1091
   78MOL0     H10721   5.192   9.638   3.840  1.4838 -1.9900 -0.3618
   78MOL0     H10722   5.546   9.535   3.611  3.5320 -1.5970  0.5657
   78MOL0     H10723   5.810   9.346   3.694 -0.1579  0.9394  0.6864
   78MOL0     H10724   5.694   9.384   3.563 -1.0952  0.8912  1.1395
   78MOL0     H10725   5.680   9.228   3.632  1.8208 -0.9847 -0.5185
   78MOL0     H10726   5.777   8.982   3.805  3.7845 -2.2705 -2.9562
   78MOL0     H10727   5.867   8.789   3.905 -2.8229 -0.4495  2.3430
   78MOL0     H10728   5.950   8.622   4.050  0.3607  0.2947 -0.9916
   78MOL0     H10729   6.073   8.643   3.920 -4.0801  0.8805 -0.7640
   78MOL0     H10730   6.229   8.516   4.035  1.5845  0.9703 -0.0929
   78MOL0     H10731   6.198   8.628   4.174 -2.3625  1.2680  0.9577
   78MOL0     H10732   6.037   8.376   4.128  1.3221 -1.6157  0.1903
   78MOL0     H10733   6.026   8.514   4.250  2.3443  0.4888  1.6566
   78MOL0     H10734   6.263   8.433   4.325 -0.8278  2.4108 -0.1669
   78MOL0     H10735   6.276   8.327   4.191 -0.8211  1.8442 -1.0618
   78MOL0     H10736   6.060   8.288   4.407  1.5202 -0.0553  2.2105
   78MOL0     H10737   6.088   8.184   4.260  0.9555  0.2345 -0.9562
   78MOL0     H10738   6.302   8.188   4.482 -0.4717  0.3406  0.8479
   78MOL0     H10739   6.311   8.129   4.315  0.6836 -2.9012  1.3710
   78MOL0     H10740   6.274   7.944   4.474  0.1168 -1.6224 -1.0482
   78MOL0     H10741   6.135   7.962   4.371 -0.5184 -2.0695  1.5083
   78MOL0     H10742   6.011   8.091   4.538 -0.4226 -0.6243  0.0287
   78MOL0     H10743   6.147   8.079   4.653  0.2246  1.7850 -1.6916
   78MOL0     H10744   6.135   9.022   4.137 -1.7205  0.4269  0.9250
   78MOL0     H10745   6.013   9.232   4.059 -0.8010  0.4688 -1.9429
   78MOL0     H10746   5.443   9.362   4.062  1.5744 -2.0417 -0.1695
   78MOL0     H10747   5.304   9.517   3.951 -0.2775  2.7118 -3.7438
   78MOL0     H10748   5.181   8.324   3.560 -2.8786  0.3102 -1.5360
   78MOL0     H10749   5.312   8.140   3.473  0.3362  0.5312  0.5454
   78MOL0     H10750   5.830   8.090   3.151  0.1734 -0.9728  0.7812
   78MOL0     H10751   5.924   7.962   2.961  0.3998 -2.7466 -0.0787
   78MOL0     H10752   5.791   7.720   2.630  0.6871  0.7489  0.7497
   78MOL0     H10753   5.625   7.712   2.688 -0.1342 -0.2319  0.4020
   78MOL0     H10754   5.776   7.947   2.569 -1.1226  2.2366 -0.5656
   78MOL0     H10755   5.625   7.980   2.646  0.7326  0.1708 -0.0174
   78MOL0     H10756   5.634   7.755   2.433 -1.1504 -0.5731  0.1773
   78MOL0     H10757   5.491   7.829   2.509 -0.6637  1.4543 -0.7318
   78MOL0     H10758   5.693   7.968   2.323 -0.7609 -1.2945  0.3500
   78MOL0     H10759   5.558   8.057   2.402 -3.1752  0.3440 -2.2766
   78MOL0     H10760   5.329   7.968   2.092  2.5521 -0.1380 -3.7413
   78MOL0     H10761   5.529   7.828   2.844 -0.8216 -2.0230  2.8179
   78MOL0     H10762   5.335   7.943   3.102  0.7559  1.3174  1.1167
   78MOL0     H10763   5.345   8.085   3.001  0.4215  0.0554  0.8137
   78MOL0     H10764   5.343   7.925   2.926 -2.6515 -1.3506  1.8876
   79MOL0     O10765   2.698   6.088   1.537  0.2607  0.0324  0.9021
   79MOL0     C10766   2.628   6.053   1.438 -0.0568 -0.6639 -0.1999
   79MOL0     O10767   2.683   6.040   1.316  0.3107  0.2738 -0.7230
   79MOL0     C10768   2.818   6.074   1.300  0.5103 -0.2817 -0.1831
   79MOL0     C10769   2.924   5.988   1.339  0.2587  0.5674  0.7695
   79MOL0     C10770   3.056   6.036   1.315 -0.5317  0.2801 -0.9836
   79MOL0     C10771   3.078   6.158   1.258  0.4626  0.3115 -0.1761
   79MOL0     O10772   3.205   6.192   1.222  0.5902  0.1870  0.1549
   79MOL0     C10773   3.299   6.224   1.330 -0.5886  0.3634 -1.6073
   79MOL0     C10774   3.303   6.371   1.370 -1.6434 -1.3327  1.2126
   79MOL0     C10775   3.433   6.404   1.445  0.1730 -0.3804 -0.1871
   79MOL0     C10776   3.459   6.556   1.481 -0.2739  0.4503 -0.1728
   79MOL0     C10777   3.570   6.573   1.582 -0.7252  1.0139 -0.2931
   79MOL0     C10778   3.589   6.720   1.626 -0.0619 -0.4792 -0.5319
   79MOL0     C10779   3.721   6.733   1.704 -0.4388  0.1980 -0.1755
   79MOL0     C10780   3.746   6.875   1.755 -0.0733 -0.3342 -0.3841
   79MOL0     N10781   3.853   6.900   1.853 -0.1852 -0.6048 -0.8777
   79MOL0     C10782   3.833   6.864   1.989  0.3288  0.2462 -0.4278
   79MOL0     C10783   3.953   6.898   2.046 -0.0495 -0.2069 -0.1053
   79MOL0     C10784   3.990   6.865   2.191  0.4000 -0.6677 -0.3823
   79MOL0     C10785   4.091   6.963   2.253 -0.4302 -0.5357 -0.2902
   79MOL0     C10786   4.152   6.897   2.383  0.1634  0.1986  0.0745
   79MOL0     C10787   4.268   6.987   2.448 -0.0953 -0.7275  1.8243
   79MOL0     O10788   4.323   6.920   2.559 -0.6156 -0.1834 -0.0273
   79MOL0     C10789   4.405   6.993   2.643 -1.1087  0.4561  0.5112
   79MOL0     C10790   4.450   7.130   2.627 -0.8914 -0.1030  0.0665
   79MOL0     C10791   4.537   7.187   2.725 -0.4251  0.1151 -0.3454
   79MOL0     C10792   4.595   7.324   2.682  0.4013 -0.5834  0.8611
   79MOL0     C10793   4.589   7.116   2.839  0.0625 -0.1832  0.1321
   79MOL0     C10794   4.666   7.183   2.951  0.4681  0.2111  0.3169
   79MOL0     O10795   4.695   7.318   2.936  0.7221 -0.0410 -0.6699
   79MOL0     C10796   4.789   7.387   3.008  0.1134  0.6692 -0.8308
   79MOL0     C10797   4.768   7.527   3.021  0.0420  1.0565  0.3614
   79MOL0     C10798   4.857   7.604   3.094 -0.7189  0.2099  0.4498
   79MOL0     C10799   4.964   7.558   3.170  0.6682 -0.1942 -0.0587
   79MOL0     O10800   5.049   7.631   3.245  0.0701  0.0182 -0.2886
   79MOL0     C10801   5.065   7.771   3.216 -0.4731  0.0268 -0.4965
   79MOL0     C10802   5.185   7.814   3.313 -0.1872 -0.8120 -0.7143
   79MOL0     C10803   5.316   7.733   3.299  0.1632  0.0670  0.1692
   79MOL0     C10804   5.435   7.803   3.362  0.3065 -0.4639 -0.4623
   79MOL0     C10805   5.563   7.733   3.319 -0.6277  0.0962  0.5910
   79MOL0     C10806   5.676   7.819   3.376  0.1051 -0.1649 -0.3516
   79MOL0     C10807   5.803   7.760   3.321  0.0702 -0.6288 -0.2123
   79MOL0     C10808   5.918   7.845   3.373  0.9388  0.0092 -0.4464
   79MOL0    Cl10809   5.971   7.798   3.534  0.3291  0.3141  0.1986
   79MOL0     C10810   4.977   7.414   3.169 -0.2151  0.0322 -1.2203
   79MOL0     C10811   4.895   7.336   3.091 -0.4862  0.6681  0.1466
   79MOL0     O10812   4.706   7.124   3.048 -0.1346  0.0116 -0.1248
   79MOL0     C10813   4.544   6.977   2.848 -0.0057  0.3297  0.0974
   79MOL0     C10814   4.451   6.924   2.755 -0.3995 -0.1790  0.5011
   79MOL0     N10815   4.037   6.954   1.952  0.3357 -0.7204 -0.3925
   79MOL0     N10816   3.975   6.950   1.838 -0.6059 -0.9510 -0.1505
   79MOL0     C10817   2.972   6.235   1.215  0.5566  0.0368  0.6566
   79MOL0     C10818   2.840   6.199   1.245 -0.1676  0.2695  0.5444
   79MOL0     C10819   2.476   6.045   1.444 -0.1638 -0.1139 -0.2773
   79MOL0     C10820   2.397   6.038   1.326  1.4803  0.6877 -0.2965
   79MOL0     C10821   2.256   6.061   1.339 -0.2073 -0.5545 -0.0153
   79MOL0     C10822   2.185   6.074   1.450  0.6455  0.3856  0.3405
   79MOL0     O10823   2.047   6.079   1.458 -1.1967  0.1081  0.0539
   79MOL0     C10824   1.983   6.184   1.531  0.5977  0.2429  0.1408
   79MOL0     C10825   1.880   6.244   1.434  0.4140  0.6736 -0.1590
   79MOL0     C10826   1.819   6.373   1.482  0.1869  0.5011 -0.5888
   79MOL0     C10827   1.723   6.416   1.380  0.2809 -0.3043  0.1540
   79MOL0     C10828   1.652   6.530   1.426  0.1991 -0.3920  0.6160
   79MOL0     C10829   1.588   6.632   1.459 -0.4918  0.2365 -0.7740
   79MOL0     C10830   2.254   6.060   1.569 -0.0824 -1.1641  0.5448
   79MOL0     C10831   2.400   6.053   1.565 -0.2978 -1.3515 -0.0646
   79MOL0     C10832   2.457   6.063   1.706  0.3529 -0.1540  0.7353
   79MOL0     H10833   2.905   5.896   1.394 -1.3918  0.8748  0.7746
   79MOL0     H10834   3.138   5.970   1.341  0.0816  0.7928 -1.5810
   79MOL0     H10835   3.402   6.207   1.299 -0.5675  1.1167 -1.9800
   79MOL0     H10836   3.295   6.163   1.420  0.0483  0.5388 -1.4579
   79MOL0     H10837   3.291   6.435   1.282 -0.7885  0.1427  2.1290
   79MOL0     H10838   3.222   6.401   1.437 -3.1266  2.3183 -1.8355
   79MOL0     H10839   3.433   6.347   1.538 -0.4775 -1.6222 -0.9267
   79MOL0     H10840   3.514   6.376   1.377 -0.4581  0.2681 -1.2264
   79MOL0     H10841   3.509   6.594   1.391  3.9670  0.0779  1.7910
   79MOL0     H10842   3.364   6.603   1.509 -1.6454 -1.7349 -0.8771
   79MOL0     H10843   3.662   6.528   1.544 -0.0042  1.2376  1.1157
   79MOL0     H10844   3.538   6.510   1.666 -2.8918  1.6697 -0.5508
   79MOL0     H10845   3.589   6.792   1.544 -1.9184  2.9196  2.1730
   79MOL0     H10846   3.513   6.751   1.699 -0.1952  3.8791 -2.2170
   79MOL0     H10847   3.806   6.689   1.650 -3.0014 -2.6144 -2.2622
   79MOL0     H10848   3.715   6.673   1.795 -1.3029  0.3481 -0.1220
   79MOL0     H10849   3.768   6.942   1.672  1.0903  0.4896  0.5615
   79MOL0     H10850   3.650   6.897   1.803 -0.7409 -3.9432  0.2032
   79MOL0     H10851   3.742   6.815   2.024  0.0418 -0.2973 -1.8618
   79MOL0     H10852   4.041   6.770   2.211  3.7243  1.1947  0.8610
   79MOL0     H10853   3.897   6.868   2.249  1.1651  0.3241  0.8363
   79MOL0     H10854   4.176   6.994   2.191  1.4356  0.9658  2.7640
   79MOL0     H10855   4.040   7.055   2.282  0.7207  0.0896 -0.1972
   79MOL0     H10856   4.063   6.876   2.443  0.1240  0.9568  0.2895
   79MOL0     H10857   4.209   6.804   2.372  0.3861  0.4314 -0.8479
   79MOL0     H10858   4.353   7.008   2.383 -3.1302  4.0022 -1.2367
   79MOL0     H10859   4.220   7.082   2.473 -2.4207 -1.6999  1.4048
   79MOL0     H10860   4.420   7.187   2.539 -2.3219  0.8766  1.1338
   79MOL0     H10861   4.704   7.321   2.675  0.3252  0.5069 -1.8751
   79MOL0     H10862   4.565   7.408   2.747  0.0538  0.3635 -0.4797
   79MOL0     H10863   4.551   7.348   2.585  0.4181 -0.7779  0.8066
   79MOL0     H10864   4.689   7.570   2.961 -1.5293 -4.4912 -2.2186
   79MOL0     H10865   4.838   7.710   3.108  0.2961  0.2345  1.9279
   79MOL0     H10866   5.113   7.792   3.120 -0.1847 -1.0533 -0.6092
   79MOL0     H10867   4.973   7.829   3.218 -0.8107 -0.4148 -1.9436
   79MOL0     H10868   5.196   7.918   3.283 -3.4157 -0.0878  0.2429
   79MOL0     H10869   5.156   7.809   3.418 -0.6268 -1.3331 -0.8554
   79MOL0     H10870   5.340   7.705   3.196 -1.1102 -0.5033  0.0061
   79MOL0     H10871   5.298   7.635   3.345 -0.1315 -0.7057 -1.5120
   79MOL0     H10872   5.429   7.810   3.470 -3.4315 -0.7541 -0.5531
   79MOL0     H10873   5.438   7.906   3.325 -0.8251 -0.6278 -1.0348
   79MOL0     H10874   5.552   7.631   3.356 -2.4471  0.4369  1.1166
   79MOL0     H10875   5.560   7.731   3.209 -0.2273  4.4774  0.3471
   79MOL0     H10876   5.681   7.822   3.485 -0.0235 -0.8243 -0.3247
   79MOL0     H10877   5.657   7.921   3.341  4.9141  0.9672 -0.3117
   79MOL0     H10878   5.791   7.764   3.213  1.0107 -1.0491 -0.3387
   79MOL0     H10879   5.821   7.656   3.350  1.8895 -0.0535  0.8981
   79MOL0     H10880   5.914   7.954   3.362  1.1940  0.1328  0.5386
   79MOL0     H10881   5.999   7.823   3.303  2.3033  1.4474  0.5973
   79MOL0     H10882   5.052   7.383   3.241 -1.8296 -0.9637  0.1079
   79MOL0     H10883   4.899   7.227   3.096 -0.4374  0.6216 -0.6978
   79MOL0     H10884   4.576   6.912   2.929  0.4832  1.7487  1.0873
   79MOL0     H10885   4.413   6.824   2.769 -1.5390  0.2204  0.4159
   79MOL0     H10886   2.985   6.323   1.153  1.7645  0.2537  1.1843
   79MOL0     H10887   2.757   6.261   1.213 -0.0131 -0.0566 -0.5108
   79MOL0     H10888   2.443   6.041   1.228 -0.9570  0.6931 -1.5373
   79MOL0     H10889   2.196   6.059   1.248 -0.2806  1.1652 -0.0332
   79MOL0     H10890   1.932   6.149   1.621  0.2718 -1.2052 -0.5792
   79MOL0     H10891   2.048   6.268   1.557  0.2841 -0.3987  3.5027
   79MOL0     H10892   1.809   6.164   1.414  2.3542 -1.2196  0.2530
   79MOL0     H10893   1.923   6.258   1.334 -0.0108 -4.1471 -1.2226
   79MOL0     H10894   1.783   6.355   1.583  0.6285  3.0220  0.0681
   79MOL0     H10895   1.893   6.453   1.493 -0.0788  0.8544 -1.2695
   79MOL0     H10896   1.656   6.331   1.362 -0.2645 -0.2642  1.8052
   79MOL0     H10897   1.767   6.441   1.284 -2.2870 -1.2366 -1.3673
   79MOL0     H10898   1.510   6.702   1.479 -1.5200  0.1610 -4.0067
   79MOL0     H10899   2.194   6.054   1.659  0.4162 -0.3392  0.9468
   79MOL0     H10900   2.499   6.164   1.710  0.3284  0.0175 -1.6986
   79MOL0     H10901   2.385   6.049   1.788 -0.8488 -1.9503 -0.5342
   79MOL0     H10902   2.535   5.987   1.717  1.7050  0.0028 -4.7822
   80MOL0     O10903   6.356   3.886   8.611 -0.4089  1.1392  0.2449
   80MOL0     C10904   6.425   3.925   8.516  0.0998  0.7412  0.1231
   80MOL0     O10905   6.492   3.840   8.435 -0.2648  0.0025  0.0200
   80MOL0     C10906   6.485   3.707   8.451 -0.2860 -0.7434 -0.2007
   80MOL0     C10907   6.551   3.654   8.562  0.4504  0.1380 -0.2640
   80MOL0     C10908   6.550   3.521   8.587 -0.8538 -0.1700 -0.2741
   80MOL0     C10909   6.488   3.434   8.498  1.1406  0.7726 -0.5790
   80MOL0     O10910   6.488   3.290   8.505 -0.4535  0.2647 -0.2510
   80MOL0     C10911   6.544   3.218   8.616 -0.4917  0.3125 -0.3712
   80MOL0     C10912   6.515   3.063   8.610  0.1974 -0.1103 -0.5447
   80MOL0     C10913   6.549   3.019   8.472 -0.2383 -0.4227 -0.0812
   80MOL0     C10914   6.506   2.868   8.458  0.4925 -1.2879 -0.0824
   80MOL0     C10915   6.549   2.801   8.326 -0.2070 -0.0776  0.2793
   80MOL0     C10916   6.695   2.758   8.325 -0.7672 -0.0824  0.1668
   80MOL0     C10917   6.730   2.683   8.198 -0.0403 -0.0305 -0.4824
   80MOL0     C10918   6.880   2.633   8.209  0.4730  0.2342 -0.0236
   80MOL0     N10919   6.966   2.744   8.154  0.1867  0.8843 -0.3936
   80MOL0     C10920   6.993   2.763   8.019 -0.4021 -1.3564 -0.2234
   80MOL0     C10921   7.080   2.862   8.014 -0.5547  0.3847  0.6487
   80MOL0     C10922   7.167   2.920   7.908 -0.5571 -0.1770 -0.2884
   80MOL0     C10923   7.311   2.866   7.924  0.3940  0.2252 -0.4489
   80MOL0     C10924   7.398   2.885   7.800 -0.2397  0.5777 -0.0537
   80MOL0     C10925   7.533   2.816   7.813 -0.3012  1.0585  0.0610
   80MOL0     O10926   7.635   2.888   7.884 -0.1122 -0.3191  0.1710
   80MOL0     C10927   7.765   2.838   7.878 -0.5988  0.3130 -0.0547
   80MOL0     C10928   7.857   2.911   7.957 -0.4900  0.6590  0.2803
   80MOL0     C10929   7.997   2.867   7.955 -0.7490  0.3553  0.5312
   80MOL0     C10930   8.093   2.946   8.038  0.1519 -0.9264 -0.1610
   80MOL0     C10931   8.030   2.739   7.894  0.9902  0.8657 -0.0088
   80MOL0     C10932   8.165   2.685   7.887 -0.2454  0.0508 -0.1669
   80MOL0     O10933   8.179   2.560   7.831 -1.4772  0.0662  0.5872
   80MOL0     C10934   8.308   2.512   7.825  0.2005 -0.6836  0.5981
   80MOL0     C10935   8.401   2.583   7.748 -0.1574  0.2008  0.7461
   80MOL0     C10936   8.533   2.551   7.736 -0.4576 -0.5361 -1.0826
   80MOL0     C10937   8.576   2.429   7.799  0.3144 -0.5639  0.0979
   80MOL0     O10938   8.700   2.367   7.789  0.5649 -0.7026 -1.2714
   80MOL0     C10939   8.820   2.440   7.764 -0.7568  0.0060  0.7313
   80MOL0     C10940   8.886   2.493   7.888  0.2033  0.1019  0.3217
   80MOL0     C10941   8.808   2.598   7.980 -0.8084  0.8868  0.6581
   80MOL0     C10942   8.719   2.538   8.089  0.3842 -0.4238 -0.7533
   80MOL0     C10943   8.664   2.652   8.178  0.1690 -0.5706  0.2406
   80MOL0     C10944   8.535   2.606   8.248  0.4237  0.2775 -0.3353
   80MOL0     C10945   8.566   2.492   8.348 -0.2544 -0.7749  0.2374
   80MOL0     C10946   8.474   2.485   8.466 -0.8219 -0.0574  0.0196
   80MOL0    Cl10947   8.418   2.637   8.534 -0.6910  0.0168 -0.1735
   80MOL0     C10948   8.477   2.354   7.865 -0.4233  0.7364 -0.7335
   80MOL0     C10949   8.339   2.396   7.871 -0.8228  0.4584 -0.7561
   80MOL0     O10950   8.255   2.752   7.936  0.3810  0.0303 -0.0409
   80MOL0     C10951   7.929   2.674   7.821  0.0766  0.1150 -0.3149
   80MOL0     C10952   7.794   2.721   7.816  0.1212  0.5465 -0.2353
   80MOL0     N10953   7.100   2.903   8.142 -0.4898  0.4023  0.2839
   80MOL0     N10954   7.035   2.835   8.229 -0.3961  0.1055  1.2128
   80MOL0     C10955   6.433   3.485   8.388  0.1931 -0.3551  1.0190
   80MOL0     C10956   6.428   3.625   8.357 -0.3591 -0.8770 -0.1691
   80MOL0     C10957   6.407   4.067   8.481  0.8629 -0.1254  0.2725
   80MOL0     C10958   6.408   4.108   8.344  0.4857  0.6058 -0.2491
   80MOL0     C10959   6.375   4.240   8.294  0.0622  0.7213 -0.0376
   80MOL0     C10960   6.360   4.336   8.391 -0.2346  0.1011  0.3642
   80MOL0     O10961   6.322   4.456   8.347 -0.3433  1.0092  0.1097
   80MOL0     C10962   6.255   4.546   8.438  0.1272  0.2947 -0.0510
   80MOL0     C10963   6.225   4.673   8.358  0.6331  0.2124  0.0659
   80MOL0     C10964   6.103   4.669   8.280 -0.7330  0.6743 -0.1093
   80MOL0     C10965   6.062   4.805   8.226 -0.3843 -0.5574  0.3429
   80MOL0     C10966   6.000   4.884   8.335  0.1944 -0.6312  0.1753
   80MOL0     C10967   5.932   4.957   8.408 -0.2217  0.6793 -0.3784
   80MOL0     C10968   6.396   4.305   8.523 -0.7903 -0.3000 -0.2948
   80MOL0     C10969   6.420   4.179   8.571  0.2159  1.0938 -0.6607
   80MOL0     C10970   6.476   4.161   8.718 -0.0865  0.5909  0.2850
   80MOL0     H10971   6.598   3.724   8.630  1.1416  1.5327 -2.0939
   80MOL0     H10972   6.599   3.487   8.677  1.3116 -0.1711 -1.3766
   80MOL0     H10973   6.484   3.255   8.699  1.4098 -0.7629  1.5723
   80MOL0     H10974   6.652   3.230   8.629 -0.6788  1.5802  0.0937
   80MOL0     H10975   6.577   3.021   8.691 -0.5332 -1.5453 -0.6981
   80MOL0     H10976   6.410   3.051   8.637 -0.4641  3.2086 -1.2726
   80MOL0     H10977   6.503   3.077   8.391 -3.8398 -1.2162  1.2067
   80MOL0     H10978   6.657   3.027   8.459 -0.0538 -0.7253  1.1693
   80MOL0     H10979   6.552   2.827   8.548  1.7117  0.0076 -0.0747
   80MOL0     H10980   6.398   2.857   8.469  0.5444 -0.8178  0.9726
   80MOL0     H10981   6.524   2.875   8.249  1.0269  0.3383  0.2564
   80MOL0     H10982   6.484   2.714   8.314  2.7695 -2.1372 -2.3570
   80MOL0     H10983   6.758   2.847   8.337 -0.4564 -0.3259  0.3760
   80MOL0     H10984   6.714   2.686   8.405  0.6547  1.0303  0.8686
   80MOL0     H10985   6.723   2.752   8.113 -0.0746  0.7242  0.1219
   80MOL0     H10986   6.662   2.598   8.190 -0.4496  0.2342  0.1364
   80MOL0     H10987   6.914   2.617   8.312 -2.2722  1.4570  1.1677
   80MOL0     H10988   6.884   2.545   8.144  3.1205  1.2547 -1.3701
   80MOL0     H10989   6.954   2.704   7.936 -3.1465  0.9648 -0.7345
   80MOL0     H10990   7.182   3.029   7.905  1.3991 -0.3437  1.4255
   80MOL0     H10991   7.127   2.884   7.813 -1.3928  0.2066 -0.0934
   80MOL0     H10992   7.374   2.894   8.009  0.4806  1.6222 -0.9495
   80MOL0     H10993   7.296   2.758   7.930 -1.5959  0.5084  0.3968
   80MOL0     H10994   7.346   2.832   7.720  1.1859 -1.1557  0.0974
   80MOL0     H10995   7.412   2.992   7.782 -1.7177  1.0406  1.3647
   80MOL0     H10996   7.505   2.722   7.862 -1.6557  2.2306  1.6556
   80MOL0     H10997   7.566   2.786   7.713 -1.1553 -0.4248  0.1871
   80MOL0     H10998   7.823   2.999   8.012  2.6884  0.8271  2.2945
   80MOL0     H10999   8.123   2.892   8.128  0.7104  2.1337  1.6096
   80MOL0     H11000   8.039   3.040   8.054  0.4291 -0.7686 -0.1572
   80MOL0     H11001   8.178   2.973   7.975 -1.7654 -0.9357 -2.9299
   80MOL0     H11002   8.361   2.676   7.709 -2.1254 -0.9103 -0.0236
   80MOL0     H11003   8.597   2.613   7.675  0.5830  1.4466  1.8379
   80MOL0     H11004   8.887   2.384   7.699 -2.2417 -0.3204 -0.5909
   80MOL0     H11005   8.799   2.533   7.709  1.0699  1.4109  2.2696
   80MOL0     H11006   8.925   2.416   7.954  1.1766  1.7904  1.7865
   80MOL0     H11007   8.976   2.546   7.857  0.2314 -0.0494  0.1403
   80MOL0     H11008   8.753   2.664   7.911  2.3471  0.2608 -2.8015
   80MOL0     H11009   8.884   2.655   8.035  0.9960 -2.1949  1.5963
   80MOL0     H11010   8.786   2.476   8.150  0.8109 -0.2592 -1.0418
   80MOL0     H11011   8.646   2.479   8.033  0.1662  1.2001 -2.2868
   80MOL0     H11012   8.743   2.695   8.240 -0.3295  0.9904 -0.1626
   80MOL0     H11013   8.638   2.737   8.115  0.6126 -1.2207 -0.8477
   80MOL0     H11014   8.462   2.563   8.179 -0.9548 -1.4843  2.0826
   80MOL0     H11015   8.503   2.699   8.295  0.2728  0.3119 -0.5046
   80MOL0     H11016   8.671   2.500   8.379  0.5721 -1.0068 -2.2489
   80MOL0     H11017   8.574   2.397   8.294  0.0535 -1.4988  1.5182
   80MOL0     H11018   8.537   2.435   8.540 -0.2919  2.5793  1.4881
   80MOL0     H11019   8.387   2.427   8.432 -2.4411  1.8471  0.7189
   80MOL0     H11020   8.514   2.258   7.898  2.1332  1.6078 -0.8374
   80MOL0     H11021   8.268   2.326   7.914  2.4310 -3.2697 -0.8633
   80MOL0     H11022   7.957   2.587   7.765  0.3131  1.1844 -1.9132
   80MOL0     H11023   7.721   2.659   7.765  2.0686 -1.8769 -0.2428
   80MOL0     H11024   6.388   3.413   8.319  1.3624 -1.5283  1.4437
   80MOL0     H11025   6.378   3.676   8.276 -3.0929  2.1363  3.1070
   80MOL0     H11026   6.429   4.042   8.260 -2.4385 -0.9091  0.0750
   80MOL0     H11027   6.365   4.269   8.190  0.6471  1.3282  0.0600
   80MOL0     H11028   6.163   4.499   8.474 -0.0661 -0.8160 -1.8558
   80MOL0     H11029   6.320   4.569   8.522  2.6558 -1.2544 -1.4527
   80MOL0     H11030   6.307   4.694   8.288 -2.1883  1.3063 -3.1782
   80MOL0     H11031   6.215   4.749   8.435 -1.0186  0.4536 -0.3418
   80MOL0     H11032   6.124   4.597   8.200 -1.7290  0.9466 -0.6290
   80MOL0     H11033   6.029   4.622   8.345  3.1399 -2.2851  2.5924
   80MOL0     H11034   6.000   4.788   8.138  1.3867 -0.9137 -0.8894
   80MOL0     H11035   6.136   4.866   8.173 -0.8822  1.9758  2.3406
   80MOL0     H11036   5.867   5.000   8.482 -0.1621 -1.0726  0.7702
   80MOL0     H11037   6.402   4.393   8.588 -1.5048  0.3520 -1.0875
   80MOL0     H11038   6.543   4.075   8.718  1.7251  1.9356  0.3618
   80MOL0     H11039   6.543   4.242   8.748  1.7619 -0.7245 -0.1620
   80MOL0     H11040   6.396   4.148   8.791 -0.2584 -0.9584 -0.1397
   81MOL0     O11041   9.545   9.715   1.220 -0.0611 -0.2361  0.5472
   81MOL0     C11042   9.595   9.824   1.248  0.2649  0.7804  0.4844
   81MOL0     O11043   9.555   9.911   1.334  0.0150 -0.7785  0.4284
   81MOL0     C11044   9.440   9.897   1.406 -0.5989  1.0815 -0.8589
   81MOL0     C11045   9.315   9.855   1.373 -0.3773  0.9181 -0.6026
   81MOL0     C11046   9.206   9.854   1.462 -1.3128 -0.0765  0.3227
   81MOL0     C11047   9.233   9.893   1.593 -0.6726  0.4420  0.2459
   81MOL0     O11048   9.145   9.891   1.705  0.6749 -0.2304 -0.1279
   81MOL0     C11049   9.007   9.872   1.670  0.6138 -0.9104  0.1357
   81MOL0     C11050   8.912   9.922   1.780  0.2775 -0.1918  0.2610
   81MOL0     C11051   8.949   9.892   1.921  0.2317 -0.0189  0.2057
   81MOL0     C11052   8.845   9.935   2.028  0.1558 -0.4260  0.1343
   81MOL0     C11053   8.769   9.811   2.074  0.6006  0.3555 -0.7401
   81MOL0     C11054   8.666   9.849   2.198 -0.7584 -0.2744  0.5758
   81MOL0     C11055   8.563   9.735   2.226 -0.3772  0.0249 -0.0311
   81MOL0     C11056   8.479   9.767   2.344  0.6234 -0.4318 -0.5614
   81MOL0     N11057   8.351   9.699   2.345 -0.6247 -0.5112 -0.0685
   81MOL0     C11058   8.238   9.753   2.287  0.1161 -0.3319 -0.6918
   81MOL0     C11059   8.134   9.688   2.338  0.9923  0.0728 -0.1424
   81MOL0     C11060   7.989   9.698   2.316 -0.3478 -0.2130  0.4821
   81MOL0     C11061   7.944   9.827   2.395  0.4453  0.2063 -0.4211
   81MOL0     C11062   7.788   9.837   2.394  0.4796 -0.4621  0.2540
   81MOL0     C11063   7.714   9.722   2.469  0.5232 -0.6135 -0.1406
   81MOL0     O11064   7.660   9.749   2.597  0.5123  0.3396  0.8515
   81MOL0     C11065   7.533   9.809   2.601  0.3876 -0.2373  0.5350
   81MOL0     C11066   7.476   9.823   2.716  0.1827 -0.0604 -0.2156
   81MOL0     C11067   7.360   9.895   2.739  0.3908  0.2132  0.6539
   81MOL0     C11068   7.303   9.892   2.879 -0.1190  0.0463  0.0786
   81MOL0     C11069   7.294   9.943   2.632  0.6870 -0.5947  1.1260
   81MOL0     C11070   7.157  10.010   2.633 -0.7935  0.4599 -0.7209
   81MOL0     O11071   7.083   9.996   2.521 -0.7728 -0.1588  0.4496
   81MOL0     C11072   6.978  10.081   2.500 -0.4300 -0.3415  0.6072
   81MOL0     C11073   6.990  10.219   2.504  0.3044 -1.1148 -0.2362
   81MOL0     C11074   6.884  10.306   2.463 -0.0065  0.4502  0.1579
   81MOL0     C11075   6.763  10.256   2.419  0.4842 -0.1088  0.1764
   81MOL0     O11076   6.654  10.342   2.393  0.1780 -0.0707 -0.3383
   81MOL0     C11077   6.673  10.484   2.389 -0.0588 -0.2238  0.2460
   81MOL0     C11078   6.539  10.557   2.350 -0.4914 -0.2490  0.4582
   81MOL0     C11079   6.452  10.600   2.471 -0.3691 -0.4278  0.9082
   81MOL0     C11080   6.301  10.630   2.430  0.0901 -0.4028 -0.2588
   81MOL0     C11081   6.233  10.728   2.528  0.0924 -0.3148  0.2407
   81MOL0     C11082   6.232  10.659   2.664  0.0243  0.0746 -0.2660
   81MOL0     C11083   6.146  10.722   2.769  1.5179  0.7846 -0.2011
   81MOL0     C11084   6.045  10.617   2.805 -1.0398 -0.2998  0.1906
   81MOL0    Cl11085   5.934  10.592   2.660  0.2898 -0.0199 -0.2595
   81MOL0     C11086   6.748  10.118   2.422  0.0354 -0.3746  0.5830
   81MOL0     C11087   6.849  10.030   2.458 -0.3158 -0.1114 -0.2326
   81MOL0     O11088   7.124  10.054   2.743 -0.6743 -0.6250 -0.1244
   81MOL0     C11089   7.339   9.930   2.502 -0.7682 -0.1849 -0.2704
   81MOL0     C11090   7.460   9.856   2.487 -0.4901 -1.3304 -0.1883
   81MOL0     N11091   8.180   9.612   2.443  0.2673  1.1153 -0.1257
   81MOL0     N11092   8.308   9.628   2.453 -0.2809 -0.0198  0.4202
   81MOL0     C11093   9.361   9.932   1.635  0.2904 -0.4667  0.5026
   81MOL0     C11094   9.463   9.940   1.537 -0.9438  0.2325 -0.3723
   81MOL0     C11095   9.735   9.837   1.187  0.5266 -0.3284 -0.5940
   81MOL0     C11096   9.822   9.918   1.265 -0.5851  0.2233  0.0036
   81MOL0     C11097   9.956   9.934   1.233 -0.3524  0.5247 -0.2665
   81MOL0     C11098  10.011   9.871   1.120  0.7136 -0.9043 -0.2051
   81MOL0     O11099  10.147   9.874   1.089  0.7675 -0.1379  0.2300
   81MOL0     C11100  10.234   9.954   1.172 -0.3608 -0.3896  0.4411
   81MOL0     C11101  10.372   9.948   1.117  0.6208 -0.0479  0.5348
   81MOL0     C11102  10.477  10.018   1.207  0.4324 -0.1943 -0.6241
   81MOL0     C11103  10.501   9.943   1.344 -0.2850  1.0710  0.0420
   81MOL0     C11104  10.588  10.025   1.423 -0.4195 -0.0677  0.2308
   81MOL0     C11105  10.671  10.083   1.497  0.2437  0.9034  0.4944
   81MOL0     C11106   9.922   9.794   1.043 -0.5935 -0.7759  0.9043
   81MOL0     C11107   9.790   9.774   1.073 -0.8156  0.8853  0.1374
   81MOL0     C11108   9.706   9.700   0.979 -0.2712  0.0247 -1.0728
   81MOL0     H11109   9.295   9.812   1.275  0.8609  0.6891 -0.7679
   81MOL0     H11110   9.116   9.806   1.426 -0.9370 -2.5222  2.3967
   81MOL0     H11111   8.975   9.769   1.656 -2.8059  0.0285  0.2406
   81MOL0     H11112   8.986   9.922   1.575 -0.1177 -0.4305  0.5439
   81MOL0     H11113   8.906  10.030   1.765  1.8096 -0.3750 -2.5304
   81MOL0     H11114   8.818   9.870   1.759  0.6847 -1.7672  2.0309
   81MOL0     H11115   8.968   9.785   1.926  2.6916  0.3415 -0.2551
   81MOL0     H11116   9.041   9.944   1.950  1.0469 -0.8077 -0.9186
   81MOL0     H11117   8.905   9.989   2.101 -2.8216  2.3069  0.7614
   81MOL0     H11118   8.778  10.014   1.994  1.5191  0.3405 -0.8986
   81MOL0     H11119   8.835   9.731   2.107 -0.2054 -0.4617 -1.0762
   81MOL0     H11120   8.704   9.778   1.993 -1.8902 -0.2924  1.3696
   81MOL0     H11121   8.724   9.880   2.285  0.3751 -3.8232  1.2203
   81MOL0     H11122   8.604   9.932   2.163 -0.3036 -0.7536 -1.5259
   81MOL0     H11123   8.612   9.639   2.242  1.3038  1.3087  3.7542
   81MOL0     H11124   8.507   9.726   2.132  0.5398 -4.9879 -0.3535
   81MOL0     H11125   8.531   9.736   2.435 -1.9990  1.3000  1.6779
   81MOL0     H11126   8.453   9.873   2.342 -0.2447 -0.6173  0.3583
   81MOL0     H11127   8.226   9.833   2.215  0.5338  0.3730 -0.0009
   81MOL0     H11128   7.939   9.603   2.337  1.6228 -1.1525  1.1701
   81MOL0     H11129   7.978   9.716   2.208  0.7512  0.7831  0.5181
   81MOL0     H11130   7.980   9.843   2.497  0.2680  1.2892 -0.5072
   81MOL0     H11131   7.978   9.916   2.341 -1.2537  0.7299 -0.7084
   81MOL0     H11132   7.756   9.932   2.438 -1.5236 -0.4317 -1.1425
   81MOL0     H11133   7.748   9.836   2.293 -1.0608  0.5672  0.8094
   81MOL0     H11134   7.656   9.664   2.396 -0.4818  2.1125 -1.6678
   81MOL0     H11135   7.794   9.655   2.502 -1.3537 -2.9781 -0.0847
   81MOL0     H11136   7.521   9.793   2.811 -0.6134 -0.5619  0.0175
   81MOL0     H11137   7.294   9.999   2.903 -0.4676 -0.5408  2.9920
   81MOL0     H11138   7.364   9.843   2.956 -1.9037 -2.5918 -0.0741
   81MOL0     H11139   7.210   9.837   2.868 -0.2030  0.2196 -0.0698
   81MOL0     H11140   7.089  10.263   2.516 -0.4839  0.3732  1.3811
   81MOL0     H11141   6.900  10.412   2.447  1.8606  0.0674 -0.8200
   81MOL0     H11142   6.705  10.522   2.487 -0.1119 -2.3694  1.1528
   81MOL0     H11143   6.745  10.516   2.313  0.4968 -2.4045 -0.2134
   81MOL0     H11144   6.562  10.645   2.289 -0.0212 -2.5707 -3.0341
   81MOL0     H11145   6.481  10.486   2.290 -1.2304 -2.4303  3.5276
   81MOL0     H11146   6.502  10.692   2.500  3.0806 -0.9824 -2.5348
   81MOL0     H11147   6.452  10.516   2.542 -0.4292 -1.0118  0.2333
   81MOL0     H11148   6.248  10.535   2.423 -0.0356 -0.7510  3.5048
   81MOL0     H11149   6.306  10.676   2.330  4.4477  1.5564  0.6337
   81MOL0     H11150   6.291  10.821   2.535 -1.0236  0.4672 -0.5076
   81MOL0     H11151   6.130  10.740   2.492  0.5725  1.5703 -0.6127
   81MOL0     H11152   6.330  10.650   2.712  0.6011  0.9695 -1.2377
   81MOL0     H11153   6.196  10.558   2.642 -1.5957  0.7611 -0.9248
   81MOL0     H11154   6.100  10.813   2.728  0.2400  0.0933 -0.3401
   81MOL0     H11155   6.188  10.756   2.864  0.6050  1.2717  0.0366
   81MOL0     H11156   5.988  10.638   2.896 -0.4924  0.4466  0.3729
   81MOL0     H11157   6.103  10.527   2.824  0.4649  0.1820 -1.7841
   81MOL0     H11158   6.660  10.066   2.386  0.7010 -1.7070  0.8219
   81MOL0     H11159   6.831   9.923   2.464 -2.0419  0.2336  2.1448
   81MOL0     H11160   7.288   9.973   2.416 -1.0017  1.3182  0.5851
   81MOL0     H11161   7.500   9.842   2.387 -1.3601  0.0547 -0.7638
   81MOL0     H11162   9.388   9.952   1.738  1.3476 -0.8469  0.3181
   81MOL0     H11163   9.560   9.981   1.564 -0.4866 -0.4228 -1.0001
   81MOL0     H11164   9.792   9.958   1.361 -0.1075 -1.7251  1.0172
   81MOL0     H11165  10.017   9.993   1.302 -2.5129  0.9071  1.4353
   81MOL0     H11166  10.200  10.058   1.169 -1.8698 -0.7292  2.8798
   81MOL0     H11167  10.227   9.923   1.276  2.3149  0.2484  0.8842
   81MOL0     H11168  10.363  10.009   1.027 -1.7627  1.8272  1.9425
   81MOL0     H11169  10.409   9.848   1.094  4.0287  0.9446  1.0044
   81MOL0     H11170  10.574  10.033   1.159  1.0094 -0.3298  0.4621
   81MOL0     H11171  10.435  10.118   1.225  1.1004 -0.0729  0.3434
   81MOL0     H11172  10.544   9.846   1.319 -0.1414  1.6568 -2.2488
   81MOL0     H11173  10.406   9.922   1.394  0.4136 -1.9918  0.2616
   81MOL0     H11174  10.748  10.105   1.568  0.7712  0.3443  0.1079
   81MOL0     H11175   9.959   9.738   0.957  0.0929 -0.0129  0.6936
   81MOL0     H11176   9.671   9.607   1.024 -1.7147  1.0225 -0.0499
   81MOL0     H11177   9.615   9.757   0.959  0.0163  1.8905  2.3061
   81MOL0     H11178   9.760   9.676   0.886  0.9641  1.4764 -0.7737
   82MOL0     O11179   6.647   8.958   4.781 -0.4776 -0.1101 -0.2410
   82MOL0     C11180   6.611   8.864   4.844  1.1860  0.6271 -0.1372
   82MOL0     O11181   6.480   8.840   4.887 -0.2359 -0.1459 -1.0956
   82MOL0     C11182   6.370   8.920   4.871 -0.4911 -0.1137  0.3568
   82MOL0     C11183   6.383   9.041   4.802 -1.7865  0.4698 -0.6216
   82MOL0     C11184   6.268   9.116   4.767  0.4252  0.7200 -0.4627
   82MOL0     C11185   6.147   9.071   4.819  0.3634 -0.3767  0.5114
   82MOL0     O11186   6.037   9.150   4.792 -0.1655  0.0538  0.3476
   82MOL0     C11187   5.903   9.110   4.792 -0.3381  0.4522  0.5025
   82MOL0     C11188   5.806   9.220   4.777 -0.7754 -0.1024  0.0522
   82MOL0     C11189   5.664   9.169   4.804 -0.2066 -0.5998  0.1527
   82MOL0     C11190   5.562   9.286   4.811  0.6108  0.1468  0.1156
   82MOL0     C11191   5.576   9.370   4.937 -0.5371 -0.3000 -0.9808
   82MOL0     C11192   5.490   9.505   4.941 -0.8522  0.1361  0.2736
   82MOL0     C11193   5.551   9.616   4.851 -1.0561  0.9068 -0.1831
   82MOL0     C11194   5.667   9.704   4.904  0.1651  0.3027 -0.7159
   82MOL0     N11195   5.717   9.795   4.805 -0.1293 -1.3267  0.3749
   82MOL0     C11196   5.668   9.918   4.776  0.4382  0.6512  0.0764
   82MOL0     C11197   5.747   9.969   4.673  0.3581 -0.4009 -0.0434
   82MOL0     C11198   5.734  10.102   4.619  0.0301  0.4124 -0.0061
   82MOL0     C11199   5.873  10.177   4.609  0.0581 -0.1106  0.0177
   82MOL0     C11200   5.857  10.314   4.528 -0.0345  0.4616  0.0448
   82MOL0     C11201   5.989  10.394   4.512 -0.2110 -0.0953  0.3473
   82MOL0     O11202   6.088  10.333   4.427  0.2983  0.1160 -0.5817
   82MOL0     C11203   6.191  10.413   4.380  0.2671  0.0343 -0.1219
   82MOL0     C11204   6.272  10.341   4.297  0.0529  0.4314  0.9356
   82MOL0     C11205   6.394  10.386   4.243 -0.1131 -0.0353 -0.1312
   82MOL0     C11206   6.479  10.294   4.155  0.0511 -0.2374  1.3775
   82MOL0     C11207   6.433  10.517   4.271 -0.7603  0.6960  0.4473
   82MOL0     C11208   6.556  10.581   4.213 -0.7798  0.0831  0.0744
   82MOL0     O11209   6.615  10.543   4.086 -0.4033  0.4344  0.4830
   82MOL0     C11210   6.726  10.620   4.048  0.5092 -0.3419  0.4037
   82MOL0     C11211   6.846  10.609   4.113  0.2038  0.0694  0.1353
   82MOL0     C11212   6.959  10.692   4.075 -0.3623  0.4737  0.4816
   82MOL0     C11213   6.937  10.789   3.978 -0.1395  0.7242 -0.0322
   82MOL0     O11214   7.046  10.854   3.936  0.6160 -0.1941  0.5161
   82MOL0     C11215   7.070  10.847   3.790 -0.1647  0.6811  0.2335
   82MOL0     C11216   7.141  10.717   3.756  0.1515  0.3329 -0.4392
   82MOL0     C11217   7.224  10.719   3.630  0.0704  0.3258  0.0328
   82MOL0     C11218   7.305  10.584   3.615  0.2318  0.5546  0.3576
   82MOL0     C11219   7.366  10.576   3.475  0.3092  0.3202  0.5664
   82MOL0     C11220   7.451  10.449   3.466  0.5269 -0.0777 -0.2541
   82MOL0     C11221   7.479  10.398   3.321 -0.0194 -0.0044 -0.3034
   82MOL0     C11222   7.360  10.340   3.240  0.0205  0.0600  0.4635
   82MOL0    Cl11223   7.327  10.178   3.294  0.3471 -0.1100 -0.1719
   82MOL0     C11224   6.813  10.807   3.922  0.4981  0.2530 -0.0360
   82MOL0     C11225   6.713  10.723   3.952 -0.1715 -0.9555  0.0316
   82MOL0     O11226   6.604  10.670   4.284 -0.1449 -0.1503 -0.2091
   82MOL0     C11227   6.357  10.592   4.358 -0.2206 -0.4524 -0.3075
   82MOL0     C11228   6.229  10.540   4.403  0.4632 -0.1815 -0.1710
   82MOL0     N11229   5.826   9.866   4.623 -0.3460  0.5173 -0.1767
   82MOL0     N11230   5.810   9.767   4.709 -1.0177  0.2687 -0.4301
   82MOL0     C11231   6.138   8.951   4.890  0.2162  0.2624  0.4669
   82MOL0     C11232   6.248   8.869   4.903  0.2521  0.0678  0.9169
   82MOL0     C11233   6.714   8.768   4.876 -0.8275  0.2657  0.5760
   82MOL0     C11234   6.710   8.695   5.000  0.5634 -0.5727 -0.1339
   82MOL0     C11235   6.819   8.619   5.043 -0.6107 -0.8257 -0.0592
   82MOL0     C11236   6.932   8.605   4.968 -0.2353 -0.3244  1.1899
   82MOL0     O11237   7.030   8.521   5.015 -0.2886  0.1203  0.0528
   82MOL0     C11238   7.167   8.524   4.978 -0.6901 -0.2468  0.2922
   82MOL0     C11239   7.269   8.464   5.085  0.1759  1.3642  0.3725
   82MOL0     C11240   7.230   8.510   5.225 -0.4008 -0.3785  0.2321
   82MOL0     C11241   7.339   8.463   5.320  0.3617  0.3689  0.3951
   82MOL0     C11242   7.354   8.318   5.321 -0.5219 -0.6550  1.1550
   82MOL0     C11243   7.368   8.200   5.336 -0.5881  0.4600 -0.4336
   82MOL0     C11244   6.937   8.672   4.844  0.5412  0.5557 -0.5436
   82MOL0     C11245   6.821   8.741   4.794 -1.3307  0.0064 -0.4865
   82MOL0     C11246   6.822   8.773   4.652  0.2319  1.1038 -0.3034
   82MOL0     H11247   6.474   9.090   4.771  0.1294 -1.4827  1.5193
   82MOL0     H11248   6.269   9.212   4.716  0.5185 -0.0665 -2.0072
   82MOL0     H11249   5.876   9.073   4.892  0.3726  3.7964  2.0513
   82MOL0     H11250   5.891   9.029   4.719  1.0341 -0.7343  1.5285
   82MOL0     H11251   5.838   9.306   4.836  0.7836  2.1701 -3.6856
   82MOL0     H11252   5.812   9.260   4.675  2.0378  1.4808  0.7523
   82MOL0     H11253   5.632   9.110   4.717 -1.3852 -0.8761  0.7479
   82MOL0     H11254   5.649   9.113   4.897 -1.3995  0.1441  0.4286
   82MOL0     H11255   5.586   9.349   4.725  3.8004 -3.7694 -2.2332
   82MOL0     H11256   5.460   9.249   4.797  1.3073 -1.4749 -1.0268
   82MOL0     H11257   5.680   9.402   4.950 -0.2686 -1.7432  0.7444
   82MOL0     H11258   5.549   9.317   5.028 -4.1552  2.9011  0.0533
   82MOL0     H11259   5.386   9.484   4.913 -0.5692 -2.0888  0.7089
   82MOL0     H11260   5.474   9.539   5.044  0.7114  0.2593  0.5099
   82MOL0     H11261   5.474   9.690   4.827 -0.9973  1.0166 -0.0340
   82MOL0     H11262   5.586   9.570   4.758 -0.0111  0.5092  0.3933
   82MOL0     H11263   5.639   9.765   4.990  1.6433 -0.2042  0.1427
   82MOL0     H11264   5.753   9.651   4.945  0.1546  1.4711  0.9372
   82MOL0     H11265   5.587   9.970   4.827  0.0806  1.6115 -1.4078
   82MOL0     H11266   5.667  10.157   4.685  1.6194  1.6165  0.6680
   82MOL0     H11267   5.684  10.095   4.522 -0.6617 -1.7680  0.4486
   82MOL0     H11268   5.925  10.196   4.704  1.0328 -1.9066 -0.1253
   82MOL0     H11269   5.951  10.118   4.561  2.7384 -0.3405  4.0822
   82MOL0     H11270   5.812  10.301   4.430 -0.7198  0.9894  0.2828
   82MOL0     H11271   5.797  10.387   4.583  2.8623  1.6875  1.8493
   82MOL0     H11272   5.962  10.495   4.478  0.1392  0.0519  0.4931
   82MOL0     H11273   6.028  10.410   4.613  0.1066  1.6821 -0.0181
   82MOL0     H11274   6.253  10.237   4.272  1.6002  0.4821 -0.6346
   82MOL0     H11275   6.480  10.329   4.052 -0.7050  1.6416  1.9647
   82MOL0     H11276   6.430  10.197   4.154 -0.2175 -0.1409 -1.3585
   82MOL0     H11277   6.584  10.292   4.186  0.6778  0.0943 -0.5967
   82MOL0     H11278   6.863  10.517   4.168  1.8215 -0.9033 -1.8402
   82MOL0     H11279   7.055  10.675   4.122 -1.9986 -1.0589  3.6321
   82MOL0     H11280   6.976  10.846   3.735 -0.3105 -3.6567  0.2032
   82MOL0     H11281   7.136  10.930   3.762  1.7256 -0.7738  0.1406
   82MOL0     H11282   7.202  10.687   3.842  1.2767  1.6199 -0.7464
   82MOL0     H11283   7.071  10.634   3.744  0.1054  0.7244 -3.5478
   82MOL0     H11284   7.296  10.801   3.634  2.7074 -1.6642 -2.5004
   82MOL0     H11285   7.160  10.740   3.544  1.3357 -0.9292 -1.2683
   82MOL0     H11286   7.236  10.500   3.631  1.3400  0.3287  6.1634
   82MOL0     H11287   7.380  10.577   3.694  0.6068 -1.5992 -0.1135
   82MOL0     H11288   7.284  10.584   3.402 -1.6432  1.4115  2.7508
   82MOL0     H11289   7.434  10.662   3.474 -2.1274  2.4134  2.0756
   82MOL0     H11290   7.399  10.367   3.517  0.9731 -1.3569 -1.7505
   82MOL0     H11291   7.546  10.462   3.519  0.5608  1.4291 -0.6454
   82MOL0     H11292   7.544  10.311   3.338 -2.3001 -1.3672  2.4600
   82MOL0     H11293   7.531  10.482   3.276 -2.2430  2.1999  0.9751
   82MOL0     H11294   7.389  10.341   3.134  1.3706  1.0895  0.8169
   82MOL0     H11295   7.277  10.411   3.245  1.1108  1.3871  0.1581
   82MOL0     H11296   6.786  10.882   3.849  0.2090  1.0915  0.9069
   82MOL0     H11297   6.623  10.739   3.894  0.8816  0.4168 -1.2958
   82MOL0     H11298   6.388  10.690   4.393 -3.7481  0.6694  0.0142
   82MOL0     H11299   6.172  10.590   4.481  2.1275  0.1787  0.8772
   82MOL0     H11300   6.046   8.905   4.923  0.1048  1.2121  1.5642
   82MOL0     H11301   6.239   8.774   4.955 -1.6518  1.5810  3.6129
   82MOL0     H11302   6.621   8.707   5.061 -1.3199  2.1043 -3.0816
   82MOL0     H11303   6.808   8.562   5.135 -2.0461  0.5276  0.6513
   82MOL0     H11304   7.191   8.475   4.883  0.5466  0.8259  0.0234
   82MOL0     H11305   7.207   8.625   4.967  3.0464 -1.7422 -2.0610
   82MOL0     H11306   7.367   8.496   5.049  0.2015  0.4433 -0.4162
   82MOL0     H11307   7.273   8.355   5.079  0.7786  1.4742 -2.9032
   82MOL0     H11308   7.227   8.620   5.226 -0.8037 -0.3185  3.2174
   82MOL0     H11309   7.131   8.473   5.254 -0.8821  0.4826 -0.2715
   82MOL0     H11310   7.315   8.507   5.418  2.2074  1.3183  0.4684
   82MOL0     H11311   7.431   8.512   5.287 -0.4348  1.2257 -0.6165
   82MOL0     H11312   7.364   8.094   5.348 -0.6911  0.4070 -0.8976
   82MOL0     H11313   7.026   8.660   4.783  0.9365  1.4955 -0.1635
   82MOL0     H11314   6.720   8.756   4.615  0.4635 -4.1905  0.7693
   82MOL0     H11315   6.866   8.871   4.635  0.2359  1.3525  1.0074
   82MOL0     H11316   6.876   8.701   4.590  0.1506  1.3338 -0.6430
   83MOL0     O11317   9.805   3.550   8.897  0.0718 -0.0097 -0.1313
   83MOL0     C11318   9.907   3.477   8.887 -0.5323 -0.1525 -0.1786
   83MOL0     O11319   9.978   3.436   8.996  0.3299 -0.3052  0.9436
   83MOL0     C11320   9.984   3.525   9.102 -1.1438 -0.1127 -0.4620
   83MOL0     C11321  10.019   3.656   9.083 -1.0285 -0.3941  0.3794
   83MOL0     C11322  10.025   3.748   9.192 -0.1944  0.5855  0.2610
   83MOL0     C11323   9.986   3.704   9.323  0.0881  0.2813 -0.4933
   83MOL0     O11324   9.984   3.786   9.437  0.4208 -0.1755 -0.1245
   83MOL0     C11325  10.005   3.924   9.418  1.1572 -0.9557  0.4732
   83MOL0     C11326  10.142   3.983   9.433 -0.0833  0.0984  0.3018
   83MOL0     C11327  10.235   3.917   9.550  0.4067  0.0457 -0.4816
   83MOL0     C11328  10.336   4.025   9.604  0.0163  0.4002  0.6375
   83MOL0     C11329  10.475   3.971   9.567  1.2981 -0.4239  0.3900
   83MOL0     C11330  10.516   3.855   9.662  0.0220 -0.1901 -1.0319
   83MOL0     C11331  10.663   3.826   9.666  0.5513  0.3944 -0.0320
   83MOL0     C11332  10.732   3.815   9.533  0.4226  0.2923 -0.3477
   83MOL0     N11333  10.781   3.949   9.485 -0.2461 -0.5572 -0.1977
   83MOL0     C11334  10.733   4.011   9.371 -0.0957  0.2896 -0.1505
   83MOL0     C11335  10.814   4.108   9.346  0.1019 -0.4502 -0.6530
   83MOL0     C11336  10.810   4.206   9.226  0.0741 -0.2401  0.1676
   83MOL0     C11337  10.923   4.306   9.230 -0.4617 -0.0873  0.4619
   83MOL0     C11338  10.921   4.409   9.119 -0.1274  0.2865 -0.0823
   83MOL0     C11339  11.055   4.491   9.122 -0.7036 -0.0742  1.2136
   83MOL0     O11340  11.160   4.417   9.051 -0.5340  0.4377 -1.1945
   83MOL0     C11341  11.286   4.461   9.059  0.9278 -0.0369 -0.4049
   83MOL0     C11342  11.385   4.361   9.054 -0.3420 -0.5538  0.1432
   83MOL0     C11343  11.523   4.390   9.043 -0.5441 -0.5698  0.6877
   83MOL0     C11344  11.631   4.283   9.044 -0.1438  0.6833  0.1266
   83MOL0     C11345  11.561   4.524   9.041 -0.3219  0.5422 -0.9694
   83MOL0     C11346  11.696   4.583   9.035  0.1069  0.0734 -0.1845
   83MOL0     O11347  11.704   4.708   8.991 -0.0672  0.8420  0.3269
   83MOL0     C11348  11.822   4.771   8.991  1.0767 -0.3318 -0.1491
   83MOL0     C11349  11.923   4.762   8.890 -0.7729  0.0447  0.1526
   83MOL0     C11350  12.039   4.831   8.903  0.5034 -0.4273  0.5947
   83MOL0     C11351  12.059   4.925   9.012 -0.7693  0.0004  0.2727
   83MOL0     O11352  12.180   4.989   9.028 -0.1947 -0.0929 -0.6305
   83MOL0     C11353  12.229   5.047   8.907 -0.1509 -0.2188  0.4550
   83MOL0     C11354  12.321   5.157   8.955 -0.0506  0.1784 -0.0218
   83MOL0     C11355  12.434   5.181   8.857  0.4887  0.5740  0.0700
   83MOL0     C11356  12.577   5.212   8.914  0.4518 -0.2607  0.2025
   83MOL0     C11357  12.574   5.355   8.970 -0.3522  0.6351  0.5606
   83MOL0     C11358  12.714   5.401   9.021 -0.3753  0.1414  0.0416
   83MOL0     C11359  12.774   5.295   9.123 -0.4041 -0.2948 -0.5450
   83MOL0     C11360  12.862   5.363   9.224 -0.3952 -0.2339  0.8850
   83MOL0    Cl11361  13.010   5.429   9.157  0.5575  0.1808 -0.6234
   83MOL0     C11362  11.969   4.925   9.117 -1.1562 -0.7405  0.3559
   83MOL0     C11363  11.855   4.848   9.104  0.3440  0.0080 -0.1355
   83MOL0     O11364  11.791   4.519   9.070  0.1941 -0.5244 -0.7661
   83MOL0     C11365  11.453   4.623   9.062  0.2331 -0.7216  0.0229
   83MOL0     C11366  11.317   4.596   9.061 -0.0228  0.3895 -0.7073
   83MOL0     N11367  10.911   4.096   9.451  0.2799 -0.8164  0.2984
   83MOL0     N11368  10.893   4.003   9.539 -0.8864 -0.3314  0.1029
   83MOL0     C11369   9.961   3.567   9.344  0.5824 -1.4069 -0.1941
   83MOL0     C11370   9.961   3.478   9.237 -0.8512  0.3071 -0.2474
   83MOL0     C11371   9.960   3.441   8.755  1.0731 -0.9379 -0.9966
   83MOL0     C11372  10.043   3.332   8.752 -1.1139  0.7259  0.3740
   83MOL0     C11373  10.095   3.298   8.631 -0.9422  0.4711  0.5485
   83MOL0     C11374  10.057   3.355   8.513 -0.4616  0.3772  0.3167
   83MOL0     O11375  10.091   3.281   8.398 -0.0241  0.0148  0.2023
   83MOL0     C11376  10.045   3.310   8.265 -0.2445  0.6290 -0.7704
   83MOL0     C11377   9.900   3.291   8.251 -0.0473 -0.6463  0.2680
   83MOL0     C11378   9.856   3.145   8.264 -0.2611 -0.3836 -0.6099
   83MOL0     C11379   9.703   3.139   8.248 -0.6280 -0.0855  0.6013
   83MOL0     C11380   9.670   3.002   8.267  1.8037  0.9343  0.1767
   83MOL0     C11381   9.645   2.884   8.279 -0.9924  0.2409  0.5049
   83MOL0     C11382   9.978   3.467   8.519 -0.4164  0.0427 -0.0220
   83MOL0     C11383   9.917   3.511   8.637 -0.3190 -0.4063  0.2874
   83MOL0     C11384   9.843   3.637   8.633 -0.6532 -0.2485 -0.1212
   83MOL0     H11385  10.052   3.699   8.990  1.2480 -0.4374  1.0961
   83MOL0     H11386  10.065   3.846   9.170  1.0725 -0.0682 -0.4343
   83MOL0     H11387   9.948   3.970   9.499 -0.5041  1.9174 -2.1103
   83MOL0     H11388   9.965   3.963   9.325  2.0417  0.6854  0.7438
   83MOL0     H11389  10.206   3.986   9.344 -1.1362 -0.1589 -0.4769
   83MOL0     H11390  10.134   4.087   9.467  1.6129  0.4276 -0.1996
   83MOL0     H11391  10.175   3.877   9.633  1.5228  1.3754  1.0146
   83MOL0     H11392  10.281   3.822   9.519 -0.1096 -1.4821  2.9554
   83MOL0     H11393  10.319   4.121   9.554  0.6831 -0.7467 -1.9403
   83MOL0     H11394  10.324   4.031   9.713  0.4300  0.8424  0.6603
   83MOL0     H11395  10.551   4.047   9.585  1.3264 -0.7177  1.6344
   83MOL0     H11396  10.487   3.929   9.467  1.0250 -0.4651  0.3725
   83MOL0     H11397  10.494   3.871   9.768  2.9070 -0.9670 -0.2424
   83MOL0     H11398  10.469   3.758   9.643  1.4198 -1.1105  0.0363
   83MOL0     H11399  10.686   3.725   9.700 -0.9543 -0.3456 -1.0910
   83MOL0     H11400  10.713   3.909   9.716  0.8187  1.3035 -1.7272
   83MOL0     H11401  10.821   3.751   9.546  1.5435  2.0397  1.0960
   83MOL0     H11402  10.667   3.771   9.458  1.2180 -0.2488 -0.7416
   83MOL0     H11403  10.640   3.986   9.320  1.0660  1.6521 -3.1724
   83MOL0     H11404  10.716   4.259   9.239 -0.3313 -1.5088  3.4179
   83MOL0     H11405  10.827   4.144   9.138  0.3669 -1.7449  1.2272
   83MOL0     H11406  10.925   4.366   9.321  0.5477  0.3611  0.1544
   83MOL0     H11407  11.021   4.259   9.222  1.7178  3.8263  1.8115
   83MOL0     H11408  10.909   4.357   9.024 -1.3525 -0.3217  0.3844
   83MOL0     H11409  10.841   4.483   9.130  2.1345  2.7607  1.0625
   83MOL0     H11410  11.040   4.580   9.061 -1.5098 -0.5303  0.7251
   83MOL0     H11411  11.092   4.525   9.220 -1.7861  1.6347  1.0698
   83MOL0     H11412  11.344   4.261   9.043 -0.9243 -0.1262 -1.9482
   83MOL0     H11413  11.590   4.191   9.001  0.3123 -0.0785  1.2870
   83MOL0     H11414  11.663   4.262   9.146  0.7076  3.8673  0.6390
   83MOL0     H11415  11.715   4.312   8.980  0.1460 -1.6627 -0.6374
   83MOL0     H11416  11.907   4.685   8.815 -1.7877  0.1635  0.2239
   83MOL0     H11417  12.121   4.804   8.839  1.0926  0.0918  1.1114
   83MOL0     H11418  12.289   4.969   8.858 -0.1767  0.1058 -0.0956
   83MOL0     H11419  12.150   5.077   8.837 -0.4540  0.9154  1.2603
   83MOL0     H11420  12.262   5.249   8.954 -0.9622 -0.2888  2.8724
   83MOL0     H11421  12.347   5.146   9.060 -4.5880  1.6545  1.4687
   83MOL0     H11422  12.414   5.265   8.790  0.6783  0.0740 -0.6350
   83MOL0     H11423  12.435   5.091   8.793 -0.5557  0.3385  0.3695
   83MOL0     H11424  12.658   5.217   8.841  1.3930  2.2576  1.3145
   83MOL0     H11425  12.601   5.137   8.990  0.8620  1.3282  1.7033
   83MOL0     H11426  12.559   5.429   8.891  2.5066 -0.1611 -0.8556
   83MOL0     H11427  12.496   5.369   9.045 -0.8699 -0.5682  0.2761
   83MOL0     H11428  12.707   5.496   9.075  0.4999  0.6051 -0.6290
   83MOL0     H11429  12.781   5.420   8.937 -0.2473  1.7542  0.4730
   83MOL0     H11430  12.831   5.221   9.066 -0.7681  0.7311 -2.3405
   83MOL0     H11431  12.694   5.250   9.182 -0.6827  0.6043 -0.2225
   83MOL0     H11432  12.892   5.289   9.299 -1.2932 -3.3495 -1.6624
   83MOL0     H11433  12.803   5.442   9.272  1.1875  3.5822 -2.7589
   83MOL0     H11434  11.994   4.990   9.200 -1.5609 -0.4520  0.2580
   83MOL0     H11435  11.788   4.846   9.189  0.2155 -2.6112 -0.2278
   83MOL0     H11436  11.466   4.730   9.062 -0.9786 -0.5520 -0.6921
   83MOL0     H11437  11.235   4.668   9.068 -1.0975 -0.8453 -0.0374
   83MOL0     H11438   9.943   3.542   9.448  0.5555 -2.8378 -0.5162
   83MOL0     H11439   9.950   3.371   9.254 -0.2667  0.0777 -1.2297
   83MOL0     H11440  10.073   3.276   8.839  0.3530 -0.3400 -0.7579
   83MOL0     H11441  10.157   3.209   8.623 -1.1101  0.5001 -1.6063
   83MOL0     H11442  10.070   3.416   8.252  2.2512  0.3220  0.8171
   83MOL0     H11443  10.091   3.244   8.191 -0.3706 -1.7553  1.1547
   83MOL0     H11444   9.868   3.318   8.150 -2.5974  1.4696  1.5233
   83MOL0     H11445   9.843   3.347   8.326 -0.7413  1.6668 -1.8723
   83MOL0     H11446   9.914   3.070   8.209 -1.2220 -1.7088  0.1069
   83MOL0     H11447   9.860   3.099   8.363 -1.0563 -1.1559 -0.9216
   83MOL0     H11448   9.672   3.179   8.151 -0.3795  1.6196  1.1901
   83MOL0     H11449   9.642   3.190   8.323 -1.2671  0.0501 -0.0009
   83MOL0     H11450   9.625   2.779   8.278  0.2610 -0.0301 -1.2046
   83MOL0     H11451   9.964   3.516   8.423 -1.0214  1.9465  0.9713
   83MOL0     H11452   9.894   3.714   8.692  1.8845 -2.1662  0.3816
   83MOL0     H11453   9.843   3.678   8.532  0.3707 -2.1989 -0.9591
   83MOL0     H11454   9.737   3.623   8.654 -0.1540 -1.8351  1.6135
   84MOL0     O11455   0.618   3.944   4.316  0.2545 -0.3951  0.0303
   84MOL0     C11456   0.539   3.862   4.363 -0.2956 -0.0463  0.3240
   84MOL0     O11457   0.509   3.843   4.488  0.1797  0.2833 -0.3278
   84MOL0     C11458   0.584   3.921   4.576 -0.4622  0.0894  0.7532
   84MOL0     C11459   0.515   4.022   4.643  0.6380 -0.4767 -0.5136
   84MOL0     C11460   0.587   4.086   4.750  0.1933 -0.1239  0.1488
   84MOL0     C11461   0.715   4.036   4.791  0.0104 -0.7873 -0.0320
   84MOL0     O11462   0.765   4.090   4.908 -0.5676 -0.3552 -0.4224
   84MOL0     C11463   0.679   4.110   5.021  1.2090  0.0300 -0.6197
   84MOL0     C11464   0.763   4.082   5.149  0.6925 -0.0453 -0.5570
   84MOL0     C11465   0.680   4.031   5.264 -0.5962  0.2856  0.0560
   84MOL0     C11466   0.670   3.879   5.252  0.3262 -0.1924  0.5898
   84MOL0     C11467   0.584   3.824   5.363  1.0709  1.2934 -0.1592
   84MOL0     C11468   0.570   3.670   5.336 -0.0551  0.7324  0.2865
   84MOL0     C11469   0.521   3.586   5.457  0.1845 -0.6482  0.3578
   84MOL0     C11470   0.506   3.435   5.416 -0.0874  0.4318  0.1831
   84MOL0     N11471   0.381   3.415   5.343  0.4834  0.2705 -0.2416
   84MOL0     C11472   0.259   3.422   5.399 -0.2899 -0.9950  0.4586
   84MOL0     C11473   0.169   3.405   5.296  0.2978  0.5215  0.7310
   84MOL0     C11474   0.016   3.396   5.300  0.0317 -0.4233 -0.0789
   84MOL0     C11475  -0.027   3.252   5.337 -0.1120  0.3017  0.6887
   84MOL0     C11476  -0.033   3.158   5.208  0.0892  0.8598  0.1189
   84MOL0     C11477  -0.016   3.009   5.248 -0.0820  0.5284  0.2806
   84MOL0     O11478  -0.122   2.957   5.326 -0.4141  0.2197 -0.6923
   84MOL0     C11479  -0.116   2.822   5.338  0.1526 -0.6521  0.2006
   84MOL0     C11480  -0.224   2.756   5.413 -0.5506 -0.6097 -0.0079
   84MOL0     C11481  -0.227   2.623   5.441  0.0701 -0.6795  0.7341
   84MOL0     C11482  -0.357   2.574   5.510 -0.0697  0.0507 -0.0578
   84MOL0     C11483  -0.115   2.544   5.399 -0.5548  0.5460 -0.2840
   84MOL0     C11484  -0.111   2.400   5.393 -1.2678  0.4233  0.1289
   84MOL0     O11485   0.006   2.343   5.347  0.1319 -1.3596 -0.6767
   84MOL0     C11486   0.026   2.210   5.333  0.5412  0.2252  0.3279
   84MOL0     C11487  -0.066   2.136   5.257  0.3771  0.6225 -1.0410
   84MOL0     C11488  -0.050   1.998   5.237 -0.1358 -0.3644 -0.7061
   84MOL0     C11489   0.064   1.934   5.298 -0.4237  0.6338  0.3221
   84MOL0     O11490   0.093   1.802   5.277  0.0588 -0.4089 -0.4541
   84MOL0     C11491  -0.003   1.716   5.214 -0.0271 -0.0779 -0.4775
   84MOL0     C11492   0.033   1.571   5.240 -0.0052 -0.0390  0.2685
   84MOL0     C11493   0.003   1.514   5.383 -0.7874 -0.0284  0.0087
   84MOL0     C11494   0.105   1.414   5.439 -0.3318  0.7328  0.3738
   84MOL0     C11495   0.086   1.368   5.585  0.6779  0.0420 -0.1724
   84MOL0     C11496   0.111   1.483   5.683  0.4744 -0.0708  0.2803
   84MOL0     C11497   0.097   1.421   5.825 -0.0045  0.0466 -0.8393
   84MOL0     C11498   0.132   1.537   5.927 -0.3113 -0.6034  0.3067
   84MOL0    Cl11499  -0.001   1.646   5.941  0.5445  0.3028 -0.1260
   84MOL0     C11500   0.155   2.012   5.373  0.7899 -0.4131 -0.0035
   84MOL0     C11501   0.134   2.147   5.390  0.3690 -0.0758 -0.0446
   84MOL0     O11502  -0.207   2.338   5.425 -0.0878  0.2628  0.1375
   84MOL0     C11503  -0.001   2.606   5.340  0.1342 -0.9973 -0.6862
   84MOL0     C11504  -0.001   2.739   5.308  0.4329 -0.3051  0.6427
   84MOL0     N11505   0.242   3.403   5.175 -0.5986 -0.2889  0.5847
   84MOL0     N11506   0.367   3.409   5.202 -1.1525  0.3784  0.1595
   84MOL0     C11507   0.787   3.948   4.706  0.2343 -0.6031  0.6587
   84MOL0     C11508   0.719   3.880   4.602  0.3498 -0.3270  0.1985
   84MOL0     C11509   0.484   3.765   4.272  0.0458  0.5893 -0.0805
   84MOL0     C11510   0.559   3.714   4.166  0.6226  0.3800  0.1146
   84MOL0     C11511   0.519   3.613   4.080 -0.7105  1.0382  0.5698
   84MOL0     C11512   0.391   3.553   4.102 -0.3698 -0.3225 -1.2947
   84MOL0     O11513   0.348   3.460   4.012 -0.2557 -0.2230  0.2098
   84MOL0     C11514   0.260   3.364   4.065  0.5470 -0.3583  0.2092
   84MOL0     C11515   0.263   3.233   3.979 -0.4546  0.5608  0.0224
   84MOL0     C11516   0.268   3.280   3.827  0.1417 -0.5168 -0.1990
   84MOL0     C11517   0.148   3.359   3.781 -0.0103  0.8951 -0.1355
   84MOL0     C11518   0.028   3.276   3.780 -0.3182  0.0033 -0.5475
   84MOL0     C11519  -0.086   3.225   3.776  0.1158 -0.7885  0.0135
   84MOL0     C11520   0.314   3.600   4.213 -0.2920 -0.2209  0.4513
   84MOL0     C11521   0.356   3.705   4.295 -0.2833 -0.3923 -0.2545
   84MOL0     C11522   0.262   3.751   4.395 -0.5819  0.3782 -0.6406
   84MOL0     H11523   0.411   4.049   4.632  0.7865  0.4612  0.2860
   84MOL0     H11524   0.544   4.165   4.810 -0.5113 -0.0928 -0.3993
   84MOL0     H11525   0.593   4.043   5.036  3.5018 -2.5196  2.2438
   84MOL0     H11526   0.652   4.216   5.033  0.5938 -0.1517 -0.3653
   84MOL0     H11527   0.860   4.034   5.132  1.3364  1.0198 -0.0594
   84MOL0     H11528   0.795   4.184   5.176 -0.6484 -0.3067  2.4570
   84MOL0     H11529   0.725   4.050   5.362 -0.8283 -2.0996  0.6820
   84MOL0     H11530   0.582   4.079   5.253 -0.0007  1.4856 -0.1642
   84MOL0     H11531   0.620   3.853   5.158  1.2423  1.4505 -0.3937
   84MOL0     H11532   0.768   3.832   5.245  0.7114  0.7791 -1.5358
   84MOL0     H11533   0.482   3.862   5.378 -0.1669 -1.8844  0.3731
   84MOL0     H11534   0.643   3.839   5.454 -0.4997 -2.2771  1.6598
   84MOL0     H11535   0.493   3.661   5.259  0.7547  1.1811 -0.6030
   84MOL0     H11536   0.667   3.630   5.303 -0.7268 -0.6067 -0.1372
   84MOL0     H11537   0.433   3.636   5.498  1.8404  1.9415  0.9757
   84MOL0     H11538   0.601   3.594   5.532 -1.9907  0.9649  2.6640
   84MOL0     H11539   0.589   3.412   5.349  0.8993  0.4511  1.3647
   84MOL0     H11540   0.504   3.369   5.503 -1.7535 -0.7014 -0.6733
   84MOL0     H11541   0.227   3.432   5.502  0.3615  2.1895  0.4440
   84MOL0     H11542  -0.032   3.420   5.204 -1.5879 -3.0494 -0.0241
   84MOL0     H11543  -0.009   3.470   5.377  4.1776  1.1425  0.0287
   84MOL0     H11544   0.023   3.213   5.426  0.6138  0.9495  0.5795
   84MOL0     H11545  -0.129   3.271   5.372 -0.4249 -0.4688  0.2118
   84MOL0     H11546  -0.121   3.177   5.147  1.0350  0.6220 -1.3657
   84MOL0     H11547   0.042   3.195   5.137 -0.6558  1.7698 -0.2123
   84MOL0     H11548  -0.011   2.962   5.150  0.9046  0.6548  0.2580
   84MOL0     H11549   0.085   2.999   5.288 -1.2345 -0.5286  3.2561
   84MOL0     H11550  -0.301   2.824   5.447  0.3733 -0.8037  2.8276
   84MOL0     H11551  -0.448   2.589   5.451 -0.4847 -1.8504  0.0248
   84MOL0     H11552  -0.356   2.619   5.609  3.4434  0.2961 -0.0723
   84MOL0     H11553  -0.340   2.471   5.542  4.4824  0.6605  0.1915
   84MOL0     H11554  -0.145   2.186   5.202 -1.8990 -1.3176  0.3133
   84MOL0     H11555  -0.115   1.948   5.167 -1.9330  2.0247 -0.8844
   84MOL0     H11556  -0.105   1.727   5.254 -0.6530  3.2373 -2.6413
   84MOL0     H11557  -0.014   1.738   5.108 -3.1628  1.3085  0.0130
   84MOL0     H11558  -0.020   1.508   5.168  0.2725  1.5604 -1.3950
   84MOL0     H11559   0.139   1.549   5.222 -0.4554 -1.8149 -0.4615
   84MOL0     H11560  -0.090   1.456   5.380  0.5681 -2.5745  2.2258
   84MOL0     H11561  -0.001   1.601   5.449  3.7537  1.4982 -1.3946
   84MOL0     H11562   0.209   1.449   5.434  0.4461 -0.5861  4.1369
   84MOL0     H11563   0.095   1.325   5.377  0.3855 -0.4659  1.9184
   84MOL0     H11564  -0.016   1.331   5.600  1.2538 -1.5335  0.0234
   84MOL0     H11565   0.151   1.283   5.608  1.6237  1.5985  3.7093
   84MOL0     H11566   0.034   1.561   5.675  1.0790  0.5141  0.1075
   84MOL0     H11567   0.206   1.531   5.659 -0.6087  1.5165 -1.1117
   84MOL0     H11568   0.183   1.358   5.852 -0.1501  1.1870  2.7230
   84MOL0     H11569  -0.003   1.385   5.848 -0.3372  1.0519 -0.7033
   84MOL0     H11570   0.222   1.588   5.891 -0.5708 -0.8988 -0.8067
   84MOL0     H11571   0.147   1.486   6.022  0.6873 -2.9145 -1.0115
   84MOL0     H11572   0.246   1.961   5.404  0.9831 -1.2286 -1.7623
   84MOL0     H11573   0.206   2.205   5.448  0.3211  0.5011 -0.5461
   84MOL0     H11574   0.093   2.556   5.320 -0.8188 -2.4844 -1.6452
   84MOL0     H11575   0.084   2.782   5.257  0.7384  0.7155  1.9426
   84MOL0     H11576   0.874   3.904   4.752 -0.1118 -1.3700  0.5994
   84MOL0     H11577   0.778   3.808   4.546  0.9948 -1.0446  1.7489
   84MOL0     H11578   0.663   3.742   4.149  0.2997  0.8513 -1.2104
   84MOL0     H11579   0.588   3.567   4.010  0.7100 -1.1332  3.2275
   84MOL0     H11580   0.298   3.342   4.165  1.0431  1.5836  0.4941
   84MOL0     H11581   0.159   3.405   4.072  0.0339 -1.0828 -2.1361
   84MOL0     H11582   0.178   3.170   4.006  0.7611 -0.5771  1.3887
   84MOL0     H11583   0.353   3.174   4.003  0.3142  1.9614  0.7354
   84MOL0     H11584   0.353   3.346   3.807 -0.2117  0.5065  1.4823
   84MOL0     H11585   0.286   3.194   3.762  2.2083 -0.1772 -0.1301
   84MOL0     H11586   0.167   3.393   3.679  4.9019  3.3234  1.2638
   84MOL0     H11587   0.147   3.449   3.843  1.2092 -0.4344  1.9206
   84MOL0     H11588  -0.187   3.189   3.779 -0.7540  1.4849  0.6537
   84MOL0     H11589   0.212   3.563   4.212 -1.1735  1.9975 -1.5591
   84MOL0     H11590   0.268   3.859   4.404 -3.5772  0.5864 -0.0657
   84MOL0     H11591   0.161   3.733   4.357 -2.3770  2.1160  2.8768
   84MOL0     H11592   0.268   3.708   4.496  0.0845  2.5478  0.3035
   85MOL0     O11593  11.341   0.678   4.824 -0.4742 -0.1589  0.1971
   85MOL0     C11594  11.271   0.725   4.913  0.2471  0.0271 -0.0444
   85MOL0     O11595  11.323   0.761   5.042 -0.1877 -0.2523  0.0305
   85MOL0     C11596  11.458   0.743   5.068 -0.1408  0.3949 -0.1655
   85MOL0     C11597  11.561   0.812   5.006  1.3933 -0.1693 -0.7618
   85MOL0     C11598  11.695   0.796   5.040  0.1084  0.3070 -0.0513
   85MOL0     C11599  11.726   0.713   5.153  0.3739  0.4590 -0.5765
   85MOL0     O11600  11.857   0.691   5.202 -0.4435 -0.7075  0.4304
   85MOL0     C11601  11.931   0.811   5.222  0.0781  0.3919  0.3216
   85MOL0     C11602  12.083   0.783   5.227  0.4581  0.4480 -0.4515
   85MOL0     C11603  12.123   0.734   5.363 -0.8775  0.3093 -0.6551
   85MOL0     C11604  12.279   0.707   5.371  0.1403 -0.1914 -0.1952
   85MOL0     C11605  12.329   0.673   5.507 -0.5803 -0.0373 -0.0505
   85MOL0     C11606  12.479   0.638   5.504  0.5622 -0.3556  0.2004
   85MOL0     C11607  12.529   0.594   5.647  0.6092 -0.8340  0.1446
   85MOL0     C11608  12.682   0.601   5.665  0.0184  0.2381 -0.5925
   85MOL0     N11609  12.733   0.732   5.701  0.4223  0.3984 -0.0372
   85MOL0     C11610  12.698   0.813   5.811  0.6914  0.2582  0.2604
   85MOL0     C11611  12.766   0.927   5.787 -0.2656 -0.0409 -0.8345
   85MOL0     C11612  12.759   1.048   5.879  0.5697 -0.0510 -1.1621
   85MOL0     C11613  12.894   1.097   5.929  0.8330 -0.1949 -1.7604
   85MOL0     C11614  12.881   1.243   5.978 -0.4927 -0.0405  0.1249
   85MOL0     C11615  13.016   1.296   6.023 -0.0321 -0.1743 -0.0521
   85MOL0     O11616  12.992   1.419   6.095 -0.7386 -0.0403 -0.3575
   85MOL0     C11617  12.929   1.523   6.022  0.3353  0.6910 -0.6612
   85MOL0     C11618  12.925   1.547   5.880 -0.4409  0.0164  0.3810
   85MOL0     C11619  12.872   1.659   5.821 -0.0448 -0.5564  0.3913
   85MOL0     C11620  12.902   1.670   5.671 -0.4042  0.2058 -0.2530
   85MOL0     C11621  12.791   1.749   5.903 -0.2644  0.7927 -0.3179
   85MOL0     C11622  12.726   1.871   5.837 -0.0330 -0.3257 -0.6077
   85MOL0     O11623  12.701   1.872   5.703 -0.0117  0.2324  0.2193
   85MOL0     C11624  12.610   1.960   5.653  0.8801 -0.4715  1.0442
   85MOL0     C11625  12.591   2.104   5.680 -0.5794  0.8486 -0.6052
   85MOL0     C11626  12.491   2.180   5.618 -0.5714 -0.1161 -0.3052
   85MOL0     C11627  12.407   2.122   5.527 -0.9331 -1.3309 -0.2653
   85MOL0     O11628  12.311   2.204   5.485  0.2110 -0.1002 -0.0248
   85MOL0     C11629  12.185   2.145   5.501  0.2613  0.8447  0.2252
   85MOL0     C11630  12.071   2.253   5.499 -0.2201 -0.6443  0.0226
   85MOL0     C11631  11.937   2.199   5.527  0.3939  0.8294 -0.6078
   85MOL0     C11632  11.905   2.213   5.682 -0.5331 -1.3270  0.3665
   85MOL0     C11633  11.758   2.175   5.705  0.2574  0.0854  0.3024
   85MOL0     C11634  11.721   2.147   5.847  1.0432 -0.5238 -0.7091
   85MOL0     C11635  11.594   2.067   5.856 -0.3189  0.1699 -0.9055
   85MOL0     C11636  11.608   1.921   5.880  0.0933 -0.5914 -0.0330
   85MOL0    Cl11637  11.668   1.831   5.737  0.4325 -0.1578 -0.2276
   85MOL0     C11638  12.422   1.989   5.498 -0.3182  0.0944  0.2684
   85MOL0     C11639  12.511   1.909   5.573  0.2571  0.0938 -0.0784
   85MOL0     O11640  12.699   1.966   5.916 -0.5385  0.3653 -0.3069
   85MOL0     C11641  12.798   1.730   6.043 -0.7291  0.1014 -0.3804
   85MOL0     C11642  12.872   1.625   6.098 -0.2611  0.4824  0.9441
   85MOL0     N11643  12.828   0.917   5.662 -0.3169  0.5139  0.9842
   85MOL0     N11644  12.819   0.797   5.621  0.2916 -0.1619 -1.0569
   85MOL0     C11645  11.621   0.647   5.221 -0.1976  0.2222 -0.5041
   85MOL0     C11646  11.489   0.663   5.182 -0.2864 -0.3761 -0.0333
   85MOL0     C11647  11.139   0.792   4.877 -0.4920 -0.9984 -0.5757
   85MOL0     C11648  11.104   0.899   4.956  1.0462  0.2250  0.9439
   85MOL0     C11649  10.975   0.957   4.940  0.0831 -1.7364 -0.1065
   85MOL0     C11650  10.885   0.904   4.842 -0.6117 -0.3496 -1.2766
   85MOL0     O11651  10.767   0.969   4.835 -0.6833  0.7658 -0.0883
   85MOL0     C11652  10.663   0.897   4.755  1.1402 -0.6472 -1.0766
   85MOL0     C11653  10.541   0.987   4.759  0.6776 -0.7928 -0.3366
   85MOL0     C11654  10.487   0.991   4.910 -1.0531 -0.3895  0.2639
   85MOL0     C11655  10.335   1.034   4.916  0.1436 -0.0946  1.3391
   85MOL0     C11656  10.299   1.064   5.053  0.2571  1.0515 -0.5375
   85MOL0     C11657  10.270   1.081   5.171 -0.4761  0.2836  0.0917
   85MOL0     C11658  10.925   0.800   4.770  0.0009  0.7517  0.8540
   85MOL0     C11659  11.047   0.734   4.786  0.8378 -0.4627  1.2573
   85MOL0     C11660  11.077   0.624   4.690 -0.1624  0.0333  0.1424
   85MOL0     H11661  11.527   0.877   4.927  1.8598 -0.4880 -1.2322
   85MOL0     H11662  11.766   0.855   4.983 -1.7217 -0.2730 -3.1908
   85MOL0     H11663  11.891   0.855   5.315 -0.6924 -2.9972  1.7413
   85MOL0     H11664  11.902   0.890   5.152 -0.8391  0.4678  0.7611
   85MOL0     H11665  12.108   0.704   5.156  2.2977 -1.5547  2.2149
   85MOL0     H11666  12.137   0.873   5.199  0.4962  1.1387  1.6578
   85MOL0     H11667  12.108   0.809   5.441 -2.0399 -0.4968 -0.0862
   85MOL0     H11668  12.070   0.642   5.389  0.0534 -0.9651 -2.9574
   85MOL0     H11669  12.308   0.622   5.309  1.0492 -0.6785  0.8639
   85MOL0     H11670  12.330   0.787   5.317  1.6300 -2.9448 -3.2258
   85MOL0     H11671  12.274   0.589   5.549  3.0702 -3.6374 -1.7115
   85MOL0     H11672  12.317   0.768   5.560  1.3378  1.0763 -1.4549
   85MOL0     H11673  12.493   0.553   5.437 -0.9001 -2.5001  2.4495
   85MOL0     H11674  12.544   0.719   5.471  0.6929 -0.6610 -0.2962
   85MOL0     H11675  12.484   0.496   5.666 -1.5224 -0.2093 -1.3602
   85MOL0     H11676  12.476   0.659   5.718 -0.1996  1.5368 -2.4573
   85MOL0     H11677  12.697   0.526   5.744 -3.5187  0.2055  0.2022
   85MOL0     H11678  12.719   0.566   5.568  2.4690 -0.7081  0.5661
   85MOL0     H11679  12.625   0.785   5.887  0.2500 -1.2971 -0.7048
   85MOL0     H11680  12.697   1.024   5.965  0.5568 -0.1133 -1.1888
   85MOL0     H11681  12.707   1.127   5.824  0.8859  1.5574  0.7564
   85MOL0     H11682  12.935   1.039   6.012  2.5917 -0.4992 -2.7893
   85MOL0     H11683  12.968   1.090   5.849  0.8526 -1.4872 -1.6562
   85MOL0     H11684  12.844   1.303   5.894 -0.9253  1.5439  1.3768
   85MOL0     H11685  12.812   1.255   6.062 -4.2124 -1.6606 -2.4423
   85MOL0     H11686  13.065   1.224   6.089 -4.9461 -5.0845 -1.0963
   85MOL0     H11687  13.081   1.317   5.938 -0.8100  3.4515  0.0779
   85MOL0     H11688  12.987   1.477   5.824  0.0584  0.6288  0.1540
   85MOL0     H11689  12.987   1.605   5.647 -0.1921  0.9706 -1.6561
   85MOL0     H11690  12.924   1.767   5.625  2.7451  0.7702  2.1160
   85MOL0     H11691  12.819   1.620   5.621 -0.5407 -0.7111  0.8441
   85MOL0     H11692  12.671   2.129   5.748 -0.7384 -2.4300  0.9733
   85MOL0     H11693  12.476   2.283   5.650  2.4455  0.3135  0.0512
   85MOL0     H11694  12.163   2.078   5.417  2.1077  1.1195 -0.5248
   85MOL0     H11695  12.173   2.083   5.590  0.1800 -1.0696 -1.0417
   85MOL0     H11696  12.110   2.333   5.564  4.4637 -0.3640 -2.6513
   85MOL0     H11697  12.069   2.296   5.399 -1.6621 -0.5017  0.0992
   85MOL0     H11698  11.918   2.101   5.482 -1.1633  0.7728  0.0902
   85MOL0     H11699  11.875   2.263   5.463 -1.1594  0.0568  0.0580
   85MOL0     H11700  11.924   2.318   5.707  0.3440 -1.8713  2.2292
   85MOL0     H11701  11.976   2.147   5.733 -1.2014 -1.4385  1.1689
   85MOL0     H11702  11.695   2.257   5.669  2.8279  1.9571 -0.2040
   85MOL0     H11703  11.734   2.085   5.647 -3.2197 -0.0478  1.7200
   85MOL0     H11704  11.726   2.245   5.894  2.5027 -0.7352 -0.3574
   85MOL0     H11705  11.803   2.090   5.892  1.4904  1.5169  1.1887
   85MOL0     H11706  11.540   2.094   5.765 -0.3797  0.7028 -0.7125
   85MOL0     H11707  11.525   2.097   5.935 -1.4520  0.0101 -1.8048
   85MOL0     H11708  11.504   1.890   5.895  0.5484 -2.4570 -0.5053
   85MOL0     H11709  11.656   1.905   5.976  0.0120  4.6964  1.2199
   85MOL0     H11710  12.357   1.945   5.423 -1.7296 -1.1607  2.1239
   85MOL0     H11711  12.521   1.806   5.540 -2.0266 -0.2041 -0.0164
   85MOL0     H11712  12.760   1.803   6.115  2.7688  0.0158  1.7899
   85MOL0     H11713  12.880   1.610   6.205  1.4204 -4.7088  0.3728
   85MOL0     H11714  11.642   0.569   5.295 -0.8177  0.1517 -0.3960
   85MOL0     H11715  11.407   0.611   5.230 -1.2642  0.8841 -0.2906
   85MOL0     H11716  11.175   0.946   5.023 -0.2562  0.3951  2.2355
   85MOL0     H11717  10.936   1.046   4.988 -2.8102 -2.6989 -0.4936
   85MOL0     H11718  10.693   0.875   4.652  3.0530 -0.6368 -0.5609
   85MOL0     H11719  10.630   0.803   4.799 -2.4967  0.6687 -0.5987
   85MOL0     H11720  10.458   0.941   4.705  0.6146 -1.1903  0.0903
   85MOL0     H11721  10.566   1.087   4.722 -2.5458  0.2335 -0.0648
   85MOL0     H11722  10.492   0.889   4.950  2.1413  0.4266  2.2673
   85MOL0     H11723  10.551   1.049   4.977  0.1343 -0.0287 -1.1237
   85MOL0     H11724  10.266   0.968   4.863  2.2161  0.6915 -2.7263
   85MOL0     H11725  10.321   1.122   4.852  0.1352 -0.3919  0.9313
   85MOL0     H11726  10.257   1.085   5.277  0.8567  1.5122  0.2442
   85MOL0     H11727  10.857   0.761   4.694  0.9335 -1.8711  1.2414
   85MOL0     H11728  10.995   0.605   4.620 -1.3712  1.5574  1.0937
   85MOL0     H11729  11.160   0.645   4.623 -1.8063 -0.1713 -2.0681
   85MOL0     H11730  11.103   0.531   4.742 -1.2299 -0.9563 -1.0253
   86MOL0     O11731   7.347   9.317   9.056 -0.3005  0.0257 -0.4268
   86MOL0     C11732   7.299   9.200   9.066  0.4487  0.3242  0.2320
   86MOL0     O11733   7.301   9.118   9.168 -0.1775  0.5751 -0.5076
   86MOL0     C11734   7.371   9.149   9.278  0.6081  0.6243  0.2183
   86MOL0     C11735   7.325   9.243   9.371  0.2007  0.0059 -0.5391
   86MOL0     C11736   7.401   9.290   9.479  0.0574 -0.1367 -0.2582
   86MOL0     C11737   7.529   9.235   9.495 -0.1195 -0.2057  0.3021
   86MOL0     O11738   7.604   9.283   9.599 -0.2781 -0.2820  0.0418
   86MOL0     C11739   7.748   9.266   9.586 -0.1320 -0.4285  0.7135
   86MOL0     C11740   7.822   9.362   9.677 -0.4446  0.0901 -0.8551
   86MOL0     C11741   7.763   9.497   9.680  0.6462  0.1792  0.0484
   86MOL0     C11742   7.870   9.610   9.682  0.4594  0.4722 -0.3470
   86MOL0     C11743   7.954   9.625   9.811  0.5059 -0.0393  0.2535
   86MOL0     C11744   8.022   9.758   9.809 -0.0867 -0.5328 -0.8479
   86MOL0     C11745   8.114   9.765   9.930 -1.3575  0.4547 -1.0377
   86MOL0     C11746   8.157   9.906   9.949 -0.7176 -0.5686  0.2448
   86MOL0     N11747   8.247   9.921  10.066 -0.1113 -0.8422 -0.6873
   86MOL0     C11748   8.369   9.861  10.084  0.4853 -0.0582  0.4603
   86MOL0     C11749   8.418   9.901  10.205 -0.2275  0.2354  0.0261
   86MOL0     C11750   8.544   9.849  10.269  0.3522  0.5259 -1.0185
   86MOL0     C11751   8.672   9.935  10.240  0.3153  0.0677  0.2168
   86MOL0     C11752   8.778   9.884  10.336 -0.1492  0.0667 -0.5602
   86MOL0     C11753   8.898   9.971  10.311 -0.2066  0.2450 -0.1042
   86MOL0     O11754   9.008   9.908  10.378  0.1755  0.3454 -0.0976
   86MOL0     C11755   9.140   9.943  10.346  0.5456  0.7396  0.9459
   86MOL0     C11756   9.240   9.856  10.386 -1.0570  0.1332 -0.0223
   86MOL0     C11757   9.376   9.874  10.347 -0.3389 -0.4957  0.1822
   86MOL0     C11758   9.466   9.758  10.367 -0.3279  0.2728  0.3337
   86MOL0     C11759   9.412   9.998  10.286  0.0318 -1.2149  1.0917
   86MOL0     C11760   9.549  10.029  10.231 -0.1299 -0.3936 -0.3982
   86MOL0     O11761   9.569  10.155  10.188  0.0506  0.6329  0.2433
   86MOL0     C11762   9.691  10.203  10.150  0.6087  0.2493 -0.2790
   86MOL0     C11763   9.710  10.238  10.011 -0.1613 -0.4368 -0.0173
   86MOL0     C11764   9.835  10.255   9.959 -0.7663 -0.1125 -0.1677
   86MOL0     C11765   9.944  10.249  10.051 -0.2879 -0.1608 -0.0568
   86MOL0     O11766  10.079  10.267  10.014 -0.3177 -0.3160 -0.6140
   86MOL0     C11767  10.129  10.226   9.889 -0.9054 -0.1683 -0.0628
   86MOL0     C11768  10.278  10.274   9.878 -0.3226 -0.3461 -0.2548
   86MOL0     C11769  10.342  10.249   9.742 -0.6430  0.4181  0.9874
   86MOL0     C11770  10.470  10.328   9.720  0.1655 -0.1128 -0.1850
   86MOL0     C11771  10.540  10.292   9.586 -0.1697 -0.5846  0.0781
   86MOL0     C11772  10.665  10.379   9.550 -0.3966  0.4557 -0.3158
   86MOL0     C11773  10.758  10.309   9.442  0.9639  1.0322 -0.7049
   86MOL0     C11774  10.865  10.390   9.369  0.3572  0.2838 -0.2950
   86MOL0    Cl11775  10.980  10.301   9.273  0.4164  0.0574  0.4562
   86MOL0     C11776   9.922  10.221  10.190 -0.2050  0.3178 -0.2141
   86MOL0     C11777   9.791  10.207  10.242 -0.3377 -0.0950  0.5313
   86MOL0     O11778   9.628   9.941  10.228  0.0781  0.0085  0.6532
   86MOL0     C11779   9.313  10.099  10.269  0.1578 -0.2561 -0.0095
   86MOL0     C11780   9.176  10.068  10.299  0.1579  0.2347 -0.0903
   86MOL0     N11781   8.319   9.990  10.258 -0.6413  0.4656 -0.4074
   86MOL0     N11782   8.221  10.002  10.174 -0.4749  0.1979  1.2064
   86MOL0     C11783   7.570   9.133   9.409 -0.3374 -0.3317 -0.2336
   86MOL0     C11784   7.491   9.084   9.301 -0.7557  0.2394  0.6103
   86MOL0     C11785   7.237   9.145   8.941  0.4362  0.1034  0.2948
   86MOL0     C11786   7.144   9.039   8.959  0.5854 -0.3397 -0.2956
   86MOL0     C11787   7.094   8.963   8.850  0.2166 -0.1498 -0.5899
   86MOL0     C11788   7.116   9.004   8.718  0.4994  0.3411 -0.2334
   86MOL0     O11789   7.063   8.928   8.616 -0.3367  0.0627 -0.2809
   86MOL0     C11790   7.136   8.940   8.487  0.4345 -0.3853 -0.2035
   86MOL0     C11791   7.045   9.023   8.394 -0.6267  0.4979  0.0873
   86MOL0     C11792   6.906   8.964   8.376 -0.1328 -0.3717 -0.2770
   86MOL0     C11793   6.831   9.048   8.267 -0.1735  0.4065 -0.4951
   86MOL0     C11794   6.789   9.173   8.326  0.0725  0.2934  0.1534
   86MOL0     C11795   6.765   9.282   8.364 -0.6840 -0.0414 -0.0351
   86MOL0     C11796   7.178   9.127   8.703  1.0798 -0.9808 -0.4988
   86MOL0     C11797   7.248   9.196   8.808  0.2450 -0.2207  0.4439
   86MOL0     C11798   7.325   9.324   8.767 -0.3512  0.0609  0.4712
   86MOL0     H11799   7.220   9.263   9.353 -0.0283  0.7511  1.3316
   86MOL0     H11800   7.371   9.357   9.558  1.6603 -0.6979  0.8776
   86MOL0     H11801   7.783   9.281   9.483 -1.8016 -1.3986 -0.0314
   86MOL0     H11802   7.779   9.164   9.608  1.1726  0.1191  1.5709
   86MOL0     H11803   7.821   9.324   9.780 -3.5113  0.0789 -0.7928
   86MOL0     H11804   7.926   9.360   9.644 -0.1445 -1.7280  0.0350
   86MOL0     H11805   7.702   9.519   9.592  1.5115  2.9776  0.0710
   86MOL0     H11806   7.710   9.523   9.772 -0.2161  1.2292 -0.7173
   86MOL0     H11807   7.927   9.589   9.592 -0.6231 -1.9099 -0.5490
   86MOL0     H11808   7.819   9.706   9.670  0.9457  0.7043 -0.5940
   86MOL0     H11809   8.026   9.543   9.817  0.5442 -0.0683 -0.4531
   86MOL0     H11810   7.884   9.626   9.894 -2.4561  4.1543 -1.8896
   86MOL0     H11811   8.078   9.770   9.715 -0.8162 -2.3177 -1.5764
   86MOL0     H11812   7.949   9.838   9.823 -1.5538 -1.6834 -1.5826
   86MOL0     H11813   8.195   9.693   9.934  0.4118  2.2722  4.2592
   86MOL0     H11814   8.058   9.724  10.014 -0.2484  1.4627  0.2338
   86MOL0     H11815   8.206   9.933   9.855 -2.7398  1.6316 -0.2753
   86MOL0     H11816   8.082   9.985   9.943 -0.0535 -0.0251 -2.6111
   86MOL0     H11817   8.390   9.776  10.020 -1.3759 -0.6929  0.6439
   86MOL0     H11818   8.563   9.747  10.234  1.4947  0.6357 -0.7835
   86MOL0     H11819   8.520   9.860  10.375 -0.3105  0.4291 -1.1576
   86MOL0     H11820   8.702   9.932  10.135 -2.1162 -3.0924 -0.5482
   86MOL0     H11821   8.640  10.037  10.264 -3.3080 -0.8030 -0.2697
   86MOL0     H11822   8.752   9.888  10.443  0.5420  1.0902 -0.4220
   86MOL0     H11823   8.782   9.776  10.319 -1.3609 -0.4310  1.8109
   86MOL0     H11824   8.917   9.986  10.204 -0.7853 -0.2283 -0.2798
   86MOL0     H11825   8.874  10.072  10.346  0.6295  0.1216  0.8780
   86MOL0     H11826   9.215   9.767  10.444  1.3062 -0.5271  0.0809
   86MOL0     H11827   9.411   9.673  10.407 -0.1053  0.5443  1.2358
   86MOL0     H11828   9.541   9.782  10.443  0.0117  2.2933 -0.5789
   86MOL0     H11829   9.521   9.721  10.279  0.1548  3.9789 -1.0901
   86MOL0     H11830   9.620  10.243   9.950  0.3244  2.8335 -0.6631
   86MOL0     H11831   9.851  10.256   9.851 -1.6278 -2.4422 -0.3757
   86MOL0     H11832  10.132  10.117   9.895  0.8693 -0.1181  0.3060
   86MOL0     H11833  10.064  10.270   9.813 -1.6257  1.2007  1.2753
   86MOL0     H11834  10.276  10.379   9.909 -0.3303 -0.1426 -0.9247
   86MOL0     H11835  10.337  10.227   9.957  0.9241  2.5022  0.6322
   86MOL0     H11836  10.276  10.269   9.657  1.8382  1.3108 -0.8469
   86MOL0     H11837  10.379  10.146   9.733 -1.2302  0.3214 -0.7829
   86MOL0     H11838  10.536  10.313   9.806  0.7669 -1.2314 -0.8259
   86MOL0     H11839  10.435  10.432   9.729  0.7007  0.1483 -1.0227
   86MOL0     H11840  10.588  10.195   9.599  1.7568  0.4896  1.6913
   86MOL0     H11841  10.467  10.283   9.506  1.1285 -2.1764 -0.9773
   86MOL0     H11842  10.723  10.377   9.643  0.1852 -0.6545 -0.6809
   86MOL0     H11843  10.629  10.476   9.515  1.1069  1.4550  0.8278
   86MOL0     H11844  10.692  10.263   9.367  1.0076 -0.9097  0.3960
   86MOL0     H11845  10.813  10.229   9.491  0.7115  0.7314 -0.9074
   86MOL0     H11846  10.924  10.461   9.427  0.6998 -0.0234 -0.2588
   86MOL0     H11847  10.815  10.457   9.299 -1.6844 -1.6769 -0.8271
   86MOL0     H11848  10.010  10.212  10.252  0.6933  1.8102 -1.1920
   86MOL0     H11849   9.783  10.184  10.348  0.0418 -2.2412  0.1473
   86MOL0     H11850   9.337  10.199  10.232 -0.1115  2.0085  5.1184
   86MOL0     H11851   9.102  10.146  10.286 -1.0185 -0.8036  0.1940
   86MOL0     H11852   7.670   9.094   9.427 -0.8971 -0.8623  1.9598
   86MOL0     H11853   7.528   9.009   9.233  1.1421  2.4143 -0.8921
   86MOL0     H11854   7.107   9.010   9.057 -2.2874  1.9177 -0.5726
   86MOL0     H11855   7.041   8.873   8.875 -0.3242  0.7749  1.9397
   86MOL0     H11856   7.235   8.986   8.494 -0.4662  2.4849 -3.3760
   86MOL0     H11857   7.149   8.841   8.442 -0.7592 -0.1940 -1.0035
   86MOL0     H11858   7.098   9.032   8.299 -0.0374 -1.8233  0.1318
   86MOL0     H11859   7.042   9.121   8.441  1.1780  0.9829 -0.7238
   86MOL0     H11860   6.922   8.860   8.346  2.1454 -0.2586  0.3345
   86MOL0     H11861   6.844   8.971   8.466 -1.8861  0.7130 -1.4924
   86MOL0     H11862   6.743   8.993   8.233 -1.3520  1.1593  1.1694
   86MOL0     H11863   6.903   9.055   8.186  1.7676  1.7017  1.2346
   86MOL0     H11864   6.753   9.377   8.412  1.2635 -1.4311  3.6739
   86MOL0     H11865   7.189   9.164   8.601  1.1916 -1.5693 -0.7015
   86MOL0     H11866   7.417   9.330   8.827 -0.3674  1.3288  0.3891
   86MOL0     H11867   7.354   9.322   8.662  0.7805 -1.1589  0.7789
   86MOL0     H11868   7.268   9.416   8.783 -1.1745 -0.5886  1.4002
   87MOL0     O11869   6.099   7.176   9.186 -0.8553 -0.5224  0.0359
   87MOL0     C11870   6.092   7.274   9.259 -1.1640 -0.3637  0.3471
   87MOL0     O11871   6.191   7.324   9.336 -0.2176  0.2345  0.2257
   87MOL0     C11872   6.305   7.244   9.345  0.7887 -0.5477  0.5293
   87MOL0     C11873   6.343   7.204   9.471 -0.2405  0.0863  0.1920
   87MOL0     C11874   6.446   7.117   9.489 -0.5233 -0.6066  0.8760
   87MOL0     C11875   6.530   7.090   9.384  0.2299 -0.3493  0.5168
   87MOL0     O11876   6.640   7.016   9.417  0.2615 -0.0602  0.1929
   87MOL0     C11877   6.724   6.961   9.318  0.0493  0.4865 -0.4320
   87MOL0     C11878   6.803   6.854   9.396  0.1939  0.7270 -0.0887
   87MOL0     C11879   6.885   6.757   9.315  0.4031 -0.2539  0.0533
   87MOL0     C11880   7.007   6.696   9.385 -0.0752 -0.2709  1.2052
   87MOL0     C11881   7.067   6.570   9.312 -0.6526  0.1497 -1.0143
   87MOL0     C11882   7.138   6.607   9.177  0.7331  0.3096 -0.6697
   87MOL0     C11883   7.255   6.514   9.148 -0.4042  0.5275 -0.7226
   87MOL0     C11884   7.378   6.575   9.196  0.3538 -0.5927  0.1915
   87MOL0     N11885   7.486   6.473   9.212  0.3817  0.2200  0.5982
   87MOL0     C11886   7.605   6.484   9.144 -0.1512  1.0845  0.4483
   87MOL0     C11887   7.689   6.384   9.201  0.2740  0.4703  0.4804
   87MOL0     C11888   7.825   6.354   9.163 -0.5231 -0.1890  0.1601
   87MOL0     C11889   7.913   6.421   9.275 -0.3724 -0.9866  0.0736
   87MOL0     C11890   8.035   6.347   9.319 -0.1889 -0.0368  1.3607
   87MOL0     C11891   8.144   6.435   9.390  0.0580  0.2667 -0.1688
   87MOL0     O11892   8.264   6.384   9.447  0.1105  0.4170 -0.6780
   87MOL0     C11893   8.361   6.334   9.354 -0.0696 -0.1686 -0.1764
   87MOL0     C11894   8.461   6.255   9.398  0.3515  0.3827 -0.6524
   87MOL0     C11895   8.550   6.191   9.313 -0.8076 -0.2149  0.0529
   87MOL0     C11896   8.656   6.108   9.382  0.1617  0.2453 -0.2030
   87MOL0     C11897   8.547   6.222   9.176  0.3483 -0.0415  0.9806
   87MOL0     C11898   8.644   6.180   9.070  0.4654  0.3325  0.9859
   87MOL0     O11899   8.609   6.215   8.938  0.0943  0.5443  0.4954
   87MOL0     C11900   8.697   6.180   8.832  0.1241 -0.0394  0.0381
   87MOL0     C11901   8.839   6.195   8.827  0.0724 -0.7071 -0.0497
   87MOL0     C11902   8.907   6.160   8.708 -0.3440 -0.0452 -0.5250
   87MOL0     C11903   8.852   6.100   8.596  0.1170  0.4799 -0.2358
   87MOL0     O11904   8.918   6.070   8.484 -0.5735 -0.3503 -0.1073
   87MOL0     C11905   8.915   5.927   8.466  0.4505 -0.5835  1.0140
   87MOL0     C11906   9.039   5.879   8.390 -0.8332  0.1163 -0.1044
   87MOL0     C11907   9.173   5.939   8.440 -0.2917  0.2403  0.5081
   87MOL0     C11908   9.281   5.873   8.354 -0.5526 -0.7889 -0.1678
   87MOL0     C11909   9.308   5.720   8.369  0.8125  0.2936  0.4795
   87MOL0     C11910   9.416   5.673   8.282  0.1619 -0.8528  0.5119
   87MOL0     C11911   9.549   5.724   8.333 -0.6423  0.8953 -0.0159
   87MOL0     C11912   9.652   5.654   8.240 -0.5206 -0.7563  0.2915
   87MOL0    Cl11913   9.661   5.479   8.288 -0.2012  0.1752 -0.3775
   87MOL0     C11914   8.707   6.089   8.604  0.9988 -0.1427 -0.3540
   87MOL0     C11915   8.639   6.126   8.721  0.0327  0.4079 -0.4593
   87MOL0     O11916   8.746   6.132   9.107 -0.2413  0.1334  0.6952
   87MOL0     C11917   8.449   6.311   9.129 -0.0461 -1.0697 -0.0289
   87MOL0     C11918   8.353   6.356   9.212 -0.1654  0.3839  0.3036
   87MOL0     N11919   7.606   6.325   9.301 -0.2938 -0.5929  0.1187
   87MOL0     N11920   7.486   6.369   9.300  0.6133 -0.3585 -0.0845
   87MOL0     C11921   6.495   7.127   9.255  0.6192 -0.3289 -0.3072
   87MOL0     C11922   6.386   7.210   9.236  0.6204  0.3351 -0.6470
   87MOL0     C11923   5.973   7.359   9.252 -0.2146  0.1372  0.6475
   87MOL0     C11924   5.989   7.493   9.223 -0.0753  0.4772 -0.7241
   87MOL0     C11925   5.882   7.580   9.228  0.1673  0.0367  0.5947
   87MOL0     C11926   5.754   7.533   9.246 -0.5451  0.0865  0.0221
   87MOL0     O11927   5.659   7.626   9.218  0.3445  0.5289 -0.5307
   87MOL0     C11928   5.524   7.608   9.281 -0.4053  0.2811 -0.3578
   87MOL0     C11929   5.522   7.603   9.433  0.7010  0.2551 -1.2576
   87MOL0     C11930   5.591   7.725   9.494 -0.3225 -0.4320 -0.3135
   87MOL0     C11931   5.538   7.741   9.636  0.2989 -0.4263  0.6603
   87MOL0     C11932   5.554   7.615   9.716 -0.1887  0.3150  0.3006
   87MOL0     C11933   5.573   7.523   9.793 -0.8137  0.5327 -0.3781
   87MOL0     C11934   5.738   7.399   9.280  0.4647  0.6685 -0.8612
   87MOL0     C11935   5.844   7.308   9.282 -0.0051 -0.1139  0.3165
   87MOL0     C11936   5.823   7.168   9.328  0.0459  0.5517 -0.3025
   87MOL0     H11937   6.276   7.237   9.550  0.3501  1.1824  0.2512
   87MOL0     H11938   6.465   7.078   9.588 -0.4704  0.6676  1.3854
   87MOL0     H11939   6.784   7.046   9.283 -0.2210  0.5445 -0.7612
   87MOL0     H11940   6.672   6.930   9.227  0.5785  0.1209 -0.6081
   87MOL0     H11941   6.879   6.908   9.454  1.4615 -1.0483 -0.0317
   87MOL0     H11942   6.736   6.802   9.465 -1.3818  2.0256 -0.5724
   87MOL0     H11943   6.822   6.669   9.300 -0.2975  0.5267 -1.8653
   87MOL0     H11944   6.905   6.797   9.215 -0.3620  3.6156  1.2737
   87MOL0     H11945   7.078   6.778   9.403 -2.1821  1.7688  0.7955
   87MOL0     H11946   6.971   6.677   9.486  1.1163  0.9794  1.9050
   87MOL0     H11947   6.985   6.498   9.306 -3.1830  2.8475 -0.9827
   87MOL0     H11948   7.143   6.531   9.380 -0.2235 -1.5069 -2.3796
   87MOL0     H11949   7.063   6.610   9.098 -2.0841  1.4959  1.8488
   87MOL0     H11950   7.181   6.705   9.197 -1.6412  1.3464 -0.3706
   87MOL0     H11951   7.270   6.501   9.041 -0.8075 -0.6576 -0.6519
   87MOL0     H11952   7.254   6.413   9.191  1.5557  1.1463  0.9906
   87MOL0     H11953   7.408   6.646   9.119  1.4268 -4.5375 -3.3791
   87MOL0     H11954   7.365   6.604   9.301  0.7455  2.0048 -0.4188
   87MOL0     H11955   7.628   6.572   9.085 -0.1254  1.2292  0.6718
   87MOL0     H11956   7.849   6.387   9.061  0.3487  0.7404  0.6448
   87MOL0     H11957   7.835   6.246   9.176  2.7428  0.0905  0.9213
   87MOL0     H11958   7.936   6.523   9.244 -0.1635 -1.2040 -0.5040
   87MOL0     H11959   7.854   6.427   9.367 -1.2308  2.5397 -0.5505
   87MOL0     H11960   8.016   6.257   9.378 -2.1010 -1.2989 -1.0071
   87MOL0     H11961   8.099   6.309   9.239 -2.0796 -1.4243  0.4178
   87MOL0     H11962   8.173   6.515   9.322  0.4526  1.2870  1.1525
   87MOL0     H11963   8.091   6.477   9.475  1.9311 -2.4077  2.5414
   87MOL0     H11964   8.466   6.233   9.504  0.4256 -0.5445 -0.8366
   87MOL0     H11965   8.744   6.164   9.417  1.4018 -2.3771  1.0946
   87MOL0     H11966   8.695   6.029   9.317 -0.2303 -0.0134 -0.1282
   87MOL0     H11967   8.609   6.063   9.469 -1.1702  2.2045  0.1687
   87MOL0     H11968   8.875   6.238   8.919 -3.4130 -1.0262  1.6124
   87MOL0     H11969   9.014   6.172   8.717 -0.0389  0.5643 -3.7624
   87MOL0     H11970   8.919   5.878   8.564  1.3840  2.0989  2.4081
   87MOL0     H11971   8.829   5.900   8.404  0.1483  1.5285  0.4512
   87MOL0     H11972   9.051   5.770   8.388 -2.6652 -0.0988 -1.6016
   87MOL0     H11973   9.019   5.923   8.292 -2.3818  1.0874  0.6153
   87MOL0     H11974   9.201   5.902   8.539  0.4316 -3.9424 -1.0446
   87MOL0     H11975   9.176   6.048   8.431 -0.9635  0.3030  1.0139
   87MOL0     H11976   9.375   5.916   8.390 -0.1344 -0.9772 -0.9947
   87MOL0     H11977   9.263   5.903   8.250 -0.2438 -2.7794 -0.8368
   87MOL0     H11978   9.319   5.683   8.471 -0.1811 -1.6801 -0.0829
   87MOL0     H11979   9.220   5.665   8.334  0.6400 -1.4935  3.3892
   87MOL0     H11980   9.395   5.716   8.183 -2.2658 -2.0917  0.4142
   87MOL0     H11981   9.425   5.565   8.267 -1.3588 -0.7692 -1.4236
   87MOL0     H11982   9.545   5.695   8.439 -0.4246  2.9285  0.5886
   87MOL0     H11983   9.556   5.832   8.323 -0.4304  0.7096 -2.2883
   87MOL0     H11984   9.752   5.696   8.227 -0.8817 -0.8326 -4.7287
   87MOL0     H11985   9.621   5.650   8.135 -0.6690  0.3226  0.2786
   87MOL0     H11986   8.637   6.061   8.526 -1.0110 -3.2054  2.2955
   87MOL0     H11987   8.531   6.121   8.717 -0.1950  2.6872  1.1031
   87MOL0     H11988   8.445   6.350   9.028 -0.0114  0.6319  0.5837
   87MOL0     H11989   8.272   6.414   9.169 -0.6305 -0.3333  0.1909
   87MOL0     H11990   6.558   7.103   9.170  0.4836  4.1204 -1.9669
   87MOL0     H11991   6.329   7.218   9.144 -2.7168 -1.9494  0.9927
   87MOL0     H11992   6.089   7.536   9.219  0.7241 -0.8080  2.3392
   87MOL0     H11993   5.897   7.683   9.198  0.2868 -0.0336  0.4151
   87MOL0     H11994   5.460   7.687   9.242  2.3112  1.8754 -1.9071
   87MOL0     H11995   5.493   7.512   9.239  2.6415 -0.6373 -0.7729
   87MOL0     H11996   5.574   7.517   9.474 -2.0725 -0.3183  1.4074
   87MOL0     H11997   5.417   7.594   9.463  0.4448 -3.5900 -2.7765
   87MOL0     H11998   5.700   7.714   9.500 -0.2501  0.8000  2.7412
   87MOL0     H11999   5.574   7.818   9.439 -2.9410 -0.3221  0.5400
   87MOL0     H12000   5.431   7.765   9.640  0.7505  2.7277 -2.0034
   87MOL0     H12001   5.585   7.824   9.689 -1.0555  1.4699 -0.9543
   87MOL0     H12002   5.599   7.441   9.858 -0.3677  1.3832  0.5328
   87MOL0     H12003   5.639   7.355   9.294  0.8471  0.0030 -0.1306
   87MOL0     H12004   5.909   7.143   9.391  0.7019  1.9441 -0.6104
   87MOL0     H12005   5.728   7.144   9.375  0.6439 -2.9810 -0.5617
   87MOL0     H12006   5.835   7.100   9.243  1.5989 -1.5651  1.4895
   88MOL0     O12007   0.554   0.815  10.007 -0.1018 -0.2856 -0.4655
   88MOL0     C12008   0.512   0.870  10.110  0.3669 -0.1845  0.4547
   88MOL0     O12009   0.563   0.847  10.238  0.0077 -0.0981  0.1193
   88MOL0     C12010   0.657   0.751  10.254  0.2298  0.8062 -0.1298
   88MOL0     C12011   0.758   0.793  10.344 -0.0384  0.7258 -0.0347
   88MOL0     C12012   0.882   0.715  10.345  1.2168  0.2589  0.5965
   88MOL0     C12013   0.882   0.594  10.282  0.3272  0.1637  0.2742
   88MOL0     O12014   0.994   0.508  10.278  0.2353 -0.5514  0.6817
   88MOL0     C12015   1.058   0.498  10.401 -0.2612  0.2741  0.8659
   88MOL0     C12016   1.122   0.358  10.422  0.2486  0.3881 -0.5874
   88MOL0     C12017   1.231   0.335  10.322 -0.4124  0.1651  0.3841
   88MOL0     C12018   1.288   0.191  10.328 -0.5810 -1.0107  0.2406
   88MOL0     C12019   1.435   0.188  10.280  0.0836  0.9808  0.0580
   88MOL0     C12020   1.462   0.220  10.125 -1.2936  0.0782  0.8333
   88MOL0     C12021   1.610   0.264  10.100  0.8765  0.6325  0.0675
   88MOL0     C12022   1.712   0.178  10.170 -0.6297  1.7643 -0.7176
   88MOL0     N12023   1.850   0.220  10.147  0.0597  0.5592 -0.6338
   88MOL0     C12024   1.948   0.140  10.115  1.1051 -0.0496 -0.0200
   88MOL0     C12025   2.060   0.212  10.105 -0.6190  0.4851  0.9691
   88MOL0     C12026   2.188   0.159  10.058  0.6306 -0.3614  0.2719
   88MOL0     C12027   2.304   0.234  10.113 -0.2799 -0.0428 -0.4479
   88MOL0     C12028   2.435   0.174  10.056  0.0170  0.2070 -0.6121
   88MOL0     C12029   2.565   0.248  10.085  0.4753 -0.9510 -0.1643
   88MOL0     O12030   2.579   0.281  10.221 -0.4277  0.1495 -0.6990
   88MOL0     C12031   2.692   0.337  10.268  0.3978  1.1015  0.6042
   88MOL0     C12032   2.671   0.426  10.369  0.1100  0.1104 -0.4913
   88MOL0     C12033   2.776   0.510  10.412 -0.7851  0.0981  0.3074
   88MOL0     C12034   2.745   0.599  10.525  0.0454  0.0344 -0.2716
   88MOL0     C12035   2.910   0.493  10.354  0.4973 -0.5962  0.6577
   88MOL0     C12036   3.030   0.577  10.383 -0.4573  0.7307  0.5626
   88MOL0     O12037   3.143   0.551  10.313 -0.0281 -0.2041 -0.6353
   88MOL0     C12038   3.258   0.578  10.382  0.8216  0.3012 -0.5030
   88MOL0     C12039   3.360   0.599  10.290 -0.4922 -0.2264 -0.6102
   88MOL0     C12040   3.501   0.599  10.324 -0.2764 -0.7277  0.5945
   88MOL0     C12041   3.536   0.569  10.461  0.9159  0.0037  0.0128
   88MOL0     O12042   3.664   0.581  10.516 -0.1347 -0.5258 -0.1168
   88MOL0     C12043   3.770   0.548  10.422 -0.2897  0.9290 -0.4898
   88MOL0     C12044   3.896   0.496  10.487  0.6894  0.3881 -0.4744
   88MOL0     C12045   4.003   0.433  10.405 -0.2471  0.6950 -0.1356
   88MOL0     C12046   4.106   0.364  10.490 -0.5547 -0.0268  0.3965
   88MOL0     C12047   4.221   0.339  10.399 -0.5948 -0.0152 -0.1385
   88MOL0     C12048   4.341   0.283  10.475  0.3264 -0.5819 -1.4617
   88MOL0     C12049   4.471   0.267  10.387 -0.5164  0.0789  1.2062
   88MOL0     C12050   4.565   0.385  10.397  0.4903  0.2111  0.2954
   88MOL0    Cl12051   4.662   0.375  10.547  0.1620 -0.4246 -0.1644
   88MOL0     C12052   3.432   0.552  10.553 -0.7611 -0.2575 -0.0169
   88MOL0     C12053   3.295   0.551  10.519 -0.6517  0.7433  0.1063
   88MOL0     O12054   3.018   0.665  10.465  0.5843 -0.5299 -0.6419
   88MOL0     C12055   2.927   0.395  10.255 -0.2418  0.1364  0.1915
   88MOL0     C12056   2.817   0.319  10.208 -0.9067  0.0776  0.2993
   88MOL0     N12057   2.031   0.342  10.119 -0.0803 -0.5287 -0.4888
   88MOL0     N12058   1.901   0.351  10.141 -0.1518 -0.2706  0.1004
   88MOL0     C12059   0.776   0.542  10.209  0.1471 -0.0306 -0.7134
   88MOL0     C12060   0.663   0.626  10.190 -0.1616  0.0266 -0.4273
   88MOL0     C12061   0.419   0.991  10.088 -0.1724 -1.2313 -0.0697
   88MOL0     C12062   0.420   1.061   9.961  0.1328 -0.4377 -0.0606
   88MOL0     C12063   0.337   1.171   9.926  0.2261 -0.1452 -0.7552
   88MOL0     C12064   0.254   1.217  10.027  0.4600  0.5408  0.4091
   88MOL0     O12065   0.170   1.320   9.973 -0.5575 -0.3413  0.0411
   88MOL0     C12066   0.053   1.352  10.045 -0.6119 -0.1978 -0.7944
   88MOL0     C12067   0.074   1.444  10.164  0.0843  0.6348 -0.0552
   88MOL0     C12068  -0.048   1.447  10.248 -0.1679  0.5991 -0.0153
   88MOL0     C12069  -0.149   1.540  10.181  0.0741 -0.6835  0.2336
   88MOL0     C12070  -0.259   1.544  10.278 -1.0998  0.7537  1.3525
   88MOL0     C12071  -0.368   1.563  10.327  0.0888 -0.0849 -0.8403
   88MOL0     C12072   0.251   1.156  10.153 -1.1288  0.0535 -0.4342
   88MOL0     C12073   0.334   1.049  10.194 -0.3183  0.6957 -0.0155
   88MOL0     C12074   0.313   1.004  10.334  0.9644 -0.2203 -0.6561
   88MOL0     H12075   0.763   0.882  10.406 -3.2659  2.5011 -2.0725
   88MOL0     H12076   0.966   0.756  10.400 -0.2177  2.7911  1.0603
   88MOL0     H12077   0.997   0.506  10.491  0.4858  0.5691  1.3547
   88MOL0     H12078   1.145   0.564  10.408 -0.4475  0.4168  2.2430
   88MOL0     H12079   1.146   0.341  10.528 -1.5558 -0.3183 -0.2393
   88MOL0     H12080   1.039   0.288  10.413  0.8371 -0.4857  0.5092
   88MOL0     H12081   1.189   0.356  10.223 -2.0780 -2.2418  0.4964
   88MOL0     H12082   1.305   0.410  10.351 -0.1995 -0.1098  0.5694
   88MOL0     H12083   1.274   0.162  10.432 -3.7862  0.3610  0.3113
   88MOL0     H12084   1.213   0.130  10.278  0.3455  0.6961 -3.6539
   88MOL0     H12085   1.466   0.091  10.319 -1.3326  1.4848  2.7343
   88MOL0     H12086   1.495   0.261  10.335  1.1517  0.2010 -0.0469
   88MOL0     H12087   1.449   0.131  10.062 -0.9416  0.7282 -0.1851
   88MOL0     H12088   1.394   0.293  10.079  0.7659 -0.0412 -2.8650
   88MOL0     H12089   1.617   0.370  10.126 -1.7653  1.5529 -2.3785
   88MOL0     H12090   1.640   0.257   9.995 -0.1927 -2.9163 -0.1300
   88MOL0     H12091   1.711   0.187  10.279 -3.8860 -0.7841 -0.3899
   88MOL0     H12092   1.682   0.076  10.144 -0.3381  1.8065 -1.2205
   88MOL0     H12093   1.945   0.032  10.106  2.1480 -0.1695  0.7789
   88MOL0     H12094   2.184   0.153   9.949 -0.5201  0.9327  0.2248
   88MOL0     H12095   2.206   0.053  10.078  0.6517 -0.7296 -1.5221
   88MOL0     H12096   2.305   0.340  10.083 -0.6815 -0.3801 -1.7061
   88MOL0     H12097   2.312   0.235  10.222 -0.5352 -2.3214 -0.3730
   88MOL0     H12098   2.450   0.077  10.104 -0.9353  0.7990  0.9545
   88MOL0     H12099   2.433   0.162   9.948  3.1171  0.7488 -0.8339
   88MOL0     H12100   2.653   0.194  10.049  0.3050 -1.8041  0.6648
   88MOL0     H12101   2.575   0.341  10.028  0.1116 -0.1369  1.0561
   88MOL0     H12102   2.579   0.444  10.424  0.2650  0.6160 -0.3968
   88MOL0     H12103   2.736   0.702  10.487 -3.0180 -0.5123 -1.3793
   88MOL0     H12104   2.820   0.591  10.603 -0.2289 -1.5214 -0.1507
   88MOL0     H12105   2.648   0.577  10.571  0.9186 -0.1422  1.5677
   88MOL0     H12106   3.335   0.600  10.185  0.0421  0.1726 -0.7363
   88MOL0     H12107   3.581   0.631  10.257 -0.5226  0.2284  0.7378
   88MOL0     H12108   3.738   0.469  10.354 -2.2561  0.4296  0.9275
   88MOL0     H12109   3.800   0.635  10.362  1.2550  1.6910  1.3044
   88MOL0     H12110   3.926   0.594  10.527  1.5029  0.4661 -1.2520
   88MOL0     H12111   3.868   0.417  10.557  4.4356 -3.2010 -2.5976
   88MOL0     H12112   4.042   0.509  10.337  1.3295  2.5327  2.6595
   88MOL0     H12113   3.965   0.347  10.349  1.6687 -0.5842  0.4557
   88MOL0     H12114   4.073   0.267  10.528 -2.2777  0.2054 -0.3891
   88MOL0     H12115   4.126   0.428  10.576 -0.5309  0.4776  0.0177
   88MOL0     H12116   4.190   0.276  10.316 -0.7202  1.0908 -0.9456
   88MOL0     H12117   4.251   0.432  10.351  2.1427 -3.1998 -5.4502
   88MOL0     H12118   4.319   0.192  10.530 -0.6383  0.0755 -0.7227
   88MOL0     H12119   4.368   0.360  10.548  3.2082 -1.5303 -1.4055
   88MOL0     H12120   4.438   0.262  10.283 -0.2425 -0.1386  1.1281
   88MOL0     H12121   4.524   0.175  10.413 -0.5402 -0.1605  0.4230
   88MOL0     H12122   4.506   0.477  10.392  0.5542  0.1887 -2.2450
   88MOL0     H12123   4.645   0.377  10.323 -1.4341 -3.2023 -1.6778
   88MOL0     H12124   3.469   0.530  10.653  1.6684 -1.3576 -1.0709
   88MOL0     H12125   3.221   0.525  10.595 -2.4737  1.8794 -1.2051
   88MOL0     H12126   3.027   0.381  10.214 -0.1741  1.8416 -0.2880
   88MOL0     H12127   2.841   0.239  10.139 -2.9016 -0.4102  0.1161
   88MOL0     H12128   0.780   0.439  10.174  3.4101  0.2239 -1.3185
   88MOL0     H12129   0.573   0.588  10.142 -1.3236 -0.3924  1.9248
   88MOL0     H12130   0.491   1.030   9.886  0.1789  1.0319 -0.6530
   88MOL0     H12131   0.336   1.214   9.826 -0.7134 -0.7816 -1.0311
   88MOL0     H12132  -0.024   1.382   9.974 -0.3176  1.2419 -0.5310
   88MOL0     H12133   0.010   1.261  10.089  1.9873 -0.6787  0.9882
   88MOL0     H12134   0.115   1.535  10.120  1.3723  0.1754  0.1593
   88MOL0     H12135   0.156   1.403  10.223 -0.6916 -1.4841 -0.3557
   88MOL0     H12136  -0.085   1.345  10.261  1.3669  0.2292  2.0306
   88MOL0     H12137  -0.033   1.478  10.352 -1.7419 -0.9453  0.7280
   88MOL0     H12138  -0.194   1.504  10.088 -0.2607  0.4368 -0.0473
   88MOL0     H12139  -0.116   1.643  10.171  0.8211 -0.8813  0.5831
   88MOL0     H12140  -0.453   1.581  10.389 -0.0954 -0.9493 -0.8191
   88MOL0     H12141   0.192   1.199  10.233  0.0287  0.7429  0.0567
   88MOL0     H12142   0.231   0.932  10.345 -0.5531  1.6056  0.7582
   88MOL0     H12143   0.408   0.960  10.366  1.7170  1.5398 -0.3699
   88MOL0     H12144   0.289   1.077  10.412  4.1974 -0.3070  0.5829
   89MOL0     O12145   7.318  11.174   9.445 -0.2402  0.0325  0.1880
   89MOL0     C12146   7.306  11.134   9.559 -0.3248  0.1962 -0.3505
   89MOL0     O12147   7.404  11.097   9.642 -0.0182 -0.1738  0.3207
   89MOL0     C12148   7.531  11.088   9.604 -0.6241 -0.5693 -0.7769
   89MOL0     C12149   7.636  11.129   9.684  0.2426  0.2024 -0.8869
   89MOL0     C12150   7.775  11.124   9.647  0.3180  0.8645 -0.4466
   89MOL0     C12151   7.809  11.057   9.522 -0.3667  0.4251 -0.5230
   89MOL0     O12152   7.945  11.050   9.492  0.1547 -0.2447  0.2040
   89MOL0     C12153   7.993  10.945   9.404 -0.9980  0.1939  0.2333
   89MOL0     C12154   8.146  10.927   9.409  0.0114  0.6030 -0.9178
   89MOL0     C12155   8.187  10.795   9.333  0.8177 -0.8260 -0.0974
   89MOL0     C12156   8.342  10.774   9.339 -0.1232 -0.2350  0.3618
   89MOL0     C12157   8.416  10.822   9.213 -0.0295  0.0847 -0.1665
   89MOL0     C12158   8.387  10.728   9.093  0.6982  0.2868  0.0819
   89MOL0     C12159   8.487  10.726   8.986 -0.0985  0.4099 -0.8093
   89MOL0     C12160   8.455  10.629   8.875  0.3770  0.3128  0.5192
   89MOL0     N12161   8.524  10.497   8.890 -0.5069 -0.0287 -0.6899
   89MOL0     C12162   8.656  10.478   8.875  0.1926 -0.4721  0.4157
   89MOL0     C12163   8.677  10.344   8.862 -0.0044 -0.1421 -0.8252
   89MOL0     C12164   8.815  10.274   8.861 -0.0970  0.0865  0.2194
   89MOL0     C12165   8.836  10.197   8.720  0.7709 -0.8489 -0.1267
   89MOL0     C12166   8.977  10.159   8.666 -0.3450  0.2730 -0.4302
   89MOL0     C12167   8.986  10.168   8.512 -0.1632 -0.4214  0.4574
   89MOL0     O12168   9.123  10.144   8.470 -0.0330 -0.2039 -0.0756
   89MOL0     C12169   9.156  10.172   8.339 -0.2272 -0.1681 -0.4552
   89MOL0     C12170   9.072  10.131   8.231  0.5884  0.7484 -0.6452
   89MOL0     C12171   9.096  10.165   8.098 -0.1314 -0.5576 -0.2497
   89MOL0     C12172   9.002  10.112   7.994 -0.0592 -0.6480 -0.0926
   89MOL0     C12173   9.211  10.239   8.068 -0.3834 -0.2327  0.4686
   89MOL0     C12174   9.250  10.294   7.931  0.3767  0.3980  0.4609
   89MOL0     O12175   9.208  10.227   7.820 -0.3549 -0.1233 -0.0904
   89MOL0     C12176   9.217  10.297   7.703  0.3977  0.0316 -0.3661
   89MOL0     C12177   9.282  10.255   7.587 -0.6691  0.3917 -0.5544
   89MOL0     C12178   9.272  10.323   7.470 -0.2349  0.1251 -0.0509
   89MOL0     C12179   9.205  10.438   7.464  0.3857 -0.2505  0.1028
   89MOL0     O12180   9.216  10.507   7.343  0.1639  0.0162 -0.2712
   89MOL0     C12181   9.164  10.643   7.336 -0.6996  0.0732  0.6217
   89MOL0     C12182   9.122  10.667   7.196  0.1724 -0.2017 -0.3725
   89MOL0     C12183   9.252  10.690   7.118 -0.4898 -0.4173  0.3654
   89MOL0     C12184   9.228  10.695   6.965 -0.4457 -0.7649 -0.3053
   89MOL0     C12185   9.112  10.784   6.922 -0.3660 -0.2388  0.4278
   89MOL0     C12186   9.108  10.787   6.771 -0.3114 -0.3868 -0.0072
   89MOL0     C12187   9.015  10.887   6.711  0.4060 -0.1693 -0.1656
   89MOL0     C12188   8.862  10.860   6.752  0.0879  0.0854 -0.3387
   89MOL0    Cl12189   8.729  10.923   6.653  0.4297  0.2755  0.3683
   89MOL0     C12190   9.136  10.482   7.576  0.1624 -0.3020  0.0611
   89MOL0     C12191   9.139  10.409   7.695 -1.4775 -1.2667 -0.2526
   89MOL0     O12192   9.305  10.404   7.939  0.5996  0.0972  0.3455
   89MOL0     C12193   9.297  10.277   8.176  0.5028 -0.0959 -0.5362
   89MOL0     C12194   9.276  10.241   8.313  0.2110  0.1178 -0.0234
   89MOL0     N12195   8.551  10.285   8.855  0.0634 -0.3379 -0.2166
   89MOL0     N12196   8.459  10.374   8.878 -0.1097  0.1183 -0.5558
   89MOL0     C12197   7.708  11.003   9.446  0.1790 -0.1460  0.0971
   89MOL0     C12198   7.571  11.021   9.487  0.0452  0.2967  0.2414
   89MOL0     C12199   7.168  11.145   9.610 -0.8234 -0.0473 -0.2510
   89MOL0     C12200   7.154  11.147   9.745 -0.3491 -0.4946 -0.5007
   89MOL0     C12201   7.027  11.152   9.801 -0.0068 -0.4904 -0.1307
   89MOL0     C12202   6.916  11.155   9.724  0.2482 -0.5732 -0.0814
   89MOL0     O12203   6.787  11.167   9.763  0.4886  0.1530  0.2027
   89MOL0     C12204   6.768  11.193   9.903  0.1454  0.3691 -0.3185
   89MOL0     C12205   6.621  11.212   9.908  0.3470 -0.2475 -0.2483
   89MOL0     C12206   6.568  11.231  10.048  0.2545  0.0099 -0.3427
   89MOL0     C12207   6.415  11.231  10.054  1.0684 -0.0319 -0.5538
   89MOL0     C12208   6.361  11.098  10.037  0.2343  0.7879 -0.0820
   89MOL0     C12209   6.312  10.988  10.033  0.8178  0.2426  0.5143
   89MOL0     C12210   6.928  11.148   9.589  0.2945  0.6097 -0.3503
   89MOL0     C12211   7.048  11.136   9.521 -0.4183  0.1612 -0.5431
   89MOL0     C12212   7.033  11.133   9.371  0.5616  0.3884 -0.8143
   89MOL0     H12213   7.612  11.184   9.774  1.2690  3.6876 -2.5544
   89MOL0     H12214   7.853  11.172   9.704  2.3616 -1.6649 -0.9070
   89MOL0     H12215   7.986  10.980   9.300  0.7636  3.0662  0.9812
   89MOL0     H12216   7.940  10.851   9.424  0.1244 -0.2626  1.2298
   89MOL0     H12217   8.195  11.016   9.367  2.3280  0.1074  0.5137
   89MOL0     H12218   8.170  10.920   9.516  0.0755 -0.3944 -0.9890
   89MOL0     H12219   8.133  10.714   9.383  1.0931 -0.0975  1.4378
   89MOL0     H12220   8.139  10.795   9.235 -0.6853 -0.6340  0.6116
   89MOL0     H12221   8.385  10.838   9.416  1.4710 -1.9501  0.9666
   89MOL0     H12222   8.369  10.671   9.364  0.3487  0.6162  3.8746
   89MOL0     H12223   8.521  10.830   9.241 -0.3283 -1.5729  1.6259
   89MOL0     H12224   8.374  10.918   9.180 -0.4503 -0.7790 -2.3690
   89MOL0     H12225   8.368  10.627   9.130 -0.6782  0.3434 -0.4073
   89MOL0     H12226   8.294  10.761   9.046  0.8186 -1.6639 -1.6792
   89MOL0     H12227   8.591  10.719   9.020 -0.5089 -1.2923  0.2352
   89MOL0     H12228   8.489  10.825   8.940  1.9262  0.9337  0.2542
   89MOL0     H12229   8.347  10.618   8.857  0.2803  1.3235  0.3863
   89MOL0     H12230   8.496  10.675   8.785  1.1661  0.2372  0.8336
   89MOL0     H12231   8.722  10.563   8.865 -0.4811 -0.1752 -2.1228
   89MOL0     H12232   8.824  10.213   8.951  0.3378  1.0045  0.8200
   89MOL0     H12233   8.890  10.354   8.860 -2.0032  1.9759 -1.2556
   89MOL0     H12234   8.773  10.108   8.715 -1.3863  0.6107 -0.4768
   89MOL0     H12235   8.793  10.269   8.650  1.2695 -0.9682 -0.5653
   89MOL0     H12236   9.051  10.223   8.715  0.9494 -1.1927 -0.4033
   89MOL0     H12237   8.990  10.052   8.686  0.7209  0.2546 -1.1636
   89MOL0     H12238   8.921  10.093   8.467 -0.6387  0.6703 -0.7356
   89MOL0     H12239   8.947  10.266   8.483 -0.4326 -0.6001  0.2092
   89MOL0     H12240   8.982  10.072   8.247 -0.0181  2.4807  3.8910
   89MOL0     H12241   8.965  10.191   7.928 -1.3028 -0.7082  0.5026
   89MOL0     H12242   8.907  10.076   8.036 -0.2453  1.9555  2.0117
   89MOL0     H12243   9.045  10.038   7.926  0.1148  0.8365 -1.6923
   89MOL0     H12244   9.322  10.154   7.591  0.4946  0.8557  0.1524
   89MOL0     H12245   9.303  10.278   7.376 -3.1722 -1.1595 -0.4957
   89MOL0     H12246   9.077  10.670   7.396 -1.4710  2.6811 -1.4560
   89MOL0     H12247   9.232  10.725   7.358 -3.8471  2.5253  2.1102
   89MOL0     H12248   9.064  10.584   7.154  0.1369 -0.2055 -0.3149
   89MOL0     H12249   9.073  10.764   7.189 -1.8292 -0.8915  2.5565
   89MOL0     H12250   9.309  10.599   7.138  1.3758  0.0887 -2.1404
   89MOL0     H12251   9.315  10.775   7.145 -0.4248  0.4663 -2.2135
   89MOL0     H12252   9.209  10.597   6.921 -0.4672 -1.7585  1.7981
   89MOL0     H12253   9.324  10.734   6.930  2.5508 -0.1186  6.8350
   89MOL0     H12254   9.018  10.739   6.955 -0.6204  1.1208  1.6488
   89MOL0     H12255   9.122  10.885   6.962 -0.3779 -0.2848  0.5464
   89MOL0     H12256   9.078  10.687   6.736 -0.2325 -0.1765 -0.6956
   89MOL0     H12257   9.200  10.811   6.717 -1.7948  2.5443 -1.4659
   89MOL0     H12258   9.028  10.887   6.603 -2.1559  2.7607 -0.6045
   89MOL0     H12259   9.037  10.991   6.737  0.9657 -0.0616 -1.0280
   89MOL0     H12260   8.846  10.900   6.852 -1.8700 -0.1095 -0.5354
   89MOL0     H12261   8.849  10.751   6.748  2.8494 -0.3001 -0.6108
   89MOL0     H12262   9.101  10.584   7.587  4.1329  1.2531 -0.1390
   89MOL0     H12263   9.086  10.445   7.783 -0.7674  0.3961 -0.4670
   89MOL0     H12264   9.378  10.347   8.164  1.7266 -1.2408  0.7003
   89MOL0     H12265   9.352  10.256   8.389 -0.6863 -1.6853  1.2983
   89MOL0     H12266   7.728  10.955   9.351 -0.7355 -2.4660  1.0174
   89MOL0     H12267   7.488  10.981   9.429 -1.9874  0.2768  2.9584
   89MOL0     H12268   7.239  11.169   9.808 -0.4782  1.5313 -0.9471
   89MOL0     H12269   7.018  11.134   9.908  1.3076 -1.7993 -0.2006
   89MOL0     H12270   6.805  11.106   9.958 -0.3130 -0.6046 -1.4905
   89MOL0     H12271   6.823  11.280   9.939  0.3860 -0.1137  0.5161
   89MOL0     H12272   6.584  11.117   9.869  1.9485 -0.3105 -1.6981
   89MOL0     H12273   6.586  11.296   9.846  1.9334  2.0012  1.7249
   89MOL0     H12274   6.601  11.151  10.116  0.4384  0.0306 -0.4095
   89MOL0     H12275   6.611  11.325  10.083  1.5265 -1.0082  0.9615
   89MOL0     H12276   6.392  11.302   9.975  2.3865  1.2071  0.1382
   89MOL0     H12277   6.387  11.262  10.156  0.9564 -0.2019 -0.5337
   89MOL0     H12278   6.274  10.888  10.041 -2.7527  1.4588  0.3976
   89MOL0     H12279   6.835  11.141   9.534 -0.2095  1.5563  0.3551
   89MOL0     H12280   7.100  11.200   9.316 -1.1007  0.9808 -2.1934
   89MOL0     H12281   7.054  11.032   9.336  2.5300  0.4665 -0.0122
   89MOL0     H12282   6.934  11.168   9.343 -1.5438 -4.8113 -0.9753
   90MOL0     O12283  11.046   1.516   5.091  0.0734  0.1396  0.0521
   90MOL0     C12284  10.979   1.415   5.115 -0.7857 -0.7329  0.1824
   90MOL0     O12285  11.035   1.284   5.109 -0.0879 -0.2774 -1.1672
   90MOL0     C12286  11.138   1.272   5.018 -0.0256  0.3618  0.0814
   90MOL0     C12287  11.274   1.277   5.068  0.7099 -0.8511  0.0761
   90MOL0     C12288  11.377   1.270   4.968  0.1357  0.2996  0.2838
   90MOL0     C12289  11.347   1.243   4.825 -0.0640  0.7325  0.5480
   90MOL0     O12290  11.457   1.220   4.749 -0.6737  0.2683  0.2504
   90MOL0     C12291  11.428   1.172   4.617 -0.1656 -0.3235 -0.6214
   90MOL0     C12292  11.555   1.116   4.548 -0.0499  0.3948 -0.1987
   90MOL0     C12293  11.688   1.207   4.556  1.3926 -0.0503 -0.4656
   90MOL0     C12294  11.812   1.161   4.488  0.3943 -0.6413 -0.5840
   90MOL0     C12295  11.930   1.252   4.503  0.1587 -0.0315  0.3643
   90MOL0     C12296  12.067   1.210   4.443  0.0888 -0.4063 -0.3987
   90MOL0     C12297  12.183   1.276   4.524  0.6729 -0.4130  0.1132
   90MOL0     C12298  12.321   1.266   4.464 -0.1186 -0.0951 -0.9912
   90MOL0     N12299  12.429   1.323   4.551  0.9578 -0.6918  0.2481
   90MOL0     C12300  12.416   1.454   4.600  0.0827 -0.4878 -0.5102
   90MOL0     C12301  12.532   1.455   4.670  0.3520  0.1827 -0.6496
   90MOL0     C12302  12.592   1.573   4.738  0.0240  0.0317 -0.3490
   90MOL0     C12303  12.750   1.577   4.721  0.7450 -0.3715 -0.7311
   90MOL0     C12304  12.803   1.711   4.776 -0.6124  0.1240 -0.9583
   90MOL0     C12305  12.966   1.711   4.788  0.2590 -0.3283 -0.4515
   90MOL0     O12306  13.019   1.690   4.651  0.9212 -0.1052 -0.4250
   90MOL0     C12307  13.156   1.688   4.633 -0.0914 -0.0628 -0.3682
   90MOL0     C12308  13.202   1.704   4.507 -0.4209 -1.3156  0.4181
   90MOL0     C12309  13.335   1.687   4.464  0.2819  0.0026  0.1272
   90MOL0     C12310  13.367   1.680   4.316 -0.2854 -0.1412  0.1834
   90MOL0     C12311  13.429   1.663   4.569  0.8156  0.7465 -0.5912
   90MOL0     C12312  13.574   1.640   4.551 -0.3608 -0.3415  0.4933
   90MOL0     O12313  13.650   1.675   4.657  0.1353  0.4024 -0.2979
   90MOL0     C12314  13.785   1.660   4.667  1.0188  1.0325 -0.1567
   90MOL0     C12315  13.857   1.550   4.627  0.4026 -0.8127  0.0753
   90MOL0     C12316  13.994   1.532   4.662 -0.6397 -0.7842  1.2988
   90MOL0     C12317  14.064   1.639   4.720 -0.2137 -0.5365  0.1864
   90MOL0     O12318  14.199   1.620   4.747  0.6609  0.1688 -0.4379
   90MOL0     C12319  14.281   1.726   4.794 -0.8713  0.1643 -0.6363
   90MOL0     C12320  14.299   1.844   4.691  0.1328 -0.0427  0.5506
   90MOL0     C12321  14.357   1.803   4.552  0.1300 -1.0809  0.5529
   90MOL0     C12322  14.381   1.919   4.458 -0.7362  0.1697 -0.2869
   90MOL0     C12323  14.463   1.867   4.341 -0.9355  0.3502 -0.2766
   90MOL0     C12324  14.502   1.983   4.248  0.7600 -1.1940 -1.1910
   90MOL0     C12325  14.560   1.932   4.115 -0.4773 -0.1466  0.1924
   90MOL0     C12326  14.537   2.033   3.986  0.2388 -0.0986 -0.2768
   90MOL0    Cl12327  14.375   1.992   3.926  0.4189 -0.2283  0.8068
   90MOL0     C12328  13.995   1.753   4.760 -0.6746  0.0534  0.5237
   90MOL0     C12329  13.856   1.759   4.740 -0.4733 -0.7678  0.4638
   90MOL0     O12330  13.625   1.598   4.444  0.4125 -0.1490  0.4926
   90MOL0     C12331  13.386   1.645   4.697 -0.2080 -0.4685 -0.1797
   90MOL0     C12332  13.252   1.662   4.730 -0.6337 -0.4321 -0.0145
   90MOL0     N12333  12.601   1.340   4.666  0.4537 -0.0670 -0.2684
   90MOL0     N12334  12.537   1.267   4.588  0.5175 -0.4774 -0.7307
   90MOL0     C12335  11.209   1.239   4.786  0.3155  0.3415  1.1678
   90MOL0     C12336  11.112   1.254   4.885  0.1822 -0.6486  0.3777
   90MOL0     C12337  10.833   1.421   5.152 -0.1228 -0.0757 -0.8033
   90MOL0     C12338  10.778   1.304   5.197  0.3093 -0.1426 -0.0129
   90MOL0     C12339  10.633   1.294   5.226 -0.4307  0.8783  0.8577
   90MOL0     C12340  10.565   1.408   5.244  0.1342 -0.9223 -0.9619
   90MOL0     O12341  10.430   1.389   5.280 -0.1904 -0.6073  0.4253
   90MOL0     C12342  10.360   1.502   5.330 -0.2592  0.3666  0.5663
   90MOL0     C12343  10.223   1.449   5.373  0.3719 -0.0546 -0.1603
   90MOL0     C12344  10.159   1.552   5.469  0.0794  0.4436  0.5651
   90MOL0     C12345  10.018   1.526   5.492 -0.5101  0.0085 -0.3685
   90MOL0     C12346   9.950   1.625   5.573  0.4375 -0.5296  0.3310
   90MOL0     C12347   9.893   1.717   5.626 -0.2551 -0.1289 -0.1830
   90MOL0     C12348  10.629   1.527   5.219  0.5471 -0.5972 -0.0603
   90MOL0     C12349  10.757   1.541   5.172  0.0210  0.4925  0.0432
   90MOL0     C12350  10.800   1.672   5.119 -0.0203 -0.2125  1.1808
   90MOL0     H12351  11.293   1.314   5.168 -0.4393  1.7268 -0.5860
   90MOL0     H12352  11.482   1.270   4.998  0.9423 -1.8566 -2.1733
   90MOL0     H12353  11.381   1.249   4.555 -1.1658  0.8771  1.4805
   90MOL0     H12354  11.353   1.092   4.616  1.6096 -2.0564 -0.6549
   90MOL0     H12355  11.580   1.013   4.577 -0.6404  0.0461 -0.8891
   90MOL0     H12356  11.525   1.106   4.443 -0.3209  1.0773 -0.1925
   90MOL0     H12357  11.660   1.302   4.510  2.1034 -0.1970 -1.2279
   90MOL0     H12358  11.709   1.211   4.664  0.7678 -4.6239  0.0413
   90MOL0     H12359  11.848   1.073   4.543  1.2497  1.5486  2.6526
   90MOL0     H12360  11.793   1.154   4.380  0.8410  0.1171 -0.7196
   90MOL0     H12361  11.947   1.274   4.609  0.0803 -4.4766  1.4962
   90MOL0     H12362  11.909   1.349   4.458 -0.0245  1.2538  3.0122
   90MOL0     H12363  12.085   1.104   4.427 -0.3223 -0.5732  0.2223
   90MOL0     H12364  12.058   1.247   4.340 -3.0745  1.8340  0.5128
   90MOL0     H12365  12.175   1.233   4.624  0.2238  1.1510  0.7813
   90MOL0     H12366  12.159   1.382   4.535 -0.5560 -0.7833  1.2611
   90MOL0     H12367  12.342   1.163   4.434 -1.6768 -1.0106  0.7542
   90MOL0     H12368  12.336   1.319   4.370 -0.2546 -1.0820 -1.5788
   90MOL0     H12369  12.344   1.531   4.578 -1.9665 -1.7719  1.2106
   90MOL0     H12370  12.567   1.566   4.844  0.7971 -0.6500 -0.2058
   90MOL0     H12371  12.546   1.667   4.703 -4.1074 -1.4829  0.3680
   90MOL0     H12372  12.794   1.493   4.776 -1.3336  0.0595  1.7731
   90MOL0     H12373  12.772   1.552   4.616  1.4601 -1.4200 -0.3544
   90MOL0     H12374  12.781   1.794   4.708  2.3713  1.0999 -0.8824
   90MOL0     H12375  12.754   1.724   4.873 -0.2490  0.9050 -0.8749
   90MOL0     H12376  13.009   1.804   4.824 -1.1486  0.0881  0.2121
   90MOL0     H12377  12.997   1.626   4.849  1.2738  0.9287  0.8333
   90MOL0     H12378  13.124   1.716   4.433 -0.3741  1.0028  0.6929
   90MOL0     H12379  13.293   1.748   4.273 -0.9999  1.1287  3.1420
   90MOL0     H12380  13.369   1.580   4.270  0.3885  0.4357 -1.0780
   90MOL0     H12381  13.463   1.726   4.294  1.1555 -1.0567  3.7902
   90MOL0     H12382  13.802   1.476   4.570 -3.4155  1.2806  0.6672
   90MOL0     H12383  14.055   1.447   4.633  1.1658  0.7480  0.3884
   90MOL0     H12384  14.245   1.778   4.883  2.4830  2.1060 -0.2509
   90MOL0     H12385  14.379   1.683   4.814  0.8423  3.3713 -1.4419
   90MOL0     H12386  14.218   1.916   4.674  0.8103  0.2742 -1.5176
   90MOL0     H12387  14.378   1.909   4.730  2.5432 -1.7866 -1.1647
   90MOL0     H12388  14.286   1.744   4.494 -1.3128  2.5710 -1.7170
   90MOL0     H12389  14.454   1.759   4.576  1.3998  1.9544  1.5514
   90MOL0     H12390  14.446   1.994   4.503  1.7238  0.0664 -3.3530
   90MOL0     H12391  14.282   1.959   4.432  0.2483  1.6500 -1.9949
   90MOL0     H12392  14.557   1.823   4.375 -0.6767  1.8265  1.0252
   90MOL0     H12393  14.393   1.796   4.297 -1.8972 -0.0764  1.8111
   90MOL0     H12394  14.568   2.054   4.299 -2.1610 -1.3771  3.5028
   90MOL0     H12395  14.409   2.037   4.228  1.6328  0.6736 -0.4601
   90MOL0     H12396  14.529   1.830   4.090  0.0009 -0.7478  1.9159
   90MOL0     H12397  14.668   1.940   4.131 -0.0720 -1.6132 -1.5482
   90MOL0     H12398  14.605   1.998   3.907  0.2297 -1.2303  0.1889
   90MOL0     H12399  14.555   2.136   4.018 -0.5542 -0.7328  2.4485
   90MOL0     H12400  14.047   1.838   4.802  2.2550  0.1820 -2.9226
   90MOL0     H12401  13.796   1.838   4.786 -3.0162 -2.9040  1.0676
   90MOL0     H12402  13.453   1.619   4.779 -2.7972 -3.9143  1.1067
   90MOL0     H12403  13.225   1.632   4.831  0.6745  0.6181  0.6711
   90MOL0     H12404  11.183   1.207   4.686  3.1114 -1.7242  1.0079
   90MOL0     H12405  11.007   1.249   4.855 -0.0182 -1.1937  1.1483
   90MOL0     H12406  10.830   1.209   5.209  0.2284 -0.1884 -0.0196
   90MOL0     H12407  10.601   1.194   5.255  0.0293  0.8127  1.1425
   90MOL0     H12408  10.412   1.542   5.418  0.3572 -1.3057  0.9901
   90MOL0     H12409  10.343   1.583   5.259  1.1831  0.4279  0.2519
   90MOL0     H12410  10.231   1.353   5.425  0.6615  0.5053  0.8439
   90MOL0     H12411  10.165   1.446   5.280  1.0997  1.0124 -0.6715
   90MOL0     H12412  10.220   1.541   5.559  1.6249  1.1007 -0.3703
   90MOL0     H12413  10.181   1.654   5.438  2.4433 -0.1785  0.0333
   90MOL0     H12414  10.019   1.428   5.542 -1.0006 -0.5048 -1.3347
   90MOL0     H12415   9.964   1.512   5.399 -1.6299 -1.9237  0.4979
   90MOL0     H12416   9.854   1.808   5.668 -2.9733 -0.4345 -1.8219
   90MOL0     H12417  10.567   1.614   5.237  2.7510  1.2313 -0.7664
   90MOL0     H12418  10.830   1.646   5.017  0.9762  1.9420  0.8727
   90MOL0     H12419  10.724   1.750   5.117 -0.9388 -1.0842  0.7306
   90MOL0     H12420  10.875   1.717   5.184 -2.5747  1.2082  3.3289
   91MOL0     O12421   5.634   7.091   3.226  0.3509  0.3895 -0.4632
   91MOL0     C12422   5.576   6.988   3.249 -0.0317 -0.4097 -0.2326
   91MOL0     O12423   5.635   6.877   3.305 -0.4199 -0.0376 -0.1495
   91MOL0     C12424   5.764   6.866   3.355 -0.0390 -0.1887 -0.1092
   91MOL0     C12425   5.807   6.735   3.372 -0.3104  0.8692 -0.5361
   91MOL0     C12426   5.930   6.715   3.438 -0.3857 -0.0026 -0.4285
   91MOL0     C12427   6.011   6.830   3.485  0.0008  0.8580 -0.1865
   91MOL0     O12428   6.132   6.803   3.534  0.1152  0.2985 -0.1709
   91MOL0     C12429   6.205   6.697   3.472  0.5295  0.4268  0.5261
   91MOL0     C12430   6.347   6.676   3.521  0.0887 -0.0019 -0.3798
   91MOL0     C12431   6.353   6.648   3.667  0.8142  0.0176  0.6686
   91MOL0     C12432   6.486   6.570   3.689 -0.2289  0.2120  0.1279
   91MOL0     C12433   6.607   6.654   3.655 -0.2471 -0.6597 -0.1723
   91MOL0     C12434   6.744   6.601   3.700  1.1038 -0.3326  0.3424
   91MOL0     C12435   6.860   6.668   3.621  0.2516  0.7432  0.0901
   91MOL0     C12436   6.895   6.805   3.678  0.4882 -0.0748  0.1158
   91MOL0     N12437   7.000   6.870   3.597  0.5538 -0.4205  0.5943
   91MOL0     C12438   6.972   6.937   3.479  0.1724  0.3960  0.3795
   91MOL0     C12439   7.095   6.994   3.452 -0.2988  0.2461 -0.9936
   91MOL0     C12440   7.121   7.100   3.348  0.5281  0.7616  0.6757
   91MOL0     C12441   7.198   7.222   3.403  0.6941  0.5888 -0.2310
   91MOL0     C12442   7.229   7.302   3.273  0.2955  0.2697 -1.0533
   91MOL0     C12443   7.312   7.427   3.307 -0.0210  0.1063 -0.5043
   91MOL0     O12444   7.422   7.408   3.392  0.7927 -0.1286  0.0026
   91MOL0     C12445   7.513   7.503   3.404  0.8056 -0.5221 -0.5744
   91MOL0     C12446   7.503   7.639   3.358  0.5377  0.1414 -0.3114
   91MOL0     C12447   7.608   7.726   3.383  0.3269  0.2629 -0.7857
   91MOL0     C12448   7.593   7.866   3.324 -0.1359  0.1949  0.2376
   91MOL0     C12449   7.730   7.679   3.441 -0.5314 -0.5183  0.7403
   91MOL0     C12450   7.853   7.768   3.454 -0.7977  0.6618  1.0917
   91MOL0     O12451   7.983   7.721   3.445  1.2501  0.5375  0.0913
   91MOL0     C12452   8.084   7.810   3.448  0.0860 -0.0850 -0.0978
   91MOL0     C12453   8.190   7.803   3.541 -1.0885  0.4254 -0.3463
   91MOL0     C12454   8.294   7.899   3.529  0.0565  1.3979  0.1993
   91MOL0     C12455   8.304   7.997   3.431 -0.8328  0.1227  0.1006
   91MOL0     O12456   8.391   8.099   3.421 -0.9828  0.2268 -0.4486
   91MOL0     C12457   8.394   8.179   3.538  0.2875  0.1185  0.0525
   91MOL0     C12458   8.485   8.298   3.524  0.2129  0.5962 -0.2495
   91MOL0     C12459   8.636   8.254   3.529 -0.3619 -0.3459  0.6700
   91MOL0     C12460   8.708   8.369   3.478  0.0983  0.2090  0.3931
   91MOL0     C12461   8.857   8.357   3.490  0.5294  0.5399 -0.3671
   91MOL0     C12462   8.939   8.455   3.414 -0.3976 -0.5586 -0.1612
   91MOL0     C12463   9.086   8.422   3.430 -0.0236 -0.4098  0.5752
   91MOL0     C12464   9.182   8.505   3.337 -0.3402  0.5659 -0.2875
   91MOL0    Cl12465   9.157   8.682   3.371 -0.0569  0.2929  0.0588
   91MOL0     C12466   8.207   7.992   3.330  0.3545 -0.8773  0.9379
   91MOL0     C12467   8.100   7.903   3.342  0.5883  0.1735  0.0786
   91MOL0     O12468   7.833   7.884   3.479 -0.7152  0.4533  0.2642
   91MOL0     C12469   7.740   7.543   3.478 -0.8664 -0.2741 -0.0029
   91MOL0     C12470   7.632   7.464   3.463  0.5342  0.8028  0.2104
   91MOL0     N12471   7.185   6.948   3.556 -0.1497  0.1655 -0.6293
   91MOL0     N12472   7.122   6.880   3.642 -0.7531  0.2832  0.2551
   91MOL0     C12473   5.964   6.952   3.459 -0.3787 -0.5422 -0.0576
   91MOL0     C12474   5.842   6.969   3.406  0.5673 -0.2720  0.0844
   91MOL0     C12475   5.426   6.974   3.232  0.1107 -0.3872 -0.7271
   91MOL0     C12476   5.358   6.871   3.305  0.7109  0.1459 -0.3435
   91MOL0     C12477   5.226   6.845   3.300  0.4244 -0.3428 -0.3117
   91MOL0     C12478   5.155   6.901   3.200 -0.7290  0.6556  0.1574
   91MOL0     O12479   5.024   6.862   3.185 -0.3977 -0.2048  0.7076
   91MOL0     C12480   4.944   6.905   3.073  0.7192  0.1384  0.2211
   91MOL0     C12481   4.977   6.835   2.940  0.0984 -0.2392 -0.1513
   91MOL0     C12482   4.855   6.832   2.839  0.3746  1.0211 -0.9045
   91MOL0     C12483   4.875   6.754   2.708 -0.7084  0.2338 -0.0866
   91MOL0     C12484   4.760   6.746   2.620 -0.4485  0.1477 -0.2666
   91MOL0     C12485   4.652   6.748   2.561 -0.3109 -0.6460 -0.4162
   91MOL0     C12486   5.222   7.001   3.118  0.2143  0.6698 -0.3819
   91MOL0     C12487   5.352   7.053   3.151  0.6313  0.6035  0.6290
   91MOL0     C12488   5.406   7.174   3.082  0.2345  0.6677 -0.8449
   91MOL0     H12489   5.739   6.659   3.334  1.5373  0.7076 -3.8859
   91MOL0     H12490   5.947   6.614   3.474 -3.6169 -1.1283 -1.6924
   91MOL0     H12491   6.203   6.715   3.365 -1.4986  1.4004  0.6786
   91MOL0     H12492   6.161   6.598   3.487  0.4183  0.8506  3.7199
   91MOL0     H12493   6.396   6.597   3.464  1.0790 -0.5177  1.1048
   91MOL0     H12494   6.388   6.773   3.491 -3.8115  2.2793  0.9318
   91MOL0     H12495   6.348   6.748   3.712 -1.1325  0.6319 -0.7727
   91MOL0     H12496   6.270   6.586   3.703  1.5129 -1.7406 -0.6555
   91MOL0     H12497   6.483   6.554   3.798 -0.7417  4.3314  0.8714
   91MOL0     H12498   6.494   6.476   3.634  0.9602  0.6173 -0.4126
   91MOL0     H12499   6.601   6.751   3.705 -1.1282 -0.9052  0.1983
   91MOL0     H12500   6.605   6.668   3.546  1.6931 -2.3622 -0.4949
   91MOL0     H12501   6.753   6.622   3.807 -2.1374  2.2977  0.2387
   91MOL0     H12502   6.748   6.494   3.679  4.3919  0.0962 -1.9629
   91MOL0     H12503   6.825   6.690   3.519  1.0543  0.5162 -0.2412
   91MOL0     H12504   6.950   6.607   3.617 -0.3226 -0.0467 -2.3580
   91MOL0     H12505   6.811   6.874   3.673  0.6679  0.1376  0.0106
   91MOL0     H12506   6.921   6.803   3.784 -0.5510 -1.1226  0.3755
   91MOL0     H12507   6.890   6.935   3.408 -0.9084  0.9187  1.5897
   91MOL0     H12508   7.023   7.134   3.312  1.7588  4.3887  0.2863
   91MOL0     H12509   7.172   7.056   3.262  0.8305  1.4734  0.4836
   91MOL0     H12510   7.133   7.289   3.460  0.9274  1.5048 -1.0224
   91MOL0     H12511   7.286   7.199   3.463  0.8397 -2.1468 -1.3493
   91MOL0     H12512   7.273   7.256   3.184  0.5112  1.4654 -1.5947
   91MOL0     H12513   7.139   7.336   3.220  0.1632 -1.2966 -1.8903
   91MOL0     H12514   7.331   7.480   3.214 -3.7257 -1.3963 -2.3316
   91MOL0     H12515   7.257   7.500   3.369 -0.9729 -0.3548 -0.7842
   91MOL0     H12516   7.414   7.681   3.312  0.3708  0.8501  0.6231
   91MOL0     H12517   7.679   7.896   3.264 -0.1530 -0.9665 -0.3905
   91MOL0     H12518   7.578   7.941   3.403 -1.1622 -0.7259  0.9482
   91MOL0     H12519   7.505   7.869   3.259  0.6755  1.1386 -0.8515
   91MOL0     H12520   8.189   7.736   3.626  2.1187  1.0282  0.2892
   91MOL0     H12521   8.360   7.912   3.614  2.4060 -0.1103 -1.2562
   91MOL0     H12522   8.292   8.209   3.564 -0.3236 -1.8346  0.0063
   91MOL0     H12523   8.430   8.117   3.621  0.9757 -1.4685 -1.3780
   91MOL0     H12524   8.454   8.361   3.441 -0.7847  1.0062  0.4181
   91MOL0     H12525   8.475   8.364   3.611  0.3425  1.3310 -0.7874
   91MOL0     H12526   8.659   8.160   3.477  0.1981  0.1978 -0.0875
   91MOL0     H12527   8.675   8.234   3.629  2.2829 -2.4041 -0.6376
   91MOL0     H12528   8.671   8.451   3.540 -1.1675 -0.7538  0.9562
   91MOL0     H12529   8.691   8.375   3.370  0.2983  1.2232  0.4068
   91MOL0     H12530   8.887   8.367   3.595 -0.2949  1.9582 -0.2466
   91MOL0     H12531   8.880   8.261   3.442 -1.5836 -0.3041  0.2215
   91MOL0     H12532   8.914   8.560   3.430 -0.3488 -0.7725  1.4255
   91MOL0     H12533   8.922   8.433   3.308 -0.9171 -2.4398  0.2880
   91MOL0     H12534   9.103   8.314   3.419  0.0948 -0.4225  0.8847
   91MOL0     H12535   9.129   8.445   3.527  4.1262  1.5217 -1.4491
   91MOL0     H12536   9.159   8.490   3.231  0.8823 -0.3884 -0.4329
   91MOL0     H12537   9.286   8.477   3.355  0.1639  2.5869  0.2766
   91MOL0     H12538   8.215   8.063   3.248 -0.1575 -0.8910  0.8719
   91MOL0     H12539   8.021   7.914   3.269 -0.2576 -2.4884  0.4922
   91MOL0     H12540   7.820   7.493   3.531 -2.8723 -0.9698  2.5780
   91MOL0     H12541   7.634   7.367   3.511 -0.3293  1.3598  1.4039
   91MOL0     H12542   6.022   7.040   3.488 -3.4193  1.7666 -0.4980
   91MOL0     H12543   5.795   7.066   3.401 -2.8278 -1.8208 -2.5049
   91MOL0     H12544   5.422   6.807   3.365  0.7098 -1.5068 -1.9910
   91MOL0     H12545   5.188   6.767   3.366 -0.7774 -0.8587 -1.5733
   91MOL0     H12546   4.837   6.905   3.097  0.9181 -0.5887  1.1471
   91MOL0     H12547   4.967   7.009   3.046  2.6506 -0.3712 -0.1916
   91MOL0     H12548   5.016   6.733   2.951  1.7528  0.2943 -0.7197
   91MOL0     H12549   5.052   6.896   2.889 -1.4392 -0.7870 -3.2830
   91MOL0     H12550   4.766   6.792   2.889 -0.6830 -2.5025 -4.9977
   91MOL0     H12551   4.839   6.935   2.808  2.6598  2.7552  2.8668
   91MOL0     H12552   4.918   6.655   2.729 -1.6968 -0.0928  0.4758
   91MOL0     H12553   4.950   6.816   2.659  1.1836  1.7894  4.2063
   91MOL0     H12554   4.561   6.755   2.506 -1.0564  0.4923  0.8995
   91MOL0     H12555   5.168   7.072   3.055  0.6147  1.1833 -0.1542
   91MOL0     H12556   5.499   7.148   3.031 -1.3218 -1.1552 -2.9708
   91MOL0     H12557   5.339   7.211   3.004 -0.0102  1.9937 -0.0351
   91MOL0     H12558   5.416   7.264   3.144 -0.8014  0.2664 -0.0629
   92MOL0     O12559  11.287   9.390   4.180  0.2669 -0.3807  0.2537
   92MOL0     C12560  11.189   9.334   4.151 -0.1546 -0.3708  0.3450
   92MOL0     O12561  11.177   9.236   4.059  1.3925 -0.1203  0.2429
   92MOL0     C12562  11.277   9.173   3.987  0.3561 -0.2535 -0.4943
   92MOL0     C12563  11.271   9.032   3.979 -0.2291 -0.2075  0.2773
   92MOL0     C12564  11.366   8.969   3.903  0.2563  0.4388 -0.7458
   92MOL0     C12565  11.476   9.038   3.845 -0.6466 -0.5362  0.7006
   92MOL0     O12566  11.561   8.960   3.765 -0.3778  0.3832  0.0679
   92MOL0     C12567  11.662   9.023   3.689 -0.7929  0.0297  0.0457
   92MOL0     C12568  11.719   8.929   3.585  0.3244  0.3723 -0.7628
   92MOL0     C12569  11.615   8.859   3.497 -0.0873 -0.1617  0.4430
   92MOL0     C12570  11.672   8.778   3.390 -0.3207 -1.1602  0.0807
   92MOL0     C12571  11.570   8.670   3.340 -0.1713 -0.1346  0.9713
   92MOL0     C12572  11.546   8.548   3.441  0.3458 -0.8207 -0.5869
   92MOL0     C12573  11.449   8.443   3.376 -0.3003  0.4195  0.5543
   92MOL0     C12574  11.520   8.356   3.270 -0.2747  0.1720  0.4638
   92MOL0     N12575  11.638   8.269   3.306 -0.5672 -0.3669  1.1198
   92MOL0     C12576  11.765   8.287   3.259 -0.2465 -0.3812 -1.0870
   92MOL0     C12577  11.835   8.180   3.289  0.1830  0.0250 -0.7193
   92MOL0     C12578  11.981   8.149   3.257 -0.8841  0.1067  0.3408
   92MOL0     C12579  12.086   8.190   3.361  0.8037  0.0879 -0.2639
   92MOL0     C12580  12.156   8.065   3.419 -0.1091  0.1035  0.7444
   92MOL0     C12581  12.213   8.073   3.563 -0.3280  0.2556  0.2563
   92MOL0     O12582  12.296   8.186   3.576 -0.5437 -0.3749 -0.2598
   92MOL0     C12583  12.421   8.183   3.514  0.4221 -0.2483  0.1070
   92MOL0     C12584  12.512   8.085   3.536  0.3434 -0.0554  0.7677
   92MOL0     C12585  12.645   8.080   3.492  1.4296 -0.0434  0.3248
   92MOL0     C12586  12.719   7.950   3.526 -0.1774  0.7616 -0.9128
   92MOL0     C12587  12.685   8.191   3.414 -0.0000 -0.7959  0.5379
   92MOL0     C12588  12.830   8.206   3.371  1.1157 -0.5755 -0.0948
   92MOL0     O12589  12.929   8.173   3.470 -0.4166  0.4102 -0.1767
   92MOL0     C12590  13.055   8.137   3.432 -0.3572  0.1755  0.9865
   92MOL0     C12591  13.158   8.131   3.527 -0.0856 -0.5558 -0.3941
   92MOL0     C12592  13.289   8.080   3.490 -0.4674  0.0513  0.2135
   92MOL0     C12593  13.313   8.028   3.363 -0.3531  0.2857 -0.7380
   92MOL0     O12594  13.434   7.974   3.347 -0.2906  0.4862  0.5771
   92MOL0     C12595  13.434   7.861   3.255  0.4642 -0.2414  0.5003
   92MOL0     C12596  13.557   7.782   3.279 -1.4490  0.3395 -0.4109
   92MOL0     C12597  13.685   7.854   3.230 -0.2054  0.4715  0.0784
   92MOL0     C12598  13.810   7.788   3.290  0.2968  0.0509  0.8377
   92MOL0     C12599  13.877   7.839   3.411  0.3989 -0.0471 -0.0185
   92MOL0     C12600  13.804   7.808   3.543 -0.0306 -0.6054 -0.2654
   92MOL0     C12601  13.788   7.656   3.583 -0.6584  0.1943 -0.1545
   92MOL0     C12602  13.904   7.575   3.567  0.4500  1.0532 -0.4318
   92MOL0    Cl12603  13.873   7.407   3.620  0.2752  0.2707  0.3268
   92MOL0     C12604  13.214   8.028   3.271  0.3860  1.3351 -0.5219
   92MOL0     C12605  13.085   8.076   3.303  0.0171  0.3751  0.2561
   92MOL0     O12606  12.852   8.256   3.263 -0.7283  0.0781  0.4308
   92MOL0     C12607  12.594   8.291   3.373  0.1057 -0.4720 -0.2492
   92MOL0     C12608  12.466   8.292   3.435 -0.3096  0.1452  0.3628
   92MOL0     N12609  11.746   8.101   3.364  0.1344 -0.1289 -0.1635
   92MOL0     N12610  11.630   8.157   3.372  0.7046  0.9356 -0.4050
   92MOL0     C12611  11.477   9.176   3.853  1.2587 -0.2653 -0.2336
   92MOL0     C12612  11.381   9.248   3.928  0.0882  0.0163  0.1765
   92MOL0     C12613  11.059   9.360   4.221  0.0037  0.2909 -0.8037
   92MOL0     C12614  10.936   9.299   4.178  0.4191  0.2649  0.1483
   92MOL0     C12615  10.813   9.323   4.251  0.4547  0.6031  0.3110
   92MOL0     C12616  10.802   9.417   4.352 -0.1303  0.1276  0.2354
   92MOL0     O12617  10.686   9.458   4.417 -0.7295 -0.4482 -0.4243
   92MOL0     C12618  10.674   9.597   4.460  0.8868 -0.1687  1.2463
   92MOL0     C12619  10.518   9.632   4.455  0.0638 -0.0847 -0.7810
   92MOL0     C12620  10.444   9.534   4.544 -0.4377 -0.1390  0.2181
   92MOL0     C12621  10.291   9.567   4.535 -0.6279 -0.3839 -0.2246
   92MOL0     C12622  10.216   9.506   4.643 -0.0090  0.4970  0.5224
   92MOL0     C12623  10.128   9.461   4.713 -0.1883  0.9967  0.0301
   92MOL0     C12624  10.926   9.471   4.396 -0.6886  0.5059 -0.1002
   92MOL0     C12625  11.052   9.451   4.337  0.3578 -0.0531  0.2302
   92MOL0     C12626  11.176   9.505   4.406 -0.7635 -0.6960 -0.0031
   92MOL0     H12627  11.191   8.984   4.035  0.1354 -1.0323  0.1146
   92MOL0     H12628  11.361   8.863   3.883 -2.2509  0.6009 -1.3062
   92MOL0     H12629  11.748   9.046   3.753 -0.2835  0.2921 -0.7146
   92MOL0     H12630  11.629   9.118   3.647 -3.3105  0.3427  2.4963
   92MOL0     H12631  11.787   8.984   3.519 -0.8019  1.3012 -1.1871
   92MOL0     H12632  11.785   8.858   3.636  0.4252  0.7330 -0.3877
   92MOL0     H12633  11.557   8.791   3.559  0.2820  0.2430  1.2510
   92MOL0     H12634  11.545   8.932   3.456  0.0550  0.2511  0.9183
   92MOL0     H12635  11.711   8.844   3.312  1.1480  1.2227  2.6410
   92MOL0     H12636  11.763   8.732   3.430  0.6875 -0.8693 -1.7977
   92MOL0     H12637  11.595   8.625   3.243 -1.7365 -0.9631  0.9081
   92MOL0     H12638  11.470   8.709   3.320 -0.5175 -1.3430  0.1450
   92MOL0     H12639  11.649   8.516   3.454  1.3026  0.8998 -3.0708
   92MOL0     H12640  11.504   8.578   3.537 -2.2334 -0.7294 -1.6617
   92MOL0     H12641  11.369   8.495   3.322  0.2506  1.9306  1.1354
   92MOL0     H12642  11.411   8.369   3.446  0.6516 -1.2842 -0.6450
   92MOL0     H12643  11.449   8.288   3.223  1.4737 -0.5243 -1.3289
   92MOL0     H12644  11.562   8.412   3.185 -0.1993  1.1068  1.0951
   92MOL0     H12645  11.799   8.372   3.201 -0.3746 -0.2537 -0.9766
   92MOL0     H12646  11.996   8.195   3.159  2.6270 -1.1748  0.1772
   92MOL0     H12647  11.985   8.042   3.236  0.8395  0.2199  0.0085
   92MOL0     H12648  12.154   8.262   3.316 -1.7323  2.7100 -0.1901
   92MOL0     H12649  12.027   8.238   3.440 -1.6243 -2.2665 -0.5100
   92MOL0     H12650  12.085   7.982   3.426  0.1889 -0.2979 -0.6847
   92MOL0     H12651  12.236   8.044   3.347 -0.8946  0.8939 -0.3907
   92MOL0     H12652  12.131   8.091   3.633  0.6357  0.6576  1.3092
   92MOL0     H12653  12.262   7.981   3.595  0.6396  0.8843  0.6150
   92MOL0     H12654  12.475   8.003   3.596 -2.1012  1.1368  0.9986
   92MOL0     H12655  12.785   7.903   3.452  1.6052 -3.9292  3.1028
   92MOL0     H12656  12.650   7.867   3.540  0.3143  0.6630  1.2404
   92MOL0     H12657  12.770   7.974   3.620  0.3080  2.2208 -1.5223
   92MOL0     H12658  13.147   8.150   3.633  2.3795 -4.2754  0.7015
   92MOL0     H12659  13.369   8.071   3.562 -0.6530 -0.4207  0.3633
   92MOL0     H12660  13.359   7.783   3.270 -0.0943 -0.1898 -1.5863
   92MOL0     H12661  13.442   7.902   3.154  1.6490 -0.4094  0.5186
   92MOL0     H12662  13.565   7.765   3.387 -0.3668 -0.9690 -0.6781
   92MOL0     H12663  13.547   7.685   3.228  1.1890  1.1338 -2.6421
   92MOL0     H12664  13.685   7.961   3.253  1.8934  0.8772 -1.5232
   92MOL0     H12665  13.683   7.832   3.123  1.8464 -1.4369  0.3640
   92MOL0     H12666  13.880   7.794   3.207 -0.0027  0.7388  0.6307
   92MOL0     H12667  13.780   7.683   3.298 -3.8497  1.1290  2.6583
   92MOL0     H12668  13.978   7.796   3.415 -0.3029 -1.6675  1.7067
   92MOL0     H12669  13.894   7.947   3.403  2.2125 -0.3716 -1.2211
   92MOL0     H12670  13.705   7.853   3.532 -1.0851 -2.7129 -0.1101
   92MOL0     H12671  13.849   7.868   3.622 -0.8207  1.2169 -1.1344
   92MOL0     H12672  13.706   7.605   3.531  0.1610 -1.3333  0.0071
   92MOL0     H12673  13.762   7.658   3.690 -0.1082 -1.1281  0.0158
   92MOL0     H12674  13.979   7.629   3.626  1.3247 -0.9976  0.4601
   92MOL0     H12675  13.927   7.578   3.460 -3.7438 -1.5527 -1.6531
   92MOL0     H12676  13.226   7.987   3.171 -0.5070  1.9903 -0.9169
   92MOL0     H12677  13.017   8.056   3.222  0.1962 -0.3988  0.2877
   92MOL0     H12678  12.638   8.378   3.326  0.9061  0.3499  1.8815
   92MOL0     H12679  12.391   8.366   3.409 -0.1771 -1.0501 -4.4535
   92MOL0     H12680  11.563   9.236   3.822 -0.8577  4.0265  1.4768
   92MOL0     H12681  11.396   9.355   3.941 -1.4859  0.4113 -0.9026
   92MOL0     H12682  10.932   9.229   4.095  0.7462 -0.6125  0.8408
   92MOL0     H12683  10.719   9.280   4.217  1.3502  0.2810 -1.9869
   92MOL0     H12684  10.700   9.608   4.565 -1.5144  0.0302  1.8855
   92MOL0     H12685  10.726   9.671   4.397 -0.2651 -1.9828 -2.1077
   92MOL0     H12686  10.481   9.625   4.353 -2.3047  3.2367 -0.3107
   92MOL0     H12687  10.499   9.732   4.496  3.3161  0.0147  0.8281
   92MOL0     H12688  10.456   9.430   4.511  2.0596  0.0881  0.2160
   92MOL0     H12689  10.485   9.543   4.645 -2.2113  1.9905  0.8250
   92MOL0     H12690  10.262   9.535   4.435  3.8594  2.1478 -2.6556
   92MOL0     H12691  10.275   9.674   4.546 -3.4963 -0.5311 -1.8984
   92MOL0     H12692  10.062   9.420   4.787  1.7610  0.0515  1.3657
   92MOL0     H12693  10.921   9.534   4.484 -0.6302 -0.5088  0.6472
   92MOL0     H12694  11.163   9.574   4.489  2.1648 -1.9303  1.6310
   92MOL0     H12695  11.237   9.431   4.458  0.5838 -0.3914 -1.0749
   92MOL0     H12696  11.234   9.557   4.329 -0.4918  0.9100  1.2519
   93MOL0     O12697   0.578  10.849   9.186  0.3205  0.5452 -0.6312
   93MOL0     C12698   0.519  10.744   9.159  0.2773  0.7384 -0.3874
   93MOL0     O12699   0.524  10.632   9.239  0.2229  0.3386 -0.3657
   93MOL0     C12700   0.612  10.621   9.351 -0.3930 -0.6457  0.5916
   93MOL0     C12701   0.751  10.651   9.342 -1.1751  0.3739 -1.0008
   93MOL0     C12702   0.834  10.644   9.455  0.5941  0.1021 -0.0220
   93MOL0     C12703   0.775  10.616   9.586  0.3700 -1.3509  0.5302
   93MOL0     O12704   0.849  10.608   9.703  0.7580 -0.2772 -0.4337
   93MOL0     C12705   0.954  10.715   9.715 -0.1961  0.5760 -0.4384
   93MOL0     C12706   1.033  10.685   9.848  1.0359  0.2117  1.3366
   93MOL0     C12707   1.137  10.789   9.880  0.6926  0.6624  0.3914
   93MOL0     C12708   1.175  10.791  10.031  0.1847  0.3919  0.2017
   93MOL0     C12709   1.308  10.853  10.063 -0.0439 -0.1261 -0.1194
   93MOL0     C12710   1.303  11.002  10.029 -0.6947  0.7334  0.2898
   93MOL0     C12711   1.445  11.070  10.014  0.1228 -0.5579 -0.7348
   93MOL0     C12712   1.431  11.210   9.951 -1.4870 -0.3944 -1.0375
   93MOL0     N12713   1.563  11.275   9.920  0.7456 -0.1926  0.1238
   93MOL0     C12714   1.567  11.406   9.865  0.7665  0.7403  0.2017
   93MOL0     C12715   1.701  11.422   9.838 -0.0249  0.0104  0.4441
   93MOL0     C12716   1.781  11.532   9.768  0.2972  0.5551 -0.9940
   93MOL0     C12717   1.794  11.492   9.628 -0.2373 -0.3087  1.0890
   93MOL0     C12718   1.915  11.557   9.556  0.0746  0.0088 -0.1476
   93MOL0     C12719   1.897  11.706   9.561 -0.0094 -0.7683  0.2606
   93MOL0     O12720   1.944  11.762   9.681 -0.0392 -0.5245  0.0865
   93MOL0     C12721   2.073  11.797   9.702  0.3805 -0.5710 -0.3099
   93MOL0     C12722   2.181  11.777   9.614  0.0441  0.9040 -0.1321
   93MOL0     C12723   2.303  11.839   9.641  0.6298 -0.8351  0.0299
   93MOL0     C12724   2.411  11.800   9.536  0.6695 -0.7916 -0.8147
   93MOL0     C12725   2.332  11.903   9.766 -0.1451 -1.1212  0.4152
   93MOL0     C12726   2.468  11.954   9.811  1.4056 -0.1424  0.2939
   93MOL0     O12727   2.560  11.968   9.709  0.2696 -0.7063 -0.0044
   93MOL0     C12728   2.696  12.002   9.739 -0.3897 -1.1610 -0.0242
   93MOL0     C12729   2.764  12.056   9.627 -0.9002 -0.4735  0.3254
   93MOL0     C12730   2.905  12.074   9.629 -0.2795  0.0840 -0.3445
   93MOL0     C12731   2.975  12.045   9.744 -1.0142  0.5092 -0.2185
   93MOL0     O12732   3.112  12.063   9.762  0.2995  1.0399 -0.6571
   93MOL0     C12733   3.182  11.974   9.669 -0.0044  0.2557 -0.2930
   93MOL0     C12734   3.316  11.973   9.736  0.1827  1.1770 -0.3588
   93MOL0     C12735   3.405  11.862   9.686 -0.3506 -0.1226 -0.1653
   93MOL0     C12736   3.549  11.867   9.740 -0.8610  0.4606 -0.2091
   93MOL0     C12737   3.614  11.728   9.692  0.7168 -0.4022 -0.7717
   93MOL0     C12738   3.766  11.746   9.701  0.6315 -0.5803  0.8319
   93MOL0     C12739   3.824  11.609   9.720  0.1358  0.4614  0.6567
   93MOL0     C12740   3.813  11.529   9.593  0.5558  0.4696 -0.6052
   93MOL0    Cl12741   3.836  11.354   9.627 -0.1064 -0.2205 -0.2626
   93MOL0     C12742   2.910  11.992   9.851  0.3707 -0.2028  0.8241
   93MOL0     C12743   2.771  11.965   9.849 -0.2877 -0.0655 -0.4240
   93MOL0     O12744   2.490  11.988   9.924  0.9555 -0.1651  0.2221
   93MOL0     C12745   2.221  11.912   9.856  0.2123 -0.0789  0.7024
   93MOL0     C12746   2.091  11.865   9.822 -0.4315  0.5570 -0.1546
   93MOL0     N12747   1.772  11.321   9.906 -0.2616  0.6900 -0.9132
   93MOL0     N12748   1.691  11.230   9.953 -0.1703 -0.4029  0.5866
   93MOL0     C12749   0.644  10.583   9.588 -0.1527  1.7096  0.4646
   93MOL0     C12750   0.567  10.588   9.477  0.1891 -0.0997 -0.4212
   93MOL0     C12751   0.441  10.734   9.030  0.2031 -0.1913 -0.0435
   93MOL0     C12752   0.415  10.604   8.986  0.1549 -0.1806  0.3064
   93MOL0     C12753   0.356  10.568   8.863 -0.4405 -0.1630 -0.0044
   93MOL0     C12754   0.307  10.672   8.784 -0.0332 -0.2056  0.1088
   93MOL0     O12755   0.255  10.651   8.659  0.9350 -0.3639 -0.0154
   93MOL0     C12756   0.217  10.755   8.567  0.0629 -0.1093 -0.2090
   93MOL0     C12757   0.106  10.684   8.490 -0.4380  0.0119  0.0679
   93MOL0     C12758   0.080  10.750   8.354 -0.3010 -1.0796 -1.0852
   93MOL0     C12759   0.004  10.651   8.257  0.6021 -0.5444 -0.0305
   93MOL0     C12760  -0.132  10.645   8.306 -0.3752 -0.2815  0.0800
   93MOL0     C12761  -0.248  10.634   8.331 -0.8659 -0.2403 -0.1849
   93MOL0     C12762   0.321  10.806   8.836  0.7728 -0.3909 -0.4185
   93MOL0     C12763   0.385  10.840   8.948 -0.7259 -0.8178 -0.1199
   93MOL0     C12764   0.388  10.993   8.993  0.5182  1.1549  0.0356
   93MOL0     H12765   0.791  10.676   9.244  1.9712 -0.3596 -0.0137
   93MOL0     H12766   0.933  10.686   9.439  2.0873 -2.6727  1.2808
   93MOL0     H12767   0.910  10.814   9.706 -0.6174  0.4109 -0.2183
   93MOL0     H12768   1.027  10.709   9.633 -0.3430  0.6420 -0.5736
   93MOL0     H12769   0.961  10.687   9.931  0.5483 -2.1239  1.0414
   93MOL0     H12770   1.078  10.585   9.853  0.4693 -0.2359 -1.0838
   93MOL0     H12771   1.225  10.770   9.818 -0.8694 -3.8523 -0.8130
   93MOL0     H12772   1.101  10.883   9.835 -1.2448 -0.3983 -0.4183
   93MOL0     H12773   1.098  10.846  10.085  0.8747  1.0038  0.5755
   93MOL0     H12774   1.172  10.687  10.063 -2.4809  0.5582  0.6780
   93MOL0     H12775   1.380  10.792  10.009 -0.5763 -0.6661 -0.2291
   93MOL0     H12776   1.315  10.851  10.172 -1.3187  1.3981  0.0176
   93MOL0     H12777   1.263  11.011   9.928  0.1446 -4.2931 -0.7797
   93MOL0     H12778   1.236  11.049  10.101 -1.6083 -0.1091  0.0122
   93MOL0     H12779   1.488  11.004   9.938 -2.4232 -1.2587 -1.6779
   93MOL0     H12780   1.494  11.075  10.111 -0.2135  2.6856 -0.6099
   93MOL0     H12781   1.366  11.199   9.865  0.6287 -1.5838 -2.5804
   93MOL0     H12782   1.381  11.278  10.020  3.9403  0.7471  2.3888
   93MOL0     H12783   1.479  11.466   9.848 -0.6169 -1.3986 -0.6422
   93MOL0     H12784   1.881  11.541   9.810 -0.9689 -2.4018  3.3447
   93MOL0     H12785   1.727  11.624   9.791 -1.0311 -0.6154  0.8831
   93MOL0     H12786   1.813  11.384   9.626 -0.1189 -0.2967 -1.0281
   93MOL0     H12787   1.697  11.513   9.582 -0.9362  0.7734  2.9370
   93MOL0     H12788   2.012  11.525   9.598  0.6538  0.3804 -1.1699
   93MOL0     H12789   1.921  11.536   9.449 -0.4882  1.2622 -0.4390
   93MOL0     H12790   1.955  11.747   9.477 -1.8637  0.6388 -0.4101
   93MOL0     H12791   1.797  11.742   9.536  0.1091 -0.3210  0.4139
   93MOL0     H12792   2.174  11.730   9.517 -0.5132  1.1083 -0.1938
   93MOL0     H12793   2.361  11.762   9.446  1.1939 -1.4968 -0.8142
   93MOL0     H12794   2.490  11.730   9.564  2.3189  0.5866 -1.8427
   93MOL0     H12795   2.469  11.886   9.500  0.6499 -0.0298  0.8457
   93MOL0     H12796   2.710  12.086   9.538 -0.0339  0.8750  0.2252
   93MOL0     H12797   2.955  12.126   9.548  0.6396  3.8845  2.3779
   93MOL0     H12798   3.130  11.878   9.666  1.6424 -0.7347  1.0106
   93MOL0     H12799   3.199  12.024   9.573  0.9106 -1.4735 -1.0642
   93MOL0     H12800   3.351  12.074   9.715 -0.2707  2.1636  3.0875
   93MOL0     H12801   3.302  11.958   9.843 -0.7974  0.7396 -0.5315
   93MOL0     H12802   3.413  11.875   9.578  1.8452 -0.5187 -0.0995
   93MOL0     H12803   3.367  11.762   9.711  2.0289 -1.0142  0.2045
   93MOL0     H12804   3.552  11.880   9.849  0.7105  0.0016 -0.1622
   93MOL0     H12805   3.601  11.953   9.695  2.2144 -0.2774  1.5966
   93MOL0     H12806   3.573  11.659   9.766  1.4940  1.0451  1.0951
   93MOL0     H12807   3.576  11.701   9.593 -2.5471 -1.6232  0.6591
   93MOL0     H12808   3.800  11.812   9.782  2.3390  0.0459 -0.3311
   93MOL0     H12809   3.796  11.786   9.603  2.3488 -1.3222  1.0058
   93MOL0     H12810   3.762  11.571   9.802  0.2484 -1.4551 -0.0960
   93MOL0     H12811   3.928  11.632   9.745  0.5405  2.6431 -2.3968
   93MOL0     H12812   3.887  11.567   9.522  0.4365 -0.7009 -1.3640
   93MOL0     H12813   3.717  11.547   9.544  0.3414 -0.9245 -0.7308
   93MOL0     H12814   2.953  11.973   9.949 -1.5464  0.2678  1.8116
   93MOL0     H12815   2.720  11.924   9.935 -0.5094  1.9879  0.4894
   93MOL0     H12816   2.244  11.953   9.954 -2.2834 -2.4413  2.4162
   93MOL0     H12817   2.005  11.882   9.886 -0.5103 -2.1045  0.5433
   93MOL0     H12818   0.591  10.541   9.673 -0.2019  0.3225 -0.2127
   93MOL0     H12819   0.465  10.550   9.486 -0.3758  1.1995 -1.0353
   93MOL0     H12820   0.442  10.514   9.040  0.1840 -0.4376 -0.1304
   93MOL0     H12821   0.342  10.466   8.828 -0.9548  0.9812 -3.5711
   93MOL0     H12822   0.176  10.840   8.623 -0.9115 -1.0073  0.4633
   93MOL0     H12823   0.306  10.782   8.508 -2.0975  0.9983 -3.2017
   93MOL0     H12824   0.011  10.678   8.545 -0.5044  0.3296 -0.0082
   93MOL0     H12825   0.141  10.583   8.467 -0.3397 -0.1217  0.7802
   93MOL0     H12826   0.029  10.846   8.348  0.4254 -0.7107 -1.5171
   93MOL0     H12827   0.184  10.759   8.321  1.8691 -1.9796  4.4175
   93MOL0     H12828   0.055  10.554   8.255  1.4678 -0.1059 -2.4495
   93MOL0     H12829   0.006  10.698   8.158 -3.3884 -0.0053 -0.0229
   93MOL0     H12830  -0.353  10.637   8.354 -0.3625  0.3194  2.3009
   93MOL0     H12831   0.273  10.888   8.783 -1.9095 -0.6281  1.4418
   93MOL0     H12832   0.489  11.034   8.984 -0.1306  2.8818  0.2967
   93MOL0     H12833   0.326  11.055   8.928 -0.2758  1.3161  0.9327
   93MOL0     H12834   0.343  10.992   9.092 -2.0649 -1.6415 -0.9898
   94MOL0     O12835   5.315   1.586   6.980  0.4310 -0.1253  0.2492
   94MOL0     C12836   5.304   1.679   6.897 -0.3313 -0.3118 -0.0377
   94MOL0     O12837   5.386   1.688   6.778 -0.9476 -0.6390 -0.1395
   94MOL0     C12838   5.504   1.605   6.774  0.2077 -0.0470  0.5954
   94MOL0     C12839   5.548   1.578   6.642 -0.6785  0.5868 -0.0786
   94MOL0     C12840   5.673   1.508   6.632  0.0548  0.1654  0.4876
   94MOL0     C12841   5.742   1.459   6.741  0.0338 -0.2510  0.8834
   94MOL0     O12842   5.864   1.410   6.706 -0.3964 -0.2131 -0.2956
   94MOL0     C12843   5.967   1.407   6.802 -0.1970 -1.3931 -0.8749
   94MOL0     C12844   6.023   1.548   6.846  0.3858 -0.3108  0.5511
   94MOL0     C12845   6.085   1.627   6.725 -0.1923  0.7545  0.2195
   94MOL0     C12846   6.131   1.763   6.757 -0.4985 -1.2434  0.5396
   94MOL0     C12847   6.256   1.765   6.841 -0.3380 -0.2371 -0.4917
   94MOL0     C12848   6.286   1.910   6.880 -0.4051  0.6878 -0.9322
   94MOL0     C12849   6.407   1.924   6.983 -1.5040 -0.1271  0.3028
   94MOL0     C12850   6.534   1.936   6.901 -0.6090 -0.7200  0.3850
   94MOL0     N12851   6.652   1.929   6.986 -0.1217 -0.2028 -0.8032
   94MOL0     C12852   6.672   1.856   7.106 -0.4079  0.1581  0.0997
   94MOL0     C12853   6.779   1.910   7.167 -0.1347  0.2148 -0.9011
   94MOL0     C12854   6.847   1.862   7.294  0.3269 -0.3396  0.6549
   94MOL0     C12855   6.972   1.778   7.269  0.7211  0.4070  0.0116
   94MOL0     C12856   7.091   1.852   7.199  0.0372 -0.3279 -0.0964
   94MOL0     C12857   7.210   1.757   7.184 -0.1846 -0.8609 -0.2008
   94MOL0     O12858   7.318   1.840   7.147 -0.2272 -0.4306 -0.5029
   94MOL0     C12859   7.428   1.789   7.093 -0.5325 -0.8877  0.3547
   94MOL0     C12860   7.493   1.882   7.012  0.2163 -0.0564 -0.3768
   94MOL0     C12861   7.612   1.858   6.953 -0.9162 -0.1614 -0.3223
   94MOL0     C12862   7.666   1.967   6.862  0.7378  0.2786 -0.0532
   94MOL0     C12863   7.684   1.740   6.982 -0.6193 -0.3381  0.0704
   94MOL0     C12864   7.823   1.706   6.930  0.7296 -0.1482  0.2751
   94MOL0     O12865   7.875   1.782   6.828  0.8271 -1.1887 -0.4052
   94MOL0     C12866   8.005   1.753   6.797  0.0899  0.3677  0.2488
   94MOL0     C12867   8.040   1.676   6.688 -0.4950 -0.1119 -0.2655
   94MOL0     C12868   8.169   1.644   6.654  0.2699 -0.4923  0.4198
   94MOL0     C12869   8.264   1.689   6.743  0.1903  0.2297  0.6166
   94MOL0     O12870   8.392   1.660   6.720  0.1487 -0.0814 -0.0000
   94MOL0     C12871   8.430   1.526   6.762  0.0994  0.3427 -0.5347
   94MOL0     C12872   8.585   1.510   6.742  0.6704 -0.9372 -0.7779
   94MOL0     C12873   8.621   1.358   6.766  0.1296 -1.2305 -0.5270
   94MOL0     C12874   8.572   1.253   6.669 -0.2836 -0.4986 -0.5692
   94MOL0     C12875   8.614   1.292   6.524 -0.9406 -0.2405  0.9216
   94MOL0     C12876   8.762   1.327   6.515 -0.6487 -0.0031 -0.3615
   94MOL0     C12877   8.817   1.313   6.373 -0.4292  0.0601  0.6585
   94MOL0     C12878   8.969   1.329   6.376  0.9999 -0.4535  0.3116
   94MOL0    Cl12879   9.026   1.171   6.447 -0.0953 -0.0760 -0.3876
   94MOL0     C12880   8.237   1.759   6.857 -0.1806 -0.1643 -0.2797
   94MOL0     C12881   8.107   1.797   6.887  0.7154  1.4101 -0.0430
   94MOL0     O12882   7.876   1.614   6.991 -0.1526  0.9130  0.5578
   94MOL0     C12883   7.631   1.644   7.069  0.2980  1.0527  0.8678
   94MOL0     C12884   7.501   1.672   7.118  0.4427 -0.4515 -0.2375
   94MOL0     N12885   6.815   2.019   7.093  0.2606  0.3023 -0.5427
   94MOL0     N12886   6.747   2.034   6.989  0.1602 -0.1513 -0.8425
   94MOL0     C12887   5.696   1.486   6.868  0.0267 -0.0618 -0.0795
   94MOL0     C12888   5.579   1.563   6.887  0.4878  0.4815 -0.0251
   94MOL0     C12889   5.180   1.762   6.902  0.3074 -0.1147 -1.2049
   94MOL0     C12890   5.122   1.814   6.783  0.0810 -0.5432 -0.1918
   94MOL0     C12891   5.000   1.881   6.778 -0.2905  0.3814 -0.0660
   94MOL0     C12892   4.923   1.912   6.887 -0.1495 -1.0641  0.0568
   94MOL0     O12893   4.826   2.001   6.870  0.3136  0.1558 -0.3721
   94MOL0     C12894   4.719   1.988   6.972 -0.7719  0.1477 -0.3507
   94MOL0     C12895   4.594   2.006   6.903  0.2499  0.5923 -0.1866
   94MOL0     C12896   4.572   2.162   6.871  0.3456  0.9406  0.4793
   94MOL0     C12897   4.440   2.190   6.794 -0.3800  0.9838  0.0423
   94MOL0     C12898   4.423   2.332   6.774 -0.4034 -0.8463 -0.1562
   94MOL0     C12899   4.416   2.452   6.766  0.1264 -0.6586  0.4940
   94MOL0     C12900   4.976   1.863   7.006  0.4940 -0.1665  0.6476
   94MOL0     C12901   5.098   1.791   7.019 -0.6748  0.2121 -0.0761
   94MOL0     C12902   5.138   1.745   7.162 -0.3687 -0.0205  0.1791
   94MOL0     H12903   5.504   1.610   6.548 -0.6931 -0.8461 -0.5813
   94MOL0     H12904   5.710   1.503   6.530 -0.5375 -0.8649  0.3112
   94MOL0     H12905   6.058   1.365   6.759  0.4451 -0.6127 -0.3176
   94MOL0     H12906   5.947   1.340   6.887  1.4324 -0.6337  0.1721
   94MOL0     H12907   5.941   1.616   6.871  0.0753  0.2233 -1.7049
   94MOL0     H12908   6.097   1.544   6.926 -1.9717 -0.9809  2.8091
   94MOL0     H12909   6.174   1.573   6.691  0.4916  2.1450 -0.2773
   94MOL0     H12910   6.011   1.626   6.645 -0.4627  1.8508  0.4329
   94MOL0     H12911   6.148   1.815   6.662 -0.8190 -1.2367  0.4814
   94MOL0     H12912   6.048   1.810   6.811  0.8940  2.0895  0.0099
   94MOL0     H12913   6.342   1.730   6.783  0.3371  0.1361  0.2641
   94MOL0     H12914   6.257   1.691   6.921  1.1166 -2.5243 -2.4761
   94MOL0     H12915   6.303   1.972   6.791 -0.3622  1.9927 -0.0455
   94MOL0     H12916   6.200   1.949   6.936 -1.3771 -3.4864  0.9040
   94MOL0     H12917   6.411   1.834   7.046 -0.3555 -0.0866  0.3177
   94MOL0     H12918   6.383   2.014   7.040 -2.9103  0.9111 -1.8121
   94MOL0     H12919   6.538   1.860   6.823 -2.7192 -2.5334  1.9203
   94MOL0     H12920   6.543   2.026   6.840  0.1538  0.3411  1.9790
   94MOL0     H12921   6.611   1.774   7.143  1.5319 -1.0520  0.7464
   94MOL0     H12922   6.766   1.807   7.341  0.0265  0.3668  0.9785
   94MOL0     H12923   6.886   1.947   7.350 -0.4955  0.2075  0.4033
   94MOL0     H12924   7.000   1.731   7.363 -0.8841 -0.6466 -0.0093
   94MOL0     H12925   6.948   1.695   7.202 -0.1555 -0.3588  1.2295
   94MOL0     H12926   7.067   1.883   7.097  1.1395 -1.4910 -0.7438
   94MOL0     H12927   7.122   1.939   7.257 -1.2679  0.1326 -0.0636
   94MOL0     H12928   7.228   1.684   7.264  0.7756 -2.5937 -1.9189
   94MOL0     H12929   7.185   1.686   7.104  0.1427 -2.9904  1.4858
   94MOL0     H12930   7.444   1.976   6.987  4.7952  2.1714 -2.2489
   94MOL0     H12931   7.682   1.921   6.764 -2.7417 -2.8291  0.6104
   94MOL0     H12932   7.759   2.002   6.907  0.3692  1.4421 -0.1568
   94MOL0     H12933   7.600   2.054   6.859  0.8611  0.3846  0.2328
   94MOL0     H12934   7.961   1.625   6.634  0.0524 -0.9422 -0.3024
   94MOL0     H12935   8.202   1.574   6.578  0.3344  1.3410 -1.3032
   94MOL0     H12936   8.402   1.508   6.866  2.2234  1.7747  0.3479
   94MOL0     H12937   8.381   1.452   6.697  1.5125  0.2359 -1.5313
   94MOL0     H12938   8.624   1.548   6.646  0.6188  2.5186  0.4189
   94MOL0     H12939   8.641   1.581   6.805 -1.4675  0.0713  0.0817
   94MOL0     H12940   8.578   1.338   6.865  1.4693  1.9502  0.8551
   94MOL0     H12941   8.727   1.337   6.785  0.3236 -1.6781 -2.0076
   94MOL0     H12942   8.463   1.247   6.672 -0.4246  0.6985 -2.0796
   94MOL0     H12943   8.611   1.154   6.695  1.2260  0.2472  0.1587
   94MOL0     H12944   8.587   1.214   6.452  0.2123 -0.6427  0.8948
   94MOL0     H12945   8.569   1.387   6.494  1.9853  1.0790  0.2981
   94MOL0     H12946   8.809   1.253   6.580 -0.5767 -0.1048 -0.5277
   94MOL0     H12947   8.794   1.422   6.557  1.3399  0.0647 -1.8524
   94MOL0     H12948   8.780   1.395   6.311 -2.7723 -1.4218 -0.0244
   94MOL0     H12949   8.791   1.214   6.336 -0.1308 -0.5619  2.0260
   94MOL0     H12950   9.013   1.415   6.427  2.8748 -0.4240 -1.2751
   94MOL0     H12951   8.999   1.329   6.271 -0.4776  0.9567 -0.1604
   94MOL0     H12952   8.319   1.789   6.922 -2.8463  1.7280  2.5367
   94MOL0     H12953   8.074   1.843   6.980  0.0983 -1.0084  1.0146
   94MOL0     H12954   7.676   1.549   7.093 -0.5187  0.5753  0.5598
   94MOL0     H12955   7.449   1.593   7.171 -2.4553 -1.2045 -3.8269
   94MOL0     H12956   5.741   1.460   6.963  1.3731 -1.2396 -0.9976
   94MOL0     H12957   5.551   1.599   6.986  1.3877 -1.2965  0.9089
   94MOL0     H12958   5.170   1.804   6.686  0.3815 -0.1207 -0.0895
   94MOL0     H12959   4.960   1.922   6.686  0.4760 -2.6168 -1.8615
   94MOL0     H12960   4.725   1.897   7.031 -2.4966  0.0728 -0.2519
   94MOL0     H12961   4.733   2.074   7.038  0.9861 -0.0932 -0.3430
   94MOL0     H12962   4.514   1.964   6.965  0.0366  2.1424  0.6578
   94MOL0     H12963   4.593   1.953   6.807 -1.6008 -0.2625  0.2587
   94MOL0     H12964   4.567   2.210   6.969  2.8145  3.4894 -0.4989
   94MOL0     H12965   4.660   2.190   6.813 -0.4264  0.8498 -0.7917
   94MOL0     H12966   4.354   2.143   6.842  0.6025  0.8940  1.8213
   94MOL0     H12967   4.458   2.145   6.696  1.5834  0.9334  0.3705
   94MOL0     H12968   4.414   2.558   6.753 -0.6470 -0.8882 -1.5393
   94MOL0     H12969   4.926   1.890   7.098  0.7322 -1.0151  1.0358
   94MOL0     H12970   5.131   1.636   7.157 -0.4206  0.0259 -1.7249
   94MOL0     H12971   5.243   1.768   7.184 -0.6204 -0.9956  2.6164
   94MOL0     H12972   5.075   1.786   7.241  0.5387  1.2267  0.2804
   95MOL0     O12973   3.755  11.152   4.145  0.5064  0.1008 -0.2371
   95MOL0     C12974   3.822  11.259   4.140 -0.3086 -0.0166 -0.3645
   95MOL0     O12975   3.853  11.337   4.036  1.0041 -0.1625  0.9532
   95MOL0     C12976   3.826  11.296   3.902 -0.8353 -0.9279 -0.8123
   95MOL0     C12977   3.690  11.284   3.869  0.7233 -0.5039 -0.5558
   95MOL0     C12978   3.650  11.217   3.755 -0.0258  0.7145  0.0322
   95MOL0     C12979   3.745  11.163   3.669 -0.1387  0.6576 -0.6851
   95MOL0     O12980   3.698  11.089   3.559 -0.4141 -0.5474 -0.2234
   95MOL0     C12981   3.759  10.962   3.520 -0.0572 -0.1908 -0.3311
   95MOL0     C12982   3.740  10.931   3.370  0.4575 -0.8769  1.3225
   95MOL0     C12983   3.585  10.935   3.329  0.1231 -1.1105  0.1782
   95MOL0     C12984   3.570  10.940   3.177  0.0366 -0.8820 -0.2183
   95MOL0     C12985   3.568  11.085   3.117 -0.4225  0.1171  0.4381
   95MOL0     C12986   3.452  11.169   3.164 -0.3448 -0.0286  0.3573
   95MOL0     C12987   3.491  11.298   3.230 -0.2576 -0.3104  0.3465
   95MOL0     C12988   3.571  11.276   3.358 -0.6112 -0.4527  0.1533
   95MOL0     N12989   3.596  11.406   3.419  0.1508 -0.4121  0.1208
   95MOL0     C12990   3.725  11.456   3.423 -0.4459 -0.3395  0.3415
   95MOL0     C12991   3.717  11.550   3.519  0.6028 -0.2143  0.8570
   95MOL0     C12992   3.841  11.619   3.575  0.6525  0.5722  0.0488
   95MOL0     C12993   3.869  11.752   3.502 -0.0718  0.1313  0.4769
   95MOL0     C12994   4.018  11.791   3.501 -0.2324  0.2408 -0.8261
   95MOL0     C12995   4.079  11.818   3.635 -0.3867  0.4107 -0.3848
   95MOL0     O12996   4.222  11.834   3.613  1.3073  0.6208 -0.0814
   95MOL0     C12997   4.296  11.899   3.706 -0.5386 -1.0009  0.4922
   95MOL0     C12998   4.246  11.977   3.812 -0.4283  0.4343 -0.1878
   95MOL0     C12999   4.323  12.051   3.899  0.2386  0.0270  0.8309
   95MOL0     C13000   4.245  12.153   3.984  0.2744  0.1422 -0.5891
   95MOL0     C13001   4.460  12.037   3.887 -0.5265  0.2208  0.5937
   95MOL0     C13002   4.558  12.100   3.984 -0.2412  0.0634  0.5235
   95MOL0     O13003   4.680  12.042   3.996 -0.2749 -0.3520  0.4451
   95MOL0     C13004   4.773  12.112   4.081  0.1955 -0.4959 -0.9392
   95MOL0     C13005   4.736  12.148   4.215  0.6272  0.5638  1.8680
   95MOL0     C13006   4.821  12.221   4.295 -0.4056  0.2124  0.3795
   95MOL0     C13007   4.955  12.252   4.246 -0.0389  0.3627  0.8628
   95MOL0     O13008   5.043  12.324   4.322 -0.2809  0.0345  0.6123
   95MOL0     C13009   5.005  12.400   4.440 -0.2145  0.3515  0.2331
   95MOL0     C13010   5.119  12.484   4.496  0.5589  0.8264  0.4373
   95MOL0     C13011   5.073  12.557   4.618  0.0001 -0.6717  0.0390
   95MOL0     C13012   5.191  12.614   4.700 -0.0798 -0.0558  1.1859
   95MOL0     C13013   5.136  12.673   4.832  0.7695 -0.2941 -0.3625
   95MOL0     C13014   5.233  12.670   4.951  0.7195 -0.2538  0.1804
   95MOL0     C13015   5.357  12.751   4.906 -0.1739  0.4705 -0.4577
   95MOL0     C13016   5.420  12.821   5.029  0.5358  0.1796  0.4172
   95MOL0    Cl13017   5.490  12.706   5.149 -0.1149 -0.3189 -0.3335
   95MOL0     C13018   4.993  12.209   4.111  1.0488 -0.2839  0.7133
   95MOL0     C13019   4.902  12.139   4.029  0.1393 -0.4130 -0.3544
   95MOL0     O13020   4.521  12.203   4.037  0.1605  0.0066 -0.3233
   95MOL0     C13021   4.518  11.940   3.792  0.0703 -0.2155 -0.4309
   95MOL0     C13022   4.437  11.875   3.704  0.4500 -0.1239  0.3382
   95MOL0     N13023   3.586  11.554   3.567 -0.6992 -0.7554  0.0630
   95MOL0     N13024   3.512  11.467   3.514 -0.0156  0.2916 -0.0203
   95MOL0     C13025   3.880  11.180   3.702 -0.5525 -0.2829 -0.2212
   95MOL0     C13026   3.920  11.236   3.817 -0.1727  0.3904 -0.3761
   95MOL0     C13027   3.883  11.300   4.268  0.5869 -0.1682  0.0572
   95MOL0     C13028   3.999  11.377   4.267 -0.4496 -0.3414 -0.8631
   95MOL0     C13029   4.055  11.418   4.391 -0.1996  0.0675 -0.5326
   95MOL0     C13030   3.993  11.396   4.512  0.4759 -0.4990  0.0351
   95MOL0     O13031   4.025  11.455   4.637  0.3027 -0.3569 -0.1385
   95MOL0     C13032   4.134  11.541   4.646 -0.2826 -0.3789 -0.8664
   95MOL0     C13033   4.249  11.457   4.690  0.6905 -0.4356 -0.1527
   95MOL0     C13034   4.365  11.538   4.757 -0.1347 -0.0535 -0.6454
   95MOL0     C13035   4.406  11.649   4.663 -0.5781  0.8071  0.3920
   95MOL0     C13036   4.535  11.701   4.711 -0.0537  0.5842 -0.7525
   95MOL0     C13037   4.647  11.732   4.748 -1.1485 -0.5289  0.2843
   95MOL0     C13038   3.889  11.304   4.519  0.0395 -0.1033  0.5063
   95MOL0     C13039   3.834  11.255   4.399  0.8130 -0.1892 -0.0633
   95MOL0     C13040   3.711  11.169   4.416 -0.5052 -0.3428 -0.0571
   95MOL0     H13041   3.615  11.336   3.927  1.4370  1.0564 -0.9645
   95MOL0     H13042   3.543  11.200   3.746  0.3076 -0.9438 -1.6645
   95MOL0     H13043   3.710  10.885   3.580  0.7144 -3.7121 -3.7852
   95MOL0     H13044   3.867  10.956   3.537 -0.1611  0.2573  0.5309
   95MOL0     H13045   3.804  11.000   3.314 -0.2830  2.8472  4.5762
   95MOL0     H13046   3.776  10.834   3.333  0.1651  0.1451 -1.9786
   95MOL0     H13047   3.533  10.847   3.367 -1.8130 -0.0366  0.1249
   95MOL0     H13048   3.537  11.015   3.386 -1.1718  0.3991 -2.7645
   95MOL0     H13049   3.640  10.873   3.126  2.3153  0.9957  0.2260
   95MOL0     H13050   3.471  10.901   3.152  0.2090 -2.4359  1.3707
   95MOL0     H13051   3.564  11.067   3.009  1.0340 -0.5680  0.4579
   95MOL0     H13052   3.668  11.128   3.132 -0.1496  0.3986 -1.8695
   95MOL0     H13053   3.397  11.202   3.075  1.5168  3.4165  0.2744
   95MOL0     H13054   3.384  11.115   3.230 -1.8753  1.3962  0.0150
   95MOL0     H13055   3.404  11.360   3.253 -0.9489 -0.3000 -2.0820
   95MOL0     H13056   3.544  11.359   3.157 -1.1027 -0.9247 -0.8012
   95MOL0     H13057   3.516  11.217   3.432  0.6575 -1.2797  0.4547
   95MOL0     H13058   3.672  11.237   3.346  1.4954  4.6681 -1.4401
   95MOL0     H13059   3.812  11.420   3.369 -0.5892  1.0595 -0.8977
   95MOL0     H13060   3.930  11.555   3.569  0.2756 -0.1888  1.7632
   95MOL0     H13061   3.828  11.638   3.682 -1.1692 -1.5543  0.2616
   95MOL0     H13062   3.860  11.748   3.393  0.6362  0.6222  0.3942
   95MOL0     H13063   3.795  11.827   3.530 -1.5459 -0.2504 -2.0429
   95MOL0     H13064   4.087  11.728   3.445  1.5800 -0.2282  1.7610
   95MOL0     H13065   4.028  11.887   3.450 -0.6764  0.0379 -1.3122
   95MOL0     H13066   4.036  11.910   3.675  2.3584  1.4769  0.3663
   95MOL0     H13067   4.078  11.743   3.715 -0.1574  2.0063  1.1789
   95MOL0     H13068   4.138  11.977   3.829 -0.7979  0.9687 -2.2497
   95MOL0     H13069   4.137  12.154   3.963 -0.3304 -1.0191  2.0073
   95MOL0     H13070   4.273  12.258   3.972  1.5461 -0.1136 -0.0333
   95MOL0     H13071   4.250  12.116   4.087 -0.3527 -2.3018 -1.3546
   95MOL0     H13072   4.637  12.124   4.253 -0.8509 -1.0989 -2.4361
   95MOL0     H13073   4.790  12.252   4.394  0.8107  1.8962  0.2863
   95MOL0     H13074   4.915  12.459   4.419 -0.2587  0.1205 -0.2223
   95MOL0     H13075   4.969  12.325   4.511  1.6151 -1.6961 -0.8961
   95MOL0     H13076   5.217  12.435   4.506  0.4340 -0.0219 -1.8469
   95MOL0     H13077   5.145  12.560   4.422 -2.0448  0.4204 -0.9878
   95MOL0     H13078   5.009  12.499   4.685 -0.8223  0.7899  0.5574
   95MOL0     H13079   5.018  12.644   4.581  2.4954 -0.1917 -2.9404
   95MOL0     H13080   5.256  12.687   4.651  0.9706 -1.1647  0.8746
   95MOL0     H13081   5.267  12.540   4.726  0.1505  0.4425  1.9687
   95MOL0     H13082   5.108  12.775   4.806  0.3277 -0.5802 -1.0466
   95MOL0     H13083   5.040  12.627   4.856  0.5953  1.8248  3.9324
   95MOL0     H13084   5.275  12.571   4.968  0.0284 -0.7239 -0.7436
   95MOL0     H13085   5.185  12.720   5.036 -1.9304 -4.1158  1.2167
   95MOL0     H13086   5.330  12.824   4.829  0.9001 -0.0672 -1.3661
   95MOL0     H13087   5.422  12.677   4.858  2.1876  2.3762 -0.3997
   95MOL0     H13088   5.346  12.882   5.082  0.7136  0.8818 -0.1298
   95MOL0     H13089   5.497  12.882   4.981 -1.2419  1.0980 -1.4259
   95MOL0     H13090   5.091  12.237   4.074  0.9772 -2.6308 -1.5414
   95MOL0     H13091   4.933  12.110   3.929  0.6967  0.8746 -0.5812
   95MOL0     H13092   4.626  11.940   3.779  0.0311  0.4178 -0.8119
   95MOL0     H13093   4.473  11.819   3.618 -0.2584  2.6498 -1.9141
   95MOL0     H13094   3.953  11.144   3.630 -0.0049  1.4669 -0.5951
   95MOL0     H13095   4.023  11.223   3.849 -0.9413  1.4560  2.8947
   95MOL0     H13096   4.051  11.409   4.178  3.0488 -2.5475  0.1709
   95MOL0     H13097   4.149  11.470   4.377  0.2585 -0.5395  0.2567
   95MOL0     H13098   4.166  11.602   4.561 -0.0247  3.6700  1.8836
   95MOL0     H13099   4.105  11.619   4.717 -2.5493 -0.2189 -1.8584
   95MOL0     H13100   4.297  11.398   4.611  0.2763 -0.2094 -0.5807
   95MOL0     H13101   4.213  11.387   4.766 -0.2560 -0.0287 -0.2163
   95MOL0     H13102   4.341  11.564   4.860 -1.0202  1.1139 -1.1280
   95MOL0     H13103   4.450  11.469   4.756  0.4997  0.7118 -2.2381
   95MOL0     H13104   4.343  11.739   4.660  0.3107  1.4233 -2.0301
   95MOL0     H13105   4.413  11.611   4.560  1.5030  2.3344 -0.1025
   95MOL0     H13106   4.740  11.760   4.791 -0.3445  1.5627 -2.4862
   95MOL0     H13107   3.863  11.267   4.618 -2.3005  0.4717  0.1709
   95MOL0     H13108   3.630  11.219   4.364 -0.0383  3.1259  2.2265
   95MOL0     H13109   3.733  11.068   4.381 -2.3335 -1.0450  0.7011
   95MOL0     H13110   3.671  11.156   4.517 -0.4384  1.7192  0.2700
   96MOL0     O13111   7.699  10.051   9.318 -0.0700  0.1805 -0.3627
   96MOL0     C13112   7.697   9.949   9.251 -0.1364 -0.0667  0.3368
   96MOL0     O13113   7.805   9.890   9.197 -0.4446  0.5998 -0.0560
   96MOL0     C13114   7.936   9.931   9.229  0.2502  0.1715 -0.9266
   96MOL0     C13115   8.035   9.931   9.132 -0.5374 -0.2062  0.4771
   96MOL0     C13116   8.173   9.952   9.157 -0.7434 -0.0917 -0.9161
   96MOL0     C13117   8.205   9.983   9.290  0.1450 -0.8994  0.2308
   96MOL0     O13118   8.333  10.012   9.325  0.3831  0.2551 -0.2406
   96MOL0     C13119   8.373  10.149   9.286 -0.4605 -0.6456 -1.3676
   96MOL0     C13120   8.526  10.158   9.303 -0.4188  0.0953  0.4485
   96MOL0     C13121   8.583  10.289   9.250  0.0904  0.6787  0.2319
   96MOL0     C13122   8.731  10.293   9.285  0.0550  0.4570 -0.1254
   96MOL0     C13123   8.804  10.416   9.235  0.5971  0.3406 -0.4697
   96MOL0     C13124   8.783  10.543   9.325 -0.3522 -0.1960  0.1367
   96MOL0     C13125   8.866  10.669   9.289  0.5592 -0.0417  1.0385
   96MOL0     C13126   9.013  10.651   9.270 -0.6070 -0.0165  0.2934
   96MOL0     N13127   9.084  10.781   9.256  0.4484 -0.7267  0.7683
   96MOL0     C13128   9.081  10.892   9.332 -0.2150  0.4572 -0.2020
   96MOL0     C13129   9.178  10.975   9.278 -0.1547  0.7086 -0.0722
   96MOL0     C13130   9.200  11.111   9.337 -0.0930  0.2567  0.2013
   96MOL0     C13131   9.335  11.135   9.404  0.0043 -0.6048 -1.3755
   96MOL0     C13132   9.358  11.291   9.415  0.8303  0.5708 -0.2631
   96MOL0     C13133   9.445  11.317   9.538 -0.0555  0.4088 -0.0017
   96MOL0     O13134   9.561  11.231   9.520  0.0391 -1.3698 -0.1307
   96MOL0     C13135   9.677  11.280   9.462  0.2450 -0.1653  0.1535
   96MOL0     C13136   9.782  11.189   9.471 -0.1454 -0.2245  0.8214
   96MOL0     C13137   9.911  11.216   9.420 -0.0574 -0.7241  0.0532
   96MOL0     C13138  10.010  11.102   9.415  0.9949 -0.8055 -0.9908
   96MOL0     C13139   9.934  11.356   9.377  0.5946  0.4151  0.2846
   96MOL0     C13140  10.060  11.403   9.335 -0.3026 -0.3107 -0.1818
   96MOL0     O13141  10.061  11.531   9.278  0.1803  0.4956 -0.3297
   96MOL0     C13142  10.173  11.600   9.276  0.5072  0.7736 -0.1618
   96MOL0     C13143  10.211  11.675   9.387  0.0384 -0.4858  0.1435
   96MOL0     C13144  10.336  11.747   9.374  0.1044  0.1137  0.2842
   96MOL0     C13145  10.424  11.737   9.265 -0.5672  0.9464  0.1272
   96MOL0     O13146  10.556  11.783   9.254  0.5540 -0.4045 -0.1114
   96MOL0     C13147  10.610  11.846   9.365 -0.1788 -1.4108 -0.2862
   96MOL0     C13148  10.688  11.748   9.458  0.0803  0.1150  0.9398
   96MOL0     C13149  10.812  11.702   9.393 -0.4068 -0.4002 -0.2400
   96MOL0     C13150  10.883  11.594   9.480 -0.3264  0.5361 -0.1830
   96MOL0     C13151  10.991  11.523   9.395  0.3891 -0.2400 -0.6907
   96MOL0     C13152  11.060  11.423   9.486  0.1151 -0.4637 -0.7780
   96MOL0     C13153  11.194  11.380   9.423  0.1530 -0.3851  0.4855
   96MOL0     C13154  11.189  11.311   9.290  0.8246  0.1528 -0.2725
   96MOL0    Cl13155  11.098  11.150   9.285 -0.2562  0.4584  0.6813
   96MOL0     C13156  10.381  11.663   9.162 -0.5922  0.0269 -0.2977
   96MOL0     C13157  10.252  11.598   9.166 -0.0393  0.0176  1.1181
   96MOL0     O13158  10.156  11.330   9.347 -0.4170  0.3940  0.3469
   96MOL0     C13159   9.824  11.452   9.377  0.1995  0.8481  0.6036
   96MOL0     C13160   9.695  11.409   9.411  0.0276 -0.1778 -0.8478
   96MOL0     N13161   9.238  10.907   9.168 -0.2968 -0.3818  0.6678
   96MOL0     N13162   9.185  10.796   9.157  0.2720 -0.4639 -0.8445
   96MOL0     C13163   8.107   9.989   9.388 -0.0228  0.8677  0.3032
   96MOL0     C13164   7.973   9.963   9.366 -0.5129  0.5928 -0.2419
   96MOL0     C13165   7.559   9.880   9.228 -0.3762  0.3969  1.0736
   96MOL0     C13166   7.445   9.954   9.214  0.1302 -0.2843 -0.3067
   96MOL0     C13167   7.329   9.898   9.169 -0.1563  0.5137 -0.2723
   96MOL0     C13168   7.313   9.764   9.155  0.4486 -0.1747  0.1763
   96MOL0     O13169   7.194   9.719   9.115 -0.0872  0.6804  0.0799
   96MOL0     C13170   7.184   9.592   9.041  0.0123  0.3815  0.1800
   96MOL0     C13171   7.055   9.597   8.954  0.1188 -0.5382  0.5568
   96MOL0     C13172   7.057   9.730   8.874 -0.4014  0.3967  0.5446
   96MOL0     C13173   6.995   9.725   8.733 -0.1512 -0.4814 -0.4409
   96MOL0     C13174   6.849   9.736   8.753 -0.1959 -0.6790 -0.0015
   96MOL0     C13175   6.738   9.762   8.785  0.6857  0.2917  1.0298
   96MOL0     C13176   7.424   9.686   9.185 -0.3186  0.3733  0.6040
   96MOL0     C13177   7.546   9.739   9.215 -0.3100  0.0955 -1.0434
   96MOL0     C13178   7.669   9.643   9.222  0.4062 -0.3242 -0.4057
   96MOL0     H13179   8.009   9.886   9.037  3.2143 -2.1003  0.1681
   96MOL0     H13180   8.251   9.946   9.081 -1.4393  0.1404 -1.6588
   96MOL0     H13181   8.319  10.227   9.340 -0.8426 -1.2664 -0.8338
   96MOL0     H13182   8.355  10.165   9.179  1.7187 -2.5725 -2.1075
   96MOL0     H13183   8.549  10.135   9.408 -0.7508  1.8668  0.9452
   96MOL0     H13184   8.568  10.088   9.231 -0.1888  3.2714 -2.8093
   96MOL0     H13185   8.571  10.300   9.142  0.5268 -1.0690 -0.0343
   96MOL0     H13186   8.525  10.369   9.297 -0.8603 -0.7408  1.6196
   96MOL0     H13187   8.748  10.278   9.392  1.1037  1.4825 -0.1216
   96MOL0     H13188   8.778  10.202   9.247  1.4663  1.0655  0.0705
   96MOL0     H13189   8.780  10.437   9.130  1.2589 -0.2289 -0.7416
   96MOL0     H13190   8.911  10.392   9.235  1.0285  2.1127 -0.7703
   96MOL0     H13191   8.678  10.572   9.329 -0.0319  0.8330  1.9197
   96MOL0     H13192   8.824  10.522   9.424  3.9839  2.8009 -0.7399
   96MOL0     H13193   8.858  10.738   9.373 -0.5166  2.1600 -0.7860
   96MOL0     H13194   8.827  10.707   9.194 -1.7671  1.4825  2.5183
   96MOL0     H13195   9.057  10.604   9.359  1.6650  0.7132 -0.3606
   96MOL0     H13196   9.033  10.583   9.186 -0.4815  1.3580 -0.8198
   96MOL0     H13197   9.020  10.905   9.420 -0.2932 -3.3887  0.5065
   96MOL0     H13198   9.122  11.138   9.409 -0.0836 -0.4199  0.4753
   96MOL0     H13199   9.192  11.182   9.254  2.9099  0.8020  0.2575
   96MOL0     H13200   9.339  11.098   9.507 -0.9351 -0.2123 -1.1867
   96MOL0     H13201   9.409  11.086   9.340  1.9784  1.3038 -0.6896
   96MOL0     H13202   9.410  11.323   9.325  0.4300 -1.1804 -1.1655
   96MOL0     H13203   9.264  11.346   9.407  0.0950 -0.8107 -1.8475
   96MOL0     H13204   9.487  11.417   9.547  4.9946 -1.5378  1.1839
   96MOL0     H13205   9.396  11.294   9.633  1.8173  2.0346  1.4179
   96MOL0     H13206   9.759  11.094   9.518 -1.0216 -0.8193 -0.7588
   96MOL0     H13207  10.090  11.116   9.488 -1.7321 -2.0190  2.5286
   96MOL0     H13208  10.057  11.082   9.319  0.3254  1.2452 -1.8134
   96MOL0     H13209   9.945  11.019   9.443  0.9984  0.3006  2.9143
   96MOL0     H13210  10.153  11.683   9.478 -0.2402  3.8749 -0.2125
   96MOL0     H13211  10.376  11.801   9.459  0.9105  1.0278 -0.6426
   96MOL0     H13212  10.674  11.922   9.321 -0.7579 -3.0186 -4.3633
   96MOL0     H13213  10.537  11.902   9.424  0.2155  0.0915 -1.1788
   96MOL0     H13214  10.715  11.806   9.547 -0.2207  2.1311 -0.2066
   96MOL0     H13215  10.620  11.665   9.481  0.3112 -0.0795  0.9265
   96MOL0     H13216  10.893  11.776   9.396 -0.8825  0.1451 -0.5949
   96MOL0     H13217  10.796  11.674   9.288 -1.5093  4.2863 -1.5675
   96MOL0     H13218  10.812  11.516   9.508  1.9718 -2.1690 -1.3831
   96MOL0     H13219  10.925  11.638   9.571 -1.4528 -0.8461  1.0569
   96MOL0     H13220  10.938  11.474   9.313  0.1396  1.8231 -1.8203
   96MOL0     H13221  11.057  11.603   9.360  0.9081 -0.8091 -1.0285
   96MOL0     H13222  10.997  11.336   9.507 -0.4408 -0.9039 -3.8149
   96MOL0     H13223  11.071  11.483   9.577  1.0629  1.0183 -1.8310
   96MOL0     H13224  11.246  11.318   9.497  1.7151 -1.1858 -1.2142
   96MOL0     H13225  11.263  11.464   9.416  1.5444 -1.3815  1.6166
   96MOL0     H13226  11.292  11.290   9.259  0.3153 -2.3805 -0.4569
   96MOL0     H13227  11.154  11.369   9.204  2.8665 -0.3557 -1.5210
   96MOL0     H13228  10.427  11.664   9.063 -2.6241 -0.8145 -1.3261
   96MOL0     H13229  10.217  11.543   9.079 -1.2163  0.2958  1.3908
   96MOL0     H13230   9.826  11.556   9.346 -1.7698  1.0349  0.9427
   96MOL0     H13231   9.610  11.476   9.406 -0.9732 -0.9631  2.9199
   96MOL0     H13232   8.147  10.028   9.481 -0.2207  2.7937 -0.3769
   96MOL0     H13233   7.907   9.980   9.451  1.1806  3.4297  0.6389
   96MOL0     H13234   7.448  10.059   9.243 -2.1849 -0.2638  0.0725
   96MOL0     H13235   7.240   9.954   9.144  0.4048  2.5867  1.9756
   96MOL0     H13236   7.270   9.585   8.975 -0.4931  1.1608 -0.5776
   96MOL0     H13237   7.173   9.516   9.119 -2.0233  0.5558  0.1108
   96MOL0     H13238   6.970   9.593   9.023  0.2000 -0.5800  0.6546
   96MOL0     H13239   7.051   9.516   8.881 -1.5884 -0.3059  0.3413
   96MOL0     H13240   7.015   9.812   8.933 -0.4651  0.2888  0.6481
   96MOL0     H13241   7.163   9.746   8.855 -0.7154  0.7750 -1.1278
   96MOL0     H13242   7.024   9.636   8.676  0.6709 -2.6396  3.0497
   96MOL0     H13243   7.019   9.819   8.684 -2.8616 -0.0352 -1.0897
   96MOL0     H13244   6.644   9.795   8.827  0.0878  1.7016 -1.2717
   96MOL0     H13245   7.431   9.578   9.171  0.1994  0.5095 -0.2256
   96MOL0     H13246   7.726   9.650   9.129 -0.7735  1.8465 -1.0379
   96MOL0     H13247   7.733   9.673   9.305 -0.9951  2.2591 -0.1599
   96MOL0     H13248   7.644   9.537   9.233  1.1166 -0.4733 -0.1952
   97MOL0     O13249   7.338   0.359   4.536  1.0154  0.4204  0.5085
   97MOL0     C13250   7.269   0.269   4.577  0.6903  0.4224 -0.4923
   97MOL0     O13251   7.309   0.190   4.681 -0.3540  0.1934  0.2814
   97MOL0     C13252   7.424   0.231   4.747 -0.3507  0.3950 -0.5151
   97MOL0     C13253   7.413   0.326   4.844  0.1634 -0.2214  0.0962
   97MOL0     C13254   7.529   0.360   4.915 -0.2595  0.4230 -0.6763
   97MOL0     C13255   7.651   0.300   4.891 -0.4645  0.5199 -0.0945
   97MOL0     O13256   7.760   0.333   4.962  0.0256 -0.5138 -0.0875
   97MOL0     C13257   7.892   0.311   4.910 -0.0106  0.5685  0.6020
   97MOL0     C13258   7.979   0.400   4.995  0.4893 -0.2700  1.0042
   97MOL0     C13259   8.129   0.407   4.944  0.5189 -0.0395  0.7791
   97MOL0     C13260   8.225   0.474   5.042 -0.0665  0.6276 -0.4202
   97MOL0     C13261   8.365   0.466   5.001  0.2276 -0.1121  1.3995
   97MOL0     C13262   8.401   0.564   4.887  0.5577  0.3455  0.2750
   97MOL0     C13263   8.529   0.528   4.815  0.6431  0.6786  0.1042
   97MOL0     C13264   8.560   0.615   4.693 -0.0318 -0.2647  0.2571
   97MOL0     N13265   8.698   0.598   4.640 -0.3643 -0.1424 -0.3114
   97MOL0     C13266   8.779   0.693   4.579  0.5741  0.3084  0.1041
   97MOL0     C13267   8.864   0.617   4.503  0.2687 -0.3139  0.7298
   97MOL0     C13268   8.959   0.679   4.406 -0.3315  0.2887 -0.4338
   97MOL0     C13269   9.045   0.562   4.351  0.9477 -0.6346  0.2456
   97MOL0     C13270   9.150   0.625   4.266  0.5683  0.2428  0.2121
   97MOL0     C13271   9.256   0.521   4.222 -0.0602 -0.3539 -0.4638
   97MOL0     O13272   9.350   0.598   4.145 -0.1865  0.6399  1.0647
   97MOL0     C13273   9.462   0.533   4.100 -0.1363  0.0914  0.4814
   97MOL0     C13274   9.469   0.531   3.963 -0.8357 -0.7540 -0.2484
   97MOL0     C13275   9.585   0.475   3.899  0.4684  0.5506  0.0055
   97MOL0     C13276   9.562   0.445   3.750 -0.2991 -0.0635 -1.0084
   97MOL0     C13277   9.691   0.431   3.982  0.1558 -0.1700  0.6719
   97MOL0     C13278   9.817   0.376   3.928  0.3887 -0.9793 -0.2662
   97MOL0     O13279   9.910   0.323   4.013  0.0856 -0.0802  0.1661
   97MOL0     C13280  10.021   0.260   3.958 -0.5390 -0.8616  0.4819
   97MOL0     C13281  10.114   0.346   3.893  0.2452  0.2423  0.9336
   97MOL0     C13282  10.226   0.290   3.829 -0.7412  0.0043 -0.2850
   97MOL0     C13283  10.259   0.149   3.834  0.6919  0.0428  0.7959
   97MOL0     O13284  10.369   0.093   3.774  0.4089 -1.1986  0.4199
   97MOL0     C13285  10.422   0.165   3.660  0.2493  0.4282  0.0513
   97MOL0     C13286  10.475   0.058   3.567 -0.5172 -0.0031 -0.4652
   97MOL0     C13287  10.590  -0.014   3.628 -0.2604  1.1284 -0.2823
   97MOL0     C13288  10.652  -0.114   3.528  0.8442  0.0487  0.6650
   97MOL0     C13289  10.789  -0.167   3.567 -0.4336  0.1413 -0.0295
   97MOL0     C13290  10.838  -0.288   3.482  0.2127  0.6115 -0.3470
   97MOL0     C13291  10.856  -0.269   3.329 -0.6970 -0.1340  0.0539
   97MOL0     C13292  10.962  -0.350   3.273  0.3460  0.1475 -0.3280
   97MOL0    Cl13293  10.998  -0.303   3.101 -0.0287  0.2777  0.3558
   97MOL0     C13294  10.165   0.069   3.905 -0.2044  0.1651  0.4890
   97MOL0     C13295  10.053   0.129   3.966  1.1692  0.4564 -0.7794
   97MOL0     O13296   9.839   0.401   3.814  0.4692  0.3895  0.5138
   97MOL0     C13297   9.684   0.446   4.126  0.0574  0.4406 -0.2567
   97MOL0     C13298   9.574   0.504   4.181 -0.1766  0.0768  0.3064
   97MOL0     N13299   8.848   0.485   4.529  0.3716  0.0890  0.3961
   97MOL0     N13300   8.745   0.474   4.605  0.1868  0.1134  0.3628
   97MOL0     C13301   7.662   0.195   4.795 -0.3641  0.8594  0.9313
   97MOL0     C13302   7.544   0.155   4.729  0.1562  0.1788  0.3779
   97MOL0     C13303   7.132   0.251   4.526  0.8284 -0.6766  0.9790
   97MOL0     C13304   7.042   0.170   4.594 -0.0678 -0.5707  0.5631
   97MOL0     C13305   6.906   0.152   4.550 -0.4702  0.0143 -0.3956
   97MOL0     C13306   6.856   0.232   4.448  0.2580 -0.2287  0.6094
   97MOL0     O13307   6.723   0.235   4.411 -0.6271 -0.0296  0.0939
   97MOL0     C13308   6.623   0.154   4.488  0.5092  0.5591  0.1980
   97MOL0     C13309   6.486   0.208   4.459  0.8303  0.0085  0.3424
   97MOL0     C13310   6.386   0.117   4.539 -0.1705 -0.5757 -0.3712
   97MOL0     C13311   6.243   0.150   4.507  0.0716 -0.0354  0.1695
   97MOL0     C13312   6.159   0.082   4.598  0.5052  0.4971 -0.1977
   97MOL0     C13313   6.106   0.024   4.688 -0.1366 -1.0846 -0.4693
   97MOL0     C13314   6.934   0.314   4.370  0.4477 -0.5345 -0.1946
   97MOL0     C13315   7.071   0.329   4.408  0.4150  0.3089 -1.2709
   97MOL0     C13316   7.138   0.419   4.319  0.0148 -0.2897  0.2190
   97MOL0     H13317   7.325   0.385   4.868  2.5713  4.0004 -0.5874
   97MOL0     H13318   7.538   0.431   4.997  4.0573  0.2938 -0.8045
   97MOL0     H13319   7.913   0.349   4.809  2.5757 -1.4113  0.2937
   97MOL0     H13320   7.916   0.205   4.921  1.0905  0.9763  2.7195
   97MOL0     H13321   7.945   0.503   4.981  0.9562  0.0325  1.9650
   97MOL0     H13322   7.968   0.389   5.103 -1.2647  0.0101  0.8747
   97MOL0     H13323   8.159   0.302   4.932 -1.9895 -1.3377  4.2613
   97MOL0     H13324   8.131   0.466   4.852  0.5846  1.7594  1.8971
   97MOL0     H13325   8.194   0.576   5.064  1.1123  0.9990 -0.3783
   97MOL0     H13326   8.221   0.406   5.127  0.7583  1.9171  0.6895
   97MOL0     H13327   8.398   0.365   4.976  2.1204  0.3764  1.7877
   97MOL0     H13328   8.432   0.485   5.085  2.8446 -2.1277 -0.0846
   97MOL0     H13329   8.320   0.564   4.813  0.2682 -0.4714  0.5806
   97MOL0     H13330   8.415   0.665   4.928  1.1834 -0.4075  2.0108
   97MOL0     H13331   8.523   0.425   4.778  1.3401  0.7325 -0.1782
   97MOL0     H13332   8.607   0.535   4.892  1.1529 -2.4152 -0.0014
   97MOL0     H13333   8.486   0.596   4.615 -0.3918  0.1131  0.5061
   97MOL0     H13334   8.542   0.720   4.716 -0.7645  0.3402 -2.7778
   97MOL0     H13335   8.754   0.798   4.579 -1.7688 -0.1975  1.0766
   97MOL0     H13336   9.014   0.764   4.447 -0.1842  0.3296 -0.7148
   97MOL0     H13337   8.909   0.721   4.318 -0.8980  1.9067  0.6255
   97MOL0     H13338   9.096   0.506   4.430 -1.4407 -1.8519  1.0018
   97MOL0     H13339   8.987   0.490   4.293 -0.7746  1.2554 -0.5066
   97MOL0     H13340   9.095   0.661   4.178 -0.2646 -0.1487  0.5639
   97MOL0     H13341   9.195   0.714   4.312  0.0141  1.4253 -1.4332
   97MOL0     H13342   9.316   0.474   4.301 -1.9441 -2.3274 -0.1292
   97MOL0     H13343   9.216   0.442   4.158 -0.7161  1.1367 -1.9793
   97MOL0     H13344   9.384   0.575   3.912 -0.2304  1.5845  0.6162
   97MOL0     H13345   9.576   0.533   3.687  1.4084 -0.5178 -1.3221
   97MOL0     H13346   9.457   0.418   3.739 -0.7326  0.3095  1.5716
   97MOL0     H13347   9.626   0.361   3.722  0.9176  0.3479  0.3588
   97MOL0     H13348  10.093   0.452   3.887 -0.3677  0.1116  0.6911
   97MOL0     H13349  10.298   0.356   3.783 -0.1495 -0.4527 -0.0358
   97MOL0     H13350  10.343   0.221   3.608  2.4382  1.2187 -2.6825
   97MOL0     H13351  10.500   0.239   3.672  0.2298  0.5575 -0.5740
   97MOL0     H13352  10.389   0.000   3.533 -3.0364  2.0074  2.0168
   97MOL0     H13353  10.512   0.117   3.482 -2.2262 -1.6910 -2.4981
   97MOL0     H13354  10.568  -0.063   3.723 -0.6341 -0.5311 -1.1850
   97MOL0     H13355  10.666   0.058   3.659  0.5462 -1.2368  4.1523
   97MOL0     H13356  10.671  -0.072   3.429 -1.2014 -1.9029 -0.6610
   97MOL0     H13357  10.578  -0.195   3.530 -3.2393  3.4410  0.6459
   97MOL0     H13358  10.860  -0.086   3.549  1.8476 -2.2292 -2.6318
   97MOL0     H13359  10.797  -0.192   3.673 -0.9279 -1.4657 -0.3417
   97MOL0     H13360  10.762  -0.367   3.489  2.2463 -1.3345  1.0052
   97MOL0     H13361  10.927  -0.335   3.524 -0.1366 -0.6946 -1.0176
   97MOL0     H13362  10.896  -0.168   3.318  3.0899 -1.2163  2.2380
   97MOL0     H13363  10.760  -0.283   3.279 -1.2225  0.5500  0.8402
   97MOL0     H13364  10.944  -0.456   3.290 -1.4006  0.6135  0.9269
   97MOL0     H13365  11.050  -0.325   3.334 -0.2609 -1.0312  1.0669
   97MOL0     H13366  10.201  -0.033   3.904 -0.3352  0.0827  1.9548
   97MOL0     H13367   9.988   0.064   4.025 -0.8189  4.2665  1.6881
   97MOL0     H13368   9.752   0.409   4.202 -0.0060  2.8942  1.1187
   97MOL0     H13369   9.561   0.515   4.288 -1.3109 -0.4616  0.2383
   97MOL0     H13370   7.749   0.132   4.780 -1.3807 -0.0725 -1.6843
   97MOL0     H13371   7.543   0.070   4.661 -0.2449  0.6684 -0.2401
   97MOL0     H13372   7.072   0.110   4.679 -0.3894  1.5073  2.2178
   97MOL0     H13373   6.837   0.108   4.621  1.2218 -1.0566  0.6570
   97MOL0     H13374   6.640   0.049   4.466  1.8422  1.3197 -2.9529
   97MOL0     H13375   6.637   0.162   4.596  1.8377 -0.9335  0.1747
   97MOL0     H13376   6.457   0.214   4.353 -0.7876  3.8188  0.8738
   97MOL0     H13377   6.494   0.311   4.493  0.9157  1.0774 -2.5979
   97MOL0     H13378   6.397   0.008   4.533 -1.3846 -0.9349  2.5164
   97MOL0     H13379   6.400   0.143   4.644 -0.2866  0.7168 -0.6564
   97MOL0     H13380   6.219   0.132   4.402 -1.3486 -3.4650  0.9315
   97MOL0     H13381   6.221   0.256   4.523  0.4006  0.0770 -0.1082
   97MOL0     H13382   6.054  -0.017   4.773  0.4205  2.2931  1.6727
   97MOL0     H13383   6.884   0.361   4.286  0.9726 -0.4792 -0.4794
   97MOL0     H13384   7.235   0.377   4.294  1.9682  2.8161  1.8834
   97MOL0     H13385   7.091   0.434   4.221  3.0381  1.8239 -1.0596
   97MOL0     H13386   7.162   0.516   4.363  0.1597 -0.2989  0.1595
   98MOL0     O13387   1.149  10.118   7.044  0.2982  0.3637 -0.1689
   98MOL0     C13388   1.114  10.226   7.079  0.2773 -0.1858  0.2893
   98MOL0     O13389   1.177  10.311   7.165 -0.1188 -0.7194  0.7171
   98MOL0     C13390   1.307  10.280   7.201  0.1757  0.0403 -0.4531
   98MOL0     C13391   1.412  10.344   7.132  0.0867 -0.2364  0.4629
   98MOL0     C13392   1.545  10.312   7.152 -0.4569  0.4078 -0.7258
   98MOL0     C13393   1.570  10.205   7.239 -1.1342 -0.0684 -0.3527
   98MOL0     O13394   1.692  10.145   7.262  0.1400  1.0940 -0.0535
   98MOL0     C13395   1.813  10.221   7.240 -1.0222  0.4391  0.2110
   98MOL0     C13396   1.922  10.179   7.329  0.1426  1.1149  0.4477
   98MOL0     C13397   2.041  10.276   7.321 -0.4501  0.1187  0.3775
   98MOL0     C13398   2.093  10.311   7.183 -0.0946 -0.2084 -0.0298
   98MOL0     C13399   2.221  10.383   7.185 -0.5262  0.1780 -0.4803
   98MOL0     C13400   2.205  10.529   7.242 -0.5815 -0.0076  0.0639
   98MOL0     C13401   2.272  10.651   7.161 -1.0138  1.2167  0.0830
   98MOL0     C13402   2.424  10.651   7.175  0.1940 -0.0275 -0.3734
   98MOL0     N13403   2.480  10.712   7.054 -0.0337 -0.0145  0.2017
   98MOL0     C13404   2.488  10.655   6.927 -0.2586 -0.4026 -0.0338
   98MOL0     C13405   2.552  10.745   6.850 -0.3646  1.0170 -0.9301
   98MOL0     C13406   2.561  10.734   6.696  0.1750 -0.4231  0.1045
   98MOL0     C13407   2.676  10.802   6.635  0.6269 -0.0395 -0.0113
   98MOL0     C13408   2.799  10.731   6.671  0.0873 -0.8637  0.2793
   98MOL0     C13409   2.928  10.792   6.616  0.3877 -0.0900  0.1673
   98MOL0     O13410   3.043  10.733   6.666 -0.1942  0.3869 -1.0749
   98MOL0     C13411   3.080  10.740   6.799  1.1617 -0.4234 -0.0170
   98MOL0     C13412   3.017  10.820   6.890  0.7411 -0.1669 -0.0264
   98MOL0     C13413   3.050  10.830   7.026  0.3202  0.0299  0.2826
   98MOL0     C13414   2.964  10.929   7.111 -0.0984 -0.6495 -0.4706
   98MOL0     C13415   3.161  10.750   7.069  0.1723  0.7489  0.0371
   98MOL0     C13416   3.216  10.743   7.208  0.6406  0.5257 -0.5366
   98MOL0     O13417   3.338  10.691   7.229 -0.0692  0.8503 -0.1025
   98MOL0     C13418   3.420  10.747   7.323  0.7400 -0.5853  0.5206
   98MOL0     C13419   3.516  10.659   7.363  0.4811  0.1934 -0.1907
   98MOL0     C13420   3.621  10.698   7.448 -0.3104 -0.1276  0.4198
   98MOL0     C13421   3.614  10.834   7.502 -0.4835  0.6900 -0.3822
   98MOL0     O13422   3.708  10.875   7.596 -0.2896 -0.2827 -0.1600
   98MOL0     C13423   3.832  10.810   7.631  0.0641 -0.1994 -0.8147
   98MOL0     C13424   3.933  10.820   7.521 -0.0442 -0.1457  0.0921
   98MOL0     C13425   4.067  10.877   7.567  0.0241  0.2466 -0.1437
   98MOL0     C13426   4.140  10.906   7.439 -1.1179  0.0973 -0.0709
   98MOL0     C13427   4.289  10.939   7.461 -0.7982 -0.4275  0.0981
   98MOL0     C13428   4.307  11.071   7.534 -0.4177  0.4430 -0.2701
   98MOL0     C13429   4.457  11.096   7.544  0.1550 -0.8487 -0.2830
   98MOL0     C13430   4.496  11.213   7.635 -0.2775 -0.9509  0.4378
   98MOL0    Cl13431   4.680  11.227   7.620 -0.1036 -0.2814 -0.4415
   98MOL0     C13432   3.516  10.927   7.458  0.6524  0.1656 -0.2830
   98MOL0     C13433   3.413  10.888   7.372  0.0160  0.9164  0.1587
   98MOL0     O13434   3.144  10.795   7.293 -0.0901 -0.2428 -0.1675
   98MOL0     C13435   3.228  10.675   6.976  0.4987 -0.0253  0.2629
   98MOL0     C13436   3.186  10.680   6.843  0.2188  0.5618 -0.4819
   98MOL0     N13437   2.587  10.856   6.930  0.2698  0.4868  0.1955
   98MOL0     N13438   2.546  10.834   7.048 -0.6908  1.3413  0.2018
   98MOL0     C13439   1.466  10.145   7.307 -0.6871 -0.2903 -0.0226
   98MOL0     C13440   1.337  10.178   7.281 -0.8163  0.3241  0.6367
   98MOL0     C13441   0.981  10.274   7.033 -0.0935  0.1328 -0.3939
   98MOL0     C13442   0.950  10.278   6.900  0.0785  0.9621 -0.0443
   98MOL0     C13443   0.826  10.326   6.863  0.1557  0.7463  0.0373
   98MOL0     C13444   0.736  10.366   6.958 -0.0411  0.1475 -0.5951
   98MOL0     O13445   0.615  10.416   6.908 -0.4476 -0.5007 -0.1548
   98MOL0     C13446   0.516  10.457   7.001 -0.3845  0.0066  0.6622
   98MOL0     C13447   0.412  10.549   6.936  0.0923 -0.4605  0.4542
   98MOL0     C13448   0.310  10.600   7.041  0.8838 -0.2519 -0.7691
   98MOL0     C13449   0.191  10.675   6.977 -0.2366 -0.0612 -0.3381
   98MOL0     C13450   0.226  10.807   6.932  0.2627  0.1654  0.0988
   98MOL0     C13451   0.259  10.911   6.878 -1.1625  0.0649  1.1498
   98MOL0     C13452   0.761  10.355   7.097 -0.4636 -0.4568  0.5531
   98MOL0     C13453   0.890  10.311   7.137 -0.6046  0.7641  0.1664
   98MOL0     C13454   0.921  10.312   7.288  0.4682 -0.2196 -0.4479
   98MOL0     H13455   1.394  10.436   7.077 -2.0284 -1.1917 -0.5286
   98MOL0     H13456   1.622  10.365   7.097 -1.1322  1.8613 -0.3121
   98MOL0     H13457   1.789  10.327   7.256 -0.8961  0.5433 -0.2752
   98MOL0     H13458   1.832  10.204   7.134 -2.8686 -1.3973  0.1078
   98MOL0     H13459   1.886  10.165   7.432  2.5360 -0.1533  1.2094
   98MOL0     H13460   1.947  10.080   7.290  4.5004  1.3140  2.1167
   98MOL0     H13461   2.025  10.363   7.387 -1.6096  0.7731 -0.7008
   98MOL0     H13462   2.120  10.213   7.362 -0.7439  0.2351  1.1468
   98MOL0     H13463   2.093  10.214   7.133  0.0945  1.0385 -2.6431
   98MOL0     H13464   2.021  10.368   7.123  0.9376 -0.8738 -1.9994
   98MOL0     H13465   2.272  10.380   7.089 -3.6476  0.2834 -2.2725
   98MOL0     H13466   2.282  10.336   7.263 -1.7332  4.2631  3.3656
   98MOL0     H13467   2.099  10.556   7.245 -0.6861 -0.4646  0.7003
   98MOL0     H13468   2.250  10.532   7.342  3.9530 -3.5157 -1.5190
   98MOL0     H13469   2.230  10.745   7.199  1.8058  3.5395 -2.0767
   98MOL0     H13470   2.245  10.644   7.055  1.4787 -2.4741 -0.5160
   98MOL0     H13471   2.464  10.699   7.266 -3.4184 -0.6179  1.7271
   98MOL0     H13472   2.461  10.549   7.177  0.7721  0.1632  1.8474
   98MOL0     H13473   2.443  10.561   6.895  2.1798 -2.1060  1.1787
   98MOL0     H13474   2.466  10.776   6.660  0.4006 -0.7785 -0.9280
   98MOL0     H13475   2.567  10.629   6.666  0.0863 -0.4816  0.2898
   98MOL0     H13476   2.662  10.797   6.526  1.5795  0.1134 -0.1435
   98MOL0     H13477   2.673  10.903   6.676  1.4895  0.0074 -0.0527
   98MOL0     H13478   2.795  10.722   6.780  0.2838  0.7773  0.4506
   98MOL0     H13479   2.788  10.631   6.628 -3.8767 -0.3553 -0.2958
   98MOL0     H13480   2.931  10.786   6.507  0.2550 -2.1193  0.2375
   98MOL0     H13481   2.933  10.899   6.638  1.0121  0.2942 -1.6654
   98MOL0     H13482   2.934  10.883   6.861  0.2327 -1.0366 -0.5278
   98MOL0     H13483   2.883  10.879   7.165  1.0582 -2.8266 -0.6737
   98MOL0     H13484   2.926  11.011   7.049  2.0915  1.4011  0.7525
   98MOL0     H13485   3.018  10.988   7.185 -1.6513 -0.1235  0.2925
   98MOL0     H13486   3.526  10.558   7.324  1.1163 -0.6777  2.0625
   98MOL0     H13487   3.699  10.627   7.472 -1.0826 -1.6893 -1.3739
   98MOL0     H13488   3.865  10.853   7.727 -0.8819  1.3449 -1.1467
   98MOL0     H13489   3.800  10.708   7.655 -0.4639 -0.0792 -0.9860
   98MOL0     H13490   3.947  10.723   7.474 -2.7981 -1.0938  1.0351
   98MOL0     H13491   3.900  10.895   7.448  1.0848 -0.8824 -1.2227
   98MOL0     H13492   4.123  10.815   7.637  2.8368  1.8924 -0.7828
   98MOL0     H13493   4.055  10.975   7.615  0.2071  1.9185 -3.1790
   98MOL0     H13494   4.105  10.999   7.395  2.4555  2.0236  0.7407
   98MOL0     H13495   4.123  10.835   7.358 -0.8271  2.0852 -1.9642
   98MOL0     H13496   4.330  10.858   7.523 -0.7832 -0.9694 -0.6019
   98MOL0     H13497   4.348  10.938   7.369 -0.1321 -1.3712  0.5170
   98MOL0     H13498   4.254  11.067   7.630 -0.4670 -0.1599 -0.3233
   98MOL0     H13499   4.264  11.153   7.474 -2.7309 -1.2231 -1.0468
   98MOL0     H13500   4.491  11.101   7.441  1.4328 -1.7873  0.0731
   98MOL0     H13501   4.505  11.004   7.579 -0.8352 -1.0716  0.5512
   98MOL0     H13502   4.460  11.193   7.737  1.6941  0.1844  1.4125
   98MOL0     H13503   4.450  11.305   7.599 -0.0566 -1.3697 -0.9629
   98MOL0     H13504   3.523  11.025   7.503  1.9501 -0.1717  0.2877
   98MOL0     H13505   3.335  10.956   7.338  0.0967  0.3599 -1.2187
   98MOL0     H13506   3.320  10.622   7.001  0.2029 -0.6571  0.0443
   98MOL0     H13507   3.234  10.631   6.759  1.1967  0.9982 -0.1931
   98MOL0     H13508   1.470  10.053   7.365  0.5962 -0.5244 -0.4556
   98MOL0     H13509   1.261  10.119   7.333 -0.3895 -1.4987 -0.7164
   98MOL0     H13510   1.025  10.248   6.827 -0.4961 -1.4841  0.3084
   98MOL0     H13511   0.805  10.321   6.756 -0.8451  0.3351  0.2348
   98MOL0     H13512   0.457  10.371   7.034  0.3328  0.0897  2.2057
   98MOL0     H13513   0.559  10.499   7.092  0.3853 -3.1433  1.8952
   98MOL0     H13514   0.355  10.478   6.875 -1.3884  0.3382  0.8624
   98MOL0     H13515   0.454  10.631   6.877 -2.1814 -0.3788 -1.1960
   98MOL0     H13516   0.273  10.515   7.099  1.8876  0.5553  1.1452
   98MOL0     H13517   0.361  10.664   7.114  0.4238 -1.2236  0.4586
   98MOL0     H13518   0.111  10.692   7.050  2.1912  2.0171  2.0464
   98MOL0     H13519   0.154  10.626   6.886 -1.0449  0.4890 -0.3177
   98MOL0     H13520   0.290  11.010   6.853 -0.3354 -0.7566 -1.4463
   98MOL0     H13521   0.688  10.384   7.172  1.0098  0.8957  1.5365
   98MOL0     H13522   0.833  10.324   7.351  0.9976 -2.0024  0.6809
   98MOL0     H13523   0.982  10.227   7.320 -0.9634 -1.5143 -1.0591
   98MOL0     H13524   0.988  10.398   7.302  0.1340 -0.0007 -0.2001
   99MOL0     O13525   6.162   1.485   3.112  0.4268  0.0717 -1.0381
   99MOL0     C13526   6.083   1.491   3.203  0.3974  0.1231  0.0281
   99MOL0     O13527   6.117   1.454   3.335 -0.0214 -0.2443 -0.4620
   99MOL0     C13528   6.243   1.421   3.376 -0.4902 -0.7451  0.4886
   99MOL0     C13529   6.306   1.505   3.469 -0.3118  0.0100 -0.1591
   99MOL0     C13530   6.439   1.493   3.502  0.4355  0.1449  0.0911
   99MOL0     C13531   6.519   1.392   3.441 -0.8088 -0.2315 -0.3216
   99MOL0     O13532   6.656   1.384   3.462  0.7910 -0.8267  0.3801
   99MOL0     C13533   6.726   1.480   3.395 -0.5465 -0.4692 -0.0566
   99MOL0     C13534   6.868   1.439   3.384  0.3094 -0.1423  0.9319
   99MOL0     C13535   6.940   1.461   3.523 -0.0184  0.1348  0.5471
   99MOL0     C13536   7.082   1.403   3.509  0.4340  0.1064  0.2548
   99MOL0     C13537   7.146   1.378   3.653 -0.3648 -0.4896 -0.6147
   99MOL0     C13538   7.290   1.344   3.641  0.7421 -0.1551  0.1955
   99MOL0     C13539   7.359   1.343   3.780 -0.9279  0.6668 -0.0335
   99MOL0     C13540   7.298   1.237   3.868  0.2884 -0.3699 -0.1032
   99MOL0     N13541   7.382   1.171   3.976 -0.1759  0.0113  0.2343
   99MOL0     C13542   7.507   1.125   3.960 -0.8020 -0.5037 -0.2166
   99MOL0     C13543   7.549   1.086   4.085  0.0919  0.3747  0.3918
   99MOL0     C13544   7.687   1.058   4.121 -0.9933  0.3616 -0.3072
   99MOL0     C13545   7.713   1.021   4.271  0.0505 -0.0869  0.0528
   99MOL0     C13546   7.863   0.983   4.290  0.9574  0.6751 -0.2194
   99MOL0     C13547   7.915   0.987   4.433  0.4783 -0.3857  0.7835
   99MOL0     O13548   8.050   0.974   4.442 -0.5326 -0.3167 -0.4194
   99MOL0     C13549   8.126   1.084   4.419 -0.5391  0.0651 -1.3184
   99MOL0     C13550   8.091   1.221   4.448 -0.3119  0.4451  0.1099
   99MOL0     C13551   8.171   1.327   4.428 -0.0168 -0.5861  0.1631
   99MOL0     C13552   8.109   1.471   4.449 -0.8468 -0.0840 -0.5648
   99MOL0     C13553   8.307   1.304   4.384  1.7982  0.6664 -0.1192
   99MOL0     C13554   8.402   1.410   4.360 -0.2448 -0.1023 -0.3516
   99MOL0     O13555   8.501   1.379   4.277 -0.6535  0.8698  0.1403
   99MOL0     C13556   8.598   1.465   4.238 -0.3296 -0.3026 -0.2814
   99MOL0     C13557   8.636   1.450   4.109 -0.2429  0.2388  0.6077
   99MOL0     C13558   8.741   1.520   4.058  0.0245 -0.6260  0.3396
   99MOL0     C13559   8.806   1.620   4.136 -0.8128 -0.0950 -1.0801
   99MOL0     O13560   8.897   1.714   4.088  0.5022 -0.0872 -0.4192
   99MOL0     C13561   8.979   1.690   3.973 -0.2445  0.1919  0.3463
   99MOL0     C13562   9.097   1.594   4.015  0.0827  0.0978  0.2732
   99MOL0     C13563   9.213   1.623   3.930 -0.2971 -0.6678 -0.4239
   99MOL0     C13564   9.289   1.749   3.957 -0.7722  0.5331  0.2898
   99MOL0     C13565   9.413   1.732   3.865  0.5515 -0.1331 -1.0069
   99MOL0     C13566   9.528   1.829   3.895  0.1297  0.3029  0.3303
   99MOL0     C13567   9.631   1.830   3.780 -0.2090  0.2872 -0.0441
   99MOL0     C13568   9.708   1.697   3.772 -0.1667  0.2575  0.1839
   99MOL0    Cl13569   9.820   1.715   3.644  0.1070  0.4205 -0.2904
   99MOL0     C13570   8.770   1.640   4.270  0.3231  0.3142  0.3966
   99MOL0     C13571   8.667   1.561   4.321  0.7634  0.1487 -0.2601
   99MOL0     O13572   8.389   1.520   4.423 -0.1141  0.8403  0.2734
   99MOL0     C13573   8.337   1.167   4.362  0.2846 -0.3184  0.3315
   99MOL0     C13574   8.257   1.058   4.385  0.3666 -0.0882 -0.3179
   99MOL0     N13575   7.443   1.088   4.174 -0.2759  0.6623 -1.2292
   99MOL0     N13576   7.346   1.142   4.111  0.0208 -0.5246  0.4540
   99MOL0     C13577   6.455   1.303   3.358  0.5344 -0.6120  0.8209
   99MOL0     C13578   6.318   1.307   3.331 -0.2209  0.0370 -0.1772
   99MOL0     C13579   5.953   1.562   3.177 -0.1610 -0.2961  0.2015
   99MOL0     C13580   5.888   1.614   3.288 -0.4416  0.4549 -0.2691
   99MOL0     C13581   5.777   1.689   3.280  0.3343 -0.2116  0.1098
   99MOL0     C13582   5.713   1.703   3.160 -0.8239  0.0887  0.0777
   99MOL0     O13583   5.598   1.783   3.164 -0.1740  0.0010  0.7990
   99MOL0     C13584   5.506   1.782   3.055 -1.2509 -0.5211 -1.1727
   99MOL0     C13585   5.436   1.652   3.044  0.8540 -0.3349 -0.5633
   99MOL0     C13586   5.330   1.636   3.152 -0.2430 -0.1048 -0.0409
   99MOL0     C13587   5.249   1.501   3.137 -0.6946 -0.3107 -0.1209
   99MOL0     C13588   5.321   1.388   3.195  0.5521 -0.1857 -0.0391
   99MOL0     C13589   5.361   1.305   3.269 -0.9368  0.2661 -0.2657
   99MOL0     C13590   5.769   1.653   3.041  0.6051 -0.0261 -0.4681
   99MOL0     C13591   5.897   1.587   3.048 -0.4411  0.3839  0.5920
   99MOL0     C13592   5.947   1.535   2.912  0.2969 -1.1357  0.4900
   99MOL0     H13593   6.247   1.580   3.520  0.0437 -1.7273  3.0271
   99MOL0     H13594   6.494   1.554   3.572  1.2546 -0.1745 -0.2665
   99MOL0     H13595   6.712   1.580   3.437  2.2156  0.4358 -1.0669
   99MOL0     H13596   6.689   1.479   3.292 -1.2057  1.5240  0.1258
   99MOL0     H13597   6.860   1.335   3.352 -1.9042 -0.4629  2.2550
   99MOL0     H13598   6.916   1.495   3.304 -0.8011 -1.8034 -0.9862
   99MOL0     H13599   6.947   1.567   3.549 -1.9739  0.8603 -1.5331
   99MOL0     H13600   6.883   1.408   3.600 -1.0450 -1.2794 -1.1413
   99MOL0     H13601   7.065   1.302   3.471  0.2158 -0.0537  0.7655
   99MOL0     H13602   7.137   1.466   3.439 -3.4654  2.8081 -0.6876
   99MOL0     H13603   7.096   1.309   3.722 -2.4154  1.8642  0.4306
   99MOL0     H13604   7.141   1.475   3.703 -0.7951 -0.0822 -1.4257
   99MOL0     H13605   7.298   1.246   3.594 -1.3786 -0.4596  0.3772
   99MOL0     H13606   7.352   1.408   3.577  1.0445 -0.1847  0.4556
   99MOL0     H13607   7.351   1.445   3.816 -1.7104  1.3212 -1.8913
   99MOL0     H13608   7.463   1.312   3.768 -1.1897 -0.5928  0.6975
   99MOL0     H13609   7.218   1.288   3.922 -0.3185  0.5368 -1.7938
   99MOL0     H13610   7.254   1.160   3.804  2.7143 -0.6022 -1.5903
   99MOL0     H13611   7.572   1.134   3.873  0.1380 -2.4572  0.2383
   99MOL0     H13612   7.756   1.136   4.088  0.3095 -1.4782 -2.2595
   99MOL0     H13613   7.711   0.968   4.062 -0.5905  1.9879 -2.7916
   99MOL0     H13614   7.682   1.101   4.338  0.2469  1.7985 -2.0198
   99MOL0     H13615   7.648   0.935   4.294  0.0899 -0.0197  0.4264
   99MOL0     H13616   7.889   0.889   4.241  1.8679  0.8863 -0.1621
   99MOL0     H13617   7.918   1.063   4.240  0.8204  2.8215  2.7538
   99MOL0     H13618   7.878   1.081   4.475  0.6139  1.3930 -2.7409
   99MOL0     H13619   7.879   0.903   4.493  4.0768 -2.2436  0.6175
   99MOL0     H13620   7.992   1.241   4.487 -0.4561 -3.3853  2.1519
   99MOL0     H13621   8.142   1.499   4.550  0.9356 -1.9841 -0.5463
   99MOL0     H13622   8.001   1.485   4.452 -0.8555  0.1284 -1.5047
   99MOL0     H13623   8.140   1.536   4.367 -0.0460 -2.0739 -1.9325
   99MOL0     H13624   8.589   1.383   4.038  2.2644 -0.7675 -0.2069
   99MOL0     H13625   8.765   1.501   3.954  1.1701 -3.5216  1.0193
   99MOL0     H13626   8.920   1.652   3.890 -0.7237 -0.9524  1.1932
   99MOL0     H13627   9.014   1.787   3.935 -1.2217 -0.1022 -1.4163
   99MOL0     H13628   9.119   1.599   4.122 -1.4650 -0.8164  0.6585
   99MOL0     H13629   9.078   1.490   3.989  1.1211 -0.1285  0.3924
   99MOL0     H13630   9.187   1.642   3.825 -0.0930  2.2970 -0.0140
   99MOL0     H13631   9.283   1.541   3.950 -0.4197 -0.4909  0.8092
   99MOL0     H13632   9.308   1.765   4.063 -2.4947  1.8859  0.4503
   99MOL0     H13633   9.244   1.847   3.937  1.9412  2.6701  3.5784
   99MOL0     H13634   9.460   1.635   3.880 -0.7357 -0.8079 -1.1583
   99MOL0     H13635   9.382   1.748   3.761  0.2106 -0.5928 -0.9781
   99MOL0     H13636   9.579   1.799   3.987  0.8127  1.6855  0.4304
   99MOL0     H13637   9.484   1.928   3.908  0.1426  0.4918 -0.9662
   99MOL0     H13638   9.699   1.913   3.801 -2.3024  1.5924  1.9818
   99MOL0     H13639   9.574   1.854   3.690 -1.4987  0.7500  0.8684
   99MOL0     H13640   9.644   1.611   3.751 -1.4588  0.7177  2.0455
   99MOL0     H13641   9.761   1.672   3.864 -3.1606 -1.1434  1.6616
   99MOL0     H13642   8.833   1.718   4.312  0.7654  0.3997 -0.4144
   99MOL0     H13643   8.632   1.564   4.424 -0.8618 -4.0136 -0.5094
   99MOL0     H13644   8.436   1.152   4.320  0.1607  4.1617 -2.2218
   99MOL0     H13645   8.287   0.957   4.358  0.0469  0.1492 -1.6425
   99MOL0     H13646   6.516   1.221   3.322 -1.6863 -2.2286  0.5885
   99MOL0     H13647   6.266   1.231   3.273 -0.3978  0.1078 -0.1137
   99MOL0     H13648   5.930   1.604   3.387  1.7197 -2.9992 -1.3396
   99MOL0     H13649   5.726   1.723   3.369 -0.3876 -2.3492  0.5817
   99MOL0     H13650   5.439   1.867   3.068 -0.6128  0.2640 -2.6377
   99MOL0     H13651   5.556   1.811   2.962  1.1877  0.8302  0.4413
   99MOL0     H13652   5.514   1.576   3.052  0.4145 -0.7035  0.3882
   99MOL0     H13653   5.391   1.650   2.944  1.0127 -0.4102 -0.6335
   99MOL0     H13654   5.368   1.641   3.255 -0.3956 -0.8823  0.0643
   99MOL0     H13655   5.258   1.713   3.126  0.9243  1.8644  2.2134
   99MOL0     H13656   5.220   1.480   3.034 -0.8208 -1.5439  0.1527
   99MOL0     H13657   5.161   1.518   3.199 -0.7130 -1.2442  0.1180
   99MOL0     H13658   5.381   1.223   3.335 -0.0910  1.1963  0.6514
   99MOL0     H13659   5.734   1.670   2.939  2.6080 -0.2723 -1.2393
   99MOL0     H13660   5.906   1.579   2.820  0.3406 -3.6030 -0.7719
   99MOL0     H13661   6.054   1.555   2.907 -0.0343  3.0351  3.7135
   99MOL0     H13662   5.922   1.429   2.908 -0.2111 -0.9951 -0.3624
  100MOL0     O13663   8.032   4.596   7.484  0.2336  0.3083  0.0063
  100MOL0     C13664   7.925   4.655   7.498  0.0861  0.7323 -0.1010
  100MOL0     O13665   7.890   4.742   7.589  0.2913  0.3446 -0.5459
  100MOL0     C13666   7.987   4.772   7.685  0.0290  0.3124 -0.2464
  100MOL0     C13667   7.990   4.708   7.803 -0.1027 -0.2291  0.0088
  100MOL0     C13668   8.092   4.734   7.893  0.3092  0.0215 -0.2337
  100MOL0     C13669   8.200   4.814   7.868 -0.1233  0.4382 -0.4705
  100MOL0     O13670   8.302   4.832   7.964 -0.1632 -0.1898 -0.1091
  100MOL0     C13671   8.428   4.894   7.929  0.6930 -0.1573 -0.3760
  100MOL0     C13672   8.512   4.906   8.059 -0.6750  0.0992 -0.8656
  100MOL0     C13673   8.529   4.762   8.130  0.1664  0.0414 -0.3671
  100MOL0     C13674   8.651   4.784   8.229  0.3257 -0.1149  0.3564
  100MOL0     C13675   8.688   4.666   8.320  0.8368  1.0497 -0.3259
  100MOL0     C13676   8.835   4.691   8.371 -0.2047  0.4954  0.3506
  100MOL0     C13677   8.862   4.567   8.462  0.6487 -0.4296  0.4377
  100MOL0     C13678   9.008   4.588   8.504  0.7035 -0.3429  0.7636
  100MOL0     N13679   9.063   4.465   8.564 -0.2096  0.2955 -0.1734
  100MOL0     C13680   9.089   4.347   8.490  0.1720  0.5403 -0.3594
  100MOL0     C13681   9.137   4.265   8.589 -0.3490 -0.5240  0.4364
  100MOL0     C13682   9.175   4.128   8.564 -0.2695  0.6781 -0.0098
  100MOL0     C13683   9.096   4.022   8.642  0.4634 -0.4300 -0.0478
  100MOL0     C13684   8.992   3.965   8.544 -0.3407  0.5692  0.9613
  100MOL0     C13685   8.925   3.849   8.618 -0.5230 -0.2317  0.4202
  100MOL0     O13686   9.031   3.750   8.621  0.4976  0.5142 -0.1941
  100MOL0     C13687   9.002   3.620   8.598  0.2082 -0.0747 -1.5831
  100MOL0     C13688   8.893   3.574   8.518  0.5498 -0.5469 -0.1785
  100MOL0     C13689   8.884   3.438   8.481 -0.0234  0.0031 -0.0038
  100MOL0     C13690   8.767   3.391   8.394  0.2920 -0.0996 -0.2247
  100MOL0     C13691   8.979   3.344   8.533  0.4048 -0.6712  0.2139
  100MOL0     C13692   8.978   3.203   8.506  0.8610 -0.4172 -1.1543
  100MOL0     O13693   8.988   3.117   8.607 -0.0591  0.6679  0.0963
  100MOL0     C13694   8.939   2.985   8.595  0.2202 -0.2454  0.4109
  100MOL0     C13695   9.008   2.891   8.673  0.1017 -0.3241  0.4133
  100MOL0     C13696   8.980   2.761   8.677 -0.0475 -0.3791  0.0231
  100MOL0     C13697   8.880   2.713   8.593  0.3928  0.1009  0.5903
  100MOL0     O13698   8.858   2.581   8.569  0.7276 -0.3496 -0.3663
  100MOL0     C13699   8.879   2.488   8.672  0.1178  0.3035  0.0891
  100MOL0     C13700   9.014   2.416   8.650 -0.5815 -0.2744 -0.2565
  100MOL0     C13701   9.013   2.280   8.729 -0.1890 -0.1548  0.3993
  100MOL0     C13702   9.152   2.211   8.723 -0.3087 -0.3754  0.0227
  100MOL0     C13703   9.141   2.074   8.775  0.0482 -0.3051 -0.4918
  100MOL0     C13704   9.096   2.070   8.919  0.5717  0.0339 -0.5976
  100MOL0     C13705   9.108   1.937   8.990  0.2051  0.7162 -0.6121
  100MOL0     C13706   9.074   1.963   9.139  0.5086 -0.3147 -0.5597
  100MOL0    Cl13707   9.079   1.795   9.229 -0.6035  0.1164  0.3877
  100MOL0     C13708   8.794   2.797   8.517 -0.2768  0.9136 -0.3793
  100MOL0     C13709   8.830   2.935   8.521 -0.7870 -0.1407  0.1444
  100MOL0     O13710   8.982   3.173   8.388  0.1068  0.0983  0.9664
  100MOL0     C13711   9.079   3.393   8.615 -1.3703  0.0387  0.2227
  100MOL0     C13712   9.089   3.527   8.647 -0.3006  0.2569 -0.1258
  100MOL0     N13713   9.161   4.330   8.706  0.3557 -0.2385  0.3685
  100MOL0     N13714   9.116   4.456   8.692  0.1460 -0.0322 -0.0763
  100MOL0     C13715   8.201   4.881   7.747 -0.1268 -0.4984  0.0910
  100MOL0     C13716   8.095   4.862   7.646 -0.0689 -0.2079 -0.2322
  100MOL0     C13717   7.800   4.624   7.408 -0.0860 -0.4501 -0.7632
  100MOL0     C13718   7.674   4.664   7.446  0.5024 -0.6314 -0.2293
  100MOL0     C13719   7.565   4.639   7.361 -0.0177 -0.3313 -0.2102
  100MOL0     C13720   7.576   4.568   7.237  0.4120 -0.7079 -0.8751
  100MOL0     O13721   7.468   4.533   7.153 -0.0435  0.8949  0.0332
  100MOL0     C13722   7.340   4.595   7.181 -0.6321  0.4182  0.5464
  100MOL0     C13723   7.248   4.587   7.062 -0.2703 -0.7158  0.2511
  100MOL0     C13724   7.123   4.667   7.088  0.3572 -0.3198  0.2322
  100MOL0     C13725   7.018   4.618   7.184 -0.1747  0.5564  0.1882
  100MOL0     C13726   6.983   4.485   7.127  0.6168 -0.0686  0.0715
  100MOL0     C13727   6.955   4.372   7.086  0.2032  0.4101  0.3131
  100MOL0     C13728   7.707   4.528   7.205  0.3384  0.5025  0.3197
  100MOL0     C13729   7.818   4.552   7.281  0.0143  0.7422 -0.3759
  100MOL0     C13730   7.948   4.494   7.226  0.1842  0.1341  0.7551
  100MOL0     H13731   7.915   4.633   7.824  0.3861 -0.5243  0.7120
  100MOL0     H13732   8.088   4.688   7.992 -0.3075 -1.2842 -0.8446
  100MOL0     H13733   8.414   4.997   7.896  1.1164  0.0970  0.2169
  100MOL0     H13734   8.473   4.835   7.848 -2.3980 -0.9706 -1.6463
  100MOL0     H13735   8.606   4.960   8.050 -0.4689 -0.1776 -0.3968
  100MOL0     H13736   8.458   4.968   8.133  1.5044 -0.4707  1.3314
  100MOL0     H13737   8.439   4.721   8.177  0.8436  1.1077  2.0014
  100MOL0     H13738   8.565   4.682   8.064 -0.4400  0.0653 -0.7299
  100MOL0     H13739   8.739   4.817   8.172  0.0401 -1.1972 -0.7504
  100MOL0     H13740   8.630   4.872   8.290  3.6101  3.3045 -2.8633
  100MOL0     H13741   8.687   4.577   8.256 -0.7578  0.5206  0.3970
  100MOL0     H13742   8.619   4.664   8.405  1.2282 -0.5596 -0.0190
  100MOL0     H13743   8.912   4.695   8.293 -0.2668  1.1219  0.3201
  100MOL0     H13744   8.830   4.786   8.425  2.2034  2.1992 -2.1261
  100MOL0     H13745   8.852   4.474   8.405 -1.8072 -1.1440  1.9137
  100MOL0     H13746   8.800   4.562   8.552 -0.5170  2.2286 -0.1507
  100MOL0     H13747   9.074   4.623   8.424 -1.4389  3.4846  0.4351
  100MOL0     H13748   8.999   4.662   8.583 -2.0086  0.8754 -0.5182
  100MOL0     H13749   9.058   4.328   8.387  1.4809 -2.5915 -0.2983
  100MOL0     H13750   9.279   4.115   8.594 -0.5850 -0.7793  0.5391
  100MOL0     H13751   9.180   4.107   8.457  1.0872 -0.3870  0.2396
  100MOL0     H13752   9.163   3.942   8.675  1.0895 -0.2616 -0.8670
  100MOL0     H13753   9.043   4.069   8.725 -0.9850 -4.3260  1.4492
  100MOL0     H13754   8.923   4.046   8.519 -0.6944  0.3761  1.2811
  100MOL0     H13755   9.026   3.926   8.448 -2.2459 -3.4667  1.6823
  100MOL0     H13756   8.886   3.873   8.717 -1.8396  1.3932 -0.4344
  100MOL0     H13757   8.834   3.819   8.565 -1.7203  2.9559  0.4345
  100MOL0     H13758   8.814   3.637   8.477 -0.3841 -1.8314 -0.4263
  100MOL0     H13759   8.798   3.385   8.289  2.0470  1.3887  0.1622
  100MOL0     H13760   8.677   3.451   8.406  0.6169  0.0542  1.7990
  100MOL0     H13761   8.748   3.288   8.426 -0.7738  0.8454  2.5132
  100MOL0     H13762   9.078   2.933   8.745  1.6203 -2.7767  0.4729
  100MOL0     H13763   9.031   2.686   8.737 -0.9999  0.0412  1.4160
  100MOL0     H13764   8.877   2.533   8.771 -0.9304 -0.2095  0.3071
  100MOL0     H13765   8.801   2.412   8.664  1.6034 -1.3209  0.3884
  100MOL0     H13766   9.039   2.396   8.545 -0.8281 -0.7065 -0.2357
  100MOL0     H13767   9.097   2.477   8.687 -0.8576 -0.2506  0.3383
  100MOL0     H13768   8.946   2.209   8.682  1.0395 -0.3832 -1.1006
  100MOL0     H13769   8.995   2.307   8.833  2.5085  0.1029  0.8773
  100MOL0     H13770   9.215   2.277   8.783  1.2393 -2.2584  0.5494
  100MOL0     H13771   9.183   2.207   8.618  0.2364 -3.6764  0.2096
  100MOL0     H13772   9.075   2.010   8.716 -1.1733  1.2973 -0.9374
  100MOL0     H13773   9.241   2.031   8.783  0.7244  1.2820 -0.1655
  100MOL0     H13774   8.991   2.099   8.909  0.0413 -2.0960 -2.0354
  100MOL0     H13775   9.145   2.151   8.974 -1.3579  0.0190  1.2273
  100MOL0     H13776   9.206   1.889   8.981  0.1923  0.7306 -0.8354
  100MOL0     H13777   9.035   1.867   8.950 -2.0826  1.1351  2.4526
  100MOL0     H13778   8.970   1.996   9.146 -0.1284 -1.8408 -2.0482
  100MOL0     H13779   9.141   2.036   9.185 -2.3793  1.5725  0.9383
  100MOL0     H13780   8.720   2.760   8.447 -2.5487  2.5589  1.0130
  100MOL0     H13781   8.774   3.009   8.464  0.9690  1.2265  0.1009
  100MOL0     H13782   9.136   3.325   8.677  1.6931  2.7648  0.6874
  100MOL0     H13783   9.169   3.565   8.711 -1.5158  1.8987  0.4927
  100MOL0     H13784   8.291   4.932   7.714 -0.2091 -0.1155  0.4450
  100MOL0     H13785   8.094   4.906   7.547 -0.3197 -4.1861 -2.1997
  100MOL0     H13786   7.660   4.723   7.536 -0.0046 -0.4739 -0.4026
  100MOL0     H13787   7.475   4.688   7.396 -1.4986 -0.3202 -3.6248
  100MOL0     H13788   7.293   4.542   7.265 -0.2273 -0.8839 -0.0195
  100MOL0     H13789   7.351   4.701   7.205  1.1842  1.0129 -2.3817
  100MOL0     H13790   7.229   4.486   7.025  1.1445 -0.1264 -2.3410
  100MOL0     H13791   7.300   4.633   6.977 -0.2012  0.7557  1.0508
  100MOL0     H13792   7.158   4.765   7.121 -0.1676  0.6850 -1.9815
  100MOL0     H13793   7.073   4.687   6.993 -1.1145 -0.2298  0.9945
  100MOL0     H13794   6.931   4.684   7.193 -1.2466 -0.9263  0.8997
  100MOL0     H13795   7.062   4.609   7.283  2.2320 -0.3576 -0.8841
  100MOL0     H13796   6.937   4.274   7.047  1.0796  0.9019 -1.4213
  100MOL0     H13797   7.726   4.463   7.120  1.0293 -0.0110  0.8471
  100MOL0     H13798   8.024   4.572   7.217  0.6491 -0.2700  1.1233
  100MOL0     H13799   7.985   4.422   7.300  0.2041 -0.2461  0.3792
  100MOL0     H13800   7.931   4.454   7.126 -0.3460  1.5253  0.2636
  101MOL0     O13801   3.702   9.776   6.131 -0.2844 -0.6314  0.4155
  101MOL0     C13802   3.650   9.888   6.145  0.1301  0.1470 -0.9963
  101MOL0     O13803   3.727  10.003   6.155 -0.4339  0.0013 -1.1231
  101MOL0     C13804   3.866   9.990   6.132 -0.0970  0.0068  0.0557
  101MOL0     C13805   3.916   9.919   6.023  0.4552  0.3616  0.0349
  101MOL0     C13806   4.053   9.886   6.020 -0.1278 -0.4974  0.5857
  101MOL0     C13807   4.146   9.954   6.115  0.5674 -0.2824  0.4321
  101MOL0     O13808   4.276   9.945   6.091 -0.4810 -0.9768 -0.4167
  101MOL0     C13809   4.378  10.039   6.135  0.6226  0.2897  0.5996
  101MOL0     C13810   4.522   9.992   6.110  0.2904 -0.1752  0.0433
  101MOL0     C13811   4.552   9.850   6.165 -0.1583  0.2913 -0.6018
  101MOL0     C13812   4.670   9.792   6.099  0.1829  0.0312 -0.0296
  101MOL0     C13813   4.793   9.857   6.155  0.6996  0.0282  0.0274
  101MOL0     C13814   4.918   9.800   6.080  0.0788  0.9691  0.2747
  101MOL0     C13815   4.937   9.642   6.075 -0.5936  0.1830 -0.4240
  101MOL0     C13816   5.057   9.604   5.983  1.1440  0.0051  0.4114
  101MOL0     N13817   5.179   9.548   6.042  0.0820 -0.0170 -0.3136
  101MOL0     C13818   5.209   9.492   6.165 -0.2984 -0.3494 -0.4089
  101MOL0     C13819   5.342   9.461   6.166  0.4308 -0.0091 -0.5459
  101MOL0     C13820   5.424   9.419   6.288 -0.5619 -0.2182 -0.6302
  101MOL0     C13821   5.585   9.428   6.291  0.2110 -1.0436  0.0320
  101MOL0     C13822   5.644   9.334   6.186  0.4209  0.1480 -0.0141
  101MOL0     C13823   5.796   9.351   6.159  0.4424 -0.1056 -0.0368
  101MOL0     O13824   5.869   9.272   6.260  0.2216  0.0643  0.2645
  101MOL0     C13825   6.005   9.278   6.268 -0.2162  0.2665 -0.1523
  101MOL0     C13826   6.087   9.351   6.179  0.2581  0.1194 -0.3514
  101MOL0     C13827   6.224   9.359   6.189  0.1558 -0.4788 -0.3331
  101MOL0     C13828   6.282   9.440   6.080 -1.1241 -0.4043 -0.2001
  101MOL0     C13829   6.291   9.299   6.299 -0.5750  0.0883 -0.0818
  101MOL0     C13830   6.440   9.305   6.323 -0.0294 -1.3114  0.6179
  101MOL0     O13831   6.521   9.287   6.215 -0.3796  0.2476  0.2520
  101MOL0     C13832   6.655   9.303   6.240  0.6892  0.3763  0.3881
  101MOL0     C13833   6.715   9.413   6.293 -0.0069  0.3075 -0.7300
  101MOL0     C13834   6.857   9.425   6.305 -0.9107 -0.5555 -0.1965
  101MOL0     C13835   6.940   9.324   6.249 -0.0483  1.1913 -0.1815
  101MOL0     O13836   7.073   9.340   6.266  0.3591 -0.4557 -0.0974
  101MOL0     C13837   7.177   9.251   6.227 -1.2913 -0.1948  1.0966
  101MOL0     C13838   7.289   9.310   6.309 -0.8279 -0.0501  0.2776
  101MOL0     C13839   7.428   9.262   6.262 -0.9954 -0.0716 -0.1849
  101MOL0     C13840   7.534   9.355   6.324 -1.4725  0.9357  1.6660
  101MOL0     C13841   7.671   9.338   6.260 -0.9023 -0.8343  1.0834
  101MOL0     C13842   7.743   9.216   6.297  0.3349  0.5997 -0.4550
  101MOL0     C13843   7.889   9.219   6.284 -0.8095 -0.1533  0.4612
  101MOL0     C13844   7.956   9.101   6.230  0.8652  1.1055 -0.8057
  101MOL0    Cl13845   7.897   9.046   6.077 -0.2810 -0.2664 -0.2205
  101MOL0     C13846   6.883   9.217   6.180  0.0026  0.0793 -0.4922
  101MOL0     C13847   6.743   9.211   6.174 -0.1890 -0.8665  0.4285
  101MOL0     O13848   6.481   9.300   6.439 -0.3542 -0.5976  0.3029
  101MOL0     C13849   6.202   9.231   6.394 -1.0388  0.5645 -0.5565
  101MOL0     C13850   6.067   9.217   6.377 -0.5812 -0.8810  0.4733
  101MOL0     N13851   5.397   9.508   6.045  0.0171 -0.2597 -0.7437
  101MOL0     N13852   5.296   9.556   5.977 -0.0375 -0.4372  0.0514
  101MOL0     C13853   4.089  10.037   6.216 -0.1191  0.1966 -0.2048
  101MOL0     C13854   3.952  10.053   6.224 -0.2264 -0.0861 -1.0602
  101MOL0     C13855   3.504   9.904   6.166 -0.3255  0.8054  0.5498
  101MOL0     C13856   3.454  10.033   6.170 -1.4783 -0.0301 -0.3187
  101MOL0     C13857   3.314  10.063   6.178  0.2553 -0.3904 -0.4503
  101MOL0     C13858   3.226   9.956   6.181  0.2773 -0.2212  0.5126
  101MOL0     O13859   3.091   9.978   6.204 -0.3518  0.1663  0.8683
  101MOL0     C13860   3.041  10.118   6.199  0.3660  0.6158 -0.9007
  101MOL0     C13861   2.887  10.115   6.187  0.4433  0.4709  0.5064
  101MOL0     C13862   2.817  10.077   6.324 -0.3919 -0.0982  0.6203
  101MOL0     C13863   2.684   9.997   6.303 -0.4412 -1.5155 -1.3195
  101MOL0     C13864   2.587  10.095   6.245 -0.2668  0.2233 -0.0721
  101MOL0     C13865   2.512  10.168   6.183 -0.3081  0.6116  0.9408
  101MOL0     C13866   3.274   9.824   6.168  0.2671 -0.3729 -0.3401
  101MOL0     C13867   3.412   9.799   6.162 -0.3276 -0.4169  0.0369
  101MOL0     C13868   3.456   9.651   6.172 -0.1328  0.5201  0.0860
  101MOL0     H13869   3.836   9.875   5.964 -0.2040 -0.0966  1.2336
  101MOL0     H13870   4.098   9.823   5.944 -0.9809  0.1675 -0.4809
  101MOL0     H13871   4.365  10.059   6.242 -0.6111  0.3242  0.4506
  101MOL0     H13872   4.353  10.135   6.090 -2.1978 -0.2552  0.8207
  101MOL0     H13873   4.544  10.004   6.003  1.8498  0.4620  0.4165
  101MOL0     H13874   4.587  10.066   6.157  0.1096 -0.1185  0.2066
  101MOL0     H13875   4.575   9.858   6.271 -0.2855 -0.4202 -0.5161
  101MOL0     H13876   4.467   9.783   6.149 -0.3954  0.6883 -1.0488
  101MOL0     H13877   4.668   9.686   6.126 -2.5102 -0.5325 -1.9399
  101MOL0     H13878   4.660   9.794   5.990  1.1426 -1.4182 -0.1693
  101MOL0     H13879   4.796   9.827   6.260 -1.1043 -0.0578  0.0722
  101MOL0     H13880   4.790   9.965   6.139  0.8072  0.1223  0.6131
  101MOL0     H13881   4.908   9.842   5.980 -1.4120 -0.6920 -0.3059
  101MOL0     H13882   5.014   9.840   6.115 -0.1365  0.9023  0.9692
  101MOL0     H13883   4.847   9.588   6.043 -1.7479  1.7161  0.0997
  101MOL0     H13884   4.969   9.599   6.170  0.2300 -0.5393 -1.0106
  101MOL0     H13885   5.018   9.532   5.911 -0.7450  1.5273 -0.1739
  101MOL0     H13886   5.073   9.698   5.931 -1.7555  3.4433  4.9289
  101MOL0     H13887   5.139   9.491   6.248  0.6824  2.3274  0.5536
  101MOL0     H13888   5.383   9.320   6.312 -2.1762  0.4707 -0.4296
  101MOL0     H13889   5.392   9.492   6.363 -2.0209 -0.9671 -0.4838
  101MOL0     H13890   5.622   9.528   6.267 -3.9086  0.4745 -0.7010
  101MOL0     H13891   5.609   9.402   6.395 -0.1581  1.8268  0.9267
  101MOL0     H13892   5.625   9.233   6.224 -1.2670  0.1551 -0.7554
  101MOL0     H13893   5.587   9.339   6.093  0.4392 -1.5235 -0.1330
  101MOL0     H13894   5.825   9.308   6.062  1.1667  1.4980 -0.5675
  101MOL0     H13895   5.821   9.457   6.157 -0.2905  0.0983 -2.5595
  101MOL0     H13896   6.043   9.411   6.101 -0.5337  0.9000  0.6692
  101MOL0     H13897   6.389   9.456   6.100 -1.0616 -2.2391  1.2310
  101MOL0     H13898   6.242   9.542   6.072  4.2373  2.0804  0.0597
  101MOL0     H13899   6.269   9.391   5.984 -1.8735  1.9306 -1.3680
  101MOL0     H13900   6.657   9.496   6.333  1.3100  1.1842 -0.5973
  101MOL0     H13901   6.897   9.512   6.356 -1.2200 -1.1986  1.1910
  101MOL0     H13902   7.156   9.150   6.262  0.0665 -1.0108 -0.2802
  101MOL0     H13903   7.187   9.246   6.118 -1.2505 -0.5806  1.1176
  101MOL0     H13904   7.289   9.418   6.295  3.0215  0.2531  1.6738
  101MOL0     H13905   7.266   9.294   6.414 -0.7569  1.7410  0.5926
  101MOL0     H13906   7.434   9.260   6.153 -0.5005 -0.5386 -0.1582
  101MOL0     H13907   7.458   9.163   6.299 -1.0528  0.2584  0.7555
  101MOL0     H13908   7.538   9.338   6.432 -0.8709 -0.6554  1.4340
  101MOL0     H13909   7.503   9.457   6.303 -1.1317  0.5248 -1.1581
  101MOL0     H13910   7.658   9.339   6.151  0.8418  1.8101  0.7927
  101MOL0     H13911   7.727   9.423   6.300  0.1925 -2.0263  2.1705
  101MOL0     H13912   7.700   9.135   6.237  2.0325  0.1583 -1.1410
  101MOL0     H13913   7.705   9.180   6.393 -2.2953 -0.2231 -1.7040
  101MOL0     H13914   7.924   9.238   6.386  0.7219 -0.1854 -0.0443
  101MOL0     H13915   7.909   9.308   6.224 -1.0556  0.3827  1.1541
  101MOL0     H13916   7.946   9.013   6.296 -1.3979  2.7845  1.2910
  101MOL0     H13917   8.063   9.125   6.240  0.8591  0.4916  1.3001
  101MOL0     H13918   6.938   9.134   6.137 -0.1784 -0.8962  1.0852
  101MOL0     H13919   6.690   9.125   6.133 -2.2393 -0.2899  1.7177
  101MOL0     H13920   6.252   9.193   6.482 -0.9181  1.1368 -0.3751
  101MOL0     H13921   6.003   9.164   6.447  0.7643  2.2228  4.4541
  101MOL0     H13922   4.156  10.105   6.268  1.3061  0.9538 -2.8452
  101MOL0     H13923   3.913  10.119   6.301 -0.4576 -1.0062 -0.3570
  101MOL0     H13924   3.520  10.118   6.177  2.0324 -2.6260  1.2914
  101MOL0     H13925   3.282  10.163   6.204  1.1717 -0.3621  0.6731
  101MOL0     H13926   3.061  10.181   6.285  0.5442 -0.5076 -0.0979
  101MOL0     H13927   3.086  10.167   6.112  1.3749  0.1602 -0.6456
  101MOL0     H13928   2.869  10.047   6.104 -2.1154  0.1516  1.2413
  101MOL0     H13929   2.851  10.214   6.154 -5.4863 -0.8590  1.7848
  101MOL0     H13930   2.879  10.015   6.390 -1.7011  1.0724  3.0931
  101MOL0     H13931   2.800  10.169   6.381  0.8753  0.2462  0.4542
  101MOL0     H13932   2.646   9.983   6.404 -1.0118  2.4081 -0.8180
  101MOL0     H13933   2.706   9.911   6.240 -0.5527 -0.8509 -2.2968
  101MOL0     H13934   2.434  10.236   6.153  0.7035  1.3032 -0.2268
  101MOL0     H13935   3.196   9.750   6.178 -0.0150  0.1760  2.6289
  101MOL0     H13936   3.370   9.584   6.179 -1.8175  2.5982  0.3119
  101MOL0     H13937   3.513   9.630   6.081  2.0868  0.8972  1.3099
  101MOL0     H13938   3.523   9.638   6.258 -0.0631 -0.7617 -0.1516
  102MOL0     O13939   2.729   1.955  10.823 -0.8470  0.6179  0.0943
  102MOL0     C13940   2.693   2.063  10.791 -0.0867 -0.7535  0.5633
  102MOL0     O13941   2.761   2.153  10.714 -0.1594 -0.0682 -0.1952
  102MOL0     C13942   2.897   2.125  10.690 -0.4214 -0.2055  0.9835
  102MOL0     C13943   2.997   2.102  10.782  0.4328  0.7752 -0.0133
  102MOL0     C13944   3.118   2.071  10.732 -0.1014  0.1450  0.5556
  102MOL0     C13945   3.164   2.088  10.600  1.3734 -0.2900  0.1593
  102MOL0     O13946   3.285   2.067  10.535  0.4837  0.0413 -0.0201
  102MOL0     C13947   3.401   2.064  10.626  0.2520 -0.5351 -0.4990
  102MOL0     C13948   3.529   2.073  10.553  0.6550  0.0532 -0.6887
  102MOL0     C13949   3.542   2.202  10.470 -0.6466  0.7553  0.0104
  102MOL0     C13950   3.688   2.194  10.415  0.4358 -0.6863 -0.8180
  102MOL0     C13951   3.727   2.311  10.320  0.3256 -1.5329  0.2643
  102MOL0     C13952   3.722   2.454  10.388  0.2553 -0.3148  0.6865
  102MOL0     C13953   3.815   2.476  10.508 -0.2587 -0.6269 -0.0175
  102MOL0     C13954   3.964   2.471  10.484  0.1525  0.3997  0.2839
  102MOL0     N13955   4.052   2.449  10.599 -0.6175  0.6827 -0.5808
  102MOL0     C13956   4.047   2.528  10.709  0.0787 -0.4975 -0.4073
  102MOL0     C13957   4.137   2.467  10.792  0.4421 -0.4103 -0.3869
  102MOL0     C13958   4.180   2.506  10.932 -0.4120  0.8925  0.1012
  102MOL0     C13959   4.243   2.649  10.948  0.1565  0.2685  0.2675
  102MOL0     C13960   4.141   2.770  10.938  0.4851 -0.1975 -0.0629
  102MOL0     C13961   4.032   2.765  11.034  0.0051  0.1730 -0.8585
  102MOL0     O13962   3.932   2.683  10.977  0.1754 -0.7433 -0.2401
  102MOL0     C13963   3.823   2.643  11.053  0.5009 -0.7225  0.4178
  102MOL0     C13964   3.720   2.573  10.990  0.2712 -0.4197  0.1476
  102MOL0     C13965   3.600   2.550  11.058  0.1482  0.2789  1.0087
  102MOL0     C13966   3.488   2.496  10.969 -0.7828 -0.5394  0.1915
  102MOL0     C13967   3.587   2.568  11.201  0.4197  1.1886 -0.2738
  102MOL0     C13968   3.459   2.529  11.275 -0.2011  0.9033 -0.3996
  102MOL0     O13969   3.476   2.542  11.405  0.4988  0.1462 -0.3510
  102MOL0     C13970   3.387   2.475  11.486 -0.5518 -0.5833  0.1300
  102MOL0     C13971   3.312   2.544  11.581  0.8311  0.6018 -0.8236
  102MOL0     C13972   3.234   2.471  11.665  0.6543 -0.0959 -0.1377
  102MOL0     C13973   3.233   2.333  11.666  0.4922  0.1855 -1.1166
  102MOL0     O13974   3.162   2.276  11.774 -0.6922  0.3941  0.2431
  102MOL0     C13975   3.108   2.146  11.748  0.6843  0.2968 -0.1850
  102MOL0     C13976   3.162   2.034  11.832 -0.5508  0.2044 -0.1314
  102MOL0     C13977   3.141   2.069  11.973  0.2131 -0.6753 -0.8252
  102MOL0     C13978   3.141   1.962  12.077  0.7947 -0.2169  0.7710
  102MOL0     C13979   3.142   2.011  12.224  0.5659  0.5086  0.2259
  102MOL0     C13980   3.131   1.880  12.306  0.2218 -0.6299  0.8787
  102MOL0     C13981   3.153   1.922  12.451 -0.0749  0.4788  0.5124
  102MOL0     C13982   3.030   1.991  12.511 -0.1098  0.6051  0.3033
  102MOL0    Cl13983   2.879   1.889  12.498  0.0356  0.1522  0.2386
  102MOL0     C13984   3.311   2.260  11.576 -0.2236  0.2457  0.0016
  102MOL0     C13985   3.391   2.340  11.492  0.6102  0.6572  0.3773
  102MOL0     O13986   3.349   2.495  11.219 -0.2576 -0.0209  0.0167
  102MOL0     C13987   3.696   2.625  11.263 -1.0023 -0.2245  0.6775
  102MOL0     C13988   3.814   2.668  11.186 -0.2816  0.5860 -0.5496
  102MOL0     N13989   4.187   2.347  10.733 -0.1702 -0.1304 -0.0606
  102MOL0     N13990   4.134   2.338  10.616  0.7493  0.8067 -0.0234
  102MOL0     C13991   3.064   2.130  10.509 -0.0202 -0.3823  0.5636
  102MOL0     C13992   2.931   2.137  10.557 -0.1320 -0.6692  1.5871
  102MOL0     C13993   2.541   2.099  10.811 -0.7812  0.7300  0.3216
  102MOL0     C13994   2.491   2.190  10.722  0.4803 -0.2949 -0.1448
  102MOL0     C13995   2.355   2.216  10.705 -0.1010 -0.0784 -0.1281
  102MOL0     C13996   2.269   2.151  10.787  0.5919  0.2826 -0.4192
  102MOL0     O13997   2.137   2.191  10.794  0.9823  0.3174  0.7146
  102MOL0     C13998   2.086   2.297  10.707 -0.2365 -0.0850  0.2371
  102MOL0     C13999   1.937   2.320  10.746 -0.2028  0.3083 -0.4084
  102MOL0     C14000   1.906   2.462  10.788  0.0378 -0.3325 -0.0406
  102MOL0     C14001   1.759   2.485  10.809 -0.0709  0.3368  0.2863
  102MOL0     C14002   1.732   2.618  10.855  0.1403 -0.9535 -0.8853
  102MOL0     C14003   1.702   2.729  10.899 -0.5961  0.1207 -0.3941
  102MOL0     C14004   2.319   2.062  10.886  0.0018 -0.3906  0.0950
  102MOL0     C14005   2.455   2.038  10.904 -0.9109 -0.2994 -0.2534
  102MOL0     C14006   2.499   1.949  11.019  0.4528 -0.6775  0.0869
  102MOL0     H14007   2.973   2.091  10.887  2.9270 -1.6664  0.4281
  102MOL0     H14008   3.195   2.055  10.807  0.0896 -2.3281 -0.0756
  102MOL0     H14009   3.408   1.964  10.670 -1.2102 -0.3495  0.2141
  102MOL0     H14010   3.389   2.138  10.706 -2.6585 -0.0401 -1.2996
  102MOL0     H14011   3.610   2.080  10.626  2.5439  0.3743 -2.7271
  102MOL0     H14012   3.539   1.990  10.483 -0.5130 -1.4891  0.8814
  102MOL0     H14013   3.475   2.199  10.383  0.8239 -1.6247 -1.1485
  102MOL0     H14014   3.523   2.289  10.534 -2.1775 -1.1679  2.2960
  102MOL0     H14015   3.759   2.188  10.498  0.4096  4.9862  0.0643
  102MOL0     H14016   3.693   2.100  10.359  0.5257 -0.3946 -1.3093
  102MOL0     H14017   3.665   2.316  10.231  2.6901  0.9907 -1.4257
  102MOL0     H14018   3.827   2.286  10.284 -0.3748 -3.2442 -0.5788
  102MOL0     H14019   3.752   2.536  10.323 -2.4461 -0.1073 -0.4355
  102MOL0     H14020   3.616   2.464  10.411  0.1740  2.4853 -0.5221
  102MOL0     H14021   3.794   2.404  10.588 -2.5097 -1.3565 -1.1499
  102MOL0     H14022   3.796   2.573  10.553 -0.4821 -0.4106 -0.5629
  102MOL0     H14023   3.986   2.389  10.416  1.2629  0.7065  0.2428
  102MOL0     H14024   4.000   2.557  10.427 -2.0982  0.9709 -0.3563
  102MOL0     H14025   3.994   2.622  10.716 -2.2826 -1.8269  1.0950
  102MOL0     H14026   4.251   2.434  10.973 -1.9663  0.3948  2.0952
  102MOL0     H14027   4.100   2.488  11.005  1.8999 -1.2991  2.3071
  102MOL0     H14028   4.282   2.641  11.050 -0.3694 -1.2231  0.3669
  102MOL0     H14029   4.323   2.657  10.874  1.5020 -0.9720  1.5202
  102MOL0     H14030   4.204   2.852  10.973 -0.8795  0.2704  1.3916
  102MOL0     H14031   4.099   2.792  10.839  0.2158  0.4602  0.1961
  102MOL0     H14032   4.072   2.725  11.128 -0.2676 -1.5495 -1.4308
  102MOL0     H14033   3.989   2.864  11.047 -0.1618 -0.0498  0.4488
  102MOL0     H14034   3.730   2.554  10.884 -1.2635 -1.8438  0.2275
  102MOL0     H14035   3.406   2.566  10.955 -1.6480 -1.7494 -1.0554
  102MOL0     H14036   3.447   2.402  11.009 -0.5490 -1.1753 -1.0282
  102MOL0     H14037   3.526   2.481  10.868  2.3633  1.3897  0.9532
  102MOL0     H14038   3.327   2.652  11.580  1.7160  0.4897 -1.4411
  102MOL0     H14039   3.161   2.519  11.729  0.1805 -1.2961  0.2510
  102MOL0     H14040   3.000   2.160  11.756  0.9325  2.1679  0.2391
  102MOL0     H14041   3.124   2.115  11.645  0.7877 -0.8715  0.1683
  102MOL0     H14042   3.111   1.940  11.810 -0.1403  0.0969 -0.6533
  102MOL0     H14043   3.268   2.026  11.806 -0.9796 -0.5616 -1.7531
  102MOL0     H14044   3.049   2.126  11.983  0.3237 -0.7088  0.6090
  102MOL0     H14045   3.213   2.147  12.001  0.2251 -1.1486  0.5263
  102MOL0     H14046   3.233   1.905  12.056 -1.1190 -2.4846 -2.5206
  102MOL0     H14047   3.046   1.911  12.058 -0.2513  1.9487 -0.1473
  102MOL0     H14048   3.237   2.062  12.240  2.0760 -1.6820 -1.1713
  102MOL0     H14049   3.056   2.078  12.225 -0.1035 -0.1501 -2.8365
  102MOL0     H14050   3.203   1.803  12.277 -2.2472 -2.5387 -0.6914
  102MOL0     H14051   3.029   1.841  12.292  0.6826 -1.0712 -1.5903
  102MOL0     H14052   3.244   1.975  12.479 -0.1849  0.8575  0.1707
  102MOL0     H14053   3.167   1.829  12.506  0.6743  1.1707  1.5192
  102MOL0     H14054   3.005   2.083  12.459 -0.7294 -0.9637 -2.3524
  102MOL0     H14055   3.049   2.009  12.617 -1.2664  3.1495  0.1614
  102MOL0     H14056   3.324   2.153  11.587  2.1678  0.6413  1.5968
  102MOL0     H14057   3.470   2.292  11.434 -1.1568 -1.4595 -0.4233
  102MOL0     H14058   3.698   2.628  11.371 -3.8567 -0.3981  0.8073
  102MOL0     H14059   3.896   2.718  11.238 -1.6488  2.5859 -0.2416
  102MOL0     H14060   3.077   2.124  10.401 -2.3841 -3.8721  0.3212
  102MOL0     H14061   2.851   2.151  10.485 -0.0275 -0.4135  1.5181
  102MOL0     H14062   2.543   2.246  10.645 -0.2711  0.1670 -0.3336
  102MOL0     H14063   2.326   2.285  10.626  1.1397 -0.1830 -0.6988
  102MOL0     H14064   2.144   2.390  10.709 -1.4288  0.9223 -3.6545
  102MOL0     H14065   2.081   2.262  10.603 -3.0641  0.8645 -0.0343
  102MOL0     H14066   1.904   2.254  10.827 -0.2008  0.7451 -0.0494
  102MOL0     H14067   1.873   2.289  10.663 -0.3746 -0.3519 -0.0361
  102MOL0     H14068   1.948   2.495  10.884 -1.3696  0.7047  0.2487
  102MOL0     H14069   1.958   2.523  10.714  1.1454 -1.7842 -0.5011
  102MOL0     H14070   1.715   2.422  10.887  1.6473  0.2801  1.2675
  102MOL0     H14071   1.702   2.469  10.717  1.2579  0.0936 -0.5397
  102MOL0     H14072   1.692   2.822  10.951 -1.8048 -0.2109 -0.0035
  102MOL0     H14073   2.249   2.013  10.953  2.2936 -1.6778  1.6746
  102MOL0     H14074   2.480   2.000  11.114 -3.6308  0.7685 -1.2978
  102MOL0     H14075   2.435   1.860  11.020 -1.4984  0.6691  0.0534
  102MOL0     H14076   2.608   1.937  11.017  0.4077 -1.2814  0.7317
  103MOL0     O14077   1.142   7.280   8.166 -0.4219 -0.2630  0.3883
  103MOL0     C14078   1.026   7.299   8.204 -1.1677 -0.8219  0.4504
  103MOL0     O14079   0.945   7.406   8.166 -0.2854 -0.0047  0.1374
  103MOL0     C14080   1.015   7.518   8.126  0.2593  0.2818  0.1733
  103MOL0     C14081   1.069   7.524   7.997  0.2292  0.1756  0.9352
  103MOL0     C14082   1.156   7.624   7.954 -0.2750  0.6551  0.1746
  103MOL0     C14083   1.196   7.720   8.050 -0.2134  0.5202 -0.1984
  103MOL0     O14084   1.297   7.810   8.049 -0.4791 -0.5669  0.0493
  103MOL0     C14085   1.379   7.809   7.924  0.6335 -0.0251  0.1534
  103MOL0     C14086   1.484   7.926   7.920 -0.4628 -0.4703 -0.5627
  103MOL0     C14087   1.565   7.933   7.789  0.4695 -0.7611 -0.7773
  103MOL0     C14088   1.658   7.814   7.777 -0.1206  0.1678  0.5715
  103MOL0     C14089   1.769   7.838   7.677  0.7707 -0.5118 -0.4549
  103MOL0     C14090   1.881   7.726   7.696  0.8337 -0.3784  0.4075
  103MOL0     C14091   2.013   7.776   7.614 -0.0364  1.3931 -0.7175
  103MOL0     C14092   2.115   7.661   7.626 -0.5331  0.0046 -0.5871
  103MOL0     N14093   2.253   7.719   7.621  0.1804  0.5990  0.0984
  103MOL0     C14094   2.298   7.799   7.516  0.8540  0.2022 -0.6852
  103MOL0     C14095   2.422   7.835   7.558 -0.5921  0.9403  0.3705
  103MOL0     C14096   2.498   7.919   7.460 -0.8585 -0.4093 -0.0356
  103MOL0     C14097   2.591   7.842   7.359 -0.9624  0.0661 -1.2082
  103MOL0     C14098   2.717   7.785   7.428 -0.5382 -0.0854 -0.5425
  103MOL0     C14099   2.822   7.761   7.318 -0.6942 -0.3940 -1.2076
  103MOL0     O14100   2.920   7.657   7.362  0.0357  0.1027 -0.1739
  103MOL0     C14101   3.019   7.679   7.451  0.7029  0.7802 -0.2635
  103MOL0     C14102   3.085   7.568   7.522  0.3063  0.2637  0.8640
  103MOL0     C14103   3.181   7.585   7.621  0.6343 -0.4383 -0.5771
  103MOL0     C14104   3.258   7.461   7.665 -0.2146 -0.1421 -0.4111
  103MOL0     C14105   3.211   7.722   7.658 -0.2569  0.8671  0.2873
  103MOL0     C14106   3.322   7.746   7.755  0.1004  0.3628  0.6278
  103MOL0     O14107   3.343   7.884   7.769  0.3505  0.1204  0.3980
  103MOL0     C14108   3.447   7.933   7.850  0.7309 -0.2348 -0.1031
  103MOL0     C14109   3.446   7.921   7.989  0.3162  0.0151 -0.4869
  103MOL0     C14110   3.541   7.987   8.063  0.1790 -0.2802  0.2087
  103MOL0     C14111   3.625   8.082   8.008  0.2036 -0.2402 -0.6639
  103MOL0     O14112   3.714   8.156   8.089 -1.0053 -0.6090  0.4236
  103MOL0     C14113   3.666   8.203   8.221  0.3716 -1.1024 -0.3241
  103MOL0     C14114   3.726   8.347   8.251 -0.5823 -0.5625  0.5504
  103MOL0     C14115   3.877   8.340   8.275  0.1609 -0.3792  0.4499
  103MOL0     C14116   3.935   8.488   8.286 -0.0176 -0.3838  0.3341
  103MOL0     C14117   4.078   8.487   8.336 -0.5915  1.2946 -0.3655
  103MOL0     C14118   4.148   8.629   8.344 -0.1487 -0.0755  0.0728
  103MOL0     C14119   4.299   8.607   8.393 -0.0448  0.4048  0.3135
  103MOL0     C14120   4.380   8.724   8.343 -0.7798  0.9003 -0.1041
  103MOL0    Cl14121   4.327   8.868   8.423 -0.2707  0.3196  0.1864
  103MOL0     C14122   3.641   8.087   7.868 -0.6478  0.0085 -0.4721
  103MOL0     C14123   3.552   7.999   7.788 -0.4637 -0.6632 -0.9081
  103MOL0     O14124   3.390   7.656   7.790 -0.4856 -0.0403 -0.5422
  103MOL0     C14125   3.141   7.830   7.609 -0.2718  0.4419  1.7383
  103MOL0     C14126   3.054   7.808   7.502 -0.1993 -0.3898  0.8700
  103MOL0     N14127   2.448   7.771   7.676  0.9635 -0.0453  0.6388
  103MOL0     N14128   2.348   7.700   7.713  0.3509 -0.8456 -0.4808
  103MOL0     C14129   1.135   7.715   8.177 -0.4843  0.2664  0.0625
  103MOL0     C14130   1.040   7.625   8.218  0.0099  0.4254 -0.1006
  103MOL0     C14131   0.968   7.195   8.288 -0.0127 -0.5258 -0.5526
  103MOL0     C14132   0.830   7.213   8.312  0.4635 -0.7871  0.2587
  103MOL0     C14133   0.764   7.127   8.400  0.2505  0.8519 -0.8542
  103MOL0     C14134   0.822   7.011   8.452 -0.2198 -0.7688 -0.1820
  103MOL0     O14135   0.747   6.928   8.531 -0.3865  0.3501 -0.0623
  103MOL0     C14136   0.770   6.791   8.562  0.3802  1.2491 -0.3130
  103MOL0     C14137   0.718   6.740   8.704  0.2453 -0.0310  0.7144
  103MOL0     C14138   0.563   6.722   8.688 -0.2737  0.1532  0.1523
  103MOL0     C14139   0.483   6.682   8.821 -0.9172 -0.5739  0.1757
  103MOL0     C14140   0.547   6.570   8.893  0.7608  1.0126 -1.3795
  103MOL0     C14141   0.591   6.468   8.939 -0.5007  0.0679 -0.5061
  103MOL0     C14142   0.947   6.985   8.410 -0.3801  0.0134 -0.4830
  103MOL0     C14143   1.031   7.074   8.336  0.8182 -0.5651 -0.5317
  103MOL0     C14144   1.177   7.034   8.327 -0.1223 -0.0726 -0.2005
  103MOL0     H14145   1.037   7.447   7.927  1.4193  1.0131 -0.5966
  103MOL0     H14146   1.203   7.628   7.857 -0.5292 -2.0681 -0.1375
  103MOL0     H14147   1.319   7.811   7.833 -3.8264 -2.5648  2.6948
  103MOL0     H14148   1.435   7.715   7.924 -0.3214 -0.6166 -1.1135
  103MOL0     H14149   1.426   8.016   7.942  0.6020 -0.4979  2.9526
  103MOL0     H14150   1.555   7.920   8.002 -0.6070  0.1994 -0.3848
  103MOL0     H14151   1.496   7.918   7.706 -0.6591 -0.6891  0.1165
  103MOL0     H14152   1.608   8.033   7.777  0.3678 -0.4187  1.2918
  103MOL0     H14153   1.710   7.790   7.871 -2.3553 -1.5933  1.4543
  103MOL0     H14154   1.596   7.726   7.759  0.9353 -1.6052  4.3989
  103MOL0     H14155   1.806   7.939   7.698 -0.1772 -0.5587  1.7075
  103MOL0     H14156   1.724   7.839   7.577 -2.2112  3.9093  0.6123
  103MOL0     H14157   1.912   7.704   7.799  2.7100 -0.9601 -0.2436
  103MOL0     H14158   1.843   7.631   7.658 -2.5912  1.4456 -1.2029
  103MOL0     H14159   2.059   7.861   7.665  2.5506 -0.0230 -0.4861
  103MOL0     H14160   1.993   7.792   7.508 -2.2433 -2.7483 -1.1670
  103MOL0     H14161   2.099   7.601   7.716  0.6094  0.4910 -0.0347
  103MOL0     H14162   2.097   7.602   7.535  0.8033  1.7596 -2.0709
  103MOL0     H14163   2.239   7.829   7.430 -0.7290 -1.0954 -0.1094
  103MOL0     H14164   2.564   7.986   7.515  0.8732 -2.0703  0.0196
  103MOL0     H14165   2.430   7.983   7.404  0.9737 -1.2537 -3.4811
  103MOL0     H14166   2.526   7.763   7.320 -1.5385 -1.3963  2.4083
  103MOL0     H14167   2.625   7.911   7.281  2.7534 -0.3189 -0.1087
  103MOL0     H14168   2.753   7.854   7.505  0.0519 -0.9612 -0.0133
  103MOL0     H14169   2.690   7.688   7.471 -3.1214  1.9353  2.8741
  103MOL0     H14170   2.781   7.722   7.224  0.8236  0.6765 -2.3407
  103MOL0     H14171   2.869   7.856   7.291 -2.6102  1.0767  0.2904
  103MOL0     H14172   3.067   7.466   7.489  0.2193 -0.7454  3.7257
  103MOL0     H14173   3.360   7.469   7.628  0.1390  1.1107  0.7272
  103MOL0     H14174   3.214   7.373   7.616  0.0666  0.5605 -1.9866
  103MOL0     H14175   3.251   7.458   7.774 -0.7944  2.3516 -0.3244
  103MOL0     H14176   3.384   7.839   8.024  0.9557 -0.3408 -0.1782
  103MOL0     H14177   3.539   7.967   8.170 -0.9485  1.5325  0.5641
  103MOL0     H14178   3.557   8.188   8.221  0.0775  0.8121 -0.1107
  103MOL0     H14179   3.706   8.143   8.303  1.1105 -0.6433 -0.3401
  103MOL0     H14180   3.706   8.416   8.168  2.2859  0.3311  0.5188
  103MOL0     H14181   3.682   8.389   8.342 -1.1323 -1.7542  0.8572
  103MOL0     H14182   3.929   8.300   8.188  0.6946  0.4855  0.3556
  103MOL0     H14183   3.896   8.274   8.361  1.8261  1.3488  1.4925
  103MOL0     H14184   3.867   8.539   8.355 -1.5987  0.4435 -1.7181
  103MOL0     H14185   3.939   8.523   8.182  2.5962  0.9416  0.8163
  103MOL0     H14186   4.086   8.444   8.436 -0.2455 -3.0426 -2.0635
  103MOL0     H14187   4.132   8.432   8.258 -2.5007  0.4058 -1.1302
  103MOL0     H14188   4.101   8.709   8.401 -0.4939  0.5439 -1.0547
  103MOL0     H14189   4.146   8.655   8.238 -2.4472  1.7914  0.4876
  103MOL0     H14190   4.336   8.517   8.343  1.9635  1.9556 -1.1546
  103MOL0     H14191   4.312   8.603   8.501  1.7377 -0.1224  0.1132
  103MOL0     H14192   4.378   8.734   8.234 -0.4363 -3.9398 -0.7443
  103MOL0     H14193   4.483   8.715   8.378 -1.0211  1.1429  0.6966
  103MOL0     H14194   3.720   8.148   7.824  0.3849  0.3639  1.7205
  103MOL0     H14195   3.565   7.995   7.681  0.4692  0.3627 -0.8558
  103MOL0     H14196   3.162   7.934   7.634 -2.7345  2.1162 -2.1962
  103MOL0     H14197   3.012   7.895   7.453 -0.0598 -1.3375 -1.0055
  103MOL0     H14198   1.157   7.790   8.252  0.9194  2.8640 -2.7187
  103MOL0     H14199   1.011   7.621   8.322 -1.0468  0.5326 -0.3811
  103MOL0     H14200   0.769   7.295   8.275  0.3534 -1.8099 -1.9808
  103MOL0     H14201   0.662   7.141   8.435  0.7593  1.8998  0.2994
  103MOL0     H14202   0.715   6.728   8.491  1.1923  0.6986 -0.4662
  103MOL0     H14203   0.875   6.763   8.554  0.0991 -0.8753  2.1009
  103MOL0     H14204   0.741   6.810   8.784  1.9912  2.8645 -2.0791
  103MOL0     H14205   0.758   6.640   8.722 -0.2932 -0.8597 -2.1404
  103MOL0     H14206   0.508   6.806   8.645 -0.5216 -1.1484 -2.2233
  103MOL0     H14207   0.544   6.649   8.609  1.2232 -0.3265  0.2102
  103MOL0     H14208   0.377   6.669   8.797 -1.9235  1.9400  2.6280
  103MOL0     H14209   0.492   6.768   8.888 -2.0422  0.5872 -1.1015
  103MOL0     H14210   0.634   6.376   8.973  0.7037  0.1597 -1.6810
  103MOL0     H14211   0.996   6.893   8.438  0.6288  0.8057  0.4061
  103MOL0     H14212   1.239   7.105   8.383 -0.3890 -0.7866  1.0520
  103MOL0     H14213   1.190   6.933   8.368  2.3089 -0.5243 -1.9139
  103MOL0     H14214   1.214   7.015   8.226  0.7357  3.0426 -0.5641
  104MOL0     O14215   4.326   2.166   3.451 -0.3820 -0.5153  0.3687
  104MOL0     C14216   4.371   2.080   3.523 -0.8787 -0.4289 -0.0780
  104MOL0     O14217   4.313   2.036   3.646 -0.3623 -0.0151  0.9181
  104MOL0     C14218   4.178   2.054   3.668  0.2521 -0.2021 -0.2258
  104MOL0     C14219   4.125   2.067   3.796  0.9939  0.5656 -0.9446
  104MOL0     C14220   3.986   2.079   3.825 -0.1171 -0.1236  0.5421
  104MOL0     C14221   3.894   2.076   3.717 -0.5029  0.3402 -0.6172
  104MOL0     O14222   3.767   2.072   3.758  0.6912  0.0752 -0.2006
  104MOL0     C14223   3.668   2.016   3.665 -0.4011 -1.0775 -0.2360
  104MOL0     C14224   3.537   2.053   3.728  0.6491  0.6938 -0.6399
  104MOL0     C14225   3.503   1.996   3.866  0.8855 -0.4089  0.5783
  104MOL0     C14226   3.494   1.846   3.866  0.2772 -0.0253  0.2752
  104MOL0     C14227   3.388   1.776   3.782 -0.8260  0.7336  0.5721
  104MOL0     C14228   3.450   1.652   3.719  0.2071  0.0683  1.2319
  104MOL0     C14229   3.332   1.573   3.646 -0.7820 -0.3045  0.1009
  104MOL0     C14230   3.393   1.441   3.587 -0.6088  0.5889  0.9867
  104MOL0     N14231   3.438   1.340   3.684 -0.4332  0.3313  0.4609
  104MOL0     C14232   3.550   1.265   3.666 -0.5398  0.2841 -0.7820
  104MOL0     C14233   3.584   1.209   3.785 -0.5529  0.7641 -0.7911
  104MOL0     C14234   3.692   1.106   3.819 -0.5209 -0.3757 -0.2034
  104MOL0     C14235   3.698   1.086   3.967  0.3456  0.5905 -0.8513
  104MOL0     C14236   3.834   1.024   4.011 -0.2823  0.4901  0.2807
  104MOL0     C14237   3.953   1.122   4.019  0.5379 -0.0964  0.5065
  104MOL0     O14238   4.066   1.052   4.075  0.6671 -0.0409  0.1199
  104MOL0     C14239   4.181   1.122   4.094  0.1541 -0.4485  0.3255
  104MOL0     C14240   4.284   1.048   4.157 -0.4056  0.1348 -0.6450
  104MOL0     C14241   4.410   1.113   4.191 -0.1417 -0.1209 -0.2975
  104MOL0     C14242   4.517   1.017   4.264 -0.1406 -0.1434  0.6736
  104MOL0     C14243   4.430   1.251   4.155 -0.8067 -0.7337 -0.7587
  104MOL0     C14244   4.562   1.322   4.173 -0.1713 -0.2981 -0.3682
  104MOL0     O14245   4.688   1.257   4.164  0.7216  0.2606 -0.4162
  104MOL0     C14246   4.795   1.338   4.161 -0.6621  0.4067  0.2692
  104MOL0     C14247   4.835   1.407   4.055  0.7677  0.2870 -0.0242
  104MOL0     C14248   4.947   1.490   4.056 -0.4002  0.2786  0.5248
  104MOL0     C14249   5.034   1.476   4.168 -0.8302 -0.3976 -0.2121
  104MOL0     O14250   5.153   1.551   4.183  0.6612 -0.1179 -0.8156
  104MOL0     C14251   5.173   1.665   4.098  0.7200 -0.1947  0.5297
  104MOL0     C14252   5.308   1.739   4.125 -0.0989  0.8159 -0.0820
  104MOL0     C14253   5.424   1.643   4.101 -0.1659  0.9714  0.0680
  104MOL0     C14254   5.561   1.715   4.108 -0.0296  0.5872 -0.3606
  104MOL0     C14255   5.679   1.612   4.123 -0.1173 -0.2774 -0.2200
  104MOL0     C14256   5.803   1.673   4.190  0.2774  0.1175 -0.1127
  104MOL0     C14257   5.922   1.575   4.184  0.8556 -0.2784 -0.1110
  104MOL0     C14258   6.045   1.603   4.266  0.4523 -0.7271  0.2536
  104MOL0    Cl14259   6.148   1.732   4.187 -0.0204  0.4185 -0.0104
  104MOL0     C14260   5.003   1.397   4.273 -0.2275 -1.1853 -0.1475
  104MOL0     C14261   4.882   1.334   4.270  0.1781 -0.1102 -0.1394
  104MOL0     O14262   4.548   1.447   4.189 -0.4120  1.0129  0.3673
  104MOL0     C14263   4.331   1.317   4.078 -0.8192  0.0814 -0.1299
  104MOL0     C14264   4.209   1.257   4.053 -0.1803 -0.1144  0.7422
  104MOL0     N14265   3.480   1.251   3.866 -0.9648 -0.0608  0.4766
  104MOL0     N14266   3.397   1.331   3.813 -0.5538 -0.6493 -0.5518
  104MOL0     C14267   3.944   2.070   3.593 -0.7956  0.2665  0.6925
  104MOL0     C14268   4.085   2.060   3.567 -0.6306  1.0551  0.7811
  104MOL0     C14269   4.512   2.039   3.478  1.1777 -0.5049 -0.1052
  104MOL0     C14270   4.561   2.083   3.347  0.5627 -0.1213  0.3268
  104MOL0     C14271   4.689   2.051   3.306  0.2371 -0.1308 -0.4236
  104MOL0     C14272   4.773   1.969   3.385 -0.1806 -0.6408 -0.5059
  104MOL0     O14273   4.910   1.967   3.350  0.1814  0.2179  1.1171
  104MOL0     C14274   5.004   1.884   3.422  0.4973  1.0353  0.2794
  104MOL0     C14275   5.144   1.902   3.364 -0.1795  0.8361  0.1859
  104MOL0     C14276   5.198   2.049   3.381  0.0676  0.9398 -1.0480
  104MOL0     C14277   5.323   2.069   3.302  0.1543  0.7435 -0.1863
  104MOL0     C14278   5.417   2.162   3.375  0.1429 -0.2162  0.9323
  104MOL0     C14279   5.480   2.260   3.426 -0.6824  0.4119 -0.0926
  104MOL0     C14280   4.726   1.925   3.513  0.5433  0.7874  0.8806
  104MOL0     C14281   4.591   1.949   3.551  0.1499 -0.3998  0.4895
  104MOL0     C14282   4.551   1.890   3.678  0.0128  0.0385  0.4349
  104MOL0     H14283   4.192   2.061   3.881  0.4915 -1.4139 -0.6429
  104MOL0     H14284   3.945   2.075   3.926  0.5416 -0.1631  0.8113
  104MOL0     H14285   3.683   1.909   3.646 -0.7142 -1.1808  0.0694
  104MOL0     H14286   3.676   2.060   3.566 -3.6216 -1.1553 -0.6543
  104MOL0     H14287   3.521   2.161   3.736 -2.8482  0.4349 -2.1842
  104MOL0     H14288   3.452   2.025   3.664  1.0385  0.4377 -1.0517
  104MOL0     H14289   3.587   2.034   3.924  0.0470  2.1262  0.2312
  104MOL0     H14290   3.406   2.034   3.901 -0.2596 -2.9945  0.4649
  104MOL0     H14291   3.589   1.814   3.822 -0.7222 -0.2443 -1.8940
  104MOL0     H14292   3.496   1.821   3.972 -0.2101 -0.3096  0.2197
  104MOL0     H14293   3.344   1.830   3.698 -1.4591 -0.3618  0.1834
  104MOL0     H14294   3.312   1.746   3.855  0.3773 -3.4944  0.3571
  104MOL0     H14295   3.521   1.672   3.638 -0.8982 -1.9577 -0.3291
  104MOL0     H14296   3.499   1.603   3.804  1.7197  2.7816  2.0566
  104MOL0     H14297   3.283   1.632   3.569  2.1016  0.0918 -1.5816
  104MOL0     H14298   3.246   1.549   3.710  0.1911  1.4836  2.2206
  104MOL0     H14299   3.305   1.409   3.530 -0.1913 -0.1404  0.7383
  104MOL0     H14300   3.481   1.468   3.527 -0.9109 -0.0503  0.2379
  104MOL0     H14301   3.614   1.255   3.579 -1.4081 -2.5103 -1.2011
  104MOL0     H14302   3.787   1.147   3.783 -0.9968 -1.1903 -2.6275
  104MOL0     H14303   3.681   1.014   3.761 -3.1847  0.5209 -1.3161
  104MOL0     H14304   3.682   1.175   4.029  1.5501 -1.6053  2.9333
  104MOL0     H14305   3.626   1.008   3.994  1.7973 -0.3304  0.5557
  104MOL0     H14306   3.807   0.989   4.111 -4.7794  2.1483 -0.0898
  104MOL0     H14307   3.854   0.942   3.941  2.0758 -0.4993  1.9924
  104MOL0     H14308   3.986   1.158   3.921  1.8109  0.9387  1.2721
  104MOL0     H14309   3.921   1.215   4.067 -3.2249 -0.6190 -0.6947
  104MOL0     H14310   4.272   0.948   4.197 -0.8780 -1.3478 -4.1333
  104MOL0     H14311   4.474   0.926   4.307  1.4378 -1.9880 -1.4458
  104MOL0     H14312   4.575   1.068   4.342  1.3745  0.4003 -0.7563
  104MOL0     H14313   4.598   0.983   4.199  0.0424 -0.9097  1.2839
  104MOL0     H14314   4.771   1.385   3.970  1.7496  0.0072 -0.7026
  104MOL0     H14315   4.966   1.548   3.966  2.3768 -0.0212  0.8183
  104MOL0     H14316   5.157   1.633   3.995 -1.0970 -2.0862  1.3291
  104MOL0     H14317   5.102   1.746   4.118  0.3410 -0.3778 -0.0471
  104MOL0     H14318   5.325   1.823   4.058 -0.3584 -0.4756 -1.8481
  104MOL0     H14319   5.301   1.775   4.228 -2.9126 -2.5523  1.1156
  104MOL0     H14320   5.413   1.577   4.015 -1.0958 -0.8529  1.5014
  104MOL0     H14321   5.423   1.574   4.186  1.6261 -0.0782 -0.7210
  104MOL0     H14322   5.563   1.783   4.194  0.6649 -0.8332  0.7830
  104MOL0     H14323   5.567   1.774   4.016 -0.4082  1.1618 -0.0220
  104MOL0     H14324   5.652   1.533   4.194  3.2582 -1.3540  0.0656
  104MOL0     H14325   5.713   1.580   4.024  1.0074  1.8272 -0.5730
  104MOL0     H14326   5.779   1.691   4.295  0.2156  2.3844 -0.4662
  104MOL0     H14327   5.850   1.758   4.140  2.6788 -0.9071  0.2637
  104MOL0     H14328   5.945   1.561   4.078 -4.0775 -3.4701 -1.0910
  104MOL0     H14329   5.883   1.478   4.217  1.0139  0.0365  1.0448
  104MOL0     H14330   6.111   1.516   4.268  2.6052  0.7054 -1.8861
  104MOL0     H14331   6.028   1.648   4.364  1.0511  1.6462 -0.6696
  104MOL0     H14332   5.070   1.396   4.359  1.6626 -2.3419 -1.5405
  104MOL0     H14333   4.839   1.279   4.354  0.0250  0.2570  0.0248
  104MOL0     H14334   4.347   1.421   4.051  1.6334  0.1063  1.1486
  104MOL0     H14335   4.146   1.316   3.986  0.5213  0.2216  0.3758
  104MOL0     H14336   3.885   2.087   3.504 -0.3004  1.0384  0.5077
  104MOL0     H14337   4.114   2.047   3.464  3.2301 -1.1952  1.9394
  104MOL0     H14338   4.501   2.154   3.291  1.6515  0.1364 -0.5358
  104MOL0     H14339   4.738   2.086   3.216  1.9004  0.0185  0.4986
  104MOL0     H14340   5.010   1.901   3.530 -0.3470  3.8701 -0.0341
  104MOL0     H14341   4.975   1.780   3.408  2.3071  0.7934 -2.1860
  104MOL0     H14342   5.137   1.882   3.257  0.0155  0.9618  0.1487
  104MOL0     H14343   5.205   1.823   3.407 -0.9455 -0.2222 -0.6281
  104MOL0     H14344   5.124   2.120   3.342  1.0085  0.9672 -2.8849
  104MOL0     H14345   5.217   2.050   3.489  0.3669 -3.5147 -0.8740
  104MOL0     H14346   5.303   2.094   3.197  1.9234  2.4586 -0.1689
  104MOL0     H14347   5.379   1.975   3.295  1.1924  1.2602  0.8460
  104MOL0     H14348   5.535   2.335   3.479 -3.1973 -0.5854  4.3948
  104MOL0     H14349   4.788   1.857   3.569 -1.6842 -1.9300  0.2845
  104MOL0     H14350   4.527   1.968   3.752  1.5843  3.0919 -2.0407
  104MOL0     H14351   4.461   1.830   3.662 -2.2997  2.4764  2.9837
  104MOL0     H14352   4.628   1.825   3.718  1.4750 -0.1035 -2.3874
  105MOL0     O14353   8.945   5.086   0.151  0.2961 -0.5068  0.4557
  105MOL0     C14354   8.861   5.176   0.147  0.9019 -0.2181 -0.1046
  105MOL0     O14355   8.871   5.288   0.068  0.2037 -0.1362 -0.1684
  105MOL0     C14356   8.987   5.288  -0.002  0.4471  0.2408  0.2915
  105MOL0     C14357   9.001   5.243  -0.134  0.0619  0.2662  0.9172
  105MOL0     C14358   9.135   5.241  -0.196  0.1543  0.0237 -0.2179
  105MOL0     C14359   9.250   5.272  -0.118 -0.4881  0.3433  0.3825
  105MOL0     O14360   9.372   5.252  -0.181  0.0648  1.2783 -0.1736
  105MOL0     C14361   9.486   5.202  -0.101  0.3717  0.1784 -0.6690
  105MOL0     C14362   9.605   5.177  -0.205  0.1575 -0.0756 -0.2766
  105MOL0     C14363   9.721   5.108  -0.134  0.0840  0.2594 -0.8408
  105MOL0     C14364   9.820   5.047  -0.233  0.2264  0.3803 -0.3066
  105MOL0     C14365   9.928   4.967  -0.160  0.1620 -0.3277  0.4701
  105MOL0     C14366  10.040   4.935  -0.249  0.1463  0.7300  0.2136
  105MOL0     C14367  10.155   4.872  -0.184 -0.5388  1.0235 -0.5783
  105MOL0     C14368  10.161   4.719  -0.168  0.0505  1.3799  0.0907
  105MOL0     N14369  10.079   4.670  -0.056  0.2616  0.3852 -0.2725
  105MOL0     C14370  10.101   4.714   0.074 -1.4991  1.1640 -0.4934
  105MOL0     C14371  10.058   4.620   0.161 -0.3530  0.1423  0.1695
  105MOL0     C14372  10.059   4.622   0.313  0.2614  0.2626  0.0545
  105MOL0     C14373  10.185   4.679   0.353 -0.0580 -0.0392 -0.2593
  105MOL0     C14374  10.180   4.834   0.379 -0.0765 -0.2417  0.0843
  105MOL0     C14375  10.324   4.902   0.374 -0.4276 -0.0719  0.8692
  105MOL0     O14376  10.371   4.931   0.235  0.4341 -0.2917  0.6030
  105MOL0     C14377  10.314   5.042   0.170 -0.1166  0.2888 -0.0603
  105MOL0     C14378  10.365   5.069   0.047 -0.5518  1.2041 -0.8047
  105MOL0     C14379  10.308   5.158  -0.049  0.2575  0.9221  0.0674
  105MOL0     C14380  10.376   5.181  -0.182 -0.2947 -0.3121 -0.4068
  105MOL0     C14381  10.191   5.228  -0.002  0.5616 -0.1331 -0.2049
  105MOL0     C14382  10.113   5.325  -0.077 -0.0169 -0.5565  0.2370
  105MOL0     O14383   9.976   5.327  -0.054  0.4568 -0.0989  0.1137
  105MOL0     C14384   9.897   5.427  -0.092  0.8294  0.0879  0.4329
  105MOL0     C14385   9.796   5.457  -0.002  0.0964  0.4174  0.2963
  105MOL0     C14386   9.694   5.545  -0.036 -0.5050  0.2353  0.0278
  105MOL0     C14387   9.698   5.595  -0.166 -0.4086  0.3682 -1.0716
  105MOL0     O14388   9.592   5.665  -0.202  0.1624  0.1234 -0.6545
  105MOL0     C14389   9.465   5.602  -0.218 -0.2052 -0.4031 -0.6433
  105MOL0     C14390   9.349   5.696  -0.252 -0.2520 -1.0423  0.6177
  105MOL0     C14391   9.213   5.622  -0.221 -0.1663 -0.2382  0.3858
  105MOL0     C14392   9.101   5.725  -0.248  0.3881  0.7600  0.1133
  105MOL0     C14393   8.962   5.661  -0.199  0.1294  0.0335  0.4973
  105MOL0     C14394   8.893   5.598  -0.316 -0.0263  0.4399  0.4256
  105MOL0     C14395   8.760   5.528  -0.278  0.0521 -0.2477 -0.5124
  105MOL0     C14396   8.676   5.466  -0.386  0.7461 -0.0647  0.6586
  105MOL0    Cl14397   8.546   5.370  -0.296  0.2653  0.0536 -0.3080
  105MOL0     C14398   9.797   5.562  -0.258  0.2322 -1.2218  0.5253
  105MOL0     C14399   9.898   5.485  -0.220  0.0361  0.0776  0.0187
  105MOL0     O14400  10.175   5.403  -0.145  0.5808 -0.5424  0.1555
  105MOL0     C14401  10.157   5.219   0.137  0.4970  0.2095 -0.2197
  105MOL0     C14402  10.205   5.122   0.216 -1.2339  0.1173 -0.3745
  105MOL0     N14403   9.995   4.521   0.087  0.2395  0.3962  0.1975
  105MOL0     N14404  10.012   4.553  -0.037 -0.2757 -0.2255 -0.0453
  105MOL0     C14405   9.233   5.312   0.012  0.2323 -0.6376 -0.1243
  105MOL0     C14406   9.103   5.338   0.062  0.0949  0.5525 -0.1131
  105MOL0     C14407   8.732   5.148   0.227 -0.2903 -0.4728 -0.0351
  105MOL0     C14408   8.621   5.233   0.216 -0.6810  0.0470 -0.4042
  105MOL0     C14409   8.502   5.209   0.286  0.1714 -0.5339 -0.0819
  105MOL0     C14410   8.494   5.122   0.394  0.1917 -0.8930 -1.2839
  105MOL0     O14411   8.382   5.113   0.479  0.1604 -0.6344  0.3593
  105MOL0     C14412   8.382   5.035   0.600 -0.0289  0.1544 -0.1090
  105MOL0     C14413   8.234   5.009   0.619 -0.3137 -0.4503  1.4513
  105MOL0     C14414   8.166   5.138   0.658 -0.0091  0.1804  0.7445
  105MOL0     C14415   8.034   5.162   0.594 -0.3339  0.9040 -0.2949
  105MOL0     C14416   7.941   5.062   0.645 -0.0516  0.4573  0.3466
  105MOL0     C14417   7.867   4.989   0.710 -1.0145  0.3206  0.8738
  105MOL0     C14418   8.609   5.046   0.417 -1.1951  0.0737  0.2293
  105MOL0     C14419   8.724   5.054   0.335  0.1105  0.2665 -0.3756
  105MOL0     C14420   8.840   4.979   0.386 -0.7671  0.0114 -0.5435
  105MOL0     H14421   8.913   5.214  -0.190  0.7622 -1.4933  0.6589
  105MOL0     H14422   9.147   5.197  -0.294  0.8027 -0.2804 -0.0101
  105MOL0     H14423   9.469   5.106  -0.051  0.1442 -0.1734 -1.4103
  105MOL0     H14424   9.518   5.276  -0.028 -1.5062 -0.0952  0.4935
  105MOL0     H14425   9.567   5.110  -0.282 -0.8877 -1.1327  1.1021
  105MOL0     H14426   9.628   5.273  -0.253  3.1898 -0.3151  0.4692
  105MOL0     H14427   9.768   5.176  -0.063  1.1999  1.4992 -2.6896
  105MOL0     H14428   9.684   5.026  -0.072 -0.5143  0.5149 -0.8505
  105MOL0     H14429   9.770   4.977  -0.302 -1.3032 -0.1897  1.2810
  105MOL0     H14430   9.854   5.133  -0.292  0.9733 -0.4015 -1.0463
  105MOL0     H14431   9.886   4.883  -0.105  2.1187 -0.0561  2.5441
  105MOL0     H14432   9.964   5.040  -0.086 -2.4675  1.6277 -0.0445
  105MOL0     H14433  10.010   4.861  -0.324  2.0594 -0.7250  0.7788
  105MOL0     H14434  10.061   5.024  -0.308  0.0628  1.7040  1.6065
  105MOL0     H14435  10.166   4.918  -0.085 -0.9671 -0.8131  0.3862
  105MOL0     H14436  10.239   4.895  -0.250  0.0618  0.3315 -0.0878
  105MOL0     H14437  10.134   4.667  -0.260  2.6666 -0.4006  0.2395
  105MOL0     H14438  10.266   4.699  -0.147 -0.6585 -1.7227  1.1951
  105MOL0     H14439  10.155   4.804   0.099  1.1631 -0.6503  0.8226
  105MOL0     H14440  10.041   4.520   0.346 -1.5503  1.9862  5.4294
  105MOL0     H14441   9.986   4.697   0.347  0.7158  1.6669 -1.8624
  105MOL0     H14442  10.224   4.631   0.443 -3.4594 -3.1660 -0.1968
  105MOL0     H14443  10.267   4.667   0.281  1.7175 -0.2609  1.7269
  105MOL0     H14444  10.120   4.896   0.311  0.8849  1.3957  0.6746
  105MOL0     H14445  10.139   4.845   0.480 -0.7758 -1.4364 -0.0538
  105MOL0     H14446  10.320   4.988   0.442 -1.5758  0.7229 -0.1624
  105MOL0     H14447  10.389   4.829   0.422 -3.5067 -3.1742  0.7225
  105MOL0     H14448  10.461   5.023   0.029 -0.4718  0.6060  1.0014
  105MOL0     H14449  10.305   5.168  -0.264 -1.0816  2.6286 -0.2965
  105MOL0     H14450  10.461   5.114  -0.196 -0.6284 -1.1923  1.4284
  105MOL0     H14451  10.412   5.284  -0.185 -0.7198 -0.1742 -0.7894
  105MOL0     H14452   9.794   5.415   0.098  1.1638 -0.0220  0.1494
  105MOL0     H14453   9.619   5.546   0.042  0.5504 -0.1973  1.0940
  105MOL0     H14454   9.470   5.538  -0.307 -2.0336  0.2123 -1.2389
  105MOL0     H14455   9.450   5.533  -0.135  0.5064 -0.9386 -0.9473
  105MOL0     H14456   9.350   5.782  -0.183  0.3552 -1.4187  1.0928
  105MOL0     H14457   9.348   5.729  -0.356 -3.4269 -0.3427  0.7601
  105MOL0     H14458   9.212   5.583  -0.118 -2.3161  1.3926  1.0611
  105MOL0     H14459   9.191   5.535  -0.283 -0.0623 -0.6544  0.9240
  105MOL0     H14460   9.115   5.764  -0.350  2.8484  2.1485  0.8943
  105MOL0     H14461   9.121   5.811  -0.184  2.0204  0.7997 -0.4080
  105MOL0     H14462   8.979   5.582  -0.126  0.5600 -0.3368  0.0012
  105MOL0     H14463   8.889   5.731  -0.156 -1.4268 -1.7750  0.9136
  105MOL0     H14464   8.956   5.515  -0.349 -0.3623 -1.0562  3.1759
  105MOL0     H14465   8.875   5.675  -0.391 -1.0543  0.4058  0.6187
  105MOL0     H14466   8.688   5.600  -0.238  2.2779  1.3797  0.7922
  105MOL0     H14467   8.780   5.455  -0.200  1.5991 -0.6971 -1.2750
  105MOL0     H14468   8.735   5.401  -0.451  2.6220  2.3857 -0.2550
  105MOL0     H14469   8.626   5.545  -0.442  0.1176 -0.6263  0.4214
  105MOL0     H14470   9.786   5.614  -0.353  1.6718 -1.5916  0.1337
  105MOL0     H14471   9.973   5.459  -0.294  0.5849  0.8632  0.2802
  105MOL0     H14472  10.066   5.270   0.166 -1.5199 -2.0452 -2.2177
  105MOL0     H14473  10.174   5.114   0.320  2.4019  0.1570  0.8544
  105MOL0     H14474   9.323   5.322   0.073  0.9682 -0.9357 -1.1386
  105MOL0     H14475   9.105   5.382   0.162 -0.5188 -1.1306  0.6812
  105MOL0     H14476   8.633   5.322   0.155 -0.2323 -0.5123 -1.1525
  105MOL0     H14477   8.414   5.270   0.266  1.7581  1.8927 -0.1360
  105MOL0     H14478   8.436   4.940   0.592  1.5380  0.8445  1.5733
  105MOL0     H14479   8.434   5.088   0.681 -0.6960  0.2561  0.2528
  105MOL0     H14480   8.218   4.941   0.703 -2.1596 -1.2186  0.5356
  105MOL0     H14481   8.192   4.953   0.534 -0.4273 -0.3256  1.4248
  105MOL0     H14482   8.158   5.149   0.766  0.6852 -1.0459  0.9497
  105MOL0     H14483   8.232   5.220   0.630  0.5821 -0.1505  1.1520
  105MOL0     H14484   8.047   5.160   0.486  1.6341  3.3430 -0.1761
  105MOL0     H14485   8.013   5.269   0.600  2.5131  1.6697 -2.2089
  105MOL0     H14486   7.797   4.928   0.765 -0.3867 -1.8686 -0.6067
  105MOL0     H14487   8.614   4.978   0.501 -1.4190 -0.4343 -0.1609
  105MOL0     H14488   8.925   5.048   0.393 -0.0149 -0.7696 -1.6924
  105MOL0     H14489   8.829   4.936   0.486  0.5011 -0.8639 -0.7487
  105MOL0     H14490   8.863   4.898   0.316  0.1184  1.1939 -1.6711
  106MOL0     O14491   9.304   8.931  10.420 -0.2475  1.1518  0.9870
  106MOL0     C14492   9.346   9.041  10.395  0.0569  0.7121 -0.4141
  106MOL0     O14493   9.451   9.072  10.311 -0.2010 -0.3067  0.1300
  106MOL0     C14494   9.483   8.972  10.222 -0.0222 -0.4688  0.8841
  106MOL0     C14495   9.426   8.977  10.099 -0.9001 -0.3752 -0.1307
  106MOL0     C14496   9.452   8.883  10.000  0.2856  0.6664  0.3835
  106MOL0     C14497   9.544   8.778  10.028  0.0747 -0.0589  0.5471
  106MOL0     O14498   9.566   8.687   9.926  0.1667  0.5425 -0.5225
  106MOL0     C14499   9.585   8.547   9.968  1.0278 -0.3076  0.2595
  106MOL0     C14500   9.730   8.514   9.973  0.0010  0.0246  0.6260
  106MOL0     C14501   9.773   8.398   9.873 -0.3458 -0.2563 -0.4358
  106MOL0     C14502   9.780   8.451   9.731 -0.7849  0.0129  0.5058
  106MOL0     C14503   9.881   8.368   9.639  0.3141 -0.1076 -0.4478
  106MOL0     C14504   9.929   8.433   9.511  0.1409 -0.1975  0.4501
  106MOL0     C14505  10.033   8.354   9.442 -0.3351  0.1126 -0.4004
  106MOL0     C14506  10.055   8.396   9.296  0.2105  0.9750 -0.7516
  106MOL0     N14507  10.152   8.307   9.234 -0.3027 -0.5741 -1.1810
  106MOL0     C14508  10.166   8.288   9.101 -0.3542  0.1785  0.8702
  106MOL0     C14509  10.273   8.215   9.076 -0.4706  0.2453  0.4144
  106MOL0     C14510  10.329   8.189   8.940  1.0179 -0.7017 -0.5070
  106MOL0     C14511  10.477   8.208   8.910  0.7854  0.2400 -0.2211
  106MOL0     C14512  10.517   8.162   8.770 -0.6616  0.4197 -0.0833
  106MOL0     C14513  10.659   8.216   8.745 -0.6280 -0.1277 -0.4128
  106MOL0     O14514  10.701   8.188   8.610  0.4972 -0.4071  0.5273
  106MOL0     C14515  10.823   8.239   8.571 -0.2663 -0.7602 -0.6767
  106MOL0     C14516  10.906   8.318   8.653  0.5231 -0.4303 -0.2482
  106MOL0     C14517  11.035   8.373   8.619  0.2379  0.9430 -0.7429
  106MOL0     C14518  11.093   8.467   8.726 -0.3741  0.6636 -0.0228
  106MOL0     C14519  11.097   8.333   8.500  0.4279  0.4247 -0.1318
  106MOL0     C14520  11.228   8.376   8.453  1.2675  0.7403  0.2788
  106MOL0     O14521  11.291   8.294   8.361 -0.0840 -0.3453  0.1311
  106MOL0     C14522  11.426   8.318   8.336  0.1345 -0.5207 -0.1725
  106MOL0     C14523  11.462   8.389   8.219 -0.2327 -0.2445  0.3303
  106MOL0     C14524  11.593   8.413   8.184  0.1969 -0.3400 -0.7445
  106MOL0     C14525  11.691   8.381   8.275 -0.8455 -0.0078  0.1530
  106MOL0     O14526  11.824   8.387   8.247  0.7840  0.2500  0.7313
  106MOL0     C14527  11.867   8.476   8.135  0.4367  0.1676 -0.0979
  106MOL0     C14528  12.022   8.462   8.102 -0.0309  0.5224 -0.3003
  106MOL0     C14529  12.112   8.500   8.223 -0.3831 -0.2874 -0.6396
  106MOL0     C14530  12.252   8.545   8.189 -0.0436  0.3622  0.3043
  106MOL0     C14531  12.340   8.609   8.303  1.0272 -0.8206 -0.1199
  106MOL0     C14532  12.480   8.647   8.255 -0.0006  0.5053  0.1579
  106MOL0     C14533  12.586   8.693   8.350 -0.3463  0.3229 -0.0851
  106MOL0     C14534  12.546   8.815   8.427  0.1256  1.0759 -0.2223
  106MOL0    Cl14535  12.496   8.762   8.596  0.2807  0.5581 -1.1578
  106MOL0     C14536  11.664   8.316   8.398 -0.1268 -0.5475 -0.0059
  106MOL0     C14537  11.531   8.274   8.429 -0.2957 -0.8181  0.1506
  106MOL0     O14538  11.283   8.470   8.510 -0.0545 -0.5187 -0.2043
  106MOL0     C14539  11.014   8.250   8.419  0.0715 -0.3302  0.8305
  106MOL0     C14540  10.878   8.208   8.451 -0.7503  0.5222 -0.0211
  106MOL0     N14541  10.335   8.189   9.197 -0.8022 -0.2511 -0.3633
  106MOL0     N14542  10.256   8.235   9.288  0.2164  0.1845 -0.0738
  106MOL0     C14543   9.616   8.787  10.151  0.6751 -0.4105 -0.1666
  106MOL0     C14544   9.584   8.887  10.244 -0.0211  0.1013 -0.9573
  106MOL0     C14545   9.277   9.154  10.455  0.2583  0.1957 -0.0555
  106MOL0     C14546   9.161   9.133  10.536 -0.4838 -0.3439 -0.6356
  106MOL0     C14547   9.086   9.246  10.579  0.4412  0.0671 -0.1895
  106MOL0     C14548   9.117   9.378  10.556 -0.4328 -0.1932 -0.8829
  106MOL0     O14549   9.022   9.471  10.600  0.3388 -0.8790  0.2775
  106MOL0     C14550   9.070   9.605  10.613  0.6759  0.0524 -0.4054
  106MOL0     C14551   8.952   9.686  10.669 -0.2627 -0.5376  0.2942
  106MOL0     C14552   9.000   9.827  10.704  0.4842 -0.9862 -1.2968
  106MOL0     C14553   8.895   9.932  10.751  0.5565  0.0185  0.7325
  106MOL0     C14554   8.797   9.885  10.847  0.0550  0.0696  0.0136
  106MOL0     C14555   8.713   9.833  10.918 -0.4095  0.3154  0.2483
  106MOL0     C14556   9.238   9.401  10.494 -0.2726 -0.4143  0.4944
  106MOL0     C14557   9.328   9.292  10.459 -0.8706 -1.1771  0.1724
  106MOL0     C14558   9.463   9.336  10.405 -0.3586  0.5365 -0.1806
  106MOL0     H14559   9.357   9.060  10.093  1.2887  1.5400  0.2105
  106MOL0     H14560   9.408   8.881   9.901  0.1554 -0.2555  0.4482
  106MOL0     H14561   9.533   8.479   9.900 -1.1325  1.2731  0.1905
  106MOL0     H14562   9.533   8.532  10.063 -0.5594 -2.1977 -0.8488
  106MOL0     H14563   9.792   8.603   9.956 -0.8218  1.1261  2.9522
  106MOL0     H14564   9.744   8.480  10.076 -1.8417  0.9932  1.2508
  106MOL0     H14565   9.869   8.372   9.918 -1.7097 -2.6341  1.3595
  106MOL0     H14566   9.702   8.315   9.877 -1.9706  1.1134  0.2920
  106MOL0     H14567   9.680   8.464   9.691  0.1887  1.2789 -1.6969
  106MOL0     H14568   9.831   8.548   9.736 -1.2125  0.3755 -1.4251
  106MOL0     H14569   9.833   8.273   9.617  2.6521 -1.7779  1.2363
  106MOL0     H14570   9.970   8.352   9.699  0.0013 -1.3751 -0.2992
  106MOL0     H14571   9.842   8.446   9.446  0.8374  1.8777 -0.1727
  106MOL0     H14572   9.985   8.526   9.526  0.9486 -0.9169  2.0436
  106MOL0     H14573  10.006   8.248   9.452  1.3635 -0.4863 -1.7478
  106MOL0     H14574  10.129   8.363   9.493 -1.5234  2.4951  1.6367
  106MOL0     H14575   9.960   8.396   9.242 -1.3068 -0.7927  1.7049
  106MOL0     H14576  10.089   8.500   9.284  0.4854  0.6637 -3.3662
  106MOL0     H14577  10.106   8.335   9.024 -1.4693 -5.2048 -2.0204
  106MOL0     H14578  10.286   8.261   8.870  3.4024  0.1419 -1.1878
  106MOL0     H14579  10.297   8.089   8.910  1.3892 -0.9384 -0.1231
  106MOL0     H14580  10.504   8.313   8.922  0.5781  0.1876  0.7721
  106MOL0     H14581  10.541   8.153   8.981  0.5673 -1.1910 -1.0991
  106MOL0     H14582  10.512   8.054   8.754  2.5199  0.2139 -0.2678
  106MOL0     H14583  10.446   8.212   8.703 -0.3184 -0.0180 -0.7867
  106MOL0     H14584  10.669   8.321   8.776 -2.7911 -0.9419  3.7192
  106MOL0     H14585  10.726   8.164   8.814 -0.9910 -0.6517 -0.4492
  106MOL0     H14586  10.881   8.348   8.754  2.4893  3.0739 -0.6401
  106MOL0     H14587  11.100   8.575   8.712  0.6619  1.1159  3.0541
  106MOL0     H14588  11.193   8.434   8.756 -0.3098 -0.1828 -1.1056
  106MOL0     H14589  11.040   8.460   8.822  1.7035  0.4558  1.1737
  106MOL0     H14590  11.388   8.430   8.151 -0.3497  0.6460  0.9773
  106MOL0     H14591  11.613   8.449   8.084 -1.0586 -1.2516 -1.3518
  106MOL0     H14592  11.806   8.455   8.047  1.3227 -1.4332 -0.3555
  106MOL0     H14593  11.857   8.583   8.158 -0.3360  0.6763 -2.5346
  106MOL0     H14594  12.045   8.359   8.072  0.0762  0.7767 -1.1345
  106MOL0     H14595  12.045   8.526   8.016 -1.0983  0.8362 -0.3614
  106MOL0     H14596  12.118   8.421   8.298  3.6931  0.5265  0.1202
  106MOL0     H14597  12.074   8.582   8.284  0.1933 -1.3448  1.2163
  106MOL0     H14598  12.244   8.618   8.108  2.6124 -0.0865 -0.4807
  106MOL0     H14599  12.313   8.466   8.144  2.0987  2.1433 -0.1347
  106MOL0     H14600  12.276   8.690   8.341 -1.5542 -2.5626 -0.4665
  106MOL0     H14601  12.348   8.533   8.382 -3.3646 -0.3198  1.0993
  106MOL0     H14602  12.455   8.733   8.193 -0.4426 -0.3576 -0.8968
  106MOL0     H14603  12.517   8.563   8.195 -3.8476 -0.7251 -0.7588
  106MOL0     H14604  12.683   8.704   8.300 -0.1569 -1.1940 -0.1016
  106MOL0     H14605  12.608   8.609   8.416  1.1622 -0.5446 -1.6172
  106MOL0     H14606  12.465   8.868   8.375 -1.7741  0.5583  2.0270
  106MOL0     H14607  12.627   8.887   8.442  0.9472  0.1043  0.0662
  106MOL0     H14608  11.739   8.290   8.472  2.1306  1.5554 -1.4368
  106MOL0     H14609  11.520   8.224   8.524  3.5946 -1.5484  0.3947
  106MOL0     H14610  11.057   8.221   8.323 -1.4434 -1.2758  0.4072
  106MOL0     H14611  10.815   8.139   8.396  0.0459 -1.5300  1.5224
  106MOL0     H14612   9.695   8.716  10.172  1.6499 -0.1402 -2.6068
  106MOL0     H14613   9.644   8.890  10.335 -0.0029  1.9963 -1.0055
  106MOL0     H14614   9.117   9.037  10.559 -1.7866  0.5494  0.8570
  106MOL0     H14615   8.992   9.238  10.633  0.2953  1.6392 -0.1715
  106MOL0     H14616   9.166   9.608  10.664  1.9900  2.3866 -2.7768
  106MOL0     H14617   9.081   9.643  10.511  2.0595  1.4640  0.2373
  106MOL0     H14618   8.925   9.641  10.765 -0.6734 -1.3346 -0.1848
  106MOL0     H14619   8.861   9.685  10.609 -1.2987  0.5307  1.7584
  106MOL0     H14620   9.077   9.832  10.782  0.3815  2.6166 -1.2405
  106MOL0     H14621   9.057   9.864  10.619  3.1182 -1.5474  0.1371
  106MOL0     H14622   8.836   9.972  10.668  1.7972  0.1659 -0.1007
  106MOL0     H14623   8.951  10.019  10.786 -0.1967  0.0618  1.8784
  106MOL0     H14624   8.637   9.802  10.987  0.8896 -2.3688  0.5928
  106MOL0     H14625   9.268   9.502  10.467  0.3781 -1.3216 -2.6260
  106MOL0     H14626   9.544   9.269  10.436 -1.8971 -1.6016 -0.5514
  106MOL0     H14627   9.451   9.330  10.296 -1.1490  0.2820 -0.0844
  106MOL0     H14628   9.484   9.437  10.440 -1.0295  0.5814  0.0947
  107MOL0     O14629   5.532   1.128   5.687 -0.2816  0.3606  0.0821
  107MOL0     C14630   5.482   1.134   5.579  1.2411 -0.7659  0.1318
  107MOL0     O14631   5.552   1.168   5.462  0.0237  1.1937 -0.6127
  107MOL0     C14632   5.678   1.216   5.475  1.4193  0.3696  0.2715
  107MOL0     C14633   5.781   1.147   5.543  0.9710  0.3756  0.1291
  107MOL0     C14634   5.902   1.205   5.560 -0.4783  0.3689 -0.8648
  107MOL0     C14635   5.932   1.330   5.520 -0.4535 -0.1205  0.2059
  107MOL0     O14636   6.065   1.362   5.548  0.6613 -0.1188 -0.0617
  107MOL0     C14637   6.117   1.492   5.513 -0.1072  0.3879 -0.3005
  107MOL0     C14638   6.261   1.487   5.542  0.0725  0.1195 -1.3637
  107MOL0     C14639   6.352   1.608   5.528 -0.2832 -0.1001  0.4400
  107MOL0     C14640   6.499   1.592   5.574 -0.0099  0.1624 -0.0449
  107MOL0     C14641   6.588   1.713   5.541 -0.0539  0.3615 -0.2563
  107MOL0     C14642   6.728   1.674   5.593  0.4678 -0.4238  1.4650
  107MOL0     C14643   6.830   1.771   5.539  0.1976 -0.0838  0.5469
  107MOL0     C14644   6.957   1.764   5.617 -0.4256 -0.2831 -1.0802
  107MOL0     N14645   7.043   1.879   5.585  0.2397 -0.4036  0.3195
  107MOL0     C14646   7.145   1.875   5.497 -0.7294  0.0329 -1.0792
  107MOL0     C14647   7.196   2.004   5.495 -0.6756 -0.0699  0.3308
  107MOL0     C14648   7.307   2.075   5.415 -0.0043 -0.0237 -0.1943
  107MOL0     C14649   7.256   2.201   5.328  0.0684 -0.1741  0.3230
  107MOL0     C14650   7.372   2.276   5.260  0.3021 -0.3099  0.5253
  107MOL0     C14651   7.330   2.420   5.208 -0.1659  0.5029 -0.1934
  107MOL0     O14652   7.432   2.477   5.130 -0.5641 -0.3959 -0.1345
  107MOL0     C14653   7.522   2.567   5.180 -0.2075 -0.4119 -0.5957
  107MOL0     C14654   7.555   2.577   5.313 -0.6506 -0.2611  0.3573
  107MOL0     C14655   7.641   2.681   5.354 -0.0662 -0.0570 -0.1863
  107MOL0     C14656   7.649   2.715   5.498  0.3533  0.2312  0.9783
  107MOL0     C14657   7.728   2.742   5.262 -0.3179  0.1869 -0.0851
  107MOL0     C14658   7.842   2.828   5.298 -0.3515 -1.1022 -0.4741
  107MOL0     O14659   7.902   2.901   5.200  0.4216 -0.3643 -0.3035
  107MOL0     C14660   8.027   2.951   5.236  0.0034 -0.0926 -0.8311
  107MOL0     C14661   8.057   3.044   5.336  0.0441 -0.2239  0.0064
  107MOL0     C14662   8.192   3.081   5.356 -0.8164 -0.3979  0.9162
  107MOL0     C14663   8.296   3.029   5.283 -0.9475  0.5372 -0.0512
  107MOL0     O14664   8.422   3.055   5.296 -0.7040 -0.3842  0.5129
  107MOL0     C14665   8.460   3.145   5.400 -0.8573 -0.1125 -0.1208
  107MOL0     C14666   8.609   3.156   5.416 -0.3226 -0.1671  0.1396
  107MOL0     C14667   8.645   3.220   5.556  0.4294 -0.1905  0.7995
  107MOL0     C14668   8.792   3.220   5.570  0.2081  0.0027  0.1751
  107MOL0     C14669   8.846   3.258   5.702  0.1301  0.0677  0.2322
  107MOL0     C14670   9.007   3.256   5.707 -0.2308 -0.1177  0.6719
  107MOL0     C14671   9.055   3.283   5.856  0.2688  0.1859 -0.4310
  107MOL0     C14672   9.197   3.256   5.870 -0.2014  0.1884  0.2872
  107MOL0    Cl14673   9.296   3.332   5.734  0.2298 -0.1602 -0.0960
  107MOL0     C14674   8.262   2.948   5.176 -0.4780  0.0128  1.4194
  107MOL0     C14675   8.130   2.907   5.155 -0.2780  0.2209 -0.5271
  107MOL0     O14676   7.892   2.797   5.406 -0.1766 -0.0624 -0.0083
  107MOL0     C14677   7.690   2.722   5.129 -0.5821  0.5256  0.2226
  107MOL0     C14678   7.584   2.647   5.089  0.0058 -0.0206  0.0981
  107MOL0     N14679   7.145   2.059   5.607  0.3868 -0.5211  0.0355
  107MOL0     N14680   7.051   1.993   5.658  0.9111  0.0635  0.6614
  107MOL0     C14681   5.827   1.403   5.454 -0.5673 -0.2282  0.6113
  107MOL0     C14682   5.703   1.349   5.431  0.5076  0.2928  0.1472
  107MOL0     C14683   5.338   1.112   5.545 -0.4765 -0.3344  0.5198
  107MOL0     C14684   5.246   1.164   5.633  0.4744  0.4553 -0.0612
  107MOL0     C14685   5.105   1.136   5.622  0.5294  0.5018  0.0180
  107MOL0     C14686   5.053   1.073   5.511 -0.4841 -0.4855 -0.4148
  107MOL0     O14687   4.923   1.044   5.498  0.6082  0.0197 -0.2252
  107MOL0     C14688   4.828   1.149   5.525  0.1488  0.2418  0.6157
  107MOL0     C14689   4.683   1.081   5.547  0.8600 -0.4738 -0.2911
  107MOL0     C14690   4.624   1.008   5.432 -0.6844  0.5056  0.3606
  107MOL0     C14691   4.476   0.983   5.442  0.1108  0.0147  0.9709
  107MOL0     C14692   4.424   0.923   5.314  0.3679  0.3610  0.5871
  107MOL0     C14693   4.380   0.876   5.216 -0.7220  0.9745 -0.1103
  107MOL0     C14694   5.149   1.028   5.422  0.9313  0.4128  0.5283
  107MOL0     C14695   5.291   1.046   5.428  0.2574  1.0537 -0.3505
  107MOL0     C14696   5.383   0.977   5.332 -0.2085  0.2420  0.3708
  107MOL0     H14697   5.754   1.051   5.586 -2.6496  2.4399  3.0337
  107MOL0     H14698   5.986   1.156   5.608 -0.6304  0.9965  0.0796
  107MOL0     H14699   6.074   1.572   5.573  2.3358  0.6552  1.2398
  107MOL0     H14700   6.096   1.509   5.407 -0.3992 -1.9368 -0.6849
  107MOL0     H14701   6.260   1.457   5.647  0.3244  1.5707 -0.9285
  107MOL0     H14702   6.302   1.408   5.478  1.6497  0.2104 -0.5122
  107MOL0     H14703   6.362   1.644   5.426 -2.1050  2.0905  0.9586
  107MOL0     H14704   6.317   1.685   5.597  0.7197  0.5193  0.2859
  107MOL0     H14705   6.502   1.566   5.681  1.6383  3.2971  0.8153
  107MOL0     H14706   6.543   1.501   5.533 -2.0181 -1.6069  1.4837
  107MOL0     H14707   6.538   1.796   5.592  0.7576  0.8742 -0.2853
  107MOL0     H14708   6.590   1.720   5.432  3.7869 -1.7159 -0.4986
  107MOL0     H14709   6.729   1.679   5.703  1.9409  0.1162  1.4423
  107MOL0     H14710   6.759   1.573   5.566  0.4126  0.2725 -1.4558
  107MOL0     H14711   6.787   1.871   5.551 -0.6715 -0.5444  1.4241
  107MOL0     H14712   6.848   1.764   5.432 -5.5815 -0.0852 -0.7626
  107MOL0     H14713   6.928   1.778   5.722 -1.0948 -1.9750 -1.0006
  107MOL0     H14714   7.025   1.678   5.615  0.8221  0.4549  2.6451
  107MOL0     H14715   7.186   1.792   5.439  0.2070  1.2849 -2.2762
  107MOL0     H14716   7.331   2.007   5.333 -1.9027 -1.2322  0.1713
  107MOL0     H14717   7.399   2.104   5.466  0.2892  1.1270 -1.3149
  107MOL0     H14718   7.186   2.171   5.249  1.3470 -2.9171  0.1057
  107MOL0     H14719   7.208   2.267   5.400 -0.0991  1.6636 -1.3984
  107MOL0     H14720   7.462   2.297   5.318 -0.8882  2.1724  1.6323
  107MOL0     H14721   7.403   2.221   5.170  1.7070  1.3800 -0.0920
  107MOL0     H14722   7.235   2.409   5.154 -0.2837  0.0008  0.1060
  107MOL0     H14723   7.307   2.486   5.292  0.9001 -0.3868  0.8420
  107MOL0     H14724   7.500   2.520   5.387  3.5576 -4.2034  0.8924
  107MOL0     H14725   7.707   2.636   5.548  0.0355 -1.3445 -1.0144
  107MOL0     H14726   7.547   2.725   5.537 -1.4114 -2.3876 -2.3605
  107MOL0     H14727   7.689   2.815   5.516 -0.8286  0.9829 -0.3421
  107MOL0     H14728   7.981   3.089   5.398  0.0044 -4.7597  3.7642
  107MOL0     H14729   8.211   3.157   5.431 -2.2149  1.0275 -0.0984
  107MOL0     H14730   8.439   3.249   5.373  1.6096  0.4941  0.0368
  107MOL0     H14731   8.420   3.111   5.496 -2.1739  1.4893 -0.0635
  107MOL0     H14732   8.655   3.057   5.413 -2.0688 -1.0148 -1.6585
  107MOL0     H14733   8.641   3.230   5.342  1.7707  1.1764  2.2595
  107MOL0     H14734   8.603   3.156   5.634 -0.9467  0.2677  0.4651
  107MOL0     H14735   8.610   3.323   5.569  1.4637  0.4840 -1.2269
  107MOL0     H14736   8.829   3.293   5.497  1.6975 -0.3427  0.5359
  107MOL0     H14737   8.834   3.122   5.544 -0.7514 -0.9918  2.1297
  107MOL0     H14738   8.799   3.352   5.732 -0.4785 -0.2632  0.3433
  107MOL0     H14739   8.810   3.185   5.776 -0.0565  0.0972  0.1718
  107MOL0     H14740   9.031   3.341   5.642 -2.2582 -0.0214 -0.0424
  107MOL0     H14741   9.048   3.161   5.671 -0.8903 -1.1680  2.5723
  107MOL0     H14742   8.988   3.225   5.920  0.0344  1.4914  0.5647
  107MOL0     H14743   9.046   3.391   5.872  0.0696 -0.0516  1.2972
  107MOL0     H14744   9.211   3.148   5.869  0.5050  0.2788  0.2604
  107MOL0     H14745   9.233   3.296   5.966  1.9634  0.7448 -0.7041
  107MOL0     H14746   8.328   2.914   5.097  1.7307  0.8634  2.7688
  107MOL0     H14747   8.111   2.833   5.078  0.7875  1.3373 -1.9302
  107MOL0     H14748   7.752   2.769   5.054 -0.4234  1.9452  1.2108
  107MOL0     H14749   7.557   2.623   4.986 -2.0659 -0.2862  0.6621
  107MOL0     H14750   5.839   1.501   5.409 -0.6876 -0.3431  0.3267
  107MOL0     H14751   5.628   1.411   5.384  0.4059  0.2051  0.1946
  107MOL0     H14752   5.261   1.210   5.730 -2.7439 -0.3113  0.9205
  107MOL0     H14753   5.040   1.166   5.704  1.0944  0.3965  0.5117
  107MOL0     H14754   4.850   1.205   5.616 -0.9589 -0.8440  1.6043
  107MOL0     H14755   4.823   1.216   5.439  1.7710  1.2522  1.2812
  107MOL0     H14756   4.615   1.158   5.585  1.4437 -0.8185  1.5647
  107MOL0     H14757   4.689   1.015   5.634 -2.4973  1.0300  1.2825
  107MOL0     H14758   4.647   1.066   5.342  0.2420  0.1553  0.3703
  107MOL0     H14759   4.678   0.914   5.422  0.7110  1.5406 -3.4783
  107MOL0     H14760   4.421   1.076   5.459  0.0768  0.3467 -0.7161
  107MOL0     H14761   4.453   0.917   5.526  0.5982  1.1941  2.0454
  107MOL0     H14762   4.324   0.838   5.133 -1.0011  1.7289 -0.2739
  107MOL0     H14763   5.103   0.964   5.347 -0.7506 -0.8301  2.5197
  107MOL0     H14764   5.447   0.911   5.391  0.6677  1.1046  0.4149
  107MOL0     H14765   5.325   0.914   5.264 -2.8213 -0.7521  3.2835
  107MOL0     H14766   5.442   1.048   5.273 -1.1715  1.5399  0.9111
  108MOL0     O14767   5.196  10.032   5.950  0.5003  0.4948  0.1544
  108MOL0     C14768   5.226  10.120   6.030 -0.2821  0.3848  0.0047
  108MOL0     O14769   5.352  10.170   6.048  0.0722 -0.3478 -0.2269
  108MOL0     C14770   5.462  10.105   6.019  0.4199 -0.3176  0.4127
  108MOL0     C14771   5.465   9.963   6.001 -0.3734  0.0624 -0.5574
  108MOL0     C14772   5.585   9.908   5.958 -0.0913  0.1525  0.7315
  108MOL0     C14773   5.704   9.985   5.958  0.2859 -0.5096  0.1037
  108MOL0     O14774   5.820   9.920   5.923 -0.1048 -0.1390  0.6551
  108MOL0     C14775   5.932   9.998   5.891  0.1102  0.4227 -0.3805
  108MOL0     C14776   6.021   9.910   5.805 -0.9318  1.3530  1.2815
  108MOL0     C14777   6.141   9.990   5.755  0.0227  0.1922  0.5848
  108MOL0     C14778   6.204   9.901   5.651 -0.8679  0.6964 -0.4078
  108MOL0     C14779   6.318   9.978   5.587 -0.1126  0.0439  0.3944
  108MOL0     C14780   6.376   9.889   5.474 -0.3650 -0.5311 -0.4748
  108MOL0     C14781   6.505   9.954   5.416 -0.4984 -0.8823 -0.0973
  108MOL0     C14782   6.571   9.856   5.315 -1.3774  0.1706  1.0182
  108MOL0     N14783   6.692   9.927   5.252  0.7460  0.4468  0.5072
  108MOL0     C14784   6.684  10.044   5.177 -0.2656  0.0806  0.5263
  108MOL0     C14785   6.812  10.052   5.131 -0.5981  0.2195  1.1780
  108MOL0     C14786   6.863  10.163   5.037  0.1954  0.2093 -0.6294
  108MOL0     C14787   6.929  10.271   5.123 -0.7263  0.5728 -0.7515
  108MOL0     C14788   6.982  10.395   5.044 -0.5149 -0.7331  0.4895
  108MOL0     C14789   7.074  10.478   5.134  0.1153 -0.4587 -0.1936
  108MOL0     O14790   7.209  10.430   5.151  0.0648 -0.2743  0.3858
  108MOL0     C14791   7.277  10.479   5.262  0.8131  0.2068 -0.2334
  108MOL0     C14792   7.225  10.569   5.356 -0.5603 -0.6393  1.2447
  108MOL0     C14793   7.307  10.622   5.450 -0.0324 -0.5400  0.3814
  108MOL0     C14794   7.252  10.745   5.536 -1.1508  0.1934  0.4081
  108MOL0     C14795   7.443  10.576   5.465 -0.2128 -0.7748  0.0613
  108MOL0     C14796   7.539  10.642   5.558  0.0234  0.3739 -0.3802
  108MOL0     O14797   7.645  10.560   5.587  0.2973 -0.0872  0.0295
  108MOL0     C14798   7.751  10.612   5.656  0.2271 -0.8927 -0.2945
  108MOL0     C14799   7.861  10.674   5.590  0.5906 -0.5959  0.6301
  108MOL0     C14800   7.978  10.715   5.650 -0.1224 -0.1639  0.8946
  108MOL0     C14801   7.987  10.704   5.790  0.3390 -0.0313 -0.5634
  108MOL0     O14802   8.105  10.741   5.848  0.0387 -0.2612  0.0212
  108MOL0     C14803   8.105  10.862   5.913  0.1388 -0.0640 -0.0428
  108MOL0     C14804   8.253  10.917   5.943  1.1885  0.6144  0.7902
  108MOL0     C14805   8.336  10.927   5.819  0.4913  0.2285  0.0578
  108MOL0     C14806   8.477  10.970   5.852  0.8825 -0.1629 -0.4257
  108MOL0     C14807   8.568  10.967   5.732  0.1825  0.1760  0.7405
  108MOL0     C14808   8.706  10.911   5.778 -0.1564 -0.5162 -0.2683
  108MOL0     C14809   8.799  10.882   5.657 -0.0775  0.0691  0.2683
  108MOL0     C14810   8.948  10.891   5.686  0.4260 -0.7519  0.8451
  108MOL0    Cl14811   9.016  11.060   5.678 -0.0585 -0.1307  0.0138
  108MOL0     C14812   7.873  10.660   5.860  0.3155 -0.1117 -0.1718
  108MOL0     C14813   7.759  10.620   5.792  0.8862  0.5498 -0.0151
  108MOL0     O14814   7.536  10.757   5.599  0.6766  1.6766  0.1111
  108MOL0     C14815   7.480  10.475   5.383 -0.8171  0.5117  0.4588
  108MOL0     C14816   7.405  10.431   5.276 -0.7791 -0.0667 -0.3042
  108MOL0     N14817   6.892   9.949   5.177  0.8330  0.0127  0.2461
  108MOL0     N14818   6.818   9.878   5.261 -0.0386 -0.4188 -0.4261
  108MOL0     C14819   5.692  10.125   5.979  0.0046 -0.2574  0.1088
  108MOL0     C14820   5.570  10.187   6.008 -0.2145 -0.0708 -0.6552
  108MOL0     C14821   5.119  10.202   6.092 -0.2071 -0.0625  0.0042
  108MOL0     C14822   5.146  10.248   6.220 -0.4162 -0.3854 -0.1799
  108MOL0     C14823   5.045  10.314   6.295  0.2004  0.4191  0.5585
  108MOL0     C14824   4.919  10.326   6.242  1.3187  0.4259  0.3282
  108MOL0     O14825   4.819  10.367   6.330  0.1632  0.4222  0.3557
  108MOL0     C14826   4.697  10.293   6.330  0.2311 -0.7936  0.0605
  108MOL0     C14827   4.644  10.268   6.474  0.4947 -0.9245 -0.2436
  108MOL0     C14828   4.499  10.228   6.469  0.0493  0.3413  0.0252
  108MOL0     C14829   4.404  10.341   6.426 -0.3827 -0.2190  0.0308
  108MOL0     C14830   4.266  10.301   6.460  0.4630  0.5394 -0.8161
  108MOL0     C14831   4.153  10.264   6.491  0.2168 -0.1227  0.1683
  108MOL0     C14832   4.895  10.294   6.110  0.5827 -0.1450  0.4364
  108MOL0     C14833   4.988  10.222   6.040 -0.7310  0.3873 -0.1441
  108MOL0     C14834   4.955  10.181   5.899 -0.0354  0.5658 -0.1971
  108MOL0     H14835   5.379   9.900   6.021 -1.1425  1.2464  0.0141
  108MOL0     H14836   5.591   9.800   5.954 -0.5901  0.0996  1.2480
  108MOL0     H14837   5.992  10.033   5.976 -1.9872  0.8685  0.9685
  108MOL0     H14838   5.896  10.082   5.831 -4.0133 -0.3463  0.7481
  108MOL0     H14839   6.055   9.819   5.855 -0.5299  1.4646  1.2164
  108MOL0     H14840   5.967   9.874   5.716 -1.1151 -0.3084  2.0257
  108MOL0     H14841   6.108  10.085   5.712  1.6174  0.7422  0.4905
  108MOL0     H14842   6.215  10.013   5.833  2.5918 -2.4981 -0.8622
  108MOL0     H14843   6.253   9.814   5.693  1.4860  2.7051  1.3101
  108MOL0     H14844   6.136   9.865   5.573  1.1156 -2.1838 -0.9676
  108MOL0     H14845   6.394   9.995   5.663 -1.7369 -0.5197  2.2273
  108MOL0     H14846   6.279  10.074   5.551  0.2047 -0.2592 -0.8096
  108MOL0     H14847   6.403   9.789   5.507  1.6873 -0.9562 -3.0687
  108MOL0     H14848   6.299   9.891   5.397  0.1798 -0.3064 -1.0237
  108MOL0     H14849   6.588   9.978   5.483 -1.1647 -1.5583  0.9954
  108MOL0     H14850   6.477  10.045   5.362 -0.1999 -0.4516  0.4534
  108MOL0     H14851   6.590   9.773   5.383 -0.9546 -1.7471 -1.3261
  108MOL0     H14852   6.498   9.834   5.237 -1.4474  2.2187  0.4330
  108MOL0     H14853   6.609  10.122   5.167  0.3940  0.5074 -1.7716
  108MOL0     H14854   6.776  10.209   4.988  0.9498  2.2845 -0.1260
  108MOL0     H14855   6.939  10.136   4.964  1.0644  1.8650 -0.3846
  108MOL0     H14856   6.870  10.300   5.210  1.8656 -1.0113  1.6904
  108MOL0     H14857   7.023  10.227   5.159 -0.1138  1.6418 -1.0135
  108MOL0     H14858   7.043  10.368   4.958 -1.0752  3.5924 -1.4867
  108MOL0     H14859   6.894  10.449   5.010 -0.4720 -0.2897  1.0526
  108MOL0     H14860   7.062  10.582   5.105 -0.2087 -0.0704  1.2638
  108MOL0     H14861   7.018  10.477   5.228 -0.5134 -0.5276 -0.5643
  108MOL0     H14862   7.123  10.607   5.347 -0.3719 -0.0475  1.5383
  108MOL0     H14863   7.267  10.726   5.642  1.8058 -0.3672 -0.0281
  108MOL0     H14864   7.146  10.751   5.511 -1.1145  0.7873  0.3884
  108MOL0     H14865   7.311  10.834   5.512 -0.3882 -0.3518  0.2101
  108MOL0     H14866   7.866  10.687   5.482  0.0946  1.7192  0.8352
  108MOL0     H14867   8.057  10.746   5.583  0.5653 -0.9226  1.3346
  108MOL0     H14868   8.073  10.944   5.848  3.3777  0.5299 -1.0268
  108MOL0     H14869   8.046  10.854   6.005  1.6937  2.8521  1.3133
  108MOL0     H14870   8.254  11.011   6.000 -0.9808  1.0819  0.1731
  108MOL0     H14871   8.292  10.833   6.000  3.5177  0.5604 -0.7691
  108MOL0     H14872   8.288  11.002   5.756  0.7697  0.9370  0.6752
  108MOL0     H14873   8.331  10.835   5.760 -0.5911  0.7483 -0.6925
  108MOL0     H14874   8.516  10.908   5.934 -0.0373 -1.0863 -0.6580
  108MOL0     H14875   8.471  11.072   5.889 -0.2788 -0.8656  1.4796
  108MOL0     H14876   8.528  10.911   5.647 -1.0778  3.5444 -1.0968
  108MOL0     H14877   8.597  11.069   5.703  0.6211 -0.4125 -1.0162
  108MOL0     H14878   8.708  10.830   5.852 -1.6070 -0.5911 -0.2676
  108MOL0     H14879   8.747  10.994   5.837  0.5484 -1.2823  0.3396
  108MOL0     H14880   8.760  10.940   5.573 -2.2486 -1.6247  0.0212
  108MOL0     H14881   8.778  10.783   5.616  3.7618  0.0810 -2.2865
  108MOL0     H14882   9.010  10.839   5.612  0.1231  0.1506 -0.0589
  108MOL0     H14883   8.975  10.838   5.778 -2.6302 -2.9075  0.6558
  108MOL0     H14884   7.878  10.646   5.968 -3.4716 -0.0392  0.1650
  108MOL0     H14885   7.669  10.590   5.844 -0.1833  1.1180 -1.5023
  108MOL0     H14886   7.579  10.430   5.392 -0.5450  1.1323  0.6230
  108MOL0     H14887   7.442  10.365   5.198  1.8545  0.8800  0.0610
  108MOL0     H14888   5.780  10.186   5.992  1.1710 -2.1975  1.9921
  108MOL0     H14889   5.555  10.294   6.007 -5.8020 -0.5818 -0.2220
  108MOL0     H14890   5.238  10.229   6.275 -0.4372  0.3908  0.1432
  108MOL0     H14891   5.057  10.328   6.402 -2.6611  2.0776  0.7533
  108MOL0     H14892   4.625  10.359   6.280 -0.1821 -0.8131  0.6209
  108MOL0     H14893   4.689  10.199   6.274 -1.7152 -0.3828 -0.4516
  108MOL0     H14894   4.647  10.365   6.525 -0.3959 -0.0370 -1.8011
  108MOL0     H14895   4.699  10.195   6.534 -0.0333  1.1015  2.9449
  108MOL0     H14896   4.483  10.140   6.406 -0.9157 -1.0097  2.0497
  108MOL0     H14897   4.479  10.204   6.574  1.6309  1.5533  0.6537
  108MOL0     H14898   4.407  10.357   6.318 -0.4473 -1.4108 -0.1612
  108MOL0     H14899   4.422  10.437   6.475  1.0319 -0.7573  0.6259
  108MOL0     H14900   4.047  10.253   6.501 -0.5017  3.4365 -2.0567
  108MOL0     H14901   4.795  10.325   6.080  0.7641  0.4702  0.4492
  108MOL0     H14902   4.985  10.084   5.860  0.2506  0.7529 -0.4531
  108MOL0     H14903   4.849  10.200   5.881 -0.2736 -0.6266 -0.1039
  108MOL0     H14904   4.998  10.251   5.826 -0.7022  1.6451  0.4090
  109MOL0     O14905   4.889   3.207   2.864  0.9963  0.5657 -0.5270
  109MOL0     C14906   4.989   3.265   2.831  0.1877 -0.0419 -0.8314
  109MOL0     O14907   4.999   3.344   2.723  0.5628  0.2484  0.0541
  109MOL0     C14908   4.873   3.362   2.662  1.1338 -0.9312  0.9745
  109MOL0     C14909   4.807   3.279   2.568 -1.0707 -0.1871  0.3468
  109MOL0     C14910   4.681   3.309   2.523 -0.2815 -0.8932  0.1259
  109MOL0     C14911   4.610   3.421   2.572  0.1062 -0.1257 -0.9959
  109MOL0     O14912   4.474   3.445   2.570  0.3667 -0.0542  0.7048
  109MOL0     C14913   4.399   3.378   2.462  0.1187  0.2231  0.1121
  109MOL0     C14914   4.277   3.328   2.534  0.4287  0.6917 -0.1784
  109MOL0     C14915   4.187   3.232   2.459  0.1764  0.3659  0.0160
  109MOL0     C14916   4.049   3.202   2.529  0.5522 -0.2402  0.3831
  109MOL0     C14917   3.995   3.075   2.457  0.3941 -0.1379  0.3789
  109MOL0     C14918   3.907   3.004   2.564 -0.4150 -0.7702 -1.1796
  109MOL0     C14919   3.837   2.868   2.533 -0.4286 -0.0618 -0.1811
  109MOL0     C14920   3.939   2.754   2.539  0.1546  0.6995  0.9213
  109MOL0     N14921   3.892   2.613   2.534  0.2720  0.3890 -0.4623
  109MOL0     C14922   3.766   2.569   2.553 -0.3019 -0.2284  0.3003
  109MOL0     C14923   3.774   2.437   2.527 -0.2445  0.5072  0.2141
  109MOL0     C14924   3.654   2.344   2.537  0.3023  0.2028  0.3053
  109MOL0     C14925   3.514   2.411   2.541  0.6930  0.1070 -0.3970
  109MOL0     C14926   3.399   2.324   2.487 -0.5014 -0.4329  0.8882
  109MOL0     C14927   3.260   2.381   2.527 -0.7414 -0.4851 -0.2198
  109MOL0     O14928   3.159   2.289   2.479  0.1071  0.4936  0.2113
  109MOL0     C14929   3.022   2.329   2.492 -0.9663  0.8940 -1.5550
  109MOL0     C14930   2.980   2.421   2.594  0.0146 -0.3607  0.0779
  109MOL0     C14931   2.843   2.435   2.620  1.3689 -0.3202  0.1232
  109MOL0     C14932   2.817   2.519   2.747 -0.3953  0.4301  0.0982
  109MOL0     C14933   2.736   2.368   2.551 -0.6391  0.4458 -0.0802
  109MOL0     C14934   2.595   2.384   2.576 -0.0223  0.1923  1.0006
  109MOL0     O14935   2.544   2.387   2.708  0.3503 -0.0303 -0.1937
  109MOL0     C14936   2.423   2.365   2.755  0.3818  0.3249  0.5797
  109MOL0     C14937   2.316   2.317   2.672  0.2079 -0.0239 -0.7606
  109MOL0     C14938   2.188   2.296   2.731  0.3196 -0.8879 -0.0488
  109MOL0     C14939   2.169   2.311   2.866 -0.6242  0.2706 -0.1622
  109MOL0     O14940   2.050   2.289   2.931 -0.1057  0.3236 -0.1878
  109MOL0     C14941   1.940   2.378   2.894 -0.1702 -0.1975 -0.1134
  109MOL0     C14942   1.845   2.402   3.008 -0.1881 -1.1010 -0.9487
  109MOL0     C14943   1.839   2.549   3.047  0.4216  0.7076 -0.7077
  109MOL0     C14944   1.749   2.563   3.169  0.5743  0.1297  1.0823
  109MOL0     C14945   1.738   2.695   3.235 -0.0011 -0.4367 -0.0967
  109MOL0     C14946   1.622   2.692   3.332  0.5055 -0.7372 -0.1428
  109MOL0     C14947   1.610   2.838   3.392  1.3006  0.2047 -0.0012
  109MOL0     C14948   1.491   2.841   3.483  0.8852  0.4733  0.4596
  109MOL0    Cl14949   1.531   2.784   3.645  0.7281  0.4747  0.1904
  109MOL0     C14950   2.277   2.348   2.946  0.3851 -0.3178 -0.5559
  109MOL0     C14951   2.397   2.377   2.891 -0.2638  0.1349  0.0027
  109MOL0     O14952   2.533   2.379   2.467 -0.3298  0.2266 -0.5510
  109MOL0     C14953   2.786   2.287   2.445 -0.3341  0.3796  0.1230
  109MOL0     C14954   2.925   2.262   2.423 -0.0012 -0.5116  0.3661
  109MOL0     N14955   3.902   2.404   2.491 -0.2469  0.0610 -0.2579
  109MOL0     N14956   3.973   2.506   2.493 -0.0535  0.4449 -0.4337
  109MOL0     C14957   4.672   3.502   2.664 -0.0633  0.1180 -0.4662
  109MOL0     C14958   4.800   3.473   2.706  0.0502 -0.8563 -0.5665
  109MOL0     C14959   5.121   3.248   2.905  0.0646  0.1935  1.3308
  109MOL0     C14960   5.220   3.352   2.891 -0.1936 -0.4094 -0.0988
  109MOL0     C14961   5.343   3.343   2.958  0.0197 -0.9301  0.7634
  109MOL0     C14962   5.375   3.231   3.032 -0.2132 -0.4257 -0.1444
  109MOL0     O14963   5.497   3.226   3.097  0.0193  0.6268  0.3787
  109MOL0     C14964   5.551   3.096   3.144  0.2095  0.5505  0.8794
  109MOL0     C14965   5.668   3.111   3.244  0.4701 -0.0985  0.0956
  109MOL0     C14966   5.784   3.197   3.184  0.0607 -0.3989  0.9902
  109MOL0     C14967   5.873   3.220   3.302  0.0011  0.7131 -0.1566
  109MOL0     C14968   6.009   3.180   3.265 -0.2094 -0.0296  0.5623
  109MOL0     C14969   6.110   3.152   3.211  0.0364 -0.6789  0.7154
  109MOL0     C14970   5.287   3.122   3.034 -0.0664 -0.4331  0.4525
  109MOL0     C14971   5.158   3.134   2.973 -0.3837  0.4315 -0.2996
  109MOL0     C14972   5.064   3.010   2.987  0.9398 -0.2821  0.0859
  109MOL0     H14973   4.858   3.187   2.542 -0.0774  0.6801 -0.8545
  109MOL0     H14974   4.646   3.248   2.440 -0.9236 -0.1171 -0.1866
  109MOL0     H14975   4.446   3.294   2.410 -1.7927 -0.0351 -1.3021
  109MOL0     H14976   4.367   3.452   2.389  1.0926  1.4550  0.9031
  109MOL0     H14977   4.302   3.278   2.627  1.3560  1.6485  0.1109
  109MOL0     H14978   4.219   3.414   2.568  3.4525  2.4383  0.9768
  109MOL0     H14979   4.166   3.270   2.359  0.7642 -0.7481 -0.5547
  109MOL0     H14980   4.248   3.141   2.455  1.9367  1.4103  1.6167
  109MOL0     H14981   4.070   3.175   2.633  0.1028  2.5692  1.3088
  109MOL0     H14982   3.985   3.291   2.527  1.2393  0.2619 -0.8145
  109MOL0     H14983   4.081   3.014   2.426  0.1047  0.4929 -1.8352
  109MOL0     H14984   3.940   3.097   2.365  1.3197  2.9641  0.4742
  109MOL0     H14985   3.975   2.980   2.646  0.9649  0.4528 -1.9178
  109MOL0     H14986   3.831   3.075   2.597  0.5128  0.1684 -1.0054
  109MOL0     H14987   3.788   2.869   2.435  2.5531 -1.8573 -1.8686
  109MOL0     H14988   3.767   2.847   2.615 -1.4619 -2.3908 -1.5507
  109MOL0     H14989   4.007   2.774   2.455 -0.1377  2.4191  1.0480
  109MOL0     H14990   4.001   2.759   2.629 -0.1071  1.7837  1.0598
  109MOL0     H14991   3.687   2.634   2.589  0.5574  1.1000 -0.1293
  109MOL0     H14992   3.665   2.272   2.618 -2.0423  0.2871  0.7776
  109MOL0     H14993   3.644   2.297   2.439  3.8540  0.8121 -0.4872
  109MOL0     H14994   3.496   2.457   2.638  3.7565  1.6552 -0.4688
  109MOL0     H14995   3.511   2.496   2.473 -1.3327  0.0079 -0.5073
  109MOL0     H14996   3.406   2.331   2.378  1.3965  0.5529  1.0347
  109MOL0     H14997   3.403   2.218   2.513 -4.6450 -1.1104 -0.5492
  109MOL0     H14998   3.258   2.374   2.636  2.6246 -2.7196 -0.1633
  109MOL0     H14999   3.238   2.483   2.492  2.8934  0.9618  1.2748
  109MOL0     H15000   3.055   2.465   2.659  0.9840  1.0251 -1.8836
  109MOL0     H15001   2.719   2.567   2.749  0.8618  3.3146 -1.3871
  109MOL0     H15002   2.895   2.596   2.750 -0.0124  0.2359 -2.3346
  109MOL0     H15003   2.836   2.462   2.838 -2.7962  0.1182  0.4476
  109MOL0     H15004   2.336   2.302   2.567  0.2345 -0.7381 -0.6608
  109MOL0     H15005   2.093   2.288   2.679  0.8653  0.2689 -1.2976
  109MOL0     H15006   1.977   2.477   2.865 -0.2548  0.5286  2.1007
  109MOL0     H15007   1.869   2.336   2.822 -1.1445  3.1167 -1.2370
  109MOL0     H15008   1.744   2.384   2.970 -1.6338  2.3471  0.8826
  109MOL0     H15009   1.858   2.340   3.097 -4.9009  3.3821  3.5132
  109MOL0     H15010   1.814   2.609   2.959  0.8262  0.4395 -1.0079
  109MOL0     H15011   1.938   2.589   3.073 -1.2812  5.3029 -0.3797
  109MOL0     H15012   1.761   2.478   3.237  1.7582 -0.4489  0.1966
  109MOL0     H15013   1.650   2.536   3.133  1.6302 -1.1468 -1.0565
  109MOL0     H15014   1.825   2.725   3.293 -1.7675 -0.4732  2.7216
  109MOL0     H15015   1.709   2.766   3.157  0.2200  1.7637  1.7477
  109MOL0     H15016   1.639   2.614   3.407  0.7174 -0.5365  0.0210
  109MOL0     H15017   1.530   2.659   3.283  0.7206 -2.7228  0.6891
  109MOL0     H15018   1.601   2.916   3.317  0.7958  1.4593  1.3197
  109MOL0     H15019   1.699   2.867   3.449  0.4572  2.1651  0.4002
  109MOL0     H15020   1.421   2.763   3.450 -0.0540  1.0890  0.9507
  109MOL0     H15021   1.442   2.938   3.480  1.4309  0.7319 -1.0070
  109MOL0     H15022   2.270   2.361   3.053 -0.8849  1.7470 -0.8180
  109MOL0     H15023   2.476   2.403   2.960 -2.3477  1.2083  2.1674
  109MOL0     H15024   2.719   2.231   2.381  0.7557 -3.1183  1.8261
  109MOL0     H15025   2.944   2.190   2.344  0.0032 -2.5613  2.1173
  109MOL0     H15026   4.627   3.594   2.701  0.4734  0.6178 -1.0324
  109MOL0     H15027   4.841   3.555   2.763 -1.1243 -1.6249  1.5071
  109MOL0     H15028   5.198   3.441   2.833 -1.3622 -1.3327 -1.1359
  109MOL0     H15029   5.421   3.419   2.954 -0.5299 -0.3480  0.8848
  109MOL0     H15030   5.476   3.039   3.201 -0.2186  0.5037  0.2759
  109MOL0     H15031   5.583   3.038   3.058 -2.3225 -0.3490  0.4665
  109MOL0     H15032   5.696   3.007   3.266 -0.6657 -0.3328  0.5322
  109MOL0     H15033   5.637   3.155   3.340  1.4286 -1.2521  0.9640
  109MOL0     H15034   5.825   3.150   3.094  0.1353  2.4171 -0.5691
  109MOL0     H15035   5.745   3.289   3.141 -2.4182 -1.3215  1.0856
  109MOL0     H15036   5.839   3.163   3.389  1.5755  2.1057  1.4682
  109MOL0     H15037   5.870   3.322   3.341  0.6610 -0.9632  5.0407
  109MOL0     H15038   6.207   3.142   3.166 -0.7789 -0.7002 -1.1122
  109MOL0     H15039   5.311   3.033   3.092  1.5136 -1.2954 -1.3869
  109MOL0     H15040   4.977   3.046   3.042  2.0240  3.1740 -0.2639
  109MOL0     H15041   5.032   2.969   2.891  1.7683 -0.2759 -0.2057
  109MOL0     H15042   5.117   2.933   3.045  1.7229  0.9007  0.9973
  110MOL0     O15043   3.334   3.611   2.514  0.5593 -1.1478  0.6214
  110MOL0     C15044   3.223   3.662   2.515 -0.1988  0.0453 -0.0796
  110MOL0     O15045   3.183   3.767   2.431  0.5221  0.4109  0.7616
  110MOL0     C15046   3.277   3.825   2.360  0.5094  0.4883  0.0443
  110MOL0     C15047   3.294   3.803   2.221 -0.7691  0.1058 -0.0633
  110MOL0     C15048   3.389   3.879   2.148  0.3112  0.5425 -0.3321
  110MOL0     C15049   3.451   3.993   2.202 -1.0946  0.3955  0.0351
  110MOL0     O15050   3.526   4.078   2.124 -0.6027  0.0684 -0.4171
  110MOL0     C15051   3.506   4.220   2.154  0.1972  0.2442  0.1453
  110MOL0     C15052   3.638   4.298   2.188  0.0886  0.4539  0.3897
  110MOL0     C15053   3.755   4.265   2.098 -0.3356  0.4547  0.3171
  110MOL0     C15054   3.840   4.384   2.080 -0.6606  0.6258  0.2951
  110MOL0     C15055   3.949   4.340   1.987  0.0937 -0.2469  0.1028
  110MOL0     C15056   4.063   4.455   1.961  0.6396  1.1385  0.1641
  110MOL0     C15057   4.162   4.395   1.868 -0.0489  0.1446  0.2965
  110MOL0     C15058   4.267   4.498   1.820 -0.1044  1.0198 -0.6129
  110MOL0     N15059   4.335   4.569   1.924 -0.5462 -0.1860  0.6539
  110MOL0     C15060   4.434   4.522   2.009  0.1323  0.2805  0.5828
  110MOL0     C15061   4.465   4.624   2.090  1.1547 -1.0361 -0.3852
  110MOL0     C15062   4.547   4.613   2.212  0.0839  0.4891  1.0887
  110MOL0     C15063   4.647   4.729   2.231  0.3435 -0.5871  0.1301
  110MOL0     C15064   4.690   4.749   2.384 -0.2594  0.4291  0.6194
  110MOL0     C15065   4.754   4.885   2.407 -0.2966 -0.7688  0.1143
  110MOL0     O15066   4.858   4.924   2.313  0.5340 -0.0167  0.3288
  110MOL0     C15067   4.976   4.962   2.369 -0.4192  0.5317  0.3128
  110MOL0     C15068   5.001   5.096   2.392 -0.3161 -0.6643 -0.6498
  110MOL0     C15069   5.127   5.128   2.444  0.3201 -1.3728 -0.2770
  110MOL0     C15070   5.158   5.280   2.468 -0.4900  0.2126 -0.4116
  110MOL0     C15071   5.214   5.024   2.486 -0.4964  0.0482 -0.2296
  110MOL0     C15072   5.338   5.056   2.549 -0.4761  0.0895 -0.1258
  110MOL0     O15073   5.366   4.985   2.666 -0.1826  0.7237  0.2584
  110MOL0     C15074   5.495   4.973   2.717  0.0999 -0.8387  0.4347
  110MOL0     C15075   5.508   4.954   2.857 -0.4194 -0.2233 -0.2818
  110MOL0     C15076   5.639   4.935   2.909  0.5549  0.0719  0.0129
  110MOL0     C15077   5.753   4.940   2.827 -0.6545  0.0729  0.6881
  110MOL0     O15078   5.880   4.917   2.882  0.1671 -0.4779  0.4202
  110MOL0     C15079   6.001   4.939   2.803 -0.1566 -0.0129 -0.0379
  110MOL0     C15080   6.046   4.816   2.734  0.2017  0.2299  1.3822
  110MOL0     C15081   6.072   4.716   2.841 -0.1638  0.0903 -0.1620
  110MOL0     C15082   6.170   4.609   2.792  0.2019 -0.5333  0.8043
  110MOL0     C15083   6.174   4.488   2.881 -0.8296  0.6107 -0.3273
  110MOL0     C15084   6.258   4.374   2.822  0.1292 -0.2848 -0.3099
  110MOL0     C15085   6.275   4.261   2.917  0.1127  0.1808 -0.2469
  110MOL0     C15086   6.337   4.143   2.842 -0.8116  0.3561 -0.4395
  110MOL0    Cl15087   6.380   4.024   2.957  0.4044 -0.1331  0.2213
  110MOL0     C15088   5.731   4.954   2.688  0.1018  0.2735 -0.5796
  110MOL0     C15089   5.605   4.975   2.636  0.0368  0.3073 -0.6596
  110MOL0     O15090   5.415   5.135   2.493  0.0045  0.2596 -0.3553
  110MOL0     C15091   5.178   4.889   2.475 -0.1637 -1.3622 -0.9654
  110MOL0     C15092   5.064   4.861   2.402  0.2973  0.1599  0.6411
  110MOL0     N15093   4.398   4.737   2.045 -0.3879 -0.3027 -0.7092
  110MOL0     N15094   4.328   4.703   1.940 -0.3500 -0.0681  0.1152
  110MOL0     C15095   3.420   4.019   2.334  0.1937 -0.3816  0.3167
  110MOL0     C15096   3.333   3.938   2.416  0.3884 -0.1095  0.6273
  110MOL0     C15097   3.113   3.613   2.605  0.4191 -0.0852 -0.4675
  110MOL0     C15098   2.980   3.660   2.580  0.2420  0.4374 -0.4546
  110MOL0     C15099   2.865   3.605   2.633 -0.7117  0.0279 -0.1888
  110MOL0     C15100   2.868   3.496   2.724  0.0338  0.1866  0.0020
  110MOL0     O15101   2.777   3.428   2.797  0.2493 -0.1568 -0.1131
  110MOL0     C15102   2.647   3.456   2.756 -0.4779  0.3913 -0.2956
  110MOL0     C15103   2.554   3.391   2.855 -0.0756  0.4696  0.1428
  110MOL0     C15104   2.544   3.235   2.841 -0.3559  0.3158  0.0165
  110MOL0     C15105   2.396   3.183   2.879 -0.0638  0.0417 -0.2212
  110MOL0     C15106   2.376   3.192   3.026 -0.0754 -0.2507  0.1347
  110MOL0     C15107   2.360   3.193   3.146 -0.0983 -0.3911  0.1802
  110MOL0     C15108   2.998   3.457   2.749  0.2822 -0.6751 -1.4445
  110MOL0     C15109   3.116   3.505   2.699 -0.5883 -0.2870  0.7797
  110MOL0     C15110   3.244   3.448   2.742 -0.3520 -0.0067 -0.6906
  110MOL0     H15111   3.240   3.719   2.180 -1.5059  0.4064  0.2616
  110MOL0     H15112   3.402   3.841   2.047 -3.6996  0.3692 -0.9240
  110MOL0     H15113   3.427   4.239   2.226  2.3415 -1.5290  3.2304
  110MOL0     H15114   3.474   4.264   2.059  0.8370 -1.6946 -1.0321
  110MOL0     H15115   3.622   4.406   2.176 -3.1476 -0.0960 -1.5404
  110MOL0     H15116   3.663   4.287   2.294  1.3312  2.0149  0.2877
  110MOL0     H15117   3.816   4.190   2.149 -1.2610 -2.4191 -2.4597
  110MOL0     H15118   3.713   4.221   2.007  0.6112 -0.9860  0.5444
  110MOL0     H15119   3.786   4.467   2.034 -1.0390  0.5800  0.6571
  110MOL0     H15120   3.886   4.417   2.173  0.7172 -2.5369  0.8861
  110MOL0     H15121   3.912   4.306   1.889  2.8882  1.2599 -1.5959
  110MOL0     H15122   4.000   4.256   2.035 -2.0377 -2.1460 -0.7199
  110MOL0     H15123   4.011   4.539   1.913  0.0892  0.5040 -0.3708
  110MOL0     H15124   4.104   4.481   2.060 -1.2722  0.7489  1.1158
  110MOL0     H15125   4.101   4.350   1.789  0.9387 -2.5498  0.9506
  110MOL0     H15126   4.210   4.312   1.920  0.3561  0.2487  0.0958
  110MOL0     H15127   4.340   4.442   1.761 -1.9585 -2.0893 -0.1678
  110MOL0     H15128   4.217   4.572   1.756  0.5300  1.6687 -0.3849
  110MOL0     H15129   4.467   4.420   2.023 -3.0743 -0.6402  2.3622
  110MOL0     H15130   4.593   4.514   2.222  0.6717  0.5064 -1.0335
  110MOL0     H15131   4.484   4.613   2.301 -1.3781  4.2813  0.2549
  110MOL0     H15132   4.734   4.718   2.166 -0.2740  0.1949 -0.8509
  110MOL0     H15133   4.591   4.816   2.196  0.2227  0.2711  2.3119
  110MOL0     H15134   4.606   4.742   2.453 -0.3822 -0.9622  0.3522
  110MOL0     H15135   4.756   4.666   2.411  1.3247  0.8809 -1.5768
  110MOL0     H15136   4.677   4.962   2.399  1.2055  0.9106  1.2357
  110MOL0     H15137   4.793   4.890   2.509 -0.1253  0.2192  0.0053
  110MOL0     H15138   4.923   5.170   2.377  1.0182  1.1910  0.9250
  110MOL0     H15139   5.239   5.302   2.398  0.3158  1.4335  0.8666
  110MOL0     H15140   5.181   5.316   2.568 -2.6161 -0.7920  0.5104
  110MOL0     H15141   5.071   5.335   2.430 -0.5645 -0.1345 -0.7505
  110MOL0     H15142   5.422   4.944   2.922  0.7934 -2.0358  1.1558
  110MOL0     H15143   5.644   4.905   3.013 -1.4680  2.3527  0.8503
  110MOL0     H15144   6.008   5.018   2.727  1.4689 -1.5834 -1.6028
  110MOL0     H15145   6.079   4.962   2.876  1.6120 -3.0348 -0.8329
  110MOL0     H15146   5.967   4.788   2.662  1.5430  3.6494 -1.7295
  110MOL0     H15147   6.143   4.841   2.690  0.7712 -1.4311  1.6252
  110MOL0     H15148   5.982   4.667   2.878 -0.7704 -0.6200 -2.4250
  110MOL0     H15149   6.126   4.759   2.926 -0.6935 -0.7268  0.6064
  110MOL0     H15150   6.270   4.653   2.783  0.1706 -0.7956 -1.2530
  110MOL0     H15151   6.143   4.581   2.690  0.5260  2.1641 -0.1091
  110MOL0     H15152   6.207   4.507   2.984 -1.0652 -2.7201  0.5024
  110MOL0     H15153   6.070   4.456   2.883 -1.1931  0.7754 -5.1602
  110MOL0     H15154   6.361   4.401   2.797 -0.1019  0.3069 -0.6625
  110MOL0     H15155   6.205   4.357   2.728  0.7658  0.6843 -0.8672
  110MOL0     H15156   6.177   4.234   2.958 -0.4776  2.6366  0.0936
  110MOL0     H15157   6.340   4.293   2.998  2.6872 -2.5130 -1.0668
  110MOL0     H15158   6.425   4.184   2.792  0.6534 -4.1506 -1.9998
  110MOL0     H15159   6.277   4.095   2.765 -0.2768 -0.1267 -0.5630
  110MOL0     H15160   5.815   4.946   2.620  0.4091 -3.4886  0.0211
  110MOL0     H15161   5.595   4.992   2.529 -2.4878  1.4370 -0.3125
  110MOL0     H15162   5.246   4.812   2.508  0.6502  0.8298  3.2073
  110MOL0     H15163   5.042   4.758   2.376  1.6322 -0.3067  1.3033
  110MOL0     H15164   3.464   4.103   2.386  2.4024 -2.1866  1.5014
  110MOL0     H15165   3.294   3.975   2.510 -0.1177 -3.0934  1.6889
  110MOL0     H15166   2.969   3.747   2.516  1.5133 -0.1219 -1.4864
  110MOL0     H15167   2.774   3.658   2.607  0.6233  2.7057  0.2291
  110MOL0     H15168   2.631   3.563   2.774  0.5714  0.7711 -1.5085
  110MOL0     H15169   2.624   3.445   2.650  1.8511 -0.9048 -0.7267
  110MOL0     H15170   2.453   3.415   2.823  0.0934  0.3294 -0.5014
  110MOL0     H15171   2.574   3.425   2.957 -0.4814  0.5478  0.1971
  110MOL0     H15172   2.578   3.220   2.738  1.0465  3.5646 -0.1251
  110MOL0     H15173   2.622   3.188   2.901  0.4996  1.3784 -0.2132
  110MOL0     H15174   2.373   3.080   2.852  2.5507 -0.5155 -0.5919
  110MOL0     H15175   2.314   3.240   2.836 -0.5819  0.9675  1.8664
  110MOL0     H15176   2.350   3.204   3.252 -0.1179  2.0072 -0.0348
  110MOL0     H15177   3.006   3.377   2.822  0.3235  0.7700  0.2210
  110MOL0     H15178   3.229   3.362   2.808 -2.9452  1.2200  0.4766
  110MOL0     H15179   3.309   3.410   2.663 -1.0193 -2.3204 -0.2005
  110MOL0     H15180   3.301   3.530   2.786 -0.8723  0.7717 -1.4438
  111MOL0     O15181   8.913   5.539   8.306  0.4175  0.0529  0.1075
  111MOL0     C15182   8.859   5.579   8.204 -0.3965  0.2666 -0.2939
  111MOL0     O15183   8.724   5.556   8.156 -0.6737 -0.0175  0.1712
  111MOL0     C15184   8.637   5.491   8.235  0.6780  0.0958  0.1335
  111MOL0     C15185   8.605   5.527   8.369 -0.8767 -0.6016  0.4441
  111MOL0     C15186   8.504   5.462   8.443 -0.2269 -0.3671  0.1787
  111MOL0     C15187   8.424   5.368   8.384 -0.2327  0.5172 -0.3269
  111MOL0     O15188   8.322   5.310   8.457 -0.0922 -0.5626  0.4590
  111MOL0     C15189   8.194   5.285   8.386  0.0281 -0.2155 -0.0870
  111MOL0     C15190   8.182   5.132   8.329  0.0984 -0.1458 -0.0374
  111MOL0     C15191   8.060   5.128   8.234 -0.2416 -0.6393  0.2954
  111MOL0     C15192   8.037   4.982   8.188  0.4180 -1.1134 -0.3133
  111MOL0     C15193   7.918   4.985   8.091 -0.8981  0.1599  0.1094
  111MOL0     C15194   7.786   4.930   8.162  0.3093 -0.3506  0.3415
  111MOL0     C15195   7.666   4.916   8.066  0.2332 -0.0421  0.0750
  111MOL0     C15196   7.682   4.824   7.947 -0.1665 -0.4406 -0.1579
  111MOL0     N15197   7.547   4.780   7.911  0.1849 -0.5231  0.1090
  111MOL0     C15198   7.458   4.827   7.821  0.4683 -0.2573 -0.0304
  111MOL0     C15199   7.349   4.752   7.834  0.2928 -0.1259 -0.0327
  111MOL0     C15200   7.214   4.772   7.768  0.3685  0.3765  0.5385
  111MOL0     C15201   7.105   4.823   7.864  0.5738 -0.3280  0.8395
  111MOL0     C15202   7.131   4.952   7.935  0.2106 -0.0898  0.9179
  111MOL0     C15203   7.165   5.076   7.848 -0.0827  0.6815  0.2676
  111MOL0     O15204   7.217   5.184   7.931  0.3015  0.1935  0.2185
  111MOL0     C15205   7.351   5.224   7.937 -0.3527  0.6747  0.3216
  111MOL0     C15206   7.391   5.264   8.060 -0.9784 -0.0268 -0.0923
  111MOL0     C15207   7.525   5.316   8.072 -0.6719 -0.9061  0.1134
  111MOL0     C15208   7.568   5.367   8.209 -0.3146 -0.2811  0.6744
  111MOL0     C15209   7.615   5.314   7.962  0.1997 -0.8866  0.0831
  111MOL0     C15210   7.755   5.369   7.972 -0.7145 -0.2083  0.2141
  111MOL0     O15211   7.841   5.350   7.870 -0.5578  0.5392  0.1404
  111MOL0     C15212   7.979   5.371   7.885 -0.4713 -0.4600  0.3994
  111MOL0     C15213   8.077   5.277   7.853 -0.6444 -0.1238 -0.0218
  111MOL0     C15214   8.213   5.321   7.836  0.7787 -0.0037  0.4340
  111MOL0     C15215   8.245   5.456   7.847 -0.7142 -0.7469  0.3641
  111MOL0     O15216   8.379   5.484   7.826 -0.1553  0.3865 -1.0250
  111MOL0     C15217   8.418   5.613   7.811  0.4689 -0.1777 -0.5287
  111MOL0     C15218   8.574   5.617   7.807  0.5187 -0.2335 -0.4975
  111MOL0     C15219   8.612   5.613   7.656  0.1805 -0.1175 -0.6107
  111MOL0     C15220   8.760   5.667   7.625  0.4994 -0.4033 -1.1320
  111MOL0     C15221   8.871   5.574   7.667 -0.2587  1.0356 -0.6097
  111MOL0     C15222   9.011   5.626   7.636  0.3282 -0.4960  0.3542
  111MOL0     C15223   9.051   5.595   7.499  0.2362  0.4752 -0.0225
  111MOL0     C15224   9.176   5.664   7.467 -0.3723  0.3393 -0.8988
  111MOL0    Cl15225   9.148   5.838   7.420  0.3018  0.2529  0.2904
  111MOL0     C15226   8.147   5.546   7.883 -0.0162  0.2736  0.9414
  111MOL0     C15227   8.023   5.506   7.899  0.1226  0.1114  0.4444
  111MOL0     O15228   7.790   5.439   8.069  0.1612 -0.3814  0.2736
  111MOL0     C15229   7.565   5.268   7.840  0.2090  0.4697 -0.5797
  111MOL0     C15230   7.436   5.218   7.820  0.0227 -0.1030 -0.9468
  111MOL0     N15231   7.372   4.654   7.929  0.8178 -0.2594 -0.2891
  111MOL0     N15232   7.493   4.666   7.967  0.0773  0.9156 -0.1181
  111MOL0     C15233   8.450   5.339   8.255 -0.0383  1.3856  0.0142
  111MOL0     C15234   8.557   5.398   8.178  0.8859  0.1980 -0.1668
  111MOL0     C15235   8.960   5.636   8.107  0.9581  0.4372 -0.5079
  111MOL0     C15236   8.928   5.746   8.032 -0.2180  0.5283  0.8879
  111MOL0     C15237   9.021   5.813   7.949  0.4091 -0.5939 -0.4382
  111MOL0     C15238   9.148   5.765   7.939 -0.6571  0.1068 -0.3768
  111MOL0     O15239   9.246   5.820   7.862  0.3107 -0.1186  0.0937
  111MOL0     C15240   9.230   5.947   7.805 -0.0742  0.0624 -0.5467
  111MOL0     C15241   9.367   5.983   7.745  0.7709  0.1708  0.9252
  111MOL0     C15242   9.401   6.124   7.701  0.2251 -0.8177  1.0393
  111MOL0     C15243   9.349   6.153   7.561  0.2562  0.0718  0.4242
  111MOL0     C15244   9.439   6.260   7.514  0.3959  0.2927  0.5534
  111MOL0     C15245   9.514   6.359   7.497  0.2569  0.0020  0.1167
  111MOL0     C15246   9.182   5.651   8.014 -0.4937  0.2676  0.8029
  111MOL0     C15247   9.091   5.585   8.092 -0.3471 -0.4524 -0.1090
  111MOL0     C15248   9.128   5.447   8.133 -0.5459  0.6321  0.7094
  111MOL0     H15249   8.676   5.591   8.419 -1.2344 -0.2096  0.4518
  111MOL0     H15250   8.488   5.503   8.542 -1.3815 -0.3508  0.0020
  111MOL0     H15251   8.179   5.355   8.303  0.4618 -1.1833 -1.0009
  111MOL0     H15252   8.104   5.289   8.447 -0.3725 -0.8551 -0.6166
  111MOL0     H15253   8.277   5.098   8.287  1.6652  3.6272  0.0864
  111MOL0     H15254   8.153   5.063   8.410 -1.3334 -1.1007 -1.3128
  111MOL0     H15255   7.971   5.158   8.290  1.6710  1.1501  2.5959
  111MOL0     H15256   8.082   5.194   8.149 -1.3653  0.4694  0.8380
  111MOL0     H15257   8.122   4.937   8.136  1.5240 -0.5024  0.9163
  111MOL0     H15258   8.015   4.916   8.273  0.1349  0.5172  0.9257
  111MOL0     H15259   7.941   4.927   8.001 -1.1268  0.1162  0.0792
  111MOL0     H15260   7.890   5.085   8.058  2.0547  0.8623 -0.5959
  111MOL0     H15261   7.817   4.830   8.195  0.0695 -0.4174  0.3595
  111MOL0     H15262   7.754   4.988   8.249  0.4183 -0.3548  0.3861
  111MOL0     H15263   7.632   5.017   8.040  0.5997 -0.3890 -1.8771
  111MOL0     H15264   7.598   4.875   8.142  0.5510  0.0269  0.4003
  111MOL0     H15265   7.724   4.871   7.858 -1.4194  0.6307 -0.1954
  111MOL0     H15266   7.753   4.742   7.964  0.6783 -0.1647 -2.1120
  111MOL0     H15267   7.472   4.900   7.742 -1.5446 -0.2687 -0.4629
  111MOL0     H15268   7.178   4.686   7.712 -1.6628  0.6699  1.3283
  111MOL0     H15269   7.222   4.854   7.695 -1.2973 -0.3264 -0.4893
  111MOL0     H15270   7.005   4.829   7.820  0.8063 -0.6600  0.2430
  111MOL0     H15271   7.089   4.747   7.941  0.5203  0.2726  1.4293
  111MOL0     H15272   7.046   4.971   8.001 -1.4558 -2.0845 -0.5105
  111MOL0     H15273   7.211   4.939   8.008  0.8491  0.6625  0.3822
  111MOL0     H15274   7.237   5.053   7.769  0.6994 -0.8857  1.3912
  111MOL0     H15275   7.078   5.111   7.792  0.0723 -1.5398 -1.5291
  111MOL0     H15276   7.309   5.268   8.130 -0.9927  0.3024 -0.1235
  111MOL0     H15277   7.487   5.358   8.281  0.8627  1.3156  2.3003
  111MOL0     H15278   7.591   5.474   8.215  0.6316 -0.4291 -0.0379
  111MOL0     H15279   7.648   5.311   8.259 -0.6310 -0.8194  0.5798
  111MOL0     H15280   8.057   5.171   7.855 -2.1880  0.1459  0.2443
  111MOL0     H15281   8.284   5.242   7.817  0.2499 -0.4895  0.4443
  111MOL0     H15282   8.378   5.654   7.718  0.8057  0.0301 -0.5817
  111MOL0     H15283   8.382   5.666   7.900  2.1531  1.7913 -0.9420
  111MOL0     H15284   8.613   5.714   7.841 -1.7115  0.4855  0.1915
  111MOL0     H15285   8.622   5.533   7.858 -0.8322 -2.3979 -2.5856
  111MOL0     H15286   8.536   5.663   7.594 -2.0584 -1.2374  1.0708
  111MOL0     H15287   8.601   5.507   7.631 -2.4808  0.2388 -1.3233
  111MOL0     H15288   8.771   5.765   7.672  1.6808  0.0916 -2.3735
  111MOL0     H15289   8.755   5.694   7.519 -0.9832  1.7592 -0.5793
  111MOL0     H15290   8.864   5.542   7.772 -0.3198 -1.5167 -1.3120
  111MOL0     H15291   8.863   5.478   7.616  2.2535  1.6498 -2.3598
  111MOL0     H15292   9.091   5.584   7.697  1.8944  0.3134 -1.0667
  111MOL0     H15293   9.021   5.734   7.649  0.3478 -0.6207  1.4574
  111MOL0     H15294   8.974   5.617   7.425 -0.9219  0.0271  1.0041
  111MOL0     H15295   9.073   5.488   7.506  0.8549  0.6422  0.7823
  111MOL0     H15296   9.215   5.619   7.375 -0.6131 -2.7226  0.3667
  111MOL0     H15297   9.252   5.646   7.544 -1.3178 -2.6922 -0.5380
  111MOL0     H15298   8.159   5.653   7.897 -3.4970  0.5845  2.6868
  111MOL0     H15299   7.940   5.577   7.909 -0.0506  0.2087 -1.4359
  111MOL0     H15300   7.627   5.284   7.752  0.1399  3.4303 -0.1724
  111MOL0     H15301   7.397   5.182   7.726 -0.0636 -0.1065 -0.9100
  111MOL0     H15302   8.398   5.250   8.222 -1.4003  1.4260  1.8397
  111MOL0     H15303   8.577   5.360   8.078  1.6506 -1.1341  0.4768
  111MOL0     H15304   8.827   5.786   8.032  0.6892  2.9942  1.0926
  111MOL0     H15305   9.005   5.907   7.898  1.1570 -0.2089  0.0131
  111MOL0     H15306   9.152   5.949   7.729 -1.6583 -3.1843  0.7785
  111MOL0     H15307   9.204   6.020   7.881 -0.3846 -2.0807  1.5338
  111MOL0     H15308   9.375   5.914   7.660 -0.1372 -0.1170  1.0629
  111MOL0     H15309   9.434   5.950   7.825  2.2238 -1.1956 -0.7806
  111MOL0     H15310   9.361   6.190   7.778  0.6498 -0.4623  0.9552
  111MOL0     H15311   9.510   6.130   7.706  0.2989  0.6342 -0.9878
  111MOL0     H15312   9.248   6.194   7.566  0.5662  0.7392  1.7896
  111MOL0     H15313   9.343   6.067   7.493  0.6104  0.7975 -0.5463
  111MOL0     H15314   9.563   6.454   7.489 -0.0678  0.3226  1.5892
  111MOL0     H15315   9.281   5.613   7.994 -0.9763  0.0270 -1.3932
  111MOL0     H15316   9.043   5.382   8.157 -0.7416  0.3746 -0.5935
  111MOL0     H15317   9.171   5.385   8.054  0.9027  0.8049  1.3360
  111MOL0     H15318   9.189   5.448   8.224  0.8828  2.5649 -0.1882
  112MOL0     O15319   6.763  10.313   0.196 -0.1812  0.4029  0.0652
  112MOL0     C15320   6.750  10.379   0.093 -0.6601 -0.6103  0.9429
  112MOL0     O15321   6.850  10.434   0.016  0.0225  0.1141 -0.3251
  112MOL0     C15322   6.986  10.403   0.047  1.1672 -0.1003 -0.9243
  112MOL0     C15323   7.020  10.269   0.044  0.0930  0.3992  0.3873
  112MOL0     C15324   7.152  10.236   0.061  0.0872  0.5783  0.3409
  112MOL0     C15325   7.253  10.328   0.094 -0.2458 -0.6747  0.8820
  112MOL0     O15326   7.384  10.281   0.122  0.3706  0.3861 -0.8474
  112MOL0     C15327   7.487  10.384   0.156  0.7318  0.4993  0.1501
  112MOL0     C15328   7.600  10.330   0.250  0.5710  0.1712 -0.1799
  112MOL0     C15329   7.681  10.215   0.192 -0.0997  0.0379 -0.3272
  112MOL0     C15330   7.744  10.231   0.059 -0.5492 -0.1197  1.2840
  112MOL0     C15331   7.858  10.138   0.025 -0.4421  0.6692  0.0111
  112MOL0     C15332   7.990  10.188   0.084 -0.5208  0.2202  0.5704
  112MOL0     C15333   8.114  10.108   0.025 -0.7554  0.4097  0.4436
  112MOL0     C15334   8.237  10.131   0.128 -0.0166  0.6848 -0.2462
  112MOL0     N15335   8.317  10.259   0.110 -0.5733  0.0689 -0.2014
  112MOL0     C15336   8.420  10.305   0.187 -0.0435  0.0566 -0.2368
  112MOL0     C15337   8.444  10.426   0.137  0.0197 -0.4842 -0.1013
  112MOL0     C15338   8.537  10.515   0.200  0.0554 -0.0631 -0.1518
  112MOL0     C15339   8.679  10.487   0.158  0.5046 -0.1989  0.4430
  112MOL0     C15340   8.781  10.579   0.226 -0.0741 -0.9575  0.3852
  112MOL0     C15341   8.912  10.578   0.156 -0.2683 -0.4335  0.1226
  112MOL0     O15342   8.964  10.450   0.143 -0.6113 -0.3675  0.1081
  112MOL0     C15343   9.069  10.438   0.046  0.2365  0.6744  0.3494
  112MOL0     C15344   9.151  10.544   0.008  0.0945  0.1651 -0.3396
  112MOL0     C15345   9.253  10.514  -0.086  0.2053 -0.8649  0.0845
  112MOL0     C15346   9.345  10.632  -0.121  1.0158 -0.3561 -0.0240
  112MOL0     C15347   9.263  10.382  -0.142 -0.5760  0.1274  0.4232
  112MOL0     C15348   9.355  10.351  -0.252 -0.3878  0.1840  0.4800
  112MOL0     O15349   9.402  10.451  -0.340  0.0872  0.0415  0.2709
  112MOL0     C15350   9.490  10.426  -0.439  0.0590 -0.8305  0.9363
  112MOL0     C15351   9.477  10.507  -0.550  0.3993  0.1017  0.3755
  112MOL0     C15352   9.569  10.492  -0.659  0.1784 -0.0985  0.5351
  112MOL0     C15353   9.673  10.405  -0.649  0.8217  0.1666 -0.8363
  112MOL0     O15354   9.778  10.382  -0.738  0.4969 -0.5509  0.4610
  112MOL0     C15355   9.785  10.460  -0.862  0.1285  0.6759  0.2862
  112MOL0     C15356   9.934  10.478  -0.924 -0.2047  0.1261  0.2413
  112MOL0     C15357   9.923  10.556  -1.057  0.0332  0.1929 -0.0897
  112MOL0     C15358  10.061  10.575  -1.122 -0.2844 -0.3109 -0.2629
  112MOL0     C15359  10.042  10.616  -1.272  0.1104 -0.4647  0.1320
  112MOL0     C15360  10.187  10.651  -1.337 -0.1625 -0.7434 -0.0693
  112MOL0     C15361  10.175  10.672  -1.484  0.0092 -0.3505  0.0931
  112MOL0     C15362  10.304  10.710  -1.553  0.4051 -0.1479 -0.5531
  112MOL0    Cl15363  10.452  10.636  -1.477  0.2537  0.5373 -0.3606
  112MOL0     C15364   9.690  10.329  -0.542  0.1407  1.0159 -0.5856
  112MOL0     C15365   9.588  10.330  -0.442 -0.2554  0.1645 -0.1643
  112MOL0     O15366   9.376  10.232  -0.272 -0.6711  0.3783  0.5401
  112MOL0     C15367   9.174  10.280  -0.094  0.5816  0.3873 -0.1920
  112MOL0     C15368   9.073  10.312  -0.004  0.1630 -0.2965  0.3021
  112MOL0     N15369   8.369  10.450   0.026  0.6047  0.2069 -0.6055
  112MOL0     N15370   8.300  10.343   0.005 -0.7874  0.1807 -0.1559
  112MOL0     C15371   7.209  10.468   0.091  0.4520  0.8096 -0.5954
  112MOL0     C15372   7.076  10.497   0.075 -0.4977 -0.1111  0.4048
  112MOL0     C15373   6.612  10.388   0.052  0.7823 -0.5318 -0.0832
  112MOL0     C15374   6.521  10.453   0.129  0.3342 -0.7845 -0.4222
  112MOL0     C15375   6.387  10.477   0.092 -0.6165 -0.0726  1.0494
  112MOL0     C15376   6.338  10.442  -0.034  0.1864 -0.6552 -0.3917
  112MOL0     O15377   6.212  10.464  -0.084  0.0035  1.2472  0.7313
  112MOL0     C15378   6.106  10.515   0.002 -0.1162  0.1848 -0.6175
  112MOL0     C15379   6.064  10.423   0.120  0.4844  0.7018  0.5811
  112MOL0     C15380   5.988  10.308   0.052  0.4661  0.2303  0.4832
  112MOL0     C15381   5.920  10.217   0.160 -0.2220  0.4554 -0.4171
  112MOL0     C15382   5.841  10.307   0.240  0.6822 -0.1105  0.3106
  112MOL0     C15383   5.782  10.384   0.318  0.0962  0.6332  0.7129
  112MOL0     C15384   6.433  10.361  -0.112 -0.8162 -0.7497  0.1339
  112MOL0     C15385   6.571  10.339  -0.073  1.2207  0.0059  0.4976
  112MOL0     C15386   6.660  10.252  -0.152  0.4283 -0.5037 -0.2614
  112MOL0     H15387   6.945  10.196   0.016 -1.6727  2.9680 -2.3772
  112MOL0     H15388   7.193  10.140   0.032  1.1545  0.5050  1.9418
  112MOL0     H15389   7.445  10.464   0.218  0.6824 -1.2276  2.4711
  112MOL0     H15390   7.531  10.414   0.061 -0.2133  1.5929  0.0225
  112MOL0     H15391   7.669  10.408   0.284 -0.6528  1.8289 -1.2957
  112MOL0     H15392   7.554  10.293   0.341  1.3178 -1.1242 -0.3152
  112MOL0     H15393   7.765  10.189   0.257  0.4959 -1.0580 -1.4901
  112MOL0     H15394   7.630  10.119   0.188  0.1848 -0.0801 -1.5013
  112MOL0     H15395   7.674  10.227  -0.024  0.6267 -1.1776  0.3125
  112MOL0     H15396   7.789  10.331   0.052  2.4558 -1.4480  0.1772
  112MOL0     H15397   7.867  10.145  -0.084  1.1558  0.6893  0.1148
  112MOL0     H15398   7.837  10.036   0.059 -0.0730  1.0419  1.4255
  112MOL0     H15399   7.994  10.296   0.064 -1.0401  0.0105 -0.7724
  112MOL0     H15400   7.968  10.172   0.190  0.8962 -0.5608  0.7726
  112MOL0     H15401   8.148  10.139  -0.074  0.1361 -1.5688  0.0865
  112MOL0     H15402   8.095  10.000   0.022 -1.0795  0.4546  0.8169
  112MOL0     H15403   8.204  10.127   0.232  2.0244 -1.7470  0.3905
  112MOL0     H15404   8.302  10.044   0.116 -0.8157  0.1909 -1.2078
  112MOL0     H15405   8.469  10.254   0.269 -1.1003  1.4605  1.3483
  112MOL0     H15406   8.535  10.513   0.309  0.7227 -1.4938 -0.1351
  112MOL0     H15407   8.505  10.615   0.169  0.8516  0.8867  1.8836
  112MOL0     H15408   8.707  10.382   0.173  2.2841 -0.5113 -3.5294
  112MOL0     H15409   8.688  10.517   0.053 -0.7395 -1.5587 -0.0873
  112MOL0     H15410   8.733  10.677   0.220  0.5994 -0.6421 -0.0053
  112MOL0     H15411   8.795  10.551   0.331  2.3562  2.0258  0.9983
  112MOL0     H15412   8.891  10.608   0.053 -1.6751  1.4069  0.8938
  112MOL0     H15413   8.983  10.647   0.202 -0.6750  0.7764 -0.9997
  112MOL0     H15414   9.138  10.647   0.039  0.4337  0.0790  0.1031
  112MOL0     H15415   9.448  10.600  -0.139  1.3614  2.4848 -5.1694
  112MOL0     H15416   9.345  10.708  -0.042 -0.2515 -2.0303  1.6823
  112MOL0     H15417   9.316  10.679  -0.215  0.3893 -0.4476  0.1226
  112MOL0     H15418   9.391  10.572  -0.533 -3.8958 -4.9817  0.7727
  112MOL0     H15419   9.549  10.558  -0.743  0.3669 -0.0119  0.5574
  112MOL0     H15420   9.725  10.414  -0.942  0.6963  0.2366  0.1015
  112MOL0     H15421   9.746  10.559  -0.839  1.6584  1.6773 -1.1521
  112MOL0     H15422   9.987  10.539  -0.851 -1.2419 -0.0354  1.1426
  112MOL0     H15423   9.978  10.378  -0.936 -0.3639 -0.2736  2.5571
  112MOL0     H15424   9.872  10.650  -1.035  0.0653  0.0142  0.7471
  112MOL0     H15425   9.860  10.504  -1.130  0.2142  0.4080 -0.4003
  112MOL0     H15426  10.120  10.483  -1.125 -0.0205 -0.1239 -1.6540
  112MOL0     H15427  10.121  10.647  -1.067  2.3273 -0.5143 -2.6180
  112MOL0     H15428  10.003  10.531  -1.328  0.1899 -0.9020  0.7290
  112MOL0     H15429   9.975  10.702  -1.276 -2.5205 -2.3818  0.7427
  112MOL0     H15430  10.253  10.564  -1.325  1.5455  0.4575 -0.2741
  112MOL0     H15431  10.238  10.734  -1.287 -0.8999  0.2615 -0.9427
  112MOL0     H15432  10.101  10.748  -1.510  2.2830  0.8075 -3.7288
  112MOL0     H15433  10.143  10.580  -1.533  0.4072 -0.5596  0.2210
  112MOL0     H15434  10.323  10.818  -1.550  2.4928 -0.4637 -1.1198
  112MOL0     H15435  10.298  10.663  -1.651 -1.4110  2.5824 -1.8803
  112MOL0     H15436   9.765  10.250  -0.536 -1.9413 -1.3563 -3.0064
  112MOL0     H15437   9.580  10.250  -0.369 -4.7249 -0.1725 -0.7545
  112MOL0     H15438   9.190  10.179  -0.129 -0.1522 -0.6362  2.1758
  112MOL0     H15439   9.004  10.235   0.032  0.0549  1.0297  3.1888
  112MOL0     H15440   7.277  10.551   0.104 -0.6740  1.5242  0.9882
  112MOL0     H15441   7.061  10.605   0.078 -2.0628  0.1474 -5.1340
  112MOL0     H15442   6.550  10.486   0.229  0.6522 -0.6231 -0.5666
  112MOL0     H15443   6.317  10.527   0.158 -1.5686  2.1313 -1.4663
  112MOL0     H15444   6.152  10.594   0.061  1.3579 -1.4590  0.5690
  112MOL0     H15445   6.015  10.547  -0.049  1.5258  2.8293 -2.1328
  112MOL0     H15446   5.994  10.484   0.178 -0.8348 -0.2313  0.0209
  112MOL0     H15447   6.153  10.399   0.179  1.4138  1.9223 -0.2615
  112MOL0     H15448   5.907  10.351  -0.008 -0.5757 -1.0455  0.9215
  112MOL0     H15449   6.059  10.251  -0.008 -0.5550 -0.2747 -0.2831
  112MOL0     H15450   5.998  10.184   0.230 -0.7544  1.1575  0.5413
  112MOL0     H15451   5.871  10.123   0.137 -0.3830 -0.0856  1.8357
  112MOL0     H15452   5.735  10.433   0.401  2.3367 -0.9926  3.1290
  112MOL0     H15453   6.396  10.310  -0.200 -1.3463 -0.0132 -0.0838
  112MOL0     H15454   6.629  10.245  -0.256 -2.2706  0.4070  0.4005
  112MOL0     H15455   6.762  10.290  -0.157  1.5339 -3.2530 -0.5468
  112MOL0     H15456   6.659  10.154  -0.104 -0.4653 -1.0078 -1.2791
  113MOL0     O15457   0.128  11.015  10.922 -0.0016  0.5356 -0.2409
  113MOL0     C15458   0.119  10.907  10.852 -0.3326 -0.4125  0.0927
  113MOL0     O15459   0.018  10.824  10.831 -0.2191 -0.1604 -1.0888
  113MOL0     C15460  -0.103  10.865  10.882  0.3652  0.4443  0.5429
  113MOL0     C15461  -0.187  10.956  10.818 -0.5648 -0.3738  0.4668
  113MOL0     C15462  -0.299  11.011  10.886 -0.8483  0.2119 -0.2253
  113MOL0     C15463  -0.354  10.939  10.999 -0.4704  0.4348  0.7527
  113MOL0     O15464  -0.469  10.983  11.057 -0.8841  0.7245 -0.0137
  113MOL0     C15465  -0.566  10.878  11.090 -0.2327 -0.3273  0.9988
  113MOL0     C15466  -0.696  10.941  11.042 -0.4442  0.4835 -0.3705
  113MOL0     C15467  -0.826  10.882  11.106 -0.6565  0.6717 -0.2252
  113MOL0     C15468  -0.829  10.900  11.266 -1.2938  0.2838  0.7720
  113MOL0     C15469  -0.945  10.816  11.334  0.0059 -0.4880  0.5525
  113MOL0     C15470  -0.955  10.829  11.493 -0.1622 -0.5924  0.0387
  113MOL0     C15471  -1.076  10.741  11.534 -0.2859 -0.5513 -0.7341
  113MOL0     C15472  -1.085  10.745  11.691 -0.1887 -0.1162  1.6279
  113MOL0     N15473  -1.216  10.680  11.727 -1.0472 -0.7687  0.3372
  113MOL0     C15474  -1.234  10.610  11.843  0.3725 -0.2694  0.4927
  113MOL0     C15475  -1.368  10.589  11.845  0.3101  0.0545  0.4500
  113MOL0     C15476  -1.449  10.506  11.949  0.0303  0.8582 -0.0432
  113MOL0     C15477  -1.452  10.352  11.927 -0.2171 -0.4555 -0.3491
  113MOL0     C15478  -1.498  10.317  11.783 -0.5165  0.8308 -0.2115
  113MOL0     C15479  -1.511  10.166  11.747 -0.2632  0.1999  0.6772
  113MOL0     O15480  -1.388  10.099  11.762 -0.7850 -0.3564  0.4753
  113MOL0     C15481  -1.297  10.069  11.673 -0.4541 -0.1906  0.0468
  113MOL0     C15482  -1.174  10.013  11.715  0.3942 -0.2060  0.1700
  113MOL0     C15483  -1.069   9.975  11.623 -0.1499 -0.6710 -0.5923
  113MOL0     C15484  -0.955   9.918  11.694  0.0595 -0.5812  0.8570
  113MOL0     C15485  -1.092   9.986  11.481  0.7627 -0.3615 -0.6547
  113MOL0     C15486  -0.991   9.959  11.383 -0.4409  0.5829  0.6716
  113MOL0     O15487  -0.996  10.052  11.283 -0.2655 -0.3896  0.0224
  113MOL0     C15488  -0.891  10.056  11.191 -0.0472 -0.7205 -0.0636
  113MOL0     C15489  -0.752  10.070  11.230  0.5992 -0.0425  0.0420
  113MOL0     C15490  -0.646  10.077  11.136 -0.0166  0.9394 -0.0527
  113MOL0     C15491  -0.682  10.083  10.996 -0.1732 -0.0346 -0.8729
  113MOL0     O15492  -0.576  10.091  10.904 -0.2318  0.2303 -0.6537
  113MOL0     C15493  -0.598  10.100  10.759 -0.5554 -0.1300  0.0466
  113MOL0     C15494  -0.473  10.141  10.689 -0.4239  0.1578  1.0547
  113MOL0     C15495  -0.496  10.145  10.534  0.3587  0.1595  1.0601
  113MOL0     C15496  -0.363  10.178  10.463  0.0913  0.6369 -0.4703
  113MOL0     C15497  -0.364  10.159  10.309 -0.1018 -0.6162  0.6638
  113MOL0     C15498  -0.224  10.178  10.258  0.8744 -0.7578  0.2373
  113MOL0     C15499  -0.216  10.159  10.107 -0.8240  0.1213 -0.1826
  113MOL0     C15500  -0.092  10.222  10.060  0.3672 -0.4259  0.0984
  113MOL0    Cl15501   0.044  10.137  10.124  0.0198  0.3868  0.2955
  113MOL0     C15502  -0.817  10.064  10.962  0.0429  0.5087  1.1773
  113MOL0     C15503  -0.924  10.054  11.049  0.2984  0.2078 -0.3440
  113MOL0     O15504  -0.903   9.872  11.400  0.1695 -0.2440 -0.1485
  113MOL0     C15505  -1.208  10.065  11.452  0.0790  1.0359 -0.0466
  113MOL0     C15506  -1.308  10.101  11.546  0.6428 -0.1527  0.5240
  113MOL0     N15507  -1.431  10.667  11.753 -0.6302  0.0870 -0.8507
  113MOL0     N15508  -1.338  10.723  11.679 -0.1574 -0.0534 -0.4528
  113MOL0     C15509  -0.282  10.830  11.049 -0.0186 -0.0302  0.7036
  113MOL0     C15510  -0.154  10.799  10.998 -0.5152  0.5140  0.5292
  113MOL0     C15511   0.226  10.905  10.751 -0.4051  0.1640 -0.9430
  113MOL0     C15512   0.186  10.887  10.611  0.6031 -0.6268 -0.5858
  113MOL0     C15513   0.274  10.890  10.508  0.0330 -0.2280 -0.9851
  113MOL0     C15514   0.411  10.907  10.532 -0.4166  0.7865 -0.8067
  113MOL0     O15515   0.489  10.914  10.420 -0.0186  0.6019 -0.4639
  113MOL0     C15516   0.575  11.031  10.414  1.1082  0.4653 -0.2602
  113MOL0     C15517   0.646  11.034  10.278 -0.1336 -0.5873 -0.0640
  113MOL0     C15518   0.797  11.076  10.289 -0.1194 -0.8812 -0.5028
  113MOL0     C15519   0.890  10.953  10.305 -0.6613 -0.2041  0.0242
  113MOL0     C15520   1.029  10.978  10.360  0.8765  0.2907 -0.2648
  113MOL0     C15521   1.135  10.991  10.408 -0.8685  0.4706 -0.8078
  113MOL0     C15522   0.455  10.919  10.666  0.2780 -0.3477 -0.1787
  113MOL0     C15523   0.367  10.919  10.771 -0.3451 -0.3458 -0.2184
  113MOL0     C15524   0.420  10.941  10.910  0.5008 -1.0069 -0.2021
  113MOL0     H15525  -0.174  11.004  10.721 -1.6744 -0.9205  0.0327
  113MOL0     H15526  -0.357  11.092  10.843  1.1001  0.7090 -2.1140
  113MOL0     H15527  -0.557  10.851  11.195 -0.5831  3.2567  2.1025
  113MOL0     H15528  -0.558  10.788  11.029 -1.2509  1.6227 -2.2748
  113MOL0     H15529  -0.691  11.045  11.075  3.2680 -0.2240  1.7665
  113MOL0     H15530  -0.692  10.932  10.933 -0.4175 -0.2750 -0.3161
  113MOL0     H15531  -0.905  10.920  11.040 -0.2297 -1.6939 -2.2596
  113MOL0     H15532  -0.819  10.778  11.072  0.1791  0.2529  1.1311
  113MOL0     H15533  -0.737  10.874  11.319 -1.6216  0.0385  1.2270
  113MOL0     H15534  -0.845  11.008  11.270  1.5658  1.0057 -2.4314
  113MOL0     H15535  -0.930  10.710  11.311  2.7107 -0.5148  1.9923
  113MOL0     H15536  -1.037  10.854  11.288  0.2665 -1.2528 -0.6301
  113MOL0     H15537  -0.863  10.792  11.539  2.2283 -1.7211 -4.9851
  113MOL0     H15538  -0.971  10.937  11.503  0.9872 -0.4419  0.3500
  113MOL0     H15539  -1.077  10.634  11.512  1.0675 -0.7770  0.1669
  113MOL0     H15540  -1.170  10.790  11.504 -1.8023 -1.3581  2.2987
  113MOL0     H15541  -0.996  10.697  11.730  0.3335  0.2225  0.8835
  113MOL0     H15542  -1.086  10.850  11.722  2.1077  0.9076 -1.2083
  113MOL0     H15543  -1.163  10.584  11.920  0.1953 -3.9563 -0.3820
  113MOL0     H15544  -1.555  10.530  11.943 -0.4315 -1.1528 -0.7928
  113MOL0     H15545  -1.403  10.530  12.045 -2.6669  2.2571  1.0079
  113MOL0     H15546  -1.347  10.322  11.941  0.5542  2.1098 -0.2174
  113MOL0     H15547  -1.516  10.310  12.005 -1.5852  1.3369 -0.4625
  113MOL0     H15548  -1.587  10.373  11.754  0.0090  1.4136 -0.7036
  113MOL0     H15549  -1.419  10.360  11.721  1.3095 -0.5657  1.0185
  113MOL0     H15550  -1.571  10.112  11.821  2.2796  1.0094  3.5513
  113MOL0     H15551  -1.544  10.154  11.643 -2.6677  0.4309  1.3523
  113MOL0     H15552  -1.164   9.987  11.820  1.1385 -0.5932  0.0141
  113MOL0     H15553  -0.953   9.810  11.673  1.0099 -0.6123  1.0427
  113MOL0     H15554  -0.960   9.933  11.802 -1.3586  2.2332  0.4794
  113MOL0     H15555  -0.860   9.964  11.666 -0.2009 -0.4432  0.1833
  113MOL0     H15556  -0.728  10.080  11.335  2.1600 -2.3984 -0.0439
  113MOL0     H15557  -0.545  10.089  11.174 -1.1235  0.9170  3.1067
  113MOL0     H15558  -0.630  10.002  10.722  0.9474 -0.9128  0.7207
  113MOL0     H15559  -0.677  10.173  10.740 -0.6270 -0.0318  0.7051
  113MOL0     H15560  -0.448  10.244  10.718  0.2368  0.3181  0.0027
  113MOL0     H15561  -0.390  10.076  10.718  1.1409  2.5315  2.2307
  113MOL0     H15562  -0.580  10.211  10.509  0.9401  0.9983  1.2853
  113MOL0     H15563  -0.529  10.049  10.491 -3.6805  1.4363  0.8832
  113MOL0     H15564  -0.285  10.111  10.499 -0.0479  0.0932 -1.1612
  113MOL0     H15565  -0.323  10.277  10.489 -0.8768  0.9122  0.0476
  113MOL0     H15566  -0.392  10.055  10.288  0.7652 -2.0447  5.4177
  113MOL0     H15567  -0.426  10.233  10.257 -0.0487 -1.0727 -0.0724
  113MOL0     H15568  -0.155  10.104  10.300  1.0066 -1.5194 -1.2257
  113MOL0     H15569  -0.194  10.279  10.284  1.2270 -0.3177 -1.6908
  113MOL0     H15570  -0.305  10.208  10.065 -0.2516  0.2610 -1.2649
  113MOL0     H15571  -0.215  10.051  10.088 -0.8343 -0.3027  1.9180
  113MOL0     H15572  -0.084  10.326  10.095 -2.6524  0.1090 -0.4519
  113MOL0     H15573  -0.097  10.219   9.951  1.3539 -4.5199  0.0414
  113MOL0     H15574  -0.847  10.052  10.859 -1.1437 -0.5449  1.6309
  113MOL0     H15575  -1.032  10.054  11.033 -1.0053  1.4309  5.6684
  113MOL0     H15576  -1.231  10.083  11.347 -2.7919 -1.7172 -0.0421
  113MOL0     H15577  -1.399  10.141  11.503  0.9307  0.6089  0.6125
  113MOL0     H15578  -0.327  10.780  11.134 -1.1841 -0.1182  0.0664
  113MOL0     H15579  -0.099  10.724  11.054  0.3012 -0.6714 -1.7173
  113MOL0     H15580   0.080  10.868  10.595  0.3185  0.1539  0.3076
  113MOL0     H15581   0.237  10.873  10.407 -3.6425  2.8309 -0.3902
  113MOL0     H15582   0.510  11.117  10.434 -0.7206 -1.4399  2.9503
  113MOL0     H15583   0.649  11.036  10.495 -1.5370  2.2499  2.2513
  113MOL0     H15584   0.594  11.105  10.214  0.5838  0.6798  0.7209
  113MOL0     H15585   0.661  10.941  10.222  0.3723 -1.9132  2.1373
  113MOL0     H15586   0.825  11.129  10.197  0.7246  2.5643  1.5474
  113MOL0     H15587   0.807  11.147  10.372  2.8048  0.5268 -1.9051
  113MOL0     H15588   0.905  10.918  10.202 -0.6823  0.8273 -0.3402
  113MOL0     H15589   0.847  10.885  10.380  1.1657 -0.2086  1.1241
  113MOL0     H15590   1.234  10.998  10.450 -0.3423  0.0329 -1.9189
  113MOL0     H15591   0.560  10.924  10.692  0.6930  1.4926 -1.9482
  113MOL0     H15592   0.361  10.881  10.980  0.0694  0.0208  0.3332
  113MOL0     H15593   0.526  10.915  10.916  1.2655  1.9870  1.0307
  113MOL0     H15594   0.401  11.044  10.939 -0.0719 -1.5065  1.3056
  114MOL0     O15595   1.947   9.430   2.160  0.6134 -0.3200 -0.2102
  114MOL0     C15596   1.841   9.397   2.211  0.6524  0.4663  0.4928
  114MOL0     O15597   1.832   9.317   2.317  0.0971 -0.4925  0.6537
  114MOL0     C15598   1.951   9.254   2.357 -0.0599 -0.1455  0.9105
  114MOL0     C15599   1.992   9.137   2.291 -0.3813  0.2740  1.7903
  114MOL0     C15600   2.098   9.066   2.333  0.1563 -0.2617 -1.3469
  114MOL0     C15601   2.172   9.105   2.444 -0.2444 -0.4268 -0.5661
  114MOL0     O15602   2.273   9.028   2.504  0.6924  0.3428  0.3062
  114MOL0     C15603   2.372   8.969   2.413 -0.1328 -0.3640 -0.6290
  114MOL0     C15604   2.495   8.934   2.504  0.6495  0.5331  1.1302
  114MOL0     C15605   2.622   8.928   2.423  0.1099 -0.5099 -0.3957
  114MOL0     C15606   2.731   8.836   2.484 -0.2440 -0.1544 -0.1331
  114MOL0     C15607   2.696   8.682   2.475 -0.3755 -0.4062 -0.7791
  114MOL0     C15608   2.817   8.595   2.515 -0.0434  0.0827  0.9464
  114MOL0     C15609   2.799   8.444   2.489  0.3299  0.5076  0.2421
  114MOL0     C15610   2.772   8.408   2.342  0.5477  0.4377  0.1438
  114MOL0     N15611   2.885   8.428   2.255 -0.0849  0.2453  0.1504
  114MOL0     C15612   2.962   8.319   2.222 -0.5217 -1.5605 -0.1257
  114MOL0     C15613   3.054   8.375   2.138 -0.3272 -0.9195  0.3496
  114MOL0     C15614   3.169   8.311   2.070  0.1674  0.0555  0.6476
  114MOL0     C15615   3.308   8.343   2.131 -0.8389  0.2869 -0.3330
  114MOL0     C15616   3.347   8.494   2.145  0.1782  0.2795 -1.2081
  114MOL0     C15617   3.498   8.511   2.171  0.1833 -0.3122  0.0296
  114MOL0     O15618   3.565   8.528   2.044 -1.0863 -0.2202  0.2142
  114MOL0     C15619   3.556   8.645   1.974  0.0963 -0.0413  0.3058
  114MOL0     C15620   3.602   8.656   1.845  0.9589 -0.3247  0.2687
  114MOL0     C15621   3.574   8.763   1.766 -0.0256 -0.6784  0.0326
  114MOL0     C15622   3.640   8.756   1.625 -0.4063  0.4985 -0.9087
  114MOL0     C15623   3.500   8.875   1.815 -0.5653  0.5682  0.1529
  114MOL0     C15624   3.457   8.997   1.744  0.9400  0.0111  0.1511
  114MOL0     O15625   3.334   9.042   1.792  0.1728 -0.3686  0.2434
  114MOL0     C15626   3.293   9.160   1.751  0.1849  1.0425  1.4281
  114MOL0     C15627   3.167   9.174   1.693  0.1598 -0.4083  0.9881
  114MOL0     C15628   3.122   9.299   1.650  0.3384  0.3146 -0.9226
  114MOL0     C15629   3.209   9.409   1.654  0.1212 -0.4213 -1.4858
  114MOL0     O15630   3.167   9.528   1.598 -0.3929  0.4287 -0.1510
  114MOL0     C15631   3.222   9.651   1.646  0.7919  0.1846  0.6012
  114MOL0     C15632   3.113   9.757   1.639  0.2932  0.5040 -0.3731
  114MOL0     C15633   3.068   9.794   1.495 -0.0321 -0.7096 -0.3628
  114MOL0     C15634   2.968   9.897   1.497 -0.4569  0.3316  0.0227
  114MOL0     C15635   2.813   9.866   1.522  0.4089 -0.1491  0.2696
  114MOL0     C15636   2.728   9.986   1.478 -0.3744  0.1087 -0.1000
  114MOL0     C15637   2.697   9.968   1.329 -1.3300 -0.1081 -0.3303
  114MOL0     C15638   2.622  10.096   1.276  0.1436  0.2746 -0.0878
  114MOL0    Cl15639   2.550  10.069   1.125 -0.4354 -0.3017 -0.0155
  114MOL0     C15640   3.337   9.396   1.718  0.5490  0.2818 -0.5044
  114MOL0     C15641   3.371   9.274   1.774  0.3016 -0.5078 -0.3021
  114MOL0     O15642   3.508   9.027   1.634 -0.8347  0.0342 -0.3494
  114MOL0     C15643   3.460   8.870   1.948 -0.3952  0.2124  0.3880
  114MOL0     C15644   3.473   8.753   2.023 -0.4683  0.9176  0.1718
  114MOL0     N15645   3.024   8.508   2.121  0.6653  0.0805  0.7152
  114MOL0     N15646   2.924   8.538   2.187  0.0269  0.6836 -0.5745
  114MOL0     C15647   2.133   9.223   2.511 -0.1012  1.4363  0.0842
  114MOL0     C15648   2.021   9.292   2.473  0.2008 -0.3051  0.2513
  114MOL0     C15649   1.709   9.442   2.147  0.5117  0.5046 -0.1218
  114MOL0     C15650   1.594   9.396   2.206 -0.8881  0.3150 -0.6788
  114MOL0     C15651   1.473   9.441   2.163  0.2350  0.9815  0.0093
  114MOL0     C15652   1.458   9.536   2.061  0.9500 -0.4697  0.6345
  114MOL0     O15653   1.337   9.590   2.001  0.1623 -0.4468  0.0561
  114MOL0     C15654   1.209   9.537   2.033 -0.4903  0.1481  0.2523
  114MOL0     C15655   1.141   9.598   2.152  0.7388  0.4691 -0.3295
  114MOL0     C15656   1.154   9.753   2.163  0.9793  0.7931  0.9721
  114MOL0     C15657   1.032   9.805   2.231  0.2534  0.1029  0.7494
  114MOL0     C15658   1.017   9.746   2.372 -0.6250 -0.0615  0.6394
  114MOL0     C15659   1.014   9.696   2.485  1.0466  0.1615  0.5907
  114MOL0     C15660   1.575   9.573   1.994 -0.6539 -0.2073  0.6530
  114MOL0     C15661   1.702   9.535   2.038  0.5750  0.2567 -0.9751
  114MOL0     C15662   1.815   9.575   1.952  0.2814  0.4639  0.2770
  114MOL0     H15663   1.939   9.106   2.201  0.6092  0.9768  0.9509
  114MOL0     H15664   2.119   8.978   2.274  0.3229 -0.1892 -1.3986
  114MOL0     H15665   2.393   9.030   2.324 -0.2726 -1.3542 -1.3597
  114MOL0     H15666   2.322   8.879   2.376  0.9862 -2.0746  1.7487
  114MOL0     H15667   2.497   9.016   2.577 -2.9337  0.1618  1.8453
  114MOL0     H15668   2.464   8.841   2.553 -3.1238  0.5449 -0.8101
  114MOL0     H15669   2.598   8.881   2.327 -1.7493  0.0518 -0.2370
  114MOL0     H15670   2.669   9.025   2.405  0.9443 -1.3171 -2.9870
  114MOL0     H15671   2.827   8.842   2.431 -0.7347  1.8594 -0.8702
  114MOL0     H15672   2.742   8.859   2.591  2.8353 -0.5141 -0.2872
  114MOL0     H15673   2.679   8.667   2.368 -0.9021  0.2728 -0.7940
  114MOL0     H15674   2.604   8.665   2.532 -0.3502  0.9042 -0.3200
  114MOL0     H15675   2.901   8.633   2.456 -0.5174 -2.5096 -1.6221
  114MOL0     H15676   2.842   8.607   2.621  2.4370 -0.8806  0.5413
  114MOL0     H15677   2.714   8.408   2.548  0.8125 -3.6298 -1.2082
  114MOL0     H15678   2.887   8.386   2.519 -0.4291 -0.1224  1.2959
  114MOL0     H15679   2.746   8.302   2.336  0.3480  0.5725 -2.3457
  114MOL0     H15680   2.675   8.456   2.323 -0.1807 -0.6907  0.8916
  114MOL0     H15681   2.961   8.218   2.263  0.0184 -0.8296  1.7727
  114MOL0     H15682   3.164   8.333   1.963  3.9425  1.0764  0.5410
  114MOL0     H15683   3.162   8.202   2.075  0.8563 -0.0188  0.1760
  114MOL0     H15684   3.308   8.297   2.231  1.7322  0.7299 -0.0694
  114MOL0     H15685   3.379   8.288   2.068 -2.2137  0.3279 -1.9951
  114MOL0     H15686   3.311   8.546   2.056 -2.7887 -0.2887 -0.4671
  114MOL0     H15687   3.288   8.525   2.232  0.9450  0.2476 -0.6687
  114MOL0     H15688   3.519   8.602   2.228  0.0993  1.0427 -1.9905
  114MOL0     H15689   3.531   8.415   2.212 -0.6714 -0.6835 -0.1444
  114MOL0     H15690   3.650   8.570   1.800  0.8829  0.2362 -0.9087
  114MOL0     H15691   3.558   8.778   1.556 -2.1950 -3.1791 -0.2049
  114MOL0     H15692   3.669   8.654   1.599 -0.5400 -0.3287  1.8740
  114MOL0     H15693   3.724   8.823   1.604 -0.4249  0.2589 -1.8031
  114MOL0     H15694   3.100   9.088   1.685 -1.4627  0.7326  1.6710
  114MOL0     H15695   3.025   9.309   1.601 -0.0708 -1.8810 -0.6687
  114MOL0     H15696   3.252   9.651   1.752 -1.0873  0.8322  1.1748
  114MOL0     H15697   3.305   9.674   1.579  0.3271  1.4504  0.4312
  114MOL0     H15698   3.019   9.727   1.687 -1.0020  1.1150 -2.3877
  114MOL0     H15699   3.145   9.845   1.695 -0.4803 -0.6369  2.0016
  114MOL0     H15700   3.024   9.709   1.442  1.3705  0.0567 -2.8807
  114MOL0     H15701   3.150   9.830   1.432 -0.3181  1.8284  0.5772
  114MOL0     H15702   2.973   9.943   1.398 -0.3521 -0.9018 -0.5630
  114MOL0     H15703   2.995   9.966   1.577  0.2435 -0.7709  0.7554
  114MOL0     H15704   2.782   9.775   1.470  0.4625  0.6746 -1.2613
  114MOL0     H15705   2.811   9.844   1.630 -1.3644 -1.8034 -0.0524
  114MOL0     H15706   2.774  10.081   1.506 -1.5656  0.9667 -0.9101
  114MOL0     H15707   2.630   9.991   1.526  0.2119 -1.9862  1.4493
  114MOL0     H15708   2.635   9.879   1.338  1.4430 -1.9361  3.1199
  114MOL0     H15709   2.792   9.949   1.278 -1.1975 -1.1647  0.2747
  114MOL0     H15710   2.693  10.179   1.267  2.2250 -1.1726  1.7906
  114MOL0     H15711   2.545  10.117   1.351 -0.5998 -2.7200  0.1232
  114MOL0     H15712   3.404   9.479   1.739  0.6761  0.1826 -0.5146
  114MOL0     H15713   3.455   9.242   1.834  1.3663 -1.0364 -1.9958
  114MOL0     H15714   3.417   8.948   2.010  0.9056 -1.9200  4.3592
  114MOL0     H15715   3.423   8.755   2.119 -1.7720 -4.8022 -0.0608
  114MOL0     H15716   2.192   9.241   2.601  1.9900 -1.1906 -0.6326
  114MOL0     H15717   1.994   9.387   2.520 -0.7418 -0.5980  0.3259
  114MOL0     H15718   1.601   9.332   2.293  0.7595  2.5533  0.9698
  114MOL0     H15719   1.387   9.406   2.218  2.2958  1.1834  3.6945
  114MOL0     H15720   1.149   9.530   1.942 -2.6305 -1.4874  1.7043
  114MOL0     H15721   1.227   9.432   2.056  1.0100  0.1105 -0.8582
  114MOL0     H15722   1.185   9.559   2.244 -0.2258  2.2662  0.9353
  114MOL0     H15723   1.035   9.570   2.149  0.6417  0.3447  2.1204
  114MOL0     H15724   1.249   9.783   2.208  0.3000  0.4315  2.7497
  114MOL0     H15725   1.157   9.797   2.063 -0.0456  0.8161  0.9413
  114MOL0     H15726   0.939   9.775   2.183 -0.4244  1.3436  1.2385
  114MOL0     H15727   1.046   9.913   2.241 -0.9475  0.2248  1.2759
  114MOL0     H15728   1.004   9.639   2.575  1.3613  1.5983  1.5739
  114MOL0     H15729   1.557   9.625   1.901 -3.1622 -2.3559 -0.1853
  114MOL0     H15730   1.783   9.648   1.877 -0.8082 -1.0916 -0.8486
  114MOL0     H15731   1.898   9.616   2.009  1.0297  1.4668 -1.4629
  114MOL0     H15732   1.855   9.485   1.905 -0.6527 -0.3152  0.9232
  115MOL0     O15733  10.642   1.076   1.439  0.2281 -0.3779 -0.0517
  115MOL0     C15734  10.625   1.150   1.535 -1.0059 -0.4272  0.2385
  115MOL0     O15735  10.532   1.130   1.633 -0.9210 -0.0826 -0.4922
  115MOL0     C15736  10.462   1.017   1.634 -0.8502  0.6523 -0.7371
  115MOL0     C15737  10.531   0.893   1.661 -0.3073  0.2411 -0.4730
  115MOL0     C15738  10.468   0.772   1.695  0.0175 -0.9932 -0.4771
  115MOL0     C15739  10.326   0.783   1.690  0.5443 -0.0378 -0.1640
  115MOL0     O15740  10.261   0.664   1.709 -0.1045  0.4891  0.2346
  115MOL0     C15741  10.123   0.662   1.760  0.5851 -0.0321 -0.1666
  115MOL0     C15742  10.095   0.520   1.833  0.3812 -0.5856  0.3489
  115MOL0     C15743   9.956   0.497   1.901 -0.4428  0.4694  0.2305
  115MOL0     C15744   9.876   0.621   1.923 -0.0874 -1.0954  0.2927
  115MOL0     C15745   9.739   0.574   1.990  0.2244 -0.7387 -0.4965
  115MOL0     C15746   9.616   0.548   1.894  0.6964 -0.2977  0.3951
  115MOL0     C15747   9.478   0.541   1.968 -0.1876 -0.7588 -0.3153
  115MOL0     C15748   9.366   0.511   1.869  0.0140 -0.2855  0.2373
  115MOL0     N15749   9.365   0.374   1.805 -0.2937  0.1545  0.3748
  115MOL0     C15750   9.320   0.253   1.854  0.0869 -0.4725 -0.7585
  115MOL0     C15751   9.343   0.157   1.757 -0.0393  0.3173 -0.5196
  115MOL0     C15752   9.312   0.010   1.774  0.2740 -0.0467 -0.2957
  115MOL0     C15753   9.163  -0.019   1.750 -0.1068 -0.0137  0.1537
  115MOL0     C15754   9.069   0.008   1.872  0.3682 -0.3911 -0.5075
  115MOL0     C15755   9.056  -0.107   1.975 -0.7814  0.2945  0.2038
  115MOL0     O15756   8.982  -0.226   1.926 -0.1573  0.2399 -0.6232
  115MOL0     C15757   9.001  -0.342   1.998 -0.4178  0.0281  0.9725
  115MOL0     C15758   9.112  -0.435   1.976  0.3098  0.0135  0.6985
  115MOL0     C15759   9.135  -0.553   2.054 -1.0014  0.1525  0.0509
  115MOL0     C15760   9.213  -0.663   1.990  1.5764 -0.2002 -0.3539
  115MOL0     C15761   9.042  -0.577   2.164  0.5517 -0.7873  1.0835
  115MOL0     C15762   9.058  -0.687   2.258 -0.2917 -0.7789 -0.7359
  115MOL0     O15763   8.976  -0.675   2.372  0.3618 -0.0365 -0.0075
  115MOL0     C15764   8.969  -0.781   2.457 -0.6519 -0.6078  1.1540
  115MOL0     C15765   9.061  -0.787   2.554 -0.4901 -0.4997  0.3199
  115MOL0     C15766   9.061  -0.885   2.655 -0.2310  0.5581  0.7592
  115MOL0     C15767   8.971  -0.984   2.648 -0.3221  0.8957  0.0733
  115MOL0     O15768   8.962  -1.086   2.740 -0.8910  0.1269 -0.5955
  115MOL0     C15769   9.041  -1.081   2.859  0.6406 -0.0788  0.1913
  115MOL0     C15770   9.024  -1.209   2.948 -0.2360 -0.3888 -0.1839
  115MOL0     C15771   8.874  -1.219   2.990  0.0488  0.2501  0.2691
  115MOL0     C15772   8.835  -1.368   3.003  0.3149  0.3816 -0.0211
  115MOL0     C15773   8.696  -1.367   3.054 -0.3362  0.5928 -0.2018
  115MOL0     C15774   8.666  -1.514   3.076 -0.5742  0.2006  0.5084
  115MOL0     C15775   8.533  -1.529   3.151 -0.2911  0.3828 -0.7138
  115MOL0     C15776   8.464  -1.658   3.143  0.3324  0.4696  1.0700
  115MOL0    Cl15777   8.332  -1.648   3.249 -0.2458  0.3250 -0.4796
  115MOL0     C15778   8.885  -0.996   2.534 -0.2243  0.1528  0.0498
  115MOL0     C15779   8.876  -0.889   2.448  0.6672 -0.5160  0.2863
  115MOL0     O15780   9.125  -0.781   2.234  0.7227  0.1103  0.8108
  115MOL0     C15781   8.933  -0.484   2.188  0.6009  0.5028  0.7973
  115MOL0     C15782   8.914  -0.371   2.106 -0.2988 -0.3506  0.5118
  115MOL0     N15783   9.398   0.222   1.648  0.5113 -0.6170 -0.6633
  115MOL0     N15784   9.414   0.352   1.678 -0.5668  0.4817  0.2176
  115MOL0     C15785  10.259   0.904   1.667 -0.3387  0.8814  0.9655
  115MOL0     C15786  10.330   1.019   1.637  0.7617 -0.3058  0.8819
  115MOL0     C15787  10.712   1.266   1.561  0.1196  0.7267  0.3256
  115MOL0     C15788  10.709   1.321   1.695  0.1064 -0.0065  0.6045
  115MOL0     C15789  10.781   1.438   1.724  0.1006 -0.0822  0.6535
  115MOL0     C15790  10.858   1.505   1.629 -0.4147  0.8883 -0.2427
  115MOL0     O15791  10.915   1.621   1.672 -0.0778  0.3786 -0.3275
  115MOL0     C15792  10.998   1.691   1.580  0.2513  0.3828 -0.2501
  115MOL0     C15793  11.132   1.626   1.561  0.2667  0.4284  0.0025
  115MOL0     C15794  11.210   1.689   1.440  0.6717  0.3932  0.0977
  115MOL0     C15795  11.304   1.603   1.359 -0.4542 -0.5150 -0.3309
  115MOL0     C15796  11.410   1.549   1.450  0.2777  0.0837  0.8564
  115MOL0     C15797  11.493   1.498   1.524  0.2804 -0.8512 -0.4835
  115MOL0     C15798  10.864   1.447   1.496 -0.7524 -0.8675 -0.0617
  115MOL0     C15799  10.797   1.322   1.467 -0.1682 -0.3982  0.1346
  115MOL0     C15800  10.809   1.280   1.318  0.4417 -0.0399  0.1551
  115MOL0     H15801  10.639   0.891   1.668 -0.4112 -1.4833  2.0233
  115MOL0     H15802  10.521   0.681   1.724  0.6086 -0.6123 -0.3421
  115MOL0     H15803  10.053   0.671   1.677  0.8331 -2.9885 -0.8221
  115MOL0     H15804  10.097   0.748   1.821 -0.1074 -0.0261 -0.4657
  115MOL0     H15805  10.122   0.441   1.762  1.4922  0.5928 -0.6177
  115MOL0     H15806  10.167   0.513   1.915  0.9118  1.0983  0.0746
  115MOL0     H15807   9.902   0.419   1.848 -0.0278 -1.2284  2.1678
  115MOL0     H15808   9.978   0.460   2.002 -2.1900  1.2774  0.9446
  115MOL0     H15809   9.930   0.687   1.991 -1.7520  0.5747  0.0797
  115MOL0     H15810   9.850   0.677   1.833  0.0229  1.2579  1.6478
  115MOL0     H15811   9.709   0.653   2.059 -1.8096 -2.8778  1.2369
  115MOL0     H15812   9.759   0.489   2.057  3.0189  1.2264  1.3978
  115MOL0     H15813   9.609   0.638   1.833  1.6261 -1.4575 -1.5280
  115MOL0     H15814   9.629   0.464   1.824 -0.0383  0.9407 -1.2944
  115MOL0     H15815   9.463   0.641   2.008 -2.1232 -0.8674 -0.6743
  115MOL0     H15816   9.473   0.468   2.049  0.8421  0.7877  1.2027
  115MOL0     H15817   9.275   0.524   1.928 -0.6894  0.0767 -0.9077
  115MOL0     H15818   9.365   0.592   1.796 -0.8752  0.0495  0.6179
  115MOL0     H15819   9.278   0.242   1.954  0.0373  1.3372 -0.5431
  115MOL0     H15820   9.344  -0.017   1.875  1.1990  2.3294  0.1220
  115MOL0     H15821   9.375  -0.045   1.704  1.6854 -0.5434  1.3024
  115MOL0     H15822   9.137   0.046   1.666 -0.6412  0.6951  0.8484
  115MOL0     H15823   9.156  -0.125   1.722 -1.4513 -0.1547  0.9368
  115MOL0     H15824   9.101   0.089   1.938 -1.0499  1.5379 -2.0757
  115MOL0     H15825   8.967   0.019   1.833  0.1202 -2.0475 -0.3888
  115MOL0     H15826   9.153  -0.138   2.015 -0.2955  0.1557 -1.0357
  115MOL0     H15827   8.997  -0.071   2.061 -0.6649 -1.1219  0.8968
  115MOL0     H15828   9.170  -0.420   1.886 -0.5283  1.7393  0.3993
  115MOL0     H15829   9.148  -0.751   1.992  0.7805  0.3761  1.2918
  115MOL0     H15830   9.317  -0.671   2.022  1.0326 -0.4056  1.4750
  115MOL0     H15831   9.206  -0.641   1.883 -0.0318  1.5278  0.0580
  115MOL0     H15832   9.137  -0.711   2.551 -0.5314 -0.4784 -0.5973
  115MOL0     H15833   9.134  -0.874   2.734  2.3319  2.2262 -1.6523
  115MOL0     H15834   9.147  -1.058   2.838  0.4360  0.7213 -0.0218
  115MOL0     H15835   9.008  -0.997   2.921 -0.7544  0.4410 -1.1902
  115MOL0     H15836   9.053  -1.301   2.897 -3.8107 -1.3918 -0.6571
  115MOL0     H15837   9.083  -1.181   3.036  0.0384 -2.2159  0.2571
  115MOL0     H15838   8.805  -1.173   2.919  1.2270 -2.0373 -2.5701
  115MOL0     H15839   8.866  -1.163   3.084  2.2125  0.3826  0.4196
  115MOL0     H15840   8.908  -1.418   3.067  1.0958  2.1868  0.5522
  115MOL0     H15841   8.843  -1.428   2.912  0.2852 -1.1316  0.9312
  115MOL0     H15842   8.688  -1.320   3.152 -2.2804 -0.5545  0.2665
  115MOL0     H15843   8.622  -1.327   2.984 -0.1415 -0.6540 -1.1569
  115MOL0     H15844   8.744  -1.561   3.137 -0.7324 -0.4335  0.2250
  115MOL0     H15845   8.662  -1.564   2.979  2.0029 -2.3004  1.5584
  115MOL0     H15846   8.468  -1.450   3.112  0.3168  1.4438  0.3257
  115MOL0     H15847   8.544  -1.508   3.258 -1.6642  0.7630 -0.6318
  115MOL0     H15848   8.532  -1.741   3.165  2.4941  0.8969 -2.9397
  115MOL0     H15849   8.430  -1.677   3.041  2.5361  0.0360  0.3444
  115MOL0     H15850   8.826  -1.083   2.507  1.0033 -0.6998  0.0042
  115MOL0     H15851   8.798  -0.886   2.373 -0.1635 -1.9459  1.0712
  115MOL0     H15852   8.872  -0.503   2.276  0.2604 -2.6313 -0.0005
  115MOL0     H15853   8.850  -0.293   2.146  1.5313  0.4409  2.0319
  115MOL0     H15854  10.152   0.918   1.665 -0.4980 -0.3292 -0.0761
  115MOL0     H15855  10.271   1.108   1.621 -1.4619 -0.9498  4.4421
  115MOL0     H15856  10.654   1.266   1.771 -2.2417 -1.6023 -2.0472
  115MOL0     H15857  10.770   1.480   1.824  1.2784  1.8491  0.0228
  115MOL0     H15858  10.947   1.717   1.486  2.1799  2.0767 -0.8894
  115MOL0     H15859  11.020   1.788   1.626 -1.0438  1.6770 -2.1807
  115MOL0     H15860  11.116   1.522   1.531 -4.4984  1.1752 -0.7815
  115MOL0     H15861  11.190   1.639   1.652  1.0574  0.9336 -0.5617
  115MOL0     H15862  11.138   1.731   1.369 -1.8810  1.0682  2.8822
  115MOL0     H15863  11.257   1.783   1.470  0.4175  0.5868 -0.0998
  115MOL0     H15864  11.358   1.675   1.297 -0.8089 -0.4099 -0.5212
  115MOL0     H15865  11.256   1.525   1.299 -0.3162  0.3482 -1.5963
  115MOL0     H15866  11.551   1.441   1.594 -0.9563 -0.4436  0.9263
  115MOL0     H15867  10.915   1.489   1.410  1.5797 -3.1076  0.1070
  115MOL0     H15868  10.831   1.373   1.266 -3.2867  0.4144 -0.9540
  115MOL0     H15869  10.875   1.197   1.294 -0.2210 -0.2733 -0.9009
  115MOL0     H15870  10.707   1.258   1.284  0.2699  3.3589 -2.0389
  116MOL0     O15871   6.481  10.190   2.053 -0.1199  0.2185  0.5678
  116MOL0     C15872   6.388  10.114   2.011 -0.8861 -0.5192  0.1243
  116MOL0     O15873   6.393   9.979   2.015  0.7091  0.2618  0.1429
  116MOL0     C15874   6.491   9.918   2.082  0.4237 -0.4070  0.2521
  116MOL0     C15875   6.570   9.831   2.003 -0.8204 -0.1848 -0.0815
  116MOL0     C15876   6.668   9.744   2.067  0.2358 -0.4600  0.4000
  116MOL0     C15877   6.692   9.749   2.201  0.2562  0.3025 -1.0908
  116MOL0     O15878   6.790   9.679   2.266  0.1381 -0.3296 -0.9139
  116MOL0     C15879   6.912   9.652   2.192 -0.9400 -0.2394  0.5653
  116MOL0     C15880   7.038   9.644   2.280  1.1095 -0.3804 -0.2254
  116MOL0     C15881   7.033   9.551   2.400 -0.0375  0.2513  0.0355
  116MOL0     C15882   7.170   9.557   2.462  0.0404 -0.3579 -0.5160
  116MOL0     C15883   7.210   9.435   2.535 -0.6096 -0.3551 -0.4513
  116MOL0     C15884   7.341   9.456   2.614 -0.1754 -1.0928 -0.1523
  116MOL0     C15885   7.469   9.491   2.534 -1.0742  0.6651  0.0536
  116MOL0     C15886   7.516   9.394   2.427 -0.7954  0.3265 -0.0403
  116MOL0     N15887   7.518   9.258   2.476 -0.0481 -0.6930  1.2345
  116MOL0     C15888   7.413   9.171   2.453 -1.3099  0.8802  0.0463
  116MOL0     C15889   7.458   9.061   2.522  0.4684  0.1609 -0.2745
  116MOL0     C15890   7.375   8.932   2.548 -0.2781 -0.3524 -0.2938
  116MOL0     C15891   7.317   8.926   2.693 -0.6418  0.4911 -0.5209
  116MOL0     C15892   7.431   8.876   2.781 -0.0846 -0.4097  0.3679
  116MOL0     C15893   7.392   8.872   2.935  0.4068  0.4744  0.2396
  116MOL0     O15894   7.313   8.990   2.969  0.1678 -0.2943 -0.0723
  116MOL0     C15895   7.382   9.085   3.038  0.9239  0.2354 -1.2094
  116MOL0     C15896   7.383   9.224   2.994  0.0619 -0.4218 -0.6043
  116MOL0     C15897   7.463   9.321   3.057 -0.4821 -0.5205 -0.0021
  116MOL0     C15898   7.467   9.450   2.981  0.0038  0.2285  0.0249
  116MOL0     C15899   7.540   9.281   3.165  0.4102  0.2010  1.3137
  116MOL0     C15900   7.634   9.374   3.224  0.4464 -0.1536  0.7640
  116MOL0     O15901   7.720   9.314   3.318  1.0806  0.1716  0.3531
  116MOL0     C15902   7.806   9.374   3.406  0.3572  0.2612 -0.3493
  116MOL0     C15903   7.936   9.324   3.435  0.9126 -0.4410  0.6909
  116MOL0     C15904   8.025   9.396   3.509  0.0472  0.4704 -0.0747
  116MOL0     C15905   7.986   9.513   3.570  0.4225  1.0400  0.4279
  116MOL0     O15906   8.065   9.582   3.653  0.8448 -0.0633 -0.2838
  116MOL0     C15907   8.205   9.561   3.643 -0.3401 -0.3091 -0.1333
  116MOL0     C15908   8.271   9.649   3.740 -0.1501 -0.2595  0.5836
  116MOL0     C15909   8.416   9.619   3.757 -0.4471 -0.3995 -0.6701
  116MOL0     C15910   8.498   9.728   3.844  0.6253 -0.7835  0.3099
  116MOL0     C15911   8.654   9.736   3.840  0.5612  0.3302 -0.0702
  116MOL0     C15912   8.712   9.874   3.868 -0.3211 -0.1868 -0.5239
  116MOL0     C15913   8.661   9.933   3.999  1.2710  0.2496  0.3588
  116MOL0     C15914   8.705  10.078   4.030 -0.1890  0.1422  0.1305
  116MOL0    Cl15915   8.586  10.134   4.141 -0.3801  0.3780 -0.0786
  116MOL0     C15916   7.867   9.574   3.532  0.3701  0.4684 -0.2019
  116MOL0     C15917   7.775   9.502   3.455  0.3810  0.1064  0.1939
  116MOL0     O15918   7.621   9.497   3.204  0.2665 -0.4915  0.4934
  116MOL0     C15919   7.544   9.152   3.204  0.3640  0.1539  0.6446
  116MOL0     C15920   7.461   9.056   3.150  0.0681  0.2365  0.6263
  116MOL0     N15921   7.580   9.084   2.569 -0.5200  0.1309 -0.2826
  116MOL0     N15922   7.616   9.203   2.549  0.1578 -0.1298  0.0513
  116MOL0     C15923   6.612   9.838   2.278  0.0652  0.7762 -0.5599
  116MOL0     C15924   6.506   9.919   2.219 -0.3182 -0.2427 -0.7096
  116MOL0     C15925   6.270  10.180   1.944 -0.3484  0.2173 -0.3881
  116MOL0     C15926   6.243  10.139   1.815  0.5032 -0.4976  1.0342
  116MOL0     C15927   6.125  10.194   1.749  0.0539  0.1209 -0.2552
  116MOL0     C15928   6.039  10.295   1.815 -0.6201  0.3968  0.2344
  116MOL0     O15929   5.923  10.348   1.757 -0.0059  0.1952 -0.1972
  116MOL0     C15930   5.889  10.318   1.621 -0.5378  0.0618 -0.5024
  116MOL0     C15931   5.808  10.198   1.608 -0.0855  0.3559  1.0337
  116MOL0     C15932   5.803  10.142   1.462 -0.4155 -0.2040 -0.2977
  116MOL0     C15933   5.687  10.033   1.469  0.2328 -0.9155 -0.0193
  116MOL0     C15934   5.658   9.970   1.338 -0.2459 -0.2768 -0.3395
  116MOL0     C15935   5.637   9.921   1.227 -0.1443  0.8511 -0.0579
  116MOL0     C15936   6.081  10.335   1.941 -0.8592  0.2339 -0.5120
  116MOL0     C15937   6.195  10.281   2.008 -0.1553  0.3313  0.0825
  116MOL0     C15938   6.216  10.333   2.148 -0.6203 -1.2552 -0.5821
  116MOL0     H15939   6.581   9.849   1.897  1.3890  0.1659  0.1633
  116MOL0     H15940   6.728   9.681   2.002 -0.1924  0.5513 -1.0210
  116MOL0     H15941   6.924   9.734   2.120  1.2935 -1.4770 -0.6017
  116MOL0     H15942   6.914   9.556   2.140  2.3809 -0.6610  1.2348
  116MOL0     H15943   7.122   9.620   2.213 -0.5242 -0.8385 -2.2140
  116MOL0     H15944   7.050   9.747   2.315 -0.6460 -0.2357  0.0120
  116MOL0     H15945   6.955   9.572   2.474  1.5085 -1.0209  2.1252
  116MOL0     H15946   7.020   9.447   2.368  4.4146 -0.7037  0.7046
  116MOL0     H15947   7.252   9.570   2.392  0.3936 -1.6827 -0.3746
  116MOL0     H15948   7.172   9.644   2.528 -2.6675 -1.2276  0.8714
  116MOL0     H15949   7.221   9.358   2.458  0.6346 -1.9761  1.2527
  116MOL0     H15950   7.133   9.414   2.610  0.9657 -0.3448  1.2267
  116MOL0     H15951   7.324   9.539   2.683 -0.5715 -1.8649  0.7179
  116MOL0     H15952   7.343   9.369   2.681  1.3292 -0.5005  0.6177
  116MOL0     H15953   7.552   9.500   2.605 -1.2080 -1.0992  0.4736
  116MOL0     H15954   7.463   9.583   2.475  0.5238  0.6764 -0.1483
  116MOL0     H15955   7.450   9.408   2.341  2.5752 -3.1115 -3.5867
  116MOL0     H15956   7.615   9.427   2.395 -2.1432  1.9865 -2.9032
  116MOL0     H15957   7.319   9.182   2.399 -0.4635 -0.3232 -1.7679
  116MOL0     H15958   7.431   8.843   2.518 -1.8212 -0.8175 -2.0112
  116MOL0     H15959   7.290   8.931   2.479  0.5352 -0.6319 -1.3266
  116MOL0     H15960   7.273   9.023   2.720 -2.9357 -0.0815 -1.8808
  116MOL0     H15961   7.240   8.848   2.702 -0.3147 -0.0310 -1.9866
  116MOL0     H15962   7.452   8.772   2.755  3.7443  0.0046  1.1450
  116MOL0     H15963   7.519   8.941   2.774  0.3750 -0.9022  1.4485
  116MOL0     H15964   7.336   8.778   2.947  1.7865 -0.4767 -0.4798
  116MOL0     H15965   7.477   8.863   3.003  1.0385  2.7645 -0.1745
  116MOL0     H15966   7.323   9.254   2.909  2.1329  0.3574 -1.8676
  116MOL0     H15967   7.399   9.446   2.896  0.4331  0.6966 -0.3472
  116MOL0     H15968   7.567   9.480   2.948 -0.3657 -0.0784 -1.4081
  116MOL0     H15969   7.434   9.531   3.047 -0.8913 -0.8870  0.9936
  116MOL0     H15970   7.957   9.225   3.395 -0.8688 -0.1934 -1.0117
  116MOL0     H15971   8.123   9.352   3.523 -0.6023 -0.9709  0.0698
  116MOL0     H15972   8.233   9.457   3.664  0.4458  0.2401  1.6663
  116MOL0     H15973   8.236   9.586   3.541 -1.4408 -1.6853 -0.8497
  116MOL0     H15974   8.250   9.750   3.703  1.3826 -1.4543 -4.2689
  116MOL0     H15975   8.234   9.634   3.842  0.3280 -0.1964  0.7698
  116MOL0     H15976   8.459   9.620   3.656  3.5063 -0.9236  0.8333
  116MOL0     H15977   8.424   9.520   3.803  0.6692  0.2452  0.6104
  116MOL0     H15978   8.459   9.735   3.946  1.1152  2.2170  0.3816
  116MOL0     H15979   8.472   9.821   3.793  0.6637 -1.8850 -1.7921
  116MOL0     H15980   8.700   9.657   3.900  0.3832  1.7526  2.0864
  116MOL0     H15981   8.687   9.723   3.737 -0.0159  1.7759 -0.4575
  116MOL0     H15982   8.680   9.936   3.784  0.5205  0.6155 -0.2778
  116MOL0     H15983   8.821   9.869   3.879 -0.5692 -0.6619  2.6805
  116MOL0     H15984   8.691   9.857   4.072 -0.3929  1.5266  2.5017
  116MOL0     H15985   8.552   9.935   4.012  1.4021 -0.6635  1.8155
  116MOL0     H15986   8.697  10.142   3.942  0.0682 -1.2516 -0.9598
  116MOL0     H15987   8.806  10.091   4.069  1.0122  1.1393 -2.9966
  116MOL0     H15988   7.827   9.668   3.569 -1.2492 -0.2610 -0.0043
  116MOL0     H15989   7.675   9.545   3.456  1.2376  2.6677  4.4076
  116MOL0     H15990   7.591   9.114   3.294  0.5837 -1.0881  0.0171
  116MOL0     H15991   7.452   8.958   3.195 -2.4175 -0.6372 -1.5776
  116MOL0     H15992   6.628   9.850   2.385 -2.0774  0.5937 -0.1631
  116MOL0     H15993   6.460   9.994   2.284  4.7466  2.3507  0.4247
  116MOL0     H15994   6.311  10.063   1.777  0.9684  0.3762  0.0671
  116MOL0     H15995   6.105  10.154   1.651 -0.3532 -0.6797  0.1488
  116MOL0     H15996   5.833  10.402   1.579  0.4079  0.6780 -0.5653
  116MOL0     H15997   5.983  10.313   1.565  1.0752  4.1918  1.3809
  116MOL0     H15998   5.711  10.205   1.657  0.4975 -1.1075  2.4872
  116MOL0     H15999   5.860  10.120   1.665 -1.0998 -0.7874  0.4431
  116MOL0     H16000   5.777  10.220   1.389 -2.6340  1.7140  2.3189
  116MOL0     H16001   5.900  10.095   1.443 -1.2621 -1.5687 -1.5027
  116MOL0     H16002   5.599  10.091   1.499  0.8453  0.4881 -0.8310
  116MOL0     H16003   5.710   9.961   1.548 -0.8987 -2.1669 -0.7805
  116MOL0     H16004   5.630   9.861   1.138 -0.1598 -0.5220  0.8339
  116MOL0     H16005   6.017  10.402   1.999 -3.2406 -0.5228 -2.1318
  116MOL0     H16006   6.218  10.442   2.155 -2.2974 -1.2451  0.1268
  116MOL0     H16007   6.135  10.303   2.215 -1.6579 -0.8476 -1.6301
  116MOL0     H16008   6.312  10.299   2.189  0.5517  1.5211 -0.8381
  117MOL0     O16009   5.780   0.847   7.141  0.8169  0.3944  0.0788
  117MOL0     C16010   5.733   0.899   7.040  0.8192  0.9926  0.4844
  117MOL0     O16011   5.794   0.905   6.919  0.2957 -0.4194 -0.2744
  117MOL0     C16012   5.900   0.827   6.896 -0.1072 -0.2958 -0.1846
  117MOL0     C16013   6.013   0.903   6.855 -0.8278 -0.6641 -0.3944
  117MOL0     C16014   6.139   0.842   6.844 -0.9924  0.1106  0.6306
  117MOL0     C16015   6.154   0.707   6.873  0.4970  0.8381  0.5769
  117MOL0     O16016   6.279   0.649   6.875 -0.1271 -0.0730 -0.4517
  117MOL0     C16017   6.301   0.519   6.941 -0.1802  0.2130  0.5377
  117MOL0     C16018   6.450   0.496   6.925  0.9012  0.3112 -0.6812
  117MOL0     C16019   6.504   0.469   6.777  0.4462 -0.4563 -0.4816
  117MOL0     C16020   6.654   0.474   6.776  0.1107 -0.3136 -0.1702
  117MOL0     C16021   6.716   0.366   6.679 -0.1920 -0.0363  0.5062
  117MOL0     C16022   6.666   0.380   6.531  0.5817  0.5240 -0.8082
  117MOL0     C16023   6.750   0.286   6.438  0.2612  0.4769  0.3449
  117MOL0     C16024   6.701   0.300   6.291 -1.2224 -0.5261 -0.4259
  117MOL0     N16025   6.765   0.212   6.193 -0.2431 -0.4265  0.1414
  117MOL0     C16026   6.903   0.218   6.159  0.3249  0.6040 -1.3900
  117MOL0     C16027   6.914   0.118   6.069  0.0960  0.0104 -0.3447
  117MOL0     C16028   7.040   0.049   6.032  0.0620 -0.3022 -0.9649
  117MOL0     C16029   7.099   0.109   5.914 -0.4671 -0.1322  0.3581
  117MOL0     C16030   7.250   0.108   5.920  0.0946  0.1869 -0.1894
  117MOL0     C16031   7.317   0.201   5.828 -0.7700 -0.8360 -1.0133
  117MOL0     O16032   7.452   0.221   5.879 -0.1822  0.9228 -0.1940
  117MOL0     C16033   7.536   0.302   5.810  0.3490 -0.6273 -0.2054
  117MOL0     C16034   7.670   0.294   5.844 -0.1910 -0.5435  0.5999
  117MOL0     C16035   7.772   0.379   5.799 -0.0643  0.8514 -0.4543
  117MOL0     C16036   7.909   0.356   5.869 -0.1211 -0.4760  0.3314
  117MOL0     C16037   7.738   0.491   5.713 -0.1266 -0.2191  0.2638
  117MOL0     C16038   7.833   0.606   5.686  0.2256 -0.0747 -0.9164
  117MOL0     O16039   7.834   0.651   5.562  0.3129  0.5180  0.0093
  117MOL0     C16040   7.919   0.750   5.527  0.2883 -0.0776  0.1843
  117MOL0     C16041   7.853   0.872   5.480  0.8128  0.8465  0.3202
  117MOL0     C16042   7.928   0.982   5.453  0.4562  0.8660  0.7976
  117MOL0     C16043   8.065   0.990   5.472  0.1204  0.9907 -0.2894
  117MOL0     O16044   8.133   1.107   5.447  0.4970  0.5912  0.4577
  117MOL0     C16045   8.167   1.125   5.312  0.0693  0.2229  0.4922
  117MOL0     C16046   8.158   1.270   5.275 -0.2376 -0.9710 -0.3625
  117MOL0     C16047   8.263   1.355   5.350 -0.0205 -0.2305  0.1839
  117MOL0     C16048   8.240   1.505   5.343  0.1970 -0.9838  0.2043
  117MOL0     C16049   8.358   1.595   5.398 -0.7748  0.2904  0.1997
  117MOL0     C16050   8.388   1.573   5.551 -0.2508  0.0629 -0.2243
  117MOL0     C16051   8.490   1.671   5.597 -0.2273 -0.0292  0.4522
  117MOL0     C16052   8.632   1.654   5.533  0.0555  0.8096  0.1543
  117MOL0    Cl16053   8.740   1.774   5.612  0.2444 -0.0105  0.0913
  117MOL0     C16054   8.129   0.876   5.512  0.3567  0.3525 -0.3041
  117MOL0     C16055   8.061   0.756   5.534 -0.1069  0.2255  0.7089
  117MOL0     O16056   7.904   0.649   5.775 -0.5665 -0.3691 -0.1273
  117MOL0     C16057   7.602   0.502   5.682  0.6296  0.5204 -0.5645
  117MOL0     C16058   7.505   0.408   5.724 -0.7490 -0.1096 -0.9216
  117MOL0     N16059   6.789   0.062   6.047 -0.2341  0.3053  0.1238
  117MOL0     N16060   6.707   0.122   6.119 -0.6836  0.5552 -0.9737
  117MOL0     C16061   6.035   0.628   6.893 -0.5589 -0.6840 -0.0217
  117MOL0     C16062   5.906   0.688   6.908  0.2020  0.1071  0.9252
  117MOL0     C16063   5.605   0.967   7.049  0.1285 -0.6647 -0.3401
  117MOL0     C16064   5.573   1.052   6.937  0.0804  0.1890 -0.0185
  117MOL0     C16065   5.477   1.160   6.945 -0.2967 -0.1009  0.0283
  117MOL0     C16066   5.384   1.162   7.039  1.7259  0.6465 -0.0591
  117MOL0     O16067   5.274   1.246   7.021 -0.2267 -0.4667 -0.1673
  117MOL0     C16068   5.163   1.221   7.107  0.7841 -0.9182 -0.0556
  117MOL0     C16069   5.079   1.101   7.058  0.6267 -0.2428 -0.1715
  117MOL0     C16070   4.955   1.093   7.148  0.5846 -0.0432  0.4377
  117MOL0     C16071   4.830   1.042   7.072  0.0579 -0.8324 -0.1613
  117MOL0     C16072   4.778   1.142   6.973 -0.2730 -1.3183 -0.7383
  117MOL0     C16073   4.759   1.219   6.883  0.4885 -0.5711  0.7562
  117MOL0     C16074   5.409   1.066   7.147 -0.2323  0.1152 -0.0394
  117MOL0     C16075   5.516   0.975   7.159  1.1372 -0.5697 -0.6945
  117MOL0     C16076   5.526   0.888   7.278  0.4455  0.1037 -0.1658
  117MOL0     H16077   5.998   1.010   6.842 -2.4510 -0.7544  0.5239
  117MOL0     H16078   6.227   0.899   6.817  0.4475 -1.0921  2.4941
  117MOL0     H16079   6.249   0.435   6.894 -1.1832  1.4116 -0.5811
  117MOL0     H16080   6.270   0.526   7.045  1.1439 -1.8323  1.1284
  117MOL0     H16081   6.492   0.591   6.959 -3.4385  1.1937  3.2520
  117MOL0     H16082   6.475   0.418   6.998 -0.9999  0.7600  0.5467
  117MOL0     H16083   6.465   0.372   6.743 -0.6729 -0.0647 -0.3534
  117MOL0     H16084   6.467   0.547   6.710  0.5360 -1.2246 -1.4521
  117MOL0     H16085   6.683   0.576   6.749 -1.0423 -0.0276 -0.3883
  117MOL0     H16086   6.700   0.460   6.874  1.5199  0.9571 -0.6002
  117MOL0     H16087   6.687   0.264   6.707 -1.2726 -0.0463 -0.5361
  117MOL0     H16088   6.824   0.361   6.692 -0.1548 -5.5105  0.4974
  117MOL0     H16089   6.560   0.356   6.519  0.2028  0.5279  1.8782
  117MOL0     H16090   6.675   0.485   6.503 -3.7913  0.5587 -3.0386
  117MOL0     H16091   6.756   0.178   6.459 -0.3428  0.0311 -1.5847
  117MOL0     H16092   6.855   0.313   6.442  0.2482  0.6670 -0.4454
  117MOL0     H16093   6.592   0.301   6.289 -1.2494  2.2534 -1.6838
  117MOL0     H16094   6.720   0.401   6.254  1.1448 -0.7327  0.0522
  117MOL0     H16095   6.987   0.261   6.213  1.5702 -2.3404 -0.7732
  117MOL0     H16096   7.021  -0.058   6.014 -1.5949 -0.8502  3.0078
  117MOL0     H16097   7.111   0.047   6.115 -1.6366  0.8142  0.5690
  117MOL0     H16098   7.075   0.055   5.822 -0.7838 -0.9814  0.9242
  117MOL0     H16099   7.078   0.214   5.894  3.6040  0.5670 -1.0853
  117MOL0     H16100   7.288   0.134   6.019 -1.0812  1.4888 -0.0459
  117MOL0     H16101   7.272   0.003   5.903 -2.1910 -0.9991  3.1107
  117MOL0     H16102   7.317   0.164   5.725  0.8379 -2.0649 -0.6137
  117MOL0     H16103   7.272   0.300   5.844 -1.5885 -1.5045  1.3362
  117MOL0     H16104   7.693   0.214   5.914 -2.2738 -1.6983  0.0431
  117MOL0     H16105   7.929   0.249   5.862 -5.8882 -1.8050 -0.2695
  117MOL0     H16106   7.890   0.381   5.974 -3.7988 -0.8130 -0.1450
  117MOL0     H16107   7.996   0.420   5.851 -0.5736  0.1077  0.1887
  117MOL0     H16108   7.749   0.873   5.450  0.9855  0.5804 -0.2970
  117MOL0     H16109   7.868   1.067   5.423 -2.0595 -0.7097  1.0795
  117MOL0     H16110   8.265   1.089   5.280 -0.6550 -2.7525  1.3182
  117MOL0     H16111   8.099   1.077   5.242  1.3544  2.4960 -2.5215
  117MOL0     H16112   8.165   1.290   5.168  2.7590  0.7826  0.0518
  117MOL0     H16113   8.064   1.314   5.311  1.8583  0.8456  3.5073
  117MOL0     H16114   8.360   1.338   5.303 -0.3054 -0.4572 -0.3305
  117MOL0     H16115   8.260   1.319   5.454  1.8048 -0.2746  0.2624
  117MOL0     H16116   8.147   1.537   5.389  1.1971  2.3544  0.1363
  117MOL0     H16117   8.230   1.529   5.236 -0.1963  0.3030  0.5163
  117MOL0     H16118   8.440   1.576   5.329 -2.3245 -1.7502 -1.2227
  117MOL0     H16119   8.336   1.701   5.383  1.4697  0.7492 -0.2114
  117MOL0     H16120   8.437   1.475   5.556  0.9292  0.6016 -0.7626
  117MOL0     H16121   8.295   1.572   5.608 -0.3446  0.6356 -0.3688
  117MOL0     H16122   8.503   1.654   5.704 -0.0458 -0.3572  0.3774
  117MOL0     H16123   8.455   1.774   5.584 -1.0858 -0.1799  1.4262
  117MOL0     H16124   8.625   1.683   5.428  0.6913  0.7698  0.0935
  117MOL0     H16125   8.667   1.550   5.529 -0.8078  0.5257 -3.9766
  117MOL0     H16126   8.236   0.882   5.528  0.0719  1.1057  1.6541
  117MOL0     H16127   8.115   0.670   5.572 -2.5014 -1.0419  1.4894
  117MOL0     H16128   7.564   0.581   5.618 -2.5982 -1.4572 -1.3252
  117MOL0     H16129   7.403   0.428   5.694 -1.1586 -1.0800 -0.1845
  117MOL0     H16130   6.041   0.522   6.914 -0.7219 -0.5578  0.6985
  117MOL0     H16131   5.812   0.637   6.926 -1.2707  2.3738  0.0462
  117MOL0     H16132   5.625   1.037   6.843 -1.0308  2.8781 -1.1658
  117MOL0     H16133   5.480   1.234   6.865 -0.1102 -0.9026 -0.7198
  117MOL0     H16134   5.193   1.228   7.212  2.4095  1.2907 -0.6048
  117MOL0     H16135   5.101   1.308   7.083  1.2085 -0.3090  1.0004
  117MOL0     H16136   5.132   1.006   7.067 -0.0375 -0.5028  1.3684
  117MOL0     H16137   5.053   1.126   6.955  0.5257 -0.1437 -0.1228
  117MOL0     H16138   4.981   1.026   7.231  1.2736 -0.9434 -0.4850
  117MOL0     H16139   4.934   1.191   7.193  0.9218  0.2318 -0.0017
  117MOL0     H16140   4.754   1.034   7.151  1.7816 -0.4412  1.5950
  117MOL0     H16141   4.847   0.941   7.032 -0.7769 -1.1827  0.3221
  117MOL0     H16142   4.752   1.282   6.797 -2.1496 -0.3242  1.0501
  117MOL0     H16143   5.340   1.079   7.230  1.5502  0.9374  1.3728
  117MOL0     H16144   5.568   0.788   7.262  0.8140  0.2406 -0.0652
  117MOL0     H16145   5.587   0.940   7.351  0.9451 -1.7068  0.7705
  117MOL0     H16146   5.430   0.877   7.327  0.8844 -0.6867  0.5359
  118MOL0     O16147   3.190   3.036  10.653  0.5788 -0.5427 -0.9264
  118MOL0     C16148   3.133   3.062  10.767 -0.5719 -0.0557 -0.0108
  118MOL0     O16149   3.072   3.178  10.796  1.3952  0.4440 -0.2515
  118MOL0     C16150   3.068   3.280  10.708  0.7966 -0.8673 -0.8084
  118MOL0     C16151   3.032   3.277  10.576  0.2530  0.0962  0.3072
  118MOL0     C16152   3.038   3.388  10.493 -0.1267 -0.3396  0.5849
  118MOL0     C16153   3.069   3.513  10.550  0.1557 -0.2222  0.0287
  118MOL0     O16154   3.057   3.624  10.466 -0.4205 -0.0764  0.4670
  118MOL0     C16155   3.105   3.748  10.516 -0.9074  0.1511  0.5437
  118MOL0     C16156   3.262   3.744  10.500  0.5889  0.1950 -0.1613
  118MOL0     C16157   3.324   3.879  10.483  0.5021 -0.2700  0.1179
  118MOL0     C16158   3.477   3.872  10.505 -0.1474  1.4715  0.0039
  118MOL0     C16159   3.549   4.001  10.523  0.3072  0.4811 -0.1267
  118MOL0     C16160   3.694   3.992  10.578  0.5885 -0.2079 -0.0758
  118MOL0     C16161   3.755   4.135  10.587 -0.5081  0.6533  0.1894
  118MOL0     C16162   3.903   4.139  10.611 -0.5472  0.1703 -0.2705
  118MOL0     N16163   3.978   4.261  10.583 -0.6521  0.5213  0.1008
  118MOL0     C16164   3.931   4.363  10.500  0.4576  1.2029 -0.3710
  118MOL0     C16165   4.004   4.470  10.538  0.5136 -0.8521  0.2823
  118MOL0     C16166   4.004   4.599  10.466 -0.2524 -0.2226 -0.2066
  118MOL0     C16167   3.989   4.726  10.561  0.3989  0.8650 -0.1122
  118MOL0     C16168   3.952   4.846  10.474  0.5089  0.0294  0.2429
  118MOL0     C16169   3.892   4.961  10.553 -0.4347 -0.3316 -0.3308
  118MOL0     O16170   3.939   4.983  10.685  0.2631 -0.0856 -0.2985
  118MOL0     C16171   4.065   5.022  10.703 -0.7686 -0.7500  0.4104
  118MOL0     C16172   4.126   5.005  10.829  0.5611 -0.4096  0.3871
  118MOL0     C16173   4.257   5.046  10.866 -0.9458  0.5714 -0.2658
  118MOL0     C16174   4.287   4.994  11.007 -0.1515  0.4526  0.3102
  118MOL0     C16175   4.340   5.115  10.779  0.6691  0.1497 -0.2723
  118MOL0     C16176   4.477   5.164  10.801 -1.2672 -0.6044 -1.1836
  118MOL0     O16177   4.545   5.215  10.702 -0.0638 -0.0210 -0.2517
  118MOL0     C16178   4.659   5.275  10.734 -0.7679 -0.6594  0.7299
  118MOL0     C16179   4.781   5.217  10.760 -1.0404 -0.0295  0.4214
  118MOL0     C16180   4.902   5.288  10.778  0.9282  0.0304  0.1351
  118MOL0     C16181   4.906   5.426  10.759  0.2402 -0.1272  0.4252
  118MOL0     O16182   5.012   5.511  10.766  0.1879 -0.6052  1.1893
  118MOL0     C16183   5.136   5.460  10.803 -0.5405 -0.1888  1.4406
  118MOL0     C16184   5.137   5.433  10.952 -0.8317 -0.7020 -0.9430
  118MOL0     C16185   5.112   5.560  11.037 -0.1075  0.7465 -0.3876
  118MOL0     C16186   5.232   5.600  11.122  0.9431  0.3126 -0.6174
  118MOL0     C16187   5.211   5.735  11.187 -0.0627 -0.3154 -0.5730
  118MOL0     C16188   5.233   5.861  11.098  0.0538 -0.8272 -0.4163
  118MOL0     C16189   5.220   5.982  11.195  0.4869  0.7966  0.7293
  118MOL0     C16190   5.219   6.120  11.127  0.0238 -0.0963 -0.1223
  118MOL0    Cl16191   5.373   6.172  11.043 -0.1810 -0.0041 -0.3654
  118MOL0     C16192   4.780   5.482  10.724  0.0237 -0.3566 -0.5253
  118MOL0     C16193   4.659   5.409  10.712  0.0498  0.2993 -0.0716
  118MOL0     O16194   4.513   5.167  10.921 -0.1899  0.8116 -0.2392
  118MOL0     C16195   4.287   5.123  10.646 -0.2125  0.6225  0.3454
  118MOL0     C16196   4.156   5.081  10.613  1.2711 -0.3268  0.3342
  118MOL0     N16197   4.088   4.432  10.646 -0.1038  0.0028  0.5420
  118MOL0     N16198   4.071   4.305  10.668  0.6330  0.4748 -0.0380
  118MOL0     C16199   3.114   3.519  10.684 -0.6753  0.4059 -0.6643
  118MOL0     C16200   3.113   3.405  10.766 -1.0792  0.5501 -0.1705
  118MOL0     C16201   3.090   2.945  10.856  0.2947 -0.9404  0.0704
  118MOL0     C16202   2.957   2.938  10.892 -0.0149 -0.6346  0.2330
  118MOL0     C16203   2.911   2.841  10.976  0.6359 -0.3096 -0.0999
  118MOL0     C16204   2.995   2.743  11.023  0.1125 -0.0076  0.5601
  118MOL0     O16205   2.933   2.656  11.108 -0.4653  0.4091  0.0102
  118MOL0     C16206   3.017   2.557  11.178  0.4500 -0.4126  0.1570
  118MOL0     C16207   2.944   2.506  11.296  0.3936  0.1153 -0.2740
  118MOL0     C16208   3.002   2.386  11.359 -0.0030  0.0866  0.6103
  118MOL0     C16209   2.934   2.339  11.486  1.0558  0.1570 -0.0101
  118MOL0     C16210   2.795   2.307  11.475 -0.3424 -0.4903 -0.5348
  118MOL0     C16211   2.672   2.299  11.477 -1.0473 -0.7751  0.2049
  118MOL0     C16212   3.131   2.744  10.987  0.4379  0.8886  0.2968
  118MOL0     C16213   3.180   2.841  10.897  0.0020  0.4108 -0.5981
  118MOL0     C16214   3.326   2.848  10.856  0.1186  0.5474 -0.5809
  118MOL0     H16215   2.995   3.186  10.530  2.1161 -0.0319 -1.0500
  118MOL0     H16216   3.023   3.372  10.386  3.4006 -0.8636  0.0441
  118MOL0     H16217   3.073   3.766  10.619  1.6715 -3.2353  2.1614
  118MOL0     H16218   3.083   3.831  10.448  3.9069  0.3836 -1.0879
  118MOL0     H16219   3.308   3.687  10.582  0.2777 -0.6668 -0.5702
  118MOL0     H16220   3.284   3.699  10.403  1.3836 -0.5989  0.3768
  118MOL0     H16221   3.298   3.917  10.384 -4.5560 -0.0016  1.2692
  118MOL0     H16222   3.286   3.948  10.559 -3.9052 -1.9746 -0.2324
  118MOL0     H16223   3.485   3.808  10.593  1.1274  2.2584  0.4789
  118MOL0     H16224   3.525   3.829  10.417 -0.4472  2.3527 -0.6148
  118MOL0     H16225   3.484   4.061  10.587  0.1815  0.5104 -0.2823
  118MOL0     H16226   3.564   4.053  10.428  1.2876  0.8135  0.1999
  118MOL0     H16227   3.687   3.956  10.681  0.6864 -0.3889 -0.1313
  118MOL0     H16228   3.751   3.929  10.509 -0.1296  0.0764 -0.9460
  118MOL0     H16229   3.700   4.186  10.668 -1.8306 -2.6258  1.5200
  118MOL0     H16230   3.732   4.190  10.495 -1.2298  0.6499  0.3592
  118MOL0     H16231   3.921   4.109  10.715 -0.6147 -1.4775 -0.7051
  118MOL0     H16232   3.951   4.064  10.547  0.4994 -0.3896  1.1156
  118MOL0     H16233   3.846   4.365  10.432 -0.1556  0.5078  0.3450
  118MOL0     H16234   3.923   4.591  10.393 -0.3491  0.5995 -0.1994
  118MOL0     H16235   4.093   4.616  10.404  2.1696  1.7514  3.3805
  118MOL0     H16236   3.912   4.709  10.637 -0.3253 -2.1394 -1.3844
  118MOL0     H16237   4.074   4.755  10.624 -1.4387  1.6672  2.1657
  118MOL0     H16238   4.033   4.879  10.409  1.4233  0.3890  1.5474
  118MOL0     H16239   3.877   4.813  10.401  0.5553  1.1625 -0.3451
  118MOL0     H16240   3.906   5.046  10.484  1.5898 -2.7636 -3.1647
  118MOL0     H16241   3.783   4.952  10.558 -0.4606  0.1913  0.2850
  118MOL0     H16242   4.071   4.953  10.907  1.0909  2.0276  2.5247
  118MOL0     H16243   4.392   4.962  11.011 -0.6078 -1.1240  0.4857
  118MOL0     H16244   4.221   4.912  11.039 -0.5302 -0.0470 -1.6090
  118MOL0     H16245   4.270   5.072  11.082 -1.9845  0.1742  0.2239
  118MOL0     H16246   4.784   5.110  10.779  1.2752 -0.3365 -1.2237
  118MOL0     H16247   4.992   5.228  10.780 -0.8751 -2.9760 -1.3112
  118MOL0     H16248   5.175   5.382  10.737  1.8179  1.1732  1.1238
  118MOL0     H16249   5.214   5.535  10.785 -0.9340 -0.5079 -2.6693
  118MOL0     H16250   5.063   5.356  10.978 -0.2183 -1.3462 -1.0531
  118MOL0     H16251   5.241   5.402  10.968 -1.0314  0.1476  3.1111
  118MOL0     H16252   5.032   5.537  11.108 -0.3580  0.5142 -0.7367
  118MOL0     H16253   5.091   5.647  10.975  3.9839  2.3240  0.1093
  118MOL0     H16254   5.320   5.612  11.059  1.5762  0.2588  0.2385
  118MOL0     H16255   5.263   5.523  11.193  2.6340  4.1233  3.1884
  118MOL0     H16256   5.111   5.738  11.231 -0.4708 -0.8897 -1.4460
  118MOL0     H16257   5.286   5.737  11.267 -0.3391 -2.3875 -0.2165
  118MOL0     H16258   5.166   5.862  11.011  0.5168  2.7544 -0.8804
  118MOL0     H16259   5.334   5.847  11.059  0.0601 -1.8149 -0.0802
  118MOL0     H16260   5.310   5.980  11.258  0.1404  0.4096  1.2167
  118MOL0     H16261   5.134   5.972  11.261 -0.6653  0.6723 -0.7528
  118MOL0     H16262   5.193   6.197  11.200 -2.6648 -0.7804 -0.2568
  118MOL0     H16263   5.137   6.126  11.055  2.4489  2.7017 -2.9793
  118MOL0     H16264   4.782   5.590  10.715  0.9526 -0.2717  0.4764
  118MOL0     H16265   4.564   5.458  10.691  0.2724  1.2092  0.9075
  118MOL0     H16266   4.329   5.171  10.559 -1.8939 -0.4760 -1.1496
  118MOL0     H16267   4.124   5.110  10.513  1.6812  0.1786  0.3489
  118MOL0     H16268   3.132   3.618  10.726  0.4286 -1.4259  3.6743
  118MOL0     H16269   3.132   3.410  10.872  2.1931  0.8557 -0.6849
  118MOL0     H16270   2.886   3.018  10.874  0.4196  0.6435  3.5142
  118MOL0     H16271   2.805   2.841  10.999  0.8685 -0.1653  1.0190
  118MOL0     H16272   3.048   2.477  11.109  0.5143  1.3071 -1.9167
  118MOL0     H16273   3.115   2.594  11.210  0.2523  1.7724 -1.5843
  118MOL0     H16274   2.838   2.500  11.267  0.8352  0.0526 -2.0181
  118MOL0     H16275   2.944   2.566  11.387 -2.7702 -0.4037  0.1964
  118MOL0     H16276   2.996   2.300  11.292 -0.0116  1.4847 -1.2910
  118MOL0     H16277   3.109   2.406  11.375  0.7537 -2.3492 -0.9715
  118MOL0     H16278   2.952   2.406  11.571 -0.6007  1.2899 -0.4934
  118MOL0     H16279   2.984   2.246  11.514  2.5772  1.0635  0.3793
  118MOL0     H16280   2.567   2.300  11.453 -0.5026  2.2262 -2.7077
  118MOL0     H16281   3.199   2.671  11.030 -1.4538 -0.6273  0.8567
  118MOL0     H16282   3.392   2.801  10.930 -1.5531 -0.6523  0.2143
  118MOL0     H16283   3.336   2.792  10.763 -0.4099  1.7902 -1.4167
  118MOL0     H16284   3.365   2.950  10.845  0.8284  0.3837  0.2900
  119MOL0     O16285   1.501   6.117   3.748 -0.4530 -0.1387 -0.1339
  119MOL0     C16286   1.467   6.197   3.833  0.0199 -0.8256 -0.8045
  119MOL0     O16287   1.549   6.241   3.932 -0.3660 -0.1427  0.3985
  119MOL0     C16288   1.682   6.223   3.930 -0.4683 -0.1385  0.8551
  119MOL0     C16289   1.746   6.094   3.953  0.3736 -0.0357  0.4934
  119MOL0     C16290   1.881   6.079   3.964 -0.4138  0.1381  0.2919
  119MOL0     C16291   1.963   6.188   3.946  0.2677 -0.0593  0.7589
  119MOL0     O16292   2.096   6.176   3.939 -0.8788 -0.8707 -0.0836
  119MOL0     C16293   2.145   6.169   3.802  0.9159 -0.3137  0.5505
  119MOL0     C16294   2.299   6.141   3.797  0.1152  0.1996  0.0769
  119MOL0     C16295   2.340   6.017   3.863  0.3253 -0.1795 -0.4119
  119MOL0     C16296   2.490   6.007   3.874  0.3130 -0.3877 -0.6335
  119MOL0     C16297   2.515   5.888   3.963 -0.6287 -0.0265 -0.1339
  119MOL0     C16298   2.666   5.858   3.981  0.3928  1.4219 -0.0435
  119MOL0     C16299   2.688   5.746   4.083 -0.0108  1.4674  0.2981
  119MOL0     C16300   2.835   5.725   4.099 -0.9810  0.2129 -0.1065
  119MOL0     N16301   2.865   5.671   4.235  0.8739  0.1689  0.9150
  119MOL0     C16302   2.903   5.751   4.340 -0.7230 -0.5130  0.2848
  119MOL0     C16303   2.951   5.667   4.433  0.1117 -0.0195 -0.3818
  119MOL0     C16304   2.990   5.696   4.575  0.0632 -0.5934  0.2385
  119MOL0     C16305   3.147   5.674   4.602 -0.2075 -0.3766 -1.1235
  119MOL0     C16306   3.183   5.715   4.748  0.2556  0.0705 -0.0564
  119MOL0     C16307   3.333   5.701   4.771  0.1382 -0.7074  0.3428
  119MOL0     O16308   3.358   5.786   4.887 -0.1359  0.0164  0.5691
  119MOL0     C16309   3.487   5.833   4.891  0.3510 -0.8262 -0.0442
  119MOL0     C16310   3.590   5.764   4.845 -0.1126 -0.0399  0.4777
  119MOL0     C16311   3.726   5.811   4.858  0.8442  0.1900 -0.3951
  119MOL0     C16312   3.835   5.706   4.831 -0.2424 -0.8001 -0.2456
  119MOL0     C16313   3.752   5.943   4.915  0.2251 -0.2070  1.1324
  119MOL0     C16314   3.888   6.005   4.935  0.4190 -0.3488  0.4689
  119MOL0     O16315   3.989   5.955   4.850 -0.1360 -0.5955 -0.5493
  119MOL0     C16316   4.103   6.031   4.826  0.9050  0.3276 -0.7024
  119MOL0     C16317   4.217   6.010   4.909  0.4594  0.5604 -0.1760
  119MOL0     C16318   4.330   6.094   4.906  0.2848 -0.8326  0.3338
  119MOL0     C16319   4.338   6.195   4.817 -0.3418 -0.8110  0.8905
  119MOL0     O16320   4.445   6.291   4.828  0.0363  0.0195 -0.6578
  119MOL0     C16321   4.438   6.396   4.728 -0.7668 -0.1145 -0.2852
  119MOL0     C16322   4.540   6.500   4.787  0.1611 -0.2160 -0.1551
  119MOL0     C16323   4.485   6.559   4.924  0.8742 -0.6485  0.2288
  119MOL0     C16324   4.577   6.663   4.981  0.1344  0.1334 -0.0357
  119MOL0     C16325   4.492   6.744   5.081 -1.0184 -0.0770 -0.2946
  119MOL0     C16326   4.416   6.669   5.181  0.7827 -0.1820 -0.0046
  119MOL0     C16327   4.498   6.601   5.297  0.1667  0.1274  0.2416
  119MOL0     C16328   4.582   6.706   5.374 -0.0545 -0.2534 -0.4843
  119MOL0    Cl16329   4.757   6.731   5.312  0.4712  0.2761  0.4751
  119MOL0     C16330   4.224   6.211   4.723 -0.3096  0.2622  0.2490
  119MOL0     C16331   4.108   6.134   4.729  0.0269  1.1160 -0.6197
  119MOL0     O16332   3.900   6.092   5.026 -0.0530  0.7379 -0.2374
  119MOL0     C16333   3.638   6.009   4.959 -0.9399  0.2827 -0.1600
  119MOL0     C16334   3.507   5.964   4.942  0.0602 -0.7000 -0.2042
  119MOL0     N16335   2.950   5.538   4.381  0.9223 -0.1064 -0.7853
  119MOL0     N16336   2.888   5.542   4.268 -0.1069  0.2127 -0.4544
  119MOL0     C16337   1.908   6.318   3.917 -0.1012 -0.1599 -0.6750
  119MOL0     C16338   1.767   6.334   3.916  0.6847  0.0316 -0.3668
  119MOL0     C16339   1.335   6.254   3.843  0.8431  1.0953  0.2735
  119MOL0     C16340   1.314   6.369   3.927 -0.7357  0.5493  0.6246
  119MOL0     C16341   1.182   6.429   3.929 -0.6127 -0.7926 -0.9005
  119MOL0     C16342   1.070   6.368   3.882 -0.0706  0.6265 -0.8718
  119MOL0     O16343   0.939   6.410   3.902  0.4853  0.3373 -0.5450
  119MOL0     C16344   0.914   6.541   3.953  0.2606 -0.8380 -1.2956
  119MOL0     C16345   0.757   6.559   3.975 -0.1690  0.2863 -0.2009
  119MOL0     C16346   0.696   6.533   3.836  1.2045  0.3672  0.3695
  119MOL0     C16347   0.545   6.559   3.836 -0.8237  0.1948  0.6162
  119MOL0     C16348   0.513   6.692   3.774  0.2195  0.1358 -0.5504
  119MOL0     C16349   0.508   6.805   3.736 -0.4781 -0.7848  0.0190
  119MOL0     C16350   1.090   6.245   3.817  0.6312 -0.0016 -0.4640
  119MOL0     C16351   1.218   6.197   3.783  1.1502  0.2108  0.1897
  119MOL0     C16352   1.214   6.067   3.702 -0.5796 -0.2987  0.2449
  119MOL0     H16353   1.692   6.000   3.956  1.7038 -0.8066  1.7743
  119MOL0     H16354   1.944   5.991   3.981  1.8985  1.6949  0.2691
  119MOL0     H16355   2.125   6.262   3.748  0.9215 -0.9953 -0.6678
  119MOL0     H16356   2.095   6.088   3.748  0.1319  0.9322 -0.6692
  119MOL0     H16357   2.347   6.136   3.699  1.4041  0.2217  0.6859
  119MOL0     H16358   2.339   6.233   3.841  2.0484 -0.8383  0.5470
  119MOL0     H16359   2.288   6.028   3.959  1.0819 -2.3062  0.2938
  119MOL0     H16360   2.287   5.940   3.806 -0.3629  0.6309 -0.9156
  119MOL0     H16361   2.530   5.996   3.773 -0.0246  1.3189 -0.9739
  119MOL0     H16362   2.525   6.101   3.918  1.2909 -1.4804  1.0540
  119MOL0     H16363   2.470   5.798   3.921  2.9566 -3.8446  3.3148
  119MOL0     H16364   2.464   5.904   4.059 -2.6607  0.6872 -1.2749
  119MOL0     H16365   2.716   5.829   3.888  0.1141  0.1081  0.1969
  119MOL0     H16366   2.727   5.941   4.019 -0.8445  0.7824  3.7446
  119MOL0     H16367   2.640   5.653   4.051 -0.5376  2.3161 -1.5021
  119MOL0     H16368   2.636   5.780   4.173 -1.3100 -0.3389  0.2818
  119MOL0     H16369   2.871   5.652   4.026 -1.0019 -0.4207  0.5024
  119MOL0     H16370   2.885   5.822   4.091  0.8204 -0.8262 -2.7049
  119MOL0     H16371   2.879   5.857   4.344 -0.1825 -0.4159  1.4285
  119MOL0     H16372   2.942   5.621   4.639  3.3089 -2.3324  0.8303
  119MOL0     H16373   2.965   5.798   4.605  0.8661 -0.0124 -1.0341
  119MOL0     H16374   3.175   5.569   4.589 -2.0626 -1.0478 -0.1152
  119MOL0     H16375   3.204   5.732   4.529  0.3506  0.7752  0.1707
  119MOL0     H16376   3.145   5.816   4.766 -0.7686  0.1844 -2.4495
  119MOL0     H16377   3.124   5.646   4.809 -0.9757  1.7134  0.6934
  119MOL0     H16378   3.369   5.597   4.773  1.8243 -0.1566  0.0482
  119MOL0     H16379   3.384   5.741   4.683 -4.1370  1.1789 -1.5798
  119MOL0     H16380   3.572   5.662   4.812  0.5537  0.2361 -0.8247
  119MOL0     H16381   3.796   5.613   4.792  3.2422 -1.6277 -2.1746
  119MOL0     H16382   3.895   5.692   4.922  1.6798  0.6765 -1.2055
  119MOL0     H16383   3.894   5.740   4.746  0.8108  0.2364  0.8470
  119MOL0     H16384   4.213   5.934   4.986  0.1193  1.1581  0.4115
  119MOL0     H16385   4.408   6.077   4.979  1.8845  0.7608 -0.9253
  119MOL0     H16386   4.473   6.357   4.632 -2.0608  0.1224 -0.8745
  119MOL0     H16387   4.342   6.447   4.723  0.0891  1.5484 -0.4596
  119MOL0     H16388   4.633   6.442   4.793  2.3629  3.0809 -0.1523
  119MOL0     H16389   4.553   6.578   4.712  1.2000 -0.9557 -0.7804
  119MOL0     H16390   4.456   6.483   4.997  3.0648 -2.1694 -0.3709
  119MOL0     H16391   4.393   6.610   4.893 -0.3854 -2.1820  1.2989
  119MOL0     H16392   4.610   6.734   4.905  0.9242 -0.0512  0.1180
  119MOL0     H16393   4.666   6.618   5.026 -0.2393  0.1772  0.7569
  119MOL0     H16394   4.563   6.809   5.133  0.5817 -2.6468  0.9501
  119MOL0     H16395   4.417   6.800   5.025 -1.8505 -1.9138 -1.1062
  119MOL0     H16396   4.334   6.617   5.130 -0.6633  1.7296  0.2880
  119MOL0     H16397   4.355   6.737   5.241  0.2330 -1.3605  0.8048
  119MOL0     H16398   4.563   6.515   5.281 -0.2383 -0.0214 -0.6673
  119MOL0     H16399   4.419   6.569   5.367 -0.7064 -1.8776 -1.5414
  119MOL0     H16400   4.596   6.673   5.477  2.7169 -0.5194 -0.8732
  119MOL0     H16401   4.524   6.798   5.379  1.0140  0.4140 -0.0781
  119MOL0     H16402   4.223   6.291   4.648  0.3251  1.0354  1.0365
  119MOL0     H16403   4.019   6.151   4.669  0.4369  1.4341 -1.1435
  119MOL0     H16404   3.655   6.100   5.016  1.5776  1.1673 -2.1322
  119MOL0     H16405   3.428   6.029   4.977  1.7118  1.1304  0.2681
  119MOL0     H16406   1.978   6.400   3.909  1.6295 -1.5569 -0.3220
  119MOL0     H16407   1.724   6.431   3.897  1.3618  0.4590  0.2727
  119MOL0     H16408   1.395   6.421   3.976 -1.3910  0.0873  2.2424
  119MOL0     H16409   1.165   6.520   3.986  1.7306  0.8462 -2.6573
  119MOL0     H16410   0.958   6.547   4.052  0.3500 -1.3459 -1.2992
  119MOL0     H16411   0.960   6.618   3.891 -1.5364  2.4176  1.1214
  119MOL0     H16412   0.732   6.663   4.000  3.5937  1.8164 -1.9145
  119MOL0     H16413   0.720   6.488   4.049  1.0253  0.7094  0.8514
  119MOL0     H16414   0.749   6.579   3.752 -2.1126 -0.0150 -2.1443
  119MOL0     H16415   0.701   6.424   3.825 -2.8806  0.1438 -0.8461
  119MOL0     H16416   0.500   6.537   3.933 -1.9055  0.7907  0.2642
  119MOL0     H16417   0.498   6.499   3.757  0.7598 -0.6524  0.2574
  119MOL0     H16418   0.498   6.909   3.713 -0.4552 -0.5422  1.0926
  119MOL0     H16419   1.008   6.182   3.786  1.3524 -0.4706 -1.4725
  119MOL0     H16420   1.115   6.019   3.699 -1.1721  0.9436 -1.2868
  119MOL0     H16421   1.254   6.095   3.605  1.8242 -0.5059  1.1101
  119MOL0     H16422   1.292   6.007   3.751  1.2725  2.3445  0.7580
  120MOL0     O16423   0.330   9.991   8.925  0.4404  0.1537  0.5421
  120MOL0     C16424   0.327   9.870   8.911  1.2110 -0.0376  0.3475
  120MOL0     O16425   0.437   9.783   8.893 -0.5974 -0.5121  0.1561
  120MOL0     C16426   0.557   9.830   8.923  0.5036 -0.4202 -0.6230
  120MOL0     C16427   0.659   9.836   8.830 -0.2663 -0.3292  0.5837
  120MOL0     C16428   0.783   9.889   8.854  0.5656 -0.3802 -0.8203
  120MOL0     C16429   0.805   9.924   8.982 -0.2085  0.5860 -0.0335
  120MOL0     O16430   0.931   9.968   9.022 -0.4263 -0.1678 -0.1022
  120MOL0     C16431   1.002  10.068   8.950 -0.6452  0.1258  0.2522
  120MOL0     C16432   1.077  10.145   9.049  0.2897  0.1506  0.4535
  120MOL0     C16433   1.142  10.279   8.996 -0.0776 -0.4849  0.4042
  120MOL0     C16434   1.203  10.389   9.093  0.7993 -0.0988  0.2413
  120MOL0     C16435   1.213  10.528   9.041 -0.0136 -0.6008  0.0645
  120MOL0     C16436   1.311  10.556   8.929  0.2659  0.2481  0.0064
  120MOL0     C16437   1.331  10.702   8.920 -0.9385  0.3903  1.0060
  120MOL0     C16438   1.381  10.737   8.782  0.2515 -0.0278  0.1984
  120MOL0     N16439   1.508  10.675   8.741 -0.2446 -0.3564  0.8207
  120MOL0     C16440   1.646  10.712   8.778  0.4900 -0.1680  0.4041
  120MOL0     C16441   1.723  10.648   8.692  1.0291  0.9845 -0.1584
  120MOL0     C16442   1.874  10.664   8.664  0.0216 -0.3394 -0.8477
  120MOL0     C16443   1.911  10.787   8.572  0.2563  0.2713 -0.2990
  120MOL0     C16444   2.057  10.789   8.525 -0.5966 -0.2420  0.4290
  120MOL0     C16445   2.086  10.889   8.408  0.1445  0.1110 -0.9158
  120MOL0     O16446   2.103  10.807   8.294 -0.1235 -0.2322  0.4798
  120MOL0     C16447   2.048  10.845   8.177 -1.4135  0.4913  0.5155
  120MOL0     C16448   2.091  10.953   8.109 -0.3850  0.0073  0.2473
  120MOL0     C16449   2.030  11.012   8.001  0.6676 -0.3924 -0.7420
  120MOL0     C16450   2.092  11.143   7.936 -0.5700 -0.3302 -0.4733
  120MOL0     C16451   1.920  10.946   7.943  0.4673 -0.3053  0.8213
  120MOL0     C16452   1.838  11.004   7.829 -0.3342 -0.4961  1.2886
  120MOL0     O16453   1.695  10.972   7.835 -0.3666  0.1959 -0.1692
  120MOL0     C16454   1.619  11.017   7.736 -0.5385  0.1429  0.1848
  120MOL0     C16455   1.545  11.131   7.755  0.1915  0.3742 -0.1914
  120MOL0     C16456   1.473  11.184   7.653  0.4942  0.3757 -0.2184
  120MOL0     C16457   1.459  11.123   7.533  0.4937  0.5594  0.3224
  120MOL0     O16458   1.371  11.173   7.449  0.0611 -0.9453 -0.2114
  120MOL0     C16459   1.422  11.257   7.345 -0.5785 -0.2509 -0.3020
  120MOL0     C16460   1.481  11.387   7.400  0.1928  0.0399  0.6430
  120MOL0     C16461   1.475  11.501   7.298  0.5351  0.0509 -0.0618
  120MOL0     C16462   1.585  11.477   7.187  0.4029 -0.1132  0.2924
  120MOL0     C16463   1.523  11.435   7.048 -1.0844  0.4149 -0.4338
  120MOL0     C16464   1.630  11.412   6.938 -0.5961 -0.3636  0.4763
  120MOL0     C16465   1.708  11.543   6.906 -0.1886  0.0049  0.3779
  120MOL0     C16466   1.830  11.526   6.822 -0.1228  0.0326 -0.2547
  120MOL0    Cl16467   1.805  11.500   6.653  0.1694 -0.0459  0.0693
  120MOL0     C16468   1.534  11.003   7.517 -0.7657 -0.1105  0.1872
  120MOL0     C16469   1.612  10.948   7.619  0.1025 -0.3249  0.0402
  120MOL0     O16470   1.898  11.033   7.723  0.4065  0.7192  0.8960
  120MOL0     C16471   1.867  10.827   8.016 -0.4428  0.0446  0.0346
  120MOL0     C16472   1.933  10.785   8.128  0.0175  0.0281 -0.2783
  120MOL0     N16473   1.641  10.563   8.610 -0.6668  0.0066 -0.1014
  120MOL0     N16474   1.524  10.571   8.648 -0.3519  0.6832 -0.3866
  120MOL0     C16475   0.714   9.919   9.084 -0.9365 -0.6378  0.7371
  120MOL0     C16476   0.589   9.868   9.055  0.0800  0.5153  0.6964
  120MOL0     C16477   0.193   9.803   8.892  0.2404  0.0271  0.3474
  120MOL0     C16478   0.189   9.664   8.878  0.1087  0.3579 -0.2234
  120MOL0     C16479   0.068   9.593   8.871 -0.1466 -1.2733 -0.2602
  120MOL0     C16480  -0.057   9.659   8.866 -0.0142  0.8118 -0.7900
  120MOL0     O16481  -0.168   9.580   8.848 -0.7437  0.4759 -0.0812
  120MOL0     C16482  -0.297   9.641   8.845  0.3562  0.1325  0.1186
  120MOL0     C16483  -0.320   9.713   8.711  0.7439 -0.2263  0.4186
  120MOL0     C16484  -0.456   9.787   8.704  0.3067 -0.1020  0.3051
  120MOL0     C16485  -0.480   9.862   8.568  0.1630  0.5223  0.8596
  120MOL0     C16486  -0.566   9.770   8.489  0.3072 -0.4733 -0.8312
  120MOL0     C16487  -0.641   9.697   8.426  0.7465 -0.6363  0.0999
  120MOL0     C16488  -0.051   9.797   8.884 -0.2337 -1.0848  0.3057
  120MOL0     C16489   0.069   9.869   8.895  0.2879 -0.5756 -0.6266
  120MOL0     C16490   0.054  10.023   8.918  0.1720  1.1883  0.4182
  120MOL0     H16491   0.635   9.811   8.727 -3.4326  0.1445  1.0982
  120MOL0     H16492   0.845   9.907   8.766  1.5937  3.4582  0.4924
  120MOL0     H16493   0.932  10.133   8.896  2.7742  3.6072 -0.4402
  120MOL0     H16494   1.061  10.022   8.870 -1.0163 -1.7185  0.9853
  120MOL0     H16495   1.018  10.163   9.139  1.0588  1.9068  0.6435
  120MOL0     H16496   1.156  10.080   9.088  0.8732 -0.6298 -1.8860
  120MOL0     H16497   1.216  10.252   8.920  0.6786 -0.8224  1.2406
  120MOL0     H16498   1.059  10.332   8.950  0.0056 -0.4314  0.3145
  120MOL0     H16499   1.149  10.382   9.187  2.3051 -3.5968  1.0334
  120MOL0     H16500   1.306  10.357   9.114  0.5355 -0.3091  1.2470
  120MOL0     H16501   1.230  10.595   9.125  0.8808 -0.6218 -0.0916
  120MOL0     H16502   1.112  10.554   9.008  1.3450  1.2955 -3.0496
  120MOL0     H16503   1.408  10.505   8.931  1.1086  1.7944  0.4119
  120MOL0     H16504   1.256  10.520   8.842 -0.1223 -1.5854  0.9521
  120MOL0     H16505   1.406  10.733   8.993  0.1463 -0.3234  0.2042
  120MOL0     H16506   1.234  10.752   8.933 -1.6773 -0.9476  0.8155
  120MOL0     H16507   1.303  10.709   8.711  2.5450 -1.0987 -2.0314
  120MOL0     H16508   1.396  10.845   8.781 -0.0261  0.0054 -1.2557
  120MOL0     H16509   1.690  10.766   8.862  2.4806 -5.2944  3.1216
  120MOL0     H16510   1.908  10.571   8.618  2.0350 -0.1598  0.2152
  120MOL0     H16511   1.934  10.672   8.754  2.9489 -0.9153 -2.6137
  120MOL0     H16512   1.847  10.787   8.484 -0.5577  0.7150  0.2795
  120MOL0     H16513   1.890  10.879   8.628 -0.6840 -1.3085  2.1067
  120MOL0     H16514   2.127  10.818   8.605  0.4599  1.8940 -1.1669
  120MOL0     H16515   2.091  10.686   8.508  1.0315  0.0554  1.6296
  120MOL0     H16516   2.000  10.955   8.392 -0.2360 -0.3059 -0.5926
  120MOL0     H16517   2.175  10.950   8.426 -0.5692  2.1525 -3.5968
  120MOL0     H16518   2.172  11.011   8.154  0.3748 -3.3734  3.8352
  120MOL0     H16519   2.026  11.229   7.946 -2.7209 -2.1496  3.3864
  120MOL0     H16520   2.113  11.116   7.832  3.6151  0.6556 -0.0534
  120MOL0     H16521   2.190  11.163   7.980 -0.5623 -0.6399 -0.3432
  120MOL0     H16522   1.568  11.179   7.850  0.1039 -0.8788  0.4812
  120MOL0     H16523   1.428  11.281   7.675  3.5854  1.4010  2.1937
  120MOL0     H16524   1.503  11.209   7.289  1.0265  2.0938 -0.1414
  120MOL0     H16525   1.352  11.282   7.265  1.1161 -1.2582 -2.1664
  120MOL0     H16526   1.426  11.412   7.492  1.9005  1.1873  1.4002
  120MOL0     H16527   1.584  11.366   7.429  1.0341  0.4594 -1.8298
  120MOL0     H16528   1.492  11.595   7.351 -0.8843  0.5367 -0.4212
  120MOL0     H16529   1.376  11.495   7.252  1.1058  0.1298 -1.3691
  120MOL0     H16530   1.657  11.400   7.216 -0.4412 -0.2511  2.1435
  120MOL0     H16531   1.642  11.571   7.179 -2.1319  1.4660 -0.4201
  120MOL0     H16532   1.456  11.352   7.071 -1.5439  0.6266 -0.9705
  120MOL0     H16533   1.447  11.506   7.014 -2.2664 -2.0462 -3.4244
  120MOL0     H16534   1.580  11.368   6.851 -0.4205 -0.1995  0.2915
  120MOL0     H16535   1.709  11.343   6.969 -0.3715  0.4810  1.8658
  120MOL0     H16536   1.725  11.603   6.995  1.5719 -2.0745  1.5506
  120MOL0     H16537   1.649  11.603   6.835 -0.9806  0.3218  1.2833
  120MOL0     H16538   1.885  11.441   6.864  2.2987  1.9311  0.5863
  120MOL0     H16539   1.891  11.616   6.826  2.6696 -1.7693  1.1215
  120MOL0     H16540   1.510  10.950   7.426  1.5268 -1.4926  0.3379
  120MOL0     H16541   1.669  10.856   7.618 -2.0641 -1.7488 -1.4517
  120MOL0     H16542   1.795  10.756   7.976 -1.7831  2.3925 -1.9484
  120MOL0     H16543   1.892  10.695   8.172  1.4551 -0.5029  0.0360
  120MOL0     H16544   0.737   9.944   9.187  0.4938  0.2320  0.2363
  120MOL0     H16545   0.514   9.847   9.130  0.5715 -1.8276  0.6099
  120MOL0     H16546   0.279   9.604   8.873  0.6752  1.2556 -1.2709
  120MOL0     H16547   0.076   9.485   8.865 -0.9063 -1.4988  2.0700
  120MOL0     H16548  -0.368   9.560   8.860  0.8771 -0.0686  1.6545
  120MOL0     H16549  -0.314   9.711   8.927 -0.9916  2.1666 -1.7856
  120MOL0     H16550  -0.312   9.641   8.630  2.8267 -0.3633  0.6968
  120MOL0     H16551  -0.250   9.797   8.699 -1.4332  1.8138  1.1288
  120MOL0     H16552  -0.536   9.714   8.723  2.1899 -2.6199 -0.8642
  120MOL0     H16553  -0.455   9.858   8.787 -0.0784 -1.2567  1.3387
  120MOL0     H16554  -0.394   9.891   8.507  0.7766 -1.6682  0.5759
  120MOL0     H16555  -0.534   9.956   8.584  0.1213  0.5207  0.7333
  120MOL0     H16556  -0.715   9.632   8.382  3.0902 -3.2307 -0.2932
  120MOL0     H16557  -0.142   9.856   8.885  0.8455  0.7919 -1.8990
  120MOL0     H16558  -0.051  10.050   8.909 -0.5530 -1.0954  1.4573
  120MOL0     H16559   0.102  10.053   9.011  0.4662 -0.3758  0.7920
  120MOL0     H16560   0.116  10.073   8.843  2.4185 -1.8001  0.0953
  121MOL0     O16561   0.308   0.988   2.398 -0.3623 -0.5646  0.4862
  121MOL0     C16562   0.232   0.980   2.305  0.0223  0.0730 -0.5707
  121MOL0     O16563   0.270   0.976   2.177  0.1927 -0.1494  0.1551
  121MOL0     C16564   0.400   0.995   2.134 -0.5691 -0.1954 -0.1798
  121MOL0     C16565   0.439   1.106   2.058 -0.2843  0.4354  0.4748
  121MOL0     C16566   0.565   1.099   1.988 -0.5193 -0.7716 -0.6999
  121MOL0     C16567   0.648   0.988   1.998 -0.1604 -0.3908  0.5145
  121MOL0     O16568   0.759   0.988   1.918 -0.3062  1.3752  0.7052
  121MOL0     C16569   0.852   0.885   1.907 -0.6732 -0.3287 -0.5702
  121MOL0     C16570   0.990   0.929   1.963 -0.3294  0.4610  0.2155
  121MOL0     C16571   0.994   0.956   2.115 -0.9620 -0.2864  0.6594
  121MOL0     C16572   0.994   0.839   2.200 -0.9382 -0.2075  0.2371
  121MOL0     C16573   1.047   0.859   2.340  0.5130  0.0460 -0.2111
  121MOL0     C16574   1.049   0.726   2.398  0.3434 -0.4988 -1.0929
  121MOL0     C16575   1.091   0.737   2.544 -0.1973  0.1106 -0.3138
  121MOL0     C16576   1.104   0.602   2.606 -0.3981 -0.0614 -0.3607
  121MOL0     N16577   0.969   0.540   2.632 -0.5321  0.0575  0.1494
  121MOL0     C16578   0.875   0.586   2.719  0.3949  0.1351  0.2799
  121MOL0     C16579   0.771   0.510   2.687 -0.2754 -0.9108 -0.5134
  121MOL0     C16580   0.635   0.525   2.752 -0.1399 -0.3644 -0.5599
  121MOL0     C16581   0.543   0.621   2.679 -0.1153  0.1403 -0.3369
  121MOL0     C16582   0.420   0.673   2.761 -0.2655 -0.0777  0.7090
  121MOL0     C16583   0.420   0.824   2.795  0.1509  0.0430 -0.8087
  121MOL0     O16584   0.514   0.850   2.900 -0.5212  0.5922 -0.3877
  121MOL0     C16585   0.646   0.876   2.870 -0.3978  0.9462 -0.6887
  121MOL0     C16586   0.743   0.846   2.971 -1.0973 -0.3328 -0.0091
  121MOL0     C16587   0.879   0.884   2.955 -0.3408  0.5268 -0.0158
  121MOL0     C16588   0.959   0.859   3.080 -0.3598  0.2579  1.7196
  121MOL0     C16589   0.927   0.945   2.841 -0.1185 -0.7395 -0.1200
  121MOL0     C16590   1.071   0.970   2.816  0.3598  0.5872  0.6169
  121MOL0     O16591   1.100   1.103   2.783 -0.3870 -0.2382 -0.5828
  121MOL0     C16592   1.222   1.161   2.819 -0.0087 -0.2640 -0.1220
  121MOL0     C16593   1.283   1.259   2.740  0.9283 -0.3219 -1.1274
  121MOL0     C16594   1.401   1.317   2.783 -0.7141 -0.3511  0.2902
  121MOL0     C16595   1.460   1.276   2.899 -0.7064 -0.4655 -0.1129
  121MOL0     O16596   1.573   1.335   2.941 -0.2539  0.1120 -0.1709
  121MOL0     C16597   1.697   1.334   2.857 -0.3018 -0.6300 -0.3595
  121MOL0     C16598   1.832   1.308   2.916 -0.5529  0.2222 -0.4231
  121MOL0     C16599   1.862   1.401   3.028 -0.5375 -0.6834 -0.4971
  121MOL0     C16600   2.008   1.389   3.076  0.6549  0.7029 -0.0007
  121MOL0     C16601   2.045   1.493   3.179  0.2948  0.9280 -0.1754
  121MOL0     C16602   2.194   1.496   3.206 -0.2472 -0.1891 -0.2403
  121MOL0     C16603   2.227   1.606   3.299  0.9223 -0.8256  0.7268
  121MOL0     C16604   2.371   1.608   3.350  0.3129  0.1593  0.0923
  121MOL0    Cl16605   2.474   1.618   3.202 -0.1392 -0.2600 -0.5367
  121MOL0     C16606   1.390   1.199   2.989  0.6316 -0.4620  0.3630
  121MOL0     C16607   1.268   1.144   2.948  0.8482  1.1553 -0.2617
  121MOL0     O16608   1.154   0.885   2.839 -1.0596  0.0569  0.0153
  121MOL0     C16609   0.830   0.986   2.740  0.2356  1.1799 -0.3742
  121MOL0     C16610   0.696   0.944   2.752  0.2129 -0.4823 -0.0654
  121MOL0     N16611   0.808   0.415   2.593 -0.3771 -0.1620 -0.0165
  121MOL0     N16612   0.924   0.437   2.559 -0.8430  0.5918  0.3211
  121MOL0     C16613   0.610   0.875   2.077 -0.5179  0.6233 -0.3451
  121MOL0     C16614   0.490   0.874   2.140  0.1673 -0.1783 -1.1630
  121MOL0     C16615   0.083   0.970   2.335  1.0119 -1.0575 -0.7099
  121MOL0     C16616  -0.007   0.997   2.219 -0.1259 -0.2066 -0.0319
  121MOL0     C16617  -0.147   1.001   2.220 -0.1951 -0.4260  0.0155
  121MOL0     C16618  -0.200   0.974   2.348  0.3435  0.3713 -0.7083
  121MOL0     O16619  -0.335   0.962   2.342  0.2392 -0.2882 -0.2320
  121MOL0     C16620  -0.417   0.977   2.464  0.3187 -0.5909 -0.5158
  121MOL0     C16621  -0.561   1.034   2.421 -0.1739  0.3512  0.3581
  121MOL0     C16622  -0.649   1.005   2.550 -0.9053 -1.1474  0.2612
  121MOL0     C16623  -0.800   1.028   2.514 -0.0689 -0.6693 -0.2454
  121MOL0     C16624  -0.857   0.912   2.445 -0.2760 -0.5757  0.4411
  121MOL0     C16625  -0.912   0.823   2.385 -1.0849  0.2465  0.0781
  121MOL0     C16626  -0.120   0.944   2.462 -0.6073  0.3908 -0.0303
  121MOL0     C16627   0.019   0.943   2.457 -0.1046  0.2066 -0.0345
  121MOL0     C16628   0.102   0.914   2.576  0.4230  0.2509  0.0869
  121MOL0     H16629   0.379   1.197   2.057 -2.8164 -1.1470  0.7649
  121MOL0     H16630   0.609   1.189   1.946  1.8326 -0.7886  1.4426
  121MOL0     H16631   0.865   0.865   1.800  1.6152 -3.5108  0.1881
  121MOL0     H16632   0.826   0.790   1.954  0.5566  0.2986  1.5001
  121MOL0     H16633   1.058   0.846   1.942 -1.0074 -0.2885  0.9003
  121MOL0     H16634   1.013   1.022   1.910 -1.1723 -0.4025 -1.7407
  121MOL0     H16635   1.077   1.024   2.137 -1.3603  1.0131 -1.4843
  121MOL0     H16636   0.914   1.025   2.143 -1.4325  0.1117 -1.4916
  121MOL0     H16637   0.894   0.794   2.198  0.4950 -3.8841 -3.0745
  121MOL0     H16638   1.052   0.757   2.155 -1.0959 -0.6926  0.9129
  121MOL0     H16639   0.989   0.935   2.393  1.0989  2.1750 -2.4494
  121MOL0     H16640   1.151   0.894   2.339  0.1804  1.0678 -0.8926
  121MOL0     H16641   0.945   0.691   2.401  0.2475 -0.1673  0.1185
  121MOL0     H16642   1.106   0.656   2.337  0.4902 -0.3119 -1.1693
  121MOL0     H16643   1.029   0.802   2.606  0.0509 -0.4635  0.5620
  121MOL0     H16644   1.190   0.784   2.541 -0.1393 -0.0056 -0.2443
  121MOL0     H16645   1.165   0.532   2.549  1.3711  0.1273  1.2186
  121MOL0     H16646   1.151   0.616   2.703  3.3267  0.1996 -2.0501
  121MOL0     H16647   0.871   0.664   2.794 -5.0335  0.7869 -0.2592
  121MOL0     H16648   0.650   0.565   2.853 -2.2209  1.4989 -0.9142
  121MOL0     H16649   0.592   0.425   2.758  1.8934 -1.2376  0.2857
  121MOL0     H16650   0.600   0.708   2.646  1.1685 -1.1338 -1.6155
  121MOL0     H16651   0.496   0.567   2.597  0.6944  0.1519 -0.8209
  121MOL0     H16652   0.327   0.647   2.710 -0.0860  1.0480 -0.2286
  121MOL0     H16653   0.409   0.605   2.846  3.3173 -2.7366 -0.6729
  121MOL0     H16654   0.440   0.892   2.711  3.1065 -0.8186 -0.9276
  121MOL0     H16655   0.329   0.853   2.848  1.0165  1.7417 -0.1818
  121MOL0     H16656   0.714   0.776   3.049  0.4518 -2.2401 -1.0586
  121MOL0     H16657   0.902   0.888   3.169  0.8054  0.3403  2.4718
  121MOL0     H16658   1.052   0.916   3.078  1.2846 -2.2531  1.6927
  121MOL0     H16659   0.989   0.753   3.078  3.0484  1.0070 -3.1326
  121MOL0     H16660   1.238   1.295   2.648  0.3532  1.7549 -0.0979
  121MOL0     H16661   1.447   1.388   2.715  1.4743 -2.1776 -0.2491
  121MOL0     H16662   1.676   1.254   2.785 -0.5663 -1.1239  0.2469
  121MOL0     H16663   1.695   1.433   2.811 -0.5584 -0.2710  0.4038
  121MOL0     H16664   1.825   1.212   2.968 -1.8169  1.7176  2.3709
  121MOL0     H16665   1.908   1.325   2.839  0.0665 -1.4794 -0.2430
  121MOL0     H16666   1.800   1.378   3.116 -0.4617  0.2279 -0.2000
  121MOL0     H16667   1.849   1.503   2.993  1.5544  0.5230  1.8764
  121MOL0     H16668   2.063   1.403   2.982  1.2115  0.6387  0.3119
  121MOL0     H16669   2.025   1.294   3.127  3.0583  0.8503 -0.4011
  121MOL0     H16670   2.015   1.592   3.144 -0.2906  0.8399  0.0791
  121MOL0     H16671   1.977   1.474   3.262  1.0500  0.5009  0.3649
  121MOL0     H16672   2.231   1.523   3.107  1.0439 -0.5232  0.1354
  121MOL0     H16673   2.227   1.395   3.232 -0.5315  0.0518  1.1601
  121MOL0     H16674   2.161   1.609   3.387 -0.9101  1.5152 -0.6068
  121MOL0     H16675   2.205   1.696   3.241 -1.4728 -0.9855  1.2871
  121MOL0     H16676   2.383   1.517   3.409 -3.3372 -0.9007 -0.5443
  121MOL0     H16677   2.382   1.701   3.407  2.5400  0.9586 -1.4825
  121MOL0     H16678   1.427   1.185   3.090 -0.6155  1.9444  1.2267
  121MOL0     H16679   1.219   1.077   3.019  3.1674  1.3994  1.7086
  121MOL0     H16680   0.854   1.040   2.649  2.8776 -0.7741 -0.9557
  121MOL0     H16681   0.627   0.972   2.673  0.0150 -1.2836 -0.1844
  121MOL0     H16682   0.678   0.795   2.104  0.8150  1.2303 -1.7608
  121MOL0     H16683   0.466   0.775   2.180 -0.0553 -0.4562 -1.9733
  121MOL0     H16684   0.040   0.995   2.121  0.4438 -1.6086  0.2418
  121MOL0     H16685  -0.211   1.019   2.134 -0.1833 -0.7969 -0.0706
  121MOL0     H16686  -0.413   0.877   2.508  3.6939  0.5716  2.2285
  121MOL0     H16687  -0.377   1.043   2.541 -1.7864 -0.8274  0.8551
  121MOL0     H16688  -0.597   0.979   2.333  1.4008  1.5623 -1.1403
  121MOL0     H16689  -0.563   1.140   2.392 -2.1518  0.0073 -0.9655
  121MOL0     H16690  -0.623   0.907   2.590  2.3945 -0.1722  0.8051
  121MOL0     H16691  -0.617   1.094   2.604  1.9681  0.2835 -3.3654
  121MOL0     H16692  -0.816   1.113   2.447 -1.2371 -0.7473 -0.0847
  121MOL0     H16693  -0.856   1.046   2.607  2.7998  2.2006  1.1386
  121MOL0     H16694  -0.959   0.735   2.347  0.2699 -1.4722  2.1641
  121MOL0     H16695  -0.172   0.897   2.545 -1.7608 -2.0052 -1.9659
  121MOL0     H16696   0.177   0.838   2.552 -1.2442 -1.4070 -0.1179
  121MOL0     H16697   0.145   1.006   2.617 -0.5718 -0.4918  3.1199
  121MOL0     H16698   0.043   0.876   2.661 -1.8934  0.9786 -1.0960
  122MOL0     O16699   7.023   1.273   1.407  0.2839 -0.4081 -0.1939
  122MOL0     C16700   7.100   1.354   1.456  0.3284 -1.1402  0.2794
  122MOL0     O16701   7.069   1.487   1.472  0.5664 -0.5098  0.5351
  122MOL0     C16702   6.951   1.548   1.418 -0.5533  0.3252  0.1506
  122MOL0     C16703   6.973   1.660   1.335 -0.8224  0.7772 -0.4067
  122MOL0     C16704   6.868   1.735   1.280  0.6433  0.2420  0.1586
  122MOL0     C16705   6.730   1.685   1.294 -0.4914 -0.2704  0.7135
  122MOL0     O16706   6.633   1.764   1.238  0.1815 -0.3868  0.4894
  122MOL0     C16707   6.492   1.750   1.272 -0.1297  0.3752 -0.4000
  122MOL0     C16708   6.448   1.869   1.356 -0.3104 -0.5106  0.2454
  122MOL0     C16709   6.470   2.007   1.300 -0.3394 -0.0049  0.5188
  122MOL0     C16710   6.395   2.025   1.163  0.9233  0.1218 -0.6769
  122MOL0     C16711   6.393   2.175   1.109 -1.3888  0.5856 -0.7075
  122MOL0     C16712   6.287   2.192   1.007  0.1993 -0.2818 -0.3648
  122MOL0     C16713   6.281   2.332   0.949  0.5101  0.4120 -0.1739
  122MOL0     C16714   6.237   2.441   1.041  0.9303 -0.3932  0.3620
  122MOL0     N16715   6.108   2.419   1.091  0.5265 -0.5164 -0.5081
  122MOL0     C16716   6.078   2.382   1.220  0.4327 -0.1561  0.6133
  122MOL0     C16717   5.944   2.350   1.217 -0.1236 -0.4309 -0.1116
  122MOL0     C16718   5.887   2.289   1.339 -0.4297 -0.2159  0.2300
  122MOL0     C16719   5.747   2.249   1.296  0.0365 -0.0846 -0.0572
  122MOL0     C16720   5.662   2.194   1.415  0.2389 -0.4220  0.1940
  122MOL0     C16721   5.732   2.079   1.487 -0.1396  0.6368 -0.8846
  122MOL0     O16722   5.794   1.976   1.396 -0.0323  0.2352  0.0354
  122MOL0     C16723   5.885   1.902   1.456 -0.9000 -1.3315 -0.4795
  122MOL0     C16724   6.003   1.957   1.516  0.1283 -0.4486  0.3434
  122MOL0     C16725   6.097   1.872   1.583  0.4189 -0.6566  0.0105
  122MOL0     C16726   6.203   1.942   1.667  0.1523 -0.1906 -0.3366
  122MOL0     C16727   6.077   1.739   1.584  0.0673 -0.4309 -0.6847
  122MOL0     C16728   6.173   1.647   1.645 -0.6267  0.2403 -0.3083
  122MOL0     O16729   6.303   1.668   1.641  0.0739  0.8163 -0.1441
  122MOL0     C16730   6.394   1.575   1.688  0.7925  0.0212  0.8469
  122MOL0     C16731   6.426   1.581   1.820  0.1099  0.5722 -0.6299
  122MOL0     C16732   6.524   1.487   1.864  0.2043 -0.1347  0.6894
  122MOL0     C16733   6.595   1.397   1.771  0.0076 -0.1245  1.0782
  122MOL0     O16734   6.692   1.322   1.825  0.2451  0.4206 -0.3020
  122MOL0     C16735   6.765   1.228   1.742  0.4971 -0.1664  0.7862
  122MOL0     C16736   6.847   1.142   1.838 -0.3576  0.1651 -0.3527
  122MOL0     C16737   6.945   1.050   1.770  1.1734  0.0820  0.2188
  122MOL0     C16738   6.883   0.926   1.706 -0.5602 -1.1409  0.1235
  122MOL0     C16739   6.988   0.832   1.637 -0.8022  0.1585  0.2206
  122MOL0     C16740   7.106   0.797   1.723 -0.2655 -0.4312 -0.1423
  122MOL0     C16741   7.167   0.659   1.687 -0.1907  0.1191  0.8178
  122MOL0     C16742   7.325   0.650   1.703  0.4962  0.0232  0.3664
  122MOL0    Cl16743   7.406   0.770   1.597  0.3653  0.1665 -0.2223
  122MOL0     C16744   6.554   1.405   1.634 -0.5575 -0.3840  0.6379
  122MOL0     C16745   6.457   1.493   1.595  0.4699  0.1697  0.5280
  122MOL0     O16746   6.119   1.541   1.690 -0.3193 -0.8815 -0.6655
  122MOL0     C16747   5.971   1.692   1.522  0.2237  0.0993 -0.5452
  122MOL0     C16748   5.874   1.770   1.469 -0.6789  0.2104  0.8551
  122MOL0     N16749   5.896   2.368   1.092  0.4056 -1.0731  0.6088
  122MOL0     N16750   5.992   2.416   1.023  0.1701 -0.4808  0.0212
  122MOL0     C16751   6.709   1.563   1.366 -0.7687  0.0043 -0.8931
  122MOL0     C16752   6.820   1.502   1.431  0.9704 -0.6463  0.5479
  122MOL0     C16753   7.226   1.313   1.524 -0.0191 -0.3371  0.0251
  122MOL0     C16754   7.310   1.419   1.564 -0.1462 -0.0898  0.0779
  122MOL0     C16755   7.432   1.392   1.630  0.1376 -0.8114  0.2538
  122MOL0     C16756   7.481   1.266   1.650 -0.6432  0.2105  0.8945
  122MOL0     O16757   7.606   1.244   1.706  0.4508  0.1536  0.2025
  122MOL0     C16758   7.701   1.345   1.709  0.7547  0.0076 -0.4489
  122MOL0     C16759   7.833   1.272   1.716  1.0023 -0.1992  0.3069
  122MOL0     C16760   7.868   1.209   1.583  0.0819 -0.4420  0.0970
  122MOL0     C16761   7.810   1.067   1.578 -0.7481 -0.2121  0.1418
  122MOL0     C16762   7.713   1.049   1.471 -0.0537 -0.3433  0.3047
  122MOL0     C16763   7.632   1.043   1.378  0.1970 -0.4219  0.0037
  122MOL0     C16764   7.402   1.158   1.607 -0.5965 -0.1475  0.5156
  122MOL0     C16765   7.280   1.182   1.537 -0.2323 -0.1984 -1.0381
  122MOL0     C16766   7.212   1.066   1.476 -0.4165  0.1277  0.3534
  122MOL0     H16767   7.075   1.697   1.323  0.1696 -1.1123  1.5310
  122MOL0     H16768   6.875   1.836   1.240 -0.1752  0.6456  1.0164
  122MOL0     H16769   6.469   1.661   1.331  1.9679 -0.1241 -0.2681
  122MOL0     H16770   6.440   1.735   1.177 -1.7988 -0.8947  0.6581
  122MOL0     H16771   6.343   1.868   1.388  0.1949  1.3142  2.1987
  122MOL0     H16772   6.513   1.868   1.444  0.6051 -1.0525 -0.4243
  122MOL0     H16773   6.420   2.075   1.370 -2.8434 -0.6108 -0.5463
  122MOL0     H16774   6.574   2.040   1.287  0.5554 -2.0638  1.9526
  122MOL0     H16775   6.445   1.974   1.080  0.1905  0.6998 -1.4836
  122MOL0     H16776   6.294   1.984   1.163  1.3132 -0.9057  0.2297
  122MOL0     H16777   6.492   2.189   1.066 -0.2489 -0.7424  1.2973
  122MOL0     H16778   6.380   2.247   1.190 -2.5294  0.5640 -0.8548
  122MOL0     H16779   6.316   2.124   0.925  0.2135 -0.3323 -0.3178
  122MOL0     H16780   6.188   2.167   1.045  0.8671 -2.1564  0.2774
  122MOL0     H16781   6.212   2.326   0.864  0.4297  1.1131 -0.1599
  122MOL0     H16782   6.379   2.347   0.902  1.1149  0.1454  0.9657
  122MOL0     H16783   6.301   2.466   1.126  0.7724  0.9464  0.1182
  122MOL0     H16784   6.236   2.533   0.981 -1.3373 -0.8805 -0.4630
  122MOL0     H16785   6.148   2.359   1.300  3.4132 -1.8889 -2.2145
  122MOL0     H16786   5.880   2.352   1.429 -3.1928 -0.0579 -0.0128
  122MOL0     H16787   5.941   2.196   1.359 -1.9522 -1.1979 -0.0196
  122MOL0     H16788   5.700   2.338   1.254  0.5576 -1.6521 -4.4204
  122MOL0     H16789   5.760   2.174   1.217  0.5188  0.1849 -0.2358
  122MOL0     H16790   5.641   2.279   1.480 -0.6660 -0.1000 -0.4977
  122MOL0     H16791   5.562   2.179   1.375  0.5143 -1.7065 -0.0355
  122MOL0     H16792   5.808   2.124   1.552 -1.3008  0.1113  0.9129
  122MOL0     H16793   5.653   2.037   1.550  1.0656  0.3852  0.4981
  122MOL0     H16794   6.024   2.063   1.513 -1.0069 -0.2060  0.7471
  122MOL0     H16795   6.284   1.983   1.607  1.0986 -0.7749  0.5046
  122MOL0     H16796   6.241   1.873   1.744 -0.1847 -0.7533 -0.6656
  122MOL0     H16797   6.149   2.022   1.718  0.8961 -0.0985  0.3428
  122MOL0     H16798   6.367   1.645   1.884  1.2419  1.4012 -0.3847
  122MOL0     H16799   6.551   1.475   1.969 -0.8319 -2.1060  0.7892
  122MOL0     H16800   6.697   1.157   1.694  1.2735  0.4461 -1.3175
  122MOL0     H16801   6.826   1.287   1.674  1.3680 -1.2402  0.6244
  122MOL0     H16802   6.909   1.207   1.900 -0.9460  0.5082 -0.1224
  122MOL0     H16803   6.780   1.087   1.904  1.0788  1.2701  2.1560
  122MOL0     H16804   7.021   1.020   1.844  1.8146 -3.5121 -1.6609
  122MOL0     H16805   7.003   1.099   1.691 -1.3602  2.1423 -0.5115
  122MOL0     H16806   6.814   0.954   1.626 -0.0460 -2.0260 -0.6456
  122MOL0     H16807   6.823   0.877   1.784 -1.6114  1.8791  1.3447
  122MOL0     H16808   6.939   0.737   1.613 -0.4923 -0.6096  2.4097
  122MOL0     H16809   7.020   0.862   1.537 -1.3548  2.0828  0.5876
  122MOL0     H16810   7.088   0.785   1.830  1.8335  0.7285  0.4134
  122MOL0     H16811   7.181   0.877   1.720 -1.5319  0.8117  0.7612
  122MOL0     H16812   7.150   0.629   1.583  2.5176 -2.9770  1.0866
  122MOL0     H16813   7.120   0.582   1.749 -0.3030 -0.8846 -0.4754
  122MOL0     H16814   7.360   0.552   1.668  3.3905  1.5225 -1.4040
  122MOL0     H16815   7.352   0.653   1.809  1.7474  1.9569  0.0707
  122MOL0     H16816   6.598   1.352   1.550 -2.4057  0.3417 -0.8412
  122MOL0     H16817   6.421   1.503   1.494  0.8755  2.5620  0.5489
  122MOL0     H16818   5.941   1.591   1.499  1.8094 -0.1398 -1.6454
  122MOL0     H16819   5.789   1.719   1.423  0.4708 -2.0131  1.0879
  122MOL0     H16820   6.616   1.510   1.380 -1.2111  1.5285  3.3612
  122MOL0     H16821   6.799   1.408   1.481  2.2788 -1.3840 -0.2401
  122MOL0     H16822   7.277   1.522   1.555  2.8239  0.8227 -2.5350
  122MOL0     H16823   7.486   1.475   1.674  1.0527 -0.9854 -0.4829
  122MOL0     H16824   7.704   1.399   1.614  1.9846 -2.2533 -1.7698
  122MOL0     H16825   7.693   1.417   1.791  0.4028  0.6000 -0.9992
  122MOL0     H16826   7.834   1.197   1.796 -0.1551  0.0319  0.5597
  122MOL0     H16827   7.905   1.354   1.717  0.2293  0.4993 -0.1028
  122MOL0     H16828   7.834   1.267   1.497 -2.5056 -2.3544 -0.3104
  122MOL0     H16829   7.976   1.198   1.573 -0.0496  0.1829 -3.0402
  122MOL0     H16830   7.770   1.030   1.673  0.0986 -2.7343 -0.4146
  122MOL0     H16831   7.886   0.991   1.560 -2.3333 -2.0628  0.8964
  122MOL0     H16832   7.561   1.035   1.299 -2.2308 -0.6149  2.0888
  122MOL0     H16833   7.448   1.060   1.598  1.6269  0.9234 -0.4316
  122MOL0     H16834   7.105   1.051   1.497 -1.0215  0.7549 -1.9980
  122MOL0     H16835   7.229   1.085   1.370 -3.4108 -0.0174 -0.2609
  122MOL0     H16836   7.258   0.974   1.513 -1.2040 -0.2528  0.4092
  123MOL0     O16837   3.903  10.345   3.261  0.9429 -0.6969  0.5554
  123MOL0     C16838   3.824  10.334   3.359  0.1089 -0.3086 -0.1009
  123MOL0     O16839   3.852  10.270   3.473  1.0202  0.2696  0.4524
  123MOL0     C16840   3.967  10.199   3.487  0.1233  0.6373  0.4505
  123MOL0     C16841   3.955  10.069   3.515 -0.5568  0.6076 -0.2648
  123MOL0     C16842   4.071   9.983   3.517  0.0462 -0.2695  0.4993
  123MOL0     C16843   4.208  10.028   3.488 -0.1600  0.7379 -0.4569
  123MOL0     O16844   4.310   9.935   3.517 -0.2326 -0.0302  0.4126
  123MOL0     C16845   4.433   9.984   3.575 -0.6984 -0.2801  0.3498
  123MOL0     C16846   4.553   9.886   3.577  0.3866  0.6125  0.2518
  123MOL0     C16847   4.687   9.941   3.616  0.6524  0.4759  0.3874
  123MOL0     C16848   4.699   9.964   3.769 -0.2575 -0.7562 -0.3793
  123MOL0     C16849   4.839  10.008   3.815 -0.6416  0.2239 -0.4698
  123MOL0     C16850   4.876   9.977   3.963  0.3207  0.6346  0.3924
  123MOL0     C16851   5.013  10.025   4.005  0.9180 -0.4415 -0.1221
  123MOL0     C16852   5.037  10.000   4.151  0.2915  0.2508 -0.3831
  123MOL0     N16853   5.176  10.029   4.189  0.2561  0.6349  0.1747
  123MOL0     C16854   5.224  10.157   4.198 -0.4062  0.1429  0.3902
  123MOL0     C16855   5.362  10.141   4.197  0.1271  0.5122 -0.5453
  123MOL0     C16856   5.455  10.253   4.219 -0.6613 -0.1436 -0.0530
  123MOL0     C16857   5.485  10.334   4.096  0.0309  0.3993 -0.9957
  123MOL0     C16858   5.614  10.409   4.121 -0.1919  0.9574 -0.3038
  123MOL0     C16859   5.606  10.517   4.227  0.5342  0.2511 -0.3153
  123MOL0     O16860   5.730  10.548   4.302  0.0302 -0.4557  0.2319
  123MOL0     C16861   5.823  10.619   4.226  0.3646 -0.5195  0.0151
  123MOL0     C16862   5.927  10.551   4.164 -0.4219 -0.2054  0.4450
  123MOL0     C16863   6.028  10.625   4.100 -0.0884 -0.0622  0.7649
  123MOL0     C16864   6.139  10.549   4.043  0.3068  0.0299 -0.0676
  123MOL0     C16865   6.031  10.766   4.102 -0.1399 -0.8822 -0.4486
  123MOL0     C16866   6.151  10.842   4.047 -0.2084 -0.8435 -0.8448
  123MOL0     O16867   6.172  10.853   3.914  0.2760 -0.6890 -0.6033
  123MOL0     C16868   6.274  10.944   3.873  0.0743 -0.5418  0.3013
  123MOL0     C16869   6.268  11.081   3.892  0.5632  0.3865 -0.0354
  123MOL0     C16870   6.382  11.154   3.860  0.3757 -0.2538  0.7530
  123MOL0     C16871   6.502  11.098   3.809  0.6679 -0.4548 -0.6432
  123MOL0     O16872   6.614  11.178   3.792  0.5849  0.0102 -0.2808
  123MOL0     C16873   6.602  11.285   3.694  1.1418 -0.6675  1.3004
  123MOL0     C16874   6.742  11.331   3.654 -0.5799  0.3247  0.1793
  123MOL0     C16875   6.840  11.210   3.625 -0.0328  0.3361 -0.1421
  123MOL0     C16876   6.965  11.261   3.559  0.4201 -0.4135  0.7366
  123MOL0     C16877   7.064  11.141   3.538  0.5096 -0.5754  0.0827
  123MOL0     C16878   7.191  11.179   3.461  0.4808  0.0891  0.9672
  123MOL0     C16879   7.283  11.058   3.462  0.2293 -0.2911  0.4071
  123MOL0     C16880   7.253  10.969   3.334 -0.7578 -0.6728 -0.4596
  123MOL0    Cl16881   7.373  10.849   3.316 -0.0305 -0.3395 -0.0265
  123MOL0     C16882   6.488  10.965   3.773 -0.4246 -0.7083  0.1678
  123MOL0     C16883   6.379  10.883   3.802 -0.3138  0.3268  0.6234
  123MOL0     O16884   6.197  10.919   4.130 -0.4329  0.0792 -0.1405
  123MOL0     C16885   5.918  10.834   4.155  0.5195  0.3808 -0.8666
  123MOL0     C16886   5.822  10.759   4.222 -0.2688 -0.2419 -0.4730
  123MOL0     N16887   5.383  10.003   4.201 -0.8783  0.8068  0.1013
  123MOL0     N16888   5.271   9.936   4.186 -0.0122  0.9592 -0.4893
  123MOL0     C16889   4.219  10.163   3.457  0.1648  0.3002 -0.1511
  123MOL0     C16890   4.097  10.242   3.455  0.0350 -0.3849  0.0838
  123MOL0     C16891   3.701  10.416   3.367  0.8110  0.4437  0.8726
  123MOL0     C16892   3.653  10.450   3.495  0.7956 -0.0667  0.0273
  123MOL0     C16893   3.527  10.519   3.508  0.3457  0.9922 -0.6312
  123MOL0     C16894   3.457  10.556   3.399 -0.3920 -0.5600  0.0116
  123MOL0     O16895   3.342  10.630   3.429 -0.8592 -0.7398  0.5492
  123MOL0     C16896   3.256  10.672   3.322  0.1377 -0.0149 -0.6388
  123MOL0     C16897   3.142  10.757   3.383  0.9362 -1.1303  0.6810
  123MOL0     C16898   3.198  10.891   3.443  0.6406 -0.3108 -0.3524
  123MOL0     C16899   3.095  10.982   3.501 -0.4607 -0.8257  0.0851
  123MOL0     C16900   3.173  11.088   3.567  0.8869 -0.5424 -0.4616
  123MOL0     C16901   3.223  11.177   3.628  0.0420  0.4368 -0.7254
  123MOL0     C16902   3.507  10.529   3.272  0.8273 -0.7890 -0.3795
  123MOL0     C16903   3.622  10.462   3.251 -0.1348  0.1139 -0.0852
  123MOL0     C16904   3.650  10.424   3.112 -0.3560  0.2025  0.6931
  123MOL0     H16905   3.859  10.024   3.543 -1.7509  1.0576 -3.3185
  123MOL0     H16906   4.052   9.878   3.534 -0.1734 -1.2689 -4.3927
  123MOL0     H16907   4.433  10.023   3.677  3.7259 -1.3628  0.9465
  123MOL0     H16908   4.471  10.072   3.521 -0.1067 -1.6474 -1.5647
  123MOL0     H16909   4.532   9.807   3.650 -0.3118 -1.1521 -1.7695
  123MOL0     H16910   4.565   9.848   3.476  1.5545  2.3019 -0.2951
  123MOL0     H16911   4.761   9.862   3.600  0.5111 -0.0281  2.0389
  123MOL0     H16912   4.715  10.030   3.558 -0.8442 -1.3194 -3.4227
  123MOL0     H16913   4.623  10.027   3.817 -0.5431 -2.6773  1.8531
  123MOL0     H16914   4.683   9.867   3.816 -0.1040 -0.7663 -0.3475
  123MOL0     H16915   4.849  10.113   3.785  2.6322 -0.1330 -0.9324
  123MOL0     H16916   4.908   9.953   3.751 -0.7953  0.6628 -1.0285
  123MOL0     H16917   4.795  10.020   4.023  1.2273  2.8211  0.1614
  123MOL0     H16918   4.865   9.869   3.975 -0.3221  0.7662  1.0824
  123MOL0     H16919   5.022  10.130   3.976 -0.3704  0.0475  1.1457
  123MOL0     H16920   5.090   9.969   3.952  1.0294 -0.8864  0.5105
  123MOL0     H16921   4.969  10.061   4.212  0.7121 -0.0256  0.3861
  123MOL0     H16922   5.025   9.895   4.178  0.2386  0.5069  0.6393
  123MOL0     H16923   5.167  10.250   4.200 -3.8785 -1.5501 -3.6092
  123MOL0     H16924   5.548  10.216   4.263 -0.2334 -0.2355 -0.9973
  123MOL0     H16925   5.415  10.308   4.305  1.4060  0.8264  0.3411
  123MOL0     H16926   5.508  10.266   4.014  0.6248  0.0661 -0.5579
  123MOL0     H16927   5.398  10.395   4.067 -2.0394 -1.7331  0.3652
  123MOL0     H16928   5.692  10.339   4.153 -0.0147  1.8178  1.2510
  123MOL0     H16929   5.640  10.458   4.026  1.4383  2.0843  0.6734
  123MOL0     H16930   5.558  10.607   4.190 -0.4585  0.7512  1.9948
  123MOL0     H16931   5.547  10.483   4.313 -0.1310  0.1397 -0.8200
  123MOL0     H16932   5.936  10.444   4.182 -2.1504 -0.5221 -0.4143
  123MOL0     H16933   6.128  10.565   3.935 -2.1643 -0.5643  0.0432
  123MOL0     H16934   6.133  10.444   4.071  3.2066 -0.8690 -2.3725
  123MOL0     H16935   6.240  10.582   4.070  0.4421  0.2954 -0.8804
  123MOL0     H16936   6.181  11.117   3.946 -1.0087 -0.3597 -1.9702
  123MOL0     H16937   6.366  11.262   3.860 -1.4109 -0.4767 -0.9499
  123MOL0     H16938   6.546  11.237   3.614  2.1029 -0.4891  0.5112
  123MOL0     H16939   6.547  11.374   3.726 -1.9565 -1.7103 -0.6621
  123MOL0     H16940   6.746  11.405   3.574 -1.4501  0.8139  0.5814
  123MOL0     H16941   6.779  11.385   3.741  2.8026 -0.1605 -0.8130
  123MOL0     H16942   6.780  11.149   3.558 -2.2846  2.4742 -0.2135
  123MOL0     H16943   6.873  11.168   3.721  0.4851  1.4286  0.1768
  123MOL0     H16944   7.009  11.346   3.612  1.7438  0.4479 -1.6256
  123MOL0     H16945   6.936  11.299   3.461  0.7072  2.9373  1.8288
  123MOL0     H16946   7.099  11.099   3.633 -0.3597 -2.7947 -0.5142
  123MOL0     H16947   7.010  11.066   3.480  1.6382  0.5791 -2.6293
  123MOL0     H16948   7.241  11.256   3.521 -2.7237  3.0009  0.2265
  123MOL0     H16949   7.169  11.216   3.361 -0.9535  0.0312  1.2324
  123MOL0     H16950   7.270  11.008   3.558 -1.7016  1.0301  0.9011
  123MOL0     H16951   7.387  11.087   3.449 -0.1183  0.8393 -0.0270
  123MOL0     H16952   7.248  11.030   3.244 -4.4558  3.5104  2.1672
  123MOL0     H16953   7.151  10.930   3.341 -0.4479 -1.5674 -0.8404
  123MOL0     H16954   6.578  10.932   3.722  0.5929  1.7471  0.2330
  123MOL0     H16955   6.374  10.775   3.793 -0.4875  0.3924 -0.1150
  123MOL0     H16956   5.916  10.942   4.166 -0.1519  0.2363  0.7751
  123MOL0     H16957   5.740  10.807   4.273 -0.6882 -0.1982 -1.1708
  123MOL0     H16958   4.315  10.213   3.445  1.0489 -1.0260  1.0536
  123MOL0     H16959   4.109  10.345   3.422 -0.8388  0.1410  1.3406
  123MOL0     H16960   3.704  10.425   3.587 -1.2937 -0.8940  1.0263
  123MOL0     H16961   3.494  10.537   3.609  2.0830  1.7953 -0.1715
  123MOL0     H16962   3.312  10.737   3.254  0.0398  0.6982 -0.0617
  123MOL0     H16963   3.211  10.589   3.267 -0.4397  0.2337 -0.5459
  123MOL0     H16964   3.090  10.697   3.457 -1.1807  0.2525  0.4136
  123MOL0     H16965   3.076  10.782   3.299  1.5933 -0.2701  0.4058
  123MOL0     H16966   3.275  10.864   3.515  1.1316  0.1442 -0.7086
  123MOL0     H16967   3.251  10.947   3.366 -1.3615  0.5685 -1.1821
  123MOL0     H16968   3.034  10.924   3.570 -2.0668  0.2830 -0.3278
  123MOL0     H16969   3.036  11.022   3.417 -0.7395 -0.7781  0.3021
  123MOL0     H16970   3.276  11.253   3.683 -2.0441  1.9296 -0.6653
  123MOL0     H16971   3.439  10.549   3.189 -2.3651 -1.2267  1.9680
  123MOL0     H16972   3.566  10.444   3.044 -1.7415 -1.4083  1.8432
  123MOL0     H16973   3.737  10.480   3.077 -1.5518  1.1046 -0.9508
  123MOL0     H16974   3.683  10.320   3.106 -0.7664 -0.0145  1.8249
  124MOL0     O16975   3.295   1.887   6.692 -0.4155  0.2415 -0.3873
  124MOL0     C16976   3.235   1.983   6.735  0.4280 -1.1241  0.8046
  124MOL0     O16977   3.269   2.057   6.845 -0.5235  0.3073 -0.0175
  124MOL0     C16978   3.384   2.035   6.921  0.0867 -0.6839 -0.1532
  124MOL0     C16979   3.371   2.074   7.055  0.6172  0.3891 -1.1498
  124MOL0     C16980   3.473   2.060   7.152 -0.5597 -0.1088  0.2986
  124MOL0     C16981   3.598   2.008   7.116  0.3306  0.0828 -0.0969
  124MOL0     O16982   3.698   1.999   7.200  0.1117  0.1866  0.4144
  124MOL0     C16983   3.798   1.899   7.179  0.3029 -1.0544  0.3466
  124MOL0     C16984   3.923   1.914   7.268 -0.4224 -1.0858  0.3826
  124MOL0     C16985   4.005   2.046   7.238  0.2357  0.3726 -0.8353
  124MOL0     C16986   4.144   2.014   7.194 -0.2144  1.1839 -1.1588
  124MOL0     C16987   4.214   2.134   7.121  0.1981  0.3407 -0.1049
  124MOL0     C16988   4.253   2.253   7.210 -0.1390 -0.5797 -0.4383
  124MOL0     C16989   4.323   2.367   7.140 -0.5418  0.2571  0.3466
  124MOL0     C16990   4.244   2.459   7.039  0.2775 -0.2309  0.4814
  124MOL0     N16991   4.136   2.534   7.101 -1.2506 -0.1817  0.3317
  124MOL0     C16992   4.138   2.595   7.223  0.8272  0.1908  0.8009
  124MOL0     C16993   4.017   2.656   7.238  0.6120 -0.2171  0.0098
  124MOL0     C16994   3.970   2.741   7.352 -0.6158  0.5566 -0.0391
  124MOL0     C16995   3.945   2.875   7.294 -0.3947 -0.1608  0.1971
  124MOL0     C16996   3.933   2.981   7.405 -0.2491  0.0467  0.4889
  124MOL0     C16997   3.796   2.975   7.477  0.1710  0.1902 -0.4069
  124MOL0     O16998   3.796   2.874   7.581  0.1140 -0.2540 -0.1545
  124MOL0     C16999   3.684   2.797   7.605  0.1399 -0.1328  0.8812
  124MOL0     C17000   3.701   2.678   7.676  0.9461  0.3015  0.9106
  124MOL0     C17001   3.596   2.593   7.700  0.1187  0.3903 -0.3325
  124MOL0     C17002   3.626   2.471   7.798  0.5940 -0.4271 -0.2021
  124MOL0     C17003   3.463   2.632   7.650  0.2330  0.5820 -0.6804
  124MOL0     C17004   3.342   2.550   7.682 -0.5887 -0.2675  0.8299
  124MOL0     O17005   3.221   2.608   7.649  0.1997  0.0788 -0.2727
  124MOL0     C17006   3.100   2.540   7.684 -0.1973 -0.6746 -0.0693
  124MOL0     C17007   3.074   2.439   7.780 -0.6598  0.0839 -0.4711
  124MOL0     C17008   2.952   2.389   7.813  0.7696  0.3605  0.0081
  124MOL0     C17009   2.839   2.433   7.737 -0.8057  0.6286  1.0503
  124MOL0     O17010   2.716   2.399   7.790  0.3708  0.7481 -0.2113
  124MOL0     C17011   2.605   2.414   7.700  0.1148 -0.3831  0.9319
  124MOL0     C17012   2.465   2.376   7.764  0.3712  0.8715 -0.1028
  124MOL0     C17013   2.352   2.370   7.659 -0.3122  0.3753  0.9952
  124MOL0     C17014   2.222   2.321   7.712  0.0936  0.2253  1.7582
  124MOL0     C17015   2.122   2.299   7.604  0.7469  0.2353  0.0466
  124MOL0     C17016   2.140   2.157   7.536  0.4351  0.6695 -0.5134
  124MOL0     C17017   2.035   2.053   7.585  0.5439 -0.1622 -0.3469
  124MOL0     C17018   2.065   1.911   7.522  0.6762  0.0488 -0.5220
  124MOL0    Cl17019   2.008   1.912   7.359 -0.0924  0.0587 -0.3832
  124MOL0     C17020   2.862   2.519   7.630 -0.5591  0.1265  0.2579
  124MOL0     C17021   2.992   2.573   7.606 -0.4488 -0.7796 -0.1706
  124MOL0     O17022   3.365   2.427   7.706  0.9852  0.3726  0.1107
  124MOL0     C17023   3.447   2.755   7.593 -0.1293  0.2971 -0.1571
  124MOL0     C17024   3.555   2.843   7.579  0.2325  0.6463 -0.8401
  124MOL0     N17025   3.942   2.631   7.119 -0.1540 -0.1295  0.7353
  124MOL0     N17026   4.019   2.565   7.043 -0.0130  0.6035 -0.2752
  124MOL0     C17027   3.611   1.967   6.975  0.3289 -0.8112  0.3325
  124MOL0     C17028   3.510   1.984   6.885 -0.5147 -0.5950 -0.1103
  124MOL0     C17029   3.102   2.032   6.670 -0.1511 -0.2891  0.1625
  124MOL0     C17030   3.012   2.114   6.743 -0.3820  0.6212  0.6206
  124MOL0     C17031   2.885   2.152   6.712 -1.1796 -0.1477 -0.0577
  124MOL0     C17032   2.842   2.110   6.582  0.2824  0.1492 -0.2821
  124MOL0     O17033   2.721   2.114   6.526 -0.1569 -0.2372  0.8951
  124MOL0     C17034   2.621   2.160   6.619 -0.7776  0.4659 -0.1386
  124MOL0     C17035   2.474   2.157   6.558  0.4357 -0.2328  0.1374
  124MOL0     C17036   2.432   2.046   6.457 -0.1467 -0.0845 -0.1131
  124MOL0     C17037   2.281   2.061   6.427 -0.3365 -0.5042 -0.0521
  124MOL0     C17038   2.251   2.191   6.361 -0.7511 -0.6810 -0.4843
  124MOL0     C17039   2.228   2.305   6.321 -0.0506 -1.0592 -0.0928
  124MOL0     C17040   2.932   2.046   6.491 -0.5297  0.2061  0.5968
  124MOL0     C17041   3.061   2.010   6.536  0.1040 -0.6140  0.2754
  124MOL0     C17042   3.151   1.933   6.436  0.2365 -0.4312  0.7259
  124MOL0     H17043   3.275   2.123   7.068  1.9332  3.8086 -2.9620
  124MOL0     H17044   3.456   2.098   7.252 -0.9075 -0.8192  0.5177
  124MOL0     H17045   3.827   1.887   7.074 -1.4433 -2.1994 -0.0496
  124MOL0     H17046   3.755   1.802   7.206  0.8062 -1.2419  0.4965
  124MOL0     H17047   3.903   1.922   7.375 -1.6066  1.6443  0.0518
  124MOL0     H17048   3.977   1.821   7.253 -0.9442 -1.3870  0.3432
  124MOL0     H17049   3.945   2.090   7.159 -2.4194  0.4467  1.0851
  124MOL0     H17050   4.005   2.106   7.329  0.4183  1.8476 -1.7799
  124MOL0     H17051   4.192   1.975   7.285 -1.5285 -1.9785 -1.6855
  124MOL0     H17052   4.124   1.931   7.125 -0.3819 -1.1446  1.5292
  124MOL0     H17053   4.136   2.177   7.057  1.2728  0.3768 -1.4347
  124MOL0     H17054   4.297   2.087   7.069  2.3290  1.0430  2.4571
  124MOL0     H17055   4.158   2.291   7.250 -0.6978 -0.9726 -1.3544
  124MOL0     H17056   4.311   2.218   7.296 -1.4942  0.6761  1.0612
  124MOL0     H17057   4.392   2.318   7.070 -2.0734 -0.8349 -0.4560
  124MOL0     H17058   4.375   2.434   7.209 -1.5307  0.3967  0.9621
  124MOL0     H17059   4.313   2.535   7.002 -2.0329  2.4663  1.3584
  124MOL0     H17060   4.208   2.400   6.954  2.5888 -1.9823  0.6132
  124MOL0     H17061   4.206   2.607   7.307  0.9534  2.3136  0.4737
  124MOL0     H17062   4.037   2.741   7.439 -0.1383  1.5210 -0.3921
  124MOL0     H17063   3.869   2.720   7.388 -1.4176  3.5868 -0.2094
  124MOL0     H17064   4.029   2.904   7.231 -1.1087  1.6617  0.0395
  124MOL0     H17065   3.860   2.876   7.226 -0.9351  4.3825  0.6702
  124MOL0     H17066   4.019   2.982   7.473  0.6046  2.7163 -0.5353
  124MOL0     H17067   3.921   3.078   7.357 -1.2211 -0.5610 -0.5438
  124MOL0     H17068   3.780   3.067   7.534  3.1015 -0.5214  1.8122
  124MOL0     H17069   3.721   2.959   7.400  1.5507 -1.7737 -1.4253
  124MOL0     H17070   3.797   2.652   7.720  0.5058  2.4328  3.3981
  124MOL0     H17071   3.550   2.460   7.876  1.8070 -2.8853  0.7390
  124MOL0     H17072   3.721   2.481   7.851  1.9927 -1.2947 -2.3926
  124MOL0     H17073   3.633   2.381   7.735  2.5489  1.4969 -2.9729
  124MOL0     H17074   3.156   2.398   7.838  0.4540  0.9291 -1.4063
  124MOL0     H17075   2.922   2.320   7.891 -1.9980  0.0153 -1.2431
  124MOL0     H17076   2.600   2.516   7.662 -0.1417 -0.5570  0.4784
  124MOL0     H17077   2.628   2.351   7.613  0.3006  1.0741 -0.1153
  124MOL0     H17078   2.469   2.282   7.820  0.9980  0.0866 -1.4358
  124MOL0     H17079   2.441   2.452   7.840  0.9296  0.5148  0.4470
  124MOL0     H17080   2.382   2.299   7.581 -3.9036 -1.1792  0.8749
  124MOL0     H17081   2.351   2.472   7.617  5.0125  0.1313 -0.5168
  124MOL0     H17082   2.192   2.398   7.784  0.2106  1.2296  0.7586
  124MOL0     H17083   2.241   2.226   7.764 -1.3483  0.5885  3.0136
  124MOL0     H17084   2.024   2.303   7.651  0.2928 -2.2385 -0.5521
  124MOL0     H17085   2.135   2.372   7.523  4.1630 -0.6652 -0.3998
  124MOL0     H17086   2.240   2.113   7.551 -0.8330 -1.7377  1.7984
  124MOL0     H17087   2.132   2.174   7.428  2.1493 -2.2496 -1.2167
  124MOL0     H17088   1.934   2.088   7.563  0.6777 -1.1654 -2.7972
  124MOL0     H17089   2.046   2.056   7.694  1.2620  3.2915 -0.4247
  124MOL0     H17090   2.023   1.823   7.572  1.2972 -0.7254 -1.3288
  124MOL0     H17091   2.171   1.883   7.518  0.5105 -1.3671  2.3958
  124MOL0     H17092   2.777   2.545   7.568  0.0001  1.9565  0.1926
  124MOL0     H17093   3.002   2.639   7.521 -2.9630 -1.5288 -1.1636
  124MOL0     H17094   3.352   2.794   7.557 -1.6637 -0.7298  2.4183
  124MOL0     H17095   3.533   2.936   7.528 -3.2961 -0.0653 -0.8737
  124MOL0     H17096   3.707   1.930   6.940  1.5435  2.7231 -0.4388
  124MOL0     H17097   3.508   1.936   6.788 -1.9750 -1.3467  0.2522
  124MOL0     H17098   3.045   2.148   6.841  1.7478  0.3783  0.0338
  124MOL0     H17099   2.825   2.212   6.780 -1.7159 -1.8193  0.9989
  124MOL0     H17100   2.630   2.096   6.707  1.1686  0.7878 -0.0708
  124MOL0     H17101   2.642   2.262   6.651 -0.6264  0.9967 -1.8130
  124MOL0     H17102   2.468   2.252   6.504  0.4641 -0.9810 -1.2457
  124MOL0     H17103   2.406   2.150   6.644 -1.3089  1.3674 -1.0215
  124MOL0     H17104   2.489   2.036   6.364  2.0202 -0.5627  1.2116
  124MOL0     H17105   2.450   1.952   6.509  3.4411 -0.2541 -1.3763
  124MOL0     H17106   2.231   2.050   6.523  0.0203 -1.6109  0.0174
  124MOL0     H17107   2.250   1.982   6.358 -1.6172 -0.2422  0.2078
  124MOL0     H17108   2.216   2.408   6.293 -4.1071 -1.2967  0.1778
  124MOL0     H17109   2.891   2.013   6.396  0.0912 -2.3257  1.1310
  124MOL0     H17110   3.250   1.980   6.441 -0.4153  0.9679  0.8719
  124MOL0     H17111   3.162   1.830   6.471 -0.5377 -0.4067  1.0563
  124MOL0     H17112   3.111   1.938   6.334 -0.9880 -1.0700  1.1577
  125MOL0     O17113   9.977   6.720   0.755  0.4995 -0.3072  0.0630
  125MOL0     C17114   9.941   6.716   0.869  0.3310 -0.5976  0.4351
  125MOL0     O17115  10.019   6.718   0.981 -0.7327  0.1672 -0.1720
  125MOL0     C17116  10.155   6.736   0.969 -0.5330  0.6443  0.5063
  125MOL0     C17117  10.226   6.828   1.047  0.2747 -0.1962  0.5568
  125MOL0     C17118  10.365   6.839   1.029 -0.0105  1.1526  0.7515
  125MOL0     C17119  10.439   6.746   0.954 -0.3857  0.6339  0.2625
  125MOL0     O17120  10.580   6.760   0.951 -0.5975 -0.5044  0.2133
  125MOL0     C17121  10.650   6.643   0.899 -0.3980 -0.7145 -0.5551
  125MOL0     C17122  10.799   6.671   0.910  0.0328  0.0223 -0.9069
  125MOL0     C17123  10.884   6.555   0.861  0.9812  0.6105  0.3450
  125MOL0     C17124  11.017   6.610   0.834  0.1738 -0.1391 -0.3164
  125MOL0     C17125  11.112   6.499   0.790 -0.4816 -0.3760  0.6705
  125MOL0     C17126  11.249   6.566   0.757 -0.2032 -0.8330 -0.7815
  125MOL0     C17127  11.366   6.473   0.746  0.5721 -0.2203 -0.1806
  125MOL0     C17128  11.413   6.455   0.601  0.0424  0.4560 -0.8113
  125MOL0     N17129  11.545   6.383   0.581 -0.4287  0.1186 -0.3785
  125MOL0     C17130  11.657   6.431   0.517  0.5332  0.6140  0.3160
  125MOL0     C17131  11.758   6.342   0.539 -0.2224 -0.4000 -0.4549
  125MOL0     C17132  11.905   6.360   0.494 -0.0042  0.0373  1.1418
  125MOL0     C17133  11.923   6.296   0.356  0.5704 -0.3816 -0.6648
  125MOL0     C17134  11.921   6.146   0.353 -0.3760  0.3102 -0.4267
  125MOL0     C17135  12.041   6.091   0.427 -0.7323  1.1734 -0.2086
  125MOL0     O17136  12.170   6.150   0.382 -0.2259  0.1015 -0.5384
  125MOL0     C17137  12.224   6.119   0.259  0.1373  0.4452  0.5488
  125MOL0     C17138  12.177   6.011   0.185 -0.0978  0.1588 -1.0820
  125MOL0     C17139  12.248   5.966   0.065  0.1905 -0.8202 -0.0552
  125MOL0     C17140  12.187   5.842   0.007  0.5668 -0.0238  0.6054
  125MOL0     C17141  12.348   6.052   0.006  0.4475  0.9598 -0.2014
  125MOL0     C17142  12.408   6.014  -0.121 -0.1805  0.2012 -0.9139
  125MOL0     O17143  12.336   5.935  -0.210 -0.5822  0.0570  0.6271
  125MOL0     C17144  12.396   5.885  -0.328 -0.1172 -0.1645  0.6205
  125MOL0     C17145  12.520   5.822  -0.322 -0.3454 -0.5964 -0.3684
  125MOL0     C17146  12.577   5.785  -0.446  0.9181  0.4914 -0.7460
  125MOL0     C17147  12.508   5.792  -0.567  0.1679 -0.2364 -0.3341
  125MOL0     O17148  12.548   5.747  -0.682  0.6102 -0.4415  0.4207
  125MOL0     C17149  12.604   5.851  -0.765  0.4626  0.5854 -0.2134
  125MOL0     C17150  12.718   5.795  -0.837 -0.8217  0.4631 -0.1915
  125MOL0     C17151  12.833   5.756  -0.743  0.1925 -0.4450 -0.0092
  125MOL0     C17152  12.972   5.808  -0.782  0.8738  0.0542  0.2664
  125MOL0     C17153  13.079   5.805  -0.671  0.2463 -0.2401  0.1580
  125MOL0     C17154  13.222   5.850  -0.713 -1.0730  1.1485  0.8203
  125MOL0     C17155  13.240   6.004  -0.702  0.0710 -0.2879 -0.1825
  125MOL0     C17156  13.380   6.048  -0.729 -0.2019 -0.3431 -0.5741
  125MOL0    Cl17157  13.420   5.996  -0.895 -0.0904 -0.1111 -0.4266
  125MOL0     C17158  12.379   5.846  -0.573  0.1432  0.6147  0.1925
  125MOL0     C17159  12.325   5.892  -0.448  0.4647 -0.6764  0.5404
  125MOL0     O17160  12.517   6.071  -0.149  0.3159  0.0089 -0.3114
  125MOL0     C17161  12.394   6.158   0.083  0.6640 -0.0006 -0.2885
  125MOL0     C17162  12.334   6.191   0.210  0.1520  0.5963 -0.3877
  125MOL0     N17163  11.711   6.236   0.616  0.4048 -0.1388  0.0832
  125MOL0     N17164  11.587   6.261   0.628 -0.3075  0.3521  1.1728
  125MOL0     C17165  10.369   6.639   0.889  0.4175 -0.0077 -0.2479
  125MOL0     C17166  10.229   6.639   0.905 -0.4732  0.1984  1.0349
  125MOL0     C17167   9.795   6.708   0.887 -0.4847  0.0872 -0.3584
  125MOL0     C17168   9.743   6.765   1.003 -0.1661  0.4071  0.5751
  125MOL0     C17169   9.610   6.761   1.028  0.0789  0.1210  0.0772
  125MOL0     C17170   9.522   6.707   0.934  0.0281  0.9211  0.6095
  125MOL0     O17171   9.384   6.703   0.934 -0.2963 -0.3429  0.4376
  125MOL0     C17172   9.308   6.771   1.036  0.3444  0.1043  0.8576
  125MOL0     C17173   9.273   6.675   1.151 -0.2657 -0.7499 -0.6964
  125MOL0     C17174   9.176   6.565   1.096 -0.3898  0.9460 -0.8377
  125MOL0     C17175   9.063   6.604   0.999 -0.3421 -0.3234  0.8259
  125MOL0     C17176   8.962   6.511   0.971  0.5278 -0.4070 -0.6052
  125MOL0     C17177   8.877   6.423   0.970 -0.2303 -0.7718  0.1890
  125MOL0     C17178   9.577   6.649   0.817 -0.9355  0.2262  1.1925
  125MOL0     C17179   9.707   6.640   0.798  0.7284 -0.4336 -0.0094
  125MOL0     C17180   9.744   6.582   0.663  0.7209  0.6671 -0.2459
  125MOL0     H17181  10.178   6.905   1.107 -1.7480  0.2106 -1.4393
  125MOL0     H17182  10.421   6.912   1.087 -0.6096  1.6144  0.7562
  125MOL0     H17183  10.635   6.607   0.797  1.3533  1.4829 -1.6762
  125MOL0     H17184  10.620   6.558   0.961 -0.7067  0.4921  1.0336
  125MOL0     H17185  10.834   6.763   0.862  2.7251 -0.7735 -0.6411
  125MOL0     H17186  10.824   6.677   1.016  0.8877  0.5019 -1.1335
  125MOL0     H17187  10.876   6.470   0.929  0.2300  0.4989  0.1262
  125MOL0     H17188  10.852   6.519   0.763  2.0717  1.3912 -0.3207
  125MOL0     H17189  11.014   6.701   0.773 -3.6617  1.8847  2.4786
  125MOL0     H17190  11.054   6.636   0.933 -3.1615 -0.1951  1.0678
  125MOL0     H17191  11.081   6.434   0.708 -0.2895  0.6800 -0.2731
  125MOL0     H17192  11.126   6.438   0.879 -0.8701  2.0337  2.5054
  125MOL0     H17193  11.238   6.630   0.668  3.4288  1.7274  0.3713
  125MOL0     H17194  11.284   6.641   0.829  1.9732 -0.3983 -2.1759
  125MOL0     H17195  11.347   6.376   0.793  0.8186  0.1895  0.7887
  125MOL0     H17196  11.453   6.523   0.789  0.0456 -0.0933  0.7547
  125MOL0     H17197  11.331   6.389   0.570 -0.5899 -0.9849  3.3504
  125MOL0     H17198  11.412   6.546   0.541  1.5467  0.9292 -0.1582
  125MOL0     H17199  11.670   6.528   0.471  1.0450  0.3334 -0.1513
  125MOL0     H17200  11.977   6.333   0.572  2.4349  0.9969 -0.6186
  125MOL0     H17201  11.919   6.468   0.478 -0.3220 -0.0963 -0.1638
  125MOL0     H17202  11.842   6.336   0.294 -1.1765 -1.1293  1.0346
  125MOL0     H17203  12.019   6.328   0.315  0.0840  4.1330  1.1203
  125MOL0     H17204  11.832   6.106   0.404  0.1381  1.8619  1.8606
  125MOL0     H17205  11.912   6.118   0.248 -0.7840 -2.1375  0.1956
  125MOL0     H17206  12.029   6.099   0.536 -1.7220 -1.8213 -0.0221
  125MOL0     H17207  12.043   5.983   0.413  0.5153  1.3063 -1.2571
  125MOL0     H17208  12.077   5.975   0.207 -0.7735  2.6901  0.5303
  125MOL0     H17209  12.127   5.785   0.078 -0.9329  0.9762  0.1933
  125MOL0     H17210  12.271   5.780  -0.027  0.4574  0.5416 -0.7443
  125MOL0     H17211  12.117   5.875  -0.070  1.7975 -0.1377 -0.6055
  125MOL0     H17212  12.565   5.813  -0.223 -0.1561 -2.6937 -0.5796
  125MOL0     H17213  12.674   5.736  -0.447  0.6676 -0.2884  2.2038
  125MOL0     H17214  12.550   5.892  -0.852 -1.0750  2.2802  1.4357
  125MOL0     H17215  12.635   5.935  -0.702 -0.2420 -1.1260  2.6043
  125MOL0     H17216  12.691   5.699  -0.881  1.4234 -0.5051  0.3736
  125MOL0     H17217  12.755   5.872  -0.907  1.6543  1.1076  1.6821
  125MOL0     H17218  12.831   5.646  -0.747  1.4177 -0.4578 -0.7110
  125MOL0     H17219  12.821   5.779  -0.637  1.3234  1.8943 -0.3319
  125MOL0     H17220  12.955   5.908  -0.822 -3.6528 -1.0983 -1.2588
  125MOL0     H17221  13.004   5.742  -0.863 -2.5225 -1.1520 -0.2401
  125MOL0     H17222  13.043   5.876  -0.596  2.6423  2.7293 -1.2633
  125MOL0     H17223  13.077   5.705  -0.627 -0.7333  0.2371  1.2316
  125MOL0     H17224  13.248   5.814  -0.813 -1.6534  1.8978  0.3883
  125MOL0     H17225  13.305   5.816  -0.651 -1.9253  1.3447  2.1075
  125MOL0     H17226  13.223   6.030  -0.597 -0.5226 -1.3939  0.0111
  125MOL0     H17227  13.168   6.056  -0.765 -2.2402 -2.5253  0.4334
  125MOL0     H17228  13.456   5.994  -0.671  1.5090  0.7500 -1.7194
  125MOL0     H17229  13.394   6.156  -0.727 -1.3552 -0.0803 -2.8299
  125MOL0     H17230  12.322   5.851  -0.665  1.8789  0.5593 -0.9319
  125MOL0     H17231  12.226   5.936  -0.447  0.6779 -0.2003  1.6615
  125MOL0     H17232  12.477   6.217   0.044  0.5284 -0.1487 -0.8149
  125MOL0     H17233  12.381   6.261   0.279  1.6294 -2.0717  1.4830
  125MOL0     H17234  10.413   6.564   0.824  0.4942 -0.1194 -0.0687
  125MOL0     H17235  10.174   6.559   0.855 -4.0588  2.9616  0.1744
  125MOL0     H17236   9.797   6.821   1.079 -0.0807  3.0562 -1.2969
  125MOL0     H17237   9.579   6.798   1.125 -1.4758 -1.9971  0.4659
  125MOL0     H17238   9.369   6.850   1.081 -0.3971 -0.1727  2.4383
  125MOL0     H17239   9.223   6.812   0.981  1.2161 -0.5123 -1.0087
  125MOL0     H17240   9.240   6.733   1.237  4.9129  0.6384  0.6871
  125MOL0     H17241   9.366   6.625   1.179 -0.2326 -1.0649 -1.3372
  125MOL0     H17242   9.249   6.497   1.052  0.3061  0.2608  1.2622
  125MOL0     H17243   9.131   6.527   1.188  1.7211  2.3226  0.8525
  125MOL0     H17244   9.095   6.649   0.905  0.1891 -0.5560  0.8869
  125MOL0     H17245   9.021   6.692   1.048  1.0949  0.6288  0.4226
  125MOL0     H17246   8.807   6.344   0.954  0.1416 -0.5938 -2.6881
  125MOL0     H17247   9.505   6.597   0.755 -0.4858 -1.7315  2.2296
  125MOL0     H17248   9.727   6.650   0.579 -1.4627  2.4828  1.4808
  125MOL0     H17249   9.842   6.536   0.652  0.8878  1.2999 -1.6145
  125MOL0     H17250   9.665   6.509   0.646  0.5769  0.7648 -0.0102
  126MOL0     O17251   0.868   8.940   6.742 -0.3168  0.0059  0.9845
  126MOL0     C17252   0.882   8.961   6.857  0.5098  0.0236  0.6345
  126MOL0     O17253   0.997   8.972   6.912  0.2315 -0.2526 -0.1187
  126MOL0     C17254   1.104   8.924   6.836 -1.0423 -0.5338 -0.4857
  126MOL0     C17255   1.129   8.790   6.804 -0.6640 -0.2553 -0.2448
  126MOL0     C17256   1.252   8.757   6.748 -0.0871 -0.1385  0.0989
  126MOL0     C17257   1.348   8.855   6.713  0.6831 -0.5817  0.6330
  126MOL0     O17258   1.457   8.833   6.637  0.5471 -0.0419  0.1576
  126MOL0     C17259   1.464   8.720   6.552  0.2145  0.3110  0.0288
  126MOL0     C17260   1.610   8.692   6.503 -0.2965 -0.2599  0.7791
  126MOL0     C17261   1.660   8.785   6.400  0.1667 -0.4885  0.2743
  126MOL0     C17262   1.593   8.921   6.377  1.0776 -0.2618 -0.1084
  126MOL0     C17263   1.656   9.007   6.273  0.1904  0.1087 -0.5017
  126MOL0     C17264   1.643   8.948   6.131  0.2919  0.0512 -0.5415
  126MOL0     C17265   1.650   9.066   6.034 -0.6839  0.1228  0.4984
  126MOL0     C17266   1.789   9.117   6.021 -0.6091 -0.5453  0.4347
  126MOL0     N17267   1.892   9.029   5.964  0.0945  0.3799  0.0125
  126MOL0     C17268   1.879   8.957   5.844  0.7794  0.4770  0.1463
  126MOL0     C17269   1.993   8.895   5.820 -0.2097  0.5251  0.9257
  126MOL0     C17270   2.023   8.801   5.706  0.5882  0.8858 -0.8808
  126MOL0     C17271   2.072   8.666   5.760 -0.3733 -0.3050 -0.0695
  126MOL0     C17272   2.133   8.578   5.647  0.1982 -0.2485 -1.1650
  126MOL0     C17273   2.209   8.465   5.706 -0.9883 -0.0470  0.3651
  126MOL0     O17274   2.247   8.383   5.595  0.0183 -0.9759  0.4118
  126MOL0     C17275   2.368   8.404   5.529 -0.0267  0.1173  0.4516
  126MOL0     C17276   2.402   8.290   5.445  0.4390 -0.6714  0.1403
  126MOL0     C17277   2.523   8.276   5.380 -0.2344 -1.0885 -0.3739
  126MOL0     C17278   2.534   8.161   5.293  0.1708 -0.3189  0.3103
  126MOL0     C17279   2.620   8.388   5.390  0.2381  0.3503 -0.8705
  126MOL0     C17280   2.759   8.382   5.333  0.1858  0.4680  0.4239
  126MOL0     O17281   2.814   8.261   5.332  0.3088  0.2591  0.3751
  126MOL0     C17282   2.934   8.242   5.263  0.3556  0.1467  0.0694
  126MOL0     C17283   2.935   8.178   5.141  0.2838  0.8938  0.7912
  126MOL0     C17284   3.064   8.150   5.075  1.1212 -0.3720 -1.0600
  126MOL0     C17285   3.179   8.194   5.131 -0.1253 -0.2823 -0.2816
  126MOL0     O17286   3.294   8.161   5.067  0.2869 -0.0961  0.3131
  126MOL0     C17287   3.382   8.080   5.148  0.4854  0.9475  0.4937
  126MOL0     C17288   3.521   8.049   5.087  0.1842 -0.1075 -0.3430
  126MOL0     C17289   3.604   8.171   5.074 -0.4650  0.4254  0.3397
  126MOL0     C17290   3.747   8.133   5.025 -0.2561  0.5992  0.1413
  126MOL0     C17291   3.857   8.234   5.043 -1.0822 -0.3215 -0.2026
  126MOL0     C17292   3.835   8.351   4.945 -1.0524  0.6977 -0.3023
  126MOL0     C17293   3.932   8.475   4.946 -0.2673  0.4406  0.1580
  126MOL0     C17294   3.967   8.505   5.086 -0.3478 -0.2590  0.4196
  126MOL0    Cl17295   4.077   8.654   5.106  0.2499  0.0909  0.0455
  126MOL0     C17296   3.173   8.264   5.255  0.5397  1.1028  0.0676
  126MOL0     C17297   3.052   8.292   5.321 -0.1656  0.1623  0.4521
  126MOL0     O17298   2.816   8.483   5.314 -0.4379  0.4066 -0.3499
  126MOL0     C17299   2.581   8.508   5.459  0.1834 -0.4305 -1.0577
  126MOL0     C17300   2.455   8.516   5.531 -0.1588  0.0177  0.0966
  126MOL0     N17301   2.081   8.941   5.916 -0.7634  0.0806  0.2723
  126MOL0     N17302   2.023   9.027   5.999  0.4724  0.2607  0.3608
  126MOL0     C17303   1.323   8.985   6.752 -0.4561 -0.8549  0.0059
  126MOL0     C17304   1.207   9.018   6.818 -0.4018 -0.0873  0.1203
  126MOL0     C17305   0.764   8.983   6.938 -0.1571  0.2073 -0.7095
  126MOL0     C17306   0.674   9.069   6.881  0.4639  0.0707  0.4154
  126MOL0     C17307   0.575   9.117   6.963  0.7545 -0.9153 -0.1558
  126MOL0     C17308   0.565   9.093   7.101 -0.5228 -0.2814  0.5299
  126MOL0     O17309   0.465   9.124   7.184 -0.7084  0.0790 -0.2926
  126MOL0     C17310   0.339   9.161   7.127  0.5029  0.0554 -0.7038
  126MOL0     C17311   0.256   9.207   7.245 -0.2665  0.9719 -0.6297
  126MOL0     C17312   0.130   9.291   7.199 -0.0335  0.1420 -0.0883
  126MOL0     C17313   0.014   9.199   7.159  0.2265 -0.3139  0.3393
  126MOL0     C17314  -0.030   9.134   7.281  0.2466  0.1472  0.4711
  126MOL0     C17315  -0.060   9.086   7.390  0.6582  0.0617  0.6646
  126MOL0     C17316   0.665   9.015   7.156 -0.2812  0.1801  0.7964
  126MOL0     C17317   0.767   8.955   7.081  0.9877 -0.7303 -0.1200
  126MOL0     C17318   0.867   8.876   7.162 -1.3113  0.0929  0.4575
  126MOL0     H17319   1.040   8.735   6.831 -0.1665  0.0126  2.2105
  126MOL0     H17320   1.264   8.653   6.718  0.2604 -0.4542  1.2804
  126MOL0     H17321   1.407   8.751   6.464 -0.9220  3.0609  1.5977
  126MOL0     H17322   1.421   8.629   6.596 -1.4601  0.9017 -0.2855
  126MOL0     H17323   1.678   8.702   6.589  0.4524 -1.6012  0.3804
  126MOL0     H17324   1.621   8.593   6.457 -0.2161 -1.2913  2.8774
  126MOL0     H17325   1.769   8.793   6.410  0.0442  0.4106  1.0153
  126MOL0     H17326   1.651   8.726   6.308  0.9696 -1.5678  0.8554
  126MOL0     H17327   1.492   8.901   6.341  0.9681  0.5875 -0.2942
  126MOL0     H17328   1.567   8.971   6.471 -3.4711 -0.4499 -1.0266
  126MOL0     H17329   1.761   9.020   6.300 -0.4632  0.5798  2.1457
  126MOL0     H17330   1.600   9.101   6.279 -0.0095 -0.0628  0.5308
  126MOL0     H17331   1.718   8.869   6.119  0.5318  0.4456 -1.8263
  126MOL0     H17332   1.542   8.912   6.112 -0.9154  3.3949 -1.0306
  126MOL0     H17333   1.575   9.140   6.063 -2.2838 -1.4745  0.5863
  126MOL0     H17334   1.622   9.042   5.931  0.9776  0.9853 -0.2029
  126MOL0     H17335   1.777   9.204   5.956 -3.1564 -0.6917  0.6246
  126MOL0     H17336   1.832   9.151   6.116  1.2379  1.0399 -0.8793
  126MOL0     H17337   1.781   8.932   5.805  0.2474  0.1639  1.6097
  126MOL0     H17338   2.105   8.839   5.645  3.5404 -1.7236  1.0950
  126MOL0     H17339   1.931   8.792   5.648 -1.2059  0.4868  1.8473
  126MOL0     H17340   2.152   8.659   5.835 -0.7689 -1.4686  0.2795
  126MOL0     H17341   1.982   8.615   5.798 -2.6963  2.4515 -1.4759
  126MOL0     H17342   2.051   8.541   5.585 -2.5336  0.2160  1.9015
  126MOL0     H17343   2.207   8.632   5.588  0.5924  0.4555 -0.0658
  126MOL0     H17344   2.298   8.495   5.760 -1.2596  1.9803 -0.2270
  126MOL0     H17345   2.149   8.409   5.779 -0.9889  1.2568  1.3886
  126MOL0     H17346   2.325   8.215   5.429 -2.6349  2.5230 -1.4968
  126MOL0     H17347   2.610   8.183   5.217  0.8138  2.5800  1.6354
  126MOL0     H17348   2.441   8.139   5.240  2.6489 -2.5854 -3.5565
  126MOL0     H17349   2.573   8.072   5.342  1.7366 -1.0167 -2.0581
  126MOL0     H17350   2.842   8.136   5.104 -0.6650  2.9767  0.6842
  126MOL0     H17351   3.069   8.088   4.986  0.0874  2.8595 -3.5647
  126MOL0     H17352   3.414   8.137   5.236  1.2375  0.3503  0.6179
  126MOL0     H17353   3.338   7.984   5.173  0.8407 -0.2226 -2.8389
  126MOL0     H17354   3.568   7.968   5.144 -1.9534 -1.5094 -0.4489
  126MOL0     H17355   3.514   8.003   4.988 -1.7825  2.1518 -1.3605
  126MOL0     H17356   3.608   8.228   5.167  0.1192  1.4489 -0.2939
  126MOL0     H17357   3.550   8.235   5.002  0.9403  0.9450 -0.2898
  126MOL0     H17358   3.756   8.099   4.922  2.0938  0.2627  0.4037
  126MOL0     H17359   3.777   8.054   5.095 -0.6258  0.5947  0.3019
  126MOL0     H17360   3.869   8.271   5.145 -2.4966  2.5372 -0.9820
  126MOL0     H17361   3.954   8.189   5.019 -0.8675  0.2541 -0.4436
  126MOL0     H17362   3.737   8.394   4.971 -0.8005  0.6724  0.7609
  126MOL0     H17363   3.830   8.317   4.842 -2.1143 -1.5505  0.4230
  126MOL0     H17364   3.882   8.562   4.902 -1.5339  0.1250  0.9332
  126MOL0     H17365   4.026   8.445   4.897  0.6833  2.0506  0.9100
  126MOL0     H17366   4.006   8.423   5.147 -0.8415 -0.8106  0.0123
  126MOL0     H17367   3.877   8.539   5.139 -0.4722  0.2030 -0.0769
  126MOL0     H17368   3.264   8.309   5.294  0.6183  0.1851  0.9792
  126MOL0     H17369   3.062   8.340   5.418  1.9568 -0.2502  0.4823
  126MOL0     H17370   2.645   8.593   5.479 -0.5498 -0.0594 -0.2202
  126MOL0     H17371   2.440   8.608   5.587 -0.5595  0.2246 -0.3387
  126MOL0     H17372   1.392   9.067   6.733 -0.5669 -0.9920 -1.0511
  126MOL0     H17373   1.188   9.118   6.856  1.7093 -0.4209  2.3551
  126MOL0     H17374   0.674   9.092   6.775  0.7380  4.3305  1.1632
  126MOL0     H17375   0.504   9.171   6.901 -0.6374 -2.5668 -0.0591
  126MOL0     H17376   0.350   9.241   7.053  1.7844  1.0963  0.5377
  126MOL0     H17377   0.293   9.075   7.079  0.6635 -0.4378  0.0109
  126MOL0     H17378   0.314   9.267   7.316 -1.3110  1.5818 -0.2610
  126MOL0     H17379   0.221   9.119   7.300 -1.4084  0.7954 -1.6163
  126MOL0     H17380   0.096   9.356   7.281 -0.5055  2.1034 -1.7518
  126MOL0     H17381   0.150   9.368   7.124  4.5367  0.1867  0.9179
  126MOL0     H17382   0.044   9.130   7.079 -0.5936  0.4924 -0.7137
  126MOL0     H17383  -0.066   9.255   7.109 -0.0380 -1.4622 -0.5575
  126MOL0     H17384  -0.079   9.032   7.482 -1.1071  0.0087  0.3117
  126MOL0     H17385   0.661   8.998   7.263  1.0873  0.0787  0.8474
  126MOL0     H17386   0.915   8.801   7.098 -1.4918 -0.6003  1.1222
  126MOL0     H17387   0.935   8.951   7.204 -1.8715  0.3210  0.9602
  126MOL0     H17388   0.820   8.815   7.240 -0.8615  1.1818  1.6126
  127MOL0     O17389   7.650   7.048   1.118 -0.1508  0.8364  0.2447
  127MOL0     C17390   7.620   7.016   1.233 -0.0530 -1.1011 -0.1343
  127MOL0     O17391   7.706   6.992   1.336  0.4502 -0.3329  0.4329
  127MOL0     C17392   7.836   6.968   1.306  0.3451  0.5253 -0.4933
  127MOL0     C17393   7.935   7.066   1.332  0.3334  0.5296  0.0568
  127MOL0     C17394   8.071   7.030   1.328 -0.7763 -0.0699  0.0291
  127MOL0     C17395   8.106   6.894   1.306  0.1992 -0.4478  0.9359
  127MOL0     O17396   8.242   6.854   1.298  0.9218 -0.6254  0.5288
  127MOL0     C17397   8.313   6.888   1.179 -0.4340 -0.5249 -0.0779
  127MOL0     C17398   8.469   6.867   1.203  0.0118  0.3913 -0.3591
  127MOL0     C17399   8.536   6.989   1.271 -0.0041  0.5997 -0.0907
  127MOL0     C17400   8.676   6.953   1.318 -0.0152 -0.4114  0.1237
  127MOL0     C17401   8.755   7.082   1.363 -0.4559  0.5600 -0.2761
  127MOL0     C17402   8.913   7.057   1.366 -0.8899 -0.3483  0.2416
  127MOL0     C17403   8.956   6.980   1.485 -0.1157  1.0403 -0.4582
  127MOL0     C17404   9.112   6.971   1.470  0.7554 -0.0708 -0.2786
  127MOL0     N17405   9.157   7.109   1.498  0.3258 -0.3875 -0.7796
  127MOL0     C17406   9.149   7.170   1.618  0.3843  0.1876  0.5605
  127MOL0     C17407   9.189   7.295   1.603  0.2204 -0.8492  0.0823
  127MOL0     C17408   9.196   7.403   1.701  0.2421 -1.3516 -0.8520
  127MOL0     C17409   9.341   7.440   1.737  0.2642  0.7066 -0.8145
  127MOL0     C17410   9.399   7.339   1.844  0.1104 -0.3693  0.0398
  127MOL0     C17411   9.534   7.402   1.894 -0.1937  0.2283  0.4007
  127MOL0     O17412   9.624   7.434   1.782  0.3520 -0.1562  0.0799
  127MOL0     C17413   9.686   7.326   1.717 -0.3686 -0.3308 -1.2259
  127MOL0     C17414   9.657   7.297   1.588  0.1957  0.1213  1.4090
  127MOL0     C17415   9.717   7.188   1.512  0.2361 -0.6311 -0.5264
  127MOL0     C17416   9.667   7.162   1.378  0.1761 -0.3560 -0.8435
  127MOL0     C17417   9.809   7.105   1.585  1.6219 -0.8479  0.4125
  127MOL0     C17418   9.853   6.981   1.512 -1.1207  0.5742  1.0106
  127MOL0     O17419   9.919   6.993   1.388  0.5050  0.1696 -1.0548
  127MOL0     C17420  10.032   6.914   1.383  0.5001  0.5158 -0.3475
  127MOL0     C17421  10.149   6.977   1.414  0.4809  0.2246 -0.3341
  127MOL0     C17422  10.264   6.908   1.401 -0.5545  0.9932 -0.0128
  127MOL0     C17423  10.268   6.769   1.367  0.5104 -0.3466  0.2037
  127MOL0     O17424  10.392   6.709   1.354 -0.0132 -0.6572  0.1437
  127MOL0     C17425  10.403   6.571   1.321 -0.6472 -1.0762 -0.4581
  127MOL0     C17426  10.553   6.546   1.318  0.0382 -0.9364 -0.0033
  127MOL0     C17427  10.569   6.393   1.299 -0.6127 -0.9049 -0.5588
  127MOL0     C17428  10.715   6.357   1.287  0.7761 -0.1522  0.2311
  127MOL0     C17429  10.812   6.408   1.395 -0.2685  0.1896 -0.8244
  127MOL0     C17430  10.950   6.343   1.381  0.0663  0.1102 -0.8873
  127MOL0     C17431  11.010   6.356   1.236  0.1043  0.3969 -0.0248
  127MOL0     C17432  11.158   6.302   1.239 -0.4575  0.1587  0.0916
  127MOL0    Cl17433  11.162   6.128   1.182 -0.4732  0.0102  0.4764
  127MOL0     C17434  10.141   6.705   1.335 -0.8859  0.1583  1.1036
  127MOL0     C17435  10.022   6.775   1.349  0.0852 -0.7796 -0.8099
  127MOL0     O17436   9.861   6.881   1.581  0.1195 -0.6503  0.9779
  127MOL0     C17437   9.832   7.123   1.719  0.4230 -0.2900 -0.0641
  127MOL0     C17438   9.777   7.238   1.779 -0.6684 -0.4297 -0.1159
  127MOL0     N17439   9.236   7.304   1.472 -0.1052 -0.2703  0.2563
  127MOL0     N17440   9.206   7.196   1.413  0.2878 -0.6206 -0.0562
  127MOL0     C17441   8.009   6.797   1.279  0.3387  0.1677 -0.1300
  127MOL0     C17442   7.874   6.830   1.285  0.9865 -0.1163  0.2678
  127MOL0     C17443   7.469   7.005   1.275 -0.1078 -0.4253 -0.3247
  127MOL0     C17444   7.440   6.970   1.410 -0.3366  0.5324  0.1880
  127MOL0     C17445   7.304   6.962   1.461 -0.7859  0.1916 -0.1818
  127MOL0     C17446   7.197   6.994   1.367 -0.3632 -0.0762 -0.6702
  127MOL0     O17447   7.066   6.981   1.397 -0.0812 -0.6271 -0.5137
  127MOL0     C17448   7.028   6.914   1.515  0.5793  0.6155  0.1223
  127MOL0     C17449   7.031   6.763   1.490  0.2891  0.5058  0.0433
  127MOL0     C17450   6.970   6.727   1.348  0.2544  0.0469 -0.9323
  127MOL0     C17451   6.818   6.691   1.368  0.0385  0.1959  0.2882
  127MOL0     C17452   6.753   6.632   1.250 -0.2315  0.7305 -0.9054
  127MOL0     C17453   6.693   6.586   1.154 -0.2627  0.0159 -0.1811
  127MOL0     C17454   7.235   7.035   1.235  0.6157 -0.4712  0.6102
  127MOL0     C17455   7.369   7.047   1.190  0.0184 -0.4163 -0.1048
  127MOL0     C17456   7.385   7.099   1.050  0.5394 -0.6827  0.0484
  127MOL0     H17457   7.915   7.173   1.339  0.1779  0.5178 -0.1829
  127MOL0     H17458   8.136   7.114   1.351 -1.3675  0.0157  1.5002
  127MOL0     H17459   8.293   6.993   1.158 -2.6658 -0.5651  1.5121
  127MOL0     H17460   8.281   6.820   1.100  2.0637 -3.3931  1.1475
  127MOL0     H17461   8.488   6.776   1.260  1.3662  0.1973 -1.0766
  127MOL0     H17462   8.513   6.845   1.105 -0.5946 -0.2041 -0.5042
  127MOL0     H17463   8.543   7.071   1.199  0.0631  1.9470  1.3840
  127MOL0     H17464   8.473   7.020   1.355  0.3060  2.6609 -0.5589
  127MOL0     H17465   8.666   6.875   1.395  0.6861  1.2769  1.9978
  127MOL0     H17466   8.724   6.908   1.231  0.5613  1.8352 -0.7873
  127MOL0     H17467   8.728   7.099   1.467  0.4972 -3.2104  0.7535
  127MOL0     H17468   8.722   7.162   1.295 -0.3298 -0.3272 -1.4131
  127MOL0     H17469   8.955   7.011   1.277 -0.0472 -0.1352  0.5182
  127MOL0     H17470   8.950   7.160   1.376  0.7350 -1.1373  4.7023
  127MOL0     H17471   8.905   6.883   1.492 -1.9635  2.1204  3.0229
  127MOL0     H17472   8.922   7.030   1.576 -0.3819  1.9506 -1.0476
  127MOL0     H17473   9.168   6.911   1.542  1.0134 -0.1226 -0.5207
  127MOL0     H17474   9.135   6.943   1.367 -1.2353  2.4407 -1.5382
  127MOL0     H17475   9.102   7.123   1.704 -2.3405  2.4956  0.4771
  127MOL0     H17476   9.155   7.369   1.797  0.4341 -0.5228 -0.4660
  127MOL0     H17477   9.154   7.498   1.666  0.4081  0.0398  2.3722
  127MOL0     H17478   9.407   7.457   1.651  0.1277  1.4387 -0.7789
  127MOL0     H17479   9.336   7.536   1.788 -2.3478 -0.0983  0.5946
  127MOL0     H17480   9.336   7.321   1.931 -0.1544 -3.5050 -0.6862
  127MOL0     H17481   9.414   7.244   1.791 -0.3701 -0.6403  0.3796
  127MOL0     H17482   9.511   7.486   1.960 -0.9212 -0.5889  1.2156
  127MOL0     H17483   9.580   7.330   1.962  0.9813  1.2740  0.7464
  127MOL0     H17484   9.573   7.341   1.534  0.8133 -1.8436 -1.4226
  127MOL0     H17485   9.582   7.228   1.361 -0.8360 -0.7397  2.2691
  127MOL0     H17486   9.631   7.059   1.371 -3.0058  0.6100 -0.3908
  127MOL0     H17487   9.742   7.188   1.302  1.9914  0.3259  1.1006
  127MOL0     H17488  10.152   7.080   1.447 -2.7092  0.6188 -0.9212
  127MOL0     H17489  10.358   6.953   1.432 -0.3887  1.3617 -1.0135
  127MOL0     H17490  10.347   6.505   1.387 -2.0010 -0.0221 -0.5036
  127MOL0     H17491  10.363   6.538   1.224 -0.9717 -1.4326 -0.2057
  127MOL0     H17492  10.584   6.606   1.232 -1.1476 -0.8155 -0.3554
  127MOL0     H17493  10.599   6.583   1.411  2.3608  1.6215 -1.9758
  127MOL0     H17494  10.512   6.376   1.208 -0.1708  2.6563 -1.6535
  127MOL0     H17495  10.522   6.350   1.389 -3.1824  0.9777 -0.8728
  127MOL0     H17496  10.750   6.377   1.185  2.2542  0.0554  0.7467
  127MOL0     H17497  10.724   6.248   1.294 -1.1945 -0.2367  2.8458
  127MOL0     H17498  10.803   6.514   1.371 -2.3266 -0.1832 -1.9339
  127MOL0     H17499  10.781   6.393   1.499 -2.3992  2.4108 -1.0566
  127MOL0     H17500  10.950   6.238   1.412 -0.0754  0.8850  2.1208
  127MOL0     H17501  11.022   6.384   1.454  0.0197  0.5741 -1.0969
  127MOL0     H17502  10.989   6.463   1.221  2.2271  0.8310 -0.1088
  127MOL0     H17503  10.962   6.307   1.151  2.7664 -0.9659 -0.8270
  127MOL0     H17504  11.198   6.314   1.340 -2.1988 -2.1524  1.1474
  127MOL0     H17505  11.223   6.359   1.172  1.4353  0.0577  1.7740
  127MOL0     H17506  10.148   6.602   1.300 -0.9304  0.1815  1.0266
  127MOL0     H17507   9.928   6.723   1.333 -0.1270 -1.7902  2.8578
  127MOL0     H17508   9.900   7.056   1.771 -0.4572  0.4715  2.1953
  127MOL0     H17509   9.815   7.270   1.875  1.4854  2.7698 -1.8432
  127MOL0     H17510   8.045   6.696   1.262  1.8251  0.9702 -2.2166
  127MOL0     H17511   7.797   6.753   1.281  0.9966 -0.1132 -3.8060
  127MOL0     H17512   7.523   6.928   1.465 -1.3856 -1.1531  0.5765
  127MOL0     H17513   7.277   6.923   1.558 -3.1986 -0.1409 -0.9183
  127MOL0     H17514   7.092   6.947   1.597  1.9720 -2.0424  0.1992
  127MOL0     H17515   6.926   6.951   1.533  0.7114  2.1609 -1.9254
  127MOL0     H17516   6.972   6.716   1.569  1.0271 -1.4925 -0.5423
  127MOL0     H17517   7.134   6.728   1.487  0.3698  0.5696  1.6013
  127MOL0     H17518   6.985   6.809   1.277 -1.3942  2.0352  0.8454
  127MOL0     H17519   7.022   6.638   1.311  0.5733 -0.5216  0.8104
  127MOL0     H17520   6.767   6.782   1.404 -2.0197 -0.3795 -1.0062
  127MOL0     H17521   6.821   6.621   1.452 -0.2716  1.2104  1.1796
  127MOL0     H17522   6.629   6.535   1.085 -3.4388  0.4296  2.1881
  127MOL0     H17523   7.152   7.050   1.166  2.2886 -0.6756 -1.5601
  127MOL0     H17524   7.296   7.118   0.990  1.1180 -0.0650 -0.6542
  127MOL0     H17525   7.441   7.194   1.055 -1.0532  0.2302  4.0630
  127MOL0     H17526   7.433   7.023   0.988  0.0684 -0.0659 -1.1046
  128MOL0     O17527   9.731  11.323  11.106 -0.3228 -0.4480  0.0535
  128MOL0     C17528   9.774  11.416  11.044 -0.6479 -0.0798  0.3468
  128MOL0     O17529   9.770  11.547  11.082 -0.0730 -0.7033  0.6933
  128MOL0     C17530   9.683  11.583  11.178 -0.2696  0.4758 -0.1263
  128MOL0     C17531   9.556  11.634  11.147 -0.5119  0.1522 -0.3696
  128MOL0     C17532   9.464  11.674  11.250 -0.2434 -0.4222  0.4726
  128MOL0     C17533   9.512  11.675  11.385 -0.5312 -0.8054  0.0478
  128MOL0     O17534   9.438  11.707  11.497  0.5326 -0.4389  0.2031
  128MOL0     C17535   9.324  11.799  11.499 -0.1722 -0.1731  0.2002
  128MOL0     C17536   9.328  11.886  11.626  0.3673  0.4435  1.2308
  128MOL0     C17537   9.436  11.991  11.633  0.5676  0.6867  0.3672
  128MOL0     C17538   9.382  12.121  11.581  0.1151  0.2292 -0.1085
  128MOL0     C17539   9.473  12.237  11.612 -0.2202  0.5996 -0.0688
  128MOL0     C17540   9.415  12.364  11.542 -0.2389  0.0168 -0.0112
  128MOL0     C17541   9.491  12.492  11.558  0.2422 -0.5335 -0.2170
  128MOL0     C17542   9.474  12.549  11.700  0.6174  0.0346 -0.6811
  128MOL0     N17543   9.577  12.647  11.727 -0.2700  0.0258  0.6726
  128MOL0     C17544   9.704  12.600  11.748  0.0886  1.0317  0.1112
  128MOL0     C17545   9.776  12.716  11.746  0.1959 -0.2720 -0.4880
  128MOL0     C17546   9.924  12.739  11.752  0.4997  0.3045  0.4619
  128MOL0     C17547   9.978  12.735  11.607 -0.1744 -0.0993 -0.0190
  128MOL0     C17548  10.131  12.769  11.585 -1.3455 -0.4523 -0.2780
  128MOL0     C17549  10.224  12.682  11.671 -0.9169 -0.4055  0.8250
  128MOL0     O17550  10.363  12.703  11.642 -0.4313 -0.0175  0.4210
  128MOL0     C17551  10.470  12.663  11.711 -0.4892  1.3256  0.8110
  128MOL0     C17552  10.474  12.589  11.827  0.5102 -0.1232 -0.2052
  128MOL0     C17553  10.594  12.570  11.901 -0.0167  0.0055  0.4844
  128MOL0     C17554  10.583  12.493  12.026  0.6192  0.0637 -0.1261
  128MOL0     C17555  10.720  12.614  11.844 -0.6900 -0.2524 -0.4413
  128MOL0     C17556  10.859  12.590  11.906  0.2237  0.5180  0.1018
  128MOL0     O17557  10.965  12.613  11.824 -0.3033 -0.4402 -0.0003
  128MOL0     C17558  11.083  12.553  11.855 -0.2170  0.2511 -0.0054
  128MOL0     C17559  11.111  12.416  11.838 -1.1021  0.8763  0.1348
  128MOL0     C17560  11.234  12.363  11.850  0.1311  0.3881  0.0224
  128MOL0     C17561  11.337  12.437  11.896  0.0186 -0.8322  0.2005
  128MOL0     O17562  11.448  12.368  11.940  0.0351 -0.1816  0.9092
  128MOL0     C17563  11.526  12.404  12.054  0.2165 -0.0607  0.3611
  128MOL0     C17564  11.664  12.392  12.004  0.0853  0.6713  0.8134
  128MOL0     C17565  11.768  12.430  12.117  1.1784  1.3749  0.2457
  128MOL0     C17566  11.761  12.571  12.158  0.4761  0.4882 -0.0410
  128MOL0     C17567  11.887  12.638  12.211  0.1333  0.2937 -0.4062
  128MOL0     C17568  11.851  12.772  12.268 -0.2425 -1.0888  0.2549
  128MOL0     C17569  11.977  12.824  12.338  0.4913  0.1583  0.2864
  128MOL0     C17570  11.998  12.974  12.353  0.1088  0.8261 -0.2933
  128MOL0    Cl17571  12.150  13.017  12.436  0.2503 -0.1735  0.4582
  128MOL0     C17572  11.324  12.576  11.900 -0.4371  0.4351  0.8551
  128MOL0     C17573  11.199  12.629  11.879  0.0821  0.1196  0.5683
  128MOL0     O17574  10.868  12.540  12.015 -0.5560 -0.0100  0.4039
  128MOL0     C17575  10.715  12.682  11.723 -0.5999 -0.0119 -0.8801
  128MOL0     C17576  10.594  12.711  11.660 -0.7744  0.8044  0.3643
  128MOL0     N17577   9.692  12.823  11.733 -1.3612  0.1346  0.4341
  128MOL0     N17578   9.576  12.783  11.721  0.4414 -0.1465 -0.4795
  128MOL0     C17579   9.636  11.627  11.419  0.4452  1.0420 -0.0427
  128MOL0     C17580   9.730  11.581  11.318 -0.3647 -0.4258  0.3342
  128MOL0     C17581   9.871  11.399  10.933  0.0635  0.7651  0.2650
  128MOL0     C17582   9.926  11.510  10.860 -0.5435  0.2807  0.0961
  128MOL0     C17583  10.026  11.498  10.757 -0.0198  0.1336  0.3327
  128MOL0     C17584  10.061  11.368  10.723 -0.7435 -0.2002 -0.4925
  128MOL0     O17585  10.143  11.346  10.611 -0.5435 -0.8687 -0.3064
  128MOL0     C17586  10.166  11.213  10.565 -0.2084 -0.0149  0.9391
  128MOL0     C17587  10.298  11.199  10.488  0.5114  0.3191  0.1627
  128MOL0     C17588  10.370  11.327  10.447  1.1287  0.6112 -0.2964
  128MOL0     C17589  10.493  11.301  10.372  0.0199  0.3557  0.1840
  128MOL0     C17590  10.476  11.236  10.243  0.0821 -0.7949  0.0631
  128MOL0     C17591  10.459  11.188  10.139 -0.7792 -0.4357  1.0192
  128MOL0     C17592   9.996  11.258  10.789 -0.2440  0.4229 -0.5999
  128MOL0     C17593   9.913  11.269  10.899  0.0890 -0.1940 -0.3295
  128MOL0     C17594   9.884  11.142  10.965  0.6711  0.2353 -0.4006
  128MOL0     H17595   9.533  11.630  11.042  2.2483  2.0540 -1.1616
  128MOL0     H17596   9.360  11.703  11.239  0.1227  0.9033  0.4247
  128MOL0     H17597   9.230  11.743  11.504 -0.4410  0.3954  2.9335
  128MOL0     H17598   9.315  11.860  11.409 -0.9671 -1.5073 -0.6779
  128MOL0     H17599   9.228  11.930  11.621 -0.5051 -1.5589 -0.0928
  128MOL0     H17600   9.330  11.823  11.716  0.5284  1.3309  1.8601
  128MOL0     H17601   9.473  12.008  11.734 -1.5251 -1.5646  1.6228
  128MOL0     H17602   9.517  11.956  11.568  1.6866  0.9211  1.6082
  128MOL0     H17603   9.364  12.116  11.473 -0.8628  1.7699 -0.0603
  128MOL0     H17604   9.289  12.145  11.634  1.3417  0.0035  2.3229
  128MOL0     H17605   9.574  12.215  11.579  0.1908 -2.4734  2.7258
  128MOL0     H17606   9.484  12.254  11.720  1.5778 -2.1031  0.2625
  128MOL0     H17607   9.402  12.341  11.436  0.1326 -0.3232  0.0169
  128MOL0     H17608   9.315  12.379  11.584  0.3096 -2.4217  2.4411
  128MOL0     H17609   9.467  12.573  11.488 -0.6497 -0.8602 -0.3042
  128MOL0     H17610   9.593  12.456  11.549 -0.4982 -2.6081 -0.8673
  128MOL0     H17611   9.376  12.597  11.707 -0.6566 -2.4531 -0.3394
  128MOL0     H17612   9.479  12.471  11.777 -1.1482 -0.7619 -1.3243
  128MOL0     H17613   9.731  12.496  11.763 -0.3226  0.7382 -1.0875
  128MOL0     H17614   9.958  12.653  11.809 -0.4688 -0.9326 -0.7575
  128MOL0     H17615   9.960  12.825  11.810  0.6012 -1.1726  2.7210
  128MOL0     H17616   9.957  12.639  11.559 -0.4437  0.5631 -1.2494
  128MOL0     H17617   9.914  12.813  11.565 -0.5319 -0.6468 -0.5108
  128MOL0     H17618  10.162  12.753  11.481 -0.1789  0.8290 -0.1549
  128MOL0     H17619  10.140  12.875  11.609 -0.1868 -0.4392 -0.6824
  128MOL0     H17620  10.199  12.690  11.777 -4.8169  1.8671 -0.0780
  128MOL0     H17621  10.206  12.577  11.648 -1.1492 -0.8055  2.6538
  128MOL0     H17622  10.375  12.552  11.853  0.6768 -1.3352 -1.1616
  128MOL0     H17623  10.660  12.415  12.033  1.5612  1.1020  1.7320
  128MOL0     H17624  10.484  12.449  12.037  0.6360 -0.0232 -0.3138
  128MOL0     H17625  10.585  12.564  12.109 -1.7675  1.0433 -0.8131
  128MOL0     H17626  11.028  12.363  11.794  0.7539 -2.8218  0.7467
  128MOL0     H17627  11.250  12.257  11.834  1.1513 -0.3477  4.6100
  128MOL0     H17628  11.500  12.498  12.104 -2.3703 -0.4728 -0.0540
  128MOL0     H17629  11.518  12.323  12.128  1.3474 -0.4835  0.0316
  128MOL0     H17630  11.686  12.290  11.971  4.1204  1.3182  0.9882
  128MOL0     H17631  11.680  12.456  11.917 -1.9964 -0.6662 -0.6524
  128MOL0     H17632  11.866  12.408  12.075  0.6327 -1.5452  0.2944
  128MOL0     H17633  11.764  12.369  12.209 -1.4917  0.2396 -0.4992
  128MOL0     H17634  11.678  12.577  12.229  0.7973  1.0389  0.2914
  128MOL0     H17635  11.721  12.631  12.076 -2.5850  0.0580  0.9919
  128MOL0     H17636  11.916  12.581  12.299 -3.2479  1.1078  1.4413
  128MOL0     H17637  11.973  12.645  12.144  0.8380  0.7410  0.5350
  128MOL0     H17638  11.770  12.776  12.342 -0.1399 -1.5546  0.3949
  128MOL0     H17639  11.818  12.833  12.183 -0.0925 -2.1038 -0.5506
  128MOL0     H17640  12.059  12.797  12.270 -0.0190  1.5871 -0.9645
  128MOL0     H17641  11.986  12.777  12.436 -2.5416 -1.2114  0.0003
  128MOL0     H17642  11.907  13.006  12.404  1.2501 -0.3208  2.6413
  128MOL0     H17643  11.999  13.011  12.249  4.1777  0.2243 -0.6536
  128MOL0     H17644  11.395  12.652  11.931 -1.1503  2.3511 -1.8489
  128MOL0     H17645  11.165  12.731  11.865 -2.0466 -0.4025  1.5078
  128MOL0     H17646  10.802  12.704  11.663  1.8259 -1.8644  1.7186
  128MOL0     H17647  10.600  12.769  11.568 -2.6071  1.2492  0.4882
  128MOL0     H17648   9.666  11.625  11.523 -1.8737 -0.8596  0.6849
  128MOL0     H17649   9.832  11.546  11.333 -0.4008 -0.1336  1.3482
  128MOL0     H17650   9.884  11.609  10.875 -1.2672 -0.1280  0.8944
  128MOL0     H17651  10.053  11.583  10.695  2.4507 -2.7716 -2.9497
  128MOL0     H17652  10.176  11.134  10.640 -1.0193  1.3048  2.4792
  128MOL0     H17653  10.093  11.180  10.490  1.4916  1.0376 -1.3109
  128MOL0     H17654  10.285  11.129  10.404  0.1338  0.2036  0.3165
  128MOL0     H17655  10.377  11.162  10.553  1.5097  0.5596 -0.8643
  128MOL0     H17656  10.301  11.392  10.393 -2.5812 -1.0138  2.0579
  128MOL0     H17657  10.388  11.375  10.543  1.7153 -1.6165  0.7853
  128MOL0     H17658  10.568  11.245  10.428  0.2591  2.5297  2.1928
  128MOL0     H17659  10.542  11.397  10.354  0.7633 -0.3617 -1.8761
  128MOL0     H17660  10.437  11.145  10.044 -4.1949  1.3237  0.8672
  128MOL0     H17661  10.022  11.157  10.757 -0.6264 -0.3734  1.3996
  128MOL0     H17662   9.781  11.107  10.950  1.3061 -2.7683  1.3245
  128MOL0     H17663   9.938  11.055  10.925  2.1904 -0.2301  2.3844
  128MOL0     H17664   9.900  11.138  11.073 -0.7047  0.4671 -0.1720
  129MOL0     O17665   0.572   9.534  11.090  0.0579 -0.0425  0.0754
  129MOL0     C17666   0.539   9.612  11.183  0.0274  0.6168  0.3336
  129MOL0     O17667   0.620   9.649  11.287  0.3807 -0.3025  0.4441
  129MOL0     C17668   0.751   9.625  11.268 -0.1787 -0.3889  0.0002
  129MOL0     C17669   0.829   9.528  11.340 -0.5349  0.3798 -0.0205
  129MOL0     C17670   0.969   9.524  11.338  0.6772  0.7344  0.1525
  129MOL0     C17671   1.039   9.626  11.266 -0.4378 -0.6518  0.3836
  129MOL0     O17672   1.174   9.643  11.268 -0.4841 -0.6380 -0.6142
  129MOL0     C17673   1.220   9.672  11.402  0.8218  0.1646  0.0929
  129MOL0     C17674   1.366   9.650  11.422  0.4342 -0.0101  0.1510
  129MOL0     C17675   1.461   9.678  11.295 -0.0721 -0.5909 -0.8873
  129MOL0     C17676   1.616   9.683  11.318 -0.8127  0.1540 -0.3734
  129MOL0     C17677   1.692   9.701  11.185  0.2018  0.6631  0.9239
  129MOL0     C17678   1.839   9.742  11.219 -1.1090 -0.3703 -0.8461
  129MOL0     C17679   1.909   9.751  11.083 -0.1284  0.0772  0.5601
  129MOL0     C17680   2.056   9.792  11.107  0.7184 -0.3465 -0.3236
  129MOL0     N17681   2.058   9.941  11.123 -0.4273  0.3262  1.0247
  129MOL0     C17682   2.150  10.020  11.049  0.0602 -0.2000 -0.3618
  129MOL0     C17683   2.109  10.152  11.076 -0.3233  0.5287 -0.1130
  129MOL0     C17684   2.180  10.279  11.047  0.0854  0.3668  1.1470
  129MOL0     C17685   2.129  10.331  10.905 -0.4084  1.5535  0.8238
  129MOL0     C17686   2.125  10.485  10.880 -0.2076 -0.2183  0.7244
  129MOL0     C17687   2.058  10.531  10.752 -0.5803 -0.5685 -0.4065
  129MOL0     O17688   2.140  10.524  10.641 -0.0276 -0.1918  0.1464
  129MOL0     C17689   2.267  10.563  10.630  0.2611 -1.0734 -0.4137
  129MOL0     C17690   2.313  10.682  10.683  0.5847  0.7818 -0.0875
  129MOL0     C17691   2.447  10.721  10.664 -0.4453  0.5295  0.0383
  129MOL0     C17692   2.493  10.844  10.734  0.0349 -1.0119 -0.1611
  129MOL0     C17693   2.532  10.632  10.591 -0.1846 -0.5627 -0.4889
  129MOL0     C17694   2.677  10.673  10.565  0.5864  0.5781 -0.7155
  129MOL0     O17695   2.741  10.748  10.653  0.1009 -0.6427  0.0163
  129MOL0     C17696   2.878  10.760  10.644  0.3193 -0.0947 -1.0281
  129MOL0     C17697   2.964  10.663  10.610  0.0965 -0.5061  0.8746
  129MOL0     C17698   3.103  10.689  10.611 -0.2122  1.0138  0.5339
  129MOL0     C17699   3.150  10.815  10.650 -0.4830 -0.1812 -0.6649
  129MOL0     O17700   3.284  10.825  10.654  0.3529  0.4036  0.6401
  129MOL0     C17701   3.340  10.950  10.695 -0.1209  0.2969 -0.2868
  129MOL0     C17702   3.497  10.944  10.703 -0.4700 -0.3596  0.1403
  129MOL0     C17703   3.551  11.070  10.768 -0.2285 -0.0816 -0.1340
  129MOL0     C17704   3.706  11.076  10.768 -0.5603 -0.0522  0.5276
  129MOL0     C17705   3.762  11.089  10.626 -0.0002 -0.6374 -0.8362
  129MOL0     C17706   3.919  11.083  10.635  0.5457 -0.2994 -0.2605
  129MOL0     C17707   3.976  11.055  10.488  0.2749 -0.6482 -0.0993
  129MOL0     C17708   4.105  10.976  10.490 -0.4417 -0.2549 -0.7008
  129MOL0    Cl17709   4.149  10.949  10.319  0.5841  0.0217  0.5202
  129MOL0     C17710   3.055  10.917  10.679 -0.3724  0.2286  0.2705
  129MOL0     C17711   2.919  10.889  10.686 -0.3061 -0.0783  0.3841
  129MOL0     O17712   2.727  10.646  10.454 -0.6385 -0.1507 -0.8121
  129MOL0     C17713   2.485  10.511  10.550  0.4597  0.4377  0.0678
  129MOL0     C17714   2.352  10.477  10.569 -0.2570 -0.2354 -0.1283
  129MOL0     N17715   2.000  10.141  11.162 -0.2587  0.0527  0.1778
  129MOL0     N17716   1.974  10.024  11.197 -0.2502 -0.3013  0.8670
  129MOL0     C17717   0.965   9.722  11.189 -0.1412 -0.2209 -0.3875
  129MOL0     C17718   0.824   9.723  11.191  0.4433  0.8905 -0.1567
  129MOL0     C17719   0.402   9.655  11.197  0.8214 -0.6173 -0.3292
  129MOL0     C17720   0.363   9.742  11.300  0.5725 -0.0867 -0.7546
  129MOL0     C17721   0.238   9.786  11.324 -1.0633 -0.7600  1.0481
  129MOL0     C17722   0.129   9.749  11.244  0.1188 -0.0196  0.3932
  129MOL0     O17723   0.003   9.805  11.245  0.1551  0.6100 -0.1542
  129MOL0     C17724  -0.029   9.917  11.329 -0.1677  1.1761  1.1521
  129MOL0     C17725  -0.165   9.974  11.290 -0.0813 -0.5322  0.1443
  129MOL0     C17726  -0.227  10.101  11.350  1.1867 -0.8853  0.0976
  129MOL0     C17727  -0.257  10.081  11.498 -0.0494 -0.0408 -0.2526
  129MOL0     C17728  -0.317  10.197  11.553  0.3346 -0.6737 -0.3005
  129MOL0     C17729  -0.374  10.296  11.603  0.4663 -0.4950 -1.6291
  129MOL0     C17730   0.163   9.666  11.134  0.0906 -0.2772  0.5930
  129MOL0     C17731   0.291   9.613  11.107 -0.3898 -0.9558 -0.2345
  129MOL0     C17732   0.298   9.514  10.997  0.6141 -0.3306 -0.1005
  129MOL0     H17733   0.770   9.468  11.409 -1.8423  2.0082  0.3667
  129MOL0     H17734   1.025   9.448  11.392  3.0501  1.7894 -0.6632
  129MOL0     H17735   1.179   9.602  11.476  0.2058 -1.1948 -1.4649
  129MOL0     H17736   1.187   9.776  11.412  1.0563  0.3096 -0.5778
  129MOL0     H17737   1.394   9.716  11.506 -0.5695  0.3800  0.1843
  129MOL0     H17738   1.376   9.545  11.450 -1.8125 -0.2727  0.0954
  129MOL0     H17739   1.433   9.600  11.223 -2.0479  0.5047 -1.3783
  129MOL0     H17740   1.424   9.771  11.251 -1.5040 -0.0978  1.2124
  129MOL0     H17741   1.645   9.763  11.387 -0.5062  0.1542 -0.5013
  129MOL0     H17742   1.655   9.596  11.371 -0.4670  0.6301  0.1680
  129MOL0     H17743   1.637   9.779  11.133 -0.3438  0.0775  0.6099
  129MOL0     H17744   1.684   9.609  11.125  0.2715  1.4117 -0.2808
  129MOL0     H17745   1.829   9.837  11.272  1.1731 -0.9251  0.7761
  129MOL0     H17746   1.883   9.671  11.291  1.2991  2.0670  0.2786
  129MOL0     H17747   1.862   9.821  11.013 -0.9179 -0.3990  0.5997
  129MOL0     H17748   1.916   9.655  11.030  1.0445 -0.6146  1.9107
  129MOL0     H17749   2.102   9.738  11.190  0.1303 -0.4419 -0.0545
  129MOL0     H17750   2.102   9.764  11.012 -1.7850 -0.0437 -1.7211
  129MOL0     H17751   2.221   9.975  10.981 -1.0701 -0.2717 -1.5469
  129MOL0     H17752   2.288  10.269  11.041 -0.0380 -1.3807  1.4026
  129MOL0     H17753   2.149  10.340  11.132  1.0335  1.4141  0.7658
  129MOL0     H17754   2.170  10.277  10.819 -0.3821 -0.6871  2.1631
  129MOL0     H17755   2.025  10.295  10.904  0.0263 -0.0462 -2.9607
  129MOL0     H17756   2.054  10.525  10.954 -2.7878 -2.9762 -0.0408
  129MOL0     H17757   2.223  10.526  10.902  0.9406 -2.7677  0.7088
  129MOL0     H17758   1.960  10.485  10.735 -0.6399 -0.8534  0.6718
  129MOL0     H17759   2.043  10.638  10.766  2.0208  0.3701 -3.6689
  129MOL0     H17760   2.243  10.740  10.743 -0.4050 -0.8832  0.4320
  129MOL0     H17761   2.553  10.833  10.825 -0.3964  1.5864  0.5050
  129MOL0     H17762   2.409  10.903  10.771  0.0391 -1.1354  0.0470
  129MOL0     H17763   2.537  10.917  10.665 -0.0944 -1.5766 -0.8514
  129MOL0     H17764   2.919  10.564  10.601 -2.5743  0.6796  0.4369
  129MOL0     H17765   3.170  10.605  10.593 -1.8912  0.2996 -3.3745
  129MOL0     H17766   3.309  11.033  10.630  0.8678  0.3846 -0.6568
  129MOL0     H17767   3.302  10.971  10.796  1.9143 -1.4762  0.9233
  129MOL0     H17768   3.535  10.859  10.761 -3.1676 -0.6042  1.7185
  129MOL0     H17769   3.536  10.934  10.601 -0.5963 -0.8060  0.1343
  129MOL0     H17770   3.520  11.065  10.872  1.8690  0.6388  0.5851
  129MOL0     H17771   3.510  11.158  10.717  0.8173  1.5059  1.6232
  129MOL0     H17772   3.740  10.980  10.808 -0.8249 -1.9156 -3.2502
  129MOL0     H17773   3.722  11.161  10.835 -0.5919  0.2945  0.0952
  129MOL0     H17774   3.730  10.995  10.579 -0.5469 -0.0084 -1.7385
  129MOL0     H17775   3.734  11.174  10.564  4.0510  1.7103  0.1499
  129MOL0     H17776   3.947  10.997  10.696  1.4505 -0.1875 -0.5114
  129MOL0     H17777   3.956  11.178  10.676 -0.2603 -0.6053  1.2644
  129MOL0     H17778   3.986  11.150  10.437  0.2648 -1.1046 -0.9655
  129MOL0     H17779   3.908  10.977  10.450 -1.5571  0.1375  1.3949
  129MOL0     H17780   4.088  10.883  10.544 -2.8786 -1.8484 -3.9238
  129MOL0     H17781   4.184  11.031  10.543 -0.0824 -2.2166  0.9177
  129MOL0     H17782   3.086  11.014  10.714 -0.3783  1.4797 -2.9082
  129MOL0     H17783   2.843  10.957  10.721 -1.4440 -1.1847  0.1253
  129MOL0     H17784   2.560  10.441  10.513  1.5752  1.1256  0.9544
  129MOL0     H17785   2.309  10.382  10.539 -1.5847  0.4937 -0.6091
  129MOL0     H17786   1.018   9.804  11.141 -4.5553  3.7083  0.6322
  129MOL0     H17787   0.775   9.810  11.149  1.1083  1.0792 -0.5520
  129MOL0     H17788   0.440   9.789  11.360 -1.5166  2.9245 -0.1796
  129MOL0     H17789   0.219   9.868  11.393 -0.7125 -0.4336  0.7555
  129MOL0     H17790  -0.045   9.875  11.428 -0.4882 -1.0615  0.2067
  129MOL0     H17791   0.051   9.992  11.336  1.1976 -0.3329  2.3510
  129MOL0     H17792  -0.241   9.896  11.299  0.5995 -1.0845  1.3213
  129MOL0     H17793  -0.158   9.984  11.181 -1.0170 -1.3279  0.0019
  129MOL0     H17794  -0.162  10.188  11.334 -1.3276  0.8165 -1.5400
  129MOL0     H17795  -0.323  10.121  11.304  0.9096 -0.4254  0.8515
  129MOL0     H17796  -0.162  10.062  11.549 -0.6315  0.1465  0.9325
  129MOL0     H17797  -0.325  10.000  11.525  0.0241 -0.3085 -0.8524
  129MOL0     H17798  -0.423  10.377  11.652  0.7466  0.6029 -3.0821
  129MOL0     H17799   0.082   9.637  11.068  0.4924  2.8422 -1.4914
  129MOL0     H17800   0.344   9.429  11.048 -1.5682 -0.4901  1.8241
  129MOL0     H17801   0.202   9.481  10.955  0.6380 -0.4892 -0.0321
  129MOL0     H17802   0.352   9.543  10.907  0.5900  2.4737  0.7035
  130MOL0     O17803   0.208  10.241   8.605 -0.2437 -0.0273  0.9256
  130MOL0     C17804   0.129  10.186   8.523  0.3036  0.2267 -0.5110
  130MOL0     O17805   0.146  10.065   8.462 -0.4419 -0.7253 -0.0021
  130MOL0     C17806   0.267   9.999   8.464 -0.7308 -0.1497 -0.1573
  130MOL0     C17807   0.290   9.908   8.562 -0.9365  0.6897 -0.2005
  130MOL0     C17808   0.422   9.846   8.555  0.2168 -0.6299 -0.8465
  130MOL0     C17809   0.505   9.858   8.449 -0.2801 -0.5018  0.4436
  130MOL0     O17810   0.626   9.795   8.445 -0.3489 -0.2572  0.2039
  130MOL0     C17811   0.635   9.710   8.330 -1.1323  0.2708  0.2056
  130MOL0     C17812   0.778   9.673   8.294 -0.5443  0.2763  1.0426
  130MOL0     C17813   0.872   9.652   8.410  0.7121  0.1815 -0.6103
  130MOL0     C17814   1.009   9.630   8.355  1.0275  0.4440 -0.7218
  130MOL0     C17815   1.095   9.584   8.473  0.2368 -0.7147  0.4197
  130MOL0     C17816   1.234   9.554   8.424  0.4744 -0.6836  0.4366
  130MOL0     C17817   1.343   9.561   8.529 -0.1759 -0.4076  0.5699
  130MOL0     C17818   1.479   9.525   8.461  0.7426 -0.4881 -0.1536
  130MOL0     N17819   1.592   9.509   8.553  0.0162 -0.6216  0.3497
  130MOL0     C17820   1.607   9.585   8.668  0.8466  0.1540  0.1129
  130MOL0     C17821   1.719   9.546   8.728  0.5421 -0.7232  0.2108
  130MOL0     C17822   1.790   9.596   8.850 -0.5620  1.0148 -0.3064
  130MOL0     C17823   1.820   9.747   8.847 -0.9620  0.1006  0.2746
  130MOL0     C17824   1.943   9.780   8.940  0.0122 -0.0767 -0.1342
  130MOL0     C17825   2.085   9.744   8.883 -0.9475  0.1055 -0.0616
  130MOL0     O17826   2.193   9.778   8.976  0.0620  0.1969 -0.6298
  130MOL0     C17827   2.234   9.909   8.981 -1.1719 -0.2657  0.1986
  130MOL0     C17828   2.289   9.989   8.878  0.1754  0.3922  0.5187
  130MOL0     C17829   2.342  10.118   8.907  0.3201  0.2382  0.5207
  130MOL0     C17830   2.409  10.187   8.790  0.7464  0.5134  0.4120
  130MOL0     C17831   2.333  10.170   9.033 -0.8934 -0.7958  0.0563
  130MOL0     C17832   2.387  10.303   9.076  0.4623 -0.2389 -0.7030
  130MOL0     O17833   2.502  10.347   9.027 -0.4344  0.0114 -0.4410
  130MOL0     C17834   2.570  10.457   9.069  0.3767 -0.4684 -0.5481
  130MOL0     C17835   2.508  10.585   9.059  0.6215 -0.7488  0.2605
  130MOL0     C17836   2.582  10.695   9.114 -0.2475 -0.3295 -0.8024
  130MOL0     C17837   2.709  10.682   9.166  0.6319 -0.3655 -0.2301
  130MOL0     O17838   2.771  10.785   9.229  0.3732 -0.5895  0.4346
  130MOL0     C17839   2.792  10.882   9.127 -0.2624 -1.2728 -0.5080
  130MOL0     C17840   2.894  10.996   9.166  1.0231 -0.5946 -0.2582
  130MOL0     C17841   3.039  10.950   9.192  0.4259  0.3794 -0.3486
  130MOL0     C17842   3.126  11.051   9.267  0.6864 -0.5526  0.1279
  130MOL0     C17843   3.254  10.989   9.313  0.3314  0.2908  0.8121
  130MOL0     C17844   3.343  11.084   9.403 -0.2718  0.9175 -0.5354
  130MOL0     C17845   3.445  11.005   9.481 -0.0958 -0.2715  0.2682
  130MOL0     C17846   3.546  11.090   9.567  0.0539  0.2013  0.6192
  130MOL0    Cl17847   3.463  11.221   9.658  0.2192 -0.1957  0.1084
  130MOL0     C17848   2.772  10.569   9.154 -0.6658 -0.2524  0.0113
  130MOL0     C17849   2.703  10.446   9.113 -0.6298 -0.5882 -0.8696
  130MOL0     O17850   2.314  10.355   9.155  0.3084 -0.9026  0.3456
  130MOL0     C17851   2.267  10.100   9.134 -0.0919  0.6875 -0.0200
  130MOL0     C17852   2.226   9.970   9.111 -0.1515 -0.1414 -0.8165
  130MOL0     N17853   1.772   9.454   8.638  0.4295  0.4133 -0.0100
  130MOL0     N17854   1.697   9.432   8.538  0.2539  0.6967 -0.0618
  130MOL0     C17855   0.472   9.940   8.346  0.9089 -0.6737 -0.0032
  130MOL0     C17856   0.354  10.014   8.351 -0.7114 -0.2295  0.2160
  130MOL0     C17857  -0.006  10.237   8.493  0.2220  0.6067  0.2567
  130MOL0     C17858  -0.071  10.201   8.378  0.5785  1.2549  0.6222
  130MOL0     C17859  -0.205  10.239   8.344 -0.3845 -0.3234 -1.0354
  130MOL0     C17860  -0.280  10.315   8.439 -0.5967  0.0322  0.8620
  130MOL0     O17861  -0.410  10.357   8.439  0.0236 -0.0936  0.1191
  130MOL0     C17862  -0.493  10.332   8.321 -0.3137  0.2359 -0.4500
  130MOL0     C17863  -0.554  10.193   8.323 -0.5841 -0.8443 -0.7510
  130MOL0     C17864  -0.613  10.147   8.192  0.3081 -0.0085  0.3926
  130MOL0     C17865  -0.660   9.999   8.179 -0.8883 -0.1470  0.0691
  130MOL0     C17866  -0.779   9.971   8.265 -0.1219 -0.0137  0.0887
  130MOL0     C17867  -0.878   9.949   8.328 -1.3720 -0.7194 -0.2222
  130MOL0     C17868  -0.216  10.349   8.558  0.3965 -0.0021 -0.1975
  130MOL0     C17869  -0.085  10.317   8.580  0.0330  0.9680  0.1613
  130MOL0     C17870  -0.026  10.388   8.702 -0.8085  0.7901  0.1446
  130MOL0     H17871   0.212   9.888   8.635 -0.4658 -2.4000 -0.3794
  130MOL0     H17872   0.438   9.771   8.632 -1.6879 -0.3671 -0.1474
  130MOL0     H17873   0.595   9.758   8.241 -0.1998  0.1620 -0.2835
  130MOL0     H17874   0.575   9.621   8.354  0.6060 -0.1573  3.6062
  130MOL0     H17875   0.773   9.588   8.225  0.3795  2.0442 -1.3554
  130MOL0     H17876   0.815   9.758   8.236 -1.3896 -0.3534 -0.4809
  130MOL0     H17877   0.879   9.742   8.471  0.8138  0.5351 -1.1401
  130MOL0     H17878   0.831   9.573   8.474 -0.0678  1.0763  0.0220
  130MOL0     H17879   1.012   9.551   8.280  1.0929  1.3355 -1.6918
  130MOL0     H17880   1.030   9.725   8.304 -0.3793  0.7440 -0.7849
  130MOL0     H17881   1.047   9.504   8.529  0.9231 -0.9338  0.7081
  130MOL0     H17882   1.104   9.659   8.552 -1.3461 -1.0444  0.9415
  130MOL0     H17883   1.236   9.456   8.376 -1.6250 -0.5831  0.0624
  130MOL0     H17884   1.257   9.623   8.342 -2.7566  0.4069  0.3295
  130MOL0     H17885   1.324   9.487   8.606  2.3294 -0.7153  0.9829
  130MOL0     H17886   1.342   9.663   8.569  0.5830 -1.8269  4.6206
  130MOL0     H17887   1.473   9.428   8.411  0.5597 -0.8404  0.5354
  130MOL0     H17888   1.503   9.603   8.388  1.8552  1.2517  1.9395
  130MOL0     H17889   1.545   9.668   8.699 -0.9240 -0.2222 -2.1359
  130MOL0     H17890   1.880   9.533   8.851 -1.6095 -0.5239 -0.3062
  130MOL0     H17891   1.737   9.570   8.943  0.6710 -3.8602 -0.6806
  130MOL0     H17892   1.838   9.802   8.754 -0.5883  1.3548  1.0754
  130MOL0     H17893   1.729   9.796   8.881 -0.1346  1.6558  0.3243
  130MOL0     H17894   1.946   9.889   8.954 -0.0147 -0.2253  1.1975
  130MOL0     H17895   1.929   9.735   9.039 -1.2856  0.3099 -0.1177
  130MOL0     H17896   2.089   9.635   8.870  3.0932  0.2665 -1.3350
  130MOL0     H17897   2.103   9.782   8.782 -0.0071 -0.6875 -0.2117
  130MOL0     H17898   2.292   9.947   8.778 -1.9676 -3.5334  1.9112
  130MOL0     H17899   2.452  10.285   8.810 -1.5594  2.3807 -2.8498
  130MOL0     H17900   2.320  10.207   8.729 -0.6493 -1.9890  1.4792
  130MOL0     H17901   2.477  10.117   8.741 -0.4148 -0.0756 -0.4268
  130MOL0     H17902   2.409  10.597   9.016  1.0969  0.5196 -0.5298
  130MOL0     H17903   2.542  10.795   9.126 -2.1241 -1.2571  1.6333
  130MOL0     H17904   2.822  10.832   9.035 -0.1383 -1.9936 -0.0779
  130MOL0     H17905   2.695  10.930   9.107  0.2619  0.1472  0.1812
  130MOL0     H17906   2.892  11.061   9.079 -0.4840  1.7414  1.3886
  130MOL0     H17907   2.852  11.057   9.248 -2.2368 -0.1559 -2.0642
  130MOL0     H17908   3.084  10.926   9.095 -0.0119  1.6102 -0.8789
  130MOL0     H17909   3.031  10.862   9.256 -1.4143  0.5074 -0.3512
  130MOL0     H17910   3.072  11.098   9.349 -0.0298 -0.7425 -0.2244
  130MOL0     H17911   3.140  11.139   9.204 -0.1270 -0.4573  0.0663
  130MOL0     H17912   3.218  10.907   9.377  0.5586  0.0087  0.5782
  130MOL0     H17913   3.315  10.959   9.228 -2.4605 -1.8612 -0.6181
  130MOL0     H17914   3.277  11.134   9.475 -0.2100  0.9435 -0.4975
  130MOL0     H17915   3.391  11.154   9.334 -0.4629 -0.3483 -2.0190
  130MOL0     H17916   3.498  10.935   9.416  4.3018  0.7528  2.3842
  130MOL0     H17917   3.394  10.947   9.559 -0.3939 -1.5938 -0.8745
  130MOL0     H17918   3.617  11.137   9.498  0.3455 -0.6559  0.3181
  130MOL0     H17919   3.602  11.022   9.632 -0.8829 -0.3123  0.9000
  130MOL0     H17920   2.876  10.562   9.185 -1.2566 -0.3235  2.1792
  130MOL0     H17921   2.757  10.352   9.108  0.8731  0.1840 -0.0110
  130MOL0     H17922   2.263  10.145   9.232 -0.6649  3.4036 -1.2052
  130MOL0     H17923   2.194   9.912   9.196  3.9356 -1.5050  0.0179
  130MOL0     H17924   0.521   9.950   8.250 -1.2998  0.8188 -1.0739
  130MOL0     H17925   0.322  10.084   8.275  2.7759  1.8072  0.3625
  130MOL0     H17926  -0.019  10.136   8.309 -0.6593 -1.7127  2.3074
  130MOL0     H17927  -0.252  10.210   8.251  0.3524 -0.5288 -1.3476
  130MOL0     H17928  -0.573  10.407   8.323  0.5188  1.2743 -2.6209
  130MOL0     H17929  -0.427  10.355   8.237  2.7644  1.6948  2.1475
  130MOL0     H17930  -0.631  10.185   8.400 -1.0222 -5.9098 -1.3653
  130MOL0     H17931  -0.471  10.124   8.343 -2.2903 -2.2626  2.1701
  130MOL0     H17932  -0.699  10.213   8.174  1.2545  0.8933 -1.1105
  130MOL0     H17933  -0.547  10.165   8.107 -2.5768 -0.3182 -2.0876
  130MOL0     H17934  -0.571   9.943   8.210 -0.1240  0.4780 -0.9428
  130MOL0     H17935  -0.685   9.968   8.077  3.6696 -2.4542 -0.6184
  130MOL0     H17936  -0.959   9.921   8.393 -0.6745  0.8657  1.3865
  130MOL0     H17937  -0.266  10.409   8.633 -0.0427 -0.5278 -0.0655
  130MOL0     H17938  -0.087  10.477   8.725 -0.3786  1.1720 -0.1722
  130MOL0     H17939  -0.007  10.327   8.791  1.6334  1.8841  0.4603
  130MOL0     H17940   0.072  10.416   8.663 -0.7008 -2.4480 -2.2060
  131MOL0     O17941   7.481   3.633   5.655 -0.7518 -0.3047 -0.3207
  131MOL0     C17942   7.494   3.621   5.777  0.7896  0.1062  0.4332
  131MOL0     O17943   7.597   3.662   5.857 -0.8037 -0.3271  0.4911
  131MOL0     C17944   7.706   3.727   5.806 -0.1549  0.3481 -0.3352
  131MOL0     C17945   7.833   3.682   5.832 -0.4358 -0.0517 -0.2025
  131MOL0     C17946   7.947   3.752   5.787  0.5116  0.8586 -0.4871
  131MOL0     C17947   7.937   3.874   5.719  0.5319  0.5092 -0.7926
  131MOL0     O17948   8.053   3.940   5.693  0.0015 -0.4281  0.5151
  131MOL0     C17949   8.040   4.077   5.660  0.6168  0.5897 -0.0395
  131MOL0     C17950   8.184   4.132   5.682 -0.6497  0.2464 -0.0877
  131MOL0     C17951   8.206   4.269   5.619 -0.0880 -0.4319  0.1626
  131MOL0     C17952   8.350   4.322   5.626  0.8408 -0.1345 -0.7016
  131MOL0     C17953   8.355   4.479   5.597 -1.0802 -0.5125  0.4081
  131MOL0     C17954   8.510   4.508   5.556  0.1438  0.4339 -0.0264
  131MOL0     C17955   8.599   4.488   5.684 -0.4150 -0.1163 -0.6376
  131MOL0     C17956   8.756   4.497   5.647 -0.8551  0.1360 -0.2164
  131MOL0     N17957   8.838   4.477   5.770  0.3388 -0.0177  0.1298
  131MOL0     C17958   8.846   4.366   5.850  0.1977  0.0502  0.0868
  131MOL0     C17959   8.941   4.393   5.937  0.1764 -0.3047 -0.1254
  131MOL0     C17960   8.966   4.307   6.053 -0.1247  0.0224  0.1837
  131MOL0     C17961   9.103   4.324   6.121 -0.3604 -0.1753  0.6786
  131MOL0     C17962   9.223   4.287   6.036  0.1243  0.3814 -0.0270
  131MOL0     C17963   9.240   4.138   6.031  0.3025  0.5636  0.2394
  131MOL0     O17964   9.245   4.074   6.160 -0.5399 -0.7507  0.0334
  131MOL0     C17965   9.291   3.947   6.170  0.4172  1.4848  0.0943
  131MOL0     C17966   9.308   3.865   6.058  0.5038 -0.2674 -0.5917
  131MOL0     C17967   9.336   3.726   6.069 -0.2391 -0.3095  0.5008
  131MOL0     C17968   9.331   3.640   5.938 -0.5641 -0.3081 -0.1509
  131MOL0     C17969   9.362   3.670   6.200  0.2767  0.2796 -0.0565
  131MOL0     C17970   9.422   3.533   6.224  0.6229 -0.3458  0.0238
  131MOL0     O17971   9.410   3.484   6.345 -0.2875 -0.2685 -0.0412
  131MOL0     C17972   9.417   3.347   6.355 -0.6432  0.0747  1.2672
  131MOL0     C17973   9.300   3.276   6.356  0.9963  0.8961  0.0294
  131MOL0     C17974   9.316   3.135   6.358 -0.0208 -0.4040 -0.3173
  131MOL0     C17975   9.446   3.075   6.376  0.1524 -0.9444  0.3786
  131MOL0     O17976   9.453   2.941   6.364  0.1154  0.3772 -0.3709
  131MOL0     C17977   9.557   2.882   6.284 -0.6822  0.0163 -0.1951
  131MOL0     C17978   9.592   2.747   6.345  0.2948  0.1680 -0.7817
  131MOL0     C17979   9.739   2.716   6.320 -0.0514  0.5896 -0.6101
  131MOL0     C17980   9.760   2.563   6.332 -0.9275 -0.0297  0.0486
  131MOL0     C17981   9.913   2.528   6.308 -0.0827 -0.3145  0.5654
  131MOL0     C17982  10.019   2.596   6.396 -0.6079 -0.1728 -0.7258
  131MOL0     C17983  10.145   2.512   6.415  0.7083  0.4715  0.4858
  131MOL0     C17984  10.255   2.585   6.496 -0.8145 -0.0213 -0.1038
  131MOL0    Cl17985  10.354   2.471   6.578 -0.1024  0.3440  0.1237
  131MOL0     C17986   9.561   3.154   6.370  0.4840 -0.6982  0.3567
  131MOL0     C17987   9.540   3.291   6.363  0.5751  0.2208 -0.0334
  131MOL0     O17988   9.452   3.470   6.121  0.1082 -0.2846 -0.0555
  131MOL0     C17989   9.325   3.750   6.309 -0.0681  0.4752  0.0048
  131MOL0     C17990   9.294   3.884   6.292  0.1507 -0.3997 -0.0933
  131MOL0     N17991   8.990   4.519   5.912  0.0749  0.9199 -0.8916
  131MOL0     N17992   8.936   4.570   5.809 -0.5081  0.3503  0.6581
  131MOL0     C17993   7.813   3.912   5.687 -0.3705  0.0547 -1.2089
  131MOL0     C17994   7.696   3.847   5.724  0.5087 -0.5296 -0.5942
  131MOL0     C17995   7.380   3.556   5.845 -0.4406  0.0646  0.8155
  131MOL0     C17996   7.376   3.551   5.986  0.5205 -0.5395  0.4434
  131MOL0     C17997   7.271   3.487   6.052 -0.2173 -0.6856 -0.6018
  131MOL0     C17998   7.174   3.423   5.985  0.2075  0.4066  0.4248
  131MOL0     O17999   7.071   3.372   6.060  0.4187 -0.4965  0.1067
  131MOL0     C18000   7.051   3.233   6.029 -0.4014 -0.0585  0.8961
  131MOL0     C18001   6.910   3.188   6.081 -0.5123 -0.8565 -0.5787
  131MOL0     C18002   6.914   3.166   6.230 -0.2793  0.3813  0.2644
  131MOL0     C18003   6.774   3.104   6.265  0.5982 -0.0352 -0.9079
  131MOL0     C18004   6.750   2.965   6.216  0.2406 -0.1335 -0.2680
  131MOL0     C18005   6.733   2.852   6.174 -0.2887 -0.6029 -0.6556
  131MOL0     C18006   7.173   3.433   5.840  0.1246 -0.0165 -0.2524
  131MOL0     C18007   7.282   3.480   5.772  0.3766 -0.6563 -1.1210
  131MOL0     C18008   7.296   3.451   5.626  0.7055  0.5990 -0.4480
  131MOL0     H18009   7.845   3.593   5.893  0.2328  0.8836  1.0636
  131MOL0     H18010   8.051   3.732   5.812 -0.2463 -0.6369  1.7944
  131MOL0     H18011   7.957   4.124   5.714  1.4196  0.3685  1.4212
  131MOL0     H18012   8.010   4.091   5.556 -0.7377  2.2410  0.5178
  131MOL0     H18013   8.203   4.133   5.789 -1.8919 -3.5263  0.3092
  131MOL0     H18014   8.256   4.060   5.642 -1.1162  0.1822 -0.8464
  131MOL0     H18015   8.185   4.268   5.512 -0.0464  1.7114  0.0877
  131MOL0     H18016   8.137   4.337   5.671  0.8026 -0.4125  1.3567
  131MOL0     H18017   8.392   4.305   5.726 -0.2329  0.9870 -0.0162
  131MOL0     H18018   8.406   4.262   5.554  0.2961 -2.7330  0.9182
  131MOL0     H18019   8.327   4.539   5.684 -1.0136  0.0599  0.0380
  131MOL0     H18020   8.281   4.502   5.520 -0.3049  1.9688  0.3152
  131MOL0     H18021   8.545   4.448   5.471 -2.7613 -0.5775 -0.6297
  131MOL0     H18022   8.516   4.612   5.525 -1.6094  0.3478 -0.7699
  131MOL0     H18023   8.575   4.398   5.741 -1.0024  1.9691  2.6413
  131MOL0     H18024   8.575   4.567   5.756 -3.5481 -0.9721 -0.5635
  131MOL0     H18025   8.780   4.422   5.571  2.7487  1.3896 -0.5007
  131MOL0     H18026   8.768   4.599   5.610 -0.0970 -0.3947 -1.4962
  131MOL0     H18027   8.784   4.279   5.868  0.4167 -0.3631 -1.0924
  131MOL0     H18028   8.953   4.200   6.036 -1.3021  0.2276 -0.3941
  131MOL0     H18029   8.891   4.349   6.121  0.9275  2.0025  0.2108
  131MOL0     H18030   9.123   4.426   6.157 -1.2807  0.0486  0.5864
  131MOL0     H18031   9.105   4.274   6.219  0.4303  0.9134  1.2458
  131MOL0     H18032   9.212   4.325   5.934 -1.3316 -0.5396 -0.2301
  131MOL0     H18033   9.312   4.343   6.067 -0.2045  1.6829 -1.2828
  131MOL0     H18034   9.151   4.096   5.983  1.4694 -0.9281 -0.7483
  131MOL0     H18035   9.333   4.118   5.975  2.1852 -0.7549  3.5258
  131MOL0     H18036   9.297   3.903   5.957  1.3486 -0.0249 -0.6054
  131MOL0     H18037   9.427   3.593   5.916 -0.3443 -1.5121  2.8805
  131MOL0     H18038   9.314   3.704   5.851  0.1968 -1.6369 -1.3126
  131MOL0     H18039   9.254   3.563   5.950  0.7484 -1.6239  0.0820
  131MOL0     H18040   9.204   3.323   6.343  0.6998  0.4484  0.5691
  131MOL0     H18041   9.234   3.064   6.348 -1.2081  0.3968  2.6484
  131MOL0     H18042   9.531   2.877   6.177  2.5232  1.6480 -1.1999
  131MOL0     H18043   9.640   2.953   6.276 -1.9441  1.3917 -2.2396
  131MOL0     H18044   9.571   2.739   6.452 -1.5060  1.1242 -1.0220
  131MOL0     H18045   9.526   2.675   6.295 -2.4375  1.2594  1.0133
  131MOL0     H18046   9.795   2.761   6.402 -2.5984 -0.4906  1.9051
  131MOL0     H18047   9.759   2.747   6.217  1.1833 -0.9250 -0.8552
  131MOL0     H18048   9.690   2.506   6.270 -1.5024  0.0952  0.5743
  131MOL0     H18049   9.740   2.539   6.437 -0.5789 -1.8301 -0.2554
  131MOL0     H18050   9.926   2.420   6.317 -0.7191 -0.6082 -1.4032
  131MOL0     H18051   9.945   2.543   6.204 -0.7666 -1.3038  0.1979
  131MOL0     H18052   9.971   2.627   6.489 -1.7234  2.4201 -2.0387
  131MOL0     H18053  10.056   2.690   6.354  1.2279 -0.9860 -1.0048
  131MOL0     H18054  10.184   2.479   6.318 -0.6288  1.7160 -0.5112
  131MOL0     H18055  10.119   2.421   6.470 -0.9480 -0.1446 -1.2074
  131MOL0     H18056  10.209   2.655   6.566 -0.0705  1.2399 -0.8343
  131MOL0     H18057  10.313   2.654   6.435  0.1836  1.1720  2.0631
  131MOL0     H18058   9.663   3.118   6.382  1.9597  3.3933  1.7356
  131MOL0     H18059   9.631   3.350   6.373  2.0903 -1.9768 -0.1249
  131MOL0     H18060   9.349   3.715   6.409 -2.8742 -1.1194  0.2069
  131MOL0     H18061   9.270   3.948   6.377 -2.7029  1.4245 -2.1202
  131MOL0     H18062   7.802   4.011   5.642  1.7883  1.6552  1.4878
  131MOL0     H18063   7.594   3.883   5.709 -0.2647 -1.8799  1.0074
  131MOL0     H18064   7.450   3.607   6.043  0.1749 -1.4026  1.7598
  131MOL0     H18065   7.265   3.500   6.160  2.7599 -4.1683  0.1867
  131MOL0     H18066   7.059   3.216   5.922 -0.1544  1.2072  0.6972
  131MOL0     H18067   7.133   3.176   6.075 -0.9830 -1.8270 -0.1718
  131MOL0     H18068   6.870   3.092   6.048 -0.7757 -1.6761  1.9517
  131MOL0     H18069   6.837   3.266   6.055  0.8667  0.0530 -1.9400
  131MOL0     H18070   6.995   3.102   6.266 -0.6800 -1.2273 -1.5529
  131MOL0     H18071   6.926   3.260   6.286 -1.3454  1.5807 -1.4261
  131MOL0     H18072   6.695   3.169   6.226  0.3524  0.1219 -0.1680
  131MOL0     H18073   6.757   3.106   6.373 -1.9633  0.1716 -1.2422
  131MOL0     H18074   6.735   2.754   6.129  1.9996 -1.8640  1.8555
  131MOL0     H18075   7.088   3.387   5.792 -0.4279 -0.0171  0.6957
  131MOL0     H18076   7.391   3.405   5.596  1.0664  0.5744  0.6756
  131MOL0     H18077   7.221   3.377   5.595  2.3555 -2.9750  3.1461
  131MOL0     H18078   7.279   3.547   5.576  1.1672 -0.4599 -2.7892
  132MOL0     O18079   7.081   0.815   0.676  0.0616 -0.3695 -0.0833
  132MOL0     C18080   7.010   0.905   0.635 -0.6269 -0.0012 -0.1072
  132MOL0     O18081   7.047   1.002   0.541 -0.3169  0.2832 -0.1438
  132MOL0     C18082   7.181   1.013   0.520 -0.8945  0.4032  1.6015
  132MOL0     C18083   7.219   1.021   0.392 -0.1680  0.1976  0.1023
  132MOL0     C18084   7.352   1.027   0.345 -0.1441  0.0186 -0.5279
  132MOL0     C18085   7.456   1.023   0.443 -0.3022  0.8341  0.2296
  132MOL0     O18086   7.584   1.028   0.407 -0.5240  0.1955  0.6174
  132MOL0     C18087   7.683   0.951   0.479  0.0771  0.0244 -0.2097
  132MOL0     C18088   7.826   0.972   0.424 -0.0429  0.2433  0.2215
  132MOL0     C18089   7.921   0.913   0.525  0.4622  0.1076 -0.6095
  132MOL0     C18090   8.062   0.889   0.467  0.3227 -0.5491 -0.6931
  132MOL0     C18091   8.155   0.845   0.578  0.1411 -0.4739 -0.5489
  132MOL0     C18092   8.298   0.833   0.530 -0.1054  0.4044  0.7110
  132MOL0     C18093   8.333   0.725   0.426  0.6609  0.8044  0.0900
  132MOL0     C18094   8.476   0.723   0.394  0.0295 -0.0883 -0.5497
  132MOL0     N18095   8.530   0.851   0.333  0.4835  0.6522  0.2719
  132MOL0     C18096   8.499   0.900   0.206 -0.4735 -1.2170 -0.3120
  132MOL0     C18097   8.563   1.023   0.207 -0.0978 -0.7888 -0.7923
  132MOL0     C18098   8.562   1.111   0.086  0.6412  1.1388 -1.1304
  132MOL0     C18099   8.414   1.137   0.048 -0.2754  0.2818 -0.0787
  132MOL0     C18100   8.417   1.255  -0.059 -0.3827  0.4348  0.1828
  132MOL0     C18101   8.437   1.401  -0.013 -0.0842  0.4734 -0.0459
  132MOL0     O18102   8.342   1.430   0.106  0.1649 -0.3838  0.0194
  132MOL0     C18103   8.330   1.559   0.158 -0.4367  0.2803 -0.0222
  132MOL0     C18104   8.216   1.612   0.234 -0.1900 -0.3787  0.0058
  132MOL0     C18105   8.212   1.744   0.274  0.9747 -0.1721  0.2484
  132MOL0     C18106   8.088   1.778   0.340 -0.1409  0.3276 -0.5949
  132MOL0     C18107   8.308   1.837   0.224  0.4150  0.9528  0.0112
  132MOL0     C18108   8.305   1.986   0.250 -0.3259  0.3724 -0.3512
  132MOL0     O18109   8.416   2.062   0.216  0.4036 -0.6327  0.4419
  132MOL0     C18110   8.417   2.197   0.189  0.1310  0.3272 -0.0401
  132MOL0     C18111   8.333   2.292   0.247 -0.8630  0.0272 -0.2217
  132MOL0     C18112   8.348   2.428   0.200  0.3036 -0.0833 -0.3188
  132MOL0     C18113   8.441   2.471   0.101 -0.9190  0.9222  0.0216
  132MOL0     O18114   8.437   2.594   0.045 -0.3931 -0.3424  0.2738
  132MOL0     C18115   8.374   2.711   0.105 -0.4138 -0.2831  0.4299
  132MOL0     C18116   8.450   2.840   0.060  0.0135  0.1477 -0.2155
  132MOL0     C18117   8.373   2.913  -0.047  0.0006  0.4474  0.6442
  132MOL0     C18118   8.371   2.840  -0.182 -0.9972 -1.1504  0.2883
  132MOL0     C18119   8.338   2.939  -0.292 -0.9019  0.2733 -0.3361
  132MOL0     C18120   8.192   2.970  -0.288 -0.1274 -0.0462 -0.3042
  132MOL0     C18121   8.134   3.025  -0.422 -0.2984  0.1561 -0.4212
  132MOL0     C18122   8.115   2.925  -0.535  0.0126  0.1926  0.0363
  132MOL0    Cl18123   8.058   2.985  -0.684 -0.1211  0.0325  0.0523
  132MOL0     C18124   8.524   2.376   0.049  0.1509 -0.1312 -0.2843
  132MOL0     C18125   8.509   2.245   0.091  0.3160  0.8150 -0.3824
  132MOL0     O18126   8.203   2.033   0.295  0.2289  0.6217 -0.3951
  132MOL0     C18127   8.413   1.782   0.148  0.0470  0.5579 -0.0071
  132MOL0     C18128   8.433   1.644   0.124 -0.7876 -0.5436  0.3249
  132MOL0     N18129   8.623   1.050   0.328  0.1876  0.4511 -0.3265
  132MOL0     N18130   8.616   0.938   0.399  0.0273  0.1587  0.5602
  132MOL0     C18131   7.420   1.023   0.581  0.4425 -0.5498 -0.1763
  132MOL0     C18132   7.282   1.021   0.622 -0.2427  0.0388 -0.0043
  132MOL0     C18133   6.864   0.904   0.676 -0.4291 -0.2704 -1.0083
  132MOL0     C18134   6.802   1.031   0.706 -1.0646  0.3637 -0.3576
  132MOL0     C18135   6.669   1.038   0.754 -0.1863 -0.4799  0.5760
  132MOL0     C18136   6.609   0.917   0.786  0.0330 -0.2519  0.3178
  132MOL0     O18137   6.484   0.926   0.845 -0.3260  0.0739 -0.1096
  132MOL0     C18138   6.417   0.807   0.884  0.0302  0.0354 -0.0593
  132MOL0     C18139   6.284   0.853   0.938 -0.6169  0.9518  0.2148
  132MOL0     C18140   6.309   0.903   1.075 -0.0745 -1.0953  0.0825
  132MOL0     C18141   6.194   0.999   1.118 -0.5577  0.5572  0.0159
  132MOL0     C18142   6.065   0.938   1.159  0.5203  0.0660  0.2175
  132MOL0     C18143   5.947   0.905   1.184 -0.9165  0.4448  0.4647
  132MOL0     C18144   6.670   0.796   0.771 -0.0423  0.3942 -0.4769
  132MOL0     C18145   6.795   0.785   0.714 -0.5081  0.0465 -1.1933
  132MOL0     C18146   6.855   0.647   0.705  0.4898  1.1235 -0.0371
  132MOL0     H18147   7.135   1.026   0.323 -2.0174  2.1537  2.3261
  132MOL0     H18148   7.367   1.028   0.237 -0.7904 -0.6061 -0.6296
  132MOL0     H18149   7.655   0.845   0.472 -0.5171  0.2558 -1.6542
  132MOL0     H18150   7.693   0.984   0.583  2.4727 -1.9434  0.3064
  132MOL0     H18151   7.842   0.947   0.318  3.0959  2.2087  0.0945
  132MOL0     H18152   7.862   1.076   0.426  1.3837 -0.2129  2.6602
  132MOL0     H18153   7.924   0.984   0.608  1.3697 -1.0082  0.3571
  132MOL0     H18154   7.874   0.821   0.559 -1.6890  1.6087  0.7198
  132MOL0     H18155   8.059   0.812   0.390  0.1336 -0.1232 -1.1135
  132MOL0     H18156   8.095   0.981   0.418  2.1021 -0.8320 -0.0941
  132MOL0     H18157   8.127   0.746   0.615 -0.7877  0.8723  2.6703
  132MOL0     H18158   8.155   0.915   0.662 -2.5612 -1.2991  0.2293
  132MOL0     H18159   8.332   0.933   0.501 -1.7592  1.3387  1.8652
  132MOL0     H18160   8.348   0.801   0.622  2.2841  0.4238 -0.4794
  132MOL0     H18161   8.274   0.741   0.335  1.0502  1.6543 -0.0319
  132MOL0     H18162   8.316   0.626   0.468  1.9805  1.2053  1.6692
  132MOL0     H18163   8.529   0.708   0.489  3.6058 -0.5003 -2.4598
  132MOL0     H18164   8.513   0.643   0.330  1.6237 -0.3388  0.6298
  132MOL0     H18165   8.455   0.846   0.123  0.0151 -1.3628 -0.4797
  132MOL0     H18166   8.613   1.063   0.002 -0.5933 -0.7571 -0.8389
  132MOL0     H18167   8.605   1.204   0.126  0.7455 -0.2204  2.2322
  132MOL0     H18168   8.370   1.051  -0.003  1.5292 -1.5110  1.2744
  132MOL0     H18169   8.348   1.165   0.130  1.2608 -2.2579  2.1986
  132MOL0     H18170   8.493   1.238  -0.136  0.4487 -1.4793  1.3667
  132MOL0     H18171   8.321   1.254  -0.111  1.0397  0.8700 -2.6701
  132MOL0     H18172   8.539   1.395   0.026  0.0931 -1.2503 -0.6869
  132MOL0     H18173   8.419   1.474  -0.092 -2.8463 -0.8018 -0.7119
  132MOL0     H18174   8.142   1.545   0.275 -2.2330  0.7105 -1.6925
  132MOL0     H18175   8.103   1.825   0.438 -2.0520 -0.0199 -0.0874
  132MOL0     H18176   8.027   1.694   0.375 -1.7550  2.6538  2.7511
  132MOL0     H18177   8.026   1.853   0.291 -1.7086  1.2930  2.5271
  132MOL0     H18178   8.266   2.260   0.327  1.5975 -2.8741  0.8479
  132MOL0     H18179   8.302   2.505   0.261  1.0925 -0.8847  1.3397
  132MOL0     H18180   8.272   2.726   0.068 -0.1577  2.8522  0.7339
  132MOL0     H18181   8.386   2.733   0.212  2.1008  1.2879 -0.1039
  132MOL0     H18182   8.458   2.908   0.146 -1.8717  0.1648  0.0007
  132MOL0     H18183   8.545   2.813   0.014  0.3688  1.5763 -0.3781
  132MOL0     H18184   8.419   3.010  -0.063  1.0616 -0.3065 -1.1642
  132MOL0     H18185   8.269   2.925  -0.015 -0.8521 -0.6571 -1.4590
  132MOL0     H18186   8.313   2.747  -0.185  1.2921 -2.6445 -1.1499
  132MOL0     H18187   8.473   2.804  -0.199 -0.6109  0.7941 -1.9921
  132MOL0     H18188   8.392   3.034  -0.288  1.5115 -1.0585  0.3504
  132MOL0     H18189   8.370   2.900  -0.389 -0.3799 -0.6055  0.1791
  132MOL0     H18190   8.172   3.040  -0.206 -0.8044 -0.6441  0.0583
  132MOL0     H18191   8.130   2.884  -0.259  0.5530 -0.3366  0.3057
  132MOL0     H18192   8.202   3.105  -0.451 -0.6073  0.4128 -0.4410
  132MOL0     H18193   8.040   3.078  -0.408 -1.8479 -2.4077 -0.4989
  132MOL0     H18194   8.043   2.848  -0.505 -1.0725  1.1534 -0.0272
  132MOL0     H18195   8.213   2.877  -0.547  1.1990  1.2584  4.0065
  132MOL0     H18196   8.589   2.395  -0.037  0.1183 -0.5572 -0.4046
  132MOL0     H18197   8.576   2.174   0.041  0.2812 -1.1088  2.0893
  132MOL0     H18198   8.492   1.848   0.112  0.3190  1.3122  1.8443
  132MOL0     H18199   8.525   1.605   0.082 -0.9658 -1.4509  0.7481
  132MOL0     H18200   7.488   1.022   0.666 -1.3044  1.8665  1.3705
  132MOL0     H18201   7.263   1.030   0.728  1.5165 -0.8360  0.4415
  132MOL0     H18202   6.864   1.120   0.704 -2.4832  1.3842 -0.3412
  132MOL0     H18203   6.621   1.132   0.779  1.8431  1.2209 -1.4807
  132MOL0     H18204   6.400   0.745   0.796  2.1638 -0.4191 -0.1896
  132MOL0     H18205   6.469   0.742   0.955 -1.1992 -3.7219 -2.2854
  132MOL0     H18206   6.214   0.770   0.934 -0.2435  0.6872 -2.1448
  132MOL0     H18207   6.239   0.928   0.873  0.5217  1.1799 -0.3353
  132MOL0     H18208   6.312   0.821   1.148  1.2907  0.0952  1.4184
  132MOL0     H18209   6.404   0.956   1.079 -0.5502 -0.2379  0.1538
  132MOL0     H18210   6.168   1.070   1.039  2.0449  1.6291  0.0458
  132MOL0     H18211   6.224   1.058   1.205  1.8016 -0.4112 -0.0686
  132MOL0     H18212   5.849   0.872   1.212 -2.1707  2.6580 -1.0596
  132MOL0     H18213   6.618   0.706   0.800 -0.9683  1.4775  1.3885
  132MOL0     H18214   6.912   0.637   0.612 -2.2443  0.2881 -1.7271
  132MOL0     H18215   6.911   0.618   0.795  1.0214 -1.8850 -1.1900
  132MOL0     H18216   6.774   0.574   0.695 -1.0515  2.3108  2.7010
  133MOL0     O18217   1.211   5.441  11.058 -0.3281 -0.1189 -0.3809
  133MOL0     C18218   1.204   5.374  11.158  0.3316  1.4895 -0.3748
  133MOL0     O18219   1.306   5.296  11.201  0.2334  0.1290 -0.4108
  133MOL0     C18220   1.428   5.307  11.133  0.0973  0.2497 -0.4024
  133MOL0     C18221   1.544   5.352  11.198  0.5837  0.3265  0.6804
  133MOL0     C18222   1.659   5.361  11.120 -0.1913  0.1136  0.4966
  133MOL0     C18223   1.668   5.330  10.989 -0.1632 -0.2722  0.6449
  133MOL0     O18224   1.788   5.357  10.925 -0.1719 -0.0309  0.4657
  133MOL0     C18225   1.789   5.372  10.778  0.4268 -0.1769  0.5147
  133MOL0     C18226   1.891   5.475  10.735 -0.1499 -0.1861  0.6387
  133MOL0     C18227   1.903   5.510  10.584 -0.1247 -0.8596 -1.0039
  133MOL0     C18228   2.027   5.594  10.578 -0.3738 -0.8210 -0.2238
  133MOL0     C18229   2.045   5.647  10.433 -0.4966  0.4413 -0.5458
  133MOL0     C18230   2.120   5.527  10.361 -0.0832 -0.5146  0.1485
  133MOL0     C18231   2.153   5.584  10.217  0.1482  0.2619  0.1999
  133MOL0     C18232   2.241   5.488  10.135  1.2053 -0.4183  0.0771
  133MOL0     N18233   2.367   5.467  10.201  0.6392 -0.3456 -0.2103
  133MOL0     C18234   2.399   5.372  10.293  0.5497 -0.1093  0.6838
  133MOL0     C18235   2.522   5.410  10.345 -1.0950  1.0749  0.3129
  133MOL0     C18236   2.588   5.337  10.459 -0.2566  0.5432 -0.9323
  133MOL0     C18237   2.708   5.254  10.406 -0.6102  0.3085 -0.0794
  133MOL0     C18238   2.828   5.336  10.401 -0.5418 -1.0637  0.6126
  133MOL0     C18239   2.950   5.254  10.361 -0.6177  0.1416  0.4133
  133MOL0     O18240   3.055   5.350  10.341  0.8240  0.3038  0.3626
  133MOL0     C18241   3.179   5.301  10.313 -0.8272 -0.2492  0.1190
  133MOL0     C18242   3.221   5.168  10.280  0.8290 -0.2411  0.2148
  133MOL0     C18243   3.357   5.129  10.275  0.7232 -0.3129  0.7531
  133MOL0     C18244   3.385   4.985  10.235  0.3636  0.0317 -0.1725
  133MOL0     C18245   3.457   5.234  10.290  0.2517 -0.8870 -0.1875
  133MOL0     C18246   3.602   5.207  10.304  0.0921  1.0342  0.2884
  133MOL0     O18247   3.678   5.310  10.290 -0.9285 -0.3109  0.5369
  133MOL0     C18248   3.815   5.298  10.308 -0.1303 -0.5252  0.8526
  133MOL0     C18249   3.877   5.339  10.431  0.0712 -0.1748  1.0252
  133MOL0     C18250   4.017   5.346  10.437 -0.4805  0.3506  0.3485
  133MOL0     C18251   4.097   5.310  10.323 -0.2617  0.2030  0.3043
  133MOL0     O18252   4.237   5.316  10.329 -0.0352  0.0954 -0.0646
  133MOL0     C18253   4.319   5.285  10.217  0.4077 -0.6866  0.1651
  133MOL0     C18254   4.452   5.238  10.284  0.2215  0.6937 -0.4465
  133MOL0     C18255   4.542   5.350  10.331  0.2967  0.4009 -1.1180
  133MOL0     C18256   4.680   5.295  10.366 -0.0922 -0.7176 -0.8138
  133MOL0     C18257   4.790   5.396  10.393 -0.0125 -0.6804  0.5352
  133MOL0     C18258   4.921   5.315  10.405  0.6456 -0.0236  0.2729
  133MOL0     C18259   5.046   5.405  10.429 -0.6298 -0.8483  0.5748
  133MOL0     C18260   5.178   5.339  10.457 -0.1923  1.4427  0.3422
  133MOL0    Cl18261   5.221   5.211  10.334 -0.4394  0.1208  0.3049
  133MOL0     C18262   4.029   5.266  10.208 -0.5877 -0.3540 -0.5856
  133MOL0     C18263   3.891   5.264  10.199 -0.3234 -0.8428  0.6742
  133MOL0     O18264   3.635   5.094  10.336 -1.3503  0.3563  0.1072
  133MOL0     C18265   3.411   5.362  10.321  0.0552  0.2620  0.2223
  133MOL0     C18266   3.279   5.399  10.328  0.3260  0.6618 -0.1775
  133MOL0     N18267   2.560   5.525  10.278 -0.4728 -0.4695 -0.8715
  133MOL0     N18268   2.472   5.551  10.191 -0.1769  0.0218 -0.0889
  133MOL0     C18269   1.554   5.280  10.926 -1.2617 -0.2685 -0.1065
  133MOL0     C18270   1.441   5.260  10.997  0.2497 -0.2064 -0.1079
  133MOL0     C18271   1.084   5.389  11.245 -0.0724 -0.0849  0.7523
  133MOL0     C18272   0.988   5.489  11.211 -0.5828 -0.2336 -0.2394
  133MOL0     C18273   0.864   5.490  11.275 -0.4634  0.4579 -0.2925
  133MOL0     C18274   0.828   5.395  11.375  0.1368 -0.4986  0.2823
  133MOL0     O18275   0.702   5.374  11.433 -0.6868 -0.6702 -0.1826
  133MOL0     C18276   0.594   5.470  11.428  0.3390 -0.2512 -0.7733
  133MOL0     C18277   0.482   5.426  11.524  0.5636  0.3876 -0.1008
  133MOL0     C18278   0.339   5.497  11.525  0.1057  0.4824 -0.4516
  133MOL0     C18279   0.342   5.648  11.541  0.2503  0.9771  0.0124
  133MOL0     C18280   0.385   5.708  11.415 -0.0766  0.6396 -0.5898
  133MOL0     C18281   0.423   5.748  11.307  0.0181  0.4545  0.2335
  133MOL0     C18282   0.936   5.321  11.417 -0.4438  0.8805  0.3131
  133MOL0     C18283   1.061   5.311  11.355  0.6774 -0.7144 -0.2103
  133MOL0     C18284   1.158   5.206  11.405  0.0305 -0.6512  0.6630
  133MOL0     H18285   1.556   5.381  11.302  0.9922  0.8051  0.5065
  133MOL0     H18286   1.748   5.403  11.165 -0.4517  1.5732 -0.3163
  133MOL0     H18287   1.692   5.409  10.743  1.2703  1.3337 -0.3693
  133MOL0     H18288   1.806   5.283  10.717 -2.5356 -0.8791  0.5754
  133MOL0     H18289   1.868   5.566  10.790  1.2466 -1.0708  2.8283
  133MOL0     H18290   1.986   5.455  10.785 -2.4355 -3.3893  4.2499
  133MOL0     H18291   1.909   5.424  10.516  1.8306 -0.1141 -1.8642
  133MOL0     H18292   1.822   5.578  10.558  1.1234  0.8596 -0.5961
  133MOL0     H18293   2.026   5.675  10.651  1.4666  2.7884 -3.7892
  133MOL0     H18294   2.113   5.536  10.613  1.0792  2.0426  1.3228
  133MOL0     H18295   2.125   5.721  10.438  0.7063 -0.8340 -0.2459
  133MOL0     H18296   1.951   5.677  10.388  0.2691  4.6404  0.2939
  133MOL0     H18297   2.201   5.493  10.427  0.3484  0.2228  0.0129
  133MOL0     H18298   2.057   5.439  10.355  1.2843 -1.4225 -2.4158
  133MOL0     H18299   2.207   5.677  10.235 -0.8311  0.6154  1.4432
  133MOL0     H18300   2.060   5.604  10.163  0.4489  3.1909  0.5866
  133MOL0     H18301   2.190   5.395  10.110 -0.7087 -0.2931  3.0013
  133MOL0     H18302   2.274   5.535  10.042  1.8464  2.1578  1.4879
  133MOL0     H18303   2.340   5.290  10.333 -0.1880  1.0289  2.0064
  133MOL0     H18304   2.515   5.265  10.497 -0.7968 -0.7816 -4.1290
  133MOL0     H18305   2.622   5.400  10.541  0.3544  0.7929 -1.3703
  133MOL0     H18306   2.723   5.182  10.488 -1.4196  0.9466  0.6508
  133MOL0     H18307   2.683   5.203  10.312 -3.1768  0.7365  0.2988
  133MOL0     H18308   2.814   5.411  10.323 -1.3646  0.4512  2.1550
  133MOL0     H18309   2.853   5.386  10.495  1.7886  0.4995 -0.7239
  133MOL0     H18310   2.973   5.167  10.423  0.8001 -1.4346 -2.1268
  133MOL0     H18311   2.939   5.202  10.265  0.4971 -0.1498  0.4309
  133MOL0     H18312   3.152   5.085  10.264  1.6775 -1.3535  1.9160
  133MOL0     H18313   3.438   4.982  10.139 -0.0673  0.6448 -0.4396
  133MOL0     H18314   3.288   4.933  10.231  0.5582 -0.8304  3.4370
  133MOL0     H18315   3.438   4.938  10.318  0.3301 -0.7287 -0.5701
  133MOL0     H18316   3.825   5.364  10.523  2.9382 -0.1311  2.7458
  133MOL0     H18317   4.068   5.372  10.529  0.2663 -0.9710  0.3239
  133MOL0     H18318   4.278   5.199  10.163 -0.4145  1.0157 -2.0984
  133MOL0     H18319   4.325   5.373  10.152  1.4076 -1.2325 -0.5229
  133MOL0     H18320   4.425   5.173  10.368  1.0926  1.4561  0.4582
  133MOL0     H18321   4.514   5.184  10.212  0.2586 -1.9965  1.4439
  133MOL0     H18322   4.488   5.383  10.420  2.3085  0.0453  0.3109
  133MOL0     H18323   4.547   5.432  10.259 -1.1527  3.2497  1.8193
  133MOL0     H18324   4.717   5.254  10.272  0.0253 -1.8431 -0.3043
  133MOL0     H18325   4.694   5.226  10.450  2.3169  2.9825  2.1890
  133MOL0     H18326   4.785   5.473  10.315 -1.8768  0.6532  1.8893
  133MOL0     H18327   4.771   5.454  10.483 -1.2737  2.5006 -1.6242
  133MOL0     H18328   4.943   5.253  10.317  0.2209 -1.0342  0.8601
  133MOL0     H18329   4.903   5.266  10.501 -1.5651  0.6805  0.2717
  133MOL0     H18330   5.035   5.480  10.508  0.4310 -1.2141  1.0859
  133MOL0     H18331   5.056   5.467  10.340 -0.3856  0.7515  1.6779
  133MOL0     H18332   5.154   5.289  10.551 -2.9213 -2.5073 -2.1211
  133MOL0     H18333   5.270   5.397  10.464  1.3839 -0.8767  0.0372
  133MOL0     H18334   4.088   5.245  10.120 -1.8892  0.7613 -1.7702
  133MOL0     H18335   3.849   5.233  10.104 -1.9936 -0.5340  1.2876
  133MOL0     H18336   3.481   5.439  10.353  0.3162 -1.2617  3.7742
  133MOL0     H18337   3.251   5.497  10.366 -1.2964 -0.7940  2.6906
  133MOL0     H18338   1.556   5.249  10.822  0.6861 -0.5607 -0.0173
  133MOL0     H18339   1.367   5.204  10.941  1.5749 -1.3969 -0.6995
  133MOL0     H18340   1.014   5.566  11.139  0.6967  0.1812  0.6219
  133MOL0     H18341   0.794   5.559  11.228 -1.9728 -2.4686 -2.8082
  133MOL0     H18342   0.635   5.564  11.466 -0.1030 -0.6019  0.6238
  133MOL0     H18343   0.557   5.487  11.326  1.8580 -2.7498 -1.8459
  133MOL0     H18344   0.521   5.426  11.627  0.7630 -0.6402 -0.1627
  133MOL0     H18345   0.459   5.322  11.499  2.4393  0.1528 -0.9980
  133MOL0     H18346   0.281   5.472  11.436 -0.6141 -0.6748  0.3181
  133MOL0     H18347   0.275   5.446  11.598 -0.8051  0.9129 -0.9289
  133MOL0     H18348   0.415   5.672  11.620 -1.2918 -4.3021  3.6748
  133MOL0     H18349   0.243   5.685  11.569  0.0867 -0.3623  1.3842
  133MOL0     H18350   0.445   5.791  11.211  2.2714  0.9707  0.9059
  133MOL0     H18351   0.919   5.252  11.500  2.0119  3.3135  3.0711
  133MOL0     H18352   1.113   5.143  11.482 -3.5183 -1.6841 -1.9802
  133MOL0     H18353   1.188   5.142  11.321  1.3060 -0.6289  1.0851
  133MOL0     H18354   1.249   5.253  11.442  0.1360  1.3856 -1.8648
  134MOL0     O18355   9.709   0.457   2.301  0.6108 -0.3930 -0.5219
  134MOL0     C18356   9.725   0.487   2.419  1.0483 -0.0948  0.8719
  134MOL0     O18357   9.845   0.522   2.475  0.0086 -0.4999 -0.3571
  134MOL0     C18358   9.950   0.516   2.390 -0.0571  0.4676  0.2115
  134MOL0     C18359   9.987   0.629   2.325 -0.7741 -0.4092 -0.3765
  134MOL0     C18360  10.107   0.630   2.256 -1.0538 -0.7579 -0.9736
  134MOL0     C18361  10.180   0.513   2.231 -0.2745  0.1391 -0.2267
  134MOL0     O18362  10.281   0.513   2.137 -0.2744  0.2090  0.0315
  134MOL0     C18363  10.350   0.386   2.122 -0.1865 -1.0120 -0.1108
  134MOL0     C18364  10.458   0.405   2.016 -0.1104  0.2118  0.5736
  134MOL0     C18365  10.559   0.523   2.040 -0.8513  0.4364 -0.4302
  134MOL0     C18366  10.679   0.528   1.936 -0.1258  0.2331 -0.8954
  134MOL0     C18367  10.737   0.669   1.924  0.0710 -0.3985  0.0158
  134MOL0     C18368  10.845   0.674   1.809 -0.2904  0.8310 -0.2756
  134MOL0     C18369  10.943   0.794   1.819 -0.0342 -0.4664  0.0445
  134MOL0     C18370  10.876   0.934   1.843  0.2651 -0.1321 -0.6094
  134MOL0     N18371  10.981   1.047   1.850  0.6504  0.1349 -0.2347
  134MOL0     C18372  11.077   1.074   1.755 -0.5381  0.3000 -0.4170
  134MOL0     C18373  11.155   1.173   1.816  0.8426 -0.0411  0.8012
  134MOL0     C18374  11.257   1.250   1.736 -0.6688 -0.0380 -0.7886
  134MOL0     C18375  11.382   1.282   1.819  0.4813  0.3494 -0.0891
  134MOL0     C18376  11.363   1.392   1.919 -0.0947  0.0825 -0.0187
  134MOL0     C18377  11.448   1.369   2.047 -0.4151 -0.3777  0.1900
  134MOL0     O18378  11.598   1.346   2.032  0.5395  0.4631  0.0626
  134MOL0     C18379  11.683   1.423   2.113  0.0983 -0.9815  0.6350
  134MOL0     C18380  11.787   1.478   2.051 -0.6738  0.6911  0.0428
  134MOL0     C18381  11.888   1.545   2.125  0.3380 -0.3037 -0.1673
  134MOL0     C18382  12.000   1.588   2.040 -0.3322  0.5929  0.3240
  134MOL0     C18383  11.860   1.586   2.259  0.1104  0.8755 -0.0170
  134MOL0     C18384  11.948   1.675   2.335  0.1167 -0.3010  0.6405
  134MOL0     O18385  12.051   1.730   2.277 -0.1323  0.4374 -0.6502
  134MOL0     C18386  12.141   1.811   2.340 -0.3238 -0.0536  0.4041
  134MOL0     C18387  12.182   1.826   2.476  0.3682  0.6186  1.4303
  134MOL0     C18388  12.282   1.913   2.522  0.3108  0.6164  1.0188
  134MOL0     C18389  12.352   1.994   2.433 -1.5584  0.2275  0.3335
  134MOL0     O18390  12.456   2.072   2.471 -0.2053 -0.6125  0.7983
  134MOL0     C18391  12.480   2.102   2.610 -1.1518  0.1913 -0.4156
  134MOL0     C18392  12.580   2.215   2.612  0.0866 -0.1291  1.1806
  134MOL0     C18393  12.727   2.178   2.620 -0.5068 -0.1647  0.1281
  134MOL0     C18394  12.765   2.145   2.758 -0.1732  0.7409 -0.6478
  134MOL0     C18395  12.913   2.102   2.760  0.0410 -0.4367 -0.5303
  134MOL0     C18396  12.937   1.960   2.694  0.1023 -0.6354 -0.7722
  134MOL0     C18397  13.054   1.891   2.769  0.4799 -0.3562  0.4427
  134MOL0     C18398  13.097   1.766   2.703  1.1805 -0.1488  0.8226
  134MOL0    Cl18399  12.956   1.651   2.700 -0.1146 -0.3168  0.0255
  134MOL0     C18400  12.311   1.990   2.298  0.2000  0.4764 -1.4144
  134MOL0     C18401  12.212   1.898   2.252 -0.4207 -0.2874  0.4819
  134MOL0     O18402  11.925   1.686   2.456  0.7889 -0.2361  0.3702
  134MOL0     C18403  11.753   1.519   2.321  0.6208  0.3396  0.7549
  134MOL0     C18404  11.663   1.442   2.247 -0.4335  0.2611 -0.7705
  134MOL0     N18405  11.101   1.203   1.934 -0.0700 -0.7546  0.2238
  134MOL0     N18406  10.993   1.135   1.958 -0.6834 -0.4010  0.2813
  134MOL0     C18407  10.137   0.393   2.293  0.2344  0.1050  0.2506
  134MOL0     C18408  10.023   0.394   2.374  0.5336 -0.5568 -0.2146
  134MOL0     C18409   9.594   0.502   2.491 -0.8525  0.5580 -0.5435
  134MOL0     C18410   9.584   0.447   2.620  0.1560  0.2768  0.3191
  134MOL0     C18411   9.465   0.456   2.696 -0.3490  0.5839 -0.2451
  134MOL0     C18412   9.360   0.539   2.655 -0.9937  0.2647 -0.1901
  134MOL0     O18413   9.253   0.579   2.729 -0.3612  0.3820 -0.1077
  134MOL0     C18414   9.220   0.507   2.853  0.8656 -1.1679 -0.1797
  134MOL0     C18415   9.085   0.554   2.911 -0.2926 -0.1775  0.1703
  134MOL0     C18416   8.980   0.554   2.796  0.6480 -0.7376  0.4148
  134MOL0     C18417   8.842   0.600   2.842 -0.3408  0.2658  0.5862
  134MOL0     C18418   8.753   0.586   2.722  0.3099  0.1934  0.3457
  134MOL0     C18419   8.686   0.558   2.620  0.5298  0.5248  0.4634
  134MOL0     C18420   9.370   0.587   2.525  0.6372 -0.1306  0.1246
  134MOL0     C18421   9.487   0.586   2.454 -0.3780  0.2398  0.2943
  134MOL0     C18422   9.496   0.681   2.335 -0.0602 -0.4965  0.8505
  134MOL0     H18423   9.920   0.714   2.334 -1.0899 -0.6854 -0.1131
  134MOL0     H18424  10.139   0.720   2.206 -0.8447  0.5591  1.3913
  134MOL0     H18425  10.282   0.305   2.093 -2.7958  0.1379  2.3395
  134MOL0     H18426  10.405   0.364   2.214  2.4147  1.8249 -0.7935
  134MOL0     H18427  10.505   0.308   1.997  2.4293  1.1337  1.7260
  134MOL0     H18428  10.406   0.435   1.924 -1.2327 -1.6385  0.5709
  134MOL0     H18429  10.509   0.620   2.038  1.7564  1.9628  1.4638
  134MOL0     H18430  10.607   0.508   2.137 -1.2628  0.7937 -0.1680
  134MOL0     H18431  10.756   0.457   1.967 -1.2789 -0.4511  0.5037
  134MOL0     H18432  10.632   0.492   1.843  2.2517 -2.4765 -1.1877
  134MOL0     H18433  10.782   0.707   2.016 -1.1643  4.0955 -0.9585
  134MOL0     H18434  10.658   0.741   1.899 -0.3949 -1.0177 -0.3012
  134MOL0     H18435  10.908   0.585   1.812  0.4772  1.0504 -4.2468
  134MOL0     H18436  10.795   0.671   1.712 -1.1530  1.5104  0.1349
  134MOL0     H18437  11.004   0.804   1.728 -3.7858  1.0522 -2.5981
  134MOL0     H18438  10.997   0.773   1.911 -2.9470  0.1037  1.9906
  134MOL0     H18439  10.794   0.956   1.774 -1.4449 -2.3797  0.6089
  134MOL0     H18440  10.833   0.929   1.943  2.3466  0.3593  0.3702
  134MOL0     H18441  11.087   1.034   1.655 -1.0926  0.1976 -0.4314
  134MOL0     H18442  11.222   1.332   1.673  0.7875  0.0794 -1.4848
  134MOL0     H18443  11.299   1.181   1.661  0.4838  1.3220 -1.4502
  134MOL0     H18444  11.405   1.196   1.882 -0.8335  1.0283  1.4007
  134MOL0     H18445  11.478   1.299   1.770  0.3791 -0.6078 -0.6473
  134MOL0     H18446  11.389   1.488   1.874  2.6392 -0.6099 -0.0534
  134MOL0     H18447  11.258   1.404   1.947  0.0706 -1.1847  1.2609
  134MOL0     H18448  11.433   1.464   2.101  0.0108 -0.6988  0.8924
  134MOL0     H18449  11.408   1.296   2.118 -1.2269 -0.1478 -0.0143
  134MOL0     H18450  11.802   1.463   1.945 -1.6376  1.1964 -0.1748
  134MOL0     H18451  11.991   1.552   1.937  0.0085  2.1782 -0.2933
  134MOL0     H18452  12.098   1.564   2.082 -0.6166  1.8703  1.7885
  134MOL0     H18453  11.997   1.697   2.034 -0.2548  0.6250  0.8596
  134MOL0     H18454  12.142   1.763   2.555 -0.2721 -1.0204 -0.1233
  134MOL0     H18455  12.311   1.917   2.627  3.4587  1.9093  0.2180
  134MOL0     H18456  12.396   2.151   2.659  0.7753  1.6299  1.6213
  134MOL0     H18457  12.510   2.021   2.677  2.7473  1.7369 -0.0044
  134MOL0     H18458  12.573   2.281   2.525  0.2486 -1.5886  0.0201
  134MOL0     H18459  12.553   2.271   2.702  1.4978  0.2804  1.3709
  134MOL0     H18460  12.784   2.266   2.587  0.3685 -0.1545  1.5466
  134MOL0     H18461  12.741   2.095   2.551 -3.6330 -0.6108 -0.0944
  134MOL0     H18462  12.713   2.057   2.797  0.3645 -0.5161 -2.6452
  134MOL0     H18463  12.750   2.234   2.821  0.5797  0.0232  0.5827
  134MOL0     H18464  12.970   2.179   2.707  0.7437 -0.7657 -0.2745
  134MOL0     H18465  12.948   2.105   2.864 -2.1323  2.0149  0.2231
  134MOL0     H18466  12.962   1.987   2.591 -0.3583  0.4405 -0.6148
  134MOL0     H18467  12.845   1.901   2.692 -0.1613 -0.3651  1.1818
  134MOL0     H18468  13.018   1.879   2.871  0.1286  1.0161  0.4986
  134MOL0     H18469  13.139   1.957   2.790 -0.2088  0.5971  0.3025
  134MOL0     H18470  13.181   1.727   2.761  2.0109 -2.9495 -1.9893
  134MOL0     H18471  13.126   1.792   2.601 -1.0974  2.2426  0.6841
  134MOL0     H18472  12.347   2.056   2.220 -0.2334  0.5341 -1.5653
  134MOL0     H18473  12.180   1.903   2.149 -1.0364 -0.5037  0.6541
  134MOL0     H18474  11.728   1.537   2.425 -0.3521 -1.7784  0.9346
  134MOL0     H18475  11.579   1.383   2.282 -0.5682  1.0021  0.1962
  134MOL0     H18476  10.193   0.300   2.282  1.0971  0.5923  0.4774
  134MOL0     H18477   9.988   0.299   2.412  0.5238 -1.1492 -1.6550
  134MOL0     H18478   9.659   0.383   2.665 -1.3853 -1.2462  0.8717
  134MOL0     H18479   9.469   0.413   2.795  0.3719  2.7182  0.7000
  134MOL0     H18480   9.206   0.400   2.834 -2.5417 -1.1104  1.3494
  134MOL0     H18481   9.310   0.524   2.913  1.4503 -1.3005 -0.9842
  134MOL0     H18482   9.093   0.657   2.944 -2.3813  0.2416 -0.4725
  134MOL0     H18483   9.063   0.486   2.994  0.7563 -1.1146 -0.2893
  134MOL0     H18484   9.014   0.616   2.713 -0.4845  0.9611  1.1722
  134MOL0     H18485   8.971   0.452   2.757  0.9215 -0.9137  0.8134
  134MOL0     H18486   8.845   0.701   2.884  0.3620 -0.3667  2.1360
  134MOL0     H18487   8.793   0.536   2.917  0.7841 -0.9645  0.3150
  134MOL0     H18488   8.621   0.549   2.535 -0.8320 -0.5339  1.5502
  134MOL0     H18489   9.285   0.648   2.495  0.2997  0.8485  2.8227
  134MOL0     H18490   9.519   0.619   2.248 -1.2735 -1.0528  0.9099
  134MOL0     H18491   9.400   0.730   2.315  0.2013 -0.4484 -0.3545
  134MOL0     H18492   9.571   0.759   2.354 -2.1014  1.6106  0.8368
  135MOL0     O18493   8.415   9.212  10.214 -0.1070  0.9247 -0.0884
  135MOL0     C18494   8.434   9.325  10.236 -0.1937 -1.1364  0.8231
  135MOL0     O18495   8.557   9.389  10.239  0.1270  1.0450 -0.0574
  135MOL0     C18496   8.665   9.314  10.194  0.1306 -0.0757 -0.5002
  135MOL0     C18497   8.790   9.348  10.243 -0.0554 -0.4916  0.5975
  135MOL0     C18498   8.909   9.291  10.197 -0.5170 -0.0044  0.0748
  135MOL0     C18499   8.910   9.184  10.114 -0.0540  0.1186  0.1459
  135MOL0     O18500   9.027   9.111  10.088 -0.5204 -0.3275  0.6903
  135MOL0     C18501   9.028   8.990  10.010  0.3260 -0.2531 -0.1438
  135MOL0     C18502   8.956   8.866  10.071  0.1303 -0.3337 -0.7702
  135MOL0     C18503   9.024   8.802  10.197  0.0238 -0.1580  0.7492
  135MOL0     C18504   9.050   8.651  10.190  0.7502 -0.8572  0.2613
  135MOL0     C18505   9.106   8.588  10.322 -0.3144  0.3087  0.1171
  135MOL0     C18506   9.146   8.447  10.300  0.3969  0.1575  0.1627
  135MOL0     C18507   9.269   8.410  10.378 -0.3926  0.1173 -0.7140
  135MOL0     C18508   9.322   8.266  10.379 -0.3363  0.3385  0.2837
  135MOL0     N18509   9.344   8.227  10.240  0.3588  0.0255  0.4759
  135MOL0     C18510   9.265   8.147  10.156  0.2775 -0.3094  0.1453
  135MOL0     C18511   9.325   8.134  10.036 -0.1122  0.2631  0.7036
  135MOL0     C18512   9.289   8.046   9.923 -0.9172  0.3110 -0.0722
  135MOL0     C18513   9.191   8.124   9.844  0.1984  0.0706 -0.7149
  135MOL0     C18514   9.133   8.041   9.729 -0.5728 -0.4878 -0.1689
  135MOL0     C18515   9.047   8.124   9.631 -0.3876  0.1780 -0.3309
  135MOL0     O18516   9.009   8.023   9.533 -0.0789 -0.0881 -0.3780
  135MOL0     C18517   9.091   8.001   9.426 -1.0529 -0.0247  0.3713
  135MOL0     C18518   9.046   7.925   9.317  0.1421  0.4192 -0.5612
  135MOL0     C18519   9.124   7.882   9.207 -0.0872  0.0832 -0.4424
  135MOL0     C18520   9.056   7.795   9.098 -0.9828 -0.1936 -0.2937
  135MOL0     C18521   9.255   7.925   9.205 -0.5557 -0.0118 -0.8270
  135MOL0     C18522   9.357   7.895   9.104 -0.9541 -0.2370 -0.6393
  135MOL0     O18523   9.402   8.003   9.025 -0.2011 -1.3002  0.4647
  135MOL0     C18524   9.461   7.980   8.899  0.0227  0.8058  0.2373
  135MOL0     C18525   9.584   8.043   8.863  0.2012  0.3285 -0.1421
  135MOL0     C18526   9.645   8.015   8.737  0.1136  0.0591 -0.5226
  135MOL0     C18527   9.583   7.931   8.641 -0.3073 -0.2013  0.5713
  135MOL0     O18528   9.626   7.911   8.513  0.3543  0.1778 -0.2763
  135MOL0     C18529   9.754   7.966   8.471 -0.0390  0.3114 -0.1750
  135MOL0     C18530   9.761   7.962   8.320 -0.2894 -0.8657 -0.2930
  135MOL0     C18531   9.713   8.086   8.252 -0.0398 -0.4032 -1.0604
  135MOL0     C18532   9.775   8.223   8.287  0.6263  0.5269  0.8860
  135MOL0     C18533   9.912   8.230   8.224 -0.1120 -0.6885  0.1318
  135MOL0     C18534   9.983   8.351   8.283 -0.3373  0.1392 -0.0220
  135MOL0     C18535  10.125   8.358   8.219  0.1591  0.0451 -0.1380
  135MOL0     C18536  10.196   8.487   8.255  0.3304  0.5079 -0.2144
  135MOL0    Cl18537  10.252   8.475   8.422  0.1424 -0.0140 -0.3889
  135MOL0     C18538   9.464   7.870   8.682  0.4647 -0.2155  0.1144
  135MOL0     C18539   9.406   7.890   8.803  0.2434  0.6398  0.4598
  135MOL0     O18540   9.411   7.781   9.086  0.6602  0.0142 -0.3795
  135MOL0     C18541   9.305   8.005   9.314 -0.2249  0.6505  0.1778
  135MOL0     C18542   9.225   8.039   9.420 -0.2559  0.0382  0.5357
  135MOL0     N18543   9.442   8.214  10.044  0.0750  0.3147  0.4035
  135MOL0     N18544   9.450   8.263  10.162 -0.6306  0.2952  0.9701
  135MOL0     C18545   8.783   9.147  10.067  0.3527  0.3498  0.1386
  135MOL0     C18546   8.668   9.216  10.095 -0.0770 -0.7358  0.4689
  135MOL0     C18547   8.312   9.414  10.248  0.9310  0.7400 -0.3175
  135MOL0     C18548   8.319   9.534  10.314 -0.1849 -0.1215  0.2570
  135MOL0     C18549   8.215   9.625  10.328 -0.0437  0.5114 -0.0649
  135MOL0     C18550   8.086   9.588  10.283 -0.8567  0.4043  0.0805
  135MOL0     O18551   7.978   9.670  10.296  0.3059 -0.4876  0.3026
  135MOL0     C18552   7.989   9.801  10.357 -0.3654 -0.9593  0.6331
  135MOL0     C18553   7.840   9.847  10.389  0.1966  0.4569 -0.8379
  135MOL0     C18554   7.786   9.776  10.523 -0.4133  0.4598 -0.2815
  135MOL0     C18555   7.667   9.858  10.596 -0.1849  0.3372  0.3025
  135MOL0     C18556   7.592   9.774  10.685 -1.1321  0.2398  0.0363
  135MOL0     C18557   7.540   9.695  10.755  0.1881  0.1063 -0.2408
  135MOL0     C18558   8.073   9.473  10.202  0.5411 -0.7431 -1.2310
  135MOL0     C18559   8.184   9.381  10.190  0.3484 -0.4183  0.1288
  135MOL0     C18560   8.162   9.257  10.111  0.1644  0.2775 -0.3305
  135MOL0     H18561   8.790   9.428  10.317  0.4816  0.9260 -0.8710
  135MOL0     H18562   9.008   9.327  10.221 -2.1068  4.4043  1.0382
  135MOL0     H18563   9.129   8.958   9.985 -0.2540 -0.4779 -2.4217
  135MOL0     H18564   8.979   9.005   9.913 -0.8298  1.1510  0.6101
  135MOL0     H18565   8.854   8.896  10.098 -0.1392 -0.5367 -1.5492
  135MOL0     H18566   8.953   8.787   9.996 -0.1469 -0.0146 -1.0957
  135MOL0     H18567   9.126   8.842  10.208  0.7216 -1.2160 -1.3175
  135MOL0     H18568   8.966   8.831  10.285 -0.3340  3.7620 -0.5914
  135MOL0     H18569   8.956   8.596  10.179 -0.2888  1.2220 -2.2446
  135MOL0     H18570   9.102   8.627  10.097 -0.9167 -0.5528 -0.7865
  135MOL0     H18571   9.029   8.607  10.398 -0.6453  2.9528 -0.7877
  135MOL0     H18572   9.194   8.644  10.355 -0.7821  0.7051  0.7212
  135MOL0     H18573   9.067   8.381  10.335  2.1539 -1.1414  1.8989
  135MOL0     H18574   9.167   8.436  10.193 -1.1528  0.3774 -0.1847
  135MOL0     H18575   9.263   8.448  10.480 -1.2089 -2.1499  0.1621
  135MOL0     H18576   9.344   8.467  10.322  0.0919  1.1233  0.8941
  135MOL0     H18577   9.409   8.254  10.443 -0.4103  3.4651  1.1290
  135MOL0     H18578   9.238   8.208  10.418 -1.3796  1.1950 -0.6202
  135MOL0     H18579   9.180   8.094  10.198  0.6809 -0.2768  1.0418
  135MOL0     H18580   9.240   7.963   9.976  0.7359  0.5403  1.8962
  135MOL0     H18581   9.379   8.032   9.863 -0.2475  0.5096  0.8849
  135MOL0     H18582   9.101   8.141   9.904  0.1160  0.7443 -1.0169
  135MOL0     H18583   9.223   8.224   9.812 -1.5773  1.4863  1.6687
  135MOL0     H18584   9.215   8.000   9.670 -0.7498  3.5111 -3.6762
  135MOL0     H18585   9.064   7.965   9.766 -1.1639 -0.5997 -1.4369
  135MOL0     H18586   8.968   8.178   9.684  2.4236  0.9050  3.5559
  135MOL0     H18587   9.115   8.199   9.590  1.3700  0.0311  2.0996
  135MOL0     H18588   8.948   7.878   9.313 -0.6619  1.9776 -0.0022
  135MOL0     H18589   9.117   7.786   9.007 -2.3985  0.2448 -1.3294
  135MOL0     H18590   8.963   7.849   9.076 -1.8111 -0.5253  2.1763
  135MOL0     H18591   9.026   7.696   9.132 -0.8792  0.4095  1.6343
  135MOL0     H18592   9.630   8.110   8.935 -1.0804  0.9250  0.1551
  135MOL0     H18593   9.736   8.069   8.712  0.4846 -1.0219 -1.6547
  135MOL0     H18594   9.772   8.070   8.502  2.5263  0.0462 -0.5093
  135MOL0     H18595   9.832   7.903   8.514 -3.9071 -3.3825  2.1642
  135MOL0     H18596   9.861   7.947   8.279 -0.0760 -0.7848  0.1968
  135MOL0     H18597   9.707   7.874   8.285 -0.6632  0.0292 -2.1184
  135MOL0     H18598   9.611   8.100   8.290  0.1296 -0.2890 -0.6323
  135MOL0     H18599   9.722   8.064   8.146  1.9752 -0.0120 -1.0137
  135MOL0     H18600   9.762   8.239   8.395 -0.7551 -0.6363  0.9181
  135MOL0     H18601   9.727   8.309   8.239 -1.5588 -1.5414 -0.8855
  135MOL0     H18602   9.972   8.143   8.252 -0.5764 -0.7290  1.0330
  135MOL0     H18603   9.912   8.236   8.115  0.8709 -0.6533  0.1234
  135MOL0     H18604   9.979   8.353   8.392 -0.6722  1.2429 -0.0427
  135MOL0     H18605   9.929   8.438   8.243  1.5651  0.4823 -2.0408
  135MOL0     H18606  10.116   8.357   8.110  0.7981 -1.6450 -0.2053
  135MOL0     H18607  10.184   8.273   8.255  1.8410  1.6012  0.9938
  135MOL0     H18608  10.129   8.573   8.247  1.7234  1.5035 -1.9359
  135MOL0     H18609  10.279   8.506   8.186 -1.0252 -1.6329 -2.6194
  135MOL0     H18610   9.422   7.799   8.612  0.4790 -0.7819  0.6753
  135MOL0     H18611   9.314   7.836   8.827 -0.0344  0.9646  0.1284
  135MOL0     H18612   9.411   8.030   9.312  0.1308 -0.7357 -1.9436
  135MOL0     H18613   9.276   8.096   9.497 -0.8247  0.9451  0.2620
  135MOL0     H18614   8.771   9.078   9.983 -0.8336  1.7343 -0.8892
  135MOL0     H18615   8.574   9.195  10.044 -1.8346 -2.4650  4.0510
  135MOL0     H18616   8.419   9.564  10.341 -0.4566  3.6357 -2.1727
  135MOL0     H18617   8.239   9.719  10.377  0.6534 -0.3614  1.3504
  135MOL0     H18618   8.052   9.799  10.447  0.0766 -2.5674  0.3251
  135MOL0     H18619   8.039   9.866  10.286 -1.8540  0.1278  0.5411
  135MOL0     H18620   7.769   9.812  10.313 -0.0997 -0.2187 -0.2650
  135MOL0     H18621   7.811   9.950  10.408 -2.2244 -0.0657 -1.3603
  135MOL0     H18622   7.751   9.681  10.483 -0.9261  1.1991 -1.6844
  135MOL0     H18623   7.860   9.777  10.603 -3.1131  0.9772  2.3677
  135MOL0     H18624   7.605   9.897  10.515  2.5380  3.2913 -0.6112
  135MOL0     H18625   7.713   9.945  10.646  0.8015  1.1533 -1.8952
  135MOL0     H18626   7.479   9.621  10.802  1.6889 -2.0081 -1.4217
  135MOL0     H18627   7.974   9.453  10.162  0.5390 -0.9524 -1.1227
  135MOL0     H18628   8.062   9.258  10.067  0.4364 -2.2104 -1.1128
  135MOL0     H18629   8.232   9.259  10.027  0.0935  1.4975 -0.3818
  135MOL0     H18630   8.175   9.169  10.174 -0.0649  0.3470 -0.1843
  136MOL0     O18631   3.900   9.744   0.005  0.0578  0.4995 -0.5473
  136MOL0     C18632   3.851   9.834  -0.066  0.4217 -1.3892 -0.8354
  136MOL0     O18633   3.922   9.950  -0.098  0.0358  0.5617  0.5986
  136MOL0     C18634   4.014  10.012  -0.021 -0.0385 -0.4494 -0.4575
  136MOL0     C18635   4.028   9.999   0.116  0.5127  0.1723 -0.7047
  136MOL0     C18636   4.113  10.079   0.197  0.2805 -0.3120  0.5133
  136MOL0     C18637   4.197  10.170   0.128 -0.3802 -0.4300 -0.8395
  136MOL0     O18638   4.300  10.238   0.192 -0.0864 -0.2275  0.0076
  136MOL0     C18639   4.396  10.158   0.267 -0.7236  0.4460 -0.1949
  136MOL0     C18640   4.501  10.246   0.325 -0.5006  0.2748 -0.5009
  136MOL0     C18641   4.609  10.292   0.233  0.2174  0.0003  0.3438
  136MOL0     C18642   4.691  10.413   0.292  0.1818 -0.3503  0.3038
  136MOL0     C18643   4.842  10.391   0.270  0.1986 -0.2114  0.0703
  136MOL0     C18644   4.941  10.498   0.315 -1.3929  0.1400  0.4224
  136MOL0     C18645   5.091  10.461   0.293  0.1010  0.0696 -0.1992
  136MOL0     C18646   5.180  10.576   0.333  0.5344 -0.5787 -0.3897
  136MOL0     N18647   5.316  10.580   0.278  1.0863  0.5148 -0.6318
  136MOL0     C18648   5.349  10.599   0.152  0.1828 -0.8330  0.4656
  136MOL0     C18649   5.482  10.581   0.147 -0.1783  0.5204 -0.1787
  136MOL0     C18650   5.571  10.580   0.020  0.0165  0.8982 -0.1443
  136MOL0     C18651   5.568  10.721  -0.040  0.2157 -0.9975 -0.0228
  136MOL0     C18652   5.683  10.749  -0.136  0.1378  0.7314 -0.6991
  136MOL0     C18653   5.667  10.880  -0.206 -0.2349  0.3594 -0.9222
  136MOL0     O18654   5.778  10.958  -0.152  0.3043 -0.2270  0.5659
  136MOL0     C18655   5.912  10.925  -0.184 -0.9776  0.5678 -0.0968
  136MOL0     C18656   6.009  10.986  -0.100  0.6840  0.2394  0.8909
  136MOL0     C18657   6.140  10.960  -0.123  0.3966 -0.2715 -0.2069
  136MOL0     C18658   6.233  11.036  -0.036  0.2727 -0.2285 -0.1319
  136MOL0     C18659   6.184  10.869  -0.228  0.3955 -1.2455 -0.1777
  136MOL0     C18660   6.327  10.822  -0.249 -0.5837  0.0697  0.5565
  136MOL0     O18661   6.358  10.765  -0.369 -0.5165  0.9435  0.6624
  136MOL0     C18662   6.466  10.683  -0.391 -0.2298 -0.6931  0.9930
  136MOL0     C18663   6.482  10.657  -0.529  0.3374  0.3186  0.5230
  136MOL0     C18664   6.588  10.591  -0.576 -0.2939  0.7169  0.0960
  136MOL0     C18665   6.690  10.549  -0.487  0.2570 -0.0182 -0.3372
  136MOL0     O18666   6.812  10.511  -0.542 -0.1195  0.1421  0.0604
  136MOL0     C18667   6.926  10.497  -0.468  0.1118  0.3904  0.2000
  136MOL0     C18668   7.032  10.425  -0.555 -0.2141  0.2683 -0.3477
  136MOL0     C18669   7.155  10.373  -0.478 -0.4769  0.0438 -0.5708
  136MOL0     C18670   7.258  10.484  -0.453  0.2446  0.1734 -0.3033
  136MOL0     C18671   7.372  10.421  -0.360 -0.0948  0.3197  0.5255
  136MOL0     C18672   7.465  10.539  -0.331  0.9723 -0.8066 -0.3390
  136MOL0     C18673   7.567  10.488  -0.228 -0.3795 -0.7606 -0.9608
  136MOL0     C18674   7.650  10.592  -0.151 -1.0076  0.7752 -0.1856
  136MOL0    Cl18675   7.542  10.692  -0.057 -0.1608  0.8081 -0.1424
  136MOL0     C18676   6.674  10.575  -0.351 -0.1851  0.0847 -0.2003
  136MOL0     C18677   6.560  10.635  -0.301  0.2945  0.7314 -0.5652
  136MOL0     O18678   6.408  10.850  -0.165  0.2840  0.4079 -0.5343
  136MOL0     C18679   6.085  10.814  -0.309  0.6293 -0.1913 -0.0059
  136MOL0     C18680   5.950  10.831  -0.283 -0.2160 -0.2962  0.4762
  136MOL0     N18681   5.532  10.571   0.275 -0.5044 -0.4772 -0.9556
  136MOL0     N18682   5.430  10.559   0.355  0.1273 -0.4832  0.6494
  136MOL0     C18683   4.172  10.195  -0.008 -0.8661 -0.0588  0.5813
  136MOL0     C18684   4.090  10.112  -0.087  0.2921  0.8141  0.6292
  136MOL0     C18685   3.707   9.832  -0.114  0.5277 -0.6403 -0.4325
  136MOL0     C18686   3.660   9.930  -0.205 -0.6886  0.7140  0.2489
  136MOL0     C18687   3.529   9.923  -0.250  0.0709 -0.2533 -0.1036
  136MOL0     C18688   3.435   9.829  -0.209  0.5168 -0.8443 -0.6301
  136MOL0     O18689   3.319   9.814  -0.268 -0.8699  0.3141  0.2093
  136MOL0     C18690   3.243   9.935  -0.301  0.0954 -0.3409 -0.5076
  136MOL0     C18691   3.094   9.894  -0.301 -0.2092 -0.4212 -0.2503
  136MOL0     C18692   3.066   9.758  -0.364  0.0210 -0.0851  0.5431
  136MOL0     C18693   2.913   9.735  -0.373 -0.5671 -0.4907 -0.2944
  136MOL0     C18694   2.889   9.597  -0.392 -0.7872 -0.3944  0.3103
  136MOL0     C18695   2.875   9.481  -0.426  0.5094 -0.3634 -0.2990
  136MOL0     C18696   3.484   9.729  -0.130  0.4855 -1.2527  0.7678
  136MOL0     C18697   3.615   9.729  -0.078  0.5887 -0.0816 -0.3088
  136MOL0     C18698   3.650   9.603  -0.000  0.2456 -0.0883 -0.4548
  136MOL0     H18699   3.965   9.929   0.168 -0.3932  1.4795  0.0157
  136MOL0     H18700   4.120  10.059   0.303  2.1365  1.1234  0.6992
  136MOL0     H18701   4.449  10.080   0.212  0.4419 -1.0997  2.8723
  136MOL0     H18702   4.345  10.101   0.346 -0.3348 -1.9631 -1.5741
  136MOL0     H18703   4.451  10.335   0.366 -1.6128 -0.6942  0.3246
  136MOL0     H18704   4.553  10.188   0.402  0.0862 -0.0951 -1.1617
  136MOL0     H18705   4.681  10.215   0.202  2.2526  1.9829 -0.0758
  136MOL0     H18706   4.567  10.311   0.134  2.1783  2.1201 -0.1638
  136MOL0     H18707   4.678  10.506   0.237  0.4780 -2.0658 -2.8797
  136MOL0     H18708   4.678  10.435   0.399 -0.4199 -2.2254  0.6666
  136MOL0     H18709   4.856  10.380   0.162 -1.6121  0.5906 -0.2764
  136MOL0     H18710   4.865  10.298   0.322  1.8160  1.2113  2.0737
  136MOL0     H18711   4.926  10.593   0.262  2.4942  0.2973 -0.6880
  136MOL0     H18712   4.927  10.505   0.423 -1.9507 -0.0412  0.3665
  136MOL0     H18713   5.115  10.436   0.189  1.1662 -2.9255  0.6460
  136MOL0     H18714   5.124  10.371   0.347  0.4946  0.0062 -0.5375
  136MOL0     H18715   5.126  10.663   0.295  3.0740  2.1555  1.8006
  136MOL0     H18716   5.200  10.587   0.440  0.3151 -1.7163 -0.2177
  136MOL0     H18717   5.287  10.606   0.063  0.8439  0.9627  0.1123
  136MOL0     H18718   5.528  10.511  -0.053  0.7387  2.1375 -1.8183
  136MOL0     H18719   5.672  10.543   0.041  0.3078  0.3664 -2.2383
  136MOL0     H18720   5.481  10.731  -0.106  2.7952  0.2910 -3.5873
  136MOL0     H18721   5.575  10.799   0.037  1.1126 -0.5851 -0.4990
  136MOL0     H18722   5.777  10.737  -0.081 -0.3354  0.1049 -0.0008
  136MOL0     H18723   5.676  10.672  -0.212 -1.5105  1.1955 -1.0432
  136MOL0     H18724   5.660  10.873  -0.315 -4.7738 -1.5911 -0.7327
  136MOL0     H18725   5.569  10.923  -0.183  0.9153  1.9174  1.5211
  136MOL0     H18726   5.972  11.055  -0.025 -0.6255  0.1198  0.3702
  136MOL0     H18727   6.274  10.963   0.035 -3.1494 -1.0692  1.2042
  136MOL0     H18728   6.187  11.109   0.031  2.6520 -0.1750  1.5857
  136MOL0     H18729   6.314  11.082  -0.092  0.1481 -0.6769 -0.6859
  136MOL0     H18730   6.414  10.684  -0.609  0.0747  0.1209  0.6777
  136MOL0     H18731   6.611  10.589  -0.682  0.8964 -0.9506  0.3375
  136MOL0     H18732   6.972  10.594  -0.446  2.2327 -0.3653 -0.6705
  136MOL0     H18733   6.913  10.440  -0.375  0.5752 -0.1034 -0.0347
  136MOL0     H18734   6.983  10.343  -0.608 -1.1738  0.3814  0.3360
  136MOL0     H18735   7.061  10.495  -0.635 -0.9521  1.6454  0.5425
  136MOL0     H18736   7.203  10.308  -0.552 -1.8704  1.0670 -2.4616
  136MOL0     H18737   7.123  10.323  -0.387 -1.2221 -2.9163 -2.3418
  136MOL0     H18738   7.202  10.564  -0.404  1.0473  0.9907 -0.6861
  136MOL0     H18739   7.298  10.520  -0.548 -2.6974  0.7007 -1.4270
  136MOL0     H18740   7.332  10.377  -0.268  0.5517  0.4369  0.8662
  136MOL0     H18741   7.424  10.348  -0.422  1.8443 -1.7971  4.2857
  136MOL0     H18742   7.403  10.621  -0.296  1.2757  0.8892 -3.4131
  136MOL0     H18743   7.512  10.569  -0.425  2.0916 -1.8753 -0.1569
  136MOL0     H18744   7.634  10.411  -0.268 -0.4664 -2.2832  1.6531
  136MOL0     H18745   7.507  10.445  -0.148  2.4295 -2.3043  0.4562
  136MOL0     H18746   7.715  10.655  -0.211 -1.5716 -0.3501 -2.0412
  136MOL0     H18747   7.714  10.545  -0.075  0.2252  1.9177 -0.4760
  136MOL0     H18748   6.749  10.539  -0.281 -0.1757 -1.2602 -0.8640
  136MOL0     H18749   6.551  10.658  -0.195 -1.2812 -2.0548 -0.0055
  136MOL0     H18750   6.117  10.758  -0.396 -0.0638 -1.0617  0.2884
  136MOL0     H18751   5.871  10.780  -0.338  1.8941  0.0860 -3.2393
  136MOL0     H18752   4.218  10.276  -0.063 -1.8513  0.2218  0.1468
  136MOL0     H18753   4.087  10.116  -0.196  0.2494 -1.2778  0.5216
  136MOL0     H18754   3.731  10.001  -0.246 -0.4945  0.4976  0.2103
  136MOL0     H18755   3.508  10.005  -0.318  1.5477  2.3583  2.3432
  136MOL0     H18756   3.265  10.015  -0.230  0.9555 -0.3001 -0.8006
  136MOL0     H18757   3.270   9.967  -0.402  1.0008  0.5220 -0.0129
  136MOL0     H18758   3.033   9.973  -0.344  0.8969 -0.9092 -2.8967
  136MOL0     H18759   3.069   9.885  -0.195  2.2790 -0.1031  0.4349
  136MOL0     H18760   3.095   9.778  -0.468 -1.3237  1.7737  0.4604
  136MOL0     H18761   3.116   9.679  -0.308 -3.0636 -1.6452  1.3062
  136MOL0     H18762   2.860   9.794  -0.448 -1.3865  0.3250  0.8753
  136MOL0     H18763   2.870   9.764  -0.277 -1.7680  0.9659 -1.2284
  136MOL0     H18764   2.851   9.387  -0.469  0.8672  0.5122 -2.5135
  136MOL0     H18765   3.411   9.651  -0.111 -3.2748  1.6614 -0.4164
  136MOL0     H18766   3.701   9.626   0.093  2.2624 -2.5764 -0.8493
  136MOL0     H18767   3.561   9.545   0.027 -0.1935  0.5904 -0.4213
  136MOL0     H18768   3.705   9.541  -0.072 -1.0227  0.7137 -2.2101
  137MOL0     O18769   6.657   3.325  11.135 -0.2465  0.3652  0.4316
  137MOL0     C18770   6.751   3.319  11.212  0.1749  0.1400 -0.6590
  137MOL0     O18771   6.876   3.298  11.185 -0.1714  0.2290 -0.1251
  137MOL0     C18772   6.918   3.251  11.061  0.0549  0.4036 -0.1474
  137MOL0     C18773   7.020   3.150  11.060  0.1187 -0.6234  1.1319
  137MOL0     C18774   7.076   3.099  10.941  0.2047 -0.1510  0.1196
  137MOL0     C18775   7.036   3.147  10.820 -0.2161 -0.2867 -0.9358
  137MOL0     O18776   7.083   3.084  10.712 -0.6660 -0.6601  0.5300
  137MOL0     C18777   7.043   3.141  10.584 -0.5523  0.4781  0.4139
  137MOL0     C18778   7.095   3.042  10.473  0.0450  0.0851 -0.4377
  137MOL0     C18779   7.060   2.894  10.509  0.0050 -0.3541  0.2227
  137MOL0     C18780   7.069   2.814  10.373 -0.6414 -0.1283 -0.5601
  137MOL0     C18781   7.208   2.775  10.342 -0.9419 -0.6084 -0.2161
  137MOL0     C18782   7.294   2.882  10.274  0.2024  0.3312  0.4117
  137MOL0     C18783   7.389   2.834  10.165  0.5527  0.2625  0.0050
  137MOL0     C18784   7.452   2.959  10.093  0.0559 -0.4115 -0.8940
  137MOL0     N18785   7.500   3.056  10.196  0.1937 -0.3658 -0.6501
  137MOL0     C18786   7.580   3.028  10.303  0.4546 -0.9482  0.4765
  137MOL0     C18787   7.586   3.143  10.380 -0.0747 -0.1347  0.2198
  137MOL0     C18788   7.649   3.175  10.514  0.0484  0.1219 -0.2895
  137MOL0     C18789   7.667   3.038  10.584  0.9503  0.3084 -0.3686
  137MOL0     C18790   7.529   2.965  10.625 -1.2125 -0.2900 -0.7882
  137MOL0     C18791   7.451   3.051  10.721  0.5432 -0.0435 -0.4121
  137MOL0     O18792   7.418   2.973  10.834  0.3569  0.2424 -0.0124
  137MOL0     C18793   7.506   2.985  10.941  0.1343 -0.2906 -0.9360
  137MOL0     C18794   7.451   3.028  11.064 -0.2017 -0.0222 -0.8025
  137MOL0     C18795   7.520   3.006  11.187  0.8403 -0.5715 -0.2966
  137MOL0     C18796   7.440   3.044  11.315  0.3197 -0.5177  0.3618
  137MOL0     C18797   7.653   2.952  11.193 -0.2344 -0.1876 -0.9715
  137MOL0     C18798   7.732   2.929  11.317 -0.4247 -0.3121  0.1986
  137MOL0     O18799   7.866   2.927  11.303  0.4687 -0.0745  0.7262
  137MOL0     C18800   7.935   2.891  11.416 -0.2400  1.1663  0.1812
  137MOL0     C18801   8.007   2.983  11.481  0.3855  0.1739 -0.2325
  137MOL0     C18802   8.080   2.951  11.597  0.5727 -0.1224  0.5566
  137MOL0     C18803   8.072   2.817  11.650 -0.2247  0.7273 -0.2305
  137MOL0     O18804   8.138   2.770  11.762 -0.3046 -0.0176  0.5993
  137MOL0     C18805   8.161   2.890  11.845 -0.3590  1.0344  0.8457
  137MOL0     C18806   8.211   2.838  11.979 -0.0027  0.0849  0.4913
  137MOL0     C18807   8.085   2.789  12.055 -0.2286  0.0056  0.8412
  137MOL0     C18808   8.103   2.748  12.197 -0.3153 -0.6022 -0.5030
  137MOL0     C18809   8.189   2.848  12.284  0.0811 -0.3241 -0.2935
  137MOL0     C18810   8.203   2.788  12.426 -0.4519  0.2695  0.5801
  137MOL0     C18811   8.239   2.903  12.526 -0.0879 -0.7192 -0.7274
  137MOL0     C18812   8.383   2.969  12.518  0.0908  0.5341  0.3259
  137MOL0    Cl18813   8.503   2.857  12.546 -0.1735 -0.6073 -0.3905
  137MOL0     C18814   8.011   2.721  11.578  0.6492  0.3947 -0.0498
  137MOL0     C18815   7.942   2.757  11.467  0.4806 -0.1823 -0.4367
  137MOL0     O18816   7.677   2.929  11.426  0.8118  0.2386 -0.1370
  137MOL0     C18817   7.709   2.912  11.072  0.3891 -0.7214 -0.4946
  137MOL0     C18818   7.635   2.924  10.953 -0.9153  0.8443  0.7240
  137MOL0     N18819   7.508   3.240  10.313  0.0857  0.0149 -0.3450
  137MOL0     N18820   7.457   3.187  10.213  0.3288 -0.1137  0.2974
  137MOL0     C18821   6.937   3.252  10.817 -0.5947 -0.8452  0.1393
  137MOL0     C18822   6.877   3.299  10.935  0.7447  0.0016  0.1377
  137MOL0     C18823   6.717   3.334  11.357  0.5278 -0.5549 -0.0336
  137MOL0     C18824   6.807   3.290  11.454  0.0622  0.6137 -0.4377
  137MOL0     C18825   6.779   3.269  11.589 -0.3998 -0.4144  0.1698
  137MOL0     C18826   6.651   3.294  11.635 -0.4430  0.9387 -0.4126
  137MOL0     O18827   6.607   3.275  11.759 -0.0334  0.3365 -0.8657
  137MOL0     C18828   6.644   3.149  11.826 -0.2089  0.2545  0.3370
  137MOL0     C18829   6.700   3.141  11.968 -0.4293  0.0310  0.5790
  137MOL0     C18830   6.833   3.213  11.955  0.4231  0.1823  0.1214
  137MOL0     C18831   6.896   3.230  12.093  0.2196 -0.2989 -0.8109
  137MOL0     C18832   7.035   3.285  12.086  0.1605  0.6399 -0.0103
  137MOL0     C18833   7.145   3.331  12.087  0.4088 -0.5642 -0.8180
  137MOL0     C18834   6.563   3.359  11.550  0.2706 -0.6404 -0.3306
  137MOL0     C18835   6.594   3.392  11.416 -0.2536 -0.3565  0.2722
  137MOL0     C18836   6.484   3.466  11.340  1.2716  0.2680  0.1366
  137MOL0     H18837   7.067   3.114  11.151 -0.4152 -1.2331  1.1714
  137MOL0     H18838   7.152   3.022  10.941  0.8490  0.4601  1.4468
  137MOL0     H18839   7.090   3.238  10.569 -0.8251  0.4475 -0.7059
  137MOL0     H18840   6.935   3.150  10.571 -0.4344  2.0665  0.3808
  137MOL0     H18841   7.060   3.088  10.381  0.5568  1.7134  0.1523
  137MOL0     H18842   7.203   3.059  10.473  0.1055  0.0523 -3.0126
  137MOL0     H18843   7.129   2.848  10.580 -0.0024  0.5796  0.8575
  137MOL0     H18844   6.961   2.883  10.555  0.0196 -0.7550  0.1572
  137MOL0     H18845   7.011   2.721  10.377 -0.1261 -0.6343 -3.0627
  137MOL0     H18846   7.024   2.873  10.292 -1.7492 -2.0870 -1.4331
  137MOL0     H18847   7.201   2.691  10.271  0.7340  1.9526 -3.7201
  137MOL0     H18848   7.260   2.733  10.429  0.7676  0.5097 -0.6594
  137MOL0     H18849   7.231   2.953  10.219  3.9150  2.6396 -1.3447
  137MOL0     H18850   7.335   2.954  10.346  1.1317  1.1101 -0.8419
  137MOL0     H18851   7.346   2.764  10.092  2.0999  0.0068 -0.6932
  137MOL0     H18852   7.466   2.785  10.224  0.2652  0.6103  0.6842
  137MOL0     H18853   7.538   2.925  10.035 -0.2797  0.4052 -1.9088
  137MOL0     H18854   7.382   3.002  10.020  0.6426  0.6286 -0.8575
  137MOL0     H18855   7.623   2.930  10.323 -2.0936 -1.9604  1.4043
  137MOL0     H18856   7.575   3.236  10.566  1.4740 -0.5694  2.7460
  137MOL0     H18857   7.744   3.225  10.496 -0.0670 -0.1748 -1.8884
  137MOL0     H18858   7.733   2.984  10.516  3.1308  1.3085  0.8738
  137MOL0     H18859   7.730   3.040  10.673  2.1888  4.2658 -1.1625
  137MOL0     H18860   7.473   2.955  10.532 -1.8327 -1.2984 -0.3225
  137MOL0     H18861   7.560   2.868  10.665  3.1984  1.6737  1.2659
  137MOL0     H18862   7.505   3.144  10.743  0.2005  0.2261 -0.6886
  137MOL0     H18863   7.368   3.091  10.662  1.4999  0.1016 -1.6875
  137MOL0     H18864   7.348   3.061  11.069 -0.1562  0.4773 -2.4093
  137MOL0     H18865   7.514   3.109  11.363  0.0291 -0.3229  0.5489
  137MOL0     H18866   7.418   2.961  11.384  3.5778  0.0459  2.2790
  137MOL0     H18867   7.356   3.111  11.294 -0.0826 -1.3448 -0.7727
  137MOL0     H18868   8.011   3.083  11.439 -0.7250  0.0510 -0.6717
  137MOL0     H18869   8.136   3.031  11.644  2.1927 -0.4030 -0.7977
  137MOL0     H18870   8.237   2.961  11.809  0.2036  0.7281  1.4127
  137MOL0     H18871   8.072   2.945  11.876 -1.5688 -0.7925  0.7618
  137MOL0     H18872   8.275   2.752  11.960 -0.2973  0.5322 -3.2322
  137MOL0     H18873   8.256   2.925  12.027 -1.0634  1.1421 -0.3645
  137MOL0     H18874   8.061   2.690  12.014  0.3793  0.5950 -1.0215
  137MOL0     H18875   7.993   2.848  12.049  0.1379  0.4458 -0.9488
  137MOL0     H18876   8.155   2.652  12.199 -0.7725 -0.8512 -0.3964
  137MOL0     H18877   8.010   2.747  12.256  1.3924 -1.5507  2.4073
  137MOL0     H18878   8.290   2.868  12.247  0.3295  1.5581  1.2273
  137MOL0     H18879   8.146   2.949  12.287  1.3591  0.2191  0.6360
  137MOL0     H18880   8.283   2.714  12.429  0.2171  0.8844 -1.0070
  137MOL0     H18881   8.114   2.743  12.471  0.4319  0.4931  2.6821
  137MOL0     H18882   8.249   2.856  12.625  2.5315 -1.8743 -1.4635
  137MOL0     H18883   8.163   2.981  12.519  0.0038 -0.5538 -0.0096
  137MOL0     H18884   8.398   3.055  12.583  1.6602  3.0012 -2.9942
  137MOL0     H18885   8.407   2.997  12.415 -0.0244 -2.7862 -0.7321
  137MOL0     H18886   8.000   2.618  11.613 -5.0352  1.0196  0.9152
  137MOL0     H18887   7.883   2.691  11.406 -0.2561 -0.3414  0.4180
  137MOL0     H18888   7.801   2.854  11.077 -0.4580 -2.1907 -1.2992
  137MOL0     H18889   7.688   2.898  10.862  0.6531  0.9028  1.5875
  137MOL0     H18890   6.898   3.287  10.722  1.2536 -0.5082 -0.5229
  137MOL0     H18891   6.798   3.373  10.938  0.0051 -0.8017  1.8188
  137MOL0     H18892   6.907   3.261  11.423  0.2857 -1.0124  1.6455
  137MOL0     H18893   6.854   3.218  11.648 -2.0966 -2.3498  0.7851
  137MOL0     H18894   6.548   3.096  11.823  0.5051 -1.2101  1.7878
  137MOL0     H18895   6.714   3.094  11.763  1.1104  0.8680  1.2248
  137MOL0     H18896   6.713   3.035  11.993  0.6538 -0.5881 -2.1922
  137MOL0     H18897   6.634   3.192  12.039 -1.3029  3.2148 -2.2614
  137MOL0     H18898   6.898   3.145  11.899  0.8091  0.3136  0.4038
  137MOL0     H18899   6.828   3.310  11.905  2.3967  1.6652  2.5124
  137MOL0     H18900   6.892   3.129  12.135  0.9366 -1.4482 -3.3139
  137MOL0     H18901   6.833   3.301  12.148 -1.2554 -0.3942 -2.2981
  137MOL0     H18902   7.239   3.383  12.090 -0.5676  1.5938 -3.1673
  137MOL0     H18903   6.477   3.399  11.602  2.1110  1.9884  0.9104
  137MOL0     H18904   6.403   3.491  11.410  0.4064  0.0529 -0.7682
  137MOL0     H18905   6.526   3.555  11.294  0.2854  0.8365  0.3131
  137MOL0     H18906   6.454   3.395  11.262  2.5386  1.5100 -1.5487
  138MOL0     O18907   9.949   7.671   6.347  0.3106 -0.7130  0.0298
  138MOL0     C18908   9.911   7.751   6.431  0.2011 -0.5980 -1.1745
  138MOL0     O18909   9.986   7.857   6.489 -0.4359 -0.0807 -0.9862
  138MOL0     C18910  10.107   7.882   6.429 -0.2289  0.3086 -0.4859
  138MOL0     C18911  10.125   7.941   6.298  0.5652 -0.0138  1.2651
  138MOL0     C18912  10.253   7.971   6.251  1.3055 -1.0771  0.2296
  138MOL0     C18913  10.363   7.962   6.330 -0.2812  0.1124 -0.8201
  138MOL0     O18914  10.480   8.000   6.277  0.1895  0.1915 -0.1821
  138MOL0     C18915  10.588   7.987   6.364  0.6756 -1.2153  0.5296
  138MOL0     C18916  10.719   8.019   6.300 -0.6256 -0.5521  0.1567
  138MOL0     C18917  10.733   8.172   6.292 -0.4738 -0.2889 -0.0938
  138MOL0     C18918  10.878   8.213   6.255  0.6862  0.1988 -0.1185
  138MOL0     C18919  10.890   8.209   6.102  0.4179 -0.8365  0.1057
  138MOL0     C18920  11.026   8.255   6.044 -0.0567 -0.0044  0.2472
  138MOL0     C18921  10.993   8.295   5.903 -0.1437 -0.3696 -0.0804
  138MOL0     C18922  11.112   8.322   5.814  0.3739  0.5779  0.2180
  138MOL0     N18923  11.072   8.314   5.670 -0.6387  0.1759  0.7558
  138MOL0     C18924  11.042   8.197   5.599 -0.2692 -0.6234 -0.1018
  138MOL0     C18925  11.012   8.239   5.469 -0.0315 -0.7930 -0.3096
  138MOL0     C18926  10.973   8.155   5.356  0.1772 -0.2154  0.2742
  138MOL0     C18927  11.099   8.089   5.297  1.0270  0.6722 -0.0703
  138MOL0     C18928  11.170   7.998   5.390 -0.5961  0.4306  0.9433
  138MOL0     C18929  11.233   7.873   5.328 -0.0570  0.1544 -0.1811
  138MOL0     O18930  11.333   7.902   5.229 -0.0747 -0.1410 -0.0573
  138MOL0     C18931  11.441   7.818   5.228  0.4650  0.6743 -0.3344
  138MOL0     C18932  11.497   7.744   5.338  0.5037 -0.0512  0.9178
  138MOL0     C18933  11.614   7.669   5.334  0.3497 -0.0965 -0.0782
  138MOL0     C18934  11.656   7.577   5.454  0.0014 -0.3519  0.0602
  138MOL0     C18935  11.700   7.685   5.224 -0.9472 -0.1366 -0.1958
  138MOL0     C18936  11.842   7.623   5.216  0.2831  0.7588  0.1887
  138MOL0     O18937  11.901   7.644   5.094  0.1256  0.5945 -0.4598
  138MOL0     C18938  12.033   7.615   5.064  1.0079 -0.2718 -0.6812
  138MOL0     C18939  12.098   7.492   5.095  0.5240 -0.6185 -0.3445
  138MOL0     C18940  12.221   7.460   5.035  0.0480 -0.2610 -0.1099
  138MOL0     C18941  12.274   7.548   4.938  0.5522 -0.1217 -0.3882
  138MOL0     O18942  12.389   7.535   4.863  0.1425 -0.3023 -0.2460
  138MOL0     C18943  12.471   7.426   4.904 -0.2915 -0.2725 -0.8729
  138MOL0     C18944  12.605   7.456   4.835 -0.7014 -0.5210 -0.2922
  138MOL0     C18945  12.710   7.363   4.899 -0.8691  0.4232  0.7009
  138MOL0     C18946  12.848   7.400   4.840  0.7767 -1.0047 -0.3672
  138MOL0     C18947  12.946   7.288   4.872 -0.4661  0.2065 -0.0363
  138MOL0     C18948  13.081   7.311   4.812 -0.0205  0.4426  0.5137
  138MOL0     C18949  13.153   7.421   4.894 -0.0168 -0.4215  0.1348
  138MOL0     C18950  13.284   7.451   4.841 -1.1722 -0.9927 -0.8778
  138MOL0    Cl18951  13.374   7.297   4.795  0.0150 -0.0126 -0.2035
  138MOL0     C18952  12.211   7.671   4.918 -0.4937 -0.6579  0.0723
  138MOL0     C18953  12.089   7.702   4.980 -0.2779 -0.2324  0.2776
  138MOL0     O18954  11.893   7.562   5.310 -1.0187  0.5012 -0.0660
  138MOL0     C18955  11.655   7.760   5.117  1.0648  0.0759  0.3126
  138MOL0     C18956  11.524   7.822   5.124 -0.2616 -0.0990 -0.0119
  138MOL0     N18957  11.031   8.380   5.464 -0.2844  0.7925  0.4561
  138MOL0     N18958  11.059   8.424   5.584  0.5044  0.0129 -0.5861
  138MOL0     C18959  10.345   7.924   6.466  0.1709 -0.5597 -0.4107
  138MOL0     C18960  10.224   7.869   6.509 -0.7998  0.0997 -0.2387
  138MOL0     C18961   9.776   7.712   6.488 -0.2744 -1.0612  0.2349
  138MOL0     C18962   9.690   7.631   6.413 -0.2890  0.7078  0.0813
  138MOL0     C18963   9.565   7.581   6.459 -1.2908  0.2388 -0.1718
  138MOL0     C18964   9.513   7.626   6.584 -0.3575 -0.4330 -1.1222
  138MOL0     O18965   9.396   7.579   6.639 -0.1219  0.2138 -0.0538
  138MOL0     C18966   9.267   7.623   6.578  0.0339  0.4031  0.6965
  138MOL0     C18967   9.229   7.566   6.437  0.3751  0.1832  0.6650
  138MOL0     C18968   9.216   7.417   6.438  0.0767  0.0396  0.2823
  138MOL0     C18969   9.149   7.348   6.564  0.8429 -0.2686 -0.6797
  138MOL0     C18970   9.015   7.410   6.581  0.6761  0.1009  0.0339
  138MOL0     C18971   8.902   7.455   6.591  0.0535 -0.2183  0.4833
  138MOL0     C18972   9.587   7.720   6.657 -0.4518 -0.2155  0.2643
  138MOL0     C18973   9.723   7.761   6.610  1.5314 -0.4060  0.3615
  138MOL0     C18974   9.793   7.854   6.708 -0.9046 -0.7656 -0.4089
  138MOL0     H18975  10.043   7.957   6.229  0.6498 -0.9636  0.9330
  138MOL0     H18976  10.270   8.010   6.151  0.9194  1.5765  1.1306
  138MOL0     H18977  10.589   7.880   6.390  0.4433 -1.3054  0.1715
  138MOL0     H18978  10.564   8.052   6.449 -2.1882 -0.4336 -0.7568
  138MOL0     H18979  10.799   7.973   6.360 -1.0413 -3.2047 -1.2171
  138MOL0     H18980  10.722   7.986   6.196 -2.3355 -3.8610  1.0345
  138MOL0     H18981  10.663   8.221   6.224 -0.5452  1.8813  1.4364
  138MOL0     H18982  10.715   8.205   6.395 -0.1891 -1.8134  0.4735
  138MOL0     H18983  10.901   8.314   6.290 -0.7868  0.3950  0.3354
  138MOL0     H18984  10.952   8.147   6.301 -0.4125  0.0748  1.5507
  138MOL0     H18985  10.814   8.282   6.074  0.8341  0.1150  1.3598
  138MOL0     H18986  10.862   8.112   6.060  2.7729 -2.2697  1.6112
  138MOL0     H18987  11.084   8.330   6.099  1.1846 -0.9377  0.2509
  138MOL0     H18988  11.097   8.172   6.040  2.5739  2.1625 -1.8867
  138MOL0     H18989  10.938   8.389   5.914 -0.9260 -0.4171 -2.7091
  138MOL0     H18990  10.926   8.220   5.858 -2.0685  0.9084  0.5120
  138MOL0     H18991  11.156   8.420   5.833 -2.2256  2.3895 -2.2691
  138MOL0     H18992  11.191   8.249   5.831 -0.0299 -0.2435 -1.2501
  138MOL0     H18993  11.041   8.098   5.644 -3.2056 -1.4928 -1.8324
  138MOL0     H18994  10.938   8.228   5.282 -0.3099 -0.2911  0.4223
  138MOL0     H18995  10.899   8.084   5.392 -0.6500  0.9065  0.8704
  138MOL0     H18996  11.055   8.040   5.210 -2.0226 -0.0937  1.7443
  138MOL0     H18997  11.169   8.159   5.250  0.6750  2.0107  1.3006
  138MOL0     H18998  11.253   8.047   5.441  0.1178 -2.9342  3.3437
  138MOL0     H18999  11.092   7.970   5.461 -3.4650  3.6274 -0.7032
  138MOL0     H19000  11.273   7.807   5.405  0.3458  0.6247  0.0157
  138MOL0     H19001  11.156   7.820   5.271 -1.0617  3.1218 -1.8026
  138MOL0     H19002  11.452   7.741   5.437  2.1976 -0.6384  1.7112
  138MOL0     H19003  11.687   7.478   5.417  1.3643  0.1066 -0.1037
  138MOL0     H19004  11.574   7.575   5.526  1.3934  0.8846  1.7597
  138MOL0     H19005  11.742   7.624   5.503  0.5436 -1.0355 -0.2073
  138MOL0     H19006  12.057   7.420   5.166 -0.8171 -0.2036 -0.6761
  138MOL0     H19007  12.269   7.369   5.068 -0.1470  0.3869  2.1336
  138MOL0     H19008  12.488   7.420   5.012  1.3461 -0.7815 -1.1200
  138MOL0     H19009  12.432   7.329   4.875  0.7795 -2.2561  3.5534
  138MOL0     H19010  12.606   7.436   4.727 -1.4516  0.0451 -0.4144
  138MOL0     H19011  12.636   7.561   4.845 -1.2205 -0.1584 -2.1218
  138MOL0     H19012  12.692   7.257   4.876 -2.2335  0.6911  0.4710
  138MOL0     H19013  12.707   7.379   5.007 -1.8454 -1.4538  0.9943
  138MOL0     H19014  12.878   7.498   4.879 -1.5329 -0.9978  1.6358
  138MOL0     H19015  12.852   7.420   4.732  1.1179 -1.2018 -0.3917
  138MOL0     H19016  12.955   7.263   4.978  2.0785  1.5200  0.1285
  138MOL0     H19017  12.907   7.197   4.825  1.7065 -0.1371 -1.3082
  138MOL0     H19018  13.092   7.335   4.706  0.7201 -0.1284  0.4527
  138MOL0     H19019  13.131   7.214   4.826  0.2396  0.5988  0.6725
  138MOL0     H19020  13.171   7.382   4.995  0.9767 -1.2994 -0.3603
  138MOL0     H19021  13.095   7.512   4.913 -0.8186 -0.7484 -0.6672
  138MOL0     H19022  13.349   7.496   4.915 -1.5684 -1.1896 -0.4031
  138MOL0     H19023  13.277   7.516   4.753 -1.4445 -0.3428 -0.3777
  138MOL0     H19024  12.256   7.741   4.848  1.6723  1.2301  3.0962
  138MOL0     H19025  12.041   7.796   4.957  0.5378  0.0957 -0.1264
  138MOL0     H19026  11.701   7.764   5.019 -1.5524 -2.5462 -1.1895
  138MOL0     H19027  11.495   7.882   5.038  0.8559 -1.7805 -1.6677
  138MOL0     H19028  10.428   7.918   6.536  0.6659 -2.1844 -1.1019
  138MOL0     H19029  10.214   7.824   6.607  0.6924  0.7448  0.2380
  138MOL0     H19030   9.717   7.597   6.314  2.4583  0.6116  0.7946
  138MOL0     H19031   9.506   7.516   6.395 -2.0045  2.1298 -1.5517
  138MOL0     H19032   9.195   7.598   6.656 -0.1076 -0.8937  0.1773
  138MOL0     H19033   9.267   7.732   6.568 -2.6143  0.3339 -0.9013
  138MOL0     H19034   9.296   7.602   6.359 -1.1917  0.3528 -0.6669
  138MOL0     H19035   9.130   7.596   6.401  0.0750 -1.7269 -0.2408
  138MOL0     H19036   9.143   7.385   6.363 -1.3421  0.1587  1.5604
  138MOL0     H19037   9.311   7.374   6.406 -2.0961 -1.9688 -4.4872
  138MOL0     H19038   9.218   7.378   6.643 -0.1486 -0.0524  0.1273
  138MOL0     H19039   9.147   7.239   6.559  1.0318 -0.3488  0.6303
  138MOL0     H19040   8.806   7.498   6.609  0.7804  2.2323 -1.0551
  138MOL0     H19041   9.539   7.766   6.743  0.6374 -0.8382  1.2453
  138MOL0     H19042   9.774   7.824   6.811  2.7735 -2.7638 -0.1370
  138MOL0     H19043   9.901   7.841   6.717 -0.6835  1.9682  2.3852
  138MOL0     H19044   9.754   7.955   6.692 -0.5154 -0.3217  1.2680
  139MOL0     O19045   3.682   7.336  10.367 -1.4582  0.0008  0.2766
  139MOL0     C19046   3.603   7.369  10.283 -0.1952  0.1776  0.2500
  139MOL0     O19047   3.561   7.495  10.274 -0.2157  0.2776  0.1134
  139MOL0     C19048   3.615   7.583  10.367  0.2894  0.0494  0.5250
  139MOL0     C19049   3.537   7.628  10.470  0.6318  1.1641  0.5875
  139MOL0     C19050   3.575   7.724  10.564  0.2165 -0.2346 -0.2622
  139MOL0     C19051   3.701   7.781  10.551  0.7125  0.4251  0.4121
  139MOL0     O19052   3.750   7.876  10.634 -0.1280 -0.1891  0.0773
  139MOL0     C19053   3.830   7.819  10.730  0.6980  0.9865  0.8559
  139MOL0     C19054   3.976   7.783  10.695  0.5247 -0.6718  0.0634
  139MOL0     C19055   4.061   7.901  10.626  0.0570  0.4064  0.5177
  139MOL0     C19056   4.204   7.852  10.624 -0.0758 -0.6331  0.3082
  139MOL0     C19057   4.294   7.942  10.545  0.3342  0.3291  0.0541
  139MOL0     C19058   4.279   8.083  10.589  0.2099 -0.4942  0.1095
  139MOL0     C19059   4.393   8.176  10.537  0.1861 -0.0043 -0.4209
  139MOL0     C19060   4.515   8.153  10.624  0.2439  0.1052 -0.5770
  139MOL0     N19061   4.612   8.257  10.596 -0.7863 -0.0054  0.0856
  139MOL0     C19062   4.702   8.255  10.492 -0.1683 -0.5779  0.2075
  139MOL0     C19063   4.756   8.377  10.490  0.1188 -0.0227 -0.2729
  139MOL0     C19064   4.859   8.434  10.396  0.2116  0.6986 -0.5469
  139MOL0     C19065   4.913   8.577  10.436 -0.1824  0.0360  1.1089
  139MOL0     C19066   5.009   8.637  10.329 -1.0541 -0.0355 -0.3765
  139MOL0     C19067   5.153   8.578  10.324 -0.0996 -0.9164 -0.6760
  139MOL0     O19068   5.209   8.552  10.449  0.3538 -0.1659 -0.6696
  139MOL0     C19069   5.341   8.493  10.458 -0.1101  0.0956 -0.2811
  139MOL0     C19070   5.397   8.486  10.587  0.5694  0.6591 -1.1624
  139MOL0     C19071   5.534   8.460  10.615 -0.6802 -0.0203 -0.7281
  139MOL0     C19072   5.576   8.459  10.762  0.2958 -0.5777 -0.2861
  139MOL0     C19073   5.619   8.442  10.497 -0.2026 -0.0369 -0.1335
  139MOL0     C19074   5.761   8.412  10.505  0.0055  0.0866  0.6589
  139MOL0     O19075   5.808   8.316  10.420 -0.3699 -0.8222  0.6520
  139MOL0     C19076   5.923   8.257  10.449 -0.9343 -0.2590 -0.4769
  139MOL0     C19077   5.920   8.157  10.550  0.4677 -0.0346 -0.3596
  139MOL0     C19078   6.031   8.091  10.594  0.7534  0.3822 -0.2270
  139MOL0     C19079   6.154   8.125  10.541 -0.4482 -0.3348  0.0058
  139MOL0     O19080   6.271   8.051  10.561  0.0770  0.2365 -0.0792
  139MOL0     C19081   6.293   7.996  10.691 -0.1955  0.8731 -0.4718
  139MOL0     C19082   6.370   7.862  10.671  0.2225 -1.0831 -0.6618
  139MOL0     C19083   6.517   7.906  10.642  0.2663  0.7778 -0.1006
  139MOL0     C19084   6.621   7.799  10.636 -0.6831  0.1611  0.0252
  139MOL0     C19085   6.767   7.853  10.639  0.3701  0.2597  0.7218
  139MOL0     C19086   6.868   7.740  10.640  0.5516  0.0802  0.0250
  139MOL0     C19087   7.010   7.782  10.676 -0.4898  0.4687 -0.0161
  139MOL0     C19088   7.020   7.827  10.830  0.2789  0.6131  0.1161
  139MOL0    Cl19089   7.157   7.941  10.836 -0.7936 -0.1876  0.1691
  139MOL0     C19090   6.162   8.235  10.454  0.5904 -0.2474 -0.4525
  139MOL0     C19091   6.051   8.299  10.415  0.2167 -0.5238  0.2940
  139MOL0     O19092   5.833   8.474  10.588 -0.1354  0.4329 -0.4242
  139MOL0     C19093   5.570   8.458  10.373  0.1725  0.5913  0.3500
  139MOL0     C19094   5.431   8.476  10.354 -0.5690 -0.0360  0.5347
  139MOL0     N19095   4.709   8.446  10.595  0.4029  0.7073 -0.8791
  139MOL0     N19096   4.622   8.377  10.663 -0.2424 -0.1739  0.1836
  139MOL0     C19097   3.780   7.738  10.442  0.9698  0.5688 -0.3083
  139MOL0     C19098   3.740   7.643  10.346  0.0582 -0.3229 -0.2594
  139MOL0     C19099   3.550   7.264  10.192  0.1918 -0.3965  0.8066
  139MOL0     C19100   3.427   7.309  10.131 -0.2022  0.8027  0.3195
  139MOL0     C19101   3.352   7.230  10.038  0.4333 -0.4555  0.4084
  139MOL0     C19102   3.412   7.112   9.985 -0.2375  0.6732 -0.5626
  139MOL0     O19103   3.344   7.010   9.914  0.4206 -0.9207  0.2138
  139MOL0     C19104   3.215   7.050   9.844 -0.5319  0.3960  0.4366
  139MOL0     C19105   3.238   7.136   9.719 -0.6179 -0.3570 -0.7728
  139MOL0     C19106   3.338   7.068   9.625  0.9153 -0.4291 -0.2423
  139MOL0     C19107   3.383   7.168   9.514 -0.6744 -0.2086  0.6290
  139MOL0     C19108   3.473   7.273   9.565  1.2761 -0.8458 -0.3030
  139MOL0     C19109   3.551   7.356   9.610 -0.2535 -0.7031  0.3302
  139MOL0     C19110   3.523   7.067  10.059  0.1215 -0.3671 -0.2745
  139MOL0     C19111   3.599   7.136  10.153 -0.4109 -0.7284 -0.6440
  139MOL0     C19112   3.708   7.067  10.217  0.3532  0.6082 -0.7047
  139MOL0     H19113   3.450   7.563  10.481  0.2332  1.1305 -1.9911
  139MOL0     H19114   3.511   7.759  10.645  3.4564  5.1021  0.4857
  139MOL0     H19115   3.771   7.734  10.768 -1.2151  2.4287  1.2584
  139MOL0     H19116   3.834   7.890  10.813  1.6888  1.1169  0.7026
  139MOL0     H19117   4.034   7.750  10.781 -0.0365 -0.8811  0.3638
  139MOL0     H19118   3.976   7.695  10.631 -1.4885 -0.9863  0.4106
  139MOL0     H19119   4.021   7.920  10.526  1.4623 -0.5757 -0.2613
  139MOL0     H19120   4.038   7.982  10.697 -3.9325  1.2016 -1.4050
  139MOL0     H19121   4.236   7.860  10.729  1.0111 -0.5965 -0.0217
  139MOL0     H19122   4.214   7.752  10.582  2.1961 -0.9539  1.4639
  139MOL0     H19123   4.275   7.929  10.439  0.4605 -3.0920  0.3362
  139MOL0     H19124   4.394   7.897  10.540  0.3643 -0.3716  3.6093
  139MOL0     H19125   4.177   8.121  10.578  0.3288  0.0969  0.9445
  139MOL0     H19126   4.293   8.087  10.698 -0.4816  0.1833  0.1844
  139MOL0     H19127   4.357   8.277  10.558  0.4146 -0.1229  0.5583
  139MOL0     H19128   4.424   8.151  10.435  2.4055 -3.3097  0.9093
  139MOL0     H19129   4.475   8.172  10.724 -3.9297 -0.6839 -1.8900
  139MOL0     H19130   4.538   8.047  10.613 -0.9771 -0.2472  0.0453
  139MOL0     H19131   4.719   8.171  10.425  2.9061 -1.9772  2.4752
  139MOL0     H19132   4.817   8.442  10.296 -1.4145 -1.2907 -0.0820
  139MOL0     H19133   4.935   8.356  10.406 -0.0878  0.5476  0.7963
  139MOL0     H19134   4.828   8.643  10.453 -0.4446  0.5010 -1.6606
  139MOL0     H19135   4.972   8.568  10.528 -2.0151  0.2633  2.3459
  139MOL0     H19136   4.975   8.637  10.225 -0.2832  0.5594 -0.6353
  139MOL0     H19137   5.021   8.740  10.364  0.0814 -1.1510  2.9094
  139MOL0     H19138   5.155   8.480  10.275  1.4652 -1.3815  0.2285
  139MOL0     H19139   5.206   8.647  10.258  0.2268  0.4179  0.9134
  139MOL0     H19140   5.334   8.512  10.672  0.2431  1.3350 -1.5923
  139MOL0     H19141   5.598   8.361  10.804  0.1705 -0.5752 -0.2154
  139MOL0     H19142   5.497   8.499  10.826  1.5918 -0.5279  1.3314
  139MOL0     H19143   5.662   8.525  10.776  0.4377 -0.7821 -0.2003
  139MOL0     H19144   5.825   8.117  10.584  0.1624 -0.6181 -1.8460
  139MOL0     H19145   6.015   8.012  10.666  0.3244  0.9664  0.3330
  139MOL0     H19146   6.340   8.073  10.753 -0.6619  1.6501 -1.0644
  139MOL0     H19147   6.198   7.969  10.739 -0.1644  0.7725 -0.4663
  139MOL0     H19148   6.359   7.792  10.755 -0.4393  1.2560  1.3363
  139MOL0     H19149   6.346   7.817  10.575 -0.8473  0.8479 -1.3491
  139MOL0     H19150   6.545   7.973  10.724  1.1669 -0.8579  0.9899
  139MOL0     H19151   6.519   7.961  10.548 -1.2312  2.2620  0.6907
  139MOL0     H19152   6.604   7.742  10.543 -5.0913  2.8235 -1.0941
  139MOL0     H19153   6.604   7.727  10.717 -0.6800 -0.9160 -0.8972
  139MOL0     H19154   6.788   7.909  10.547  0.9971 -2.2276 -0.7600
  139MOL0     H19155   6.779   7.912  10.730  1.0695 -0.7018  1.2686
  139MOL0     H19156   6.856   7.698  10.539 -4.2349  2.9206 -0.9257
  139MOL0     H19157   6.844   7.664  10.715  0.0910 -0.5744 -0.7616
  139MOL0     H19158   7.032   7.874  10.621 -0.3206  0.7272  0.4758
  139MOL0     H19159   7.074   7.702  10.637 -1.8614 -0.2392 -0.9024
  139MOL0     H19160   7.023   7.750  10.907  0.4003  2.2165  1.7777
  139MOL0     H19161   6.924   7.872  10.854 -0.5299 -0.7088 -0.5197
  139MOL0     H19162   6.256   8.282  10.427  0.8349  0.8284  1.9817
  139MOL0     H19163   6.056   8.383  10.346  0.4441 -1.8712 -1.3935
  139MOL0     H19164   5.639   8.448  10.290 -0.3520 -5.0646  0.2142
  139MOL0     H19165   5.386   8.479  10.255  0.4967  1.7966  0.0559
  139MOL0     H19166   3.870   7.794  10.417  2.8899 -1.0655  2.4601
  139MOL0     H19167   3.814   7.607  10.276  2.6723  0.5799  1.8326
  139MOL0     H19168   3.379   7.403  10.155 -1.2232  0.6322 -0.9754
  139MOL0     H19169   3.253   7.269  10.017  1.0383  0.7890 -0.2324
  139MOL0     H19170   3.167   6.957   9.811  1.2377 -0.6007  0.5388
  139MOL0     H19171   3.153   7.112   9.910 -0.4561  2.2760 -1.1640
  139MOL0     H19172   3.276   7.236   9.744  0.6115 -0.5358 -1.8035
  139MOL0     H19173   3.143   7.147   9.665  0.4516 -0.2772 -2.7512
  139MOL0     H19174   3.427   7.028   9.676 -0.5033 -0.9797  1.9312
  139MOL0     H19175   3.285   6.989   9.572 -2.2455  2.8607 -2.5089
  139MOL0     H19176   3.298   7.215   9.463 -1.6636 -1.5396  0.9767
  139MOL0     H19177   3.446   7.105   9.451  0.9404  0.8036  1.1872
  139MOL0     H19178   3.623   7.417   9.659 -0.7027  0.4362 -0.3726
  139MOL0     H19179   3.550   6.967  10.028  1.3248 -0.1651  0.0844
  139MOL0     H19180   3.704   6.963  10.183  2.0881 -0.3758  1.8047
  139MOL0     H19181   3.803   7.106  10.181  0.8610  1.4020  1.3862
  139MOL0     H19182   3.716   7.064  10.326 -0.1359 -1.2816 -0.6839
  140MOL0     O19183   9.736  11.422   8.938 -0.0456  0.1335  0.2577
  140MOL0     C19184   9.696  11.500   9.030 -0.7453  0.9994  0.0094
  140MOL0     O19185   9.588  11.483   9.107 -0.0698  0.2340 -0.8279
  140MOL0     C19186   9.504  11.388   9.055  0.1962  0.2873 -0.7453
  140MOL0     C19187   9.522  11.252   9.073 -0.6658 -0.0716 -0.8815
  140MOL0     C19188   9.445  11.158   9.011  0.1870  0.7099 -0.1951
  140MOL0     C19189   9.343  11.197   8.923 -0.5227 -0.5185 -1.3079
  140MOL0     O19190   9.243  11.112   8.870  0.3804 -0.5241 -0.4180
  140MOL0     C19191   9.302  10.998   8.814  0.3214  0.1725  0.3242
  140MOL0     C19192   9.211  10.932   8.708 -1.2478  0.2962 -0.3410
  140MOL0     C19193   9.149  11.022   8.600 -0.6006 -0.9484  0.5885
  140MOL0     C19194   9.237  11.110   8.518 -0.2741 -0.6331 -0.0340
  140MOL0     C19195   9.153  11.204   8.420  0.3598  0.0958  0.2949
  140MOL0     C19196   9.234  11.295   8.331  0.3107  0.4923  0.4979
  140MOL0     C19197   9.324  11.389   8.419 -0.2120  0.3502  0.8078
  140MOL0     C19198   9.246  11.485   8.518 -0.0290 -0.3696  0.0252
  140MOL0     N19199   9.313  11.609   8.551 -0.2166 -0.4814  0.1817
  140MOL0     C19200   9.418  11.615   8.639  0.4321  0.8644  0.0989
  140MOL0     C19201   9.441  11.747   8.640 -0.0966  0.1190 -0.1637
  140MOL0     C19202   9.564  11.813   8.701  0.3970 -1.1254  0.1542
  140MOL0     C19203   9.546  11.964   8.729 -0.4342  0.6398 -0.4605
  140MOL0     C19204   9.660  12.034   8.810  0.7044 -1.3154 -0.9618
  140MOL0     C19205   9.797  11.992   8.763 -0.3104  0.0452 -0.0697
  140MOL0     O19206   9.901  12.079   8.814 -0.2671  0.5033 -0.7624
  140MOL0     C19207   9.903  12.213   8.783  0.3403 -1.0606  0.6459
  140MOL0     C19208   9.827  12.268   8.676  0.2133  0.5338  0.1168
  140MOL0     C19209   9.825  12.406   8.653  0.4024  0.0290  0.7106
  140MOL0     C19210   9.741  12.464   8.538  1.0527  0.0898  1.0019
  140MOL0     C19211   9.911  12.487   8.729  0.0849  0.2060 -0.2276
  140MOL0     C19212   9.926  12.630   8.701 -0.6351 -0.5565 -0.3129
  140MOL0     O19213   9.978  12.663   8.579  0.3083  0.5422 -0.6372
  140MOL0     C19214  10.009  12.790   8.547 -0.6148  0.9609  0.3210
  140MOL0     C19215  10.136  12.852   8.531 -0.7269  1.2325 -0.6523
  140MOL0     C19216  10.149  12.992   8.509  0.4433  0.6752 -0.1944
  140MOL0     C19217  10.032  13.072   8.499 -0.0753 -0.3038  0.0950
  140MOL0     O19218  10.033  13.203   8.487 -0.1255  0.2066  0.3003
  140MOL0     C19219  10.143  13.272   8.434  0.1631  0.0033 -0.1901
  140MOL0     C19220  10.111  13.418   8.436 -0.3028 -0.0752  0.5235
  140MOL0     C19221  10.045  13.458   8.295 -0.0666  0.2969  0.2857
  140MOL0     C19222   9.993  13.601   8.295 -0.8866 -0.3091 -0.2197
  140MOL0     C19223  10.098  13.706   8.334  0.2187  0.2724 -1.0007
  140MOL0     C19224  10.233  13.706   8.253  0.1110  0.1140 -0.3222
  140MOL0     C19225  10.348  13.797   8.315  0.4271  0.9252 -0.1114
  140MOL0     C19226  10.393  13.887   8.202  0.0925 -0.1366 -0.1231
  140MOL0    Cl19227  10.452  13.788   8.061 -0.2778  0.0662 -0.5467
  140MOL0     C19228   9.903  13.017   8.504 -0.1077 -0.0765 -0.2734
  140MOL0     C19229   9.893  12.875   8.531 -0.5832  0.0051  0.5606
  140MOL0     O19230   9.895  12.706   8.791  0.0710 -1.1368 -0.1566
  140MOL0     C19231   9.993  12.431   8.829  0.0376  0.1494 -1.0785
  140MOL0     C19232   9.985  12.296   8.858  0.5306 -0.1381 -0.2342
  140MOL0     N19233   9.347  11.812   8.564  0.1268  0.6080  0.2031
  140MOL0     N19234   9.270  11.732   8.506 -0.1359 -0.3391 -0.5527
  140MOL0     C19235   9.330  11.335   8.905 -0.0937  0.4771 -0.5322
  140MOL0     C19236   9.402  11.427   8.973 -0.6176 -0.8272  1.3364
  140MOL0     C19237   9.773  11.626   9.055  0.5775 -0.2308  0.3251
  140MOL0     C19238   9.911  11.613   9.029  0.7331  0.2166  0.1835
  140MOL0     C19239   9.989  11.726   9.034  0.1768  0.0615  0.3013
  140MOL0     C19240   9.933  11.852   9.069  0.1641 -1.2359  0.4567
  140MOL0     O19241  10.015  11.960   9.079 -0.2052  0.0316  0.2865
  140MOL0     C19242  10.153  11.945   9.121  0.6907 -0.7677 -0.4776
  140MOL0     C19243  10.226  12.078   9.161 -0.4430 -0.0694 -1.0384
  140MOL0     C19244  10.372  12.065   9.212 -0.5435 -0.2951  0.3904
  140MOL0     C19245  10.450  12.200   9.227  0.4960  0.5965  0.1667
  140MOL0     C19246  10.586  12.185   9.270  0.1040  1.3768 -0.6957
  140MOL0     C19247  10.704  12.181   9.301  0.1970  0.6640  0.8388
  140MOL0     C19248   9.804  11.867   9.094  0.3089  0.7630  0.1478
  140MOL0     C19249   9.718  11.754   9.086  0.2440 -0.5877 -0.4464
  140MOL0     C19250   9.571  11.762   9.127 -0.1402 -0.9728 -0.3100
  140MOL0     H19251   9.590  11.219   9.151  0.8714  2.1998 -1.1717
  140MOL0     H19252   9.455  11.057   9.050 -0.1303  1.0191  0.7235
  140MOL0     H19253   9.316  10.924   8.894 -0.7464 -1.3081 -0.7998
  140MOL0     H19254   9.396  11.017   8.761  0.9617 -0.7674  1.0897
  140MOL0     H19255   9.274  10.850   8.670 -1.3143 -0.1234  0.4318
  140MOL0     H19256   9.131  10.881   8.761 -0.8650 -0.7710 -0.7403
  140MOL0     H19257   9.102  10.965   8.520 -2.8640  1.4043  0.1131
  140MOL0     H19258   9.065  11.082   8.637 -1.5074  1.8385 -4.8918
  140MOL0     H19259   9.301  11.171   8.582  1.4720 -2.3635 -0.0309
  140MOL0     H19260   9.308  11.049   8.462 -0.5026 -1.5178  0.6236
  140MOL0     H19261   9.071  11.256   8.470 -2.4583 -1.8209 -1.9754
  140MOL0     H19262   9.098  11.135   8.355  0.3250  0.7095 -0.3332
  140MOL0     H19263   9.294  11.233   8.265  0.7287  0.4457  0.9163
  140MOL0     H19264   9.173  11.357   8.265  2.4044  0.6607 -1.3787
  140MOL0     H19265   9.378  11.453   8.348  2.6831 -0.1887  2.3847
  140MOL0     H19266   9.400  11.335   8.475  0.4457  0.2613 -0.1503
  140MOL0     H19267   9.157  11.527   8.470 -0.4497 -0.8281  0.3955
  140MOL0     H19268   9.224  11.424   8.607  1.7590 -0.9333  0.1188
  140MOL0     H19269   9.460  11.529   8.691  0.8225 -0.1224 -1.7488
  140MOL0     H19270   9.648  11.809   8.631  0.5997  0.3823  0.2733
  140MOL0     H19271   9.590  11.758   8.792 -2.6482  0.0983  1.9072
  140MOL0     H19272   9.516  12.025   8.643 -0.3069  1.5798  0.1427
  140MOL0     H19273   9.453  11.972   8.786 -2.5740  1.0913 -3.7278
  140MOL0     H19274   9.636  12.139   8.827 -0.5489 -1.7172 -0.1292
  140MOL0     H19275   9.665  11.988   8.909  2.6192  0.3299 -0.2228
  140MOL0     H19276   9.817  11.890   8.795  0.1818  0.2418  0.2561
  140MOL0     H19277   9.793  11.994   8.654 -1.5071  2.0779 -0.0503
  140MOL0     H19278   9.760  12.201   8.622 -0.0364 -3.3310  4.5991
  140MOL0     H19279   9.745  12.574   8.540 -1.6262  0.4530 -2.7065
  140MOL0     H19280   9.642  12.417   8.550  2.6068 -2.8175  3.8946
  140MOL0     H19281   9.779  12.437   8.439 -4.0177  0.1714 -1.3329
  140MOL0     H19282  10.218  12.781   8.534 -2.4209 -0.9266 -1.7836
  140MOL0     H19283  10.247  13.029   8.481  0.3202  0.4577 -0.9607
  140MOL0     H19284  10.226  13.253   8.503  0.4336  2.4238  0.2427
  140MOL0     H19285  10.176  13.240   8.334  0.5094 -0.2865  0.0156
  140MOL0     H19286  10.051  13.442   8.525  0.3208 -2.0461  1.5338
  140MOL0     H19287  10.210  13.460   8.458  0.5084 -2.4985  1.9005
  140MOL0     H19288   9.960  13.391   8.281 -0.4518  1.2905 -2.7908
  140MOL0     H19289  10.118  13.441   8.215 -0.1669  0.4383  0.1641
  140MOL0     H19290   9.906  13.608   8.361 -0.7451 -1.8773  0.1714
  140MOL0     H19291   9.963  13.628   8.193 -0.7391  1.9117  0.2777
  140MOL0     H19292  10.047  13.801   8.314 -2.8932 -1.4325 -1.8458
  140MOL0     H19293  10.122  13.689   8.439 -0.3816  0.0927 -0.8836
  140MOL0     H19294  10.204  13.734   8.152  2.5991  2.6860 -0.4601
  140MOL0     H19295  10.271  13.603   8.253  0.0330  0.0816  0.1211
  140MOL0     H19296  10.437  13.738   8.338 -0.3984  0.2595  1.5604
  140MOL0     H19297  10.316  13.851   8.405  0.2109  2.6597 -1.1783
  140MOL0     H19298  10.467  13.958   8.239 -0.8962  0.3232  1.0652
  140MOL0     H19299  10.306  13.945   8.169  0.6418  1.5587  1.2388
  140MOL0     H19300   9.826  13.092   8.520  2.1174  2.9168 -2.3171
  140MOL0     H19301   9.795  12.830   8.539 -0.9342  0.8952  1.4332
  140MOL0     H19302  10.066  12.488   8.886 -1.4170  0.4506  0.5869
  140MOL0     H19303  10.040  12.263   8.945  0.2973  0.4082  0.1243
  140MOL0     H19304   9.252  11.378   8.842  0.1822 -0.1659 -1.3418
  140MOL0     H19305   9.378  11.532   8.960 -2.3491 -1.4797 -1.8644
  140MOL0     H19306   9.953  11.517   8.999 -1.5085  0.0200 -2.6998
  140MOL0     H19307  10.094  11.729   9.008  0.1439  0.1841  0.1826
  140MOL0     H19308  10.148  11.872   9.202  0.0973 -1.0497 -0.7654
  140MOL0     H19309  10.208  11.898   9.038  0.4630 -1.2145 -0.3788
  140MOL0     H19310  10.174  12.131   9.241  2.5224  0.4503  0.7126
  140MOL0     H19311  10.218  12.143   9.074 -1.4839 -0.0799 -0.9611
  140MOL0     H19312  10.375  12.020   9.311 -2.5860  1.1442  1.1683
  140MOL0     H19313  10.441  12.010   9.147  1.8320  0.9621  1.7232
  140MOL0     H19314  10.410  12.253   9.314  0.0726 -2.4085  1.9157
  140MOL0     H19315  10.440  12.255   9.132  0.1931 -0.9980 -0.7576
  140MOL0     H19316  10.805  12.166   9.331  0.2506 -1.0810 -0.0683
  140MOL0     H19317   9.759  11.958   9.133  0.3048  0.5504  0.6407
  140MOL0     H19318   9.539  11.859   9.164 -1.9506  1.2612 -6.5078
  140MOL0     H19319   9.505  11.743   9.042 -0.0998 -0.2279 -0.5112
  140MOL0     H19320   9.557  11.695   9.213 -2.4956  1.3890  1.3029
  141MOL0     O19321   0.703  10.289   2.633  0.6824  0.5093 -0.2504
  141MOL0     C19322   0.687  10.375   2.549  0.7463 -0.3611  0.2188
  141MOL0     O19323   0.624  10.357   2.431  0.1979 -0.6967 -0.4042
  141MOL0     C19324   0.595  10.227   2.387 -0.0503  0.4479 -0.6764
  141MOL0     C19325   0.695  10.128   2.376 -0.2502  0.1473 -0.3034
  141MOL0     C19326   0.675   9.996   2.333  0.8245  0.6312  0.5917
  141MOL0     C19327   0.538   9.957   2.302  0.3758  0.2426 -0.4291
  141MOL0     O19328   0.487   9.830   2.277 -0.7664 -0.4723 -0.0421
  141MOL0     C19329   0.587   9.731   2.261 -0.0219 -0.3887  0.6554
  141MOL0     C19330   0.517   9.598   2.239 -0.6167  0.6132  0.4076
  141MOL0     C19331   0.615   9.480   2.266  0.2981 -1.3346 -0.0945
  141MOL0     C19332   0.722   9.470   2.153 -0.9430  0.6971  0.1595
  141MOL0     C19333   0.788   9.334   2.156  0.5739  0.9214 -0.5869
  141MOL0     C19334   0.869   9.302   2.033 -0.2755  0.2864 -0.3288
  141MOL0     C19335   0.894   9.149   2.025 -0.7709 -0.3252 -0.1547
  141MOL0     C19336   0.964   9.108   1.898  0.6170  0.7174 -0.9883
  141MOL0     N19337   1.096   9.162   1.869  0.1441  0.1247 -0.9693
  141MOL0     C19338   1.216   9.125   1.912  0.3552  0.3040  0.3779
  141MOL0     C19339   1.307   9.186   1.833  0.6892 -0.7358 -0.2189
  141MOL0     C19340   1.459   9.178   1.846  0.6399 -0.3649  0.2539
  141MOL0     C19341   1.516   9.121   1.711  0.8811  0.2224  0.2780
  141MOL0     C19342   1.623   9.209   1.649  0.1597 -0.5959  0.0371
  141MOL0     C19343   1.751   9.206   1.739 -0.9302 -0.6690 -0.2357
  141MOL0     O19344   1.822   9.082   1.736 -0.1235  0.4263  0.0473
  141MOL0     C19345   1.912   9.055   1.634  0.8135 -0.3137  0.5035
  141MOL0     C19346   1.948   9.124   1.518  0.2663 -0.5153  0.7581
  141MOL0     C19347   2.051   9.087   1.432  0.3041  0.1947  0.5310
  141MOL0     C19348   2.061   9.164   1.292  0.3363  0.7186 -0.1739
  141MOL0     C19349   2.136   8.979   1.469  0.6305  1.1295  0.4586
  141MOL0     C19350   2.267   8.939   1.404  0.4859  0.1898 -0.2686
  141MOL0     O19351   2.309   8.812   1.433  0.0101 -0.6184  0.1435
  141MOL0     C19352   2.440   8.787   1.389  0.6741  0.0907 -0.1714
  141MOL0     C19353   2.554   8.814   1.467  0.0564  0.3032 -0.2008
  141MOL0     C19354   2.692   8.785   1.418  0.1925 -0.6588 -0.3668
  141MOL0     C19355   2.716   8.713   1.302  0.0802 -0.4444  0.7868
  141MOL0     O19356   2.845   8.680   1.269  0.1193 -0.2685  0.4946
  141MOL0     C19357   2.860   8.638   1.127  0.7519 -0.1119 -0.1699
  141MOL0     C19358   3.008   8.610   1.105 -0.5806  0.2660 -0.0530
  141MOL0     C19359   3.057   8.581   0.967 -0.5201  0.6371  0.1024
  141MOL0     C19360   3.206   8.605   0.962  0.2133  0.4573 -0.1254
  141MOL0     C19361   3.264   8.621   0.823 -0.0796 -0.8496 -0.2709
  141MOL0     C19362   3.409   8.643   0.818 -0.2407 -1.2082  0.4417
  141MOL0     C19363   3.464   8.661   0.685  0.4149  1.7986  0.3196
  141MOL0     C19364   3.610   8.621   0.677  0.8353 -0.1981  0.3273
  141MOL0    Cl19365   3.717   8.711   0.778  0.0401 -0.2987 -0.1429
  141MOL0     C19366   2.595   8.690   1.224  0.3193  0.1312  1.0816
  141MOL0     C19367   2.464   8.726   1.270  0.5906 -0.1186  0.3102
  141MOL0     O19368   2.323   9.022   1.334  0.3793  0.5159  0.2556
  141MOL0     C19369   2.090   8.903   1.582  0.2828  0.9786 -0.6639
  141MOL0     C19370   1.984   8.939   1.664  0.6419 -0.5641  0.8243
  141MOL0     N19371   1.242   9.269   1.743 -0.5472  0.1495 -0.2993
  141MOL0     N19372   1.113   9.249   1.762 -0.1741  0.4881  0.5131
  141MOL0     C19373   0.440  10.058   2.326  0.3880  0.4578  0.3512
  141MOL0     C19374   0.466  10.190   2.361 -0.5345  0.3535  0.6936
  141MOL0     C19375   0.747  10.511   2.574 -0.2760 -0.4285 -0.6124
  141MOL0     C19376   0.682  10.621   2.517 -0.5837 -0.1797  0.1027
  141MOL0     C19377   0.717  10.756   2.551 -0.4637  0.0900 -0.0902
  141MOL0     C19378   0.836  10.779   2.624 -0.2564  0.7025 -0.4218
  141MOL0     O19379   0.882  10.898   2.669  0.6539  0.3881 -0.1705
  141MOL0     C19380   0.797  10.959   2.774  0.2120 -0.9600 -0.2952
  141MOL0     C19381   0.881  11.083   2.835 -0.4981 -0.1700 -0.3870
  141MOL0     C19382   0.999  11.021   2.919  0.4711  0.0725  0.1485
  141MOL0     C19383   1.052  11.121   3.031  0.2437 -0.5993 -0.2261
  141MOL0     C19384   1.123  11.236   2.967 -0.2756 -0.1506  0.0976
  141MOL0     C19385   1.173  11.323   2.908  0.4508  0.1315  0.0219
  141MOL0     C19386   0.909  10.668   2.670 -0.4019  0.3321 -0.6896
  141MOL0     C19387   0.864  10.540   2.640 -0.6455  0.4215  0.0141
  141MOL0     C19388   0.957  10.438   2.708  0.5506  0.0632  0.8369
  141MOL0     H19389   0.796  10.156   2.405  0.0117  1.7147 -2.4774
  141MOL0     H19390   0.752   9.920   2.335 -0.2702 -0.5611 -0.8418
  141MOL0     H19391   0.631   9.742   2.360 -2.6034  3.6930  1.5971
  141MOL0     H19392   0.655   9.755   2.178 -1.2646 -3.3262 -1.4165
  141MOL0     H19393   0.436   9.581   2.312 -1.0833 -1.8807 -0.5935
  141MOL0     H19394   0.480   9.584   2.137 -0.8070 -4.3123  0.9058
  141MOL0     H19395   0.663   9.497   2.363  0.0706  0.5190 -0.2577
  141MOL0     H19396   0.545   9.397   2.261 -1.0676 -0.2276  0.2249
  141MOL0     H19397   0.674   9.487   2.056 -4.8201  2.1959  2.1238
  141MOL0     H19398   0.797   9.548   2.171  0.0569  0.1284 -1.3328
  141MOL0     H19399   0.708   9.263   2.177  0.7450  0.9880  0.3170
  141MOL0     H19400   0.863   9.325   2.235  1.5148 -1.9410 -1.6401
  141MOL0     H19401   0.802   9.324   1.949 -2.2086  0.9745  1.3123
  141MOL0     H19402   0.954   9.371   2.034  0.5800 -0.7487  0.4421
  141MOL0     H19403   0.793   9.106   2.027 -0.8523 -0.5372 -3.3805
  141MOL0     H19404   0.953   9.118   2.112  0.7094  0.2909 -0.8962
  141MOL0     H19405   0.969   8.999   1.892 -0.6726  0.6633 -1.3821
  141MOL0     H19406   0.898   9.145   1.820 -2.8173 -0.6627  1.0589
  141MOL0     H19407   1.245   9.058   1.992  1.3582  0.8134  0.4537
  141MOL0     H19408   1.495   9.118   1.929  2.0393 -0.1590 -0.1677
  141MOL0     H19409   1.488   9.282   1.866 -0.1776 -0.2731  0.9903
  141MOL0     H19410   1.549   9.016   1.709 -1.5884 -0.6661  1.8420
  141MOL0     H19411   1.440   9.119   1.633 -1.1573  3.3547  1.9840
  141MOL0     H19412   1.648   9.184   1.545 -1.2886  2.4524 -1.1736
  141MOL0     H19413   1.581   9.310   1.640 -0.9261 -0.8756  1.5342
  141MOL0     H19414   1.817   9.289   1.711 -3.1636  1.4952  0.5063
  141MOL0     H19415   1.713   9.227   1.839 -2.1775 -1.5154 -0.4983
  141MOL0     H19416   1.878   9.199   1.481  2.3988 -0.5087 -3.8314
  141MOL0     H19417   1.996   9.252   1.293 -1.7692 -0.7541  0.5169
  141MOL0     H19418   2.022   9.090   1.221 -1.6209  0.3681  1.1710
  141MOL0     H19419   2.165   9.191   1.272  0.4208  1.1012  0.7326
  141MOL0     H19420   2.541   8.858   1.565  1.2537 -2.0043  1.0949
  141MOL0     H19421   2.784   8.808   1.470 -1.1296 -1.3638  2.5313
  141MOL0     H19422   2.804   8.545   1.114  1.5253 -0.3133 -2.5280
  141MOL0     H19423   2.821   8.708   1.052 -0.9517 -0.8348 -0.0097
  141MOL0     H19424   3.060   8.701   1.135 -2.1720  1.2459 -0.1863
  141MOL0     H19425   3.038   8.524   1.167  0.1535  0.9026  0.5022
  141MOL0     H19426   3.013   8.655   0.899 -1.2998  0.5014  0.4565
  141MOL0     H19427   3.031   8.480   0.933  1.7750  0.0893 -0.2639
  141MOL0     H19428   3.259   8.524   1.013  0.8224  1.0274  0.1596
  141MOL0     H19429   3.229   8.689   1.029  2.0563 -0.2144  0.1400
  141MOL0     H19430   3.251   8.537   0.754 -1.1083 -0.9286  0.0043
  141MOL0     H19431   3.212   8.704   0.773  0.2282 -0.2370  0.4129
  141MOL0     H19432   3.461   8.559   0.864  1.1370 -1.2749 -1.1389
  141MOL0     H19433   3.445   8.725   0.880 -0.8613 -3.0662  3.4401
  141MOL0     H19434   3.438   8.761   0.649  1.1389  2.1681  0.7819
  141MOL0     H19435   3.410   8.597   0.615 -0.1087  1.1505  1.2936
  141MOL0     H19436   3.634   8.639   0.571 -1.5295 -0.9635 -0.4078
  141MOL0     H19437   3.619   8.513   0.691 -1.8662 -0.4520  0.6016
  141MOL0     H19438   2.598   8.625   1.138  1.9377  1.1730  0.2897
  141MOL0     H19439   2.372   8.707   1.216 -0.2591  1.0019  1.3042
  141MOL0     H19440   2.142   8.812   1.610 -0.7265  0.6042  0.0414
  141MOL0     H19441   1.972   8.897   1.763  0.8385  0.3352  1.2443
  141MOL0     H19442   0.335  10.029   2.327  0.1797  1.0810  2.3505
  141MOL0     H19443   0.383  10.258   2.380 -2.3624 -0.5757 -2.8753
  141MOL0     H19444   0.584  10.599   2.474 -1.8376 -0.2948  2.8151
  141MOL0     H19445   0.642  10.832   2.534  1.1756  1.7914 -0.0731
  141MOL0     H19446   0.701  10.994   2.735 -0.9283 -0.2514  2.8572
  141MOL0     H19447   0.767  10.893   2.855 -3.6942  1.3998  0.4186
  141MOL0     H19448   0.826  11.156   2.897  1.7109  0.7750  0.5717
  141MOL0     H19449   0.936  11.130   2.753 -1.5365  0.7999 -0.5562
  141MOL0     H19450   0.970  10.929   2.971  1.5159  0.3077  1.2009
  141MOL0     H19451   1.075  10.986   2.848 -0.8870 -2.3673 -0.2267
  141MOL0     H19452   1.108  11.059   3.102  2.0761  0.4513 -0.6895
  141MOL0     H19453   0.974  11.160   3.096  1.4437  2.7121 -0.5847
  141MOL0     H19454   1.235  11.391   2.851 -1.4503  1.6402 -0.3652
  141MOL0     H19455   0.996  10.694   2.730 -2.1616  2.6890  1.0415
  141MOL0     H19456   0.912  10.411   2.803 -0.5480 -2.7840 -0.3796
  141MOL0     H19457   0.970  10.355   2.638 -0.4860  2.2024 -2.1416
  141MOL0     H19458   1.059  10.468   2.736  0.7682 -0.6004  0.7730
  142MOL0     O19459   9.208   9.960   2.675  0.1015 -0.5215 -0.2199
  142MOL0     C19460   9.151  10.065   2.646 -0.5244  0.0863 -0.5834
  142MOL0     O19461   9.020  10.071   2.607 -0.2889  0.0162  0.1178
  142MOL0     C19462   8.961   9.948   2.583  0.4936 -0.4132 -0.0176
  142MOL0     C19463   9.014   9.857   2.493  0.0208 -1.7713 -0.0361
  142MOL0     C19464   8.947   9.739   2.462  0.5245 -0.5957  0.1871
  142MOL0     C19465   8.830   9.706   2.522 -0.6042 -0.6713  0.1663
  142MOL0     O19466   8.766   9.589   2.496  0.4944 -0.0446 -0.1212
  142MOL0     C19467   8.827   9.480   2.427  0.5758  0.2781  0.1582
  142MOL0     C19468   8.723   9.363   2.425 -0.5052  0.0175  0.4692
  142MOL0     C19469   8.793   9.234   2.453 -0.1192  0.5105  0.0461
  142MOL0     C19470   8.679   9.127   2.457  0.5111  0.4933 -0.0470
  142MOL0     C19471   8.710   8.994   2.519  0.0660 -0.0411  0.9007
  142MOL0     C19472   8.701   9.001   2.670  0.0991  0.1422 -0.3494
  142MOL0     C19473   8.760   8.870   2.722 -0.1428 -0.9076  0.0696
  142MOL0     C19474   8.916   8.838   2.697  0.2668  0.3873  0.0585
  142MOL0     N19475   8.968   8.715   2.757  0.2573 -0.5115 -0.1526
  142MOL0     C19476   8.922   8.658   2.879 -0.1936  0.0377  0.2781
  142MOL0     C19477   9.004   8.547   2.879 -0.0883  0.0579  0.6040
  142MOL0     C19478   8.996   8.443   2.985 -0.0486  0.3999 -0.4519
  142MOL0     C19479   8.892   8.332   2.966 -0.1199  0.0935  0.2069
  142MOL0     C19480   8.880   8.278   2.824  0.4943  0.2330 -0.4638
  142MOL0     C19481   8.994   8.173   2.811 -0.3953 -0.4244  0.2822
  142MOL0     O19482   9.127   8.227   2.792  0.2622 -0.4666  0.7090
  142MOL0     C19483   9.235   8.148   2.829  0.0760 -0.6419 -0.0144
  142MOL0     C19484   9.224   8.009   2.855  0.4768  0.3279 -1.1374
  142MOL0     C19485   9.342   7.935   2.884  0.3416  0.1405  0.3390
  142MOL0     C19486   9.323   7.786   2.910 -0.4245 -0.4998 -0.9266
  142MOL0     C19487   9.472   7.993   2.872  0.6708  0.0230 -0.3642
  142MOL0     C19488   9.600   7.928   2.877  0.2956 -0.4627 -0.0882
  142MOL0     O19489   9.695   8.005   2.929 -0.1717 -0.0750 -0.4073
  142MOL0     C19490   9.829   7.964   2.925  1.2124 -0.0565  0.8493
  142MOL0     C19491   9.916   7.964   3.034 -0.2208 -0.2791  0.3687
  142MOL0     C19492  10.053   7.936   3.036  0.8405  0.1795  0.0959
  142MOL0     C19493  10.102   7.899   2.912 -0.0921 -0.3056 -0.0814
  142MOL0     O19494  10.228   7.847   2.908  0.0559  0.6969  0.1302
  142MOL0     C19495  10.307   7.918   2.809  0.8567  0.2599  0.1316
  142MOL0     C19496  10.446   7.858   2.808 -0.3054  0.8165  0.5147
  142MOL0     C19497  10.549   7.925   2.717  0.7644 -0.4489  0.9486
  142MOL0     C19498  10.656   7.833   2.669  0.4552 -0.2071 -0.1712
  142MOL0     C19499  10.771   7.812   2.778 -0.1683  0.0888  0.2514
  142MOL0     C19500  10.877   7.700   2.750  0.5187 -0.5876 -0.5511
  142MOL0     C19501  10.985   7.738   2.650  0.6792  0.8112  0.2207
  142MOL0     C19502  11.055   7.609   2.591 -0.1008  0.4616 -1.2832
  142MOL0    Cl19503  11.117   7.658   2.436 -0.5261  0.1262 -0.0623
  142MOL0     C19504  10.021   7.900   2.797  0.1473  0.8185  0.0323
  142MOL0     C19505   9.890   7.929   2.805  0.4166 -0.3188  0.0735
  142MOL0     O19506   9.610   7.812   2.841  0.5885  0.4979 -0.5813
  142MOL0     C19507   9.471   8.129   2.852 -0.3169 -0.5934 -0.4885
  142MOL0     C19508   9.360   8.205   2.840  0.3899  0.0688  0.4449
  142MOL0     N19509   9.075   8.530   2.766  0.3198 -0.1628 -0.1391
  142MOL0     N19510   9.056   8.640   2.694 -0.2806 -0.1484  1.0459
  142MOL0     C19511   8.778   9.800   2.618 -0.0018 -0.2520  0.2211
  142MOL0     C19512   8.838   9.918   2.649 -1.1615 -0.0046 -0.4193
  142MOL0     C19513   9.227  10.187   2.625  0.1132  0.3547 -0.3697
  142MOL0     C19514   9.188  10.272   2.519  0.0971 -0.2841  0.0132
  142MOL0     C19515   9.266  10.381   2.477  0.2790 -0.4447  0.5102
  142MOL0     C19516   9.376  10.413   2.553 -0.3874 -0.3043 -0.3044
  142MOL0     O19517   9.466  10.518   2.522  0.0997  0.4094  0.3615
  142MOL0     C19518   9.439  10.591   2.398 -0.1747  0.4325  0.0130
  142MOL0     C19519   9.536  10.702   2.375  0.1225 -0.7810  0.2210
  142MOL0     C19520   9.494  10.789   2.261  0.3127  0.3978  0.6286
  142MOL0     C19521   9.606  10.897   2.226  0.4754  0.3864 -0.1857
  142MOL0     C19522   9.549  10.980   2.116 -0.8475  0.0193 -0.7140
  142MOL0     C19523   9.501  11.047   2.034  0.5709  0.4053  0.7042
  142MOL0     C19524   9.413  10.333   2.660 -0.9213  0.0450 -0.0332
  142MOL0     C19525   9.345  10.214   2.698  0.7263  0.5030 -0.0370
  142MOL0     C19526   9.399  10.139   2.825 -0.0355  0.3577  0.4231
  142MOL0     H19527   9.104   9.879   2.436 -1.4393  0.4395 -1.6545
  142MOL0     H19528   8.988   9.684   2.378 -1.9579 -0.0791 -1.4623
  142MOL0     H19529   8.920   9.452   2.476  0.8092 -0.1334 -0.5174
  142MOL0     H19530   8.843   9.511   2.324 -2.6201  0.3229 -0.4362
  142MOL0     H19531   8.647   9.379   2.503 -0.6160 -0.4565  0.4591
  142MOL0     H19532   8.674   9.361   2.327 -0.8064 -1.7553  0.6272
  142MOL0     H19533   8.847   9.207   2.362 -4.5470  0.4468 -2.8974
  142MOL0     H19534   8.872   9.246   2.528  0.7177  1.7922 -1.0016
  142MOL0     H19535   8.594   9.165   2.513  1.0055  0.3765  0.8076
  142MOL0     H19536   8.664   9.111   2.350  0.1865  0.2000  0.0427
  142MOL0     H19537   8.809   8.955   2.492  0.1020  2.2047 -2.8033
  142MOL0     H19538   8.639   8.922   2.477 -0.0475  0.7544 -0.3033
  142MOL0     H19539   8.764   9.082   2.709  1.7880  0.4650 -3.3871
  142MOL0     H19540   8.596   9.005   2.699 -0.5540 -2.0966 -2.0693
  142MOL0     H19541   8.697   8.793   2.677  0.6162 -2.9355  2.2320
  142MOL0     H19542   8.748   8.859   2.830  0.1418 -0.4694  0.1518
  142MOL0     H19543   8.941   8.841   2.591 -3.0863  0.0232 -0.8513
  142MOL0     H19544   8.978   8.905   2.757  1.0986 -2.0248  2.0725
  142MOL0     H19545   8.856   8.681   2.962  1.5156  0.6156  1.5269
  142MOL0     H19546   8.992   8.492   3.083 -0.3579 -0.7088  0.1072
  142MOL0     H19547   9.095   8.396   2.980 -1.4986 -2.8151 -1.3607
  142MOL0     H19548   8.891   8.249   3.038 -0.3413 -1.4543 -1.5142
  142MOL0     H19549   8.804   8.390   2.997  0.9981  1.6423  0.6446
  142MOL0     H19550   8.779   8.235   2.821  0.5610  0.0750 -0.4283
  142MOL0     H19551   8.895   8.357   2.750  3.2430  1.8523  1.6385
  142MOL0     H19552   8.993   8.103   2.895 -0.8674  1.0597  1.5548
  142MOL0     H19553   8.966   8.126   2.716  0.1311  0.0299 -0.1074
  142MOL0     H19554   9.131   7.955   2.871  0.9421  0.0696  1.0937
  142MOL0     H19555   9.223   7.766   2.948 -0.5886 -0.1049 -1.1483
  142MOL0     H19556   9.404   7.758   2.978 -2.3515 -0.6771  1.4402
  142MOL0     H19557   9.326   7.718   2.824 -0.1718 -1.1245 -0.4340
  142MOL0     H19558   9.872   7.988   3.130  0.1315  0.0398  0.4545
  142MOL0     H19559  10.123   7.938   3.119  2.1149  1.4728 -0.9698
  142MOL0     H19560  10.254   7.912   2.714  0.0165 -0.4261  0.6335
  142MOL0     H19561  10.329   8.021   2.840 -0.5775  0.6294 -0.0113
  142MOL0     H19562  10.482   7.864   2.911  0.1411 -1.3055  0.5272
  142MOL0     H19563  10.435   7.754   2.776  0.1448  1.6961 -2.8636
  142MOL0     H19564  10.598   8.005   2.773 -0.6902  0.4307  1.0047
  142MOL0     H19565  10.500   7.960   2.625 -0.5147  1.1823  2.1899
  142MOL0     H19566  10.696   7.862   2.572  1.1550 -2.0672 -0.4930
  142MOL0     H19567  10.606   7.738   2.646 -1.0179  0.1497  1.4116
  142MOL0     H19568  10.812   7.911   2.800 -0.1394  0.4206 -1.1834
  142MOL0     H19569  10.716   7.769   2.862 -0.6431 -1.4695 -0.8148
  142MOL0     H19570  10.821   7.617   2.705  1.3135 -1.0874 -0.6382
  142MOL0     H19571  10.930   7.653   2.834  0.4761 -3.9049 -2.2324
  142MOL0     H19572  11.052   7.812   2.695 -1.1410  1.3615  2.2272
  142MOL0     H19573  10.929   7.778   2.565 -1.5106 -1.6438  0.3716
  142MOL0     H19574  10.979   7.535   2.566  1.1820 -1.2608 -0.2586
  142MOL0     H19575  11.131   7.581   2.664 -2.2945 -4.0782 -0.4258
  142MOL0     H19576  10.054   7.876   2.696  0.1652 -2.6277  0.7611
  142MOL0     H19577   9.832   7.942   2.714  1.6828  0.8010 -0.6053
  142MOL0     H19578   9.568   8.175   2.837 -1.8861  3.0703 -0.3438
  142MOL0     H19579   9.373   8.312   2.825 -2.5919  0.3465 -0.8664
  142MOL0     H19580   8.688   9.762   2.666  0.6121 -0.1648  1.4763
  142MOL0     H19581   8.806   9.991   2.723  0.6149 -2.6768  3.3062
  142MOL0     H19582   9.109  10.244   2.450 -0.2093 -1.5289  0.8342
  142MOL0     H19583   9.222  10.429   2.390  0.2202 -0.8351  0.3179
  142MOL0     H19584   9.448  10.521   2.314 -3.3328  1.1852 -1.0788
  142MOL0     H19585   9.341  10.636   2.411 -0.6202 -0.8911  1.6115
  142MOL0     H19586   9.632  10.658   2.347 -0.3521 -0.1078 -2.8307
  142MOL0     H19587   9.551  10.757   2.469  1.0739 -1.4849  0.4973
  142MOL0     H19588   9.486  10.722   2.175 -1.4960  1.0678  0.2257
  142MOL0     H19589   9.397  10.833   2.285 -0.1154 -1.2158  2.0542
  142MOL0     H19590   9.699  10.855   2.186  0.2165  1.4089 -1.9904
  142MOL0     H19591   9.629  10.967   2.307 -0.1351  0.1521  0.1957
  142MOL0     H19592   9.465  11.111   1.956  1.8076  0.2653 -0.0143
  142MOL0     H19593   9.502  10.361   2.716 -1.2461  0.2710  0.3671
  142MOL0     H19594   9.435  10.038   2.805 -4.0175 -1.3018  0.6646
  142MOL0     H19595   9.474  10.202   2.874  0.9169  0.4360 -1.0681
  142MOL0     H19596   9.315  10.136   2.896 -0.7323  2.5405 -0.2270
  143MOL0     O19597   8.497  11.103   9.777 -0.2162  0.0174 -0.7460
  143MOL0     C19598   8.435  11.120   9.671 -0.4258 -0.1902  0.4074
  143MOL0     O19599   8.306  11.177   9.662  0.3136  0.4708  0.1939
  143MOL0     C19600   8.250  11.237   9.774 -0.5638 -0.2461  0.1929
  143MOL0     C19601   8.114  11.229   9.782 -0.1429 -0.9274  0.3606
  143MOL0     C19602   8.029  11.265   9.883 -0.4801 -0.2029 -0.4134
  143MOL0     C19603   8.094  11.323   9.993 -0.2821  0.5078  0.5430
  143MOL0     O19604   8.007  11.356  10.095 -0.3708  0.9139 -0.6204
  143MOL0     C19605   8.040  11.463  10.190  0.0499 -0.5789  0.1864
  143MOL0     C19606   7.904  11.527  10.245  1.2088 -0.6146 -0.1324
  143MOL0     C19607   7.808  11.442  10.334 -0.3065  1.0963 -0.9940
  143MOL0     C19608   7.771  11.512  10.471 -0.2628 -0.0703  0.7488
  143MOL0     C19609   7.674  11.427  10.555  0.0196  0.3432 -0.4499
  143MOL0     C19610   7.636  11.506  10.681  1.1787  0.1325 -0.2221
  143MOL0     C19611   7.523  11.461  10.774 -0.0508 -0.0947 -0.8758
  143MOL0     C19612   7.395  11.419  10.701 -0.2828  0.2869 -0.4530
  143MOL0     N19613   7.286  11.439  10.797 -0.3502  0.7497  0.3461
  143MOL0     C19614   7.273  11.345  10.897  0.3231 -1.0434 -0.4537
  143MOL0     C19615   7.157  11.366  10.948  0.7966  0.6151 -0.4926
  143MOL0     C19616   7.097  11.289  11.058 -0.1371  0.0060  0.1824
  143MOL0     C19617   7.064  11.386  11.163 -0.4692 -0.2732 -0.1453
  143MOL0     C19618   7.185  11.429  11.246 -0.2158 -0.4282  0.3155
  143MOL0     C19619   7.166  11.552  11.339 -0.6112  0.2330  0.9091
  143MOL0     O19620   7.141  11.679  11.268 -0.5512  0.4642 -0.8414
  143MOL0     C19621   7.069  11.768  11.351 -0.5358 -0.4564 -0.7191
  143MOL0     C19622   7.056  11.898  11.304 -0.1489  0.5524  0.4364
  143MOL0     C19623   6.983  12.000  11.366 -0.2701 -0.8997 -0.0454
  143MOL0     C19624   6.967  12.132  11.295 -0.0405 -0.3960 -0.1878
  143MOL0     C19625   6.941  11.969  11.500 -0.0772 -0.2406  0.7515
  143MOL0     C19626   6.868  12.065  11.588 -0.1781  1.0002  0.7886
  143MOL0     O19627   6.772  12.160  11.538 -0.1444  0.4351 -0.3771
  143MOL0     C19628   6.696  12.218  11.642 -0.7257  0.1824  0.2966
  143MOL0     C19629   6.560  12.213  11.620  0.2087 -0.1898  0.1750
  143MOL0     C19630   6.475  12.287  11.697  0.3100 -0.4581 -0.0305
  143MOL0     C19631   6.528  12.366  11.800  0.5519  0.2643  0.6963
  143MOL0     O19632   6.453  12.447  11.880  0.1824  0.1915 -0.6987
  143MOL0     C19633   6.318  12.406  11.904 -0.3063  0.0558  0.7240
  143MOL0     C19634   6.258  12.506  12.004  0.6595  0.0675  0.3383
  143MOL0     C19635   6.116  12.468  12.045  1.0330 -0.4935  0.2786
  143MOL0     C19636   6.046  12.555  12.149 -0.1428 -0.2717  0.2335
  143MOL0     C19637   5.906  12.502  12.176 -1.1860 -0.6744  0.8965
  143MOL0     C19638   5.838  12.596  12.266  0.2775  0.4361  0.2757
  143MOL0     C19639   5.734  12.522  12.340  0.2273 -0.4933 -0.4587
  143MOL0     C19640   5.630  12.598  12.409  0.0927  0.3206  1.1110
  143MOL0    Cl19641   5.533  12.704  12.289  0.3313 -0.1858  0.0011
  143MOL0     C19642   6.663  12.369  11.822 -0.3787  0.6320 -0.5282
  143MOL0     C19643   6.751  12.290  11.747 -0.3906  0.1629 -0.2770
  143MOL0     O19644   6.919  12.062  11.706 -0.2621  0.6046  1.0047
  143MOL0     C19645   6.955  11.838  11.554  0.8168  0.2269 -1.0598
  143MOL0     C19646   7.022  11.742  11.485 -0.7031  0.5442 -0.6930
  143MOL0     N19647   7.109  11.493  10.889 -0.4270  0.0551 -0.6137
  143MOL0     N19648   7.188  11.531  10.790 -0.3655  0.5480  0.2267
  143MOL0     C19649   8.235  11.329   9.997 -0.5805  0.1925 -0.0928
  143MOL0     C19650   8.313  11.281   9.894  0.3516 -0.6246  0.3795
  143MOL0     C19651   8.519  11.097   9.547  0.4901  0.1412  0.0979
  143MOL0     C19652   8.462  11.146   9.426  0.1949 -0.7674  0.6105
  143MOL0     C19653   8.544  11.155   9.305  0.3007  0.3443  0.3276
  143MOL0     C19654   8.679  11.120   9.306 -0.0857  0.7874 -0.3179
  143MOL0     O19655   8.764  11.129   9.196  0.4869  0.6272  0.2306
  143MOL0     C19656   8.711  11.185   9.076 -0.1901  0.4049 -0.7220
  143MOL0     C19657   8.816  11.174   8.959  0.2495  0.2818 -1.0842
  143MOL0     C19658   8.901  11.048   8.969  0.2699  0.0887  0.3057
  143MOL0     C19659   8.820  10.920   8.959  0.2739  0.8587 -0.5265
  143MOL0     C19660   8.738  10.910   8.839  0.5503 -0.5893  0.3784
  143MOL0     C19661   8.657  10.906   8.740  0.1278  0.2870  0.2846
  143MOL0     C19662   8.730  11.051   9.421  0.3243 -0.0256 -0.0556
  143MOL0     C19663   8.651  11.041   9.537 -0.8229  0.8636 -0.9471
  143MOL0     C19664   8.707  10.957   9.651 -0.4003 -0.9269 -1.2171
  143MOL0     H19665   8.078  11.165   9.702  2.2873 -2.9716  0.7864
  143MOL0     H19666   7.922  11.251   9.882 -0.5913  0.6727 -1.0957
  143MOL0     H19667   8.100  11.540  10.142  0.1403 -0.7432  0.0321
  143MOL0     H19668   8.096  11.424  10.276  1.7430  0.4493 -0.4016
  143MOL0     H19669   7.935  11.617  10.300 -0.8743  1.4079 -2.0219
  143MOL0     H19670   7.843  11.553  10.158  1.3889 -0.4335 -0.2067
  143MOL0     H19671   7.719  11.408  10.282 -1.6766 -1.2728  2.4829
  143MOL0     H19672   7.871  11.359  10.369  0.3564  2.3959  1.0878
  143MOL0     H19673   7.856  11.546  10.530  0.6971 -2.2455  0.7096
  143MOL0     H19674   7.711  11.598  10.440 -0.4632  0.4807  2.5591
  143MOL0     H19675   7.727  11.338  10.591 -0.1247  1.0179  1.5605
  143MOL0     H19676   7.593  11.398  10.488 -1.6928  1.6988  0.9274
  143MOL0     H19677   7.727  11.534  10.735  0.9614  1.4314 -0.5034
  143MOL0     H19678   7.606  11.602  10.638 -0.3888  0.1101  0.7425
  143MOL0     H19679   7.493  11.543  10.841  0.6238 -0.6217  0.1006
  143MOL0     H19680   7.550  11.370  10.827  0.1134 -0.0648 -0.9081
  143MOL0     H19681   7.379  11.482  10.613  0.4322 -1.1416 -1.6490
  143MOL0     H19682   7.403  11.314  10.671  3.1596  1.1761 -3.2934
  143MOL0     H19683   7.341  11.263  10.921  0.6695 -0.5078  0.4248
  143MOL0     H19684   7.171  11.217  11.094  0.6427  0.5991 -0.2015
  143MOL0     H19685   7.009  11.227  11.037 -1.1145  0.3520  2.9106
  143MOL0     H19686   7.016  11.475  11.121  2.3009  0.5102 -1.8723
  143MOL0     H19687   6.989  11.337  11.226 -2.6326  0.5902 -1.9227
  143MOL0     H19688   7.221  11.345  11.306  1.1168  0.1895  0.4277
  143MOL0     H19689   7.264  11.452  11.174 -0.8958 -0.5799 -0.4955
  143MOL0     H19690   7.085  11.519  11.404 -1.2343  0.0975  0.0726
  143MOL0     H19691   7.259  11.570  11.394  0.0427 -2.9324  1.0524
  143MOL0     H19692   7.088  11.912  11.201  0.5597  0.4589  0.6393
  143MOL0     H19693   7.002  12.219  11.352 -1.2774  2.1624 -3.0152
  143MOL0     H19694   6.862  12.146  11.267  0.3423  0.1935 -1.4249
  143MOL0     H19695   7.016  12.123  11.197  0.1438 -0.6093 -0.0762
  143MOL0     H19696   6.518  12.155  11.539  0.8577  2.1944 -2.0482
  143MOL0     H19697   6.366  12.280  11.689 -0.0328 -0.7809  3.4595
  143MOL0     H19698   6.252  12.403  11.817 -0.9429  1.0601  1.1568
  143MOL0     H19699   6.313  12.303  11.942 -2.6185 -0.9487 -1.9523
  143MOL0     H19700   6.325  12.514  12.091 -0.7063  0.1792  1.4265
  143MOL0     H19701   6.261  12.606  11.961  1.1022 -0.5050 -1.0129
  143MOL0     H19702   6.124  12.368  12.089 -0.7300 -0.5223  0.5955
  143MOL0     H19703   6.054  12.464  11.955 -0.5373 -1.2363  1.3508
  143MOL0     H19704   6.043  12.662  12.130  2.5493 -0.5271 -2.4404
  143MOL0     H19705   6.107  12.560  12.240  0.9605  0.1768 -0.5122
  143MOL0     H19706   5.849  12.493  12.083  2.1917  2.2283 -1.7338
  143MOL0     H19707   5.911  12.401  12.218 -0.6808 -1.8691 -1.8264
  143MOL0     H19708   5.793  12.680  12.213  1.2326  0.8024  0.0214
  143MOL0     H19709   5.903  12.642  12.340  2.9345 -0.7851 -1.1416
  143MOL0     H19710   5.782  12.467  12.421  0.3740  0.8484  0.4021
  143MOL0     H19711   5.675  12.457  12.276  0.4741 -2.5815  1.3154
  143MOL0     H19712   5.685  12.652  12.486  0.3042  0.8885  0.5648
  143MOL0     H19713   5.562  12.529  12.460  2.4122 -1.8889  1.4012
  143MOL0     H19714   6.703  12.435  11.899  0.8166 -0.1230 -0.4667
  143MOL0     H19715   6.855  12.320  11.757 -0.5022  0.2663  0.5941
  143MOL0     H19716   6.922  11.810  11.654  5.2056  2.3845  1.2288
  143MOL0     H19717   7.052  11.657  11.545  3.2948  2.5659  0.5954
  143MOL0     H19718   8.279  11.364  10.090  0.4509  1.7616 -1.0982
  143MOL0     H19719   8.421  11.291   9.892  0.2837  0.1938  0.4391
  143MOL0     H19720   8.359  11.177   9.411  0.5924 -0.5761 -2.4690
  143MOL0     H19721   8.505  11.190   9.210 -2.1438 -1.5460  0.5340
  143MOL0     H19722   8.624  11.125   9.049  1.4158 -1.6454 -1.6774
  143MOL0     H19723   8.691  11.292   9.084  3.6504  1.5051 -2.8485
  143MOL0     H19724   8.868  11.267   8.935  4.2390 -0.9368  1.8695
  143MOL0     H19725   8.756  11.161   8.869 -2.3917 -0.7157  0.6727
  143MOL0     H19726   8.978  11.034   8.893  1.4295 -1.5885  1.7330
  143MOL0     H19727   8.955  11.045   9.064  1.3132 -1.2444 -0.3059
  143MOL0     H19728   8.743  10.904   9.035 -0.4550 -0.6443 -1.5119
  143MOL0     H19729   8.889  10.835   8.962 -1.3726 -0.6254 -1.7956
  143MOL0     H19730   8.587  10.906   8.659  1.1542  1.9480 -0.6625
  143MOL0     H19731   8.828  11.004   9.417 -1.2253 -3.4978 -1.3549
  143MOL0     H19732   8.803  10.920   9.615  1.4296  3.0810 -1.0079
  143MOL0     H19733   8.741  11.013   9.739 -1.8254 -2.1156  0.1599
  143MOL0     H19734   8.635  10.881   9.681 -0.2341 -1.5068 -2.2372
  144MOL0     O19735   1.935   3.796   0.063 -0.4358 -0.0239 -0.1410
  144MOL0     C19736   1.880   3.700   0.026  0.1441  0.0857 -0.6724
  144MOL0     O19737   1.862   3.655  -0.106 -0.2500  0.7697  0.1789
  144MOL0     C19738   1.881   3.752  -0.202 -0.2000 -0.1423  0.1048
  144MOL0     C19739   1.960   3.719  -0.319  0.0358 -0.1154 -0.2728
  144MOL0     C19740   1.990   3.821  -0.418  0.4903 -0.4172 -0.8767
  144MOL0     C19741   1.925   3.944  -0.412  1.0027  0.2695  0.3496
  144MOL0     O19742   1.932   4.031  -0.516 -0.4338 -0.8770 -0.1159
  144MOL0     C19743   2.064   4.066  -0.567  0.2669  0.2291  0.3408
  144MOL0     C19744   2.070   4.207  -0.628 -0.6825  0.2550 -0.0120
  144MOL0     C19745   2.046   4.315  -0.519  0.1135 -0.4834 -0.3218
  144MOL0     C19746   2.056   4.455  -0.566  0.1570  0.6151  0.2563
  144MOL0     C19747   2.199   4.494  -0.618 -1.0691 -0.0011 -0.0963
  144MOL0     C19748   2.211   4.638  -0.656 -0.4775 -0.3315 -1.1559
  144MOL0     C19749   2.353   4.700  -0.645  0.1661 -0.7134 -0.4482
  144MOL0     C19750   2.471   4.609  -0.609 -0.8046  0.1024  0.2449
  144MOL0     N19751   2.594   4.676  -0.635 -0.0397  0.8616  0.5343
  144MOL0     C19752   2.644   4.779  -0.556  0.4863  0.2360 -0.6792
  144MOL0     C19753   2.766   4.802  -0.604 -0.0113 -0.3474  0.8144
  144MOL0     C19754   2.871   4.905  -0.565 -0.5769  0.9600  0.1260
  144MOL0     C19755   2.865   5.030  -0.660 -0.0015  0.3636 -0.4235
  144MOL0     C19756   2.962   5.138  -0.606 -0.4807 -0.2668 -0.2231
  144MOL0     C19757   2.980   5.256  -0.701  0.0247 -0.0854  0.3363
  144MOL0     O19758   3.031   5.368  -0.620  0.1387  0.8888  0.5896
  144MOL0     C19759   3.162   5.388  -0.642 -0.1286 -0.2929  0.2416
  144MOL0     C19760   3.203   5.497  -0.716 -0.0830 -1.2779  0.7370
  144MOL0     C19761   3.341   5.519  -0.749  0.4283  0.6640  0.1272
  144MOL0     C19762   3.348   5.640  -0.842  0.2999  0.4471 -0.5578
  144MOL0     C19763   3.441   5.435  -0.698 -0.2440 -0.4875  0.1938
  144MOL0     C19764   3.588   5.459  -0.721  0.3616 -0.3218  0.7256
  144MOL0     O19765   3.676   5.390  -0.654 -0.2780 -0.9036 -0.1987
  144MOL0     C19766   3.802   5.442  -0.634  0.1124  0.3844 -0.5577
  144MOL0     C19767   3.831   5.572  -0.596  0.0669 -0.3573  0.1260
  144MOL0     C19768   3.966   5.604  -0.554  0.6085  0.3712 -0.1465
  144MOL0     C19769   4.069   5.514  -0.566 -0.1095 -0.0305 -1.0023
  144MOL0     O19770   4.201   5.542  -0.542  0.0722  0.2358 -0.0085
  144MOL0     C19771   4.273   5.444  -0.466  0.1418  0.8462 -0.2343
  144MOL0     C19772   4.355   5.505  -0.354 -0.0230 -0.3754 -0.3296
  144MOL0     C19773   4.469   5.603  -0.394 -0.5950  0.7043  0.4072
  144MOL0     C19774   4.564   5.632  -0.282 -0.3975  0.4336 -0.1915
  144MOL0     C19775   4.667   5.738  -0.327  0.8407 -0.4337 -0.3007
  144MOL0     C19776   4.741   5.806  -0.213 -0.1181 -0.5380  0.6302
  144MOL0     C19777   4.673   5.936  -0.173  0.2181  0.1265  0.3814
  144MOL0     C19778   4.713   6.051  -0.269 -0.2104  0.4634 -0.0363
  144MOL0    Cl19779   4.892   6.092  -0.279  0.0723  0.0041 -0.0552
  144MOL0     C19780   4.034   5.383  -0.615 -0.4045  0.4772 -0.4054
  144MOL0     C19781   3.901   5.346  -0.643 -0.8068  0.2003 -0.1582
  144MOL0     O19782   3.614   5.544  -0.806  0.1034  0.7974 -0.4893
  144MOL0     C19783   3.401   5.329  -0.613 -0.2282  0.2553  0.0515
  144MOL0     C19784   3.264   5.309  -0.589 -0.7149  0.4503 -1.0853
  144MOL0     N19785   2.789   4.719  -0.709  0.0815 -0.0187  0.4504
  144MOL0     N19786   2.691   4.647  -0.728  0.6057  0.2376  0.2927
  144MOL0     C19787   1.847   3.973  -0.301  0.6773 -0.0215 -0.1879
  144MOL0     C19788   1.824   3.880  -0.197  0.1865 -0.2079 -0.2592
  144MOL0     C19789   1.804   3.628   0.135 -0.0657  0.6684  0.1621
  144MOL0     C19790   1.809   3.676   0.266  0.2658 -0.4067 -0.1552
  144MOL0     C19791   1.737   3.621   0.372  0.1187  0.7553  0.7927
  144MOL0     C19792   1.665   3.506   0.347 -0.2752  0.0988  0.6978
  144MOL0     O19793   1.592   3.455   0.448  0.3812 -0.6252 -0.2524
  144MOL0     C19794   1.452   3.451   0.433  0.8879  0.3777  0.0596
  144MOL0     C19795   1.379   3.486   0.565 -1.5797 -1.1018  0.0022
  144MOL0     C19796   1.419   3.618   0.638 -0.1082  0.1237 -0.2913
  144MOL0     C19797   1.404   3.740   0.556 -0.0210  0.1160  0.8255
  144MOL0     C19798   1.261   3.775   0.521 -0.3248  0.1131  1.1679
  144MOL0     C19799   1.146   3.802   0.524  0.8204 -0.2973  0.6017
  144MOL0     C19800   1.665   3.454   0.221  0.0344  0.2058 -0.1049
  144MOL0     C19801   1.732   3.512   0.111  0.3228  0.5873 -0.4185
  144MOL0     C19802   1.730   3.426  -0.014  0.1327  0.2630 -0.0514
  144MOL0     H19803   1.999   3.619  -0.336 -0.9649 -0.1515 -2.6782
  144MOL0     H19804   2.055   3.800  -0.502  2.0134 -3.5749  0.8941
  144MOL0     H19805   2.097   4.008  -0.653  1.2686 -0.5325  1.2142
  144MOL0     H19806   2.142   4.060  -0.490  0.0535 -1.6919  0.4565
  144MOL0     H19807   2.167   4.221  -0.677 -2.4238  2.4157 -3.1797
  144MOL0     H19808   1.995   4.221  -0.706 -0.3959  1.2938 -0.1217
  144MOL0     H19809   1.952   4.298  -0.468  0.2693  0.7280  0.4061
  144MOL0     H19810   2.113   4.302  -0.434 -2.5386  0.5665  2.0497
  144MOL0     H19811   1.971   4.467  -0.634 -0.5329 -0.2353  0.9449
  144MOL0     H19812   2.012   4.528  -0.498 -5.0628  0.7107 -2.6600
  144MOL0     H19813   2.237   4.435  -0.702  0.4220 -1.9447  1.8495
  144MOL0     H19814   2.271   4.475  -0.538  0.7207  0.2019 -1.5926
  144MOL0     H19815   2.176   4.651  -0.759 -1.1566  0.3735 -0.8467
  144MOL0     H19816   2.149   4.705  -0.596  1.7270 -0.3037  1.2391
  144MOL0     H19817   2.351   4.783  -0.573  2.5493  1.4328 -2.6253
  144MOL0     H19818   2.384   4.743  -0.741 -0.1104  0.5712  0.0215
  144MOL0     H19819   2.471   4.582  -0.503 -1.7948 -1.2169 -0.0675
  144MOL0     H19820   2.458   4.521  -0.673 -0.0373  0.4675 -0.4440
  144MOL0     H19821   2.603   4.826  -0.467 -0.7060 -2.4011  0.2601
  144MOL0     H19822   2.973   4.866  -0.573  0.2315  2.6191  1.6597
  144MOL0     H19823   2.862   4.935  -0.460 -0.9051  3.5391 -0.5696
  144MOL0     H19824   2.898   5.010  -0.762  1.3450  2.1256 -0.3885
  144MOL0     H19825   2.765   5.075  -0.665  0.1171  0.8147  0.9068
  144MOL0     H19826   2.933   5.183  -0.511  1.1090  1.0274 -0.3014
  144MOL0     H19827   3.056   5.082  -0.595 -1.4314 -1.8236  0.3226
  144MOL0     H19828   3.055   5.232  -0.777  2.5481  1.7484  2.0693
  144MOL0     H19829   2.885   5.283  -0.748 -0.0291 -0.6553  0.1114
  144MOL0     H19830   3.119   5.560  -0.745 -0.5549 -1.2004  2.2078
  144MOL0     H19831   3.416   5.622  -0.927 -1.0211  3.0226 -2.2911
  144MOL0     H19832   3.387   5.730  -0.795 -1.6003  1.3634 -0.6308
  144MOL0     H19833   3.249   5.651  -0.887 -0.2780  0.1420  0.6129
  144MOL0     H19834   3.756   5.650  -0.589  0.7331  0.2360  0.8538
  144MOL0     H19835   3.998   5.704  -0.524  0.4164  0.5486 -0.5242
  144MOL0     H19836   4.200   5.374  -0.424  0.7572  0.5004  0.2683
  144MOL0     H19837   4.336   5.385  -0.533 -1.8226 -2.1346  0.3182
  144MOL0     H19838   4.285   5.556  -0.286  2.3003  2.2069  0.3040
  144MOL0     H19839   4.408   5.426  -0.300  0.6548  1.1646  1.3464
  144MOL0     H19840   4.424   5.694  -0.434 -2.7126 -0.3852  0.1455
  144MOL0     H19841   4.531   5.551  -0.468 -0.7709  1.4748 -0.2825
  144MOL0     H19842   4.629   5.554  -0.241  0.7505  2.7219  2.7096
  144MOL0     H19843   4.508   5.671  -0.197 -1.0976 -1.7489  0.4062
  144MOL0     H19844   4.739   5.693  -0.396  0.4400  0.7638 -1.5440
  144MOL0     H19845   4.611   5.811  -0.387  0.5631 -0.5671 -0.2058
  144MOL0     H19846   4.840   5.818  -0.257  0.5940  0.5434  2.4203
  144MOL0     H19847   4.752   5.741  -0.125 -0.5637 -0.2328  0.9140
  144MOL0     H19848   4.712   5.958  -0.073  3.0979 -1.3372 -0.3122
  144MOL0     H19849   4.564   5.936  -0.163  0.0823 -0.7066 -0.9453
  144MOL0     H19850   4.659   6.145  -0.256  1.2002  1.5139 -1.3696
  144MOL0     H19851   4.696   6.012  -0.370  1.2806  0.0804 -0.1593
  144MOL0     H19852   4.095   5.293  -0.614 -0.4318  0.4287 -1.9092
  144MOL0     H19853   3.894   5.241  -0.669  3.4525  0.1315 -1.7254
  144MOL0     H19854   3.471   5.256  -0.574 -0.6296 -1.5694 -2.4137
  144MOL0     H19855   3.224   5.223  -0.537 -0.9897  0.4699 -1.2601
  144MOL0     H19856   1.804   4.072  -0.290 -0.9464 -0.6374 -0.6483
  144MOL0     H19857   1.769   3.902  -0.106  0.9047  0.4807  0.0173
  144MOL0     H19858   1.866   3.762   0.298  1.5070 -0.8088 -1.1809
  144MOL0     H19859   1.719   3.675   0.465  0.9975  3.5967 -0.5654
  144MOL0     H19860   1.417   3.521   0.357  1.2448 -0.8818 -1.3027
  144MOL0     H19861   1.412   3.357   0.393 -3.3177  0.9191  2.4207
  144MOL0     H19862   1.419   3.410   0.633  0.6335 -1.7515 -1.8726
  144MOL0     H19863   1.270   3.486   0.558 -1.6288 -4.1495 -1.1977
  144MOL0     H19864   1.361   3.628   0.731  0.4182  0.5589 -0.0009
  144MOL0     H19865   1.524   3.606   0.668 -0.6190  1.5804  2.4756
  144MOL0     H19866   1.460   3.740   0.463 -1.4014 -2.3894 -0.0787
  144MOL0     H19867   1.446   3.821   0.617 -0.4717  0.7272  0.3331
  144MOL0     H19868   1.042   3.829   0.526  0.3795 -1.6155 -1.2205
  144MOL0     H19869   1.601   3.371   0.193 -1.8887  1.3420  0.7337
  144MOL0     H19870   1.663   3.460  -0.094 -0.7649  0.6699  0.8571
  144MOL0     H19871   1.832   3.427  -0.054  0.9493  1.5700  1.9379
  144MOL0     H19872   1.709   3.324   0.017  2.3467  0.2650  1.7852
  145MOL0     O19873   2.178  10.606   2.676 -0.3476  0.5849 -0.4023
  145MOL0     C19874   2.113  10.681   2.744  0.3980  0.9576 -0.8349
  145MOL0     O19875   2.081  10.664   2.869 -0.1393  0.3515  0.0898
  145MOL0     C19876   2.161  10.594   2.959  0.2007 -0.0597 -0.5336
  145MOL0     C19877   2.301  10.578   2.944  0.7805 -0.2451  1.1549
  145MOL0     C19878   2.371  10.530   3.049  0.6178  0.5627 -0.4452
  145MOL0     C19879   2.312  10.489   3.174 -1.1354  0.1245 -0.4089
  145MOL0     O19880   2.397  10.434   3.276 -0.4339  0.5131 -0.1846
  145MOL0     C19881   2.391  10.494   3.405 -0.1036  0.3365  0.5682
  145MOL0     C19882   2.483  10.402   3.498 -0.7318  0.1878 -0.0265
  145MOL0     C19883   2.449  10.405   3.653  0.2562  0.9152 -0.4690
  145MOL0     C19884   2.297  10.402   3.678  0.0957 -0.4235 -0.5873
  145MOL0     C19885   2.263  10.397   3.830  0.2965  0.0344  0.1934
  145MOL0     C19886   2.127  10.359   3.848 -0.9825 -0.0547  0.3982
  145MOL0     C19887   2.085  10.364   3.994 -0.2981 -0.4600 -0.3265
  145MOL0     C19888   1.941  10.316   4.006  0.1313  0.6765 -0.2199
  145MOL0     N19889   1.900  10.288   4.138  0.6018  0.4846  0.0624
  145MOL0     C19890   1.769  10.244   4.168 -0.1459  0.0832 -0.4183
  145MOL0     C19891   1.773  10.206   4.299 -0.0655 -0.2531  1.1894
  145MOL0     C19892   1.660  10.155   4.376 -0.3309  0.1969 -0.0765
  145MOL0     C19893   1.600  10.267   4.463  0.0037  0.3085 -0.6425
  145MOL0     C19894   1.447  10.249   4.499  0.3054  0.2951 -0.0859
  145MOL0     C19895   1.352  10.277   4.380 -0.4654 -0.6946  0.3455
  145MOL0     O19896   1.215  10.267   4.421 -0.0339  0.0318 -0.3774
  145MOL0     C19897   1.164  10.148   4.455 -0.1417  0.9073  0.1430
  145MOL0     C19898   1.227  10.029   4.432 -0.0042 -0.1789 -0.6576
  145MOL0     C19899   1.176   9.911   4.491 -0.3360  0.4061  0.4922
  145MOL0     C19900   1.254   9.787   4.471  0.3271 -0.8070  0.9536
  145MOL0     C19901   1.055   9.909   4.566 -0.3386  0.5998  0.5362
  145MOL0     C19902   0.999   9.783   4.630  0.3604 -0.6947  0.6028
  145MOL0     O19903   0.857   9.779   4.639  0.2346 -0.1720 -0.6213
  145MOL0     C19904   0.802   9.715   4.744  0.0209 -0.4498 -1.2021
  145MOL0     C19905   0.710   9.784   4.827  0.9011 -0.9347 -0.0103
  145MOL0     C19906   0.639   9.726   4.935  0.0618 -0.9720  0.0747
  145MOL0     C19907   0.675   9.598   4.977 -0.4844 -0.8979  0.2019
  145MOL0     O19908   0.630   9.535   5.087 -0.0743 -0.5889 -0.1332
  145MOL0     C19909   0.538   9.594   5.184  0.0233 -0.2752 -0.2556
  145MOL0     C19910   0.475   9.489   5.277  0.1838  0.4778  0.0819
  145MOL0     C19911   0.590   9.405   5.346 -0.8910 -0.1311  0.2845
  145MOL0     C19912   0.658   9.488   5.447 -0.2514  0.6116 -0.2705
  145MOL0     C19913   0.789   9.425   5.497  0.2271  0.3879  0.1265
  145MOL0     C19914   0.854   9.521   5.603 -0.4434 -0.0442 -0.1004
  145MOL0     C19915   1.001   9.525   5.596  0.7544  0.8942  0.4415
  145MOL0     C19916   1.070   9.426   5.689  0.2316 -0.0979  0.1931
  145MOL0    Cl19917   1.094   9.267   5.608 -0.1641  0.2365  0.4820
  145MOL0     C19918   0.779   9.531   4.904  0.5006  0.7169 -1.0806
  145MOL0     C19919   0.831   9.583   4.786 -0.1040 -0.7903  0.7762
  145MOL0     O19920   1.074   9.688   4.649  0.2932  0.7851 -0.4099
  145MOL0     C19921   0.990  10.033   4.581 -0.1270  0.1871 -0.9054
  145MOL0     C19922   1.048  10.154   4.535  0.0163  0.0843 -0.8070
  145MOL0     N19923   1.900  10.214   4.338 -0.3302 -0.3570  0.2440
  145MOL0     N19924   1.977  10.260   4.246  0.0052 -0.0818  0.8174
  145MOL0     C19925   2.180  10.492   3.189  0.1100 -0.3143 -0.2194
  145MOL0     C19926   2.102  10.544   3.085 -0.0553 -0.3494  0.1687
  145MOL0     C19927   2.049  10.799   2.682 -0.6327 -0.1982 -0.0458
  145MOL0     C19928   2.039  10.816   2.539  0.6689  0.5280  0.0869
  145MOL0     C19929   1.976  10.920   2.493 -0.2238  0.2321  0.3154
  145MOL0     C19930   1.913  11.014   2.571  0.7210  0.2874 -0.6860
  145MOL0     O19931   1.846  11.124   2.517 -0.1429 -0.4665 -0.0512
  145MOL0     C19932   1.857  11.159   2.376  1.0142 -0.1704 -0.0920
  145MOL0     C19933   1.787  11.286   2.340  0.3983  1.1251 -0.4761
  145MOL0     C19934   1.644  11.271   2.289 -0.1246 -0.0826  0.3572
  145MOL0     C19935   1.620  11.173   2.167  0.4633 -0.9199 -0.9954
  145MOL0     C19936   1.721  11.193   2.065 -0.0211 -1.0544 -1.3826
  145MOL0     C19937   1.815  11.196   1.993 -0.2838 -0.2307 -1.0007
  145MOL0     C19938   1.926  11.015   2.713  0.5692  0.6915 -0.0281
  145MOL0     C19939   1.992  10.905   2.762  0.2074 -0.2828  0.2408
  145MOL0     C19940   2.038  10.918   2.906 -0.1066  0.1123  0.8850
  145MOL0     H19941   2.349  10.607   2.851 -0.2862  2.4417  1.3404
  145MOL0     H19942   2.480  10.532   3.051  0.7157  0.4898 -2.7679
  145MOL0     H19943   2.290  10.513   3.442  0.1974  2.1107  0.5636
  145MOL0     H19944   2.440  10.591   3.393  0.7581 -0.3105 -1.4450
  145MOL0     H19945   2.458  10.297   3.478  0.8436 -1.0780  3.7063
  145MOL0     H19946   2.590  10.418   3.480 -0.2223  0.7767  2.9109
  145MOL0     H19947   2.504  10.327   3.707  0.6800  0.7410 -1.1497
  145MOL0     H19948   2.465  10.507   3.687  0.3443  1.0214 -0.8282
  145MOL0     H19949   2.253  10.498   3.647 -2.6576 -2.2929 -2.9706
  145MOL0     H19950   2.245  10.327   3.619 -2.0017  0.5539 -0.0878
  145MOL0     H19951   2.280  10.491   3.883  2.7685  0.0232 -0.4299
  145MOL0     H19952   2.332  10.326   3.878  1.0644  1.2985  0.9991
  145MOL0     H19953   2.071  10.442   3.804 -0.7400  1.8407  3.4159
  145MOL0     H19954   2.100  10.267   3.796 -0.9703  1.8648 -3.3209
  145MOL0     H19955   2.083  10.470   4.020 -1.8784  0.0548 -2.3503
  145MOL0     H19956   2.161  10.302   4.044  2.1715  1.4930 -1.4184
  145MOL0     H19957   1.879  10.387   3.953  2.2559  3.3377  0.6314
  145MOL0     H19958   1.926  10.223   3.950 -0.3781  0.8725 -0.4152
  145MOL0     H19959   1.686  10.247   4.098 -0.6935  3.0674  0.2216
  145MOL0     H19960   1.697  10.067   4.429  2.3953  1.6249  0.5732
  145MOL0     H19961   1.581  10.129   4.304 -1.5967  2.1305  0.5138
  145MOL0     H19962   1.642  10.266   4.564 -2.1630  0.3156  0.3104
  145MOL0     H19963   1.624  10.367   4.425  0.3658  0.8229  0.8647
  145MOL0     H19964   1.425  10.153   4.547  1.2999  1.2688  2.5127
  145MOL0     H19965   1.422  10.315   4.582 -1.2865 -0.3398 -0.0277
  145MOL0     H19966   1.379  10.374   4.338  0.7889 -1.0383  0.3249
  145MOL0     H19967   1.368  10.206   4.298 -0.0934 -0.1501 -0.0600
  145MOL0     H19968   1.318  10.026   4.372  0.0858  1.0853 -0.6265
  145MOL0     H19969   1.298   9.749   4.563 -0.1717 -3.5944  0.1505
  145MOL0     H19970   1.337   9.807   4.403 -0.7515  0.4816 -0.0717
  145MOL0     H19971   1.202   9.707   4.416 -0.2103 -0.1767  0.5220
  145MOL0     H19972   0.699   9.889   4.803 -2.1945 -1.0116  0.6974
  145MOL0     H19973   0.559   9.780   4.984 -0.1272 -0.7815 -0.4378
  145MOL0     H19974   0.572   9.680   5.242 -0.3339  0.7670 -1.5389
  145MOL0     H19975   0.454   9.633   5.126  0.7297 -0.0548 -1.1569
  145MOL0     H19976   0.408   9.522   5.356 -1.3624 -1.4999 -0.3072
  145MOL0     H19977   0.412   9.431   5.209 -0.0219  2.3843 -1.4461
  145MOL0     H19978   0.660   9.377   5.267  1.3674  0.6011  1.9257
  145MOL0     H19979   0.556   9.308   5.384  2.7002 -1.3768  0.6839
  145MOL0     H19980   0.593   9.497   5.534 -0.3728  0.7737 -0.3759
  145MOL0     H19981   0.672   9.589   5.406 -1.1090  0.8114 -0.0964
  145MOL0     H19982   0.768   9.325   5.537  0.5218  1.5415  3.5177
  145MOL0     H19983   0.856   9.406   5.412 -2.8375 -1.1689 -2.1128
  145MOL0     H19984   0.813   9.491   5.700  0.3260  1.3574  0.6990
  145MOL0     H19985   0.811   9.621   5.591 -1.0208  0.2624  3.3728
  145MOL0     H19986   1.036   9.625   5.625  0.1327  1.2076  0.1322
  145MOL0     H19987   1.035   9.513   5.493 -2.4920  2.1308 -0.8886
  145MOL0     H19988   1.017   9.408   5.783 -4.3105  1.7341 -1.7247
  145MOL0     H19989   1.173   9.460   5.701 -0.2944  2.1828 -1.2851
  145MOL0     H19990   0.814   9.434   4.939 -1.8962  0.5949  1.2282
  145MOL0     H19991   0.913   9.537   4.731 -0.5159 -1.3761  0.6475
  145MOL0     H19992   0.889  10.042   4.620  0.1917 -2.0456  0.5775
  145MOL0     H19993   0.997  10.247   4.557  0.4005 -0.2546  1.7612
  145MOL0     H19994   2.126  10.464   3.279 -0.5739 -3.3875 -1.4584
  145MOL0     H19995   1.996  10.542   3.109  0.3589 -0.9432  2.1626
  145MOL0     H19996   2.064  10.733   2.473 -0.5971 -0.9481  1.3780
  145MOL0     H19997   1.965  10.928   2.385 -0.8239  0.0462  0.3586
  145MOL0     H19998   1.962  11.182   2.355  0.6499  1.5029 -0.2498
  145MOL0     H19999   1.821  11.073   2.320  1.0168  0.4775 -1.1027
  145MOL0     H20000   1.835  11.348   2.264  3.0763 -0.0088  0.1442
  145MOL0     H20001   1.767  11.344   2.430  0.5022  1.0840 -0.4254
  145MOL0     H20002   1.580  11.247   2.375 -1.8972  1.3760 -0.4933
  145MOL0     H20003   1.609  11.369   2.256 -0.1101 -0.4809 -0.8831
  145MOL0     H20004   1.518  11.198   2.135 -0.1310  1.7876  2.4347
  145MOL0     H20005   1.613  11.071   2.206 -0.7697 -0.7421 -0.6925
  145MOL0     H20006   1.894  11.207   1.921  2.1816 -0.5611  1.5083
  145MOL0     H20007   1.893  11.097   2.775  0.8291  1.9076 -1.4214
  145MOL0     H20008   2.138  10.880   2.928 -1.0456 -3.3805 -0.1743
  145MOL0     H20009   2.023  11.014   2.955  1.1095  1.1381 -0.6683
  145MOL0     H20010   1.965  10.856   2.961  0.2297 -0.7099  0.4245
  146MOL0     O20011   1.747   8.793   9.503  0.4478 -0.6339  0.6592
  146MOL0     C20012   1.702   8.837   9.394 -0.5394 -0.0106 -0.3102
  146MOL0     O20013   1.778   8.886   9.291  0.3570  0.1488 -0.6283
  146MOL0     C20014   1.913   8.903   9.303  0.0982  0.6967 -0.2680
  146MOL0     C20015   2.006   8.808   9.353 -0.0991  0.3866 -0.2014
  146MOL0     C20016   2.140   8.829   9.343  0.3978  0.0308 -0.5018
  146MOL0     C20017   2.196   8.956   9.316 -0.2063  0.0727 -0.0340
  146MOL0     O20018   2.323   8.975   9.298 -0.1404 -0.6236 -0.0208
  146MOL0     C20019   2.366   9.095   9.365  0.8420 -0.1771  0.1410
  146MOL0     C20020   2.500   9.074   9.436 -0.2754  0.4345 -0.6628
  146MOL0     C20021   2.578   9.196   9.484  0.8853  0.0592  0.1067
  146MOL0     C20022   2.713   9.160   9.553  0.4587  0.4435 -0.0887
  146MOL0     C20023   2.800   9.281   9.575  0.5426  0.3676 -0.4626
  146MOL0     C20024   2.899   9.319   9.466 -0.4068 -0.4572  1.0903
  146MOL0     C20025   3.012   9.403   9.526 -0.8917  0.5940 -0.2733
  146MOL0     C20026   3.134   9.306   9.560  0.3816 -0.3073  0.3046
  146MOL0     N20027   3.238   9.369   9.640 -0.5756 -0.5359 -0.3621
  146MOL0     C20028   3.320   9.478   9.610  0.3031 -0.1963  0.3485
  146MOL0     C20029   3.391   9.509   9.729  0.4476 -0.2080  1.0408
  146MOL0     C20030   3.470   9.635   9.752 -0.2763  0.4142 -0.2289
  146MOL0     C20031   3.614   9.592   9.748  0.4869 -0.3383  0.1473
  146MOL0     C20032   3.691   9.716   9.751 -0.0606 -0.5620 -0.5082
  146MOL0     C20033   3.843   9.702   9.770 -0.1484 -0.3749  0.0101
  146MOL0     O20034   3.902   9.834   9.788 -0.1366  0.3327 -0.3434
  146MOL0     C20035   3.925   9.897   9.906 -0.0469 -0.3142  0.2829
  146MOL0     C20036   3.860   9.859  10.025 -0.2431 -0.1509  0.5034
  146MOL0     C20037   3.885   9.930  10.144  0.4271 -0.0606  0.9086
  146MOL0     C20038   3.810   9.897  10.270 -0.0903  0.3196  0.2966
  146MOL0     C20039   3.972  10.040  10.134  0.3001  0.5713 -1.0041
  146MOL0     C20040   4.016  10.113  10.255  0.1213  0.2141 -0.3238
  146MOL0     O20041   3.976  10.243  10.273 -0.6661 -0.3594 -0.1138
  146MOL0     C20042   4.052  10.345  10.329 -0.2008  0.4527  0.5071
  146MOL0     C20043   4.187  10.343  10.359  0.1926  0.3076 -0.2775
  146MOL0     C20044   4.246  10.438  10.441  0.3552 -0.7764 -0.2317
  146MOL0     C20045   4.175  10.552  10.480  0.5028  0.0557  0.4600
  146MOL0     O20046   4.236  10.652  10.558 -0.6438  0.7295  0.3404
  146MOL0     C20047   4.369  10.681  10.525 -0.4424  0.4465 -0.0468
  146MOL0     C20048   4.405  10.794  10.621  0.4355 -0.0646 -0.8404
  146MOL0     C20049   4.523  10.880  10.576  0.3375 -1.0776  0.1048
  146MOL0     C20050   4.557  10.998  10.665  0.7225  0.1607 -0.1801
  146MOL0     C20051   4.662  11.096  10.601  0.4130 -0.3468  0.0363
  146MOL0     C20052   4.678  11.209  10.694 -0.0246 -0.1862  1.0026
  146MOL0     C20053   4.797  11.294  10.650  0.3616  0.4314  0.5373
  146MOL0     C20054   4.794  11.418  10.742 -0.0786 -0.6076  0.3401
  146MOL0    Cl20055   4.636  11.499  10.737 -0.2838 -0.1227 -0.6125
  146MOL0     C20056   4.039  10.558  10.446  0.5532 -0.2651  0.5950
  146MOL0     C20057   3.978  10.457  10.370 -0.1489  0.0933  0.6311
  146MOL0     O20058   4.078  10.053  10.341  0.3615  0.1301 -0.1239
  146MOL0     C20059   4.029  10.078  10.014 -0.3111 -1.1526 -0.2967
  146MOL0     C20060   4.012  10.003   9.899 -0.2993  0.1810  0.6666
  146MOL0     N20061   3.359   9.415   9.823 -0.0589 -0.1959  0.2584
  146MOL0     N20062   3.278   9.331   9.768  0.5014 -0.2915  0.7604
  146MOL0     C20063   2.104   9.049   9.263  0.5859 -0.5722 -0.3811
  146MOL0     C20064   1.962   9.029   9.269 -0.0518  0.1378 -0.4343
  146MOL0     C20065   1.552   8.825   9.371  0.8203  0.0258 -0.3501
  146MOL0     C20066   1.466   8.755   9.468  0.3063 -0.0060  0.1210
  146MOL0     C20067   1.331   8.741   9.442 -0.1775  0.0524  0.0331
  146MOL0     C20068   1.269   8.794   9.327 -0.0154  0.5611 -1.3230
  146MOL0     O20069   1.144   8.750   9.287  0.1019 -0.1752 -0.9639
  146MOL0     C20070   1.050   8.795   9.378  0.2222 -0.0320  1.0609
  146MOL0     C20071   0.928   8.716   9.373 -0.3194  0.2244  0.9684
  146MOL0     C20072   0.963   8.576   9.433  0.1065  0.5972 -0.0401
  146MOL0     C20073   0.840   8.498   9.433  0.5481  0.3863  0.6425
  146MOL0     C20074   0.735   8.544   9.524  0.5521  1.4805 -0.5377
  146MOL0     C20075   0.649   8.571   9.603 -0.0698  0.0645 -0.0267
  146MOL0     C20076   1.347   8.866   9.248  0.4920 -0.0396 -0.4156
  146MOL0     C20077   1.490   8.875   9.253 -0.1299  0.0717 -0.4166
  146MOL0     C20078   1.560   8.943   9.134 -0.3942  0.3658  0.4902
  146MOL0     H20079   1.964   8.718   9.397 -1.2353  1.7101  1.5698
  146MOL0     H20080   2.207   8.744   9.352  0.8677  0.4655  0.1409
  146MOL0     H20081   2.297   9.128   9.442  0.8382  1.6370 -0.5860
  146MOL0     H20082   2.377   9.171   9.287 -0.0863  1.6602  1.7224
  146MOL0     H20083   2.484   9.004   9.518 -2.5131 -0.3744 -1.7133
  146MOL0     H20084   2.571   9.020   9.372  0.2606 -0.2439  0.4739
  146MOL0     H20085   2.607   9.266   9.406  0.1744  0.3652  0.1120
  146MOL0     H20086   2.521   9.242   9.565  1.9944 -0.7680  1.4090
  146MOL0     H20087   2.696   9.110   9.649 -1.3198 -0.9236 -1.0621
  146MOL0     H20088   2.752   9.089   9.480 -1.8216 -0.4050 -0.5472
  146MOL0     H20089   2.851   9.254   9.668 -2.1188  3.5621  2.2078
  146MOL0     H20090   2.749   9.375   9.596 -0.2924 -0.6968  2.7826
  146MOL0     H20091   2.941   9.236   9.409 -1.2954  1.2980 -2.4034
  146MOL0     H20092   2.855   9.383   9.389 -1.1622  0.0150  1.8949
  146MOL0     H20093   2.977   9.453   9.616  0.2335  2.1472 -0.6522
  146MOL0     H20094   3.040   9.479   9.452 -0.2394  1.0270  0.4035
  146MOL0     H20095   3.097   9.226   9.626 -0.5778  0.7729  1.1242
  146MOL0     H20096   3.179   9.256   9.474 -0.7497  0.5626 -0.8252
  146MOL0     H20097   3.333   9.534   9.518 -3.2693  2.1030  1.0369
  146MOL0     H20098   3.444   9.680   9.848  1.5676 -0.0676  0.5378
  146MOL0     H20099   3.436   9.703   9.673 -1.4801  1.0922  0.8269
  146MOL0     H20100   3.632   9.519   9.828  1.9562  0.0964  0.2410
  146MOL0     H20101   3.643   9.547   9.653 -0.7966 -0.0549 -0.3978
  146MOL0     H20102   3.674   9.773   9.659 -1.4307 -1.1806 -0.6591
  146MOL0     H20103   3.655   9.775   9.836  1.4835 -0.2929 -0.0145
  146MOL0     H20104   3.883   9.634   9.846 -0.1140 -1.2321 -0.7541
  146MOL0     H20105   3.888   9.661   9.679  1.5566 -1.7173  1.3736
  146MOL0     H20106   3.800   9.769  10.032  1.4051 -1.2949  0.4247
  146MOL0     H20107   3.719   9.841  10.246  0.7272 -0.7315 -0.4455
  146MOL0     H20108   3.780   9.987  10.324 -0.9046 -0.3775  1.0374
  146MOL0     H20109   3.871   9.829  10.330  1.3864  0.0392 -1.4451
  146MOL0     H20110   4.243  10.256  10.324 -0.1785  1.0172 -2.8869
  146MOL0     H20111   4.355  10.438  10.448  0.3690  1.5512  0.3230
  146MOL0     H20112   4.433  10.596  10.547 -1.1655  0.2964  1.6031
  146MOL0     H20113   4.364  10.710  10.419 -0.1945  2.4642  0.4383
  146MOL0     H20114   4.321  10.864  10.625  0.3610  0.0299 -2.8194
  146MOL0     H20115   4.432  10.759  10.721  0.0452  1.9192  0.0087
  146MOL0     H20116   4.509  10.918  10.474 -2.6068 -0.1534  0.7412
  146MOL0     H20117   4.613  10.819  10.572  2.4617  1.9342 -1.4964
  146MOL0     H20118   4.590  10.959  10.762 -1.4994  2.8342  1.8292
  146MOL0     H20119   4.465  11.054  10.681  0.8620  0.5990 -0.8876
  146MOL0     H20120   4.755  11.043  10.576 -0.5384 -1.2817 -1.6989
  146MOL0     H20121   4.628  11.123  10.501  2.5276  1.5057 -0.2601
  146MOL0     H20122   4.688  11.173  10.797 -3.8114 -0.6579  1.3747
  146MOL0     H20123   4.585  11.268  10.699 -0.2432 -0.5665  1.6029
  146MOL0     H20124   4.773  11.336  10.552 -0.6643  1.5554  1.2417
  146MOL0     H20125   4.887  11.233  10.658 -0.7264 -1.2841  0.2610
  146MOL0     H20126   4.865  11.498  10.715 -0.2644 -0.1299  1.2134
  146MOL0     H20127   4.819  11.390  10.845 -0.0551  0.2009  0.5690
  146MOL0     H20128   3.979  10.648  10.462 -0.2406 -0.9390  1.5288
  146MOL0     H20129   3.870  10.458  10.356  0.0026 -2.3936 -1.6730
  146MOL0     H20130   4.089  10.167  10.002  1.5255 -2.3583 -0.3815
  146MOL0     H20131   4.081  10.027   9.819 -1.3710  1.4326  0.0940
  146MOL0     H20132   2.155   9.137   9.226  0.4436 -0.8599 -1.2816
  146MOL0     H20133   1.889   9.104   9.243 -0.0859  1.8453  3.7712
  146MOL0     H20134   1.505   8.719   9.562 -0.8802  0.3762  0.7853
  146MOL0     H20135   1.275   8.665   9.494  0.3455  0.2202  0.8643
  146MOL0     H20136   1.089   8.793   9.480 -1.3294 -0.3543  1.6760
  146MOL0     H20137   1.042   8.903   9.360  1.5608 -0.2778 -1.4553
  146MOL0     H20138   0.896   8.698   9.270  1.0761  1.4798  0.2694
  146MOL0     H20139   0.856   8.761   9.441  1.3381  2.4455  1.3698
  146MOL0     H20140   1.036   8.528   9.367 -0.2538 -2.0851  1.3528
  146MOL0     H20141   1.011   8.575   9.531  1.9448 -2.4522 -0.8166
  146MOL0     H20142   0.862   8.400   9.476 -3.0784 -0.8277  0.0986
  146MOL0     H20143   0.789   8.474   9.339 -0.0340 -1.2895  1.3405
  146MOL0     H20144   0.563   8.587   9.665  0.8574  0.9366  1.0868
  146MOL0     H20145   1.299   8.919   9.166 -0.0408 -1.6208 -1.1621
  146MOL0     H20146   1.484   8.975   9.062 -0.5201  1.1718  0.9668
  146MOL0     H20147   1.621   9.028   9.166 -0.8423  1.1699 -0.7009
  146MOL0     H20148   1.635   8.879   9.088  1.1274 -0.3829  3.7370
  147MOL0     O20149   1.479   7.685   8.398 -0.5092 -0.7014 -0.2376
  147MOL0     C20150   1.435   7.605   8.481  0.2625  0.2866  1.0104
  147MOL0     O20151   1.508   7.528   8.560 -0.4910 -0.3098 -0.2662
  147MOL0     C20152   1.636   7.518   8.531 -0.8936  1.2587  0.6036
  147MOL0     C20153   1.733   7.613   8.573  0.6522 -0.4951 -0.3055
  147MOL0     C20154   1.873   7.589   8.557  0.4976 -0.0352  0.5024
  147MOL0     C20155   1.925   7.467   8.509 -0.1628 -0.0092  0.8556
  147MOL0     O20156   2.060   7.450   8.508  0.2866 -0.2495 -0.2214
  147MOL0     C20157   2.094   7.314   8.521 -0.6875  0.3880 -0.2931
  147MOL0     C20158   2.233   7.319   8.582 -0.6274 -0.3483 -0.3206
  147MOL0     C20159   2.345   7.345   8.484 -0.9086 -0.3247 -0.5286
  147MOL0     C20160   2.480   7.333   8.562  0.0857  1.1068 -0.3935
  147MOL0     C20161   2.609   7.364   8.482  0.2337 -1.0208 -0.6158
  147MOL0     C20162   2.651   7.260   8.383 -0.4780 -0.5934  0.0414
  147MOL0     C20163   2.773   7.318   8.305  0.0276 -0.1858  0.1890
  147MOL0     C20164   2.904   7.295   8.387 -0.3819 -0.5513  0.4633
  147MOL0     N20165   3.018   7.364   8.320  0.2135 -0.5798  0.3001
  147MOL0     C20166   3.041   7.385   8.182 -0.4502 -0.0019  0.7676
  147MOL0     C20167   3.139   7.476   8.175 -0.1650  1.5582  0.0202
  147MOL0     C20168   3.208   7.521   8.050 -0.5095  0.1713  0.9772
  147MOL0     C20169   3.345   7.457   8.053 -0.0689 -0.8129 -0.3153
  147MOL0     C20170   3.455   7.542   8.135 -0.1655  0.1868  0.2866
  147MOL0     C20171   3.602   7.544   8.087  0.2319 -0.7086 -0.2615
  147MOL0     O20172   3.643   7.409   8.097  0.3582 -0.1898 -0.1440
  147MOL0     C20173   3.766   7.360   8.100  0.5583 -0.1337 -0.6770
  147MOL0     C20174   3.774   7.234   8.161  0.0201 -0.0101  0.2865
  147MOL0     C20175   3.897   7.181   8.184  0.7160  0.1408  0.1235
  147MOL0     C20176   3.889   7.039   8.228  0.3343 -0.0718  0.8921
  147MOL0     C20177   4.013   7.258   8.180  0.4930 -0.1189  0.1213
  147MOL0     C20178   4.146   7.220   8.225 -0.1928  0.5390  0.3239
  147MOL0     O20179   4.173   7.088   8.239 -0.0039  0.4109  0.2240
  147MOL0     C20180   4.278   7.030   8.296 -0.1729 -0.5098  0.8450
  147MOL0     C20181   4.374   7.082   8.379 -0.5139  0.0618  0.2032
  147MOL0     C20182   4.480   7.002   8.419 -0.1674 -0.5073  0.6877
  147MOL0     C20183   4.496   6.873   8.376  0.3911 -0.6094 -0.2021
  147MOL0     O20184   4.603   6.809   8.426  0.4151 -0.3057 -0.0080
  147MOL0     C20185   4.663   6.709   8.344  0.2276 -0.1784  0.5903
  147MOL0     C20186   4.805   6.681   8.401 -0.5507 -0.2802  0.4111
  147MOL0     C20187   4.815   6.661   8.553 -0.8179 -0.3348  0.6175
  147MOL0     C20188   4.958   6.620   8.589  0.8404 -0.2898  0.0673
  147MOL0     C20189   4.994   6.674   8.726  0.6796  0.7175  0.4592
  147MOL0     C20190   5.147   6.655   8.752  0.7979 -0.4252 -0.1857
  147MOL0     C20191   5.210   6.515   8.711  0.6487 -0.7690  0.5489
  147MOL0     C20192   5.350   6.485   8.765 -0.2518 -0.0103 -0.8095
  147MOL0    Cl20193   5.452   6.604   8.675  0.0062  0.1523  0.3897
  147MOL0     C20194   4.402   6.814   8.291  0.1980 -1.2586  0.3713
  147MOL0     C20195   4.285   6.894   8.259 -0.3918 -0.2617  0.9287
  147MOL0     O20196   4.223   7.306   8.255 -0.1296 -0.1477  0.5916
  147MOL0     C20197   3.998   7.391   8.120 -0.0200  0.2509 -0.3196
  147MOL0     C20198   3.876   7.444   8.084  0.1097  0.1219 -0.7101
  147MOL0     N20199   3.174   7.510   8.307 -0.6159 -0.1611  0.1421
  147MOL0     N20200   3.100   7.450   8.388 -0.1132 -0.3110 -0.0956
  147MOL0     C20201   1.823   7.377   8.455 -0.7341 -0.3775 -1.1965
  147MOL0     C20202   1.688   7.398   8.478 -0.1465 -0.2467 -0.6445
  147MOL0     C20203   1.293   7.605   8.510 -0.3023  0.2691 -0.6983
  147MOL0     C20204   1.236   7.726   8.538  0.2859  0.1405  0.6143
  147MOL0     C20205   1.106   7.737   8.590 -0.9299 -0.8556  0.1028
  147MOL0     C20206   1.022   7.631   8.606 -0.3631  0.9765  0.2223
  147MOL0     O20207   0.907   7.631   8.667 -0.1712 -0.6115  0.3082
  147MOL0     C20208   0.803   7.582   8.581  0.4861 -0.7233  0.3907
  147MOL0     C20209   0.667   7.640   8.625  0.0552 -0.4442  1.3362
  147MOL0     C20210   0.544   7.574   8.540  1.1172  0.1785 -0.2408
  147MOL0     C20211   0.545   7.616   8.390 -0.1495 -0.8159  0.6683
  147MOL0     C20212   0.502   7.510   8.290  0.0562  0.1187 -0.3955
  147MOL0     C20213   0.460   7.424   8.216 -0.1810  1.0468  0.5763
  147MOL0     C20214   1.079   7.507   8.553  0.2538 -0.4430 -0.0253
  147MOL0     C20215   1.213   7.487   8.522 -1.1285  0.1726  0.1311
  147MOL0     C20216   1.269   7.349   8.502  0.3499  0.2253  0.9753
  147MOL0     H20217   1.691   7.698   8.626  0.5778 -0.3266 -0.6334
  147MOL0     H20218   1.945   7.663   8.591  2.0324 -0.9575 -0.6059
  147MOL0     H20219   2.104   7.256   8.428 -1.7743 -1.9340  0.9687
  147MOL0     H20220   2.033   7.256   8.591  3.1809 -2.4116  1.0901
  147MOL0     H20221   2.240   7.392   8.663 -2.8839  0.0887 -0.4688
  147MOL0     H20222   2.247   7.220   8.627 -0.6057 -0.3799 -0.3969
  147MOL0     H20223   2.342   7.278   8.397  0.5832  0.2447 -1.0481
  147MOL0     H20224   2.331   7.445   8.442  0.9842 -0.0432 -0.5629
  147MOL0     H20225   2.467   7.396   8.650  0.0200  1.3134 -0.5512
  147MOL0     H20226   2.492   7.231   8.601 -2.2985  1.4918  1.6118
  147MOL0     H20227   2.691   7.377   8.553 -1.7772 -1.0973  1.8765
  147MOL0     H20228   2.601   7.461   8.433  0.7037 -0.9480 -0.5522
  147MOL0     H20229   2.684   7.169   8.433  0.4676 -0.6605 -0.6718
  147MOL0     H20230   2.564   7.233   8.323 -0.3289  1.0625 -1.0046
  147MOL0     H20231   2.756   7.422   8.275  1.2195  0.7478  2.5000
  147MOL0     H20232   2.774   7.264   8.210 -3.1033 -0.3487  0.1615
  147MOL0     H20233   2.896   7.319   8.493 -0.6382  0.3959  0.2386
  147MOL0     H20234   2.929   7.189   8.391  3.0147  0.0095 -1.4845
  147MOL0     H20235   3.013   7.321   8.099  0.0483 -1.3315  1.5675
  147MOL0     H20236   3.222   7.628   8.034 -0.1318 -0.3568 -3.3445
  147MOL0     H20237   3.149   7.478   7.968  1.5467 -0.7664 -0.0951
  147MOL0     H20238   3.342   7.351   8.080 -1.6282 -0.1900  2.3779
  147MOL0     H20239   3.377   7.463   7.949 -4.1668 -0.7047 -1.7536
  147MOL0     H20240   3.430   7.649   8.144 -0.1701  0.5743 -3.0856
  147MOL0     H20241   3.468   7.503   8.236 -1.3022  0.8702  0.7235
  147MOL0     H20242   3.606   7.592   7.989 -1.3348  1.1901  0.5308
  147MOL0     H20243   3.670   7.600   8.152 -1.2724  0.4176  0.4039
  147MOL0     H20244   3.678   7.184   8.168 -0.1156  0.3887  1.6939
  147MOL0     H20245   3.888   7.031   8.337  3.0693 -2.2584  0.8772
  147MOL0     H20246   3.967   6.968   8.198  0.0382 -0.2331  0.4905
  147MOL0     H20247   3.796   6.992   8.196 -0.8535  1.7972  1.4871
  147MOL0     H20248   4.352   7.176   8.429 -1.1080 -0.6325  1.3021
  147MOL0     H20249   4.568   7.032   8.476  0.4029 -3.0295  1.2762
  147MOL0     H20250   4.603   6.619   8.331  1.4277 -0.5725 -3.2592
  147MOL0     H20251   4.673   6.746   8.242  0.6670 -0.2310  0.6141
  147MOL0     H20252   4.832   6.584   8.357 -1.0755  0.2961 -1.2547
  147MOL0     H20253   4.876   6.757   8.371  0.7334 -0.8404  1.9133
  147MOL0     H20254   4.750   6.573   8.565 -2.0336  0.6914  2.0340
  147MOL0     H20255   4.784   6.742   8.619 -0.5726  0.3305 -0.0674
  147MOL0     H20256   5.029   6.664   8.518 -0.7709  2.6595  0.1243
  147MOL0     H20257   4.966   6.511   8.595  1.1475 -0.6166 -3.8711
  147MOL0     H20258   4.977   6.782   8.739  0.6731  0.5233  2.4028
  147MOL0     H20259   4.934   6.623   8.802  2.5467 -0.4022  1.2650
  147MOL0     H20260   5.168   6.683   8.856 -0.0051  3.0865 -0.8401
  147MOL0     H20261   5.211   6.731   8.706  0.5127  1.8196  2.7803
  147MOL0     H20262   5.210   6.519   8.601  1.8043  0.1343  0.5596
  147MOL0     H20263   5.151   6.432   8.753 -2.4791  1.9141  1.8827
  147MOL0     H20264   5.385   6.382   8.753 -2.0906 -0.8083  0.2902
  147MOL0     H20265   5.350   6.509   8.871  0.0858 -1.7207 -0.3996
  147MOL0     H20266   4.420   6.712   8.258  0.1081 -0.5733 -1.9768
  147MOL0     H20267   4.207   6.853   8.195  0.4381 -2.1009  1.0361
  147MOL0     H20268   4.078   7.461   8.099  1.0606 -1.2183 -1.2388
  147MOL0     H20269   3.882   7.546   8.045  1.2836 -0.1506 -1.2906
  147MOL0     H20270   1.844   7.272   8.440 -2.1196 -0.8772  0.0829
  147MOL0     H20271   1.629   7.308   8.491  3.0961 -2.3583  0.9769
  147MOL0     H20272   1.290   7.820   8.529  0.0813  0.0728 -2.4754
  147MOL0     H20273   1.085   7.838   8.626  0.6236 -1.1311  1.9602
  147MOL0     H20274   0.817   7.597   8.473 -1.1356 -0.0854  0.2370
  147MOL0     H20275   0.804   7.474   8.596  1.3004 -1.1407 -2.1883
  147MOL0     H20276   0.664   7.749   8.623  1.4773 -0.3817 -0.5167
  147MOL0     H20277   0.649   7.616   8.730  2.2560 -1.6555  1.5032
  147MOL0     H20278   0.545   7.464   8.542 -0.9018 -0.0959 -4.2740
  147MOL0     H20279   0.447   7.605   8.579  0.0676 -1.2810 -1.5413
  147MOL0     H20280   0.652   7.634   8.375 -0.1144  0.4138  2.1442
  147MOL0     H20281   0.501   7.715   8.372 -0.6140  0.1073  5.4814
  147MOL0     H20282   0.420   7.350   8.149  0.2022 -0.6467  2.1425
  147MOL0     H20283   1.015   7.420   8.559  1.3166 -1.1993  0.6733
  147MOL0     H20284   1.357   7.338   8.565  1.7327  1.1653 -0.6938
  147MOL0     H20285   1.190   7.278   8.527  0.0880 -1.1970 -3.0943
  147MOL0     H20286   1.293   7.329   8.397 -0.6297 -1.4079  1.0321
  148MOL0     O20287   6.458   7.549   2.064 -0.1413  0.0669  0.2077
  148MOL0     C20288   6.473   7.460   1.989 -0.1159  0.4130  1.1802
  148MOL0     O20289   6.591   7.398   1.966  0.5985  0.2043 -0.4628
  148MOL0     C20290   6.691   7.419   2.057 -0.6147 -0.0421  0.5399
  148MOL0     C20291   6.703   7.333   2.166  0.2878 -0.8458  0.1891
  148MOL0     C20292   6.807   7.360   2.255  0.3885  0.0953 -0.5261
  148MOL0     C20293   6.890   7.473   2.237  0.3094 -0.2215  0.2262
  148MOL0     O20294   6.984   7.521   2.321 -0.0258 -0.2466  0.6965
  148MOL0     C20295   6.985   7.465   2.455 -0.6633  0.2217  0.3670
  148MOL0     C20296   7.068   7.551   2.540 -0.8093 -0.8653 -0.9861
  148MOL0     C20297   7.219   7.550   2.507  0.0066  0.0582  0.2661
  148MOL0     C20298   7.293   7.652   2.601  0.7520  0.2376  0.3434
  148MOL0     C20299   7.443   7.666   2.574 -0.0681  0.2830  0.4134
  148MOL0     C20300   7.510   7.534   2.586  0.5187 -0.1132  0.6330
  148MOL0     C20301   7.657   7.544   2.574 -0.2881  0.9574 -0.5253
  148MOL0     C20302   7.710   7.401   2.591  0.2212  0.7716 -0.2204
  148MOL0     N20303   7.861   7.393   2.572 -0.2217 -0.2407 -0.5903
  148MOL0     C20304   7.918   7.435   2.457  0.1309  0.2592  0.8442
  148MOL0     C20305   8.051   7.441   2.482  0.5146  0.6433  0.2219
  148MOL0     C20306   8.161   7.491   2.392 -0.4948 -0.7498  0.7709
  148MOL0     C20307   8.289   7.405   2.398  0.8470 -0.2621  0.0478
  148MOL0     C20308   8.398   7.464   2.305  0.1009 -0.1141 -0.2186
  148MOL0     C20309   8.539   7.400   2.337 -0.5082  0.8314  0.0403
  148MOL0     O20310   8.632   7.429   2.224  0.0702 -0.4131 -0.5476
  148MOL0     C20311   8.771   7.424   2.246 -0.1152  0.5032  1.1535
  148MOL0     C20312   8.851   7.494   2.158 -0.1003 -0.3262  0.4229
  148MOL0     C20313   8.989   7.503   2.167 -0.2656 -0.3366  0.4605
  148MOL0     C20314   9.054   7.586   2.057  0.8444 -1.3573 -0.2557
  148MOL0     C20315   9.051   7.449   2.277  0.4016 -0.2440  0.5638
  148MOL0     C20316   9.200   7.459   2.312  0.0240 -0.2674  0.9973
  148MOL0     O20317   9.244   7.413   2.431  0.5975  0.1120 -0.0208
  148MOL0     C20318   9.377   7.417   2.458  0.4729  0.5335  0.6534
  148MOL0     C20319   9.412   7.470   2.584  0.8694 -0.1485 -0.7024
  148MOL0     C20320   9.547   7.488   2.616 -0.2464 -0.1690  0.7865
  148MOL0     C20321   9.643   7.455   2.520  0.5551 -0.1798 -0.8443
  148MOL0     O20322   9.773   7.481   2.531  0.1108 -0.0313  0.3609
  148MOL0     C20323   9.825   7.512   2.659  0.9062  0.4996 -0.7094
  148MOL0     C20324   9.967   7.556   2.646 -0.5945 -0.2112  0.0610
  148MOL0     C20325  10.080   7.448   2.653 -0.8969 -0.4285  0.2423
  148MOL0     C20326  10.214   7.507   2.702 -0.3848 -0.1622 -0.4548
  148MOL0     C20327  10.323   7.405   2.693  0.9420  0.6110  0.2376
  148MOL0     C20328  10.459   7.459   2.721  0.2660  0.5172  0.4449
  148MOL0     C20329  10.579   7.359   2.721 -0.3705  0.2374  0.2715
  148MOL0     C20330  10.558   7.252   2.831 -0.5065 -0.4219 -0.3156
  148MOL0    Cl20331  10.705   7.155   2.858  0.3394 -0.3902  0.0170
  148MOL0     C20332   9.601   7.404   2.402  0.3615  0.8149  0.1637
  148MOL0     C20333   9.474   7.381   2.364  0.7586 -0.4250  0.2648
  148MOL0     O20334   9.268   7.518   2.231 -0.1530  0.3139  0.1647
  148MOL0     C20335   8.977   7.379   2.374  0.5258 -0.4011 -0.8801
  148MOL0     C20336   8.837   7.366   2.352  0.4560 -0.7795  0.3030
  148MOL0     N20337   8.065   7.401   2.610 -0.0330 -0.3779  0.3492
  148MOL0     N20338   7.957   7.379   2.664 -0.9311  0.1749 -0.1852
  148MOL0     C20339   6.877   7.553   2.129 -0.1703 -0.0683  0.7968
  148MOL0     C20340   6.780   7.524   2.038 -0.1965 -0.5973 -0.6974
  148MOL0     C20341   6.352   7.394   1.918  0.2190 -0.0868 -0.5983
  148MOL0     C20342   6.373   7.289   1.825 -1.1569  0.4490 -0.0860
  148MOL0     C20343   6.275   7.222   1.756 -0.0285 -0.7378  0.5389
  148MOL0     C20344   6.141   7.265   1.764 -0.4349 -0.2718 -0.0534
  148MOL0     O20345   6.041   7.200   1.688  0.4047  0.8279 -0.4167
  148MOL0     C20346   5.904   7.242   1.702 -0.5112  0.2800  0.4065
  148MOL0     C20347   5.841   7.196   1.836 -0.2132 -0.6728 -0.0220
  148MOL0     C20348   5.858   7.043   1.863 -0.3160  0.1715 -0.6923
  148MOL0     C20349   5.807   6.960   1.758  0.7350 -1.1904 -0.6753
  148MOL0     C20350   5.837   6.824   1.799  0.2687  0.5284 -0.5256
  148MOL0     C20351   5.862   6.712   1.843 -0.3231  0.1677  0.5734
  148MOL0     C20352   6.118   7.378   1.843  0.8969  0.3784  0.0048
  148MOL0     C20353   6.217   7.439   1.919  0.1494 -0.7609  0.3406
  148MOL0     C20354   6.173   7.549   2.015 -0.5584 -0.3869  0.5303
  148MOL0     H20355   6.642   7.243   2.175  0.8111 -1.1013  1.3671
  148MOL0     H20356   6.813   7.283   2.332  0.2889  0.4455 -0.1653
  148MOL0     H20357   7.025   7.363   2.447 -1.3568  0.0013 -0.3709
  148MOL0     H20358   6.888   7.465   2.506 -0.3470 -0.3969  0.9739
  148MOL0     H20359   7.026   7.651   2.529 -0.9893 -1.1612 -3.8230
  148MOL0     H20360   7.066   7.515   2.643  0.6150  1.8453  0.0822
  148MOL0     H20361   7.247   7.446   2.528  1.5639  0.1827 -0.9586
  148MOL0     H20362   7.232   7.569   2.400 -1.9336 -1.6534 -0.3207
  148MOL0     H20363   7.250   7.751   2.581  1.6665  0.5361 -0.2107
  148MOL0     H20364   7.271   7.626   2.705 -3.3403 -0.8843 -0.6125
  148MOL0     H20365   7.485   7.740   2.643  0.0952  0.8229 -0.2474
  148MOL0     H20366   7.455   7.703   2.471 -1.9771 -0.0702  0.0402
  148MOL0     H20367   7.485   7.494   2.685  3.6054 -1.5493  0.9625
  148MOL0     H20368   7.467   7.472   2.507 -2.4518  1.3875  0.9270
  148MOL0     H20369   7.694   7.610   2.653 -1.3300  2.7089 -1.4313
  148MOL0     H20370   7.693   7.595   2.484  2.3672 -0.0336 -0.1390
  148MOL0     H20371   7.690   7.362   2.692  2.5348 -0.8162 -0.2944
  148MOL0     H20372   7.658   7.334   2.522  2.0418 -1.4547  0.4481
  148MOL0     H20373   7.869   7.470   2.366 -1.3043 -3.8143 -0.1557
  148MOL0     H20374   8.179   7.593   2.426 -0.5924 -0.3132 -0.4430
  148MOL0     H20375   8.125   7.490   2.288  0.2601 -1.6810  0.5020
  148MOL0     H20376   8.329   7.405   2.499  0.5729 -1.1787  0.1611
  148MOL0     H20377   8.260   7.305   2.365 -0.6502 -0.1927  1.0742
  148MOL0     H20378   8.373   7.445   2.200  2.7763  0.4351 -1.0443
  148MOL0     H20379   8.413   7.572   2.304 -3.0117  0.4329 -2.5401
  148MOL0     H20380   8.580   7.438   2.431 -0.5410 -1.0856  0.8759
  148MOL0     H20381   8.527   7.295   2.363  1.2372  0.8805  1.2184
  148MOL0     H20382   8.797   7.547   2.081 -3.3010  0.1310  2.7713
  148MOL0     H20383   9.131   7.531   2.002  1.9460  1.9820 -2.3745
  148MOL0     H20384   9.099   7.680   2.089 -2.9806  0.4104  0.4547
  148MOL0     H20385   8.988   7.621   1.977 -3.4913 -1.5323  2.9181
  148MOL0     H20386   9.338   7.485   2.662  3.0835  0.9344  1.3073
  148MOL0     H20387   9.570   7.535   2.711  1.6205  1.9553 -0.6141
  148MOL0     H20388   9.779   7.597   2.711  2.5313  0.2923  1.1973
  148MOL0     H20389   9.818   7.422   2.720 -1.9146 -0.4055 -2.2021
  148MOL0     H20390   9.974   7.596   2.545  0.4504 -2.1247 -0.6870
  148MOL0     H20391   9.984   7.625   2.729 -0.9107  1.5632 -1.2958
  148MOL0     H20392  10.095   7.403   2.555  0.4933  1.1827 -0.3382
  148MOL0     H20393  10.044   7.365   2.715 -0.3656  0.7833  2.2827
  148MOL0     H20394  10.197   7.545   2.803  1.3306 -3.1944  1.1256
  148MOL0     H20395  10.237   7.588   2.633 -0.4606  0.2006 -0.0559
  148MOL0     H20396  10.305   7.331   2.772  1.0177  0.0230 -0.2807
  148MOL0     H20397  10.325   7.359   2.594  1.7471 -0.4473  0.7180
  148MOL0     H20398  10.456   7.506   2.820 -1.0399  1.0201  0.1928
  148MOL0     H20399  10.480   7.541   2.651  0.2017  2.2395  2.3460
  148MOL0     H20400  10.671   7.416   2.734 -0.6226  0.5776  0.5745
  148MOL0     H20401  10.592   7.308   2.625  1.5001  1.0633  0.0422
  148MOL0     H20402  10.477   7.189   2.793  0.0539  0.2081 -2.6837
  148MOL0     H20403  10.528   7.297   2.926  1.6694 -0.1163  0.2892
  148MOL0     H20404   9.685   7.386   2.336  0.6977  0.1508  0.7584
  148MOL0     H20405   9.449   7.345   2.265 -2.1622  2.6168 -0.2689
  148MOL0     H20406   9.024   7.357   2.469 -0.3254  0.6915 -0.1833
  148MOL0     H20407   8.777   7.301   2.415 -3.0582  0.0110 -1.9595
  148MOL0     H20408   6.938   7.643   2.120 -0.1352 -0.2217 -0.6484
  148MOL0     H20409   6.762   7.576   1.945 -3.4015 -1.2741 -0.5732
  148MOL0     H20410   6.465   7.234   1.807 -2.5130 -1.3551 -1.9929
  148MOL0     H20411   6.306   7.152   1.680 -2.0234 -0.8391 -0.2457
  148MOL0     H20412   5.898   7.350   1.693  1.9390  0.4378  0.1012
  148MOL0     H20413   5.854   7.198   1.614  1.1982 -2.3846  0.6504
  148MOL0     H20414   5.734   7.216   1.828 -0.1325 -0.7581 -1.5871
  148MOL0     H20415   5.877   7.255   1.921 -3.1493 -2.2612  2.5281
  148MOL0     H20416   5.964   7.016   1.871 -0.4029  0.1275  0.6782
  148MOL0     H20417   5.823   7.026   1.966 -0.8504  2.7718 -0.3904
  148MOL0     H20418   5.864   6.979   1.666  0.9546 -0.6434 -0.4314
  148MOL0     H20419   5.700   6.980   1.751  0.7245 -0.4497  1.0950
  148MOL0     H20420   5.870   6.612   1.879  2.6826 -1.2264 -3.2966
  148MOL0     H20421   6.014   7.407   1.849  0.5511 -0.8860  0.4120
  148MOL0     H20422   6.204   7.646   1.977  1.2298 -0.8160  0.8273
  148MOL0     H20423   6.064   7.554   2.026 -0.6274 -0.4682 -0.1063
  148MOL0     H20424   6.206   7.537   2.118 -0.4403  0.3699  0.5852
  149MOL0     O20425   7.406   2.326   3.027 -0.0276 -0.2441  0.8702
  149MOL0     C20426   7.321   2.282   2.945  0.4271 -0.6470  0.4271
  149MOL0     O20427   7.213   2.349   2.889  0.5731  0.3979 -0.3790
  149MOL0     C20428   7.211   2.480   2.916  0.3476  0.6215 -0.7689
  149MOL0     C20429   7.130   2.531   3.015 -0.0288  0.8822  0.8871
  149MOL0     C20430   7.135   2.666   3.051 -0.5968  0.4967  0.1371
  149MOL0     C20431   7.231   2.753   2.994  0.3397  0.0754 -0.2105
  149MOL0     O20432   7.261   2.881   3.021  0.0966  0.2336 -0.0248
  149MOL0     C20433   7.260   2.925   3.155 -0.3842 -0.5815  0.9770
  149MOL0     C20434   7.134   3.017   3.178  0.5217 -0.5185 -0.9006
  149MOL0     C20435   7.173   3.158   3.133  0.5180  0.5208  1.1177
  149MOL0     C20436   7.052   3.254   3.170 -0.5985  0.0040 -0.4173
  149MOL0     C20437   7.063   3.397   3.110 -0.5852  1.1402  0.4040
  149MOL0     C20438   7.124   3.417   2.968  1.0988 -0.2759  0.3978
  149MOL0     C20439   7.041   3.341   2.860  1.0850  0.3495  0.3905
  149MOL0     C20440   6.920   3.423   2.803 -0.2547  0.2625 -0.3764
  149MOL0     N20441   6.954   3.471   2.667 -0.2575 -0.5202 -0.7078
  149MOL0     C20442   7.028   3.581   2.632  1.0918  0.2707 -0.2048
  149MOL0     C20443   7.033   3.570   2.495 -1.0986 -0.7134 -0.4429
  149MOL0     C20444   7.099   3.674   2.397 -0.2396  0.3458  0.5972
  149MOL0     C20445   7.162   3.623   2.260  0.1746 -0.1374 -0.2758
  149MOL0     C20446   7.258   3.511   2.279  0.4673  0.0840 -0.5932
  149MOL0     C20447   7.358   3.487   2.163 -0.5494  0.3105 -0.8088
  149MOL0     O20448   7.448   3.601   2.150 -0.2681 -0.4655 -0.4948
  149MOL0     C20449   7.581   3.568   2.167 -0.3637 -0.1564 -0.2790
  149MOL0     C20450   7.652   3.468   2.099  0.3163 -0.4046 -0.0008
  149MOL0     C20451   7.787   3.444   2.119 -0.6764  0.1808 -0.1813
  149MOL0     C20452   7.858   3.340   2.029  0.1199 -0.6600  0.2424
  149MOL0     C20453   7.856   3.508   2.232 -0.8259  0.0185 -0.2498
  149MOL0     C20454   8.000   3.492   2.275 -0.6223 -0.3353  0.9377
  149MOL0     O20455   8.069   3.602   2.322  0.2009 -0.0972 -0.1287
  149MOL0     C20456   8.198   3.586   2.372  0.2087 -0.1580 -0.2862
  149MOL0     C20457   8.233   3.476   2.450 -0.4833  0.7402 -0.9810
  149MOL0     C20458   8.361   3.456   2.501  0.5404  0.1115 -0.3503
  149MOL0     C20459   8.456   3.552   2.467  0.0205  0.8869 -0.4102
  149MOL0     O20460   8.573   3.575   2.531 -0.1534  0.1706 -0.2722
  149MOL0     C20461   8.652   3.466   2.570  0.4147 -0.3469 -0.0811
  149MOL0     C20462   8.754   3.526   2.661  0.3007 -0.4144  0.1009
  149MOL0     C20463   8.860   3.422   2.698 -0.5141 -0.2647  0.3626
  149MOL0     C20464   8.910   3.454   2.842  0.0225  1.9777  0.4348
  149MOL0     C20465   9.005   3.346   2.887 -0.0056 -0.9775  0.4606
  149MOL0     C20466   9.027   3.347   3.032 -0.2988  1.0502  0.6903
  149MOL0     C20467   9.073   3.215   3.086 -0.2126  1.0174  0.1165
  149MOL0     C20468   9.064   3.204   3.239  0.3841 -0.3151 -0.5371
  149MOL0    Cl20469   9.120   3.356   3.321  0.8681  0.2069  0.1996
  149MOL0     C20470   8.428   3.658   2.391  0.0317  0.3949 -0.2802
  149MOL0     C20471   8.299   3.675   2.342  0.2619 -0.0095 -0.6562
  149MOL0     O20472   8.050   3.384   2.247  0.3185  0.2313  0.3238
  149MOL0     C20473   7.784   3.601   2.308 -0.1857 -0.2775  0.1241
  149MOL0     C20474   7.650   3.633   2.269  0.2893 -0.4974  0.0453
  149MOL0     N20475   6.960   3.459   2.456  0.2715 -0.2333  0.5475
  149MOL0     N20476   6.912   3.407   2.557 -0.1383 -0.1097  0.4580
  149MOL0     C20477   7.296   2.704   2.879 -0.4461  0.1178  0.0107
  149MOL0     C20478   7.290   2.571   2.837 -0.0127 -1.1881  0.3877
  149MOL0     C20479   7.329   2.132   2.925  0.3835  0.0141 -0.9575
  149MOL0     C20480   7.349   2.053   3.036  0.3581 -0.2492  0.8329
  149MOL0     C20481   7.343   1.911   3.027  0.0147  0.2003 -0.6701
  149MOL0     C20482   7.355   1.852   2.897  0.0333  0.2559  0.5205
  149MOL0     O20483   7.394   1.723   2.887  0.2320 -0.7758 -0.6268
  149MOL0     C20484   7.403   1.655   2.764 -0.2407 -0.6245  0.8858
  149MOL0     C20485   7.429   1.511   2.781 -0.2939 -0.2806  0.2587
  149MOL0     C20486   7.575   1.481   2.810 -0.3610 -0.1994 -0.4727
  149MOL0     C20487   7.602   1.326   2.805 -0.0914 -0.2457  0.3924
  149MOL0     C20488   7.574   1.270   2.670 -0.5594  0.3492 -0.3379
  149MOL0     C20489   7.553   1.228   2.560 -0.0094 -0.0866  1.0312
  149MOL0     C20490   7.333   1.938   2.780 -0.0854 -0.1279  0.0528
  149MOL0     C20491   7.320   2.073   2.799  0.0626  0.0111  0.2956
  149MOL0     C20492   7.302   2.149   2.664  0.5946 -0.5186 -1.3121
  149MOL0     H20493   7.073   2.459   3.073  0.1261  0.4235  0.4809
  149MOL0     H20494   7.071   2.700   3.131 -2.2172  2.1704 -1.7550
  149MOL0     H20495   7.345   2.990   3.178 -1.0351  0.2360  1.1214
  149MOL0     H20496   7.271   2.844   3.227  1.5153 -1.3045 -0.0464
  149MOL0     H20497   7.050   2.971   3.125  1.0743  0.6859 -2.9372
  149MOL0     H20498   7.106   3.018   3.284 -2.1983  0.9199 -1.5406
  149MOL0     H20499   7.270   3.187   3.175 -0.0393  1.2749  1.9271
  149MOL0     H20500   7.200   3.150   3.027 -2.3515 -1.9975  0.4288
  149MOL0     H20501   6.963   3.204   3.130 -2.3211  0.3862  2.6744
  149MOL0     H20502   7.033   3.249   3.277 -2.5638 -2.7819 -0.7881
  149MOL0     H20503   7.127   3.452   3.179 -1.5694  0.5757  1.8178
  149MOL0     H20504   6.963   3.441   3.107 -0.4103  1.4868 -1.3017
  149MOL0     H20505   7.129   3.525   2.951 -1.6410 -0.3446 -1.5723
  149MOL0     H20506   7.226   3.380   2.977  1.4416  0.4613 -0.3067
  149MOL0     H20507   7.014   3.240   2.893 -2.1378  1.4412  1.4775
  149MOL0     H20508   7.098   3.322   2.768  0.5830 -1.4353  0.4102
  149MOL0     H20509   6.841   3.348   2.793 -0.1716  0.2080 -0.6431
  149MOL0     H20510   6.896   3.500   2.877 -2.3375 -0.4056 -0.2970
  149MOL0     H20511   7.070   3.652   2.703  0.3447 -0.5427  1.0808
  149MOL0     H20512   7.179   3.715   2.459 -2.7746  1.5859  3.2691
  149MOL0     H20513   7.026   3.751   2.373  1.6035  3.1824  3.3046
  149MOL0     H20514   7.074   3.585   2.207 -0.3894  0.4289  0.2356
  149MOL0     H20515   7.200   3.707   2.201  1.2055  1.2379  2.1756
  149MOL0     H20516   7.309   3.519   2.375 -0.7434  2.1942 -0.0743
  149MOL0     H20517   7.198   3.420   2.293  1.2378 -0.5243 -1.1537
  149MOL0     H20518   7.410   3.396   2.191  1.1325  1.5941  0.4229
  149MOL0     H20519   7.294   3.471   2.075 -5.0194  0.3331  2.1319
  149MOL0     H20520   7.596   3.421   2.018 -0.4657 -1.3959  1.0673
  149MOL0     H20521   7.786   3.302   1.957 -1.8951  3.3494 -0.1303
  149MOL0     H20522   7.887   3.257   2.094 -1.9229 -2.3714 -0.9174
  149MOL0     H20523   7.947   3.382   1.982  2.1550 -3.2502  1.5321
  149MOL0     H20524   8.160   3.409   2.496  1.1874  0.3018  1.2135
  149MOL0     H20525   8.383   3.376   2.572 -3.1487  0.6179  1.5917
  149MOL0     H20526   8.590   3.389   2.617 -1.4019  0.6507 -0.7484
  149MOL0     H20527   8.691   3.418   2.480 -0.0404 -1.4565  0.2973
  149MOL0     H20528   8.804   3.612   2.615  3.3647 -1.2248  1.6056
  149MOL0     H20529   8.701   3.567   2.748 -3.3138 -0.7138 -1.7787
  149MOL0     H20530   8.945   3.434   2.631 -1.6362  3.0148 -0.6385
  149MOL0     H20531   8.819   3.320   2.692 -0.4610 -0.2294 -4.0742
  149MOL0     H20532   8.826   3.453   2.912  0.5730  1.5883  1.0965
  149MOL0     H20533   8.968   3.546   2.850  1.7841  0.8555  1.2342
  149MOL0     H20534   8.954   3.255   2.852 -2.7733  0.6840 -0.1297
  149MOL0     H20535   9.103   3.361   2.841 -0.7998 -0.6738 -1.2112
  149MOL0     H20536   8.936   3.358   3.093 -0.4553  1.7753  0.3451
  149MOL0     H20537   9.096   3.429   3.055  2.1119 -0.3533 -1.0711
  149MOL0     H20538   9.172   3.184   3.053  0.1414 -1.6785  3.2670
  149MOL0     H20539   9.006   3.135   3.050  1.6498 -0.7706  0.4507
  149MOL0     H20540   9.130   3.130   3.284  0.6911  0.1281 -0.2503
  149MOL0     H20541   8.962   3.172   3.263 -0.8940  3.5128 -0.0887
  149MOL0     H20542   8.499   3.739   2.381  1.7060 -0.6775  2.0811
  149MOL0     H20543   8.281   3.759   2.276  3.6458  1.0483 -0.4212
  149MOL0     H20544   7.847   3.653   2.380  0.5181  2.7615 -2.4600
  149MOL0     H20545   7.599   3.705   2.332  1.1280  0.2687 -0.1517
  149MOL0     H20546   7.356   2.771   2.819  0.8768 -0.7446  0.3186
  149MOL0     H20547   7.341   2.534   2.749 -2.7045 -0.5648 -1.5698
  149MOL0     H20548   7.358   2.109   3.129  1.6479  1.8527 -0.4504
  149MOL0     H20549   7.362   1.852   3.116 -1.6665 -0.4612 -0.7219
  149MOL0     H20550   7.301   1.666   2.723  0.4981  0.5273 -0.7901
  149MOL0     H20551   7.472   1.692   2.687 -0.7541 -1.8922 -0.2218
  149MOL0     H20552   7.405   1.467   2.684  0.1871  1.0335 -0.4796
  149MOL0     H20553   7.363   1.469   2.858 -1.6646 -0.6208 -1.0591
  149MOL0     H20554   7.645   1.533   2.745 -1.0608  2.5605  0.8447
  149MOL0     H20555   7.595   1.511   2.913  2.3892 -0.2686 -0.9318
  149MOL0     H20556   7.544   1.272   2.879  2.4095 -1.3435  1.6755
  149MOL0     H20557   7.705   1.300   2.831 -0.7402 -2.1143  1.2901
  149MOL0     H20558   7.536   1.183   2.464 -0.5224 -2.1372  2.0187
  149MOL0     H20559   7.324   1.904   2.678 -0.9654 -0.4752  0.2445
  149MOL0     H20560   7.201   2.123   2.632 -0.5332  2.9326 -0.8887
  149MOL0     H20561   7.306   2.256   2.686 -0.7747 -0.7411  0.2257
  149MOL0     H20562   7.382   2.135   2.591  3.0949 -2.1242  1.4731
  150MOL0     O20563   2.625   8.542   6.070  0.7283  0.3547  0.7710
  150MOL0     C20564   2.668   8.643   6.125  0.0620 -0.5320 -0.3396
  150MOL0     O20565   2.630   8.772   6.099 -0.1362 -1.0193  0.4119
  150MOL0     C20566   2.584   8.799   5.961  0.4035  0.9627 -0.5735
  150MOL0     C20567   2.447   8.788   5.929 -0.2200 -0.3843 -0.5973
  150MOL0     C20568   2.413   8.829   5.796 -0.5073 -0.3700  0.5240
  150MOL0     C20569   2.512   8.877   5.703  0.6499  0.7900  0.6648
  150MOL0     O20570   2.461   8.910   5.583 -0.0519  0.3185  0.2697
  150MOL0     C20571   2.543   8.912   5.467  0.1048 -0.7355  0.6293
  150MOL0     C20572   2.448   8.950   5.345 -0.4602  0.4429 -0.2241
  150MOL0     C20573   2.527   8.910   5.219  0.1231  0.0614 -0.1095
  150MOL0     C20574   2.508   8.754   5.207 -0.1300 -0.3164 -0.2420
  150MOL0     C20575   2.532   8.709   5.059 -0.1543  0.2260 -0.1570
  150MOL0     C20576   2.482   8.567   5.039  0.5259 -0.3116  0.0668
  150MOL0     C20577   2.569   8.490   4.933 -0.3530  0.6787 -0.2634
  150MOL0     C20578   2.709   8.441   4.978 -0.4968 -0.4507  0.2914
  150MOL0     N20579   2.777   8.356   4.879  0.0559 -0.2707 -0.9162
  150MOL0     C20580   2.879   8.394   4.801 -0.1105 -0.1297  0.1423
  150MOL0     C20581   2.905   8.284   4.725 -1.2259  0.1287  0.1596
  150MOL0     C20582   3.028   8.282   4.640 -0.2973 -0.2125  0.5398
  150MOL0     C20583   2.992   8.260   4.498  0.1094  0.1929 -0.2098
  150MOL0     C20584   3.132   8.249   4.428 -0.3320 -1.3114  0.7587
  150MOL0     C20585   3.119   8.208   4.280 -0.8323 -0.3912 -0.5663
  150MOL0     O20586   3.098   8.065   4.253  0.4780  0.2854  0.2318
  150MOL0     C20587   3.195   7.972   4.274  0.8747 -0.6663 -0.4890
  150MOL0     C20588   3.156   7.837   4.258  0.2153  0.2521 -0.0268
  150MOL0     C20589   3.246   7.732   4.300  0.9600 -0.0497  0.0276
  150MOL0     C20590   3.200   7.589   4.287  0.5419 -0.8009  0.9843
  150MOL0     C20591   3.380   7.760   4.333  0.0911 -0.0562 -0.3678
  150MOL0     C20592   3.490   7.663   4.355  0.1505  0.1100 -0.2356
  150MOL0     O20593   3.620   7.711   4.347 -0.3446  0.4910  0.1292
  150MOL0     C20594   3.731   7.620   4.355  0.0897  0.4966 -1.0157
  150MOL0     C20595   3.744   7.499   4.433 -0.7866  0.7430 -0.3150
  150MOL0     C20596   3.857   7.420   4.438 -0.5144 -0.8717 -0.1324
  150MOL0     C20597   3.974   7.458   4.375 -0.0123 -0.0926  0.3233
  150MOL0     O20598   4.098   7.389   4.381  0.7104  0.2637  0.1193
  150MOL0     C20599   4.103   7.256   4.427 -0.7018  0.1524 -0.5978
  150MOL0     C20600   4.250   7.227   4.419  0.8065 -0.6737  0.3526
  150MOL0     C20601   4.309   7.229   4.275 -0.5988 -0.5587 -0.0959
  150MOL0     C20602   4.446   7.151   4.283  0.6534 -0.5078 -0.3870
  150MOL0     C20603   4.525   7.176   4.161  0.3083 -0.6180 -0.5394
  150MOL0     C20604   4.658   7.105   4.155  0.0320  0.0684 -0.1281
  150MOL0     C20605   4.719   7.094   4.012 -0.0956  0.3260 -0.2358
  150MOL0     C20606   4.868   7.052   4.010 -0.1697  0.4096 -0.2884
  150MOL0    Cl20607   4.901   6.906   4.097 -0.2132 -0.0369 -0.1562
  150MOL0     C20608   3.963   7.577   4.305  0.4005  0.2987  0.7249
  150MOL0     C20609   3.849   7.657   4.288  0.2271 -0.1021 -0.7194
  150MOL0     O20610   3.459   7.553   4.399  0.3291 -0.1770  0.6486
  150MOL0     C20611   3.413   7.895   4.333 -0.2260 -0.2639  0.9737
  150MOL0     C20612   3.327   7.997   4.305 -0.3462  0.3939 -0.2319
  150MOL0     N20613   2.812   8.182   4.760  0.1308  0.0499  0.4406
  150MOL0     N20614   2.736   8.238   4.845  0.2835  0.3360  0.0895
  150MOL0     C20615   2.645   8.887   5.744 -0.2847  0.2274 -0.6952
  150MOL0     C20616   2.681   8.851   5.876 -0.1859 -0.1836  0.3371
  150MOL0     C20617   2.759   8.622   6.240 -0.6556 -0.2188 -0.6600
  150MOL0     C20618   2.801   8.739   6.307  0.3547 -0.2830 -0.2772
  150MOL0     C20619   2.877   8.740   6.417  0.7922 -0.1764  0.3889
  150MOL0     C20620   2.932   8.624   6.461  0.1816  0.7923 -0.2792
  150MOL0     O20621   3.006   8.609   6.570 -0.0856  0.4156 -0.5869
  150MOL0     C20622   3.056   8.730   6.640  0.0280 -0.5823 -0.8122
  150MOL0     C20623   3.156   8.691   6.753  0.3208 -0.4647 -0.2882
  150MOL0     C20624   3.200   8.830   6.817 -0.7449  0.4570  1.1732
  150MOL0     C20625   3.320   8.830   6.902 -0.2611 -1.2482  0.1124
  150MOL0     C20626   3.436   8.802   6.822  0.3984  0.3769 -0.0244
  150MOL0     C20627   3.539   8.771   6.760  0.0551 -0.8424  0.7387
  150MOL0     C20628   2.909   8.507   6.395  0.1592  0.1700 -0.5744
  150MOL0     C20629   2.816   8.499   6.288 -0.7752 -0.1832 -0.1222
  150MOL0     C20630   2.808   8.356   6.221 -0.1961  0.1196  0.1558
  150MOL0     H20631   2.380   8.738   5.998 -1.3387  0.5456 -0.9650
  150MOL0     H20632   2.310   8.845   5.766 -0.9894  4.0462  3.5257
  150MOL0     H20633   2.596   8.818   5.453 -0.3061 -0.9558  0.5166
  150MOL0     H20634   2.616   8.992   5.476 -3.1764  2.6390 -0.2931
  150MOL0     H20635   2.356   8.891   5.351  0.4335 -1.0116 -0.2956
  150MOL0     H20636   2.426   9.057   5.351 -2.6960 -0.0331  1.0602
  150MOL0     H20637   2.481   8.960   5.133 -0.3734 -1.9382 -1.0584
  150MOL0     H20638   2.632   8.937   5.233  0.1621 -0.2396  0.1828
  150MOL0     H20639   2.597   8.722   5.262 -0.7662  0.1774  1.0877
  150MOL0     H20640   2.416   8.711   5.247 -0.0052  2.2531  3.3123
  150MOL0     H20641   2.638   8.709   5.035 -0.2255  0.7777 -0.4861
  150MOL0     H20642   2.493   8.773   4.980  0.7968 -0.6773 -1.4002
  150MOL0     H20643   2.502   8.509   5.130 -0.3430 -1.9489 -0.7408
  150MOL0     H20644   2.376   8.567   5.012  0.9042 -2.3633 -1.6853
  150MOL0     H20645   2.570   8.538   4.835  2.2878  0.7458 -0.2770
  150MOL0     H20646   2.509   8.398   4.929  0.4163  0.1926 -0.8817
  150MOL0     H20647   2.766   8.531   5.002 -0.4342  0.4670 -2.8689
  150MOL0     H20648   2.696   8.387   5.072 -3.4597  0.1095  0.2844
  150MOL0     H20649   2.946   8.480   4.804  0.3153 -0.4500 -0.0527
  150MOL0     H20650   3.091   8.198   4.668  0.5742 -0.3669 -1.6852
  150MOL0     H20651   3.087   8.374   4.648 -1.1464  0.2679  1.5637
  150MOL0     H20652   2.939   8.164   4.503  0.9934 -0.2513  1.4815
  150MOL0     H20653   2.921   8.329   4.452 -4.6064 -1.4523  3.7696
  150MOL0     H20654   3.176   8.349   4.432  0.4553 -1.6548  0.9381
  150MOL0     H20655   3.199   8.172   4.468  3.0929 -0.5559 -2.9418
  150MOL0     H20656   3.042   8.277   4.245  0.1100  2.4882  2.5363
  150MOL0     H20657   3.211   8.236   4.228 -0.4323 -0.2939  0.1741
  150MOL0     H20658   3.060   7.816   4.213  0.2115 -0.7817  0.4478
  150MOL0     H20659   3.214   7.534   4.381 -5.8857  0.1293  2.9461
  150MOL0     H20660   3.243   7.552   4.193 -0.1226  3.5758 -1.3007
  150MOL0     H20661   3.092   7.594   4.269  1.0219  2.6318 -2.2688
  150MOL0     H20662   3.661   7.471   4.498  0.1653 -2.4507 -0.3002
  150MOL0     H20663   3.871   7.355   4.524 -2.0156  3.9555  4.3158
  150MOL0     H20664   4.091   7.253   4.536 -0.4713 -2.9148 -0.5520
  150MOL0     H20665   4.050   7.180   4.368 -0.5920 -1.6424  1.4788
  150MOL0     H20666   4.299   7.302   4.482 -0.9187  2.3551 -1.6693
  150MOL0     H20667   4.263   7.125   4.456 -2.0694 -1.1230  0.3548
  150MOL0     H20668   4.333   7.329   4.235  0.3664 -0.8584 -0.2925
  150MOL0     H20669   4.249   7.179   4.199  0.1124 -1.5861  0.0027
  150MOL0     H20670   4.419   7.047   4.299  2.2982 -1.1366 -1.4149
  150MOL0     H20671   4.508   7.182   4.367 -0.3799 -0.9777  0.5700
  150MOL0     H20672   4.462   7.133   4.083  0.7347 -1.0946 -0.6278
  150MOL0     H20673   4.548   7.278   4.129  4.2557 -1.8499 -2.2776
  150MOL0     H20674   4.645   7.005   4.198  4.0744 -1.4767 -1.9919
  150MOL0     H20675   4.729   7.153   4.223 -1.1597  1.4839  0.1761
  150MOL0     H20676   4.712   7.193   3.966 -1.4119 -0.0665 -0.9055
  150MOL0     H20677   4.665   7.019   3.954 -0.7639 -1.7386  2.7714
  150MOL0     H20678   4.933   7.130   4.051  1.2639 -0.6278 -0.5238
  150MOL0     H20679   4.895   7.042   3.904 -0.3684  2.5162 -0.5956
  150MOL0     H20680   4.049   7.620   4.255 -0.7532  1.6627 -0.1609
  150MOL0     H20681   3.849   7.758   4.248  0.0802 -0.5112 -1.7630
  150MOL0     H20682   3.515   7.932   4.332 -0.8066  1.6380 -2.4047
  150MOL0     H20683   3.349   8.103   4.300 -0.3322  0.3645 -0.7736
  150MOL0     H20684   2.723   8.915   5.673  0.6197 -1.2753 -0.3328
  150MOL0     H20685   2.781   8.875   5.911 -1.1440  2.6473  1.4812
  150MOL0     H20686   2.771   8.838   6.273 -0.4107 -0.4161 -0.0107
  150MOL0     H20687   2.898   8.835   6.465  3.2846  1.0994 -2.8897
  150MOL0     H20688   3.103   8.797   6.567  0.9327 -0.3814 -0.0718
  150MOL0     H20689   2.966   8.775   6.683  0.7791  0.1497  0.0629
  150MOL0     H20690   3.242   8.638   6.710  0.7055 -0.5693  0.5935
  150MOL0     H20691   3.098   8.631   6.824  0.3090 -1.8463 -1.4200
  150MOL0     H20692   3.211   8.902   6.736 -1.3490  3.4121  3.5504
  150MOL0     H20693   3.114   8.861   6.877 -0.0748  2.1434  1.3112
  150MOL0     H20694   3.301   8.762   6.986 -2.3088  0.4373  1.0950
  150MOL0     H20695   3.329   8.929   6.947  0.4847 -1.3121  0.1165
  150MOL0     H20696   3.613   8.744   6.687  0.6630  2.6454 -0.1310
  150MOL0     H20697   2.942   8.416   6.444  1.3822  0.1599 -1.3779
  150MOL0     H20698   2.807   8.360   6.112  2.0227 -2.3857 -0.0640
  150MOL0     H20699   2.892   8.295   6.256  1.0505  0.2739 -2.3356
  150MOL0     H20700   2.713   8.306   6.244 -0.8323  0.3322 -1.7991
  151MOL0     O20701   8.280   9.302  10.848  0.6195  0.2227  0.0545
  151MOL0     C20702   8.253   9.408  10.778 -1.0612  0.3996 -0.5155
  151MOL0     O20703   8.334   9.465  10.686 -0.0133 -0.0853 -0.2961
  151MOL0     C20704   8.442   9.386  10.658 -0.4201 -0.4147  0.8244
  151MOL0     C20705   8.571   9.435  10.679  0.2201  0.7543  0.1014
  151MOL0     C20706   8.680   9.364  10.640 -0.2652  1.0959  0.1029
  151MOL0     C20707   8.663   9.236  10.578 -0.0919  0.5686  0.7539
  151MOL0     O20708   8.779   9.173  10.532 -0.3363 -0.2062  0.0882
  151MOL0     C20709   8.786   9.040  10.474  0.2562  0.1688  0.0157
  151MOL0     C20710   8.773   8.929  10.585  0.3624 -0.1764 -0.3131
  151MOL0     C20711   8.768   8.786  10.539  0.5202  0.2857 -0.1476
  151MOL0     C20712   8.636   8.749  10.460  0.3400 -0.1641 -0.4960
  151MOL0     C20713   8.609   8.589  10.478  0.1660 -1.1110  0.0096
  151MOL0     C20714   8.711   8.508  10.398  0.0145 -0.4546  0.2906
  151MOL0     C20715   8.695   8.359  10.438 -1.4800  0.1629 -0.3650
  151MOL0     C20716   8.728   8.306  10.572 -0.3482  0.0813  0.1923
  151MOL0     N20717   8.870   8.331  10.610 -0.6478 -0.6878  0.7207
  151MOL0     C20718   8.907   8.429  10.697  0.5915  0.0842 -0.6544
  151MOL0     C20719   9.039   8.406  10.716 -0.2848  1.0021 -0.7430
  151MOL0     C20720   9.138   8.474  10.813 -0.8822  0.2989  0.5750
  151MOL0     C20721   9.138   8.422  10.963  0.6069  0.5179 -0.0673
  151MOL0     C20722   9.195   8.278  10.980 -0.1566 -0.3055  0.2217
  151MOL0     C20723   9.166   8.217  11.117 -0.4332  0.6950  0.2834
  151MOL0     O20724   9.253   8.281  11.221  1.5357  1.0035 -0.1062
  151MOL0     C20725   9.385   8.275  11.214  0.1216  0.1182 -0.7436
  151MOL0     C20726   9.453   8.377  11.278  0.7174  0.1070 -0.2345
  151MOL0     C20727   9.594   8.376  11.293 -0.4271 -0.1209  0.3021
  151MOL0     C20728   9.662   8.481  11.377  0.5275 -0.4207 -0.7983
  151MOL0     C20729   9.671   8.272  11.226 -0.6166  0.8136 -0.4987
  151MOL0     C20730   9.822   8.267  11.229 -0.0789  0.4847  0.1912
  151MOL0     O20731   9.899   8.363  11.279 -0.1247  0.4865  0.3554
  151MOL0     C20732  10.038   8.360  11.262 -0.2224 -0.2602 -0.6374
  151MOL0     C20733  10.110   8.323  11.147 -0.2057 -0.2892  0.2248
  151MOL0     C20734  10.251   8.310  11.153 -0.4826 -0.0968 -0.6025
  151MOL0     C20735  10.329   8.352  11.270  0.0279  1.5966  0.5278
  151MOL0     O20736  10.467   8.340  11.268  0.3391  0.3306  0.2889
  151MOL0     C20737  10.538   8.370  11.385  0.0089  0.6172  0.9466
  151MOL0     C20738  10.687   8.325  11.400 -0.0786  0.4460 -0.2102
  151MOL0     C20739  10.781   8.380  11.290 -0.2579  0.1213  0.4440
  151MOL0     C20740  10.923   8.375  11.346 -0.2882  0.3195  0.7084
  151MOL0     C20741  11.018   8.381  11.227  0.2854  0.2797  0.6004
  151MOL0     C20742  11.171   8.388  11.278 -0.2446 -0.4458 -0.3705
  151MOL0     C20743  11.268   8.402  11.158 -0.1408 -0.0668 -0.5582
  151MOL0     C20744  11.399   8.336  11.191 -0.7637  0.1578  0.2208
  151MOL0    Cl20745  11.495   8.462  11.280 -0.3194  0.0977 -0.1492
  151MOL0     C20746  10.255   8.401  11.374 -0.1473  0.0773  0.1306
  151MOL0     C20747  10.118   8.404  11.373  0.2103  0.0699 -0.6900
  151MOL0     O20748   9.866   8.179  11.153  0.4466 -0.4768 -0.4811
  151MOL0     C20749   9.599   8.177  11.150 -0.4664  0.3388  0.2758
  151MOL0     C20750   9.460   8.179  11.145 -0.1750  0.1471  0.1546
  151MOL0     N20751   9.080   8.300  10.632 -0.1359  0.0835  0.6225
  151MOL0     N20752   8.977   8.255  10.577  0.6474  0.3181  0.2342
  151MOL0     C20753   8.535   9.185  10.553  0.6356 -0.4474 -0.2466
  151MOL0     C20754   8.426   9.261  10.597  0.0750 -0.7903  0.3330
  151MOL0     C20755   8.129   9.481  10.827 -0.2348 -0.1119  0.3603
  151MOL0     C20756   8.118   9.620  10.796  0.5303 -0.1879 -0.6481
  151MOL0     C20757   8.018   9.698  10.845 -0.5936  0.0281 -0.2894
  151MOL0     C20758   7.912   9.647  10.918 -0.2691 -0.0042  0.1635
  151MOL0     O20759   7.820   9.741  10.958  0.1682  0.0044 -0.0503
  151MOL0     C20760   7.743   9.713  11.078 -0.2305  0.4629  0.2085
  151MOL0     C20761   7.682   9.829  11.157  0.8317 -0.4073 -0.4759
  151MOL0     C20762   7.572   9.893  11.057 -0.1785  0.1189 -0.4656
  151MOL0     C20763   7.516  10.018  11.123  0.1937  0.3709 -0.3221
  151MOL0     C20764   7.453  10.000  11.257 -0.3266 -0.1135  0.4646
  151MOL0     C20765   7.403  10.001  11.366 -0.0402  0.1571  0.4038
  151MOL0     C20766   7.916   9.503  10.948  0.2341 -0.3574 -0.2723
  151MOL0     C20767   8.019   9.426  10.906 -0.2887  0.5661  0.3828
  151MOL0     C20768   8.011   9.279  10.945  0.1510 -0.5095  0.4108
  151MOL0     H20769   8.584   9.535  10.718 -0.0683  0.4986  0.8768
  151MOL0     H20770   8.781   9.397  10.661  0.5017 -0.6657 -0.6863
  151MOL0     H20771   8.884   9.031  10.425 -0.7993  2.4167 -2.8059
  151MOL0     H20772   8.710   9.023  10.397 -0.9528 -1.8751  1.5716
  151MOL0     H20773   8.865   8.944  10.642  0.9545  0.5748 -1.4234
  151MOL0     H20774   8.683   8.955  10.642  0.0297 -4.3268  1.4168
  151MOL0     H20775   8.860   8.779  10.480 -0.3820  0.0603 -1.5709
  151MOL0     H20776   8.771   8.724  10.629  0.7284 -2.1261 -1.7094
  151MOL0     H20777   8.555   8.799  10.513  2.6846 -1.3871  4.9544
  151MOL0     H20778   8.634   8.779  10.355 -3.7748  0.4707 -0.3776
  151MOL0     H20779   8.507   8.558  10.457  0.8069 -1.0056 -3.9477
  151MOL0     H20780   8.627   8.569  10.584  0.5384 -0.5599  0.0577
  151MOL0     H20781   8.686   8.513  10.292 -1.0789  0.1788  0.5641
  151MOL0     H20782   8.815   8.540  10.399  0.5299 -1.8004 -2.0913
  151MOL0     H20783   8.758   8.306  10.366 -1.5493  0.4786 -0.6688
  151MOL0     H20784   8.594   8.319  10.420 -1.1745 -1.6946  1.7708
  151MOL0     H20785   8.661   8.350  10.648  0.3386 -0.6693  1.2537
  151MOL0     H20786   8.715   8.198  10.567 -0.6513  0.1047  0.3790
  151MOL0     H20787   8.846   8.500  10.752  0.6589 -1.6562  1.8526
  151MOL0     H20788   9.115   8.581  10.814  2.0687  1.0580 -1.0249
  151MOL0     H20789   9.239   8.464  10.771 -1.4721  1.6772 -1.3619
  151MOL0     H20790   9.196   8.496  11.020 -0.5268 -0.0881  1.9744
  151MOL0     H20791   9.038   8.440  11.004 -1.4747 -0.4703 -4.2231
  151MOL0     H20792   9.138   8.220  10.907 -0.7814  1.0575 -0.4091
  151MOL0     H20793   9.301   8.268  10.955 -0.3296  0.2945 -0.7870
  151MOL0     H20794   9.061   8.222  11.147 -0.5708 -0.1428 -0.0239
  151MOL0     H20795   9.189   8.110  11.113  0.3110  0.8637 -0.1077
  151MOL0     H20796   9.396   8.450  11.334 -1.4182 -1.6606  0.0210
  151MOL0     H20797   9.729   8.437  11.451 -0.9074  2.9887  2.9062
  151MOL0     H20798   9.584   8.530  11.437 -1.8264 -2.4159 -2.0157
  151MOL0     H20799   9.717   8.549  11.312  2.2280 -0.6313  0.3445
  151MOL0     H20800  10.052   8.284  11.064  0.4217 -3.9118  1.3137
  151MOL0     H20801  10.313   8.284  11.068 -0.4081  0.7806 -0.8235
  151MOL0     H20802  10.543   8.478  11.405  0.7627  0.2756  2.7868
  151MOL0     H20803  10.489   8.328  11.472 -0.7498  0.2443  0.3520
  151MOL0     H20804  10.710   8.361  11.501 -0.2145 -1.3505  0.5097
  151MOL0     H20805  10.694   8.216  11.401 -1.0369  0.3249 -2.4218
  151MOL0     H20806  10.766   8.480  11.248 -2.9820 -0.0052  0.9737
  151MOL0     H20807  10.775   8.312  11.204 -1.3206  0.2711  0.3938
  151MOL0     H20808  10.937   8.279  11.396  0.1108  0.7994  1.5489
  151MOL0     H20809  10.942   8.450  11.423 -0.6620 -1.0531  2.1727
  151MOL0     H20810  11.000   8.299  11.157  2.5871 -0.1672  0.4664
  151MOL0     H20811  10.994   8.466  11.163  1.9665 -0.6925 -1.4083
  151MOL0     H20812  11.201   8.295  11.327 -0.3426  0.2782  1.1124
  151MOL0     H20813  11.188   8.459  11.360  2.4496 -2.0081  0.5458
  151MOL0     H20814  11.290   8.507  11.136  0.6695 -0.3824 -1.2918
  151MOL0     H20815  11.228   8.353  11.069  0.7612  0.2235 -1.1357
  151MOL0     H20816  11.442   8.305  11.095 -0.2607  1.4091  0.0247
  151MOL0     H20817  11.387   8.242  11.245  2.2927 -0.4975 -0.0432
  151MOL0     H20818  10.301   8.431  11.467  2.5461 -0.7741 -0.8354
  151MOL0     H20819  10.064   8.426  11.464 -0.3319 -2.5047 -0.2888
  151MOL0     H20820   9.645   8.096  11.095  0.4761 -0.3878  2.0256
  151MOL0     H20821   9.418   8.114  11.069 -0.7325  2.2752 -1.4682
  151MOL0     H20822   8.513   9.101  10.487 -1.6295  1.7193 -2.4531
  151MOL0     H20823   8.322   9.234  10.582 -1.1301  2.8596  1.2523
  151MOL0     H20824   8.197   9.661  10.733  1.1068  1.0637  0.8348
  151MOL0     H20825   8.024   9.805  10.825 -0.3529  0.5097  2.1653
  151MOL0     H20826   7.664   9.646  11.043  1.1051 -0.3665 -1.3749
  151MOL0     H20827   7.807   9.660  11.150 -0.3855 -0.2897 -0.1998
  151MOL0     H20828   7.755   9.904  11.190  0.6689  0.0005 -1.0278
  151MOL0     H20829   7.629   9.800  11.247 -2.2169  0.9638 -1.6974
  151MOL0     H20830   7.618   9.902  10.958  0.6472 -1.6350 -0.2713
  151MOL0     H20831   7.489   9.822  11.056 -0.7806  0.8060 -1.7419
  151MOL0     H20832   7.447  10.067  11.054  0.4820 -2.4744 -2.8194
  151MOL0     H20833   7.602  10.083  11.142  0.5770 -0.8499  2.7666
  151MOL0     H20834   7.356  10.001  11.462 -2.2235 -3.2736 -0.4824
  151MOL0     H20835   7.833   9.455  10.998  1.9733 -1.1687  1.9585
  151MOL0     H20836   8.088   9.254  11.018  1.7618 -0.6441 -1.2512
  151MOL0     H20837   7.914   9.253  10.987  0.0884 -1.7011 -0.4265
  151MOL0     H20838   8.029   9.219  10.854 -0.4498 -0.1952  0.0803
  152MOL0     O20839   9.892   0.315   6.449 -1.1098 -0.1097 -0.8655
  152MOL0     C20840   9.909   0.224   6.533  0.3639  0.3448 -0.6386
  152MOL0     O20841   9.860   0.226   6.659 -0.3490  0.4172  0.3078
  152MOL0     C20842   9.791   0.330   6.706  0.1696 -0.0439  0.2307
  152MOL0     C20843   9.846   0.418   6.800 -0.3221  0.0299 -0.5495
  152MOL0     C20844   9.761   0.521   6.841  0.4199 -0.1842 -0.0107
  152MOL0     C20845   9.625   0.538   6.797  0.0032 -0.0787 -0.8405
  152MOL0     O20846   9.531   0.632   6.841  0.2654 -0.5444 -0.5394
  152MOL0     C20847   9.554   0.713   6.961 -0.1039  0.4193  0.1905
  152MOL0     C20848   9.517   0.621   7.077  0.7252  0.3378  0.3872
  152MOL0     C20849   9.518   0.696   7.210  0.6201 -0.1140 -0.9247
  152MOL0     C20850   9.518   0.596   7.331 -0.6112 -0.9314  0.2738
  152MOL0     C20851   9.512   0.661   7.462 -0.9380  0.3269  0.6454
  152MOL0     C20852   9.507   0.559   7.570  0.3259 -0.9839  0.0928
  152MOL0     C20853   9.378   0.475   7.584  0.2101 -0.8973 -0.8617
  152MOL0     C20854   9.259   0.558   7.635  0.8073 -0.0216  0.6030
  152MOL0     N20855   9.147   0.467   7.653 -0.2438 -0.4667 -0.9489
  152MOL0     C20856   9.133   0.377   7.759 -0.1874  0.4535 -0.6061
  152MOL0     C20857   9.015   0.324   7.732  0.1044  0.3669 -0.4804
  152MOL0     C20858   8.954   0.202   7.807  0.3394  0.0275 -0.4189
  152MOL0     C20859   8.834   0.265   7.878  0.3475  0.0139 -0.5685
  152MOL0     C20860   8.755   0.152   7.946 -0.2482  0.1348  0.1076
  152MOL0     C20861   8.617   0.203   7.996 -0.1749 -0.2269 -0.1121
  152MOL0     O20862   8.529   0.259   7.894 -0.0271 -0.5913  0.3079
  152MOL0     C20863   8.461   0.378   7.914 -0.4264 -0.2737 -1.0009
  152MOL0     C20864   8.528   0.486   7.975 -1.0541  0.3976 -0.4727
  152MOL0     C20865   8.468   0.611   7.990  0.7256 -1.6941  0.4791
  152MOL0     C20866   8.542   0.721   8.058  0.4621  0.0062 -0.9645
  152MOL0     C20867   8.343   0.633   7.926 -1.1374 -0.1260 -0.3124
  152MOL0     C20868   8.269   0.762   7.953  0.4119  0.8111  0.5152
  152MOL0     O20869   8.282   0.831   8.069 -0.5325  0.7124  0.4590
  152MOL0     C20870   8.181   0.913   8.096 -0.3671 -0.3713 -0.3959
  152MOL0     C20871   8.181   1.041   8.033  0.3018 -0.3065  1.1287
  152MOL0     C20872   8.091   1.135   8.073  0.9678 -0.3599  0.0202
  152MOL0     C20873   7.991   1.109   8.167 -0.2822 -0.1001  0.1485
  152MOL0     O20874   7.908   1.208   8.204 -0.3553  0.0827 -0.2829
  152MOL0     C20875   7.969   1.329   8.237  0.5005 -0.3827 -0.2739
  152MOL0     C20876   7.860   1.418   8.311 -0.4602  0.2800  0.2988
  152MOL0     C20877   7.770   1.478   8.212  0.4500 -0.5110 -0.1048
  152MOL0     C20878   7.834   1.601   8.142 -0.1872  0.1371  0.2639
  152MOL0     C20879   7.740   1.694   8.084 -0.2292  0.5709 -0.2366
  152MOL0     C20880   7.670   1.629   7.965  0.0529 -0.3530  0.1724
  152MOL0     C20881   7.530   1.689   7.934  0.5139  0.6666 -0.1486
  152MOL0     C20882   7.426   1.579   7.908 -0.9781  0.8706  0.8416
  152MOL0    Cl20883   7.376   1.490   8.049  0.0438 -0.2379  0.2305
  152MOL0     C20884   7.982   0.979   8.207  0.7501 -0.6348  0.3885
  152MOL0     C20885   8.075   0.882   8.176  0.3572  1.1012  0.0728
  152MOL0     O20886   8.169   0.776   7.874 -0.7377 -0.5213  0.0143
  152MOL0     C20887   8.281   0.527   7.860  0.5602 -0.3057  0.1221
  152MOL0     C20888   8.342   0.406   7.844 -0.4476  0.3618 -0.5537
  152MOL0     N20889   8.958   0.392   7.621 -0.0215  0.2664 -0.3191
  152MOL0     N20890   9.047   0.464   7.570  0.3489 -0.3692 -0.0106
  152MOL0     C20891   9.578   0.443   6.710  1.2032  0.5244  0.3678
  152MOL0     C20892   9.657   0.342   6.658 -0.4147 -0.4700 -0.3177
  152MOL0     C20893   9.981   0.096   6.499  0.2206  0.8168  0.2432
  152MOL0     C20894  10.018   0.008   6.606  0.2813  0.2804 -0.5971
  152MOL0     C20895  10.101  -0.102   6.585  0.7062  0.6686 -0.1412
  152MOL0     C20896  10.125  -0.144   6.454 -0.3801 -0.3214  0.4340
  152MOL0     O20897  10.189  -0.269   6.435 -0.3998 -0.1911  0.0542
  152MOL0     C20898  10.177  -0.332   6.308 -0.2801  0.8748  0.6127
  152MOL0     C20899  10.167  -0.483   6.324  1.0515 -0.2254 -0.0143
  152MOL0     C20900  10.263  -0.553   6.423  0.3275 -1.0365  0.3660
  152MOL0     C20901  10.276  -0.703   6.394  0.3925 -0.1824 -0.0496
  152MOL0     C20902  10.393  -0.765   6.459  0.0602 -0.3766  0.6818
  152MOL0     C20903  10.507  -0.803   6.491  0.6740 -0.3428 -0.0862
  152MOL0     C20904  10.094  -0.057   6.349  0.8425 -0.0304  0.3499
  152MOL0     C20905  10.023   0.065   6.369  0.1226  0.2915  0.3778
  152MOL0     C20906   9.995   0.151   6.239 -0.0778 -0.0576 -0.7047
  152MOL0     H20907   9.940   0.409   6.852 -1.4401  0.1384  1.6066
  152MOL0     H20908   9.809   0.579   6.919 -0.9961 -1.3062  1.7961
  152MOL0     H20909   9.483   0.797   6.964 -0.8722  0.1176 -3.8202
  152MOL0     H20910   9.655   0.755   6.957  0.5769 -1.2227 -0.7303
  152MOL0     H20911   9.421   0.574   7.058  1.4480  0.3661 -4.5574
  152MOL0     H20912   9.592   0.542   7.074  0.5213  0.0955  1.2552
  152MOL0     H20913   9.613   0.750   7.203 -0.2531  1.5482 -0.6299
  152MOL0     H20914   9.440   0.770   7.229  1.1677 -0.1189  1.7430
  152MOL0     H20915   9.433   0.530   7.313 -0.4260 -1.9382  2.6266
  152MOL0     H20916   9.606   0.532   7.322  2.7625  3.4566 -2.6342
  152MOL0     H20917   9.433   0.737   7.461  0.7060  2.1283  0.1653
  152MOL0     H20918   9.608   0.713   7.474  0.2918 -1.2364 -1.5526
  152MOL0     H20919   9.590   0.488   7.561  0.4877 -0.9023  0.8219
  152MOL0     H20920   9.533   0.622   7.656  0.3414  0.5952 -1.0370
  152MOL0     H20921   9.396   0.398   7.659  1.8294 -1.0180 -1.3459
  152MOL0     H20922   9.364   0.422   7.489  2.0219  0.6121 -2.0387
  152MOL0     H20923   9.281   0.601   7.733  1.6372  1.6600 -0.2704
  152MOL0     H20924   9.219   0.634   7.567 -2.0274 -2.8526 -1.1635
  152MOL0     H20925   9.200   0.349   7.839 -0.3662  2.4042  0.2834
  152MOL0     H20926   9.026   0.157   7.876  2.4470 -0.4809 -2.7738
  152MOL0     H20927   8.929   0.114   7.747  2.5345 -1.3865  0.6033
  152MOL0     H20928   8.865   0.350   7.939  0.0934 -0.1280 -0.2396
  152MOL0     H20929   8.759   0.306   7.809  0.1965  0.4926 -0.1248
  152MOL0     H20930   8.744   0.063   7.883 -0.1147 -1.2087  1.8845
  152MOL0     H20931   8.807   0.110   8.033 -2.0318  0.8694  1.5959
  152MOL0     H20932   8.561   0.116   8.032 -2.4449  1.2137  0.0241
  152MOL0     H20933   8.631   0.273   8.078 -0.8818  0.7000 -0.7581
  152MOL0     H20934   8.629   0.452   7.996 -2.3473 -2.7075  1.6468
  152MOL0     H20935   8.642   0.683   8.080  0.7233 -0.1121 -2.2902
  152MOL0     H20936   8.500   0.746   8.156 -0.7955  1.2792 -1.7864
  152MOL0     H20937   8.548   0.816   8.005  1.2724  2.0205  2.4388
  152MOL0     H20938   8.260   1.055   7.960  0.6049 -2.6646  0.9472
  152MOL0     H20939   8.116   1.234   8.035 -1.8627  0.6341  0.4337
  152MOL0     H20940   8.053   1.312   8.305 -1.1250  0.4005  2.0522
  152MOL0     H20941   8.009   1.379   8.148 -0.8160 -0.6626 -1.0629
  152MOL0     H20942   7.797   1.358   8.378 -1.0845  2.0554  1.3724
  152MOL0     H20943   7.915   1.493   8.368 -1.1884  0.4546  0.7891
  152MOL0     H20944   7.677   1.508   8.262  0.6747 -0.4892  0.3058
  152MOL0     H20945   7.740   1.399   8.143 -0.1096 -3.1258  2.8736
  152MOL0     H20946   7.912   1.583   8.068  0.5858  0.0118  1.0862
  152MOL0     H20947   7.874   1.663   8.223 -0.4639  2.7932 -1.5431
  152MOL0     H20948   7.661   1.726   8.153 -1.7135  2.5028 -2.6554
  152MOL0     H20949   7.792   1.785   8.053  0.8361  0.5503  1.3588
  152MOL0     H20950   7.658   1.523   7.990 -2.9308  0.1365  1.1461
  152MOL0     H20951   7.738   1.639   7.880 -1.4781  1.2918 -0.9309
  152MOL0     H20952   7.525   1.759   7.850  1.6532 -0.8998 -1.6033
  152MOL0     H20953   7.494   1.735   8.027  0.7770 -0.2570  0.4220
  152MOL0     H20954   7.472   1.507   7.840 -2.0189  0.2263  0.8032
  152MOL0     H20955   7.347   1.619   7.844 -0.4557  0.3595 -0.1373
  152MOL0     H20956   7.897   0.952   8.269  0.7867 -1.0976  0.2400
  152MOL0     H20957   8.060   0.782   8.217 -0.9038  0.9079 -0.8290
  152MOL0     H20958   8.180   0.537   7.822 -0.9860  0.7748  4.0919
  152MOL0     H20959   8.299   0.332   7.777  1.4512 -1.5997  0.2462
  152MOL0     H20960   9.471   0.441   6.691  1.2650 -0.4949  0.0560
  152MOL0     H20961   9.623   0.269   6.585  1.0023  1.7477 -3.4282
  152MOL0     H20962   9.989   0.017   6.711  2.3514 -0.5338  0.0975
  152MOL0     H20963  10.132  -0.158   6.672  1.5708 -0.1782 -0.9602
  152MOL0     H20964  10.084  -0.297   6.261 -0.8978  0.5107  1.5498
  152MOL0     H20965  10.266  -0.306   6.250  0.3307 -2.7043 -0.2535
  152MOL0     H20966  10.169  -0.529   6.225 -1.5831 -0.1440 -0.1666
  152MOL0     H20967  10.069  -0.497   6.370  0.4105 -0.8082 -1.4912
  152MOL0     H20968  10.365  -0.513   6.430  1.0711 -2.9444  1.6017
  152MOL0     H20969  10.215  -0.537   6.520  0.7639 -2.1502  0.7894
  152MOL0     H20970  10.270  -0.711   6.285 -2.3539  0.0549  0.0075
  152MOL0     H20971  10.191  -0.750   6.445  1.9146 -0.9134  1.9003
  152MOL0     H20972  10.610  -0.827   6.511  0.2608 -3.2820 -1.0927
  152MOL0     H20973  10.124  -0.078   6.247  3.6720  1.7116  0.6965
  152MOL0     H20974   9.891   0.183   6.247  0.2732  0.6808  2.1066
  152MOL0     H20975  10.065   0.234   6.225  1.0064  0.1060  3.8667
  152MOL0     H20976  10.010   0.091   6.149  2.6950  0.8998 -0.9937
  153MOL0     O20977   1.150   3.471   1.597 -0.4548 -0.1250  0.0973
  153MOL0     C20978   1.059   3.395   1.637  0.0014  0.0244 -0.9796
  153MOL0     O20979   1.079   3.279   1.717  0.3310  0.3463  0.4907
  153MOL0     C20980   1.201   3.248   1.762 -0.5154 -0.2614 -0.5146
  153MOL0     C20981   1.248   3.113   1.767  0.3226 -0.1623 -0.2401
  153MOL0     C20982   1.373   3.083   1.813 -0.8137 -0.0199 -0.5755
  153MOL0     C20983   1.470   3.177   1.843 -0.1580 -0.4442  0.3865
  153MOL0     O20984   1.603   3.132   1.869  0.1948  0.6160 -0.0794
  153MOL0     C20985   1.693   3.234   1.892 -0.0277  0.5273  0.0387
  153MOL0     C20986   1.831   3.185   1.955 -0.1647 -0.9931  0.3952
  153MOL0     C20987   1.942   3.288   1.955  0.0139 -0.4604 -0.2262
  153MOL0     C20988   2.063   3.243   2.015 -0.7893  0.2215  0.2246
  153MOL0     C20989   2.189   3.335   2.010  0.2340 -0.0274 -0.2570
  153MOL0     C20990   2.299   3.313   2.107  0.4950  0.0632 -0.1196
  153MOL0     C20991   2.271   3.365   2.240 -0.2419 -1.1977  0.2859
  153MOL0     C20992   2.322   3.510   2.261  0.7453  0.0638 -0.1276
  153MOL0     N20993   2.325   3.545   2.403  0.0218 -0.2566  0.8288
  153MOL0     C20994   2.221   3.602   2.474 -0.0486 -0.2091 -0.8072
  153MOL0     C20995   2.273   3.649   2.588  0.8438  0.0635  0.0705
  153MOL0     C20996   2.194   3.723   2.688 -0.3853  0.1284 -0.2606
  153MOL0     C20997   2.281   3.798   2.789 -0.6604 -0.6633 -0.4266
  153MOL0     C20998   2.190   3.882   2.884 -0.6913  0.1966  0.1388
  153MOL0     C20999   2.158   3.812   3.023  1.0805  0.0313  0.5164
  153MOL0     O21000   2.116   3.671   2.999 -0.3628 -0.0117  0.6227
  153MOL0     C21001   2.062   3.592   3.093  0.1369 -0.2195  0.1719
  153MOL0     C21002   2.031   3.468   3.045 -0.7199  0.5673 -0.6140
  153MOL0     C21003   1.978   3.372   3.130  0.1228  0.3316  0.1738
  153MOL0     C21004   1.945   3.240   3.067  0.9223  0.8021  0.1924
  153MOL0     C21005   1.955   3.405   3.265 -0.1732  0.0266  0.1527
  153MOL0     C21006   1.907   3.311   3.367 -0.2817  0.1945  0.4047
  153MOL0     O21007   1.899   3.359   3.491  0.2484  0.4605  0.2965
  153MOL0     C21008   1.864   3.280   3.602 -0.4948 -1.0297  0.4206
  153MOL0     C21009   1.863   3.354   3.717 -0.1473  0.0558 -0.2107
  153MOL0     C21010   1.836   3.298   3.845 -0.3829  0.2462 -0.5023
  153MOL0     C21011   1.797   3.164   3.856 -0.4293  0.4535 -0.1964
  153MOL0     O21012   1.782   3.115   3.987  1.1149 -0.0791  0.1957
  153MOL0     C21013   1.685   3.181   4.066  0.1677  0.1552  0.8286
  153MOL0     C21014   1.689   3.117   4.206 -0.0533 -0.9195  0.5286
  153MOL0     C21015   1.651   2.967   4.209 -0.9220  0.7195 -0.0358
  153MOL0     C21016   1.499   2.946   4.186 -0.0356 -0.1223 -0.1327
  153MOL0     C21017   1.447   2.817   4.120 -0.4579 -0.3957 -0.2147
  153MOL0     C21018   1.306   2.775   4.165 -0.0767 -0.2252 -0.0030
  153MOL0     C21019   1.253   2.670   4.067  0.5495 -0.2850 -0.7147
  153MOL0     C21020   1.114   2.619   4.110 -0.0729 -0.3456  0.4132
  153MOL0    Cl21021   0.993   2.734   4.072 -0.0413  0.2789 -0.3460
  153MOL0     C21022   1.792   3.088   3.740 -0.3397 -0.5501 -0.3978
  153MOL0     C21023   1.822   3.148   3.613  0.1804  1.0764  0.1490
  153MOL0     O21024   1.867   3.199   3.331  0.6648 -0.0280  0.4831
  153MOL0     C21025   1.992   3.530   3.308 -0.4464  0.3401 -0.4858
  153MOL0     C21026   2.049   3.629   3.225 -0.0421  0.1191 -0.5996
  153MOL0     N21027   2.407   3.606   2.598 -0.2891 -0.6297 -0.1835
  153MOL0     N21028   2.436   3.546   2.484  0.1309  0.3014  0.1531
  153MOL0     C21029   1.430   3.316   1.826 -0.0514  1.2058  0.1137
  153MOL0     C21030   1.296   3.348   1.799  0.5639 -0.2845  0.6279
  153MOL0     C21031   0.926   3.431   1.598 -0.1444  0.6570  0.0757
  153MOL0     C21032   0.835   3.327   1.618 -1.1105 -0.6524 -0.5698
  153MOL0     C21033   0.703   3.345   1.581 -0.7315  0.5440 -0.7624
  153MOL0     C21034   0.660   3.461   1.520 -0.0126 -0.1817 -0.1780
  153MOL0     O21035   0.528   3.480   1.479  0.1578  0.6956 -0.3066
  153MOL0     C21036   0.461   3.368   1.410 -0.5463 -0.8380 -0.6439
  153MOL0     C21037   0.317   3.423   1.363 -0.4988  0.6526 -1.1747
  153MOL0     C21038   0.238   3.434   1.497 -0.2033  0.4867  0.2714
  153MOL0     C21039   0.090   3.469   1.455 -0.5294 -0.5106  1.3028
  153MOL0     C21040   0.023   3.545   1.563  0.1786  0.3247 -0.1380
  153MOL0     C21041  -0.033   3.618   1.644  0.3620 -0.4121  0.4130
  153MOL0     C21042   0.747   3.566   1.512 -0.4804 -0.9385 -0.8244
  153MOL0     C21043   0.887   3.555   1.551  1.1002  0.3080 -1.1124
  153MOL0     C21044   0.972   3.683   1.538 -0.4836 -0.5327  0.0706
  153MOL0     H21045   1.173   3.037   1.746  3.8113 -3.4030 -2.2214
  153MOL0     H21046   1.414   2.983   1.827  4.0284  1.5610 -1.6815
  153MOL0     H21047   1.650   3.310   1.958  1.7212  1.5573  0.0401
  153MOL0     H21048   1.716   3.278   1.795 -1.7376  2.0037  0.2436
  153MOL0     H21049   1.828   3.150   2.058 -0.0889 -0.1590  0.6846
  153MOL0     H21050   1.856   3.100   1.890 -2.6910  1.7787 -4.8510
  153MOL0     H21051   1.960   3.321   1.853  3.6742 -4.7438 -1.3042
  153MOL0     H21052   1.903   3.376   2.007  2.2098 -1.0927  2.8406
  153MOL0     H21053   2.052   3.231   2.123  4.9693 -2.4123  0.9005
  153MOL0     H21054   2.089   3.145   1.974 -1.3228 -0.5603  1.6884
  153MOL0     H21055   2.162   3.439   1.989  3.8740  0.9771 -0.8284
  153MOL0     H21056   2.228   3.324   1.908  0.2793  1.2417 -0.3920
  153MOL0     H21057   2.316   3.206   2.116  0.9509  0.0553 -0.8771
  153MOL0     H21058   2.393   3.345   2.059 -0.4000  0.5615 -1.6150
  153MOL0     H21059   2.322   3.292   2.304  2.2085 -1.1482 -1.4606
  153MOL0     H21060   2.167   3.347   2.266 -0.8679 -1.3327 -2.1238
  153MOL0     H21061   2.421   3.527   2.216  1.5415 -0.8411  1.2024
  153MOL0     H21062   2.248   3.569   2.206 -0.3531 -1.4516 -0.3195
  153MOL0     H21063   2.118   3.620   2.446  0.0637 -0.9808 -1.7722
  153MOL0     H21064   2.120   3.654   2.730  0.5109 -0.2955  0.6743
  153MOL0     H21065   2.142   3.805   2.638  0.6421  1.1367  0.2582
  153MOL0     H21066   2.335   3.729   2.855 -0.5793 -1.2652 -1.1070
  153MOL0     H21067   2.347   3.864   2.732 -1.4842  1.0957  0.5828
  153MOL0     H21068   2.240   3.975   2.909 -0.4769 -0.2038  1.2802
  153MOL0     H21069   2.098   3.910   2.831 -2.2506 -3.2753  0.6654
  153MOL0     H21070   2.249   3.813   3.085  1.5516 -1.9593 -0.0744
  153MOL0     H21071   2.080   3.868   3.074 -2.5790 -1.9981 -2.3469
  153MOL0     H21072   2.042   3.450   2.938 -2.7803 -0.2057 -0.7316
  153MOL0     H21073   1.983   3.152   3.120  0.3552  1.4111  1.6766
  153MOL0     H21074   1.991   3.245   2.968  1.3210  2.0174  0.4161
  153MOL0     H21075   1.836   3.238   3.075  0.8038  0.0447 -1.2903
  153MOL0     H21076   1.896   3.457   3.722  2.7790 -0.8127  2.4804
  153MOL0     H21077   1.856   3.358   3.933  0.5939  0.3590 -0.7876
  153MOL0     H21078   1.716   3.286   4.068  1.8360 -0.2079 -1.3742
  153MOL0     H21079   1.588   3.167   4.017 -0.9592 -4.0171  3.7157
  153MOL0     H21080   1.790   3.142   4.238  0.2303  1.4015 -1.8565
  153MOL0     H21081   1.617   3.174   4.265 -0.1379 -1.2905  0.7910
  153MOL0     H21082   1.678   2.915   4.301  2.5972 -1.8408 -2.2427
  153MOL0     H21083   1.711   2.907   4.139  0.4291  1.3908  0.5244
  153MOL0     H21084   1.469   3.023   4.114 -2.9185  0.1024  1.1635
  153MOL0     H21085   1.431   2.968   4.268 -2.1659 -3.3955 -0.8361
  153MOL0     H21086   1.437   2.827   4.012 -2.4002  1.4173  0.0635
  153MOL0     H21087   1.513   2.736   4.153 -1.1927 -0.2174  1.9003
  153MOL0     H21088   1.254   2.870   4.157  1.7923  0.7922 -0.5659
  153MOL0     H21089   1.304   2.731   4.265  1.7965 -0.3019  0.0356
  153MOL0     H21090   1.324   2.587   4.079  0.9677  0.1856  0.1060
  153MOL0     H21091   1.247   2.699   3.962 -1.7100  2.2350  0.0050
  153MOL0     H21092   1.110   2.607   4.219 -0.6701  1.6570  0.6619
  153MOL0     H21093   1.095   2.522   4.065  1.0273 -0.5466  0.3442
  153MOL0     H21094   1.760   2.984   3.739 -1.6778 -0.1668  0.2762
  153MOL0     H21095   1.832   3.081   3.528 -0.2458  1.9080 -0.5825
  153MOL0     H21096   1.993   3.560   3.412  2.4620  1.0283 -0.6279
  153MOL0     H21097   2.078   3.727   3.261 -0.4457  0.0194  0.0082
  153MOL0     H21098   1.495   3.403   1.825  4.0561 -1.5760  0.2495
  153MOL0     H21099   1.261   3.451   1.797 -1.3079 -0.8589 -2.1634
  153MOL0     H21100   0.849   3.233   1.669 -3.4000 -0.2328  1.0020
  153MOL0     H21101   0.632   3.264   1.587 -0.8316  0.5261 -1.9922
  153MOL0     H21102   0.503   3.331   1.316 -1.0425  0.1492 -1.2741
  153MOL0     H21103   0.438   3.281   1.473 -2.5632 -0.1300 -0.3101
  153MOL0     H21104   0.266   3.358   1.292 -1.2396  0.3167 -0.3529
  153MOL0     H21105   0.353   3.519   1.323  1.5104  0.8223  0.8118
  153MOL0     H21106   0.241   3.346   1.562 -2.3203 -1.1796 -1.6999
  153MOL0     H21107   0.273   3.527   1.543 -1.6632  1.7164 -1.0047
  153MOL0     H21108   0.040   3.378   1.420  0.1660 -0.4988  0.2438
  153MOL0     H21109   0.095   3.533   1.366 -0.7033 -0.8194  1.0714
  153MOL0     H21110  -0.073   3.691   1.712  0.3208 -0.0135 -0.0373
  153MOL0     H21111   0.723   3.667   1.479  0.9772 -0.6493 -1.0430
  153MOL0     H21112   0.971   3.734   1.635  0.4085  0.1735 -0.2780
  153MOL0     H21113   1.073   3.673   1.499 -0.1426 -0.5967  0.9598
  153MOL0     H21114   0.920   3.754   1.472 -0.6406  0.0621  0.8235
  154MOL0     O21115   0.970   5.433   5.360 -0.1295 -0.0987 -0.2753
  154MOL0     C21116   0.868   5.424   5.431  0.4511 -0.5366 -0.9614
  154MOL0     O21117   0.859   5.469   5.555 -0.0157 -0.0550  0.2535
  154MOL0     C21118   0.970   5.510   5.623 -0.2475  0.3343  0.1077
  154MOL0     C21119   1.009   5.646   5.627 -0.0834 -0.1403  0.4551
  154MOL0     C21120   1.116   5.688   5.711  0.3050  0.9348  1.2303
  154MOL0     C21121   1.190   5.604   5.790 -0.0193 -0.0120  0.2057
  154MOL0     O21122   1.300   5.659   5.846 -0.3256 -0.7839 -0.2649
  154MOL0     C21123   1.361   5.584   5.950 -0.7992  0.6941 -0.1846
  154MOL0     C21124   1.487   5.648   6.025  0.4883 -0.2358 -0.2942
  154MOL0     C21125   1.631   5.625   5.965  0.3108  0.1953  0.7352
  154MOL0     C21126   1.689   5.485   5.994 -0.4890 -0.3681 -0.1800
  154MOL0     C21127   1.836   5.481   5.955 -0.3097  0.4543  0.2921
  154MOL0     C21128   1.911   5.368   6.033 -0.0602  0.5670 -0.0061
  154MOL0     C21129   2.066   5.396   6.022  0.7478 -0.0476 -0.5514
  154MOL0     C21130   2.157   5.317   6.107  0.1855 -0.5180  0.7445
  154MOL0     N21131   2.160   5.378   6.238 -0.1894 -0.8855 -0.7564
  154MOL0     C21132   2.245   5.485   6.277  0.8694 -0.0964  0.3698
  154MOL0     C21133   2.233   5.491   6.412  0.4637 -0.5771  0.2651
  154MOL0     C21134   2.317   5.593   6.482 -0.1237  0.5644 -0.0109
  154MOL0     C21135   2.301   5.740   6.437 -0.1266 -0.7476 -0.7619
  154MOL0     C21136   2.424   5.830   6.479  0.1900  0.5373 -0.4810
  154MOL0     C21137   2.469   5.819   6.619 -0.3553 -0.6901  0.2823
  154MOL0     O21138   2.363   5.857   6.716  0.2307  0.0328  0.0786
  154MOL0     C21139   2.326   5.990   6.747  0.7399  0.9153  0.3124
  154MOL0     C21140   2.217   6.018   6.831  0.4991  0.1971 -0.0530
  154MOL0     C21141   2.189   6.141   6.878  0.3598 -0.2034  0.0763
  154MOL0     C21142   2.077   6.160   6.984 -0.1019  0.0414 -0.1085
  154MOL0     C21143   2.247   6.253   6.820 -0.2731  0.1078  0.2369
  154MOL0     C21144   2.217   6.392   6.862 -0.2077  0.2142  1.3082
  154MOL0     O21145   2.258   6.477   6.764 -0.2113 -0.3431 -0.3341
  154MOL0     C21146   2.265   6.608   6.794 -0.3176  0.2212 -0.0515
  154MOL0     C21147   2.242   6.690   6.682  0.4808  0.9169  0.3191
  154MOL0     C21148   2.272   6.828   6.690  0.6249  0.2890 -0.6795
  154MOL0     C21149   2.336   6.878   6.803 -0.8598 -0.2641 -0.2524
  154MOL0     O21150   2.365   7.010   6.830  0.7211  0.4176  0.7346
  154MOL0     C21151   2.377   7.102   6.718 -0.0420 -0.7207 -0.3221
  154MOL0     C21152   2.440   7.235   6.771 -0.3926 -0.8900  0.3734
  154MOL0     C21153   2.590   7.194   6.777  0.1456 -0.6215  0.1780
  154MOL0     C21154   2.678   7.313   6.756  0.1490 -1.0031 -0.0705
  154MOL0     C21155   2.829   7.285   6.786 -0.0530 -0.7557 -0.0349
  154MOL0     C21156   2.921   7.407   6.768  1.0660  0.2556  0.0447
  154MOL0     C21157   2.960   7.430   6.619 -0.8261 -0.4652  0.2859
  154MOL0     C21158   3.010   7.565   6.575 -0.2436  0.0573  0.0770
  154MOL0    Cl21159   3.003   7.562   6.397  0.4675  0.3570 -0.3889
  154MOL0     C21160   2.372   6.785   6.902  0.0346 -0.4361 -0.1586
  154MOL0     C21161   2.329   6.657   6.911  0.4484  0.4220 -0.1731
  154MOL0     O21162   2.143   6.418   6.957  0.3720 -0.3886 -0.0373
  154MOL0     C21163   2.347   6.226   6.727  0.1128 -0.6642  0.5447
  154MOL0     C21164   2.387   6.092   6.686 -0.6987 -0.8606 -0.3694
  154MOL0     N21165   2.160   5.384   6.461 -1.0329 -0.1532  0.3416
  154MOL0     N21166   2.100   5.329   6.355  0.2954 -0.3225 -0.6878
  154MOL0     C21167   1.164   5.463   5.774  0.4109 -0.1195  1.3367
  154MOL0     C21168   1.050   5.419   5.703 -0.0992 -1.0790  0.6622
  154MOL0     C21169   0.741   5.375   5.373  0.1269 -0.6578 -0.1034
  154MOL0     C21170   0.635   5.340   5.463  0.1483 -0.4654  0.1575
  154MOL0     C21171   0.514   5.292   5.414  0.1509  0.3021  0.2129
  154MOL0     C21172   0.494   5.259   5.276  0.0443 -0.0767  0.6288
  154MOL0     O21173   0.377   5.218   5.214  0.9530  0.6826  0.3391
  154MOL0     C21174   0.260   5.243   5.295 -0.0886  0.1732 -0.0593
  154MOL0     C21175   0.137   5.230   5.198 -0.3225  0.6478  0.7138
  154MOL0     C21176   0.090   5.369   5.155 -0.4691 -0.4218 -0.4904
  154MOL0     C21177  -0.049   5.375   5.081  0.2733 -0.3899  0.2250
  154MOL0     C21178  -0.108   5.507   5.087 -1.1919 -0.2416  0.3602
  154MOL0     C21179  -0.160   5.623   5.077  0.8314  0.0624 -0.2568
  154MOL0     C21180   0.597   5.281   5.192 -0.8722  0.6529  0.1790
  154MOL0     C21181   0.719   5.339   5.239  0.3491 -0.6216  0.6377
  154MOL0     C21182   0.824   5.375   5.129 -0.2127  0.1340 -0.4421
  154MOL0     H21183   0.951   5.719   5.571  0.6901 -0.6112 -1.0175
  154MOL0     H21184   1.140   5.794   5.711 -0.9736  1.2507 -0.1208
  154MOL0     H21185   1.382   5.491   5.898 -2.0441  0.5623 -0.4912
  154MOL0     H21186   1.287   5.563   6.028 -0.6164 -0.5327 -0.3210
  154MOL0     H21187   1.471   5.756   6.028 -0.6183 -0.4029  0.3930
  154MOL0     H21188   1.494   5.603   6.124  0.7389  1.2470  0.3729
  154MOL0     H21189   1.623   5.646   5.858  1.6961 -1.3303  0.2928
  154MOL0     H21190   1.699   5.696   6.013  0.2372  0.1489  0.9097
  154MOL0     H21191   1.677   5.483   6.103 -2.2847  2.8765 -0.1880
  154MOL0     H21192   1.641   5.402   5.941  2.6971 -2.1895 -0.4749
  154MOL0     H21193   1.871   5.581   5.981 -0.3816  0.2970  1.0016
  154MOL0     H21194   1.847   5.463   5.848 -1.5047  0.4186  0.1574
  154MOL0     H21195   1.881   5.371   6.138  0.7170  1.6377  0.1962
  154MOL0     H21196   1.897   5.267   5.991 -2.0259 -0.4844  2.9068
  154MOL0     H21197   2.092   5.502   6.036 -3.1830  1.0242 -0.1574
  154MOL0     H21198   2.071   5.374   5.915  0.1897  1.8539 -1.0194
  154MOL0     H21199   2.129   5.212   6.117  0.8413 -0.4690  4.4397
  154MOL0     H21200   2.254   5.308   6.059  0.0576  0.4884  0.2719
  154MOL0     H21201   2.299   5.554   6.213 -0.5908  0.9675  0.2497
  154MOL0     H21202   2.422   5.564   6.480 -0.5656 -1.1303 -0.3938
  154MOL0     H21203   2.284   5.590   6.586 -1.5472 -2.0122 -0.4534
  154MOL0     H21204   2.314   5.749   6.328  2.1986 -1.8271 -0.6307
  154MOL0     H21205   2.213   5.787   6.482  1.1151  0.0595  0.9238
  154MOL0     H21206   2.511   5.793   6.424  1.0782  0.6257  0.8278
  154MOL0     H21207   2.404   5.936   6.458  1.8240  1.5547  2.4465
  154MOL0     H21208   2.505   5.717   6.639 -0.1409 -0.1902  2.9196
  154MOL0     H21209   2.557   5.882   6.636 -0.7373  0.1128 -0.6340
  154MOL0     H21210   2.160   5.937   6.875  0.3320 -0.4721 -1.4623
  154MOL0     H21211   2.121   6.206   7.074  0.7936  1.1990 -1.1041
  154MOL0     H21212   2.050   6.059   7.017  3.3587 -1.3189 -1.0138
  154MOL0     H21213   2.001   6.227   6.944 -0.7611 -1.2191 -1.0088
  154MOL0     H21214   2.206   6.643   6.591  0.7203 -0.7567  1.0619
  154MOL0     H21215   2.234   6.893   6.611 -0.7008  2.8889  1.9250
  154MOL0     H21216   2.421   7.066   6.625  1.3190  3.1865 -1.3585
  154MOL0     H21217   2.271   7.114   6.693 -0.0660  1.1609  0.5405
  154MOL0     H21218   2.415   7.316   6.702 -1.7657 -0.6484  1.1305
  154MOL0     H21219   2.412   7.271   6.871 -2.0201  0.1656 -0.4179
  154MOL0     H21220   2.628   7.122   6.704  1.7023  1.6984 -1.4660
  154MOL0     H21221   2.605   7.140   6.871 -0.1219 -1.0036 -0.0001
  154MOL0     H21222   2.639   7.401   6.807 -0.2219 -0.0952 -1.8667
  154MOL0     H21223   2.670   7.344   6.652  1.3295 -0.2592  0.0491
  154MOL0     H21224   2.834   7.250   6.890 -2.3654  1.5565  0.9776
  154MOL0     H21225   2.864   7.205   6.721  1.7858 -0.9891  1.1531
  154MOL0     H21226   3.020   7.387   6.810  1.8383 -2.1130 -2.6010
  154MOL0     H21227   2.867   7.494   6.807  1.2826  1.2468 -1.7680
  154MOL0     H21228   2.872   7.408   6.559 -1.2366 -2.2865  1.4609
  154MOL0     H21229   3.024   7.347   6.588  0.1013 -0.6601  2.5126
  154MOL0     H21230   3.114   7.574   6.609 -0.0169 -3.7813  0.8930
  154MOL0     H21231   2.944   7.643   6.615  0.2847  0.1179  0.8473
  154MOL0     H21232   2.444   6.820   6.976 -0.5982 -0.7403  0.6229
  154MOL0     H21233   2.354   6.595   6.996 -1.6804 -0.9113 -0.4483
  154MOL0     H21234   2.410   6.306   6.690 -0.3284 -0.4935  0.1481
  154MOL0     H21235   2.476   6.077   6.626  0.9011 -2.2001  2.1905
  154MOL0     H21236   1.218   5.383   5.823  0.5849 -0.8926 -0.0591
  154MOL0     H21237   1.039   5.311   5.711  1.9751 -1.2732  1.5360
  154MOL0     H21238   0.646   5.358   5.570  0.7704  0.8366 -0.1063
  154MOL0     H21239   0.435   5.285   5.487 -1.0833  1.5838 -0.9151
  154MOL0     H21240   0.261   5.163   5.370  1.2926  0.6949  0.5106
  154MOL0     H21241   0.258   5.339   5.347 -0.1788  1.4316 -2.2554
  154MOL0     H21242   0.058   5.176   5.250  1.9710 -0.1949  3.5905
  154MOL0     H21243   0.154   5.163   5.114  1.0539  0.6741  0.9514
  154MOL0     H21244   0.075   5.431   5.243 -3.2730 -0.9860 -0.4826
  154MOL0     H21245   0.163   5.423   5.094 -1.4661  0.6756 -0.7490
  154MOL0     H21246  -0.107   5.315   5.151 -1.8820  0.8568 -0.3885
  154MOL0     H21247  -0.058   5.334   4.980 -0.2819 -0.1196  0.1571
  154MOL0     H21248  -0.212   5.714   5.057 -0.5825 -0.9701 -1.5232
  154MOL0     H21249   0.588   5.279   5.084  0.9272  2.6126 -0.0739
  154MOL0     H21250   0.844   5.482   5.137  2.0732 -0.3876  3.3378
  154MOL0     H21251   0.924   5.331   5.133 -0.0313  0.4566 -1.2505
  154MOL0     H21252   0.783   5.366   5.028 -0.3166 -2.0372 -0.2614
  155MOL0     O21253  10.468   6.117   6.699 -0.7708 -0.2736 -0.5421
  155MOL0     C21254  10.503   6.229   6.670 -0.6104 -0.6029 -0.3382
  155MOL0     O21255  10.442   6.303   6.579 -0.0869 -0.2023  0.3148
  155MOL0     C21256  10.320   6.276   6.520 -0.3042  0.6482 -0.8366
  155MOL0     C21257  10.305   6.335   6.399  0.2594  0.0445  0.6768
  155MOL0     C21258  10.179   6.329   6.327 -0.2752  0.4051 -0.3301
  155MOL0     C21259  10.075   6.258   6.386 -0.1052  0.5974  0.2514
  155MOL0     O21260   9.948   6.262   6.331  0.0207  0.0998 -0.4577
  155MOL0     C21261   9.913   6.298   6.193  1.1630  0.1560 -0.1313
  155MOL0     C21262   9.782   6.252   6.144 -0.1303  0.7236 -0.6116
  155MOL0     C21263   9.774   6.101   6.105 -0.3534  0.0374 -0.6213
  155MOL0     C21264   9.628   6.063   6.056 -0.4750  0.4851 -0.3190
  155MOL0     C21265   9.561   5.944   6.131 -0.4556 -0.1704  0.0943
  155MOL0     C21266   9.518   5.976   6.276  0.0349  0.7060  0.4591
  155MOL0     C21267   9.454   5.848   6.346  0.1954  0.0824  0.2205
  155MOL0     C21268   9.555   5.742   6.383  0.1302  0.3768 -0.1223
  155MOL0     N21269   9.487   5.618   6.438 -0.2413 -1.0026 -0.3483
  155MOL0     C21270   9.377   5.555   6.405 -0.0185  0.2967 -0.4689
  155MOL0     C21271   9.372   5.448   6.482 -0.5368  0.1277  0.4576
  155MOL0     C21272   9.271   5.337   6.466  0.6283  0.4182  0.2619
  155MOL0     C21273   9.181   5.319   6.588  0.0946 -0.2115 -1.6507
  155MOL0     C21274   9.072   5.219   6.572 -0.5345  0.1769  1.0869
  155MOL0     C21275   8.985   5.202   6.695  0.1874 -1.0788  0.3690
  155MOL0     O21276   8.935   5.067   6.709 -0.3540  0.1240 -0.0721
  155MOL0     C21277   8.817   5.034   6.640 -1.5771 -0.2086 -0.2588
  155MOL0     C21278   8.741   5.109   6.554 -0.3592  0.4499 -0.6009
  155MOL0     C21279   8.633   5.056   6.486 -0.3876 -0.3173  0.0664
  155MOL0     C21280   8.573   5.145   6.380  0.1594 -0.7503  0.4624
  155MOL0     C21281   8.590   4.923   6.503  0.7196 -0.9174  0.4120
  155MOL0     C21282   8.479   4.847   6.435  0.6369 -0.1356  0.4220
  155MOL0     O21283   8.440   4.724   6.479 -0.1181  0.0120 -0.1314
  155MOL0     C21284   8.322   4.666   6.437  0.3665 -0.4571 -0.1086
  155MOL0     C21285   8.321   4.534   6.424 -0.6747  1.1154  0.9040
  155MOL0     C21286   8.213   4.473   6.353 -0.4043 -0.5872 -0.7768
  155MOL0     C21287   8.092   4.547   6.339 -0.8729  0.5439 -0.5776
  155MOL0     O21288   7.977   4.496   6.294  0.2723 -0.0399  0.3601
  155MOL0     C21289   7.957   4.356   6.294  0.6947  0.2185 -0.2985
  155MOL0     C21290   7.813   4.319   6.299  0.0930  1.0424  0.4380
  155MOL0     C21291   7.797   4.182   6.350 -0.3289 -0.3547 -0.0454
  155MOL0     C21292   7.649   4.139   6.345 -0.4435 -0.2105 -0.3195
  155MOL0     C21293   7.569   4.220   6.453 -0.2522  0.2282 -0.0658
  155MOL0     C21294   7.446   4.127   6.485 -0.3476 -0.5292 -0.1134
  155MOL0     C21295   7.327   4.209   6.532  0.3219 -1.3875  0.3954
  155MOL0     C21296   7.188   4.159   6.533  0.6355 -0.2470  0.4283
  155MOL0    Cl21297   7.114   4.136   6.376  0.0350 -0.0142  0.3272
  155MOL0     C21298   8.085   4.685   6.371 -0.3778 -0.2159  0.0302
  155MOL0     C21299   8.201   4.743   6.428 -1.1411 -0.5394  0.1957
  155MOL0     O21300   8.428   4.909   6.341 -0.3291  0.0358  0.3075
  155MOL0     C21301   8.671   4.844   6.591 -0.1869 -0.2053  0.8454
  155MOL0     C21302   8.781   4.901   6.657 -0.8015  0.0283  0.1138
  155MOL0     N21303   9.484   5.442   6.557 -0.3572  0.1317  0.3706
  155MOL0     N21304   9.548   5.551   6.541  0.7567  0.1913  0.0002
  155MOL0     C21305  10.098   6.189   6.505  0.0277  0.5380  0.3856
  155MOL0     C21306  10.211   6.209   6.579 -0.0676  0.3610  0.2494
  155MOL0     C21307  10.615   6.268   6.744 -0.9653 -0.0123 -0.4405
  155MOL0     C21308  10.610   6.262   6.891 -0.2218 -0.7524  0.6731
  155MOL0     C21309  10.724   6.279   6.966  0.2594 -0.4630 -0.5071
  155MOL0     C21310  10.846   6.320   6.903 -0.2926 -0.1237  0.5358
  155MOL0     O21311  10.958   6.360   6.974  0.8284 -0.2146  0.2686
  155MOL0     C21312  10.940   6.432   7.095  0.6315  0.7701 -0.0611
  155MOL0     C21313  11.057   6.514   7.141  0.0366 -0.6318  0.3336
  155MOL0     C21314  11.189   6.457   7.097 -0.7984  0.3495  0.2222
  155MOL0     C21315  11.295   6.518   7.190  0.8392 -1.2754  0.2409
  155MOL0     C21316  11.282   6.499   7.330 -0.2212  0.2611 -0.1230
  155MOL0     C21317  11.266   6.501   7.451 -0.1488  0.2750 -0.7312
  155MOL0     C21318  10.856   6.318   6.761 -0.4009  0.1713 -0.2604
  155MOL0     C21319  10.743   6.294   6.679  0.2289 -0.3855  1.0933
  155MOL0     C21320  10.757   6.288   6.528 -0.0977  0.5293 -0.5638
  155MOL0     H21321  10.389   6.385   6.352 -3.1631  1.5060 -4.7788
  155MOL0     H21322  10.177   6.371   6.227  0.5447  0.8925 -0.1562
  155MOL0     H21323   9.992   6.251   6.134  2.7879  2.0993  0.4022
  155MOL0     H21324   9.915   6.405   6.174  1.2694 -0.1634 -2.0334
  155MOL0     H21325   9.715   6.262   6.229 -2.3682 -3.2718 -1.6734
  155MOL0     H21326   9.755   6.318   6.060  1.2637  3.7365  1.1411
  155MOL0     H21327   9.846   6.073   6.028  0.5547  1.3362 -0.2786
  155MOL0     H21328   9.779   6.049   6.201 -3.3518  1.5281  0.4858
  155MOL0     H21329   9.561   6.150   6.060 -0.4659  0.4456  1.1006
  155MOL0     H21330   9.627   6.034   5.951 -0.8426  1.3294 -0.5655
  155MOL0     H21331   9.620   5.852   6.127 -1.1983 -0.8438  2.6917
  155MOL0     H21332   9.466   5.922   6.081 -0.4011  1.3097 -0.7041
  155MOL0     H21333   9.604   6.009   6.335 -1.9575  1.5169  3.0647
  155MOL0     H21334   9.449   6.060   6.263  0.8557  1.2200 -0.7902
  155MOL0     H21335   9.385   5.806   6.273  0.6520  0.3985 -0.4032
  155MOL0     H21336   9.389   5.885   6.426 -3.0647 -4.4351  0.0127
  155MOL0     H21337   9.601   5.718   6.287 -1.8743 -0.6056 -0.8882
  155MOL0     H21338   9.623   5.785   6.457 -3.5593  2.9986  2.0732
  155MOL0     H21339   9.296   5.592   6.343 -0.8272 -0.4413  0.1114
  155MOL0     H21340   9.321   5.240   6.455  1.0405  0.8286 -1.8415
  155MOL0     H21341   9.204   5.351   6.382 -0.6734  0.7386  1.3261
  155MOL0     H21342   9.245   5.292   6.673 -0.1689  0.4486 -1.2410
  155MOL0     H21343   9.138   5.417   6.608 -1.8939 -0.9370 -2.1421
  155MOL0     H21344   9.017   5.257   6.486  1.5562  0.9778  0.0198
  155MOL0     H21345   9.124   5.124   6.555  1.2092  1.3894 -0.7400
  155MOL0     H21346   9.039   5.221   6.788  1.7795  0.2598 -0.7702
  155MOL0     H21347   8.911   5.282   6.699  0.2770 -1.0009  0.4660
  155MOL0     H21348   8.778   5.202   6.514  3.0738 -1.9069 -3.6139
  155MOL0     H21349   8.473   5.172   6.416  1.9176  2.2731  3.7405
  155MOL0     H21350   8.569   5.089   6.286 -0.8889 -1.1329  0.7181
  155MOL0     H21351   8.634   5.235   6.367  0.7640 -1.0187  1.3450
  155MOL0     H21352   8.414   4.484   6.448 -0.9557 -1.4373 -2.6371
  155MOL0     H21353   8.220   4.372   6.313 -1.6056 -0.4364 -1.4137
  155MOL0     H21354   7.994   4.300   6.208 -2.0043 -1.8051 -0.3019
  155MOL0     H21355   7.983   4.318   6.393 -3.4571 -3.5012 -0.3061
  155MOL0     H21356   7.771   4.379   6.381  1.0987  0.7500  1.1917
  155MOL0     H21357   7.754   4.328   6.208 -1.0415 -0.6801  0.9481
  155MOL0     H21358   7.830   4.193   6.454 -0.2990 -3.2713  0.3567
  155MOL0     H21359   7.870   4.111   6.308  1.0735  1.4520 -0.7885
  155MOL0     H21360   7.646   4.037   6.383 -0.0938  0.4441  1.5621
  155MOL0     H21361   7.604   4.135   6.245  0.3009  1.3013 -0.7584
  155MOL0     H21362   7.632   4.223   6.542  2.2287 -0.1091 -1.6976
  155MOL0     H21363   7.531   4.316   6.417 -2.3270 -0.5677 -0.1328
  155MOL0     H21364   7.478   4.064   6.568 -2.4073 -1.6691 -0.0974
  155MOL0     H21365   7.410   4.069   6.399  1.2956 -2.9616  0.7311
  155MOL0     H21366   7.324   4.308   6.484  3.7633 -2.3286 -2.1891
  155MOL0     H21367   7.346   4.238   6.635  0.5740  1.5477 -0.3615
  155MOL0     H21368   7.117   4.228   6.580 -0.9426 -0.7371 -1.1069
  155MOL0     H21369   7.183   4.069   6.595 -2.2791 -0.0876  0.5714
  155MOL0     H21370   7.988   4.734   6.369  0.7939  2.5476  2.5727
  155MOL0     H21371   8.201   4.851   6.445 -0.2311 -0.4036 -0.5931
  155MOL0     H21372   8.665   4.743   6.630  4.7453 -1.3361 -0.5859
  155MOL0     H21373   8.833   4.839   6.729 -1.9486  1.8543  2.6465
  155MOL0     H21374  10.019   6.124   6.540 -0.1212 -0.9885 -2.4801
  155MOL0     H21375  10.215   6.156   6.673 -0.8512 -1.1098 -0.5226
  155MOL0     H21376  10.521   6.219   6.937 -0.3691  0.5599  1.6932
  155MOL0     H21377  10.730   6.254   7.071 -1.4035 -1.9534 -0.7130
  155MOL0     H21378  10.852   6.497   7.093 -0.9943 -1.3715 -1.9267
  155MOL0     H21379  10.919   6.358   7.172 -1.0993  0.0010 -1.2225
  155MOL0     H21380  11.043   6.509   7.250 -1.4794 -2.7380  0.0962
  155MOL0     H21381  11.038   6.616   7.107  1.3116 -0.3527  0.3944
  155MOL0     H21382  11.192   6.348   7.108 -0.3883  0.5416  2.5185
  155MOL0     H21383  11.206   6.484   6.992 -3.1042  0.6296 -0.1360
  155MOL0     H21384  11.284   6.624   7.165  3.1618 -1.5975 -2.7399
  155MOL0     H21385  11.391   6.479   7.155 -0.2292 -2.3194 -1.6786
  155MOL0     H21386  11.267   6.491   7.557  2.1987 -0.1620 -0.7552
  155MOL0     H21387  10.958   6.339   6.730  0.0696  1.3505  1.8900
  155MOL0     H21388  10.689   6.352   6.472  2.7856  3.3353 -1.1165
  155MOL0     H21389  10.858   6.314   6.497  1.1370  1.5203  3.6351
  155MOL0     H21390  10.733   6.184   6.505 -0.0025  0.6770 -1.3350
  156MOL0     O21391   3.310   8.175   6.332  0.5151 -0.4932  0.0551
  156MOL0     C21392   3.246   8.218   6.236 -0.3287  0.9527  0.6258
  156MOL0     O21393   3.267   8.342   6.174 -0.3185  0.3663 -0.0201
  156MOL0     C21394   3.344   8.431   6.242 -0.6431  0.3098  0.0401
  156MOL0     C21395   3.301   8.499   6.359  0.5247 -0.4991 -0.2169
  156MOL0     C21396   3.385   8.581   6.426  0.3576 -0.0968  0.2586
  156MOL0     C21397   3.517   8.613   6.380  0.0217  0.6462  0.7903
  156MOL0     O21398   3.587   8.694   6.465  0.3083 -0.0573 -0.1200
  156MOL0     C21399   3.722   8.729   6.436 -0.1896 -0.4892 -0.0417
  156MOL0     C21400   3.750   8.857   6.366  0.7655  0.1569  0.1979
  156MOL0     C21401   3.874   8.923   6.438  0.3884 -0.0051  0.8104
  156MOL0     C21402   3.850   8.985   6.579  0.7442 -0.0038  0.4676
  156MOL0     C21403   3.912   9.119   6.587  0.5002 -0.8156  0.3530
  156MOL0     C21404   4.060   9.113   6.576 -0.5673  0.0773  0.5283
  156MOL0     C21405   4.108   9.244   6.512  0.1517  0.2450 -0.5030
  156MOL0     C21406   4.061   9.358   6.593  0.1401 -0.7166 -0.6413
  156MOL0     N21407   4.139   9.358   6.724 -0.5820 -0.0617 -0.3265
  156MOL0     C21408   4.120   9.435   6.836 -0.1407 -0.9207  0.1095
  156MOL0     C21409   4.233   9.451   6.900 -0.3738  0.4214  0.4381
  156MOL0     C21410   4.242   9.536   7.024  1.1478  0.2429 -0.6593
  156MOL0     C21411   4.376   9.594   7.061 -0.4291 -0.5647  0.1028
  156MOL0     C21412   4.436   9.681   6.949 -0.0627  1.2849  0.2203
  156MOL0     C21413   4.565   9.741   7.004 -0.9080  0.3732 -0.4991
  156MOL0     O21414   4.640   9.801   6.896  0.1904  0.4304  0.1026
  156MOL0     C21415   4.779   9.791   6.898 -0.0740 -0.0557 -0.5296
  156MOL0     C21416   4.856   9.767   7.011  0.3869  0.5001  0.9842
  156MOL0     C21417   4.992   9.740   7.005  0.0578 -0.3709 -0.1056
  156MOL0     C21418   5.064   9.731   7.141 -0.3535  0.6327  1.2739
  156MOL0     C21419   5.051   9.706   6.879 -0.2091 -0.3556  0.2355
  156MOL0     C21420   5.194   9.673   6.858 -0.1458 -0.3981 -0.1538
  156MOL0     O21421   5.241   9.704   6.740  0.5702  0.3558 -0.2920
  156MOL0     C21422   5.375   9.678   6.702 -0.2584  0.2101  0.6224
  156MOL0     C21423   5.428   9.551   6.699 -1.0584  0.2605  0.5952
  156MOL0     C21424   5.559   9.522   6.661 -0.0315 -0.6021  0.1356
  156MOL0     C21425   5.641   9.630   6.623 -0.5740  1.4714  0.3930
  156MOL0     O21426   5.770   9.612   6.573 -0.0489  0.4307  0.0968
  156MOL0     C21427   5.861   9.522   6.633 -0.2098 -0.2707 -0.3640
  156MOL0     C21428   5.980   9.509   6.534 -0.3687  0.3384  0.0721
  156MOL0     C21429   6.072   9.636   6.548  0.3522 -0.7110  0.4633
  156MOL0     C21430   6.201   9.608   6.471 -0.1154  0.4505  0.7991
  156MOL0     C21431   6.299   9.704   6.515 -0.8940  0.4270  0.7357
  156MOL0     C21432   6.442   9.649   6.477 -0.8665  0.0424 -0.4305
  156MOL0     C21433   6.543   9.741   6.538 -0.2321 -0.0950 -0.0313
  156MOL0     C21434   6.559   9.857   6.434 -0.3428  0.4161  0.5584
  156MOL0    Cl21435   6.700   9.967   6.478  0.0535 -0.2091 -0.3817
  156MOL0     C21436   5.592   9.766   6.637 -0.6000  0.4855  0.6893
  156MOL0     C21437   5.456   9.788   6.663 -0.1718  0.9559  0.5487
  156MOL0     O21438   5.260   9.622   6.944 -0.2855 -0.5823 -0.4189
  156MOL0     C21439   4.970   9.718   6.767  0.2980  0.9366  0.7086
  156MOL0     C21440   4.837   9.757   6.775  0.5784  0.2738 -0.4896
  156MOL0     N21441   4.330   9.391   6.823  0.1140  0.3957 -0.4994
  156MOL0     N21442   4.274   9.337   6.731 -0.3324 -0.1743 -0.5477
  156MOL0     C21443   3.552   8.557   6.254  0.6877  0.2402 -0.1084
  156MOL0     C21444   3.471   8.459   6.194  0.5790  0.1100 -0.3338
  156MOL0     C21445   3.141   8.135   6.161  0.2989  0.8426 -0.3498
  156MOL0     C21446   3.067   8.207   6.061  0.1034  0.3599  0.0966
  156MOL0     C21447   2.975   8.142   5.978 -0.9231  0.1384 -0.1443
  156MOL0     C21448   2.943   8.003   6.003  0.4980  0.0777  0.1741
  156MOL0     O21449   2.851   7.941   5.922 -0.3709  0.3026  0.1905
  156MOL0     C21450   2.833   7.797   5.945  1.0975 -0.0491  0.4878
  156MOL0     C21451   2.703   7.746   5.876 -0.2425  0.1502 -0.6985
  156MOL0     C21452   2.696   7.783   5.725 -0.1730 -0.6881  0.8008
  156MOL0     C21453   2.574   7.724   5.670 -0.1363 -0.0140  0.7041
  156MOL0     C21454   2.567   7.723   5.523  0.9373 -0.4548 -0.3262
  156MOL0     C21455   2.552   7.730   5.399 -0.3778 -0.6324 -0.3458
  156MOL0     C21456   3.017   7.933   6.104  0.8366  0.2247  0.4010
  156MOL0     C21457   3.115   7.993   6.174 -0.1145 -1.4024 -0.5863
  156MOL0     C21458   3.193   7.905   6.270  0.2037  0.5550  0.6288
  156MOL0     H21459   3.210   8.469   6.409  0.7606  0.8510  1.0869
  156MOL0     H21460   3.345   8.609   6.523  2.0580  0.8553  0.7274
  156MOL0     H21461   3.765   8.659   6.364 -0.6483  0.6303 -1.4529
  156MOL0     H21462   3.776   8.736   6.531 -4.3304  1.2030  2.4628
  156MOL0     H21463   3.770   8.838   6.260 -1.0883 -4.2583  0.4486
  156MOL0     H21464   3.665   8.926   6.377 -0.8594 -1.6467 -0.5483
  156MOL0     H21465   3.953   8.847   6.441  1.1103  0.5347 -1.7489
  156MOL0     H21466   3.918   9.000   6.374 -1.2070 -0.4722 -0.9616
  156MOL0     H21467   3.743   8.996   6.598  0.6749  0.8970 -0.3951
  156MOL0     H21468   3.883   8.912   6.654 -0.7674 -2.0416 -0.7480
  156MOL0     H21469   3.885   9.165   6.683 -0.8609 -1.7152  0.4318
  156MOL0     H21470   3.865   9.172   6.503 -1.9906 -2.0558  0.8601
  156MOL0     H21471   4.107   9.096   6.673  0.8095 -2.0925 -0.4583
  156MOL0     H21472   4.080   9.031   6.507 -4.2662 -1.1991  0.7388
  156MOL0     H21473   4.071   9.259   6.411 -0.7387  1.5289 -0.0107
  156MOL0     H21474   4.216   9.240   6.493  0.4210  0.8154  0.8050
  156MOL0     H21475   4.071   9.458   6.549  0.0506  1.1851  3.2118
  156MOL0     H21476   3.952   9.359   6.610 -0.5257  1.5283 -4.1245
  156MOL0     H21477   4.025   9.474   6.869  1.5585  1.3633  2.6465
  156MOL0     H21478   4.206   9.470   7.104 -0.1057  0.6976 -0.8201
  156MOL0     H21479   4.177   9.624   7.015  2.4952  1.5343  1.2870
  156MOL0     H21480   4.366   9.658   7.149 -2.1200  0.2021 -0.6103
  156MOL0     H21481   4.446   9.514   7.085  1.7293  0.9584 -0.7607
  156MOL0     H21482   4.467   9.623   6.862 -0.5117 -1.1013  1.5641
  156MOL0     H21483   4.369   9.764   6.926 -1.7086  0.6988  2.6202
  156MOL0     H21484   4.538   9.819   7.076  1.0412 -0.0988  0.8187
  156MOL0     H21485   4.626   9.657   7.038 -0.4990 -0.0736 -2.2151
  156MOL0     H21486   4.808   9.768   7.108  2.2215  1.7365  1.9473
  156MOL0     H21487   4.993   9.752   7.221 -0.8147 -1.7051  1.5509
  156MOL0     H21488   5.150   9.797   7.155 -0.3146  0.1915  3.4951
  156MOL0     H21489   5.109   9.633   7.162  0.8105  0.9766  0.4558
  156MOL0     H21490   5.373   9.460   6.722  0.9408 -1.0798  0.3179
  156MOL0     H21491   5.581   9.417   6.648 -2.2711 -1.1576  0.4591
  156MOL0     H21492   5.886   9.548   6.736  1.7905 -0.6748 -0.7102
  156MOL0     H21493   5.823   9.419   6.634 -2.0711  0.3741 -0.1507
  156MOL0     H21494   6.039   9.420   6.558  0.6974  1.6034  2.4475
  156MOL0     H21495   5.938   9.506   6.433 -1.2947 -0.6791  0.4637
  156MOL0     H21496   6.081   9.656   6.655 -0.1551 -2.3922  0.8605
  156MOL0     H21497   6.026   9.723   6.501  2.3677  0.3108  0.2798
  156MOL0     H21498   6.173   9.612   6.365 -0.8963  2.7585  1.0327
  156MOL0     H21499   6.238   9.508   6.497  1.8012  1.5124  2.3222
  156MOL0     H21500   6.287   9.804   6.474  1.2604  0.3812 -0.1447
  156MOL0     H21501   6.292   9.711   6.623  0.1197 -0.8985  0.9248
  156MOL0     H21502   6.455   9.641   6.369  1.4297  0.8849 -0.2531
  156MOL0     H21503   6.451   9.549   6.522  1.6821  1.5012  2.6905
  156MOL0     H21504   6.635   9.685   6.555 -0.3487  0.3718  2.6135
  156MOL0     H21505   6.508   9.773   6.637 -0.0288  1.2983 -0.3898
  156MOL0     H21506   6.467   9.915   6.421 -0.8719 -0.1752  1.5747
  156MOL0     H21507   6.591   9.809   6.341  2.4853  1.5927  0.8300
  156MOL0     H21508   5.654   9.854   6.628 -2.1706  1.7044  1.3726
  156MOL0     H21509   5.418   9.889   6.679 -2.5141  0.2944 -0.3211
  156MOL0     H21510   5.006   9.683   6.671 -2.8044 -3.0431  0.7448
  156MOL0     H21511   4.772   9.770   6.689  0.2744  4.7428  0.1992
  156MOL0     H21512   3.650   8.579   6.212  1.0205  1.5713  1.3145
  156MOL0     H21513   3.494   8.420   6.095 -2.1176 -1.4713 -0.4208
  156MOL0     H21514   3.086   8.312   6.040 -2.5113  0.7632 -0.5963
  156MOL0     H21515   2.919   8.193   5.901 -1.6326 -3.1033 -1.9507
  156MOL0     H21516   2.920   7.747   5.902  0.1013 -0.1594 -1.5266
  156MOL0     H21517   2.825   7.775   6.052  0.0705  1.2783  0.7186
  156MOL0     H21518   2.617   7.775   5.936 -1.7086 -0.3523 -2.4923
  156MOL0     H21519   2.690   7.639   5.889  0.7531  0.0279 -0.5886
  156MOL0     H21520   2.699   7.892   5.716  1.7859 -0.7534  0.0254
  156MOL0     H21521   2.787   7.755   5.671 -0.7837 -3.3657  1.0400
  156MOL0     H21522   2.483   7.770   5.710 -0.1260  1.2364 -0.6472
  156MOL0     H21523   2.566   7.617   5.693 -1.7891 -0.0848 -0.0715
  156MOL0     H21524   2.552   7.733   5.292  0.6254 -0.9719 -0.3720
  156MOL0     H21525   2.990   7.835   6.140  1.4829  0.6564  2.1761
  156MOL0     H21526   3.201   7.802   6.234  1.2744  1.8840 -3.4579
  156MOL0     H21527   3.296   7.940   6.277  0.2487  0.2561  1.7019
  156MOL0     H21528   3.155   7.908   6.373 -0.7533 -0.0933  0.3071
  157MOL0     O21529   7.581   3.292   8.280  0.5529  0.7374  0.3965
  157MOL0     C21530   7.613   3.185   8.322 -0.8655  0.5174  0.4389
  157MOL0     O21531   7.734   3.128   8.313 -0.1520  0.3702  0.2706
  157MOL0     C21532   7.843   3.190   8.249 -0.2421  0.6065  0.9839
  157MOL0     C21533   7.827   3.242   8.116 -0.2450 -0.9572 -0.5000
  157MOL0     C21534   7.928   3.310   8.049 -0.0492  0.7210  0.3107
  157MOL0     C21535   8.042   3.352   8.111  0.1894 -0.9960  0.4922
  157MOL0     O21536   8.141   3.427   8.053 -0.2087 -0.2759 -0.1857
  157MOL0     C21537   8.170   3.389   7.920  0.2152 -0.3486 -0.1691
  157MOL0     C21538   8.314   3.434   7.884 -0.4875  0.9793 -1.0633
  157MOL0     C21539   8.411   3.372   7.993  0.1659 -0.3181  0.0726
  157MOL0     C21540   8.559   3.360   7.945  0.1354 -0.0309  0.9881
  157MOL0     C21541   8.576   3.258   7.825 -0.3323  0.3433  0.1637
  157MOL0     C21542   8.541   3.115   7.887 -0.1707 -0.1292  0.4096
  157MOL0     C21543   8.587   2.995   7.804 -0.5027 -0.0884 -0.2290
  157MOL0     C21544   8.749   2.999   7.780 -0.0480 -0.2564 -0.1910
  157MOL0     N21545   8.811   2.890   7.699  0.8363  0.4052  0.2093
  157MOL0     C21546   8.765   2.840   7.580 -0.3249  1.2691 -0.3880
  157MOL0     C21547   8.867   2.751   7.548  0.3849  0.0168 -0.2396
  157MOL0     C21548   8.860   2.637   7.448 -1.0850 -0.2493 -0.5753
  157MOL0     C21549   9.001   2.577   7.423 -0.0882  0.3588 -0.0166
  157MOL0     C21550   8.997   2.475   7.307 -1.0153 -0.0632  0.1216
  157MOL0     C21551   9.110   2.373   7.306 -0.4802  0.2946  0.6190
  157MOL0     O21552   9.237   2.438   7.281  0.0005 -0.3941  0.1850
  157MOL0     C21553   9.349   2.368   7.249  0.1834  0.0336  0.8848
  157MOL0     C21554   9.452   2.441   7.190  0.3291 -0.6303 -0.1617
  157MOL0     C21555   9.582   2.382   7.157  0.0171 -0.0870  0.8699
  157MOL0     C21556   9.696   2.471   7.114  0.3506 -0.0462  0.1237
  157MOL0     C21557   9.587   2.241   7.165  0.5515  0.2412 -0.3587
  157MOL0     C21558   9.707   2.154   7.132 -0.1726 -0.0169  0.0603
  157MOL0     O21559   9.697   2.023   7.155 -0.3530 -0.5222  0.2668
  157MOL0     C21560   9.767   1.938   7.073 -0.0777  0.1509 -0.8963
  157MOL0     C21561   9.712   1.890   6.956 -0.2102 -0.2301  0.0310
  157MOL0     C21562   9.796   1.817   6.871  0.5821 -0.0228  0.0488
  157MOL0     C21563   9.920   1.770   6.915 -0.3475  0.3204 -0.0796
  157MOL0     O21564   9.999   1.683   6.852 -0.3238  0.2268  0.3808
  157MOL0     C21565   9.997   1.700   6.712  0.0127  0.7524  0.1085
  157MOL0     C21566  10.119   1.635   6.653  0.4375 -0.2701 -0.0395
  157MOL0     C21567  10.111   1.636   6.496 -0.4795  1.2407 -0.0979
  157MOL0     C21568   9.974   1.637   6.431  0.5228  0.8285 -0.1964
  157MOL0     C21569   9.983   1.605   6.278 -0.1850 -0.3711  1.0630
  157MOL0     C21570  10.016   1.725   6.188 -0.2070 -0.0347  0.0872
  157MOL0     C21571  10.029   1.677   6.042  0.5899  0.4228 -0.1909
  157MOL0     C21572  10.121   1.770   5.957 -0.5682  0.8749 -0.1026
  157MOL0    Cl21573  10.017   1.905   5.905 -0.3385 -0.0325  0.1612
  157MOL0     C21574   9.964   1.796   7.042  1.0213  0.0435 -0.3603
  157MOL0     C21575   9.884   1.884   7.112 -0.1617  0.0463  0.0210
  157MOL0     O21576   9.807   2.213   7.073  0.1466  0.4187  0.3871
  157MOL0     C21577   9.476   2.168   7.215  0.0649 -0.2730 -0.0314
  157MOL0     C21578   9.358   2.231   7.260  0.7141  0.4832  0.1131
  157MOL0     N21579   8.976   2.779   7.633  0.3844  0.5139  0.2155
  157MOL0     N21580   8.934   2.852   7.723 -1.2033 -0.2200 -0.1042
  157MOL0     C21581   8.060   3.298   8.246  0.3990  0.4846 -0.2786
  157MOL0     C21582   7.961   3.223   8.311 -0.3858  0.5003 -0.0784
  157MOL0     C21583   7.497   3.115   8.392 -1.3964 -0.3144  0.3870
  157MOL0     C21584   7.515   3.067   8.523  0.3366 -0.1279 -0.7973
  157MOL0     C21585   7.407   3.003   8.592 -0.6946 -0.0794 -0.0941
  157MOL0     C21586   7.285   2.986   8.538 -0.6617  0.5353 -0.3000
  157MOL0     O21587   7.199   2.927   8.621  0.8508  0.3085 -0.3357
  157MOL0     C21588   7.069   2.887   8.568  0.1076 -0.5236 -0.3158
  157MOL0     C21589   7.010   2.799   8.680 -0.0593  0.8678 -0.7995
  157MOL0     C21590   6.866   2.755   8.642  0.2245 -0.9103  0.0889
  157MOL0     C21591   6.813   2.659   8.749  0.6843 -0.2851  1.3143
  157MOL0     C21592   6.847   2.701   8.882  0.1024  0.3828  0.7061
  157MOL0     C21593   6.883   2.758   8.980 -0.3219  0.6060 -0.2812
  157MOL0     C21594   7.274   3.041   8.406  0.4268  0.4709  0.3117
  157MOL0     C21595   7.375   3.100   8.329 -0.5795 -0.1630 -0.0455
  157MOL0     C21596   7.356   3.151   8.188  0.7944  0.3420  0.4581
  157MOL0     H21597   7.730   3.230   8.068  0.0845  1.6947 -2.0288
  157MOL0     H21598   7.902   3.341   7.948 -2.2033  3.1009  1.5131
  157MOL0     H21599   8.103   3.443   7.852 -0.1842 -0.3382  0.2328
  157MOL0     H21600   8.152   3.281   7.912 -0.5492 -0.2985  0.7450
  157MOL0     H21601   8.343   3.389   7.788 -1.0733  0.5941 -1.0651
  157MOL0     H21602   8.315   3.543   7.886  0.2584  0.9843 -1.3935
  157MOL0     H21603   8.412   3.442   8.077 -0.3838  3.5400 -2.8392
  157MOL0     H21604   8.370   3.275   8.022  0.0778  0.3801  2.4997
  157MOL0     H21605   8.595   3.458   7.912  0.8517 -0.5487  0.2027
  157MOL0     H21606   8.621   3.322   8.027 -1.2436 -2.7852  0.8733
  157MOL0     H21607   8.679   3.282   7.796 -0.3064  1.5814  1.1969
  157MOL0     H21608   8.512   3.262   7.737  1.6353  2.5185 -1.2836
  157MOL0     H21609   8.586   3.093   7.985 -1.3822 -2.6335  0.4754
  157MOL0     H21610   8.433   3.121   7.903 -0.3477  1.6496 -1.0817
  157MOL0     H21611   8.544   3.006   7.704  0.1800 -4.0891 -1.1322
  157MOL0     H21612   8.556   2.899   7.847  0.4428 -0.5678 -0.5987
  157MOL0     H21613   8.769   3.097   7.734 -1.6129  0.4490  0.5522
  157MOL0     H21614   8.795   2.995   7.879 -0.4427 -2.9383 -0.0375
  157MOL0     H21615   8.663   2.843   7.543 -0.4970 -0.8302 -0.2143
  157MOL0     H21616   8.807   2.670   7.358 -2.3994  2.1981  1.0053
  157MOL0     H21617   8.791   2.560   7.484 -1.0524 -1.5119 -2.9997
  157MOL0     H21618   9.077   2.648   7.388  2.5793 -2.5044 -0.5561
  157MOL0     H21619   9.039   2.522   7.509  0.0900  0.8461  0.2195
  157MOL0     H21620   8.903   2.420   7.319 -2.4957  1.8796 -1.6346
  157MOL0     H21621   8.984   2.530   7.213 -1.5312 -2.2764 -1.1573
  157MOL0     H21622   9.120   2.331   7.406  0.3960  0.6112  0.6687
  157MOL0     H21623   9.089   2.298   7.229  0.0794  2.2695 -1.5944
  157MOL0     H21624   9.438   2.548   7.175  0.1157 -0.3766  1.6406
  157MOL0     H21625   9.704   2.449   7.007 -0.8304 -1.0052  0.2141
  157MOL0     H21626   9.778   2.441   7.180 -2.8309 -2.7042  3.3005
  157MOL0     H21627   9.667   2.576   7.126  0.0450 -0.3212  2.1446
  157MOL0     H21628   9.613   1.927   6.930 -0.6936 -1.3589  0.2182
  157MOL0     H21629   9.772   1.779   6.772  0.4763 -1.6497  0.6678
  157MOL0     H21630   9.909   1.657   6.664 -0.0827  3.3125 -2.2931
  157MOL0     H21631   9.984   1.802   6.675  0.6661 -0.0144 -2.3991
  157MOL0     H21632  10.187   1.704   6.703  0.4364 -1.8829  2.3066
  157MOL0     H21633  10.119   1.533   6.691  0.5911 -0.2855 -0.0841
  157MOL0     H21634  10.167   1.545   6.474  2.7503  1.5472  5.1089
  157MOL0     H21635  10.171   1.715   6.451  0.6993 -1.0002 -2.7790
  157MOL0     H21636   9.936   1.740   6.434  0.6692  0.9717 -1.9364
  157MOL0     H21637   9.911   1.561   6.478 -1.2022  3.2954  1.7514
  157MOL0     H21638  10.067   1.536   6.270  0.8302  0.9737 -0.1015
  157MOL0     H21639   9.903   1.545   6.233 -1.2219  0.2589  1.9980
  157MOL0     H21640  10.103   1.778   6.227  1.1358 -2.3037  0.3034
  157MOL0     H21641   9.929   1.792   6.189 -0.0622  0.1542  0.0838
  157MOL0     H21642   9.927   1.682   6.004  0.1529  1.5698  1.0421
  157MOL0     H21643  10.062   1.573   6.043 -3.0349 -0.8606 -0.2534
  157MOL0     H21644  10.171   1.728   5.869  2.7915  1.0242  1.5727
  157MOL0     H21645  10.202   1.799   6.024 -1.2735  0.8813  0.7563
  157MOL0     H21646  10.056   1.758   7.085  1.8977  0.4373 -1.8367
  157MOL0     H21647   9.928   1.926   7.203  1.4829 -1.4859  0.0037
  157MOL0     H21648   9.473   2.061   7.229 -2.0671  0.1199  4.0136
  157MOL0     H21649   9.270   2.177   7.295 -0.6078  2.1081 -0.6041
  157MOL0     H21650   8.156   3.309   8.294  0.8214  0.1317 -1.0225
  157MOL0     H21651   7.967   3.189   8.414 -3.4966  3.4360  1.2726
  157MOL0     H21652   7.615   3.086   8.561  0.5859 -3.6788  0.7319
  157MOL0     H21653   7.430   2.969   8.693  0.7854  0.3028 -0.2736
  157MOL0     H21654   7.006   2.973   8.542 -0.8784 -0.4688  2.0374
  157MOL0     H21655   7.088   2.816   8.486 -2.5978 -1.6926 -0.0537
  157MOL0     H21656   7.014   2.878   8.756 -2.0150  2.6565 -2.4273
  157MOL0     H21657   7.074   2.712   8.697  0.3706  1.1797 -0.7917
  157MOL0     H21658   6.803   2.842   8.628  1.5456 -0.0547 -0.8754
  157MOL0     H21659   6.874   2.713   8.541  0.4030  1.4479 -0.9268
  157MOL0     H21660   6.856   2.561   8.727  0.9252  0.3187 -1.2013
  157MOL0     H21661   6.705   2.648   8.741  0.8347 -0.5390 -1.7575
  157MOL0     H21662   6.906   2.809   9.072 -0.2577  1.3738 -0.7158
  157MOL0     H21663   7.174   3.032   8.364  1.4337  1.0047 -2.4353
  157MOL0     H21664   7.291   3.084   8.130  2.1407  0.0486 -0.7797
  157MOL0     H21665   7.315   3.252   8.193  0.4445  0.2998 -1.0581
  157MOL0     H21666   7.447   3.154   8.129  0.1214 -1.9500 -0.8446
  158MOL0     O21667   0.775   7.606   6.381 -0.6243 -0.0383 -0.2392
  158MOL0     C21668   0.707   7.536   6.312  0.2750 -0.4305 -0.0521
  158MOL0     O21669   0.751   7.458   6.218 -0.7357  0.5238  0.4994
  158MOL0     C21670   0.883   7.452   6.195 -0.5070 -0.3405 -0.6114
  158MOL0     C21671   0.976   7.379   6.259  0.3267 -0.9073 -0.7989
  158MOL0     C21672   1.111   7.368   6.219 -0.0246  0.2256 -0.1371
  158MOL0     C21673   1.159   7.446   6.115 -0.6279 -0.2931  0.9881
  158MOL0     O21674   1.285   7.454   6.066  0.0608 -0.0035 -0.2071
  158MOL0     C21675   1.392   7.402   6.152 -0.4260 -0.4669 -0.4611
  158MOL0     C21676   1.512   7.496   6.145  1.2887 -0.1885 -1.1039
  158MOL0     C21677   1.632   7.411   6.174 -0.7585  0.3308  0.0584
  158MOL0     C21678   1.752   7.498   6.117 -0.2958 -0.1339 -0.7183
  158MOL0     C21679   1.878   7.491   6.196  0.3290 -0.2818  0.1259
  158MOL0     C21680   2.015   7.554   6.136  0.1270 -0.5240  0.7305
  158MOL0     C21681   2.128   7.551   6.229 -0.0608  0.0201  0.0945
  158MOL0     C21682   2.144   7.675   6.317 -0.0879 -0.3273  0.4716
  158MOL0     N21683   2.252   7.657   6.409 -0.6190 -0.9574 -0.3625
  158MOL0     C21684   2.387   7.672   6.364 -0.1896  0.1072  0.0014
  158MOL0     C21685   2.464   7.646   6.466  0.4935  0.3032  0.3916
  158MOL0     C21686   2.611   7.637   6.478  0.3360  1.6796 -0.8356
  158MOL0     C21687   2.688   7.753   6.422  0.4302  0.4239  0.2718
  158MOL0     C21688   2.650   7.901   6.471  0.3059  0.8228 -0.1147
  158MOL0     C21689   2.737   8.001   6.379  1.2354  0.7985 -0.5131
  158MOL0     O21690   2.867   8.018   6.434 -0.7566 -0.4902 -0.0640
  158MOL0     C21691   2.900   8.117   6.520 -0.0903 -0.6504  0.1319
  158MOL0     C21692   2.814   8.174   6.612  0.1335 -0.1288  0.3157
  158MOL0     C21693   2.852   8.266   6.708 -0.1655 -0.7257 -0.0865
  158MOL0     C21694   2.737   8.329   6.793 -0.0488 -0.0153  0.5676
  158MOL0     C21695   2.997   8.279   6.737  0.1822  0.1960  0.1711
  158MOL0     C21696   3.066   8.351   6.849 -0.8777 -1.0528 -0.7374
  158MOL0     O21697   3.200   8.346   6.839  0.0447  0.7688  0.1116
  158MOL0     C21698   3.285   8.406   6.931 -0.2164 -0.5756  1.0958
  158MOL0     C21699   3.259   8.446   7.055 -0.0543 -0.2519 -0.3140
  158MOL0     C21700   3.364   8.504   7.128 -0.2837  0.0485 -0.9668
  158MOL0     C21701   3.493   8.520   7.077  0.1104 -0.0374  0.7437
  158MOL0     O21702   3.581   8.606   7.141  0.1322 -0.5742 -0.2886
  158MOL0     C21703   3.697   8.655   7.069  0.1262  0.4400 -0.1402
  158MOL0     C21704   3.760   8.781   7.143 -0.4954 -0.5344 -0.4533
  158MOL0     C21705   3.655   8.888   7.175 -0.1043  0.0593 -0.2226
  158MOL0     C21706   3.695   8.984   7.297  0.0042  0.1024  0.7277
  158MOL0     C21707   3.602   9.096   7.302 -0.8073 -0.1515 -0.3505
  158MOL0     C21708   3.643   9.172   7.432 -0.0007  0.2198  1.0038
  158MOL0     C21709   3.577   9.306   7.423 -0.0314 -0.4631 -0.1756
  158MOL0     C21710   3.560   9.379   7.554  0.7387 -0.4400 -0.1951
  158MOL0    Cl21711   3.733   9.430   7.614  0.3382  0.0025  0.1859
  158MOL0     C21712   3.518   8.461   6.951  0.4815 -0.8896 -0.9356
  158MOL0     C21713   3.417   8.407   6.886  0.2956  0.6535 -0.0991
  158MOL0     O21714   2.996   8.422   6.926 -0.3996 -0.4649  0.2324
  158MOL0     C21715   3.083   8.222   6.637 -0.8552  0.3346  0.4862
  158MOL0     C21716   3.033   8.149   6.531 -0.1074 -0.3231  0.3584
  158MOL0     N21717   2.384   7.602   6.567  0.4166  0.4940 -0.1775
  158MOL0     N21718   2.255   7.623   6.536  0.2856 -0.5648 -0.4947
  158MOL0     C21719   1.069   7.521   6.047 -0.2766 -0.4134 -1.0067
  158MOL0     C21720   0.932   7.526   6.087  0.1664  0.8360 -0.6695
  158MOL0     C21721   0.558   7.543   6.326 -0.4347 -0.7973 -0.1802
  158MOL0     C21722   0.489   7.507   6.205  1.0224  0.0462 -0.0318
  158MOL0     C21723   0.348   7.499   6.198 -0.4116  0.0621  0.6993
  158MOL0     C21724   0.276   7.523   6.314  0.2900  0.0576 -0.8007
  158MOL0     O21725   0.134   7.521   6.317  0.1101  0.1855  0.2196
  158MOL0     C21726   0.065   7.471   6.203 -0.4375 -0.0113 -0.6722
  158MOL0     C21727  -0.078   7.439   6.245  0.5549 -0.0776 -0.0953
  158MOL0     C21728  -0.169   7.573   6.253  0.5200 -0.0129  0.0257
  158MOL0     C21729  -0.109   7.663   6.365 -0.2957  0.7790  0.5166
  158MOL0     C21730  -0.210   7.760   6.403 -0.0120  0.8955  1.1489
  158MOL0     C21731  -0.289   7.837   6.452  0.4351 -0.5371  0.1345
  158MOL0     C21732   0.343   7.560   6.432 -0.7431 -0.0001  0.1426
  158MOL0     C21733   0.483   7.569   6.444  0.0139 -0.3070  0.7783
  158MOL0     C21734   0.553   7.597   6.572 -0.0012 -0.2922  0.1082
  158MOL0     H21735   0.942   7.306   6.333  0.4997  0.3154  0.5263
  158MOL0     H21736   1.171   7.294   6.271  0.3487  0.5867 -0.0536
  158MOL0     H21737   1.417   7.298   6.128 -2.6073 -1.4195  1.0938
  158MOL0     H21738   1.362   7.392   6.257  0.2896 -0.2094 -0.2177
  158MOL0     H21739   1.509   7.545   6.048 -5.7888  1.5805 -0.4750
  158MOL0     H21740   1.492   7.582   6.209 -0.6033 -1.7222  0.4734
  158MOL0     H21741   1.658   7.401   6.280 -0.0671  0.6282 -0.0789
  158MOL0     H21742   1.623   7.316   6.121 -3.7743  1.5050 -1.7635
  158MOL0     H21743   1.772   7.469   6.014  1.0793  2.6008 -1.3281
  158MOL0     H21744   1.720   7.603   6.109 -2.7255 -0.6573  0.9383
  158MOL0     H21745   1.909   7.386   6.199  1.7450  0.1256  0.8701
  158MOL0     H21746   1.859   7.532   6.296  1.8879 -1.3503  0.9128
  158MOL0     H21747   2.041   7.494   6.047 -0.5972 -1.5004  1.1565
  158MOL0     H21748   1.985   7.649   6.090 -1.4186 -2.9174 -3.9408
  158MOL0     H21749   2.214   7.566   6.163 -1.9318  4.3189 -1.7299
  158MOL0     H21750   2.140   7.463   6.293  1.9431 -0.2786 -0.6173
  158MOL0     H21751   2.165   7.756   6.246  0.3784  0.1701  1.1556
  158MOL0     H21752   2.060   7.697   6.383  0.4263  2.3407  0.3511
  158MOL0     H21753   2.417   7.695   6.263  0.5147  0.9162  0.3805
  158MOL0     H21754   2.655   7.543   6.442  4.1727  1.6815  2.9600
  158MOL0     H21755   2.634   7.624   6.584 -3.1056  0.9600 -0.0686
  158MOL0     H21756   2.794   7.746   6.446  1.2857  3.7711 -1.9405
  158MOL0     H21757   2.684   7.740   6.313  0.7679 -1.1157  0.4119
  158MOL0     H21758   2.550   7.936   6.445 -0.0040  1.4466  1.8148
  158MOL0     H21759   2.666   7.919   6.577  0.1202  2.1194 -0.2987
  158MOL0     H21760   2.747   7.957   6.279 -3.3733  0.1726 -0.8954
  158MOL0     H21761   2.688   8.098   6.372 -0.8257  0.1520  2.8618
  158MOL0     H21762   2.710   8.148   6.594  0.3233 -0.8376  0.1993
  158MOL0     H21763   2.732   8.304   6.900 -2.8877  1.2436  0.8409
  158MOL0     H21764   2.637   8.307   6.752 -0.0570 -0.8194  0.9878
  158MOL0     H21765   2.755   8.436   6.786  1.7773 -0.4083 -2.7994
  158MOL0     H21766   3.163   8.431   7.104 -0.7869 -0.3725 -1.7424
  158MOL0     H21767   3.351   8.555   7.223 -0.0148  3.0777 -2.4503
  158MOL0     H21768   3.760   8.566   7.064 -0.5945 -0.5887  4.4666
  158MOL0     H21769   3.672   8.680   6.965  0.0382 -1.6313 -0.6500
  158MOL0     H21770   3.808   8.751   7.236  0.6081 -0.0430 -0.8494
  158MOL0     H21771   3.840   8.833   7.089 -1.3118  2.4550  1.0330
  158MOL0     H21772   3.556   8.850   7.203 -0.0300  1.0420  1.5310
  158MOL0     H21773   3.650   8.951   7.086  0.7057 -1.4893 -1.3941
  158MOL0     H21774   3.799   9.013   7.281  0.4143 -2.5594 -2.5263
  158MOL0     H21775   3.691   8.925   7.389  0.0503 -0.7672  0.1844
  158MOL0     H21776   3.619   9.165   7.219 -0.4496  1.8257  1.2750
  158MOL0     H21777   3.498   9.061   7.307 -1.1202  0.8564  1.7783
  158MOL0     H21778   3.751   9.183   7.426 -0.0989  1.1889  0.7340
  158MOL0     H21779   3.630   9.119   7.527  2.5151 -0.9589  0.7691
  158MOL0     H21780   3.476   9.284   7.387  0.2814 -1.7512 -0.3195
  158MOL0     H21781   3.636   9.367   7.355  0.6973  1.2993  1.9292
  158MOL0     H21782   3.513   9.319   7.632 -3.0305 -0.2490 -2.0563
  158MOL0     H21783   3.497   9.465   7.529 -1.6208 -1.8406  0.6042
  158MOL0     H21784   3.618   8.472   6.911  0.9196  0.3430  0.4211
  158MOL0     H21785   3.437   8.356   6.793  0.4347  0.1130  0.2273
  158MOL0     H21786   3.191   8.233   6.636 -0.7784 -0.0501 -2.0378
  158MOL0     H21787   3.090   8.117   6.444 -1.0682  1.4759 -1.0008
  158MOL0     H21788   1.104   7.573   5.959 -0.4013 -1.0363 -1.4293
  158MOL0     H21789   0.858   7.587   6.038  0.8805  1.5371 -0.8936
  158MOL0     H21790   0.549   7.487   6.117  6.0769 -1.0105  3.2309
  158MOL0     H21791   0.303   7.473   6.103 -0.4518 -0.6805  0.9154
  158MOL0     H21792   0.079   7.540   6.119 -0.7595  0.1068 -0.6300
  158MOL0     H21793   0.095   7.371   6.171 -2.1206 -0.2219 -1.6877
  158MOL0     H21794  -0.074   7.399   6.346  2.0208 -3.4355 -1.3427
  158MOL0     H21795  -0.125   7.358   6.189  1.0012 -0.4481  0.0575
  158MOL0     H21796  -0.170   7.611   6.151 -0.8135 -2.3851 -0.9273
  158MOL0     H21797  -0.272   7.543   6.274 -0.0292 -0.7838 -3.3515
  158MOL0     H21798  -0.023   7.713   6.319 -0.1069 -1.4959 -1.8289
  158MOL0     H21799  -0.077   7.603   6.451 -2.8196  1.6371  2.1529
  158MOL0     H21800  -0.355   7.906   6.502  2.1291  1.3686 -0.1202
  158MOL0     H21801   0.274   7.570   6.516 -0.4458 -1.5400  0.6006
  158MOL0     H21802   0.479   7.593   6.653 -0.5971 -2.3050 -0.4729
  158MOL0     H21803   0.620   7.513   6.592 -2.7579 -2.8120 -0.4699
  158MOL0     H21804   0.597   7.697   6.575  0.1303 -0.3567  1.8556
  159MOL0     O21805   9.885   1.520   7.661 -0.3711  0.7744 -0.0718
  159MOL0     C21806   9.781   1.538   7.601  0.9195 -0.9491 -0.6156
  159MOL0     O21807   9.693   1.445   7.558  0.0335  0.3702 -0.4412
  159MOL0     C21808   9.725   1.318   7.576 -0.8186  0.9498  0.4358
  159MOL0     C21809   9.669   1.242   7.674 -0.8012 -0.3234 -0.1448
  159MOL0     C21810   9.695   1.103   7.684  0.6136 -0.3904 -0.3651
  159MOL0     C21811   9.777   1.038   7.595 -0.1544 -0.5311 -0.2287
  159MOL0     O21812   9.806   0.908   7.619 -0.4425 -0.4163 -0.2679
  159MOL0     C21813   9.944   0.881   7.636  0.1616  0.0568 -0.3219
  159MOL0     C21814   9.970   0.737   7.595 -0.7576  0.3952 -0.6472
  159MOL0     C21815  10.126   0.706   7.612  0.1464  0.2356  0.1653
  159MOL0     C21816  10.198   0.746   7.485  0.4160 -1.0427  0.7859
  159MOL0     C21817  10.355   0.730   7.492  0.5410  0.3421  0.2746
  159MOL0     C21818  10.423   0.797   7.368 -1.0433 -0.8764 -0.0942
  159MOL0     C21819  10.391   0.747   7.233  0.3856 -0.1802 -0.4749
  159MOL0     C21820  10.490   0.779   7.128 -0.9032 -0.1605 -0.4513
  159MOL0     N21821  10.591   0.669   7.113  0.0835  0.2494  1.0479
  159MOL0     C21822  10.574   0.541   7.062 -0.2582  0.2463 -0.0060
  159MOL0     C21823  10.696   0.476   7.081 -0.7762 -1.3237  0.1428
  159MOL0     C21824  10.750   0.350   7.028  0.3187 -0.8363 -0.6066
  159MOL0     C21825  10.712   0.321   6.886  0.0085 -0.1830  0.3839
  159MOL0     C21826  10.790   0.197   6.833 -0.0055  0.0657 -0.1144
  159MOL0     C21827  10.739   0.165   6.705  0.5569  0.0343 -0.1628
  159MOL0     O21828  10.741   0.276   6.614 -0.3438 -0.2561  0.1059
  159MOL0     C21829  10.832   0.266   6.518  0.5049  0.4398  0.6532
  159MOL0     C21830  10.797   0.217   6.387 -0.3578  0.8625  0.1533
  159MOL0     C21831  10.899   0.190   6.301  0.2814  0.0509  0.1263
  159MOL0     C21832  10.862   0.139   6.157  0.8393 -0.1416 -0.6973
  159MOL0     C21833  11.036   0.216   6.331 -0.4235 -0.0911  1.2984
  159MOL0     C21834  11.153   0.197   6.236 -0.7970 -0.2866  0.3161
  159MOL0     O21835  11.221   0.314   6.201  0.0207  0.0730 -0.5808
  159MOL0     C21836  11.327   0.298   6.122  0.0722  0.6474  0.1080
  159MOL0     C21837  11.442   0.233   6.167 -0.1802  0.0102 -0.2319
  159MOL0     C21838  11.557   0.220   6.092 -0.0261 -0.4358 -0.3798
  159MOL0     C21839  11.546   0.263   5.957  0.0599  0.8552  0.8857
  159MOL0     O21840  11.656   0.236   5.874 -0.3197 -0.0111  0.0755
  159MOL0     C21841  11.668   0.294   5.746 -1.3433 -0.7764  0.2187
  159MOL0     C21842  11.810   0.277   5.685  0.4222  0.3539 -0.0653
  159MOL0     C21843  11.933   0.319   5.780  1.0473 -0.4061 -0.5359
  159MOL0     C21844  12.057   0.309   5.695  0.9058  0.4967 -0.2311
  159MOL0     C21845  12.179   0.370   5.756  0.0246  0.6264  0.2000
  159MOL0     C21846  12.227   0.318   5.893 -0.1767  0.8691  0.2811
  159MOL0     C21847  12.376   0.344   5.923  0.7604  0.4863 -1.2104
  159MOL0     C21848  12.398   0.479   5.991  0.3332  1.1412  0.1727
  159MOL0    Cl21849  12.581   0.505   5.995  0.1749  0.6074  0.1486
  159MOL0     C21850  11.417   0.300   5.903  0.4787 -0.0900  0.3678
  159MOL0     C21851  11.311   0.325   5.992  0.7485 -0.1581  0.7233
  159MOL0     O21852  11.177   0.080   6.200  0.0327 -0.6840 -0.0172
  159MOL0     C21853  11.067   0.261   6.455  0.2828  0.4582  0.2668
  159MOL0     C21854  10.966   0.292   6.547 -0.2773  0.4956  0.6745
  159MOL0     N21855  10.781   0.564   7.143 -0.1465 -0.1880  0.3798
  159MOL0     N21856  10.720   0.678   7.154  1.0172  0.1320  0.4077
  159MOL0     C21857   9.834   1.115   7.488 -0.4931 -1.1015 -0.2811
  159MOL0     C21858   9.819   1.254   7.490 -0.3164  0.1367  0.1835
  159MOL0     C21859   9.743   1.684   7.576  0.9196  0.4725 -0.9927
  159MOL0     C21860   9.616   1.731   7.611 -0.6313 -0.0542  0.3782
  159MOL0     C21861   9.590   1.867   7.598  0.1442 -0.2328  0.6542
  159MOL0     C21862   9.681   1.963   7.541  0.1226  0.4728  0.1031
  159MOL0     O21863   9.657   2.102   7.547  0.2547 -0.0627  0.6763
  159MOL0     C21864   9.766   2.194   7.527 -0.5421  0.4018  0.6569
  159MOL0     C21865   9.717   2.332   7.539 -1.0580 -0.5900  0.5062
  159MOL0     C21866   9.826   2.424   7.482 -0.0114 -0.0628  0.6081
  159MOL0     C21867   9.788   2.570   7.497 -0.5754 -0.6473 -0.3071
  159MOL0     C21868   9.895   2.660   7.447 -0.4762  1.3293  0.3393
  159MOL0     C21869   9.970   2.733   7.383  0.3963  0.3645 -0.2955
  159MOL0     C21870   9.799   1.907   7.500  0.3818 -1.0879  1.0100
  159MOL0     C21871   9.831   1.774   7.520 -0.3023 -0.4085  0.1655
  159MOL0     C21872   9.976   1.728   7.491  0.3788  0.2102  0.1018
  159MOL0     H21873   9.604   1.301   7.737 -2.8234 -0.1275 -2.2992
  159MOL0     H21874   9.662   1.037   7.764 -1.4628  1.8505  0.7540
  159MOL0     H21875   9.960   0.897   7.743  1.1738 -2.6598  0.0033
  159MOL0     H21876  10.013   0.946   7.582  1.5764  0.0863  1.4342
  159MOL0     H21877   9.934   0.669   7.673  1.2912  3.9478  3.8340
  159MOL0     H21878   9.941   0.702   7.496  0.3833  0.3786 -0.9958
  159MOL0     H21879  10.163   0.768   7.695 -0.9398  0.3194  0.6014
  159MOL0     H21880  10.148   0.600   7.626 -0.3508 -0.4155 -3.2839
  159MOL0     H21881  10.140   0.695   7.408 -0.9345  0.2723  0.8892
  159MOL0     H21882  10.174   0.850   7.463 -0.5497 -1.4629 -0.2596
  159MOL0     H21883  10.368   0.622   7.484  0.3142  0.2516  1.0834
  159MOL0     H21884  10.384   0.772   7.589 -2.5593  1.8449  0.6593
  159MOL0     H21885  10.395   0.902   7.383 -0.2370 -0.2860 -2.3909
  159MOL0     H21886  10.531   0.805   7.383 -1.4003  0.7538  2.0902
  159MOL0     H21887  10.303   0.800   7.196 -0.4954 -2.1079 -1.2709
  159MOL0     H21888  10.379   0.638   7.230 -1.8846  0.0432 -0.6749
  159MOL0     H21889  10.439   0.787   7.032  0.9732  1.2963 -1.3932
  159MOL0     H21890  10.541   0.875   7.143 -3.7716  1.4309 -0.3384
  159MOL0     H21891  10.484   0.504   7.014 -0.4962  0.2912  0.3998
  159MOL0     H21892  10.725   0.268   7.096  0.6532  1.3526  2.3688
  159MOL0     H21893  10.859   0.356   7.035  0.1860  0.2402  1.3971
  159MOL0     H21894  10.608   0.288   6.890  0.4797 -1.8424 -0.1192
  159MOL0     H21895  10.735   0.407   6.822  1.6924  0.2597  1.5119
  159MOL0     H21896  10.898   0.214   6.827  0.3721 -1.5411  1.3658
  159MOL0     H21897  10.772   0.119   6.907  0.2701  1.2589  1.2671
  159MOL0     H21898  10.798   0.085   6.659  0.7522  1.5221 -2.6395
  159MOL0     H21899  10.634   0.136   6.716  0.9806 -1.4146  0.3292
  159MOL0     H21900  10.695   0.198   6.357  0.4116  0.4391 -2.4319
  159MOL0     H21901  10.779   0.201   6.120 -0.0800 -1.2039 -0.4517
  159MOL0     H21902  10.828   0.035   6.163  0.2491  0.1170  0.7416
  159MOL0     H21903  10.945   0.149   6.087  1.2654  2.9032  0.0866
  159MOL0     H21904  11.437   0.198   6.270  1.0119  0.3855 -0.0276
  159MOL0     H21905  11.651   0.184   6.132  0.2770  0.4465 -0.2999
  159MOL0     H21906  11.596   0.253   5.673 -1.5052  1.9474 -1.2970
  159MOL0     H21907  11.633   0.397   5.756 -1.6387 -0.6564 -1.5887
  159MOL0     H21908  11.827   0.171   5.662 -1.4662  0.5795 -3.0789
  159MOL0     H21909  11.798   0.339   5.596 -1.6101  1.7112  1.0647
  159MOL0     H21910  11.925   0.253   5.867 -0.4641 -2.8308 -2.3935
  159MOL0     H21911  11.909   0.421   5.812  0.0990 -1.1555  1.2970
  159MOL0     H21912  12.045   0.363   5.600  1.8928  0.3970 -0.4172
  159MOL0     H21913  12.072   0.203   5.675  0.6993 -0.0178  2.0614
  159MOL0     H21914  12.258   0.353   5.682 -1.6897 -1.2648 -1.3155
  159MOL0     H21915  12.159   0.477   5.771 -2.9244 -0.2347  3.9699
  159MOL0     H21916  12.213   0.209   5.890 -1.4873  1.0055 -2.5667
  159MOL0     H21917  12.166   0.365   5.970 -0.1159  1.8143 -0.2304
  159MOL0     H21918  12.432   0.348   5.829 -0.5619 -0.5503 -2.0943
  159MOL0     H21919  12.416   0.269   5.992 -0.8633  0.7620  0.1024
  159MOL0     H21920  12.364   0.465   6.093 -4.1914 -0.2174 -1.2951
  159MOL0     H21921  12.338   0.558   5.943  0.9185  1.0699 -0.7033
  159MOL0     H21922  11.394   0.326   5.800 -1.1051 -0.9902  0.4625
  159MOL0     H21923  11.214   0.352   5.952  0.3144 -0.6040  1.4597
  159MOL0     H21924  11.170   0.257   6.486  0.6012  3.1372 -0.2483
  159MOL0     H21925  11.001   0.320   6.646 -2.3446 -0.4332  1.7290
  159MOL0     H21926   9.906   1.068   7.423  1.3913 -0.7813  1.4805
  159MOL0     H21927   9.877   1.314   7.420 -0.2569  1.8018  1.5857
  159MOL0     H21928   9.545   1.659   7.652  0.0564  0.5715  2.7829
  159MOL0     H21929   9.500   1.907   7.644  1.8467  1.4525  2.7414
  159MOL0     H21930   9.837   2.182   7.609  0.2832 -2.9170 -0.3896
  159MOL0     H21931   9.821   2.187   7.433  0.0857  2.1863  0.8625
  159MOL0     H21932   9.702   2.366   7.642 -2.5601  2.8891 -0.6921
  159MOL0     H21933   9.628   2.347   7.478 -2.8154  3.0483  3.5174
  159MOL0     H21934   9.916   2.395   7.537 -1.0059 -1.0704  1.7820
  159MOL0     H21935   9.826   2.410   7.373  0.0757 -0.7535  0.6915
  159MOL0     H21936   9.765   2.598   7.600 -2.5419 -0.1048 -0.8484
  159MOL0     H21937   9.694   2.581   7.441 -0.8273  0.2962  0.2645
  159MOL0     H21938  10.044   2.796   7.338  0.2535 -0.5568 -1.8700
  159MOL0     H21939   9.868   1.976   7.451  1.1073 -0.8907  2.2525
  159MOL0     H21940   9.986   1.626   7.453  1.4565  0.5249 -0.5050
  159MOL0     H21941  10.022   1.780   7.406  0.3744  2.2577  1.2800
  159MOL0     H21942  10.031   1.742   7.584 -0.3911  1.1646  0.4329
  160MOL0     O21943   5.311   6.926   5.523 -0.0850 -0.2506 -0.3831
  160MOL0     C21944   5.301   7.044   5.492  0.4485 -0.9162 -0.1722
  160MOL0     O21945   5.400   7.137   5.494  0.2533  0.0501  0.0069
  160MOL0     C21946   5.522   7.095   5.541 -0.1246  0.5216  0.5561
  160MOL0     C21947   5.541   7.080   5.676 -0.4604  0.8214 -1.2493
  160MOL0     C21948   5.670   7.048   5.724  0.3286  0.6475 -0.3061
  160MOL0     C21949   5.774   7.005   5.642 -0.6311  0.7949  0.2991
  160MOL0     O21950   5.891   6.961   5.699  0.0302  0.6922  0.5614
  160MOL0     C21951   6.012   7.009   5.650 -0.1968  0.0042  0.6011
  160MOL0     C21952   6.112   6.905   5.670  0.5002  0.9531 -0.2168
  160MOL0     C21953   6.161   6.905   5.814  0.3309 -0.6523  1.0793
  160MOL0     C21954   6.287   6.807   5.834  0.4090  0.1158 -0.2150
  160MOL0     C21955   6.235   6.686   5.915  0.2427 -0.9992 -0.2039
  160MOL0     C21956   6.344   6.593   5.956 -1.1334  0.2753 -0.3395
  160MOL0     C21957   6.303   6.489   6.053  0.5947  0.0618 -0.5592
  160MOL0     C21958   6.385   6.366   6.053 -0.1925  0.4087  0.2730
  160MOL0     N21959   6.521   6.378   6.094  0.0790 -0.1998 -0.2308
  160MOL0     C21960   6.557   6.396   6.227  0.3336  0.0394  0.4640
  160MOL0     C21961   6.688   6.420   6.221  0.5879  0.6644 -0.6648
  160MOL0     C21962   6.779   6.404   6.342  1.0063 -0.0099 -0.5295
  160MOL0     C21963   6.807   6.263   6.405 -0.6830 -0.7824 -0.0949
  160MOL0     C21964   6.911   6.186   6.323  0.4964 -0.8450  0.4063
  160MOL0     C21965   6.942   6.249   6.180  0.5325 -0.1696  0.4907
  160MOL0     O21966   7.067   6.189   6.145 -0.2586 -0.9621  0.0692
  160MOL0     C21967   7.110   6.215   6.018  0.3478 -0.0281  1.0527
  160MOL0     C21968   7.224   6.141   5.981 -0.4175 -0.1497 -0.1812
  160MOL0     C21969   7.284   6.161   5.851 -0.3592 -0.0996 -0.6568
  160MOL0     C21970   7.411   6.092   5.828 -0.5415 -0.0313  0.2955
  160MOL0     C21971   7.212   6.234   5.755  0.1140 -0.0167  0.1838
  160MOL0     C21972   7.242   6.229   5.610  0.4977  0.1620  0.4204
  160MOL0     O21973   7.331   6.143   5.562 -0.5329 -0.0347  0.1070
  160MOL0     C21974   7.379   6.165   5.441 -0.4519  0.1848  0.0683
  160MOL0     C21975   7.514   6.196   5.427  0.1936 -1.0740 -0.4454
  160MOL0     C21976   7.578   6.196   5.305 -1.0132 -0.5099  0.3130
  160MOL0     C21977   7.507   6.161   5.199  0.2693 -0.3569 -0.1206
  160MOL0     O21978   7.564   6.178   5.069 -0.3067  0.1956 -0.5278
  160MOL0     C21979   7.634   6.058   5.029  0.5334  0.7960 -0.0179
  160MOL0     C21980   7.782   6.087   5.027  0.6512 -0.1465 -0.2618
  160MOL0     C21981   7.856   5.958   4.987  0.4027 -0.8741 -1.0612
  160MOL0     C21982   7.881   5.961   4.843 -0.0924  0.3443  0.3195
  160MOL0     C21983   7.988   5.848   4.804  0.3075 -0.0183  0.0948
  160MOL0     C21984   8.135   5.884   4.854 -1.0561  0.3511  0.0918
  160MOL0     C21985   8.178   6.023   4.810 -0.1327 -0.2362  1.2079
  160MOL0     C21986   8.219   6.030   4.654  0.4029 -0.0840 -0.6912
  160MOL0    Cl21987   8.374   5.943   4.598 -0.1280 -0.4533 -0.8012
  160MOL0     C21988   7.369   6.117   5.211  0.3420  0.1526  0.0489
  160MOL0     C21989   7.306   6.120   5.332 -0.4630  0.5751 -0.4668
  160MOL0     O21990   7.189   6.322   5.546  0.5660 -0.0042 -0.9003
  160MOL0     C21991   7.093   6.294   5.792  0.1984  0.8031  0.7802
  160MOL0     C21992   7.043   6.289   5.917  0.7096  0.0019 -0.7986
  160MOL0     N21993   6.717   6.451   6.094  0.2251  1.0208  0.1913
  160MOL0     N21994   6.622   6.423   6.009  0.0390 -0.2067 -0.2379
  160MOL0     C21995   5.752   7.022   5.509  0.7374 -0.4584  0.3209
  160MOL0     C21996   5.635   7.073   5.455 -0.2619  0.8483  0.2405
  160MOL0     C21997   5.162   7.082   5.448 -0.4254 -0.4054  0.2336
  160MOL0     C21998   5.096   6.998   5.354 -0.6610 -0.4114  0.6236
  160MOL0     C21999   4.970   7.022   5.299  0.2072 -0.1049  1.6929
  160MOL0     C22000   4.890   7.127   5.352 -0.3489 -0.1410  0.9572
  160MOL0     O22001   4.761   7.146   5.307 -0.5180 -0.8271  0.2410
  160MOL0     C22002   4.700   7.262   5.355 -0.0221 -0.4916 -0.6808
  160MOL0     C22003   4.559   7.252   5.312 -0.9904  0.6472 -0.0781
  160MOL0     C22004   4.502   7.107   5.338  0.5657 -0.5657 -0.8014
  160MOL0     C22005   4.348   7.084   5.302  1.0594  0.4360 -0.9671
  160MOL0     C22006   4.244   7.185   5.342  0.0303  0.2233 -0.2257
  160MOL0     C22007   4.166   7.267   5.382 -0.1891 -0.2382  0.9114
  160MOL0     C22008   4.959   7.220   5.436  0.3043 -0.3972 -0.2535
  160MOL0     C22009   5.092   7.200   5.483 -0.4109 -0.2403 -0.3666
  160MOL0     C22010   5.156   7.286   5.585 -0.1001 -0.5790 -0.5477
  160MOL0     H22011   5.456   7.104   5.740 -0.6839 -1.7678 -0.4219
  160MOL0     H22012   5.696   7.052   5.830  2.1316  1.9515 -0.7613
  160MOL0     H22013   6.035   7.101   5.705 -1.3794  1.1953 -0.7997
  160MOL0     H22014   5.998   7.032   5.544 -0.3603 -0.6594  0.4764
  160MOL0     H22015   6.076   6.806   5.640 -0.4908  1.6246 -1.2710
  160MOL0     H22016   6.189   6.930   5.597  1.8674 -2.2786 -0.0584
  160MOL0     H22017   6.207   6.998   5.849  1.8114 -0.9510  0.0293
  160MOL0     H22018   6.088   6.881   5.891  1.9292 -0.2021  2.8145
  160MOL0     H22019   6.327   6.773   5.739  1.0322 -1.2203  0.4996
  160MOL0     H22020   6.358   6.863   5.896 -0.5193  2.1778 -0.9161
  160MOL0     H22021   6.161   6.633   5.855 -2.7572  0.1699  2.2316
  160MOL0     H22022   6.186   6.730   6.003 -0.4683  1.5128 -1.7454
  160MOL0     H22023   6.381   6.543   5.866  0.0911  2.7798 -1.3099
  160MOL0     H22024   6.422   6.656   5.999 -0.2059 -0.6803 -0.5897
  160MOL0     H22025   6.203   6.451   6.030  1.5535 -2.7371 -0.5485
  160MOL0     H22026   6.294   6.533   6.153 -2.2557 -0.5708 -0.4642
  160MOL0     H22027   6.338   6.291   6.117  0.6332 -0.2632  0.0984
  160MOL0     H22028   6.383   6.317   5.955  2.0516 -0.7125  0.7332
  160MOL0     H22029   6.499   6.373   6.316 -2.8753 -1.3200 -1.7883
  160MOL0     H22030   6.725   6.463   6.416  2.0723  0.4566 -0.0970
  160MOL0     H22031   6.873   6.461   6.341  1.1506 -0.2207  0.1705
  160MOL0     H22032   6.848   6.283   6.504  1.7595  3.2434 -1.6626
  160MOL0     H22033   6.712   6.209   6.408 -0.7622 -0.6031  0.9406
  160MOL0     H22034   7.000   6.187   6.387  0.4935  0.9714  0.4281
  160MOL0     H22035   6.878   6.082   6.320 -2.0918 -0.1992  2.5642
  160MOL0     H22036   6.856   6.213   6.123 -0.0968 -1.3651  2.0853
  160MOL0     H22037   6.963   6.355   6.163 -0.9582 -0.1766 -1.7406
  160MOL0     H22038   7.276   6.074   6.049  0.4076 -0.8966 -1.5064
  160MOL0     H22039   7.456   6.039   5.912 -0.3836  0.0865  0.2850
  160MOL0     H22040   7.489   6.153   5.781 -1.3391  1.9034  1.3999
  160MOL0     H22041   7.401   6.011   5.754  0.1691 -1.6226  1.8765
  160MOL0     H22042   7.574   6.242   5.505  1.4180  0.0770 -1.9913
  160MOL0     H22043   7.685   6.210   5.304 -0.1506 -5.0561  1.9543
  160MOL0     H22044   7.615   5.969   5.090 -0.0676  0.0426 -1.2609
  160MOL0     H22045   7.605   6.017   4.932  1.7772 -1.5430  0.5370
  160MOL0     H22046   7.811   6.178   4.974 -1.2672  0.0146 -1.0990
  160MOL0     H22047   7.807   6.104   5.133 -0.0625 -0.0082 -0.1124
  160MOL0     H22048   7.810   5.861   5.009 -0.5296 -0.0763  0.6966
  160MOL0     H22049   7.955   5.955   5.035  0.5435  1.4794 -1.0870
  160MOL0     H22050   7.919   6.057   4.804  2.9222 -0.7760  0.2324
  160MOL0     H22051   7.782   5.949   4.797 -1.3544  2.9817  2.1067
  160MOL0     H22052   7.964   5.750   4.846 -3.0855  1.2154  1.4339
  160MOL0     H22053   7.979   5.835   4.695 -4.6478 -0.6316  0.3337
  160MOL0     H22054   8.217   5.816   4.827  2.0752  4.0014 -0.4385
  160MOL0     H22055   8.136   5.885   4.963  3.1946  3.1868  0.2591
  160MOL0     H22056   8.271   6.042   4.863  0.4608 -0.4722  0.2620
  160MOL0     H22057   8.109   6.104   4.835 -1.1886  0.3046 -2.7471
  160MOL0     H22058   8.229   6.137   4.636  2.6335 -0.6058 -3.1164
  160MOL0     H22059   8.134   5.989   4.599 -2.2065  2.6941  0.9620
  160MOL0     H22060   7.325   6.077   5.120  2.8460 -0.7616 -0.8570
  160MOL0     H22061   7.201   6.097   5.347 -0.2905 -0.3212 -0.5997
  160MOL0     H22062   7.028   6.342   5.719 -1.6811 -4.3467 -1.4166
  160MOL0     H22063   6.949   6.341   5.933  0.3030  0.1903 -3.4414
  160MOL0     H22064   5.835   6.999   5.442 -1.1005 -0.8179 -1.9613
  160MOL0     H22065   5.647   7.101   5.351  2.0828  2.0915  0.7959
  160MOL0     H22066   5.144   6.903   5.331  1.9087  1.2630 -1.5562
  160MOL0     H22067   4.912   6.955   5.237 -1.9420  2.0011  1.2763
  160MOL0     H22068   4.699   7.250   5.464  2.3778 -1.8392 -0.7297
  160MOL0     H22069   4.746   7.354   5.317 -2.0537  1.3930  1.1209
  160MOL0     H22070   4.553   7.265   5.204 -0.3625  1.2903 -0.0500
  160MOL0     H22071   4.500   7.334   5.355 -2.8163  0.0279 -1.2971
  160MOL0     H22072   4.552   7.025   5.287  1.0044  0.0506 -1.3867
  160MOL0     H22073   4.506   7.091   5.446  0.8960 -1.3903 -0.9319
  160MOL0     H22074   4.322   6.982   5.330 -0.1423  1.1911  0.8872
  160MOL0     H22075   4.345   7.075   5.193  2.1107  1.5586 -1.1176
  160MOL0     H22076   4.103   7.343   5.423  2.1293  2.0348  0.5045
  160MOL0     H22077   4.927   7.316   5.475 -0.5387 -0.0218 -1.8033
  160MOL0     H22078   5.076   7.331   5.646  1.3411  1.5884 -0.1256
  160MOL0     H22079   5.226   7.237   5.653  0.4172  1.3946  0.4343
  160MOL0     H22080   5.211   7.369   5.541 -2.7017  0.8919 -1.2632
  161MOL0     O22081   6.597   2.500   3.487  0.2033 -1.5671  0.0410
  161MOL0     C22082   6.569   2.472   3.375  1.0165  0.0014  0.7479
  161MOL0     O22083   6.663   2.446   3.280 -0.4042 -0.6857 -0.5597
  161MOL0     C22084   6.799   2.450   3.323  1.1008  1.1066  0.3421
  161MOL0     C22085   6.883   2.555   3.313 -0.1620 -0.8317 -0.2393
  161MOL0     C22086   7.017   2.548   3.338 -0.6619  0.8211  0.6176
  161MOL0     C22087   7.072   2.422   3.389 -0.1516 -0.3582  0.0332
  161MOL0     O22088   7.211   2.430   3.412  0.6108 -0.3320  0.1038
  161MOL0     C22089   7.278   2.308   3.408  0.1746  0.2109 -0.1907
  161MOL0     C22090   7.429   2.317   3.419 -0.6544  0.3874  0.2956
  161MOL0     C22091   7.494   2.180   3.434 -0.6789  0.3102 -0.1916
  161MOL0     C22092   7.645   2.188   3.461  0.4091  0.8209  0.0477
  161MOL0     C22093   7.745   2.224   3.350  0.0408 -0.8074 -0.2616
  161MOL0     C22094   7.884   2.238   3.404 -0.3251 -0.5580 -0.0238
  161MOL0     C22095   7.985   2.317   3.321  0.5406  1.0671  0.0915
  161MOL0     C22096   8.121   2.305   3.383 -0.6774 -0.1806 -0.3623
  161MOL0     N22097   8.212   2.421   3.376 -0.1991  0.2700 -0.2869
  161MOL0     C22098   8.241   2.472   3.254 -0.0544 -1.0673 -0.1595
  161MOL0     C22099   8.322   2.574   3.286 -0.1077  0.0465  0.3259
  161MOL0     C22100   8.385   2.675   3.193 -0.2951  0.5583  0.0429
  161MOL0     C22101   8.538   2.710   3.219 -1.2609  0.6125  0.4326
  161MOL0     C22102   8.569   2.855   3.174  0.3221  0.1623  0.5059
  161MOL0     C22103   8.714   2.869   3.140 -0.1675 -0.0237 -0.2530
  161MOL0     O22104   8.809   2.829   3.245  0.4412  0.0897  0.1638
  161MOL0     C22105   8.945   2.835   3.223  1.0821 -0.2189 -1.2407
  161MOL0     C22106   8.998   2.864   3.094 -0.4350  0.6234 -0.2814
  161MOL0     C22107   9.142   2.879   3.074  0.1263  0.3604  0.0107
  161MOL0     C22108   9.188   2.899   2.938  0.7020 -0.9356 -0.2082
  161MOL0     C22109   9.222   2.864   3.191  0.2518  0.0950  0.4752
  161MOL0     C22110   9.368   2.900   3.207  0.2839  0.3003 -0.3078
  161MOL0     O22111   9.436   2.867   3.319 -0.4243 -0.1945 -0.5699
  161MOL0     C22112   9.568   2.833   3.311  0.1474  0.1294 -0.4295
  161MOL0     C22113   9.608   2.742   3.214 -0.3041  0.2173  0.5090
  161MOL0     C22114   9.742   2.710   3.201 -0.3389  0.2886 -0.2292
  161MOL0     C22115   9.830   2.749   3.288 -0.2202 -0.3718  0.1742
  161MOL0     O22116   9.952   2.709   3.264 -0.0665  0.5204 -1.0563
  161MOL0     C22117  10.054   2.810   3.245  0.1491  0.4675  0.3121
  161MOL0     C22118  10.031   2.879   3.109  0.3652  0.5023 -0.2337
  161MOL0     C22119  10.152   2.948   3.045  0.1689  0.4160  0.9505
  161MOL0     C22120  10.234   3.029   3.148 -0.0355 -0.3511 -0.5503
  161MOL0     C22121  10.313   3.139   3.084  0.8545  0.2056 -0.7088
  161MOL0     C22122  10.377   3.219   3.199  0.1078  0.4749  0.0392
  161MOL0     C22123  10.485   3.318   3.146  0.5433  0.7451 -0.4082
  161MOL0     C22124  10.522   3.415   3.252  0.0292  0.1092  0.6053
  161MOL0    Cl22125  10.683   3.368   3.330  0.1110  0.3219 -0.2411
  161MOL0     C22126   9.797   2.838   3.384  0.9017 -0.9328 -0.3078
  161MOL0     C22127   9.665   2.884   3.398 -0.2620  0.9620  0.1531
  161MOL0     O22128   9.418   2.947   3.111 -0.0804  0.4980  0.0562
  161MOL0     C22129   9.169   2.811   3.303  0.6026  1.0010 -0.9126
  161MOL0     C22130   9.034   2.790   3.324 -0.1770 -0.0645  0.5075
  161MOL0     N22131   8.324   2.590   3.420 -0.6637  0.5433  0.6830
  161MOL0     N22132   8.264   2.496   3.481  0.0551 -0.0991 -0.0147
  161MOL0     C22133   6.990   2.316   3.399  0.3686 -0.2211  0.3145
  161MOL0     C22134   6.853   2.332   3.375 -0.2949  0.6734  1.1397
  161MOL0     C22135   6.431   2.462   3.328  0.2308  0.2666  0.5742
  161MOL0     C22136   6.408   2.474   3.191  0.6020  0.2203 -0.8611
  161MOL0     C22137   6.283   2.454   3.134 -0.1513 -0.2096 -0.1209
  161MOL0     C22138   6.174   2.420   3.221 -0.4225  0.9186 -0.7063
  161MOL0     O22139   6.046   2.406   3.185  0.0859  1.0072 -0.3986
  161MOL0     C22140   6.011   2.376   3.051 -0.4169  0.0445  0.5102
  161MOL0     C22141   5.862   2.346   3.022 -0.4596 -0.1166 -0.0082
  161MOL0     C22142   5.824   2.219   3.092  0.2406  0.8394 -0.0230
  161MOL0     C22143   5.673   2.209   3.118 -0.4759 -0.3698  0.2118
  161MOL0     C22144   5.598   2.282   3.011  0.5230  0.3149 -0.3528
  161MOL0     C22145   5.537   2.327   2.911  1.2315 -0.0247  0.0646
  161MOL0     C22146   6.199   2.407   3.359  0.4570 -0.2866  0.0406
  161MOL0     C22147   6.321   2.437   3.418 -0.3315  0.3391 -1.0777
  161MOL0     C22148   6.323   2.439   3.567 -0.1730  0.0377  0.5555
  161MOL0     H22149   6.850   2.652   3.278  0.5843 -1.0781 -1.6857
  161MOL0     H22150   7.086   2.631   3.329 -0.8451  1.0001  0.8565
  161MOL0     H22151   7.246   2.255   3.318  0.6235 -0.9334  0.3030
  161MOL0     H22152   7.241   2.240   3.485 -0.8501 -0.1261 -0.9545
  161MOL0     H22153   7.479   2.361   3.333  0.5576 -0.2365  0.6693
  161MOL0     H22154   7.451   2.383   3.504  1.5083 -0.2667  0.2908
  161MOL0     H22155   7.449   2.128   3.520  0.2970 -0.8330 -0.3501
  161MOL0     H22156   7.477   2.121   3.344 -1.8144 -2.2062  1.5488
  161MOL0     H22157   7.665   2.252   3.547 -0.2371  0.7796  0.2378
  161MOL0     H22158   7.668   2.086   3.492 -2.0494  0.9251  2.6416
  161MOL0     H22159   7.721   2.322   3.308  0.7001 -0.0075  1.1620
  161MOL0     H22160   7.760   2.155   3.266  3.0030 -0.3337 -0.2204
  161MOL0     H22161   7.894   2.281   3.504  3.7647  0.8125 -0.8075
  161MOL0     H22162   7.917   2.134   3.418 -0.1869 -0.2005  2.9913
  161MOL0     H22163   7.944   2.418   3.324 -1.7524  0.1689  2.3957
  161MOL0     H22164   7.996   2.288   3.216  0.4361  3.4976 -0.6578
  161MOL0     H22165   8.112   2.281   3.489  0.5114  1.3043  0.1052
  161MOL0     H22166   8.161   2.210   3.345 -2.1999 -1.2686  0.6000
  161MOL0     H22167   8.226   2.441   3.151  2.5010 -0.2220 -0.8722
  161MOL0     H22168   8.324   2.766   3.192  0.0466  0.8202  1.1571
  161MOL0     H22169   8.378   2.639   3.090  0.8149 -0.6978  0.3860
  161MOL0     H22170   8.556   2.708   3.327  3.4152 -0.8998 -0.1231
  161MOL0     H22171   8.601   2.632   3.174  0.5613  1.4411  1.4303
  161MOL0     H22172   8.499   2.877   3.093 -0.0571 -2.0142  0.1793
  161MOL0     H22173   8.557   2.927   3.256  2.6255 -1.6305  2.5951
  161MOL0     H22174   8.733   2.803   3.055 -3.0806 -1.0448 -0.2478
  161MOL0     H22175   8.730   2.973   3.109  1.7948  0.5259  2.2750
  161MOL0     H22176   8.928   2.873   3.012 -0.9928  0.8156  0.2068
  161MOL0     H22177   9.109   2.873   2.867  0.0765  0.8672 -0.2335
  161MOL0     H22178   9.280   2.847   2.909 -0.6282 -3.7153  0.2460
  161MOL0     H22179   9.219   3.002   2.918 -0.0048 -0.3583  1.5650
  161MOL0     H22180   9.537   2.710   3.139 -1.8394  0.7146  1.7124
  161MOL0     H22181   9.776   2.656   3.114 -1.2390  3.4295 -2.7200
  161MOL0     H22182  10.057   2.888   3.321  1.6401  3.4094 -2.5502
  161MOL0     H22183  10.149   2.755   3.242  1.1361  1.9336  2.3627
  161MOL0     H22184   9.980   2.809   3.043 -2.5366 -0.8765  3.1177
  161MOL0     H22185   9.952   2.953   3.127 -0.1194 -0.2030  0.6271
  161MOL0     H22186  10.120   3.018   2.967  2.7703  2.8400  1.8807
  161MOL0     H22187  10.224   2.876   3.003  0.6928  1.2840  0.3013
  161MOL0     H22188  10.305   2.967   3.203 -0.7429  1.5595  2.8409
  161MOL0     H22189  10.166   3.071   3.224  2.1683  0.4732  1.0945
  161MOL0     H22190  10.389   3.110   3.011  1.2725 -0.7165  0.0621
  161MOL0     H22191  10.242   3.201   3.029  1.0438  0.0642 -1.1182
  161MOL0     H22192  10.422   3.150   3.271  1.5803  2.2735  0.8986
  161MOL0     H22193  10.298   3.270   3.254 -0.5952 -1.2738  0.7392
  161MOL0     H22194  10.448   3.371   3.058 -1.3655 -1.2880 -0.9168
  161MOL0     H22195  10.574   3.255   3.135  0.7636  0.3323  2.7717
  161MOL0     H22196  10.436   3.422   3.319 -0.3432 -0.4422  0.1993
  161MOL0     H22197  10.534   3.510   3.201  2.9709  0.3708  1.5808
  161MOL0     H22198   9.872   2.880   3.451  0.0662  1.2528 -0.6641
  161MOL0     H22199   9.642   2.960   3.472  0.2471  0.3695  0.9287
  161MOL0     H22200   9.240   2.783   3.380  0.1622 -0.1352 -0.9015
  161MOL0     H22201   9.001   2.759   3.423 -0.1060 -2.3551 -0.1312
  161MOL0     H22202   7.032   2.225   3.439 -0.2791  0.4778  2.7562
  161MOL0     H22203   6.791   2.243   3.380 -0.4734  0.8209  1.6112
  161MOL0     H22204   6.486   2.496   3.119 -0.7397  1.9495 -1.8357
  161MOL0     H22205   6.273   2.483   3.030  0.7667  2.9016  0.5421
  161MOL0     H22206   6.046   2.456   2.985  0.6181  0.6568  1.7541
  161MOL0     H22207   6.061   2.285   3.019 -3.3748 -0.3206 -4.0231
  161MOL0     H22208   5.848   2.338   2.913 -0.3758 -1.3334  0.0568
  161MOL0     H22209   5.794   2.428   3.046 -2.8433 -0.3066 -4.8239
  161MOL0     H22210   5.843   2.144   3.015 -2.4015 -1.9601  1.8093
  161MOL0     H22211   5.879   2.195   3.183  1.4257  0.6515 -0.7660
  161MOL0     H22212   5.657   2.257   3.216  2.5973  0.1928  0.5320
  161MOL0     H22213   5.637   2.106   3.128  0.4959 -0.6897  0.5346
  161MOL0     H22214   5.474   2.379   2.841  0.6760  1.4806  1.6025
  161MOL0     H22215   6.116   2.385   3.426  1.3310  1.8805  1.9437
  161MOL0     H22216   6.225   2.407   3.603 -1.9062  0.6230 -3.1963
  161MOL0     H22217   6.400   2.375   3.612 -1.1762 -1.7194 -0.1566
  161MOL0     H22218   6.331   2.545   3.592 -1.3134  0.3111 -0.1655
  162MOL0     O22219   3.623   0.283   7.728  0.7953 -0.2775 -0.1162
  162MOL0     C22220   3.579   0.177   7.765 -0.6803  0.1248  0.2783
  162MOL0     O22221   3.629   0.107   7.876  0.2053  0.4432  0.2682
  162MOL0     C22222   3.753   0.132   7.931  0.6219 -0.4342 -0.1972
  162MOL0     C22223   3.753   0.099   8.067 -0.0954 -0.2538  0.7182
  162MOL0     C22224   3.870   0.119   8.134 -0.0922 -0.0600  0.0172
  162MOL0     C22225   3.993   0.157   8.072  0.7653  0.4108  0.0112
  162MOL0     O22226   4.099   0.174   8.159 -0.0096 -0.7989  0.1531
  162MOL0     C22227   4.168   0.296   8.135 -0.1743  0.2020  0.0854
  162MOL0     C22228   4.270   0.313   8.249 -0.3546  0.4769 -0.0761
  162MOL0     C22229   4.325   0.462   8.238  0.2840 -0.2213 -0.6301
  162MOL0     C22230   4.405   0.478   8.114 -0.4139 -0.5116  1.0459
  162MOL0     C22231   4.461   0.623   8.093 -0.3859 -0.3976 -0.4442
  162MOL0     C22232   4.575   0.656   8.194  0.0695 -0.2336 -0.0550
  162MOL0     C22233   4.615   0.803   8.174 -0.1789 -0.0167  0.7122
  162MOL0     C22234   4.719   0.850   8.278 -0.6019  0.0187 -0.1431
  162MOL0     N22235   4.757   0.987   8.264  0.1585  0.1407  0.7698
  162MOL0     C22236   4.682   1.097   8.284 -0.9147 -0.8416  0.1301
  162MOL0     C22237   4.761   1.207   8.268  0.3824 -0.2385 -0.1307
  162MOL0     C22238   4.721   1.345   8.297  0.4260 -0.7017 -0.0049
  162MOL0     C22239   4.594   1.381   8.213  0.3057  0.1862  0.3435
  162MOL0     C22240   4.583   1.541   8.191 -0.7754 -0.6444 -0.2223
  162MOL0     C22241   4.467   1.564   8.094 -1.0962  0.7041  0.3388
  162MOL0     O22242   4.481   1.496   7.974  0.5107  0.5675  0.1723
  162MOL0     C22243   4.548   1.565   7.872  0.5176 -0.9182 -0.1360
  162MOL0     C22244   4.540   1.502   7.752  0.3318 -0.2135  0.2761
  162MOL0     C22245   4.603   1.556   7.634 -0.7961  1.0139  0.6736
  162MOL0     C22246   4.604   1.465   7.508 -0.4014  0.3950  0.6418
  162MOL0     C22247   4.689   1.675   7.641 -0.3784  0.7714 -0.4498
  162MOL0     C22248   4.772   1.738   7.529 -0.0171  0.4241 -0.2111
  162MOL0     O22249   4.826   1.864   7.562 -0.2387 -0.9660  0.3362
  162MOL0     C22250   4.913   1.930   7.476  0.0082 -0.2864  0.1311
  162MOL0     C22251   4.852   2.016   7.382 -1.3585 -0.0639 -0.5800
  162MOL0     C22252   4.933   2.102   7.307  0.2337  0.0042  0.8825
  162MOL0     C22253   5.072   2.095   7.299  0.7086  0.6548 -0.5978
  162MOL0     O22254   5.155   2.155   7.203  0.5974  0.1390 -0.3203
  162MOL0     C22255   5.106   2.247   7.116  0.4177  0.3729 -0.0426
  162MOL0     C22256   5.188   2.294   7.007 -0.3346  0.1209  0.4043
  162MOL0     C22257   5.241   2.183   6.900 -0.7081 -0.6931 -0.1750
  162MOL0     C22258   5.386   2.166   6.918  0.5915 -0.1016 -0.2972
  162MOL0     C22259   5.434   2.055   6.825 -0.0061  0.1392 -0.0603
  162MOL0     C22260   5.577   2.060   6.784 -0.8570 -1.1434 -0.0503
  162MOL0     C22261   5.623   1.929   6.722  0.2377  0.3362 -0.0156
  162MOL0     C22262   5.742   1.949   6.629  0.3973  0.0107  0.2468
  162MOL0    Cl22263   5.869   2.042   6.712  0.3042 -0.4079  0.0227
  162MOL0     C22264   5.137   2.005   7.389  0.2055  1.1414 -0.3479
  162MOL0     C22265   5.059   1.920   7.476 -0.0820  0.0878  0.2925
  162MOL0     O22266   4.779   1.683   7.415 -0.0992  0.0955 -0.1565
  162MOL0     C22267   4.710   1.722   7.769  0.8243  0.3686  0.3343
  162MOL0     C22268   4.643   1.667   7.883  0.0783 -0.9226 -0.5855
  162MOL0     N22269   4.888   1.169   8.237  0.1828 -0.6212  0.6762
  162MOL0     N22270   4.880   1.042   8.230  0.9576 -0.1639  0.1118
  162MOL0     C22271   3.992   0.186   7.932  0.1034  0.9827 -0.6459
  162MOL0     C22272   3.868   0.178   7.860 -1.0146  0.6862  0.1649
  162MOL0     C22273   3.461   0.123   7.707  0.1697 -0.1409 -0.0600
  162MOL0     C22274   3.352   0.209   7.701  0.1861 -0.1376 -0.3905
  162MOL0     C22275   3.234   0.176   7.641  0.7051 -0.0382 -0.1411
  162MOL0     C22276   3.223   0.048   7.582  0.6185 -0.5430 -0.3496
  162MOL0     O22277   3.107  -0.002   7.531  0.0634  0.5004  0.3951
  162MOL0     C22278   2.981   0.072   7.545 -0.1679 -0.1425 -0.3416
  162MOL0     C22279   2.858  -0.029   7.540  0.0161 -0.4828  0.8087
  162MOL0     C22280   2.729   0.045   7.507 -0.1015 -0.3122 -0.3929
  162MOL0     C22281   2.606  -0.036   7.538  0.3607 -0.1597  0.0117
  162MOL0     C22282   2.487   0.023   7.468  0.8674  1.0532  0.2125
  162MOL0     C22283   2.374   0.068   7.429 -1.1479 -0.0690  0.7164
  162MOL0     C22284   3.327  -0.041   7.598  0.5186  0.1941  0.5491
  162MOL0     C22285   3.443  -0.008   7.658 -0.6295 -0.1260 -0.0862
  162MOL0     C22286   3.553  -0.109   7.677 -0.4623 -0.2287  0.2496
  162MOL0     H22287   3.667   0.059   8.119 -0.2125  1.3868  1.8913
  162MOL0     H22288   3.873   0.102   8.241  3.8520  2.6104  0.5418
  162MOL0     H22289   4.099   0.379   8.119  1.9926  2.2001  0.4433
  162MOL0     H22290   4.229   0.283   8.045 -0.8273 -1.1673 -0.1912
  162MOL0     H22291   4.226   0.312   8.349  2.4762  2.3323  1.2910
  162MOL0     H22292   4.341   0.229   8.250  1.8824  2.2506  1.9238
  162MOL0     H22293   4.240   0.531   8.242  0.5848  0.1085  0.8946
  162MOL0     H22294   4.384   0.482   8.328 -0.7717 -0.9875  0.2528
  162MOL0     H22295   4.485   0.404   8.109 -2.5840 -2.9151 -2.1520
  162MOL0     H22296   4.349   0.445   8.026  0.9759 -2.8713  0.9550
  162MOL0     H22297   4.377   0.692   8.104 -1.4953 -1.8207  0.3507
  162MOL0     H22298   4.504   0.623   7.993 -0.4060  0.4709 -0.4638
  162MOL0     H22299   4.536   0.651   8.296  0.8765  2.7517  0.5056
  162MOL0     H22300   4.664   0.592   8.184 -0.0802 -0.3677 -0.5826
  162MOL0     H22301   4.532   0.873   8.183 -2.0793 -2.2440  1.7204
  162MOL0     H22302   4.657   0.805   8.073  0.5619 -0.3357  1.0009
  162MOL0     H22303   4.668   0.853   8.375  0.9054 -0.7582  0.7133
  162MOL0     H22304   4.806   0.784   8.279 -0.8031 -0.2513  0.8638
  162MOL0     H22305   4.575   1.108   8.297 -1.6171 -2.1326 -3.4275
  162MOL0     H22306   4.807   1.405   8.265  1.6854 -2.1765  0.4939
  162MOL0     H22307   4.707   1.357   8.405  1.6918  0.7519  0.0433
  162MOL0     H22308   4.602   1.334   8.115 -2.4073  2.4360 -1.1236
  162MOL0     H22309   4.509   1.338   8.267  0.5859 -0.4043  0.3150
  162MOL0     H22310   4.556   1.594   8.283 -2.4397  0.7650 -1.4804
  162MOL0     H22311   4.676   1.579   8.148  0.2452 -2.1075  0.5841
  162MOL0     H22312   4.379   1.525   8.145 -1.3774 -1.2757 -1.5283
  162MOL0     H22313   4.447   1.672   8.084 -1.5181  0.6341  0.4078
  162MOL0     H22314   4.477   1.414   7.741  3.1282 -2.5234  1.6203
  162MOL0     H22315   4.605   1.517   7.412  0.6701 -1.1188 -0.2027
  162MOL0     H22316   4.507   1.415   7.512  0.1382 -0.6342  1.1868
  162MOL0     H22317   4.677   1.385   7.498 -1.2268 -0.2432 -0.6478
  162MOL0     H22318   4.745   2.030   7.383 -1.2680  0.8246 -1.2588
  162MOL0     H22319   4.881   2.178   7.250 -0.2284 -0.3905  0.7709
  162MOL0     H22320   5.018   2.203   7.068  0.9811 -0.3962 -0.3767
  162MOL0     H22321   5.064   2.331   7.173 -1.5587  0.0438 -0.9065
  162MOL0     H22322   5.141   2.372   6.946 -0.6778 -1.6303 -1.6834
  162MOL0     H22323   5.275   2.341   7.052  0.4610  1.5958 -2.4047
  162MOL0     H22324   5.234   2.231   6.801  1.2038  2.9427  1.2578
  162MOL0     H22325   5.190   2.086   6.904 -2.1144  0.0629  1.3531
  162MOL0     H22326   5.407   2.137   7.021 -2.3193 -0.4314  0.2819
  162MOL0     H22327   5.430   2.264   6.896 -3.6934  1.6347 -2.2374
  162MOL0     H22328   5.406   1.961   6.874  0.6902 -0.6433 -1.0932
  162MOL0     H22329   5.380   2.065   6.730  0.9172  0.9860 -0.5250
  162MOL0     H22330   5.636   2.081   6.874  0.6483  2.9055 -1.7588
  162MOL0     H22331   5.588   2.152   6.726  0.5137 -0.0160  1.8518
  162MOL0     H22332   5.540   1.888   6.665 -1.5877  1.0048  2.0218
  162MOL0     H22333   5.650   1.863   6.805 -1.2715  1.6231  1.5708
  162MOL0     H22334   5.710   2.011   6.545  2.7386  1.6589  0.4576
  162MOL0     H22335   5.777   1.847   6.612  0.7385  0.1122  0.3205
  162MOL0     H22336   5.244   1.989   7.395  0.1384  0.7063 -0.3495
  162MOL0     H22337   5.104   1.848   7.544  0.5720 -0.4379 -0.6739
  162MOL0     H22338   4.785   1.798   7.789  2.7388 -1.6784  1.3530
  162MOL0     H22339   4.664   1.716   7.977 -3.1540  0.7237 -0.5670
  162MOL0     H22340   4.092   0.205   7.893  1.2269  0.3329  1.7181
  162MOL0     H22341   3.861   0.217   7.760 -1.1503  1.2995  0.4117
  162MOL0     H22342   3.364   0.302   7.756 -0.9570 -1.1008  1.6104
  162MOL0     H22343   3.152   0.246   7.627 -0.4839 -0.9546  1.8408
  162MOL0     H22344   2.980   0.116   7.644  3.1060  0.2746 -0.4039
  162MOL0     H22345   2.966   0.148   7.468 -0.1407  0.2893  0.0782
  162MOL0     H22346   2.837  -0.076   7.637  1.5652 -3.4435 -0.1606
  162MOL0     H22347   2.871  -0.107   7.465 -0.6726 -1.3947  1.6229
  162MOL0     H22348   2.730   0.145   7.552  0.9406 -0.8466  0.8235
  162MOL0     H22349   2.728   0.050   7.398  0.4173 -2.4046 -0.5353
  162MOL0     H22350   2.584  -0.027   7.645 -1.4330  2.3798 -0.4775
  162MOL0     H22351   2.612  -0.142   7.512 -2.2099 -0.4341  0.2873
  162MOL0     H22352   2.275   0.098   7.400 -0.9048  0.3373  0.2880
  162MOL0     H22353   3.311  -0.140   7.558 -0.2932  1.3457 -2.1948
  162MOL0     H22354   3.646  -0.054   7.667  0.9968 -2.4870  0.6964
  162MOL0     H22355   3.539  -0.156   7.775 -2.9457  2.5145  1.3595
  162MOL0     H22356   3.556  -0.190   7.603 -1.4856 -2.9245  2.9150
  163MOL0     O22357   5.008   7.938   7.766  0.1537  0.1619 -0.1127
  163MOL0     C22358   4.992   7.863   7.668 -1.0504  0.4554  0.8392
  163MOL0     O22359   5.095   7.803   7.597  0.0393  0.4182  0.0473
  163MOL0     C22360   5.213   7.869   7.602 -0.2798 -0.2326 -0.0498
  163MOL0     C22361   5.234   7.985   7.521  0.1110 -0.4111 -0.5607
  163MOL0     C22362   5.370   8.051   7.536 -0.2496  0.0968 -0.4976
  163MOL0     C22363   5.468   7.999   7.619 -0.3662  0.1438  0.9299
  163MOL0     O22364   5.586   8.061   7.644 -0.3110 -0.7356 -0.3207
  163MOL0     C22365   5.576   8.144   7.760  0.9069  0.0359 -0.0560
  163MOL0     C22366   5.714   8.210   7.767  1.0991 -1.5590 -0.4527
  163MOL0     C22367   5.820   8.125   7.829 -0.6058  0.1894 -0.8237
  163MOL0     C22368   5.944   8.203   7.851 -0.0997 -0.6170 -0.1831
  163MOL0     C22369   6.056   8.130   7.933  1.1104  0.8298 -0.5272
  163MOL0     C22370   6.006   8.077   8.068 -0.7742  0.6993 -0.9418
  163MOL0     C22371   6.134   8.039   8.152 -0.5980 -0.2097 -0.2235
  163MOL0     C22372   6.089   7.970   8.278  0.0564  0.0312  0.0151
  163MOL0     N22373   6.195   7.891   8.330 -0.3569 -0.3981 -0.0987
  163MOL0     C22374   6.270   7.941   8.428 -0.1583  0.2209 -0.2415
  163MOL0     C22375   6.341   7.838   8.473 -0.1222 -0.0485 -0.2530
  163MOL0     C22376   6.418   7.843   8.604  0.2628  0.0910  0.4960
  163MOL0     C22377   6.490   7.709   8.625  0.7891 -0.0328 -0.3142
  163MOL0     C22378   6.617   7.693   8.540 -0.1990  0.5243  0.6720
  163MOL0     C22379   6.732   7.784   8.572  0.2160  0.3475 -0.0677
  163MOL0     O22380   6.819   7.739   8.677  1.3773  0.3872  1.6516
  163MOL0     C22381   6.944   7.695   8.637  0.6895 -0.3419 -0.6377
  163MOL0     C22382   6.992   7.650   8.513  0.9626 -0.4431 -0.3295
  163MOL0     C22383   7.121   7.604   8.487 -0.6490 -0.0666  0.2266
  163MOL0     C22384   7.155   7.556   8.345  0.0786 -0.4482  0.1402
  163MOL0     C22385   7.220   7.602   8.593  0.9429 -1.0557  0.6221
  163MOL0     C22386   7.353   7.558   8.579 -1.2802  0.1618 -0.3339
  163MOL0     O22387   7.432   7.617   8.675 -0.2641  0.2738  0.5857
  163MOL0     C22388   7.559   7.563   8.698  0.8009  0.5496  0.8908
  163MOL0     C22389   7.658   7.639   8.757  0.0368 -0.3858  0.1208
  163MOL0     C22390   7.795   7.603   8.765  0.3841 -0.0143 -0.1941
  163MOL0     C22391   7.829   7.471   8.746 -0.3485  0.6940 -0.0948
  163MOL0     O22392   7.956   7.442   8.772  0.5076 -0.8429  0.0416
  163MOL0     C22393   8.006   7.315   8.733  0.2091 -0.4362 -0.0508
  163MOL0     C22394   8.152   7.306   8.753  0.8007 -0.2219 -0.7644
  163MOL0     C22395   8.218   7.163   8.735  0.5921 -0.8118 -0.7264
  163MOL0     C22396   8.349   7.165   8.660 -0.2378 -0.5613  0.2798
  163MOL0     C22397   8.452   7.242   8.737 -0.2199  0.5028 -0.3786
  163MOL0     C22398   8.596   7.230   8.674  0.5971  0.3867  0.4707
  163MOL0     C22399   8.704   7.254   8.779 -0.7516 -0.0537  0.8580
  163MOL0     C22400   8.844   7.254   8.721 -0.0380  0.4521  0.1041
  163MOL0    Cl22401   8.873   7.125   8.594  0.0957  0.0391 -0.3039
  163MOL0     C22402   7.732   7.381   8.700 -0.9637  0.0942  0.1408
  163MOL0     C22403   7.602   7.432   8.666  0.1969  0.8495 -0.2079
  163MOL0     O22404   7.391   7.496   8.477 -0.0135 -0.5624  0.3359
  163MOL0     C22405   7.170   7.659   8.720 -0.2468  0.9543 -0.0194
  163MOL0     C22406   7.040   7.697   8.739 -0.0402 -1.1231  0.5177
  163MOL0     N22407   6.312   7.721   8.400  0.1842 -0.5559 -0.2174
  163MOL0     N22408   6.220   7.755   8.316 -0.2788  0.2772  0.2233
  163MOL0     C22409   5.435   7.880   7.699  0.4020  0.5172 -0.1312
  163MOL0     C22410   5.313   7.818   7.688  0.4262  0.4421  0.1746
  163MOL0     C22411   4.854   7.843   7.621  0.4582  0.1907  0.2463
  163MOL0     C22412   4.805   7.714   7.581 -0.1984  0.5582  0.6832
  163MOL0     C22413   4.673   7.700   7.528  0.1687 -0.1598  0.1995
  163MOL0     C22414   4.587   7.801   7.519 -0.7510  0.3564 -0.3622
  163MOL0     O22415   4.455   7.773   7.497 -0.5317  0.7940  0.2990
  163MOL0     C22416   4.354   7.867   7.541 -0.1236 -0.4021 -0.2798
  163MOL0     C22417   4.212   7.792   7.560 -0.3373 -0.3965  0.2269
  163MOL0     C22418   4.142   7.755   7.430  0.0124  0.6734  0.1521
  163MOL0     C22419   4.019   7.671   7.463  0.0827 -0.4590  0.3134
  163MOL0     C22420   3.937   7.643   7.346  0.5781 -0.6213 -0.1210
  163MOL0     C22421   3.880   7.596   7.249  0.0296 -0.6605  0.1525
  163MOL0     C22422   4.628   7.927   7.564 -1.0483 -0.2444  0.4086
  163MOL0     C22423   4.759   7.952   7.612 -0.9167 -0.2674 -0.1888
  163MOL0     C22424   4.799   8.093   7.646  0.2637 -0.1649  0.2830
  163MOL0     H22425   5.149   8.021   7.464 -0.6453 -0.1095  0.7071
  163MOL0     H22426   5.400   8.143   7.487 -0.5791  1.6387  1.9981
  163MOL0     H22427   5.565   8.086   7.852  0.1975  0.1246 -0.0798
  163MOL0     H22428   5.499   8.221   7.754 -0.2137 -0.8623  1.8546
  163MOL0     H22429   5.731   8.249   7.666 -0.8849  0.8918  0.0370
  163MOL0     H22430   5.695   8.299   7.828 -1.6974 -1.5139 -1.2507
  163MOL0     H22431   5.785   8.072   7.919  0.1013 -0.3258 -0.8419
  163MOL0     H22432   5.843   8.047   7.756 -1.2831  1.4955 -2.4827
  163MOL0     H22433   5.987   8.227   7.753  0.7738 -1.9089 -0.1286
  163MOL0     H22434   5.925   8.292   7.912 -1.1414 -1.9979  1.6123
  163MOL0     H22435   6.136   8.204   7.947  0.4365  1.2748  1.3142
  163MOL0     H22436   6.096   8.039   7.887 -1.2844 -1.3118  1.3335
  163MOL0     H22437   5.946   8.158   8.111 -0.7453 -1.1121  2.9181
  163MOL0     H22438   5.935   7.994   8.061 -0.3658  0.3077 -0.5377
  163MOL0     H22439   6.197   8.126   8.173  1.6232 -1.6673 -0.5125
  163MOL0     H22440   6.190   7.967   8.092 -0.3298  2.5428 -3.6360
  163MOL0     H22441   6.061   8.046   8.351  0.4524  0.6257 -0.4513
  163MOL0     H22442   5.994   7.917   8.268 -0.5987  0.9908  0.8867
  163MOL0     H22443   6.280   8.039   8.472  0.7664 -0.0788  0.2378
  163MOL0     H22444   6.343   7.856   8.681  0.7072 -1.5130  1.2377
  163MOL0     H22445   6.480   7.932   8.596 -0.4009  0.5706  0.6508
  163MOL0     H22446   6.513   7.694   8.731  1.6463 -3.3492 -0.8715
  163MOL0     H22447   6.423   7.625   8.607 -2.3417  2.2737 -0.3109
  163MOL0     H22448   6.656   7.593   8.561 -0.6314  0.6488  2.1991
  163MOL0     H22449   6.598   7.712   8.434  1.3113  1.3761  0.5194
  163MOL0     H22450   6.787   7.805   8.480  2.6527  1.4975  1.5371
  163MOL0     H22451   6.681   7.877   8.597 -1.2923 -0.4459 -0.0811
  163MOL0     H22452   6.916   7.652   8.436  0.4658 -0.7867  0.1408
  163MOL0     H22453   7.254   7.593   8.315  1.7568  1.6286  6.5294
  163MOL0     H22454   7.074   7.587   8.278 -0.4391 -2.0139  0.0013
  163MOL0     H22455   7.161   7.447   8.346  0.1077 -0.4452  1.3260
  163MOL0     H22456   7.635   7.736   8.800 -2.0478 -1.2514  1.0897
  163MOL0     H22457   7.868   7.677   8.798 -0.0120  0.1742  0.2663
  163MOL0     H22458   7.965   7.238   8.800  0.8744 -0.4621  0.3394
  163MOL0     H22459   7.982   7.298   8.628  0.9320  2.4741 -0.7824
  163MOL0     H22460   8.194   7.369   8.674  1.9613 -1.6095 -1.3197
  163MOL0     H22461   8.173   7.351   8.850  1.6006 -2.2193  0.0560
  163MOL0     H22462   8.148   7.096   8.684 -1.4477  1.9415 -1.8447
  163MOL0     H22463   8.249   7.112   8.827  3.5763  0.1679 -1.0817
  163MOL0     H22464   8.349   7.213   8.562  0.0443 -2.5569 -0.7609
  163MOL0     H22465   8.387   7.063   8.643  1.3647  0.0356  0.0561
  163MOL0     H22466   8.422   7.346   8.757 -3.3369 -0.1056 -1.3912
  163MOL0     H22467   8.466   7.202   8.838  1.2008  3.0687  0.5407
  163MOL0     H22468   8.624   7.301   8.596  4.0595 -1.1457  0.1609
  163MOL0     H22469   8.609   7.136   8.620  3.8765 -0.4785  2.4806
  163MOL0     H22470   8.699   7.179   8.859 -1.6342 -1.0481 -0.0998
  163MOL0     H22471   8.684   7.353   8.821 -0.0076  0.3664  0.2484
  163MOL0     H22472   8.920   7.238   8.798  2.2708  1.1804 -1.8976
  163MOL0     H22473   8.867   7.351   8.676  0.1452  0.4384  0.1643
  163MOL0     H22474   7.753   7.274   8.697 -1.0586  0.0920 -1.6927
  163MOL0     H22475   7.533   7.358   8.627  2.1705 -0.4212 -1.4650
  163MOL0     H22476   7.232   7.676   8.807 -0.9961 -0.6109  0.8570
  163MOL0     H22477   7.011   7.721   8.841  2.0052 -2.4543  1.4733
  163MOL0     H22478   5.517   7.850   7.764 -0.4906  1.7952  1.6813
  163MOL0     H22479   5.295   7.739   7.761  0.1820 -0.9663 -1.3585
  163MOL0     H22480   4.858   7.620   7.588 -1.7613 -0.1988  4.1547
  163MOL0     H22481   4.650   7.599   7.498  0.1695 -0.4663  1.1905
  163MOL0     H22482   4.383   7.914   7.635  1.4208 -2.6539  0.4599
  163MOL0     H22483   4.337   7.941   7.462  0.2503  0.6296  0.5944
  163MOL0     H22484   4.157   7.859   7.626  0.9943 -0.0668  1.0577
  163MOL0     H22485   4.227   7.704   7.625 -3.0595 -1.0099  0.1188
  163MOL0     H22486   4.120   7.849   7.378 -0.8848  0.7359  0.6308
  163MOL0     H22487   4.206   7.695   7.365 -3.2644 -1.1703 -1.6818
  163MOL0     H22488   3.956   7.717   7.540  0.6560  1.2365 -0.1945
  163MOL0     H22489   4.046   7.572   7.500 -1.2221 -1.8608 -2.2131
  163MOL0     H22490   3.852   7.577   7.147 -1.0648  3.7038 -0.5222
  163MOL0     H22491   4.556   8.008   7.571 -0.7020  0.0781  0.2787
  163MOL0     H22492   4.794   8.110   7.754 -3.4767 -0.7996  0.3125
  163MOL0     H22493   4.893   8.117   7.594 -0.7517 -1.9452 -2.6126
  163MOL0     H22494   4.726   8.164   7.606  0.4805  0.8318  1.5675
  164MOL0     O22495   7.441   9.647   6.999  0.4302  0.1239 -0.1633
  164MOL0     C22496   7.478   9.647   7.113 -0.6556  0.7006  0.2089
  164MOL0     O22497   7.593   9.709   7.148  0.2328 -0.4230  0.3190
  164MOL0     C22498   7.660   9.771   7.039 -0.4176  0.6569  0.0138
  164MOL0     C22499   7.628   9.901   7.003  0.7430  0.5477  0.0981
  164MOL0     C22500   7.703   9.976   6.917  0.2439  1.0259 -0.3467
  164MOL0     C22501   7.803   9.916   6.848  0.0149  0.6864  0.0307
  164MOL0     O22502   7.872   9.992   6.755 -0.0224  0.1835  0.4885
  164MOL0     C22503   8.007   9.941   6.713  0.4878  0.5434 -0.1881
  164MOL0     C22504   8.052  10.029   6.605 -0.2031 -0.7313  0.1226
  164MOL0     C22505   8.195   9.987   6.565  0.5862  0.2045  0.2112
  164MOL0     C22506   8.254  10.067   6.448  1.3658 -0.0520 -1.0390
  164MOL0     C22507   8.397  10.025   6.430 -0.1871  0.6274 -0.9906
  164MOL0     C22508   8.444  10.100   6.304  1.1924  0.0965  0.6329
  164MOL0     C22509   8.596  10.092   6.276  0.2077 -0.1225  0.6982
  164MOL0     C22510   8.628  10.181   6.146  0.7254 -0.5386 -0.7800
  164MOL0     N22511   8.764  10.168   6.103  1.5735 -0.7540 -0.2276
  164MOL0     C22512   8.808  10.157   5.971  1.0187  0.2491 -0.1012
  164MOL0     C22513   8.939  10.125   5.976  0.2019  1.0805 -0.4169
  164MOL0     C22514   9.034  10.087   5.869  0.5724 -1.2217  0.7972
  164MOL0     C22515   9.105  10.201   5.795 -0.2607 -0.4445 -0.4037
  164MOL0     C22516   9.220  10.259   5.876 -0.0891 -0.3932  0.0159
  164MOL0     C22517   9.269  10.386   5.810  0.2574 -0.3803  0.3555
  164MOL0     O22518   9.388  10.428   5.884 -0.3144  0.5599 -0.3425
  164MOL0     C22519   9.504  10.467   5.815  0.8170  0.1711  0.4471
  164MOL0     C22520   9.512  10.574   5.723 -0.3260 -0.8372 -0.7530
  164MOL0     C22521   9.629  10.622   5.661 -0.0273  0.2396  0.3276
  164MOL0     C22522   9.617  10.743   5.571  0.1721  0.4963  0.4446
  164MOL0     C22523   9.747  10.547   5.680  0.3741 -0.4323 -0.5155
  164MOL0     C22524   9.863  10.576   5.608 -0.4435  0.0835 -0.7549
  164MOL0     O22525   9.857  10.607   5.477 -0.3669  0.3511 -0.1535
  164MOL0     C22526   9.965  10.651   5.399 -0.3241 -0.8019  0.6454
  164MOL0     C22527   9.967  10.610   5.263 -0.0592 -0.4533 -0.3718
  164MOL0     C22528  10.067  10.675   5.185  0.1065  0.0976  0.9305
  164MOL0     C22529  10.165  10.766   5.240  0.1776  0.7946 -0.7676
  164MOL0     O22530  10.269  10.798   5.158  0.2790  0.0378  0.0324
  164MOL0     C22531  10.386  10.868   5.205 -0.0159 -0.7197  0.3391
  164MOL0     C22532  10.485  10.867   5.089 -0.0677 -0.4103 -0.5384
  164MOL0     C22533  10.608  10.933   5.129 -0.1839 -0.0395  0.5193
  164MOL0     C22534  10.677  11.010   5.014 -0.5452 -0.1832  0.7006
  164MOL0     C22535  10.813  11.068   5.052 -0.6169  0.5482 -0.6266
  164MOL0     C22536  10.876  11.147   4.936 -0.4118 -0.0766 -0.0808
  164MOL0     C22537  10.796  11.277   4.896  0.2557  0.1170 -0.3371
  164MOL0     C22538  10.738  11.350   5.010  0.1928  0.1537 -0.6045
  164MOL0    Cl22539  10.874  11.408   5.118  0.2524  0.0050  0.1026
  164MOL0     C22540  10.155  10.792   5.372 -0.4458 -0.3748 -0.5853
  164MOL0     C22541  10.061  10.736   5.461 -0.7887  0.9379 -0.0687
  164MOL0     O22542   9.963  10.566   5.679  0.2203 -0.4417  0.2505
  164MOL0     C22543   9.739  10.435   5.764 -0.5569 -0.5433  0.2107
  164MOL0     C22544   9.620  10.392   5.834 -0.0874  0.3660  0.3665
  164MOL0     N22545   8.975  10.133   6.108 -0.0561  0.1537 -0.3116
  164MOL0     N22546   8.878  10.158   6.178  0.4156  0.0276 -0.7658
  164MOL0     C22547   7.831   9.771   6.869  0.1512  0.2284 -0.3597
  164MOL0     C22548   7.761   9.703   6.977 -0.0863  1.2652 -0.5147
  164MOL0     C22549   7.392   9.581   7.216 -0.7563 -1.2274  0.0067
  164MOL0     C22550   7.417   9.614   7.349  0.1238  0.1764  0.3196
  164MOL0     C22551   7.353   9.550   7.456 -0.4689 -0.4008 -0.3197
  164MOL0     C22552   7.264   9.451   7.428  0.5189  0.3447 -0.4125
  164MOL0     O22553   7.217   9.400   7.550  0.7472  0.1251  0.4271
  164MOL0     C22554   7.136   9.282   7.536  0.5515  0.4062  0.0457
  164MOL0     C22555   7.092   9.240   7.673  0.5278  0.6023 -0.0397
  164MOL0     C22556   6.996   9.119   7.674 -0.2197  0.9790 -0.2770
  164MOL0     C22557   6.921   9.116   7.807  0.1499  0.0348  0.2769
  164MOL0     C22558   6.836   9.001   7.823  0.1965  0.4932  0.5952
  164MOL0     C22559   6.767   8.900   7.833 -0.2514  0.2474 -0.0545
  164MOL0     C22560   7.241   9.409   7.295  0.0160  0.2894  0.0911
  164MOL0     C22561   7.304   9.475   7.190  0.3851 -0.2794  0.4055
  164MOL0     C22562   7.276   9.422   7.053 -0.8832 -0.6706  0.0837
  164MOL0     H22563   7.542   9.951   7.046  0.6399 -0.7746  1.5138
  164MOL0     H22564   7.676  10.079   6.893  1.0096  1.8209  1.9141
  164MOL0     H22565   7.995   9.839   6.677  0.3122 -0.6285  2.8621
  164MOL0     H22566   8.068   9.933   6.803 -0.6675  0.5752  0.6209
  164MOL0     H22567   7.987  10.016   6.517  1.8498  0.9816 -1.7785
  164MOL0     H22568   8.053  10.135   6.633  0.4220 -0.4218 -1.0124
  164MOL0     H22569   8.263   9.984   6.650 -1.9953 -1.2793  2.3714
  164MOL0     H22570   8.189   9.883   6.533 -0.9131  0.8919 -1.9632
  164MOL0     H22571   8.191  10.045   6.361  0.5139  1.9598 -0.9785
  164MOL0     H22572   8.236  10.171   6.476 -2.2783 -1.4586  2.8316
  164MOL0     H22573   8.399   9.917   6.412 -0.0634 -0.0934  2.6601
  164MOL0     H22574   8.453  10.059   6.517 -2.9621  2.3159  0.2912
  164MOL0     H22575   8.384  10.060   6.222  0.4367 -1.0277  1.7018
  164MOL0     H22576   8.414  10.204   6.324 -0.3175 -0.8850  4.4231
  164MOL0     H22577   8.616   9.986   6.263 -0.0114 -0.3322  1.9642
  164MOL0     H22578   8.650  10.128   6.365 -0.0917  0.8803  0.4849
  164MOL0     H22579   8.557  10.147   6.070  1.3416  0.2052 -1.7062
  164MOL0     H22580   8.605  10.284   6.177 -0.6422 -0.8602 -0.6725
  164MOL0     H22581   8.754  10.177   5.880  2.9355  0.4198 -1.2601
  164MOL0     H22582   8.978  10.036   5.790  1.3824 -0.6427 -0.1701
  164MOL0     H22583   9.108  10.017   5.909  1.6986 -0.3807  0.2189
  164MOL0     H22584   9.141  10.154   5.703 -3.4420 -1.0739 -1.4299
  164MOL0     H22585   9.043  10.284   5.760  2.6612  1.7993 -0.6013
  164MOL0     H22586   9.177  10.274   5.975 -2.2239 -1.1559 -0.7184
  164MOL0     H22587   9.306  10.192   5.887 -1.5183 -2.3337  0.0115
  164MOL0     H22588   9.292  10.365   5.705 -1.1035  0.2482 -0.0930
  164MOL0     H22589   9.205  10.474   5.816  0.5813 -0.1802  0.9428
  164MOL0     H22590   9.430  10.639   5.695 -0.8242 -1.4444 -0.7048
  164MOL0     H22591   9.512  10.772   5.566 -0.5897 -2.1645 -1.6544
  164MOL0     H22592   9.660  10.719   5.473 -0.6877  2.5043 -0.4708
  164MOL0     H22593   9.680  10.813   5.626  3.0713 -1.9972  0.5924
  164MOL0     H22594   9.886  10.552   5.222 -2.3343 -0.2374  3.3659
  164MOL0     H22595  10.079  10.647   5.081 -1.3929  0.6101  0.5829
  164MOL0     H22596  10.363  10.970   5.236 -0.9738 -0.1967 -1.8522
  164MOL0     H22597  10.434  10.806   5.281  2.9285 -0.6797 -1.3392
  164MOL0     H22598  10.507  10.765   5.057 -0.0143  0.0754 -2.1389
  164MOL0     H22599  10.446  10.915   4.998  0.0131  1.5344  0.3956
  164MOL0     H22600  10.680  10.854   5.154  3.4740  1.8613 -2.8377
  164MOL0     H22601  10.593  10.986   5.223  0.3753  2.6104 -0.7945
  164MOL0     H22602  10.604  11.090   4.998 -3.1845 -1.9363  2.9066
  164MOL0     H22603  10.691  10.953   4.922 -1.5490 -0.5937  0.7825
  164MOL0     H22604  10.796  11.123   5.146 -0.0787 -3.2304  1.9129
  164MOL0     H22605  10.879  10.989   5.088 -0.1743  1.8771  1.7073
  164MOL0     H22606  10.897  11.078   4.854 -0.7853 -0.2904  0.0006
  164MOL0     H22607  10.969  11.198   4.962 -1.3308  1.5196  0.2390
  164MOL0     H22608  10.711  11.249   4.833  0.2664  0.5490 -0.5481
  164MOL0     H22609  10.861  11.344   4.840  2.7165 -0.1987  1.9841
  164MOL0     H22610  10.677  11.284   5.072  0.6512 -1.4105 -1.7556
  164MOL0     H22611  10.686  11.441   4.978  2.6148  2.2587  1.0013
  164MOL0     H22612  10.230  10.860   5.411  1.5097 -0.5498 -3.7132
  164MOL0     H22613  10.059  10.751   5.569 -1.4370 -2.4443  0.5261
  164MOL0     H22614   9.830  10.382   5.791  0.1610  1.3082  1.6632
  164MOL0     H22615   9.621  10.306   5.899  0.0285  0.9986  1.2216
  164MOL0     H22616   7.913   9.718   6.823 -0.2197 -1.6361  1.0246
  164MOL0     H22617   7.784   9.604   7.015  1.0431  2.2382  1.4321
  164MOL0     H22618   7.479   9.701   7.369  0.0715  0.4915 -0.8187
  164MOL0     H22619   7.360   9.599   7.553  0.2180  1.3295 -1.1889
  164MOL0     H22620   7.048   9.315   7.480  2.0802  4.6600 -0.2206
  164MOL0     H22621   7.190   9.203   7.484 -0.5637 -1.3607  1.4339
  164MOL0     H22622   7.045   9.326   7.721 -0.6254  0.0971 -0.2251
  164MOL0     H22623   7.187   9.206   7.717  2.0475  1.2523 -2.6358
  164MOL0     H22624   6.929   9.141   7.591 -1.2132  0.4643  0.3790
  164MOL0     H22625   7.064   9.034   7.661 -2.3752 -1.0953  1.2476
  164MOL0     H22626   6.865   9.210   7.803  3.2667  2.1681  1.7733
  164MOL0     H22627   6.988   9.130   7.892 -0.1615  2.8998  0.1402
  164MOL0     H22628   6.707   8.812   7.848  1.0383 -1.1455 -2.3431
  164MOL0     H22629   7.163   9.335   7.285 -0.0862  0.2066  1.3038
  164MOL0     H22630   7.229   9.496   6.987  0.1034  0.2228  0.3581
  164MOL0     H22631   7.376   9.406   7.012 -0.6784  1.6384 -0.4665
  164MOL0     H22632   7.222   9.327   7.055 -1.0349 -0.6961 -2.4651
  165MOL0     O22633   5.068   3.383   4.504  0.3310 -1.2606 -0.4482
  165MOL0     C22634   4.991   3.365   4.410 -1.2240  0.4576  0.1250
  165MOL0     O22635   5.027   3.293   4.295  1.1523 -0.1621 -0.1147
  165MOL0     C22636   5.155   3.265   4.273 -0.3189 -0.0055  0.1847
  165MOL0     C22637   5.231   3.176   4.351  0.2802  0.2094 -0.2876
  165MOL0     C22638   5.367   3.154   4.327 -0.3962  0.3722 -0.1370
  165MOL0     C22639   5.425   3.209   4.212 -0.4747  0.1503  0.2279
  165MOL0     O22640   5.557   3.166   4.199 -0.0591 -0.7361  0.9223
  165MOL0     C22641   5.612   3.176   4.072 -0.1269  0.2244  0.1604
  165MOL0     C22642   5.752   3.121   4.070 -0.1506  0.0379 -0.2275
  165MOL0     C22643   5.844   3.193   4.173 -0.3804  0.6086  0.0675
  165MOL0     C22644   5.998   3.145   4.167  0.8654 -0.6855  0.3595
  165MOL0     C22645   6.083   3.221   4.272 -0.0829  0.9341  0.5640
  165MOL0     C22646   6.214   3.152   4.290 -0.0001 -0.7793 -0.1153
  165MOL0     C22647   6.280   3.197   4.415 -0.1614 -1.1433 -0.0756
  165MOL0     C22648   6.399   3.109   4.455  0.2502 -0.1140  0.4926
  165MOL0     N22649   6.454   3.157   4.583  0.2615  0.4036  0.0715
  165MOL0     C22650   6.431   3.272   4.649  1.1276 -0.7988 -0.2429
  165MOL0     C22651   6.498   3.262   4.765  0.0534  0.5554  0.2012
  165MOL0     C22652   6.500   3.369   4.867  0.0992  0.4862 -0.5065
  165MOL0     C22653   6.635   3.450   4.871  0.1555 -0.1358  0.7792
  165MOL0     C22654   6.630   3.556   4.754  0.1938  0.2467 -0.2482
  165MOL0     C22655   6.763   3.634   4.723 -0.5031  0.0509  0.5017
  165MOL0     O22656   6.883   3.550   4.713 -0.1730 -0.5763  0.9055
  165MOL0     C22657   6.998   3.599   4.667 -0.6929  0.1286 -0.2625
  165MOL0     C22658   7.102   3.508   4.672  0.9234 -0.1832 -0.4029
  165MOL0     C22659   7.231   3.546   4.648 -0.8264 -0.5804  0.4099
  165MOL0     C22660   7.338   3.444   4.650  0.1923 -0.4729 -0.5781
  165MOL0     C22661   7.267   3.682   4.627 -0.9864 -0.0236 -0.4376
  165MOL0     C22662   7.403   3.726   4.590 -0.2658 -1.2187 -0.1833
  165MOL0     O22663   7.495   3.653   4.516  0.0514 -0.2604 -0.6383
  165MOL0     C22664   7.597   3.721   4.458 -0.4166  0.6458 -0.0875
  165MOL0     C22665   7.732   3.724   4.509 -0.2863  0.2005 -0.3935
  165MOL0     C22666   7.834   3.788   4.450  0.1302 -0.0224  0.3923
  165MOL0     C22667   7.809   3.854   4.333 -0.1305 -0.2638 -0.3120
  165MOL0     O22668   7.911   3.931   4.272  0.0986  0.3111 -0.0955
  165MOL0     C22669   8.041   3.934   4.330 -0.3266 -0.0060  0.1479
  165MOL0     C22670   8.122   4.032   4.249 -0.0890  0.1353  0.5545
  165MOL0     C22671   8.231   4.104   4.331  0.2284  0.6340  0.5110
  165MOL0     C22672   8.365   4.030   4.311  0.2412  0.1996  0.1895
  165MOL0     C22673   8.477   4.090   4.398  0.5361 -0.1305  1.1170
  165MOL0     C22674   8.612   4.015   4.392 -0.2533  0.6128  0.0293
  165MOL0     C22675   8.715   4.093   4.464  0.7262  0.8279 -0.1867
  165MOL0     C22676   8.838   4.009   4.447  0.0450  0.1704 -0.0469
  165MOL0    Cl22677   8.969   4.050   4.555 -0.2365  0.2467  0.6606
  165MOL0     C22678   7.680   3.855   4.270  0.2503 -0.0986  0.3526
  165MOL0     C22679   7.579   3.788   4.330  0.2944  0.7305 -0.6570
  165MOL0     O22680   7.419   3.848   4.620 -0.0289  0.0292  0.3862
  165MOL0     C22681   7.166   3.776   4.634  0.5576 -0.4190  0.3364
  165MOL0     C22682   7.029   3.736   4.658  0.2545 -0.7437  0.1495
  165MOL0     N22683   6.567   3.144   4.766  0.7616  0.1582  0.1625
  165MOL0     N22684   6.552   3.084   4.647  0.2484 -0.1046 -0.7029
  165MOL0     C22685   5.354   3.290   4.124  0.3070 -0.5578 -0.4465
  165MOL0     C22686   5.220   3.327   4.162  0.0371 -0.5555 -0.3234
  165MOL0     C22687   4.852   3.403   4.413  0.0973  0.2336 -1.4964
  165MOL0     C22688   4.831   3.514   4.496 -0.7550  0.5603 -0.5118
  165MOL0     C22689   4.706   3.580   4.500 -0.4953  0.0192 -0.1754
  165MOL0     C22690   4.598   3.539   4.417  0.1298 -0.7227 -0.6701
  165MOL0     O22691   4.485   3.622   4.409 -0.2577 -0.5527 -0.6264
  165MOL0     C22692   4.372   3.597   4.315  0.2868  0.0715  0.2734
  165MOL0     C22693   4.247   3.690   4.331 -0.1717 -0.1913 -0.3036
  165MOL0     C22694   4.149   3.698   4.204 -0.0325 -0.5563 -0.3299
  165MOL0     C22695   4.037   3.794   4.238 -0.1973 -0.2315  0.0893
  165MOL0     C22696   4.082   3.934   4.258  0.9218 -0.3379  0.4489
  165MOL0     C22697   4.109   4.047   4.303 -0.4518 -0.0806  0.2985
  165MOL0     C22698   4.622   3.430   4.331  0.5886  0.9421 -0.5491
  165MOL0     C22699   4.742   3.358   4.329 -0.8726 -0.5235 -0.3845
  165MOL0     C22700   4.746   3.233   4.240 -0.6626  0.0764  0.4881
  165MOL0     H22701   5.192   3.136   4.443 -0.8230  4.7881  1.5235
  165MOL0     H22702   5.428   3.086   4.387  0.4114 -0.9399 -2.3274
  165MOL0     H22703   5.616   3.277   4.029  1.5115 -0.0958 -0.4977
  165MOL0     H22704   5.557   3.114   4.001  1.2568 -1.9062  0.8410
  165MOL0     H22705   5.744   3.015   4.094 -1.4875  0.4563  1.4052
  165MOL0     H22706   5.791   3.132   3.969 -0.8362  1.5187 -0.3706
  165MOL0     H22707   5.848   3.301   4.154  1.8669  0.8065  1.3487
  165MOL0     H22708   5.815   3.183   4.278 -1.9536 -1.8692 -0.5100
  165MOL0     H22709   6.004   3.042   4.201  0.4869 -0.7839  0.1375
  165MOL0     H22710   6.053   3.157   4.073  3.2943 -0.6399  1.7210
  165MOL0     H22711   6.027   3.223   4.366 -0.3282 -1.3581  0.5378
  165MOL0     H22712   6.096   3.322   4.234 -1.6112  0.9868  0.1100
  165MOL0     H22713   6.208   3.043   4.283 -0.6284 -0.6433 -2.8663
  165MOL0     H22714   6.266   3.174   4.196 -0.1792  2.1477  0.3796
  165MOL0     H22715   6.213   3.204   4.501  0.9948  1.9128  0.6895
  165MOL0     H22716   6.314   3.299   4.397  0.8876 -0.6067  4.0030
  165MOL0     H22717   6.372   3.003   4.461 -0.3919  0.0950  1.3507
  165MOL0     H22718   6.472   3.110   4.373  1.2003  1.5739  1.3179
  165MOL0     H22719   6.367   3.353   4.614 -0.4796 -0.7886  2.4325
  165MOL0     H22720   6.484   3.333   4.969 -0.9252 -0.8473 -1.1095
  165MOL0     H22721   6.418   3.442   4.861  0.9469  1.5120 -0.0207
  165MOL0     H22722   6.648   3.502   4.966  2.3759 -1.7970  1.4480
  165MOL0     H22723   6.716   3.380   4.848  0.2667  0.3306 -0.3293
  165MOL0     H22724   6.594   3.508   4.663 -3.2716  2.9057 -0.4970
  165MOL0     H22725   6.559   3.632   4.788  2.5254  2.6342 -0.4088
  165MOL0     H22726   6.746   3.693   4.633  0.2530  1.7894  1.4410
  165MOL0     H22727   6.782   3.697   4.810  0.5538 -1.4634  1.4264
  165MOL0     H22728   7.069   3.408   4.698  1.3390  0.1625  1.6177
  165MOL0     H22729   7.414   3.461   4.727  1.1958 -2.9288 -0.9079
  165MOL0     H22730   7.385   3.437   4.551  0.5413  0.3989 -0.4794
  165MOL0     H22731   7.301   3.345   4.680  0.3688 -0.5404 -0.5739
  165MOL0     H22732   7.751   3.669   4.601 -3.6436 -2.0182 -0.8502
  165MOL0     H22733   7.918   3.789   4.519  0.5541 -1.3680 -0.0738
  165MOL0     H22734   8.026   3.978   4.430 -0.0590 -1.9818  1.0949
  165MOL0     H22735   8.088   3.836   4.338  0.5293  0.4960  1.9129
  165MOL0     H22736   8.164   3.983   4.161 -3.3063  0.5772 -1.3663
  165MOL0     H22737   8.044   4.103   4.221 -1.2191 -0.9574  0.8525
  165MOL0     H22738   8.218   4.103   4.439  1.0306 -0.2044  0.6240
  165MOL0     H22739   8.246   4.207   4.296  1.2175  0.6315  0.8772
  165MOL0     H22740   8.397   4.032   4.207  3.1202 -1.5742  0.9421
  165MOL0     H22741   8.357   3.923   4.334  0.4807  0.0616 -0.3615
  165MOL0     H22742   8.497   4.193   4.370  0.3837 -0.2852  0.4195
  165MOL0     H22743   8.443   4.086   4.501 -1.0441  1.7239  0.7148
  165MOL0     H22744   8.649   4.019   4.289  0.4930  1.3972  0.3192
  165MOL0     H22745   8.602   3.911   4.425 -0.4506  0.9858  1.1843
  165MOL0     H22746   8.694   4.096   4.571  1.1431  0.7916 -0.1027
  165MOL0     H22747   8.739   4.191   4.424  2.9762  0.4250  0.0508
  165MOL0     H22748   8.878   4.026   4.347 -0.9258  3.5369  0.0352
  165MOL0     H22749   8.841   3.900   4.463  0.8813  0.1858 -0.0145
  165MOL0     H22750   7.654   3.897   4.173 -0.1407  2.1081  1.3736
  165MOL0     H22751   7.476   3.790   4.297 -0.0064  1.1651  0.2828
  165MOL0     H22752   7.189   3.882   4.628  1.3108 -0.6163 -0.4442
  165MOL0     H22753   6.955   3.814   4.676 -0.0379 -0.5486 -1.6918
  165MOL0     H22754   5.389   3.331   4.030 -2.4350  1.4150 -0.7150
  165MOL0     H22755   5.167   3.402   4.105  0.5692  1.0299  1.1968
  165MOL0     H22756   4.908   3.554   4.561 -2.4934  3.3297  0.0183
  165MOL0     H22757   4.690   3.676   4.547 -1.3013 -0.7471  1.1543
  165MOL0     H22758   4.413   3.612   4.214  2.5277 -0.2201  1.0817
  165MOL0     H22759   4.331   3.497   4.331 -1.9126  1.0789  1.3446
  165MOL0     H22760   4.292   3.788   4.348 -0.1775 -0.6565  2.8581
  165MOL0     H22761   4.188   3.667   4.419 -0.4025  1.0987 -0.1067
  165MOL0     H22762   4.209   3.719   4.115 -0.3433 -2.9877 -1.1782
  165MOL0     H22763   4.091   3.611   4.173 -0.6973 -0.6202  1.0164
  165MOL0     H22764   3.979   3.752   4.321  0.6695  1.5584  1.6711
  165MOL0     H22765   3.974   3.794   4.149  1.2134  1.8081 -0.9865
  165MOL0     H22766   4.130   4.148   4.331 -0.3573 -0.1619  0.5175
  165MOL0     H22767   4.539   3.393   4.270 -1.8868  1.3776  2.2973
  165MOL0     H22768   4.646   3.200   4.211  0.0759 -1.2241 -0.6967
  165MOL0     H22769   4.798   3.260   4.148 -2.3805 -1.4199 -0.9841
  165MOL0     H22770   4.797   3.156   4.298  0.6613  0.2624 -0.3871
  166MOL0     O22771   3.567   0.184   0.544  0.7261  0.0907 -0.4561
  166MOL0     C22772   3.480   0.116   0.606  0.4756 -0.9662 -0.2663
  166MOL0     O22773   3.494   0.073   0.736 -0.0170 -0.7046  0.0934
  166MOL0     C22774   3.609   0.108   0.802 -0.5523  0.4608 -0.3986
  166MOL0     C22775   3.595   0.218   0.885  1.2575 -0.7003 -0.0507
  166MOL0     C22776   3.710   0.273   0.938  1.0994  0.6282 -0.0053
  166MOL0     C22777   3.840   0.215   0.929 -0.6882  0.1060  0.0610
  166MOL0     O22778   3.951   0.280   0.986  0.3748 -0.0209  0.0921
  166MOL0     C22779   4.078   0.224   0.965  0.5448  0.6445  0.2201
  166MOL0     C22780   4.187   0.315   1.006  0.1133 -0.0230 -0.0891
  166MOL0     C22781   4.328   0.267   0.986 -0.8947 -0.2697 -0.3376
  166MOL0     C22782   4.368   0.166   1.097  0.0454 -0.7817 -0.0932
  166MOL0     C22783   4.514   0.109   1.073 -0.1651 -0.2112 -0.4056
  166MOL0     C22784   4.531   0.003   0.980  0.4613  0.6881 -0.5322
  166MOL0     C22785   4.665  -0.051   0.976 -0.8578  0.2636 -0.1506
  166MOL0     C22786   4.688  -0.147   0.862  0.3456 -0.1857  1.1754
  166MOL0     N22787   4.819  -0.218   0.847 -0.3022  0.3619 -0.0952
  166MOL0     C22788   4.840  -0.349   0.818 -0.8133 -0.1465  0.6719
  166MOL0     C22789   4.978  -0.348   0.784  0.6554 -0.4687  0.0221
  166MOL0     C22790   5.057  -0.467   0.729 -0.5530 -0.5538  0.1598
  166MOL0     C22791   5.159  -0.425   0.625 -0.4873 -0.2590  0.6319
  166MOL0     C22792   5.235  -0.542   0.567  0.4275 -0.0560  0.0402
  166MOL0     C22793   5.350  -0.503   0.477 -0.2593  0.2962  0.0457
  166MOL0     O22794   5.447  -0.420   0.531  0.2826 -0.7843 -0.3079
  166MOL0     C22795   5.568  -0.400   0.471 -0.9144  0.3704 -0.1047
  166MOL0     C22796   5.636  -0.484   0.385 -0.5934 -0.1064 -0.2654
  166MOL0     C22797   5.766  -0.463   0.337 -0.2366  0.5453 -0.1597
  166MOL0     C22798   5.841  -0.571   0.249  0.2167 -0.2599  0.6041
  166MOL0     C22799   5.822  -0.334   0.362  0.3462  0.7920 -0.5553
  166MOL0     C22800   5.960  -0.294   0.308 -0.7437 -0.4606 -0.4334
  166MOL0     O22801   6.007  -0.168   0.351  0.3093  0.4653 -0.2477
  166MOL0     C22802   6.121  -0.117   0.302  0.1956 -0.8538 -0.7455
  166MOL0     C22803   6.245  -0.184   0.286 -0.2684  0.7624  0.4610
  166MOL0     C22804   6.360  -0.132   0.225  0.0461 -0.4315 -0.0343
  166MOL0     C22805   6.354   0.008   0.194 -0.1665 -0.2387 -0.1552
  166MOL0     O22806   6.455   0.084   0.151  0.4612  0.5904 -0.2722
  166MOL0     C22807   6.587   0.040   0.180  0.6329  0.0191  0.1765
  166MOL0     C22808   6.680   0.107   0.072  0.7608  0.6914 -0.3998
  166MOL0     C22809   6.634   0.056  -0.064 -0.3723  0.0100 -0.2151
  166MOL0     C22810   6.649  -0.097  -0.090 -0.6191 -0.6272  0.0811
  166MOL0     C22811   6.598  -0.145  -0.226  0.0190  0.0151 -0.0782
  166MOL0     C22812   6.623  -0.286  -0.257  0.1316  0.3156 -0.6491
  166MOL0     C22813   6.551  -0.330  -0.381 -0.2190  0.0001  0.0498
  166MOL0     C22814   6.585  -0.263  -0.508 -0.6234 -0.0853 -0.0313
  166MOL0    Cl22815   6.761  -0.247  -0.539  0.4010  0.2025  0.0899
  166MOL0     C22816   6.231   0.077   0.209 -0.1394  0.1021  0.0927
  166MOL0     C22817   6.118   0.012   0.257 -0.6020 -0.7177  0.9291
  166MOL0     O22818   6.011  -0.353   0.216 -0.4849  0.3756 -0.2627
  166MOL0     C22819   5.745  -0.242   0.441 -0.8897 -0.8516  0.3679
  166MOL0     C22820   5.630  -0.276   0.501  0.0971 -0.2612 -0.3064
  166MOL0     N22821   5.026  -0.219   0.785  0.0889 -0.2816 -0.4439
  166MOL0     N22822   4.929  -0.139   0.831  0.1849 -0.5506 -0.2108
  166MOL0     C22823   3.851   0.093   0.852  0.2328  0.0491 -0.3754
  166MOL0     C22824   3.735   0.046   0.793 -0.1763  0.2157 -0.4260
  166MOL0     C22825   3.358   0.074   0.523 -0.8334  0.4345 -0.5714
  166MOL0     C22826   3.341   0.110   0.388 -0.5584  0.0063 -0.1841
  166MOL0     C22827   3.229   0.076   0.319  0.6318 -0.6194  0.1422
  166MOL0     C22828   3.123   0.006   0.370  0.5922 -0.1266 -0.0361
  166MOL0     O22829   3.008  -0.019   0.303  0.6646  0.1976 -0.3615
  166MOL0     C22830   3.005  -0.000   0.162 -0.1470 -0.2027 -0.6757
  166MOL0     C22831   2.850  -0.026   0.119 -0.8559  0.4350  0.6650
  166MOL0     C22832   2.833  -0.175   0.071  0.0435  0.0025  0.1137
  166MOL0     C22833   2.685  -0.221   0.100 -0.7186 -0.1499 -0.2402
  166MOL0     C22834   2.594  -0.126   0.033  0.2439  0.0027 -0.1323
  166MOL0     C22835   2.514  -0.040  -0.011 -0.6391  0.3503 -1.1371
  166MOL0     C22836   3.143  -0.039   0.501  0.7052 -0.5525 -0.0273
  166MOL0     C22837   3.258  -0.008   0.578  0.0541  0.3859  0.1139
  166MOL0     C22838   3.256  -0.067   0.721  0.7523 -0.7365  0.2220
  166MOL0     H22839   3.500   0.271   0.883  1.7389  0.2215  0.7250
  166MOL0     H22840   3.700   0.361   1.001  2.0959 -1.6510  3.7020
  166MOL0     H22841   4.101   0.201   0.860  0.0905 -1.9048  0.6139
  166MOL0     H22842   4.084   0.132   1.022 -1.2567  1.6737  2.2438
  166MOL0     H22843   4.181   0.404   0.942  0.7883  1.7445  2.1819
  166MOL0     H22844   4.177   0.358   1.106  2.9831  1.5211 -0.3680
  166MOL0     H22845   4.334   0.212   0.892 -1.7477 -0.3895 -0.3370
  166MOL0     H22846   4.402   0.346   0.990 -1.0818 -0.0793 -0.6440
  166MOL0     H22847   4.369   0.211   1.196 -0.5156 -2.1004  0.5289
  166MOL0     H22848   4.303   0.078   1.097 -3.1763  1.3629  2.8102
  166MOL0     H22849   4.563   0.085   1.168 -1.2878 -1.5885 -0.1433
  166MOL0     H22850   4.573   0.193   1.034 -3.6343  2.3445 -0.6136
  166MOL0     H22851   4.455  -0.069   1.012  1.4317 -0.1417 -0.0708
  166MOL0     H22852   4.505   0.046   0.882 -1.0043 -2.3164 -1.5950
  166MOL0     H22853   4.680  -0.106   1.069 -1.7807 -1.3121 -0.8746
  166MOL0     H22854   4.731   0.035   0.988  0.6809 -1.2441  3.9477
  166MOL0     H22855   4.618  -0.231   0.860  0.6704 -0.4745  1.9023
  166MOL0     H22856   4.671  -0.101   0.764 -0.5420  1.0848  1.8894
  166MOL0     H22857   4.766  -0.427   0.813 -0.8978 -0.1379  1.5708
  166MOL0     H22858   4.992  -0.547   0.694  0.5850 -0.4589 -2.3944
  166MOL0     H22859   5.118  -0.503   0.812  1.1302  0.9517 -0.3720
  166MOL0     H22860   5.100  -0.389   0.540  2.3282 -2.5287 -2.6118
  166MOL0     H22861   5.227  -0.344   0.655 -0.8621  0.7563 -1.0932
  166MOL0     H22862   5.277  -0.601   0.648 -0.2832  0.4312  0.7739
  166MOL0     H22863   5.166  -0.611   0.518  1.0626  0.4743 -1.7100
  166MOL0     H22864   5.395  -0.599   0.450  2.3003  1.4357 -0.0378
  166MOL0     H22865   5.313  -0.456   0.385 -0.2937 -0.7116 -0.4691
  166MOL0     H22866   5.598  -0.584   0.368  2.5602 -1.5454  0.4395
  166MOL0     H22867   5.845  -0.528   0.149  1.0026 -2.0922 -0.2009
  166MOL0     H22868   5.783  -0.664   0.250  1.1775 -0.9134  2.6446
  166MOL0     H22869   5.944  -0.595   0.279  0.3856  1.3994  1.4763
  166MOL0     H22870   6.266  -0.290   0.300  0.2632  1.0798  2.4371
  166MOL0     H22871   6.445  -0.197   0.207  2.9138  2.3484  2.1575
  166MOL0     H22872   6.614   0.064   0.283 -0.6548 -3.3648  1.4547
  166MOL0     H22873   6.596  -0.067   0.160  1.6262  0.2203 -0.5588
  166MOL0     H22874   6.660   0.214   0.074 -1.7547  0.5367  5.7189
  166MOL0     H22875   6.786   0.105   0.098  0.7988 -1.1324 -0.5708
  166MOL0     H22876   6.691   0.110  -0.141 -2.8096  1.5724 -1.0799
  166MOL0     H22877   6.535   0.091  -0.095 -0.3339 -1.0525 -1.6560
  166MOL0     H22878   6.610  -0.161  -0.011  0.3489 -2.6252 -0.9891
  166MOL0     H22879   6.755  -0.121  -0.087 -0.9472 -2.0412  1.2749
  166MOL0     H22880   6.497  -0.103  -0.235 -0.2740 -0.6998 -0.2050
  166MOL0     H22881   6.656  -0.086  -0.297 -1.1794  0.4233 -0.7537
  166MOL0     H22882   6.583  -0.343  -0.172 -0.9424  0.1571 -1.2354
  166MOL0     H22883   6.730  -0.304  -0.260 -0.4066 -3.6457 -1.3964
  166MOL0     H22884   6.443  -0.345  -0.369 -0.3902  1.7493  1.0146
  166MOL0     H22885   6.583  -0.434  -0.391 -1.3796 -0.3352 -0.3631
  166MOL0     H22886   6.534  -0.166  -0.507 -1.0374 -0.2537  2.3363
  166MOL0     H22887   6.559  -0.318  -0.599 -0.2394  3.2047 -2.3130
  166MOL0     H22888   6.226   0.181   0.180  1.6101  0.9066  2.4044
  166MOL0     H22889   6.027   0.067   0.277 -0.4304 -1.1210  3.1315
  166MOL0     H22890   5.776  -0.140   0.461 -1.2596 -0.8354  0.8969
  166MOL0     H22891   5.595  -0.194   0.563 -0.9416  0.6237 -1.9747
  166MOL0     H22892   3.942   0.039   0.826 -0.1296 -0.6343 -0.2418
  166MOL0     H22893   3.752  -0.043   0.732 -0.2825  3.4861 -5.9278
  166MOL0     H22894   3.418   0.166   0.335 -3.0059  0.3101 -3.7535
  166MOL0     H22895   3.224   0.115   0.218  1.2501 -1.5867 -0.2725
  166MOL0     H22896   3.042   0.099   0.135 -1.2218  0.3205 -0.3050
  166MOL0     H22897   3.080  -0.071   0.126 -0.3345 -1.0147  0.4679
  166MOL0     H22898   2.835   0.039   0.032 -0.0926 -0.5631 -0.2465
  166MOL0     H22899   2.781  -0.011   0.203 -1.9169  1.2834 -0.3270
  166MOL0     H22900   2.867  -0.177  -0.033  0.0608 -0.2346  0.1243
  166MOL0     H22901   2.898  -0.251   0.116 -0.3592 -1.4109 -1.5787
  166MOL0     H22902   2.675  -0.226   0.209 -1.5493  1.4936 -0.2258
  166MOL0     H22903   2.660  -0.320   0.060 -1.2172 -1.0312  2.0372
  166MOL0     H22904   2.443   0.038  -0.026 -1.4525  0.7906  3.5343
  166MOL0     H22905   3.065  -0.104   0.539  0.5100 -0.9801 -1.1231
  166MOL0     H22906   3.245   0.006   0.803  1.3978 -0.6683  0.2563
  166MOL0     H22907   3.173  -0.138   0.721  0.6371 -0.6053 -0.2750
  166MOL0     H22908   3.344  -0.131   0.729  0.8209 -0.7719 -0.6959
  167MOL0     O22909   2.614   8.813   9.938  0.0286 -0.6500 -0.1350
  167MOL0     C22910   2.663   8.795   9.831 -0.6245  0.4232  0.2899
  167MOL0     O22911   2.788   8.837   9.795 -0.2435  0.1773 -0.6779
  167MOL0     C22912   2.872   8.887   9.889  0.2910  0.1884  0.0315
  167MOL0     C22913   2.883   8.848  10.023  0.5796 -0.0191  0.7621
  167MOL0     C22914   2.991   8.881  10.101  0.0130 -0.3977 -0.0070
  167MOL0     C22915   3.084   8.978  10.050 -0.6732 -0.1434  0.2860
  167MOL0     O22916   3.171   9.029  10.145  0.5483 -0.4736  0.6023
  167MOL0     C22917   3.270   9.127  10.104 -0.3996 -0.3150 -0.2739
  167MOL0     C22918   3.391   9.060  10.027  0.1562 -0.3894  0.3642
  167MOL0     C22919   3.516   9.146  10.020  0.4531  0.1380  0.2848
  167MOL0     C22920   3.643   9.057  10.016  0.1572  0.1610  0.5447
  167MOL0     C22921   3.766   9.142  10.021 -0.2729 -0.4090 -0.5209
  167MOL0     C22922   3.887   9.046  10.004 -0.0188  0.4998  1.1330
  167MOL0     C22923   4.016   9.113   9.983 -0.3656 -0.0927 -0.4976
  167MOL0     C22924   4.118   9.001   9.939 -0.0701  0.6380  0.1238
  167MOL0     N22925   4.267   9.036   9.955 -0.5624  0.0316 -0.5613
  167MOL0     C22926   4.359   9.031   9.851  0.2265 -0.1577 -0.2162
  167MOL0     C22927   4.477   9.039   9.908 -0.1088 -0.6952  0.2824
  167MOL0     C22928   4.601   9.057   9.829 -0.0504  0.3912  0.1413
  167MOL0     C22929   4.616   9.197   9.763 -0.2621 -0.1629 -0.1073
  167MOL0     C22930   4.587   9.315   9.858 -0.3611 -0.0929  0.3837
  167MOL0     C22931   4.722   9.351   9.918 -0.5083 -0.2525 -0.4418
  167MOL0     O22932   4.705   9.422  10.038  0.2871  0.2529  0.4581
  167MOL0     C22933   4.826   9.457  10.095  0.3071 -0.2545  0.2246
  167MOL0     C22934   4.846   9.591  10.120 -0.5366  0.3416 -0.6181
  167MOL0     C22935   4.968   9.637  10.178  0.3938  0.1199  1.3294
  167MOL0     C22936   4.985   9.788  10.180 -0.1409  0.3933  0.0004
  167MOL0     C22937   5.070   9.549  10.213  0.0908  0.0950  0.5609
  167MOL0     C22938   5.208   9.583  10.256 -0.4563  0.1121  0.8452
  167MOL0     O22939   5.250   9.710  10.234  0.2708 -0.4994  0.2926
  167MOL0     C22940   5.385   9.725  10.233 -0.8510  0.3000  0.7386
  167MOL0     C22941   5.454   9.799  10.331 -1.0506 -0.2690 -0.6766
  167MOL0     C22942   5.592   9.816  10.322 -0.3431 -0.3921 -0.0404
  167MOL0     C22943   5.664   9.771  10.217  0.0494  0.4080  0.3386
  167MOL0     O22944   5.794   9.811  10.206  0.5493 -0.6636  0.1102
  167MOL0     C22945   5.871   9.763  10.096  0.2810  0.5455  0.3094
  167MOL0     C22946   6.020   9.776  10.118 -0.3326  0.1277 -0.0495
  167MOL0     C22947   6.110   9.744   9.998 -0.0780  0.1580  0.2821
  167MOL0     C22948   6.078   9.829   9.876  0.7608 -0.6824  1.0807
  167MOL0     C22949   6.217   9.856   9.811  0.5036 -0.2231 -0.1279
  167MOL0     C22950   6.220   9.941   9.676  0.2869  0.3313  0.5107
  167MOL0     C22951   6.192   9.854   9.553  0.6346 -0.7418  0.5205
  167MOL0     C22952   6.140   9.951   9.443 -0.0031  0.2722  0.5776
  167MOL0    Cl22953   6.097   9.858   9.292  0.4540  0.0122 -0.2032
  167MOL0     C22954   5.603   9.693  10.119 -0.8469 -1.0206 -0.1571
  167MOL0     C22955   5.461   9.678  10.127 -0.0341  1.0724  0.0748
  167MOL0     O22956   5.266   9.498  10.322 -0.0653 -0.0422  0.4306
  167MOL0     C22957   5.042   9.409  10.189  0.1991  0.0594 -0.0113
  167MOL0     C22958   4.921   9.364  10.135 -0.6579  0.1184 -0.8810
  167MOL0     N22959   4.455   9.043  10.045 -0.7392 -0.2882 -0.0980
  167MOL0     N22960   4.338   9.043  10.067  0.2830  0.0369 -0.4071
  167MOL0     C22961   3.071   9.029   9.922 -0.7424  0.5477  1.4458
  167MOL0     C22962   2.963   8.983   9.840  0.0282  0.6664  0.1423
  167MOL0     C22963   2.590   8.728   9.717 -0.1201  0.6976 -0.3196
  167MOL0     C22964   2.600   8.779   9.592  0.3095  0.0606  0.1112
  167MOL0     C22965   2.540   8.708   9.488  0.5699 -0.6856 -0.2398
  167MOL0     C22966   2.457   8.591   9.503 -0.3659 -0.2803  0.2110
  167MOL0     O22967   2.399   8.521   9.402  0.0798 -0.5208  0.0097
  167MOL0     C22968   2.447   8.540   9.272 -0.2466  0.7160  0.8537
  167MOL0     C22969   2.368   8.452   9.173 -0.7774 -0.3359 -0.5971
  167MOL0     C22970   2.410   8.305   9.206  0.9191  0.3631  0.2906
  167MOL0     C22971   2.328   8.209   9.116  0.3240 -0.8308  0.1993
  167MOL0     C22972   2.185   8.240   9.112  0.6055  0.0591 -0.3762
  167MOL0     C22973   2.067   8.258   9.112 -0.3701  0.0178  0.1391
  167MOL0     C22974   2.437   8.553   9.636 -0.0731 -0.3609  0.8102
  167MOL0     C22975   2.501   8.619   9.744 -0.1901  0.1384  0.7544
  167MOL0     C22976   2.491   8.554   9.885 -0.2830 -0.0834  0.7097
  167MOL0     H22977   2.806   8.788  10.071  1.4200 -0.2505  1.8464
  167MOL0     H22978   2.993   8.858  10.207 -0.5710  0.9124  0.3020
  167MOL0     H22979   3.296   9.182  10.195 -1.0852 -1.4230  0.6151
  167MOL0     H22980   3.228   9.202  10.036 -0.2960 -0.8607 -0.9549
  167MOL0     H22981   3.411   8.967  10.081 -0.6332 -1.5004 -1.1655
  167MOL0     H22982   3.365   9.034   9.924  0.8809 -1.2315  0.3848
  167MOL0     H22983   3.513   9.218   9.938  0.2158  0.3913  0.5169
  167MOL0     H22984   3.518   9.209  10.110 -0.4723  1.1769 -0.4087
  167MOL0     H22985   3.647   8.976  10.089  0.8007 -0.6751 -0.3871
  167MOL0     H22986   3.649   9.011   9.916 -1.7937  0.8674  0.0570
  167MOL0     H22987   3.769   9.193  10.118 -1.2000 -1.6736  0.2023
  167MOL0     H22988   3.763   9.226   9.951  1.1501  2.6321  2.7419
  167MOL0     H22989   3.891   8.987  10.096  0.2566  0.8838  1.3690
  167MOL0     H22990   3.863   8.982   9.919  1.3956  1.2145  0.1537
  167MOL0     H22991   4.056   9.162  10.072  1.3211  0.6531 -1.6222
  167MOL0     H22992   4.009   9.184   9.900 -0.3577  1.1210  0.4956
  167MOL0     H22993   4.111   8.910   9.999  3.0655  0.9021  1.0568
  167MOL0     H22994   4.108   8.969   9.835  1.1855 -0.8567  0.4251
  167MOL0     H22995   4.326   9.014   9.749 -0.3174 -3.6187  0.4086
  167MOL0     H22996   4.595   8.983   9.748  0.9676  1.0373 -0.5396
  167MOL0     H22997   4.688   9.032   9.891 -0.1204 -0.9360 -0.2523
  167MOL0     H22998   4.707   9.191   9.703 -2.3189 -1.6180 -3.3456
  167MOL0     H22999   4.540   9.199   9.684 -1.1687 -2.0577  0.6365
  167MOL0     H23000   4.557   9.402   9.798  1.1428  0.8958  1.0092
  167MOL0     H23001   4.520   9.310   9.944  0.0294  1.8489  0.8573
  167MOL0     H23002   4.767   9.254   9.942 -0.9968  0.0337  1.8697
  167MOL0     H23003   4.783   9.412   9.851 -1.6099 -1.3694 -2.5603
  167MOL0     H23004   4.773   9.659  10.078 -2.9988 -0.8995  1.3907
  167MOL0     H23005   5.064   9.819  10.110  0.5814 -0.8328  0.2430
  167MOL0     H23006   5.009   9.829  10.278  1.3910  0.4227 -0.3564
  167MOL0     H23007   4.893   9.838  10.147  0.7702 -0.8687 -5.3984
  167MOL0     H23008   5.410   9.849  10.417 -0.5555  1.3614 -1.3352
  167MOL0     H23009   5.647   9.880  10.391 -0.0834  1.0272 -1.4972
  167MOL0     H23010   5.846   9.658  10.080  4.2346 -0.2795 -1.7171
  167MOL0     H23011   5.839   9.810  10.002  1.2694 -3.5146 -2.2702
  167MOL0     H23012   6.047   9.879  10.142  0.5418 -0.6429  2.5805
  167MOL0     H23013   6.053   9.718  10.204  0.5615 -0.9166 -1.0661
  167MOL0     H23014   6.083   9.641   9.972 -3.2313  0.6393  1.2494
  167MOL0     H23015   6.216   9.750  10.023 -0.0318  1.0824 -0.0961
  167MOL0     H23016   6.034   9.927   9.896 -0.1387 -0.8271 -0.0770
  167MOL0     H23017   6.011   9.774   9.810 -1.4075 -0.2892  2.8284
  167MOL0     H23018   6.278   9.912   9.883 -0.4998 -0.9108  1.3251
  167MOL0     H23019   6.259   9.758   9.787 -0.4110 -0.2925 -1.5474
  167MOL0     H23020   6.315   9.988   9.650 -0.2358 -0.4783 -3.5674
  167MOL0     H23021   6.143  10.018   9.690  0.8166  0.7160  1.3551
  167MOL0     H23022   6.113   9.779   9.568  2.3413 -2.7693 -0.1706
  167MOL0     H23023   6.286   9.805   9.526 -0.1092 -1.8995 -0.0693
  167MOL0     H23024   6.216  10.029   9.428 -0.2553  0.7466  1.6833
  167MOL0     H23025   6.046   9.996   9.476 -0.5493 -0.4005 -0.0173
  167MOL0     H23026   5.655   9.652  10.033 -1.7610 -0.8462 -0.8036
  167MOL0     H23027   5.407   9.625  10.050 -0.5365 -0.4134  1.3959
  167MOL0     H23028   5.115   9.331  10.209 -0.9375 -0.9999  0.0677
  167MOL0     H23029   4.903   9.258  10.121  0.9599 -0.0683 -1.7853
  167MOL0     H23030   3.134   9.109   9.886 -2.2222  1.2376  0.2789
  167MOL0     H23031   2.951   8.998   9.733 -0.0497 -1.3993 -0.1911
  167MOL0     H23032   2.665   8.861   9.565 -0.7259  0.2953 -1.8976
  167MOL0     H23033   2.547   8.748   9.387 -0.0823 -1.2790 -0.5292
  167MOL0     H23034   2.431   8.639   9.230  0.6530  0.0976 -1.0525
  167MOL0     H23035   2.555   8.520   9.281  0.0772  2.4000  1.0008
  167MOL0     H23036   2.393   8.489   9.073  1.0047  2.6751  0.8164
  167MOL0     H23037   2.264   8.474   9.200 -0.3539  0.1594  0.7368
  167MOL0     H23038   2.515   8.288   9.183  0.2567 -2.7737 -1.0479
  167MOL0     H23039   2.389   8.280   9.310  0.9219 -1.3061 -0.0831
  167MOL0     H23040   2.344   8.107   9.153  0.3494 -0.6728  0.6315
  167MOL0     H23041   2.370   8.214   9.015  3.6463 -1.6448  1.4084
  167MOL0     H23042   1.960   8.267   9.113 -0.2578  1.7435  1.5267
  167MOL0     H23043   2.377   8.464   9.652  1.2234 -1.6049 -0.8725
  167MOL0     H23044   2.426   8.466   9.877  0.6101 -0.6612 -0.5324
  167MOL0     H23045   2.590   8.537   9.928 -0.7034  3.4682  3.6409
  167MOL0     H23046   2.448   8.617   9.964 -1.7463 -0.3438  0.1535
  168MOL0     O23047   5.079   8.290   1.494  0.5711  0.2014 -0.0997
  168MOL0     C23048   5.081   8.200   1.581 -0.4638 -0.4050  0.1176
  168MOL0     O23049   5.095   8.068   1.552 -0.1410  0.6814 -0.3722
  168MOL0     C23050   5.143   8.034   1.427 -0.0047  0.8783 -0.3468
  168MOL0     C23051   5.106   7.903   1.386 -0.1063 -1.6565 -0.1672
  168MOL0     C23052   5.124   7.859   1.255  0.4077  0.0629 -0.0454
  168MOL0     C23053   5.205   7.938   1.164  0.6569  0.2000  0.1896
  168MOL0     O23054   5.234   7.885   1.041 -0.4216  0.7957 -0.7671
  168MOL0     C23055   5.375   7.862   1.016 -0.1058  0.6391 -0.6509
  168MOL0     C23056   5.435   7.753   1.101 -0.6598 -0.0465 -0.1257
  168MOL0     C23057   5.582   7.724   1.050 -0.0348 -0.3432 -0.7674
  168MOL0     C23058   5.683   7.842   1.040  0.3579 -0.7430  0.0568
  168MOL0     C23059   5.820   7.787   1.037  0.5271  0.2715  0.7738
  168MOL0     C23060   5.913   7.906   1.040  0.8569 -0.2650 -0.9980
  168MOL0     C23061   6.061   7.877   1.019  0.2567 -0.1846  0.0613
  168MOL0     C23062   6.106   7.782   1.129 -0.6775 -0.8728 -0.1839
  168MOL0     N23063   6.245   7.743   1.103 -0.4851  0.2788 -0.5938
  168MOL0     C23064   6.341   7.768   1.192 -0.4512  0.1158  0.1162
  168MOL0     C23065   6.464   7.748   1.131  0.1522 -0.6574 -0.1577
  168MOL0     C23066   6.602   7.789   1.174  0.6645  0.2628  0.2900
  168MOL0     C23067   6.685   7.874   1.079 -0.4790 -0.4666  0.1842
  168MOL0     C23068   6.771   7.791   0.976  0.3149  0.2094 -0.5014
  168MOL0     C23069   6.858   7.880   0.897  0.2073 -0.2710 -0.3072
  168MOL0     O23070   6.952   7.948   0.988 -0.2076 -0.1880  0.0162
  168MOL0     C23071   7.063   7.995   0.931 -0.4392  0.1095 -0.5521
  168MOL0     C23072   7.166   8.033   1.020 -1.0135  0.5832 -0.2056
  168MOL0     C23073   7.291   8.091   0.971 -0.0489  0.4011  0.2052
  168MOL0     C23074   7.387   8.128   1.088 -0.3050  0.7028 -0.7177
  168MOL0     C23075   7.308   8.132   0.836  0.4508 -0.6377  0.4978
  168MOL0     C23076   7.421   8.213   0.780  0.2200 -0.7140  0.2188
  168MOL0     O23077   7.442   8.205   0.643 -0.5386 -0.0389  0.2308
  168MOL0     C23078   7.534   8.291   0.587  0.1742 -0.2122 -0.3770
  168MOL0     C23079   7.655   8.230   0.549 -0.0731 -0.2302 -0.5181
  168MOL0     C23080   7.757   8.314   0.502 -0.2045  0.3488  0.0757
  168MOL0     C23081   7.741   8.452   0.483  0.4913 -0.2825  0.0201
  168MOL0     O23082   7.839   8.540   0.442  0.1440 -0.2414  0.4044
  168MOL0     C23083   7.946   8.557   0.535 -0.0067  0.0654 -0.6469
  168MOL0     C23084   8.083   8.506   0.485 -0.2232 -0.3742  0.3561
  168MOL0     C23085   8.135   8.589   0.365 -0.4910 -0.4709 -0.5698
  168MOL0     C23086   8.181   8.734   0.404  1.5775 -0.0188  0.3377
  168MOL0     C23087   8.264   8.819   0.308  0.0351 -0.2270 -0.7645
  168MOL0     C23088   8.185   8.904   0.208 -0.0606  0.7407  1.7145
  168MOL0     C23089   8.107   8.823   0.109  1.0246  0.1946  0.0455
  168MOL0     C23090   8.056   8.899  -0.009  0.1540  0.4326 -0.8450
  168MOL0    Cl23091   7.964   9.041   0.048  0.0731  0.2353 -0.5034
  168MOL0     C23092   7.614   8.510   0.513  0.9607 -0.3453 -0.0376
  168MOL0     C23093   7.512   8.433   0.574 -0.6169 -0.9752  0.1427
  168MOL0     O23094   7.484   8.278   0.857 -0.2254 -0.5984 -0.0961
  168MOL0     C23095   7.202   8.086   0.748 -0.3605  0.4074 -0.0388
  168MOL0     C23096   7.086   8.021   0.793  0.2823 -0.1448  0.0333
  168MOL0     N23097   6.428   7.697   1.002 -0.4060  0.5144 -0.6361
  168MOL0     N23098   6.300   7.690   0.994  0.4854 -0.0957 -0.7217
  168MOL0     C23099   5.258   8.053   1.212 -0.1240  0.1592  0.2878
  168MOL0     C23100   5.229   8.110   1.339 -0.4792 -0.4422  0.1089
  168MOL0     C23101   5.071   8.241   1.719 -0.5176 -0.5077  0.4802
  168MOL0     C23102   5.046   8.140   1.810  0.8585  0.6305 -0.1098
  168MOL0     C23103   5.026   8.167   1.946 -0.5113  0.0090 -1.2943
  168MOL0     C23104   5.065   8.292   1.994 -0.4424 -0.9747  0.6274
  168MOL0     O23105   5.064   8.327   2.131 -0.4534 -0.1175  0.0774
  168MOL0     C23106   5.180   8.291   2.208 -0.3919 -0.9248  0.1452
  168MOL0     C23107   5.310   8.353   2.150  0.8902 -0.0225 -0.0607
  168MOL0     C23108   5.433   8.346   2.242  0.2772  0.2536 -0.6558
  168MOL0     C23109   5.414   8.435   2.374 -0.7703  0.0157  0.6005
  168MOL0     C23110   5.537   8.461   2.437 -0.4150 -1.3089  0.3727
  168MOL0     C23111   5.643   8.513   2.483 -0.1319  0.6864 -1.1274
  168MOL0     C23112   5.099   8.401   1.906  1.3474  0.5770 -0.4109
  168MOL0     C23113   5.099   8.373   1.761 -0.2318 -0.4369  0.4243
  168MOL0     C23114   5.128   8.495   1.672 -0.2675 -0.3115  0.0463
  168MOL0     H23115   5.050   7.844   1.458 -0.9436 -1.7770 -0.9026
  168MOL0     H23116   5.097   7.760   1.219 -1.6629 -0.2694  2.1945
  168MOL0     H23117   5.433   7.954   1.011  2.6646 -0.9716 -0.2349
  168MOL0     H23118   5.377   7.823   0.914 -0.3661  0.5593 -0.6270
  168MOL0     H23119   5.451   7.794   1.201  1.3300  0.8764 -0.7724
  168MOL0     H23120   5.376   7.661   1.108 -0.4420 -0.0552  2.9308
  168MOL0     H23121   5.624   7.649   1.117 -1.0069  0.4364  0.7510
  168MOL0     H23122   5.586   7.670   0.955 -1.8228  0.1221 -1.1444
  168MOL0     H23123   5.674   7.907   0.952  1.3786 -0.3033  0.2561
  168MOL0     H23124   5.666   7.901   1.131 -0.6883 -1.1154  0.1070
  168MOL0     H23125   5.836   7.725   0.949 -0.0745 -0.0030  0.8537
  168MOL0     H23126   5.828   7.729   1.130 -3.3320  1.3243  1.9677
  168MOL0     H23127   5.876   7.972   0.961 -3.0574 -0.7504  0.2281
  168MOL0     H23128   5.919   7.966   1.132  1.6097 -0.9362 -0.5926
  168MOL0     H23129   6.108   7.972   1.045  0.8680 -0.8609  1.4935
  168MOL0     H23130   6.094   7.843   0.920  0.4316 -1.0374  0.4078
  168MOL0     H23131   6.112   7.843   1.220  2.0242  1.7537 -1.9312
  168MOL0     H23132   6.043   7.693   1.133 -1.6081 -0.4968 -3.6049
  168MOL0     H23133   6.345   7.818   1.289  0.4422 -1.9649  1.2077
  168MOL0     H23134   6.662   7.698   1.179  2.8272  1.4831 -1.6219
  168MOL0     H23135   6.599   7.830   1.275 -2.1965  0.1444  0.3369
  168MOL0     H23136   6.621   7.950   1.033 -1.1547 -0.0034  1.8266
  168MOL0     H23137   6.748   7.932   1.146 -0.3261 -0.6798  0.2239
  168MOL0     H23138   6.831   7.721   1.036 -2.6748 -0.6165  1.7699
  168MOL0     H23139   6.711   7.728   0.910 -1.6333 -1.4629  2.6218
  168MOL0     H23140   6.913   7.819   0.825  1.0181  0.7551 -0.5737
  168MOL0     H23141   6.802   7.958   0.844  0.5130  0.9994  1.1445
  168MOL0     H23142   7.153   8.019   1.126 -1.5857  0.2567 -0.3150
  168MOL0     H23143   7.390   8.235   1.106  0.6203  0.3303  1.6345
  168MOL0     H23144   7.484   8.088   1.057 -1.3407 -1.9786 -0.7695
  168MOL0     H23145   7.355   8.087   1.184 -0.5983  1.9924 -0.2500
  168MOL0     H23146   7.670   8.124   0.531  2.7030 -0.0157  0.0984
  168MOL0     H23147   7.848   8.265   0.471  0.4097 -0.0645  2.3501
  168MOL0     H23148   7.954   8.662   0.565  0.3464  0.4104 -1.8914
  168MOL0     H23149   7.918   8.493   0.619 -1.1539  2.4105  0.8454
  168MOL0     H23150   8.145   8.511   0.575 -0.4119  0.0127  0.4683
  168MOL0     H23151   8.058   8.406   0.449 -0.7023  0.1045 -0.6861
  168MOL0     H23152   8.053   8.614   0.297 -3.7085  1.7587  3.6444
  168MOL0     H23153   8.222   8.535   0.327  0.1264 -0.0495  0.2093
  168MOL0     H23154   8.241   8.715   0.494  2.6552  4.3121  0.7434
  168MOL0     H23155   8.095   8.794   0.434  1.7321  0.4548 -0.1678
  168MOL0     H23156   8.334   8.887   0.357 -0.8016  1.1411 -1.4126
  168MOL0     H23157   8.329   8.752   0.250 -1.1691 -0.4529 -1.8952
  168MOL0     H23158   8.258   8.959   0.148  0.3032 -1.9074 -0.3971
  168MOL0     H23159   8.113   8.967   0.262  0.3351  1.7781  1.0521
  168MOL0     H23160   8.020   8.797   0.170 -0.5796  1.7571 -1.4565
  168MOL0     H23161   8.154   8.734   0.066 -1.4473 -0.1644 -2.1482
  168MOL0     H23162   7.992   8.831  -0.065 -1.4417  1.5569 -0.4396
  168MOL0     H23163   8.143   8.927  -0.070  2.3224  0.7740  2.1356
  168MOL0     H23164   7.599   8.616   0.492  0.3352 -0.4490 -0.1454
  168MOL0     H23165   7.412   8.471   0.589 -0.4492  1.0121 -2.9419
  168MOL0     H23166   7.204   8.116   0.643  2.2341  0.7932  0.0420
  168MOL0     H23167   7.003   8.007   0.724  0.3653  3.2234 -0.9363
  168MOL0     H23168   5.318   8.115   1.146 -2.5375 -1.5434 -3.9171
  168MOL0     H23169   5.275   8.203   1.371 -0.0483  0.0094 -1.7224
  168MOL0     H23170   5.026   8.044   1.762  0.4935  0.1029  1.0500
  168MOL0     H23171   5.003   8.083   2.011  1.9484 -1.0335 -1.6295
  168MOL0     H23172   5.167   8.320   2.313  2.0077  1.4120 -0.0921
  168MOL0     H23173   5.187   8.182   2.211 -0.2041 -0.8958  1.1480
  168MOL0     H23174   5.285   8.457   2.126  2.2754  1.1508  3.0818
  168MOL0     H23175   5.343   8.304   2.058  0.8610 -0.7618  0.3206
  168MOL0     H23176   5.465   8.245   2.267  0.6159  0.1163 -1.6176
  168MOL0     H23177   5.521   8.385   2.190  0.0643  0.0392 -1.1744
  168MOL0     H23178   5.337   8.393   2.439  0.0749  0.6469  2.0341
  168MOL0     H23179   5.376   8.532   2.340  1.8702  0.9198 -0.0087
  168MOL0     H23180   5.737   8.538   2.526  0.8780 -1.6851 -1.7744
  168MOL0     H23181   5.103   8.504   1.942  2.7234 -0.2193  1.9133
  168MOL0     H23182   5.163   8.586   1.721  1.0739 -0.6101 -0.3152
  168MOL0     H23183   5.209   8.465   1.604  0.4070  0.5608  0.4482
  168MOL0     H23184   5.034   8.524   1.625 -0.8450  0.7197  1.7400
  169MOL0     O23185   1.475   8.450  11.110  0.3380  0.2795 -0.8610
  169MOL0     C23186   1.404   8.548  11.121  0.1667  0.2128  0.2385
  169MOL0     O23187   1.452   8.679  11.139  0.2321  0.3254  0.5729
  169MOL0     C23188   1.580   8.690  11.157 -1.3013 -0.0153 -0.3235
  169MOL0     C23189   1.630   8.672  11.291 -0.3737  0.4575  0.2395
  169MOL0     C23190   1.762   8.663  11.320 -0.8541  0.7335  0.3876
  169MOL0     C23191   1.861   8.655  11.218  1.1124 -0.1684  0.9667
  169MOL0     O23192   1.996   8.641  11.249  0.4053 -0.1571  0.1874
  169MOL0     C23193   2.032   8.578  11.379 -0.3671 -0.6688  0.1913
  169MOL0     C23194   2.165   8.503  11.371 -0.5517 -0.5179  0.2273
  169MOL0     C23195   2.223   8.491  11.229 -0.0759 -0.2598  0.5810
  169MOL0     C23196   2.292   8.620  11.174  0.3477  0.3189 -0.1283
  169MOL0     C23197   2.443   8.600  11.177  0.1909 -0.0369 -0.5664
  169MOL0     C23198   2.506   8.701  11.078 -0.2677 -0.3190  0.6069
  169MOL0     C23199   2.653   8.663  11.045  0.5060  0.6699 -0.1599
  169MOL0     C23200   2.724   8.780  10.997  0.3839 -0.1263  0.3048
  169MOL0     N23201   2.819   8.737  10.887 -0.2583 -0.6296  0.0336
  169MOL0     C23202   2.819   8.783  10.756  0.1922 -0.8842  0.2422
  169MOL0     C23203   2.930   8.733  10.700 -0.0722  0.5021 -0.4613
  169MOL0     C23204   2.985   8.766  10.562  0.2096  0.3844 -0.2458
  169MOL0     C23205   3.120   8.835  10.572 -0.4567 -0.7708 -0.3727
  169MOL0     C23206   3.189   8.829  10.442  0.2463 -0.7886  0.2872
  169MOL0     C23207   3.313   8.915  10.450  0.1100  0.4445  0.7256
  169MOL0     O23208   3.396   8.885  10.334 -0.4348 -0.2683  0.0223
  169MOL0     C23209   3.530   8.916  10.345 -0.7597  0.2423  0.3525
  169MOL0     C23210   3.622   8.811  10.343  0.0193 -0.8067 -0.6881
  169MOL0     C23211   3.765   8.836  10.356  0.1157 -0.1547 -0.1320
  169MOL0     C23212   3.858   8.719  10.315 -0.1432  0.5204  0.0400
  169MOL0     C23213   3.813   8.969  10.377  0.0542 -0.8183  0.4249
  169MOL0     C23214   3.962   9.001  10.398  0.3453 -0.4298 -0.9246
  169MOL0     O23215   3.986   9.137  10.371 -0.3213  0.7338  0.0104
  169MOL0     C23216   4.110   9.191  10.402 -0.2097  0.8654 -0.5794
  169MOL0     C23217   4.234   9.136  10.361 -0.6785  0.6233 -0.8558
  169MOL0     C23218   4.350   9.203  10.396  0.0609 -0.0624 -0.1921
  169MOL0     C23219   4.349   9.315  10.485 -0.6077  0.2944  0.0798
  169MOL0     O23220   4.457   9.382  10.526  0.0792 -0.7815 -0.5160
  169MOL0     C23221   4.585   9.352  10.478 -1.1658 -0.0482  0.0800
  169MOL0     C23222   4.684   9.458  10.526 -0.1830  1.2786 -0.1613
  169MOL0     C23223   4.675   9.592  10.458  0.5687 -0.5359  0.6898
  169MOL0     C23224   4.785   9.678  10.513 -0.3102  0.3098  0.2335
  169MOL0     C23225   4.761   9.828  10.484  1.4843 -0.3515 -0.3198
  169MOL0     C23226   4.841   9.924  10.562 -0.1893 -0.6845 -0.0864
  169MOL0     C23227   4.820  10.068  10.507 -0.5632 -0.0881 -0.0661
  169MOL0     C23228   4.910  10.170  10.573 -0.4316 -0.7359  1.0604
  169MOL0    Cl23229   4.900  10.322  10.483 -0.2419 -0.3945  0.1458
  169MOL0     C23230   4.231   9.357  10.540  1.1842 -0.6851 -0.3063
  169MOL0     C23231   4.109   9.292  10.500 -0.5598 -0.5250 -0.0281
  169MOL0     O23232   4.031   8.936  10.470 -0.0784  0.0585  0.0148
  169MOL0     C23233   3.717   9.072  10.370  0.3761 -0.4746  0.1082
  169MOL0     C23234   3.578   9.048  10.362 -0.5160  1.3367  0.0380
  169MOL0     N23235   2.988   8.643  10.793 -0.4778 -0.1707  0.4456
  169MOL0     N23236   2.915   8.639  10.902  0.2852  0.1810  0.5437
  169MOL0     C23237   1.817   8.668  11.086  0.3552 -0.2544  0.7733
  169MOL0     C23238   1.680   8.698  11.061 -0.1521 -0.2773 -0.1970
  169MOL0     C23239   1.258   8.528  11.097  1.0644  0.4212 -0.5156
  169MOL0     C23240   1.167   8.636  11.134  0.8181  0.1719  0.7957
  169MOL0     C23241   1.030   8.625  11.143 -0.5165  0.2091  0.3940
  169MOL0     C23242   0.964   8.495  11.128 -0.4769  0.4437  0.2856
  169MOL0     O23243   0.834   8.486  11.139 -0.0470  0.5453  0.0471
  169MOL0     C23244   0.765   8.367  11.100  0.3531 -0.4954  0.9705
  169MOL0     C23245   0.625   8.404  11.058  0.6912 -0.1636 -0.5283
  169MOL0     C23246   0.532   8.286  11.083 -0.5080  0.0037  0.6565
  169MOL0     C23247   0.389   8.339  11.096  1.1167 -0.3825 -1.0463
  169MOL0     C23248   0.297   8.226  11.083 -0.6420 -0.0914 -0.9210
  169MOL0     C23249   0.223   8.128  11.107  0.1734  0.3824  0.0516
  169MOL0     C23250   1.055   8.391  11.102 -0.0634 -0.3788  0.2782
  169MOL0     C23251   1.197   8.403  11.082 -0.0900  1.0912 -0.7509
  169MOL0     C23252   1.271   8.271  11.043 -1.0816  0.8823 -0.1220
  169MOL0     H23253   1.567   8.663  11.379 -0.7456  1.8852  0.1452
  169MOL0     H23254   1.794   8.645  11.422  0.0436 -2.6192 -0.3689
  169MOL0     H23255   1.950   8.515  11.416 -2.4942  2.0788  0.5058
  169MOL0     H23256   2.055   8.655  11.453  1.2813  2.2871 -3.0917
  169MOL0     H23257   2.240   8.557  11.430 -2.1001 -0.4533  2.2158
  169MOL0     H23258   2.144   8.404  11.413 -2.0058 -1.6498 -2.8704
  169MOL0     H23259   2.297   8.410  11.232 -0.5179 -0.6822  0.1388
  169MOL0     H23260   2.136   8.471  11.167  0.5107  1.9877 -1.1164
  169MOL0     H23261   2.262   8.633  11.070 -0.5093  1.7757  0.2663
  169MOL0     H23262   2.256   8.709  11.227 -0.4628 -0.4041  0.5710
  169MOL0     H23263   2.470   8.501  11.139 -1.6760 -0.3621 -1.1448
  169MOL0     H23264   2.468   8.624  11.280 -2.9445  1.8635 -0.1029
  169MOL0     H23265   2.461   8.700  10.978  0.7275  0.5575  0.1320
  169MOL0     H23266   2.500   8.798  11.128  1.2348 -0.0623  0.3384
  169MOL0     H23267   2.667   8.575  10.982 -0.0270  0.3236  0.1914
  169MOL0     H23268   2.706   8.633  11.136 -0.2165 -2.1879 -0.5722
  169MOL0     H23269   2.662   8.865  10.967 -1.8208 -1.3329  1.2240
  169MOL0     H23270   2.768   8.810  11.093 -2.9945 -1.8598  2.6140
  169MOL0     H23271   2.737   8.846  10.723 -0.7671 -2.1158  0.1909
  169MOL0     H23272   2.914   8.831  10.510 -0.5866 -0.1493  0.1584
  169MOL0     H23273   3.003   8.668  10.517  2.9415 -0.3390  2.0772
  169MOL0     H23274   3.102   8.936  10.608  1.7547  0.1137 -1.5301
  169MOL0     H23275   3.178   8.777  10.645 -1.4336 -5.1510 -2.6930
  169MOL0     H23276   3.220   8.725  10.426  2.8896 -0.7144  3.7851
  169MOL0     H23277   3.117   8.868  10.369  0.9675 -0.9116 -0.5101
  169MOL0     H23278   3.283   9.020  10.453 -2.3886 -0.1733  0.1533
  169MOL0     H23279   3.360   8.886  10.544  0.0181 -7.2115 -0.9463
  169MOL0     H23280   3.588   8.711  10.319  2.5610 -1.6071 -1.1918
  169MOL0     H23281   3.964   8.742  10.330  0.5336 -0.3685 -2.6763
  169MOL0     H23282   3.840   8.709  10.207 -0.3706  2.5184 -0.1355
  169MOL0     H23283   3.854   8.622  10.366  1.7272  0.5198  0.2554
  169MOL0     H23284   4.238   9.055  10.288  2.3764  0.5156 -0.6987
  169MOL0     H23285   4.438   9.177  10.337  0.4850 -1.0862  0.8714
  169MOL0     H23286   4.613   9.250  10.504  2.1385  1.2864  2.3282
  169MOL0     H23287   4.610   9.344  10.372  2.4189  0.3766  0.7716
  169MOL0     H23288   4.654   9.461  10.631  3.5554  2.1640  1.0461
  169MOL0     H23289   4.788   9.424  10.526 -0.1155  1.0315  3.9571
  169MOL0     H23290   4.576   9.638  10.455  1.8454  2.4225 -1.2420
  169MOL0     H23291   4.699   9.589  10.351  0.2389 -2.2370  0.6288
  169MOL0     H23292   4.879   9.661  10.458 -0.3919  1.9625 -0.4911
  169MOL0     H23293   4.797   9.661  10.620  2.6955 -1.3563 -0.2615
  169MOL0     H23294   4.786   9.849  10.380  2.4248  2.5488  0.3961
  169MOL0     H23295   4.656   9.855  10.498  1.5750 -0.8656  1.6354
  169MOL0     H23296   4.945   9.892  10.555  0.1367  0.1954  0.4882
  169MOL0     H23297   4.812   9.914  10.667 -1.7303  0.0175 -0.4105
  169MOL0     H23298   4.716  10.100  10.512 -0.9621 -1.3260 -0.1115
  169MOL0     H23299   4.849  10.054  10.402 -4.4875 -0.1480 -1.3064
  169MOL0     H23300   5.017  10.144  10.576  0.1762  1.5431  2.8973
  169MOL0     H23301   4.889  10.182  10.680 -0.5653  0.7103  0.8978
  169MOL0     H23302   4.232   9.449  10.598  0.6255  0.0973 -1.4955
  169MOL0     H23303   4.018   9.327  10.547 -0.7580  0.6409 -1.2259
  169MOL0     H23304   3.745   9.176  10.375  0.4412 -0.5275  1.2212
  169MOL0     H23305   3.518   9.137  10.374  0.3966  1.8618  0.8769
  169MOL0     H23306   1.884   8.637  11.006  0.9158 -0.1675  1.2035
  169MOL0     H23307   1.634   8.695  10.963 -3.1335 -0.4213  1.0828
  169MOL0     H23308   1.190   8.740  11.155 -2.2562  0.7632  1.8107
  169MOL0     H23309   0.959   8.701  11.175 -0.9026  1.3572 -2.8422
  169MOL0     H23310   0.818   8.304  11.028  1.4998 -1.4764  2.5854
  169MOL0     H23311   0.765   8.304  11.189  4.1866 -0.3824  1.1978
  169MOL0     H23312   0.615   8.448  10.958 -0.0101  1.9463  0.4078
  169MOL0     H23313   0.582   8.474  11.130 -3.9871  0.0671 -3.1937
  169MOL0     H23314   0.535   8.221  10.994 -0.9619  0.5500  0.2303
  169MOL0     H23315   0.560   8.219  11.164 -0.3831 -2.4504 -1.2742
  169MOL0     H23316   0.354   8.413  11.023 -1.4860  0.3901  0.8446
  169MOL0     H23317   0.373   8.388  11.192 -1.7547 -2.5112 -0.3052
  169MOL0     H23318   0.170   8.037  11.124 -1.3931  1.5157  1.4303
  169MOL0     H23319   1.013   8.291  11.093  0.2781 -0.4212 -0.9314
  169MOL0     H23320   1.212   8.180  11.058  0.1176  0.3135  1.3607
  169MOL0     H23321   1.317   8.276  10.944  2.7078  0.7881  1.4459
  169MOL0     H23322   1.347   8.240  11.115  0.6815 -2.5782 -3.1437
  170MOL0     O23323   1.408   0.311   3.309 -0.1894 -0.2518  0.0376
  170MOL0     C23324   1.309   0.317   3.375  0.3424 -0.2386 -0.4192
  170MOL0     O23325   1.294   0.392   3.486  0.4547 -0.6623  0.4462
  170MOL0     C23326   1.401   0.431   3.557 -0.0166 -0.3885 -0.1566
  170MOL0     C23327   1.484   0.523   3.505 -0.9287 -1.7663 -0.3355
  170MOL0     C23328   1.602   0.564   3.568 -0.6840 -0.6705 -0.2355
  170MOL0     C23329   1.619   0.525   3.702 -0.9830  0.7173 -0.5303
  170MOL0     O23330   1.720   0.584   3.770  0.0669 -0.2638 -0.0328
  170MOL0     C23331   1.668   0.650   3.885 -0.2128  0.0737 -0.6642
  170MOL0     C23332   1.732   0.589   4.018  0.5162  0.3588 -0.2198
  170MOL0     C23333   1.772   0.686   4.131  0.2967 -0.1717 -0.0262
  170MOL0     C23334   1.867   0.626   4.228 -1.3282  0.1636 -0.2162
  170MOL0     C23335   1.964   0.728   4.299  0.3279  0.3009 -0.2772
  170MOL0     C23336   2.065   0.641   4.379 -0.6899 -1.3550  0.2271
  170MOL0     C23337   2.165   0.733   4.457 -0.5607  0.7017  0.4730
  170MOL0     C23338   2.113   0.789   4.589  0.2138 -0.0901 -0.3467
  170MOL0     N23339   2.213   0.846   4.671  0.1884 -0.1121 -0.0098
  170MOL0     C23340   2.284   0.963   4.635 -0.3246  0.1716 -0.2306
  170MOL0     C23341   2.351   0.998   4.750 -0.4647 -0.2219  0.1773
  170MOL0     C23342   2.450   1.113   4.752  0.1375  0.9151 -0.7282
  170MOL0     C23343   2.577   1.080   4.829 -0.1594  1.0549 -0.2517
  170MOL0     C23344   2.685   1.167   4.758  0.3500 -0.1118 -0.2177
  170MOL0     C23345   2.830   1.124   4.797  1.0334 -0.3030 -0.3728
  170MOL0     O23346   2.844   0.978   4.806  0.2406 -0.7479 -0.0246
  170MOL0     C23347   2.948   0.921   4.869 -1.1742 -1.3028 -0.0629
  170MOL0     C23348   3.061   0.997   4.911 -0.3338 -0.5362 -1.2148
  170MOL0     C23349   3.177   0.938   4.972 -0.2117 -0.0848 -0.4295
  170MOL0     C23350   3.299   1.021   4.993 -0.2934 -0.2438 -0.4723
  170MOL0     C23351   3.173   0.800   4.998  1.1469  0.6579  0.0983
  170MOL0     C23352   3.280   0.723   5.069 -1.2376 -0.5054  0.3477
  170MOL0     O23353   3.281   0.585   5.065 -0.2011  0.1439 -0.5156
  170MOL0     C23354   3.369   0.519   5.154  1.3163 -0.1153 -0.0008
  170MOL0     C23355   3.350   0.534   5.288 -0.5031  0.7956 -0.4233
  170MOL0     C23356   3.444   0.478   5.377  1.0884  1.0430 -0.7829
  170MOL0     C23357   3.544   0.393   5.329 -0.1714 -0.9522 -0.0759
  170MOL0     O23358   3.643   0.333   5.416  0.1944  0.9780 -0.8587
  170MOL0     C23359   3.685   0.412   5.532 -0.3511  0.4862 -0.4085
  170MOL0     C23360   3.810   0.355   5.595  0.2164  0.6943  0.4965
  170MOL0     C23361   3.848   0.438   5.712 -0.9833  0.5342 -1.2425
  170MOL0     C23362   3.947   0.382   5.820 -0.9077 -0.7606 -0.6191
  170MOL0     C23363   3.874   0.333   5.944 -0.1988 -0.2917 -0.0132
  170MOL0     C23364   3.845   0.176   5.941 -0.0649 -0.4736 -0.0235
  170MOL0     C23365   3.733   0.143   6.047  0.2812  0.4370 -0.0921
  170MOL0     C23366   3.694  -0.006   6.046 -1.0444  0.6033 -0.7425
  170MOL0    Cl23367   3.835  -0.104   6.080 -0.1545 -0.2361  0.1648
  170MOL0     C23368   3.556   0.380   5.192  0.2287 -0.9783  0.2331
  170MOL0     C23369   3.464   0.435   5.102  0.1964  0.6635  0.1736
  170MOL0     O23370   3.354   0.791   5.145 -0.2649  0.1483 -0.3944
  170MOL0     C23371   3.056   0.726   4.964 -0.4825 -0.2487  0.3054
  170MOL0     C23372   2.946   0.781   4.891 -0.5087 -0.2558  0.9753
  170MOL0     N23373   2.315   0.909   4.850  0.4769 -0.5613  0.4938
  170MOL0     N23374   2.231   0.832   4.805  0.7266  0.1344 -0.2382
  170MOL0     C23375   1.539   0.435   3.758  0.4775  0.0301  0.0123
  170MOL0     C23376   1.432   0.387   3.685 -0.6719  0.1674  0.2175
  170MOL0     C23377   1.197   0.252   3.322  0.4828  1.3780 -0.3641
  170MOL0     C23378   1.072   0.306   3.367 -0.6282 -0.7175  0.1542
  170MOL0     C23379   0.959   0.234   3.330  0.6440 -0.4200 -0.2601
  170MOL0     C23380   0.959   0.119   3.253 -0.1943  0.5159 -0.5037
  170MOL0     O23381   0.832   0.058   3.233 -1.1602 -0.1792  0.3156
  170MOL0     C23382   0.816  -0.056   3.150  0.7540  0.3327  0.7593
  170MOL0     C23383   0.675  -0.068   3.099 -0.1394  0.0944  0.1378
  170MOL0     C23384   0.562  -0.067   3.199  0.2899 -0.4714 -0.3784
  170MOL0     C23385   0.425  -0.104   3.141  0.5793 -0.2722 -0.9695
  170MOL0     C23386   0.331  -0.091   3.246  0.6535  0.2535  0.8038
  170MOL0     C23387   0.244  -0.055   3.323 -0.0354 -0.5230 -0.1951
  170MOL0     C23388   1.080   0.055   3.227  0.1640 -0.9544  0.2839
  170MOL0     C23389   1.197   0.125   3.251 -0.3591 -0.2177  0.6344
  170MOL0     C23390   1.330   0.058   3.207  0.4669 -0.2343  0.3802
  170MOL0     H23391   1.458   0.573   3.412 -2.0742 -1.6020  0.0553
  170MOL0     H23392   1.676   0.632   3.528  0.9081 -2.1664  0.0298
  170MOL0     H23393   1.559   0.654   3.896 -0.2261  2.0053 -1.0113
  170MOL0     H23394   1.697   0.756   3.886 -1.8831  0.5643  0.0239
  170MOL0     H23395   1.653   0.526   4.059  0.5725  0.4309 -0.0010
  170MOL0     H23396   1.812   0.524   3.982 -1.0129 -0.4244 -2.4105
  170MOL0     H23397   1.804   0.773   4.074 -2.1160  1.3166  0.7302
  170MOL0     H23398   1.691   0.729   4.190  2.3246 -0.0751  2.8955
  170MOL0     H23399   1.821   0.567   4.307 -1.0236 -3.6839 -2.6268
  170MOL0     H23400   1.930   0.548   4.182 -2.4328 -2.1417  1.9204
  170MOL0     H23401   1.913   0.804   4.360  0.4379 -1.8334  2.6505
  170MOL0     H23402   2.022   0.787   4.227  0.6631  1.8996  1.2229
  170MOL0     H23403   2.009   0.567   4.437 -1.2786 -0.6067  0.6288
  170MOL0     H23404   2.118   0.584   4.302  1.4512  0.8502 -0.0586
  170MOL0     H23405   2.217   0.798   4.386  0.8910  0.2571  1.0958
  170MOL0     H23406   2.245   0.661   4.479  0.2453  1.2676 -0.5002
  170MOL0     H23407   2.027   0.856   4.585  1.1010  1.2050  1.3106
  170MOL0     H23408   2.075   0.707   4.652  1.2184 -1.3638 -1.3290
  170MOL0     H23409   2.284   1.007   4.536 -0.8073  0.6710 -0.0140
  170MOL0     H23410   2.408   1.204   4.797 -0.0211 -0.5318  2.3460
  170MOL0     H23411   2.478   1.143   4.651 -0.4118 -1.7740 -1.7751
  170MOL0     H23412   2.587   1.099   4.936  1.6652  3.2833 -0.7324
  170MOL0     H23413   2.589   0.973   4.813 -0.4272  1.0843 -0.6607
  170MOL0     H23414   2.671   1.152   4.650 -3.3800  0.4326  0.0882
  170MOL0     H23415   2.659   1.271   4.779  0.9211 -0.7770  4.9357
  170MOL0     H23416   2.900   1.162   4.722 -1.2242  1.0154 -1.9369
  170MOL0     H23417   2.853   1.172   4.892 -3.6663  2.1900 -0.1948
  170MOL0     H23418   3.065   1.103   4.887  0.0666 -0.2546 -0.0172
  170MOL0     H23419   3.270   1.120   4.957 -0.0106  0.0971  0.2239
  170MOL0     H23420   3.376   0.988   4.923 -0.8060 -1.0629 -0.6606
  170MOL0     H23421   3.336   1.023   5.096  0.0006  2.4398 -0.5518
  170MOL0     H23422   3.271   0.600   5.321 -0.3034  0.6933  0.2740
  170MOL0     H23423   3.416   0.504   5.479  0.1770 -0.5189 -0.5981
  170MOL0     H23424   3.704   0.512   5.491 -1.0505  1.1599  0.8702
  170MOL0     H23425   3.597   0.412   5.597 -1.8384 -0.7453 -2.2977
  170MOL0     H23426   3.787   0.252   5.624  1.7935  0.3938  0.7772
  170MOL0     H23427   3.887   0.351   5.517 -2.1051 -0.4033 -1.8653
  170MOL0     H23428   3.763   0.483   5.765 -0.8685 -0.0195 -0.5782
  170MOL0     H23429   3.902   0.522   5.667 -0.2892 -0.1301 -1.6816
  170MOL0     H23430   4.006   0.469   5.850  0.9675 -1.3458 -2.3051
  170MOL0     H23431   4.017   0.304   5.785 -1.5116 -0.2579 -3.1549
  170MOL0     H23432   3.938   0.355   6.030 -1.6990  2.0039  0.5912
  170MOL0     H23433   3.778   0.384   5.956  0.0432 -0.0246  0.9165
  170MOL0     H23434   3.935   0.116   5.957  1.0379  0.9967 -0.4149
  170MOL0     H23435   3.794   0.152   5.847 -1.9212 -1.1013  1.0932
  170MOL0     H23436   3.646   0.207   6.031  2.6509  3.8066 -0.3092
  170MOL0     H23437   3.768   0.174   6.146  1.1401 -0.1554 -0.2001
  170MOL0     H23438   3.662  -0.031   5.944  0.1694  1.1700 -1.2817
  170MOL0     H23439   3.623  -0.030   6.125 -0.9709  1.2263 -0.4884
  170MOL0     H23440   3.634   0.315   5.153  0.2058  0.2249 -1.9657
  170MOL0     H23441   3.489   0.427   4.997  1.2381  1.3977  0.3513
  170MOL0     H23442   3.064   0.620   4.988 -0.4982  0.1817  2.4422
  170MOL0     H23443   2.867   0.718   4.851  0.6633 -0.2447 -1.5440
  170MOL0     H23444   1.550   0.397   3.859  0.4752 -1.8456 -0.6518
  170MOL0     H23445   1.388   0.296   3.723 -0.5526 -0.0702 -0.2031
  170MOL0     H23446   1.056   0.400   3.418 -1.7308  1.5204 -3.8982
  170MOL0     H23447   0.860   0.273   3.353  0.3316 -2.2052  1.7737
  170MOL0     H23448   0.885  -0.055   3.066 -0.4350  1.3490 -0.2410
  170MOL0     H23449   0.836  -0.142   3.216  0.8186  2.6460  4.0002
  170MOL0     H23450   0.661  -0.151   3.029  2.9040  0.7915 -1.4676
  170MOL0     H23451   0.663   0.025   3.042  1.3286  0.0173 -0.3388
  170MOL0     H23452   0.588  -0.125   3.287 -2.3618 -2.8072 -0.9968
  170MOL0     H23453   0.543   0.034   3.238 -1.5017  0.6160 -3.6322
  170MOL0     H23454   0.430  -0.209   3.112  1.2912 -1.2221  2.2105
  170MOL0     H23455   0.385  -0.042   3.060  0.3319  0.6811 -0.1406
  170MOL0     H23456   0.159  -0.031   3.383 -1.0503 -1.5817 -1.1402
  170MOL0     H23457   1.074  -0.037   3.170 -2.3227  0.1185 -1.3906
  170MOL0     H23458   1.378   0.123   3.133 -0.2481  1.1601  1.0984
  170MOL0     H23459   1.398   0.033   3.289  2.1335  0.8251 -0.6082
  170MOL0     H23460   1.295  -0.034   3.158  1.5440  0.1562 -1.2199
  171MOL0     O23461   1.490   2.409   4.241  0.1879  0.1311 -0.6679
  171MOL0     C23462   1.417   2.415   4.338  0.2080 -0.1306  0.9582
  171MOL0     O23463   1.450   2.472   4.463 -0.4224 -0.2832  0.5769
  171MOL0     C23464   1.582   2.509   4.474 -0.2305  0.0181 -1.1086
  171MOL0     C23465   1.625   2.639   4.431  0.7429  0.4144  0.3209
  171MOL0     C23466   1.765   2.673   4.430 -0.1025  0.5236  0.1357
  171MOL0     C23467   1.859   2.580   4.484  0.7938  0.1555  0.0213
  171MOL0     O23468   1.997   2.616   4.480 -1.1987  0.4952 -0.6888
  171MOL0     C23469   2.087   2.501   4.500 -0.0312  0.4100 -0.1195
  171MOL0     C23470   2.228   2.549   4.480  0.0830  0.3973 -0.0609
  171MOL0     C23471   2.250   2.638   4.354  0.7281 -0.1268  0.1474
  171MOL0     C23472   2.379   2.598   4.288  1.1604  0.1387 -0.4603
  171MOL0     C23473   2.512   2.654   4.353 -0.2714  0.6586 -0.8205
  171MOL0     C23474   2.522   2.809   4.335 -0.8475  0.0417  0.1338
  171MOL0     C23475   2.658   2.871   4.366 -0.0024 -0.1799  0.3123
  171MOL0     C23476   2.785   2.793   4.312  0.0528  0.3048  0.7393
  171MOL0     N23477   2.777   2.783   4.166  0.6690  0.8752 -0.6930
  171MOL0     C23478   2.717   2.864   4.067  0.1943  1.2949 -1.5709
  171MOL0     C23479   2.745   2.803   3.946  0.8608  0.2759 -0.4932
  171MOL0     C23480   2.719   2.861   3.812 -0.6357 -0.0991  0.3694
  171MOL0     C23481   2.577   2.928   3.803 -0.1140 -0.0486  0.0960
  171MOL0     C23482   2.582   3.026   3.679  0.5421  0.8739 -0.2635
  171MOL0     C23483   2.578   2.940   3.559  0.5382 -0.6136 -0.2846
  171MOL0     O23484   2.594   3.028   3.446 -0.6323  0.6014  0.7928
  171MOL0     C23485   2.712   3.065   3.390 -0.8032 -0.8491 -0.0286
  171MOL0     C23486   2.712   3.193   3.325 -0.3990  0.0528 -0.8049
  171MOL0     C23487   2.815   3.239   3.251  0.6050  0.1050  0.1967
  171MOL0     C23488   2.786   3.368   3.171  0.6691 -0.0169  0.2103
  171MOL0     C23489   2.940   3.172   3.253  0.4294  0.0053  0.2750
  171MOL0     C23490   3.048   3.194   3.161 -0.2666 -1.1844 -1.2230
  171MOL0     O23491   3.163   3.218   3.221 -0.8772 -0.2969 -0.2586
  171MOL0     C23492   3.260   3.266   3.136 -0.8713  0.0151 -0.1589
  171MOL0     C23493   3.316   3.179   3.043 -0.2851  0.0970  0.4887
  171MOL0     C23494   3.423   3.225   2.971  0.2905 -0.5168 -0.1232
  171MOL0     C23495   3.476   3.355   2.980  0.0409  0.1981  0.2990
  171MOL0     O23496   3.570   3.409   2.891 -0.6984  0.6219 -0.4935
  171MOL0     C23497   3.648   3.310   2.820 -0.7813 -0.1913  0.5382
  171MOL0     C23498   3.757   3.407   2.754  0.5720  0.3407 -0.0775
  171MOL0     C23499   3.715   3.454   2.616 -0.1542 -0.3181 -0.0057
  171MOL0     C23500   3.784   3.581   2.579 -0.9096 -0.1382  0.4033
  171MOL0     C23501   3.734   3.639   2.444  0.0524 -0.0109  0.4172
  171MOL0     C23502   3.795   3.781   2.413  0.0183 -0.0430  0.3119
  171MOL0     C23503   3.760   3.896   2.505  0.7426  0.5773  0.3622
  171MOL0     C23504   3.768   4.035   2.440 -0.4048  0.4259 -0.2351
  171MOL0    Cl23505   3.930   4.059   2.369 -0.4261 -0.8972  0.4370
  171MOL0     C23506   3.407   3.448   3.073 -0.4958  0.2178 -0.4071
  171MOL0     C23507   3.299   3.405   3.151  0.1830  0.1949 -0.3292
  171MOL0     O23508   3.036   3.188   3.036  0.7133 -0.4311 -0.2605
  171MOL0     C23509   2.946   3.050   3.317  0.1367 -0.3939  0.7923
  171MOL0     C23510   2.828   2.987   3.376  0.2775 -0.6456 -0.4009
  171MOL0     N23511   2.818   2.687   3.966  1.0484  0.4959 -0.3291
  171MOL0     N23512   2.838   2.683   4.097  0.0497  0.0482 -0.4271
  171MOL0     C23513   1.808   2.457   4.540 -0.0683  0.6690  0.6513
  171MOL0     C23514   1.677   2.420   4.529 -0.4492  0.2910 -0.3784
  171MOL0     C23515   1.276   2.370   4.307  0.0832  0.2849 -0.4052
  171MOL0     C23516   1.176   2.410   4.401  0.0676 -0.5027 -0.2651
  171MOL0     C23517   1.046   2.364   4.390 -0.0227 -0.5579 -0.3786
  171MOL0     C23518   1.009   2.274   4.297  0.3854 -0.6555 -0.9950
  171MOL0     O23519   0.873   2.239   4.299 -0.0983 -0.4796 -0.2000
  171MOL0     C23520   0.809   2.155   4.204 -0.2675  0.4106  0.5811
  171MOL0     C23521   0.789   2.234   4.076  0.8164 -0.6246  0.8483
  171MOL0     C23522   0.668   2.175   3.993 -0.0448 -0.3762  0.0313
  171MOL0     C23523   0.673   2.235   3.846 -0.1086  0.1326 -0.2448
  171MOL0     C23524   0.654   2.382   3.838 -1.2218 -0.6688 -0.6143
  171MOL0     C23525   0.621   2.500   3.824  0.4137 -0.7544  0.1069
  171MOL0     C23526   1.101   2.240   4.201  0.7814  0.3690  0.0395
  171MOL0     C23527   1.229   2.291   4.196 -0.8001  0.0494  0.2724
  171MOL0     C23528   1.328   2.231   4.090 -0.4110 -0.3110  0.3469
  171MOL0     H23529   1.551   2.698   4.378  0.8199  0.4955  0.3031
  171MOL0     H23530   1.805   2.757   4.374  0.7860  0.2527  0.3550
  171MOL0     H23531   2.058   2.426   4.426  0.9752 -0.3138  0.1975
  171MOL0     H23532   2.085   2.472   4.605 -1.0672  0.8629  0.0008
  171MOL0     H23533   2.251   2.620   4.560  1.1158  0.6551 -0.5693
  171MOL0     H23534   2.297   2.465   4.487  2.5948  2.4735  2.3559
  171MOL0     H23535   2.175   2.616   4.278  1.7068 -0.8081 -0.6447
  171MOL0     H23536   2.249   2.745   4.376 -1.3081 -0.5560  2.7149
  171MOL0     H23537   2.380   2.489   4.298 -4.4260 -0.0246  5.1115
  171MOL0     H23538   2.382   2.629   4.183 -0.6820  2.8384  0.1722
  171MOL0     H23539   2.593   2.601   4.302  1.1777  0.6482  1.3490
  171MOL0     H23540   2.494   2.624   4.457 -2.8791 -0.6718 -1.5644
  171MOL0     H23541   2.489   2.834   4.234  1.5655  4.8101  0.2342
  171MOL0     H23542   2.448   2.850   4.405  0.8706 -1.4247  3.0419
  171MOL0     H23543   2.680   2.889   4.471 -0.1325  5.0835 -0.2864
  171MOL0     H23544   2.662   2.971   4.321  1.8921 -2.1972 -4.7071
  171MOL0     H23545   2.875   2.845   4.347  0.3612 -3.1402  6.2707
  171MOL0     H23546   2.797   2.692   4.350 -2.6174 -0.1456  0.5680
  171MOL0     H23547   2.669   2.961   4.073 -1.1874  0.5187  1.7869
  171MOL0     H23548   2.707   2.777   3.743 -0.1734  1.1597 -1.3272
  171MOL0     H23549   2.803   2.919   3.770 -0.8208  0.3268  0.5782
  171MOL0     H23550   2.498   2.853   3.803 -1.6997  1.4455  2.8136
  171MOL0     H23551   2.574   2.984   3.897  0.8614 -1.7895  1.2166
  171MOL0     H23552   2.498   3.096   3.679 -0.1661  0.3371 -4.7673
  171MOL0     H23553   2.668   3.093   3.687  0.8088  0.6592 -1.1497
  171MOL0     H23554   2.651   2.859   3.555  1.5238  0.2358 -0.0387
  171MOL0     H23555   2.479   2.893   3.564  1.0874 -1.9613 -1.4406
  171MOL0     H23556   2.621   3.252   3.334 -1.6002 -1.8671  0.1006
  171MOL0     H23557   2.851   3.451   3.200  1.6937  0.0855 -2.1343
  171MOL0     H23558   2.681   3.392   3.185 -0.3007 -2.3031 -2.3324
  171MOL0     H23559   2.801   3.354   3.063  1.8591  2.3995 -0.0140
  171MOL0     H23560   3.269   3.082   3.030 -2.7831  0.8463  2.8597
  171MOL0     H23561   3.468   3.149   2.908  1.3374  0.2640 -0.3540
  171MOL0     H23562   3.694   3.235   2.885 -0.1761 -0.3804 -0.0872
  171MOL0     H23563   3.590   3.252   2.748 -1.5327 -0.3134  1.2410
  171MOL0     H23564   3.782   3.487   2.824  0.3580 -0.8653  1.4178
  171MOL0     H23565   3.853   3.358   2.739  1.3291  2.2119 -1.9672
  171MOL0     H23566   3.607   3.470   2.607  0.0642  1.4969  0.1993
  171MOL0     H23567   3.744   3.373   2.549  3.3198  0.5531  0.2594
  171MOL0     H23568   3.893   3.568   2.583 -0.7453  0.4394 -1.2369
  171MOL0     H23569   3.754   3.655   2.654  1.1433 -0.9874  2.1532
  171MOL0     H23570   3.760   3.574   2.361 -0.7758 -0.9932  0.9094
  171MOL0     H23571   3.625   3.643   2.451 -0.0712  2.0669 -1.4735
  171MOL0     H23572   3.761   3.799   2.310  2.7327 -0.0491 -0.6494
  171MOL0     H23573   3.904   3.777   2.410  0.0008 -1.1690  0.7825
  171MOL0     H23574   3.834   3.878   2.584  0.0632 -2.7272  0.3811
  171MOL0     H23575   3.661   3.875   2.546  0.5262  0.6706 -0.1120
  171MOL0     H23576   3.736   4.111   2.511 -3.1910 -1.1955  0.4263
  171MOL0     H23577   3.692   4.049   2.362  0.7256  1.3077 -1.2225
  171MOL0     H23578   3.441   3.551   3.076 -0.1658  0.1056 -0.3550
  171MOL0     H23579   3.249   3.476   3.216 -0.2891 -0.7676  0.3747
  171MOL0     H23580   3.034   2.988   3.311  0.2589 -0.9539  5.2339
  171MOL0     H23581   2.811   2.882   3.394  2.3191 -1.5493 -3.1937
  171MOL0     H23582   1.879   2.388   4.585  0.4370  0.9852  0.3513
  171MOL0     H23583   1.650   2.321   4.564 -1.1745  0.2026 -1.1361
  171MOL0     H23584   1.198   2.470   4.489  0.7911 -2.0425  0.6471
  171MOL0     H23585   0.970   2.399   4.459 -0.4352  1.6329 -1.8388
  171MOL0     H23586   0.874   2.068   4.192 -1.9562 -0.8506  0.2431
  171MOL0     H23587   0.709   2.124   4.236 -0.2415 -0.6366 -0.2962
  171MOL0     H23588   0.872   2.233   4.006 -0.2045 -1.1601 -0.3882
  171MOL0     H23589   0.760   2.335   4.106  1.1673 -0.1643 -0.3508
  171MOL0     H23590   0.674   2.066   3.993  1.4039 -0.4809  3.7408
  171MOL0     H23591   0.580   2.189   4.056 -0.9688 -1.0859 -1.0631
  171MOL0     H23592   0.596   2.183   3.787  0.1920 -2.2321  1.3245
  171MOL0     H23593   0.759   2.196   3.792 -0.1416 -1.2526  0.6384
  171MOL0     H23594   0.570   2.594   3.814  0.1056 -0.7448  1.5639
  171MOL0     H23595   1.074   2.170   4.122  1.4144  1.5871 -1.2963
  171MOL0     H23596   1.399   2.169   4.146 -0.2975  2.6987  3.8665
  171MOL0     H23597   1.285   2.164   4.015 -0.9723 -1.5432  1.7289
  171MOL0     H23598   1.376   2.309   4.031  0.0776 -1.6933 -1.1731
  172MOL0     O23599   7.216  11.254   0.350 -0.5300  0.4824  0.0451
  172MOL0     C23600   7.148  11.200   0.438 -0.4025  0.4419  0.1098
  172MOL0     O23601   7.200  11.136   0.547 -0.7548  0.1021  0.5234
  172MOL0     C23602   7.330  11.159   0.581 -0.0366  0.4455  0.5993
  172MOL0     C23603   7.415  11.039   0.589  0.1312 -0.0820 -0.4496
  172MOL0     C23604   7.555  11.059   0.615 -0.1715  0.2266 -0.0524
  172MOL0     C23605   7.601  11.191   0.627 -0.8656  0.7111  0.4276
  172MOL0     O23606   7.744  11.215   0.636  0.4976 -0.2976  0.5036
  172MOL0     C23607   7.834  11.110   0.588  0.1837  0.6729  0.3191
  172MOL0     C23608   7.983  11.152   0.584 -0.2035  0.6411  0.2742
  172MOL0     C23609   8.066  11.024   0.541 -0.0590  0.5083 -0.5145
  172MOL0     C23610   8.207  11.062   0.498  0.0179 -0.0978 -0.0325
  172MOL0     C23611   8.288  10.930   0.482  0.0082 -0.2434  0.4147
  172MOL0     C23612   8.428  10.964   0.416  0.8706 -0.0127 -0.3454
  172MOL0     C23613   8.546  10.870   0.430  0.4731 -0.0541 -0.0448
  172MOL0     C23614   8.615  10.875   0.568  0.0917 -0.3535 -0.2120
  172MOL0     N23615   8.532  10.868   0.683 -0.1170 -0.3695 -0.0090
  172MOL0     C23616   8.477  10.971   0.753  0.5812 -0.3735 -0.0841
  172MOL0     C23617   8.426  10.913   0.866 -0.2776 -0.1643 -0.1754
  172MOL0     C23618   8.374  10.984   0.988 -0.4841  0.0666 -0.3414
  172MOL0     C23619   8.222  10.967   1.019 -0.1063 -0.2831  0.0067
  172MOL0     C23620   8.138  11.068   0.940 -0.2679  0.5278  0.2142
  172MOL0     C23621   7.982  11.063   0.979 -0.2243  0.7068 -0.2396
  172MOL0     O23622   7.933  10.947   0.912 -0.2220 -0.2456 -0.0546
  172MOL0     C23623   7.792  10.915   0.918 -0.0358 -0.2633 -0.0595
  172MOL0     C23624   7.707  10.974   1.015  0.0294  0.0652 -0.0785
  172MOL0     C23625   7.572  10.944   1.021 -0.0027  0.0087  0.4688
  172MOL0     C23626   7.500  11.009   1.142 -0.1902 -0.5058  0.2278
  172MOL0     C23627   7.514  10.860   0.924  0.5812  0.1099  0.0023
  172MOL0     C23628   7.368  10.825   0.920 -0.5946  1.0175  0.1221
  172MOL0     O23629   7.326  10.736   0.818 -0.5317 -0.3776  0.1764
  172MOL0     C23630   7.191  10.699   0.813 -0.7167 -0.1717  0.3230
  172MOL0     C23631   7.090  10.789   0.790  0.5571  0.6522 -0.0268
  172MOL0     C23632   6.956  10.741   0.782  0.0300  0.3146 -0.3381
  172MOL0     C23633   6.922  10.608   0.800  0.0070  0.0801 -0.2761
  172MOL0     O23634   6.796  10.560   0.781 -0.0766  0.3447 -0.3020
  172MOL0     C23635   6.744  10.575   0.652  0.0288  0.0622 -0.5881
  172MOL0     C23636   6.758  10.448   0.565 -0.0528  0.0140  0.5086
  172MOL0     C23637   6.723  10.322   0.646  0.0731  0.7405  0.5066
  172MOL0     C23638   6.680  10.200   0.564 -0.2838 -0.0032 -0.4996
  172MOL0     C23639   6.530  10.176   0.537  0.0612  0.7566 -0.2503
  172MOL0     C23640   6.483  10.271   0.429  0.3498 -0.6069 -0.5187
  172MOL0     C23641   6.353  10.225   0.363  0.3031  0.2642  0.3150
  172MOL0     C23642   6.399  10.110   0.274 -0.1633  0.1009 -0.3423
  172MOL0    Cl23643   6.302   9.971   0.327 -0.1594  0.5679  0.0620
  172MOL0     C23644   7.025  10.521   0.827 -0.0508  0.7953  0.8434
  172MOL0     C23645   7.155  10.564   0.824  0.8708 -0.7404 -0.5902
  172MOL0     O23646   7.294  10.857   1.016 -0.2934 -0.1046 -0.0309
  172MOL0     C23647   7.598  10.795   0.828 -0.0641  0.5005 -0.4498
  172MOL0     C23648   7.734  10.828   0.828  0.2990 -0.1815  1.0168
  172MOL0     N23649   8.455  10.779   0.869  0.0700  0.6888  0.0423
  172MOL0     N23650   8.515  10.755   0.758  0.4457  0.1806 -0.0412
  172MOL0     C23651   7.523  11.305   0.613  0.2698 -0.0846  0.5976
  172MOL0     C23652   7.385  11.288   0.590 -0.3594 -0.1489  0.3422
  172MOL0     C23653   7.000  11.189   0.435  0.8183 -0.0804  0.3843
  172MOL0     C23654   6.935  11.180   0.554 -0.3112 -0.0952 -0.4938
  172MOL0     C23655   6.800  11.150   0.562  0.5916  0.4032  0.9349
  172MOL0     C23656   6.716  11.154   0.453  0.0557 -0.0122  0.1446
  172MOL0     O23657   6.580  11.126   0.455 -0.9556 -0.7189  0.4730
  172MOL0     C23658   6.510  11.129   0.586 -0.4588  0.1517  0.0529
  172MOL0     C23659   6.353  11.092   0.590 -0.7846  0.4221  0.3402
  172MOL0     C23660   6.315  10.984   0.694 -0.3888  0.4607 -0.3247
  172MOL0     C23661   6.163  10.965   0.714  0.2580  0.8970 -0.0079
  172MOL0     C23662   6.137  10.885   0.835 -0.4509  0.5388  0.6065
  172MOL0     C23663   6.108  10.841   0.945 -0.6532 -0.7212 -0.2164
  172MOL0     C23664   6.776  11.176   0.331  0.3620 -0.2222 -0.6252
  172MOL0     C23665   6.916  11.197   0.317  0.6758  0.1334 -0.3489
  172MOL0     C23666   6.967  11.210   0.172 -0.2390 -0.0444  0.1436
  172MOL0     H23667   7.358  10.947   0.581 -0.4110  0.2059  0.0572
  172MOL0     H23668   7.622  10.975   0.631  0.4522  0.6734 -0.2839
  172MOL0     H23669   7.807  11.057   0.496  3.5606  0.7703 -0.8846
  172MOL0     H23670   7.830  11.039   0.672 -2.1456  2.2745  1.6603
  172MOL0     H23671   8.008  11.230   0.512  0.9076  0.4747  0.4672
  172MOL0     H23672   8.003  11.192   0.684 -2.1484  0.4037  0.8102
  172MOL0     H23673   8.072  10.955   0.625 -0.2258  2.2977  1.0399
  172MOL0     H23674   8.026  10.973   0.453  2.2195 -3.0294  0.2941
  172MOL0     H23675   8.211  11.127   0.411  1.4197  0.2586  0.2772
  172MOL0     H23676   8.260  11.104   0.584  1.5706 -2.7327  0.4096
  172MOL0     H23677   8.241  10.868   0.406 -0.1101  0.5318 -0.1561
  172MOL0     H23678   8.288  10.871   0.574  1.3701 -2.0618 -0.6884
  172MOL0     H23679   8.403  10.992   0.314  0.6741  0.9415 -0.0443
  172MOL0     H23680   8.477  11.058   0.443  4.9437 -0.8031 -3.9363
  172MOL0     H23681   8.615  10.900   0.350 -1.7590  0.3267 -1.9486
  172MOL0     H23682   8.523  10.767   0.401  1.4575 -0.3343  0.1512
  172MOL0     H23683   8.675  10.784   0.571 -1.5598 -1.4721  0.7464
  172MOL0     H23684   8.676  10.964   0.581  1.5532 -1.5202  1.4022
  172MOL0     H23685   8.484  11.079   0.738 -0.3546  0.0503  2.1294
  172MOL0     H23686   8.400  11.089   0.968  1.4411 -0.8607 -3.6026
  172MOL0     H23687   8.428  10.954   1.078 -2.4762 -1.4301  0.4297
  172MOL0     H23688   8.193  10.867   0.987  1.5067 -0.8963  0.3432
  172MOL0     H23689   8.204  10.979   1.127 -2.4139 -4.3718  0.2807
  172MOL0     H23690   8.175  11.168   0.962  1.0763  0.1035 -0.0330
  172MOL0     H23691   8.150  11.045   0.834  1.5773  1.9805  0.0539
  172MOL0     H23692   7.958  11.058   1.086  0.6862 -0.7066 -0.0677
  172MOL0     H23693   7.956  11.154   0.926  0.3394  0.7702 -0.4171
  172MOL0     H23694   7.757  11.047   1.079  2.4789 -1.4403 -0.1553
  172MOL0     H23695   7.403  11.054   1.120  0.6122  1.2967  0.1756
  172MOL0     H23696   7.550  11.096   1.186 -2.0046  1.2554 -1.0199
  172MOL0     H23697   7.485  10.934   1.221  0.0211 -0.7659  0.0245
  172MOL0     H23698   7.111  10.895   0.789 -0.5518  0.8737 -0.5518
  172MOL0     H23699   6.887  10.825   0.779  1.1303  1.2219 -1.0881
  172MOL0     H23700   6.636  10.592   0.656  0.3259  2.0859  0.3851
  172MOL0     H23701   6.780  10.666   0.603 -1.0671  0.0678 -1.4198
  172MOL0     H23702   6.694  10.454   0.476 -1.9120 -1.5306  1.6767
  172MOL0     H23703   6.864  10.447   0.541  0.5411  1.9005  2.7001
  172MOL0     H23704   6.643  10.350   0.716 -0.9845 -2.4289  0.7309
  172MOL0     H23705   6.806  10.298   0.712  0.7188  1.5339  0.0051
  172MOL0     H23706   6.702  10.112   0.624 -2.1122  1.7150  2.9728
  172MOL0     H23707   6.734  10.186   0.470 -0.3682 -1.2291 -0.3826
  172MOL0     H23708   6.522  10.073   0.502 -2.3469  0.5503  0.7348
  172MOL0     H23709   6.475  10.186   0.631  2.5779 -2.4944  1.7986
  172MOL0     H23710   6.559  10.278   0.350 -0.2491 -0.2825 -1.0779
  172MOL0     H23711   6.471  10.373   0.468  4.6778  1.1371 -2.9528
  172MOL0     H23712   6.305  10.299   0.298  0.9473 -1.0805 -1.7801
  172MOL0     H23713   6.277  10.193   0.435  1.7379  0.7326  2.1144
  172MOL0     H23714   6.504  10.082   0.279  0.3052  2.0029  1.4643
  172MOL0     H23715   6.375  10.131   0.169 -0.3908  0.0518 -0.2998
  172MOL0     H23716   7.009  10.414   0.831 -0.3167  0.6722 -1.6159
  172MOL0     H23717   7.240  10.498   0.841  0.8609 -1.3132 -2.5236
  172MOL0     H23718   7.555  10.734   0.750 -2.8015  0.0050  1.3115
  172MOL0     H23719   7.790  10.792   0.742 -2.2414 -1.0367 -0.3992
  172MOL0     H23720   7.563  11.405   0.603 -1.8615  0.6509 -1.3917
  172MOL0     H23721   7.318  11.373   0.582 -0.6687 -0.4850 -0.8267
  172MOL0     H23722   6.996  11.171   0.644  0.1674 -0.7382 -0.8711
  172MOL0     H23723   6.765  11.143   0.665  1.1033  1.3680  1.1846
  172MOL0     H23724   6.552  11.052   0.651  0.0451 -0.3311 -0.8205
  172MOL0     H23725   6.526  11.225   0.635 -1.9595  0.3656  0.1779
  172MOL0     H23726   6.325  11.056   0.491  1.0695 -0.0311 -0.0682
  172MOL0     H23727   6.294  11.183   0.603 -1.3690 -0.1900  2.2451
  172MOL0     H23728   6.358  10.884   0.680 -0.0423  0.8175 -2.0538
  172MOL0     H23729   6.358  11.021   0.787 -0.5105  0.1855 -0.1550
  172MOL0     H23730   6.110  10.924   0.627 -2.9237  1.3880  1.5565
  172MOL0     H23731   6.119  11.064   0.727  1.8675  1.6770 -0.2188
  172MOL0     H23732   6.091  10.824   1.050  2.0016 -1.2592  0.2016
  172MOL0     H23733   6.718  11.171   0.240 -1.0635  0.5840  0.1954
  172MOL0     H23734   6.886  11.250   0.110  0.7263 -0.1279 -1.1852
  172MOL0     H23735   7.048  11.282   0.165 -1.0874  0.8264 -0.9897
  172MOL0     H23736   6.991  11.111   0.131 -1.4292  0.0620 -0.8683
  173MOL0     O23737   7.257   2.408   9.804  0.6931  0.7612 -0.5406
  173MOL0     C23738   7.232   2.495   9.886  0.2774 -0.0964  0.6175
  173MOL0     O23739   7.317   2.597   9.920 -0.1826  0.2702  0.4599
  173MOL0     C23740   7.454   2.569   9.913 -0.5244  0.3330  0.1220
  173MOL0     C23741   7.523   2.596   9.796  0.0694 -0.2044 -0.5285
  173MOL0     C23742   7.658   2.551   9.786  0.3365 -0.1397 -0.0939
  173MOL0     C23743   7.727   2.498   9.901  0.5605  0.7547  0.1824
  173MOL0     O23744   7.857   2.463   9.884 -0.1909  0.5614 -0.1491
  173MOL0     C23745   7.924   2.390   9.989 -0.7901 -0.0443 -0.3299
  173MOL0     C23746   8.046   2.313   9.939  0.9124 -0.1452 -0.4093
  173MOL0     C23747   8.162   2.403   9.894 -0.0877  0.3529  0.9975
  173MOL0     C23748   8.270   2.315   9.847 -0.9782 -0.1290 -0.7064
  173MOL0     C23749   8.391   2.400   9.794  0.0198  0.1214 -0.1387
  173MOL0     C23750   8.484   2.325   9.697 -0.2308 -0.5614  0.8556
  173MOL0     C23751   8.618   2.402   9.692  0.2285  0.2055 -0.1227
  173MOL0     C23752   8.698   2.381   9.822  0.6616 -0.9222  0.9055
  173MOL0     N23753   8.839   2.427   9.817 -0.1284  0.0757 -0.2665
  173MOL0     C23754   8.891   2.553   9.829  0.2687  1.1982 -0.4160
  173MOL0     C23755   9.029   2.545   9.811  1.2241  0.0093 -0.1050
  173MOL0     C23756   9.142   2.652   9.813 -0.0627  0.2598 -0.3868
  173MOL0     C23757   9.243   2.624   9.708  1.1963  0.0977 -0.0253
  173MOL0     C23758   9.353   2.738   9.697  0.8731  0.3397 -0.2103
  173MOL0     C23759   9.427   2.719   9.565 -0.5286 -0.4541 -0.4171
  173MOL0     O23760   9.530   2.616   9.577 -0.4095  0.3645  0.2384
  173MOL0     C23761   9.622   2.586   9.484 -0.2994  0.2970 -0.4822
  173MOL0     C23762   9.700   2.476   9.510  1.0752 -0.3948 -0.4310
  173MOL0     C23763   9.817   2.444   9.447 -0.8221  0.0445  0.1298
  173MOL0     C23764   9.895   2.323   9.494 -0.6881 -0.2039  0.6394
  173MOL0     C23765   9.865   2.536   9.345 -0.9119  0.9831  0.2379
  173MOL0     C23766   9.992   2.516   9.275 -0.4409 -0.0696 -0.5899
  173MOL0     O23767  10.099   2.474   9.352 -0.1306  0.5659  0.4851
  173MOL0     C23768  10.215   2.425   9.290 -0.3525 -0.0471  0.7402
  173MOL0     C23769  10.336   2.498   9.278  0.8114 -0.8548  0.4347
  173MOL0     C23770  10.449   2.440   9.215  1.0544  0.8882  0.3016
  173MOL0     C23771  10.442   2.301   9.178 -0.2458 -0.6240  0.0959
  173MOL0     O23772  10.542   2.240   9.115 -0.1558  0.1303  0.1298
  173MOL0     C23773  10.663   2.311   9.088  0.0144  0.2478 -0.7331
  173MOL0     C23774  10.740   2.216   8.998 -0.2730 -1.4195 -0.3052
  173MOL0     C23775  10.855   2.286   8.927 -0.2055  0.1502 -1.0290
  173MOL0     C23776  10.906   2.224   8.796  0.0514 -0.8232 -0.7317
  173MOL0     C23777  10.988   2.100   8.829 -0.4520  0.0830  0.0584
  173MOL0     C23778  11.065   2.048   8.706 -0.1109  0.4574  0.1976
  173MOL0     C23779  10.977   1.958   8.615 -0.5174 -0.2998  0.0544
  173MOL0     C23780  11.055   1.882   8.504 -0.5896 -0.5748  0.3470
  173MOL0    Cl23781  11.119   1.732   8.560  0.1981 -0.2742 -0.1844
  173MOL0     C23782  10.325   2.232   9.187 -0.4269 -0.8518 -1.1172
  173MOL0     C23783  10.218   2.289   9.250  0.2253 -0.0956 -0.2623
  173MOL0     O23784  10.011   2.565   9.162  0.1935  0.3658 -0.8070
  173MOL0     C23785   9.781   2.642   9.310  0.2357 -0.0284 -0.1669
  173MOL0     C23786   9.663   2.673   9.383  0.6313  0.8163 -0.6653
  173MOL0     N23787   9.046   2.408   9.792  0.8611 -0.1330  0.5160
  173MOL0     N23788   8.941   2.339   9.803 -0.3391 -0.6891  1.0777
  173MOL0     C23789   7.648   2.469  10.016 -0.0976 -0.4273 -0.6805
  173MOL0     C23790   7.512   2.502  10.020 -1.3707  0.0764 -0.2390
  173MOL0     C23791   7.091   2.506   9.931 -0.5817  0.6810 -0.0402
  173MOL0     C23792   7.054   2.614  10.017 -0.0939  0.8012 -0.6178
  173MOL0     C23793   6.927   2.632  10.068  0.1647  0.0501  0.4676
  173MOL0     C23794   6.821   2.560  10.012 -0.4981 -0.5006 -0.4048
  173MOL0     O23795   6.686   2.578  10.047 -0.2262 -0.3766  0.0749
  173MOL0     C23796   6.644   2.714  10.085  0.0239 -0.2632  0.2771
  173MOL0     C23797   6.649   2.753  10.240  0.7246 -0.3046  0.3004
  173MOL0     C23798   6.576   2.661  10.338 -0.5400  0.0635  0.3621
  173MOL0     C23799   6.429   2.635  10.303  1.4560  0.0378 -0.1073
  173MOL0     C23800   6.350   2.761  10.304  0.2682  0.1134 -0.3457
  173MOL0     C23801   6.277   2.854  10.313 -0.3481 -0.7466 -0.0459
  173MOL0     C23802   6.854   2.449   9.935 -0.2285  0.0575 -0.8608
  173MOL0     C23803   6.983   2.419   9.887 -0.0902  0.3882  0.9962
  173MOL0     C23804   7.000   2.287   9.810 -0.2515  0.0638  0.3214
  173MOL0     H23805   7.475   2.642   9.710 -1.4035 -1.7975 -0.6011
  173MOL0     H23806   7.709   2.558   9.691  0.9113 -0.1096  0.2130
  173MOL0     H23807   7.867   2.306  10.029 -1.1159  0.0152 -0.6621
  173MOL0     H23808   7.950   2.456  10.072 -1.3206 -0.0986 -0.1132
  173MOL0     H23809   8.071   2.246  10.022  0.9757  1.4744  0.9294
  173MOL0     H23810   8.021   2.247   9.856  0.0693 -1.8502  1.1205
  173MOL0     H23811   8.131   2.477   9.819  3.3885 -0.0414 -1.0814
  173MOL0     H23812   8.191   2.458   9.985 -1.4954  2.4632  0.2603
  173MOL0     H23813   8.302   2.244   9.924  1.3748 -0.1065 -1.5613
  173MOL0     H23814   8.234   2.251   9.766 -3.4314 -0.7560  0.7758
  173MOL0     H23815   8.431   2.449   9.883 -2.9176 -0.7311  1.7855
  173MOL0     H23816   8.344   2.485   9.743 -0.7178 -1.2510 -1.8783
  173MOL0     H23817   8.493   2.219   9.722 -0.3312 -0.9471 -0.6615
  173MOL0     H23818   8.431   2.333   9.601 -0.2470  1.5020  0.9912
  173MOL0     H23819   8.599   2.508   9.673  2.3559  0.2791 -2.2638
  173MOL0     H23820   8.674   2.359   9.609  1.0763 -1.5613  1.3072
  173MOL0     H23821   8.641   2.426   9.904 -1.4274 -2.4819  0.4158
  173MOL0     H23822   8.692   2.274   9.842  1.4108 -1.1649 -0.1140
  173MOL0     H23823   8.834   2.644   9.849 -0.9715  0.2925  0.3135
  173MOL0     H23824   9.197   2.660   9.907  0.9030  0.5468 -0.9625
  173MOL0     H23825   9.107   2.751   9.784  1.9883  1.3844  0.7631
  173MOL0     H23826   9.289   2.527   9.726  2.0913  0.0121 -2.4067
  173MOL0     H23827   9.197   2.617   9.610  0.4634 -0.5044  0.3523
  173MOL0     H23828   9.299   2.833   9.699 -0.0351 -0.1664 -0.1280
  173MOL0     H23829   9.423   2.742   9.781  0.8390  3.0745 -0.2370
  173MOL0     H23830   9.365   2.676   9.485 -0.0171  0.1762 -1.1654
  173MOL0     H23831   9.468   2.818   9.543 -1.7565  0.5900  1.6463
  173MOL0     H23832   9.658   2.409   9.585  1.3881 -0.3163 -0.1813
  173MOL0     H23833   9.960   2.283   9.415 -1.6426  1.2385 -0.9471
  173MOL0     H23834   9.826   2.243   9.522  0.3374 -1.8878 -1.3416
  173MOL0     H23835   9.967   2.341   9.574  3.0457 -1.4041 -2.1306
  173MOL0     H23836  10.332   2.600   9.316  2.9810  1.7285 -5.2317
  173MOL0     H23837  10.535   2.507   9.217  1.7857 -0.0365  0.8762
  173MOL0     H23838  10.642   2.400   9.028  3.0698  1.3922 -0.2973
  173MOL0     H23839  10.720   2.344   9.175 -3.2545 -0.4760  1.8698
  173MOL0     H23840  10.780   2.136   9.062  0.3983 -2.3135 -1.8003
  173MOL0     H23841  10.674   2.169   8.924 -3.2493 -0.4870  1.5610
  173MOL0     H23842  10.942   2.293   8.993  0.0212 -3.7623 -0.6913
  173MOL0     H23843  10.822   2.389   8.913 -2.9987 -0.5593 -0.3091
  173MOL0     H23844  10.953   2.304   8.739  0.0438 -1.2540 -1.3505
  173MOL0     H23845  10.817   2.202   8.735 -1.5954  1.1819  0.7800
  173MOL0     H23846  11.055   2.121   8.912 -1.4540 -2.6116  1.6505
  173MOL0     H23847  10.915   2.026   8.863  0.4501 -0.0984  1.6693
  173MOL0     H23848  11.155   1.994   8.736  0.8952  1.0414 -1.5936
  173MOL0     H23849  11.104   2.128   8.643  1.0173 -0.1021  0.1637
  173MOL0     H23850  10.914   2.028   8.560 -0.8390 -0.5229  0.1347
  173MOL0     H23851  10.913   1.891   8.673  0.8486 -0.8845  0.9550
  173MOL0     H23852  11.128   1.944   8.451  1.3166 -1.5711  1.6356
  173MOL0     H23853  10.991   1.846   8.424  1.2672 -0.7496 -1.1393
  173MOL0     H23854  10.313   2.128   9.157 -0.4270 -1.8328  2.0192
  173MOL0     H23855  10.127   2.231   9.253  0.0367  0.0588 -1.8284
  173MOL0     H23856   9.811   2.710   9.232 -1.5516 -1.1825 -1.9651
  173MOL0     H23857   9.611   2.766   9.365  1.2275  1.1204 -0.8457
  173MOL0     H23858   7.696   2.438  10.108 -0.4014  1.1894  0.0561
  173MOL0     H23859   7.465   2.469  10.112  2.6686  2.3192  2.9522
  173MOL0     H23860   7.133   2.682  10.048 -0.6091  1.1037  0.0490
  173MOL0     H23861   6.917   2.714  10.139  0.6578  0.9537 -0.4928
  173MOL0     H23862   6.694   2.794  10.029  1.5532 -0.6109  1.0993
  173MOL0     H23863   6.538   2.713  10.056  0.7465 -1.6103 -2.8338
  173MOL0     H23864   6.618   2.858  10.247  2.2411  0.0722  2.2672
  173MOL0     H23865   6.751   2.756  10.280  0.5124  1.0344  0.7834
  173MOL0     H23866   6.633   2.571  10.363  0.8765  1.0773  0.9159
  173MOL0     H23867   6.578   2.718  10.432 -0.8534  1.8073 -0.6357
  173MOL0     H23868   6.381   2.564  10.370  0.7692 -2.7755 -3.2684
  173MOL0     H23869   6.421   2.588  10.204 -1.3843  1.1117 -0.4969
  173MOL0     H23870   6.200   2.927  10.326  2.8292  2.7607  0.8494
  173MOL0     H23871   6.775   2.382   9.902 -1.0756  0.0314  1.0900
  173MOL0     H23872   7.056   2.305   9.718 -4.5161  1.5430 -2.2908
  173MOL0     H23873   7.053   2.225   9.883  1.0012  0.3122 -0.3433
  173MOL0     H23874   6.900   2.251   9.784 -0.5613  1.1176 -0.0081
  174MOL0     O23875   3.829   1.635   4.315  0.2430 -0.3462  0.1889
  174MOL0     C23876   3.742   1.696   4.253  0.1583 -0.3332  0.2055
  174MOL0     O23877   3.736   1.826   4.239  0.7377 -0.4145 -0.1635
  174MOL0     C23878   3.854   1.885   4.214  0.4923 -0.8702  0.3709
  174MOL0     C23879   3.895   2.000   4.276  0.3060  0.3840  0.0101
  174MOL0     C23880   4.012   2.062   4.256  0.2808  0.0970  0.1283
  174MOL0     C23881   4.106   2.017   4.166  0.5006  0.5656 -0.0561
  174MOL0     O23882   4.238   2.062   4.148  0.5597 -0.1064 -0.1332
  174MOL0     C23883   4.271   2.188   4.200 -0.9561 -0.5795  0.7905
  174MOL0     C23884   4.419   2.213   4.186  1.1128  0.3969 -0.5041
  174MOL0     C23885   4.458   2.217   4.039  1.1186  0.3327 -0.1716
  174MOL0     C23886   4.607   2.259   4.020 -0.5465  0.2481 -0.2120
  174MOL0     C23887   4.622   2.300   3.873 -0.0279 -0.1847 -0.8623
  174MOL0     C23888   4.764   2.302   3.826  1.3094  0.3760  0.0540
  174MOL0     C23889   4.774   2.316   3.675  0.2850 -0.1049  0.9051
  174MOL0     C23890   4.911   2.268   3.619  0.0660  0.1464 -0.0708
  174MOL0     N23891   4.947   2.311   3.480  0.1541 -1.0000 -1.0258
  174MOL0     C23892   5.071   2.363   3.430  0.1812  0.1639 -0.5367
  174MOL0     C23893   5.050   2.400   3.295 -0.1569  0.1830 -0.3637
  174MOL0     C23894   5.143   2.447   3.188  0.3906  0.0768 -0.1291
  174MOL0     C23895   5.145   2.600   3.180  0.5843 -0.2220  0.5695
  174MOL0     C23896   5.255   2.646   3.280  0.5485 -0.0922  0.2875
  174MOL0     C23897   5.280   2.801   3.256 -0.8496  0.1698  0.8675
  174MOL0     O23898   5.369   2.881   3.342 -0.1782 -0.6714 -0.6438
  174MOL0     C23899   5.466   2.805   3.394  0.0974  0.4679 -0.5948
  174MOL0     C23900   5.583   2.773   3.316 -0.1905 -0.0443  0.1472
  174MOL0     C23901   5.696   2.697   3.365  0.0379  0.9852  0.5469
  174MOL0     C23902   5.813   2.687   3.271 -0.7385  0.9075 -0.0335
  174MOL0     C23903   5.682   2.645   3.495  0.2059 -0.0966 -0.6232
  174MOL0     C23904   5.775   2.548   3.562 -0.3854 -0.2524 -0.5272
  174MOL0     O23905   5.725   2.441   3.631 -0.4301 -0.4918  0.0048
  174MOL0     C23906   5.814   2.378   3.718 -0.9936 -0.8573  0.0703
  174MOL0     C23907   5.810   2.403   3.854  0.1859  0.2761 -0.7434
  174MOL0     C23908   5.910   2.357   3.942  0.4116 -0.1776  0.3428
  174MOL0     C23909   6.002   2.266   3.889  0.8245  0.1224  0.1868
  174MOL0     O23910   6.090   2.215   3.979  0.1501 -0.2327  0.3761
  174MOL0     C23911   6.203   2.302   3.989 -0.8787  0.1130  0.3076
  174MOL0     C23912   6.336   2.231   3.977  0.3924  0.5945 -0.8413
  174MOL0     C23913   6.451   2.317   4.019 -0.1911  0.1700 -0.6205
  174MOL0     C23914   6.589   2.238   4.030  0.2766  0.3259  0.0365
  174MOL0     C23915   6.693   2.338   4.080  0.0538 -0.1655  0.6881
  174MOL0     C23916   6.826   2.267   4.106 -0.4962 -0.9584  0.4435
  174MOL0     C23917   6.930   2.358   4.167  0.3390  0.1936 -0.0963
  174MOL0     C23918   7.047   2.300   4.235 -0.1268  0.6965  0.2738
  174MOL0    Cl23919   7.148   2.219   4.109  0.0652 -0.1812  0.0800
  174MOL0     C23920   6.005   2.228   3.759  0.2606 -0.0215 -0.8491
  174MOL0     C23921   5.917   2.293   3.675 -0.1019  0.7086  0.0710
  174MOL0     O23922   5.893   2.576   3.553 -0.1690  0.0159  0.0240
  174MOL0     C23923   5.550   2.659   3.559  0.0019 -0.7174  0.1986
  174MOL0     C23924   5.452   2.745   3.515 -0.5145 -0.1634 -0.8323
  174MOL0     N23925   4.919   2.390   3.275  1.4988  0.2267 -0.4346
  174MOL0     N23926   4.850   2.340   3.382 -0.5237  0.6985 -0.3388
  174MOL0     C23927   4.071   1.894   4.105  0.3808 -0.4452 -0.1993
  174MOL0     C23928   3.947   1.833   4.122  0.6393  0.2647 -0.5421
  174MOL0     C23929   3.604   1.636   4.246  0.1011  0.4295  0.0511
  174MOL0     C23930   3.497   1.671   4.332 -0.2087 -0.1287  0.0136
  174MOL0     C23931   3.374   1.606   4.320  0.5146 -0.0026 -0.5122
  174MOL0     C23932   3.343   1.497   4.238 -0.0476 -0.4144  0.3034
  174MOL0     O23933   3.214   1.456   4.232 -0.3340  0.0344 -0.3756
  174MOL0     C23934   3.165   1.372   4.130 -0.1413  0.1172  0.1907
  174MOL0     C23935   3.127   1.449   3.997  0.3866 -0.8642 -0.6362
  174MOL0     C23936   2.979   1.499   3.981 -0.2106  0.0340 -0.6068
  174MOL0     C23937   2.950   1.599   3.864 -0.0744 -0.5770  0.3914
  174MOL0     C23938   2.812   1.604   3.820  0.8426  1.1708 -0.0933
  174MOL0     C23939   2.702   1.594   3.768 -0.6428 -1.1306  0.1181
  174MOL0     C23940   3.452   1.469   4.148 -0.3077  0.0258  0.6669
  174MOL0     C23941   3.578   1.536   4.155  0.9006  0.3978 -0.4745
  174MOL0     C23942   3.685   1.485   4.057 -0.0771  0.4570  0.3839
  174MOL0     H23943   3.838   2.054   4.352 -1.9688  0.9734 -2.0043
  174MOL0     H23944   4.030   2.146   4.322 -0.4267  0.2261  0.1587
  174MOL0     H23945   4.246   2.167   4.304 -1.1668  1.6602  1.2232
  174MOL0     H23946   4.213   2.271   4.160  1.4137 -0.5393 -3.0842
  174MOL0     H23947   4.440   2.306   4.240  2.7403 -1.3371  2.0824
  174MOL0     H23948   4.469   2.128   4.234  1.3163 -1.2178 -3.3800
  174MOL0     H23949   4.439   2.118   3.996  0.7834 -0.8721  2.5291
  174MOL0     H23950   4.394   2.289   3.988  2.7193  0.3861 -2.2634
  174MOL0     H23951   4.641   2.335   4.092  3.1416 -0.4787 -1.0414
  174MOL0     H23952   4.672   2.176   4.048 -1.3945  0.7468  4.0076
  174MOL0     H23953   4.582   2.401   3.865  2.0390  0.5587 -2.4031
  174MOL0     H23954   4.566   2.245   3.797  1.4876 -1.9850 -0.7394
  174MOL0     H23955   4.830   2.371   3.878  1.1907  2.7619 -2.7068
  174MOL0     H23956   4.814   2.208   3.851 -0.8700 -0.8213  0.1612
  174MOL0     H23957   4.749   2.414   3.634 -0.9382 -0.8792 -0.2795
  174MOL0     H23958   4.702   2.249   3.627  1.2751 -0.7884  0.3420
  174MOL0     H23959   4.988   2.298   3.690  2.6492 -1.3300 -2.0899
  174MOL0     H23960   4.909   2.159   3.630  1.0064  0.3581  2.8858
  174MOL0     H23961   5.161   2.356   3.490 -1.8648  1.5314  3.0178
  174MOL0     H23962   5.111   2.417   3.088  1.3703  0.5335 -0.5892
  174MOL0     H23963   5.239   2.397   3.205  1.7001  1.9262 -1.5686
  174MOL0     H23964   5.173   2.616   3.076 -2.4193  0.7730 -0.1765
  174MOL0     H23965   5.049   2.651   3.190  1.2195  1.6520 -1.9080
  174MOL0     H23966   5.234   2.628   3.385  1.6507 -0.0008  0.5372
  174MOL0     H23967   5.348   2.591   3.264  0.5882 -0.0077  0.2276
  174MOL0     H23968   5.321   2.819   3.156  0.4717  2.0254  1.6963
  174MOL0     H23969   5.185   2.852   3.273 -0.6639  1.0894 -0.6958
  174MOL0     H23970   5.597   2.810   3.214  3.2066 -2.5252 -0.4662
  174MOL0     H23971   5.901   2.723   3.325 -0.0816  2.1146 -1.8278
  174MOL0     H23972   5.801   2.750   3.182  2.4700  0.5042 -0.8604
  174MOL0     H23973   5.820   2.583   3.239 -0.3618  0.0314  2.6653
  174MOL0     H23974   5.729   2.462   3.896  0.3146 -1.0961  1.6292
  174MOL0     H23975   5.909   2.381   4.048 -2.7634 -2.9540  1.1392
  174MOL0     H23976   6.207   2.384   3.917  0.1481 -0.6860 -0.5673
  174MOL0     H23977   6.197   2.351   4.087  0.8474 -0.3252  0.6575
  174MOL0     H23978   6.331   2.153   4.054 -1.8917 -1.7572 -3.1554
  174MOL0     H23979   6.353   2.185   3.880  1.9083  0.4622 -0.5392
  174MOL0     H23980   6.422   2.360   4.116  0.9610 -0.9233  0.2519
  174MOL0     H23981   6.449   2.394   3.942  0.8670  0.1492 -0.6826
  174MOL0     H23982   6.615   2.208   3.928 -1.6855 -0.0108 -0.4045
  174MOL0     H23983   6.574   2.148   4.091  1.1120 -0.2040 -0.5101
  174MOL0     H23984   6.717   2.404   3.996 -1.5042  1.2058  1.2604
  174MOL0     H23985   6.664   2.389   4.173  0.2803 -0.3524  0.8631
  174MOL0     H23986   6.867   2.236   4.010 -0.3142 -2.8364  1.0855
  174MOL0     H23987   6.808   2.181   4.171  0.7355 -1.9767 -0.5108
  174MOL0     H23988   6.879   2.420   4.242  3.4813  0.7231  1.7496
  174MOL0     H23989   6.963   2.429   4.090 -0.1839  1.9109  1.2063
  174MOL0     H23990   7.011   2.234   4.315 -2.5483  0.6677 -0.7608
  174MOL0     H23991   7.104   2.378   4.285 -2.0966  2.4852 -0.1430
  174MOL0     H23992   6.076   2.154   3.723 -0.4756 -0.5703 -1.1772
  174MOL0     H23993   5.914   2.269   3.569  0.7722  0.8233  0.0156
  174MOL0     H23994   5.542   2.611   3.656  2.0337  1.7038  1.7063
  174MOL0     H23995   5.368   2.762   3.582  0.9746  1.3713  0.7732
  174MOL0     H23996   4.138   1.841   4.039  0.1665 -0.9151 -0.0471
  174MOL0     H23997   3.922   1.751   4.055 -1.9671  3.0351 -3.2909
  174MOL0     H23998   3.509   1.759   4.394  2.1471  0.2382 -0.8677
  174MOL0     H23999   3.296   1.648   4.382  0.5222 -0.5045 -0.1582
  174MOL0     H24000   3.236   1.291   4.110 -0.5390 -0.5094  1.2268
  174MOL0     H24001   3.074   1.323   4.168  0.4876  0.3727  2.1322
  174MOL0     H24002   3.141   1.385   3.910  1.4820 -1.8449  0.2303
  174MOL0     H24003   3.184   1.542   3.983  0.8306 -0.3402  3.4913
  174MOL0     H24004   2.920   1.407   3.974  2.0792 -1.4021 -2.0990
  174MOL0     H24005   2.974   1.552   4.077  3.5267  1.3324 -0.9678
  174MOL0     H24006   3.008   1.584   3.773 -0.8344 -0.6165 -0.1021
  174MOL0     H24007   2.974   1.700   3.899  3.1151 -1.4304  0.9863
  174MOL0     H24008   2.601   1.586   3.734 -1.0913 -0.2625  1.1990
  174MOL0     H24009   3.441   1.392   4.072 -0.7906  0.2901  0.4624
  174MOL0     H24010   3.650   1.460   3.957 -1.4131 -1.0159  1.1609
  174MOL0     H24011   3.760   1.562   4.040 -1.0989  0.9758 -2.2916
  174MOL0     H24012   3.729   1.390   4.089  0.2429  0.2177 -0.7427
  175MOL0     O24013   1.257   0.451   5.045  0.2660  1.2181 -0.5845
  175MOL0     C24014   1.233   0.543   5.121  0.3616  0.3857 -0.7192
  175MOL0     O24015   1.312   0.582   5.235 -0.2062  0.0465 -0.1491
  175MOL0     C24016   1.417   0.500   5.289  0.0800 -0.3970 -0.4868
  175MOL0     C24017   1.470   0.381   5.239 -0.0637  0.4640  0.1571
  175MOL0     C24018   1.600   0.338   5.281 -0.1513  0.9398 -0.0393
  175MOL0     C24019   1.668   0.392   5.394 -0.2105 -0.2406 -0.2764
  175MOL0     O24020   1.795   0.345   5.430 -0.1018  0.6012 -0.1260
  175MOL0     C24021   1.866   0.227   5.370  0.5946 -0.8412 -0.3254
  175MOL0     C24022   1.805   0.095   5.413  0.7032  0.9329  0.7037
  175MOL0     C24023   1.805   0.085   5.564 -0.2152  0.6100  1.3369
  175MOL0     C24024   1.733  -0.053   5.602 -0.0845 -0.3287 -0.0761
  175MOL0     C24025   1.747  -0.087   5.755 -0.0944  0.2950 -0.8247
  175MOL0     C24026   1.659  -0.203   5.796 -0.7237 -0.4951  0.1836
  175MOL0     C24027   1.691  -0.241   5.946 -0.0489  0.0601 -0.5781
  175MOL0     C24028   1.604  -0.360   5.993 -0.3997  0.1081 -0.0549
  175MOL0     N24029   1.664  -0.379   6.134  0.5503  0.2187 -0.1229
  175MOL0     C24030   1.647  -0.295   6.237  0.5491  0.7380 -0.5034
  175MOL0     C24031   1.711  -0.360   6.341 -1.0965 -0.0739  0.4061
  175MOL0     C24032   1.728  -0.320   6.479  0.8793 -0.1082  0.1327
  175MOL0     C24033   1.860  -0.359   6.544  0.8774  0.7546 -0.8121
  175MOL0     C24034   1.849  -0.326   6.702 -0.2353 -0.0855  0.2300
  175MOL0     C24035   1.966  -0.395   6.766 -0.2329 -0.4924 -0.0019
  175MOL0     O24036   2.086  -0.333   6.718  0.1880  0.0725  0.0668
  175MOL0     C24037   2.182  -0.300   6.809  0.0938  0.5584  0.4396
  175MOL0     C24038   2.161  -0.229   6.925  0.9083  0.6208  0.3255
  175MOL0     C24039   2.271  -0.190   7.003  0.2675  0.2941  1.1422
  175MOL0     C24040   2.239  -0.099   7.117 -0.2011 -0.3722  0.0877
  175MOL0     C24041   2.407  -0.225   6.964  1.0696  0.2646 -0.1612
  175MOL0     C24042   2.519  -0.184   7.042 -0.5480 -0.5695 -0.1512
  175MOL0     O24043   2.631  -0.135   6.971 -0.5695 -0.0711  0.2374
  175MOL0     C24044   2.729  -0.079   7.046  0.4478 -0.9687  0.2370
  175MOL0     C24045   2.751   0.047   7.024 -0.9074 -0.1252  0.3750
  175MOL0     C24046   2.858   0.117   7.072  0.6983 -0.0026  0.1964
  175MOL0     C24047   2.948   0.058   7.158 -0.1489  0.1970  0.3752
  175MOL0     O24048   3.060   0.113   7.212  0.5076  0.6224 -0.0037
  175MOL0     C24049   3.103   0.242   7.161 -0.1113  0.0668 -0.1456
  175MOL0     C24050   3.208   0.313   7.257 -0.3381  0.2856  0.1145
  175MOL0     C24051   3.340   0.228   7.266 -0.4529  0.4650  0.2999
  175MOL0     C24052   3.454   0.311   7.339 -0.0278 -0.1803 -0.1568
  175MOL0     C24053   3.589   0.248   7.338 -0.3014 -0.7784  0.5691
  175MOL0     C24054   3.706   0.345   7.363  0.1557 -0.4742 -0.0355
  175MOL0     C24055   3.831   0.283   7.434  0.0706  0.1195  0.6087
  175MOL0     C24056   3.954   0.370   7.440  0.6696  0.1716  0.0897
  175MOL0    Cl24057   4.020   0.428   7.288  0.0463 -0.6319  0.4036
  175MOL0     C24058   2.912  -0.072   7.198  0.1774 -0.1231 -0.6596
  175MOL0     C24059   2.809  -0.143   7.137 -0.2558 -0.6823 -1.1907
  175MOL0     O24060   2.510  -0.202   7.162  0.6902 -0.7182 -0.3387
  175MOL0     C24061   2.420  -0.302   6.846 -0.1152 -0.6364 -0.0464
  175MOL0     C24062   2.310  -0.342   6.776 -0.5999 -0.6352 -0.5754
  175MOL0     N24063   1.768  -0.476   6.289 -1.0586 -0.2088 -0.1300
  175MOL0     N24064   1.742  -0.488   6.164  0.3950 -0.0513 -0.3051
  175MOL0     C24065   1.608   0.503   5.454  0.2728 -0.6467  0.1711
  175MOL0     C24066   1.488   0.556   5.392  0.0783  0.1075  0.3280
  175MOL0     C24067   1.129   0.633   5.094  0.4513 -0.1751 -0.7967
  175MOL0     C24068   1.145   0.776   5.106 -0.5070 -0.1161 -0.2214
  175MOL0     C24069   1.052   0.865   5.058 -0.1401 -0.3550 -0.2365
  175MOL0     C24070   0.933   0.816   4.998 -0.1912 -0.5522 -0.4663
  175MOL0     O24071   0.849   0.922   4.954 -0.6666 -0.2014  0.8962
  175MOL0     C24072   0.713   0.893   4.922 -0.8338 -0.3062  0.1029
  175MOL0     C24073   0.685   0.884   4.772  1.2419 -0.6996  0.5664
  175MOL0     C24074   0.533   0.861   4.738  0.4865  0.7870 -0.9705
  175MOL0     C24075   0.489   0.720   4.762  0.5261 -0.4519 -0.7828
  175MOL0     C24076   0.346   0.710   4.735 -0.1036 -0.2421 -0.6398
  175MOL0     C24077   0.225   0.730   4.712  0.0346 -0.9043 -0.1911
  175MOL0     C24078   0.915   0.676   4.988  0.1793 -0.2390 -0.4280
  175MOL0     C24079   1.007   0.583   5.047 -0.4701  0.3500  0.2032
  175MOL0     C24080   0.975   0.433   5.050  0.1449 -0.9436 -0.6918
  175MOL0     H24081   1.422   0.325   5.160 -0.4038 -0.8076  1.2275
  175MOL0     H24082   1.653   0.255   5.236 -0.6135  0.4001  0.3875
  175MOL0     H24083   1.966   0.223   5.415  0.7881 -2.1423 -0.8447
  175MOL0     H24084   1.883   0.237   5.263  0.6400 -0.6598 -0.3018
  175MOL0     H24085   1.700   0.087   5.383  1.0171 -1.1094 -0.0494
  175MOL0     H24086   1.858   0.011   5.365 -2.4797  0.5551 -2.5994
  175MOL0     H24087   1.909   0.091   5.598 -0.3278  3.6034  1.3714
  175MOL0     H24088   1.762   0.175   5.609  0.6710  2.1315 -0.7159
  175MOL0     H24089   1.626  -0.040   5.578  0.1676 -1.6123 -2.2148
  175MOL0     H24090   1.775  -0.128   5.534 -0.2899 -1.0664  0.5997
  175MOL0     H24091   1.718   0.004   5.808  0.0549  0.8850 -1.7289
  175MOL0     H24092   1.854  -0.104   5.773 -0.7340 -1.2170  2.1729
  175MOL0     H24093   1.554  -0.175   5.784 -0.6393 -1.1569 -2.8656
  175MOL0     H24094   1.675  -0.291   5.733 -0.2886  0.1924 -0.6985
  175MOL0     H24095   1.685  -0.152   6.009  0.0109 -1.5303  1.8043
  175MOL0     H24096   1.797  -0.269   5.945 -0.1806 -0.5283 -2.5558
  175MOL0     H24097   1.500  -0.332   6.009 -0.3588  2.3084 -2.7857
  175MOL0     H24098   1.610  -0.456   5.939  2.1350  1.7815 -3.1101
  175MOL0     H24099   1.601  -0.200   6.262 -1.6926 -0.1832 -0.8990
  175MOL0     H24100   1.650  -0.374   6.534  2.0300  0.0333  1.9771
  175MOL0     H24101   1.707  -0.213   6.488  1.9936  0.1045  0.2914
  175MOL0     H24102   1.879  -0.465   6.529  4.8284  1.2824 -0.7262
  175MOL0     H24103   1.945  -0.315   6.490  1.4876 -0.8535 -1.2243
  175MOL0     H24104   1.853  -0.218   6.717  0.6807 -0.0358 -0.3027
  175MOL0     H24105   1.761  -0.368   6.752 -0.4542 -2.1267 -1.6665
  175MOL0     H24106   1.964  -0.407   6.874  0.2285 -2.2160 -0.1462
  175MOL0     H24107   1.966  -0.500   6.734 -0.2956 -0.4826 -0.0349
  175MOL0     H24108   2.062  -0.194   6.951  0.4194  1.1084 -1.9814
  175MOL0     H24109   2.255  -0.157   7.208  1.7653 -2.0416 -1.2202
  175MOL0     H24110   2.135  -0.065   7.119  0.3044  1.3441 -0.9816
  175MOL0     H24111   2.302  -0.010   7.120  0.7804 -1.0334 -0.4063
  175MOL0     H24112   2.694   0.097   6.946  2.5083 -0.6607 -2.7075
  175MOL0     H24113   2.856   0.225   7.057  0.0483  0.0626  0.7214
  175MOL0     H24114   3.155   0.221   7.067 -2.2070 -3.8883 -0.6190
  175MOL0     H24115   3.025   0.318   7.147  0.0617  0.2802  0.0428
  175MOL0     H24116   3.239   0.401   7.199  1.0604 -0.5931 -0.5056
  175MOL0     H24117   3.171   0.330   7.358 -1.1222 -2.3167  0.3317
  175MOL0     H24118   3.378   0.201   7.167  0.5200  1.7030  0.3086
  175MOL0     H24119   3.317   0.141   7.327  1.0892 -0.7205 -0.7217
  175MOL0     H24120   3.441   0.328   7.446 -0.3723  2.5511 -0.5636
  175MOL0     H24121   3.467   0.410   7.295  0.9723  0.0088  0.5233
  175MOL0     H24122   3.606   0.161   7.402  0.7281 -0.2990  0.9694
  175MOL0     H24123   3.606   0.214   7.236  3.8735  2.0044  0.0851
  175MOL0     H24124   3.671   0.429   7.424  0.7405 -2.3036  3.0299
  175MOL0     H24125   3.743   0.396   7.274  2.0861  0.9121  1.4572
  175MOL0     H24126   3.864   0.197   7.374  0.0451  1.1072 -0.8677
  175MOL0     H24127   3.800   0.245   7.532 -1.2532 -0.9577 -0.1922
  175MOL0     H24128   4.029   0.311   7.494  0.3800 -2.7019 -2.4556
  175MOL0     H24129   3.932   0.463   7.495 -1.1502 -0.7575  1.0208
  175MOL0     H24130   2.974  -0.127   7.269 -1.6860 -2.5982 -0.7764
  175MOL0     H24131   2.787  -0.248   7.153 -2.2928 -0.2349 -0.8007
  175MOL0     H24132   2.524  -0.321   6.820  1.6761  2.3440  3.8681
  175MOL0     H24133   2.343  -0.379   6.679  1.3994 -1.2887  0.2945
  175MOL0     H24134   1.666   0.559   5.526 -0.0024  1.0595 -0.8612
  175MOL0     H24135   1.448   0.645   5.440 -2.5299 -0.4690 -0.6066
  175MOL0     H24136   1.239   0.819   5.140 -0.1684 -0.5638 -0.5794
  175MOL0     H24137   1.070   0.972   5.054 -0.4803 -0.3406 -1.5707
  175MOL0     H24138   0.685   0.804   4.979  0.0720 -2.5405 -2.6938
  175MOL0     H24139   0.643   0.973   4.951 -0.6987  0.6115 -1.9046
  175MOL0     H24140   0.741   0.799   4.731 -0.4446 -1.1750 -0.8439
  175MOL0     H24141   0.717   0.977   4.724 -2.7223 -0.6072 -2.3910
  175MOL0     H24142   0.462   0.928   4.787  0.9523  0.2402  0.5207
  175MOL0     H24143   0.512   0.892   4.635  0.4244  2.1031 -0.5762
  175MOL0     H24144   0.506   0.681   4.863  1.9777 -0.2695 -0.9476
  175MOL0     H24145   0.543   0.665   4.684 -1.0432  1.6455 -3.5195
  175MOL0     H24146   0.121   0.744   4.689  0.2871  0.1441 -0.7788
  175MOL0     H24147   0.834   0.641   4.925 -0.9125  0.9556  0.2564
  175MOL0     H24148   0.867   0.418   5.042 -0.2810 -1.4263  3.4411
  175MOL0     H24149   1.019   0.368   4.974  0.4366  0.9441 -2.2188
  175MOL0     H24150   1.002   0.396   5.150  2.9439 -0.8439 -1.3508
  176MOL0     O24151   7.146   5.117   0.598 -0.1086  0.3460 -0.8602
  176MOL0     C24152   7.068   5.054   0.521 -0.4271  0.6003  1.2658
  176MOL0     O24153   7.097   5.027   0.388 -0.3557 -0.2928  0.1127
  176MOL0     C24154   7.194   5.104   0.339  0.0547 -0.1519  0.7041
  176MOL0     C24155   7.180   5.250   0.331  0.1965  0.9475 -1.1591
  176MOL0     C24156   7.286   5.324   0.278 -0.1820  0.0523  0.1225
  176MOL0     C24157   7.412   5.263   0.248  0.5333  0.4941  0.3303
  176MOL0     O24158   7.503   5.343   0.186  0.5127 -0.1150  0.1308
  176MOL0     C24159   7.637   5.339   0.237  0.4545  0.2882 -0.1901
  176MOL0     C24160   7.726   5.341   0.113 -0.3835  0.0980  0.1009
  176MOL0     C24161   7.867   5.284   0.156  0.2879 -0.0001  0.0050
  176MOL0     C24162   7.871   5.133   0.167 -0.2609 -0.1809  0.3019
  176MOL0     C24163   8.018   5.077   0.163 -0.1784  0.0858 -0.0584
  176MOL0     C24164   8.025   4.925   0.162  0.9999 -0.1669  0.1023
  176MOL0     C24165   8.171   4.880   0.173  0.3059  0.6330 -0.3926
  176MOL0     C24166   8.196   4.744   0.242  0.7869 -0.2547  0.2713
  176MOL0     N24167   8.329   4.734   0.298 -0.3426  0.5357  0.8137
  176MOL0     C24168   8.448   4.721   0.233 -0.9186 -0.5470  0.4289
  176MOL0     C24169   8.542   4.689   0.332 -0.0832 -0.4418  0.2527
  176MOL0     C24170   8.680   4.643   0.310  0.6133  0.1921  0.0773
  176MOL0     C24171   8.727   4.709   0.177 -0.8151 -0.3215 -0.1292
  176MOL0     C24172   8.864   4.670   0.149 -0.0982  0.7610  0.4209
  176MOL0     C24173   8.922   4.743   0.024 -0.4008  0.8543 -0.3902
  176MOL0     O24174   9.029   4.656  -0.030  0.4432 -0.3367  0.5185
  176MOL0     C24175   9.092   4.699  -0.141 -0.0193 -0.3088  1.2541
  176MOL0     C24176   9.146   4.609  -0.228 -0.2461  0.1887 -0.0900
  176MOL0     C24177   9.223   4.634  -0.344  0.2990 -0.6623  0.5566
  176MOL0     C24178   9.280   4.515  -0.414 -0.0720  0.3708 -1.0072
  176MOL0     C24179   9.252   4.768  -0.368 -0.2915  0.2615 -0.7779
  176MOL0     C24180   9.337   4.808  -0.475  0.6541 -0.4239  0.8519
  176MOL0     O24181   9.413   4.915  -0.449  0.6218  0.9183 -0.1216
  176MOL0     C24182   9.506   4.960  -0.534  0.4884  0.0964  0.6127
  176MOL0     C24183   9.484   5.070  -0.608  0.0869  0.1603  0.0107
  176MOL0     C24184   9.580   5.110  -0.698 -0.8277 -0.1693  0.4909
  176MOL0     C24185   9.692   5.040  -0.729  0.4191  0.3830  0.2781
  176MOL0     O24186   9.781   5.087  -0.819 -0.2715 -0.7245  0.9067
  176MOL0     C24187   9.859   5.188  -0.765  0.1517 -1.2958 -0.6141
  176MOL0     C24188   9.900   5.308  -0.864 -0.3280  0.3132  0.0437
  176MOL0     C24189  10.023   5.256  -0.949  0.3200  0.4106  0.4258
  176MOL0     C24190   9.989   5.153  -1.060  0.3696 -0.6297 -0.2906
  176MOL0     C24191  10.100   5.146  -1.158 -0.1414  0.4211  0.3205
  176MOL0     C24192  10.237   5.116  -1.100  0.0911  0.5845  0.0543
  176MOL0     C24193  10.347   5.091  -1.205  0.3555  0.3143 -0.0583
  176MOL0     C24194  10.487   5.108  -1.152  1.0340 -0.2325 -0.2738
  176MOL0    Cl24195  10.525   5.283  -1.133  0.5945  0.2132  0.2988
  176MOL0     C24196   9.706   4.915  -0.674  0.6142  0.1376  0.7842
  176MOL0     C24197   9.618   4.877  -0.567  0.6280  0.6226  0.8326
  176MOL0     O24198   9.336   4.750  -0.583  0.3067 -0.0260 -0.2008
  176MOL0     C24199   9.197   4.866  -0.284  0.1497  0.2546  0.2059
  176MOL0     C24200   9.121   4.833  -0.172 -0.6183 -0.4456 -0.1083
  176MOL0     N24201   8.471   4.655   0.453  0.2871 -0.9673 -0.3217
  176MOL0     N24202   8.344   4.694   0.431 -0.5493 -0.1899 -0.4126
  176MOL0     C24203   7.428   5.119   0.265  0.6187 -0.0533 -0.2655
  176MOL0     C24204   7.310   5.046   0.301 -0.2018 -0.6789 -0.1783
  176MOL0     C24205   6.940   5.005   0.577  0.1211 -0.0344  0.2896
  176MOL0     C24206   6.943   4.945   0.698  1.2191 -0.1288 -0.2134
  176MOL0     C24207   6.825   4.897   0.758 -0.5761 -0.2494 -0.0034
  176MOL0     C24208   6.703   4.909   0.694 -0.7483 -1.1122 -1.1003
  176MOL0     O24209   6.582   4.869   0.756  0.7218 -1.0711  0.2003
  176MOL0     C24210   6.474   4.960   0.758  0.4819  0.2316  0.7028
  176MOL0     C24211   6.360   4.893   0.844 -0.3207  0.9163 -0.3438
  176MOL0     C24212   6.283   4.789   0.768  0.2422  0.1006  1.2263
  176MOL0     C24213   6.185   4.841   0.662  0.1983  0.1884 -0.2838
  176MOL0     C24214   6.077   4.924   0.720  0.3721  0.1562 -0.2383
  176MOL0     C24215   5.986   4.994   0.747  0.5929  0.1571 -0.7507
  176MOL0     C24216   6.702   4.976   0.570 -0.1089  0.1859 -0.0242
  176MOL0     C24217   6.817   5.023   0.513  1.0947  0.0664  0.0412
  176MOL0     C24218   6.811   5.075   0.367  0.6737  0.0787 -0.3433
  176MOL0     H24219   7.096   5.297   0.380 -0.0415 -2.9995  2.7685
  176MOL0     H24220   7.281   5.431   0.265 -1.7073  0.1393  1.2557
  176MOL0     H24221   7.658   5.255   0.303 -1.5372 -0.5741 -0.5782
  176MOL0     H24222   7.657   5.426   0.300 -5.7201  1.3232  1.0215
  176MOL0     H24223   7.685   5.292   0.025 -0.5240 -1.3554  0.9467
  176MOL0     H24224   7.735   5.446   0.082 -3.0864 -0.2143 -2.0874
  176MOL0     H24225   7.939   5.304   0.076 -1.7094 -0.2881 -1.9476
  176MOL0     H24226   7.887   5.313   0.260 -3.7977 -0.8259  1.2193
  176MOL0     H24227   7.825   5.102   0.261 -0.0554 -0.5518  0.2829
  176MOL0     H24228   7.820   5.086   0.082  0.6099 -0.8025  0.1085
  176MOL0     H24229   8.060   5.111   0.258 -1.3179 -2.2914  1.3789
  176MOL0     H24230   8.075   5.116   0.078 -1.2754 -2.3428 -2.0607
  176MOL0     H24231   7.956   4.890   0.240  1.6596 -1.1332  0.2623
  176MOL0     H24232   7.998   4.896   0.060 -0.2498  1.8902 -0.2169
  176MOL0     H24233   8.221   4.945   0.246 -1.3741  1.1455  0.3422
  176MOL0     H24234   8.223   4.895   0.078 -1.0482  0.4979 -1.1740
  176MOL0     H24235   8.122   4.754   0.322  0.3032  1.2883 -0.3254
  176MOL0     H24236   8.167   4.664   0.173 -2.7837  1.6778 -0.7306
  176MOL0     H24237   8.444   4.753   0.129 -2.6542 -3.4683 -0.5072
  176MOL0     H24238   8.693   4.534   0.305  0.5450  0.0507  2.1158
  176MOL0     H24239   8.737   4.674   0.398 -1.1241 -3.5258  2.8049
  176MOL0     H24240   8.660   4.677   0.097 -1.3638  0.2732  0.0761
  176MOL0     H24241   8.720   4.818   0.182 -4.4166 -0.3200 -1.9902
  176MOL0     H24242   8.940   4.670   0.228  2.6891  0.7044 -2.0383
  176MOL0     H24243   8.858   4.569   0.109 -0.8107  0.7017  0.6671
  176MOL0     H24244   8.845   4.762  -0.051 -1.3087  0.4711  0.4145
  176MOL0     H24245   8.957   4.840   0.059 -0.9723  0.4280  1.4796
  176MOL0     H24246   9.137   4.503  -0.204  0.6350  0.3439  0.9908
  176MOL0     H24247   9.196   4.479  -0.474 -0.0305 -0.4516 -0.5944
  176MOL0     H24248   9.304   4.433  -0.345 -0.4286 -0.1422 -1.4843
  176MOL0     H24249   9.369   4.526  -0.477 -0.6315 -0.3635 -1.9396
  176MOL0     H24250   9.396   5.130  -0.585 -0.6675 -1.0000  0.2581
  176MOL0     H24251   9.559   5.200  -0.755  1.3830 -1.0370 -1.8776
  176MOL0     H24252   9.814   5.237  -0.678  0.4652 -2.0835  0.0110
  176MOL0     H24253   9.954   5.141  -0.735 -0.1065 -1.4236  0.0230
  176MOL0     H24254   9.820   5.334  -0.934  0.3185 -1.9273 -1.6425
  176MOL0     H24255   9.923   5.399  -0.808  0.7763  0.4492 -0.5869
  176MOL0     H24256  10.107   5.227  -0.886  0.6416  1.6019  0.5744
  176MOL0     H24257  10.056   5.343  -1.007  1.0094 -0.9656 -1.3657
  176MOL0     H24258   9.901   5.186  -1.116 -0.0319 -2.6493 -0.9488
  176MOL0     H24259   9.971   5.052  -1.021  1.0918 -0.1747  1.2846
  176MOL0     H24260  10.072   5.071  -1.232 -3.3752 -0.7400  2.5206
  176MOL0     H24261  10.110   5.242  -1.209 -1.5637  0.4227 -0.0057
  176MOL0     H24262  10.233   5.018  -1.052 -1.7273  0.4828 -0.2364
  176MOL0     H24263  10.270   5.199  -1.037 -0.5694  1.5152 -0.7803
  176MOL0     H24264  10.342   5.161  -1.289  0.7434  3.3569  2.2698
  176MOL0     H24265  10.334   4.985  -1.229 -0.5686  0.7266 -1.4505
  176MOL0     H24266  10.563   5.058  -1.213  0.7486 -2.0331  0.7663
  176MOL0     H24267  10.492   5.062  -1.053  0.8012 -1.1336 -0.6695
  176MOL0     H24268   9.784   4.847  -0.707  1.2087  0.0151  2.3376
  176MOL0     H24269   9.631   4.783  -0.515 -1.4154  0.9560  2.0505
  176MOL0     H24270   9.216   4.973  -0.287 -1.9105  0.6741  0.8695
  176MOL0     H24271   9.099   4.918  -0.108 -1.5776 -0.4691 -0.3796
  176MOL0     H24272   7.529   5.089   0.238  0.7436  0.3576 -0.2564
  176MOL0     H24273   7.320   4.938   0.307  1.1515 -0.5057  3.2010
  176MOL0     H24274   7.038   4.933   0.748  1.8163 -1.0623 -1.5040
  176MOL0     H24275   6.834   4.841   0.851 -0.6684  1.6394  1.2216
  176MOL0     H24276   6.504   5.053   0.808  0.6728 -0.0684  1.1549
  176MOL0     H24277   6.435   4.986   0.660 -0.7045  0.1397  1.1293
  176MOL0     H24278   6.289   4.973   0.868 -2.3196 -0.4238 -1.5060
  176MOL0     H24279   6.403   4.856   0.938 -1.5250  2.5582  0.9284
  176MOL0     H24280   6.354   4.722   0.719  0.1002 -0.4203  1.7299
  176MOL0     H24281   6.230   4.726   0.839  1.4167  0.0467  2.0813
  176MOL0     H24282   6.138   4.755   0.614 -1.4230  0.1496  1.2637
  176MOL0     H24283   6.249   4.893   0.590  0.4570 -1.5725 -1.3837
  176MOL0     H24284   5.907   5.055   0.788  1.0884  0.2286  0.1389
  176MOL0     H24285   6.613   4.976   0.509 -0.7790  0.7913  0.9329
  176MOL0     H24286   6.861   5.003   0.302 -0.5895 -0.2171 -1.0282
  176MOL0     H24287   6.706   5.079   0.337  0.6028 -1.2822 -0.3386
  176MOL0     H24288   6.865   5.169   0.349 -1.6307  0.9445 -3.7937
  177MOL0     O24289  10.947   4.868   4.148 -0.7809  0.0325  0.0296
  177MOL0     C24290  10.947   4.828   4.031  1.0817  0.4599 -0.2999
  177MOL0     O24291  10.853   4.871   3.937 -0.4802  0.4952 -0.1252
  177MOL0     C24292  10.763   4.959   3.979  0.2549 -0.1814  0.1546
  177MOL0     C24293  10.787   5.094   4.003 -0.6894  0.5402 -0.3764
  177MOL0     C24294  10.683   5.174   4.028  0.5501  0.0173  1.1836
  177MOL0     C24295  10.551   5.129   4.036 -0.5195 -0.5032  1.0863
  177MOL0     O24296  10.464   5.211   4.088 -0.5188  0.8096 -0.4375
  177MOL0     C24297  10.470   5.244   4.221 -0.7289 -1.0736 -1.2609
  177MOL0     C24298  10.336   5.247   4.293 -0.8074 -0.4057  0.8631
  177MOL0     C24299  10.240   5.350   4.226  0.9873 -0.7113  0.2133
  177MOL0     C24300  10.125   5.374   4.326  0.9798  0.0464  0.2576
  177MOL0     C24301  10.009   5.453   4.261  0.4145 -0.5551  0.4803
  177MOL0     C24302  10.023   5.609   4.285 -0.2710  0.3213 -0.4848
  177MOL0     C24303  10.142   5.679   4.221 -0.0125 -0.5570 -0.2164
  177MOL0     C24304  10.107   5.818   4.162  0.4771  1.2867  0.3714
  177MOL0     N24305  10.226   5.884   4.117 -0.3226  0.2407  0.9716
  177MOL0     C24306  10.333   5.817   4.062 -0.3191 -0.6757  0.2319
  177MOL0     C24307  10.432   5.919   4.045  0.1055  0.1909 -0.0121
  177MOL0     C24308  10.559   5.874   3.991 -0.9474 -0.0770  0.3841
  177MOL0     C24309  10.678   5.963   4.043  0.4758 -0.3529  0.3031
  177MOL0     C24310  10.699   5.950   4.197  0.4567 -0.3589  0.0957
  177MOL0     C24311  10.829   6.011   4.237 -0.6422  0.6311 -0.1651
  177MOL0     O24312  10.928   5.902   4.232 -0.7724 -0.3226 -0.5821
  177MOL0     C24313  11.059   5.927   4.265 -0.4548  0.5847  0.3293
  177MOL0     C24314  11.107   6.060   4.298  0.6821 -0.4295 -0.4190
  177MOL0     C24315  11.240   6.085   4.335  0.2973 -0.7170 -0.1315
  177MOL0     C24316  11.277   6.216   4.402  0.0111  0.5413  0.3519
  177MOL0     C24317  11.327   5.970   4.332  0.1117 -0.3369  0.8345
  177MOL0     C24318  11.469   5.972   4.383 -0.3302 -0.2268  0.0060
  177MOL0     O24319  11.563   5.887   4.329  0.3672 -0.1382  0.3160
  177MOL0     C24320  11.697   5.899   4.372  0.6367 -0.0522  0.0915
  177MOL0     C24321  11.797   5.935   4.279  0.6615 -0.1367 -0.1443
  177MOL0     C24322  11.926   5.940   4.328 -0.0567  0.7077  0.3360
  177MOL0     C24323  11.959   5.902   4.459  0.2362 -0.0417 -0.3736
  177MOL0     O24324  12.088   5.907   4.506  0.5638 -0.2038  0.6023
  177MOL0     C24325  12.190   5.959   4.415  0.1800  0.3435  0.1314
  177MOL0     C24326  12.329   5.963   4.488  0.1488  0.1345  0.4427
  177MOL0     C24327  12.426   6.046   4.400 -1.4507 -0.1589 -0.0704
  177MOL0     C24328  12.515   5.959   4.301  0.3708 -0.6187  0.2910
  177MOL0     C24329  12.658   6.010   4.295 -0.8146 -0.6787  0.2611
  177MOL0     C24330  12.748   5.909   4.222 -0.0804  0.5753  0.5569
  177MOL0     C24331  12.733   5.910   4.070 -0.6352  0.5215 -1.3453
  177MOL0     C24332  12.806   5.793   4.006  0.6057 -0.4443 -0.1354
  177MOL0    Cl24333  12.739   5.637   4.066  0.0272  0.0815  0.1706
  177MOL0     C24334  11.856   5.874   4.550 -0.8903 -0.4156  0.7003
  177MOL0     C24335  11.726   5.868   4.502 -0.3046  0.0302 -0.0333
  177MOL0     O24336  11.499   6.050   4.473  0.6309  0.0218 -0.0672
  177MOL0     C24337  11.282   5.844   4.291  0.6010  0.1394  0.3303
  177MOL0     C24338  11.150   5.819   4.268 -0.0071  0.3247 -0.2022
  177MOL0     N24339  10.384   6.038   4.095  1.1292 -0.5042  0.2354
  177MOL0     N24340  10.262   6.012   4.143 -0.4328  0.0527 -0.5712
  177MOL0     C24341  10.519   4.994   4.015 -0.2635  0.3792  0.7574
  177MOL0     C24342  10.626   4.909   3.982 -0.3754 -0.0461  0.5451
  177MOL0     C24343  11.068   4.740   3.978  0.0821  0.3215 -0.5483
  177MOL0     C24344  11.102   4.758   3.842 -0.4843 -0.8698  0.7266
  177MOL0     C24345  11.199   4.681   3.779 -0.6820 -0.3849 -0.5950
  177MOL0     C24346  11.273   4.597   3.866 -1.5396 -0.9326  0.0926
  177MOL0     O24347  11.376   4.542   3.788 -0.8840  0.3188 -0.6221
  177MOL0     C24348  11.505   4.542   3.852  0.0456 -0.0268  0.8564
  177MOL0     C24349  11.580   4.681   3.823  0.4054  0.0517 -0.0724
  177MOL0     C24350  11.613   4.703   3.673 -0.6638 -1.5685 -0.1644
  177MOL0     C24351  11.687   4.841   3.654 -0.3754  0.4838  0.4825
  177MOL0     C24352  11.798   4.864   3.742 -0.9835 -0.4399  0.0551
  177MOL0     C24353  11.898   4.892   3.810 -0.8891 -0.4346  0.6900
  177MOL0     C24354  11.243   4.567   3.997  0.1846  0.0459 -0.1256
  177MOL0     C24355  11.139   4.639   4.056  0.8323 -0.7758 -0.0830
  177MOL0     C24356  11.101   4.596   4.190 -0.6104  0.3427 -0.2428
  177MOL0     H24357  10.890   5.127   4.003 -0.6561  0.4574  0.2729
  177MOL0     H24358  10.715   5.277   4.034  1.0577 -0.2005  2.9802
  177MOL0     H24359  10.524   5.339   4.221  1.8658 -2.4314 -2.2369
  177MOL0     H24360  10.536   5.175   4.275  1.9363  2.6590  0.7825
  177MOL0     H24361  10.294   5.148   4.275 -1.0270 -0.3718  1.1836
  177MOL0     H24362  10.349   5.268   4.400 -2.2353 -2.0694  1.4079
  177MOL0     H24363  10.293   5.445   4.225 -1.0630  0.5642  2.0520
  177MOL0     H24364  10.202   5.318   4.129  0.5262 -1.8936  0.7615
  177MOL0     H24365  10.090   5.272   4.347 -0.0170  0.3125 -0.0872
  177MOL0     H24366  10.170   5.410   4.420  2.4825 -1.7939  0.3013
  177MOL0     H24367   9.918   5.415   4.308 -1.1565  2.8114  0.4236
  177MOL0     H24368  10.002   5.435   4.154 -0.4241  0.6653  0.3132
  177MOL0     H24369   9.934   5.665   4.254 -0.8033  0.6690  1.5342
  177MOL0     H24370  10.023   5.624   4.394 -0.2603 -0.8278 -0.3183
  177MOL0     H24371  10.183   5.608   4.148  3.0233 -3.1242  3.5618
  177MOL0     H24372  10.208   5.697   4.306 -1.4603 -1.3854  1.1564
  177MOL0     H24373  10.040   5.811   4.076  2.4500 -0.2105 -1.1542
  177MOL0     H24374  10.070   5.878   4.245  2.9020  0.0294  2.4913
  177MOL0     H24375  10.332   5.711   4.038 -0.4178 -0.0327 -3.0189
  177MOL0     H24376  10.559   5.885   3.883  0.6451 -1.6051  0.1936
  177MOL0     H24377  10.567   5.771   4.029  1.5486 -0.2775 -0.5494
  177MOL0     H24378  10.768   5.939   3.985  3.0428  4.9302  1.4637
  177MOL0     H24379  10.650   6.067   4.023 -3.6420 -1.5614 -1.1530
  177MOL0     H24380  10.613   5.995   4.248 -1.6398 -2.3440 -1.4528
  177MOL0     H24381  10.692   5.843   4.218  1.4505 -0.1894  1.3607
  177MOL0     H24382  10.837   6.089   4.162 -2.7158 -1.3369 -2.6212
  177MOL0     H24383  10.831   6.049   4.340  0.0528  0.8064 -0.2393
  177MOL0     H24384  11.034   6.140   4.307  0.7355 -0.2916 -1.1088
  177MOL0     H24385  11.351   6.259   4.335  1.1930 -3.3184 -1.0222
  177MOL0     H24386  11.311   6.214   4.506 -1.6719  3.2723  1.0835
  177MOL0     H24387  11.180   6.268   4.404 -2.1216 -3.0934  3.1504
  177MOL0     H24388  11.767   5.966   4.180  1.5749  1.9229  0.1754
  177MOL0     H24389  11.996   5.965   4.249 -0.8114  2.6087  0.2376
  177MOL0     H24390  12.202   5.896   4.326  2.8926  1.1656 -0.1795
  177MOL0     H24391  12.165   6.060   4.382  2.4418 -0.2088 -3.9269
  177MOL0     H24392  12.325   6.003   4.589 -1.5495 -0.3094  0.5947
  177MOL0     H24393  12.349   5.855   4.491 -3.1447 -0.6513 -0.9609
  177MOL0     H24394  12.486   6.107   4.468  0.5054 -0.1914 -1.6402
  177MOL0     H24395  12.375   6.116   4.333  0.0965  0.1089 -1.0278
  177MOL0     H24396  12.461   5.952   4.206  1.0692 -1.8481 -0.0539
  177MOL0     H24397  12.528   5.859   4.344  1.4425 -1.3096 -1.4923
  177MOL0     H24398  12.658   6.113   4.260 -2.5431 -0.1482  1.6963
  177MOL0     H24399  12.687   6.007   4.400 -1.1562 -1.0116  0.3464
  177MOL0     H24400  12.740   5.805   4.256  0.1065  0.2298 -0.4184
  177MOL0     H24401  12.849   5.945   4.246 -1.1627  1.3192  4.7402
  177MOL0     H24402  12.788   5.996   4.031  1.0690  0.2626  0.3430
  177MOL0     H24403  12.628   5.916   4.041 -1.2637  0.5074  0.7667
  177MOL0     H24404  12.913   5.807   4.025  1.0337  0.2507 -2.6873
  177MOL0     H24405  12.783   5.802   3.899 -0.6068  3.1500  0.2909
  177MOL0     H24406  11.880   5.842   4.652  4.2891  0.3799  0.0198
  177MOL0     H24407  11.635   5.840   4.553  0.7993 -1.0997  1.4114
  177MOL0     H24408  11.355   5.763   4.297 -0.8815 -1.1741  1.6600
  177MOL0     H24409  11.122   5.714   4.261 -2.0430  0.8774 -1.1042
  177MOL0     H24410  10.423   4.954   4.045 -0.5478  2.4612  3.0169
  177MOL0     H24411  10.610   4.803   3.973  2.5564 -0.4190 -1.8814
  177MOL0     H24412  11.054   4.827   3.774 -0.3001 -0.2733  1.1873
  177MOL0     H24413  11.223   4.686   3.674 -1.1968 -0.5596 -0.7208
  177MOL0     H24414  11.492   4.545   3.961 -1.6346 -1.7498  0.7553
  177MOL0     H24415  11.568   4.458   3.822  0.3543  0.6658 -0.5216
  177MOL0     H24416  11.671   4.677   3.884  0.9741 -1.3909 -0.9771
  177MOL0     H24417  11.520   4.767   3.855 -1.5981 -0.3596 -2.4072
  177MOL0     H24418  11.679   4.620   3.647  1.2754  0.3648 -1.7848
  177MOL0     H24419  11.517   4.687   3.625 -0.0560 -3.2936 -0.8798
  177MOL0     H24420  11.608   4.915   3.644 -0.8483 -0.2322 -1.6337
  177MOL0     H24421  11.738   4.838   3.557 -0.4280 -0.0556  0.4649
  177MOL0     H24422  11.983   4.911   3.871 -1.5399 -1.3116  1.9009
  177MOL0     H24423  11.302   4.490   4.045 -1.2156 -0.4358  0.8590
  177MOL0     H24424  11.151   4.659   4.264  1.6868  2.0277 -3.0573
  177MOL0     H24425  10.992   4.598   4.205 -0.1355 -0.1152  5.2691
  177MOL0     H24426  11.116   4.488   4.198 -1.7158  0.1243 -0.8351
  178MOL0     O24427   1.959   1.462   1.986 -0.1098 -0.7032  0.2911
  178MOL0     C24428   1.947   1.469   1.858 -0.9133 -0.6788 -0.2685
  178MOL0     O24429   2.053   1.433   1.771  0.1503  0.4098  0.1167
  178MOL0     C24430   2.144   1.345   1.827  0.2050 -0.9460  0.0033
  178MOL0     C24431   2.280   1.374   1.813  0.9740 -0.0466  0.4173
  178MOL0     C24432   2.375   1.285   1.862  0.4530 -0.9670 -0.0010
  178MOL0     C24433   2.339   1.161   1.916 -0.5911  0.2814  0.6714
  178MOL0     O24434   2.431   1.065   1.961 -0.1946  0.4113  0.5007
  178MOL0     C24435   2.570   1.066   1.914  0.9681 -0.3695  0.3302
  178MOL0     C24436   2.651   0.941   1.948  0.4561  0.2777  0.0937
  178MOL0     C24437   2.787   0.917   1.880 -0.3816  0.0846 -0.1130
  178MOL0     C24438   2.876   1.041   1.896 -0.1466  0.2128 -1.1681
  178MOL0     C24439   3.015   1.022   1.838  0.1016 -0.1694  0.2812
  178MOL0     C24440   3.104   0.928   1.928  0.4437  0.3091  0.3232
  178MOL0     C24441   3.253   0.928   1.879  0.3604 -0.2127  0.4352
  178MOL0     C24442   3.353   0.841   1.955 -0.1712  0.2092 -0.3730
  178MOL0     N24443   3.482   0.836   1.879  0.6126 -0.6187 -0.6048
  178MOL0     C24444   3.585   0.925   1.887 -0.0311  0.7174  0.0822
  178MOL0     C24445   3.676   0.870   1.800 -0.2888  0.0998 -0.8332
  178MOL0     C24446   3.814   0.930   1.773 -0.1095 -0.4807  0.0385
  178MOL0     C24447   3.893   0.872   1.657  0.4985 -0.1141 -0.0441
  178MOL0     C24448   4.034   0.936   1.641  0.0940 -0.1045  0.0658
  178MOL0     C24449   4.116   0.852   1.545  0.6453  0.0769 -1.3800
  178MOL0     O24450   4.247   0.897   1.557 -0.4103  0.7015 -0.4208
  178MOL0     C24451   4.325   0.849   1.459  0.7500  0.0654  0.7827
  178MOL0     C24452   4.313   0.722   1.395  0.2049  0.4643 -0.0798
  178MOL0     C24453   4.369   0.686   1.277  0.2018 -0.7047  0.5665
  178MOL0     C24454   4.316   0.560   1.212  0.5046 -0.1966 -0.8038
  178MOL0     C24455   4.453   0.783   1.206 -0.1522 -0.7200 -0.3274
  178MOL0     C24456   4.539   0.749   1.092  0.3496 -0.5526  0.5301
  178MOL0     O24457   4.632   0.844   1.043 -0.5008 -0.7479 -0.7137
  178MOL0     C24458   4.717   0.802   0.944 -0.1148  0.4617  0.4520
  178MOL0     C24459   4.850   0.773   0.958  0.2361  0.2068 -0.3754
  178MOL0     C24460   4.941   0.761   0.843  0.4436  1.1055 -0.3788
  178MOL0     C24461   4.897   0.765   0.712  0.5556 -0.6619 -0.5128
  178MOL0     O24462   4.976   0.761   0.601 -0.5000  0.1306  0.5059
  178MOL0     C24463   5.107   0.694   0.613  0.3962 -0.4046  0.0719
  178MOL0     C24464   5.130   0.619   0.477 -0.1296 -0.1761  0.0860
  178MOL0     C24465   5.276   0.602   0.441  0.1981 -0.8680 -0.3200
  178MOL0     C24466   5.285   0.545   0.300  0.2041  0.4323  0.2038
  178MOL0     C24467   5.430   0.494   0.288 -0.3339  0.0430  0.7202
  178MOL0     C24468   5.439   0.421   0.154 -0.2941  0.9862 -0.3231
  178MOL0     C24469   5.585   0.426   0.114  0.3725  1.1051 -0.8632
  178MOL0     C24470   5.684   0.355   0.213  0.2598  0.5120 -0.3817
  178MOL0    Cl24471   5.838   0.306   0.134  0.0646 -0.4839 -0.1890
  178MOL0     C24472   4.758   0.783   0.706  0.9204 -0.4973  0.1763
  178MOL0     C24473   4.672   0.810   0.815  0.3341  0.3656 -0.2104
  178MOL0     O24474   4.535   0.634   1.045 -0.0928  0.1981 -0.4437
  178MOL0     C24475   4.471   0.903   1.267  0.3668 -0.3516 -1.1230
  178MOL0     C24476   4.406   0.940   1.386 -0.1115  0.2984 -0.0975
  178MOL0     N24477   3.632   0.748   1.747 -0.9509  1.0329 -0.4450
  178MOL0     N24478   3.520   0.738   1.790  0.5098  0.4765 -0.0691
  178MOL0     C24479   2.198   1.133   1.931 -0.9518 -0.3116  0.4063
  178MOL0     C24480   2.106   1.225   1.882 -0.1116  0.6301 -0.2149
  178MOL0     C24481   1.829   1.525   1.789 -0.9177 -0.0544  0.1902
  178MOL0     C24482   1.839   1.580   1.662 -1.0291  0.5247  0.3298
  178MOL0     C24483   1.732   1.642   1.601  0.7780 -0.3792 -0.2688
  178MOL0     C24484   1.600   1.634   1.659  0.3845  0.6742  0.3683
  178MOL0     O24485   1.502   1.705   1.594 -0.2121 -0.9549  0.0495
  178MOL0     C24486   1.371   1.717   1.661 -0.1016 -0.3189  0.9569
  178MOL0     C24487   1.289   1.819   1.580 -0.6433 -0.8657  0.5640
  178MOL0     C24488   1.145   1.816   1.621  0.6185  0.1124  0.6575
  178MOL0     C24489   1.059   1.900   1.514  0.0401  0.0847  0.5801
  178MOL0     C24490   1.042   2.042   1.535 -0.1486 -0.4911 -0.7339
  178MOL0     C24491   1.026   2.161   1.559 -0.2323 -0.1274  0.0928
  178MOL0     C24492   1.586   1.548   1.766  0.8582  0.1661  0.2230
  178MOL0     C24493   1.696   1.502   1.839 -0.7946  0.4104  0.1662
  178MOL0     C24494   1.664   1.442   1.978 -0.2450 -0.3029  0.7239
  178MOL0     H24495   2.317   1.465   1.768  0.1462 -0.0708 -0.3334
  178MOL0     H24496   2.481   1.308   1.864  0.2255  0.4038 -1.7822
  178MOL0     H24497   2.624   1.142   1.971  1.3221 -0.7799  0.5465
  178MOL0     H24498   2.567   1.087   1.807 -0.8135 -0.9938  0.2255
  178MOL0     H24499   2.666   0.953   2.056  1.4985 -1.5957  0.1858
  178MOL0     H24500   2.595   0.848   1.937  0.4942  0.3276 -0.5371
  178MOL0     H24501   2.830   0.830   1.931 -3.0747 -0.8509  0.7399
  178MOL0     H24502   2.774   0.894   1.774 -1.9709  0.2795  0.0183
  178MOL0     H24503   2.835   1.126   1.840 -2.2748 -0.9367 -1.4594
  178MOL0     H24504   2.883   1.068   2.001 -2.3097 -2.2410 -0.2888
  178MOL0     H24505   3.060   1.120   1.823  0.0118 -0.0825  0.5914
  178MOL0     H24506   3.018   0.991   1.733 -0.0646 -0.0570  0.2422
  178MOL0     H24507   3.092   0.964   2.031  2.9883  1.8145  0.1836
  178MOL0     H24508   3.055   0.832   1.913 -0.3457  0.9032 -1.1270
  178MOL0     H24509   3.284   1.031   1.859  2.3142 -1.3246 -3.0342
  178MOL0     H24510   3.250   0.883   1.780  1.8248  0.0057  0.2698
  178MOL0     H24511   3.361   0.890   2.052 -0.6218 -0.2289 -0.1078
  178MOL0     H24512   3.317   0.738   1.958 -0.1554  0.1453 -1.6770
  178MOL0     H24513   3.596   1.013   1.950 -0.3982 -0.7939  2.4093
  178MOL0     H24514   3.873   0.925   1.865 -1.4113  0.8810  0.9963
  178MOL0     H24515   3.800   1.039   1.764  1.1461 -0.4898 -3.5395
  178MOL0     H24516   3.908   0.765   1.671  1.8547 -0.8108 -4.9949
  178MOL0     H24517   3.843   0.876   1.559 -3.8080 -0.2262  1.9233
  178MOL0     H24518   4.030   1.038   1.602  4.8295  1.5781  3.0339
  178MOL0     H24519   4.082   0.946   1.739 -0.5292  5.6317  0.0654
  178MOL0     H24520   4.123   0.751   1.589 -1.0664  0.0218 -1.1495
  178MOL0     H24521   4.078   0.854   1.443  1.3496  0.8504 -1.6287
  178MOL0     H24522   4.249   0.651   1.446 -1.2496  1.0363 -1.0370
  178MOL0     H24523   4.396   0.488   1.194  1.8894  0.0427  3.2350
  178MOL0     H24524   4.277   0.597   1.117  2.3768  0.9057 -1.1948
  178MOL0     H24525   4.227   0.517   1.258 -1.3152  1.0401 -2.9402
  178MOL0     H24526   4.895   0.767   1.057 -1.9331 -0.8588  0.6120
  178MOL0     H24527   5.047   0.753   0.864 -0.0934  0.0500  2.3016
  178MOL0     H24528   5.184   0.768   0.638 -0.7823  0.4518  1.2569
  178MOL0     H24529   5.117   0.622   0.694  1.7344  1.7371  1.9215
  178MOL0     H24530   5.084   0.521   0.494 -0.4638  0.1476  1.1139
  178MOL0     H24531   5.082   0.672   0.395 -0.2021 -1.3971 -0.6833
  178MOL0     H24532   5.320   0.545   0.524  0.8465  1.3487  0.9244
  178MOL0     H24533   5.331   0.696   0.444  1.1045 -1.4160  1.3403
  178MOL0     H24534   5.265   0.625   0.229 -3.0552 -2.5796 -2.6498
  178MOL0     H24535   5.223   0.461   0.268  0.8801  0.7384 -2.0421
  178MOL0     H24536   5.499   0.579   0.282 -0.5238  0.4117  2.9602
  178MOL0     H24537   5.464   0.423   0.364  2.1043  0.1424 -0.1925
  178MOL0     H24538   5.382   0.471   0.075 -1.1312 -0.0391 -0.3769
  178MOL0     H24539   5.401   0.319   0.163  1.8706  0.2940  1.8831
  178MOL0     H24540   5.619   0.529   0.097 -1.7744  1.7207 -1.7398
  178MOL0     H24541   5.597   0.363   0.025 -1.1310  0.5634 -0.6986
  178MOL0     H24542   5.637   0.263   0.250  0.9859  0.7105  1.0956
  178MOL0     H24543   5.716   0.424   0.292 -1.1905  1.6449 -0.7510
  178MOL0     H24544   4.731   0.768   0.602  1.4459  0.9739 -0.1893
  178MOL0     H24545   4.567   0.830   0.797  0.3143  0.6433  0.2102
  178MOL0     H24546   4.540   0.972   1.220 -1.0056  1.6196 -0.3904
  178MOL0     H24547   4.413   1.043   1.421  4.4717 -0.1048  0.8993
  178MOL0     H24548   2.152   1.042   1.968  0.9272 -1.4597  0.0854
  178MOL0     H24549   1.999   1.203   1.883 -0.0644  0.3912  1.1530
  178MOL0     H24550   1.935   1.587   1.611 -0.4626  2.7632  1.5323
  178MOL0     H24551   1.735   1.707   1.514 -2.0401  0.5424  0.2292
  178MOL0     H24552   1.324   1.618   1.655  1.6681 -1.1220 -1.3131
  178MOL0     H24553   1.383   1.751   1.764  0.9491 -2.3509  1.5599
  178MOL0     H24554   1.304   1.805   1.473 -2.7390  3.1821 -0.4844
  178MOL0     H24555   1.312   1.925   1.596  1.1115 -0.9728 -0.9443
  178MOL0     H24556   1.109   1.713   1.616 -1.1671  0.7156  0.2869
  178MOL0     H24557   1.139   1.850   1.724  1.8696 -2.6823  1.7369
  178MOL0     H24558   0.954   1.870   1.519  0.0624 -0.8282 -2.6573
  178MOL0     H24559   1.085   1.888   1.409 -1.9193  3.9547 -0.5476
  178MOL0     H24560   0.992   2.261   1.576  1.1557  0.2845  0.4899
  178MOL0     H24561   1.485   1.521   1.795 -0.9998  2.3837 -3.3983
  178MOL0     H24562   1.698   1.338   1.986  1.3874 -0.0077 -1.3266
  178MOL0     H24563   1.720   1.496   2.055  1.5184 -0.6046 -0.2758
  178MOL0     H24564   1.559   1.450   2.007 -1.3935  0.9971 -3.1094
  179MOL0     O24565   9.087   9.295   7.682 -0.0698 -0.6118  0.4636
  179MOL0     C24566   8.971   9.338   7.705 -0.0401  0.3408  0.0782
  179MOL0     O24567   8.930   9.462   7.735 -0.4438  0.3881 -0.6041
  179MOL0     C24568   9.012   9.561   7.704 -0.5106  0.2894  0.5044
  179MOL0     C24569   9.029   9.592   7.571 -0.5787 -0.4096 -0.9225
  179MOL0     C24570   9.120   9.691   7.533 -0.2140 -0.6908 -0.4922
  179MOL0     C24571   9.203   9.756   7.625 -0.4844 -0.6081  0.6775
  179MOL0     O24572   9.295   9.843   7.575  0.0115 -0.4137  0.0010
  179MOL0     C24573   9.415   9.870   7.641 -0.4620 -1.3224 -0.4032
  179MOL0     C24574   9.522   9.936   7.554 -0.4583 -0.3037  0.4492
  179MOL0     C24575   9.528   9.889   7.404  1.1197 -0.5012  0.2591
  179MOL0     C24576   9.656   9.919   7.317 -0.4927 -0.2677 -0.2866
  179MOL0     C24577   9.694  10.067   7.318 -0.0111  1.0244  0.3830
  179MOL0     C24578   9.597  10.159   7.243 -0.7606  0.6964 -0.5077
  179MOL0     C24579   9.663  10.294   7.200 -0.6285  0.4358  0.2924
  179MOL0     C24580   9.579  10.419   7.169  0.1008  0.6738  0.1882
  179MOL0     N24581   9.660  10.535   7.170 -0.1592 -0.5932  0.2830
  179MOL0     C24582   9.696  10.594   7.290 -0.6586  0.0929 -0.4358
  179MOL0     C24583   9.768  10.708   7.251 -0.2322 -0.0533 -0.3151
  179MOL0     C24584   9.840  10.805   7.343  0.3454 -0.2105 -0.5920
  179MOL0     C24585   9.923  10.733   7.452  0.8974 -0.3821 -0.2915
  179MOL0     C24586  10.026  10.638   7.398  0.3895 -0.4149 -0.1589
  179MOL0     C24587  10.138  10.700   7.302  0.7004 -0.4751 -0.4776
  179MOL0     O24588  10.225  10.608   7.229 -0.1386 -0.2911  1.1575
  179MOL0     C24589  10.161  10.500   7.175 -0.2175  0.0946 -0.1552
  179MOL0     C24590  10.196  10.368   7.198  0.8732  0.9187  0.0971
  179MOL0     C24591  10.131  10.261   7.132 -0.6815  0.6755  0.8472
  179MOL0     C24592  10.161  10.113   7.168  0.3058 -0.2251 -0.0507
  179MOL0     C24593  10.038  10.292   7.030  0.6626 -1.5154  0.2312
  179MOL0     C24594   9.972  10.204   6.940  1.0387  0.7826  0.4515
  179MOL0     O24595  10.032  10.080   6.910 -0.7048 -0.8771 -0.5541
  179MOL0     C24596   9.964   9.995   6.826  0.0844  0.5783 -0.3998
  179MOL0     C24597   9.840   9.947   6.848 -0.1248 -0.4123  0.1570
  179MOL0     C24598   9.771   9.867   6.754 -0.2925  0.4066 -0.3381
  179MOL0     C24599   9.840   9.819   6.642 -0.0494 -0.4379 -0.0410
  179MOL0     O24600   9.782   9.745   6.541 -0.0560  0.1049  0.0088
  179MOL0     C24601   9.658   9.682   6.573 -1.1463  0.2357 -0.7593
  179MOL0     C24602   9.594   9.616   6.452  0.0230 -0.3335 -0.5109
  179MOL0     C24603   9.478   9.522   6.484 -0.2076 -0.4866  0.7275
  179MOL0     C24604   9.363   9.548   6.389  1.0060  0.0999 -0.7758
  179MOL0     C24605   9.240   9.484   6.450 -0.4700 -0.6646 -0.3776
  179MOL0     C24606   9.177   9.557   6.571 -0.5121 -0.5724  0.5092
  179MOL0     C24607   9.083   9.451   6.631 -0.4464  0.0282 -0.2329
  179MOL0     C24608   8.950   9.459   6.560  0.4318 -0.7446  0.6364
  179MOL0    Cl24609   8.832   9.373   6.666 -0.2283 -0.1843  0.3008
  179MOL0     C24610   9.966   9.859   6.624 -0.5049 -0.3393 -0.3192
  179MOL0     C24611  10.029   9.956   6.711 -0.8012 -0.9180 -0.5596
  179MOL0     O24612   9.866  10.238   6.891  0.1468 -0.5747 -0.3400
  179MOL0     C24613   9.996  10.426   7.012 -0.7087  0.5845  0.6569
  179MOL0     C24614  10.061  10.532   7.080 -0.4586  0.9017 -0.3164
  179MOL0     N24615   9.774  10.709   7.112 -0.4887  0.3794 -0.0960
  179MOL0     N24616   9.697  10.612   7.066  0.2050 -0.3548  0.9655
  179MOL0     C24617   9.178   9.730   7.760  0.1269 -0.2882  0.0142
  179MOL0     C24618   9.087   9.634   7.801  0.4443 -0.6614  0.0506
  179MOL0     C24619   8.871   9.226   7.716  0.1280 -0.4386  0.1847
  179MOL0     C24620   8.894   9.115   7.794 -0.0066 -0.4758  0.5230
  179MOL0     C24621   8.816   9.008   7.801  0.4594 -0.2044 -0.4927
  179MOL0     C24622   8.699   8.995   7.725 -0.4188 -0.0389  0.6507
  179MOL0     O24623   8.621   8.881   7.699  0.3973 -0.1106 -0.2163
  179MOL0     C24624   8.641   8.769   7.781 -0.3764 -0.2793 -0.3169
  179MOL0     C24625   8.542   8.659   7.757 -0.4691 -0.5749  0.5089
  179MOL0     C24626   8.395   8.708   7.774 -0.7676 -0.4909  0.1500
  179MOL0     C24627   8.349   8.741   7.916 -0.6210  0.9887 -1.0617
  179MOL0     C24628   8.220   8.807   7.921 -0.2346 -0.2248 -0.3716
  179MOL0     C24629   8.120   8.875   7.943  0.4440  0.4832 -0.5038
  179MOL0     C24630   8.677   9.105   7.636  0.5597  0.8462 -0.0532
  179MOL0     C24631   8.755   9.215   7.629  0.0141 -0.2931 -0.1878
  179MOL0     C24632   8.710   9.336   7.539  0.3724  0.3004  0.7538
  179MOL0     H24633   8.971   9.536   7.500 -1.7823 -1.4668  0.8069
  179MOL0     H24634   9.129   9.727   7.431  1.5051 -1.7720 -0.7682
  179MOL0     H24635   9.452   9.770   7.666 -0.4488 -1.8054 -2.2112
  179MOL0     H24636   9.403   9.933   7.730 -1.0758 -2.2666  0.1988
  179MOL0     H24637   9.509  10.045   7.556  2.4230  0.1321 -0.7423
  179MOL0     H24638   9.620   9.916   7.598 -1.0756  0.4256  2.2944
  179MOL0     H24639   9.520   9.780   7.411 -0.4443 -0.3602  1.0942
  179MOL0     H24640   9.441   9.936   7.356 -0.6331 -1.0272  2.7662
  179MOL0     H24641   9.742   9.858   7.348  0.2484  0.3083 -1.1346
  179MOL0     H24642   9.637   9.881   7.217 -0.3296 -3.0551  0.6530
  179MOL0     H24643   9.795  10.077   7.276  0.4533  2.1998  1.7022
  179MOL0     H24644   9.722  10.094   7.420 -1.4547 -0.9629  1.3668
  179MOL0     H24645   9.565  10.102   7.155  1.4336 -2.3234  0.5106
  179MOL0     H24646   9.514  10.186   7.309  0.1469  3.3338 -0.3259
  179MOL0     H24647   9.737  10.282   7.120 -0.4889  0.5311  0.4054
  179MOL0     H24648   9.726  10.320   7.286  0.4043 -1.7063  0.2601
  179MOL0     H24649   9.551  10.408   7.063  2.3484  2.1270 -0.6370
  179MOL0     H24650   9.490  10.425   7.232  0.3010 -3.4962  1.1511
  179MOL0     H24651   9.685  10.551   7.389 -0.6162  2.0670  0.4740
  179MOL0     H24652   9.755  10.856   7.389  1.7481  2.9411 -1.2160
  179MOL0     H24653   9.895  10.884   7.290 -3.1989  3.6156  0.9011
  179MOL0     H24654   9.988  10.805   7.504  1.9991 -0.8655 -0.9455
  179MOL0     H24655   9.850  10.699   7.525  0.1559 -1.4265 -1.4861
  179MOL0     H24656  10.067  10.606   7.494  0.8054 -1.6787 -0.7407
  179MOL0     H24657   9.985  10.550   7.348  2.4532  0.4144 -3.6162
  179MOL0     H24658  10.081  10.762   7.233 -0.8352  2.1033  2.8032
  179MOL0     H24659  10.207  10.768   7.353  1.1063 -1.6525  0.6089
  179MOL0     H24660  10.273  10.357   7.274 -0.8817  1.4267  2.0460
  179MOL0     H24661  10.231  10.074   7.094 -0.5982 -1.7099 -0.1582
  179MOL0     H24662  10.066  10.059   7.176  0.9581 -1.1681  1.9622
  179MOL0     H24663  10.207  10.106   7.267 -0.1371 -0.9749  0.1117
  179MOL0     H24664   9.787   9.967   6.940  1.0939 -1.7664  1.1930
  179MOL0     H24665   9.667   9.839   6.767 -1.1572  1.2585 -4.2476
  179MOL0     H24666   9.675   9.612   6.655  1.3109  0.5871 -0.8943
  179MOL0     H24667   9.585   9.756   6.605 -2.2798 -0.3728 -1.8633
  179MOL0     H24668   9.552   9.703   6.401  0.0339  0.9315  1.5097
  179MOL0     H24669   9.667   9.563   6.390 -1.5199  0.0961 -2.8251
  179MOL0     H24670   9.449   9.533   6.588 -0.7242  0.1142  0.5286
  179MOL0     H24671   9.505   9.417   6.468  4.2350  0.8116 -2.7124
  179MOL0     H24672   9.381   9.512   6.287  0.3890 -0.5900 -0.6481
  179MOL0     H24673   9.337   9.654   6.381 -0.7371  0.1943  3.4172
  179MOL0     H24674   9.166   9.474   6.370 -1.4416 -3.7737  0.7365
  179MOL0     H24675   9.265   9.381   6.477 -2.0837 -0.4354  2.3652
  179MOL0     H24676   9.138   9.655   6.542  1.2804  0.2966  0.9361
  179MOL0     H24677   9.248   9.575   6.652 -1.5953 -1.7417  1.7615
  179MOL0     H24678   9.077   9.477   6.737  1.3045  2.0251 -0.5554
  179MOL0     H24679   9.117   9.347   6.631 -0.9627 -0.2042  2.3638
  179MOL0     H24680   8.947   9.417   6.459  0.6344  1.6632 -0.4564
  179MOL0     H24681   8.917   9.563   6.554 -1.5083 -1.3581  0.0382
  179MOL0     H24682  10.021   9.833   6.534 -1.0778 -0.4240 -0.6506
  179MOL0     H24683  10.130   9.981   6.683 -2.0627  3.2069 -2.1480
  179MOL0     H24684   9.925  10.456   6.937  0.2755  0.9846 -0.1363
  179MOL0     H24685  10.034  10.633   7.051  1.5963  1.3017 -0.9764
  179MOL0     H24686   9.236   9.787   7.833 -1.3007  0.7999  0.3508
  179MOL0     H24687   9.083   9.612   7.907  1.0718  2.7834  0.9071
  179MOL0     H24688   8.997   9.115   7.830 -0.1634  0.2829  1.0087
  179MOL0     H24689   8.848   8.933   7.872 -1.4095  1.5088  2.3705
  179MOL0     H24690   8.737   8.719   7.760 -0.2247 -0.2195  0.2251
  179MOL0     H24691   8.631   8.792   7.887  2.0614  0.5225 -0.1945
  179MOL0     H24692   8.554   8.578   7.829 -0.4116 -2.6287 -1.6973
  179MOL0     H24693   8.552   8.609   7.660  1.3222  1.3224 -0.3701
  179MOL0     H24694   8.365   8.790   7.709  0.0555  0.1506  0.5594
  179MOL0     H24695   8.330   8.623   7.751 -1.0735  0.6750 -4.1264
  179MOL0     H24696   8.427   8.803   7.961  2.3377 -3.0230 -0.0606
  179MOL0     H24697   8.361   8.650   7.975 -0.5918  1.2859 -0.6014
  179MOL0     H24698   8.027   8.922   7.968 -0.4008 -1.9271  1.3024
  179MOL0     H24699   8.587   9.102   7.576  0.5542 -1.4953 -0.0042
  179MOL0     H24700   8.604   9.338   7.510  0.2711 -1.1836  0.9676
  179MOL0     H24701   8.730   9.435   7.582  0.6941  1.1878 -1.3106
  179MOL0     H24702   8.776   9.323   7.453 -0.5372  1.7322 -0.2031
  180MOL0     O24703   3.055   0.076   9.412 -0.3667 -0.1234  0.4816
  180MOL0     C24704   3.015  -0.034   9.438  0.1450  0.2182 -0.2077
  180MOL0     O24705   2.947  -0.121   9.357 -0.0382  0.1640 -0.0672
  180MOL0     C24706   2.910  -0.088   9.229 -0.2323  0.1856  0.3082
  180MOL0     C24707   2.776  -0.094   9.198  0.1469  0.5553 -0.2540
  180MOL0     C24708   2.737  -0.083   9.056 -1.0756 -0.7218 -0.2153
  180MOL0     C24709   2.829  -0.027   8.967 -0.0553  0.3162  0.5590
  180MOL0     O24710   2.786   0.010   8.842 -0.8707 -0.5179 -0.4334
  180MOL0     C24711   2.758  -0.099   8.753 -0.4112 -0.3273  0.2968
  180MOL0     C24712   2.784  -0.057   8.613 -0.1837  0.0389 -0.0035
  180MOL0     C24713   2.714   0.076   8.567  0.0671 -0.1144 -0.1046
  180MOL0     C24714   2.741   0.137   8.430 -0.6057  0.8363 -0.6386
  180MOL0     C24715   2.893   0.177   8.428 -0.6098  0.1643 -0.2731
  180MOL0     C24716   2.914   0.309   8.509 -0.3298  1.1717 -0.0416
  180MOL0     C24717   3.047   0.373   8.494 -0.3712  0.8504  0.1351
  180MOL0     C24718   3.055   0.504   8.576 -0.1724 -0.1709  0.3226
  180MOL0     N24719   3.171   0.582   8.536  0.4156  0.0591 -0.8204
  180MOL0     C24720   3.171   0.689   8.452 -0.0771 -0.0814  0.3613
  180MOL0     C24721   3.299   0.733   8.456 -0.6233 -0.3616  0.0964
  180MOL0     C24722   3.375   0.835   8.370  0.3243 -0.6715  0.3450
  180MOL0     C24723   3.531   0.852   8.398  0.4422 -1.2504 -0.3169
  180MOL0     C24724   3.534   0.958   8.512 -0.7690  0.8070 -0.4773
  180MOL0     C24725   3.668   0.955   8.582 -0.9694  0.2488  0.1862
  180MOL0     O24726   3.775   0.997   8.486  0.2540  0.2350 -0.2419
  180MOL0     C24727   3.898   0.950   8.506  0.4413  0.5669  0.3201
  180MOL0     C24728   3.982   0.920   8.394  0.2010 -0.2996  1.0156
  180MOL0     C24729   4.111   0.889   8.403 -0.2610  0.5326  1.2302
  180MOL0     C24730   4.187   0.865   8.276 -0.4823 -0.5647 -0.6012
  180MOL0     C24731   4.177   0.887   8.534 -0.2830  0.0993  0.4766
  180MOL0     C24732   4.323   0.862   8.565  1.2178 -0.5867 -0.0319
  180MOL0     O24733   4.364   0.856   8.696  0.1220  0.1318 -0.3606
  180MOL0     C24734   4.488   0.814   8.734  0.4508 -0.7572  0.3547
  180MOL0     C24735   4.529   0.853   8.862 -0.4493 -0.0189 -0.4436
  180MOL0     C24736   4.653   0.818   8.921 -0.2032 -0.0354  0.4010
  180MOL0     C24737   4.735   0.729   8.850  1.0407 -0.8499 -0.5822
  180MOL0     O24738   4.852   0.672   8.893  0.0202 -0.2284 -0.8369
  180MOL0     C24739   4.895   0.700   9.035  0.3348 -1.0662  0.7736
  180MOL0     C24740   5.035   0.640   9.062 -0.8504 -1.1851 -0.2844
  180MOL0     C24741   5.133   0.716   8.967 -0.2580  0.2853 -0.2800
  180MOL0     C24742   5.276   0.657   8.989  0.4354  1.5340 -0.3642
  180MOL0     C24743   5.378   0.732   8.897  0.5785  0.1311 -0.0984
  180MOL0     C24744   5.431   0.853   8.960  0.7568  0.7271 -0.1018
  180MOL0     C24745   5.565   0.825   9.023 -0.2453 -0.0964  0.3048
  180MOL0     C24746   5.627   0.951   9.073  0.2732 -1.2782  0.0307
  180MOL0    Cl24747   5.655   1.062   8.936 -0.3749 -0.0365  0.0900
  180MOL0     C24748   4.698   0.697   8.717  0.0210  1.0633  0.1190
  180MOL0     C24749   4.582   0.745   8.655 -0.2793  0.1932  0.7351
  180MOL0     O24750   4.390   0.851   8.462 -0.2937  0.2040 -0.3997
  180MOL0     C24751   4.100   0.916   8.641  0.0851  0.4791  0.3339
  180MOL0     C24752   3.965   0.946   8.632  0.1933 -0.1492  0.9141
  180MOL0     N24753   3.378   0.647   8.540  0.8842 -0.2989  0.6224
  180MOL0     N24754   3.298   0.558   8.587  0.2960  0.1551  0.4144
  180MOL0     C24755   2.966  -0.001   9.007 -0.2843  0.2238 -0.0519
  180MOL0     C24756   3.008  -0.031   9.135  0.4868 -0.1410  0.0732
  180MOL0     C24757   3.042  -0.093   9.577 -0.3592  0.6126 -0.0469
  180MOL0     C24758   2.979  -0.211   9.612  1.0332  0.4058  0.3276
  180MOL0     C24759   3.004  -0.274   9.736  0.0970  0.3561  0.8139
  180MOL0     C24760   3.090  -0.226   9.827 -1.1009  0.2809 -0.0651
  180MOL0     O24761   3.094  -0.289   9.953 -0.1029  0.3182  0.0876
  180MOL0     C24762   3.219  -0.292  10.019  1.0767  0.3773 -0.5118
  180MOL0     C24763   3.259  -0.428  10.085  0.3901 -0.8796 -0.3768
  180MOL0     C24764   3.134  -0.504  10.138  0.4235 -0.4496  0.2045
  180MOL0     C24765   3.047  -0.579  10.027 -0.6500  0.3062  0.8691
  180MOL0     C24766   2.940  -0.652  10.088 -0.8386  0.4015 -0.4468
  180MOL0     C24767   2.857  -0.711  10.142  0.1366 -0.8147 -0.3267
  180MOL0     C24768   3.163  -0.111   9.788 -0.2034  0.8156  0.2580
  180MOL0     C24769   3.128  -0.045   9.664 -1.1182 -1.0162 -0.4967
  180MOL0     C24770   3.213   0.077   9.634 -1.3312 -0.6147 -0.1481
  180MOL0     H24771   2.706  -0.127   9.274  1.3391 -0.3369  0.4776
  180MOL0     H24772   2.633  -0.099   9.027 -1.6275  1.7808  0.1276
  180MOL0     H24773   2.653  -0.127   8.765 -0.6491  0.8075  1.0764
  180MOL0     H24774   2.819  -0.187   8.775  1.2947 -0.3345 -3.7003
  180MOL0     H24775   2.893  -0.052   8.603 -0.2393 -0.1757 -0.7087
  180MOL0     H24776   2.752  -0.133   8.541  0.9756  0.4928 -1.0304
  180MOL0     H24777   2.607   0.052   8.565  0.5760 -2.6676 -0.7297
  180MOL0     H24778   2.730   0.156   8.639  2.2789 -0.4419 -0.1778
  180MOL0     H24779   2.716   0.064   8.353  0.5034 -1.1311  0.7864
  180MOL0     H24780   2.689   0.233   8.420  2.2640  2.5068 -0.5421
  180MOL0     H24781   2.927   0.198   8.326 -1.2331  0.7144 -0.3776
  180MOL0     H24782   2.958   0.099   8.468  0.8561  1.2702 -0.4049
  180MOL0     H24783   2.834   0.373   8.472 -1.5791  0.5032  1.4031
  180MOL0     H24784   2.897   0.288   8.615  1.6993 -1.0479 -0.0679
  180MOL0     H24785   3.069   0.398   8.390 -2.7083 -0.0914 -0.6531
  180MOL0     H24786   3.129   0.308   8.524  1.7561  1.4975 -3.6154
  180MOL0     H24787   2.965   0.564   8.560 -1.2402 -2.1868 -1.8431
  180MOL0     H24788   3.061   0.482   8.683  1.0889  0.5968  0.4260
  180MOL0     H24789   3.082   0.729   8.404 -0.9914 -0.2953  1.8063
  180MOL0     H24790   3.320   0.929   8.369  1.8360  0.2690 -1.3297
  180MOL0     H24791   3.368   0.804   8.265  0.8880  3.5438 -1.1349
  180MOL0     H24792   3.586   0.764   8.431 -0.2948 -0.4457  3.6186
  180MOL0     H24793   3.569   0.895   8.305  0.2312  0.9981  0.5488
  180MOL0     H24794   3.523   1.062   8.479 -3.1827  0.8935  0.4497
  180MOL0     H24795   3.457   0.937   8.586  0.4540 -1.9809  0.1672
  180MOL0     H24796   3.666   1.022   8.668 -0.4967 -1.1611  1.3223
  180MOL0     H24797   3.692   0.855   8.617 -0.7941  0.4018  0.5100
  180MOL0     H24798   3.932   0.922   8.298 -1.4845 -1.6865  1.8085
  180MOL0     H24799   4.261   0.945   8.276 -0.5876 -0.2496  3.4393
  180MOL0     H24800   4.123   0.865   8.187 -0.7777  2.8325 -0.5315
  180MOL0     H24801   4.241   0.771   8.264 -1.6306 -1.5116  1.0728
  180MOL0     H24802   4.470   0.925   8.918  3.3832  0.9506  2.8605
  180MOL0     H24803   4.684   0.848   9.021 -1.1093 -1.5930  1.1763
  180MOL0     H24804   4.903   0.808   9.052 -0.4187 -0.7786 -0.5783
  180MOL0     H24805   4.824   0.656   9.106 -3.1202 -0.0651 -1.7963
  180MOL0     H24806   5.067   0.661   9.165  0.1369  0.9098 -0.9603
  180MOL0     H24807   5.029   0.532   9.049  3.1513 -1.5801 -0.0829
  180MOL0     H24808   5.130   0.823   8.990  2.9801  0.2425  0.8874
  180MOL0     H24809   5.101   0.698   8.864 -3.7695  0.5168  0.6350
  180MOL0     H24810   5.266   0.550   8.967  0.5036  0.4945  3.9010
  180MOL0     H24811   5.315   0.660   9.090 -0.8549 -0.2952  0.2485
  180MOL0     H24812   5.465   0.671   8.874  0.3199  0.9376 -3.8967
  180MOL0     H24813   5.325   0.741   8.801  2.5961 -1.5809 -1.4401
  180MOL0     H24814   5.374   0.889   9.046 -0.0589 -0.7026 -0.0263
  180MOL0     H24815   5.432   0.929   8.881 -0.3746 -0.3134 -1.1552
  180MOL0     H24816   5.638   0.769   8.964 -0.8024 -1.4635  0.8861
  180MOL0     H24817   5.552   0.758   9.108  3.1007  1.3605  2.1749
  180MOL0     H24818   5.718   0.924   9.128  0.5481 -2.1345 -0.8296
  180MOL0     H24819   5.548   0.985   9.141 -1.2276 -0.7755 -1.8760
  180MOL0     H24820   4.764   0.644   8.649 -3.3191 -3.3938 -0.0498
  180MOL0     H24821   4.559   0.701   8.559 -0.2245 -0.1130  0.8615
  180MOL0     H24822   4.144   0.928   8.740 -0.0951 -3.2609  0.9985
  180MOL0     H24823   3.919   0.992   8.719  0.6567  2.6273 -0.2107
  180MOL0     H24824   3.037   0.057   8.948  1.2098 -0.3214  1.1465
  180MOL0     H24825   3.111  -0.012   9.164  3.1419 -5.0895 -4.4003
  180MOL0     H24826   2.901  -0.258   9.553  1.1362 -0.7581  1.0820
  180MOL0     H24827   2.940  -0.354   9.772 -0.7422  1.2243  1.2996
  180MOL0     H24828   3.300  -0.271   9.948  0.1136  0.9920 -1.4524
  180MOL0     H24829   3.228  -0.214  10.096 -0.6025  1.6113 -1.5187
  180MOL0     H24830   3.338  -0.412  10.160 -0.7929  1.6928  0.4646
  180MOL0     H24831   3.303  -0.495  10.011  1.1942  0.0251 -0.7307
  180MOL0     H24832   3.155  -0.564  10.226  0.6667  2.2695  2.1140
  180MOL0     H24833   3.069  -0.425  10.177  2.6126  2.2473 -1.1776
  180MOL0     H24834   3.114  -0.650   9.976 -0.3345  2.1639 -1.5263
  180MOL0     H24835   3.012  -0.521   9.941 -2.2297 -3.8789 -1.6315
  180MOL0     H24836   2.779  -0.762  10.195 -1.3901  3.2446  1.7310
  180MOL0     H24837   3.239  -0.074   9.855  2.1132  0.4511 -1.9932
  180MOL0     H24838   3.283   0.083   9.719 -0.0902  1.2798 -1.2391
  180MOL0     H24839   3.273   0.064   9.544 -0.5142  2.8298 -0.2379
  180MOL0     H24840   3.156   0.170   9.632 -0.2938  0.0430 -0.1826
  181MOL0     O24841  11.011   1.869   6.711 -0.3618  0.0145 -1.0189
  181MOL0     C24842  11.107   1.817   6.649  0.2603 -0.2518 -0.0051
  181MOL0     O24843  11.239   1.870   6.652  0.8579 -0.2948 -0.6079
  181MOL0     C24844  11.267   1.990   6.704 -0.2081  0.7939 -0.7182
  181MOL0     C24845  11.300   2.095   6.621  0.0449 -0.4794 -0.3220
  181MOL0     C24846  11.326   2.226   6.669  1.3706 -0.3682 -0.3837
  181MOL0     C24847  11.326   2.244   6.806 -0.3581  0.3648 -0.0000
  181MOL0     O24848  11.336   2.374   6.854  0.3538  0.2463  0.4222
  181MOL0     C24849  11.294   2.410   6.983  0.0368  0.2865 -0.1942
  181MOL0     C24850  11.140   2.402   6.996  0.5487  0.2277 -0.5593
  181MOL0     C24851  11.081   2.523   7.064  0.4705 -0.1581  0.2216
  181MOL0     C24852  10.929   2.519   7.098 -0.3631  0.9851  0.5462
  181MOL0     C24853  10.858   2.648   7.107 -0.3165  0.0315 -0.3260
  181MOL0     C24854  10.712   2.637   7.159 -0.1942  0.3641  0.2641
  181MOL0     C24855  10.693   2.557   7.287  0.1964  0.1760  0.6186
  181MOL0     C24856  10.573   2.589   7.367  0.2464 -0.2658  0.7768
  181MOL0     N24857  10.449   2.548   7.306 -0.3216  0.4450 -0.4067
  181MOL0     C24858  10.372   2.454   7.374 -0.5579  0.2247 -0.4140
  181MOL0     C24859  10.253   2.469   7.315 -0.2042  0.1339 -0.4606
  181MOL0     C24860  10.139   2.375   7.355 -0.0537 -0.2375  0.7867
  181MOL0     C24861  10.065   2.300   7.248  1.1597 -0.3529  0.3285
  181MOL0     C24862  10.142   2.187   7.174 -0.1148  0.4959  0.9300
  181MOL0     C24863  10.228   2.103   7.263  0.0898  0.3875  0.2596
  181MOL0     O24864  10.160   2.029   7.367 -0.4480  0.1469  0.6514
  181MOL0     C24865  10.220   2.017   7.488  0.3500 -0.3310 -0.2143
  181MOL0     C24866  10.362   2.021   7.518  0.9040 -1.0601  0.1129
  181MOL0     C24867  10.408   2.018   7.650  0.3994 -0.2963  0.1651
  181MOL0     C24868  10.555   2.055   7.668 -0.5059  0.0156  0.4573
  181MOL0     C24869  10.315   2.006   7.754  0.6109 -0.0877 -0.9422
  181MOL0     C24870  10.362   2.020   7.891 -0.7242  0.7110 -0.2026
  181MOL0     O24871  10.468   1.937   7.934  0.8975  1.0544  0.1408
  181MOL0     C24872  10.517   1.953   8.057  0.7641  0.2898  0.6847
  181MOL0     C24873  10.613   2.050   8.095  1.0350 -0.5371  0.1667
  181MOL0     C24874  10.637   2.070   8.227 -0.4813  0.3137 -0.8927
  181MOL0     C24875  10.589   1.986   8.327 -0.1049 -0.3013  0.9991
  181MOL0     O24876  10.593   2.002   8.462  0.3713  0.2396 -0.6491
  181MOL0     C24877  10.616   2.140   8.523 -0.7857 -0.4634 -0.2961
  181MOL0     C24878  10.564   2.145   8.665 -0.3654  0.4145  0.1064
  181MOL0     C24879  10.414   2.135   8.660 -0.2795 -0.2968 -0.1309
  181MOL0     C24880  10.360   2.128   8.803 -0.7534  0.0333 -0.2349
  181MOL0     C24881  10.210   2.143   8.808  0.5694  0.7540 -0.4103
  181MOL0     C24882  10.161   2.270   8.747  0.4922 -0.2573 -0.4581
  181MOL0     C24883  10.220   2.390   8.818  0.5196  1.6197  0.4777
  181MOL0     C24884  10.140   2.515   8.773 -0.4752 -0.2190  0.1140
  181MOL0    Cl24885  10.263   2.650   8.804  0.0840 -0.3288 -0.6385
  181MOL0     C24886  10.501   1.888   8.281  0.7068  1.0867  0.1077
  181MOL0     C24887  10.458   1.874   8.155  0.1524 -0.0112  0.8001
  181MOL0     O24888  10.286   2.080   7.967  0.4380 -0.1743  0.3309
  181MOL0     C24889  10.174   1.996   7.722  0.0889  0.9455 -1.1972
  181MOL0     C24890  10.129   2.000   7.593 -0.0346 -0.2002 -0.4981
  181MOL0     N24891  10.260   2.562   7.208  0.2277  0.2520  0.5262
  181MOL0     N24892  10.380   2.624   7.210  1.4602 -0.0771 -0.2881
  181MOL0     C24893  11.314   2.135   6.895 -0.1067  0.6295 -0.7146
  181MOL0     C24894  11.263   2.010   6.842  1.3148 -1.1840 -0.0505
  181MOL0     C24895  11.067   1.719   6.551 -0.1103 -0.6367  0.6436
  181MOL0     C24896  10.929   1.710   6.513 -0.3384  0.5026  1.1959
  181MOL0     C24897  10.889   1.626   6.409  0.4236 -0.5329 -0.0688
  181MOL0     C24898  10.976   1.528   6.354 -0.7677 -0.2496 -0.7056
  181MOL0     O24899  10.938   1.433   6.261 -0.5246  1.0430 -0.3936
  181MOL0     C24900  10.825   1.431   6.179  0.8057  0.1762  0.4782
  181MOL0     C24901  10.813   1.298   6.103  0.0748  0.2172 -0.6870
  181MOL0     C24902  10.769   1.180   6.190  0.4451 -0.8055 -0.0302
  181MOL0     C24903  10.762   1.042   6.118 -0.4059 -0.1894 -0.2072
  181MOL0     C24904  10.884   0.995   6.051  0.6049 -0.6900  0.3152
  181MOL0     C24905  10.977   0.960   5.981 -0.3491  0.4639  0.2574
  181MOL0     C24906  11.107   1.528   6.405 -0.5395  0.7495  0.6341
  181MOL0     C24907  11.159   1.635   6.490  0.0040  0.4561  0.8830
  181MOL0     C24908  11.313   1.643   6.517  0.6648 -0.9812  0.0150
  181MOL0     H24909  11.294   2.079   6.513 -1.2061 -0.2232 -0.3049
  181MOL0     H24910  11.349   2.313   6.609 -0.4604  0.3785 -0.0852
  181MOL0     H24911  11.333   2.511   6.997  2.7320 -0.5522 -1.1258
  181MOL0     H24912  11.340   2.344   7.057 -0.0624 -2.2506 -2.2259
  181MOL0     H24913  11.097   2.393   6.896 -1.4698 -2.1712  0.4339
  181MOL0     H24914  11.107   2.312   7.048 -0.5756  0.9269 -0.0416
  181MOL0     H24915  11.136   2.548   7.155 -0.9572  0.9962  0.8109
  181MOL0     H24916  11.093   2.603   6.989 -0.4736 -1.2985 -1.2156
  181MOL0     H24917  10.886   2.459   7.018  0.7422 -3.0968  2.7432
  181MOL0     H24918  10.924   2.462   7.191 -0.3529  0.5650  0.2904
  181MOL0     H24919  10.855   2.697   7.009 -0.1929 -1.8218 -1.3158
  181MOL0     H24920  10.912   2.701   7.185  2.2420 -1.7621 -0.7608
  181MOL0     H24921  10.672   2.738   7.173 -1.1122  0.4789 -2.4877
  181MOL0     H24922  10.655   2.582   7.084  0.0871 -0.4225  0.6216
  181MOL0     H24923  10.779   2.574   7.353 -0.3601 -2.2185  2.0466
  181MOL0     H24924  10.685   2.455   7.249 -1.0588  0.4639  0.0444
  181MOL0     H24925  10.587   2.540   7.464 -1.3280 -0.7066  0.8026
  181MOL0     H24926  10.563   2.697   7.384  0.0556 -0.3848  1.4697
  181MOL0     H24927  10.392   2.415   7.473 -0.8245  1.3592  0.1038
  181MOL0     H24928  10.062   2.447   7.385  0.3892  0.6854 -0.2099
  181MOL0     H24929  10.166   2.306   7.436 -1.7436 -0.7781  0.9149
  181MOL0     H24930   9.981   2.241   7.287 -0.7588  1.6367 -0.6078
  181MOL0     H24931  10.027   2.371   7.175  1.2961  0.3999  0.9821
  181MOL0     H24932  10.074   2.128   7.112  0.8266  1.6568 -1.3388
  181MOL0     H24933  10.208   2.235   7.101  0.3195 -0.6635  0.5328
  181MOL0     H24934  10.283   2.032   7.201  1.9949  2.1039 -0.1249
  181MOL0     H24935  10.294   2.176   7.311 -0.5075  0.4315  1.0231
  181MOL0     H24936  10.426   2.050   7.435  2.2888 -0.9599  1.1852
  181MOL0     H24937  10.606   2.059   7.571  0.1760  0.2251  0.8136
  181MOL0     H24938  10.600   1.982   7.736 -2.6692  0.1311  2.0947
  181MOL0     H24939  10.568   2.147   7.724  1.6650 -0.0460  0.1433
  181MOL0     H24940  10.655   2.123   8.027 -1.3095 -0.7992 -1.6982
  181MOL0     H24941  10.706   2.146   8.262  2.4045 -1.8154 -1.5677
  181MOL0     H24942  10.724   2.155   8.529 -0.9974  0.9535  0.3667
  181MOL0     H24943  10.590   2.229   8.465 -1.2444 -1.2898 -1.3989
  181MOL0     H24944  10.610   2.062   8.719  0.3888 -0.5663 -1.9502
  181MOL0     H24945  10.589   2.245   8.701 -1.0894  0.3031  0.9606
  181MOL0     H24946  10.386   2.037   8.619 -0.9888 -0.4268  0.6354
  181MOL0     H24947  10.380   2.215   8.594  0.6825 -0.3874 -0.7571
  181MOL0     H24948  10.418   2.200   8.861  0.6802  1.6964 -3.4544
  181MOL0     H24949  10.378   2.034   8.857 -2.3205  0.3436  0.8815
  181MOL0     H24950  10.166   2.057   8.757 -1.3209  0.0714  2.1355
  181MOL0     H24951  10.178   2.142   8.913  1.0654  0.9920 -0.2550
  181MOL0     H24952  10.051   2.273   8.750  0.5296  1.3432  0.6949
  181MOL0     H24953  10.184   2.278   8.641  0.3230 -1.1320 -0.5751
  181MOL0     H24954  10.328   2.392   8.797  0.2041  0.8008 -1.5001
  181MOL0     H24955  10.208   2.367   8.924  2.1279 -0.5583  0.2566
  181MOL0     H24956  10.051   2.522   8.836 -0.2101  3.2851  0.2932
  181MOL0     H24957  10.114   2.505   8.667 -0.8919 -0.5134  0.2444
  181MOL0     H24958  10.454   1.819   8.349 -3.1472  1.6811 -1.6931
  181MOL0     H24959  10.389   1.796   8.122 -1.9181  2.5008 -1.3080
  181MOL0     H24960  10.105   1.994   7.805  2.9441 -0.3488  1.3817
  181MOL0     H24961  10.022   2.015   7.581  0.3628  1.5801 -2.5809
  181MOL0     H24962  11.326   2.141   7.003  3.7941  3.1118 -1.1044
  181MOL0     H24963  11.237   1.929   6.909 -2.2081 -0.4402 -0.3092
  181MOL0     H24964  10.857   1.782   6.552  1.5561  1.8705  2.3389
  181MOL0     H24965  10.788   1.638   6.372  0.4447 -0.3034 -0.0494
  181MOL0     H24966  10.734   1.445   6.238 -1.6371  1.0181 -3.0953
  181MOL0     H24967  10.821   1.515   6.108 -1.7937 -0.2739 -0.0203
  181MOL0     H24968  10.911   1.268   6.065 -1.1229 -1.7175 -2.4488
  181MOL0     H24969  10.742   1.315   6.022  1.2502  0.2813 -1.7215
  181MOL0     H24970  10.844   1.181   6.270  0.7458  1.6632 -0.2854
  181MOL0     H24971  10.667   1.203   6.224 -1.2999 -1.0630 -4.3869
  181MOL0     H24972  10.688   1.052   6.038  0.0036  0.6622 -0.4941
  181MOL0     H24973  10.743   0.966   6.195  0.8015 -1.5129 -1.1595
  181MOL0     H24974  11.056   0.936   5.913 -1.5230  1.6838 -1.6220
  181MOL0     H24975  11.176   1.469   6.346 -1.7143  3.0100 -3.3353
  181MOL0     H24976  11.343   1.641   6.622 -0.9875 -0.1826  0.5470
  181MOL0     H24977  11.368   1.567   6.462  4.0659  0.8444  0.6124
  181MOL0     H24978  11.353   1.738   6.480 -0.4363 -1.1475 -1.7207
  182MOL0     O24979  10.424   1.784   8.866 -0.3433 -0.2786 -0.7726
  182MOL0     C24980  10.391   1.668   8.853  0.4555  0.5595 -0.2710
  182MOL0     O24981  10.440   1.577   8.766 -0.4543  0.2307  0.6926
  182MOL0     C24982  10.525   1.608   8.669  0.1384 -0.3673 -0.2243
  182MOL0     C24983  10.543   1.496   8.585  0.2177  0.5102 -0.3217
  182MOL0     C24984  10.636   1.507   8.477  0.2476  0.6098  0.3441
  182MOL0     C24985  10.696   1.624   8.452 -0.5809  0.3077 -0.6815
  182MOL0     O24986  10.779   1.643   8.345  1.1064 -1.4648 -0.0169
  182MOL0     C24987  10.720   1.588   8.224 -0.3887 -0.4291  0.1496
  182MOL0     C24988  10.812   1.629   8.111  0.6240 -0.1852 -0.0797
  182MOL0     C24989  10.938   1.544   8.099 -0.4593  1.1855  0.4214
  182MOL0     C24990  11.011   1.568   7.967 -0.5601  0.4615  0.1983
  182MOL0     C24991  11.131   1.478   7.957 -0.7672 -0.2805  0.1564
  182MOL0     C24992  11.216   1.485   7.825  0.5110  0.0076  0.3963
  182MOL0     C24993  11.313   1.374   7.805 -0.1714  0.8779  1.2491
  182MOL0     C24994  11.407   1.375   7.686 -0.1056 -0.0836  0.2488
  182MOL0     N24995  11.469   1.239   7.687  0.6155  0.4015  0.1833
  182MOL0     C24996  11.512   1.178   7.571  0.6861  0.2116  0.5786
  182MOL0     C24997  11.538   1.050   7.609 -0.2333 -0.9291  1.1428
  182MOL0     C24998  11.573   0.932   7.521  1.2992  0.1851  0.5406
  182MOL0     C24999  11.723   0.936   7.490  1.1776  0.0038  0.7494
  182MOL0     C25000  11.764   0.814   7.412 -0.1999 -0.2159 -1.5178
  182MOL0     C25001  11.895   0.842   7.331 -0.0334  0.4065  0.3636
  182MOL0     O25002  12.008   0.838   7.423 -0.7733 -0.4120 -0.6600
  182MOL0     C25003  12.139   0.849   7.380  0.0457  1.0379  0.0255
  182MOL0     C25004  12.241   0.861   7.473 -0.1103  0.1324  0.0412
  182MOL0     C25005  12.376   0.839   7.451 -0.4194  0.5045 -0.3084
  182MOL0     C25006  12.468   0.854   7.568 -0.2168  0.1936 -0.1904
  182MOL0     C25007  12.418   0.824   7.317 -0.2218 -0.2686  0.3983
  182MOL0     C25008  12.555   0.797   7.262 -0.3440 -0.7360 -0.0091
  182MOL0     O25009  12.585   0.848   7.128  0.2789  0.7896 -0.1009
  182MOL0     C25010  12.709   0.854   7.073 -0.3758  1.0056  0.9151
  182MOL0     C25011  12.712   0.923   6.948  0.2709 -0.3900  0.1518
  182MOL0     C25012  12.835   0.938   6.881  1.0351 -0.9615  0.3394
  182MOL0     C25013  12.950   0.875   6.931 -0.7718  0.9988  0.0350
  182MOL0     O25014  13.068   0.876   6.869  0.2143  0.1676  0.0013
  182MOL0     C25015  13.092   0.950   6.754  0.0171 -0.1582 -1.0620
  182MOL0     C25016  13.237   0.952   6.715 -0.3553 -0.3122 -0.9616
  182MOL0     C25017  13.322   1.035   6.808  0.5167  0.6709 -0.7494
  182MOL0     C25018  13.314   1.175   6.757 -0.7932 -0.0976  0.1510
  182MOL0     C25019  13.400   1.281   6.835  0.0163 -0.3143 -0.2445
  182MOL0     C25020  13.555   1.247   6.855  1.2403 -0.2900 -0.5093
  182MOL0     C25021  13.633   1.238   6.732 -0.4108 -0.4681 -0.0598
  182MOL0     C25022  13.789   1.253   6.774  0.2260  0.4727  0.2036
  182MOL0    Cl25023  13.890   1.242   6.625  0.1611 -0.0690  0.4601
  182MOL0     C25024  12.935   0.787   7.044 -0.0690  0.2788 -0.2682
  182MOL0     C25025  12.818   0.782   7.116 -0.0775  0.2241  0.5008
  182MOL0     O25026  12.637   0.735   7.329 -1.1221 -0.4804 -0.0833
  182MOL0     C25027  12.314   0.835   7.219 -0.0197  0.1114  1.0222
  182MOL0     C25028  12.175   0.835   7.246 -0.3205  0.7975 -0.2440
  182MOL0     N25029  11.507   1.043   7.742  0.2136 -0.0623  0.1343
  182MOL0     N25030  11.466   1.152   7.786 -0.2608  0.6924 -0.3570
  182MOL0     C25031  10.692   1.732   8.543  0.3057  0.0650  0.4033
  182MOL0     C25032  10.609   1.724   8.659 -0.7975 -0.1129  1.1532
  182MOL0     C25033  10.274   1.631   8.947 -0.4391  0.4792 -0.7522
  182MOL0     C25034  10.222   1.508   8.922  0.1931  0.7346  0.0362
  182MOL0     C25035  10.125   1.455   9.000  0.0812 -0.4474 -0.5174
  182MOL0     C25036  10.067   1.528   9.115 -0.8835 -0.7684  0.5333
  182MOL0     O25037   9.965   1.487   9.202 -0.0781  0.7693  0.1560
  182MOL0     C25038   9.882   1.383   9.160 -1.1805 -0.8660  0.1365
  182MOL0     C25039   9.769   1.360   9.260 -0.3308 -0.3388 -0.0996
  182MOL0     C25040   9.680   1.490   9.287  0.0690  0.5079 -0.4979
  182MOL0     C25041   9.554   1.461   9.375 -0.1673 -0.2667 -0.2703
  182MOL0     C25042   9.442   1.379   9.311 -0.3149 -0.0662 -1.3406
  182MOL0     C25043   9.340   1.311   9.284  0.0705 -0.5136  0.1908
  182MOL0     C25044  10.120   1.658   9.131 -0.1464  0.3081 -0.0311
  182MOL0     C25045  10.217   1.705   9.051  0.0740  0.0646 -0.3045
  182MOL0     C25046  10.260   1.852   9.092 -0.8587  0.2575 -0.0237
  182MOL0     H25047  10.488   1.404   8.598  0.1186  0.7536  1.1844
  182MOL0     H25048  10.648   1.424   8.408 -0.6465  0.3473  0.5000
  182MOL0     H25049  10.622   1.635   8.210  0.6610  1.5537 -0.9681
  182MOL0     H25050  10.715   1.479   8.232  1.7100 -0.4665  1.8571
  182MOL0     H25051  10.742   1.627   8.026  1.2110 -0.6535 -0.5665
  182MOL0     H25052  10.847   1.731   8.126  3.2994 -0.9767 -0.4336
  182MOL0     H25053  11.004   1.567   8.183  1.4130 -2.1246  0.0189
  182MOL0     H25054  10.914   1.439   8.116 -2.1320  1.1573 -1.7105
  182MOL0     H25055  10.946   1.555   7.880 -1.7515  1.2022  0.9488
  182MOL0     H25056  11.039   1.674   7.961 -1.8109  1.2039  4.2825
  182MOL0     H25057  11.087   1.377   7.957  1.1683 -1.1765  0.5782
  182MOL0     H25058  11.189   1.487   8.049 -3.0976  2.1902  1.5407
  182MOL0     H25059  11.144   1.483   7.742 -2.0679  0.1884  2.4741
  182MOL0     H25060  11.265   1.582   7.831  0.4772  0.0639 -0.2013
  182MOL0     H25061  11.252   1.284   7.790  2.0298 -0.3203 -1.3110
  182MOL0     H25062  11.373   1.378   7.896 -0.0311 -2.2573  1.3889
  182MOL0     H25063  11.356   1.393   7.591  1.2728 -0.4870 -0.6099
  182MOL0     H25064  11.478   1.457   7.701  3.5692 -3.3181  2.6374
  182MOL0     H25065  11.501   1.204   7.466  0.7774  0.2687  0.5829
  182MOL0     H25066  11.525   0.947   7.424  0.9190  0.1654  0.7217
  182MOL0     H25067  11.544   0.839   7.572 -1.5847  0.6675 -0.0344
  182MOL0     H25068  11.737   1.023   7.425 -4.4605 -0.7575 -2.1050
  182MOL0     H25069  11.783   0.950   7.580  0.8328 -1.6753  1.2780
  182MOL0     H25070  11.779   0.725   7.473 -0.9230  1.3867  1.1549
  182MOL0     H25071  11.687   0.793   7.337 -1.2652  2.6157 -1.3171
  182MOL0     H25072  11.903   0.759   7.260  2.8713  0.0224  1.0265
  182MOL0     H25073  11.878   0.933   7.272 -2.1118  1.4554  2.4384
  182MOL0     H25074  12.219   0.873   7.579 -1.4213 -1.2145 -0.0410
  182MOL0     H25075  12.416   0.921   7.637 -3.0937 -1.8257 -0.2083
  182MOL0     H25076  12.567   0.892   7.541  0.4539 -1.0856  0.3839
  182MOL0     H25077  12.473   0.760   7.624 -0.8038 -0.4306 -1.1643
  182MOL0     H25078  12.618   0.963   6.914  0.7125  0.0858 -0.5161
  182MOL0     H25079  12.843   0.995   6.789  3.4511 -1.5940  0.0802
  182MOL0     H25080  13.035   0.895   6.678 -1.1966 -2.5376  1.3944
  182MOL0     H25081  13.054   1.052   6.761 -0.9354 -0.5638  0.0061
  182MOL0     H25082  13.272   0.849   6.712 -4.6291 -1.9566 -4.1370
  182MOL0     H25083  13.238   0.987   6.611 -0.8947 -0.3502 -0.9863
  182MOL0     H25084  13.424   1.003   6.789  0.0914  0.7442 -3.5576
  182MOL0     H25085  13.292   1.034   6.913  0.7518 -2.0113 -0.6532
  182MOL0     H25086  13.211   1.210   6.767 -0.5940  0.0088  2.3477
  182MOL0     H25087  13.350   1.186   6.654 -2.2782 -2.7232 -0.7270
  182MOL0     H25088  13.383   1.377   6.784  1.6369 -0.1851 -0.5817
  182MOL0     H25089  13.362   1.296   6.936 -1.6189  5.3229 -1.3080
  182MOL0     H25090  13.577   1.156   6.911  1.1523 -0.2552 -0.4176
  182MOL0     H25091  13.581   1.329   6.922  0.3960 -0.6613  0.2912
  182MOL0     H25092  13.628   1.330   6.673  1.9896  0.0771  0.4795
  182MOL0     H25093  13.613   1.150   6.670  1.3122  0.0941 -1.4789
  182MOL0     H25094  13.807   1.171   6.845 -0.1560  1.2042  1.1737
  182MOL0     H25095  13.800   1.344   6.834 -0.9223 -0.2651  1.6121
  182MOL0     H25096  13.020   0.729   7.076 -0.7444  0.2957  1.6834
  182MOL0     H25097  12.820   0.712   7.198  1.4248 -1.6163 -1.0061
  182MOL0     H25098  12.326   0.826   7.111 -1.4450 -0.1383  0.8685
  182MOL0     H25099  12.092   0.828   7.176 -1.8472 -0.9755  1.6095
  182MOL0     H25100  10.755   1.820   8.531  1.6880 -1.0385 -0.7656
  182MOL0     H25101  10.606   1.814   8.720 -0.8424  0.5594  0.1910
  182MOL0     H25102  10.258   1.446   8.840  2.9714 -0.3066  1.8853
  182MOL0     H25103  10.089   1.357   8.972 -0.2124 -1.9471  4.1875
  182MOL0     H25104   9.848   1.397   9.057 -0.5801 -1.9477 -0.2320
  182MOL0     H25105   9.935   1.288   9.146  0.1628  0.1190 -1.9921
  182MOL0     H25106   9.821   1.334   9.353 -0.0912  0.6118  0.0447
  182MOL0     H25107   9.703   1.275   9.241  1.2418 -2.0294  1.5272
  182MOL0     H25108   9.746   1.561   9.337 -1.5614  2.2872 -0.7990
  182MOL0     H25109   9.645   1.531   9.192 -0.0602 -0.3630 -0.8420
  182MOL0     H25110   9.516   1.559   9.407  0.6330  0.1894 -0.6693
  182MOL0     H25111   9.589   1.407   9.463 -1.5638 -0.8765 -0.0651
  182MOL0     H25112   9.266   1.239   9.255  0.0356 -0.9721  1.3687
  182MOL0     H25113  10.076   1.711   9.214  0.2585 -0.5077  0.7179
  182MOL0     H25114  10.358   1.846   9.141 -0.0999  0.6820 -1.4393
  182MOL0     H25115  10.268   1.924   9.010 -0.5138  0.3946  0.1312
  182MOL0     H25116  10.183   1.900   9.153  1.1549  1.3844  1.7608
  183MOL0     O25117   6.053   8.089   0.384  0.2945 -0.0747  0.0909
  183MOL0     C25118   6.009   8.032   0.481 -1.2347 -0.6030 -0.4179
  183MOL0     O25119   6.068   8.029   0.606 -0.1180 -0.4935  0.6288
  183MOL0     C25120   6.191   8.077   0.635  0.2822 -0.4388  0.2787
  183MOL0     C25121   6.242   8.206   0.597 -0.2501  0.8892 -0.4819
  183MOL0     C25122   6.375   8.234   0.624 -0.0512 -0.7220 -0.1174
  183MOL0     C25123   6.453   8.146   0.700  0.0502  0.3221  1.3129
  183MOL0     O25124   6.588   8.164   0.727 -0.2693  0.0705  0.2683
  183MOL0     C25125   6.674   8.245   0.647  0.5949 -0.2040 -0.5570
  183MOL0     C25126   6.790   8.274   0.733  0.0054 -0.1092 -0.7153
  183MOL0     C25127   6.928   8.327   0.678  1.2081 -0.2087 -0.0092
  183MOL0     C25128   6.893   8.465   0.619 -0.0714 -0.2733  0.5900
  183MOL0     C25129   7.027   8.540   0.598  0.5577 -0.1296 -0.1870
  183MOL0     C25130   7.041   8.661   0.506  0.0824  0.5106  0.1792
  183MOL0     C25131   7.188   8.704   0.483 -0.7699  1.0777 -0.4910
  183MOL0     C25132   7.221   8.764   0.342 -0.8653  0.3035  0.1920
  183MOL0     N25133   7.144   8.882   0.311 -0.1051  0.6752  0.4580
  183MOL0     C25134   7.024   8.880   0.244 -0.6387  0.7161 -0.8280
  183MOL0     C25135   6.975   9.010   0.240  0.6342 -0.5011  0.0717
  183MOL0     C25136   6.849   9.049   0.166  0.0261 -0.4394  0.0729
  183MOL0     C25137   6.823   9.203   0.194  0.3429 -0.4382  0.9949
  183MOL0     C25138   6.915   9.293   0.116 -0.0287  0.5023 -0.0102
  183MOL0     C25139   6.890   9.266  -0.043 -0.5244 -0.7870  0.0014
  183MOL0     O25140   6.935   9.385  -0.125  1.2961 -0.0019 -0.7574
  183MOL0     C25141   6.912   9.399  -0.253 -0.6989 -0.3995  0.0058
  183MOL0     C25142   6.869   9.296  -0.345  0.0435  0.0174 -0.5106
  183MOL0     C25143   6.859   9.319  -0.482 -0.1874  0.4770 -0.2873
  183MOL0     C25144   6.825   9.206  -0.579 -1.2014  0.4817  0.4542
  183MOL0     C25145   6.880   9.453  -0.541 -0.3635  0.9772  0.5232
  183MOL0     C25146   6.878   9.489  -0.685  0.6909  0.0730  0.5246
  183MOL0     O25147   6.889   9.626  -0.706  0.3736  0.0524 -0.6068
  183MOL0     C25148   6.867   9.672  -0.835  1.1323 -0.0378  0.8665
  183MOL0     C25149   6.750   9.638  -0.905 -0.1723 -0.0162  0.3286
  183MOL0     C25150   6.732   9.696  -1.030 -0.0601 -0.2050 -0.4303
  183MOL0     C25151   6.825   9.785  -1.090 -0.4161  0.0645  0.5915
  183MOL0     O25152   6.794   9.819  -1.225  0.1039 -0.1163  0.0359
  183MOL0     C25153   6.899   9.837  -1.325 -0.0352  0.2285  0.3969
  183MOL0     C25154   6.835   9.892  -1.449 -0.3693 -0.1726 -0.5358
  183MOL0     C25155   6.939   9.953  -1.544 -0.0224  0.0941 -0.2262
  183MOL0     C25156   7.010   9.846  -1.626 -0.5873  0.2093 -0.3297
  183MOL0     C25157   7.112   9.898  -1.732  0.0117 -0.2567  0.6172
  183MOL0     C25158   7.046   9.997  -1.823  0.9919  0.0971  0.5270
  183MOL0     C25159   7.142  10.016  -1.937 -0.2522  0.3153  0.5496
  183MOL0     C25160   7.098  10.116  -2.045 -0.1275  0.1236  0.6357
  183MOL0    Cl25161   7.239  10.182  -2.134 -0.2205 -0.0979 -0.5200
  183MOL0     C25162   6.943   9.820  -1.021 -0.4429 -0.0070  0.1043
  183MOL0     C25163   6.965   9.767  -0.889  0.0632 -0.7476 -0.5097
  183MOL0     O25164   6.869   9.408  -0.776 -0.1263  0.4609 -0.0882
  183MOL0     C25165   6.915   9.550  -0.443 -0.5768  0.6324  0.8655
  183MOL0     C25166   6.939   9.524  -0.308 -0.2707  0.2068  0.0844
  183MOL0     N25167   7.069   9.083   0.306  0.3756 -0.6288 -0.3242
  183MOL0     N25168   7.173   9.012   0.342 -0.1300 -0.3878  0.0843
  183MOL0     C25169   6.394   8.037   0.762  0.5967 -1.1511 -0.8807
  183MOL0     C25170   6.265   8.000   0.723  0.5120 -0.3076 -0.4591
  183MOL0     C25171   5.876   7.954   0.472  0.1392 -0.2722  0.2751
  183MOL0     C25172   5.842   7.858   0.585  0.3247 -0.1317 -0.1215
  183MOL0     C25173   5.716   7.793   0.586 -0.0300 -0.2055 -0.2003
  183MOL0     C25174   5.622   7.810   0.486  0.3608 -0.1977 -0.5206
  183MOL0     O25175   5.499   7.756   0.502  0.5528  0.4589 -0.2828
  183MOL0     C25176   5.422   7.736   0.388  0.2530 -0.1489  0.7933
  183MOL0     C25177   5.275   7.693   0.427  0.0390  0.1076 -0.1118
  183MOL0     C25178   5.198   7.807   0.487 -0.5116  0.0770  0.0990
  183MOL0     C25179   5.065   7.746   0.517 -0.3521  0.0034  0.0499
  183MOL0     C25180   4.971   7.833   0.588 -0.0505 -0.5894 -0.7204
  183MOL0     C25181   4.880   7.891   0.646  0.1445 -0.7062 -0.1631
  183MOL0     C25182   5.647   7.905   0.392 -0.0646 -0.0471  0.9988
  183MOL0     C25183   5.765   7.975   0.381 -0.6858 -0.4083  1.5084
  183MOL0     C25184   5.775   8.062   0.257  0.3171 -0.2750 -0.9940
  183MOL0     H25185   6.182   8.278   0.543  0.9743  1.8879 -0.5513
  183MOL0     H25186   6.410   8.334   0.599 -1.4488 -0.5546 -1.6086
  183MOL0     H25187   6.618   8.328   0.602 -0.2082 -0.1922  0.4294
  183MOL0     H25188   6.712   8.184   0.564 -1.4362  0.1536 -1.8191
  183MOL0     H25189   6.765   8.328   0.825 -1.2703 -1.5776 -0.1530
  183MOL0     H25190   6.820   8.171   0.758  2.3503  0.1872 -2.0336
  183MOL0     H25191   7.006   8.332   0.754  1.4332 -0.4033 -0.2240
  183MOL0     H25192   6.963   8.260   0.598 -1.1439 -3.7718  1.6776
  183MOL0     H25193   6.833   8.447   0.530 -0.7866 -2.4914  1.4284
  183MOL0     H25194   6.827   8.518   0.689 -0.8101 -0.2816 -0.0943
  183MOL0     H25195   7.103   8.474   0.555 -0.1377 -0.9766 -0.1528
  183MOL0     H25196   7.065   8.566   0.697  0.1379  1.3692 -0.3912
  183MOL0     H25197   6.997   8.632   0.410  2.8962 -2.5155 -0.3575
  183MOL0     H25198   6.988   8.743   0.556  0.8050  1.0541  0.0687
  183MOL0     H25199   7.261   8.622   0.488  1.4351  2.9962  0.4783
  183MOL0     H25200   7.223   8.764   0.567 -0.0785 -1.2749  0.9809
  183MOL0     H25201   7.324   8.802   0.334 -0.2809 -1.3857 -5.6615
  183MOL0     H25202   7.211   8.686   0.266 -0.7625 -0.9912  1.4590
  183MOL0     H25203   6.968   8.800   0.199 -0.7808  2.0398 -3.1470
  183MOL0     H25204   6.770   8.995   0.217 -0.3585  0.5266  0.5295
  183MOL0     H25205   6.849   9.016   0.061 -2.8120 -0.6834  0.0710
  183MOL0     H25206   6.719   9.211   0.163  1.4111  0.8687 -2.8645
  183MOL0     H25207   6.829   9.233   0.299  1.0864  2.7861  0.1551
  183MOL0     H25208   6.893   9.396   0.144 -0.3976 -0.6646  4.9251
  183MOL0     H25209   7.021   9.286   0.142 -0.6242 -4.8031  2.2996
  183MOL0     H25210   6.943   9.173  -0.066 -1.3017 -1.3590  0.5067
  183MOL0     H25211   6.785   9.246  -0.063 -0.6360  0.5817 -0.9392
  183MOL0     H25212   6.874   9.196  -0.303  0.8442  1.5675  3.5179
  183MOL0     H25213   6.739   9.233  -0.640 -0.8328  1.7896  0.4835
  183MOL0     H25214   6.804   9.118  -0.518  0.4483  0.6069  1.2634
  183MOL0     H25215   6.916   9.180  -0.634 -2.1371  0.9928 -1.3977
  183MOL0     H25216   6.676   9.581  -0.850  0.8052  1.0125  2.8333
  183MOL0     H25217   6.634   9.685  -1.074 -0.2917 -1.5893  0.3903
  183MOL0     H25218   6.975   9.908  -1.291 -2.0850  2.1641  1.0960
  183MOL0     H25219   6.944   9.738  -1.342  0.7047  0.8521 -1.5595
  183MOL0     H25220   6.767   9.826  -1.503 -0.7840  1.5032 -2.1528
  183MOL0     H25221   6.774   9.975  -1.413 -0.3980  1.1033 -3.2986
  183MOL0     H25222   7.020  10.003  -1.489 -0.8008 -0.8264  1.8362
  183MOL0     H25223   6.887  10.028  -1.605 -0.4700 -1.0531 -1.2925
  183MOL0     H25224   6.924   9.799  -1.674 -1.5402  0.6996  0.8590
  183MOL0     H25225   7.062   9.771  -1.566  0.2867  0.2553 -1.0114
  183MOL0     H25226   7.200   9.937  -1.681 -0.2164  1.0380  0.0711
  183MOL0     H25227   7.147   9.816  -1.795 -0.1809  1.2471 -1.5760
  183MOL0     H25228   7.018  10.093  -1.779 -2.7819 -1.8748  2.9551
  183MOL0     H25229   6.954   9.945  -1.851 -0.4490  2.3079  0.8421
  183MOL0     H25230   7.161   9.922  -1.990  0.7464  0.0597  1.3273
  183MOL0     H25231   7.231  10.049  -1.882 -0.5090 -0.7863  1.6878
  183MOL0     H25232   7.045  10.202  -2.006  0.8936  2.3228 -2.4171
  183MOL0     H25233   7.036  10.069  -2.122  2.1764  0.7992 -1.8270
  183MOL0     H25234   7.028   9.876  -1.058  0.9889 -2.3608 -0.3302
  183MOL0     H25235   7.045   9.793  -0.820 -0.3589 -2.3147  0.6335
  183MOL0     H25236   6.937   9.654  -0.466  0.6827  0.0796 -0.5840
  183MOL0     H25237   6.969   9.607  -0.246 -1.5253  0.1275  0.8256
  183MOL0     H25238   6.452   7.977   0.832 -1.3440  0.5529  2.4564
  183MOL0     H25239   6.222   7.915   0.774  0.7339 -0.1608 -0.0218
  183MOL0     H25240   5.911   7.836   0.667 -0.4658 -2.8045 -0.0851
  183MOL0     H25241   5.689   7.721   0.663  1.2868  0.1458  0.6327
  183MOL0     H25242   5.399   7.826   0.331 -6.4524 -1.1806  1.0677
  183MOL0     H25243   5.465   7.656   0.326  0.3250 -0.3500  1.0979
  183MOL0     H25244   5.290   7.602   0.485  3.5847  1.2851  1.1315
  183MOL0     H25245   5.225   7.665   0.334  1.1439  0.1176 -0.7288
  183MOL0     H25246   5.249   7.834   0.580 -0.7011 -0.0251  0.2319
  183MOL0     H25247   5.203   7.892   0.418  0.3575  0.1949  0.3001
  183MOL0     H25248   5.071   7.652   0.572  0.9494 -0.7625 -1.3188
  183MOL0     H25249   5.022   7.725   0.419  0.7114  2.2960 -1.0008
  183MOL0     H25250   4.808   7.943   0.704  2.1848  2.8747 -0.5318
  183MOL0     H25251   5.573   7.924   0.315 -1.0215  0.5175  2.0199
  183MOL0     H25252   5.879   8.072   0.226  0.9592 -0.5048  0.9799
  183MOL0     H25253   5.734   8.009   0.170  0.3998 -1.1191 -0.5281
  183MOL0     H25254   5.727   8.158   0.276  0.5762  0.2457 -2.8045
  184MOL0     O25255  10.408   1.057   6.355 -0.4958  0.5383  0.1483
  184MOL0     C25256  10.353   1.077   6.466  0.0524 -0.5445  0.6761
  184MOL0     O25257  10.399   1.040   6.588 -0.1808  0.3546 -0.0089
  184MOL0     C25258  10.513   0.963   6.606 -0.1301  0.0914  0.6054
  184MOL0     C25259  10.504   0.854   6.698 -0.5896 -0.5651  0.5035
  184MOL0     C25260  10.624   0.792   6.740  0.5209 -0.1917 -0.4738
  184MOL0     C25261  10.748   0.833   6.678 -0.2178  0.3877  0.9584
  184MOL0     O25262  10.870   0.792   6.716  0.0573 -0.5797 -0.0230
  184MOL0     C25263  10.884   0.754   6.860 -0.6156 -0.6691  0.4953
  184MOL0     C25264  11.037   0.706   6.875  0.8216  0.3405  0.3771
  184MOL0     C25265  11.056   0.582   6.791 -0.0839 -0.0726 -0.0745
  184MOL0     C25266  11.206   0.558   6.757  0.0972  0.0288  0.2840
  184MOL0     C25267  11.278   0.520   6.894  1.2599 -0.4347  0.5531
  184MOL0     C25268  11.425   0.486   6.864 -0.4545  0.3229  0.1782
  184MOL0     C25269  11.512   0.608   6.913  0.3040  0.2804 -0.7060
  184MOL0     C25270  11.660   0.585   6.900  0.3330  0.6593 -0.3404
  184MOL0     N25271  11.711   0.719   6.934 -0.8810 -0.1014  0.7222
  184MOL0     C25272  11.722   0.826   6.847  0.7236 -0.9071 -0.2243
  184MOL0     C25273  11.785   0.920   6.920  0.6796 -0.6356 -0.4518
  184MOL0     C25274  11.815   1.065   6.870 -0.8348  0.1694 -0.2163
  184MOL0     C25275  11.680   1.132   6.827  0.4932 -0.6252  0.2952
  184MOL0     C25276  11.707   1.269   6.758 -0.7768 -0.1769  0.0707
  184MOL0     C25277  11.584   1.309   6.680  0.7829 -0.8560 -0.4160
  184MOL0     O25278  11.574   1.453   6.650 -0.0620 -0.0248 -0.0209
  184MOL0     C25279  11.556   1.539   6.757  0.3714  0.4209  0.1521
  184MOL0     C25280  11.621   1.665   6.743  0.6278 -1.2680 -0.0179
  184MOL0     C25281  11.600   1.779   6.840 -1.0961  0.0909  0.5028
  184MOL0     C25282  11.676   1.906   6.814 -0.2446 -0.4036  0.4050
  184MOL0     C25283  11.512   1.758   6.942  0.2222  0.2315 -0.3301
  184MOL0     C25284  11.492   1.865   7.040  0.9956 -0.1973 -1.0664
  184MOL0     O25285  11.606   1.927   7.095  0.3547 -0.4176  0.3469
  184MOL0     C25286  11.585   2.027   7.186  0.1381  0.1309  0.2997
  184MOL0     C25287  11.544   1.983   7.310  0.5535 -0.2674  0.5149
  184MOL0     C25288  11.519   2.081   7.411 -0.9413  0.8932 -0.0878
  184MOL0     C25289  11.556   2.214   7.388  0.1337  0.3431 -0.2108
  184MOL0     O25290  11.566   2.307   7.481  0.3052 -0.2850  0.1018
  184MOL0     C25291  11.503   2.267   7.610  0.1431  0.4346  0.2034
  184MOL0     C25292  11.464   2.404   7.675  0.1439  0.7080  0.0796
  184MOL0     C25293  11.377   2.388   7.801 -0.3433 -0.7536  1.6324
  184MOL0     C25294  11.359   2.521   7.870  0.4340  0.1089 -0.8663
  184MOL0     C25295  11.264   2.621   7.802 -0.3371 -0.3667 -0.0257
  184MOL0     C25296  11.254   2.746   7.886 -0.9298  0.1638  0.2739
  184MOL0     C25297  11.388   2.838   7.868  0.2032  0.1735  0.4405
  184MOL0     C25298  11.351   2.984   7.893  0.4016 -0.7360  0.0338
  184MOL0    Cl25299  11.491   3.100   7.894 -0.1874  0.3250 -0.4009
  184MOL0     C25300  11.599   2.246   7.259  0.7962  0.3096 -0.2638
  184MOL0     C25301  11.619   2.157   7.154  0.3297 -0.7774  0.1888
  184MOL0     O25302  11.380   1.872   7.084  0.3679  0.1590  0.2484
  184MOL0     C25303  11.434   1.637   6.950  0.4696  0.4285  0.4662
  184MOL0     C25304  11.457   1.528   6.859  0.0342 -0.4835  0.3802
  184MOL0     N25305  11.812   0.870   7.044  0.5224 -0.1300  0.1253
  184MOL0     N25306  11.763   0.747   7.055  0.4518  0.4509 -0.4658
  184MOL0     C25307  10.754   0.923   6.573 -0.5493 -0.2320 -0.4537
  184MOL0     C25308  10.635   0.989   6.536 -0.1386  0.7201  0.2347
  184MOL0     C25309  10.215   1.144   6.461 -0.2672  0.0872 -0.2969
  184MOL0     C25310  10.170   1.192   6.338 -0.6357  0.8340 -0.0407
  184MOL0     C25311  10.046   1.238   6.310 -0.8855  0.4247 -0.9114
  184MOL0     C25312   9.954   1.236   6.411  0.7500 -0.0088 -0.4406
  184MOL0     O25313   9.824   1.277   6.390 -0.3477 -0.3659 -0.0654
  184MOL0     C25314   9.741   1.219   6.293  0.9163  0.9927  0.2627
  184MOL0     C25315   9.686   1.085   6.333 -0.6194  0.3021 -0.1246
  184MOL0     C25316   9.631   1.005   6.214 -0.3135 -0.5623 -0.1774
  184MOL0     C25317   9.510   1.078   6.130  0.4083  0.4253 -0.3971
  184MOL0     C25318   9.462   0.986   6.024  0.6698  0.2804  1.3291
  184MOL0     C25319   9.426   0.910   5.934 -0.0529 -0.2727  0.7442
  184MOL0     C25320   9.993   1.192   6.535 -0.0671 -0.1736  0.2066
  184MOL0     C25321  10.124   1.145   6.568  0.3013 -0.2316  0.4443
  184MOL0     C25322  10.161   1.105   6.701 -0.1300 -0.2604 -0.3165
  184MOL0     H25323  10.417   0.849   6.762  0.0750  3.0443  1.9464
  184MOL0     H25324  10.620   0.725   6.825 -1.1930 -0.9575 -1.1095
  184MOL0     H25325  10.821   0.665   6.875 -0.0977 -2.0575 -4.0235
  184MOL0     H25326  10.854   0.832   6.930  0.4242 -0.9450  1.2702
  184MOL0     H25327  11.105   0.784   6.840  2.8770 -1.3084  0.5319
  184MOL0     H25328  11.063   0.686   6.979 -0.0783  1.9929  0.9649
  184MOL0     H25329  11.010   0.493   6.835  0.9575 -0.3536  0.4752
  184MOL0     H25330  11.001   0.596   6.697  1.7794  3.4905 -0.7902
  184MOL0     H25331  11.213   0.474   6.688  0.6682  0.7113 -0.4958
  184MOL0     H25332  11.254   0.646   6.713 -2.8042  1.0987 -0.9781
  184MOL0     H25333  11.234   0.429   6.936  2.8897 -0.6100  2.0015
  184MOL0     H25334  11.270   0.591   6.976 -2.2198  1.5556 -1.2596
  184MOL0     H25335  11.449   0.398   6.923  0.5675  2.6768  3.5975
  184MOL0     H25336  11.444   0.477   6.756 -0.5579  3.0072 -0.1526
  184MOL0     H25337  11.481   0.634   7.015 -1.4170 -1.6375 -0.6760
  184MOL0     H25338  11.480   0.694   6.853  1.5849  1.0530 -0.3138
  184MOL0     H25339  11.698   0.512   6.973 -1.9041  0.6752  0.9355
  184MOL0     H25340  11.683   0.543   6.802  3.2831 -0.2023  0.6085
  184MOL0     H25341  11.681   0.836   6.746 -0.3724  2.3601  0.4016
  184MOL0     H25342  11.874   1.059   6.778  0.0055 -2.0237  0.3928
  184MOL0     H25343  11.856   1.128   6.950  1.9869 -2.1822  0.3693
  184MOL0     H25344  11.616   1.066   6.767  0.0066 -0.8445  1.0387
  184MOL0     H25345  11.619   1.152   6.916  0.8299 -1.4651  0.7203
  184MOL0     H25346  11.732   1.348   6.830  3.5047 -0.9446 -0.3130
  184MOL0     H25347  11.793   1.267   6.691  1.8757 -0.3965  3.2441
  184MOL0     H25348  11.591   1.267   6.579  1.3892 -0.1726 -0.6592
  184MOL0     H25349  11.492   1.279   6.733 -2.0638  1.8276 -3.3759
  184MOL0     H25350  11.692   1.678   6.662  0.8373 -0.7400  0.2485
  184MOL0     H25351  11.691   1.906   6.706 -3.0261  3.0581 -0.1758
  184MOL0     H25352  11.777   1.906   6.858 -0.6131 -0.3399  1.2723
  184MOL0     H25353  11.617   1.992   6.845  1.9012  1.0168  0.8111
  184MOL0     H25354  11.526   1.877   7.326  1.8520 -0.5410  0.2877
  184MOL0     H25355  11.493   2.049   7.512  0.6276 -2.4640 -0.5777
  184MOL0     H25356  11.405   2.220   7.598  0.2236  0.8524 -2.8990
  184MOL0     H25357  11.559   2.213   7.687 -3.2549  0.5033  2.9293
  184MOL0     H25358  11.558   2.452   7.700 -0.5897  1.6311  1.1501
  184MOL0     H25359  11.414   2.476   7.610 -4.5284  2.7805  5.1323
  184MOL0     H25360  11.412   2.315   7.874  1.2155 -1.5624  0.1300
  184MOL0     H25361  11.280   2.360   7.759  0.4551 -1.0849 -0.0411
  184MOL0     H25362  11.460   2.563   7.877  0.9076 -0.9356 -1.3123
  184MOL0     H25363  11.315   2.508   7.969  1.4003  0.3814 -0.3932
  184MOL0     H25364  11.300   2.650   7.702  0.5424  0.2763  0.4559
  184MOL0     H25365  11.162   2.587   7.785 -0.2564 -0.7039  0.1655
  184MOL0     H25366  11.232   2.720   7.991  1.4911 -0.4611  0.6771
  184MOL0     H25367  11.178   2.813   7.844  1.3517  1.4861 -1.9967
  184MOL0     H25368  11.404   2.837   7.760 -1.3146 -2.6261  0.1457
  184MOL0     H25369  11.476   2.793   7.914  1.4617  0.9687 -1.0672
  184MOL0     H25370  11.288   2.992   7.982  2.8784 -0.5613  1.8719
  184MOL0     H25371  11.294   3.012   7.804  0.6581 -2.3655 -0.6834
  184MOL0     H25372  11.624   2.351   7.243 -1.1802  0.9789  0.6572
  184MOL0     H25373  11.662   2.193   7.061  0.9707 -0.1854  0.7007
  184MOL0     H25374  11.369   1.625   7.037  3.2842  0.5911  2.7216
  184MOL0     H25375  11.406   1.433   6.872  1.8727 -1.7883 -1.4034
  184MOL0     H25376  10.853   0.940   6.532 -0.0015  0.3723  1.0718
  184MOL0     H25377  10.634   1.073   6.467 -1.9476  0.3284 -0.2852
  184MOL0     H25378  10.245   1.199   6.260  1.6960 -2.4728  1.6747
  184MOL0     H25379  10.033   1.284   6.213  0.2434  0.3121 -1.1296
  184MOL0     H25380   9.657   1.284   6.267  0.0721 -0.4721 -0.8637
  184MOL0     H25381   9.788   1.201   6.196 -2.7098 -2.9855 -1.0803
  184MOL0     H25382   9.605   1.102   6.404  1.9418  2.4632  2.5075
  184MOL0     H25383   9.762   1.023   6.380 -2.2452 -0.2731  1.9238
  184MOL0     H25384   9.718   0.983   6.151 -0.2452 -1.1034  0.0904
  184MOL0     H25385   9.601   0.908   6.256 -0.3319 -1.1260 -1.4332
  184MOL0     H25386   9.544   1.171   6.082 -2.3293  1.5797 -0.2370
  184MOL0     H25387   9.427   1.089   6.199 -0.9579 -4.3749 -0.8590
  184MOL0     H25388   9.417   0.832   5.861  1.1507  1.0775 -0.9449
  184MOL0     H25389   9.913   1.192   6.609  0.0212 -0.1817  0.3019
  184MOL0     H25390  10.090   1.129   6.781 -1.8418 -1.7887 -1.2883
  184MOL0     H25391  10.187   0.999   6.710 -0.2963 -0.2436  0.4158
  184MOL0     H25392  10.249   1.164   6.727 -0.2204 -1.0921  2.0683
  185MOL0     O25393   5.711   9.001   8.592  0.2101  0.0348  1.0965
  185MOL0     C25394   5.769   8.983   8.479  0.2319  0.6111 -0.4297
  185MOL0     O25395   5.898   8.940   8.457 -0.4655  0.1296  0.5258
  185MOL0     C25396   5.962   8.884   8.564 -0.5841  0.7436 -0.2212
  185MOL0     C25397   5.905   8.778   8.635 -0.8940 -0.1378  0.1543
  185MOL0     C25398   5.986   8.717   8.733  0.3701  0.0573 -0.5076
  185MOL0     C25399   6.116   8.763   8.775  0.3255  0.2683  0.0884
  185MOL0     O25400   6.190   8.687   8.870  1.1180  1.0094 -0.0236
  185MOL0     C25401   6.312   8.736   8.924 -0.3232  0.9520  0.2085
  185MOL0     C25402   6.368   8.637   9.027  0.0147 -0.1495  0.4209
  185MOL0     C25403   6.487   8.698   9.098  0.3130  1.3314  0.1583
  185MOL0     C25404   6.611   8.663   9.012 -0.7716  1.0080 -0.0862
  185MOL0     C25405   6.732   8.747   9.070 -0.2336  0.1551  1.0764
  185MOL0     C25406   6.783   8.713   9.209  0.3552  0.3547  0.0887
  185MOL0     C25407   6.930   8.766   9.230 -0.3730  0.5690  0.6785
  185MOL0     C25408   7.046   8.684   9.156  0.8714 -0.9602  0.9085
  185MOL0     N25409   7.028   8.545   9.187 -0.0191  0.1656 -0.1967
  185MOL0     C25410   7.098   8.484   9.284 -0.5548 -0.3053  1.0595
  185MOL0     C25411   7.086   8.353   9.261 -0.3599 -0.1792  0.7584
  185MOL0     C25412   7.171   8.257   9.337  0.6552 -0.3187 -0.3146
  185MOL0     C25413   7.317   8.241   9.289  1.3108 -0.0749 -0.4570
  185MOL0     C25414   7.387   8.120   9.354 -0.0340 -0.4261 -0.4113
  185MOL0     C25415   7.431   8.148   9.497  0.3068 -0.3189 -0.5794
  185MOL0     O25416   7.532   8.254   9.497 -0.3601  0.2227  0.8193
  185MOL0     C25417   7.600   8.290   9.613 -0.1387 -0.1884 -0.0519
  185MOL0     C25418   7.556   8.236   9.735 -0.1880 -0.5828 -0.3970
  185MOL0     C25419   7.631   8.259   9.856  0.5630  0.0046 -0.5205
  185MOL0     C25420   7.563   8.199   9.978  0.0464  0.5416  0.2590
  185MOL0     C25421   7.742   8.353   9.853  1.0075  0.3326 -0.2618
  185MOL0     C25422   7.803   8.392   9.988  0.1296 -0.7039  0.1688
  185MOL0     O25423   7.934   8.443   9.985  1.0839  0.4364  0.8801
  185MOL0     C25424   7.993   8.507  10.087 -0.8763  1.0120  0.8266
  185MOL0     C25425   8.125   8.483  10.107  0.5755 -0.7614  0.6640
  185MOL0     C25426   8.198   8.554  10.200 -0.0440  0.2910 -0.9488
  185MOL0     C25427   8.134   8.651  10.283 -0.0164  0.2193 -0.2293
  185MOL0     O25428   8.207   8.715  10.385  0.3388 -0.8593 -0.4138
  185MOL0     C25429   8.262   8.837  10.338 -0.7602  0.3478 -0.0571
  185MOL0     C25430   8.222   8.950  10.428 -0.0979  0.4215 -0.5472
  185MOL0     C25431   8.070   8.987  10.435  0.3047 -0.2712  0.6837
  185MOL0     C25432   8.037   9.111  10.516 -0.1599 -1.1828 -0.5081
  185MOL0     C25433   7.877   9.120  10.539  0.1577 -1.1702  0.4119
  185MOL0     C25434   7.853   9.256  10.599  0.8549  0.9812  0.5575
  185MOL0     C25435   7.704   9.280  10.638  0.4432  0.1545 -0.1881
  185MOL0     C25436   7.605   9.272  10.520 -0.0568 -0.2483  0.2364
  185MOL0    Cl25437   7.642   9.409  10.420  0.6455 -0.2938 -0.2341
  185MOL0     C25438   7.997   8.683  10.255 -0.1753  0.0067  0.4118
  185MOL0     C25439   7.933   8.610  10.158  1.0160 -0.1595  0.3831
  185MOL0     O25440   7.737   8.385  10.090  0.8285 -0.4141  0.3299
  185MOL0     C25441   7.789   8.396   9.725  0.9371  1.1351 -0.0201
  185MOL0     C25442   7.719   8.367   9.606  0.3098  0.9230 -0.1567
  185MOL0     N25443   7.009   8.333   9.140 -0.4107 -0.3251  0.5802
  185MOL0     N25444   6.978   8.446   9.100  0.0335 -0.1381 -0.2909
  185MOL0     C25445   6.164   8.881   8.717 -0.1799 -0.3136 -0.1278
  185MOL0     C25446   6.092   8.929   8.602 -0.0989  0.4581  0.1990
  185MOL0     C25447   5.688   9.026   8.354  0.0137  0.9265 -0.0987
  185MOL0     C25448   5.585   9.123   8.363 -0.0183  0.6281  0.7183
  185MOL0     C25449   5.511   9.162   8.252  0.0944 -0.2966  0.7844
  185MOL0     C25450   5.531   9.100   8.124  0.3294  0.2643 -0.4540
  185MOL0     O25451   5.473   9.129   8.012  0.6479 -0.9160  0.5773
  185MOL0     C25452   5.424   9.270   7.991  0.4132  0.0315  0.1216
  185MOL0     C25453   5.331   9.266   7.869 -0.4525 -0.2345  0.3173
  185MOL0     C25454   5.399   9.241   7.732 -0.1738 -0.8727  0.2104
  185MOL0     C25455   5.318   9.127   7.650  0.5676 -0.6663 -0.0220
  185MOL0     C25456   5.180   9.168   7.614  0.2401 -0.2148 -0.3567
  185MOL0     C25457   5.072   9.216   7.577  0.4193 -0.0956  0.5026
  185MOL0     C25458   5.617   8.995   8.119 -0.3516 -0.0216 -0.0464
  185MOL0     C25459   5.696   8.953   8.231  0.3831 -0.3080 -0.5624
  185MOL0     C25460   5.805   8.839   8.203  0.2853 -0.9558 -0.9977
  185MOL0     H25461   5.801   8.750   8.622 -0.4396 -4.6061  3.5388
  185MOL0     H25462   5.947   8.637   8.796 -0.5913  1.5045  0.8417
  185MOL0     H25463   6.293   8.828   8.980 -0.6050  1.7982 -1.2461
  185MOL0     H25464   6.386   8.760   8.847 -0.0669 -2.0891 -0.6295
  185MOL0     H25465   6.285   8.615   9.096  0.1070 -1.5261  0.1270
  185MOL0     H25466   6.393   8.543   8.977 -1.1773  0.0694 -0.6396
  185MOL0     H25467   6.478   8.806   9.113  0.2482  1.4911 -0.9760
  185MOL0     H25468   6.499   8.671   9.203  2.0771  1.8886  0.1316
  185MOL0     H25469   6.626   8.555   9.021 -5.2425  0.1658 -0.5778
  185MOL0     H25470   6.597   8.696   8.909 -0.0441  1.6207  0.0004
  185MOL0     H25471   6.717   8.854   9.052  1.3416  0.2661  0.2587
  185MOL0     H25472   6.823   8.719   9.015  0.0551  0.2485  1.5046
  185MOL0     H25473   6.712   8.761   9.277 -1.5007  1.3694 -2.4127
  185MOL0     H25474   6.775   8.606   9.228  1.5314  0.1532 -0.5023
  185MOL0     H25475   6.953   8.761   9.337  0.7001  1.8113  0.5334
  185MOL0     H25476   6.929   8.873   9.210 -2.7962  0.8378  1.8250
  185MOL0     H25477   7.047   8.697   9.047  3.2964  2.8746  1.1862
  185MOL0     H25478   7.146   8.712   9.192  0.1815 -0.5006  2.5534
  185MOL0     H25479   7.160   8.533   9.358  2.1601 -1.1306 -0.5547
  185MOL0     H25480   7.132   8.155   9.333  1.2439 -0.6072  0.8261
  185MOL0     H25481   7.165   8.287   9.442 -0.4629  0.7575 -0.6532
  185MOL0     H25482   7.309   8.220   9.182 -0.8805 -1.2343 -0.1290
  185MOL0     H25483   7.378   8.330   9.308  2.9883 -1.6338  1.9056
  185MOL0     H25484   7.314   8.038   9.346  1.9030 -2.0938 -1.9659
  185MOL0     H25485   7.472   8.094   9.290 -1.0957 -1.8596 -1.2997
  185MOL0     H25486   7.349   8.189   9.557 -0.0149  1.6582 -2.2696
  185MOL0     H25487   7.461   8.052   9.540  0.3959 -0.2461 -0.4765
  185MOL0     H25488   7.462   8.183   9.741 -0.8217  0.4432 -1.1225
  185MOL0     H25489   7.493   8.118   9.953 -0.0136  0.5752  0.3187
  185MOL0     H25490   7.501   8.277  10.022  0.2903  0.7822  0.1717
  185MOL0     H25491   7.646   8.157  10.035  2.2192  3.6558 -0.3446
  185MOL0     H25492   8.186   8.422  10.041  1.4560 -0.6798  1.3832
  185MOL0     H25493   8.293   8.509  10.226 -1.3739 -1.7328  0.8078
  185MOL0     H25494   8.371   8.842  10.345 -0.8081  3.0500 -0.2488
  185MOL0     H25495   8.223   8.857  10.238 -2.1061  1.3777  0.6406
  185MOL0     H25496   8.251   8.925  10.531  0.0005  0.3522 -0.5904
  185MOL0     H25497   8.278   9.037  10.391  3.0878 -0.9400  0.7356
  185MOL0     H25498   8.011   8.907  10.481 -0.5003  0.1014  0.3211
  185MOL0     H25499   8.037   9.000  10.332 -0.4695 -0.3793  0.9052
  185MOL0     H25500   8.087   9.202  10.480  0.6396 -0.5159  2.0422
  185MOL0     H25501   8.097   9.091  10.605 -1.3842 -1.9239  0.1768
  185MOL0     H25502   7.830   9.108  10.441  0.4071  0.4521  0.0682
  185MOL0     H25503   7.839   9.047  10.612  0.5235  0.4465  2.3030
  185MOL0     H25504   7.883   9.336  10.530 -0.4540 -0.1398 -1.3958
  185MOL0     H25505   7.912   9.253  10.691 -0.4751 -0.5653  1.4005
  185MOL0     H25506   7.692   9.373  10.696 -2.1958 -0.6592  0.7205
  185MOL0     H25507   7.680   9.202  10.711 -0.5178  0.2962 -0.3340
  185MOL0     H25508   7.504   9.287  10.558 -0.6338 -0.2717 -1.1995
  185MOL0     H25509   7.606   9.183  10.457 -0.6820  0.2163 -0.4499
  185MOL0     H25510   7.935   8.762  10.295 -0.4587  0.3377 -0.6466
  185MOL0     H25511   7.826   8.620  10.140  1.1828 -0.9384 -1.2164
  185MOL0     H25512   7.879   8.456   9.722  1.8268 -0.1259  0.3909
  185MOL0     H25513   7.757   8.410   9.513  2.8306 -0.4638  0.1608
  185MOL0     H25514   6.258   8.933   8.733 -1.4022  2.1854 -0.5039
  185MOL0     H25515   6.146   9.004   8.545 -0.5058  0.0070 -0.7812
  185MOL0     H25516   5.547   9.165   8.456  0.7152 -1.3473  1.9794
  185MOL0     H25517   5.433   9.237   8.266 -2.2250 -2.0524 -1.6703
  185MOL0     H25518   5.353   9.287   8.073 -0.1762 -1.8464  0.0578
  185MOL0     H25519   5.501   9.347   7.994 -1.6594  2.3345 -1.7195
  185MOL0     H25520   5.287   9.364   7.853 -0.4646 -0.6173 -2.3695
  185MOL0     H25521   5.248   9.197   7.886 -0.0059 -0.2411  2.9112
  185MOL0     H25522   5.419   9.335   7.680  0.1932 -1.5130 -0.8355
  185MOL0     H25523   5.501   9.207   7.754  0.4933  0.9078  0.0517
  185MOL0     H25524   5.308   9.038   7.713 -1.4447  0.7971  1.8717
  185MOL0     H25525   5.364   9.105   7.553 -0.9477 -0.4158 -0.8367
  185MOL0     H25526   4.976   9.255   7.551  0.1073  1.2277  3.2642
  185MOL0     H25527   5.629   8.944   8.024 -1.0861  2.4996 -1.5897
  185MOL0     H25528   5.784   8.781   8.112 -2.7853 -2.5173  0.5211
  185MOL0     H25529   5.904   8.885   8.205 -0.2999  0.3275 -0.3998
  185MOL0     H25530   5.798   8.767   8.286 -0.4058 -1.6391 -1.6334
  186MOL0     O25531   9.561   6.075   7.100 -0.7374 -0.2658  0.3423
  186MOL0     C25532   9.631   6.091   7.204  0.5247 -0.6435  0.6183
  186MOL0     O25533   9.737   6.166   7.222 -0.2399  0.5811 -0.1540
  186MOL0     C25534   9.764   6.245   7.123  0.3444  0.5180  0.0575
  186MOL0     C25535   9.736   6.379   7.158 -0.3619  0.0737  0.4768
  186MOL0     C25536   9.768   6.480   7.070 -0.1812  0.2608 -0.0863
  186MOL0     C25537   9.821   6.454   6.937 -0.1629 -0.7632 -0.0125
  186MOL0     O25538   9.838   6.556   6.851 -0.3470 -0.0929 -1.1320
  186MOL0     C25539   9.899   6.548   6.720  0.6921 -0.5204  0.1824
  186MOL0     C25540  10.051   6.594   6.715 -0.0734  0.6382 -0.2795
  186MOL0     C25541  10.152   6.516   6.799 -0.4748  1.2106 -0.1975
  186MOL0     C25542  10.291   6.563   6.772 -0.0187  0.4871 -0.5086
  186MOL0     C25543  10.316   6.702   6.815 -0.0188 -0.8000  0.5208
  186MOL0     C25544  10.461   6.735   6.844  0.1256 -0.5626  0.9556
  186MOL0     C25545  10.498   6.686   6.991  0.6280  0.0249  0.0384
  186MOL0     C25546  10.649   6.648   7.013  0.3096 -0.6733 -0.1777
  186MOL0     N25547  10.740   6.746   6.957  0.2291  0.0060 -0.1780
  186MOL0     C25548  10.831   6.730   6.859  0.2728 -0.5701 -0.1726
  186MOL0     C25549  10.906   6.841   6.868  0.4643  0.3852  0.1159
  186MOL0     C25550  11.032   6.871   6.778 -0.1096  0.6940 -0.0695
  186MOL0     C25551  11.161   6.817   6.841 -0.0471  0.4700  0.5285
  186MOL0     C25552  11.295   6.861   6.773 -0.5537 -0.5385 -0.7112
  186MOL0     C25553  11.327   6.795   6.641 -0.3963 -0.3883  0.0128
  186MOL0     O25554  11.410   6.677   6.659 -0.0656  0.5461 -0.1930
  186MOL0     C25555  11.543   6.704   6.690  0.3546  0.5144  0.4987
  186MOL0     C25556  11.594   6.613   6.777  0.0565  0.4488 -1.1559
  186MOL0     C25557  11.715   6.632   6.845  1.0380  0.3839 -0.3645
  186MOL0     C25558  11.759   6.555   6.965  0.1376  0.2899 -0.4100
  186MOL0     C25559  11.790   6.742   6.801  0.0940 -0.4271  0.8665
  186MOL0     C25560  11.923   6.777   6.840 -0.2738 -0.8526 -0.3868
  186MOL0     O25561  11.937   6.912   6.855 -0.2132 -0.6425  0.7566
  186MOL0     C25562  12.035   6.966   6.931  0.5752  0.3711 -0.7651
  186MOL0     C25563  12.001   7.069   7.020 -0.5058 -0.3433 -0.7333
  186MOL0     C25564  12.094   7.141   7.096 -0.9634  0.1254  0.2694
  186MOL0     C25565  12.235   7.125   7.064 -0.0482  0.9546  0.1599
  186MOL0     O25566  12.340   7.189   7.127 -1.2082 -0.3894  0.9756
  186MOL0     C25567  12.322   7.294   7.219 -0.6131 -0.4930  0.7998
  186MOL0     C25568  12.450   7.353   7.284  0.3388 -0.3269  0.3625
  186MOL0     C25569  12.555   7.404   7.181 -0.0155 -0.1783  0.0721
  186MOL0     C25570  12.497   7.510   7.088 -0.0541  0.3851  0.0137
  186MOL0     C25571  12.604   7.593   7.026  0.0219  0.5321  0.3835
  186MOL0     C25572  12.548   7.722   6.953 -1.0500  0.3735 -0.7473
  186MOL0     C25573  12.652   7.799   6.854  0.1108  0.0926  0.3479
  186MOL0     C25574  12.789   7.816   6.916 -1.2124 -0.3960  0.0136
  186MOL0    Cl25575  12.910   7.906   6.818  0.1841 -0.0402 -0.1399
  186MOL0     C25576  12.268   7.034   6.970  0.3370  0.0135 -0.1111
  186MOL0     C25577  12.175   6.956   6.902  0.2175  0.0974  0.6596
  186MOL0     O25578  12.014   6.693   6.868  0.1403  0.6051 -0.4163
  186MOL0     C25579  11.749   6.820   6.696  0.1501  0.6553  0.2026
  186MOL0     C25580  11.623   6.811   6.642 -0.5321 -0.3038  0.0637
  186MOL0     N25581  10.852   6.932   6.950  0.2574 -0.0645  0.2410
  186MOL0     N25582  10.758   6.874   7.008 -0.1025  0.3982 -0.2801
  186MOL0     C25583   9.835   6.317   6.898  0.8590  0.6025 -0.1111
  186MOL0     C25584   9.808   6.213   6.992 -0.3908 -0.1845 -0.0689
  186MOL0     C25585   9.598   5.996   7.317  0.5234 -0.8458 -0.9525
  186MOL0     C25586   9.679   6.025   7.432  0.6670  0.3365  0.9806
  186MOL0     C25587   9.677   5.944   7.537  0.7723 -0.2537 -0.0747
  186MOL0     C25588   9.604   5.829   7.531 -0.7757  0.3625  1.0611
  186MOL0     O25589   9.623   5.763   7.648 -0.3851  0.1954 -0.2849
  186MOL0     C25590   9.567   5.630   7.668  0.0283  0.2917 -0.1484
  186MOL0     C25591   9.549   5.588   7.814 -0.7901  0.7419  0.1336
  186MOL0     C25592   9.672   5.514   7.878 -0.0099  0.8062  0.3460
  186MOL0     C25593   9.802   5.594   7.867  0.1561 -0.1729 -0.3877
  186MOL0     C25594   9.909   5.521   7.947  0.2313  0.8848 -0.0272
  186MOL0     C25595   9.992   5.465   8.010 -0.9052  0.1906  0.1121
  186MOL0     C25596   9.524   5.793   7.423 -0.1279 -0.2417 -0.1463
  186MOL0     C25597   9.509   5.879   7.314  0.0126 -0.2344 -0.2391
  186MOL0     C25598   9.430   5.833   7.193  0.3192 -0.3853 -0.4242
  186MOL0     H25599   9.700   6.392   7.259  1.8647 -0.4235  1.3915
  186MOL0     H25600   9.742   6.584   7.084 -0.6681  0.4988 -2.2909
  186MOL0     H25601   9.839   6.617   6.659  0.6862  0.7449  1.5717
  186MOL0     H25602   9.889   6.447   6.678  1.7644  0.0732 -1.6306
  186MOL0     H25603  10.079   6.579   6.611  1.8788 -1.3865  0.4474
  186MOL0     H25604  10.067   6.700   6.736  1.2049  0.9689 -2.6131
  186MOL0     H25605  10.123   6.516   6.905 -3.3619 -1.3345 -0.8297
  186MOL0     H25606  10.153   6.411   6.769  3.5947  1.5973 -2.0627
  186MOL0     H25607  10.358   6.493   6.821 -0.6785  0.8646  0.9695
  186MOL0     H25608  10.307   6.540   6.666 -2.4878  2.8420 -1.5066
  186MOL0     H25609  10.259   6.733   6.904 -0.1733 -0.1302  0.1886
  186MOL0     H25610  10.280   6.766   6.735 -1.0652 -1.7174  0.2412
  186MOL0     H25611  10.532   6.687   6.776 -0.2217  1.1427 -0.6885
  186MOL0     H25612  10.479   6.841   6.824  1.2227 -0.5748  1.7878
  186MOL0     H25613  10.439   6.596   7.011  0.8675  0.1518  1.4288
  186MOL0     H25614  10.476   6.759   7.070  0.1184  1.0498 -1.0213
  186MOL0     H25615  10.670   6.641   7.120 -1.7131 -1.1799  0.2257
  186MOL0     H25616  10.690   6.554   6.976  2.4316 -0.0513  0.4285
  186MOL0     H25617  10.861   6.649   6.793  2.6345  1.0922 -1.3252
  186MOL0     H25618  11.051   6.978   6.767 -1.4522  0.8035 -1.8569
  186MOL0     H25619  11.018   6.818   6.683  0.3853  1.6835 -0.7090
  186MOL0     H25620  11.158   6.852   6.944 -1.6067 -0.3104  0.7870
  186MOL0     H25621  11.154   6.708   6.826  0.6450  0.7278 -2.1143
  186MOL0     H25622  11.300   6.970   6.765  2.7253 -0.2905  2.3032
  186MOL0     H25623  11.377   6.837   6.842 -0.0959 -1.2591 -1.4891
  186MOL0     H25624  11.232   6.759   6.599 -1.2749 -1.0406  2.3750
  186MOL0     H25625  11.375   6.875   6.583  1.0876  0.6028  2.4519
  186MOL0     H25626  11.534   6.539   6.829  1.9199 -0.6728 -0.5141
  186MOL0     H25627  11.673   6.505   7.011  0.0427 -0.1556 -1.0614
  186MOL0     H25628  11.812   6.608   7.045 -1.9354 -1.4451  2.3404
  186MOL0     H25629  11.835   6.482   6.935  1.6968  0.4799  2.6023
  186MOL0     H25630  11.901   7.070   7.063  0.4516  0.5306  1.6659
  186MOL0     H25631  12.067   7.201   7.183  1.6057 -1.9114  2.6682
  186MOL0     H25632  12.271   7.377   7.170  2.1130  0.6588 -0.2835
  186MOL0     H25633  12.250   7.268   7.298 -1.5439  2.8777  1.2146
  186MOL0     H25634  12.421   7.436   7.349  1.4172  1.0035 -0.8000
  186MOL0     H25635  12.488   7.276   7.353 -0.1973  1.4736  2.8321
  186MOL0     H25636  12.587   7.316   7.123 -1.5614  0.5532 -2.0093
  186MOL0     H25637  12.628   7.455   7.245  0.4300  1.5509 -1.7309
  186MOL0     H25638  12.433   7.582   7.141 -0.3420  0.4322 -0.3965
  186MOL0     H25639  12.430   7.473   7.010  0.6237  1.9999 -1.4081
  186MOL0     H25640  12.672   7.621   7.107 -1.4688 -1.5364  2.4591
  186MOL0     H25641  12.653   7.532   6.949 -0.5900 -0.9704  1.1671
  186MOL0     H25642  12.506   7.786   7.031 -0.6843 -0.2441 -0.0336
  186MOL0     H25643  12.459   7.696   6.894 -0.3985  0.7999 -1.9444
  186MOL0     H25644  12.605   7.887   6.807 -3.0023 -2.0005 -0.8141
  186MOL0     H25645  12.679   7.733   6.771 -0.0813 -1.1754  1.2745
  186MOL0     H25646  12.830   7.719   6.948 -1.8562 -1.0587 -1.0869
  186MOL0     H25647  12.772   7.875   7.006 -2.2847 -1.3555  0.4677
  186MOL0     H25648  12.376   7.031   6.957  0.1783 -0.9641 -1.4409
  186MOL0     H25649  12.198   6.883   6.826  0.0656 -2.1405  2.6592
  186MOL0     H25650  11.814   6.898   6.659  3.1266 -2.2455 -1.2876
  186MOL0     H25651  11.591   6.872   6.559 -6.0974 -2.0534  0.4920
  186MOL0     H25652   9.849   6.275   6.799  1.0822  4.0126 -1.6742
  186MOL0     H25653   9.794   6.111   6.958 -3.9046  0.7905 -2.0811
  186MOL0     H25654   9.740   6.115   7.437  0.0526  0.9178 -0.8428
  186MOL0     H25655   9.710   5.971   7.637 -2.8937  1.0270  0.9757
  186MOL0     H25656   9.469   5.624   7.621 -1.3466  1.1142  2.3956
  186MOL0     H25657   9.627   5.550   7.623 -0.4684 -1.0124  1.4116
  186MOL0     H25658   9.460   5.526   7.827 -1.2921  1.6004  0.8957
  186MOL0     H25659   9.534   5.667   7.888  1.3076 -1.2260  2.8812
  186MOL0     H25660   9.651   5.499   7.985  0.3956  3.0034  0.7740
  186MOL0     H25661   9.686   5.420   7.823 -2.7865 -0.0276  0.8921
  186MOL0     H25662   9.787   5.693   7.911 -0.7963 -0.4772  0.0052
  186MOL0     H25663   9.832   5.605   7.762 -1.3223  2.4388 -0.6225
  186MOL0     H25664  10.068   5.413   8.064  0.6604 -1.4507 -3.3562
  186MOL0     H25665   9.478   5.694   7.418  0.7975 -0.6888 -0.0660
  186MOL0     H25666   9.365   5.749   7.220 -0.9179  0.4707 -0.6484
  186MOL0     H25667   9.375   5.913   7.143 -0.6948  0.0309  1.2806
  186MOL0     H25668   9.494   5.781   7.121 -1.7095 -0.6519 -2.1355
  187MOL0     O25669   2.348   5.632   8.638 -0.3330  0.4237 -0.0232
  187MOL0     C25670   2.334   5.751   8.645  0.1847 -0.3969  0.6598
  187MOL0     O25671   2.399   5.831   8.735  0.2050 -0.9057 -0.0675
  187MOL0     C25672   2.476   5.771   8.834 -0.5989  0.3900  0.1430
  187MOL0     C25673   2.411   5.722   8.946 -0.0857  0.3184 -0.1665
  187MOL0     C25674   2.485   5.657   9.046  0.3408 -0.6476 -0.3972
  187MOL0     C25675   2.622   5.647   9.041  0.4730 -0.0936 -0.3430
  187MOL0     O25676   2.681   5.601   9.152  0.3355 -0.5698  0.2365
  187MOL0     C25677   2.819   5.547   9.134 -0.3292  0.6624 -0.2829
  187MOL0     C25678   2.877   5.504   9.258 -1.0156 -0.2819  0.7972
  187MOL0     C25679   2.879   5.606   9.368 -0.0741 -0.5904  0.1938
  187MOL0     C25680   2.930   5.555   9.507 -0.4546 -0.0352  0.3796
  187MOL0     C25681   2.927   5.668   9.610 -0.3822 -0.7000 -0.4232
  187MOL0     C25682   2.943   5.614   9.752 -0.8642 -0.2856 -0.5200
  187MOL0     C25683   3.088   5.561   9.774 -0.1854 -0.0101  0.3348
  187MOL0     C25684   3.095   5.469   9.903  0.5311  0.2468  0.2756
  187MOL0     N25685   3.231   5.456   9.952 -0.5043 -0.2885 -0.4861
  187MOL0     C25686   3.305   5.564   9.984  1.0198 -0.5917 -1.0859
  187MOL0     C25687   3.424   5.510  10.003 -0.4122 -0.9213  0.7338
  187MOL0     C25688   3.561   5.577  10.032 -0.2018  0.4688 -0.4405
  187MOL0     C25689   3.559   5.659  10.160  0.8575  0.4342 -0.0238
  187MOL0     C25690   3.687   5.724  10.184  0.5372 -0.1401  0.6816
  187MOL0     C25691   3.667   5.783  10.320 -0.0201 -0.4553 -0.1569
  187MOL0     O25692   3.797   5.835  10.352 -0.3213 -1.1322 -1.3348
  187MOL0     C25693   3.813   5.881  10.476  0.1580 -0.4098  0.0750
  187MOL0     C25694   3.717   5.864  10.587 -0.2211  0.2835  1.2756
  187MOL0     C25695   3.742   5.924  10.705  0.2784 -0.1489  0.0704
  187MOL0     C25696   3.635   5.911  10.810  0.5788 -0.3473  0.3055
  187MOL0     C25697   3.856   6.003  10.724  0.0128 -0.5993  0.2304
  187MOL0     C25698   3.886   6.070  10.846  0.0768  0.5278 -0.1057
  187MOL0     O25699   4.019   6.117  10.856  0.1381  0.5785  0.1317
  187MOL0     C25700   4.079   6.130  10.973  0.0599 -0.3609 -0.5948
  187MOL0     C25701   4.172   6.035  11.021 -1.3928  0.0735 -0.4781
  187MOL0     C25702   4.262   6.077  11.118  0.6014 -0.3884  0.3987
  187MOL0     C25703   4.239   6.191  11.183  0.0898  0.6278 -0.3437
  187MOL0     O25704   4.324   6.215  11.286 -0.1932  0.1918  1.0927
  187MOL0     C25705   4.346   6.342  11.340  0.0333  0.3379  0.0011
  187MOL0     C25706   4.486   6.350  11.411 -0.7324  0.4958  0.0483
  187MOL0     C25707   4.522   6.485  11.475  0.3066 -0.0985 -0.6169
  187MOL0     C25708   4.455   6.512  11.613 -0.1525 -1.4248  1.0556
  187MOL0     C25709   4.477   6.661  11.653 -0.1281 -0.0649  0.1598
  187MOL0     C25710   4.621   6.696  11.666 -0.2173 -0.3085  0.1448
  187MOL0     C25711   4.617   6.844  11.709  0.3066  0.4684 -0.3981
  187MOL0     C25712   4.761   6.887  11.722 -0.0765 -0.2305 -0.5453
  187MOL0    Cl25713   4.828   6.841  11.885 -0.3898 -0.0449 -0.4432
  187MOL0     C25714   4.139   6.274  11.154 -0.1468 -0.3122  0.6130
  187MOL0     C25715   4.060   6.242  11.049  0.6260 -1.0953 -0.0372
  187MOL0     O25716   3.801   6.088  10.935 -0.3208 -0.1443 -0.3924
  187MOL0     C25717   3.946   6.017  10.614  0.7199 -0.1238 -0.1385
  187MOL0     C25718   3.930   5.947  10.494  0.0716  0.1621 -0.4573
  187MOL0     N25719   3.421   5.377   9.985  0.4655 -0.0237  0.4560
  187MOL0     N25720   3.307   5.346   9.948  0.3257  0.1164 -0.4505
  187MOL0     C25721   2.687   5.710   8.933 -0.8888 -0.4422  0.2682
  187MOL0     C25722   2.613   5.762   8.828 -0.8078 -0.5179  0.0194
  187MOL0     C25723   2.231   5.822   8.568  0.1092  0.0225 -0.6396
  187MOL0     C25724   2.236   5.968   8.559 -0.1419  0.6838  0.0030
  187MOL0     C25725   2.125   6.039   8.524 -1.7965 -1.1864  0.7574
  187MOL0     C25726   2.013   5.973   8.478  0.0672 -0.4980  0.5626
  187MOL0     O25727   1.901   6.037   8.445 -1.1286 -0.1269 -0.2824
  187MOL0     C25728   1.880   6.097   8.317 -0.7786  0.4543 -0.0148
  187MOL0     C25729   1.853   6.241   8.331  0.6133 -0.3047  0.2430
  187MOL0     C25730   1.758   6.284   8.436 -0.5818 -0.3021  0.3505
  187MOL0     C25731   1.701   6.421   8.404 -0.1745  0.8324 -0.2735
  187MOL0     C25732   1.806   6.523   8.387 -0.4048 -0.3364 -0.0632
  187MOL0     C25733   1.893   6.597   8.359 -1.1741 -0.1699  0.9708
  187MOL0     C25734   2.003   5.838   8.483 -0.3515 -0.1172 -0.1046
  187MOL0     C25735   2.112   5.758   8.521 -0.2506  0.6468  0.0403
  187MOL0     C25736   2.091   5.610   8.544  0.7212  0.5769  1.0463
  187MOL0     H25737   2.303   5.730   8.949  0.0485  2.2592  1.0385
  187MOL0     H25738   2.430   5.625   9.134 -1.4118  3.2310  0.1094
  187MOL0     H25739   2.883   5.628   9.099 -1.6981  1.8456 -0.0919
  187MOL0     H25740   2.812   5.472   9.054 -2.9730  1.6135 -1.0523
  187MOL0     H25741   2.830   5.408   9.285 -1.7322 -1.2504 -3.2699
  187MOL0     H25742   2.981   5.480   9.236 -1.0029 -0.4208  1.0019
  187MOL0     H25743   2.937   5.694   9.339 -1.5755  0.2644 -0.3442
  187MOL0     H25744   2.774   5.635   9.379  0.1216 -0.4478  2.0447
  187MOL0     H25745   2.861   5.475   9.536 -0.1801 -0.0000  1.1750
  187MOL0     H25746   3.032   5.516   9.495 -0.7857 -0.3117 -1.9691
  187MOL0     H25747   2.825   5.709   9.605 -0.5138 -1.0659 -0.8239
  187MOL0     H25748   3.002   5.744   9.589 -0.1356 -0.3282  1.5973
  187MOL0     H25749   2.931   5.694   9.826 -0.1028  0.1768 -0.8784
  187MOL0     H25750   2.864   5.540   9.767 -4.5315  3.3823  0.4030
  187MOL0     H25751   3.151   5.648   9.792 -0.0478 -0.3692  1.7430
  187MOL0     H25752   3.120   5.496   9.692 -0.4342 -1.3977  1.2970
  187MOL0     H25753   3.038   5.511   9.986 -2.2855 -0.2958 -1.2657
  187MOL0     H25754   3.045   5.374   9.882 -0.2389 -0.1491  3.4582
  187MOL0     H25755   3.263   5.664   9.978 -0.8381 -0.9523  2.6149
  187MOL0     H25756   3.588   5.646   9.951  2.2114 -1.2589 -1.2127
  187MOL0     H25757   3.652   5.517  10.025  0.2808  1.2772 -1.4618
  187MOL0     H25758   3.491   5.744  10.147  3.1791  2.1440 -1.8916
  187MOL0     H25759   3.529   5.595  10.244  1.4778 -0.6957 -0.6364
  187MOL0     H25760   3.776   5.662  10.167  0.4604 -0.0896  0.0957
  187MOL0     H25761   3.700   5.815  10.125 -0.5254 -0.0079  0.6383
  187MOL0     H25762   3.589   5.859  10.332  1.4002  0.8992  0.8104
  187MOL0     H25763   3.647   5.701  10.390 -0.6001  1.7680  2.4538
  187MOL0     H25764   3.630   5.804  10.564  2.1176 -2.0101 -2.6293
  187MOL0     H25765   3.675   5.864  10.900  0.9171 -1.1903 -0.2806
  187MOL0     H25766   3.556   5.841  10.783  1.1847 -1.7036  1.8824
  187MOL0     H25767   3.592   6.012  10.819  0.6064 -0.3536  0.5004
  187MOL0     H25768   4.192   5.935  10.984  0.1582 -0.1776  0.9287
  187MOL0     H25769   4.345   6.012  11.146 -0.2875 -4.5186 -4.9578
  187MOL0     H25770   4.331   6.416  11.261 -1.5325 -0.3062 -0.3312
  187MOL0     H25771   4.267   6.362  11.413 -0.9064  1.4361 -1.2777
  187MOL0     H25772   4.496   6.264  11.478 -1.8667  1.3871  1.4192
  187MOL0     H25773   4.565   6.332  11.338 -0.3943 -0.9514  0.7411
  187MOL0     H25774   4.502   6.565  11.403 -1.3078  0.2657  0.1784
  187MOL0     H25775   4.630   6.486  11.489  0.7386  0.9268 -3.4626
  187MOL0     H25776   4.504   6.447  11.686  0.8076 -2.1638 -0.2252
  187MOL0     H25777   4.350   6.481  11.613 -0.6105  0.0561  0.0225
  187MOL0     H25778   4.419   6.722  11.583  0.3092  1.6337  1.2226
  187MOL0     H25779   4.425   6.674  11.749 -3.0497  0.5380 -1.3837
  187MOL0     H25780   4.670   6.693  11.569 -0.7514  2.6992 -0.3202
  187MOL0     H25781   4.677   6.645  11.745  0.0231 -0.6337 -0.2401
  187MOL0     H25782   4.569   6.860  11.806 -2.0212  0.5784 -1.5063
  187MOL0     H25783   4.570   6.908  11.634 -2.6620 -0.6206  0.3597
  187MOL0     H25784   4.767   6.995  11.703 -2.4832 -0.4615 -3.3004
  187MOL0     H25785   4.825   6.847  11.643  2.9116  0.4382  1.3504
  187MOL0     H25786   4.126   6.371  11.202 -1.7038  0.7813 -1.8568
  187MOL0     H25787   3.997   6.320  11.007 -1.4035 -2.2218  0.7718
  187MOL0     H25788   4.036   6.076  10.625  1.0612 -0.6879  0.1474
  187MOL0     H25789   3.999   5.959  10.411  0.3822 -3.3354 -0.8588
  187MOL0     H25790   2.793   5.731   8.928 -0.6551 -1.7779 -1.2239
  187MOL0     H25791   2.665   5.802   8.741 -0.8871 -1.4575 -0.4643
  187MOL0     H25792   2.328   6.019   8.586  3.1654 -3.9268 -1.3745
  187MOL0     H25793   2.135   6.147   8.527  1.8803 -1.3920  1.7837
  187MOL0     H25794   1.968   6.088   8.252  0.9439 -1.3853  2.3720
  187MOL0     H25795   1.798   6.048   8.263  0.4571 -0.2453 -1.3305
  187MOL0     H25796   1.809   6.288   8.242  1.7020  3.9149  1.7432
  187MOL0     H25797   1.950   6.288   8.346  0.8164 -0.8873  0.8265
  187MOL0     H25798   1.683   6.205   8.435  0.9550 -1.8021  0.2075
  187MOL0     H25799   1.818   6.290   8.527  1.6487  0.4295 -1.0686
  187MOL0     H25800   1.620   6.450   8.471 -1.6854 -4.7176  0.8276
  187MOL0     H25801   1.651   6.412   8.308  1.5369  2.9928 -1.4743
  187MOL0     H25802   1.978   6.660   8.344 -1.3258 -0.6147 -2.6309
  187MOL0     H25803   1.912   5.785   8.458  1.0815 -1.7441 -2.2389
  187MOL0     H25804   2.154   5.545   8.483 -0.5597 -1.6223  1.9330
  187MOL0     H25805   2.103   5.576   8.647  1.0366 -0.8747  0.5595
  187MOL0     H25806   1.986   5.593   8.520  0.7732 -0.1508  1.3140
  188MOL0     O25807   1.303   5.095   2.004 -0.9517 -0.2302  1.1872
  188MOL0     C25808   1.194   5.122   1.946  0.6098 -0.1735 -0.8058
  188MOL0     O25809   1.127   5.243   1.952  0.4281 -0.0200  0.3851
  188MOL0     C25810   1.187   5.350   2.011  0.5277 -1.3337 -0.1444
  188MOL0     C25811   1.228   5.465   1.932  0.4080 -0.3685 -0.8995
  188MOL0     C25812   1.294   5.576   1.992 -0.6130  0.2817 -0.5241
  188MOL0     C25813   1.329   5.571   2.132  0.2469  0.0144  0.6630
  188MOL0     O25814   1.392   5.682   2.189 -0.1007  0.6388 -0.6776
  188MOL0     C25815   1.511   5.652   2.262 -0.6211 -0.1411  0.8287
  188MOL0     C25816   1.569   5.792   2.301  0.4190 -0.1638  0.1371
  188MOL0     C25817   1.711   5.774   2.364 -0.6144  0.0064  0.8170
  188MOL0     C25818   1.777   5.911   2.405  0.6989  0.4204 -0.0117
  188MOL0     C25819   1.916   5.896   2.437  0.7605  0.9172  0.1964
  188MOL0     C25820   1.948   5.845   2.578 -0.2133 -0.6315  0.5727
  188MOL0     C25821   1.930   5.941   2.689 -0.4215  0.1801 -0.5987
  188MOL0     C25822   2.063   6.009   2.717  0.1330  0.6232  0.4611
  188MOL0     N25823   2.045   6.117   2.810 -0.8890  0.2628 -0.4124
  188MOL0     C25824   1.976   6.239   2.802  0.2182  0.1683  0.5648
  188MOL0     C25825   2.016   6.315   2.909  0.7166  0.5261  0.5304
  188MOL0     C25826   1.973   6.450   2.945  0.8883  0.6467  0.1279
  188MOL0     C25827   2.083   6.546   2.917 -0.0061  0.4052  0.4039
  188MOL0     C25828   2.048   6.702   2.942  0.4559  0.1457  0.2878
  188MOL0     C25829   2.167   6.795   2.928 -0.5411 -0.1854 -0.8728
  188MOL0     O25830   2.117   6.930   2.940 -0.2210  0.6300  0.1439
  188MOL0     C25831   2.201   7.038   2.930 -0.3125  0.1951  0.1590
  188MOL0     C25832   2.344   7.036   2.934  0.1590 -0.0126  0.0186
  188MOL0     C25833   2.413   7.160   2.919 -0.5338 -0.4918  0.2314
  188MOL0     C25834   2.570   7.148   2.928 -0.3547 -0.0934  0.5403
  188MOL0     C25835   2.344   7.275   2.892 -0.9977 -0.5369  0.5148
  188MOL0     C25836   2.417   7.404   2.840 -0.0516 -0.6201 -0.4864
  188MOL0     O25837   2.531   7.435   2.909  0.1934 -0.2940  0.4004
  188MOL0     C25838   2.610   7.536   2.862  0.1321  0.6384  1.2924
  188MOL0     C25839   2.670   7.605   2.967 -0.6398  0.9210  0.1956
  188MOL0     C25840   2.767   7.699   2.943  0.4192 -0.7797 -0.0673
  188MOL0     C25841   2.804   7.739   2.810  0.2482 -0.0521  0.0389
  188MOL0     O25842   2.914   7.812   2.771  0.3635  0.4512 -0.7104
  188MOL0     C25843   3.031   7.815   2.856 -0.5380  0.0474 -0.5418
  188MOL0     C25844   3.094   7.951   2.848  0.0436  0.5949 -0.0947
  188MOL0     C25845   3.014   8.065   2.904  0.4988  0.5075  0.3861
  188MOL0     C25846   3.084   8.190   2.858 -0.3239  0.5237  0.5643
  188MOL0     C25847   3.020   8.307   2.931 -0.4883  0.1997 -0.3572
  188MOL0     C25848   2.877   8.345   2.877 -0.7741  0.0362  0.0615
  188MOL0     C25849   2.792   8.433   2.982  0.3353 -0.4907  0.3596
  188MOL0     C25850   2.645   8.440   2.946 -0.1655 -0.1175 -0.0212
  188MOL0    Cl25851   2.613   8.483   2.778  0.5442 -0.1156 -0.2363
  188MOL0     C25852   2.731   7.680   2.708  0.8554 -0.1449 -0.0573
  188MOL0     C25853   2.632   7.576   2.724 -0.2359 -0.0993  0.0262
  188MOL0     O25854   2.364   7.474   2.760 -0.2746 -0.3780  0.0868
  188MOL0     C25855   2.202   7.276   2.882  0.1183 -0.5875 -0.4721
  188MOL0     C25856   2.134   7.160   2.907 -0.6039 -0.2216 -0.3535
  188MOL0     N25857   2.106   6.234   2.976 -0.1494  0.1598 -0.3847
  188MOL0     N25858   2.109   6.120   2.930  0.0678  0.7717  0.1154
  188MOL0     C25859   1.287   5.459   2.198  0.3728 -0.5558 -0.5374
  188MOL0     C25860   1.226   5.351   2.142  0.4439 -0.5316  0.0200
  188MOL0     C25861   1.117   5.004   1.889 -0.2316 -0.1511  0.1423
  188MOL0     C25862   0.981   5.026   1.865  0.1601  0.9787  0.3148
  188MOL0     C25863   0.894   4.924   1.814 -0.0476 -0.6128 -0.6976
  188MOL0     C25864   0.946   4.801   1.792 -0.0855  0.1786  0.0974
  188MOL0     O25865   0.864   4.709   1.732  0.5118  0.0754 -0.1858
  188MOL0     C25866   0.916   4.615   1.634  0.5224  0.6557 -0.3715
  188MOL0     C25867   0.793   4.556   1.563 -0.0505 -0.8163  0.2628
  188MOL0     C25868   0.728   4.671   1.475 -0.1035  0.4785  0.4636
  188MOL0     C25869   0.627   4.774   1.524 -0.1265 -0.0628 -1.7639
  188MOL0     C25870   0.581   4.873   1.424  0.7164 -0.7070  0.3883
  188MOL0     C25871   0.521   4.954   1.352  0.5877 -0.0691 -0.4047
  188MOL0     C25872   1.082   4.781   1.813 -0.3926  0.1648 -0.4549
  188MOL0     C25873   1.169   4.874   1.859  0.9981 -0.1980 -0.1305
  188MOL0     C25874   1.305   4.825   1.872 -0.4442 -0.2149  0.1515
  188MOL0     H25875   1.209   5.467   1.825 -0.5638 -1.2537 -0.7674
  188MOL0     H25876   1.316   5.660   1.927 -0.4886  0.7332  0.0946
  188MOL0     H25877   1.571   5.597   2.188 -1.2790 -1.0987  0.9991
  188MOL0     H25878   1.495   5.591   2.350  1.1599 -1.9374 -0.0103
  188MOL0     H25879   1.575   5.845   2.206 -0.1317 -1.1765 -0.4756
  188MOL0     H25880   1.497   5.853   2.357 -1.2600  2.2404 -4.1705
  188MOL0     H25881   1.703   5.712   2.454  0.6065 -2.0967 -0.4541
  188MOL0     H25882   1.765   5.735   2.277 -0.4906 -0.0613  0.9240
  188MOL0     H25883   1.767   5.976   2.317  1.1757  0.3631 -0.1129
  188MOL0     H25884   1.726   5.966   2.484 -0.3904 -0.1325 -0.3172
  188MOL0     H25885   1.967   5.993   2.436 -1.1010  2.1772  4.1824
  188MOL0     H25886   1.956   5.821   2.368  1.9845 -0.4554  2.2942
  188MOL0     H25887   1.885   5.758   2.601 -1.3223  0.5378  2.2027
  188MOL0     H25888   2.049   5.803   2.572  0.6461  1.2176  1.3693
  188MOL0     H25889   1.888   5.899   2.781  0.8964  0.9350  0.3885
  188MOL0     H25890   1.855   6.017   2.664  0.0345  1.7759  2.3922
  188MOL0     H25891   2.132   5.937   2.762  0.4656 -0.3498 -1.5307
  188MOL0     H25892   2.104   6.044   2.622 -0.4244  2.5940  0.8865
  188MOL0     H25893   1.899   6.268   2.731 -1.3997  0.0010  2.1802
  188MOL0     H25894   1.946   6.457   3.051 -2.4776 -0.9393 -0.4892
  188MOL0     H25895   1.883   6.478   2.889  0.2364  0.3685  1.0052
  188MOL0     H25896   2.163   6.525   2.989 -0.2015 -0.9964  0.2400
  188MOL0     H25897   2.109   6.527   2.813  0.1770  0.6207  0.4082
  188MOL0     H25898   1.965   6.735   2.879  2.0045  2.5130 -0.6320
  188MOL0     H25899   2.011   6.704   3.045 -1.5739  3.3289 -0.3763
  188MOL0     H25900   2.245   6.781   3.004 -0.0623  3.6195 -0.5123
  188MOL0     H25901   2.212   6.772   2.831  1.4606 -2.8220  0.5194
  188MOL0     H25902   2.416   6.954   2.932  0.6774  0.3831 -3.5124
  188MOL0     H25903   2.625   7.232   2.884  0.5918 -1.4116 -0.8608
  188MOL0     H25904   2.604   7.070   2.860 -0.3447 -1.1429  1.7273
  188MOL0     H25905   2.607   7.124   3.027 -0.3195 -0.2811  0.4807
  188MOL0     H25906   2.649   7.596   3.073  1.2607  0.4548  0.5561
  188MOL0     H25907   2.812   7.735   3.035 -2.2352 -2.8816  2.2194
  188MOL0     H25908   3.001   7.797   2.960 -0.0941 -0.9342 -0.5681
  188MOL0     H25909   3.099   7.738   2.819  0.6772  1.3040 -0.9677
  188MOL0     H25910   3.190   7.944   2.899  0.1775 -0.8690 -0.4969
  188MOL0     H25911   3.107   7.979   2.743 -0.8791  1.6593  0.0538
  188MOL0     H25912   3.023   8.057   3.013 -1.2146  1.3277  0.6248
  188MOL0     H25913   2.908   8.052   2.880  0.6977 -1.0541  0.2576
  188MOL0     H25914   3.061   8.198   2.752  0.4581 -0.5088  0.2987
  188MOL0     H25915   3.194   8.194   2.863 -0.1366  1.6576 -2.5038
  188MOL0     H25916   3.025   8.291   3.039 -0.9533  0.3395 -0.3132
  188MOL0     H25917   3.086   8.390   2.906 -0.2594 -0.4609 -2.1688
  188MOL0     H25918   2.815   8.256   2.860  2.4981 -2.1349 -1.6423
  188MOL0     H25919   2.890   8.409   2.789  1.2074  0.6004  0.7163
  188MOL0     H25920   2.834   8.534   2.972 -0.6981 -0.0914 -0.1244
  188MOL0     H25921   2.798   8.403   3.087 -0.1220  0.3949  0.6507
  188MOL0     H25922   2.590   8.512   3.007  1.0786  0.9122 -0.0702
  188MOL0     H25923   2.609   8.338   2.963 -2.6930  0.5605 -0.9346
  188MOL0     H25924   2.761   7.711   2.608  1.5859  1.8209  0.7173
  188MOL0     H25925   2.566   7.544   2.644 -2.4085 -2.7113  2.6209
  188MOL0     H25926   2.148   7.367   2.858 -0.0354 -0.9001 -1.3803
  188MOL0     H25927   2.026   7.161   2.899 -0.6914 -2.7460 -0.1943
  188MOL0     H25928   1.309   5.461   2.305 -2.2039  0.3710  0.0508
  188MOL0     H25929   1.201   5.269   2.208  0.2520  0.6434  1.4619
  188MOL0     H25930   0.915   5.110   1.882  0.2475  1.0268  0.4184
  188MOL0     H25931   0.788   4.947   1.802  0.0330  0.8751  1.0708
  188MOL0     H25932   0.990   4.652   1.562 -2.5224  0.2028 -4.0918
  188MOL0     H25933   0.955   4.532   1.693 -2.7843 -1.8931 -1.4862
  188MOL0     H25934   0.719   4.524   1.637  0.9286 -2.0961  0.7283
  188MOL0     H25935   0.825   4.475   1.498  0.5926  2.2377 -3.5826
  188MOL0     H25936   0.814   4.729   1.439  1.8435 -1.7003  1.3572
  188MOL0     H25937   0.687   4.608   1.396  0.3218 -0.6063  1.0942
  188MOL0     H25938   0.676   4.838   1.598 -0.9977 -1.2318 -0.1168
  188MOL0     H25939   0.536   4.727   1.564  0.6636 -1.5977 -1.7163
  188MOL0     H25940   0.465   5.030   1.301 -0.3936  0.5165  1.4438
  188MOL0     H25941   1.126   4.687   1.780  2.7778  1.4416 -0.2262
  188MOL0     H25942   1.361   4.904   1.820  0.9961 -0.6136  1.0416
  188MOL0     H25943   1.339   4.812   1.975 -2.0879 -1.5512  0.5792
  188MOL0     H25944   1.321   4.725   1.831 -1.1409  0.0181 -0.7366
  189MOL0     O25945   8.243   0.646  11.166 -0.2272 -1.0241 -0.0556
  189MOL0     C25946   8.242   0.695  11.278 -0.0395 -0.3704  0.5759
  189MOL0     O25947   8.328   0.782  11.334  0.0874 -0.3873  0.4792
  189MOL0     C25948   8.433   0.813  11.257  0.0016 -0.5601  0.5950
  189MOL0     C25949   8.419   0.913  11.162  0.6162 -0.6097  0.0896
  189MOL0     C25950   8.527   0.961  11.083 -0.5086 -0.3699 -0.0136
  189MOL0     C25951   8.656   0.900  11.106  0.0129 -0.1447 -0.1225
  189MOL0     O25952   8.775   0.918  11.038 -0.1207  0.2671 -0.0119
  189MOL0     C25953   8.777   0.902  10.891 -0.4983 -0.3799  0.0040
  189MOL0     C25954   8.880   0.804  10.831 -0.0280  0.6799 -0.0738
  189MOL0     C25955   8.899   0.842  10.682 -0.0467  0.0502  0.0481
  189MOL0     C25956   9.024   0.760  10.631 -0.2449  1.1672 -0.2564
  189MOL0     C25957   9.151   0.802  10.701 -0.2849 -1.0455 -0.9471
  189MOL0     C25958   9.273   0.756  10.617  0.7683  0.9648  0.7828
  189MOL0     C25959   9.298   0.842  10.495  0.1941 -1.0109  0.2080
  189MOL0     C25960   9.388   0.975  10.520  0.3922  0.9856 -0.2347
  189MOL0     N25961   9.530   0.952  10.567  0.3723 -0.7428  0.0599
  189MOL0     C25962   9.556   0.944  10.701  0.3322  0.8571 -0.2049
  189MOL0     C25963   9.687   0.915  10.718 -0.3094 -0.8954 -0.5707
  189MOL0     C25964   9.761   0.906  10.849 -0.4097 -1.1746  0.2506
  189MOL0     C25965   9.862   1.027  10.888 -0.3031 -0.4426  0.1246
  189MOL0     C25966   9.803   1.166  10.850 -0.8210  0.4153  0.4846
  189MOL0     C25967   9.910   1.277  10.856 -0.5114 -0.3055 -0.1490
  189MOL0     O25968   9.970   1.302  10.988  0.3238  0.3858  0.4025
  189MOL0     C25969  10.082   1.367  10.990  0.2183 -0.6551 -0.3542
  189MOL0     C25970  10.137   1.435  10.883 -0.1346  0.6319 -0.8506
  189MOL0     C25971  10.245   1.516  10.896 -0.3278  0.2735  0.5762
  189MOL0     C25972  10.293   1.588  10.774  0.4321  0.4452 -0.3029
  189MOL0     C25973  10.292   1.543  11.028  0.0741  0.0184 -0.5921
  189MOL0     C25974  10.393   1.657  11.061  0.2796  1.4054 -0.1053
  189MOL0     O25975  10.469   1.646  11.179  0.3431 -0.2793 -0.2379
  189MOL0     C25976  10.572   1.731  11.206  0.3219  1.0141 -0.0497
  189MOL0     C25977  10.688   1.724  11.133 -0.1883 -0.2537 -0.4510
  189MOL0     C25978  10.802   1.796  11.182 -0.0820 -0.9070  0.0523
  189MOL0     C25979  10.800   1.881  11.292  0.4365 -0.0854  0.2738
  189MOL0     O25980  10.908   1.942  11.353 -0.6613 -0.0024  0.1423
  189MOL0     C25981  10.973   2.047  11.279  0.3478 -0.6997 -0.1760
  189MOL0     C25982  11.071   2.136  11.372 -0.4516  0.8527 -0.3687
  189MOL0     C25983  11.163   2.231  11.309  0.0117  0.1229  0.0354
  189MOL0     C25984  11.078   2.355  11.257  0.3489 -1.0477  0.1461
  189MOL0     C25985  11.171   2.451  11.189 -1.1005 -0.0187  0.3081
  189MOL0     C25986  11.093   2.571  11.140  0.4397 -0.5291  0.8139
  189MOL0     C25987  11.191   2.646  11.057  0.1218 -0.3150  0.1584
  189MOL0     C25988  11.127   2.759  10.970  0.1408 -0.2157  0.6894
  189MOL0    Cl25989  10.979   2.706  10.870  0.1745 -0.1030  0.1598
  189MOL0     C25990  10.674   1.890  11.356  0.0977 -0.3924 -0.3680
  189MOL0     C25991  10.560   1.813  11.310  0.8679  0.0787 -0.1543
  189MOL0     O25992  10.415   1.738  10.968  0.0547  0.3883 -0.1861
  189MOL0     C25993  10.245   1.469  11.137  0.0004  0.2960  1.1751
  189MOL0     C25994  10.141   1.378  11.114 -0.0995  0.3638 -0.0155
  189MOL0     N25995   9.747   0.914  10.596 -0.4152 -0.3281  1.0300
  189MOL0     N25996   9.655   0.939  10.503  0.7713  0.4746  0.2855
  189MOL0     C25997   8.669   0.801  11.207 -0.0559  0.0038 -0.2743
  189MOL0     C25998   8.555   0.765  11.286 -0.1704  0.4911 -0.4356
  189MOL0     C25999   8.103   0.699  11.349 -0.4500  0.8531  0.2812
  189MOL0     C26000   8.052   0.813  11.404  0.2762  0.3719  1.2036
  189MOL0     C26001   7.928   0.822  11.474  0.3463  0.6676 -0.3904
  189MOL0     C26002   7.849   0.700  11.487  0.2412  0.3494  0.9869
  189MOL0     O26003   7.729   0.713  11.545  0.2415 -0.6494  0.6033
  189MOL0     C26004   7.645   0.591  11.549  0.5804  0.8521 -0.1510
  189MOL0     C26005   7.514   0.608  11.622 -1.1081 -0.4642 -0.0337
  189MOL0     C26006   7.447   0.739  11.572 -0.4274  0.5781  0.2680
  189MOL0     C26007   7.290   0.750  11.583  0.1005  0.9144 -0.1571
  189MOL0     C26008   7.243   0.703  11.708  0.2270 -0.8360  0.1132
  189MOL0     C26009   7.231   0.655  11.819 -0.0374 -0.1707 -0.1771
  189MOL0     C26010   7.898   0.583  11.428  0.5688 -1.0043  0.5547
  189MOL0     C26011   8.019   0.584  11.358 -0.1814 -0.2408 -0.7289
  189MOL0     C26012   8.081   0.448  11.319  0.0901 -0.2381  0.0338
  189MOL0     H26013   8.321   0.960  11.162  0.7572 -0.2480  1.9607
  189MOL0     H26014   8.516   1.030  11.000 -3.3572 -2.4158 -1.5056
  189MOL0     H26015   8.820   0.999  10.864 -2.1581  1.0489  2.0907
  189MOL0     H26016   8.679   0.884  10.846 -0.2082  0.5854 -1.0556
  189MOL0     H26017   8.978   0.820  10.876 -0.1052 -1.3969  0.9734
  189MOL0     H26018   8.842   0.702  10.844 -1.5897  1.4785  2.2518
  189MOL0     H26019   8.814   0.837  10.614  0.5548  0.7100 -0.7942
  189MOL0     H26020   8.931   0.947  10.671  2.5853 -0.7892 -1.4923
  189MOL0     H26021   9.015   0.652  10.647 -0.6765  1.5368  2.3430
  189MOL0     H26022   9.030   0.785  10.524 -0.9911  2.4805 -0.0092
  189MOL0     H26023   9.170   0.748  10.795  3.7441 -0.5227 -1.2492
  189MOL0     H26024   9.150   0.906  10.736  0.8587 -1.3295  0.0381
  189MOL0     H26025   9.360   0.749  10.683  2.7296  3.2241 -1.3744
  189MOL0     H26026   9.250   0.655  10.583 -0.3640  1.6757 -0.6537
  189MOL0     H26027   9.208   0.881  10.447  1.2855 -0.1223 -1.1857
  189MOL0     H26028   9.355   0.784  10.422 -0.6763 -4.4589  2.0418
  189MOL0     H26029   9.399   1.029  10.426 -1.7732  0.3518 -0.9204
  189MOL0     H26030   9.341   1.038  10.597 -2.0801  1.0082 -1.6402
  189MOL0     H26031   9.479   0.939  10.777 -0.6045 -3.9682 -1.1043
  189MOL0     H26032   9.806   0.806  10.858 -0.3929 -1.0414  2.0868
  189MOL0     H26033   9.688   0.915  10.930  1.4188  0.3670  1.8048
  189MOL0     H26034   9.863   1.036  10.997 -0.6852  3.1468 -0.0397
  189MOL0     H26035   9.960   1.019  10.839 -0.6487  0.0337 -0.6729
  189MOL0     H26036   9.773   1.158  10.745 -0.0664 -1.7128  0.3770
  189MOL0     H26037   9.723   1.199  10.916 -0.4192  5.5750 -1.1597
  189MOL0     H26038   9.985   1.244  10.784  1.8185  1.9020  1.1141
  189MOL0     H26039   9.859   1.369  10.825 -1.1568 -0.0135  1.6476
  189MOL0     H26040  10.096   1.429  10.782 -2.0192  1.2603 -0.1653
  189MOL0     H26041  10.252   1.689  10.765 -2.7960 -0.6682  0.5820
  189MOL0     H26042  10.274   1.526  10.686 -0.1786  0.8369 -0.4503
  189MOL0     H26043  10.403   1.589  10.778  0.4861 -1.5568  2.9166
  189MOL0     H26044  10.693   1.669  11.040  1.1967 -0.7144 -0.1368
  189MOL0     H26045  10.901   1.795  11.137  0.8146  0.7361  1.8746
  189MOL0     H26046  11.030   2.002  11.196 -0.2100 -1.1139 -0.3436
  189MOL0     H26047  10.896   2.103  11.225  1.0983 -0.7434 -1.3335
  189MOL0     H26048  11.007   2.190  11.442 -0.2988  0.5790 -0.0114
  189MOL0     H26049  11.126   2.059  11.428  0.4875  1.2972 -0.6610
  189MOL0     H26050  11.215   2.177  11.230 -0.6111  2.7071 -2.2992
  189MOL0     H26051  11.238   2.255  11.385  1.1883 -0.7089 -0.8472
  189MOL0     H26052  11.027   2.409  11.338 -2.8769 -0.2907 -2.1918
  189MOL0     H26053  10.992   2.319  11.200 -1.4041 -0.1177  2.0511
  189MOL0     H26054  11.243   2.479  11.266  2.5136 -0.9733 -2.4608
  189MOL0     H26055  11.234   2.397  11.119 -0.6012 -1.7157  1.9945
  189MOL0     H26056  11.046   2.639  11.212 -1.6861  0.7127 -1.5851
  189MOL0     H26057  11.010   2.533  11.079 -0.0217  0.1097  1.0284
  189MOL0     H26058  11.245   2.582  10.986 -1.6188  0.2059 -1.7135
  189MOL0     H26059  11.253   2.703  11.127  0.6481  1.5342 -1.7388
  189MOL0     H26060  11.204   2.808  10.910 -0.6608  2.1097  1.4185
  189MOL0     H26061  11.097   2.832  11.046  0.8001 -0.5432  1.2684
  189MOL0     H26062  10.651   1.963  11.433 -2.7183  0.8804 -2.2506
  189MOL0     H26063  10.464   1.812  11.361  0.8405 -2.1565 -0.1604
  189MOL0     H26064  10.277   1.490  11.239  1.1652 -1.1244  1.1304
  189MOL0     H26065  10.100   1.325  11.200  1.6447 -1.0294  0.0186
  189MOL0     H26066   8.764   0.756  11.234 -1.5156 -4.3677 -1.6894
  189MOL0     H26067   8.552   0.691  11.365 -1.3645  2.0449  1.0646
  189MOL0     H26068   8.108   0.905  11.389  1.5358 -0.6549 -0.9788
  189MOL0     H26069   7.903   0.920  11.513  1.9586  0.8748  0.1909
  189MOL0     H26070   7.628   0.576  11.442 -0.0568 -0.2484  0.0937
  189MOL0     H26071   7.708   0.510  11.585  1.0741  1.5204  0.5381
  189MOL0     H26072   7.549   0.615  11.726 -1.3704 -0.2899  0.0427
  189MOL0     H26073   7.461   0.513  11.605 -1.3071 -0.6783  1.6077
  189MOL0     H26074   7.491   0.813  11.640  1.8498  0.3443 -0.8846
  189MOL0     H26075   7.474   0.764  11.469  3.5010  0.5168  1.1471
  189MOL0     H26076   7.243   0.685  11.509 -1.5096  0.1405  1.4673
  189MOL0     H26077   7.244   0.847  11.566  1.1863  1.2137 -1.5706
  189MOL0     H26078   7.227   0.618  11.919  0.8856  0.6480  0.1803
  189MOL0     H26079   7.838   0.493  11.439 -0.9375  0.1138  1.9131
  189MOL0     H26080   8.186   0.440  11.346  0.1781 -1.8970 -0.7015
  189MOL0     H26081   8.031   0.363  11.367  0.8523  0.0397  1.3503
  189MOL0     H26082   8.075   0.437  11.211  0.9283 -0.1417 -0.0264
  190MOL0     O26083   5.800   6.548   4.776  0.5415 -0.6776  0.3051
  190MOL0     C26084   5.677   6.543   4.779  0.5012 -0.6079 -0.4503
  190MOL0     O26085   5.602   6.446   4.834  0.0902 -0.0000 -0.1329
  190MOL0     C26086   5.660   6.322   4.855  0.5394 -0.5981  0.3368
  190MOL0     C26087   5.757   6.270   4.780  0.0612  0.5533  0.0088
  190MOL0     C26088   5.812   6.143   4.812 -0.0690  0.7461  0.0100
  190MOL0     C26089   5.767   6.075   4.920  0.0030  0.0370  0.1283
  190MOL0     O26090   5.811   5.945   4.951 -0.4887  0.2833 -0.2857
  190MOL0     C26091   5.780   5.865   5.062 -0.5155 -0.6311  0.0460
  190MOL0     C26092   5.639   5.795   5.046 -0.1782 -0.8849 -0.1731
  190MOL0     C26093   5.635   5.704   4.931  0.6707  1.3713 -0.0741
  190MOL0     C26094   5.636   5.556   4.967  0.5324  0.6497  0.5091
  190MOL0     C26095   5.635   5.458   4.844  0.3156 -0.4433 -0.4824
  190MOL0     C26096   5.627   5.305   4.874 -0.1140 -0.7123 -0.4828
  190MOL0     C26097   5.771   5.249   4.904  0.2842  0.3234 -0.3810
  190MOL0     C26098   5.879   5.272   4.800 -0.1645  0.5192  0.5823
  190MOL0     N26099   5.959   5.387   4.827 -0.9254 -0.7005  0.2188
  190MOL0     C26100   6.042   5.396   4.938 -1.1506  0.5058 -0.3808
  190MOL0     C26101   6.095   5.525   4.936  0.1813 -0.0994  0.2101
  190MOL0     C26102   6.185   5.597   5.033 -0.7615 -0.8967  0.5282
  190MOL0     C26103   6.334   5.552   5.025  0.1932  0.5195 -0.1028
  190MOL0     C26104   6.422   5.629   4.911 -0.4023 -0.4230  0.5010
  190MOL0     C26105   6.566   5.563   4.907  1.4745 -0.2404 -0.3200
  190MOL0     O26106   6.658   5.645   4.989  0.6194  0.4460  0.3057
  190MOL0     C26107   6.784   5.596   4.988 -0.0298 -0.0083  0.5224
  190MOL0     C26108   6.878   5.651   4.895 -0.0273 -0.8292  0.4218
  190MOL0     C26109   7.002   5.593   4.876 -0.4061  0.2073 -0.5132
  190MOL0     C26110   7.109   5.662   4.779 -0.8581  0.4385  0.0898
  190MOL0     C26111   7.029   5.476   4.944  1.1691  0.2049 -0.0684
  190MOL0     C26112   7.143   5.390   4.920 -0.9426 -0.2406  0.2894
  190MOL0     O26113   7.165   5.286   4.997  0.2086 -0.8110 -0.1171
  190MOL0     C26114   7.293   5.230   5.000  0.8124 -0.6504  0.6324
  190MOL0     C26115   7.335   5.120   4.914 -0.0753  0.1401  0.0078
  190MOL0     C26116   7.470   5.068   4.924 -0.2996  0.3861 -0.2707
  190MOL0     C26117   7.558   5.117   5.015 -0.2261  0.2763  0.0542
  190MOL0     O26118   7.682   5.075   5.010  0.4645  0.7581  0.0813
  190MOL0     C26119   7.772   5.088   5.119  0.3246 -0.5905  0.3100
  190MOL0     C26120   7.895   5.002   5.093  0.3418  0.3869 -0.2131
  190MOL0     C26121   7.989   5.026   5.207  0.8047 -1.0639 -0.8798
  190MOL0     C26122   8.093   4.917   5.227  0.4687 -0.7125  0.3017
  190MOL0     C26123   8.148   4.918   5.373  0.1680  0.2469 -0.2256
  190MOL0     C26124   8.279   4.838   5.382  0.0245 -0.4492 -0.3687
  190MOL0     C26125   8.390   4.925   5.345 -0.8847 -0.0962 -0.7161
  190MOL0     C26126   8.533   4.880   5.398 -0.4881  0.4407  0.4344
  190MOL0    Cl26127   8.650   4.963   5.304 -0.6924 -0.3255 -0.1196
  190MOL0     C26128   7.514   5.216   5.106 -0.2362  0.7578 -0.1280
  190MOL0     C26129   7.388   5.277   5.093 -0.2625  0.0543 -0.2820
  190MOL0     O26130   7.222   5.420   4.829  0.6112  0.4136 -0.1905
  190MOL0     C26131   6.935   5.420   5.031 -0.1774  0.3528 -0.0715
  190MOL0     C26132   6.814   5.480   5.058  0.0084  0.1963  0.1227
  190MOL0     N26133   6.040   5.594   4.826  0.4529  0.0462 -0.7595
  190MOL0     N26134   5.955   5.513   4.770  0.3032  0.1375  0.1896
  190MOL0     C26135   5.666   6.125   4.995 -0.2230 -0.1006 -0.2522
  190MOL0     C26136   5.627   6.253   4.973 -1.4663 -0.3008 -0.6244
  190MOL0     C26137   5.582   6.656   4.732 -0.1758  0.2479  0.4868
  190MOL0     C26138   5.448   6.637   4.729 -0.1303 -0.9954 -0.1843
  190MOL0     C26139   5.354   6.737   4.702 -0.6881 -0.0896 -0.3136
  190MOL0     C26140   5.400   6.857   4.665 -0.4473  0.2637 -0.3749
  190MOL0     O26141   5.317   6.959   4.632 -0.0163  0.3628  0.0610
  190MOL0     C26142   5.338   7.005   4.499 -0.9545  0.1353 -0.5499
  190MOL0     C26143   5.206   7.078   4.458 -0.4645 -0.4827  0.4200
  190MOL0     C26144   5.083   6.982   4.474  0.1909  0.0718  0.5197
  190MOL0     C26145   4.957   7.057   4.423 -0.5483  0.5065  0.3065
  190MOL0     C26146   4.907   7.148   4.526 -0.3950  0.1372 -0.3956
  190MOL0     C26147   4.854   7.235   4.600 -0.0140  0.4225  0.1300
  190MOL0     C26148   5.540   6.881   4.654 -0.2058  0.7057  0.0288
  190MOL0     C26149   5.633   6.780   4.689  0.8868  0.0847  0.5611
  190MOL0     C26150   5.776   6.822   4.677  0.0784  0.3069  0.4172
  190MOL0     H26151   5.804   6.313   4.692 -0.9929  3.2097  0.6330
  190MOL0     H26152   5.879   6.099   4.740 -1.2388 -0.1088 -0.5944
  190MOL0     H26153   5.777   5.923   5.154  2.3191  0.0744 -0.2078
  190MOL0     H26154   5.863   5.793   5.069  0.7557  0.7601 -0.0956
  190MOL0     H26155   5.625   5.736   5.136  0.0229 -2.0325 -0.8795
  190MOL0     H26156   5.564   5.874   5.039  1.4103  0.7077 -0.0097
  190MOL0     H26157   5.539   5.721   4.881 -0.7409 -1.0008  1.6104
  190MOL0     H26158   5.714   5.722   4.857 -0.3813 -1.8241 -2.1990
  190MOL0     H26159   5.714   5.534   5.040 -1.1315 -1.1407  1.8833
  190MOL0     H26160   5.544   5.536   5.023  0.2421 -2.6137 -0.9026
  190MOL0     H26161   5.718   5.481   4.776  0.7357 -0.5123  0.0016
  190MOL0     H26162   5.548   5.484   4.783 -0.1895  0.6799  0.6581
  190MOL0     H26163   5.565   5.288   4.962  0.1070 -0.4314 -0.2721
  190MOL0     H26164   5.587   5.247   4.790  0.8906  1.2109 -2.3907
  190MOL0     H26165   5.751   5.145   4.930  1.6877  0.0065 -0.5115
  190MOL0     H26166   5.807   5.299   4.994 -3.5724 -1.5108  2.4404
  190MOL0     H26167   5.949   5.188   4.798  2.9251  2.8444  2.0653
  190MOL0     H26168   5.826   5.274   4.705 -1.3144 -0.8370  1.1528
  190MOL0     H26169   6.053   5.321   5.016 -1.7357  0.4308 -0.3656
  190MOL0     H26170   6.138   5.582   5.130 -2.6496 -3.7134 -0.6899
  190MOL0     H26171   6.187   5.707   5.029 -1.2792 -0.8989  0.0576
  190MOL0     H26172   6.399   5.584   5.106 -0.5372 -0.2301  0.8009
  190MOL0     H26173   6.339   5.445   5.002  0.8233  1.0388 -2.7272
  190MOL0     H26174   6.371   5.624   4.814 -1.2496  1.1896  0.8322
  190MOL0     H26175   6.430   5.736   4.931  0.4217 -0.4855  0.5477
  190MOL0     H26176   6.550   5.460   4.939 -0.2321  0.0870 -0.0119
  190MOL0     H26177   6.596   5.564   4.801 -3.3687  3.0817 -2.0207
  190MOL0     H26178   6.857   5.729   4.822  1.9238  0.9959  1.6826
  190MOL0     H26179   7.123   5.611   4.683  1.2097  0.3703  0.3925
  190MOL0     H26180   7.209   5.687   4.815 -0.5900  0.5337 -0.7107
  190MOL0     H26181   7.069   5.761   4.757  1.0463  1.7346  2.0955
  190MOL0     H26182   7.272   5.071   4.840 -0.6827  1.6628 -0.5168
  190MOL0     H26183   7.511   5.002   4.847 -0.9502  0.9634 -1.1262
  190MOL0     H26184   7.800   5.192   5.142  3.1600 -1.6325  2.0401
  190MOL0     H26185   7.726   5.042   5.207  1.1709 -0.9922  0.5565
  190MOL0     H26186   7.858   4.900   5.108  0.5047  0.6154  2.0273
  190MOL0     H26187   7.942   5.011   4.994 -3.1881  0.0602 -2.0945
  190MOL0     H26188   7.936   5.028   5.302  3.0847 -1.3284  0.4558
  190MOL0     H26189   8.044   5.119   5.187  2.1036 -1.7314 -0.4913
  190MOL0     H26190   8.177   4.918   5.156  3.4425  0.5751  3.5117
  190MOL0     H26191   8.037   4.824   5.216 -1.1335  0.2431  0.0228
  190MOL0     H26192   8.162   5.023   5.402 -1.1230 -0.0494  1.6707
  190MOL0     H26193   8.072   4.878   5.441 -0.3784 -1.9468 -1.9759
  190MOL0     H26194   8.280   4.743   5.329  0.1954 -2.2019  2.5280
  190MOL0     H26195   8.294   4.798   5.483  0.9359 -3.7337 -1.6719
  190MOL0     H26196   8.370   5.027   5.381 -0.3541  1.5117 -4.4758
  190MOL0     H26197   8.407   4.923   5.237  0.1941 -1.6143 -0.5528
  190MOL0     H26198   8.543   4.771   5.393  0.6430  0.5683 -0.9086
  190MOL0     H26199   8.540   4.918   5.500 -1.9744  1.5131  0.1766
  190MOL0     H26200   7.590   5.260   5.170 -0.8604  3.3908 -1.0918
  190MOL0     H26201   7.358   5.358   5.158  0.5188  0.4073 -0.3534
  190MOL0     H26202   6.951   5.325   5.082  1.1114  0.1999 -0.7477
  190MOL0     H26203   6.744   5.434   5.127  1.3793 -3.8733 -0.8885
  190MOL0     H26204   5.611   6.060   5.062 -0.4333 -0.3348 -0.6449
  190MOL0     H26205   5.552   6.297   5.039  0.4042  3.4714 -0.7232
  190MOL0     H26206   5.407   6.542   4.762 -0.5744 -1.0546 -0.8790
  190MOL0     H26207   5.251   6.714   4.724 -0.3971 -0.1790  1.0139
  190MOL0     H26208   5.410   7.086   4.489 -0.4859 -0.4417 -2.0798
  190MOL0     H26209   5.358   6.923   4.430  2.8127 -1.2040  1.8104
  190MOL0     H26210   5.197   7.112   4.354 -3.7318  0.8223  1.0174
  190MOL0     H26211   5.193   7.170   4.516  0.4310  0.7945 -1.3054
  190MOL0     H26212   5.095   6.900   4.402  1.9183  2.2223 -1.8224
  190MOL0     H26213   5.051   6.953   4.575 -0.0806  0.6271  0.5979
  190MOL0     H26214   4.886   6.976   4.403  1.2613 -0.6611 -1.8417
  190MOL0     H26215   4.983   7.113   4.333 -1.9651  0.8525  0.0789
  190MOL0     H26216   4.803   7.310   4.656  0.0336  0.7389 -0.2422
  190MOL0     H26217   5.580   6.979   4.629  1.7114  0.4519  1.8978
  190MOL0     H26218   5.842   6.740   4.648 -1.2084 -0.4741 -0.4340
  190MOL0     H26219   5.789   6.909   4.612 -1.2260  1.2359  1.3470
  190MOL0     H26220   5.793   6.861   4.778 -2.7703  2.0566  0.3385
  191MOL0     O26221   7.954   2.505   3.025  0.1556  0.3904  0.1607
  191MOL0     C26222   7.840   2.476   3.047  0.7332  0.4114 -0.0182
  191MOL0     O26223   7.779   2.368   3.000  0.2160 -0.0404  0.5176
  191MOL0     C26224   7.804   2.294   2.885 -0.4414 -0.6201 -0.1174
  191MOL0     C26225   7.904   2.314   2.795 -1.0888 -0.7763 -0.3111
  191MOL0     C26226   7.917   2.229   2.683  0.6297 -0.8954  0.7514
  191MOL0     C26227   7.845   2.112   2.684 -0.1725 -0.0014 -0.2988
  191MOL0     O26228   7.867   2.019   2.585  0.8407 -0.0894  0.1049
  191MOL0     C26229   7.810   1.884   2.591 -0.2230 -0.0425  0.7534
  191MOL0     C26230   7.887   1.800   2.699 -0.0572 -0.3218 -0.1179
  191MOL0     C26231   8.038   1.786   2.657 -0.7250  0.4339 -0.2574
  191MOL0     C26232   8.106   1.673   2.733 -0.5069  0.4256 -0.0933
  191MOL0     C26233   8.234   1.724   2.790 -0.0367 -0.2060  0.6615
  191MOL0     C26234   8.335   1.749   2.687  0.3037 -0.0927 -0.5811
  191MOL0     C26235   8.450   1.816   2.753 -0.2786  0.3741  0.9357
  191MOL0     C26236   8.572   1.828   2.658 -0.1628 -0.1842  0.5890
  191MOL0     N26237   8.698   1.886   2.708 -0.3734 -0.6695  0.1307
  191MOL0     C26238   8.800   1.952   2.636 -0.0524  0.2521 -0.2788
  191MOL0     C26239   8.873   1.998   2.738  0.1966 -0.3545 -0.5729
  191MOL0     C26240   9.001   2.071   2.717 -0.2646 -0.6603  0.4387
  191MOL0     C26241   9.120   1.992   2.760  0.1789 -1.0265 -0.0683
  191MOL0     C26242   9.249   2.055   2.707 -0.3885  0.4676 -0.0982
  191MOL0     C26243   9.367   1.984   2.767  0.2016 -0.3412 -0.7427
  191MOL0     O26244   9.489   2.038   2.718  0.2625  0.6916  0.5012
  191MOL0     C26245   9.600   1.979   2.768 -0.5048 -0.9859  0.2556
  191MOL0     C26246   9.708   2.059   2.771 -0.4166 -0.2328 -0.1596
  191MOL0     C26247   9.837   2.013   2.790 -0.3100  0.0923 -0.1269
  191MOL0     C26248   9.946   2.112   2.777 -0.5903  0.5968 -0.1460
  191MOL0     C26249   9.862   1.881   2.834 -0.4837 -0.2376  0.8412
  191MOL0     C26250   9.990   1.820   2.880  0.4751 -0.9551 -0.1822
  191MOL0     O26251   9.982   1.693   2.926 -0.3722 -0.8589 -0.5381
  191MOL0     C26252  10.088   1.654   3.006 -0.1393 -0.6340 -0.5435
  191MOL0     C26253  10.082   1.697   3.138  0.6383 -0.0975 -1.1270
  191MOL0     C26254  10.189   1.679   3.225  0.0927 -0.0802 -0.6335
  191MOL0     C26255  10.301   1.616   3.181  0.0257  0.0483 -0.5576
  191MOL0     O26256  10.393   1.601   3.285  0.2390 -0.9845  0.2769
  191MOL0     C26257  10.484   1.491   3.292 -0.4372 -0.2841 -0.2315
  191MOL0     C26258  10.420   1.378   3.371 -0.1637  0.3081  0.1716
  191MOL0     C26259  10.512   1.254   3.398 -0.6218  0.4718 -0.8550
  191MOL0     C26260  10.450   1.140   3.472 -0.2212 -0.7497  0.0016
  191MOL0     C26261  10.547   1.033   3.527 -0.2447 -0.5269 -0.2804
  191MOL0     C26262  10.469   0.916   3.577 -0.4038  0.7351 -0.5692
  191MOL0     C26263  10.558   0.805   3.631 -0.8047  0.0353 -0.4701
  191MOL0     C26264  10.486   0.712   3.716 -0.0862  0.8187 -0.5827
  191MOL0    Cl26265  10.593   0.594   3.795  0.7494  0.3561  0.2466
  191MOL0     C26266  10.310   1.556   3.047  0.0628 -0.7480 -0.4229
  191MOL0     C26267  10.209   1.594   2.956  0.4075  0.3694 -0.2963
  191MOL0     O26268  10.077   1.899   2.915 -0.4508 -0.5927  0.0347
  191MOL0     C26269   9.746   1.801   2.849 -0.6996  0.9918 -1.1276
  191MOL0     C26270   9.614   1.851   2.816  0.1414 -1.3689 -0.3810
  191MOL0     N26271   8.832   1.963   2.863  0.5467  0.1523  0.6184
  191MOL0     N26272   8.727   1.890   2.841  0.7410  0.0001  0.0916
  191MOL0     C26273   7.747   2.083   2.780  0.3236 -0.7553 -0.1678
  191MOL0     C26274   7.726   2.183   2.881 -0.6926  0.2504 -0.4484
  191MOL0     C26275   7.759   2.561   3.134  0.4146  0.2230  0.6361
  191MOL0     C26276   7.618   2.541   3.138  0.3943  0.9097  0.6084
  191MOL0     C26277   7.535   2.608   3.222 -0.2250 -0.3711 -0.2678
  191MOL0     C26278   7.584   2.714   3.300 -1.2147  0.2056 -0.0100
  191MOL0     O26279   7.507   2.776   3.391  0.2008 -0.0713 -0.0513
  191MOL0     C26280   7.529   2.909   3.415 -0.4040  0.0574 -0.0955
  191MOL0     C26281   7.406   2.970   3.489  0.0721  0.0344 -0.5930
  191MOL0     C26282   7.445   3.074   3.593 -0.4617  0.2077 -0.9441
  191MOL0     C26283   7.336   3.124   3.681  0.1595  0.1045  0.0080
  191MOL0     C26284   7.225   3.192   3.611  0.0606 -0.0747 -0.1986
  191MOL0     C26285   7.135   3.261   3.576  0.1821 -0.5250  0.2813
  191MOL0     C26286   7.721   2.741   3.290 -0.7387  0.0183 -0.5186
  191MOL0     C26287   7.811   2.663   3.213  0.2532  0.5198 -0.2473
  191MOL0     C26288   7.954   2.709   3.225  0.7288 -0.9225  0.2460
  191MOL0     H26289   7.979   2.392   2.808  1.2136 -2.8290 -0.4718
  191MOL0     H26290   7.986   2.250   2.603  2.0845 -0.0835  2.1427
  191MOL0     H26291   7.826   1.833   2.496  0.8549 -0.6992  1.2683
  191MOL0     H26292   7.701   1.878   2.598 -0.4457 -1.9956 -2.5027
  191MOL0     H26293   7.876   1.855   2.793  0.0191  1.8035 -1.2902
  191MOL0     H26294   7.846   1.699   2.695  0.0459 -0.3194 -2.1188
  191MOL0     H26295   8.049   1.774   2.549 -1.9323 -2.6102 -0.1285
  191MOL0     H26296   8.082   1.884   2.677 -2.6497  1.1899  0.5858
  191MOL0     H26297   8.047   1.640   2.820  0.9554  0.6075  1.0028
  191MOL0     H26298   8.115   1.585   2.670 -1.3838 -0.0104  0.3589
  191MOL0     H26299   8.272   1.654   2.865 -0.1232 -0.8899  0.0747
  191MOL0     H26300   8.210   1.813   2.849  0.1211  0.2363  0.0644
  191MOL0     H26301   8.363   1.651   2.645 -0.0270 -1.3966  2.0539
  191MOL0     H26302   8.291   1.811   2.609  2.2638 -1.4280 -2.8950
  191MOL0     H26303   8.481   1.753   2.837 -1.0242  1.4919  2.0893
  191MOL0     H26304   8.425   1.919   2.778  0.3993  1.6760 -3.0434
  191MOL0     H26305   8.585   1.731   2.609 -1.6067 -0.2421  0.2984
  191MOL0     H26306   8.545   1.888   2.571  0.5619 -2.3189 -1.1939
  191MOL0     H26307   8.804   1.970   2.529 -1.9024 -0.9183 -0.5900
  191MOL0     H26308   8.996   2.161   2.779 -2.5155 -1.1540  1.0594
  191MOL0     H26309   9.015   2.104   2.613 -0.0478 -0.1751  0.6163
  191MOL0     H26310   9.123   1.983   2.869 -0.7652  0.4994  0.1129
  191MOL0     H26311   9.122   1.890   2.719  1.3224 -2.0535  2.3720
  191MOL0     H26312   9.255   2.045   2.599 -0.9052  0.1152 -0.0994
  191MOL0     H26313   9.249   2.160   2.740  2.4806  0.2044  1.0293
  191MOL0     H26314   9.369   1.997   2.875  1.5125 -1.0753 -0.6682
  191MOL0     H26315   9.361   1.877   2.747  0.0207 -0.5430  0.3680
  191MOL0     H26316   9.701   2.157   2.725  2.7129 -0.0689 -0.4771
  191MOL0     H26317  10.021   2.063   2.716 -0.3324  3.4077 -2.2726
  191MOL0     H26318   9.979   2.144   2.877 -0.4137  1.9266 -0.6050
  191MOL0     H26319   9.917   2.197   2.714  1.0657  2.4533  1.4460
  191MOL0     H26320   9.989   1.741   3.173  0.2517 -1.8691  0.1814
  191MOL0     H26321  10.187   1.710   3.329 -0.7666 -4.3152  0.8140
  191MOL0     H26322  10.530   1.456   3.199 -0.2023  0.6109 -0.4545
  191MOL0     H26323  10.570   1.522   3.353 -1.8001  0.4184  1.4064
  191MOL0     H26324  10.384   1.412   3.468  0.1879  1.4827 -0.0811
  191MOL0     H26325  10.332   1.348   3.314  1.0605 -0.9018 -1.1936
  191MOL0     H26326  10.590   1.291   3.466 -0.8900 -0.3127 -0.1009
  191MOL0     H26327  10.554   1.234   3.299 -1.4288 -2.3729 -0.7043
  191MOL0     H26328  10.386   1.083   3.405 -0.0304 -2.9588  1.5808
  191MOL0     H26329  10.381   1.174   3.550 -1.7464  3.5533 -2.8994
  191MOL0     H26330  10.611   0.997   3.446 -0.2304 -1.1555  0.0081
  191MOL0     H26331  10.611   1.076   3.605  0.0805 -0.0489 -0.7944
  191MOL0     H26332  10.398   0.863   3.513 -1.8130 -0.8962  2.1283
  191MOL0     H26333  10.412   0.963   3.658  2.1397  1.8473  0.6940
  191MOL0     H26334  10.645   0.849   3.679  0.3524 -2.2102 -0.4009
  191MOL0     H26335  10.588   0.738   3.550 -0.5295 -1.9837  1.2240
  191MOL0     H26336  10.412   0.657   3.657  0.1460  0.3707 -0.4620
  191MOL0     H26337  10.444   0.763   3.804  0.4020 -1.1529  0.8685
  191MOL0     H26338  10.387   1.494   3.001 -0.1995 -0.4913 -1.2309
  191MOL0     H26339  10.195   1.554   2.856 -1.2652 -1.3960  0.5748
  191MOL0     H26340   9.753   1.704   2.897  0.8984  0.9894 -1.3179
  191MOL0     H26341   9.524   1.791   2.830  0.2536 -1.4308  0.1022
  191MOL0     H26342   7.690   1.992   2.793  1.9531 -1.6319  1.3847
  191MOL0     H26343   7.654   2.162   2.960  1.9714 -0.8474  1.8826
  191MOL0     H26344   7.583   2.463   3.072  1.3804  1.6416 -0.8518
  191MOL0     H26345   7.430   2.580   3.224 -0.4048  0.3270  0.3122
  191MOL0     H26346   7.623   2.932   3.465 -0.8666  1.8044  0.0259
  191MOL0     H26347   7.536   2.963   3.320  2.9413 -0.6993 -0.4204
  191MOL0     H26348   7.359   2.882   3.534  1.0597 -0.7581 -1.0904
  191MOL0     H26349   7.334   3.004   3.414  0.1348 -0.0353 -0.6833
  191MOL0     H26350   7.519   3.038   3.664 -2.9730  1.5432  2.6565
  191MOL0     H26351   7.502   3.158   3.552 -1.4880  0.4399 -1.9575
  191MOL0     H26352   7.373   3.195   3.756 -0.5937  0.4391  0.0681
  191MOL0     H26353   7.291   3.042   3.737 -0.5575  2.0892  2.5132
  191MOL0     H26354   7.053   3.326   3.552  0.2821 -1.0303 -1.5365
  191MOL0     H26355   7.761   2.805   3.368 -1.3636  0.6544 -0.7114
  191MOL0     H26356   7.968   2.770   3.136 -1.2543 -0.2211  0.3601
  191MOL0     H26357   7.977   2.776   3.309 -0.2105 -0.4154  0.1146
  191MOL0     H26358   8.020   2.623   3.215 -0.3036 -1.5188 -2.1556
  192MOL0     O26359   7.918   4.184   2.098 -0.2634 -0.5330  0.0386
  192MOL0     C26360   7.826   4.106   2.139  0.0213  0.1167 -0.3458
  192MOL0     O26361   7.804   3.982   2.103  0.5170 -0.1133  0.7979
  192MOL0     C26362   7.895   3.931   2.016  0.0771 -0.1724 -0.1313
  192MOL0     C26363   7.962   3.825   2.052 -0.3626  0.0183  0.2515
  192MOL0     C26364   8.067   3.777   1.969 -0.0881  0.5284 -0.6682
  192MOL0     C26365   8.090   3.830   1.836 -0.4006  0.2770 -0.3074
  192MOL0     O26366   8.187   3.763   1.772 -0.4769 -0.0901 -0.4224
  192MOL0     C26367   8.198   3.784   1.634  0.5629 -1.1488 -0.3461
  192MOL0     C26368   8.292   3.680   1.579 -0.3930 -0.3148  0.7770
  192MOL0     C26369   8.430   3.658   1.646 -0.3612 -0.3511  0.6241
  192MOL0     C26370   8.505   3.539   1.570 -0.0292 -0.6029  0.2914
  192MOL0     C26371   8.659   3.533   1.613  0.3237  0.7606  0.1792
  192MOL0     C26372   8.705   3.391   1.588 -0.4615  0.5214 -0.0115
  192MOL0     C26373   8.851   3.377   1.640 -0.3890  0.5017 -0.0856
  192MOL0     C26374   8.859   3.387   1.789  0.0979 -0.2076  0.8261
  192MOL0     N26375   8.999   3.410   1.829 -0.8486  0.3735 -0.2990
  192MOL0     C26376   9.048   3.532   1.881 -0.0231 -0.5057  0.3383
  192MOL0     C26377   9.179   3.497   1.889 -0.5838 -0.2003  0.3914
  192MOL0     C26378   9.291   3.583   1.930  0.7293  0.5160 -0.6219
  192MOL0     C26379   9.373   3.611   1.804 -0.1544 -0.0222 -0.1511
  192MOL0     C26380   9.442   3.742   1.824 -0.0727  0.2233  0.6360
  192MOL0     C26381   9.554   3.765   1.718  0.7911 -0.2157 -0.1643
  192MOL0     O26382   9.663   3.669   1.719  0.4580 -0.3676 -0.7928
  192MOL0     C26383   9.780   3.690   1.655 -0.4246 -0.2968  0.6008
  192MOL0     C26384   9.792   3.767   1.538  0.2342 -0.4428 -1.2870
  192MOL0     C26385   9.916   3.784   1.473 -0.4218 -0.9891 -0.6031
  192MOL0     C26386   9.916   3.895   1.363  0.6565 -0.3944 -0.0762
  192MOL0     C26387  10.035   3.707   1.519 -1.1791  0.3879  0.2265
  192MOL0     C26388  10.172   3.731   1.475 -1.3480 -0.4713 -0.1019
  192MOL0     O26389  10.276   3.692   1.569  0.1352  0.1010  0.1979
  192MOL0     C26390  10.401   3.718   1.539 -0.2522  0.0163 -0.5649
  192MOL0     C26391  10.490   3.607   1.521 -0.1237  0.3512  0.2117
  192MOL0     C26392  10.619   3.629   1.486 -0.6505 -0.3147  0.3070
  192MOL0     C26393  10.677   3.756   1.502  0.8171 -0.2065 -0.2391
  192MOL0     O26394  10.808   3.763   1.476 -0.5663  1.1991  0.1515
  192MOL0     C26395  10.891   3.865   1.523 -0.2706  0.6471 -0.1698
  192MOL0     C26396  10.922   3.865   1.673 -0.5798  0.3755 -0.8451
  192MOL0     C26397  11.004   3.989   1.714 -0.8985 -0.0662  0.1353
  192MOL0     C26398  11.152   3.951   1.713 -0.4973  0.3147 -0.4422
  192MOL0     C26399  11.247   4.066   1.721 -0.6371 -0.3814 -0.8335
  192MOL0     C26400  11.209   4.184   1.804  0.4756 -0.7582  0.1480
  192MOL0     C26401  11.326   4.273   1.812 -0.4836 -0.0847 -0.2080
  192MOL0     C26402  11.312   4.369   1.933  0.3811  0.7488  0.3185
  192MOL0    Cl26403  11.168   4.472   1.940  0.0968 -0.1470 -0.1415
  192MOL0     C26404  10.591   3.861   1.538 -0.3221 -0.4374 -0.8562
  192MOL0     C26405  10.454   3.844   1.547 -0.7135 -0.5610  0.3023
  192MOL0     O26406  10.193   3.800   1.377 -0.0486 -0.5005  0.3072
  192MOL0     C26407  10.019   3.616   1.628  0.7341 -0.4287  0.2065
  192MOL0     C26408   9.893   3.613   1.695 -0.8448  0.0575  0.1920
  192MOL0     N26409   9.204   3.370   1.830 -0.1421  0.2325 -0.5842
  192MOL0     N26410   9.094   3.315   1.797 -0.1675 -0.0637  0.2557
  192MOL0     C26411   8.004   3.932   1.797  0.7988 -0.3211  0.0491
  192MOL0     C26412   7.907   3.988   1.884  0.7996  0.6079  0.3847
  192MOL0     C26413   7.737   4.149   2.253  1.1804 -0.2483  0.1640
  192MOL0     C26414   7.652   4.057   2.314 -0.6101  0.2001 -0.8667
  192MOL0     C26415   7.586   4.091   2.434  0.2243 -0.4477  0.0283
  192MOL0     C26416   7.595   4.219   2.489 -0.6463  0.3849  0.3596
  192MOL0     O26417   7.551   4.246   2.618 -0.3421 -0.1624  0.5424
  192MOL0     C26418   7.619   4.174   2.718  0.3126  0.2927  0.4176
  192MOL0     C26419   7.727   4.267   2.788  0.1855 -0.5794 -1.1124
  192MOL0     C26420   7.664   4.403   2.843 -0.9049  0.0577 -0.1519
  192MOL0     C26421   7.634   4.408   2.996  0.3124 -0.2271 -0.5994
  192MOL0     C26422   7.766   4.409   3.058  0.3575 -0.1860 -0.6114
  192MOL0     C26423   7.872   4.429   3.122 -0.7992 -0.7688  0.5126
  192MOL0     C26424   7.671   4.316   2.432  0.1860  0.1909 -0.2330
  192MOL0     C26425   7.733   4.278   2.316 -0.4273 -0.2604  0.5753
  192MOL0     C26426   7.791   4.390   2.238  0.1260  0.1351 -0.4084
  192MOL0     H26427   7.946   3.788   2.153  1.1691  0.8390  0.8246
  192MOL0     H26428   8.123   3.693   2.008 -0.7228  1.9433  3.9293
  192MOL0     H26429   8.236   3.887   1.625 -1.7728 -0.2856 -0.9292
  192MOL0     H26430   8.099   3.776   1.589 -0.0930  1.3070  0.5124
  192MOL0     H26431   8.237   3.586   1.575  0.2662 -0.7242  1.0840
  192MOL0     H26432   8.325   3.691   1.476  0.0104 -1.8478  0.7214
  192MOL0     H26433   8.492   3.747   1.629 -1.8739  0.3326 -1.9369
  192MOL0     H26434   8.420   3.642   1.753  1.9487  2.1029  1.3151
  192MOL0     H26435   8.458   3.440   1.571  1.2768 -1.2944 -1.1310
  192MOL0     H26436   8.516   3.561   1.463  0.8927 -1.5174  0.1757
  192MOL0     H26437   8.657   3.544   1.722 -0.3985 -0.0542  0.2595
  192MOL0     H26438   8.721   3.613   1.572  0.1594  1.0178  0.4337
  192MOL0     H26439   8.645   3.311   1.633 -1.3042  1.4111  0.5012
  192MOL0     H26440   8.711   3.374   1.481 -0.1961  3.7758 -0.6265
  192MOL0     H26441   8.919   3.453   1.602 -0.7142  0.6915 -0.2959
  192MOL0     H26442   8.891   3.278   1.615 -0.7052 -0.6125  3.2732
  192MOL0     H26443   8.805   3.475   1.825  2.1683  0.5055  2.3524
  192MOL0     H26444   8.820   3.302   1.846 -0.5580  1.8973  3.7196
  192MOL0     H26445   8.987   3.617   1.910  1.1122 -0.2134  1.9584
  192MOL0     H26446   9.343   3.523   2.006  1.5840 -0.3906 -1.8658
  192MOL0     H26447   9.262   3.674   1.983 -1.6508 -1.7726  2.4011
  192MOL0     H26448   9.444   3.530   1.787  0.4425 -0.3261  3.1645
  192MOL0     H26449   9.311   3.628   1.716  2.1477  1.9527 -1.5142
  192MOL0     H26450   9.372   3.826   1.820 -0.2143  0.0642 -0.3597
  192MOL0     H26451   9.495   3.746   1.920 -0.0808 -4.6379  1.0885
  192MOL0     H26452   9.517   3.772   1.616  0.5421  0.5549 -0.0249
  192MOL0     H26453   9.606   3.854   1.754  1.7918 -0.6517 -0.4845
  192MOL0     H26454   9.707   3.826   1.506 -0.4660 -1.0908 -0.6458
  192MOL0     H26455   9.846   3.975   1.388  1.1149  0.2340 -0.7712
  192MOL0     H26456   9.894   3.854   1.263  2.6285 -1.6570 -0.0396
  192MOL0     H26457  10.012   3.943   1.347 -0.1997  1.7757  0.9745
  192MOL0     H26458  10.454   3.505   1.523  1.4987 -0.2430  1.2461
  192MOL0     H26459  10.681   3.544   1.460 -0.5387  0.0851 -0.7767
  192MOL0     H26460  10.986   3.845   1.473 -1.5662 -1.2154 -2.0910
  192MOL0     H26461  10.851   3.962   1.493 -2.7365 -0.3042 -0.2754
  192MOL0     H26462  10.823   3.887   1.714 -0.2758 -0.6729  0.5107
  192MOL0     H26463  10.962   3.771   1.713  2.1205  0.9052 -2.0380
  192MOL0     H26464  10.980   4.020   1.816 -0.4999  1.4934 -0.2256
  192MOL0     H26465  10.989   4.063   1.636  1.2984 -1.1256 -1.4188
  192MOL0     H26466  11.172   3.892   1.623  1.9246  1.9706 -1.0961
  192MOL0     H26467  11.161   3.885   1.800 -3.2745 -1.1904 -1.1937
  192MOL0     H26468  11.338   4.020   1.761 -1.9303 -3.1799 -0.9159
  192MOL0     H26469  11.271   4.095   1.618  0.4034 -0.9881 -0.7783
  192MOL0     H26470  11.181   4.153   1.906  0.6425  3.3725  1.6303
  192MOL0     H26471  11.115   4.229   1.773  0.8365 -1.0901 -1.4958
  192MOL0     H26472  11.317   4.325   1.716 -0.5610  0.3956  0.0549
  192MOL0     H26473  11.422   4.220   1.813 -0.4213 -0.1596 -2.8626
  192MOL0     H26474  11.401   4.432   1.927 -0.4979  2.3088  2.4974
  192MOL0     H26475  11.324   4.314   2.027  3.5301 -0.4344 -0.6252
  192MOL0     H26476  10.623   3.965   1.538 -1.9024  0.1144  0.8877
  192MOL0     H26477  10.388   3.929   1.560  0.1883  0.3382 -0.7449
  192MOL0     H26478  10.101   3.551   1.655 -0.8306 -1.9489  1.5939
  192MOL0     H26479   9.860   3.549   1.776  1.0115 -0.4077  0.6229
  192MOL0     H26480   8.007   3.983   1.700 -0.7304 -0.1531  0.0514
  192MOL0     H26481   7.846   4.074   1.861 -0.7797 -0.9598 -1.6443
  192MOL0     H26482   7.648   3.951   2.288 -0.8142 -0.1731  0.6076
  192MOL0     H26483   7.524   4.014   2.480  0.6330 -2.0258 -1.8882
  192MOL0     H26484   7.541   4.132   2.783 -0.4274 -1.0290 -1.2681
  192MOL0     H26485   7.681   4.094   2.677  5.6062  3.4290  1.2758
  192MOL0     H26486   7.791   4.293   2.704 -1.6433  0.8894 -2.1263
  192MOL0     H26487   7.768   4.216   2.876 -1.7563  1.1638  0.9317
  192MOL0     H26488   7.736   4.484   2.829 -0.3852 -0.7736 -3.1197
  192MOL0     H26489   7.571   4.429   2.792 -0.6482  3.1202  0.7738
  192MOL0     H26490   7.584   4.315   3.025  2.9419 -0.9257  2.0650
  192MOL0     H26491   7.581   4.498   3.028  2.9815  0.9278  0.8582
  192MOL0     H26492   7.963   4.439   3.178 -1.6844  1.9589  1.6315
  192MOL0     H26493   7.683   4.414   2.477 -1.4438  0.9200 -1.2999
  192MOL0     H26494   7.776   4.488   2.284  0.8046  0.7155 -1.4077
  192MOL0     H26495   7.899   4.377   2.228 -0.0729 -4.9788  1.1900
  192MOL0     H26496   7.748   4.388   2.137 -3.0143 -1.6620  0.7956
  193MOL0     O26497   6.172   3.359  10.696 -0.6848  0.7719  0.5125
  193MOL0     C26498   6.250   3.396  10.785  0.4492  1.1684  0.2244
  193MOL0     O26499   6.375   3.446  10.769  0.5906  0.4098 -0.0375
  193MOL0     C26500   6.438   3.459  10.649 -1.0780  0.0331 -0.0603
  193MOL0     C26501   6.532   3.567  10.632  0.0978  0.5526 -0.1893
  193MOL0     C26502   6.588   3.591  10.503  0.0110 -0.1163 -0.1424
  193MOL0     C26503   6.554   3.514  10.391 -0.4160 -0.3395 -0.2693
  193MOL0     O26504   6.598   3.544  10.266 -0.4646 -0.1999 -0.4920
  193MOL0     C26505   6.696   3.644  10.231 -0.9679  0.3330  0.0309
  193MOL0     C26506   6.717   3.661  10.082 -1.0437  0.8463 -0.3778
  193MOL0     C26507   6.830   3.758  10.055 -1.6208  0.4285 -0.8937
  193MOL0     C26508   6.960   3.682  10.051  0.6654  0.2931  0.4269
  193MOL0     C26509   7.068   3.783  10.022  0.3635 -0.5318  0.0311
  193MOL0     C26510   7.119   3.860  10.142 -0.0463 -0.0647  0.3030
  193MOL0     C26511   7.264   3.913  10.115 -1.3801  0.4020 -0.0446
  193MOL0     C26512   7.312   4.007  10.222  0.1404 -0.6042 -0.9114
  193MOL0     N26513   7.216   4.105  10.264  0.6325  0.1719 -0.4454
  193MOL0     C26514   7.176   4.211  10.188 -0.1109 -0.1081 -0.2544
  193MOL0     C26515   7.083   4.282  10.260 -0.5205 -0.1937  0.5583
  193MOL0     C26516   7.005   4.402  10.212 -0.1032 -0.5516 -0.3810
  193MOL0     C26517   6.994   4.515  10.315  0.7931 -0.0038 -0.3021
  193MOL0     C26518   6.879   4.490  10.422 -0.2484 -0.2374 -0.4963
  193MOL0     C26519   6.737   4.552  10.398  0.5622  0.8057  0.0450
  193MOL0     O26520   6.754   4.690  10.417 -0.0758  0.5228  0.4895
  193MOL0     C26521   6.650   4.771  10.458  0.2206 -0.5750  0.2832
  193MOL0     C26522   6.676   4.903  10.475  0.9396 -0.3705  0.1189
  193MOL0     C26523   6.582   5.007  10.497  0.1880 -0.8534 -1.0987
  193MOL0     C26524   6.637   5.154  10.506  0.4111  0.7190  0.3053
  193MOL0     C26525   6.443   4.972  10.510 -0.1910 -0.3930  0.2271
  193MOL0     C26526   6.331   5.065  10.552  0.5833  0.3398  0.2356
  193MOL0     O26527   6.199   5.023  10.541  0.1434  1.3057  0.0171
  193MOL0     C26528   6.107   5.117  10.578 -0.2112  1.1108  0.7939
  193MOL0     C26529   6.027   5.169  10.474  0.2632  0.0445 -0.0821
  193MOL0     C26530   5.922   5.255  10.499  0.4875 -0.5363 -0.7163
  193MOL0     C26531   5.897   5.300  10.637 -0.2692 -0.5266 -0.2262
  193MOL0     O26532   5.792   5.378  10.674 -0.2073 -0.3168  0.1314
  193MOL0     C26533   5.669   5.359  10.601  0.5888  0.1293 -0.8846
  193MOL0     C26534   5.556   5.440  10.664 -0.0163  0.3872 -0.3697
  193MOL0     C26535   5.576   5.590  10.670  0.3224 -0.3094 -0.0687
  193MOL0     C26536   5.470   5.672  10.740  0.9472  0.1423  0.1912
  193MOL0     C26537   5.526   5.808  10.794 -1.0591  0.4701 -0.8593
  193MOL0     C26538   5.565   5.893  10.669  0.6203  0.0147  0.1457
  193MOL0     C26539   5.555   6.040  10.705  0.0761  0.2446 -0.0736
  193MOL0     C26540   5.418   6.099  10.704 -0.1099  0.5361 -0.4580
  193MOL0    Cl26541   5.341   6.124  10.547  0.1504  0.0025 -0.2117
  193MOL0     C26542   5.981   5.246  10.730 -0.6698 -0.4004  0.5513
  193MOL0     C26543   6.088   5.166  10.708  0.2172 -0.7333 -0.3179
  193MOL0     O26544   6.368   5.166  10.610  1.5404 -0.4686  0.2348
  193MOL0     C26545   6.418   4.834  10.500 -0.5647  0.2795  1.2153
  193MOL0     C26546   6.514   4.739  10.466 -0.0360 -0.7845 -0.2471
  193MOL0     N26547   7.087   4.219  10.382  0.3303  0.6267  0.0482
  193MOL0     N26548   7.162   4.119  10.385  0.6572  1.3917  0.3438
  193MOL0     C26549   6.467   3.401  10.414  0.0017 -0.5820  0.9901
  193MOL0     C26550   6.416   3.372  10.541 -0.1631 -0.3408 -0.1226
  193MOL0     C26551   6.217   3.355  10.932  0.5902  0.2531  0.8392
  193MOL0     C26552   6.313   3.286  11.007  0.2766  1.0517 -0.4669
  193MOL0     C26553   6.302   3.249  11.136  0.2700  1.0489 -0.2015
  193MOL0     C26554   6.184   3.276  11.202  0.3074  0.0104  0.4939
  193MOL0     O26555   6.164   3.229  11.331 -0.4112 -0.1583  0.0968
  193MOL0     C26556   6.077   3.304  11.417  0.0223  0.4625 -0.3355
  193MOL0     C26557   5.953   3.219  11.438  0.9342 -0.5108 -0.5692
  193MOL0     C26558   5.842   3.307  11.507  0.7857  0.4052 -1.1211
  193MOL0     C26559   5.760   3.388  11.403 -0.7817 -0.2011  0.3582
  193MOL0     C26560   5.826   3.511  11.354 -0.1103  0.8843 -0.8826
  193MOL0     C26561   5.882   3.602  11.311  0.5895  0.0342 -0.6751
  193MOL0     C26562   6.077   3.345  11.123 -0.9026  0.4259 -0.1765
  193MOL0     C26563   6.096   3.374  10.986  0.6118  0.1294 -0.7242
  193MOL0     C26564   5.983   3.441  10.915  0.8624  0.1600 -0.8881
  193MOL0     H26565   6.574   3.624  10.714 -0.3296 -0.5150  0.8032
  193MOL0     H26566   6.668   3.662  10.486 -0.5920  0.0218 -3.0964
  193MOL0     H26567   6.785   3.621  10.291 -2.2513 -2.7515  0.9413
  193MOL0     H26568   6.655   3.741  10.261  0.4761  0.6760  0.9618
  193MOL0     H26569   6.746   3.565  10.039 -1.1271 -0.7945  2.9666
  193MOL0     H26570   6.623   3.706  10.047 -3.1070  0.9973  4.5199
  193MOL0     H26571   6.818   3.798   9.954 -0.4425 -0.8503 -1.5754
  193MOL0     H26572   6.832   3.841  10.126 -0.7093 -0.6492  0.3828
  193MOL0     H26573   6.978   3.638  10.150 -0.1729  0.8129  0.8171
  193MOL0     H26574   6.951   3.603   9.976 -1.4342 -0.5302  1.4754
  193MOL0     H26575   7.043   3.855   9.943  0.2568 -0.5496  0.0487
  193MOL0     H26576   7.158   3.732   9.989  0.7192 -0.3806  0.7655
  193MOL0     H26577   7.046   3.933  10.178 -1.6299 -1.5789  0.2544
  193MOL0     H26578   7.131   3.792  10.227 -0.7550  0.1675  0.5967
  193MOL0     H26579   7.275   3.979  10.029  3.6462 -0.3354 -0.2722
  193MOL0     H26580   7.327   3.824  10.101 -1.6113  0.0839  0.8778
  193MOL0     H26581   7.345   3.954  10.312  0.7423  0.8738 -0.2394
  193MOL0     H26582   7.396   4.062  10.179  1.4597 -1.8407 -0.0246
  193MOL0     H26583   7.206   4.238  10.087 -1.0281 -1.7204 -0.9945
  193MOL0     H26584   6.908   4.380  10.167 -1.1616  0.4350  1.3038
  193MOL0     H26585   7.068   4.442  10.132  1.5240 -0.0948  1.0599
  193MOL0     H26586   7.083   4.532  10.375  0.8828 -1.4320  0.0097
  193MOL0     H26587   6.963   4.609  10.269  2.0603  1.2888  1.3573
  193MOL0     H26588   6.858   4.383  10.415 -1.3531 -0.0751  0.1108
  193MOL0     H26589   6.910   4.517  10.523  0.9142 -0.4059 -0.7901
  193MOL0     H26590   6.690   4.525  10.303  2.2722 -3.0132  0.0808
  193MOL0     H26591   6.676   4.508  10.478  0.1560 -1.3624 -1.3801
  193MOL0     H26592   6.782   4.919  10.455  0.7020 -1.7315 -2.8572
  193MOL0     H26593   6.559   5.220  10.466 -0.9658 -0.8784  0.2765
  193MOL0     H26594   6.729   5.168  10.449  0.0551  0.8588 -0.2465
  193MOL0     H26595   6.655   5.172  10.612  0.4233 -1.1877  0.6588
  193MOL0     H26596   6.047   5.123  10.377  2.0439  0.1466  0.2044
  193MOL0     H26597   5.869   5.281  10.408  1.7826  3.1683 -0.6133
  193MOL0     H26598   5.678   5.383  10.495 -1.5979 -0.1724 -1.1861
  193MOL0     H26599   5.645   5.252  10.605  0.8128 -0.1208 -3.8939
  193MOL0     H26600   5.460   5.425  10.614 -0.3137  0.0202  0.3010
  193MOL0     H26601   5.527   5.403  10.763 -0.8245  0.7677 -0.4584
  193MOL0     H26602   5.582   5.623  10.567  1.8498 -2.4775 -0.7514
  193MOL0     H26603   5.673   5.611  10.715  0.2675  0.5615 -0.3413
  193MOL0     H26604   5.430   5.617  10.826  1.4801  1.9866  1.6925
  193MOL0     H26605   5.396   5.684  10.660  1.2015 -1.8445 -0.3879
  193MOL0     H26606   5.446   5.850  10.856  0.5956  0.1937  1.5972
  193MOL0     H26607   5.612   5.803  10.861 -0.2485  1.1929 -1.8093
  193MOL0     H26608   5.513   5.867  10.576 -0.8902 -1.7638  1.4109
  193MOL0     H26609   5.672   5.881  10.653  0.5236  1.3436 -1.9988
  193MOL0     H26610   5.602   6.101  10.627  0.6695 -1.4722 -1.1168
  193MOL0     H26611   5.587   6.051  10.809 -2.1912 -1.9141  0.9580
  193MOL0     H26612   5.414   6.195  10.756  0.2304 -0.3623  1.2676
  193MOL0     H26613   5.356   6.032  10.763  0.8372 -0.0156 -0.0689
  193MOL0     H26614   5.958   5.303  10.819  0.6932 -0.8195  1.1963
  193MOL0     H26615   6.151   5.139  10.792 -1.2794 -0.6542  0.8629
  193MOL0     H26616   6.319   4.793  10.519 -1.5247  1.0592 -1.5818
  193MOL0     H26617   6.479   4.637  10.464 -2.1004 -0.1116 -1.1034
  193MOL0     H26618   6.433   3.340  10.331  2.0599 -0.8691  0.3007
  193MOL0     H26619   6.344   3.292  10.556 -1.2149  0.5747 -0.1239
  193MOL0     H26620   6.412   3.278  10.963 -0.6452  0.7437 -2.5939
  193MOL0     H26621   6.386   3.214  11.195 -0.2909  0.5742  0.3452
  193MOL0     H26622   6.123   3.326  11.514 -0.3253  0.4619 -0.1667
  193MOL0     H26623   6.041   3.399  11.376  1.7356  0.8497 -1.0144
  193MOL0     H26624   5.977   3.131  11.500  1.3914 -0.8465 -1.2021
  193MOL0     H26625   5.916   3.178  11.343  0.2251 -0.8065 -0.1675
  193MOL0     H26626   5.770   3.239  11.554 -0.3818  3.1936  1.4330
  193MOL0     H26627   5.878   3.372  11.586 -1.2580 -2.2746  2.2907
  193MOL0     H26628   5.668   3.414  11.456 -2.1459 -0.8912 -1.5778
  193MOL0     H26629   5.743   3.338  11.308 -2.1262  2.5096 -0.9511
  193MOL0     H26630   5.944   3.678  11.267  1.1878 -0.7022 -1.1149
  193MOL0     H26631   5.983   3.366  11.173 -1.5095 -0.8972 -0.7122
  193MOL0     H26632   6.002   3.549  10.918  0.8080  0.2213 -2.0307
  193MOL0     H26633   5.972   3.402  10.813  0.5173  1.7792 -1.5136
  193MOL0     H26634   5.885   3.416  10.955  0.5840  1.3867 -0.7684
  194MOL0     O26635   6.533   7.959   4.413  0.5254  0.1380  0.3556
  194MOL0     C26636   6.626   7.919   4.338  0.5915  0.5581 -1.5952
  194MOL0     O26637   6.619   7.904   4.205  0.2060  0.5985  0.4438
  194MOL0     C26638   6.513   7.964   4.135 -0.0370  0.1232 -0.1543
  194MOL0     C26639   6.546   8.082   4.058 -0.1544  0.4768  0.4625
  194MOL0     C26640   6.440   8.131   3.981  0.5940 -0.0647 -0.9631
  194MOL0     C26641   6.313   8.067   3.969 -0.2538 -0.7633 -0.5058
  194MOL0     O26642   6.216   8.127   3.885  0.2258 -0.7856  0.1996
  194MOL0     C26643   6.087   8.063   3.863  0.0980  0.7325  0.2485
  194MOL0     C26644   5.995   8.185   3.832 -0.4494  0.9129 -0.7082
  194MOL0     C26645   6.043   8.250   3.700  0.9459  0.0568 -0.3035
  194MOL0     C26646   6.016   8.163   3.576  0.0087 -0.6064  0.4740
  194MOL0     C26647   6.045   8.248   3.451  1.1077 -1.1654  0.0108
  194MOL0     C26648   5.938   8.344   3.400 -0.0396 -0.1804 -0.5861
  194MOL0     C26649   5.994   8.437   3.288  0.2701 -0.4367  0.6483
  194MOL0     C26650   6.102   8.537   3.332 -0.9077  0.1735 -0.8321
  194MOL0     N26651   6.042   8.643   3.412  0.2993 -0.5824 -0.4916
  194MOL0     C26652   5.980   8.758   3.368 -0.8342 -0.1253 -0.0943
  194MOL0     C26653   5.950   8.828   3.476  0.6425 -0.6680  0.0075
  194MOL0     C26654   5.881   8.963   3.474 -0.1063 -0.4684 -0.2798
  194MOL0     C26655   5.960   9.085   3.406  0.0641  0.4798 -0.2633
  194MOL0     C26656   6.089   9.114   3.473 -0.4261 -0.1461 -0.4397
  194MOL0     C26657   6.097   9.137   3.628  0.5699  0.4748 -0.4233
  194MOL0     O26658   6.232   9.160   3.666  0.1719  0.4315 -0.3021
  194MOL0     C26659   6.309   9.073   3.744 -0.1225 -0.4474 -0.0663
  194MOL0     C26660   6.421   9.119   3.805 -0.4050 -0.3405 -1.0736
  194MOL0     C26661   6.500   9.032   3.886 -0.0940  0.1587  0.4929
  194MOL0     C26662   6.598   9.104   3.976  0.2810  0.1690  0.1067
  194MOL0     C26663   6.479   8.890   3.886 -0.1926  0.6573 -0.3899
  194MOL0     C26664   6.579   8.793   3.936 -0.3945  0.1675  0.3451
  194MOL0     O26665   6.530   8.677   3.995  0.2037 -0.1068 -0.1813
  194MOL0     C26666   6.607   8.574   4.035  0.2247  0.4089  0.0643
  194MOL0     C26667   6.545   8.493   4.133  0.0149 -0.7503  0.0933
  194MOL0     C26668   6.621   8.388   4.191 -0.0585  0.0494 -0.7042
  194MOL0     C26669   6.750   8.357   4.155  0.1653 -0.2988  0.2995
  194MOL0     O26670   6.821   8.250   4.216  0.2647 -0.5422  0.1412
  194MOL0     C26671   6.792   8.229   4.359 -0.5343  0.9524 -0.0353
  194MOL0     C26672   6.865   8.338   4.447  0.7300  0.7595  0.4575
  194MOL0     C26673   7.013   8.305   4.461  0.6572 -0.0076  0.2027
  194MOL0     C26674   7.077   8.399   4.558 -0.2317  0.9158 -0.3722
  194MOL0     C26675   7.227   8.393   4.538 -0.6462 -0.8060  0.1312
  194MOL0     C26676   7.303   8.490   4.637  0.4428 -0.4514 -0.5220
  194MOL0     C26677   7.445   8.521   4.577 -0.0682  0.9199 -0.4056
  194MOL0     C26678   7.538   8.595   4.675 -0.4748  0.6002  0.1651
  194MOL0    Cl26679   7.569   8.498   4.820 -0.2479  0.3619 -0.1268
  194MOL0     C26680   6.801   8.421   4.044  0.5098  0.2456  0.5653
  194MOL0     C26681   6.735   8.533   3.992  0.0037  0.3431 -0.4829
  194MOL0     O26682   6.700   8.810   3.911  0.2292 -0.0608  0.0219
  194MOL0     C26683   6.366   8.848   3.819  0.0517  1.1917  0.1609
  194MOL0     C26684   6.281   8.935   3.756  0.6575 -0.1539  0.5269
  194MOL0     N26685   5.999   8.753   3.587  0.1740  0.6916 -0.6751
  194MOL0     N26686   6.055   8.647   3.552 -0.1052  0.5954  0.2030
  194MOL0     C26687   6.295   7.953   4.040  0.3441 -0.0809 -0.3993
  194MOL0     C26688   6.391   7.901   4.125 -0.2322  0.1906  0.4518
  194MOL0     C26689   6.749   7.870   4.427  0.1599 -0.6657  0.6719
  194MOL0     C26690   6.763   7.929   4.552 -0.0707 -0.2073  0.8464
  194MOL0     C26691   6.885   7.922   4.625  0.2241 -0.1892 -0.6135
  194MOL0     C26692   6.987   7.843   4.573 -0.1201  0.4605  1.3322
  194MOL0     O26693   7.090   7.803   4.646 -0.0091 -0.0113  1.6139
  194MOL0     C26694   7.167   7.907   4.703  0.2385 -0.1869  0.7664
  194MOL0     C26695   7.313   7.872   4.687 -0.2871 -0.0143  0.2715
  194MOL0     C26696   7.350   7.747   4.764 -0.1521 -0.0827  0.6447
  194MOL0     C26697   7.496   7.704   4.730 -0.9604 -0.3557  0.0678
  194MOL0     C26698   7.543   7.595   4.811  0.9256  0.4394  0.4512
  194MOL0     C26699   7.603   7.504   4.850 -0.1543  0.1087  0.0777
  194MOL0     C26700   6.965   7.772   4.453  0.6495 -0.1658  0.7907
  194MOL0     C26701   6.848   7.795   4.373 -0.3569 -0.4749 -0.7980
  194MOL0     C26702   6.837   7.724   4.236  0.5707 -0.2269 -0.8731
  194MOL0     H26703   6.639   8.137   4.045  0.1744 -0.3142 -0.6179
  194MOL0     H26704   6.448   8.230   3.937  0.1198  1.7790  2.6640
  194MOL0     H26705   6.046   8.018   3.953  1.2432  0.7462  0.7970
  194MOL0     H26706   6.083   7.986   3.785 -3.0116 -0.3411  1.3225
  194MOL0     H26707   5.893   8.148   3.836 -1.0291  2.5410  0.4938
  194MOL0     H26708   6.002   8.262   3.909  0.7043 -0.1073  0.2472
  194MOL0     H26709   5.973   8.334   3.694  0.3181 -0.4126  0.1772
  194MOL0     H26710   6.142   8.294   3.712 -0.5898  3.8231 -0.0041
  194MOL0     H26711   6.080   8.073   3.573 -0.4015 -1.1283  3.7337
  194MOL0     H26712   5.917   8.118   3.581  0.0371 -0.5631  1.5805
  194MOL0     H26713   6.047   8.173   3.371  0.8787 -0.4281 -0.6927
  194MOL0     H26714   6.146   8.287   3.468 -0.0523  0.7680  3.7090
  194MOL0     H26715   5.861   8.284   3.352  0.2890 -0.9030 -0.2185
  194MOL0     H26716   5.898   8.399   3.486  2.6122  1.2806 -0.1639
  194MOL0     H26717   5.907   8.484   3.243  0.0739 -2.5551 -1.3706
  194MOL0     H26718   6.042   8.380   3.207  0.1180  1.7937 -1.0851
  194MOL0     H26719   6.186   8.491   3.386 -3.2073 -2.3777  0.8549
  194MOL0     H26720   6.144   8.593   3.248  2.5900  0.0894  0.6731
  194MOL0     H26721   5.959   8.798   3.270 -0.9413 -0.4163 -0.1921
  194MOL0     H26722   5.875   8.983   3.581 -0.2158  0.1487 -0.3973
  194MOL0     H26723   5.780   8.956   3.431 -0.2965 -2.8108  0.4086
  194MOL0     H26724   5.971   9.054   3.301 -1.7996 -4.0091  0.6298
  194MOL0     H26725   5.894   9.172   3.414  0.7345  1.0591 -0.8430
  194MOL0     H26726   6.154   9.027   3.459  4.3009  3.1556 -1.7207
  194MOL0     H26727   6.139   9.204   3.436  0.4848 -0.1204  0.7858
  194MOL0     H26728   6.037   9.224   3.654 -0.0286  0.2921 -1.1371
  194MOL0     H26729   6.057   9.054   3.687  3.1403  0.6472  1.7213
  194MOL0     H26730   6.443   9.225   3.796 -0.1770 -0.2887 -0.0443
  194MOL0     H26731   6.696   9.101   3.928  1.9803  3.0665  3.0099
  194MOL0     H26732   6.590   9.070   4.080 -0.1147  1.2312  0.4361
  194MOL0     H26733   6.582   9.212   3.974  2.4607  0.5270 -0.0676
  194MOL0     H26734   6.453   8.522   4.182  0.0163 -2.5834  1.2753
  194MOL0     H26735   6.568   8.347   4.276 -2.1317  2.7864 -0.5729
  194MOL0     H26736   6.684   8.230   4.377 -0.9163 -1.6551 -1.5992
  194MOL0     H26737   6.834   8.129   4.378  2.2894  1.4655 -2.8789
  194MOL0     H26738   6.848   8.440   4.413 -1.6537  0.3721  0.2813
  194MOL0     H26739   6.812   8.333   4.543  1.1480 -1.5160  0.6269
  194MOL0     H26740   7.063   8.322   4.365  0.4529 -3.2694 -0.5980
  194MOL0     H26741   7.020   8.199   4.486 -3.4120 -0.5116 -0.2065
  194MOL0     H26742   7.051   8.363   4.658 -0.8357 -0.7407 -1.0972
  194MOL0     H26743   7.040   8.500   4.535  2.4789  1.7372 -1.6306
  194MOL0     H26744   7.273   8.295   4.553  3.3506  0.8247 -0.4322
  194MOL0     H26745   7.259   8.429   4.440  2.1848 -3.4984 -0.0651
  194MOL0     H26746   7.306   8.447   4.738 -0.3252  1.4287  0.3400
  194MOL0     H26747   7.253   8.586   4.643  0.7716 -0.1459 -2.1600
  194MOL0     H26748   7.440   8.576   4.483 -0.3294  3.1896  0.8705
  194MOL0     H26749   7.501   8.429   4.554  0.0612  1.5977 -3.0347
  194MOL0     H26750   7.500   8.696   4.690 -2.9968 -0.0340 -1.4069
  194MOL0     H26751   7.636   8.597   4.627 -0.4763 -0.3239  0.0978
  194MOL0     H26752   6.901   8.403   4.006  0.7564  3.3257 -0.5270
  194MOL0     H26753   6.800   8.592   3.928  1.3182  1.6178  1.9028
  194MOL0     H26754   6.356   8.740   3.826 -0.1641  1.2703  1.2309
  194MOL0     H26755   6.192   8.905   3.702 -1.0437  1.3711  2.3365
  194MOL0     H26756   6.204   7.897   4.023  2.2834 -4.4512  1.9760
  194MOL0     H26757   6.391   7.804   4.173  2.7730  0.3098  0.8895
  194MOL0     H26758   6.693   7.998   4.598  0.1017  3.0818 -3.1376
  194MOL0     H26759   6.898   7.981   4.715 -3.5499 -1.0178  0.6601
  194MOL0     H26760   7.154   8.005   4.656  1.3493 -0.0705  0.6726
  194MOL0     H26761   7.131   7.910   4.806 -2.7049  0.0547 -0.1850
  194MOL0     H26762   7.384   7.949   4.717  1.5722 -0.0242 -3.5319
  194MOL0     H26763   7.333   7.863   4.580 -1.1741  2.0344 -0.1111
  194MOL0     H26764   7.343   7.748   4.873  2.0617 -0.5030  0.8569
  194MOL0     H26765   7.275   7.671   4.740  0.1940 -0.7567  1.6401
  194MOL0     H26766   7.562   7.787   4.758 -0.0342 -1.8079  2.5209
  194MOL0     H26767   7.514   7.676   4.626  1.0576  0.3995  0.1759
  194MOL0     H26768   7.660   7.420   4.886  0.1049  0.4581  0.4946
  194MOL0     H26769   7.043   7.705   4.420  1.7833  0.8946  1.2611
  194MOL0     H26770   6.746   7.666   4.226  2.1955 -2.6674 -2.6122
  194MOL0     H26771   6.831   7.805   4.163  0.9489  0.3578 -0.2716
  194MOL0     H26772   6.923   7.658   4.220  1.2780  0.7349 -1.1441
  195MOL0     O26773   3.882   6.095   8.747 -0.1184  0.2151 -0.1865
  195MOL0     C26774   3.845   5.999   8.668 -1.1962 -0.2247 -0.7574
  195MOL0     O26775   3.855   5.867   8.707 -0.0005  0.0063  0.0574
  195MOL0     C26776   3.912   5.841   8.834 -0.1383  0.2175  0.3852
  195MOL0     C26777   4.042   5.876   8.874  0.0131  0.4772 -0.2417
  195MOL0     C26778   4.084   5.831   8.998 -0.3626 -0.0330 -0.4548
  195MOL0     C26779   3.998   5.759   9.090 -0.0448  0.1990  0.2991
  195MOL0     O26780   4.038   5.736   9.217 -0.4924  0.0868  0.5280
  195MOL0     C26781   3.950   5.697   9.320  0.0141 -0.4687 -0.2910
  195MOL0     C26782   4.039   5.717   9.436  0.9917 -0.4472  0.0054
  195MOL0     C26783   4.048   5.869   9.482 -0.8235  0.3608  0.5818
  195MOL0     C26784   4.164   5.953   9.440  0.3936  0.3036 -0.4509
  195MOL0     C26785   4.298   5.885   9.479 -0.3457 -0.1953  0.0956
  195MOL0     C26786   4.409   5.993   9.492 -0.5112  0.8654 -0.9483
  195MOL0     C26787   4.544   5.947   9.547 -0.4783 -0.3022 -0.6421
  195MOL0     C26788   4.636   5.862   9.465  0.5618 -0.6093  0.1294
  195MOL0     N26789   4.733   5.798   9.542 -0.1271  0.5978 -0.6793
  195MOL0     C26790   4.859   5.841   9.574 -0.1550  0.1751 -0.0210
  195MOL0     C26791   4.927   5.730   9.598 -0.2728 -0.6240 -0.0099
  195MOL0     C26792   5.070   5.707   9.632  0.6219  0.2029  0.1727
  195MOL0     C26793   5.154   5.735   9.509  0.9134 -0.2849 -0.6197
  195MOL0     C26794   5.299   5.732   9.519  0.0454  0.3892  0.4204
  195MOL0     C26795   5.355   5.595   9.562 -0.4956 -0.7784  0.5063
  195MOL0     O26796   5.486   5.620   9.598 -0.2305  0.1089 -0.5015
  195MOL0     C26797   5.573   5.513   9.606 -0.0810 -0.2115 -1.2308
  195MOL0     C26798   5.697   5.532   9.539  0.1045 -0.2386 -0.9111
  195MOL0     C26799   5.795   5.436   9.538  0.7811 -0.4856  0.9749
  195MOL0     C26800   5.926   5.484   9.468 -0.1841 -0.1915 -0.3015
  195MOL0     C26801   5.768   5.303   9.599  0.0494 -0.4393  0.1276
  195MOL0     C26802   5.859   5.200   9.594 -0.5157 -0.4389 -0.4884
  195MOL0     O26803   5.815   5.080   9.649 -0.1009 -0.0399 -0.1657
  195MOL0     C26804   5.897   4.978   9.676  0.2383 -0.9217  0.9889
  195MOL0     C26805   6.022   4.989   9.745 -1.1988 -0.6253  0.2024
  195MOL0     C26806   6.094   4.867   9.774 -0.1476 -0.0274 -0.5074
  195MOL0     C26807   6.047   4.743   9.742 -0.3053  0.9565 -0.4066
  195MOL0     O26808   6.120   4.627   9.770  0.4100  0.1453  0.0985
  195MOL0     C26809   6.110   4.510   9.682  0.4195 -0.5139  0.4937
  195MOL0     C26810   6.241   4.442   9.666 -0.9217  0.7143 -1.0633
  195MOL0     C26811   6.355   4.535   9.632 -0.5891  0.2337  0.3812
  195MOL0     C26812   6.491   4.456   9.652  0.3664  0.3605  0.0584
  195MOL0     C26813   6.614   4.544   9.616 -0.4184  0.8091  0.1192
  195MOL0     C26814   6.751   4.477   9.640 -0.2528 -0.0921 -0.0747
  195MOL0     C26815   6.870   4.531   9.563 -0.1289 -0.4756  0.1245
  195MOL0     C26816   7.006   4.489   9.626  0.1735  0.5195  0.0939
  195MOL0    Cl26817   7.120   4.591   9.545 -0.2256  0.4447  0.0280
  195MOL0     C26818   5.922   4.728   9.677 -1.1189  0.4119  0.6629
  195MOL0     C26819   5.851   4.846   9.635 -0.3417  0.0946 -0.0951
  195MOL0     O26820   5.975   5.223   9.555 -0.3093 -0.1428  0.4135
  195MOL0     C26821   5.643   5.289   9.664 -0.7437  0.3704  0.3026
  195MOL0     C26822   5.549   5.393   9.659  0.4470  0.1122 -0.7987
  195MOL0     N26823   4.838   5.626   9.589 -0.5292  0.3256  0.2903
  195MOL0     N26824   4.722   5.664   9.561 -0.2676  0.4022  0.6181
  195MOL0     C26825   3.873   5.717   9.048  0.0357  0.0178 -0.2813
  195MOL0     C26826   3.838   5.758   8.918  0.6955  0.0611 -0.3770
  195MOL0     C26827   3.795   6.032   8.534 -0.3833  0.0436  0.3446
  195MOL0     C26828   3.733   5.924   8.464 -0.0528  0.5168 -0.2952
  195MOL0     C26829   3.671   5.937   8.340 -0.3644  0.9053  0.4589
  195MOL0     C26830   3.663   6.063   8.283  0.4777 -0.6155 -0.6131
  195MOL0     O26831   3.571   6.083   8.183 -0.0763  0.1438 -0.0786
  195MOL0     C26832   3.439   6.111   8.222 -0.5813  0.0546  0.3568
  195MOL0     C26833   3.351   5.996   8.175  0.9403 -0.0281  0.9739
  195MOL0     C26834   3.355   5.983   8.020 -0.1412 -0.5093  0.2105
  195MOL0     C26835   3.452   5.865   7.982  0.5823  0.4408 -0.3298
  195MOL0     C26836   3.389   5.737   7.996 -0.7324 -0.6951  0.7925
  195MOL0     C26837   3.354   5.628   8.018  0.5484  0.7217 -0.2010
  195MOL0     C26838   3.727   6.173   8.346  1.0970  0.0047 -0.5857
  195MOL0     C26839   3.791   6.158   8.467  0.1290 -0.0730  0.2106
  195MOL0     C26840   3.848   6.288   8.523  0.7834 -0.0454  0.5420
  195MOL0     H26841   4.102   5.940   8.810  0.5075  3.9245  3.3150
  195MOL0     H26842   4.178   5.874   9.028  1.6936 -3.6704 -1.1182
  195MOL0     H26843   3.927   5.590   9.315  1.3232 -0.7776 -0.0286
  195MOL0     H26844   3.862   5.762   9.320  0.4876  0.2018 -1.7099
  195MOL0     H26845   4.004   5.659   9.523  3.3418 -0.3017  1.1188
  195MOL0     H26846   4.138   5.682   9.409  1.2897  2.9066 -4.2640
  195MOL0     H26847   3.952   5.917   9.459 -1.3607  0.0395  2.0284
  195MOL0     H26848   4.057   5.861   9.590  2.0779  0.2233  0.4184
  195MOL0     H26849   4.162   5.974   9.332 -1.4547  0.7176 -0.3655
  195MOL0     H26850   4.158   6.047   9.495 -0.1563 -0.8684  1.5841
  195MOL0     H26851   4.319   5.808   9.404 -1.6851 -0.0076 -0.5171
  195MOL0     H26852   4.284   5.835   9.576 -1.8081 -0.1013 -0.0362
  195MOL0     H26853   4.412   6.052   9.401 -2.3158  3.0448  0.3191
  195MOL0     H26854   4.384   6.062   9.573 -1.0047 -0.3679 -0.0175
  195MOL0     H26855   4.518   5.886   9.635  0.2292  0.7554  0.3297
  195MOL0     H26856   4.604   6.031   9.583 -0.5852 -1.8437  3.8103
  195MOL0     H26857   4.572   5.785   9.423 -1.5397  0.6523  0.8868
  195MOL0     H26858   4.677   5.917   9.380 -2.8723 -1.9457 -2.6193
  195MOL0     H26859   4.903   5.941   9.583  1.7339 -0.7687  2.1542
  195MOL0     H26860   5.078   5.598   9.644  1.6169  0.0746 -1.3686
  195MOL0     H26861   5.108   5.768   9.714  1.3512 -1.0475  0.8043
  195MOL0     H26862   5.129   5.654   9.440  0.4990  0.4785 -1.3824
  195MOL0     H26863   5.130   5.824   9.449  2.6025 -1.4353 -3.1831
  195MOL0     H26864   5.347   5.739   9.422 -1.1830 -2.3513 -0.4927
  195MOL0     H26865   5.333   5.814   9.584  2.8120 -0.3006 -0.0362
  195MOL0     H26866   5.296   5.553   9.644 -1.7598 -0.5115 -0.2372
  195MOL0     H26867   5.342   5.529   9.476 -3.6893  0.6482 -0.2585
  195MOL0     H26868   5.708   5.626   9.486  1.6293  1.2735  1.8630
  195MOL0     H26869   6.009   5.459   9.536 -2.1945 -1.8651  1.7250
  195MOL0     H26870   5.937   5.592   9.460  0.4823 -0.3099 -1.0987
  195MOL0     H26871   5.932   5.439   9.369 -1.8432 -1.6620  0.2149
  195MOL0     H26872   6.051   5.087   9.783  0.4452 -0.6764 -0.7766
  195MOL0     H26873   6.184   4.872   9.835  0.3492 -0.4265 -1.1856
  195MOL0     H26874   6.045   4.439   9.732  2.8461 -0.2738  4.4534
  195MOL0     H26875   6.070   4.527   9.582 -0.7605 -0.8162  0.9026
  195MOL0     H26876   6.272   4.383   9.753 -2.3753 -0.2702 -1.1741
  195MOL0     H26877   6.233   4.371   9.583 -2.1641 -0.3641 -0.0641
  195MOL0     H26878   6.349   4.628   9.689 -3.1159 -1.9089  4.1093
  195MOL0     H26879   6.351   4.560   9.526 -0.1355 -2.3635 -0.3203
  195MOL0     H26880   6.490   4.364   9.593 -1.6015  1.5912 -1.9760
  195MOL0     H26881   6.506   4.432   9.758  0.4338  1.2042  0.2473
  195MOL0     H26882   6.610   4.581   9.513  2.6275  1.2814  0.0807
  195MOL0     H26883   6.603   4.636   9.673 -0.3705  1.2283 -0.5393
  195MOL0     H26884   6.740   4.370   9.620 -0.4989 -0.1669  0.4502
  195MOL0     H26885   6.772   4.486   9.747  2.5527 -1.9296 -0.3628
  195MOL0     H26886   6.861   4.640   9.558 -0.9268 -0.2066  4.2611
  195MOL0     H26887   6.866   4.496   9.459 -1.2441  4.3610 -1.7476
  195MOL0     H26888   7.027   4.381   9.623 -0.5718  0.3730 -0.0609
  195MOL0     H26889   7.014   4.518   9.731  3.4476 -1.4543  0.5339
  195MOL0     H26890   5.885   4.626   9.678  1.5707 -0.6386  0.4842
  195MOL0     H26891   5.750   4.834   9.597 -0.4225 -0.0909  0.1734
  195MOL0     H26892   5.613   5.196   9.712  1.0506 -0.6346 -0.4160
  195MOL0     H26893   5.465   5.377   9.727  0.7280  3.5179  0.5488
  195MOL0     H26894   3.802   5.665   9.112  0.4702  0.6950  0.7716
  195MOL0     H26895   3.735   5.741   8.886  0.0674 -1.9165  2.3033
  195MOL0     H26896   3.735   5.828   8.515  0.6986  0.4552 -0.4226
  195MOL0     H26897   3.631   5.854   8.283 -1.6922  2.5651 -1.1341
  195MOL0     H26898   3.424   6.126   8.330 -1.4978 -0.0772  0.2570
  195MOL0     H26899   3.412   6.203   8.168  3.8072  0.9393 -0.6778
  195MOL0     H26900   3.250   6.006   8.216  1.4226 -1.7335  2.7026
  195MOL0     H26901   3.391   5.904   8.217 -0.2991 -0.5158  1.1288
  195MOL0     H26902   3.256   5.965   7.976  0.0363 -1.2695  0.0976
  195MOL0     H26903   3.394   6.076   7.979  0.6880 -1.6309 -1.6913
  195MOL0     H26904   3.545   5.873   8.038  0.3104 -2.6448  0.7227
  195MOL0     H26905   3.467   5.867   7.873 -1.0238  0.1932 -0.5750
  195MOL0     H26906   3.343   5.523   8.035 -1.1438  0.4873 -2.3467
  195MOL0     H26907   3.719   6.270   8.297  1.6502 -0.2135 -1.1297
  195MOL0     H26908   3.783   6.340   8.594  0.5262  0.9866 -0.4327
  195MOL0     H26909   3.943   6.268   8.575  2.3068  4.5895  0.0730
  195MOL0     H26910   3.887   6.351   8.443  1.9662 -3.3462 -1.6878
  196MOL0     O26911   2.304   4.792   8.677 -0.3794 -0.1024 -0.4105
  196MOL0     C26912   2.296   4.916   8.667  0.1875  0.4841 -0.1712
  196MOL0     O26913   2.397   5.002   8.671 -0.5673 -0.1217  0.3429
  196MOL0     C26914   2.522   4.963   8.689 -1.1547 -0.4748 -0.4631
  196MOL0     C26915   2.602   4.922   8.586  0.4905  0.0500 -0.2697
  196MOL0     C26916   2.730   4.878   8.605  0.6958  0.0046 -0.2429
  196MOL0     C26917   2.786   4.878   8.734 -0.4886 -0.4146  1.0855
  196MOL0     O26918   2.908   4.825   8.761 -0.1640  0.1096  0.1182
  196MOL0     C26919   3.009   4.898   8.813 -0.0095  0.0426 -0.2416
  196MOL0     C26920   3.092   4.963   8.704  0.2519 -1.1170 -0.9929
  196MOL0     C26921   3.230   4.992   8.745 -0.2230 -0.6104 -0.3623
  196MOL0     C26922   3.260   5.109   8.840  0.0031 -0.4373 -0.4644
  196MOL0     C26923   3.406   5.157   8.845 -0.3685  0.7073 -0.5859
  196MOL0     C26924   3.479   5.102   8.972 -0.5498  0.4272  0.5306
  196MOL0     C26925   3.435   5.154   9.109 -0.0859 -0.0032  0.9503
  196MOL0     C26926   3.480   5.296   9.141 -0.5011 -0.1345  0.3479
  196MOL0     N26927   3.627   5.301   9.174 -0.7493 -0.3239  0.6673
  196MOL0     C26928   3.688   5.252   9.295  0.4319  0.2862  0.4253
  196MOL0     C26929   3.822   5.276   9.270 -0.0503  0.8217 -0.0045
  196MOL0     C26930   3.933   5.272   9.375 -0.1138  0.5103  0.0893
  196MOL0     C26931   3.977   5.123   9.377 -0.2496 -0.1967  0.2123
  196MOL0     C26932   4.078   5.093   9.491 -0.4618  0.1281  0.1267
  196MOL0     C26933   4.200   5.183   9.485  1.1238  1.2179 -0.3928
  196MOL0     O26934   4.272   5.164   9.366  0.3624  0.1477  0.6328
  196MOL0     C26935   4.352   5.265   9.333 -0.4908 -0.2268  0.0650
  196MOL0     C26936   4.306   5.377   9.260  0.1130  0.6205 -0.1305
  196MOL0     C26937   4.395   5.474   9.213  0.4118 -0.0387 -0.4289
  196MOL0     C26938   4.348   5.584   9.126  0.5339 -0.2967 -0.4035
  196MOL0     C26939   4.534   5.465   9.243 -0.1632  0.4680  0.0020
  196MOL0     C26940   4.641   5.557   9.195  0.3334 -0.0080 -0.4638
  196MOL0     O26941   4.773   5.501   9.200 -0.3591 -0.2410  0.2080
  196MOL0     C26942   4.890   5.566   9.181  0.0870 -0.0879  0.1998
  196MOL0     C26943   5.009   5.483   9.175  0.6250 -0.2973 -0.0721
  196MOL0     C26944   5.129   5.536   9.148  1.0549  0.0830  0.2766
  196MOL0     C26945   5.143   5.675   9.146 -0.6435 -0.5814  0.1422
  196MOL0     O26946   5.270   5.734   9.124 -0.5015 -0.4491 -0.1480
  196MOL0     C26947   5.293   5.762   8.979 -0.0059 -0.0530  0.0413
  196MOL0     C26948   5.284   5.648   8.881  0.0259  0.7954 -0.1660
  196MOL0     C26949   5.391   5.541   8.901 -0.0762  0.0564 -0.0282
  196MOL0     C26950   5.521   5.569   8.819  0.1842 -0.1712  0.2132
  196MOL0     C26951   5.615   5.443   8.822 -0.2161  0.1869  0.4842
  196MOL0     C26952   5.745   5.475   8.747  0.6590  0.1050 -0.2030
  196MOL0     C26953   5.837   5.353   8.761 -0.4892 -0.3329  0.1318
  196MOL0     C26954   5.974   5.385   8.693  0.7574  0.7906 -1.3381
  196MOL0    Cl26955   5.969   5.375   8.516  0.1872 -0.0908  0.1223
  196MOL0     C26956   5.035   5.759   9.154 -0.0849  0.8127 -0.1880
  196MOL0     C26957   4.906   5.704   9.164  0.2004  1.0186 -0.7610
  196MOL0     O26958   4.608   5.666   9.150 -0.7307 -0.4119  0.2045
  196MOL0     C26959   4.576   5.349   9.309 -0.7391 -0.1464 -0.0943
  196MOL0     C26960   4.489   5.255   9.355 -0.7266  0.7342 -0.3976
  196MOL0     N26961   3.836   5.335   9.143 -0.6729  0.5065  0.1864
  196MOL0     N26962   3.722   5.358   9.088  0.1762 -0.0641  0.1401
  196MOL0     C26963   2.712   4.924   8.837 -0.2779 -0.4369  0.4631
  196MOL0     C26964   2.582   4.972   8.817  0.4083 -0.4462  0.1081
  196MOL0     C26965   2.159   4.985   8.655 -0.6287  0.0630  0.3763
  196MOL0     C26966   2.156   5.122   8.673 -0.8814  0.0636 -0.5843
  196MOL0     C26967   2.041   5.191   8.677  0.6895  0.0686  0.6941
  196MOL0     C26968   1.915   5.135   8.661 -0.4294 -1.0349 -1.0547
  196MOL0     O26969   1.802   5.220   8.671  0.2859  0.2434  0.4057
  196MOL0     C26970   1.685   5.169   8.607 -0.4712 -0.0057 -0.4198
  196MOL0     C26971   1.567   5.269   8.631 -0.5666  0.1573 -0.1292
  196MOL0     C26972   1.436   5.229   8.555  0.3781 -0.0130  0.3662
  196MOL0     C26973   1.340   5.332   8.587  0.2744 -1.1136 -0.8047
  196MOL0     C26974   1.214   5.314   8.511  0.2319  0.7922  0.0890
  196MOL0     C26975   1.112   5.279   8.448  0.3494  0.2111  0.9706
  196MOL0     C26976   1.910   4.996   8.637 -1.1124  0.1053 -0.4269
  196MOL0     C26977   2.032   4.925   8.629 -0.2676  0.6238  0.9188
  196MOL0     C26978   2.010   4.780   8.587 -0.4566 -0.1698  0.0991
  196MOL0     H26979   2.551   4.914   8.490 -2.4805 -2.4566  1.3508
  196MOL0     H26980   2.796   4.830   8.533  0.2456 -0.7788 -0.1474
  196MOL0     H26981   3.071   4.837   8.879 -0.3751  0.8120  0.8319
  196MOL0     H26982   2.974   4.979   8.877 -1.5477 -0.4302 -0.4594
  196MOL0     H26983   3.113   4.897   8.620  1.8199 -2.2013  0.1904
  196MOL0     H26984   3.042   5.056   8.676  3.8240  0.9215 -1.2243
  196MOL0     H26985   3.280   4.901   8.780 -1.5335 -1.8352 -1.5290
  196MOL0     H26986   3.283   5.011   8.651 -0.0734  0.8463 -0.0014
  196MOL0     H26987   3.199   5.194   8.808  1.3168  1.4492  1.7649
  196MOL0     H26988   3.220   5.066   8.933  0.4225 -1.0315 -0.5527
  196MOL0     H26989   3.414   5.266   8.844 -2.0605  0.8861 -3.5169
  196MOL0     H26990   3.462   5.118   8.759  3.5102  1.2461  1.4535
  196MOL0     H26991   3.472   4.993   8.981  2.8745  0.0777  0.3433
  196MOL0     H26992   3.587   5.120   8.971 -0.4905  0.0990  0.6177
  196MOL0     H26993   3.473   5.077   9.176 -1.2919  0.9034  2.7585
  196MOL0     H26994   3.326   5.147   9.116 -0.4278  2.7092 -0.3813
  196MOL0     H26995   3.462   5.357   9.053 -1.1510 -1.2785 -0.3293
  196MOL0     H26996   3.413   5.341   9.215 -4.4217 -1.5593 -2.0628
  196MOL0     H26997   3.642   5.213   9.384 -0.1166 -0.0113  0.0156
  196MOL0     H26998   3.902   5.315   9.471  3.6057 -0.9738  2.1697
  196MOL0     H26999   4.015   5.338   9.344 -0.5120  0.3310 -1.4117
  196MOL0     H27000   3.894   5.054   9.395 -0.0441  0.0882  2.4559
  196MOL0     H27001   4.032   5.098   9.286  2.1079  0.1100  1.4890
  196MOL0     H27002   4.024   5.122   9.581  1.0540  2.8305  0.2836
  196MOL0     H27003   4.111   4.989   9.491  0.2218  0.3351  0.5059
  196MOL0     H27004   4.165   5.287   9.486 -3.7001 -0.0853 -2.2529
  196MOL0     H27005   4.262   5.158   9.571  0.6870 -0.4323 -0.5174
  196MOL0     H27006   4.202   5.368   9.231  0.1074  0.1628  0.0114
  196MOL0     H27007   4.338   5.675   9.185  0.2583  0.5696 -1.7458
  196MOL0     H27008   4.244   5.555   9.105  0.0526  2.1484 -1.7735
  196MOL0     H27009   4.406   5.606   9.037  0.7528  1.8838  0.2247
  196MOL0     H27010   5.013   5.380   9.208 -0.4966  0.0389  1.2255
  196MOL0     H27011   5.219   5.476   9.140  1.1246  0.0756  1.0810
  196MOL0     H27012   5.222   5.837   8.943  0.3434  0.6976  0.8731
  196MOL0     H27013   5.393   5.804   8.986  0.8629 -2.2372  4.2212
  196MOL0     H27014   5.191   5.591   8.888  0.7095 -0.6905 -2.2386
  196MOL0     H27015   5.285   5.685   8.778 -0.8251  0.0476 -0.4541
  196MOL0     H27016   5.347   5.451   8.856  1.7757 -0.2823 -1.2715
  196MOL0     H27017   5.413   5.505   9.002  1.6690 -1.1678 -0.8003
  196MOL0     H27018   5.579   5.644   8.874  1.5725 -0.1192 -1.2551
  196MOL0     H27019   5.490   5.610   8.722 -2.6534  1.6127  1.7371
  196MOL0     H27020   5.643   5.416   8.924  2.0742  0.5358  0.0037
  196MOL0     H27021   5.578   5.354   8.770  1.3930  0.3434 -1.0135
  196MOL0     H27022   5.791   5.564   8.790  3.1764 -0.2594 -1.8991
  196MOL0     H27023   5.709   5.484   8.644 -2.8107 -1.5575  0.6947
  196MOL0     H27024   5.795   5.262   8.719 -2.3727  0.6525 -0.2293
  196MOL0     H27025   5.862   5.332   8.865  1.4272  0.4343 -0.1188
  196MOL0     H27026   6.045   5.306   8.720  0.9308  0.9110 -1.4357
  196MOL0     H27027   6.016   5.478   8.735  3.7215  0.0984 -2.4831
  196MOL0     H27028   5.059   5.865   9.160 -0.3966  0.8905 -0.3186
  196MOL0     H27029   4.823   5.772   9.148 -0.8566  0.1501  0.7943
  196MOL0     H27030   4.680   5.331   9.334 -1.1524 -1.0498  1.0624
  196MOL0     H27031   4.524   5.165   9.406 -2.1351 -1.5356 -3.1175
  196MOL0     H27032   2.749   4.909   8.938  3.6097  1.5716 -0.4582
  196MOL0     H27033   2.516   5.019   8.890 -1.3966  0.0989 -1.7614
  196MOL0     H27034   2.244   5.181   8.695 -1.1779 -0.0884  1.1312
  196MOL0     H27035   2.031   5.298   8.686  0.5199  0.4556 -2.6799
  196MOL0     H27036   1.698   5.157   8.499  0.1237 -1.0369 -0.2476
  196MOL0     H27037   1.659   5.076   8.658  3.0387 -0.0899  1.5329
  196MOL0     H27038   1.607   5.366   8.599  1.1367 -0.0893  1.0770
  196MOL0     H27039   1.544   5.278   8.738 -4.9286  1.1232 -0.9815
  196MOL0     H27040   1.447   5.223   8.446  0.0941 -0.1929  0.3427
  196MOL0     H27041   1.405   5.128   8.583  3.1670 -1.1196 -0.1879
  196MOL0     H27042   1.389   5.427   8.563  0.5344 -0.5068  1.8241
  196MOL0     H27043   1.313   5.338   8.693 -0.7452 -2.4090 -0.9578
  196MOL0     H27044   1.027   5.256   8.386  0.8391 -0.9267  0.6840
  196MOL0     H27045   1.815   4.945   8.631 -0.0657 -1.9885  0.1025
  196MOL0     H27046   1.908   4.745   8.609 -0.7409  1.4677  1.7509
  196MOL0     H27047   2.025   4.765   8.480  1.0037 -2.6474  0.5820
  196MOL0     H27048   2.085   4.716   8.634 -0.6216  1.1271  2.2873
  197MOL0     O27049   9.714   4.541   0.858 -0.2478 -0.6788 -0.2854
  197MOL0     C27050   9.735   4.500   0.744 -0.4901 -0.1724 -0.4444
  197MOL0     O27051   9.857   4.483   0.694  0.3074  0.0255 -0.4508
  197MOL0     C27052   9.969   4.517   0.769  0.1276  0.0138 -0.2230
  197MOL0     C27053  10.023   4.434   0.868  0.9131 -1.5044  0.2085
  197MOL0     C27054  10.142   4.461   0.919  0.2810  0.1165  0.2066
  197MOL0     C27055  10.216   4.571   0.887  0.5479 -1.4556 -0.1328
  197MOL0     O27056  10.338   4.615   0.942  0.6926 -0.4922 -0.2435
  197MOL0     C27057  10.441   4.519   0.974  0.0054  0.0528  0.1659
  197MOL0     C27058  10.527   4.463   0.865  0.1993  0.0866  0.0588
  197MOL0     C27059  10.459   4.347   0.785 -0.3537 -0.5583  0.4752
  197MOL0     C27060  10.553   4.230   0.747 -0.4948 -0.0195  1.0294
  197MOL0     C27061  10.634   4.255   0.607 -0.2303  0.5132 -0.4550
  197MOL0     C27062  10.766   4.178   0.615 -1.2996 -0.7547  0.0194
  197MOL0     C27063  10.852   4.205   0.491  0.2963  0.4175  0.1823
  197MOL0     C27064  10.911   4.342   0.497  0.3941  0.4936  1.1769
  197MOL0     N27065  11.060   4.331   0.495 -0.2343 -0.1526 -0.9397
  197MOL0     C27066  11.148   4.290   0.393 -0.5182 -0.3471 -0.1848
  197MOL0     C27067  11.273   4.286   0.441 -0.0459 -0.2750  0.9507
  197MOL0     C27068  11.392   4.233   0.375  0.3166  0.8726  0.2218
  197MOL0     C27069  11.452   4.345   0.294  0.8198 -0.7679  0.5846
  197MOL0     C27070  11.520   4.296   0.159  0.1242  0.3522 -0.1123
  197MOL0     C27071  11.649   4.234   0.214 -0.4356  0.3198  0.0656
  197MOL0     O27072  11.717   4.183   0.101  0.3981  0.1993 -0.4217
  197MOL0     C27073  11.812   4.082   0.112  0.3486  0.5409 -0.2547
  197MOL0     C27074  11.884   4.065  -0.014 -0.0132 -1.0592 -0.4369
  197MOL0     C27075  11.989   3.977  -0.030  0.3261 -0.1472  0.1550
  197MOL0     C27076  12.051   3.977  -0.166  1.0756  0.0254  0.2561
  197MOL0     C27077  12.030   3.902   0.077  0.0886  1.0819  0.1057
  197MOL0     C27078  12.160   3.815   0.075  0.1034 -0.0240 -0.2709
  197MOL0     O27079  12.173   3.724   0.182 -0.1492  0.3259  0.6073
  197MOL0     C27080  12.276   3.633   0.174 -0.9505 -0.7015  0.3287
  197MOL0     C27081  12.405   3.677   0.203 -0.4241  0.0556  0.1972
  197MOL0     C27082  12.513   3.590   0.217  0.0874  0.1755  1.1203
  197MOL0     C27083  12.495   3.457   0.189  1.0284  0.0713  0.7388
  197MOL0     O27084  12.611   3.388   0.195 -0.3351  0.1516 -0.3488
  197MOL0     C27085  12.618   3.251   0.234 -0.1623 -0.2618  0.5570
  197MOL0     C27086  12.753   3.186   0.185 -0.1870  0.6251 -0.2057
  197MOL0     C27087  12.776   3.227   0.036 -0.0889  0.7735 -0.1447
  197MOL0     C27088  12.654   3.174  -0.054 -1.1383  0.1674  0.4339
  197MOL0     C27089  12.677   3.201  -0.209 -0.2024  0.1179 -0.3988
  197MOL0     C27090  12.658   3.074  -0.294 -0.4122  0.2140  0.9334
  197MOL0     C27091  12.674   3.073  -0.449 -0.0369  0.0476 -0.0775
  197MOL0     C27092  12.819   3.096  -0.497  0.2983  0.1999  0.5035
  197MOL0    Cl27093  12.929   2.986  -0.411 -0.3382  0.0291  0.3890
  197MOL0     C27094  12.365   3.402   0.164 -0.2333 -1.1107  0.0360
  197MOL0     C27095  12.258   3.492   0.161  0.5075  0.1023  0.0731
  197MOL0     O27096  12.241   3.819  -0.018  0.7515 -0.8383  0.3253
  197MOL0     C27097  11.950   3.917   0.194 -0.6883  0.3828  1.1523
  197MOL0     C27098  11.840   3.999   0.215 -0.1222  0.6586 -0.2613
  197MOL0     N27099  11.264   4.342   0.568 -0.1265  0.8596 -0.1602
  197MOL0     N27100  11.137   4.368   0.599 -0.4212  0.6083  0.7847
  197MOL0     C27101  10.156   4.656   0.788 -0.5306  0.5683 -1.0266
  197MOL0     C27102  10.043   4.624   0.724 -0.4400 -0.5558 -0.1732
  197MOL0     C27103   9.627   4.467   0.652  1.3127  0.2417  0.1904
  197MOL0     C27104   9.538   4.366   0.692 -0.8920  0.3078  0.2734
  197MOL0     C27105   9.450   4.304   0.601 -0.7145  0.1428 -0.3881
  197MOL0     C27106   9.447   4.343   0.468 -0.6796  0.3884  1.2301
  197MOL0     O27107   9.376   4.287   0.366 -0.2742  0.6132  0.1794
  197MOL0     C27108   9.260   4.199   0.378  0.1409 -0.8625 -1.2790
  197MOL0     C27109   9.184   4.195   0.251 -0.2270 -0.4611 -0.4843
  197MOL0     C27110   9.141   4.342   0.219 -0.5121  0.6191  0.3651
  197MOL0     C27111   9.051   4.338   0.088  0.2908 -0.1793  0.6174
  197MOL0     C27112   8.929   4.259   0.096  0.7451  0.0597 -0.2348
  197MOL0     C27113   8.839   4.184   0.138  0.5013 -0.2828  0.4360
  197MOL0     C27114   9.530   4.451   0.430  0.5510 -0.3398  0.0786
  197MOL0     C27115   9.615   4.513   0.522  0.1467 -0.0681 -0.9895
  197MOL0     C27116   9.692   4.632   0.466 -0.3940  0.3297 -0.3113
  197MOL0     H27117   9.963   4.345   0.886 -0.8553 -0.1901  1.1668
  197MOL0     H27118  10.184   4.383   0.982  0.6651  0.5960  0.5522
  197MOL0     H27119  10.406   4.427   1.022  4.0167 -0.4924  2.4266
  197MOL0     H27120  10.506   4.576   1.041  1.0492  0.3134 -1.0276
  197MOL0     H27121  10.567   4.540   0.799 -0.0462 -0.9228 -1.3266
  197MOL0     H27122  10.614   4.415   0.912  2.1142  1.4376 -1.9192
  197MOL0     H27123  10.385   4.295   0.847  1.9732 -2.7893  1.5478
  197MOL0     H27124  10.403   4.397   0.704 -0.8999 -0.9569  0.5976
  197MOL0     H27125  10.627   4.207   0.824  1.4383 -0.4644 -0.8640
  197MOL0     H27126  10.491   4.142   0.729  0.7629 -0.3732 -2.3310
  197MOL0     H27127  10.650   4.363   0.602  1.5270  0.3087  0.1752
  197MOL0     H27128  10.577   4.232   0.516 -1.7753 -1.2584  0.8981
  197MOL0     H27129  10.820   4.197   0.708 -2.0087  1.7396 -0.0055
  197MOL0     H27130  10.745   4.072   0.629  0.7379 -0.9419  2.2112
  197MOL0     H27131  10.783   4.209   0.406  1.1460  1.5512 -0.4981
  197MOL0     H27132  10.918   4.118   0.494 -0.4671 -0.1358  2.4478
  197MOL0     H27133  10.882   4.399   0.408  0.5343 -2.5858 -1.0125
  197MOL0     H27134  10.880   4.399   0.585  3.1254  3.6919  0.2592
  197MOL0     H27135  11.122   4.266   0.291  0.0225  1.5798 -0.8099
  197MOL0     H27136  11.357   4.150   0.313  1.2960  0.6823 -0.1081
  197MOL0     H27137  11.461   4.186   0.446 -0.8052  0.7916  1.2690
  197MOL0     H27138  11.379   4.412   0.249  3.6710  2.7030  0.6753
  197MOL0     H27139  11.519   4.402   0.359  0.3637  0.0978  0.3121
  197MOL0     H27140  11.463   4.226   0.097  0.8704 -1.7757  1.4841
  197MOL0     H27141  11.552   4.374   0.088 -3.6401 -0.1193 -2.6314
  197MOL0     H27142  11.710   4.308   0.266 -1.6727  1.5304 -0.1619
  197MOL0     H27143  11.627   4.148   0.278  2.0717 -1.7760 -1.6439
  197MOL0     H27144  11.868   4.126  -0.103 -0.1546 -2.9841 -1.7783
  197MOL0     H27145  12.063   3.877  -0.208  0.7462 -0.4606  1.2911
  197MOL0     H27146  12.141   4.039  -0.160  2.9198 -2.2767 -1.5672
  197MOL0     H27147  11.980   4.010  -0.241 -1.4057 -1.0904  1.9702
  197MOL0     H27148  12.430   3.782   0.213  1.0418 -0.2035 -0.5712
  197MOL0     H27149  12.609   3.630   0.249 -0.0655  1.4947  0.0288
  197MOL0     H27150  12.618   3.243   0.343 -2.3284 -0.7219  0.5714
  197MOL0     H27151  12.540   3.195   0.181  2.5790  0.2541 -4.6575
  197MOL0     H27152  12.842   3.204   0.247 -1.1436  2.9832  0.5795
  197MOL0     H27153  12.741   3.077   0.190  0.9637  0.4680 -0.4310
  197MOL0     H27154  12.867   3.186  -0.007 -1.6384 -0.7228 -2.1777
  197MOL0     H27155  12.783   3.336   0.028  0.2268  1.0802  3.0243
  197MOL0     H27156  12.554   3.210  -0.026 -1.6047  0.2257 -1.1751
  197MOL0     H27157  12.638   3.066  -0.047 -0.0698 -0.2556 -2.3416
  197MOL0     H27158  12.623   3.285  -0.254  0.7246  0.9251 -0.0233
  197MOL0     H27159  12.778   3.241  -0.218  0.3022 -0.2812  2.6167
  197MOL0     H27160  12.559   3.033  -0.273  0.5911 -2.6794  0.3564
  197MOL0     H27161  12.726   2.998  -0.255  2.1090  0.0324 -3.2384
  197MOL0     H27162  12.618   3.151  -0.501 -1.9541  1.8275  4.1948
  197MOL0     H27163  12.635   2.983  -0.498 -0.9248  0.3281  0.0857
  197MOL0     H27164  12.855   3.198  -0.481 -0.8166  1.1900 -2.4580
  197MOL0     H27165  12.826   3.081  -0.605  4.1519  1.6718  0.4134
  197MOL0     H27166  12.345   3.297   0.148 -0.5177 -1.1314  0.5090
  197MOL0     H27167  12.156   3.457   0.144  0.6318  0.2797 -1.1198
  197MOL0     H27168  11.964   3.844   0.273 -2.1634  0.1113  1.2011
  197MOL0     H27169  11.792   4.013   0.312 -0.0819  1.1300 -0.3105
  197MOL0     H27170  10.220   4.737   0.753 -1.7025  2.8187  1.7079
  197MOL0     H27171  10.011   4.699   0.652 -0.4493  1.7906  2.1564
  197MOL0     H27172   9.532   4.336   0.796 -0.6201  0.9157  0.4706
  197MOL0     H27173   9.381   4.228   0.637 -0.9629 -0.8549 -2.7977
  197MOL0     H27174   9.292   4.097   0.400 -0.8977 -0.9253  0.1463
  197MOL0     H27175   9.197   4.239   0.459  0.3942 -0.5870 -1.2185
  197MOL0     H27176   9.099   4.126   0.255 -1.1000  0.6163  0.5849
  197MOL0     H27177   9.255   4.154   0.180  3.3787 -0.5503  2.8210
  197MOL0     H27178   9.094   4.397   0.301 -1.8489  0.8849 -0.5408
  197MOL0     H27179   9.225   4.400   0.181  1.0022 -1.4664  0.3886
  197MOL0     H27180   9.111   4.296   0.006 -0.9062 -1.9348  0.5844
  197MOL0     H27181   9.035   4.445   0.070  1.7066 -0.0087  0.2546
  197MOL0     H27182   8.777   4.113   0.189 -0.6499 -1.9679 -3.0152
  197MOL0     H27183   9.530   4.484   0.327  2.2472 -1.4378 -0.3021
  197MOL0     H27184   9.664   4.656   0.363  1.2821  3.0719 -0.2268
  197MOL0     H27185   9.666   4.724   0.518  0.5087  0.0775  0.6082
  197MOL0     H27186   9.800   4.611   0.470 -0.5719 -0.6541 -0.4865
  198MOL0     O27187   6.434   9.725   4.950  0.2413 -0.4650  0.0248
  198MOL0     C27188   6.481   9.627   5.007 -0.0960 -0.2374 -0.2849
  198MOL0     O27189   6.410   9.536   5.081  0.4488  0.3657 -0.5448
  198MOL0     C27190   6.273   9.540   5.100  0.2305 -0.7851 -0.6822
  198MOL0     C27191   6.216   9.631   5.196  0.5120 -0.8663 -0.2321
  198MOL0     C27192   6.075   9.632   5.222  0.1020 -0.9627  1.1715
  198MOL0     C27193   6.000   9.543   5.145 -0.0226  0.4208  0.0091
  198MOL0     O27194   5.867   9.510   5.170  0.4641  0.3704 -0.4020
  198MOL0     C27195   5.805   9.565   5.287  0.3851 -0.5010 -1.2513
  198MOL0     C27196   5.700   9.461   5.334 -0.2171 -0.5943 -0.1861
  198MOL0     C27197   5.618   9.527   5.452  0.0180 -0.3183 -0.4209
  198MOL0     C27198   5.494   9.593   5.408 -0.2905 -0.4004  0.4565
  198MOL0     C27199   5.403   9.639   5.512  0.6434  0.5560  0.7559
  198MOL0     C27200   5.270   9.664   5.451  0.2856  0.7084  0.5702
  198MOL0     C27201   5.168   9.690   5.562 -0.1634  0.4362  0.0777
  198MOL0     C27202   5.053   9.769   5.509 -0.1830 -0.7190 -0.0457
  198MOL0     N27203   5.083   9.910   5.505 -0.9142 -0.3517 -0.0478
  198MOL0     C27204   5.116   9.983   5.619 -0.2444 -0.6401  0.1974
  198MOL0     C27205   5.161  10.101   5.576 -0.7724 -0.1379  0.5238
  198MOL0     C27206   5.237  10.205   5.654 -0.5224 -0.2070 -1.2156
  198MOL0     C27207   5.394  10.183   5.620  0.3811 -0.5753 -0.1334
  198MOL0     C27208   5.448  10.038   5.659 -0.4130 -0.1455 -0.0633
  198MOL0     C27209   5.595  10.019   5.650 -1.0980 -0.0779  0.2244
  198MOL0     O27210   5.626  10.011   5.506 -0.7031 -0.8856 -0.4986
  198MOL0     C27211   5.741  10.082   5.470 -0.0709  0.6655 -0.3424
  198MOL0     C27212   5.733  10.205   5.416 -0.2536  0.2307  0.9964
  198MOL0     C27213   5.846  10.271   5.371  0.1437 -0.0478 -0.6603
  198MOL0     C27214   5.829  10.404   5.290 -0.3865 -0.3148  0.3762
  198MOL0     C27215   5.974  10.206   5.381 -0.5004 -0.4077  0.3311
  198MOL0     C27216   6.097  10.283   5.352 -0.4764 -0.2439 -0.8798
  198MOL0     O27217   6.207  10.213   5.314  0.4240 -0.6381 -0.3015
  198MOL0     C27218   6.319  10.281   5.294 -0.1285  0.7592 -0.1539
  198MOL0     C27219   6.401  10.299   5.402  0.6449  0.2053  1.1990
  198MOL0     C27220   6.511  10.382   5.390 -0.4332 -0.8331 -0.0520
  198MOL0     C27221   6.548  10.441   5.264 -0.9360  0.1852 -0.4781
  198MOL0     O27222   6.664  10.517   5.257  0.5401  0.0181 -0.1373
  198MOL0     C27223   6.645  10.637   5.178 -0.3579 -0.2104 -0.2981
  198MOL0     C27224   6.554  10.740   5.238  0.4086  0.3719 -0.2471
  198MOL0     C27225   6.590  10.892   5.220  0.4676  0.0962  0.7029
  198MOL0     C27226   6.635  10.923   5.078 -0.6944 -0.3066  0.0882
  198MOL0     C27227   6.634  11.076   5.060 -0.2428 -0.3692  0.1538
  198MOL0     C27228   6.611  11.124   4.912  0.2842 -0.5020  0.3985
  198MOL0     C27229   6.709  11.053   4.820 -0.0840 -0.0671  0.0242
  198MOL0     C27230   6.683  11.104   4.671  0.2226  0.6550  0.3220
  198MOL0    Cl27231   6.698  11.289   4.662 -0.2138  0.2301 -0.3554
  198MOL0     C27232   6.467  10.407   5.152 -0.0890  1.1006  0.4499
  198MOL0     C27233   6.352  10.327   5.172  0.3778  0.4813  0.2257
  198MOL0     O27234   6.093  10.406   5.373 -0.2801  0.3452 -0.2298
  198MOL0     C27235   5.977  10.077   5.434 -0.3988 -0.1306 -0.2228
  198MOL0     C27236   5.861  10.020   5.480  1.0018  0.2993  0.2515
  198MOL0     N27237   5.145  10.116   5.444  0.8830  0.3483 -1.1320
  198MOL0     N27238   5.097  10.002   5.402  0.4951  0.0226 -0.6118
  198MOL0     C27239   6.053   9.464   5.041 -0.1622 -1.0239  0.7628
  198MOL0     C27240   6.181   9.468   5.016  0.1806  0.2249  0.3097
  198MOL0     C27241   6.627   9.603   5.013  0.2512 -0.6667 -0.0763
  198MOL0     C27242   6.673   9.501   5.101  0.5384 -0.5482  0.3944
  198MOL0     C27243   6.806   9.472   5.117  0.1635  0.0587 -0.9771
  198MOL0     C27244   6.902   9.547   5.052  0.5117 -0.4296  0.8002
  198MOL0     O27245   7.035   9.516   5.059  0.2362  0.1116 -0.2094
  198MOL0     C27246   7.146   9.590   5.005 -0.7532 -0.1350  0.3438
  198MOL0     C27247   7.270   9.577   5.099 -0.0000 -0.6842  0.8322
  198MOL0     C27248   7.401   9.645   5.060 -0.1181 -0.0663  0.4068
  198MOL0     C27249   7.500   9.624   5.170 -0.3350 -0.5980  1.0751
  198MOL0     C27250   7.625   9.680   5.123 -0.4596  0.4890 -0.0347
  198MOL0     C27251   7.735   9.719   5.100  0.3522  0.3379 -0.5709
  198MOL0     C27252   6.863   9.653   4.968  0.1551  0.4216 -0.6600
  198MOL0     C27253   6.726   9.689   4.951  0.1578 -0.4121 -0.7081
  198MOL0     C27254   6.704   9.816   4.873 -0.5550 -0.9100  0.4091
  198MOL0     H27255   6.286   9.693   5.251 -1.0229  0.5481  0.1987
  198MOL0     H27256   6.026   9.703   5.287 -2.4435 -1.7918  0.2784
  198MOL0     H27257   5.750   9.658   5.273 -2.2692 -2.1352 -2.3829
  198MOL0     H27258   5.879   9.580   5.366  1.1832  0.5634 -2.1606
  198MOL0     H27259   5.633   9.428   5.254 -0.6191  1.3436 -0.6955
  198MOL0     H27260   5.750   9.367   5.360  0.6703 -0.7281 -2.1948
  198MOL0     H27261   5.597   9.449   5.526 -1.6732  1.2348  0.8238
  198MOL0     H27262   5.693   9.586   5.505 -0.3890  0.3266 -0.5595
  198MOL0     H27263   5.521   9.683   5.352  0.7777 -0.5654  0.6742
  198MOL0     H27264   5.445   9.517   5.346 -2.0545 -0.0325  1.3466
  198MOL0     H27265   5.449   9.729   5.554  0.4918  1.1077 -0.2229
  198MOL0     H27266   5.386   9.562   5.588 -2.5107  0.1295 -0.2456
  198MOL0     H27267   5.285   9.743   5.377 -1.8315  1.8797  1.3106
  198MOL0     H27268   5.237   9.571   5.405  2.1753  1.9574 -3.8559
  198MOL0     H27269   5.227   9.738   5.640  1.5838  0.1152 -1.0011
  198MOL0     H27270   5.140   9.598   5.612  1.4752  0.1009  0.4314
  198MOL0     H27271   5.020   9.742   5.408 -1.7106  2.4140 -0.5109
  198MOL0     H27272   4.978   9.765   5.589  0.6769 -3.1972  0.7086
  198MOL0     H27273   5.133   9.960   5.723  3.0292 -0.0462 -0.1004
  198MOL0     H27274   5.218  10.191   5.761  0.2170 -1.0446 -1.1813
  198MOL0     H27275   5.201  10.306   5.630 -2.2494 -0.5727 -0.4069
  198MOL0     H27276   5.409  10.202   5.513  0.2359 -0.0933 -0.0711
  198MOL0     H27277   5.438  10.269   5.670 -1.3419  0.8159 -0.8957
  198MOL0     H27278   5.422  10.023   5.764 -0.4849 -1.2905 -0.2318
  198MOL0     H27279   5.389   9.971   5.596 -0.9271 -0.7464  1.0263
  198MOL0     H27280   5.640  10.103   5.703 -2.4432  0.5654  0.3716
  198MOL0     H27281   5.625   9.927   5.701 -0.2733 -0.1871 -0.4326
  198MOL0     H27282   5.632  10.243   5.401 -0.2445 -0.8626 -3.3973
  198MOL0     H27283   5.821  10.495   5.351  1.1729  0.8806 -1.1096
  198MOL0     H27284   5.734  10.399   5.237 -0.6551  0.4832  0.7701
  198MOL0     H27285   5.904  10.422   5.212 -3.0112 -0.6931 -2.4452
  198MOL0     H27286   6.380  10.253   5.498  0.2753  0.3921  1.2089
  198MOL0     H27287   6.580  10.400   5.472  0.1500  1.6170 -0.9930
  198MOL0     H27288   6.745  10.680   5.167 -0.9396  0.7925 -1.7989
  198MOL0     H27289   6.624  10.617   5.073  0.4710  2.2806 -1.0033
  198MOL0     H27290   6.456  10.717   5.195  0.5280  0.0119 -0.3325
  198MOL0     H27291   6.543  10.721   5.345  1.7840 -3.5192 -0.6326
  198MOL0     H27292   6.668  10.911   5.294  0.2174  0.0292  0.9836
  198MOL0     H27293   6.512  10.958   5.256  0.5075  0.4010  0.2339
  198MOL0     H27294   6.570  10.876   5.003 -0.6112 -1.2091  0.5702
  198MOL0     H27295   6.733  10.877   5.061 -0.6766  0.0286 -0.7916
  198MOL0     H27296   6.551  11.114   5.120  0.3398 -0.1491  0.8366
  198MOL0     H27297   6.724  11.122   5.101  0.8845 -0.2881 -2.2711
  198MOL0     H27298   6.634  11.230   4.903  2.9210 -1.1117 -1.1118
  198MOL0     H27299   6.506  11.111   4.882  0.9939 -0.2069 -2.5857
  198MOL0     H27300   6.695  10.944   4.827  0.7164 -0.0669  2.8374
  198MOL0     H27301   6.810  11.080   4.850  0.2113  0.5288 -1.4247
  198MOL0     H27302   6.586  11.065   4.638 -0.6258  1.6846  1.5298
  198MOL0     H27303   6.753  11.051   4.606  1.8578  0.8943  1.8379
  198MOL0     H27304   6.501  10.428   5.051  1.0802 -1.2093  0.2700
  198MOL0     H27305   6.291  10.299   5.086 -1.6398  2.1668  1.0077
  198MOL0     H27306   6.076  10.033   5.439  0.2859  0.8776 -3.0488
  198MOL0     H27307   5.851   9.915   5.507 -1.3120 -0.7053 -3.7332
  198MOL0     H27308   5.991   9.396   4.983  0.0271  0.4720 -1.3364
  198MOL0     H27309   6.223   9.421   4.927  0.2448 -0.6438  0.7808
  198MOL0     H27310   6.596   9.435   5.141 -0.3654 -1.5325 -2.7273
  198MOL0     H27311   6.846   9.392   5.178 -1.1546  1.6221  2.1843
  198MOL0     H27312   7.166   9.563   4.901  0.4676 -1.8810  0.9750
  198MOL0     H27313   7.131   9.698   5.004 -0.0149 -0.0002  1.4739
  198MOL0     H27314   7.285   9.471   5.124 -0.5906 -1.1887 -0.7601
  198MOL0     H27315   7.232   9.622   5.191 -3.5774 -1.3038 -0.1825
  198MOL0     H27316   7.434   9.620   4.958 -0.7521  4.7649 -1.2510
  198MOL0     H27317   7.377   9.748   5.034 -3.3172 -1.1183 -1.3699
  198MOL0     H27318   7.510   9.519   5.201  4.2608 -0.0237  2.2989
  198MOL0     H27319   7.468   9.686   5.254 -3.5379  0.0222 -0.4686
  198MOL0     H27320   7.835   9.752   5.082  0.0968  1.9309  0.7139
  198MOL0     H27321   6.941   9.696   4.907 -0.8109 -0.4414 -2.5787
  198MOL0     H27322   6.629   9.783   4.801 -2.0776 -1.3977  2.1347
  198MOL0     H27323   6.659   9.889   4.941  1.2654 -0.8162  1.6006
  198MOL0     H27324   6.796   9.854   4.829 -0.4941 -2.0186 -0.4566
  199MOL0     O27325   7.686   8.848  11.335 -0.3117 -0.8614 -0.0124
  199MOL0     C27326   7.618   8.949  11.366  0.0776 -0.7078 -0.1029
  199MOL0     O27327   7.564   9.041  11.278 -0.1437  0.5371  0.2954
  199MOL0     C27328   7.561   9.021  11.138 -0.1323  0.8972 -0.4221
  199MOL0     C27329   7.562   8.901  11.065  0.5718  0.0408  0.3745
  199MOL0     C27330   7.528   8.899  10.927 -0.5950  0.2536 -0.3598
  199MOL0     C27331   7.505   9.014  10.853 -0.3132 -0.0095  0.7606
  199MOL0     O27332   7.498   9.010  10.714 -0.1440 -0.0481  0.0136
  199MOL0     C27333   7.409   8.919  10.654  0.2480 -0.4310  0.1697
  199MOL0     C27334   7.406   8.934  10.499 -0.3093 -0.5361  0.2084
  199MOL0     C27335   7.343   9.055  10.423  0.1704 -0.6835  0.1063
  199MOL0     C27336   7.302   9.026  10.280  0.1234  0.2187  0.8000
  199MOL0     C27337   7.217   9.143  10.222 -0.1030 -0.3994 -0.0383
  199MOL0     C27338   7.096   9.178  10.300 -0.4872 -0.8178  0.2174
  199MOL0     C27339   6.988   9.238  10.212 -0.3451 -0.3067 -0.2158
  199MOL0     C27340   6.868   9.282  10.291  0.7249 -0.1382 -0.5464
  199MOL0     N27341   6.798   9.162  10.336 -0.4254 -0.1582 -0.1240
  199MOL0     C27342   6.804   9.114  10.461 -0.7587 -0.5708 -0.0104
  199MOL0     C27343   6.719   9.020  10.458 -0.4397 -0.0165  0.3614
  199MOL0     C27344   6.682   8.947  10.587 -0.9772 -0.0630 -0.3388
  199MOL0     C27345   6.778   8.825  10.604  0.4377  0.3531 -0.0482
  199MOL0     C27346   6.802   8.789  10.755 -0.2314 -0.1018 -0.0868
  199MOL0     C27347   6.674   8.756  10.820  0.3474  1.0161 -0.3872
  199MOL0     O27348   6.703   8.651  10.915  0.7467  1.0270 -0.0173
  199MOL0     C27349   6.595   8.604  10.989  0.2538  0.7140  0.4433
  199MOL0     C27350   6.630   8.534  11.106 -0.4329 -0.4797  0.6015
  199MOL0     C27351   6.532   8.493  11.197  0.5714 -0.6297 -0.7996
  199MOL0     C27352   6.576   8.410  11.314  0.4243  1.7356  0.8292
  199MOL0     C27353   6.392   8.526  11.170  0.3536  0.2880  0.8526
  199MOL0     C27354   6.285   8.488  11.264 -0.3165 -0.0619 -0.3059
  199MOL0     O27355   6.176   8.448  11.197  0.0647 -0.0743 -0.0805
  199MOL0     C27356   6.056   8.432  11.264 -0.4506  0.5975  0.4999
  199MOL0     C27357   6.038   8.339  11.362  0.2155  0.8829 -0.1157
  199MOL0     C27358   5.915   8.331  11.434 -0.6359  0.6825  0.7197
  199MOL0     C27359   5.806   8.405  11.387 -0.3104 -0.1944  0.5876
  199MOL0     O27360   5.684   8.384  11.452 -0.0221  0.4027  0.6129
  199MOL0     C27361   5.578   8.479  11.427  0.8291  0.4694 -0.2965
  199MOL0     C27362   5.476   8.472  11.541  0.2935  0.4129 -0.3385
  199MOL0     C27363   5.401   8.331  11.560  0.3962 -0.3907 -0.9210
  199MOL0     C27364   5.279   8.361  11.640 -0.3080  0.4902 -0.1278
  199MOL0     C27365   5.208   8.220  11.667 -0.7263  0.0415 -0.9789
  199MOL0     C27366   5.090   8.247  11.758  0.4855 -0.4385  0.2247
  199MOL0     C27367   5.021   8.111  11.789  0.0983 -0.8250 -0.3340
  199MOL0     C27368   4.873   8.118  11.818  0.1827 -0.2530 -0.8673
  199MOL0    Cl27369   4.791   8.186  11.667  0.5049 -0.1281 -0.5131
  199MOL0     C27370   5.821   8.493  11.280 -0.1914  0.1255 -0.6177
  199MOL0     C27371   5.949   8.508  11.228  0.6774  0.5998 -0.2818
  199MOL0     O27372   6.291   8.518  11.382 -0.4363 -0.2617  0.4612
  199MOL0     C27373   6.359   8.588  11.044 -0.2869 -0.9860  0.0557
  199MOL0     C27374   6.461   8.622  10.951  0.5038  0.0234  0.5678
  199MOL0     N27375   6.664   9.001  10.337 -0.1349  0.5058  0.8548
  199MOL0     N27376   6.708   9.089  10.264  0.9923  0.5263 -0.1782
  199MOL0     C27377   7.518   9.130  10.929 -0.1236  0.1907  0.5455
  199MOL0     C27378   7.546   9.138  11.063  0.0721 -0.0105  0.0509
  199MOL0     C27379   7.595   8.973  11.511 -0.0915 -0.4038 -0.0358
  199MOL0     C27380   7.523   9.094  11.542 -0.6750  0.1397 -1.2391
  199MOL0     C27381   7.509   9.129  11.681  0.2323 -0.1454 -0.0712
  199MOL0     C27382   7.562   9.057  11.787 -0.5677  1.1509  0.0549
  199MOL0     O27383   7.537   9.080  11.924 -0.3134  0.1148  0.5120
  199MOL0     C27384   7.451   9.190  11.956 -0.0270 -0.8982  0.3845
  199MOL0     C27385   7.525   9.328  11.952  0.0509  0.4144 -0.3285
  199MOL0     C27386   7.442   9.444  12.012 -1.0946  0.3252 -0.1340
  199MOL0     C27387   7.522   9.574  12.019  0.0572  0.6411 -0.0449
  199MOL0     C27388   7.435   9.671  12.083  0.6784 -0.0367  0.1681
  199MOL0     C27389   7.376   9.769  12.129 -0.9405  0.1842  0.5261
  199MOL0     C27390   7.628   8.933  11.753 -0.0849  0.1182  0.4076
  199MOL0     C27391   7.644   8.896  11.619  0.0835  0.4110  0.3542
  199MOL0     C27392   7.711   8.767  11.600  1.2994 -1.1422  0.3496
  199MOL0     H27393   7.577   8.805  11.114 -2.1335 -0.6274  0.0429
  199MOL0     H27394   7.525   8.796  10.891 -4.5868 -0.7562  2.2313
  199MOL0     H27395   7.306   8.921  10.690  0.3004 -1.2222  0.3705
  199MOL0     H27396   7.451   8.820  10.674 -2.4808 -1.9119 -0.8595
  199MOL0     H27397   7.508   8.930  10.462 -0.0270  0.6201  0.8111
  199MOL0     H27398   7.352   8.844  10.468 -1.1442  0.5239 -1.5713
  199MOL0     H27399   7.255   9.081  10.482  0.0771  0.9706 -0.7187
  199MOL0     H27400   7.409   9.142  10.424 -1.8946  1.1579 -3.4699
  199MOL0     H27401   7.389   9.012  10.215 -1.8883  1.5488 -2.4013
  199MOL0     H27402   7.242   8.935  10.286  4.3982 -2.9273  0.7410
  199MOL0     H27403   7.173   9.117  10.126  0.5604 -0.2382 -0.3877
  199MOL0     H27404   7.277   9.235  10.224 -1.7113  0.6942  1.1142
  199MOL0     H27405   7.074   9.095  10.367  2.4013 -1.8921 -0.0267
  199MOL0     H27406   7.125   9.254  10.373 -1.0416 -0.5089  0.1261
  199MOL0     H27407   6.957   9.171  10.131 -0.3362 -3.1903  2.0282
  199MOL0     H27408   7.033   9.327  10.165  3.3039 -1.1925  1.2348
  199MOL0     H27409   6.899   9.350  10.371 -0.2296 -0.5580  0.2060
  199MOL0     H27410   6.797   9.334  10.227  1.1843  1.9687  0.5810
  199MOL0     H27411   6.853   9.156  10.548 -2.9246  4.1601 -0.7720
  199MOL0     H27412   6.585   8.898  10.574 -0.0421 -2.4436  1.0096
  199MOL0     H27413   6.676   9.011  10.675  2.9101  1.3401 -0.9145
  199MOL0     H27414   6.738   8.734  10.558 -2.0744  0.6040  1.4506
  199MOL0     H27415   6.875   8.844  10.559  0.3660 -1.3325 -0.9916
  199MOL0     H27416   6.864   8.699  10.753 -3.4822 -2.5530  0.9188
  199MOL0     H27417   6.843   8.877  10.804  0.6864  0.0872 -1.1656
  199MOL0     H27418   6.636   8.842  10.876 -0.9023 -0.7420  1.6214
  199MOL0     H27419   6.597   8.720  10.750 -0.0918 -0.9688  1.0405
  199MOL0     H27420   6.737   8.528  11.121 -0.1389  1.6586 -0.2316
  199MOL0     H27421   6.550   8.463  11.407 -0.7371  0.5955  1.1851
  199MOL0     H27422   6.678   8.373  11.303 -0.1349 -0.0290  1.3234
  199MOL0     H27423   6.514   8.320  11.314  0.8995  1.3440 -1.6097
  199MOL0     H27424   6.114   8.264  11.383 -1.6974 -1.2044 -0.2739
  199MOL0     H27425   5.901   8.263  11.517  2.5364 -2.4427 -1.0150
  199MOL0     H27426   5.620   8.580  11.421  1.7959  0.0597 -0.4743
  199MOL0     H27427   5.532   8.463  11.329  1.4423 -2.4281 -0.1852
  199MOL0     H27428   5.536   8.497  11.629 -0.2691  2.4481 -0.4894
  199MOL0     H27429   5.408   8.557  11.531 -0.0487  0.3408  1.1473
  199MOL0     H27430   5.461   8.251  11.603 -0.0101  0.9426  2.4251
  199MOL0     H27431   5.364   8.284  11.468  2.3261 -3.3896 -0.2895
  199MOL0     H27432   5.207   8.420  11.583 -0.6198 -0.7554 -1.0824
  199MOL0     H27433   5.322   8.406  11.730  3.3589 -4.0345  0.8061
  199MOL0     H27434   5.172   8.170  11.577 -1.7350 -0.5199 -0.2806
  199MOL0     H27435   5.271   8.150  11.722 -1.1303 -0.5331 -1.2441
  199MOL0     H27436   5.012   8.312  11.716  0.1838  0.5263  2.1452
  199MOL0     H27437   5.115   8.306  11.847  1.9137 -3.5960  2.0796
  199MOL0     H27438   5.078   8.075  11.875  2.9115  1.1908 -1.1798
  199MOL0     H27439   5.038   8.033  11.714 -1.6107  0.0035 -1.6527
  199MOL0     H27440   4.847   8.177  11.906 -0.7752  2.3652 -2.7821
  199MOL0     H27441   4.843   8.015  11.840  1.2831 -0.5594 -0.7574
  199MOL0     H27442   5.735   8.547  11.241 -2.1295 -1.5649  1.0622
  199MOL0     H27443   5.969   8.574  11.143 -4.0314  2.3560 -0.2865
  199MOL0     H27444   6.255   8.611  11.026 -0.0124 -1.2517 -2.2042
  199MOL0     H27445   6.439   8.675  10.858  0.1949  0.9886  1.1707
  199MOL0     H27446   7.490   9.212  10.863 -0.5824 -0.4858 -0.1206
  199MOL0     H27447   7.557   9.232  11.116  3.4661 -0.3325  0.1356
  199MOL0     H27448   7.481   9.158  11.465 -1.3683  2.5545  0.9726
  199MOL0     H27449   7.455   9.222  11.695 -0.5702 -0.4026 -1.3222
  199MOL0     H27450   7.364   9.201  11.890 -1.0306 -1.6988  1.5200
  199MOL0     H27451   7.412   9.177  12.057  4.5762 -2.8182  2.1814
  199MOL0     H27452   7.549   9.351  11.847 -2.4394  2.6140 -0.5380
  199MOL0     H27453   7.616   9.305  12.008 -0.3535 -2.7765 -0.8377
  199MOL0     H27454   7.349   9.454  11.955 -0.5080 -1.0097 -1.3948
  199MOL0     H27455   7.407   9.417  12.112  0.0980 -1.6067 -0.1884
  199MOL0     H27456   7.551   9.599  11.917  1.3025  0.2149  0.1880
  199MOL0     H27457   7.614   9.561  12.076  1.5209 -1.2228 -2.6165
  199MOL0     H27458   7.313   9.838  12.181 -0.0601  2.7327 -1.5524
  199MOL0     H27459   7.663   8.874  11.837  0.8039  3.8320  2.8963
  199MOL0     H27460   7.730   8.714  11.694  2.2830 -2.4615 -0.5523
  199MOL0     H27461   7.635   8.698  11.560 -0.6976 -0.7573  3.1215
  199MOL0     H27462   7.802   8.782  11.542  1.9012  3.3592  2.0983
  200MOL0     O27463  10.811   4.693   8.918 -0.8802 -0.1838  0.1787
  200MOL0     C27464  10.738   4.784   8.906  0.6655 -0.0758  0.0291
  200MOL0     O27465  10.747   4.891   8.816 -0.2473  1.0627  0.2392
  200MOL0     C27466  10.817   4.860   8.710 -0.0455  0.5804 -0.0865
  200MOL0     C27467  10.953   4.899   8.722 -1.6945 -0.3917 -0.3913
  200MOL0     C27468  11.041   4.875   8.604  0.1606  0.9528 -0.3279
  200MOL0     C27469  10.995   4.799   8.493  0.0897 -0.8070  0.0351
  200MOL0     O27470  11.084   4.766   8.397 -0.1675  0.0033  0.1319
  200MOL0     C27471  11.040   4.704   8.276 -0.6478 -0.5201  0.0558
  200MOL0     C27472  11.136   4.747   8.174 -0.2841  0.3302  0.7342
  200MOL0     C27473  11.279   4.681   8.192  0.4719  0.1534  1.1287
  200MOL0     C27474  11.283   4.533   8.147  0.1437 -0.8417 -0.1941
  200MOL0     C27475  11.398   4.465   8.220 -0.7695 -0.0980  0.6945
  200MOL0     C27476  11.538   4.522   8.189 -0.4451 -0.1955  0.6984
  200MOL0     C27477  11.656   4.422   8.180 -0.2066  0.0105  0.1144
  200MOL0     C27478  11.651   4.350   8.047 -0.5011  0.1530 -0.2175
  200MOL0     N27479  11.723   4.424   7.941 -0.6622 -0.0067  0.0408
  200MOL0     C27480  11.860   4.426   7.943 -0.7729 -0.5535 -0.5115
  200MOL0     C27481  11.894   4.496   7.834 -0.6276 -0.4937 -0.4431
  200MOL0     C27482  12.038   4.525   7.799  0.1756 -0.3707  0.6294
  200MOL0     C27483  12.034   4.664   7.722 -0.4167  0.3162  0.3287
  200MOL0     C27484  12.170   4.715   7.670 -0.3256  0.9542 -0.1872
  200MOL0     C27485  12.241   4.624   7.561 -0.2763 -0.4695 -0.4397
  200MOL0     O27486  12.331   4.535   7.627 -0.1857 -0.7216 -0.3611
  200MOL0     C27487  12.454   4.582   7.664 -0.2074  0.0742  0.1503
  200MOL0     C27488  12.535   4.495   7.735 -0.9135 -0.8806 -0.3240
  200MOL0     C27489  12.669   4.526   7.769 -0.9029 -0.6431 -0.0847
  200MOL0     C27490  12.732   4.425   7.858 -0.0812  0.1622  0.5308
  200MOL0     C27491  12.727   4.653   7.725  0.1668 -0.0211 -0.3937
  200MOL0     C27492  12.872   4.684   7.738 -0.5418  0.6985 -0.1440
  200MOL0     O27493  12.923   4.806   7.680  0.2333  0.5013  0.1614
  200MOL0     C27494  13.059   4.821   7.650  0.3763  0.6500 -0.5554
  200MOL0     C27495  13.107   4.765   7.535 -0.6506  0.3369  0.1895
  200MOL0     C27496  13.241   4.793   7.496 -0.7684 -0.2285  0.1534
  200MOL0     C27497  13.325   4.867   7.585 -0.0959 -0.0034  1.1162
  200MOL0     O27498  13.458   4.896   7.556  0.4647  0.2047 -0.8201
  200MOL0     C27499  13.549   4.796   7.518 -0.3336  0.0759 -0.4538
  200MOL0     C27500  13.661   4.791   7.616  0.3078 -0.9489 -0.5617
  200MOL0     C27501  13.722   4.930   7.638  0.8604 -0.3589 -0.0048
  200MOL0     C27502  13.872   4.933   7.671 -0.7731  0.3915 -0.3461
  200MOL0     C27503  13.907   5.054   7.758  0.3353 -0.1717 -0.4877
  200MOL0     C27504  13.894   5.192   7.686 -0.0433 -0.8321  0.1995
  200MOL0     C27505  13.771   5.271   7.735  0.2064  0.5880 -0.8659
  200MOL0     C27506  13.775   5.330   7.875  0.1073  0.0431 -0.3165
  200MOL0    Cl27507  13.630   5.264   7.961 -0.0069 -0.2143  0.3406
  200MOL0     C27508  13.275   4.919   7.704 -0.4620  0.0080  0.5893
  200MOL0     C27509  13.141   4.895   7.736 -0.9473 -0.7796  0.6112
  200MOL0     O27510  12.942   4.597   7.799 -0.1725 -0.4371  0.9300
  200MOL0     C27511  12.639   4.747   7.671  0.2863  1.5416  0.0292
  200MOL0     C27512  12.508   4.709   7.636 -0.3769  0.4446 -0.4115
  200MOL0     N27513  11.771   4.542   7.779 -0.7858  0.2446 -0.1581
  200MOL0     N27514  11.668   4.500   7.841 -0.3896 -0.1319  0.0768
  200MOL0     C27515  10.857   4.773   8.493 -0.8634  1.1665 -0.4472
  200MOL0     C27516  10.774   4.795   8.596  0.9687 -0.1371 -0.4628
  200MOL0     C27517  10.618   4.791   8.994  0.6338  0.9876  0.0421
  200MOL0     C27518  10.496   4.762   8.941  0.1352  0.7086 -0.1959
  200MOL0     C27519  10.382   4.791   9.017  0.4879 -1.0889 -0.3180
  200MOL0     C27520  10.396   4.843   9.146 -1.1559  0.8045 -0.1477
  200MOL0     O27521  10.290   4.873   9.217  0.8420  0.3572 -0.3885
  200MOL0     C27522  10.282   4.988   9.295 -0.8739  0.4177 -0.5511
  200MOL0     C27523  10.151   5.024   9.351 -0.1758  0.1739  0.3705
  200MOL0     C27524  10.042   5.084   9.248  1.9256 -0.2548 -1.1547
  200MOL0     C27525   9.892   5.093   9.295  0.3369  0.4123 -0.2688
  200MOL0     C27526   9.805   5.129   9.183 -1.1329 -0.2212 -0.7008
  200MOL0     C27527   9.733   5.173   9.093 -0.2004 -0.1773 -0.0603
  200MOL0     C27528  10.526   4.848   9.209 -0.6563 -0.3873  0.2578
  200MOL0     C27529  10.639   4.830   9.131  0.7992  0.1247  0.4798
  200MOL0     C27530  10.765   4.853   9.202  0.3569 -0.5982  0.5992
  200MOL0     H27531  10.990   4.951   8.810  0.8493 -0.2453 -1.4702
  200MOL0     H27532  11.144   4.910   8.610  1.1824 -1.8866 -0.0258
  200MOL0     H27533  10.937   4.737   8.260 -2.0628 -2.6915  3.4719
  200MOL0     H27534  11.036   4.595   8.278  2.0781 -0.6835  0.5765
  200MOL0     H27535  11.099   4.722   8.074 -1.9475  0.0455  1.4042
  200MOL0     H27536  11.154   4.854   8.180 -0.6653  0.2912  3.3938
  200MOL0     H27537  11.344   4.755   8.146  1.9007 -1.5406  0.3333
  200MOL0     H27538  11.310   4.684   8.297  0.2614  0.5696  1.1831
  200MOL0     H27539  11.197   4.481   8.191  0.5919 -0.1020  1.6679
  200MOL0     H27540  11.274   4.534   8.038 -3.5627 -1.3600 -0.0348
  200MOL0     H27541  11.399   4.363   8.181 -1.1990  0.4452 -0.7766
  200MOL0     H27542  11.378   4.456   8.327  0.2739  1.3838  1.0467
  200MOL0     H27543  11.529   4.573   8.093  1.0132  1.0079  1.1619
  200MOL0     H27544  11.561   4.590   8.272 -3.1446  0.5785  0.8840
  200MOL0     H27545  11.648   4.343   8.255  1.1211 -2.0111 -1.7564
  200MOL0     H27546  11.760   4.452   8.194 -0.4802  1.3289 -0.5684
  200MOL0     H27547  11.694   4.250   8.051 -3.2705 -1.3379 -3.1549
  200MOL0     H27548  11.548   4.344   8.010  0.5789  0.3485 -3.6023
  200MOL0     H27549  11.911   4.389   8.032 -2.6895  1.8451  1.7339
  200MOL0     H27550  12.081   4.442   7.742  1.6358  0.2219  0.8089
  200MOL0     H27551  12.104   4.516   7.886 -1.5288 -5.5123  1.6983
  200MOL0     H27552  11.978   4.649   7.630  2.3491 -0.4859 -1.3409
  200MOL0     H27553  11.979   4.743   7.774 -0.9183  0.2796 -0.1404
  200MOL0     H27554  12.150   4.809   7.618 -0.8903  0.5506 -0.7224
  200MOL0     H27555  12.239   4.732   7.754 -1.1918  0.9434  0.5376
  200MOL0     H27556  12.172   4.557   7.509  0.7234 -1.1266 -0.9648
  200MOL0     H27557  12.291   4.683   7.484  1.0590  0.9231  1.3992
  200MOL0     H27558  12.495   4.396   7.754 -2.0005 -0.2088  1.0289
  200MOL0     H27559  12.815   4.375   7.807  0.3689  0.5125  0.9030
  200MOL0     H27560  12.662   4.345   7.881  0.4567 -0.4130  0.1994
  200MOL0     H27561  12.774   4.464   7.952  4.1468 -2.4551  0.0081
  200MOL0     H27562  13.032   4.710   7.479 -0.1514 -1.1472  0.9128
  200MOL0     H27563  13.268   4.762   7.395 -0.6621  1.4314 -0.3572
  200MOL0     H27564  13.507   4.696   7.527  3.3088 -1.4442  2.7778
  200MOL0     H27565  13.599   4.816   7.423  2.6485 -1.6371  0.6217
  200MOL0     H27566  13.624   4.756   7.712  2.5829 -2.3066 -0.0963
  200MOL0     H27567  13.736   4.718   7.582 -0.3288 -0.6618 -2.7192
  200MOL0     H27568  13.669   4.950   7.732  2.8440  0.5395  0.9818
  200MOL0     H27569  13.700   5.000   7.556  0.0514 -0.3254  0.2241
  200MOL0     H27570  13.929   4.931   7.578  1.3791  0.9973  0.8713
  200MOL0     H27571  13.900   4.835   7.712 -0.5848 -0.1280 -1.6734
  200MOL0     H27572  13.852   5.057   7.852  3.7908  2.0748  1.7078
  200MOL0     H27573  14.011   5.040   7.791  0.6048  1.6211 -0.4412
  200MOL0     H27574  13.882   5.171   7.580 -1.3203  0.7432 -0.0042
  200MOL0     H27575  13.986   5.250   7.696  0.1223 -0.7853 -1.4256
  200MOL0     H27576  13.690   5.197   7.734  0.2884  0.4928 -2.9190
  200MOL0     H27577  13.733   5.349   7.669 -2.4296  0.5109  0.4399
  200MOL0     H27578  13.774   5.439   7.881 -0.0011 -0.0311  2.6514
  200MOL0     H27579  13.860   5.292   7.933 -0.5628 -0.4918  0.3441
  200MOL0     H27580  13.336   4.987   7.763 -1.2207 -0.9541  2.5837
  200MOL0     H27581  13.111   4.959   7.819 -1.9445  0.3853 -0.5925
  200MOL0     H27582  12.673   4.850   7.663 -2.9725  3.2297  4.0522
  200MOL0     H27583  12.444   4.789   7.600  1.6850  2.3238 -0.1180
  200MOL0     H27584  10.818   4.702   8.421  0.2662 -0.5983  0.5874
  200MOL0     H27585  10.668   4.770   8.592  1.5222 -3.0814  0.8340
  200MOL0     H27586  10.485   4.725   8.839  0.7600 -0.5284  0.1573
  200MOL0     H27587  10.283   4.802   8.972  0.0566 -1.1286  0.5979
  200MOL0     H27588  10.350   4.966   9.378  0.1744 -2.4454 -2.0383
  200MOL0     H27589  10.318   5.077   9.242 -3.4800  0.7822 -1.8967
  200MOL0     H27590  10.181   5.090   9.433  1.2675 -2.0118  1.7225
  200MOL0     H27591  10.099   4.938   9.394 -0.7860  0.3363 -0.0213
  200MOL0     H27592  10.080   5.183   9.221  1.5914  0.6100  1.2977
  200MOL0     H27593  10.043   5.006   9.171 -1.8389 -3.1521  1.3592
  200MOL0     H27594   9.876   5.170   9.372 -2.7885 -1.6414  1.3430
  200MOL0     H27595   9.862   4.998   9.340 -0.2008  1.1141  0.9160
  200MOL0     H27596   9.676   5.214   9.013 -0.5459  0.3457  0.4420
  200MOL0     H27597  10.543   4.872   9.314  2.3932  0.4643 -0.3102
  200MOL0     H27598  10.829   4.922   9.146  0.7604 -1.8349 -0.5071
  200MOL0     H27599  10.742   4.900   9.298 -1.3202 -1.3221  0.5967
  200MOL0     H27600  10.811   4.756   9.221  0.0498 -1.0527 -0.8258
  201MOL0     O27601   3.424   9.766   7.088 -0.3021 -0.1492 -0.0347
  201MOL0     C27602   3.415   9.659   7.149  0.4086 -0.7083 -0.0522
  201MOL0     O27603   3.512   9.603   7.226 -0.2942 -0.3334 -0.1871
  201MOL0     C27604   3.610   9.684   7.279 -0.2535 -0.5224 -0.2650
  201MOL0     C27605   3.595   9.740   7.410 -0.4788 -0.7604  0.5465
  201MOL0     C27606   3.702   9.819   7.463  0.6090 -0.7562 -0.7480
  201MOL0     C27607   3.822   9.851   7.395  0.6285 -0.6156  0.2087
  201MOL0     O27608   3.928   9.929   7.452 -0.2734 -0.7846  0.2668
  201MOL0     C27609   3.924  10.038   7.543  0.0001  0.4105 -0.3804
  201MOL0     C27610   4.048  10.053   7.637 -0.0244  0.0151 -0.5663
  201MOL0     C27611   4.180  10.044   7.551 -0.5450 -0.0825 -0.1984
  201MOL0     C27612   4.296   9.986   7.627  0.5778 -0.4504  0.4246
  201MOL0     C27613   4.431   9.984   7.551  0.0414 -0.0721  0.4375
  201MOL0     C27614   4.477  10.116   7.495 -0.5232  0.6901 -0.0242
  201MOL0     C27615   4.623  10.113   7.429 -0.2192 -0.8145  1.2086
  201MOL0     C27616   4.636   9.999   7.323 -0.5614 -0.3689  0.1563
  201MOL0     N27617   4.667   9.861   7.381 -0.5455 -0.1012  0.3818
  201MOL0     C27618   4.766   9.832   7.479 -0.1864 -0.0829 -0.2340
  201MOL0     C27619   4.771   9.700   7.492  0.0050 -0.2954 -1.2417
  201MOL0     C27620   4.860   9.620   7.584  0.2594 -0.2711 -0.0524
  201MOL0     C27621   4.806   9.490   7.646  0.0453  1.0885 -0.3185
  201MOL0     C27622   4.735   9.536   7.778 -0.1964  0.5503  0.1433
  201MOL0     C27623   4.715   9.417   7.881  0.4500 -0.1892  0.2436
  201MOL0     O27624   4.848   9.357   7.916 -0.3404  0.9694  0.1998
  201MOL0     C27625   4.887   9.391   8.042  0.2023 -0.0330  0.0196
  201MOL0     C27626   4.980   9.491   8.054 -0.2238  0.3057 -0.2779
  201MOL0     C27627   5.032   9.523   8.182 -0.5721 -0.7337  0.1584
  201MOL0     C27628   5.149   9.632   8.182  0.3823  0.3497 -0.0371
  201MOL0     C27629   4.993   9.452   8.301  0.0876  0.3576  0.7358
  201MOL0     C27630   5.058   9.454   8.438  0.2753 -0.0314 -0.3279
  201MOL0     O27631   5.174   9.516   8.439  0.3404  0.8943 -0.1379
  201MOL0     C27632   5.239   9.524   8.563 -0.7964  0.8476  0.0373
  201MOL0     C27633   5.192   9.585   8.677  0.7157 -0.1249 -0.1714
  201MOL0     C27634   5.251   9.588   8.799  0.1143 -0.4466  0.2624
  201MOL0     C27635   5.376   9.535   8.812 -0.3782  0.4163 -0.1715
  201MOL0     O27636   5.433   9.564   8.938 -0.7874 -0.8447  0.1310
  201MOL0     C27637   5.571   9.525   8.949  0.2050 -0.3855  0.5541
  201MOL0     C27638   5.624   9.510   9.093  0.9137 -0.0599  0.4035
  201MOL0     C27639   5.766   9.459   9.098  0.1054  0.7582 -0.0854
  201MOL0     C27640   5.803   9.425   9.242 -0.9556 -0.0332  0.1517
  201MOL0     C27641   5.942   9.358   9.242  0.2978  0.3886 -0.4468
  201MOL0     C27642   5.981   9.299   9.381 -0.2349 -0.2267  0.4079
  201MOL0     C27643   6.123   9.243   9.383  0.6668 -0.0374  0.4342
  201MOL0     C27644   6.168   9.217   9.524 -0.3755 -0.0784 -0.1752
  201MOL0    Cl27645   6.344   9.188   9.513 -0.1579  0.0668  0.8168
  201MOL0     C27646   5.431   9.466   8.702  0.5422 -0.2853  0.4780
  201MOL0     C27647   5.365   9.461   8.581  0.2460  0.5210  0.2282
  201MOL0     O27648   4.997   9.416   8.535 -0.4403  0.8386 -0.0154
  201MOL0     C27649   4.892   9.352   8.281 -0.2561  0.2587 -0.2685
  201MOL0     C27650   4.839   9.335   8.155  0.3454  0.2385  0.4252
  201MOL0     N27651   4.686   9.647   7.394  0.8493  0.6830 -0.2427
  201MOL0     N27652   4.626   9.741   7.334  0.0748 -0.0639 -0.1304
  201MOL0     C27653   3.845   9.791   7.271  0.4180 -0.1737  0.2125
  201MOL0     C27654   3.742   9.712   7.218 -1.3072 -0.1595  0.5018
  201MOL0     C27655   3.301   9.567   7.105  0.1749 -0.1510 -0.2224
  201MOL0     C27656   3.302   9.431   7.140  0.1663 -0.0183 -0.2019
  201MOL0     C27657   3.193   9.350   7.106  0.0117 -0.3478 -0.2563
  201MOL0     C27658   3.077   9.394   7.036  0.0527 -0.6178  0.5364
  201MOL0     O27659   2.984   9.297   7.009  0.6308 -0.3644  0.4570
  201MOL0     C27660   2.895   9.314   6.903 -0.4703 -0.9569  0.6408
  201MOL0     C27661   2.782   9.208   6.880 -0.2275 -0.4078  0.5248
  201MOL0     C27662   2.839   9.065   6.870 -0.6020 -0.2603  0.0890
  201MOL0     C27663   2.726   8.958   6.879  0.1065  0.1219 -0.1891
  201MOL0     C27664   2.648   8.960   6.747  0.0935  0.0707 -0.2821
  201MOL0     C27665   2.599   8.978   6.633 -0.8281  1.0022  0.4496
  201MOL0     C27666   3.077   9.529   7.002 -0.1980 -0.1484  1.3614
  201MOL0     C27667   3.183   9.618   7.031 -0.2085  1.0815  0.3059
  201MOL0     C27668   3.161   9.767   7.004  0.3446 -0.1912  0.5054
  201MOL0     H27669   3.509   9.740   7.475  1.4314  1.2706  3.2713
  201MOL0     H27670   3.684   9.863   7.561 -2.1422 -1.9099 -0.6519
  201MOL0     H27671   3.832  10.025   7.601 -0.2130 -2.6343 -1.2755
  201MOL0     H27672   3.930  10.138   7.497  3.9073  2.9918  4.6572
  201MOL0     H27673   4.048  10.138   7.706 -1.1901  0.3310 -0.9325
  201MOL0     H27674   4.037   9.965   7.700 -1.5159  0.6114  0.0429
  201MOL0     H27675   4.161   9.983   7.462 -3.0009  0.4366 -0.1027
  201MOL0     H27676   4.215  10.144   7.526 -1.9915  1.7190  4.0700
  201MOL0     H27677   4.305  10.030   7.727  0.1707 -0.8040  0.6192
  201MOL0     H27678   4.281   9.878   7.641  0.7006 -0.8367 -2.0317
  201MOL0     H27679   4.434   9.905   7.475  0.0299  0.1354  0.2201
  201MOL0     H27680   4.508   9.961   7.625 -0.2004 -0.6177  0.5285
  201MOL0     H27681   4.412  10.158   7.417 -0.9795  2.5169  1.2534
  201MOL0     H27682   4.479  10.195   7.571 -1.4608  0.6260  0.0881
  201MOL0     H27683   4.698  10.103   7.508  0.9430 -1.6414  0.0405
  201MOL0     H27684   4.640  10.209   7.379  0.5127 -1.7768 -0.4730
  201MOL0     H27685   4.550  10.008   7.256 -2.0558  1.0460  2.1525
  201MOL0     H27686   4.723  10.008   7.256 -0.9640 -0.6485 -0.4125
  201MOL0     H27687   4.830   9.895   7.540 -0.7508 -0.9888  1.3534
  201MOL0     H27688   4.890   9.687   7.666 -1.1446 -1.1235  1.2221
  201MOL0     H27689   4.948   9.592   7.526  0.4734 -1.2668  0.7333
  201MOL0     H27690   4.734   9.439   7.581  1.4577 -1.6360  0.1140
  201MOL0     H27691   4.891   9.426   7.670 -0.6461 -0.6972 -2.3129
  201MOL0     H27692   4.791   9.607   7.840 -0.6820  0.7828  0.3224
  201MOL0     H27693   4.638   9.573   7.744  0.1882  0.4959 -1.0892
  201MOL0     H27694   4.663   9.446   7.972  0.5533 -0.2207  0.3137
  201MOL0     H27695   4.657   9.335   7.837  0.7550 -1.4117  2.0321
  201MOL0     H27696   5.026   9.528   7.963  3.0952 -1.9629  0.3346
  201MOL0     H27697   5.244   9.578   8.178  0.7880  1.0538  0.0065
  201MOL0     H27698   5.149   9.696   8.271  1.7947 -0.0353  0.2701
  201MOL0     H27699   5.156   9.703   8.099  2.7497  1.6607  1.1712
  201MOL0     H27700   5.101   9.643   8.676  1.3063  0.8477 -1.5191
  201MOL0     H27701   5.204   9.653   8.873  0.2606  0.1854 -0.1894
  201MOL0     H27702   5.592   9.435   8.891  1.8421  0.3263 -0.0069
  201MOL0     H27703   5.626   9.611   8.911 -1.4824  2.1701  3.4411
  201MOL0     H27704   5.629   9.606   9.145 -0.4749 -0.4227  1.2476
  201MOL0     H27705   5.556   9.442   9.145  0.0997  0.9915  0.7266
  201MOL0     H27706   5.848   9.518   9.057  0.1672  1.1434  0.5861
  201MOL0     H27707   5.761   9.365   9.042 -1.0893  0.8180 -0.0979
  201MOL0     H27708   5.727   9.363   9.291 -1.9031  0.2209 -0.9373
  201MOL0     H27709   5.799   9.517   9.302  0.4832 -0.2745  0.6418
  201MOL0     H27710   5.948   9.271   9.177  1.8532 -0.1769  0.4177
  201MOL0     H27711   6.012   9.439   9.218  0.5984  0.4379  0.5556
  201MOL0     H27712   5.904   9.231   9.420  0.7355 -1.2303  0.6199
  201MOL0     H27713   5.972   9.386   9.447  0.8901  2.3412 -2.5570
  201MOL0     H27714   6.190   9.319   9.342  0.1731  1.9678  3.1065
  201MOL0     H27715   6.123   9.147   9.330  2.0467  0.4168 -0.4516
  201MOL0     H27716   6.107   9.139   9.570 -0.6406 -1.1844 -2.2455
  201MOL0     H27717   6.146   9.308   9.581 -0.7904  1.4401 -2.5858
  201MOL0     H27718   5.530   9.424   8.701  0.5648 -0.3784  2.5997
  201MOL0     H27719   5.415   9.408   8.500 -1.4596 -2.9044  1.2164
  201MOL0     H27720   4.855   9.292   8.364  0.4591  1.1774  0.7469
  201MOL0     H27721   4.754   9.269   8.140 -0.7306  2.0011 -1.8441
  201MOL0     H27722   3.942   9.807   7.225  0.5099 -2.4162 -0.5317
  201MOL0     H27723   3.766   9.667   7.122 -2.0791  2.6499 -1.1030
  201MOL0     H27724   3.387   9.402   7.201 -0.1011  1.9838  1.2203
  201MOL0     H27725   3.205   9.245   7.130  1.1970 -0.2464 -0.3458
  201MOL0     H27726   2.851   9.413   6.914  0.9883 -0.0302 -1.3136
  201MOL0     H27727   2.950   9.299   6.810 -1.9115 -1.5992 -0.1272
  201MOL0     H27728   2.720   9.225   6.791 -0.7784 -3.2046  0.3018
  201MOL0     H27729   2.727   9.225   6.973  0.5575 -0.1009  0.9425
  201MOL0     H27730   2.901   9.057   6.781  0.6698 -1.3804  1.0312
  201MOL0     H27731   2.914   9.045   6.948 -0.6408 -1.0486 -0.0668
  201MOL0     H27732   2.665   8.961   6.970  0.5722  1.5312  0.1087
  201MOL0     H27733   2.758   8.854   6.889 -2.8246 -0.7813  1.0100
  201MOL0     H27734   2.550   8.985   6.538  1.0597  2.8627 -0.4629
  201MOL0     H27735   2.983   9.557   6.956 -0.5067 -3.0199  0.0227
  201MOL0     H27736   3.197   9.829   7.087  0.5742 -0.6973  0.7874
  201MOL0     H27737   3.223   9.795   6.919  0.3060 -0.9411  0.2205
  201MOL0     H27738   3.057   9.791   6.983  0.6183  1.6719  1.0534
  202MOL0     O27739   5.593   3.108   9.658 -0.3789 -0.2445 -0.1464
  202MOL0     C27740   5.662   3.014   9.627 -0.3606 -0.3533 -0.3852
  202MOL0     O27741   5.612   2.889   9.606  0.2883  0.5663 -0.2845
  202MOL0     C27742   5.482   2.845   9.625  1.1760 -0.2020 -0.1779
  202MOL0     C27743   5.446   2.708   9.641  0.0202  0.2600 -1.0905
  202MOL0     C27744   5.318   2.664   9.660  0.1460  0.0496 -0.4437
  202MOL0     C27745   5.205   2.744   9.644 -0.1632  0.6313 -0.9468
  202MOL0     O27746   5.082   2.689   9.658  0.2260 -0.0788  0.0672
  202MOL0     C27747   4.969   2.774   9.614  0.1589  0.5953 -0.0756
  202MOL0     C27748   4.838   2.713   9.665  0.5385  0.0493  0.3228
  202MOL0     C27749   4.705   2.777   9.627  0.3121 -0.1661  0.1304
  202MOL0     C27750   4.588   2.720   9.713  0.0602 -0.9903  1.0473
  202MOL0     C27751   4.452   2.747   9.656  0.6193 -0.3473  0.3873
  202MOL0     C27752   4.331   2.702   9.741 -0.1271 -0.8667  0.3473
  202MOL0     C27753   4.320   2.550   9.739 -1.0638 -0.3044  0.3441
  202MOL0     C27754   4.179   2.486   9.769  0.1373  0.3439 -0.1695
  202MOL0     N27755   4.161   2.457   9.913 -0.5272  0.5829 -0.7524
  202MOL0     C27756   4.233   2.367   9.991  0.0091 -0.4752 -0.0037
  202MOL0     C27757   4.199   2.401  10.113 -0.6181  0.9282 -0.2063
  202MOL0     C27758   4.238   2.320  10.237 -0.5795  0.5091 -0.2802
  202MOL0     C27759   4.388   2.277  10.237  0.5647 -0.3050  0.7347
  202MOL0     C27760   4.451   2.237  10.378  0.9901  0.2846 -1.3503
  202MOL0     C27761   4.605   2.256  10.378 -0.2763 -0.4190  0.0413
  202MOL0     O27762   4.661   2.186  10.270 -0.7006 -0.2622 -0.0849
  202MOL0     C27763   4.800   2.202  10.250  0.1641  0.2703 -0.1306
  202MOL0     C27764   4.883   2.300  10.310  0.7041 -0.2554  0.4771
  202MOL0     C27765   5.024   2.300  10.281 -0.1846 -0.4873 -0.3276
  202MOL0     C27766   5.099   2.417  10.346  0.6647  0.5061  0.4897
  202MOL0     C27767   5.074   2.205  10.192 -0.3160  0.5896  0.6545
  202MOL0     C27768   5.214   2.191  10.156 -0.5873  0.1513 -0.7360
  202MOL0     O27769   5.267   2.073  10.187  0.0977 -0.0864  0.0747
  202MOL0     C27770   5.383   2.041  10.126 -0.2824 -0.7248  0.5116
  202MOL0     C27771   5.493   2.104  10.181 -0.1002 -0.2371  0.1097
  202MOL0     C27772   5.619   2.081  10.129  0.3266 -0.1736  0.6844
  202MOL0     C27773   5.631   1.997  10.018 -0.1323  0.0069 -0.1226
  202MOL0     O27774   5.756   1.965   9.965 -0.3904 -0.0661  0.2114
  202MOL0     C27775   5.834   2.066   9.904 -0.8974 -0.5486 -0.1224
  202MOL0     C27776   5.987   2.044   9.936  0.8880  0.1810  0.6189
  202MOL0     C27777   6.066   2.142   9.850  0.2966 -0.4869 -0.1566
  202MOL0     C27778   6.098   2.106   9.705 -0.3649  0.1018  0.4075
  202MOL0     C27779   6.181   2.225   9.648 -0.1210  0.2359  0.5727
  202MOL0     C27780   6.223   2.205   9.504  0.0073  0.3871  0.0644
  202MOL0     C27781   6.307   2.312   9.434 -0.2468  0.0995  0.3105
  202MOL0     C27782   6.430   2.331   9.517 -0.8718 -0.7814  0.1262
  202MOL0    Cl27783   6.397   2.461   9.649  0.1383 -0.2032  0.1123
  202MOL0     C27784   5.523   1.929   9.966  0.2390  0.6177  0.2263
  202MOL0     C27785   5.398   1.957  10.017 -0.1729  0.1636 -0.0613
  202MOL0     O27786   5.268   2.276  10.091 -0.6166  1.2388  0.3449
  202MOL0     C27787   4.995   2.098  10.138 -0.3095 -0.9831 -0.3357
  202MOL0     C27788   4.856   2.101  10.171 -0.2384  0.1225 -0.4883
  202MOL0     N27789   4.127   2.521  10.116 -1.0766  0.9743 -0.1345
  202MOL0     N27790   4.102   2.549   9.994  0.0571 -0.3009  0.2086
  202MOL0     C27791   5.233   2.879   9.630 -0.0763  0.2660 -0.1977
  202MOL0     C27792   5.367   2.925   9.622  0.3184 -0.4877  0.3910
  202MOL0     C27793   5.808   3.035   9.623 -0.7886  0.5337 -0.0148
  202MOL0     C27794   5.888   2.921   9.608 -0.1134  0.0149 -0.0538
  202MOL0     C27795   6.025   2.916   9.593 -0.0917  0.1519 -0.1434
  202MOL0     C27796   6.096   3.036   9.588  0.3842 -0.0591  0.3304
  202MOL0     O27797   6.221   3.023   9.537 -0.7182  0.0868  0.2733
  202MOL0     C27798   6.324   3.120   9.572 -0.9694 -0.0636 -0.2409
  202MOL0     C27799   6.444   3.100   9.481  0.3828  0.1063 -0.1130
  202MOL0     C27800   6.558   3.201   9.517 -0.3676 -0.4295  0.2167
  202MOL0     C27801   6.700   3.163   9.442 -0.4917 -0.3667 -0.9619
  202MOL0     C27802   6.690   3.170   9.298  1.0988 -0.8641 -0.0185
  202MOL0     C27803   6.690   3.186   9.183 -0.7906  0.1059  0.1252
  202MOL0     C27804   6.029   3.159   9.621 -0.3092  0.2313  0.7922
  202MOL0     C27805   5.884   3.155   9.635  0.0688 -0.9866 -0.9681
  202MOL0     C27806   5.810   3.288   9.658  0.3560 -1.0687 -0.6809
  202MOL0     H27807   5.524   2.639   9.670 -0.4404 -0.5640 -1.7792
  202MOL0     H27808   5.314   2.558   9.683  1.9320 -0.1286 -0.8236
  202MOL0     H27809   4.969   2.781   9.505 -0.0931 -1.0813 -0.2056
  202MOL0     H27810   4.974   2.874   9.657  0.4532 -0.4101  2.3924
  202MOL0     H27811   4.838   2.612   9.624  1.2018 -0.3896  1.3663
  202MOL0     H27812   4.833   2.698   9.773  0.7586  0.6105  0.4165
  202MOL0     H27813   4.703   2.885   9.644 -2.6573 -0.1726  0.4618
  202MOL0     H27814   4.681   2.756   9.522  0.2425 -0.7182  0.2519
  202MOL0     H27815   4.610   2.613   9.721 -0.4242 -1.3630 -1.7615
  202MOL0     H27816   4.587   2.760   9.815 -0.6999  0.2542  0.5783
  202MOL0     H27817   4.434   2.706   9.556 -1.4186 -0.2723  0.6812
  202MOL0     H27818   4.441   2.854   9.635  0.6693 -0.8689 -2.8344
  202MOL0     H27819   4.346   2.744   9.841  1.3393  2.7154 -1.2045
  202MOL0     H27820   4.248   2.750   9.689  0.5203  1.4472  1.3012
  202MOL0     H27821   4.400   2.517   9.805  1.2667  1.0102 -1.6598
  202MOL0     H27822   4.355   2.523   9.639 -1.1007  2.2479 -0.4296
  202MOL0     H27823   4.098   2.548   9.729  0.9652  3.0489  2.0860
  202MOL0     H27824   4.175   2.385   9.727  0.9490  1.2385 -2.5334
  202MOL0     H27825   4.302   2.285   9.975 -1.2706 -1.5777 -0.0545
  202MOL0     H27826   4.164   2.240  10.251  0.4856 -0.3489  0.6646
  202MOL0     H27827   4.229   2.381  10.328  2.5609  2.8560 -1.3770
  202MOL0     H27828   4.401   2.187  10.177 -0.0692 -0.0799  0.2508
  202MOL0     H27829   4.442   2.361  10.193 -0.1740 -1.2725 -2.2359
  202MOL0     H27830   4.403   2.294  10.459  0.3199 -0.3000 -1.3247
  202MOL0     H27831   4.435   2.130  10.392  2.1184  0.5328  4.2497
  202MOL0     H27832   4.624   2.363  10.367  2.0399 -0.8460 -0.5883
  202MOL0     H27833   4.650   2.215  10.469 -0.3988 -2.9433 -0.9571
  202MOL0     H27834   4.850   2.375  10.381 -1.4913  1.6435 -2.3427
  202MOL0     H27835   5.035   2.489  10.397  1.1389 -0.0237  1.8944
  202MOL0     H27836   5.174   2.464  10.281 -0.0739  0.0222 -0.7438
  202MOL0     H27837   5.159   2.363  10.420  1.4287 -1.1907 -1.2832
  202MOL0     H27838   5.482   2.165  10.270 -1.0083  0.8066 -0.6798
  202MOL0     H27839   5.708   2.128  10.170  0.7599 -0.9658  0.6600
  202MOL0     H27840   5.815   2.060   9.797  2.6966  0.3198 -0.9458
  202MOL0     H27841   5.795   2.159   9.946  0.3738 -0.2678  0.5035
  202MOL0     H27842   5.997   2.056  10.044 -2.1612 -2.3698  1.3211
  202MOL0     H27843   6.032   1.945   9.926  2.8351  1.0526  0.2048
  202MOL0     H27844   6.165   2.159   9.895  1.4432 -0.4216 -2.5666
  202MOL0     H27845   6.010   2.236   9.855 -3.7127 -2.6106 -1.0154
  202MOL0     H27846   5.999   2.104   9.658 -0.9637 -0.4430  1.6775
  202MOL0     H27847   6.149   2.010   9.701 -1.3438 -0.4005 -0.4193
  202MOL0     H27848   6.119   2.316   9.657 -1.0169  0.1569 -3.0133
  202MOL0     H27849   6.277   2.239   9.697 -0.1497  1.4430  0.3251
  202MOL0     H27850   6.131   2.193   9.445 -1.4944 -5.4511  2.8191
  202MOL0     H27851   6.272   2.108   9.488 -1.4320 -0.1597 -1.3875
  202MOL0     H27852   6.251   2.405   9.421 -1.5605 -0.5504  1.0335
  202MOL0     H27853   6.338   2.273   9.337 -0.2052 -0.7096  0.6376
  202MOL0     H27854   6.496   2.388   9.451 -3.5455 -0.3635 -2.4014
  202MOL0     H27855   6.488   2.242   9.542  1.4839  0.9480  1.1867
  202MOL0     H27856   5.531   1.858   9.884  1.5320  0.8838  0.1084
  202MOL0     H27857   5.307   1.912   9.978 -0.6889  0.4873  0.7212
  202MOL0     H27858   5.039   2.023  10.073 -2.2788  0.1858 -3.2655
  202MOL0     H27859   4.784   2.028  10.136 -0.2880 -0.0738  0.0115
  202MOL0     H27860   5.154   2.954   9.628 -0.3644  0.5485  5.4028
  202MOL0     H27861   5.380   3.033   9.615  0.4569 -0.3816  2.0381
  202MOL0     H27862   5.850   2.819   9.611  0.5602 -0.2987 -1.2902
  202MOL0     H27863   6.074   2.819   9.585 -1.2427 -0.3533 -1.5548
  202MOL0     H27864   6.292   3.224   9.558  2.2178  1.0208 -0.2286
  202MOL0     H27865   6.376   3.110   9.668  0.8071  2.5572 -0.8242
  202MOL0     H27866   6.412   3.115   9.378 -0.4025  1.1869  0.2673
  202MOL0     H27867   6.483   3.000   9.502 -2.0903 -0.5546  1.7673
  202MOL0     H27868   6.524   3.299   9.480 -2.8887 -1.1701  0.3654
  202MOL0     H27869   6.564   3.213   9.625  0.2880 -0.7366  0.2200
  202MOL0     H27870   6.734   3.066   9.478 -0.8842 -0.8792 -1.9242
  202MOL0     H27871   6.767   3.243   9.477 -2.1859  0.8863 -0.4526
  202MOL0     H27872   6.684   3.220   9.081 -0.5379 -1.1183 -0.3137
  202MOL0     H27873   6.081   3.254   9.631 -1.4259  0.5965  5.4744
  202MOL0     H27874   5.732   3.275   9.734  1.6251 -0.7544  0.7148
  202MOL0     H27875   5.875   3.371   9.687 -0.5375 -1.0239  1.3462
  202MOL0     H27876   5.771   3.303   9.556 -0.3979 -1.6998 -0.4980
  203MOL0     O27877   8.925   8.202   0.673  0.2431  0.2821  0.1687
  203MOL0     C27878   8.951   8.191   0.793 -0.7003 -1.1369 -0.5722
  203MOL0     O27879   9.051   8.120   0.856 -0.8342 -0.0169 -0.2411
  203MOL0     C27880   9.157   8.091   0.777  0.5532  0.6785  0.9890
  203MOL0     C27881   9.261   8.181   0.764 -1.0908  0.7831  0.1743
  203MOL0     C27882   9.378   8.146   0.683 -0.4396  0.2970  0.3854
  203MOL0     C27883   9.391   8.019   0.628 -0.7968 -0.0622 -0.5913
  203MOL0     O27884   9.502   7.989   0.545  0.6474 -0.1443 -0.3732
  203MOL0     C27885   9.635   8.000   0.596 -0.4289  0.0108  0.6042
  203MOL0     C27886   9.724   7.916   0.505  0.0305 -0.4982  0.0794
  203MOL0     C27887   9.867   7.898   0.559  0.0422 -0.0077  0.1319
  203MOL0     C27888   9.953   7.838   0.451  0.1481  0.6722  0.1322
  203MOL0     C27889  10.099   7.821   0.485 -0.6363 -0.4335  0.0241
  203MOL0     C27890  10.176   7.753   0.371  0.9457  0.2561  0.1628
  203MOL0     C27891  10.317   7.717   0.405 -1.4884  0.3369 -0.5464
  203MOL0     C27892  10.424   7.832   0.399  0.5421 -1.1560  0.0387
  203MOL0     N27893  10.557   7.799   0.441 -0.6611 -0.5759  0.1248
  203MOL0     C27894  10.636   7.868   0.530  0.2698 -1.1413  0.0741
  203MOL0     C27895  10.762   7.822   0.526 -0.0272 -0.8227  0.9568
  203MOL0     C27896  10.881   7.879   0.606 -0.1891  0.2662 -0.5468
  203MOL0     C27897  11.012   7.892   0.521  0.0713  0.3166 -0.1067
  203MOL0     C27898  11.122   7.976   0.593  0.2242  0.3322 -0.7924
  203MOL0     C27899  11.182   7.901   0.718 -0.9336 -0.0613 -0.7369
  203MOL0     O27900  11.262   7.786   0.668  0.0236  0.1295  0.3107
  203MOL0     C27901  11.402   7.786   0.694  0.3466 -0.0041 -1.5713
  203MOL0     C27902  11.460   7.846   0.806  0.0815 -0.0189 -0.6344
  203MOL0     C27903  11.601   7.835   0.837 -1.1104  0.5739  0.2252
  203MOL0     C27904  11.656   7.922   0.941  0.3032 -0.5871 -0.3594
  203MOL0     C27905  11.671   7.745   0.759  0.6991  0.7747  0.5687
  203MOL0     C27906  11.811   7.709   0.778 -0.1997 -1.2437  0.9331
  203MOL0     O27907  11.854   7.680   0.894  0.2347 -0.6013  0.2581
  203MOL0     C27908  11.984   7.633   0.898 -0.1822  0.3183 -0.3790
  203MOL0     C27909  12.090   7.715   0.845  0.0040  0.1174  0.1285
  203MOL0     C27910  12.226   7.677   0.866  0.7640 -0.5952  0.1949
  203MOL0     C27911  12.261   7.559   0.937 -0.6152 -0.1839  0.1966
  203MOL0     O27912  12.389   7.509   0.939  0.5895 -0.1049 -0.3674
  203MOL0     C27913  12.497   7.579   0.885 -0.0483 -0.6898 -0.2301
  203MOL0     C27914  12.616   7.494   0.926 -0.2603 -0.1286 -0.4949
  203MOL0     C27915  12.744   7.563   0.869  0.0650 -0.0824 -0.8193
  203MOL0     C27916  12.883   7.505   0.941  0.1731  0.3308  0.6205
  203MOL0     C27917  13.017   7.563   0.884 -0.2899 -0.0606  0.1654
  203MOL0     C27918  13.018   7.717   0.925 -0.0054 -0.1930  0.3952
  203MOL0     C27919  13.052   7.729   1.075 -0.1151 -0.2263 -0.4522
  203MOL0     C27920  13.058   7.881   1.112  0.7676  0.7003 -0.0627
  203MOL0    Cl27921  13.197   7.972   1.050 -0.2793 -0.3915  0.0224
  203MOL0     C27922  12.163   7.481   0.991  0.4463 -0.6055  0.2783
  203MOL0     C27923  12.022   7.518   0.972 -0.3437  0.2798 -0.4722
  203MOL0     O27924  11.873   7.701   0.671 -0.0336  0.5949 -0.3682
  203MOL0     C27925  11.611   7.687   0.649  0.1746 -0.8872 -0.0093
  203MOL0     C27926  11.479   7.719   0.607 -0.7695 -0.0501 -0.2773
  203MOL0     N27927  10.762   7.711   0.432 -0.2391 -0.1969  0.2170
  203MOL0     N27928  10.651   7.714   0.381  0.0444  0.4793  0.6022
  203MOL0     C27929   9.286   7.935   0.647  0.8687 -0.0979  0.1043
  203MOL0     C27930   9.177   7.961   0.734 -0.0096 -0.0191 -0.3226
  203MOL0     C27931   8.855   8.257   0.890 -0.8039  0.5012 -0.2459
  203MOL0     C27932   8.867   8.225   1.028  0.7725  0.0602 -0.7258
  203MOL0     C27933   8.793   8.281   1.130  0.9518  0.2500  0.5987
  203MOL0     C27934   8.684   8.360   1.094  0.2716  1.0258 -0.2788
  203MOL0     O27935   8.617   8.403   1.208  0.4213  0.9040  0.3124
  203MOL0     C27936   8.488   8.468   1.194 -0.8082  0.1502  1.1405
  203MOL0     C27937   8.388   8.427   1.301  0.7946 -0.2197 -0.9404
  203MOL0     C27938   8.374   8.274   1.303  0.0861 -0.5545  0.1258
  203MOL0     C27939   8.291   8.234   1.423 -0.8774  0.4391  0.0372
  203MOL0     C27940   8.149   8.240   1.391 -0.0078  0.7532  0.2621
  203MOL0     C27941   8.034   8.225   1.371  0.7471  0.3048 -0.0554
  203MOL0     C27942   8.662   8.393   0.957  0.1159  0.2712 -0.0215
  203MOL0     C27943   8.746   8.344   0.856  0.0948  0.0181 -0.0887
  203MOL0     C27944   8.719   8.385   0.716 -0.0836 -0.0037 -0.3257
  203MOL0     H27945   9.255   8.279   0.811  0.3422  1.4965 -1.0585
  203MOL0     H27946   9.455   8.220   0.664 -1.9230  1.4686 -1.4801
  203MOL0     H27947   9.621   7.950   0.693  0.6396 -1.3232  0.0946
  203MOL0     H27948   9.677   8.101   0.597  0.1610 -0.0851 -2.7910
  203MOL0     H27949   9.680   7.818   0.485 -0.2603  0.1792 -3.2108
  203MOL0     H27950   9.737   7.956   0.404  3.3414  0.1225  0.6321
  203MOL0     H27951   9.901   7.998   0.590  1.8497 -0.2844 -0.8203
  203MOL0     H27952   9.862   7.842   0.653  1.3917 -1.4132 -0.6043
  203MOL0     H27953   9.921   7.740   0.413  0.2690  2.2792 -4.9486
  203MOL0     H27954   9.938   7.894   0.357 -1.8457 -1.1197 -0.7030
  203MOL0     H27955  10.098   7.769   0.581 -2.4178  1.0431  0.8877
  203MOL0     H27956  10.151   7.917   0.497  0.1104 -0.9906  1.4514
  203MOL0     H27957  10.120   7.662   0.347  0.5500  1.3519 -3.6905
  203MOL0     H27958  10.168   7.814   0.280  0.4886 -2.1729 -1.5158
  203MOL0     H27959  10.351   7.637   0.337 -1.4614 -0.4894  0.4154
  203MOL0     H27960  10.332   7.665   0.500 -0.7146  1.6882  0.1074
  203MOL0     H27961  10.440   7.867   0.297  0.1203 -0.4460  0.2055
  203MOL0     H27962  10.387   7.916   0.460  0.8804 -0.9061 -0.0965
  203MOL0     H27963  10.601   7.956   0.583  0.0998 -0.4446 -1.1520
  203MOL0     H27964  10.898   7.805   0.685 -1.6560 -1.6153 -1.8770
  203MOL0     H27965  10.864   7.978   0.649 -0.7660 -0.4495  0.9410
  203MOL0     H27966  11.060   7.796   0.500 -3.4105 -1.3179 -1.4894
  203MOL0     H27967  10.984   7.961   0.440  2.9794  1.5207 -0.1823
  203MOL0     H27968  11.207   7.991   0.526 -0.4459 -1.1504 -2.0170
  203MOL0     H27969  11.083   8.072   0.630  2.6648  0.1265  2.8000
  203MOL0     H27970  11.231   7.977   0.779 -4.0439  1.4857  0.0219
  203MOL0     H27971  11.096   7.861   0.772 -0.0165  0.2505  1.0535
  203MOL0     H27972  11.401   7.911   0.869  1.6107  1.8242 -1.0334
  203MOL0     H27973  11.585   8.004   0.961  2.6649  1.4193  0.3127
  203MOL0     H27974  11.753   7.964   0.912  0.5559 -0.4845  0.6073
  203MOL0     H27975  11.668   7.871   1.037  0.7759  0.2709  0.0534
  203MOL0     H27976  12.071   7.809   0.795  1.6775  1.3761  1.7023
  203MOL0     H27977  12.306   7.736   0.821 -0.0884  0.7614  0.3860
  203MOL0     H27978  12.495   7.601   0.778 -3.2632  1.4955  0.1338
  203MOL0     H27979  12.505   7.681   0.925 -0.9413  0.4007 -2.6401
  203MOL0     H27980  12.625   7.489   1.035  0.7850  2.3745 -0.4014
  203MOL0     H27981  12.606   7.396   0.879  0.0391  0.3386 -1.5690
  203MOL0     H27982  12.749   7.668   0.897 -0.8223 -1.3927  6.2544
  203MOL0     H27983  12.741   7.546   0.761 -0.4932  2.6098 -1.2864
  203MOL0     H27984  12.863   7.399   0.923 -3.6488  1.1895 -1.4168
  203MOL0     H27985  12.878   7.525   1.048 -2.1382 -0.7983  0.7932
  203MOL0     H27986  13.102   7.504   0.920 -0.5167 -0.3323  0.2628
  203MOL0     H27987  13.029   7.572   0.775  1.0909  3.5884  0.4940
  203MOL0     H27988  12.924   7.767   0.902  0.5175  0.4680 -0.3681
  203MOL0     H27989  13.094   7.777   0.873  1.5350 -1.4843  1.0598
  203MOL0     H27990  13.140   7.668   1.096 -0.5831 -1.3831 -1.7358
  203MOL0     H27991  12.975   7.686   1.140 -0.4663 -0.3288 -0.9321
  203MOL0     H27992  13.051   7.887   1.221 -0.8133  0.5654 -0.1206
  203MOL0     H27993  12.972   7.936   1.072  0.6172  1.1156  0.8197
  203MOL0     H27994  12.183   7.386   1.039  2.3761 -0.4016 -0.0599
  203MOL0     H27995  11.937   7.458   1.003 -2.6837  2.5567 -2.0674
  203MOL0     H27996  11.663   7.626   0.576  1.1909  0.0850 -0.1361
  203MOL0     H27997  11.428   7.672   0.523  0.5147 -0.2338 -0.9858
  203MOL0     H27998   9.290   7.836   0.602 -0.9087  0.3594 -1.1919
  203MOL0     H27999   9.106   7.885   0.765  0.5508 -0.1211  0.7484
  203MOL0     H28000   8.952   8.163   1.055  0.4635 -1.3797 -2.8142
  203MOL0     H28001   8.798   8.255   1.235  2.3427  1.0287  0.7480
  203MOL0     H28002   8.491   8.577   1.198 -1.4277  0.3673 -1.7656
  203MOL0     H28003   8.440   8.449   1.097 -3.3191  1.2096  2.0780
  203MOL0     H28004   8.289   8.474   1.289  0.5987 -0.3141  0.2327
  203MOL0     H28005   8.421   8.460   1.399 -2.8013  0.0472  0.3466
  203MOL0     H28006   8.339   8.248   1.203 -0.6575  0.7644  0.0169
  203MOL0     H28007   8.472   8.229   1.319  0.1745 -1.0115 -1.5962
  203MOL0     H28008   8.313   8.296   1.510  0.9404  3.5553 -2.4391
  203MOL0     H28009   8.328   8.133   1.446 -0.4705  0.8234  1.1091
  203MOL0     H28010   7.934   8.196   1.344  1.0970 -2.0377  0.9327
  203MOL0     H28011   8.589   8.465   0.920 -1.5054 -1.3297 -0.0698
  203MOL0     H28012   8.678   8.305   0.654 -0.4305 -0.8942  1.0248
  203MOL0     H28013   8.641   8.462   0.708 -0.5623 -0.5663 -1.2594
  203MOL0     H28014   8.805   8.436   0.671 -1.7199  2.7918 -0.4821
  204MOL0     O28015   8.873   8.320   6.590  0.5014 -0.2665 -0.4901
  204MOL0     C28016   8.831   8.224   6.652 -0.2676 -0.3990  1.4131
  204MOL0     O28017   8.897   8.101   6.667  0.5393 -0.4367  0.0564
  204MOL0     C28018   9.015   8.080   6.611  0.0624  0.8177  0.2706
  204MOL0     C28019   9.015   7.972   6.519  0.3027 -0.4486 -0.3919
  204MOL0     C28020   9.134   7.927   6.465  0.0168  0.9773  0.5608
  204MOL0     C28021   9.261   7.995   6.484  0.9195 -0.2584 -0.8302
  204MOL0     O28022   9.381   7.949   6.426  0.7008  0.1673 -0.0052
  204MOL0     C28023   9.499   8.033   6.431  0.4718 -0.0942  0.7187
  204MOL0     C28024   9.594   7.984   6.323  0.4388 -0.3997  0.2670
  204MOL0     C28025   9.736   8.039   6.345  0.8145 -0.0246  0.4306
  204MOL0     C28026   9.735   8.190   6.315 -0.5011  0.2987  0.8589
  204MOL0     C28027   9.881   8.244   6.298  0.7839 -0.4800  0.8552
  204MOL0     C28028   9.955   8.246   6.435 -1.3550 -0.7743  0.2384
  204MOL0     C28029  10.103   8.307   6.420 -0.5543 -0.2544 -0.0244
  204MOL0     C28030  10.182   8.265   6.553 -0.2437 -0.4061  0.6018
  204MOL0     N28031  10.307   8.351   6.542 -0.6383 -0.1525  0.9015
  204MOL0     C28032  10.323   8.490   6.510  0.1919  0.4941 -0.4341
  204MOL0     C28033  10.454   8.501   6.507 -0.1385  0.0137  0.3610
  204MOL0     C28034  10.525   8.626   6.472 -0.3546 -0.1079 -0.3191
  204MOL0     C28035  10.667   8.634   6.524  0.7579 -0.4343 -0.2358
  204MOL0     C28036  10.772   8.573   6.438 -0.3510 -0.2760  0.1220
  204MOL0     C28037  10.913   8.609   6.489 -0.7103  0.8263 -0.2852
  204MOL0     O28038  11.004   8.539   6.407  0.3034 -0.0562  0.1926
  204MOL0     C28039  11.140   8.555   6.426  0.2933 -0.2001 -0.3900
  204MOL0     C28040  11.192   8.655   6.508 -0.0895  0.4515  0.2437
  204MOL0     C28041  11.333   8.662   6.516 -1.0494  0.1998 -0.8395
  204MOL0     C28042  11.378   8.762   6.609 -0.9156 -0.7830  0.6116
  204MOL0     C28043  11.417   8.577   6.437  0.8235  0.4120 -0.5857
  204MOL0     C28044  11.565   8.584   6.430  0.2683  0.2532 -0.4903
  204MOL0     O28045  11.627   8.528   6.316 -0.0936 -1.0448  0.4326
  204MOL0     C28046  11.759   8.557   6.287 -0.3365  0.1584  0.0866
  204MOL0     C28047  11.785   8.547   6.146  0.1823  0.6800 -0.3721
  204MOL0     C28048  11.905   8.588   6.091  0.5562  0.1947 -0.2963
  204MOL0     C28049  12.005   8.627   6.172  0.1378 -0.0928  0.4720
  204MOL0     O28050  12.125   8.680   6.124 -0.2119  0.1060  0.3306
  204MOL0     C28051  12.171   8.667   5.981  0.2918 -1.3292 -0.2147
  204MOL0     C28052  12.325   8.676   5.979  0.5602 -0.0848 -0.0837
  204MOL0     C28053  12.376   8.692   5.838 -0.3288  0.4571  0.0144
  204MOL0     C28054  12.388   8.844   5.800  0.1626  0.2665  0.1624
  204MOL0     C28055  12.418   8.869   5.652  0.5942  0.2714  0.4028
  204MOL0     C28056  12.563   8.840   5.621 -0.5866  0.3644  0.2772
  204MOL0     C28057  12.576   8.838   5.469 -0.1967  0.6032 -0.9652
  204MOL0     C28058  12.725   8.822   5.418 -0.4503  0.0549 -1.1764
  204MOL0    Cl28059  12.809   8.984   5.431 -0.1283  0.4013  0.3426
  204MOL0     C28060  11.990   8.620   6.309  0.4167 -0.0339  0.2910
  204MOL0     C28061  11.870   8.589   6.368 -0.2000 -0.3545 -0.6531
  204MOL0     O28062  11.626   8.631   6.528  0.1532  0.1742  0.5682
  204MOL0     C28063  11.357   8.472   6.361 -0.2540  0.7597  0.1001
  204MOL0     C28064  11.218   8.466   6.350  0.8448 -0.0504 -0.7386
  204MOL0     N28065  10.519   8.379   6.521 -0.2024 -0.3288  0.1089
  204MOL0     N28066  10.433   8.287   6.535  0.1242 -0.5157 -0.9981
  204MOL0     C28067   9.258   8.101   6.577  0.3563 -0.0138 -0.6136
  204MOL0     C28068   9.137   8.140   6.641  0.1219 -0.2650  0.7392
  204MOL0     C28069   8.688   8.230   6.685 -0.2718 -0.0338 -0.3071
  204MOL0     C28070   8.616   8.110   6.704  0.1617 -0.6489 -0.3502
  204MOL0     C28071   8.479   8.121   6.743  0.3503  0.1465  0.1149
  204MOL0     C28072   8.407   8.236   6.763 -0.5230  1.2407  0.2166
  204MOL0     O28073   8.278   8.245   6.808 -0.4974  0.1884 -0.3472
  204MOL0     C28074   8.213   8.136   6.877 -0.3845  0.4966  0.3121
  204MOL0     C28075   8.258   8.143   7.024  0.1828 -0.0815  0.5476
  204MOL0     C28076   8.234   8.277   7.095  0.9005  0.1610  0.4677
  204MOL0     C28077   8.084   8.314   7.121 -0.4931 -0.2850  0.2865
  204MOL0     C28078   8.054   8.431   7.208  0.5446 -0.1712  0.6159
  204MOL0     C28079   8.009   8.507   7.287  0.3451 -1.1432  0.0411
  204MOL0     C28080   8.479   8.351   6.745  0.2578  0.1293  0.8399
  204MOL0     C28081   8.613   8.352   6.705 -0.1084  0.2142  0.5718
  204MOL0     C28082   8.679   8.487   6.693  0.2525 -0.4220  0.3065
  204MOL0     H28083   8.925   7.915   6.498  0.9028 -0.6369 -2.7632
  204MOL0     H28084   9.120   7.840   6.402 -0.7926  0.7882  0.9819
  204MOL0     H28085   9.534   8.035   6.534 -1.5091  0.0403  1.4361
  204MOL0     H28086   9.467   8.134   6.404  2.0724  0.5306  1.0492
  204MOL0     H28087   9.590   7.875   6.319  0.7412 -0.3700 -1.9132
  204MOL0     H28088   9.568   8.027   6.226  2.6049 -0.2779 -0.3192
  204MOL0     H28089   9.770   8.016   6.447 -1.3642 -0.8830  1.0188
  204MOL0     H28090   9.794   7.989   6.268 -2.2987 -0.0183 -2.1404
  204MOL0     H28091   9.693   8.202   6.215  0.3927 -3.1879 -0.0693
  204MOL0     H28092   9.683   8.254   6.387  0.1462  0.6074  1.0562
  204MOL0     H28093   9.870   8.342   6.251  0.9790 -0.8172  0.0841
  204MOL0     H28094   9.934   8.178   6.228  3.7766  1.0550  1.5039
  204MOL0     H28095   9.900   8.313   6.501 -0.1102  1.3390 -0.7537
  204MOL0     H28096   9.972   8.145   6.471  1.5251 -1.0365 -1.5431
  204MOL0     H28097  10.107   8.415   6.402  1.4102 -0.0838  1.1923
  204MOL0     H28098  10.145   8.245   6.340  0.4862 -0.8537  0.9565
  204MOL0     H28099  10.136   8.275   6.651 -0.9696  1.0089  0.1436
  204MOL0     H28100  10.219   8.164   6.535  0.4513 -0.1035  0.2543
  204MOL0     H28101  10.246   8.566   6.503  1.7088  2.1625  0.4799
  204MOL0     H28102  10.471   8.706   6.523  0.3734 -0.1722  0.5762
  204MOL0     H28103  10.509   8.633   6.364 -0.2502  1.4712 -0.2500
  204MOL0     H28104  10.694   8.740   6.527 -2.0404  0.3827 -1.2537
  204MOL0     H28105  10.659   8.604   6.629  0.2711 -0.0547 -0.1646
  204MOL0     H28106  10.763   8.464   6.444 -0.6378 -0.1850  1.8454
  204MOL0     H28107  10.751   8.606   6.336 -0.5421  0.3891  0.3741
  204MOL0     H28108  10.932   8.717   6.478 -1.0578  1.2451  2.5376
  204MOL0     H28109  10.931   8.585   6.594  0.5648 -0.6168 -0.8020
  204MOL0     H28110  11.125   8.729   6.551 -1.3817 -0.0421 -0.8467
  204MOL0     H28111  11.442   8.836   6.559 -1.6517 -1.7316 -1.9059
  204MOL0     H28112  11.429   8.710   6.690  0.8690  1.2475  0.8820
  204MOL0     H28113  11.303   8.815   6.669  1.9012 -1.0463  4.7750
  204MOL0     H28114  11.713   8.507   6.076 -0.6205 -1.2317  1.4233
  204MOL0     H28115  11.922   8.580   5.984 -2.0504 -1.3931 -0.6915
  204MOL0     H28116  12.149   8.565   5.950  1.4132 -1.3327 -1.0877
  204MOL0     H28117  12.121   8.743   5.921  1.7471  0.1089  0.2858
  204MOL0     H28118  12.352   8.758   6.046  1.2637 -0.2110 -0.2110
  204MOL0     H28119  12.377   8.592   6.027 -0.8704 -1.6091 -1.0809
  204MOL0     H28120  12.313   8.638   5.767  0.9976  1.3461 -1.9165
  204MOL0     H28121  12.473   8.642   5.841 -0.8362 -0.5178  2.1071
  204MOL0     H28122  12.464   8.895   5.860  2.0645 -0.8508 -1.2268
  204MOL0     H28123  12.289   8.890   5.816 -0.1939 -0.1346 -0.7970
  204MOL0     H28124  12.354   8.820   5.578 -0.4411  1.6320  0.3500
  204MOL0     H28125  12.395   8.975   5.635  1.0712  0.2362 -0.5411
  204MOL0     H28126  12.583   8.744   5.669 -0.9457  0.1740  0.0534
  204MOL0     H28127  12.633   8.902   5.677 -0.5731 -0.5198  1.2693
  204MOL0     H28128  12.518   8.919   5.424 -1.1488 -0.0178 -0.8877
  204MOL0     H28129  12.522   8.748   5.438  0.9341 -0.9685  1.3011
  204MOL0     H28130  12.725   8.788   5.314 -0.9903  1.1804 -1.5603
  204MOL0     H28131  12.779   8.746   5.476  3.1376  1.6576 -2.1565
  204MOL0     H28132  12.065   8.656   6.378 -0.0077  2.9620 -0.6625
  204MOL0     H28133  11.858   8.602   6.475  1.9080 -3.1993  0.0471
  204MOL0     H28134  11.417   8.399   6.308  1.2121  1.9737 -0.0035
  204MOL0     H28135  11.174   8.396   6.279 -2.7758 -0.0372  1.2467
  204MOL0     H28136   9.359   8.141   6.592  0.6770 -0.4150 -1.6530
  204MOL0     H28137   9.127   8.229   6.702 -3.1240 -0.7719  1.1012
  204MOL0     H28138   8.667   8.017   6.680  2.0398  0.5904 -1.4410
  204MOL0     H28139   8.420   8.030   6.753 -2.4618  1.6743 -1.3721
  204MOL0     H28140   8.104   8.142   6.874 -0.4304 -0.4320 -2.5773
  204MOL0     H28141   8.241   8.049   6.817  2.8507  0.8874  1.0358
  204MOL0     H28142   8.364   8.121   7.038  0.5107  0.8720 -0.3719
  204MOL0     H28143   8.206   8.067   7.083  0.9650 -0.3133  0.9400
  204MOL0     H28144   8.279   8.265   7.194 -2.5494  0.7578  2.2368
  204MOL0     H28145   8.282   8.362   7.045  2.2778  1.5404  3.8793
  204MOL0     H28146   8.052   8.231   7.186  0.0147 -0.3843  0.4126
  204MOL0     H28147   8.033   8.335   7.026  0.8548  0.4673 -0.2964
  204MOL0     H28148   7.975   8.588   7.348 -0.5536 -2.1304  0.9074
  204MOL0     H28149   8.413   8.436   6.765 -1.2665 -0.9132  0.3992
  204MOL0     H28150   8.774   8.484   6.747 -0.1486  1.4077  1.1944
  204MOL0     H28151   8.690   8.520   6.589 -0.1578 -1.5637 -0.1156
  204MOL0     H28152   8.630   8.574   6.737  0.7011  0.2802 -0.5574
  205MOL0     O28153   2.518  11.188   6.181  0.3722 -0.0341  0.3226
  205MOL0     C28154   2.423  11.121   6.221 -0.1836  0.3583 -0.1926
  205MOL0     O28155   2.419  11.069   6.348 -0.6615  0.0788 -0.0522
  205MOL0     C28156   2.533  11.100   6.418 -0.0742 -0.1775  0.4316
  205MOL0     C28157   2.520  11.182   6.532 -1.0003 -0.1975  1.2967
  205MOL0     C28158   2.636  11.210   6.602 -0.1909 -0.3107  0.7698
  205MOL0     C28159   2.769  11.163   6.567 -0.4193  0.3150 -0.0774
  205MOL0     O28160   2.890  11.182   6.641 -0.5455  0.5017  0.2761
  205MOL0     C28161   2.874  11.217   6.777  0.4668  0.1990 -1.1764
  205MOL0     C28162   3.014  11.216   6.842  0.6125  0.8887  0.2693
  205MOL0     C28163   3.128  11.271   6.767  0.2794 -0.0323 -0.4089
  205MOL0     C28164   3.113  11.424   6.719  0.7375  0.7010 -0.7540
  205MOL0     C28165   3.248  11.494   6.712  0.5549  0.6405 -0.5851
  205MOL0     C28166   3.295  11.534   6.852 -0.0355  0.4125  0.1155
  205MOL0     C28167   3.447  11.582   6.855 -0.0273  0.8064  0.5167
  205MOL0     C28168   3.544  11.470   6.813 -0.4492 -0.3110 -0.0184
  205MOL0     N28169   3.669  11.495   6.875  0.1742  0.5461  0.7748
  205MOL0     C28170   3.765  11.571   6.812  0.0538 -1.3926 -0.1769
  205MOL0     C28171   3.848  11.595   6.914 -0.2270 -0.0663 -0.1238
  205MOL0     C28172   3.977  11.670   6.898 -0.1747 -0.8926 -1.1741
  205MOL0     C28173   4.082  11.586   6.816 -0.2315 -0.1710 -0.2338
  205MOL0     C28174   4.211  11.672   6.799  0.7121 -0.1680 -0.4117
  205MOL0     C28175   4.331  11.601   6.854  0.6231 -0.3812 -0.0268
  205MOL0     O28176   4.439  11.671   6.788 -0.3107  1.0285  0.7243
  205MOL0     C28177   4.555  11.681   6.862 -0.0035 -0.2307  0.4959
  205MOL0     C28178   4.669  11.746   6.806 -0.1774  0.4899 -0.3962
  205MOL0     C28179   4.798  11.754   6.865  1.2853 -0.2995 -0.0305
  205MOL0     C28180   4.903  11.833   6.789  0.1352 -0.2388  0.2890
  205MOL0     C28181   4.823  11.690   6.991  0.7622 -0.7612  0.1827
  205MOL0     C28182   4.949  11.700   7.064 -0.1453  0.6248 -0.5321
  205MOL0     O28183   4.957  11.627   7.179 -0.1519  0.3173  0.3991
  205MOL0     C28184   5.068  11.613   7.263  0.2624 -0.3076  0.4635
  205MOL0     C28185   5.115  11.482   7.290 -0.6522  0.3312  0.9622
  205MOL0     C28186   5.241  11.453   7.347 -0.1172 -0.4440  0.1636
  205MOL0     C28187   5.316  11.567   7.395  0.0857  0.0365 -1.1730
  205MOL0     O28188   5.422  11.538   7.478 -0.5287  0.1678 -0.0558
  205MOL0     C28189   5.500  11.643   7.535 -0.3259  0.1049 -0.7077
  205MOL0     C28190   5.610  11.572   7.611 -0.0490  0.0404  0.0366
  205MOL0     C28191   5.713  11.677   7.646 -0.0656  0.1341 -0.1316
  205MOL0     C28192   5.839  11.619   7.713 -0.4418 -0.9380  0.6056
  205MOL0     C28193   5.969  11.711   7.694 -1.0446 -0.0333 -0.0145
  205MOL0     C28194   6.089  11.650   7.764  0.7369  0.6804 -0.2935
  205MOL0     C28195   6.203  11.747   7.769 -0.5647 -0.6885  0.0838
  205MOL0     C28196   6.340  11.693   7.794 -1.0243 -0.3919  0.1976
  205MOL0    Cl28197   6.465  11.813   7.835  0.2314 -0.5733 -0.0972
  205MOL0     C28198   5.267  11.699   7.382 -0.3630  0.6263 -0.2245
  205MOL0     C28199   5.144  11.726   7.311 -0.0687  0.0832  0.1532
  205MOL0     O28200   5.035  11.783   7.032 -0.0857  0.3995  0.9280
  205MOL0     C28201   4.715  11.609   7.046  0.7509 -0.4322 -1.4090
  205MOL0     C28202   4.586  11.606   6.979  1.3075 -0.8211  0.1495
  205MOL0     N28203   3.810  11.534   7.031 -0.2887 -0.0278 -0.6398
  205MOL0     N28204   3.694  11.481   7.008  0.3886  0.0513  0.1690
  205MOL0     C28205   2.776  11.087   6.453 -0.6087 -0.4117  0.3735
  205MOL0     C28206   2.662  11.056   6.383  0.8017 -0.0444 -1.2330
  205MOL0     C28207   2.299  11.102   6.147  0.7673  0.2546  0.5884
  205MOL0     C28208   2.197  11.013   6.198  0.6297 -0.1739 -0.0883
  205MOL0     C28209   2.079  10.989   6.126  0.9298 -0.3996  0.6544
  205MOL0     C28210   2.071  11.036   5.993 -0.3031 -1.1505 -0.5141
  205MOL0     O28211   1.966  10.991   5.912  0.3862  0.6166 -0.2727
  205MOL0     C28212   1.988  10.931   5.778  0.1600  0.6523  0.9057
  205MOL0     C28213   1.960  10.780   5.770  0.1797 -0.9799  0.5566
  205MOL0     C28214   1.814  10.744   5.786 -0.2618 -0.3089  0.4734
  205MOL0     C28215   1.730  10.785   5.666 -0.2086 -0.0634 -0.6504
  205MOL0     C28216   1.762  10.687   5.559 -0.1708 -0.3057  0.5955
  205MOL0     C28217   1.795  10.593   5.489 -1.1889 -0.7418  0.2415
  205MOL0     C28218   2.161  11.124   5.941 -0.4131 -0.2416 -0.8763
  205MOL0     C28219   2.276  11.157   6.013 -0.3860  0.7409 -0.2623
  205MOL0     C28220   2.364  11.269   5.949  0.7674  0.1629 -0.9014
  205MOL0     H28221   2.425  11.224   6.564 -0.1588  0.0413  3.6397
  205MOL0     H28222   2.633  11.279   6.686  1.8829 -1.0116  1.4826
  205MOL0     H28223   2.804  11.149   6.827  4.0276 -1.3222  2.3424
  205MOL0     H28224   2.835  11.318   6.786  0.4599  0.0147  2.2221
  205MOL0     H28225   3.016  11.264   6.940  0.7562 -1.2039  1.3326
  205MOL0     H28226   3.028  11.109   6.856  0.4081  1.1024  2.3909
  205MOL0     H28227   3.217  11.258   6.830 -0.4267 -2.8746  0.1652
  205MOL0     H28228   3.142  11.207   6.679  2.3404 -2.1863  1.3244
  205MOL0     H28229   3.054  11.440   6.628 -2.6619 -1.6653  0.7799
  205MOL0     H28230   3.045  11.462   6.796  1.9693 -0.8020  1.1584
  205MOL0     H28231   3.233  11.583   6.651 -0.6969  1.3265  0.6618
  205MOL0     H28232   3.319  11.427   6.662  0.8253 -0.2755  0.9380
  205MOL0     H28233   3.234  11.619   6.884  2.1378  2.2549 -0.4192
  205MOL0     H28234   3.281  11.455   6.927  0.1112 -0.2444 -0.5456
  205MOL0     H28235   3.473  11.611   6.957  0.6355  1.5090  0.1554
  205MOL0     H28236   3.457  11.670   6.791 -0.8817  0.0783 -0.6631
  205MOL0     H28237   3.508  11.373   6.849  1.3943 -0.5129  1.4633
  205MOL0     H28238   3.560  11.461   6.705 -2.9338 -1.8543 -0.3259
  205MOL0     H28239   3.770  11.611   6.711  4.4791  1.0650  0.7162
  205MOL0     H28240   4.022  11.692   6.995  0.0525 -0.4810 -1.3691
  205MOL0     H28241   3.947  11.767   6.856 -4.1036 -0.5824  1.7779
  205MOL0     H28242   4.113  11.493   6.863  1.8480  1.1395  1.1767
  205MOL0     H28243   4.039  11.570   6.717 -1.2567 -0.9062  0.3181
  205MOL0     H28244   4.222  11.688   6.691 -2.9309  1.4932 -0.6777
  205MOL0     H28245   4.200  11.769   6.847  0.7867 -0.8916  1.1379
  205MOL0     H28246   4.330  11.607   6.963 -0.5150 -3.3332  0.2268
  205MOL0     H28247   4.332  11.495   6.827 -3.6882 -0.4904 -0.5472
  205MOL0     H28248   4.658  11.787   6.706 -1.9201 -1.0292 -0.8721
  205MOL0     H28249   4.992  11.769   6.784  1.6416  1.6484  1.6086
  205MOL0     H28250   4.938  11.926   6.835 -2.4300 -0.2604  2.5359
  205MOL0     H28251   4.876  11.839   6.683  2.8032  1.9360 -0.3976
  205MOL0     H28252   5.061  11.396   7.251  0.2357  0.6496 -1.1186
  205MOL0     H28253   5.282  11.354   7.367  0.4419 -0.8444 -2.5817
  205MOL0     H28254   5.545  11.712   7.463  2.9671  0.3731  1.4403
  205MOL0     H28255   5.434  11.698   7.603 -0.3932  2.4557 -2.5317
  205MOL0     H28256   5.578  11.518   7.700  2.1506 -2.0982 -0.3449
  205MOL0     H28257   5.662  11.497   7.550  1.9008  2.1006 -0.9832
  205MOL0     H28258   5.673  11.761   7.703  0.4455 -0.6013  1.3580
  205MOL0     H28259   5.750  11.727   7.556 -1.2829 -0.1640 -0.8197
  205MOL0     H28260   5.846  11.515   7.681  0.0724 -0.4695 -0.8504
  205MOL0     H28261   5.799  11.621   7.815 -1.5846 -1.5837  0.1877
  205MOL0     H28262   5.990  11.725   7.587  0.1651 -0.6719  0.1272
  205MOL0     H28263   5.945  11.810   7.734 -2.3171 -1.5207  3.2394
  205MOL0     H28264   6.126  11.558   7.716  2.6401  1.7466 -0.9825
  205MOL0     H28265   6.053  11.621   7.863  0.0588 -1.3984 -1.0859
  205MOL0     H28266   6.178  11.816   7.850 -3.2911 -2.4150  0.8569
  205MOL0     H28267   6.202  11.802   7.674 -1.5709  1.7867  1.4416
  205MOL0     H28268   6.371  11.638   7.705  0.5573  2.1234 -0.9347
  205MOL0     H28269   6.348  11.617   7.872  0.5152 -1.0667 -0.5646
  205MOL0     H28270   5.310  11.785   7.433 -1.0381  0.2339  1.0601
  205MOL0     H28271   5.093  11.818   7.287 -1.3566 -0.9902 -1.4697
  205MOL0     H28272   4.721  11.566   7.145  1.4544  2.3661 -0.1450
  205MOL0     H28273   4.504  11.556   7.029  2.1236 -0.5210  1.8446
  205MOL0     H28274   2.872  11.043   6.431 -1.1212 -1.5546  0.3374
  205MOL0     H28275   2.677  10.991   6.297 -0.5143 -2.7561  0.4784
  205MOL0     H28276   2.198  10.958   6.292  2.9536 -1.9049 -1.0429
  205MOL0     H28277   2.007  10.919   6.166 -0.5356  2.0699  2.6167
  205MOL0     H28278   1.938  10.977   5.693  1.3811 -0.6644 -0.5769
  205MOL0     H28279   2.091  10.939   5.741 -0.3498  0.0056 -0.7192
  205MOL0     H28280   2.021  10.740   5.851  1.3917  0.2440  0.2828
  205MOL0     H28281   1.997  10.750   5.672 -0.1631 -3.0826  1.0366
  205MOL0     H28282   1.800  10.638   5.806  3.2209 -0.9789  0.0413
  205MOL0     H28283   1.783  10.802   5.874 -1.1859  0.7128 -0.4863
  205MOL0     H28284   1.754  10.887   5.635  0.6084  0.8216  2.5165
  205MOL0     H28285   1.624  10.777   5.692  0.3582  2.3734  3.0723
  205MOL0     H28286   1.829  10.514   5.424 -1.1644  0.1884 -0.9108
  205MOL0     H28287   2.162  11.169   5.842  2.0119  2.2721  0.1393
  205MOL0     H28288   2.448  11.209   5.911 -0.5263 -2.3897  0.0596
  205MOL0     H28289   2.324  11.330   5.867  3.0103  0.4525 -1.8682
  205MOL0     H28290   2.391  11.344   6.023  0.3056  0.2088 -0.7792
  206MOL0     O28291   9.489   7.944   7.998 -0.1220  0.1033  0.8586
  206MOL0     C28292   9.477   7.860   7.902  0.3806  0.1362 -0.1012
  206MOL0     O28293   9.579   7.806   7.835 -0.7680 -0.5502  0.1158
  206MOL0     C28294   9.698   7.886   7.841  0.4035  0.6534 -0.1397
  206MOL0     C28295   9.716   7.985   7.742 -0.6833 -0.3169 -0.7604
  206MOL0     C28296   9.824   8.070   7.747 -0.0155  0.3365  0.3651
  206MOL0     C28297   9.925   8.055   7.845  0.0312 -0.0743 -1.0766
  206MOL0     O28298  10.036   8.138   7.846  0.9246  0.4598  0.0270
  206MOL0     C28299  10.165   8.092   7.902  0.4701  0.0826 -0.5375
  206MOL0     C28300  10.280   8.138   7.819 -0.4618 -1.1949 -0.5308
  206MOL0     C28301  10.387   8.031   7.815 -0.0911  0.4228 -0.3005
  206MOL0     C28302  10.528   8.089   7.773 -0.4987  0.2818 -0.1221
  206MOL0     C28303  10.620   7.980   7.718  0.6816 -0.4859 -0.3047
  206MOL0     C28304  10.685   7.892   7.829  0.0038 -0.4075 -0.0531
  206MOL0     C28305  10.730   7.759   7.779 -0.3238 -0.0151 -1.0555
  206MOL0     C28306  10.889   7.732   7.775  0.8204  0.0296  1.3520
  206MOL0     N28307  10.956   7.824   7.679  0.9454  0.8012  0.5660
  206MOL0     C28308  11.002   7.952   7.701 -0.8704 -1.4156  1.1923
  206MOL0     C28309  11.078   7.977   7.592 -0.8695 -0.2109  0.0258
  206MOL0     C28310  11.149   8.106   7.568 -0.8170 -1.6132 -0.5077
  206MOL0     C28311  11.082   8.182   7.456 -0.0770  0.1444  0.7453
  206MOL0     C28312  11.153   8.306   7.417 -0.4614 -0.3578 -0.7732
  206MOL0     C28313  11.103   8.368   7.288 -0.1839 -0.5416 -0.2994
  206MOL0     O28314  11.177   8.493   7.266  0.5020 -1.1073  0.2950
  206MOL0     C28315  11.144   8.587   7.178  0.5111  0.0784 -0.5153
  206MOL0     C28316  11.240   8.684   7.153 -0.0795  0.3245 -0.2003
  206MOL0     C28317  11.233   8.776   7.053  0.5360 -0.3996 -0.5175
  206MOL0     C28318  11.349   8.871   7.055 -0.1569 -0.6452 -0.2996
  206MOL0     C28319  11.117   8.788   6.977  0.1425  0.6643 -0.0232
  206MOL0     C28320  11.086   8.891   6.877  0.3220 -0.5312  0.5558
  206MOL0     O28321  10.954   8.912   6.853 -0.1077  0.0243  0.4270
  206MOL0     C28322  10.915   9.016   6.776 -0.1730  0.4026 -0.3586
  206MOL0     C28323  10.915   9.148   6.824  0.5137 -0.6378 -0.2161
  206MOL0     C28324  10.860   9.248   6.742 -0.2683 -0.1347 -0.2011
  206MOL0     C28325  10.808   9.217   6.617 -0.1671  0.6315  0.3990
  206MOL0     O28326  10.761   9.323   6.539  0.8575  0.0212  0.2112
  206MOL0     C28327  10.847   9.435   6.523  0.5593 -0.4155 -2.2139
  206MOL0     C28328  10.803   9.502   6.388 -0.5463 -0.5793  0.5475
  206MOL0     C28329  10.865   9.645   6.383  0.5270  0.0067  0.0293
  206MOL0     C28330  10.769   9.752   6.448  0.0650  0.5212  0.9659
  206MOL0     C28331  10.839   9.890   6.430  0.0644  0.8218  1.0044
  206MOL0     C28332  10.765  10.003   6.496  0.6263  0.5578  0.3564
  206MOL0     C28333  10.853  10.137   6.501  0.0251 -0.2484  0.1296
  206MOL0     C28334  10.767  10.262   6.500 -0.9236 -0.1042  0.6512
  206MOL0    Cl28335  10.867  10.402   6.522 -0.3434  0.1555 -0.0381
  206MOL0     C28336  10.808   9.091   6.567 -0.1427  0.5565 -0.6848
  206MOL0     C28337  10.866   8.990   6.648  0.6776 -0.4690  0.6592
  206MOL0     O28338  11.179   8.962   6.834 -0.9395 -0.1065 -0.8767
  206MOL0     C28339  11.023   8.697   7.000  0.4844 -0.0214 -0.4525
  206MOL0     C28340  11.031   8.594   7.098 -0.4142  0.9157  0.8017
  206MOL0     N28341  11.079   7.866   7.513 -0.0372 -0.7340  0.5316
  206MOL0     N28342  10.992   7.786   7.556 -0.2199 -0.1051  0.2257
  206MOL0     C28343   9.906   7.947   7.937  0.0187 -0.6103 -0.0850
  206MOL0     C28344   9.792   7.867   7.941 -0.2719  0.5732  0.5099
  206MOL0     C28345   9.333   7.811   7.886 -0.1172  0.7360 -0.0902
  206MOL0     C28346   9.315   7.675   7.873  0.6774  0.1554 -0.0307
  206MOL0     C28347   9.186   7.613   7.870 -0.2120 -0.3931  0.0226
  206MOL0     C28348   9.072   7.683   7.888 -0.6590  0.3545 -0.3473
  206MOL0     O28349   8.949   7.623   7.884  0.2767 -0.2007  0.6103
  206MOL0     C28350   8.930   7.492   7.833 -1.3159 -0.3976 -0.2542
  206MOL0     C28351   8.785   7.464   7.816  0.8896  1.4901  0.6357
  206MOL0     C28352   8.709   7.440   7.948 -0.1770 -0.2284 -0.0138
  206MOL0     C28353   8.555   7.476   7.936  0.1935 -0.1489  0.2222
  206MOL0     C28354   8.483   7.408   8.046  0.0895  1.0273  0.3173
  206MOL0     C28355   8.440   7.340   8.141  0.1034 -0.1556  0.9019
  206MOL0     C28356   9.089   7.817   7.908  0.2730 -0.5056 -0.0579
  206MOL0     C28357   9.217   7.885   7.911  0.3276  0.0050 -0.6036
  206MOL0     C28358   9.205   8.038   7.936  0.0856  0.5829 -0.1481
  206MOL0     H28359   9.661   8.003   7.651 -1.4330  1.1099 -0.0597
  206MOL0     H28360   9.847   8.142   7.669 -0.6414  0.9939  0.7742
  206MOL0     H28361  10.174   7.983   7.910 -0.9660 -0.0581 -0.5968
  206MOL0     H28362  10.163   8.125   8.006 -2.9943 -0.1369 -0.4212
  206MOL0     H28363  10.239   8.157   7.719  0.5173 -1.2584 -0.9510
  206MOL0     H28364  10.306   8.237   7.857  0.4708 -2.4324  2.3939
  206MOL0     H28365  10.387   7.967   7.904 -0.9914  0.8903  0.0540
  206MOL0     H28366  10.360   7.959   7.737  1.9218 -0.9030  0.1685
  206MOL0     H28367  10.514   8.158   7.689 -0.8444 -3.5228 -3.5205
  206MOL0     H28368  10.584   8.137   7.853 -3.8965  1.8122  1.5311
  206MOL0     H28369  10.705   8.015   7.659  0.7211  0.0359  0.0616
  206MOL0     H28370  10.552   7.924   7.654 -1.6259  3.9608 -2.1832
  206MOL0     H28371  10.772   7.942   7.874  2.0094 -2.3828 -1.4985
  206MOL0     H28372  10.615   7.875   7.911 -0.2454  0.9355  0.0292
  206MOL0     H28373  10.687   7.725   7.684 -0.8122 -2.1502 -0.1334
  206MOL0     H28374  10.684   7.697   7.857 -0.3255  2.1968  0.8060
  206MOL0     H28375  10.918   7.748   7.879 -1.3217  2.6747  1.6630
  206MOL0     H28376  10.905   7.626   7.751 -0.2457 -0.1042  1.1796
  206MOL0     H28377  10.978   8.015   7.785 -1.2088 -0.7472  0.6010
  206MOL0     H28378  11.253   8.093   7.538 -0.5693 -1.6762  0.3688
  206MOL0     H28379  11.154   8.169   7.657 -1.3985 -0.2012 -1.4226
  206MOL0     H28380  11.086   8.113   7.371  2.2584 -1.4789  2.0614
  206MOL0     H28381  10.981   8.206   7.491 -0.5942  2.5574 -1.9772
  206MOL0     H28382  11.131   8.368   7.505 -0.2554  0.6848 -1.4429
  206MOL0     H28383  11.262   8.296   7.412 -0.4480  0.3242 -2.6728
  206MOL0     H28384  11.124   8.302   7.204  1.7974 -1.1142  0.5918
  206MOL0     H28385  10.995   8.387   7.298 -0.1602 -1.3613  2.1905
  206MOL0     H28386  11.328   8.681   7.217 -1.2873  1.3567  1.5726
  206MOL0     H28387  11.427   8.838   7.124  0.1460  2.1393  0.8333
  206MOL0     H28388  11.308   8.969   7.083  1.1123  0.4117 -1.9575
  206MOL0     H28389  11.401   8.881   6.959  0.3189  0.9354  0.0884
  206MOL0     H28390  10.947   9.167   6.926  1.7425  2.2202 -1.0568
  206MOL0     H28391  10.858   9.350   6.778  2.3985  0.1684 -0.7210
  206MOL0     H28392  10.842   9.507   6.606  1.0570 -1.7249 -1.0045
  206MOL0     H28393  10.947   9.394   6.512  0.4082 -0.6277 -2.8379
  206MOL0     H28394  10.844   9.434   6.313  0.8057 -2.1778  2.6137
  206MOL0     H28395  10.696   9.519   6.400 -0.1549  0.5257  3.1616
  206MOL0     H28396  10.880   9.672   6.278 -0.7993 -1.7238 -0.6765
  206MOL0     H28397  10.958   9.645   6.441  0.4772 -0.8646  0.1244
  206MOL0     H28398  10.761   9.732   6.555  0.0055  0.5786  0.9723
  206MOL0     H28399  10.667   9.764   6.412 -1.4475  1.7661  5.1552
  206MOL0     H28400  10.940   9.890   6.472  0.4240  1.4129  0.1671
  206MOL0     H28401  10.852   9.914   6.324 -2.1066  0.3038  0.5635
  206MOL0     H28402  10.736   9.992   6.601 -0.1594  1.0162  0.1985
  206MOL0     H28403  10.678  10.029   6.435  0.8805 -2.0895 -1.2786
  206MOL0     H28404  10.913  10.146   6.410 -0.0494 -1.5300 -0.0705
  206MOL0     H28405  10.926  10.134   6.582 -0.1907 -3.5919  0.3230
  206MOL0     H28406  10.705  10.258   6.589  0.8253  2.4365  2.1029
  206MOL0     H28407  10.699  10.276   6.415  0.3698 -1.9005 -0.7676
  206MOL0     H28408  10.773   9.078   6.465 -2.9446 -0.3835  0.2764
  206MOL0     H28409  10.873   8.890   6.605  0.4587 -0.7452  1.2533
  206MOL0     H28410  10.940   8.676   6.933 -0.5591  0.9159  0.4979
  206MOL0     H28411  10.947   8.526   7.106 -0.6056  1.1261  0.6096
  206MOL0     H28412   9.976   7.922   8.017 -1.8670  4.8838  3.8686
  206MOL0     H28413   9.784   7.786   8.013  1.9032  0.8772  1.1689
  206MOL0     H28414   9.400   7.609   7.861  1.1544  0.6030  0.7739
  206MOL0     H28415   9.185   7.505   7.863  0.3942 -0.3479 -0.8567
  206MOL0     H28416   8.973   7.506   7.734  0.2850  1.8161  0.6801
  206MOL0     H28417   8.974   7.411   7.892 -1.2428  0.4410  0.8792
  206MOL0     H28418   8.768   7.373   7.757  2.0699  1.2133  0.6878
  206MOL0     H28419   8.738   7.549   7.766 -1.9953  1.0919  2.4599
  206MOL0     H28420   8.709   7.333   7.970 -2.9680 -1.1373 -3.5506
  206MOL0     H28421   8.763   7.488   8.030  3.9085 -0.1163 -2.4539
  206MOL0     H28422   8.514   7.443   7.839 -0.9340  0.6952  0.3972
  206MOL0     H28423   8.547   7.585   7.938  2.1553  0.0260  0.4066
  206MOL0     H28424   8.399   7.281   8.220 -1.2050  2.6767  2.4749
  206MOL0     H28425   9.007   7.887   7.921 -0.2665 -0.8608 -1.4536
  206MOL0     H28426   9.152   8.093   7.858 -1.5510  0.3757  0.7704
  206MOL0     H28427   9.155   8.055   8.032 -1.8272 -1.9012 -0.6135
  206MOL0     H28428   9.302   8.088   7.943  0.7134 -0.6258  0.0667
  207MOL0     O28429   9.670   6.680   4.529 -0.5089 -0.7126  0.1148
  207MOL0     C28430   9.737   6.694   4.631  0.4068 -0.1689  0.5394
  207MOL0     O28431   9.693   6.682   4.762 -0.3372  0.0688 -0.5195
  207MOL0     C28432   9.560   6.682   4.790 -0.5424  0.0743 -0.1392
  207MOL0     C28433   9.499   6.763   4.888 -0.0361  0.5292  0.3760
  207MOL0     C28434   9.362   6.740   4.929  0.1598 -0.2404  1.1481
  207MOL0     C28435   9.286   6.641   4.872 -0.5434 -0.2177  0.2443
  207MOL0     O28436   9.170   6.593   4.925 -0.2524  0.9813  0.3263
  207MOL0     C28437   9.065   6.688   4.950 -0.4127  0.6691  0.0051
  207MOL0     C28438   8.964   6.597   5.017 -0.9762  0.2655 -0.5675
  207MOL0     C28439   8.837   6.674   5.053  0.1947  0.6128  0.0229
  207MOL0     C28440   8.854   6.730   5.196  0.3889  0.5289  0.1929
  207MOL0     C28441   8.719   6.784   5.255 -0.7549 -0.9177  0.2406
  207MOL0     C28442   8.738   6.831   5.404 -0.1566 -0.2883  0.4857
  207MOL0     C28443   8.612   6.899   5.454 -0.0925  0.5317 -0.6957
  207MOL0     C28444   8.513   6.801   5.523  0.1886  0.3444 -0.2586
  207MOL0     N28445   8.378   6.865   5.543 -0.6881 -0.9620  1.2190
  207MOL0     C28446   8.354   6.979   5.621 -0.2757 -0.2837  0.3197
  207MOL0     C28447   8.221   6.994   5.627  0.1642  0.5790 -0.1089
  207MOL0     C28448   8.151   7.100   5.706 -0.1796  0.5628 -0.0987
  207MOL0     C28449   8.125   7.053   5.845 -0.4257  0.0082 -0.2986
  207MOL0     C28450   8.061   7.172   5.924 -0.5185 -0.3079 -0.2494
  207MOL0     C28451   8.000   7.127   6.055 -0.1323  0.4875  0.1085
  207MOL0     O28452   8.072   7.049   6.153  0.3524 -0.4464 -0.1240
  207MOL0     C28453   8.153   7.119   6.240 -1.1092 -0.2128  0.1443
  207MOL0     C28454   8.185   7.250   6.250  0.2068 -0.3765 -0.1795
  207MOL0     C28455   8.269   7.305   6.351  0.5467  0.4033  0.4438
  207MOL0     C28456   8.291   7.455   6.362  0.1237 -0.6073  0.3293
  207MOL0     C28457   8.324   7.221   6.450  0.3521  0.5773  0.5208
  207MOL0     C28458   8.417   7.262   6.552  0.3449  0.7041  0.1918
  207MOL0     O28459   8.408   7.192   6.670  0.5001  0.2114  0.0200
  207MOL0     C28460   8.493   7.233   6.763  0.0369  0.8502  0.3219
  207MOL0     C28461   8.445   7.316   6.863  0.7935 -0.2698  0.3888
  207MOL0     C28462   8.536   7.374   6.948 -1.1031 -0.2663  0.2985
  207MOL0     C28463   8.676   7.345   6.940 -0.0726  0.6034 -0.5996
  207MOL0     O28464   8.750   7.414   7.034 -0.1086 -0.2818  0.1993
  207MOL0     C28465   8.857   7.343   7.095  0.3330  0.4598  0.2470
  207MOL0     C28466   8.881   7.402   7.232 -0.0979 -0.7515  0.0252
  207MOL0     C28467   8.941   7.310   7.333 -0.4912  0.5512  0.4494
  207MOL0     C28468   9.089   7.291   7.323  0.4698 -0.3799  0.6181
  207MOL0     C28469   9.146   7.198   7.433  0.7921  1.2347  0.2809
  207MOL0     C28470   9.289   7.234   7.444 -0.5205 -0.3165 -0.2041
  207MOL0     C28471   9.322   7.357   7.536 -1.0976 -0.3869  0.7317
  207MOL0     C28472   9.451   7.434   7.480  0.0732  0.4146  0.0637
  207MOL0    Cl28473   9.522   7.539   7.610  0.4074 -0.1139  0.5177
  207MOL0     C28474   8.720   7.265   6.838  0.2730 -0.7299 -0.2382
  207MOL0     C28475   8.631   7.211   6.740  0.6109  0.0064 -0.1631
  207MOL0     O28476   8.504   7.341   6.521 -0.3925  0.2858 -0.5344
  207MOL0     C28477   8.292   7.085   6.442  0.1182 -0.5042 -0.2840
  207MOL0     C28478   8.200   7.038   6.345 -0.4758  0.1704 -0.1809
  207MOL0     N28479   8.161   6.901   5.551  0.4531  0.2692 -0.3340
  207MOL0     N28480   8.255   6.819   5.510  0.4193 -0.5635 -0.0959
  207MOL0     C28481   9.349   6.572   4.762 -0.1953  0.4126  1.4117
  207MOL0     C28482   9.478   6.587   4.722  0.7178  0.1823  0.3541
  207MOL0     C28483   9.883   6.719   4.617 -0.6599  0.2168 -0.1482
  207MOL0     C28484   9.965   6.686   4.728  0.6317  0.1734 -0.0121
  207MOL0     C28485  10.102   6.684   4.720  0.6606  0.3343 -1.0520
  207MOL0     C28486  10.170   6.730   4.619  0.3514 -0.8006 -0.1602
  207MOL0     O28487  10.300   6.736   4.598 -0.2411 -0.0317 -0.0608
  207MOL0     C28488  10.393   6.734   4.705 -0.1933  0.3190  0.1484
  207MOL0     C28489  10.429   6.586   4.728 -0.1885 -0.5998  0.9341
  207MOL0     C28490  10.517   6.563   4.854 -0.4242  0.5352  0.0536
  207MOL0     C28491  10.654   6.648   4.881  0.4658 -0.0251 -0.1349
  207MOL0     C28492  10.688   6.669   5.024  0.9188  0.0030  0.0698
  207MOL0     C28493  10.720   6.695   5.133  0.1980 -0.4703 -0.1805
  207MOL0     C28494  10.087   6.769   4.505 -0.1931 -0.0481 -0.0781
  207MOL0     C28495   9.951   6.772   4.510  0.0590  0.6081  0.3980
  207MOL0     C28496   9.873   6.833   4.389 -0.6343 -0.5970  0.1882
  207MOL0     H28497   9.544   6.847   4.939  0.6209  0.4129  0.0154
  207MOL0     H28498   9.331   6.803   5.012  0.3101  0.9485  0.3412
  207MOL0     H28499   9.030   6.734   4.858  1.3059 -1.2105 -1.6913
  207MOL0     H28500   9.092   6.768   5.019 -1.8299  3.7293 -2.7239
  207MOL0     H28501   8.940   6.515   4.948  2.7243  0.0119 -1.7486
  207MOL0     H28502   9.019   6.556   5.102  1.4957  0.5951 -1.9168
  207MOL0     H28503   8.814   6.750   4.978 -1.5143  0.1057 -0.0138
  207MOL0     H28504   8.751   6.606   5.049 -0.4334  1.2985  1.3639
  207MOL0     H28505   8.892   6.654   5.265 -2.4784  1.0849  2.5959
  207MOL0     H28506   8.929   6.809   5.195 -1.1193  2.0142 -0.1809
  207MOL0     H28507   8.648   6.701   5.246 -0.6190 -0.8598 -2.1779
  207MOL0     H28508   8.679   6.865   5.194  0.1037  0.4553  1.4369
  207MOL0     H28509   8.778   6.747   5.461 -0.3556 -0.1231  0.8737
  207MOL0     H28510   8.819   6.904   5.397 -0.7341  0.2704 -0.7566
  207MOL0     H28511   8.564   6.943   5.366 -2.5675 -1.1426 -0.2574
  207MOL0     H28512   8.635   6.978   5.526 -2.5208 -0.9085  1.8085
  207MOL0     H28513   8.492   6.717   5.456  1.6901 -1.8074  1.7919
  207MOL0     H28514   8.552   6.774   5.621 -1.4020 -1.5364 -0.0907
  207MOL0     H28515   8.423   7.036   5.683  0.6859 -0.2976 -0.7050
  207MOL0     H28516   8.055   7.123   5.659 -2.1865 -2.3994  2.1909
  207MOL0     H28517   8.214   7.190   5.701  0.1678  0.2850 -0.7776
  207MOL0     H28518   8.067   6.960   5.845  1.0002 -0.9063 -0.9155
  207MOL0     H28519   8.219   7.009   5.879 -0.1408 -0.6878 -1.9190
  207MOL0     H28520   8.144   7.242   5.937  0.8487 -2.1212  1.3761
  207MOL0     H28521   7.983   7.224   5.868 -0.5776 -1.0140 -0.8428
  207MOL0     H28522   7.951   7.212   6.105 -2.7174  0.1102 -1.5766
  207MOL0     H28523   7.915   7.065   6.026  0.7489 -1.8217  2.1188
  207MOL0     H28524   8.144   7.318   6.175  0.9732  2.8138  2.0797
  207MOL0     H28525   8.213   7.522   6.325 -0.5859 -0.5075  1.9128
  207MOL0     H28526   8.382   7.484   6.308 -0.7900 -2.6111 -2.4844
  207MOL0     H28527   8.300   7.478   6.468 -1.4508 -3.0642  1.0824
  207MOL0     H28528   8.339   7.339   6.865  0.9139  0.9181 -2.4913
  207MOL0     H28529   8.509   7.432   7.036 -1.8130 -2.8021  1.8417
  207MOL0     H28530   8.828   7.238   7.101 -3.9579  1.4423 -0.3219
  207MOL0     H28531   8.948   7.357   7.036  0.7341  0.0985  0.7657
  207MOL0     H28532   8.938   7.493   7.212 -0.1023 -0.8144 -0.2681
  207MOL0     H28533   8.783   7.427   7.275 -0.8319 -0.4392 -1.7533
  207MOL0     H28534   8.896   7.211   7.322 -1.3276  0.9421  0.3277
  207MOL0     H28535   8.919   7.342   7.435 -0.0337  0.8116  0.4718
  207MOL0     H28536   9.133   7.391   7.323 -0.7485  0.2382 -1.9946
  207MOL0     H28537   9.112   7.258   7.221 -1.5259 -1.0989  0.3538
  207MOL0     H28538   9.079   7.215   7.517 -4.0460  3.8030 -3.5671
  207MOL0     H28539   9.135   7.092   7.412  1.2955  1.2919 -0.3163
  207MOL0     H28540   9.331   7.265   7.348  1.0483  1.4731  0.9877
  207MOL0     H28541   9.343   7.146   7.481  0.2138 -0.2209 -1.0008
  207MOL0     H28542   9.345   7.320   7.636 -0.6952 -0.4405  0.6252
  207MOL0     H28543   9.247   7.437   7.539 -1.4145 -0.5829 -0.9954
  207MOL0     H28544   9.426   7.484   7.386  0.1343  1.7534  0.7434
  207MOL0     H28545   9.526   7.359   7.453  0.1239  0.2061  0.7758
  207MOL0     H28546   8.827   7.247   6.836  0.1760 -1.7335  1.4418
  207MOL0     H28547   8.668   7.147   6.660  0.7100 -0.1983  0.0442
  207MOL0     H28548   8.320   7.010   6.515  0.5576  0.5880  0.6939
  207MOL0     H28549   8.172   6.933   6.346 -1.1271  0.3364 -0.1454
  207MOL0     H28550   9.299   6.481   4.730  1.1158 -0.0730  0.6432
  207MOL0     H28551   9.516   6.519   4.647 -2.2551  1.8115 -2.9020
  207MOL0     H28552   9.919   6.634   4.811 -0.2491 -0.5461 -0.9170
  207MOL0     H28553  10.148   6.663   4.816 -0.1804 -1.1692 -0.9580
  207MOL0     H28554  10.486   6.789   4.691  0.2479 -1.0325 -3.1288
  207MOL0     H28555  10.350   6.773   4.797 -0.8117  0.1716 -0.0695
  207MOL0     H28556  10.480   6.541   4.642 -5.7049 -1.5764 -2.2883
  207MOL0     H28557  10.336   6.532   4.745  0.0016 -1.6727 -1.1081
  207MOL0     H28558  10.454   6.588   4.939  3.2933  1.9917  2.6610
  207MOL0     H28559  10.544   6.457   4.856 -2.4870 -0.0323  1.8767
  207MOL0     H28560  10.660   6.748   4.836 -1.7476 -0.2554 -1.0671
  207MOL0     H28561  10.740   6.597   4.838  3.2155  3.0996  1.1864
  207MOL0     H28562  10.752   6.702   5.235  1.3508 -2.1284 -0.3920
  207MOL0     H28563  10.141   6.805   4.418  0.5652  0.8833  0.7526
  207MOL0     H28564   9.810   6.764   4.332 -1.4358  0.2500  0.0178
  207MOL0     H28565   9.811   6.911   4.435 -0.2487 -0.6845  0.8712
  207MOL0     H28566   9.944   6.881   4.321 -2.4742  2.7588  0.4029
  208MOL0     O28567   1.078   9.644   7.976  0.2945  0.6435 -0.4109
  208MOL0     C28568   1.118   9.754   7.995 -0.1440 -0.2743  0.3043
  208MOL0     O28569   1.246   9.788   8.018  0.2176  0.3124 -0.0885
  208MOL0     C28570   1.357   9.697   8.010  0.6081  0.6040 -0.4057
  208MOL0     C28571   1.458   9.697   8.110 -0.3567 -0.4496  0.3825
  208MOL0     C28572   1.575   9.617   8.098  0.8716  0.3718 -0.5918
  208MOL0     C28573   1.572   9.516   7.993  0.3604  0.2232 -0.3603
  208MOL0     O28574   1.674   9.432   7.968  0.5291  0.0376 -0.6096
  208MOL0     C28575   1.746   9.357   8.067  0.2304  0.4687 -1.3621
  208MOL0     C28576   1.679   9.217   8.096 -0.0635  0.0077  0.0527
  208MOL0     C28577   1.731   9.141   8.219  0.0321  0.1118 -0.5609
  208MOL0     C28578   1.875   9.131   8.238  0.4705 -0.5965  0.5924
  208MOL0     C28579   1.917   9.049   8.365 -0.0706  0.0600  0.9514
  208MOL0     C28580   2.074   9.089   8.400 -0.0220 -0.4410 -0.2594
  208MOL0     C28581   2.178   9.050   8.294 -0.1541 -0.0644 -0.0367
  208MOL0     C28582   2.209   9.153   8.201  0.5280  1.1694  0.5409
  208MOL0     N28583   2.311   9.097   8.108 -0.8303 -0.0974  0.7251
  208MOL0     C28584   2.450   9.087   8.125  0.7042  0.5533  0.5450
  208MOL0     C28585   2.493   9.003   8.027  0.7028 -1.0340 -0.1997
  208MOL0     C28586   2.632   8.951   8.018 -0.2848 -0.2440  0.0816
  208MOL0     C28587   2.638   8.801   8.029 -0.0398 -0.1376 -0.2460
  208MOL0     C28588   2.778   8.735   8.013 -0.8330  0.2853  0.6608
  208MOL0     C28589   2.893   8.774   8.107 -0.4048 -0.5998 -0.8551
  208MOL0     O28590   2.836   8.811   8.232 -0.0701 -0.9269  0.2380
  208MOL0     C28591   2.926   8.831   8.340  0.3009 -0.3061  0.1276
  208MOL0     C28592   2.872   8.859   8.466  0.4348  0.3887  0.3931
  208MOL0     C28593   2.939   8.892   8.578 -0.3898 -0.1621 -0.5111
  208MOL0     C28594   2.868   8.936   8.701 -0.6500  0.4058  0.1109
  208MOL0     C28595   3.084   8.892   8.572 -0.0312 -1.3551  1.0621
  208MOL0     C28596   3.166   8.911   8.696  0.5093  0.9508  0.6080
  208MOL0     O28597   3.302   8.923   8.669 -0.6339  0.6253  1.0415
  208MOL0     C28598   3.396   8.971   8.771  0.7167 -0.2111 -0.3980
  208MOL0     C28599   3.361   9.059   8.876 -0.6023  0.4993  0.7360
  208MOL0     C28600   3.454   9.091   8.974  0.6818 -0.2336  0.3992
  208MOL0     C28601   3.590   9.051   8.960 -0.7004  0.2660 -0.1644
  208MOL0     O28602   3.689   9.067   9.052 -0.4076 -0.5979 -0.3649
  208MOL0     C28603   3.693   9.196   9.119 -0.1345 -0.2673 -0.1284
  208MOL0     C28604   3.808   9.203   9.215 -0.4165  1.4482  0.2538
  208MOL0     C28605   3.806   9.323   9.313  0.1387  0.0983  0.1030
  208MOL0     C28606   3.931   9.327   9.392  0.1764  0.5600 -0.0856
  208MOL0     C28607   3.925   9.444   9.490 -0.2410  0.2800  0.3542
  208MOL0     C28608   4.061   9.500   9.508  0.1677  0.9283  0.5356
  208MOL0     C28609   4.146   9.419   9.604  0.1999  0.2192 -0.3022
  208MOL0     C28610   4.185   9.487   9.734  0.8083  0.4145 -1.0718
  208MOL0    Cl28611   4.254   9.648   9.702  0.0528 -0.3745  0.0297
  208MOL0     C28612   3.624   8.978   8.845 -0.0372 -0.4460 -0.6593
  208MOL0     C28613   3.526   8.938   8.757 -0.0549  0.0987  0.7710
  208MOL0     O28614   3.116   8.888   8.807  0.5094 -0.2065  0.0009
  208MOL0     C28615   3.139   8.866   8.442 -0.3267 -0.7239 -0.2161
  208MOL0     C28616   3.062   8.824   8.331 -0.8776 -0.0496 -0.8159
  208MOL0     N28617   2.386   8.954   7.961  0.3012 -0.9227  0.3649
  208MOL0     N28618   2.276   9.015   8.001  0.1166  1.0448  0.1003
  208MOL0     C28619   1.466   9.523   7.904  0.3139 -0.3891  0.7141
  208MOL0     C28620   1.356   9.608   7.904 -0.4191  0.2780  0.2881
  208MOL0     C28621   1.015   9.868   8.001 -0.2234 -0.5373  0.8073
  208MOL0     C28622   1.057   9.981   8.072 -0.1876  0.8194  0.0270
  208MOL0     C28623   0.965  10.074   8.129 -0.5199 -0.2144  0.2304
  208MOL0     C28624   0.829  10.067   8.105 -0.1010 -0.0817  0.0720
  208MOL0     O28625   0.731  10.146   8.145  0.6471 -0.2644 -0.6703
  208MOL0     C28626   0.753  10.201   8.277 -0.1292  0.0213  0.1861
  208MOL0     C28627   0.639  10.290   8.304  0.1764 -1.1116  0.0967
  208MOL0     C28628   0.611  10.298   8.456  0.5737 -0.2857 -0.2408
  208MOL0     C28629   0.499  10.403   8.505  0.1588 -0.2855 -0.2336
  208MOL0     C28630   0.529  10.545   8.488 -0.4639 -0.5118  0.3219
  208MOL0     C28631   0.557  10.658   8.478  0.2880 -0.7509 -0.2214
  208MOL0     C28632   0.788   9.951   8.024  0.3446 -0.0685 -0.4178
  208MOL0     C28633   0.871   9.855   7.975  0.2754  0.0609  0.4594
  208MOL0     C28634   0.803   9.730   7.914 -0.9181  0.3908  0.1629
  208MOL0     H28635   1.447   9.765   8.194  2.2507  0.5981 -0.0367
  208MOL0     H28636   1.656   9.608   8.170 -1.2324 -1.6520  1.7299
  208MOL0     H28637   1.782   9.407   8.158  0.5782  0.6561 -1.5999
  208MOL0     H28638   1.841   9.330   8.021  1.9701  0.2503  2.0096
  208MOL0     H28639   1.577   9.241   8.126 -0.3680  1.1953 -1.7714
  208MOL0     H28640   1.678   9.147   8.012  0.2549  2.0025 -1.6771
  208MOL0     H28641   1.692   9.187   8.310 -2.0205 -0.5491 -1.0590
  208MOL0     H28642   1.698   9.037   8.214  2.5172 -0.7856  0.2503
  208MOL0     H28643   1.924   9.087   8.151  1.5445 -0.3043  1.0229
  208MOL0     H28644   1.915   9.233   8.237  2.5575 -1.3040  2.4268
  208MOL0     H28645   1.912   8.941   8.344 -3.9293  0.1093  1.0266
  208MOL0     H28646   1.844   9.076   8.441 -0.4557 -0.3029  0.7120
  208MOL0     H28647   2.087   9.197   8.408 -1.0334 -0.1608 -1.9868
  208MOL0     H28648   2.112   9.056   8.497  2.8928  1.1013 -0.7638
  208MOL0     H28649   2.140   8.961   8.242 -3.6091 -0.7273  3.1352
  208MOL0     H28650   2.269   9.025   8.350 -1.2103 -1.7532  1.0508
  208MOL0     H28651   2.119   9.171   8.142  0.7025 -2.8589 -1.2719
  208MOL0     H28652   2.251   9.240   8.252  2.7463  2.0927 -2.5676
  208MOL0     H28653   2.504   9.135   8.205  1.4332 -0.0200  0.4014
  208MOL0     H28654   2.704   8.992   8.091 -0.4756  2.0561 -0.9410
  208MOL0     H28655   2.669   8.980   7.919  2.4753 -1.4515  0.6510
  208MOL0     H28656   2.587   8.775   8.123 -1.2345 -0.6839 -1.0283
  208MOL0     H28657   2.577   8.756   7.951  1.8366  0.2759 -2.0224
  208MOL0     H28658   2.766   8.628   8.031  2.5907 -0.0521  1.5370
  208MOL0     H28659   2.822   8.749   7.913 -1.1964  2.0855  0.7193
  208MOL0     H28660   2.975   8.702   8.118  1.3652  1.2858 -1.1693
  208MOL0     H28661   2.952   8.859   8.073  0.6841 -0.7780  0.5143
  208MOL0     H28662   2.764   8.863   8.461  0.2451 -2.3122  0.7097
  208MOL0     H28663   2.762   8.925   8.676 -1.6367 -0.7105  4.1285
  208MOL0     H28664   2.890   9.040   8.729  0.6016  0.3099 -0.4412
  208MOL0     H28665   2.872   8.875   8.791 -0.6262  0.8096  0.3858
  208MOL0     H28666   3.254   9.079   8.876 -0.3438  2.0017  1.2329
  208MOL0     H28667   3.415   9.149   9.056 -1.7761  0.1338 -0.9413
  208MOL0     H28668   3.707   9.286   9.058  0.4803 -0.5531 -0.4139
  208MOL0     H28669   3.600   9.209   9.175 -0.2423  2.6207 -0.8444
  208MOL0     H28670   3.821   9.117   9.281  1.7089  0.7035 -1.0260
  208MOL0     H28671   3.903   9.202   9.160 -0.4875  0.4700  0.1304
  208MOL0     H28672   3.722   9.321   9.383 -0.5153 -0.0703 -0.6675
  208MOL0     H28673   3.782   9.411   9.253 -0.8807  0.6432  1.2717
  208MOL0     H28674   4.019   9.334   9.326  1.2262  2.2482  1.3833
  208MOL0     H28675   3.954   9.233   9.443  1.7375 -1.0344 -3.4354
  208MOL0     H28676   3.854   9.523   9.463 -1.2790 -0.3918  1.0257
  208MOL0     H28677   3.892   9.399   9.584  0.6412 -2.9615 -0.7282
  208MOL0     H28678   4.052   9.602   9.545 -0.0364  0.5532  1.5513
  208MOL0     H28679   4.111   9.510   9.411 -1.7173  0.8314 -0.4958
  208MOL0     H28680   4.235   9.399   9.544 -0.1424  2.3557 -1.6579
  208MOL0     H28681   4.094   9.329   9.637 -1.5981  1.1583 -0.4051
  208MOL0     H28682   4.265   9.423   9.773  0.9414  0.0889 -1.8510
  208MOL0     H28683   4.101   9.492   9.805  1.0606 -1.6065 -0.5660
  208MOL0     H28684   3.727   8.952   8.824  0.2283  1.7601 -2.3413
  208MOL0     H28685   3.564   8.865   8.685  1.4322 -0.2848  1.8873
  208MOL0     H28686   3.246   8.864   8.419 -0.3963 -0.8019 -0.5409
  208MOL0     H28687   3.124   8.804   8.244  2.1737 -0.6447  1.3323
  208MOL0     H28688   1.471   9.442   7.832 -0.0288 -1.2098  1.5914
  208MOL0     H28689   1.279   9.608   7.827  1.2670  0.3467 -1.4783
  208MOL0     H28690   1.162   9.995   8.097  0.0568 -0.7849  0.0118
  208MOL0     H28691   1.012  10.153   8.187  0.2096  1.0883 -2.0173
  208MOL0     H28692   0.751  10.116   8.346  0.4029  0.6215  0.9572
  208MOL0     H28693   0.845  10.260   8.279 -0.8941  1.2774 -0.8658
  208MOL0     H28694   0.545  10.250   8.265 -0.5148  0.8025 -0.3147
  208MOL0     H28695   0.658  10.385   8.254 -0.7449 -0.0887  1.6042
  208MOL0     H28696   0.573  10.200   8.484  2.1152 -0.5594  1.0331
  208MOL0     H28697   0.705  10.316   8.509  0.5982  0.1386 -0.4236
  208MOL0     H28698   0.478  10.373   8.609 -0.5262  1.8416  0.2798
  208MOL0     H28699   0.410  10.392   8.444 -0.9270  3.1656  0.5314
  208MOL0     H28700   0.595  10.758   8.468  0.3650 -0.5948  1.4380
  208MOL0     H28701   0.683   9.932   8.001 -0.0909  0.1844  1.2713
  208MOL0     H28702   0.782   9.667   8.000 -0.8922  2.0896  1.4718
  208MOL0     H28703   0.704   9.761   7.879 -1.4205  0.9651  2.0048
  208MOL0     H28704   0.860   9.676   7.838  0.6735  0.2913  1.3721
  209MOL0     O28705   5.592   3.827   1.740 -0.1996 -0.2924  0.5145
  209MOL0     C28706   5.540   3.911   1.667  0.9621  0.8515  0.7014
  209MOL0     O28707   5.599   3.970   1.564 -0.1623 -0.6399  0.3232
  209MOL0     C28708   5.734   3.986   1.534  0.3567 -0.1575 -0.3753
  209MOL0     C28709   5.843   3.986   1.627 -0.2008  1.3675  0.9951
  209MOL0     C28710   5.974   3.983   1.582 -0.5404  0.1613 -0.7555
  209MOL0     C28711   6.003   4.003   1.440  0.0548 -0.4637  0.3723
  209MOL0     O28712   6.126   3.998   1.378  0.4745  0.6202 -0.1776
  209MOL0     C28713   6.228   3.917   1.442 -0.5242  0.4103 -0.2169
  209MOL0     C28714   6.361   3.918   1.371 -0.4672  0.2211 -0.0611
  209MOL0     C28715   6.418   4.053   1.372  0.1536 -0.5772 -0.4322
  209MOL0     C28716   6.517   4.070   1.256 -0.3702  0.1215  0.4995
  209MOL0     C28717   6.574   4.212   1.244  0.2419  0.0385  0.0998
  209MOL0     C28718   6.655   4.260   1.364 -0.2562  0.7426  0.1439
  209MOL0     C28719   6.691   4.412   1.358  0.5889  0.5897 -0.5556
  209MOL0     C28720   6.659   4.466   1.491 -0.3923 -0.4900 -0.4550
  209MOL0     N28721   6.696   4.608   1.509 -0.8424  0.0550 -0.4340
  209MOL0     C28722   6.799   4.676   1.453  0.0393  0.4219  0.8997
  209MOL0     C28723   6.797   4.799   1.500 -0.9086 -0.2157 -0.6051
  209MOL0     C28724   6.893   4.911   1.472  0.2572  0.1834  0.0556
  209MOL0     C28725   6.983   4.956   1.588 -0.6462 -0.0798  0.6438
  209MOL0     C28726   7.084   4.852   1.627 -0.1085 -0.5414 -0.7795
  209MOL0     C28727   7.184   4.798   1.530  0.6495  0.4947  0.6164
  209MOL0     O28728   7.265   4.698   1.581  0.3951  0.2206 -0.1923
  209MOL0     C28729   7.353   4.631   1.501 -0.1080 -0.4221 -0.5364
  209MOL0     C28730   7.389   4.654   1.369  0.3354  0.2101  0.2665
  209MOL0     C28731   7.463   4.554   1.297 -0.6935  0.7482  0.3836
  209MOL0     C28732   7.509   4.592   1.163 -0.5764 -0.7530  0.5495
  209MOL0     C28733   7.516   4.437   1.361  0.2050  0.3779 -0.1869
  209MOL0     C28734   7.602   4.330   1.303  0.5767 -0.2877 -0.7685
  209MOL0     O28735   7.612   4.333   1.170  0.3040  0.4099  0.2148
  209MOL0     C28736   7.694   4.236   1.110 -0.0510 -0.8460 -0.1362
  209MOL0     C28737   7.820   4.277   1.069 -0.1318 -0.1841  0.1603
  209MOL0     C28738   7.901   4.183   1.001  1.0503 -0.5770  0.0507
  209MOL0     C28739   7.861   4.044   0.984 -0.1302 -1.1010 -0.4782
  209MOL0     O28740   7.933   3.946   0.927 -0.6418  0.4895  0.5406
  209MOL0     C28741   8.068   3.971   0.893  0.5840 -0.5805 -0.3075
  209MOL0     C28742   8.133   3.857   0.801  0.3025 -0.2816 -0.1081
  209MOL0     C28743   8.037   3.799   0.700 -0.7706  0.8286  0.8433
  209MOL0     C28744   8.098   3.702   0.606  0.1644  1.1153  0.2153
  209MOL0     C28745   7.995   3.589   0.555  0.4729 -0.5752 -0.0415
  209MOL0     C28746   8.078   3.462   0.515  0.7918 -0.0272 -0.1215
  209MOL0     C28747   7.973   3.357   0.476 -0.2192 -0.0754 -0.7299
  209MOL0     C28748   8.034   3.245   0.394 -0.4986 -0.0651 -0.3814
  209MOL0    Cl28749   8.054   3.315   0.231  0.2814  0.1430  0.0338
  209MOL0     C28750   7.736   4.010   1.036  0.3068 -0.0425  0.0945
  209MOL0     C28751   7.652   4.100   1.099  0.5519  0.0945 -0.4846
  209MOL0     O28752   7.662   4.242   1.377 -0.0384  0.1219  0.0206
  209MOL0     C28753   7.495   4.431   1.494 -0.7306  0.3296  0.0212
  209MOL0     C28754   7.406   4.516   1.560 -0.1670 -0.4509  0.2595
  209MOL0     N28755   6.684   4.814   1.580 -1.4243  0.2617  0.1044
  209MOL0     N28756   6.623   4.697   1.588  0.5111  0.8283 -0.1744
  209MOL0     C28757   5.892   4.013   1.360  0.6074  0.0025  0.5399
  209MOL0     C28758   5.763   4.005   1.403 -0.7917 -0.0375  0.6115
  209MOL0     C28759   5.389   3.934   1.694  0.3604  0.2843  0.3968
  209MOL0     C28760   5.333   4.053   1.653 -0.3180 -0.4311 -0.0505
  209MOL0     C28761   5.200   4.081   1.668  0.3691  0.3705  0.0426
  209MOL0     C28762   5.118   3.989   1.732 -0.5368 -0.3492 -0.0044
  209MOL0     O28763   4.995   4.021   1.772 -0.0068  0.5710  0.5608
  209MOL0     C28764   4.900   4.078   1.682 -0.4777 -0.4450  0.7668
  209MOL0     C28765   4.880   4.001   1.551  0.3287 -0.3602  0.4370
  209MOL0     C28766   4.808   3.865   1.580  0.4716 -1.3858  0.9053
  209MOL0     C28767   4.650   3.886   1.585  0.6319 -1.2073  0.2613
  209MOL0     C28768   4.583   3.767   1.648 -0.3432 -0.2405 -0.2276
  209MOL0     C28769   4.516   3.666   1.686 -0.2445 -0.4191 -0.1152
  209MOL0     C28770   5.168   3.871   1.762  0.4717  0.5812  0.4271
  209MOL0     C28771   5.305   3.837   1.745  0.0691 -0.2247  0.2783
  209MOL0     C28772   5.336   3.694   1.780 -0.0054  0.1341 -0.2276
  209MOL0     H28773   5.808   3.986   1.730  0.2013  0.2746  1.1497
  209MOL0     H28774   6.051   3.965   1.656 -2.1508  1.4529  1.3535
  209MOL0     H28775   6.203   3.810   1.440  5.1938 -1.2170 -0.6738
  209MOL0     H28776   6.246   3.954   1.544  0.7686  1.4868 -0.8140
  209MOL0     H28777   6.433   3.846   1.413 -1.5253 -1.4782 -1.0455
  209MOL0     H28778   6.347   3.889   1.267 -0.8176 -1.0026  0.3077
  209MOL0     H28779   6.342   4.131   1.365  0.7687  0.1670  0.8055
  209MOL0     H28780   6.481   4.064   1.461  2.0314  3.0963 -2.0025
  209MOL0     H28781   6.599   4.000   1.273 -0.8982 -0.4134  0.8860
  209MOL0     H28782   6.474   4.052   1.157 -0.6454 -1.0956  0.8234
  209MOL0     H28783   6.480   4.268   1.245 -0.7634 -1.3597  4.1937
  209MOL0     H28784   6.630   4.228   1.152  0.2247 -0.0472  0.0740
  209MOL0     H28785   6.597   4.242   1.455  1.0780 -3.5087  0.3738
  209MOL0     H28786   6.742   4.195   1.376 -1.9954 -1.4230  2.1097
  209MOL0     H28787   6.629   4.459   1.281  1.4829  1.6274 -0.6700
  209MOL0     H28788   6.795   4.422   1.326  0.4219  0.2476 -1.2201
  209MOL0     H28789   6.558   4.459   1.533 -0.2969  0.8250  0.0573
  209MOL0     H28790   6.724   4.405   1.554 -0.2141  0.7382  0.6027
  209MOL0     H28791   6.861   4.638   1.372 -1.2122 -0.3454  0.2527
  209MOL0     H28792   6.827   4.997   1.455 -1.2151 -1.0413 -0.6151
  209MOL0     H28793   6.953   4.886   1.384  0.1821 -0.7386  0.2569
  209MOL0     H28794   7.039   5.047   1.566  2.9395 -2.1966  0.3148
  209MOL0     H28795   6.915   4.969   1.673 -2.0316 -1.7568 -0.1317
  209MOL0     H28796   7.154   4.884   1.704 -0.0099 -2.4108 -0.0415
  209MOL0     H28797   7.028   4.775   1.680  1.4849 -1.1126  0.1264
  209MOL0     H28798   7.133   4.742   1.451  1.7557  0.1046  0.1575
  209MOL0     H28799   7.239   4.878   1.480  0.5717 -0.7759 -1.6465
  209MOL0     H28800   7.372   4.752   1.326  1.1573  0.8997  1.4190
  209MOL0     H28801   7.617   4.582   1.150 -0.1808  1.9866  1.1569
  209MOL0     H28802   7.505   4.701   1.153  5.6874 -0.1172  1.2116
  209MOL0     H28803   7.444   4.545   1.088  0.5308  0.8574 -1.5338
  209MOL0     H28804   7.854   4.379   1.082 -0.9942  0.1145  0.1371
  209MOL0     H28805   8.000   4.223   0.983  1.6634 -0.8565  2.4383
  209MOL0     H28806   8.082   4.063   0.835  4.3100 -0.1477  0.9707
  209MOL0     H28807   8.112   3.995   0.991 -1.0636 -0.6913  0.4847
  209MOL0     H28808   8.221   3.897   0.751 -0.4447 -0.8377 -1.9475
  209MOL0     H28809   8.162   3.778   0.871  0.3824 -0.6876 -0.5972
  209MOL0     H28810   7.995   3.879   0.639 -0.0268  1.6482  1.3745
  209MOL0     H28811   7.949   3.766   0.756 -0.6847 -1.4005 -0.2175
  209MOL0     H28812   8.169   3.640   0.663  2.6656  3.1555 -0.5183
  209MOL0     H28813   8.157   3.754   0.531 -0.7469  0.0103 -1.3155
  209MOL0     H28814   7.918   3.585   0.632 -0.0324  2.1604 -0.2874
  209MOL0     H28815   7.956   3.633   0.463  4.4438  3.4987 -0.1812
  209MOL0     H28816   8.139   3.424   0.597  0.7164 -2.2991 -1.0397
  209MOL0     H28817   8.144   3.485   0.430 -0.8849  0.6331 -1.3094
  209MOL0     H28818   7.884   3.391   0.422  0.2907  1.6035 -0.5546
  209MOL0     H28819   7.941   3.315   0.572 -0.6371 -1.7925 -1.5800
  209MOL0     H28820   7.959   3.166   0.381 -2.8853  1.8912  0.5637
  209MOL0     H28821   8.128   3.208   0.434  0.2291  0.7304 -1.2906
  209MOL0     H28822   7.709   3.905   1.037 -0.1238  0.0694  0.8009
  209MOL0     H28823   7.561   4.067   1.149 -0.4428  3.4281  0.1716
  209MOL0     H28824   7.536   4.353   1.558 -0.6040 -0.2523 -0.7504
  209MOL0     H28825   7.375   4.501   1.663  1.1821 -2.3099  0.4413
  209MOL0     H28826   5.914   4.024   1.255 -1.3785 -0.7998 -0.0225
  209MOL0     H28827   5.681   4.005   1.333 -1.4215 -3.3355  1.1480
  209MOL0     H28828   5.396   4.131   1.611 -2.1524  0.3485 -1.4551
  209MOL0     H28829   5.163   4.180   1.644  0.2369  0.5710  1.0350
  209MOL0     H28830   4.805   4.083   1.735 -1.3156  0.9671 -0.7795
  209MOL0     H28831   4.927   4.181   1.656  0.4680 -0.6205  1.0082
  209MOL0     H28832   4.976   3.982   1.502  0.1335  2.8239 -1.4404
  209MOL0     H28833   4.813   4.054   1.483 -1.3903  0.7420  2.8609
  209MOL0     H28834   4.831   3.783   1.511  0.2796  0.7830 -1.8751
  209MOL0     H28835   4.835   3.831   1.681  2.3825 -2.1246  0.1879
  209MOL0     H28836   4.621   3.904   1.481  0.2117  2.0464  0.8352
  209MOL0     H28837   4.628   3.977   1.641  0.9454 -1.5161  0.9002
  209MOL0     H28838   4.474   3.574   1.722 -0.8356  0.5732  1.8584
  209MOL0     H28839   5.095   3.798   1.797 -0.8208 -0.0751 -3.2192
  209MOL0     H28840   5.389   3.695   1.876 -1.3105  1.8845  0.5326
  209MOL0     H28841   5.241   3.646   1.807 -2.2501  4.1000 -0.2750
  209MOL0     H28842   5.388   3.640   1.701 -0.9026  1.1797 -1.5884
  210MOL0     O28843   0.913  10.244   6.193 -0.0328  0.1870  1.4385
  210MOL0     C28844   0.902  10.316   6.092  0.4634 -0.5242  0.1205
  210MOL0     O28845   0.993  10.418   6.054  0.3885 -0.3684  0.7132
  210MOL0     C28846   1.125  10.387   6.080 -0.1112  0.7751  0.2404
  210MOL0     C28847   1.185  10.283   6.018 -0.4193  0.5257  0.0663
  210MOL0     C28848   1.321  10.245   6.049  0.2384  1.5053 -0.2298
  210MOL0     C28849   1.402  10.318   6.132  0.0614 -0.0479 -0.1837
  210MOL0     O28850   1.534  10.285   6.140 -0.2011 -0.6938 -0.0585
  210MOL0     C28851   1.617  10.368   6.221 -1.0774  0.3911 -1.1394
  210MOL0     C28852   1.765  10.319   6.205 -0.4628 -0.2445  0.3536
  210MOL0     C28853   1.876  10.396   6.270  0.2991  0.0698 -0.5295
  210MOL0     C28854   2.011  10.326   6.269 -0.2054 -0.0847  0.3454
  210MOL0     C28855   2.060  10.295   6.126  0.0285  1.0371  0.1489
  210MOL0     C28856   2.103  10.421   6.055 -0.1336  0.5782 -0.8114
  210MOL0     C28857   2.217  10.497   6.123 -0.0295  0.2673  0.0219
  210MOL0     C28858   2.288  10.590   6.018  0.1996  0.5391 -0.1857
  210MOL0     N28859   2.378  10.510   5.929  0.9237 -0.5645 -0.7471
  210MOL0     C28860   2.507  10.474   5.960  0.3655  0.6132 -0.4910
  210MOL0     C28861   2.543  10.386   5.863  0.1827  0.0189  0.2991
  210MOL0     C28862   2.683  10.322   5.846 -0.2846 -1.0024 -0.2455
  210MOL0     C28863   2.803  10.419   5.848 -1.0649 -0.1584  0.4513
  210MOL0     C28864   2.941  10.339   5.874  0.2907 -0.5410 -0.2306
  210MOL0     C28865   3.052  10.431   5.911  0.3928  0.3153  0.6908
  210MOL0     O28866   3.169  10.353   5.892  0.4172 -0.5108  0.4348
  210MOL0     C28867   3.292  10.410   5.910 -0.2544  0.1084  0.1649
  210MOL0     C28868   3.396  10.325   5.887  0.3500 -0.7299 -0.6482
  210MOL0     C28869   3.531  10.359   5.882  0.2186 -0.8543 -0.1201
  210MOL0     C28870   3.622  10.239   5.901  0.9176  0.0649 -0.1316
  210MOL0     C28871   3.567  10.499   5.893  0.1758  0.2084 -0.0745
  210MOL0     C28872   3.708  10.546   5.908  0.9348 -0.6849  0.1839
  210MOL0     O28873   3.721  10.686   5.912 -0.3059  0.2954 -0.8107
  210MOL0     C28874   3.849  10.748   5.924  0.3345  0.0278 -0.2963
  210MOL0     C28875   3.959  10.696   5.996 -0.8105  0.1324 -0.0141
  210MOL0     C28876   4.079  10.766   6.000  0.5602 -0.8596  1.0433
  210MOL0     C28877   4.092  10.884   5.927  0.1431  1.2642 -0.3238
  210MOL0     O28878   4.212  10.937   5.944  0.2830 -0.7692 -0.1631
  210MOL0     C28879   4.242  11.074   5.913 -0.3454  0.5370  0.9022
  210MOL0     C28880   4.383  11.109   5.936  0.1886 -0.5144 -0.2151
  210MOL0     C28881   4.485  11.014   5.858  0.4753  0.5684  0.3456
  210MOL0     C28882   4.631  11.038   5.909 -0.0003  0.3274 -0.3658
  210MOL0     C28883   4.739  10.965   5.839  0.7276 -0.2457  0.3547
  210MOL0     C28884   4.883  11.015   5.864 -0.3747  0.1369 -1.0049
  210MOL0     C28885   4.976  10.922   5.789 -0.4306 -0.0651 -0.0416
  210MOL0     C28886   5.131  10.911   5.824  0.0491 -0.5204 -0.3409
  210MOL0    Cl28887   5.209  11.059   5.861 -0.1054 -0.0346 -0.6254
  210MOL0     C28888   3.986  10.939   5.857 -0.3295  0.1399  0.5054
  210MOL0     C28889   3.859  10.872   5.859 -0.2711 -0.6121  0.3940
  210MOL0     O28890   3.801  10.465   5.913 -0.0765 -0.1263  0.0262
  210MOL0     C28891   3.460  10.583   5.903 -0.2235  0.2197  0.2184
  210MOL0     C28892   3.327  10.544   5.905  0.3569 -0.5749  0.4856
  210MOL0     N28893   2.440  10.376   5.777 -0.6398  0.2720  0.1942
  210MOL0     N28894   2.344  10.453   5.812  0.3909  0.1603  0.0024
  210MOL0     C28895   1.335  10.427   6.191 -0.7095  0.1686  0.1608
  210MOL0     C28896   1.208  10.468   6.149 -0.2655 -0.6977  0.0498
  210MOL0     C28897   0.769  10.307   6.019 -0.0811 -0.0420 -0.7817
  210MOL0     C28898   0.684  10.196   6.047  0.5494 -0.1205  0.3489
  210MOL0     C28899   0.563  10.178   5.969  0.0927 -0.0138 -0.0342
  210MOL0     C28900   0.522  10.257   5.866 -0.2438 -0.5203  0.5365
  210MOL0     O28901   0.423  10.239   5.771  0.0654  0.1760  0.1500
  210MOL0     C28902   0.379  10.103   5.757 -0.2293  1.4451 -0.0747
  210MOL0     C28903   0.276  10.053   5.853 -0.2901 -0.1218 -0.0392
  210MOL0     C28904   0.135  10.091   5.808  0.5199 -0.2595  0.0358
  210MOL0     C28905   0.039  10.088   5.923  0.4479  0.0407 -0.7920
  210MOL0     C28906   0.044  10.215   6.000 -0.9335 -0.1114 -1.2001
  210MOL0     C28907   0.062  10.311   6.078 -0.8133 -0.7324 -0.1397
  210MOL0     C28908   0.609  10.365   5.846 -0.1828 -0.1592  0.4608
  210MOL0     C28909   0.721  10.399   5.924  0.1454 -0.3450  1.3882
  210MOL0     C28910   0.785  10.532   5.896 -1.8402 -0.5365  0.4971
  210MOL0     H28911   1.129  10.227   5.944 -2.7684  1.4658  1.0583
  210MOL0     H28912   1.367  10.155   6.010  0.4986  2.2041 -1.5694
  210MOL0     H28913   1.591  10.363   6.328  4.2876  0.7289  0.4559
  210MOL0     H28914   1.617  10.469   6.181  0.1061  0.7314 -0.3255
  210MOL0     H28915   1.762  10.212   6.228 -0.9574 -0.3286 -0.1025
  210MOL0     H28916   1.783  10.318   6.097  1.8649  2.3143  0.6073
  210MOL0     H28917   1.882  10.497   6.227  2.6951  2.3724  4.3809
  210MOL0     H28918   1.848  10.413   6.374  1.1293  0.9016 -0.4266
  210MOL0     H28919   2.080  10.378   6.335  0.9741 -0.4626 -0.5596
  210MOL0     H28920   1.996  10.227   6.313  1.1049 -0.3633  0.1792
  210MOL0     H28921   1.985  10.252   6.058  0.8946  0.8294 -0.6995
  210MOL0     H28922   2.143  10.224   6.124  1.4440  2.5829  1.3134
  210MOL0     H28923   2.122  10.405   5.949 -2.6200 -1.4262 -1.0496
  210MOL0     H28924   2.014  10.484   6.049 -1.6422 -1.4649 -1.0335
  210MOL0     H28925   2.286  10.431   6.178 -0.6478  0.7201  1.3913
  210MOL0     H28926   2.173  10.561   6.200 -0.6524  1.1613 -1.0584
  210MOL0     H28927   2.217  10.635   5.948  0.7897  0.2017 -1.0125
  210MOL0     H28928   2.352  10.663   6.069  0.0487  1.8345 -1.7719
  210MOL0     H28929   2.582  10.507   6.031 -0.0799 -0.6807  0.6149
  210MOL0     H28930   2.680  10.263   5.753 -2.0060  0.2794 -1.0657
  210MOL0     H28931   2.709  10.244   5.918  1.5390 -1.1774 -1.0425
  210MOL0     H28932   2.812  10.470   5.752  3.3413  2.0396  1.7596
  210MOL0     H28933   2.785  10.491   5.929 -0.6241 -1.0475  1.3589
  210MOL0     H28934   2.929  10.270   5.958 -1.1956 -0.7660 -0.5965
  210MOL0     H28935   2.967  10.285   5.783 -2.7888 -2.0979 -0.3234
  210MOL0     H28936   3.057  10.517   5.844  0.0655 -0.8260 -0.8611
  210MOL0     H28937   3.041  10.467   6.014 -1.5907  0.0087  0.6263
  210MOL0     H28938   3.386  10.217   5.878 -0.1530 -0.6779 -0.7593
  210MOL0     H28939   3.655  10.243   6.005 -0.8885  0.8093  0.4494
  210MOL0     H28940   3.713  10.250   5.841  0.9350  0.2435 -0.0738
  210MOL0     H28941   3.580  10.142   5.872  1.0757 -0.1004  0.1913
  210MOL0     H28942   3.957  10.599   6.046  1.5207 -0.2867 -0.6307
  210MOL0     H28943   4.164  10.729   6.056  1.7843  1.2090  0.6214
  210MOL0     H28944   4.226  11.083   5.806 -3.5325 -0.7565  1.1379
  210MOL0     H28945   4.184  11.138   5.981 -0.1557  1.3404  0.3163
  210MOL0     H28946   4.407  11.208   5.894  1.8164 -0.0110  1.7273
  210MOL0     H28947   4.391  11.094   6.044 -0.6278 -2.0992 -0.3596
  210MOL0     H28948   4.470  11.029   5.750  2.2327 -2.1813 -0.3722
  210MOL0     H28949   4.469  10.909   5.880  0.6630  0.4324 -0.1417
  210MOL0     H28950   4.629  11.016   6.016 -0.6519  1.9895  0.0053
  210MOL0     H28951   4.664  11.142   5.903  1.5203 -0.2123 -2.7877
  210MOL0     H28952   4.730  10.861   5.870 -2.4580 -0.9435 -2.3166
  210MOL0     H28953   4.713  10.955   5.733 -3.0992  0.3480  1.0909
  210MOL0     H28954   4.917  11.019   5.968 -4.3186 -1.8696  0.5933
  210MOL0     H28955   4.899  11.112   5.815 -1.0222 -0.4195 -2.3729
  210MOL0     H28956   4.970  10.956   5.685  0.4538 -2.2381 -0.8654
  210MOL0     H28957   4.935  10.822   5.802 -2.0559  0.6236  0.3747
  210MOL0     H28958   5.182  10.867   5.737  1.7610 -0.4439  0.5820
  210MOL0     H28959   5.153  10.845   5.908  0.6140  1.8970  1.4963
  210MOL0     H28960   3.990  11.031   5.800  0.4698  1.2740  2.3209
  210MOL0     H28961   3.765  10.897   5.812 -0.9289 -0.7447  1.5976
  210MOL0     H28962   3.490  10.687   5.891 -0.2239  0.0739 -1.2992
  210MOL0     H28963   3.250  10.619   5.891  0.1090 -0.7234  1.0761
  210MOL0     H28964   1.385  10.488   6.265 -3.6504  2.0538  0.8072
  210MOL0     H28965   1.163  10.561   6.184  1.5322  1.1933 -2.3206
  210MOL0     H28966   0.704  10.124   6.126  3.1804  1.0973  0.9042
  210MOL0     H28967   0.506  10.089   5.995  3.2500 -1.9514  0.7688
  210MOL0     H28968   0.345  10.084   5.655 -0.7165  2.1313 -0.0496
  210MOL0     H28969   0.465  10.035   5.762 -0.3252  1.3595  0.4924
  210MOL0     H28970   0.294  10.077   5.958 -0.8232 -2.7736  0.7345
  210MOL0     H28971   0.274   9.944   5.841 -1.5851  0.1222 -2.5802
  210MOL0     H28972   0.133  10.193   5.769 -1.4654 -0.2353  0.1121
  210MOL0     H28973   0.104  10.027   5.725  0.8193  1.1343 -1.2020
  210MOL0     H28974   0.078  10.017   5.997  1.2380  0.2654 -0.9789
  210MOL0     H28975  -0.066  10.067   5.903 -0.6681  0.7419  3.2667
  210MOL0     H28976   0.080  10.397   6.140 -1.4612 -1.2783  0.8400
  210MOL0     H28977   0.581  10.438   5.771  1.0764 -0.4965 -0.3689
  210MOL0     H28978   0.726  10.599   5.831  0.8699  1.4537 -0.1015
  210MOL0     H28979   0.802  10.578   5.993 -1.6909 -1.9296  1.1482
  210MOL0     H28980   0.881  10.513   5.847  0.4509  0.4463  4.2279
  211MOL0     O28981   9.358  10.371  10.005 -0.4955 -0.1337 -0.5023
  211MOL0     C28982   9.270  10.312   9.939  0.6452 -0.1347  0.2780
  211MOL0     O28983   9.298  10.256   9.818  0.1543  0.6619 -0.1935
  211MOL0     C28984   9.417  10.266   9.749 -0.2865 -0.1569 -0.3140
  211MOL0     C28985   9.499  10.385   9.764  0.3303  0.1091 -0.5969
  211MOL0     C28986   9.616  10.390   9.689 -0.7753 -0.9871 -0.0384
  211MOL0     C28987   9.651  10.289   9.604 -0.4544 -0.1152 -0.5189
  211MOL0     O28988   9.764  10.309   9.531 -0.8603  0.2606 -0.4226
  211MOL0     C28989   9.833  10.194   9.482 -1.6843 -0.3244 -0.4983
  211MOL0     C28990   9.828  10.191   9.325  0.3675 -0.8906 -1.0034
  211MOL0     C28991   9.902  10.071   9.249  0.5507 -0.1084  0.2462
  211MOL0     C28992   9.839   9.936   9.290 -1.0842  0.8527 -0.9232
  211MOL0     C28993   9.901   9.808   9.229  0.0337  0.6857  1.5174
  211MOL0     C28994   9.818   9.684   9.272  0.4403  0.7691  0.5313
  211MOL0     C28995   9.874   9.554   9.218  0.4256  0.2236 -0.1877
  211MOL0     C28996   9.813   9.425   9.265  0.3454 -0.3856 -0.3274
  211MOL0     N28997   9.839   9.405   9.413 -1.1018 -0.4130  0.5652
  211MOL0     C28998   9.957   9.358   9.470  0.0482 -0.2165  0.5600
  211MOL0     C28999   9.932   9.369   9.602 -0.0521  0.5004 -0.3149
  211MOL0     C29000  10.032   9.326   9.700  0.7423 -0.0340  0.5281
  211MOL0     C29001  10.179   9.357   9.654  0.4483 -0.1292  0.3912
  211MOL0     C29002  10.199   9.507   9.640  0.3036 -0.2324 -0.1182
  211MOL0     C29003  10.338   9.546   9.593  0.3584  0.0660 -0.2132
  211MOL0     O29004  10.360   9.525   9.453  0.2279 -0.0123  0.0625
  211MOL0     C29005  10.485   9.511   9.396 -0.6176 -0.4489 -0.7257
  211MOL0     C29006  10.494   9.456   9.269 -0.5831  0.6458  0.5416
  211MOL0     C29007  10.622   9.443   9.211  0.1271 -0.7484  0.1196
  211MOL0     C29008  10.620   9.384   9.072 -0.3790  0.3443 -0.7001
  211MOL0     C29009  10.737   9.497   9.275 -0.7414  0.6026  0.1110
  211MOL0     C29010  10.872   9.495   9.208  0.0653 -0.5583 -0.1280
  211MOL0     O29011  10.978   9.469   9.292 -0.1309  1.4294  0.2658
  211MOL0     C29012  11.104   9.442   9.234  0.1088  0.5934 -0.5778
  211MOL0     C29013  11.119   9.346   9.142 -0.5467 -0.7339 -0.0519
  211MOL0     C29014  11.249   9.306   9.101 -0.2542  0.5630 -0.3628
  211MOL0     C29015  11.361   9.378   9.143  0.4072  0.6785 -0.3556
  211MOL0     O29016  11.482   9.344   9.095 -0.4314  0.5744  0.3755
  211MOL0     C29017  11.602   9.387   9.161 -0.2097  0.6153  0.3239
  211MOL0     C29018  11.715   9.296   9.111 -0.7555 -0.2379 -0.2379
  211MOL0     C29019  11.860   9.352   9.124 -1.1713 -0.0942 -0.5363
  211MOL0     C29020  11.957   9.238   9.090 -0.4410 -0.3231 -0.6804
  211MOL0     C29021  12.097   9.272   9.152 -0.5589 -0.1209 -0.1101
  211MOL0     C29022  12.210   9.178   9.090  0.1416 -0.6647 -0.2784
  211MOL0     C29023  12.350   9.210   9.162 -0.5904  0.1513  0.3850
  211MOL0     C29024  12.465   9.133   9.097 -0.1085  0.0704  0.5526
  211MOL0    Cl29025  12.615   9.203   9.164 -0.1132 -0.1073  0.1537
  211MOL0     C29026  11.333   9.484   9.235 -0.3512 -0.6921 -1.0178
  211MOL0     C29027  11.207   9.509   9.280  0.0266 -0.7908  0.3117
  211MOL0     O29028  10.885   9.523   9.089  0.1562 -0.0273 -0.1687
  211MOL0     C29029  10.727   9.556   9.403  0.2498  0.6731 -0.7440
  211MOL0     C29030  10.604   9.559   9.462  0.7905  0.7843  0.4138
  211MOL0     N29031   9.810   9.430   9.622 -0.5127  0.1695  0.4343
  211MOL0     N29032   9.760   9.445   9.506  0.3396  0.3691  0.1236
  211MOL0     C29033   9.577  10.171   9.600  0.5634 -0.2335 -0.4657
  211MOL0     C29034   9.454  10.165   9.669  0.0623  0.7582 -0.3235
  211MOL0     C29035   9.134  10.305  10.000  0.2647 -0.7649  0.0879
  211MOL0     C29036   9.038  10.221   9.945 -0.5007  0.2761  0.1029
  211MOL0     C29037   8.909  10.216   9.993 -0.9066  0.1457 -0.4617
  211MOL0     C29038   8.861  10.303  10.083 -0.9295  0.4191 -0.5299
  211MOL0     O29039   8.735  10.303  10.130 -0.5537 -0.0547 -0.4189
  211MOL0     C29040   8.626  10.320  10.031 -0.1906 -1.1535 -0.1757
  211MOL0     C29041   8.513  10.214  10.065 -0.2540 -0.3006 -0.1182
  211MOL0     C29042   8.387  10.247   9.995  0.4814 -0.2788 -0.6147
  211MOL0     C29043   8.393  10.203   9.854  0.4303  0.0453  0.1646
  211MOL0     C29044   8.271  10.193   9.783 -0.2170  1.1396  0.2916
  211MOL0     C29045   8.159  10.185   9.730  0.1275  0.4955  0.2583
  211MOL0     C29046   8.950  10.395  10.136  0.7445  0.6047  0.4305
  211MOL0     C29047   9.088  10.407  10.098  0.2226  0.1173 -0.2532
  211MOL0     C29048   9.176  10.512  10.156 -0.2229 -0.2222  0.3661
  211MOL0     H29049   9.471  10.465   9.832  2.4108  1.7076 -1.5000
  211MOL0     H29050   9.677  10.480   9.688 -3.7224  1.1716 -0.5397
  211MOL0     H29051   9.793  10.103   9.526 -0.8537 -1.4646 -2.0145
  211MOL0     H29052   9.937  10.194   9.514 -1.7276 -1.2909 -0.3295
  211MOL0     H29053   9.722  10.201   9.297  0.3332  1.3789 -0.1913
  211MOL0     H29054   9.862  10.290   9.292  2.0462 -1.9333 -2.6275
  211MOL0     H29055   9.887  10.079   9.141  0.2475 -3.5193 -0.0730
  211MOL0     H29056  10.011  10.070   9.263  0.5813  3.9467  1.6263
  211MOL0     H29057   9.857   9.936   9.398  2.0118 -0.8786 -1.3272
  211MOL0     H29058   9.731   9.929   9.273 -1.1014  0.5457 -0.6949
  211MOL0     H29059  10.004   9.795   9.262 -0.0738 -3.8285  0.7951
  211MOL0     H29060   9.899   9.823   9.120 -0.8428 -0.8171  1.2946
  211MOL0     H29061   9.818   9.682   9.382  1.1493 -0.1499  0.5225
  211MOL0     H29062   9.715   9.698   9.237  1.4574 -0.0802 -3.1977
  211MOL0     H29063   9.980   9.541   9.243  0.4862 -2.0774 -1.3626
  211MOL0     H29064   9.860   9.562   9.110 -0.6942  0.3919 -0.0392
  211MOL0     H29065   9.706   9.417   9.246  0.1632  3.5176 -1.9732
  211MOL0     H29066   9.865   9.346   9.211  0.1452 -0.4382 -0.4390
  211MOL0     H29067  10.049   9.328   9.420  0.8492  0.9082  1.3168
  211MOL0     H29068  10.020   9.218   9.712  1.6547 -0.6549 -2.9851
  211MOL0     H29069  10.022   9.361   9.803  1.8813  2.7828 -0.2282
  211MOL0     H29070  10.250   9.321   9.729 -0.7609 -0.3709  1.4541
  211MOL0     H29071  10.210   9.301   9.565  2.0889  0.8648  0.2913
  211MOL0     H29072  10.127   9.553   9.572 -0.2239 -0.1733  0.4721
  211MOL0     H29073  10.170   9.546   9.738  0.0203  0.9925 -0.6788
  211MOL0     H29074  10.358   9.650   9.622 -0.5652  0.3296 -0.4689
  211MOL0     H29075  10.409   9.487   9.651 -2.1641 -0.2611  2.8144
  211MOL0     H29076  10.405   9.412   9.227 -0.0174 -1.6626  1.5872
  211MOL0     H29077  10.718   9.341   9.047 -1.0967 -2.4417  0.8535
  211MOL0     H29078  10.590   9.457   8.997  0.1315  2.0639  0.6968
  211MOL0     H29079  10.552   9.299   9.086 -2.3956  2.0949  0.5905
  211MOL0     H29080  11.044   9.277   9.106 -0.0293 -1.5245  0.3714
  211MOL0     H29081  11.252   9.211   9.049 -0.8734 -1.5945  3.1915
  211MOL0     H29082  11.624   9.488   9.126  3.0822 -0.4053 -0.9281
  211MOL0     H29083  11.597   9.385   9.270  3.0148 -0.1949  0.5598
  211MOL0     H29084  11.719   9.214   9.183  1.0358 -0.2997 -0.3560
  211MOL0     H29085  11.704   9.246   9.014  2.0627 -0.3050 -0.6096
  211MOL0     H29086  11.868   9.384   9.228 -1.8792 -0.6265 -0.3150
  211MOL0     H29087  11.861   9.436   9.054 -1.1298 -0.3446 -0.8396
  211MOL0     H29088  11.959   9.230   8.981  1.4833  1.7656 -0.8621
  211MOL0     H29089  11.917   9.143   9.129 -0.5236  0.4958  1.3422
  211MOL0     H29090  12.122   9.377   9.136 -1.0590 -0.0793 -0.6616
  211MOL0     H29091  12.082   9.270   9.261 -1.1114  3.3960 -0.0102
  211MOL0     H29092  12.197   9.201   8.983 -4.7895 -2.3632 -0.3040
  211MOL0     H29093  12.181   9.074   9.101 -1.7049 -0.4500 -2.3661
  211MOL0     H29094  12.338   9.160   9.259 -1.9394  1.5341  0.9659
  211MOL0     H29095  12.368   9.317   9.175  0.9731 -0.3152  2.6733
  211MOL0     H29096  12.472   9.133   8.988  2.6674 -1.7440  0.6324
  211MOL0     H29097  12.464   9.028   9.124  1.0665  0.7772  3.7720
  211MOL0     H29098  11.412   9.545   9.278 -1.0247  1.1809 -2.2537
  211MOL0     H29099  11.195   9.600   9.337 -1.3772  0.9368 -2.4920
  211MOL0     H29100  10.813   9.601   9.452 -1.2303  0.5532  2.1941
  211MOL0     H29101  10.595   9.598   9.563 -1.7116 -0.5160  0.7666
  211MOL0     H29102   9.596  10.085   9.537 -2.3142  0.2228 -2.1063
  211MOL0     H29103   9.396  10.075   9.654  2.4078 -0.5516 -2.0813
  211MOL0     H29104   9.042  10.148   9.865  0.3055 -0.9203  1.1999
  211MOL0     H29105   8.848  10.147   9.936  3.9247 -0.8654 -5.2140
  211MOL0     H29106   8.595  10.425  10.038  3.3685  0.1576 -1.6378
  211MOL0     H29107   8.661  10.309   9.928 -2.4440 -3.1597 -0.8274
  211MOL0     H29108   8.489  10.217  10.172 -2.3828  2.2492 -0.5666
  211MOL0     H29109   8.556  10.120  10.029 -0.1310 -1.1184  2.0142
  211MOL0     H29110   8.300  10.203  10.045  0.0457  0.0913 -1.0448
  211MOL0     H29111   8.374  10.355   9.995  0.7714 -0.2382 -1.7136
  211MOL0     H29112   8.441  10.105   9.842 -0.6312 -0.2095 -2.7740
  211MOL0     H29113   8.461  10.270   9.800  3.0582 -1.8407  0.9138
  211MOL0     H29114   8.058  10.170   9.698  0.7253  0.1292 -1.5569
  211MOL0     H29115   8.925  10.467  10.214  0.1901 -0.6817  1.4773
  211MOL0     H29116   9.214  10.576  10.076  0.9721 -0.5866  0.6290
  211MOL0     H29117   9.118  10.575  10.224  0.5538  1.6437 -0.6148
  211MOL0     H29118   9.265  10.477  10.209  3.3375  3.8318 -2.2230
  212MOL0     O29119   5.500   3.328   9.003 -0.1947 -0.9075 -0.2134
  212MOL0     C29120   5.487   3.272   9.108  0.3688  0.9027  0.0130
  212MOL0     O29121   5.582   3.266   9.210  0.5527  0.4522 -1.5339
  212MOL0     C29122   5.718   3.299   9.187  0.4777  0.7309  0.4435
  212MOL0     C29123   5.758   3.431   9.218 -0.2711  0.3037  0.4123
  212MOL0     C29124   5.893   3.467   9.198  0.2103 -0.5901  0.2723
  212MOL0     C29125   5.989   3.369   9.178 -0.4563  0.4248  0.3989
  212MOL0     O29126   6.119   3.408   9.166  0.1597 -0.3899  0.4078
  212MOL0     C29127   6.232   3.315   9.204  0.4351  0.1034 -0.1436
  212MOL0     C29128   6.372   3.383   9.216 -0.0990 -0.7799 -0.1167
  212MOL0     C29129   6.413   3.458   9.087  0.2274  0.8013  0.3258
  212MOL0     C29130   6.347   3.587   9.052 -0.2374  0.1370  0.7824
  212MOL0     C29131   6.431   3.670   8.957 -0.2165 -0.1646  0.2109
  212MOL0     C29132   6.380   3.816   8.941 -0.4226 -0.4454 -0.3551
  212MOL0     C29133   6.370   3.900   9.068  0.3843  0.2210 -0.1767
  212MOL0     C29134   6.495   3.911   9.151 -0.5348  0.1449 -0.0426
  212MOL0     N29135   6.607   3.964   9.076  0.4069 -0.5777  0.8325
  212MOL0     C29136   6.720   3.898   9.027  0.6000 -0.6632  0.1174
  212MOL0     C29137   6.780   3.990   8.947 -0.6694  0.0341  0.5350
  212MOL0     C29138   6.911   3.964   8.873 -0.6710 -0.3417 -0.1891
  212MOL0     C29139   7.031   3.933   8.963  0.2284 -0.8421 -1.1933
  212MOL0     C29140   7.150   3.873   8.877 -0.4474 -0.0143  0.5257
  212MOL0     C29141   7.289   3.911   8.914  0.5529  1.0786 -0.4192
  212MOL0     O29142   7.310   4.050   8.885  0.7041 -1.0530  0.1312
  212MOL0     C29143   7.441   4.096   8.898 -0.2505  0.3359 -0.1822
  212MOL0     C29144   7.542   4.015   8.944  0.1957  0.4770  1.0281
  212MOL0     C29145   7.678   4.060   8.960 -0.3261 -0.6923  0.1746
  212MOL0     C29146   7.773   3.957   9.000  0.2255  0.0235  0.5412
  212MOL0     C29147   7.707   4.201   8.930  0.6316 -0.3316 -0.0257
  212MOL0     C29148   7.844   4.260   8.951 -0.1830 -0.0649  0.9956
  212MOL0     O29149   7.847   4.384   9.013  0.5108  0.0339 -0.1576
  212MOL0     C29150   7.958   4.468   9.021  0.4479 -0.1006 -0.3991
  212MOL0     C29151   8.093   4.431   9.001  0.4156  0.3079 -0.3851
  212MOL0     C29152   8.200   4.519   9.017  0.6058  0.0038  0.6359
  212MOL0     C29153   8.174   4.648   9.049 -0.5343 -0.8582 -0.3871
  212MOL0     O29154   8.287   4.736   9.048 -0.4408 -0.2653 -0.4159
  212MOL0     C29155   8.273   4.865   9.122 -0.3334 -0.6641  0.1009
  212MOL0     C29156   8.415   4.883   9.178 -1.2976  0.2674 -0.3674
  212MOL0     C29157   8.444   4.783   9.299  0.5569 -0.4138  0.3720
  212MOL0     C29158   8.590   4.808   9.359 -0.7540 -0.1973 -0.3753
  212MOL0     C29159   8.595   4.756   9.499 -0.8648 -0.1887 -0.2948
  212MOL0     C29160   8.726   4.777   9.579 -0.4653  0.8165  0.4701
  212MOL0     C29161   8.733   4.706   9.713 -0.2642 -0.3546 -0.0324
  212MOL0     C29162   8.860   4.736   9.799  0.2220  0.3563 -0.7811
  212MOL0    Cl29163   9.006   4.716   9.713 -0.4308 -0.2246  0.1145
  212MOL0     C29164   8.048   4.699   9.075  0.4710  0.9761 -0.6993
  212MOL0     C29165   7.939   4.602   9.072  0.0869 -0.1178  1.0364
  212MOL0     O29166   7.944   4.203   8.906  0.6055 -0.5499 -0.2244
  212MOL0     C29167   7.600   4.284   8.901 -0.3552  0.6519  1.2287
  212MOL0     C29168   7.472   4.228   8.874 -0.1227 -0.4975  0.9474
  212MOL0     N29169   6.705   4.109   8.949 -0.5093 -0.9563 -0.1145
  212MOL0     N29170   6.599   4.093   9.029 -0.9090  0.2376 -0.8481
  212MOL0     C29171   5.947   3.240   9.151 -1.1521 -0.0486  0.2087
  212MOL0     C29172   5.809   3.210   9.148 -0.0219 -0.5364  0.3116
  212MOL0     C29173   5.347   3.226   9.146  0.0419 -0.3280  0.4579
  212MOL0     C29174   5.344   3.131   9.249 -1.1022 -0.2634 -1.1617
  212MOL0     C29175   5.229   3.082   9.306 -0.1601  0.5562 -0.1923
  212MOL0     C29176   5.115   3.132   9.254 -0.6516  0.1158  0.2543
  212MOL0     O29177   5.000   3.092   9.321 -0.3176 -0.3246  0.0143
  212MOL0     C29178   4.881   3.069   9.239 -0.5133 -0.0413  0.0878
  212MOL0     C29179   4.775   2.988   9.297  0.9074 -0.1962 -0.2085
  212MOL0     C29180   4.638   3.025   9.232  0.7224  0.9826 -0.2681
  212MOL0     C29181   4.529   2.945   9.303 -0.0657  0.5998 -0.5100
  212MOL0     C29182   4.396   2.961   9.246  0.1439 -1.0005 -0.5669
  212MOL0     C29183   4.276   2.976   9.218 -1.0620 -0.3976  0.4267
  212MOL0     C29184   5.107   3.217   9.140 -0.7949 -0.8074  0.0395
  212MOL0     C29185   5.227   3.263   9.082 -0.8610  0.8825  0.1083
  212MOL0     C29186   5.216   3.358   8.963  1.0538  0.4338 -0.8610
  212MOL0     H29187   5.680   3.503   9.239  0.6037  1.0636  1.1354
  212MOL0     H29188   5.939   3.565   9.193  2.4771 -1.4929  1.6838
  212MOL0     H29189   6.243   3.229   9.137 -4.7526 -0.1961 -1.0295
  212MOL0     H29190   6.199   3.276   9.301 -1.1686  1.0937 -0.2423
  212MOL0     H29191   6.366   3.460   9.293  1.8248 -1.5631  0.9019
  212MOL0     H29192   6.444   3.305   9.241  0.2576 -0.3322  0.2698
  212MOL0     H29193   6.522   3.471   9.085  0.2494  0.6749 -1.8139
  212MOL0     H29194   6.384   3.394   9.003 -2.8132  0.2987  1.6179
  212MOL0     H29195   6.246   3.587   9.009 -0.7121  4.4370  1.4153
  212MOL0     H29196   6.336   3.644   9.144  1.1650  0.5717  0.7071
  212MOL0     H29197   6.438   3.630   8.856 -1.1580  0.1030  0.0262
  212MOL0     H29198   6.534   3.679   8.993  0.6913 -1.2807 -1.9365
  212MOL0     H29199   6.453   3.874   8.883  0.8772  1.2011  2.6800
  212MOL0     H29200   6.281   3.821   8.896  1.0384  2.2686 -3.7406
  212MOL0     H29201   6.298   3.850   9.134  1.3059  2.0130  2.3302
  212MOL0     H29202   6.329   3.996   9.037  0.1300  0.2218  0.1438
  212MOL0     H29203   6.467   3.966   9.241 -2.3613  1.1965 -1.2127
  212MOL0     H29204   6.519   3.808   9.181  0.3129  0.2507 -0.3259
  212MOL0     H29205   6.750   3.797   9.052  0.1361 -1.1425 -1.1736
  212MOL0     H29206   6.926   4.050   8.808 -1.4182  0.0905  0.1988
  212MOL0     H29207   6.891   3.868   8.825 -0.4269 -0.7243  0.4564
  212MOL0     H29208   7.056   4.021   9.021 -2.0606  0.3771 -1.9421
  212MOL0     H29209   7.005   3.858   9.038 -0.5770 -0.1640 -0.7873
  212MOL0     H29210   7.137   3.766   8.863 -0.6140  0.2753 -2.1556
  212MOL0     H29211   7.127   3.898   8.772 -0.0350 -1.7156  0.0076
  212MOL0     H29212   7.303   3.892   9.020 -1.3098  1.1530 -0.1224
  212MOL0     H29213   7.351   3.851   8.847 -1.9673 -1.7101 -0.4824
  212MOL0     H29214   7.522   3.913   8.976 -2.6955  0.6554  0.0986
  212MOL0     H29215   7.749   3.854   8.975  0.4863  0.3539 -1.1603
  212MOL0     H29216   7.774   3.965   9.110 -2.9306  2.9828  0.5468
  212MOL0     H29217   7.878   3.974   8.975  0.0323 -1.7994 -1.8417
  212MOL0     H29218   8.115   4.330   8.968  0.3827  0.9718 -2.5251
  212MOL0     H29219   8.301   4.488   8.992  0.0994 -0.0608 -1.4929
  212MOL0     H29220   8.241   4.946   9.056 -1.6931 -1.9560 -0.9192
  212MOL0     H29221   8.199   4.849   9.201 -1.0693 -1.3166 -0.7015
  212MOL0     H29222   8.493   4.856   9.106  0.9881 -0.2065  2.1366
  212MOL0     H29223   8.428   4.988   9.206  1.1588  0.1393 -0.7454
  212MOL0     H29224   8.435   4.681   9.261 -0.0392  0.1758 -1.1225
  212MOL0     H29225   8.362   4.785   9.372 -0.7548 -0.2631 -1.0486
  212MOL0     H29226   8.609   4.915   9.371 -1.7073 -0.0637  0.0132
  212MOL0     H29227   8.669   4.761   9.299 -0.8295  0.4517 -0.9988
  212MOL0     H29228   8.514   4.805   9.554  0.0818  0.7889  0.2606
  212MOL0     H29229   8.570   4.649   9.501 -2.5484  0.1800  0.8334
  212MOL0     H29230   8.755   4.881   9.597  1.3242  0.3111  0.7536
  212MOL0     H29231   8.809   4.734   9.522 -0.8593 -1.0514  1.2300
  212MOL0     H29232   8.731   4.598   9.698  1.6663 -0.6052  1.0502
  212MOL0     H29233   8.649   4.744   9.771  1.4190  1.0325  1.6661
  212MOL0     H29234   8.853   4.665   9.883 -0.0712  2.0429  0.6754
  212MOL0     H29235   8.858   4.837   9.840  1.9602  0.1736 -0.1477
  212MOL0     H29236   8.019   4.798   9.109 -1.7965  0.1517 -0.0140
  212MOL0     H29237   7.843   4.648   9.093 -0.3224  0.3146 -1.4489
  212MOL0     H29238   7.616   4.391   8.891 -1.3437  0.5652 -4.1399
  212MOL0     H29239   7.393   4.296   8.842 -0.1114 -1.5362 -1.5160
  212MOL0     H29240   6.020   3.162   9.128 -3.0025 -2.1321  1.0826
  212MOL0     H29241   5.776   3.112   9.113  0.7867 -1.3852  1.8364
  212MOL0     H29242   5.439   3.104   9.293 -0.6513  0.5067 -1.6434
  212MOL0     H29243   5.226   3.007   9.385  0.9318  0.3908 -0.2889
  212MOL0     H29244   4.842   3.170   9.224  0.2666  0.6677  2.4503
  212MOL0     H29245   4.920   3.015   9.152 -2.3089  0.4044 -1.0422
  212MOL0     H29246   4.772   3.008   9.405 -0.0907  3.6734 -0.7954
  212MOL0     H29247   4.805   2.888   9.266 -1.2586 -0.9662 -0.0346
  212MOL0     H29248   4.625   3.133   9.243 -0.4195  0.7312  1.0669
  212MOL0     H29249   4.633   2.991   9.128 -1.3978 -2.0835  0.7133
  212MOL0     H29250   4.530   2.973   9.409 -2.3982  0.0318 -0.2914
  212MOL0     H29251   4.559   2.841   9.288  3.2539  1.7416 -2.9818
  212MOL0     H29252   4.180   2.995   9.174 -1.0205  0.1603  0.5712
  212MOL0     H29253   5.004   3.241   9.116 -1.3558 -3.2116 -0.1648
  212MOL0     H29254   5.182   3.458   8.993  0.7016 -0.2670  1.2649
  212MOL0     H29255   5.309   3.380   8.909  0.5742  0.3908 -1.7149
  212MOL0     H29256   5.138   3.334   8.891  0.7469 -0.3192 -0.2881
  213MOL0     O29257   1.061   6.441   7.628  0.2117 -0.0630 -0.2576
  213MOL0     C29258   0.958   6.377   7.639 -0.6144 -1.0475 -0.3280
  213MOL0     O29259   0.949   6.236   7.638 -0.1507 -0.5682  0.3845
  213MOL0     C29260   1.041   6.184   7.560 -0.0359  0.5413  0.0187
  213MOL0     C29261   1.149   6.112   7.615  0.9355 -0.6012  0.3966
  213MOL0     C29262   1.248   6.054   7.530 -0.5773  0.5631  0.1559
  213MOL0     C29263   1.233   6.043   7.394 -0.3333 -0.4283  0.0133
  213MOL0     O29264   1.322   5.996   7.300 -0.2172  0.1474 -0.2468
  213MOL0     C29265   1.448   5.932   7.335 -0.5480  0.2808  0.0574
  213MOL0     C29266   1.545   6.022   7.418 -0.3347  0.2997 -0.7059
  213MOL0     C29267   1.627   6.109   7.335 -0.0594 -1.1992 -0.6786
  213MOL0     C29268   1.760   6.146   7.407 -0.9648 -0.2004  0.1531
  213MOL0     C29269   1.838   6.258   7.321  0.6858 -0.5582  0.5440
  213MOL0     C29270   1.971   6.274   7.385 -0.7722 -0.2531  0.1024
  213MOL0     C29271   1.969   6.349   7.520 -0.1057  0.1598  1.0908
  213MOL0     C29272   2.119   6.387   7.570  0.5084  0.4809  0.2474
  213MOL0     N29273   2.165   6.286   7.666  0.1385  0.6713  0.4253
  213MOL0     C29274   2.124   6.274   7.796 -0.0805 -0.1216  0.5496
  213MOL0     C29275   2.214   6.194   7.849 -0.2302  0.2774 -1.1508
  213MOL0     C29276   2.209   6.155   7.993 -0.2324  0.3436 -0.6487
  213MOL0     C29277   2.272   6.258   8.089 -0.4653  0.2682  0.7410
  213MOL0     C29278   2.256   6.214   8.238 -0.4956 -0.0662 -0.0159
  213MOL0     C29279   2.356   6.113   8.279  0.0854  0.0272  0.6765
  213MOL0     O29280   2.493   6.153   8.264  0.6538  0.2313 -0.0891
  213MOL0     C29281   2.593   6.059   8.302 -1.0423  0.9391  1.0978
  213MOL0     C29282   2.577   5.926   8.346  0.2936  0.4909 -0.0224
  213MOL0     C29283   2.682   5.846   8.391 -0.8157  0.0860  0.4627
  213MOL0     C29284   2.646   5.705   8.434  0.0405 -0.3119 -0.0327
  213MOL0     C29285   2.816   5.912   8.400  0.0350  1.1040  0.2459
  213MOL0     C29286   2.936   5.848   8.456  0.4816 -0.5779 -0.8310
  213MOL0     O29287   3.044   5.934   8.466 -0.3594 -0.3918 -0.1826
  213MOL0     C29288   3.170   5.891   8.503 -0.2676 -0.2675 -0.2805
  213MOL0     C29289   3.232   5.938   8.619  0.0145 -0.4810  0.3170
  213MOL0     C29290   3.349   5.887   8.673  0.2404 -0.0949  0.0490
  213MOL0     C29291   3.418   5.782   8.597  0.2796 -0.1915 -0.6471
  213MOL0     O29292   3.519   5.725   8.664 -0.4002  0.1685  0.7338
  213MOL0     C29293   3.530   5.580   8.656 -0.1793 -1.1298 -0.8984
  213MOL0     C29294   3.658   5.533   8.720 -0.3528  0.0992 -0.5145
  213MOL0     C29295   3.712   5.400   8.652 -0.5434 -0.2003 -0.9831
  213MOL0     C29296   3.814   5.433   8.545 -0.2180 -0.1862  0.3594
  213MOL0     C29297   3.949   5.369   8.566 -0.7351  0.2029 -0.4790
  213MOL0     C29298   4.041   5.408   8.684  0.2025 -0.4416  0.2261
  213MOL0     C29299   4.068   5.554   8.690 -0.9688  0.4963  0.6280
  213MOL0     C29300   4.170   5.601   8.591  0.4135 -0.3347 -0.0029
  213MOL0    Cl29301   4.134   5.772   8.536 -0.0023 -0.0665  0.2195
  213MOL0     C29302   3.354   5.737   8.481 -0.3126 -0.3988  0.1036
  213MOL0     C29303   3.232   5.787   8.436  1.2399 -0.0856  0.9262
  213MOL0     O29304   2.940   5.729   8.474 -0.1117  0.1712 -0.6706
  213MOL0     C29305   2.825   6.047   8.371  0.0310 -0.4141  0.5164
  213MOL0     C29306   2.716   6.119   8.311 -1.0423  0.3712  0.9856
  213MOL0     N29307   2.300   6.138   7.759  0.8376 -0.2874  0.8343
  213MOL0     N29308   2.276   6.205   7.647  1.2233  0.0219  0.0346
  213MOL0     C29309   1.113   6.094   7.342 -0.6590 -0.8997  0.2130
  213MOL0     C29310   1.029   6.167   7.418  1.0283  1.2284 -0.5679
  213MOL0     C29311   0.826   6.450   7.650 -0.1145 -0.0318  1.3103
  213MOL0     C29312   0.718   6.379   7.599  0.8001  0.0621  0.6558
  213MOL0     C29313   0.586   6.428   7.607 -0.3705 -0.3776  0.6055
  213MOL0     C29314   0.561   6.550   7.663 -0.6003 -0.3764 -0.6923
  213MOL0     O29315   0.436   6.607   7.680  0.1065  0.3396 -0.5743
  213MOL0     C29316   0.333   6.542   7.603  0.3066 -0.0295  0.3654
  213MOL0     C29317   0.210   6.626   7.608  0.6441 -0.1187  0.3480
  213MOL0     C29318   0.159   6.670   7.737  0.0399 -0.4993 -0.5094
  213MOL0     C29319   0.075   6.803   7.724 -0.3184 -0.1044 -0.3960
  213MOL0     C29320  -0.071   6.800   7.711 -0.2067  0.9312  0.4328
  213MOL0     C29321  -0.193   6.794   7.697 -0.5429  0.2315  0.1184
  213MOL0     C29322   0.672   6.616   7.720  1.3424 -0.5958 -1.0750
  213MOL0     C29323   0.803   6.575   7.709 -0.7325 -0.7418 -0.0203
  213MOL0     C29324   0.911   6.669   7.743  0.3113 -0.0892 -0.8253
  213MOL0     H29325   1.149   6.095   7.722 -0.1473 -0.2030  0.4637
  213MOL0     H29326   1.335   6.021   7.586 -0.7390 -2.3099 -1.1453
  213MOL0     H29327   1.499   5.894   7.246 -2.6015  0.5946 -1.3534
  213MOL0     H29328   1.418   5.844   7.393 -0.9532  0.5052  0.1940
  213MOL0     H29329   1.504   6.077   7.503  1.8178 -0.4169  0.8648
  213MOL0     H29330   1.610   5.950   7.468 -2.7366 -0.6388  1.2693
  213MOL0     H29331   1.650   6.063   7.238  2.2188 -0.5811 -0.4861
  213MOL0     H29332   1.567   6.199   7.317  0.9874 -0.5532 -1.0545
  213MOL0     H29333   1.736   6.200   7.499  0.6804  0.4518  0.2356
  213MOL0     H29334   1.821   6.055   7.417 -2.7684 -1.6103 -0.9540
  213MOL0     H29335   1.777   6.348   7.333  0.5429 -0.3760 -1.2324
  213MOL0     H29336   1.837   6.237   7.213 -0.5947  0.6893  0.2864
  213MOL0     H29337   2.013   6.174   7.395 -1.9315 -0.8708 -0.8723
  213MOL0     H29338   2.035   6.333   7.318 -1.9100 -1.9360 -2.6664
  213MOL0     H29339   1.920   6.288   7.596  1.3885 -0.5607  1.5168
  213MOL0     H29340   1.909   6.439   7.503 -0.7092 -0.3732  0.2714
  213MOL0     H29341   2.185   6.395   7.483  0.0625 -3.0210 -0.5702
  213MOL0     H29342   2.120   6.486   7.617  0.5167  0.2332  0.7779
  213MOL0     H29343   2.045   6.326   7.849 -0.5973 -0.6924  0.3548
  213MOL0     H29344   2.251   6.055   8.010  1.6381  0.7546 -2.4840
  213MOL0     H29345   2.103   6.154   8.020 -0.2590 -1.0964 -0.7440
  213MOL0     H29346   2.373   6.294   8.065 -0.9374  0.7944 -0.6220
  213MOL0     H29347   2.211   6.347   8.065 -1.1610  0.4157  2.8876
  213MOL0     H29348   2.273   6.306   8.295  1.4949  0.0484 -0.7126
  213MOL0     H29349   2.155   6.171   8.244 -0.6595  0.5104  2.6478
  213MOL0     H29350   2.322   6.090   8.380 -2.7258  0.0504 -0.1856
  213MOL0     H29351   2.335   6.018   8.229  1.0600  0.5552 -0.8083
  213MOL0     H29352   2.477   5.884   8.345 -0.4495  2.1673 -1.6586
  213MOL0     H29353   2.715   5.629   8.395  1.9844  1.3915 -0.0613
  213MOL0     H29354   2.548   5.678   8.395 -0.9542 -0.5192  2.4697
  213MOL0     H29355   2.631   5.700   8.542  1.4553  1.3943  0.2969
  213MOL0     H29356   3.183   6.017   8.674  1.6650 -0.6406  2.1145
  213MOL0     H29357   3.386   5.923   8.769  0.8094 -0.0139 -0.1985
  213MOL0     H29358   3.445   5.532   8.707 -1.1918  2.4025  1.0158
  213MOL0     H29359   3.511   5.552   8.551 -3.8337 -0.1146 -0.6748
  213MOL0     H29360   3.735   5.611   8.715  0.2447 -0.4708 -0.4116
  213MOL0     H29361   3.641   5.502   8.824  0.4030 -1.6327 -0.8831
  213MOL0     H29362   3.624   5.348   8.612  0.9301 -1.8507 -2.2604
  213MOL0     H29363   3.758   5.345   8.735  3.4756  1.1080 -2.0989
  213MOL0     H29364   3.830   5.541   8.540 -0.5858 -0.1506 -0.1716
  213MOL0     H29365   3.767   5.411   8.449 -0.2493  3.4597 -0.6225
  213MOL0     H29366   3.926   5.262   8.558  2.4307 -0.8768  2.2558
  213MOL0     H29367   4.004   5.401   8.478  1.7248  0.1480  0.9397
  213MOL0     H29368   4.137   5.357   8.671  0.4783  0.1440 -0.0790
  213MOL0     H29369   3.986   5.371   8.771 -1.2423 -1.8026 -1.2086
  213MOL0     H29370   4.101   5.583   8.790 -1.4592 -2.9479  1.9042
  213MOL0     H29371   3.979   5.615   8.675  0.6294  2.9540  0.5047
  213MOL0     H29372   4.181   5.534   8.506  0.6804  0.6177 -0.7287
  213MOL0     H29373   4.259   5.603   8.655 -0.3580  0.7526  1.0767
  213MOL0     H29374   3.408   5.662   8.425  0.7252  0.9621 -0.8115
  213MOL0     H29375   3.191   5.737   8.349 -0.1390 -0.2385  1.6374
  213MOL0     H29376   2.913   6.109   8.378 -1.7726  2.2701  0.6567
  213MOL0     H29377   2.717   6.219   8.271  0.0780 -0.8471 -2.3903
  213MOL0     H29378   1.094   6.084   7.236 -0.9626 -0.6848  0.2464
  213MOL0     H29379   0.944   6.225   7.382  0.1376  2.1467  2.6387
  213MOL0     H29380   0.716   6.290   7.536 -1.2379 -0.7042  1.6875
  213MOL0     H29381   0.511   6.372   7.553 -1.5105  1.7818 -0.1746
  213MOL0     H29382   0.361   6.535   7.497 -1.5227  0.2872 -0.1681
  213MOL0     H29383   0.318   6.440   7.640  2.6309 -0.6506 -0.2352
  213MOL0     H29384   0.136   6.562   7.559 -0.9592  0.6781  1.6240
  213MOL0     H29385   0.213   6.714   7.543 -1.2325 -1.4499 -1.6948
  213MOL0     H29386   0.097   6.588   7.774  0.0379 -0.2086  0.1432
  213MOL0     H29387   0.236   6.694   7.811 -1.2699  0.4976  0.5838
  213MOL0     H29388   0.112   6.861   7.639 -4.2910 -0.2100 -2.4313
  213MOL0     H29389   0.093   6.858   7.817 -0.2970  0.1693 -0.5637
  213MOL0     H29390  -0.297   6.775   7.680  0.0742 -2.1634 -1.4754
  213MOL0     H29391   0.651   6.713   7.764  0.0131 -1.2904 -0.1079
  213MOL0     H29392   0.997   6.672   7.675  1.6345  0.1053  0.7858
  213MOL0     H29393   0.869   6.770   7.752 -2.8088 -1.2620 -0.9931
  213MOL0     H29394   0.954   6.622   7.833 -0.2652 -2.7239 -1.8309
  214MOL0     O29395   9.537   4.030   7.495  0.1140  0.2326  0.1064
  214MOL0     C29396   9.423   3.980   7.480 -0.1338 -0.1935 -0.4286
  214MOL0     O29397   9.312   4.052   7.439 -0.5045 -0.1116  0.1096
  214MOL0     C29398   9.312   4.182   7.388  0.2847  1.6967 -0.3936
  214MOL0     C29399   9.222   4.275   7.426  0.6489 -0.2225 -0.0599
  214MOL0     C29400   9.224   4.402   7.385 -0.2934 -0.1813  0.7925
  214MOL0     C29401   9.300   4.440   7.275  0.3053  0.2291  0.3043
  214MOL0     O29402   9.278   4.556   7.200 -0.1180 -0.1042  0.6581
  214MOL0     C29403   9.157   4.617   7.219  1.2623  0.0819 -0.8111
  214MOL0     C29404   9.134   4.721   7.117 -0.7954 -0.0055  0.1254
  214MOL0     C29405   9.230   4.839   7.113  0.5986 -0.8573  0.1856
  214MOL0     C29406   9.211   4.927   6.983 -0.7910 -0.1095 -0.1985
  214MOL0     C29407   9.325   5.027   6.964  0.2710 -0.2196  0.7293
  214MOL0     C29408   9.324   5.151   7.064  0.0796  0.4846  1.1185
  214MOL0     C29409   9.426   5.247   7.022  0.4318  0.5102 -0.0306
  214MOL0     C29410   9.416   5.382   7.105 -0.6313  0.6020 -0.0456
  214MOL0     N29411   9.450   5.371   7.242  0.6867 -1.1266 -0.1866
  214MOL0     C29412   9.552   5.296   7.301  1.1111 -0.4389 -0.2140
  214MOL0     C29413   9.528   5.317   7.439  0.3026  0.2165  0.3864
  214MOL0     C29414   9.597   5.254   7.566 -0.4746  0.2674  0.3785
  214MOL0     C29415   9.704   5.147   7.527 -0.3094  0.1532 -0.6163
  214MOL0     C29416   9.788   5.122   7.656  0.3748 -0.2395 -0.7786
  214MOL0     C29417   9.896   5.025   7.632  0.4092  0.1566  0.0308
  214MOL0     O29418   9.950   4.974   7.755  0.0679  0.0823  0.2925
  214MOL0     C29419  10.051   5.045   7.816 -0.0294 -0.8588  0.1619
  214MOL0     C29420  10.111   5.156   7.751 -0.3399 -0.3539 -0.3614
  214MOL0     C29421  10.213   5.240   7.813  0.0987  0.4285 -0.3938
  214MOL0     C29422  10.277   5.350   7.725 -0.1077 -0.3328  0.4689
  214MOL0     C29423  10.250   5.205   7.950 -0.2888 -0.0353  0.5514
  214MOL0     C29424  10.356   5.278   8.022 -0.0465 -0.4995 -0.6372
  214MOL0     O29425  10.453   5.337   7.957 -0.4452 -0.6413  0.8376
  214MOL0     C29426  10.566   5.385   8.021  0.0700 -0.5427 -0.6807
  214MOL0     C29427  10.566   5.525   8.055  0.1281  0.1940 -0.0626
  214MOL0     C29428  10.667   5.585   8.113 -0.1940 -0.3607  0.1873
  214MOL0     C29429  10.774   5.504   8.158 -0.8046 -0.6525  0.2497
  214MOL0     O29430  10.883   5.546   8.238 -0.1572  0.0442 -0.7898
  214MOL0     C29431  10.914   5.688   8.232 -0.5673  0.3580 -0.1503
  214MOL0     C29432  11.057   5.723   8.276 -0.7915  0.5095 -0.1643
  214MOL0     C29433  11.113   5.863   8.237 -0.1699  0.5350  0.0613
  214MOL0     C29434  11.253   5.887   8.285 -0.5212  0.1436  0.1100
  214MOL0     C29435  11.337   5.989   8.187 -0.3702  0.6655  0.1876
  214MOL0     C29436  11.496   5.995   8.183 -0.0333  0.3717 -0.6315
  214MOL0     C29437  11.549   6.010   8.326  0.2413 -1.1295  0.2286
  214MOL0     C29438  11.697   6.014   8.338 -0.8979 -0.2589 -0.4878
  214MOL0    Cl29439  11.771   6.165   8.264 -0.2292 -0.0603 -0.3288
  214MOL0     C29440  10.777   5.373   8.128 -0.0461  0.3450  0.8102
  214MOL0     C29441  10.678   5.308   8.059 -1.1147  0.3818  0.4058
  214MOL0     O29442  10.338   5.280   8.145  0.1136 -1.2623  0.3743
  214MOL0     C29443  10.187   5.097   8.015  0.3735 -0.8913 -0.1940
  214MOL0     C29444  10.082   5.024   7.954  0.5806 -0.1194 -0.4573
  214MOL0     N29445   9.408   5.394   7.459 -0.3894 -0.4884  0.2646
  214MOL0     N29446   9.374   5.431   7.343  0.2208  0.3163 -0.3077
  214MOL0     C29447   9.387   4.349   7.226  1.0980  0.3026  0.7820
  214MOL0     C29448   9.399   4.222   7.283  1.0240  0.3076 -0.0458
  214MOL0     C29449   9.402   3.838   7.517  0.1925  0.2578 -0.0978
  214MOL0     C29450   9.263   3.803   7.519  0.2362 -0.5137 -0.1465
  214MOL0     C29451   9.219   3.682   7.574  0.7341  0.4457  0.0633
  214MOL0     C29452   9.311   3.587   7.610  0.0754 -0.4175 -0.3435
  214MOL0     O29453   9.285   3.455   7.644  0.6008  0.9469  0.1535
  214MOL0     C29454   9.148   3.398   7.658 -0.0746  0.6283 -0.2334
  214MOL0     C29455   9.085   3.356   7.527  0.5421 -0.3952  0.9384
  214MOL0     C29456   8.935   3.330   7.548  0.2930  0.3295 -0.6269
  214MOL0     C29457   8.876   3.247   7.435  0.3117  0.6056 -0.4098
  214MOL0     C29458   8.735   3.232   7.464 -0.4461  0.3494 -0.0551
  214MOL0     C29459   8.622   3.207   7.485  0.3863  0.1943  0.4788
  214MOL0     C29460   9.451   3.616   7.595 -0.0701 -0.0129 -0.1618
  214MOL0     C29461   9.498   3.742   7.548  0.4582  0.2538  0.1884
  214MOL0     C29462   9.640   3.769   7.556  0.3193  0.7597  0.2913
  214MOL0     H29463   9.157   4.265   7.512  1.0245 -1.4005  0.1000
  214MOL0     H29464   9.156   4.468   7.438  0.1904 -1.3344  2.9819
  214MOL0     H29465   9.143   4.654   7.321 -1.9205 -3.0840  0.1233
  214MOL0     H29466   9.079   4.540   7.217  0.3955  0.8395  1.2461
  214MOL0     H29467   9.135   4.680   7.016 -1.3838  1.4917 -0.5306
  214MOL0     H29468   9.031   4.759   7.123 -0.8764 -0.0832 -0.6207
  214MOL0     H29469   9.210   4.903   7.199 -1.3455  0.4585 -1.1528
  214MOL0     H29470   9.337   4.819   7.125  0.6221  0.3696  2.6208
  214MOL0     H29471   9.214   4.856   6.900 -1.5255 -0.4505  0.0560
  214MOL0     H29472   9.112   4.973   6.982 -1.2309 -0.9998  0.9859
  214MOL0     H29473   9.326   5.063   6.861  0.3611 -0.1691  0.7465
  214MOL0     H29474   9.423   4.984   6.986  1.9107  4.3609  3.9945
  214MOL0     H29475   9.225   5.193   7.045  0.6127  1.1179 -0.4737
  214MOL0     H29476   9.341   5.112   7.165  1.3926  1.2169  1.1999
  214MOL0     H29477   9.413   5.267   6.915 -2.6199  0.9748  0.3479
  214MOL0     H29478   9.523   5.200   7.040  0.2114  0.4984  1.1959
  214MOL0     H29479   9.494   5.448   7.064  0.5140 -0.2781  0.6807
  214MOL0     H29480   9.313   5.417   7.091 -1.4472 -1.5959  0.0506
  214MOL0     H29481   9.627   5.234   7.254  1.9963 -0.3621  1.0613
  214MOL0     H29482   9.524   5.202   7.628  1.3427  1.2174  3.5473
  214MOL0     H29483   9.638   5.335   7.627 -1.7357  2.0811 -1.0640
  214MOL0     H29484   9.665   5.057   7.479  2.7677 -1.2604 -0.6991
  214MOL0     H29485   9.764   5.201   7.453 -0.8507 -0.3990 -1.4804
  214MOL0     H29486   9.832   5.217   7.688 -0.9262  0.6055 -1.3959
  214MOL0     H29487   9.720   5.098   7.738  1.0303 -1.7678 -0.6651
  214MOL0     H29488   9.859   4.938   7.577  1.0037  0.2081 -0.4542
  214MOL0     H29489   9.976   5.055   7.563 -0.0493 -0.5220 -0.8071
  214MOL0     H29490  10.078   5.198   7.657  0.9928 -1.5457 -1.4098
  214MOL0     H29491  10.274   5.452   7.765  0.8625  0.9601 -2.5153
  214MOL0     H29492  10.226   5.356   7.628  0.5155  0.8348  0.1855
  214MOL0     H29493  10.385   5.332   7.717 -0.6297 -3.8069 -0.0346
  214MOL0     H29494  10.476   5.585   8.046  0.3722  0.7566  1.0429
  214MOL0     H29495  10.673   5.689   8.145  0.2344 -0.4375  0.3659
  214MOL0     H29496  10.920   5.708   8.125  0.7664 -0.4079 -0.2470
  214MOL0     H29497  10.843   5.761   8.270 -1.0617  0.6206 -1.5228
  214MOL0     H29498  11.059   5.711   8.385  1.5238  1.6963 -0.0173
  214MOL0     H29499  11.114   5.642   8.229 -1.2952  0.1159 -0.1039
  214MOL0     H29500  11.047   5.944   8.269 -3.7249 -0.9977 -2.7483
  214MOL0     H29501  11.112   5.875   8.129 -1.3337  2.3610  0.2351
  214MOL0     H29502  11.293   5.785   8.289  1.6353  0.9743  0.7929
  214MOL0     H29503  11.242   5.925   8.387  0.3421 -2.0155  1.0686
  214MOL0     H29504  11.299   5.970   8.086 -1.7017  2.1236  0.3776
  214MOL0     H29505  11.306   6.088   8.223  1.8655  2.1512 -1.6938
  214MOL0     H29506  11.531   6.077   8.121 -1.4160 -0.0642 -2.0544
  214MOL0     H29507  11.543   5.900   8.153  0.4701  0.3513  0.2052
  214MOL0     H29508  11.507   5.927   8.384 -0.7408 -1.2615 -0.6351
  214MOL0     H29509  11.519   6.107   8.367  0.9440  0.7440 -3.2920
  214MOL0     H29510  11.754   5.930   8.298 -0.4664  1.0239 -2.6855
  214MOL0     H29511  11.717   6.012   8.446  1.0327  0.8002 -0.7850
  214MOL0     H29512  10.857   5.309   8.162 -0.0427  0.2054  0.5366
  214MOL0     H29513  10.703   5.206   8.033 -2.6513  0.1144 -0.0976
  214MOL0     H29514  10.214   5.084   8.119 -0.4947 -0.2388  0.1288
  214MOL0     H29515  10.025   4.954   8.015 -1.0535  1.3641 -0.2349
  214MOL0     H29516   9.453   4.365   7.141  0.3669 -0.1714  0.1074
  214MOL0     H29517   9.463   4.149   7.235 -1.1237 -3.0995  1.8924
  214MOL0     H29518   9.188   3.876   7.493  0.8145  0.8421  1.7912
  214MOL0     H29519   9.115   3.663   7.600  0.7965 -1.6265 -1.0127
  214MOL0     H29520   9.161   3.312   7.724 -0.7504  0.1206 -0.7560
  214MOL0     H29521   9.092   3.476   7.711  2.0745  1.5321  0.8579
  214MOL0     H29522   9.131   3.265   7.486 -2.3191 -1.5747  0.1428
  214MOL0     H29523   9.096   3.432   7.450 -0.0878 -0.9423  0.2993
  214MOL0     H29524   8.933   3.281   7.646  2.2857  1.1754 -0.1091
  214MOL0     H29525   8.881   3.425   7.553  1.0705  0.7646  3.5342
  214MOL0     H29526   8.913   3.144   7.439  0.7219  0.7726  0.2722
  214MOL0     H29527   8.900   3.286   7.336 -0.4996  2.8848  0.2411
  214MOL0     H29528   8.518   3.202   7.509 -0.3299 -0.6505 -2.4198
  214MOL0     H29529   9.530   3.542   7.602  1.0662  1.1454 -0.4377
  214MOL0     H29530   9.697   3.678   7.578  1.4439  1.3905  0.0723
  214MOL0     H29531   9.686   3.816   7.468  1.8845 -0.3787  0.4704
  214MOL0     H29532   9.665   3.838   7.637 -0.8518  1.9605 -0.3391
  215MOL0     O29533   7.245   2.654   0.280 -0.6763 -0.3741  0.5339
  215MOL0     C29534   7.206   2.608   0.174  0.2168  0.3774 -0.4709
  215MOL0     O29535   7.077   2.593   0.143 -0.1884 -0.4607  0.5262
  215MOL0     C29536   6.978   2.648   0.216 -0.9198 -0.3813 -0.4832
  215MOL0     C29537   6.919   2.775   0.179 -0.8686  0.5039 -0.3075
  215MOL0     C29538   6.814   2.826   0.252 -0.0236  0.4575  0.4866
  215MOL0     C29539   6.759   2.759   0.364 -0.2628 -0.2204 -0.0538
  215MOL0     O29540   6.652   2.804   0.431 -0.4090  0.9459  0.1692
  215MOL0     C29541   6.546   2.717   0.474  0.4828  0.0138  0.3357
  215MOL0     C29542   6.462   2.801   0.557  0.4437 -0.4311 -0.5812
  215MOL0     C29543   6.348   2.713   0.613 -0.2223  0.1405  0.3639
  215MOL0     C29544   6.258   2.788   0.715 -0.1259  1.0061  0.2703
  215MOL0     C29545   6.133   2.712   0.738 -0.0885 -0.3125 -0.1028
  215MOL0     C29546   6.043   2.766   0.846 -0.1817  0.2630  1.0399
  215MOL0     C29547   5.905   2.708   0.835 -0.2960  0.4136 -0.4349
  215MOL0     C29548   5.816   2.742   0.963 -0.2314 -0.2889 -0.1035
  215MOL0     N29549   5.691   2.663   0.947 -0.1710  0.9070 -0.0122
  215MOL0     C29550   5.662   2.538   1.003  0.3524  0.2223  0.0823
  215MOL0     C29551   5.553   2.496   0.936  0.1484  0.6565 -0.9670
  215MOL0     C29552   5.499   2.356   0.960  0.1341  0.0993  0.2328
  215MOL0     C29553   5.507   2.277   0.820 -0.0652 -0.0879 -0.6640
  215MOL0     C29554   5.538   2.127   0.839  0.0128 -0.6835  1.0305
  215MOL0     C29555   5.668   2.103   0.912  0.1924 -0.5283 -0.7483
  215MOL0     O29556   5.728   1.990   0.845 -0.2315 -0.0769  0.3213
  215MOL0     C29557   5.822   1.916   0.917 -1.5446 -0.7725 -0.9883
  215MOL0     C29558   5.821   1.779   0.900  0.6623 -0.1451  0.1808
  215MOL0     C29559   5.901   1.691   0.971 -0.7156 -0.4406  0.3035
  215MOL0     C29560   5.885   1.541   0.942  0.2203  0.4310 -0.8007
  215MOL0     C29561   6.008   1.748   1.053 -0.1502 -0.6212 -0.7438
  215MOL0     C29562   6.120   1.674   1.116 -1.0337  0.3305 -0.8562
  215MOL0     O29563   6.147   1.558   1.053  0.1667  0.2833 -0.0604
  215MOL0     C29564   6.245   1.463   1.098  0.4716 -0.3310  0.2636
  215MOL0     C29565   6.300   1.392   0.995 -0.2997  0.4806  0.0656
  215MOL0     C29566   6.396   1.295   1.027 -0.0047  0.0306 -0.0041
  215MOL0     C29567   6.441   1.254   1.157  0.9125 -0.5981  0.5236
  215MOL0     O29568   6.537   1.162   1.192  0.0702 -0.1257 -0.8166
  215MOL0     C29569   6.642   1.134   1.093 -0.1186  0.2404  0.5681
  215MOL0     C29570   6.753   1.065   1.178 -0.1652 -0.4402  0.5332
  215MOL0     C29571   6.862   0.993   1.089  0.7397  0.1259  0.6856
  215MOL0     C29572   6.964   0.909   1.168  0.9607 -0.3393  0.7232
  215MOL0     C29573   7.074   0.845   1.072  0.2213 -0.7352  0.4853
  215MOL0     C29574   7.181   0.761   1.160  0.5257 -0.0431 -0.4111
  215MOL0     C29575   7.248   0.650   1.073  0.5419  0.1451 -0.5755
  215MOL0     C29576   7.296   0.695   0.925 -1.0224  0.0758  0.3165
  215MOL0    Cl29577   7.400   0.839   0.942  0.4741  0.6019 -0.3419
  215MOL0     C29578   6.376   1.317   1.265 -0.0336 -0.9191 -0.2150
  215MOL0     C29579   6.288   1.425   1.226  0.2932  0.7670 -0.1899
  215MOL0     O29580   6.180   1.720   1.214 -0.4810  0.3643 -0.4506
  215MOL0     C29581   5.998   1.886   1.085  0.3392 -0.0857  1.1742
  215MOL0     C29582   5.906   1.966   1.016 -0.6306 -0.6578  0.2275
  215MOL0     N29583   5.517   2.594   0.848  0.2770  0.0786  0.1645
  215MOL0     N29584   5.601   2.689   0.853 -0.8094  0.4733  0.3209
  215MOL0     C29585   6.808   2.632   0.390 -0.1622 -0.3607  1.0452
  215MOL0     C29586   6.920   2.579   0.315  0.5805 -0.2951 -0.2096
  215MOL0     C29587   7.303   2.549   0.085 -0.0393 -0.0127 -0.0926
  215MOL0     C29588   7.254   2.442   0.013 -0.2326 -1.1357  0.4408
  215MOL0     C29589   7.317   2.378  -0.085  0.1687 -0.8760 -0.1936
  215MOL0     C29590   7.446   2.425  -0.118 -0.5453 -0.2257 -0.2984
  215MOL0     O29591   7.529   2.357  -0.202  0.0911  0.3787  0.4385
  215MOL0     C29592   7.543   2.213  -0.191 -0.7117 -0.2496  0.4442
  215MOL0     C29593   7.682   2.168  -0.222 -0.9413  0.9721 -0.0034
  215MOL0     C29594   7.705   2.142  -0.373 -0.0734 -0.7655 -0.3733
  215MOL0     C29595   7.843   2.085  -0.398  0.2476  0.8580 -0.6187
  215MOL0     C29596   7.847   2.055  -0.540  0.9155  0.8679 -0.4367
  215MOL0     C29597   7.868   2.032  -0.656 -0.4968  0.3220 -0.2254
  215MOL0     C29598   7.506   2.528  -0.042 -0.0387  0.9712  0.6387
  215MOL0     C29599   7.431   2.592   0.056 -0.6679 -0.6663  0.6128
  215MOL0     C29600   7.512   2.699   0.127  0.9191 -0.1188  0.2510
  215MOL0     H29601   6.958   2.837   0.100 -1.8209  2.3376  0.5903
  215MOL0     H29602   6.792   2.925   0.214  0.1944 -0.4458 -2.2761
  215MOL0     H29603   6.578   2.636   0.540 -0.0638 -2.8582 -2.6258
  215MOL0     H29604   6.497   2.672   0.387 -0.1938  0.8054  0.2985
  215MOL0     H29605   6.521   2.842   0.640  2.5208 -0.7206 -1.8389
  215MOL0     H29606   6.425   2.887   0.500  0.5141 -0.8134 -1.2149
  215MOL0     H29607   6.284   2.687   0.528  0.5156 -0.1179 -0.1201
  215MOL0     H29608   6.385   2.619   0.654 -2.7595 -3.0411 -3.8498
  215MOL0     H29609   6.323   2.812   0.800 -1.3796  2.5480  0.8494
  215MOL0     H29610   6.229   2.886   0.674  0.0131  0.1021 -2.1711
  215MOL0     H29611   6.168   2.610   0.760  0.8714 -0.9216 -3.7601
  215MOL0     H29612   6.071   2.708   0.648 -0.0729 -0.4082 -0.1099
  215MOL0     H29613   6.092   2.752   0.943 -2.7837  0.2126  2.4316
  215MOL0     H29614   6.023   2.873   0.844 -0.2089  0.2934  2.2618
  215MOL0     H29615   5.922   2.601   0.817  2.1014  0.6524  0.0832
  215MOL0     H29616   5.852   2.738   0.744  2.3213  0.5767 -2.0007
  215MOL0     H29617   5.873   2.711   1.051  1.6708  0.4365 -1.0384
  215MOL0     H29618   5.796   2.849   0.970 -0.8200 -0.3395 -0.8754
  215MOL0     H29619   5.706   2.495   1.092 -1.0073 -1.7634 -0.1176
  215MOL0     H29620   5.396   2.354   0.997  0.0521 -3.5928  0.2144
  215MOL0     H29621   5.552   2.293   1.032  3.1940  1.6236 -0.5117
  215MOL0     H29622   5.412   2.284   0.765 -2.7060 -0.5930  3.4005
  215MOL0     H29623   5.588   2.313   0.756  2.0545  0.7865  2.3239
  215MOL0     H29624   5.449   2.084   0.886 -2.2772  1.8233 -0.7008
  215MOL0     H29625   5.552   2.086   0.738  0.3726  2.0665 -0.1225
  215MOL0     H29626   5.735   2.189   0.913 -1.4585  0.8040  0.1595
  215MOL0     H29627   5.652   2.087   1.019 -0.2911  3.8110 -0.0171
  215MOL0     H29628   5.745   1.730   0.840  0.7585 -0.7293  0.5324
  215MOL0     H29629   5.979   1.490   0.919  1.3832  0.8576  2.4635
  215MOL0     H29630   5.821   1.531   0.854 -2.4988  0.0679  1.0894
  215MOL0     H29631   5.842   1.484   1.025  1.2484 -1.7054 -1.6505
  215MOL0     H29632   6.253   1.405   0.898 -3.2948  2.4117  1.6193
  215MOL0     H29633   6.422   1.232   0.942  1.3726  1.6902 -0.8800
  215MOL0     H29634   6.597   1.055   1.033  1.4237 -1.8969  2.0516
  215MOL0     H29635   6.680   1.222   1.042  0.8387  0.8555  2.2481
  215MOL0     H29636   6.805   1.144   1.233 -1.2003  1.4148 -1.0251
  215MOL0     H29637   6.705   0.988   1.239 -0.1754 -1.0524 -0.2231
  215MOL0     H29638   6.911   1.068   1.026  1.1792 -0.4803  0.2869
  215MOL0     H29639   6.812   0.935   1.011  0.7324  2.8936 -1.5238
  215MOL0     H29640   6.919   0.824   1.220  0.0724 -0.4649 -0.2148
  215MOL0     H29641   7.018   0.974   1.237 -0.3847 -0.6353  2.0994
  215MOL0     H29642   7.022   0.770   1.013 -0.9900  0.2067  0.3112
  215MOL0     H29643   7.124   0.916   1.006 -1.9339 -1.1137 -1.6932
  215MOL0     H29644   7.138   0.719   1.251  4.8338  1.0670  2.4585
  215MOL0     H29645   7.254   0.833   1.198 -0.9262  2.2074 -1.6559
  215MOL0     H29646   7.182   0.562   1.073  1.1371 -0.3047 -0.6473
  215MOL0     H29647   7.340   0.618   1.122 -0.0268 -0.2528  0.2649
  215MOL0     H29648   7.202   0.710   0.872 -1.2096  2.1995  1.1489
  215MOL0     H29649   7.353   0.613   0.880  0.1229 -0.9002  3.2524
  215MOL0     H29650   6.409   1.294   1.365  1.8098 -1.2912 -0.8788
  215MOL0     H29651   6.248   1.488   1.304 -3.6146  0.1297 -1.4743
  215MOL0     H29652   6.059   1.930   1.164 -0.6078  2.3336  0.6494
  215MOL0     H29653   5.908   2.072   1.039  0.2571 -0.7251  0.5130
  215MOL0     H29654   6.743   2.574   0.454 -1.6741  1.6872  1.4827
  215MOL0     H29655   6.953   2.478   0.336 -0.9664 -0.4939  1.4928
  215MOL0     H29656   7.150   2.413   0.027 -1.1640  2.0005  0.6865
  215MOL0     H29657   7.261   2.306  -0.143 -3.7062  2.0132 -0.4425
  215MOL0     H29658   7.520   2.186  -0.088 -0.6952  2.2601  1.1706
  215MOL0     H29659   7.471   2.165  -0.258 -1.5200  2.8900 -1.1514
  215MOL0     H29660   7.690   2.066  -0.184  0.4730  0.6778 -1.0156
  215MOL0     H29661   7.764   2.230  -0.187  2.4035 -2.2527 -1.4335
  215MOL0     H29662   7.634   2.076  -0.426 -0.2538  0.1829 -1.3578
  215MOL0     H29663   7.694   2.239  -0.422  2.1926  1.8185  3.7124
  215MOL0     H29664   7.873   2.003  -0.333 -2.8551  1.3002  1.5669
  215MOL0     H29665   7.914   2.169  -0.399 -0.1385  1.2641 -3.2863
  215MOL0     H29666   7.888   2.029  -0.762  1.4811  1.1338  0.0816
  215MOL0     H29667   7.609   2.556  -0.057  0.5906 -0.5930  1.8138
  215MOL0     H29668   7.614   2.677   0.092  0.0049 -3.3688 -0.7660
  215MOL0     H29669   7.483   2.802   0.105 -0.9345 -0.9279 -1.3997
  215MOL0     H29670   7.507   2.683   0.235  1.9998 -2.2555  0.0470
  216MOL0     O29671   0.678   0.531   3.171 -0.0986 -0.1575 -0.1804
  216MOL0     C29672   0.616   0.438   3.114  0.0544  0.1146  0.1647
  216MOL0     O29673   0.680   0.349   3.024 -0.0528  0.0035  0.4380
  216MOL0     C29674   0.817   0.342   2.989  0.2002 -0.0776 -0.4952
  216MOL0     C29675   0.908   0.438   3.019 -0.3311  1.1374  0.3410
  216MOL0     C29676   1.044   0.415   2.996  0.1748  0.3101 -0.0800
  216MOL0     C29677   1.090   0.299   2.936 -0.0790  0.5011  0.1914
  216MOL0     O29678   1.224   0.274   2.914  0.5789 -0.3313 -0.0141
  216MOL0     C29679   1.323   0.374   2.951 -0.0851 -0.8682 -0.2758
  216MOL0     C29680   1.465   0.335   2.920 -0.0284 -0.2108  0.6077
  216MOL0     C29681   1.573   0.442   2.965  0.8952 -0.5394 -0.3271
  216MOL0     C29682   1.717   0.396   2.940  0.3954  0.7879  0.1544
  216MOL0     C29683   1.829   0.487   3.010  0.8997 -0.2512 -1.1381
  216MOL0     C29684   1.960   0.415   2.983 -0.0197 -0.5518 -0.1978
  216MOL0     C29685   2.071   0.476   3.065 -0.4888  0.4360  0.4125
  216MOL0     C29686   2.127   0.619   3.026  0.3369  0.9174 -0.2702
  216MOL0     N29687   2.252   0.648   3.100 -0.7983  0.3353 -0.5682
  216MOL0     C29688   2.356   0.699   3.033 -0.2023  0.0952  0.0812
  216MOL0     C29689   2.463   0.669   3.110 -1.0107  0.9157  0.0814
  216MOL0     C29690   2.603   0.705   3.071 -0.2362 -0.6189 -0.9079
  216MOL0     C29691   2.602   0.862   3.077 -1.3017 -0.3593 -0.0993
  216MOL0     C29692   2.739   0.922   3.069 -0.1790  0.5029  0.9153
  216MOL0     C29693   2.728   1.069   3.066  0.8203 -1.3234  0.8379
  216MOL0     O29694   2.857   1.125   3.057 -0.4821 -0.2963 -0.8122
  216MOL0     C29695   2.898   1.238   3.125 -0.1928  0.2473 -0.6984
  216MOL0     C29696   2.826   1.325   3.202  0.0483 -0.3493 -0.3753
  216MOL0     C29697   2.886   1.442   3.262 -0.3415 -0.2340 -0.1062
  216MOL0     C29698   2.791   1.540   3.319  0.0809  1.0762 -0.7909
  216MOL0     C29699   3.029   1.451   3.247  0.2120  0.3775  0.3782
  216MOL0     C29700   3.093   1.566   3.305 -0.8691  0.5007  0.0481
  216MOL0     O29701   3.025   1.676   3.351  0.9396 -0.3945 -0.4012
  216MOL0     C29702   3.071   1.781   3.424 -0.7860  0.7566  0.7315
  216MOL0     C29703   3.189   1.847   3.382  0.3342  0.2279  0.5053
  216MOL0     C29704   3.223   1.968   3.438 -0.1532 -1.0962 -0.4257
  216MOL0     C29705   3.146   2.027   3.547  0.4419 -0.3267  0.4139
  216MOL0     O29706   3.185   2.138   3.618  0.3176 -0.1173 -0.6666
  216MOL0     C29707   3.255   2.245   3.545 -0.2738 -0.2110  0.3179
  216MOL0     C29708   3.294   2.366   3.628 -0.5458  0.1043  0.1627
  216MOL0     C29709   3.403   2.442   3.558  0.3610 -1.2675 -0.3086
  216MOL0     C29710   3.469   2.535   3.661  0.1139  0.1012  0.3388
  216MOL0     C29711   3.595   2.609   3.609  0.0468 -0.4904  0.1038
  216MOL0     C29712   3.709   2.519   3.560  0.4354  0.4159 -0.6149
  216MOL0     C29713   3.843   2.588   3.527  0.1454 -0.5712  0.3766
  216MOL0     C29714   3.945   2.493   3.458 -0.0490 -0.4392 -0.0712
  216MOL0    Cl29715   3.897   2.467   3.279 -0.3058 -0.2646 -0.3661
  216MOL0     C29716   3.023   1.962   3.584 -0.3656  0.2346  0.7832
  216MOL0     C29717   2.985   1.839   3.525 -0.0979  0.2522 -0.6258
  216MOL0     O29718   3.216   1.558   3.305 -0.9180 -0.1004 -0.1534
  216MOL0     C29719   3.103   1.350   3.178  0.1600  0.1127  0.5655
  216MOL0     C29720   3.037   1.249   3.108 -0.3326 -0.1625  0.2207
  216MOL0     N29721   2.415   0.610   3.225  0.4664 -0.5891  0.2246
  216MOL0     N29722   2.287   0.606   3.222  0.7670 -0.0702  0.3763
  216MOL0     C29723   0.990   0.212   2.890 -0.9718  0.1140  0.5266
  216MOL0     C29724   0.853   0.225   2.920 -0.1870  0.0473  0.6983
  216MOL0     C29725   0.466   0.409   3.123 -1.0355  0.5646 -0.5430
  216MOL0     C29726   0.424   0.281   3.085  0.2856 -0.4799 -0.2141
  216MOL0     C29727   0.292   0.244   3.125  0.2381 -0.3555  0.0189
  216MOL0     C29728   0.206   0.329   3.193  0.6922 -1.2512  0.3347
  216MOL0     O29729   0.070   0.307   3.225 -0.8062 -0.0331 -0.3658
  216MOL0     C29730   0.008   0.184   3.172 -0.5038  0.3895 -0.8231
  216MOL0     C29731  -0.130   0.183   3.239  0.3376 -0.3841 -0.3866
  216MOL0     C29732  -0.198   0.044   3.226 -0.2142  0.2100  0.9546
  216MOL0     C29733  -0.346   0.057   3.248 -0.0678  0.1634 -0.1542
  216MOL0     C29734  -0.389   0.131   3.366  0.4171  0.3698  0.3938
  216MOL0     C29735  -0.404   0.177   3.475  0.6887  0.2885  0.3331
  216MOL0     C29736   0.253   0.448   3.241  0.2630 -0.3241  0.3091
  216MOL0     C29737   0.385   0.493   3.202  0.8835 -0.0694 -0.4059
  216MOL0     C29738   0.428   0.633   3.223 -0.2639  0.1160 -0.2738
  216MOL0     H29739   0.895   0.530   3.076  0.0148  1.3938  0.0086
  216MOL0     H29740   1.111   0.494   3.025 -0.6859  0.8481  0.4923
  216MOL0     H29741   1.316   0.391   3.059  2.4361  1.4796 -0.3901
  216MOL0     H29742   1.297   0.463   2.894 -0.6923  0.3188  1.7482
  216MOL0     H29743   1.487   0.238   2.966  0.2168  0.5704  2.2249
  216MOL0     H29744   1.469   0.321   2.812 -1.5157 -0.2281  0.5384
  216MOL0     H29745   1.560   0.532   2.905  1.7394 -0.0129  0.2485
  216MOL0     H29746   1.554   0.478   3.067  0.0760  0.2584 -0.7444
  216MOL0     H29747   1.722   0.295   2.982 -1.6256  0.4178 -0.3877
  216MOL0     H29748   1.732   0.390   2.831 -3.7659 -0.8807 -0.4872
  216MOL0     H29749   1.812   0.503   3.117  0.4129 -0.6074 -1.1543
  216MOL0     H29750   1.825   0.588   2.968 -0.8315 -0.6335 -1.9960
  216MOL0     H29751   1.943   0.308   2.997 -2.0735 -1.0401 -4.7204
  216MOL0     H29752   1.983   0.426   2.876 -2.5208  1.6625 -0.6046
  216MOL0     H29753   2.162   0.418   3.051 -0.2468  1.2755 -2.0745
  216MOL0     H29754   2.053   0.470   3.173  1.4178 -1.1031  0.6815
  216MOL0     H29755   2.136   0.618   2.917  1.8024 -1.1009 -0.1947
  216MOL0     H29756   2.052   0.688   3.068  1.5740  0.2417  3.4380
  216MOL0     H29757   2.359   0.765   2.947  2.0539  1.0353  0.8238
  216MOL0     H29758   2.628   0.671   2.970  1.1960  0.8768 -1.1124
  216MOL0     H29759   2.674   0.666   3.145  1.8234  0.9879 -1.9136
  216MOL0     H29760   2.539   0.904   2.998  1.8128  4.1532 -0.5859
  216MOL0     H29761   2.569   0.881   3.180  0.2657  0.0117  0.3665
  216MOL0     H29762   2.807   0.889   3.148  1.8341 -3.6738 -2.1663
  216MOL0     H29763   2.790   0.889   2.978  0.1800 -1.9282  1.8971
  216MOL0     H29764   2.669   1.096   2.979 -0.5714  0.6351  2.3154
  216MOL0     H29765   2.678   1.107   3.155  1.2024  1.1987  0.0455
  216MOL0     H29766   2.723   1.301   3.227 -0.3942  4.1528  3.6483
  216MOL0     H29767   2.815   1.550   3.425  0.2316  0.8081 -0.8002
  216MOL0     H29768   2.688   1.503   3.320  0.6005 -0.5054  1.0258
  216MOL0     H29769   2.780   1.638   3.272 -1.0334  0.6407 -1.4877
  216MOL0     H29770   3.254   1.807   3.305 -1.6962  0.2225 -1.3226
  216MOL0     H29771   3.301   2.021   3.385 -1.4192 -0.1077 -1.3588
  216MOL0     H29772   3.346   2.202   3.503  0.3964  1.4186  0.0312
  216MOL0     H29773   3.192   2.274   3.460 -2.2355 -3.7160  0.3777
  216MOL0     H29774   3.210   2.435   3.640 -0.0537  0.4618  1.8124
  216MOL0     H29775   3.326   2.327   3.725 -0.5654  0.4742  0.3172
  216MOL0     H29776   3.365   2.502   3.475  0.8977  0.2359  0.4803
  216MOL0     H29777   3.473   2.368   3.518  2.0973 -0.0530  0.3318
  216MOL0     H29778   3.508   2.467   3.737  0.4642  1.5047  1.4641
  216MOL0     H29779   3.393   2.606   3.696  1.4207  1.1745  1.1330
  216MOL0     H29780   3.564   2.663   3.519  2.5164 -4.9779 -3.8938
  216MOL0     H29781   3.634   2.661   3.697 -0.2925  1.6606 -0.9552
  216MOL0     H29782   3.671   2.475   3.468 -1.0981  1.0159 -0.2923
  216MOL0     H29783   3.718   2.435   3.630  3.0362  1.8007  0.8540
  216MOL0     H29784   3.891   2.645   3.607 -0.5319  0.6837 -0.0824
  216MOL0     H29785   3.826   2.661   3.447  1.4108 -1.1644 -0.4765
  216MOL0     H29786   3.954   2.396   3.509 -0.5786 -0.2876  0.3215
  216MOL0     H29787   4.040   2.546   3.463 -1.0916  1.5212 -0.3659
  216MOL0     H29788   2.955   2.021   3.644  1.8697  0.2574  3.5051
  216MOL0     H29789   2.903   1.772   3.550  0.1238  0.3062  0.2931
  216MOL0     H29790   3.209   1.364   3.164  0.1778 -1.8360 -1.9077
  216MOL0     H29791   3.085   1.181   3.038 -2.5281 -0.3945 -1.1691
  216MOL0     H29792   1.025   0.134   2.822 -0.1971  1.8448 -1.1469
  216MOL0     H29793   0.794   0.139   2.891  0.7469 -0.9471  1.6421
  216MOL0     H29794   0.482   0.213   3.023  1.2114  0.9081 -0.9188
  216MOL0     H29795   0.259   0.143   3.106 -2.9794 -0.1763  3.5020
  216MOL0     H29796   0.010   0.185   3.062 -1.2457 -2.9330 -0.9985
  216MOL0     H29797   0.058   0.093   3.206  2.1958  1.1608 -2.4157
  216MOL0     H29798  -0.196   0.261   3.201  2.0600  0.5077 -1.7398
  216MOL0     H29799  -0.113   0.206   3.344  3.0182 -1.2952 -0.5392
  216MOL0     H29800  -0.184   0.008   3.123 -1.8806  1.0962  0.3732
  216MOL0     H29801  -0.147  -0.023   3.296  0.9416 -0.6427 -0.6386
  216MOL0     H29802  -0.387  -0.044   3.246  2.4860 -1.1381  3.2996
  216MOL0     H29803  -0.387   0.101   3.157  2.2632  2.4928 -0.1847
  216MOL0     H29804  -0.415   0.227   3.569  0.8006 -2.3221  1.8220
  216MOL0     H29805   0.189   0.509   3.303  0.2320 -2.7082  2.8156
  216MOL0     H29806   0.335   0.689   3.238 -0.2995 -0.1626  0.6296
  216MOL0     H29807   0.502   0.640   3.303  1.3882 -0.9362 -1.6458
  216MOL0     H29808   0.479   0.671   3.134 -1.6720 -2.0015 -2.0743
  217MOL0     O29809   2.486   0.343  10.646  0.0678 -0.2394 -0.3268
  217MOL0     C29810   2.469   0.227  10.625  0.2539  1.1071  0.0972
  217MOL0     O29811   2.575   0.134  10.615 -0.9573  0.3022  0.4144
  217MOL0     C29812   2.702   0.167  10.654 -0.2318  0.7076 -0.3976
  217MOL0     C29813   2.802   0.183  10.557  0.5641 -0.7882 -0.2815
  217MOL0     C29814   2.929   0.229  10.594  0.6588 -0.0281  0.4522
  217MOL0     C29815   2.969   0.243  10.728 -0.7952 -0.0617 -0.0890
  217MOL0     O29816   3.095   0.289  10.750  0.1137  0.5713 -0.3090
  217MOL0     C29817   3.152   0.305  10.888  0.3064  0.1567  0.3554
  217MOL0     C29818   3.219   0.447  10.880 -0.3387  0.3004 -0.1855
  217MOL0     C29819   3.115   0.555  10.859  0.2934 -0.9459  0.5752
  217MOL0     C29820   3.019   0.575  10.976  0.2820 -1.0366 -0.4781
  217MOL0     C29821   3.075   0.676  11.078  0.7393 -0.1228  0.7544
  217MOL0     C29822   2.967   0.713  11.171  1.2133 -0.7925  0.3324
  217MOL0     C29823   3.020   0.817  11.264 -0.2329  0.3997  0.0274
  217MOL0     C29824   3.135   0.778  11.354  0.3500  0.0296 -0.3057
  217MOL0     N29825   3.153   0.891  11.450 -0.9426  0.5475  0.0078
  217MOL0     C29826   3.066   0.908  11.551 -0.1669 -0.2201  0.1887
  217MOL0     C29827   3.116   1.008  11.625  0.5071  0.0112 -0.1339
  217MOL0     C29828   3.065   1.074  11.752  0.1584 -0.0180  0.2561
  217MOL0     C29829   2.978   1.195  11.730  1.0923  0.3203  0.8968
  217MOL0     C29830   2.964   1.282  11.856  1.0488  0.2616  0.6441
  217MOL0     C29831   2.909   1.203  11.981  0.1926  1.0002  0.4941
  217MOL0     O29832   2.781   1.145  11.948  0.3694 -0.6723 -1.7667
  217MOL0     C29833   2.662   1.214  11.974 -0.6093 -0.2124  0.6326
  217MOL0     C29834   2.556   1.136  11.986 -0.1542  0.1212  0.0500
  217MOL0     C29835   2.431   1.188  12.009 -0.7359  0.5291  0.0354
  217MOL0     C29836   2.314   1.096  12.000  0.8131  1.2603  0.0326
  217MOL0     C29837   2.415   1.324  12.027 -0.1295 -0.2232 -0.3506
  217MOL0     C29838   2.295   1.387  12.073 -0.7554 -0.2857  1.1163
  217MOL0     O29839   2.211   1.323  12.152 -0.5720 -0.0303  0.1678
  217MOL0     C29840   2.150   1.394  12.245 -0.3469  0.4016  0.3505
  217MOL0     C29841   2.213   1.485  12.331  0.1710  0.9943 -0.9805
  217MOL0     C29842   2.134   1.535  12.442  0.0537 -0.3532 -0.6137
  217MOL0     C29843   1.997   1.499  12.456 -0.3773 -1.0653  0.0842
  217MOL0     O29844   1.923   1.567  12.553  0.5202  0.3744  0.1607
  217MOL0     C29845   1.919   1.713  12.551 -0.6381  0.3739 -0.1481
  217MOL0     C29846   1.871   1.757  12.422  0.7347  0.2996  0.5838
  217MOL0     C29847   1.742   1.693  12.360 -0.1317 -0.8678 -0.4685
  217MOL0     C29848   1.746   1.691  12.202 -0.1957  0.4895 -0.2627
  217MOL0     C29849   1.670   1.569  12.146 -0.2893  0.3665 -0.5527
  217MOL0     C29850   1.705   1.527  12.001 -0.1985 -0.7450 -0.7812
  217MOL0     C29851   1.599   1.426  11.955 -0.0132  0.2373 -0.7172
  217MOL0     C29852   1.641   1.372  11.822 -0.0704 -0.2861 -0.5460
  217MOL0    Cl29853   1.552   1.482  11.699  0.1875  0.1716 -0.1439
  217MOL0     C29854   1.941   1.406  12.375 -0.8635 -0.1520  0.0952
  217MOL0     C29855   2.018   1.355  12.269  0.3085  0.0530  0.8792
  217MOL0     O29856   2.273   1.499  12.019  0.3860 -0.0753 -0.0620
  217MOL0     C29857   2.529   1.407  12.005 -0.4808  0.1217 -0.1062
  217MOL0     C29858   2.661   1.353  11.985  0.7907 -0.2685 -0.4390
  217MOL0     N29859   3.234   1.050  11.566 -0.7711  0.2284 -0.5341
  217MOL0     N29860   3.250   0.983  11.456 -0.4602 -0.5301  0.0527
  217MOL0     C29861   2.871   0.211  10.827  0.6343 -0.4939  0.4182
  217MOL0     C29862   2.740   0.163  10.789 -0.3015  0.0212 -0.0264
  217MOL0     C29863   2.334   0.180  10.581  0.3901 -0.4505 -0.5590
  217MOL0     C29864   2.324   0.088  10.481  0.1105  0.5532  0.1610
  217MOL0     C29865   2.197   0.041  10.441 -0.7224  0.2334  0.9146
  217MOL0     C29866   2.084   0.093  10.496 -0.1287  0.2766 -0.2748
  217MOL0     O29867   1.949   0.065  10.466 -0.0758 -0.2033  0.5790
  217MOL0     C29868   1.915  -0.056  10.400  0.1582 -0.3276  0.4933
  217MOL0     C29869   1.764  -0.083  10.394 -0.0412 -0.5319  0.4045
  217MOL0     C29870   1.733  -0.220  10.338  0.7980  0.3755 -0.2312
  217MOL0     C29871   1.600  -0.279  10.391 -0.2290  0.1208  0.9134
  217MOL0     C29872   1.487  -0.212  10.334  0.4675 -0.9999 -0.2736
  217MOL0     C29873   1.390  -0.156  10.278  0.8737 -0.1642  0.9216
  217MOL0     C29874   2.091   0.179  10.605 -0.9493 -0.2542 -0.1434
  217MOL0     C29875   2.217   0.222  10.644  1.2649 -0.5565  0.2389
  217MOL0     C29876   2.216   0.313  10.766  1.1168 -0.3998 -0.2515
  217MOL0     H29877   2.779   0.168  10.452  1.3829  1.5409 -0.8560
  217MOL0     H29878   2.990   0.250  10.507  0.8463 -0.5235  0.4577
  217MOL0     H29879   3.229   0.232  10.913  0.8705  0.8337  0.6184
  217MOL0     H29880   3.074   0.292  10.963 -0.5890 -1.6132 -0.8032
  217MOL0     H29881   3.278   0.463  10.970 -2.3868  0.2117  1.2234
  217MOL0     H29882   3.295   0.441  10.801 -0.8883 -2.9152 -0.6333
  217MOL0     H29883   3.166   0.652  10.847  0.7056 -1.3037 -0.7149
  217MOL0     H29884   3.068   0.522  10.766  4.1416 -1.8874 -1.2723
  217MOL0     H29885   2.926   0.609  10.931  0.3080 -1.7335 -1.0700
  217MOL0     H29886   3.007   0.478  11.026  1.2432 -0.7966  0.2529
  217MOL0     H29887   3.111   0.760  11.017 -1.2754 -1.3399 -2.3771
  217MOL0     H29888   3.164   0.639  11.129  1.4564 -0.8461 -0.9558
  217MOL0     H29889   2.879   0.747  11.116  1.7705 -0.5728 -0.4470
  217MOL0     H29890   2.937   0.618  11.217 -1.5142  0.0898  0.5876
  217MOL0     H29891   2.944   0.860  11.330 -1.9026  2.6591 -3.0881
  217MOL0     H29892   3.047   0.904  11.203 -0.1208 -2.1667 -3.9515
  217MOL0     H29893   3.115   0.686  11.410  0.2788  2.0601  3.3555
  217MOL0     H29894   3.224   0.775  11.291 -0.8451 -1.3753 -2.0212
  217MOL0     H29895   2.975   0.852  11.572 -1.2156  0.3108 -2.4555
  217MOL0     H29896   3.151   1.107  11.811  2.4017  1.0549 -3.3081
  217MOL0     H29897   2.995   1.011  11.807 -1.5498  0.4731 -1.2411
  217MOL0     H29898   3.012   1.243  11.638  0.3771 -2.0103 -0.6895
  217MOL0     H29899   2.879   1.162  11.698  2.3106 -0.3265 -2.6671
  217MOL0     H29900   3.064   1.324  11.875  0.8576  0.8225  0.4248
  217MOL0     H29901   2.896   1.367  11.846  0.5064 -0.4324 -3.0445
  217MOL0     H29902   2.975   1.118  12.000  0.3118  0.9991  0.0844
  217MOL0     H29903   2.911   1.270  12.068 -0.4429  1.7085 -0.0305
  217MOL0     H29904   2.576   1.036  11.948 -1.3092 -0.0746 -0.0710
  217MOL0     H29905   2.241   1.126  11.924 -0.2554  0.2435  0.6257
  217MOL0     H29906   2.268   1.078  12.098  0.7713  0.5989 -0.0983
  217MOL0     H29907   2.332   1.000  11.950 -2.2256  0.0496  0.9905
  217MOL0     H29908   2.315   1.509  12.306 -0.6202  2.5599 -2.9864
  217MOL0     H29909   2.192   1.592  12.514  1.7462  0.0701 -2.2252
  217MOL0     H29910   1.860   1.747  12.637  0.9092  0.2194  1.0137
  217MOL0     H29911   2.019   1.756  12.554 -0.6143  0.2937  2.1221
  217MOL0     H29912   1.854   1.864  12.415 -2.4733 -0.0339  1.8920
  217MOL0     H29913   1.945   1.729  12.345 -0.5363  1.6144 -1.1890
  217MOL0     H29914   1.647   1.740  12.385 -0.5068 -0.4513 -2.4609
  217MOL0     H29915   1.730   1.590  12.394  1.5289 -1.1347 -0.5943
  217MOL0     H29916   1.848   1.683  12.163 -1.5340 -2.3705 -3.7498
  217MOL0     H29917   1.710   1.790  12.173  3.0575  2.3901  1.5912
  217MOL0     H29918   1.689   1.478  12.204 -1.8127  0.1157 -0.4069
  217MOL0     H29919   1.563   1.585  12.163 -0.0830 -1.0255  2.8899
  217MOL0     H29920   1.804   1.482  12.011  0.0710 -0.1162 -0.5837
  217MOL0     H29921   1.704   1.617  11.938 -1.0620  0.5111  0.9404
  217MOL0     H29922   1.500   1.473  11.952 -0.3550 -0.2102  1.5485
  217MOL0     H29923   1.604   1.343  12.025  2.1641 -0.2790 -1.4209
  217MOL0     H29924   1.607   1.269  11.810 -0.8483 -0.2879  1.2678
  217MOL0     H29925   1.749   1.379  11.805  0.1962  1.9821  1.4403
  217MOL0     H29926   1.835   1.386  12.386 -0.5097 -1.4757  1.6127
  217MOL0     H29927   1.980   1.274  12.208  2.7446 -0.0235 -0.6751
  217MOL0     H29928   2.523   1.515  12.003 -1.5450  0.0803 -1.8563
  217MOL0     H29929   2.739   1.426  11.966 -0.0942  1.5749  2.3604
  217MOL0     H29930   2.889   0.202  10.934  1.6717 -2.5097  0.1321
  217MOL0     H29931   2.664   0.149  10.865 -1.8439  1.3671 -1.2592
  217MOL0     H29932   2.414   0.045  10.438 -0.4445 -0.7657  0.2684
  217MOL0     H29933   2.191  -0.038  10.367  0.8685 -0.2744  1.2893
  217MOL0     H29934   1.946  -0.059  10.295 -4.7874 -0.2327 -1.2479
  217MOL0     H29935   1.967  -0.131  10.459  2.0878  1.0151  0.5732
  217MOL0     H29936   1.715  -0.015  10.324 -0.6170 -1.1608  0.1809
  217MOL0     H29937   1.724  -0.070  10.495  1.5161  0.9848  0.8743
  217MOL0     H29938   1.719  -0.213  10.230 -1.4787 -0.0051 -0.0079
  217MOL0     H29939   1.819  -0.279  10.372 -0.6155 -0.7890  1.4994
  217MOL0     H29940   1.594  -0.280  10.500 -0.5237 -4.0071  1.0132
  217MOL0     H29941   1.598  -0.385  10.365 -2.3297 -0.0394  1.5788
  217MOL0     H29942   1.306  -0.105  10.235 -0.3622 -3.8658 -1.5733
  217MOL0     H29943   1.999   0.199  10.658 -1.6610 -1.3207 -0.9167
  217MOL0     H29944   2.310   0.306  10.822  0.8682 -0.1659  0.2005
  217MOL0     H29945   2.206   0.418  10.736 -1.0552 -0.5978 -0.3871
  217MOL0     H29946   2.137   0.283  10.835 -0.6764 -2.2980 -2.9291
  218MOL0     O29947   6.545  11.163   3.070  0.0290 -0.4883 -0.6459
  218MOL0     C29948   6.460  11.074   3.103  0.5448 -0.3651  0.3744
  218MOL0     O29949   6.463  10.940   3.063 -0.2230 -0.5304 -0.4014
  218MOL0     C29950   6.561  10.907   2.977  0.4052  0.3663 -0.6435
  218MOL0     C29951   6.699  10.886   3.022  0.2673  0.1166 -0.2056
  218MOL0     C29952   6.791  10.829   2.942 -1.6577  0.3741 -0.5078
  218MOL0     C29953   6.764  10.793   2.809  0.1600 -0.6898 -0.1839
  218MOL0     O29954   6.844  10.738   2.715 -0.5380  0.1380 -0.0971
  218MOL0     C29955   6.983  10.730   2.741 -0.4682 -0.1237  0.1875
  218MOL0     C29956   7.060  10.682   2.623 -0.5166 -0.3690  1.4560
  218MOL0     C29957   7.081  10.781   2.512  0.9440 -0.2245  1.4241
  218MOL0     C29958   6.950  10.824   2.450 -0.2377  0.7742  0.8584
  218MOL0     C29959   6.962  10.932   2.343 -0.3005 -0.8801 -0.4902
  218MOL0     C29960   6.841  10.951   2.262  0.7558  0.7792  0.4035
  218MOL0     C29961   6.861  11.060   2.167 -0.1650  0.1503  0.0256
  218MOL0     C29962   6.722  11.107   2.097  0.2277  0.0873 -0.8982
  218MOL0     N29963   6.745  11.219   1.999 -0.6799 -0.1879  0.2571
  218MOL0     C29964   6.803  11.339   2.033 -0.4220  0.5039 -1.0130
  218MOL0     C29965   6.819  11.405   1.917  0.7902 -0.0651 -0.3252
  218MOL0     C29966   6.880  11.534   1.895 -0.0071 -0.3151 -0.1839
  218MOL0     C29967   7.002  11.523   1.806 -0.5030 -0.2678  0.0609
  218MOL0     C29968   7.104  11.421   1.863 -0.2932  1.3356 -0.2738
  218MOL0     C29969   7.230  11.413   1.762 -0.5504 -0.1552 -0.2724
  218MOL0     O29970   7.320  11.303   1.808  0.1831 -0.1199  0.2172
  218MOL0     C29971   7.428  11.278   1.729  0.2194  0.3922 -0.0754
  218MOL0     C29972   7.464  11.354   1.614 -0.5490 -0.4738  0.2611
  218MOL0     C29973   7.572  11.315   1.530 -0.0563 -0.2769 -0.1590
  218MOL0     C29974   7.612  11.408   1.422  0.3524  0.5588  0.1731
  218MOL0     C29975   7.634  11.190   1.557 -0.5020 -0.2529 -0.6820
  218MOL0     C29976   7.754  11.133   1.490 -0.7381  0.6239 -0.1836
  218MOL0     O29977   7.809  11.025   1.554  0.4932  0.5716 -0.5139
  218MOL0     C29978   7.924  10.960   1.520 -0.7979 -0.3232  0.8069
  218MOL0     C29979   7.976  10.935   1.391 -0.4661 -0.3965 -0.0386
  218MOL0     C29980   8.114  10.888   1.369  0.9971  0.4195  0.4416
  218MOL0     C29981   8.191  10.857   1.476 -0.9982 -0.6205 -0.1955
  218MOL0     O29982   8.317  10.795   1.450  0.2534 -0.2764 -0.4296
  218MOL0     C29983   8.420  10.817   1.546 -0.2910  0.1975 -0.0854
  218MOL0     C29984   8.558  10.860   1.474 -0.9314 -0.5287  0.5753
  218MOL0     C29985   8.594  10.767   1.365  0.4104  0.4061  0.4685
  218MOL0     C29986   8.732  10.796   1.298  0.3089  0.8295 -0.6433
  218MOL0     C29987   8.750  10.707   1.169  0.3209 -0.5583 -0.9151
  218MOL0     C29988   8.885  10.743   1.109  1.0437 -0.0884 -0.4304
  218MOL0     C29989   8.935  10.659   0.992  1.3052  0.4295 -1.0095
  218MOL0     C29990   8.874  10.706   0.862  0.2106 -0.3331  0.4787
  218MOL0    Cl29991   8.883  10.893   0.848 -0.1438 -0.2101  0.1982
  218MOL0     C29992   8.141  10.870   1.602  0.1617  0.2905  0.0958
  218MOL0     C29993   8.015  10.932   1.627 -0.1088 -0.8683  0.4077
  218MOL0     O29994   7.792  11.172   1.382  0.0340  0.0228  0.1822
  218MOL0     C29995   7.603  11.119   1.674 -1.3260  0.6047  0.4463
  218MOL0     C29996   7.505  11.170   1.761 -0.2325  0.3944  0.5289
  218MOL0     N29997   6.762  11.329   1.823 -0.3437  0.5205 -0.5437
  218MOL0     N29998   6.729  11.213   1.868  0.1793 -0.2159 -0.3812
  218MOL0     C29999   6.628  10.806   2.766  0.7367 -0.1181 -0.4867
  218MOL0     C30000   6.528  10.852   2.851  0.3087 -0.0369  0.0405
  218MOL0     C30001   6.345  11.117   3.196  0.4221  0.8006 -0.0215
  218MOL0     C30002   6.370  11.203   3.308 -0.2787  0.2006  0.2639
  218MOL0     C30003   6.266  11.254   3.387  0.1868  0.0590  0.0292
  218MOL0     C30004   6.136  11.216   3.360 -0.7897 -0.3470  0.0481
  218MOL0     O30005   6.020  11.274   3.408  0.2387  0.9505 -0.3997
  218MOL0     C30006   6.032  11.364   3.515 -0.2221 -0.3761  0.1264
  218MOL0     C30007   6.041  11.321   3.662  0.3101 -0.0492 -0.1651
  218MOL0     C30008   6.083  11.436   3.746  0.1042 -0.0271  0.3656
  218MOL0     C30009   6.080  11.420   3.900 -0.0074  0.9060  0.4365
  218MOL0     C30010   5.951  11.379   3.946 -0.3682 -0.3263 -0.4919
  218MOL0     C30011   5.838  11.354   3.984 -0.4188  0.4416  1.4016
  218MOL0     C30012   6.108  11.132   3.250 -0.4243 -0.1296 -0.2602
  218MOL0     C30013   6.209  11.076   3.174 -0.3574  0.4417 -0.2948
  218MOL0     C30014   6.168  10.997   3.044 -0.0068 -0.4172  0.2721
  218MOL0     H30015   6.733  10.917   3.120  1.3734 -2.2171  0.2167
  218MOL0     H30016   6.890  10.809   2.980 -1.4926  2.8049  0.5094
  218MOL0     H30017   6.995  10.659   2.824 -1.8438  0.1660  0.6679
  218MOL0     H30018   7.029  10.823   2.774  0.6139 -1.4132  2.5302
  218MOL0     H30019   7.160  10.651   2.653  0.1921 -1.7994 -1.9231
  218MOL0     H30020   7.014  10.591   2.583  1.8340 -0.6715 -0.7789
  218MOL0     H30021   7.144  10.867   2.537 -1.7858  2.0539  1.0031
  218MOL0     H30022   7.132  10.716   2.440 -1.4941 -0.6877 -0.0462
  218MOL0     H30023   6.891  10.740   2.413 -1.4350  2.0293 -0.1704
  218MOL0     H30024   6.895  10.878   2.528  1.0235  4.3035 -0.4721
  218MOL0     H30025   7.042  10.893   2.279  0.6349  0.1277  0.0342
  218MOL0     H30026   6.993  11.024   2.393 -1.3121 -0.1712 -1.0999
  218MOL0     H30027   6.811  10.860   2.209  0.5591 -0.9466  3.2900
  218MOL0     H30028   6.756  10.985   2.321  0.4579 -0.4729  0.7368
  218MOL0     H30029   6.940  11.028   2.098 -1.3149 -3.5239  0.1890
  218MOL0     H30030   6.909  11.150   2.208  2.5576  0.0483 -2.5863
  218MOL0     H30031   6.671  11.024   2.046  1.3477 -0.3692 -1.3131
  218MOL0     H30032   6.664  11.146   2.181  1.0793  1.3790 -0.8882
  218MOL0     H30033   6.846  11.365   2.130 -3.0077  0.1879  0.3103
  218MOL0     H30034   6.915  11.571   1.991 -0.3296 -1.5477  0.4386
  218MOL0     H30035   6.806  11.609   1.867 -1.0839 -1.1504  0.3729
  218MOL0     H30036   6.967  11.481   1.712 -2.5321 -4.6239  2.4621
  218MOL0     H30037   7.051  11.621   1.799  1.7390 -1.3037  0.3167
  218MOL0     H30038   7.136  11.462   1.959 -5.3689  3.1806  0.9601
  218MOL0     H30039   7.060  11.322   1.874 -2.1799  1.8126 -2.6478
  218MOL0     H30040   7.205  11.403   1.656 -0.6844 -0.2990 -0.2274
  218MOL0     H30041   7.291  11.503   1.768  3.1264 -2.4458  0.3162
  218MOL0     H30042   7.414  11.447   1.591  3.2487  1.7670  0.2925
  218MOL0     H30043   7.701  11.468   1.445 -0.1291  1.0818  0.7127
  218MOL0     H30044   7.531  11.481   1.413  0.4914  0.7751  0.6493
  218MOL0     H30045   7.635  11.358   1.328 -0.8651 -0.3478  0.3304
  218MOL0     H30046   7.923  10.946   1.297  1.9867  1.2318 -1.3194
  218MOL0     H30047   8.137  10.862   1.267  3.6458  1.3835  0.7037
  218MOL0     H30048   8.381  10.894   1.613  1.8127  1.4520 -0.2039
  218MOL0     H30049   8.432  10.723   1.603 -1.3936 -0.9237 -1.6160
  218MOL0     H30050   8.545  10.965   1.447 -0.8764 -0.3954  1.0584
  218MOL0     H30051   8.642  10.861   1.543 -2.3080 -0.9284  2.3213
  218MOL0     H30052   8.524  10.779   1.282  0.0267 -1.1471  0.5405
  218MOL0     H30053   8.596  10.667   1.410 -1.7910  0.4020  0.6446
  218MOL0     H30054   8.811  10.780   1.373 -0.1249 -0.3028 -0.4198
  218MOL0     H30055   8.745  10.901   1.268 -0.2042  1.3271  0.7899
  218MOL0     H30056   8.743  10.601   1.199 -1.6940  0.1320  1.4520
  218MOL0     H30057   8.669  10.723   1.098 -1.2480  0.9460  1.0842
  218MOL0     H30058   8.963  10.727   1.184  0.3237  2.2992  0.9659
  218MOL0     H30059   8.872  10.851   1.098 -0.1175  0.0306  1.6111
  218MOL0     H30060   8.903  10.556   1.012  2.4731  0.6953  3.1889
  218MOL0     H30061   9.044  10.668   0.999  1.2018  0.4374  3.5921
  218MOL0     H30062   8.765  10.693   0.865 -0.4564  3.9300  2.5944
  218MOL0     H30063   8.911  10.646   0.778 -1.1151 -1.3201  0.5595
  218MOL0     H30064   8.190  10.813   1.680 -1.5152  0.8780  1.6486
  218MOL0     H30065   7.983  10.957   1.727  0.8411  2.3889  0.0114
  218MOL0     H30066   7.643  11.023   1.707  0.2843  1.6628  1.7509
  218MOL0     H30067   7.470  11.110   1.844  0.3624 -2.4863 -1.1498
  218MOL0     H30068   6.592  10.779   2.667 -1.6820 -2.2547  0.8381
  218MOL0     H30069   6.422  10.859   2.827  1.1132  1.0920 -3.7889
  218MOL0     H30070   6.476  11.225   3.316 -0.5044  2.1740 -1.1941
  218MOL0     H30071   6.288  11.309   3.478  1.3616 -1.7562  0.8991
  218MOL0     H30072   6.119  11.426   3.491 -2.8737  2.5276 -2.9060
  218MOL0     H30073   5.945  11.430   3.503  0.8666  1.0951  0.0214
  218MOL0     H30074   6.107  11.233   3.666  0.9796  0.4986  3.2618
  218MOL0     H30075   5.944  11.299   3.707  0.5676  2.5459  1.8501
  218MOL0     H30076   6.190  11.443   3.725 -0.0426 -2.3613 -1.5773
  218MOL0     H30077   6.032  11.528   3.716 -3.0777 -1.4224  1.0941
  218MOL0     H30078   6.127  11.500   3.958  3.5089  0.1486 -1.1513
  218MOL0     H30079   6.136  11.332   3.930 -0.7466 -0.6142 -2.3771
  218MOL0     H30080   5.737  11.339   4.017 -0.8664 -0.2702 -0.2171
  218MOL0     H30081   6.004  11.132   3.220  0.2502  1.7166 -2.9822
  218MOL0     H30082   6.221  11.037   2.958  1.8048  4.2904  3.1773
  218MOL0     H30083   6.197  10.892   3.053 -0.1390 -0.5034 -0.3021
  218MOL0     H30084   6.059  10.997   3.033 -0.6037  1.6626  4.1857
  219MOL0     O30085  10.072  11.128   0.237  0.1605 -0.2836 -0.5687
  219MOL0     C30086   9.963  11.124   0.176  0.0204 -0.5667 -0.1914
  219MOL0     O30087   9.940  11.139   0.042  0.6838  0.1515  0.8600
  219MOL0     C30088  10.045  11.182  -0.042  1.0344  0.2409 -0.0607
  219MOL0     C30089  10.184  11.146  -0.035 -0.8049 -0.3381  0.3844
  219MOL0     C30090  10.270  11.189  -0.132 -0.9736  0.0196  0.6789
  219MOL0     C30091  10.236  11.267  -0.240 -0.3496 -0.1868  0.6309
  219MOL0     O30092  10.328  11.320  -0.329 -0.4737 -0.6188 -0.0792
  219MOL0     C30093  10.301  11.331  -0.471 -0.1135 -0.6186  0.7352
  219MOL0     C30094  10.429  11.373  -0.538  0.5954 -0.6803  0.0261
  219MOL0     C30095  10.534  11.270  -0.552 -0.5101  0.8000 -0.2700
  219MOL0     C30096  10.650  11.291  -0.647 -0.3440 -0.4147 -0.7141
  219MOL0     C30097  10.741  11.172  -0.676  0.3624 -0.3878  0.2101
  219MOL0     C30098  10.868  11.191  -0.755 -0.0870 -0.0059  0.0978
  219MOL0     C30099  10.833  11.226  -0.898  0.2230 -0.6770 -0.1594
  219MOL0     C30100  10.934  11.186  -1.006  0.6806 -0.2333 -0.0217
  219MOL0     N30101  11.071  11.213  -0.981 -0.1366  1.0464 -0.0199
  219MOL0     C30102  11.172  11.115  -0.980  0.6806 -0.7226 -0.0718
  219MOL0     C30103  11.288  11.192  -0.988 -0.0005 -0.7180 -0.4492
  219MOL0     C30104  11.427  11.142  -1.014  0.8118  0.2923  0.2533
  219MOL0     C30105  11.471  11.149  -1.164 -0.6077 -0.4631 -0.1497
  219MOL0     C30106  11.609  11.081  -1.193  0.5571  0.2521 -0.5237
  219MOL0     C30107  11.659  11.128  -1.332 -0.2542  0.4133  1.4334
  219MOL0     O30108  11.562  11.117  -1.446  0.0808 -0.3562  0.1047
  219MOL0     C30109  11.614  11.171  -1.560 -0.2568 -0.5163 -0.9278
  219MOL0     C30110  11.668  11.090  -1.655  0.4124 -0.0318 -0.6829
  219MOL0     C30111  11.721  11.136  -1.773  0.5681  0.2610  0.2272
  219MOL0     C30112  11.761  11.044  -1.881 -0.4853 -0.1047 -0.3188
  219MOL0     C30113  11.744  11.278  -1.783  1.1057  0.1633  0.2810
  219MOL0     C30114  11.819  11.338  -1.895  0.1904  0.1902 -0.0958
  219MOL0     O30115  11.940  11.273  -1.925  0.6960 -0.3538  0.4949
  219MOL0     C30116  12.024  11.309  -2.032  1.2141 -0.7743 -0.7378
  219MOL0     C30117  12.060  11.210  -2.126 -0.3021 -0.7172  0.6837
  219MOL0     C30118  12.125  11.245  -2.238 -0.4226  0.3848  0.0055
  219MOL0     C30119  12.169  11.378  -2.264  0.1038  0.1736  0.6233
  219MOL0     O30120  12.235  11.397  -2.381 -0.2093 -0.2997  1.1535
  219MOL0     C30121  12.323  11.515  -2.399  0.3498  0.1600 -0.7756
  219MOL0     C30122  12.451  11.488  -2.314  0.2989 -0.4523 -0.6616
  219MOL0     C30123  12.553  11.398  -2.388  1.0822 -0.1647  0.2726
  219MOL0     C30124  12.667  11.369  -2.288 -0.5293 -0.1970 -0.1791
  219MOL0     C30125  12.766  11.272  -2.342 -0.3232  0.1098  0.4229
  219MOL0     C30126  12.842  11.305  -2.470 -0.8597  0.8306  0.6621
  219MOL0     C30127  12.969  11.233  -2.497 -0.4444  0.2810  0.0863
  219MOL0     C30128  12.949  11.084  -2.516 -0.3208  0.1579 -0.5393
  219MOL0    Cl30129  13.108  11.010  -2.562  0.2649 -0.4911 -0.0533
  219MOL0     C30130  12.130  11.470  -2.169  0.2033  0.0856 -0.4054
  219MOL0     C30131  12.068  11.442  -2.050  0.1188 -0.2408 -0.9699
  219MOL0     O30132  11.765  11.428  -1.957 -0.2138 -0.0494 -0.2657
  219MOL0     C30133  11.687  11.362  -1.689 -1.3652 -0.4589 -0.9530
  219MOL0     C30134  11.624  11.308  -1.578  0.7930  0.1735 -0.6000
  219MOL0     N30135  11.254  11.322  -0.990  0.1663 -0.1226 -0.2573
  219MOL0     N30136  11.129  11.332  -0.996 -0.5390  0.2455  0.3206
  219MOL0     C30137  10.102  11.305  -0.251  0.3031 -0.3105 -0.0859
  219MOL0     C30138  10.008  11.263  -0.152  0.3099 -0.7356  0.8419
  219MOL0     C30139   9.842  11.077   0.254 -0.1174 -0.0237  1.1202
  219MOL0     C30140   9.826  10.947   0.287 -1.0733 -0.4996 -0.1206
  219MOL0     C30141   9.716  10.902   0.346  0.2920 -0.3614 -0.5702
  219MOL0     C30142   9.605  10.980   0.369 -0.2228  0.0178  0.1789
  219MOL0     O30143   9.502  10.911   0.434  0.8145  0.4487  0.1765
  219MOL0     C30144   9.375  10.984   0.448  0.0853  0.7330  0.2396
  219MOL0     C30145   9.306  10.953   0.309  0.3208  0.2290 -0.3000
  219MOL0     C30146   9.280  10.803   0.284  1.0174  0.3451 -0.7063
  219MOL0     C30147   9.209  10.709   0.393  0.1263 -0.4939  0.5615
  219MOL0     C30148   9.090  10.778   0.447 -1.2981 -0.2977 -0.1056
  219MOL0     C30149   8.984  10.817   0.489  0.3167 -0.7658  0.8184
  219MOL0     C30150   9.615  11.118   0.339 -0.4281 -0.3263 -0.1214
  219MOL0     C30151   9.734  11.167   0.276  0.1546  0.3154 -0.5512
  219MOL0     C30152   9.747  11.322   0.249 -0.2242  0.9381 -0.4546
  219MOL0     H30153  10.236  11.086   0.039 -1.8536 -2.3966 -0.4592
  219MOL0     H30154  10.373  11.158  -0.115 -1.2322 -1.5123 -0.3826
  219MOL0     H30155  10.236  11.418  -0.484  1.0848  0.8466  3.6732
  219MOL0     H30156  10.269  11.236  -0.516  2.4322  0.3412 -3.6645
  219MOL0     H30157  10.401  11.402  -0.640 -1.4141 -1.5812  0.2802
  219MOL0     H30158  10.466  11.463  -0.489 -2.4886  1.2788 -0.9638
  219MOL0     H30159  10.581  11.258  -0.454 -2.1293 -0.2288  0.4381
  219MOL0     H30160  10.484  11.174  -0.569 -1.4473  1.4268 -1.2072
  219MOL0     H30161  10.615  11.317  -0.748 -1.8277  0.0500 -0.1051
  219MOL0     H30162  10.713  11.366  -0.600 -1.2626 -0.3850  0.5072
  219MOL0     H30163  10.678  11.097  -0.724 -3.1544  4.0438 -2.9569
  219MOL0     H30164  10.767  11.132  -0.578 -0.4735  1.6847  1.3364
  219MOL0     H30165  10.945  11.258  -0.716  1.1663  0.1186 -2.4020
  219MOL0     H30166  10.912  11.090  -0.751  0.3333  0.2224  2.6607
  219MOL0     H30167  10.809  11.333  -0.899 -0.8156 -0.8975 -0.4015
  219MOL0     H30168  10.735  11.183  -0.919  0.6311 -0.7328 -2.1806
  219MOL0     H30169  10.932  11.078  -1.021  1.5605 -0.4190  1.1279
  219MOL0     H30170  10.903  11.226  -1.103 -3.8401 -1.1606  0.8020
  219MOL0     H30171  11.163  11.008  -0.965  0.3250 -0.6843 -0.0125
  219MOL0     H30172  11.442  11.041  -0.976  0.6936  1.3290  3.3832
  219MOL0     H30173  11.499  11.207  -0.963  1.5868  1.3243 -1.9942
  219MOL0     H30174  11.395  11.105  -1.230  0.3700  0.3385 -1.8739
  219MOL0     H30175  11.499  11.254  -1.179  1.4315 -0.9358  0.0947
  219MOL0     H30176  11.672  11.115  -1.110  0.8073  0.0629 -0.6359
  219MOL0     H30177  11.615  10.972  -1.187  0.3486  0.0156 -3.2609
  219MOL0     H30178  11.691  11.233  -1.332 -2.4934  1.1579  0.2004
  219MOL0     H30179  11.749  11.075  -1.364 -1.6711 -0.7811 -0.8780
  219MOL0     H30180  11.670  10.985  -1.627 -0.5106  0.0308 -0.3320
  219MOL0     H30181  11.869  11.034  -1.872 -0.0802  1.6817 -2.3300
  219MOL0     H30182  11.744  11.077  -1.984  2.7533 -1.4612 -1.4068
  219MOL0     H30183  11.710  10.950  -1.856 -0.2486  0.1861  1.3935
  219MOL0     H30184  12.037  11.104  -2.119  0.0423 -0.7883  0.7185
  219MOL0     H30185  12.149  11.162  -2.303 -0.6020  1.4601 -1.5064
  219MOL0     H30186  12.352  11.540  -2.501  0.4477  0.8131 -0.5905
  219MOL0     H30187  12.284  11.604  -2.349  2.5898  1.0203 -0.4411
  219MOL0     H30188  12.496  11.586  -2.293 -1.2092 -0.0809  1.1918
  219MOL0     H30189  12.423  11.452  -2.214  2.3347  1.5846  0.7631
  219MOL0     H30190  12.590  11.448  -2.478  0.1286  0.3155  0.1350
  219MOL0     H30191  12.505  11.305  -2.420 -0.2559 -0.4802  2.9043
  219MOL0     H30192  12.624  11.337  -2.193 -1.5211  1.2617 -0.1037
  219MOL0     H30193  12.732  11.453  -2.260  0.5488 -0.7981 -0.8287
  219MOL0     H30194  12.843  11.260  -2.265 -0.8813 -0.3510  0.9228
  219MOL0     H30195  12.712  11.177  -2.352 -0.3840 -0.0852  2.2801
  219MOL0     H30196  12.867  11.412  -2.473 -0.0787  0.6519  0.5142
  219MOL0     H30197  12.783  11.290  -2.561  0.9226  0.0698 -0.4270
  219MOL0     H30198  13.051  11.264  -2.432 -1.9971  2.7520  1.0092
  219MOL0     H30199  13.006  11.276  -2.590 -1.3793  0.0059 -0.4273
  219MOL0     H30200  12.872  11.067  -2.592  0.0478 -0.4381 -0.7820
  219MOL0     H30201  12.907  11.037  -2.426 -0.3974  0.4352 -0.4294
  219MOL0     H30202  12.148  11.576  -2.183  1.5479 -0.0357  0.2405
  219MOL0     H30203  12.052  11.513  -1.970 -2.7209  1.0848 -2.5812
  219MOL0     H30204  11.709  11.467  -1.703 -0.6603 -0.3936  0.4831
  219MOL0     H30205  11.582  11.377  -1.506 -0.7932  0.7623 -2.0301
  219MOL0     H30206  10.071  11.380  -0.323  1.0210  0.3965  0.3218
  219MOL0     H30207   9.901  11.285  -0.158  0.2411 -1.3432 -0.5071
  219MOL0     H30208   9.902  10.877   0.256 -0.5668  0.4223 -1.0510
  219MOL0     H30209   9.716  10.800   0.383 -1.1198  0.0315  0.5742
  219MOL0     H30210   9.318  10.938   0.529 -1.0901  2.0778  0.2086
  219MOL0     H30211   9.380  11.090   0.473  1.9693  0.6583  0.3507
  219MOL0     H30212   9.375  10.982   0.230  2.9921 -0.7181  1.5475
  219MOL0     H30213   9.213  11.011   0.302  1.0226  1.5424  0.6832
  219MOL0     H30214   9.216  10.801   0.195  0.6675  2.9649 -0.5919
  219MOL0     H30215   9.374  10.754   0.258  2.1693  1.9570  0.2431
  219MOL0     H30216   9.287  10.686   0.466 -0.0972 -4.3766 -0.2559
  219MOL0     H30217   9.174  10.616   0.349 -0.6744 -0.3567  0.8899
  219MOL0     H30218   8.894  10.858   0.532  0.4974 -0.7788  1.2149
  219MOL0     H30219   9.539  11.193   0.362 -1.4579 -0.8840 -1.5805
  219MOL0     H30220   9.846  11.339   0.206 -0.1377  0.1070 -0.6177
  219MOL0     H30221   9.667  11.351   0.180 -3.6383 -3.3959  1.1683
  219MOL0     H30222   9.749  11.389   0.336 -2.3028 -0.3116  0.6323
  220MOL0     O30223   1.524   4.875   0.152 -0.0502 -0.1631  0.4936
  220MOL0     C30224   1.592   4.777   0.187  0.5494  0.0188 -0.1581
  220MOL0     O30225   1.725   4.758   0.167 -0.2875 -0.8225  0.0472
  220MOL0     C30226   1.786   4.871   0.117  0.0873  0.4709 -0.1842
  220MOL0     C30227   1.836   4.968   0.206  0.3750 -0.1326 -0.2590
  220MOL0     C30228   1.891   5.090   0.155  0.3199  0.0808  0.4476
  220MOL0     C30229   1.885   5.126   0.022  0.2774  0.4653  0.0443
  220MOL0     O30230   1.948   5.232  -0.035 -0.1744 -0.1507 -0.1884
  220MOL0     C30231   2.055   5.207  -0.126 -0.8542  0.3187  0.3161
  220MOL0     C30232   2.120   5.338  -0.144 -0.7773  0.2781 -0.3726
  220MOL0     C30233   2.260   5.298  -0.180  0.1747  0.0122  0.0642
  220MOL0     C30234   2.355   5.420  -0.193  0.2705 -0.2868 -0.7687
  220MOL0     C30235   2.510   5.384  -0.201  0.7645  0.0454 -0.4264
  220MOL0     C30236   2.602   5.508  -0.200 -0.1219  0.4752  0.3763
  220MOL0     C30237   2.751   5.482  -0.230  0.6337 -0.1168  0.5749
  220MOL0     C30238   2.822   5.623  -0.251 -0.0983  0.8161  0.0612
  220MOL0     N30239   2.962   5.609  -0.209  0.1095  0.2552  1.1894
  220MOL0     C30240   3.057   5.582  -0.295 -0.4241  0.7223 -0.0695
  220MOL0     C30241   3.173   5.596  -0.224 -0.3085 -0.5268  0.6453
  220MOL0     C30242   3.316   5.593  -0.286 -0.2058 -0.6335 -0.0827
  220MOL0     C30243   3.342   5.672  -0.418 -0.1478 -0.4064 -0.5286
  220MOL0     C30244   3.306   5.816  -0.406  0.5857 -0.6342  0.8351
  220MOL0     C30245   3.407   5.903  -0.328  0.3161  0.7121  0.2407
  220MOL0     O30246   3.417   5.878  -0.185 -0.2291  0.2205  0.6057
  220MOL0     C30247   3.513   5.931  -0.110 -1.0922  0.5120 -0.2221
  220MOL0     C30248   3.604   6.026  -0.149 -0.3028  1.2922 -0.1650
  220MOL0     C30249   3.706   6.072  -0.057 -0.2445  0.7738  0.3226
  220MOL0     C30250   3.794   6.179  -0.110 -0.1067  0.1639  0.2582
  220MOL0     C30251   3.716   6.022   0.076  0.1613 -0.5156  0.2439
  220MOL0     C30252   3.821   6.058   0.178 -1.0134  0.0002  0.3135
  220MOL0     O30253   3.930   6.133   0.139 -0.5876  0.1050  0.1133
  220MOL0     C30254   3.986   6.203   0.249  0.2257 -0.1691  0.5303
  220MOL0     C30255   4.114   6.172   0.284 -0.2212 -0.5517  0.5981
  220MOL0     C30256   4.176   6.251   0.382 -0.5857 -0.2584  0.0241
  220MOL0     C30257   4.114   6.357   0.453  0.2245 -0.2515 -0.5435
  220MOL0     O30258   4.176   6.411   0.558 -0.4119  0.3655  0.1268
  220MOL0     C30259   4.136   6.546   0.603 -0.3142 -0.5349  0.5036
  220MOL0     C30260   4.245   6.610   0.680  0.1089 -0.1782 -0.7521
  220MOL0     C30261   4.263   6.552   0.821  0.1840 -0.2059  0.4724
  220MOL0     C30262   4.361   6.632   0.906 -0.5228  0.1728 -0.1623
  220MOL0     C30263   4.401   6.577   1.049 -0.9488  0.1321 -0.2179
  220MOL0     C30264   4.489   6.675   1.131  0.1315 -0.6328  0.1358
  220MOL0     C30265   4.549   6.621   1.260  0.5140  0.4834  0.5488
  220MOL0     C30266   4.638   6.711   1.333  0.1631  1.1000  0.0602
  220MOL0    Cl30267   4.776   6.775   1.241 -0.2380  0.0831  0.1967
  220MOL0     C30268   3.983   6.392   0.414 -0.2928  0.2865  0.4851
  220MOL0     C30269   3.921   6.322   0.308 -0.3153  0.8727  0.6718
  220MOL0     O30270   3.805   6.014   0.293 -0.0760  0.0503  0.3019
  220MOL0     C30271   3.627   5.917   0.103 -0.4159  0.3041 -0.2465
  220MOL0     C30272   3.528   5.881   0.018 -0.2806 -0.2392  0.1944
  220MOL0     N30273   3.129   5.617  -0.092 -0.7373  0.2853 -0.0484
  220MOL0     N30274   3.005   5.642  -0.084  0.1499  0.4698  0.0462
  220MOL0     C30275   1.830   5.027  -0.063  0.2293 -0.3931  0.2879
  220MOL0     C30276   1.791   4.903  -0.016  0.3287 -0.7109  0.1011
  220MOL0     C30277   1.527   4.671   0.263 -0.2659 -0.6955  0.1612
  220MOL0     C30278   1.580   4.541   0.267  0.8234 -0.4171 -0.2286
  220MOL0     C30279   1.523   4.440   0.342 -0.2648  0.8314 -0.3735
  220MOL0     C30280   1.410   4.451   0.424 -0.7337 -0.1084 -0.4165
  220MOL0     O30281   1.373   4.346   0.503 -0.4153 -0.5501  1.2178
  220MOL0     C30282   1.230   4.317   0.523 -0.2665  0.0212  0.1594
  220MOL0     C30283   1.190   4.170   0.549  0.3678 -0.2852 -1.0135
  220MOL0     C30284   1.051   4.163   0.601  0.2863 -0.9052 -0.0464
  220MOL0     C30285   1.027   4.184   0.752  0.0815 -0.7403 -0.5484
  220MOL0     C30286   1.071   4.065   0.832  0.9109  0.5342 -0.0868
  220MOL0     C30287   1.117   3.973   0.900 -0.1417 -0.4433  0.4752
  220MOL0     C30288   1.344   4.577   0.417  0.7405  0.0095  0.0086
  220MOL0     C30289   1.407   4.683   0.338 -0.2130 -0.1680 -0.5310
  220MOL0     C30290   1.340   4.821   0.351 -0.2252 -0.0216  0.1362
  220MOL0     H30291   1.836   4.943   0.311 -0.2658 -0.0949 -0.2479
  220MOL0     H30292   1.917   5.167   0.226  1.9011  0.0088 -0.0133
  220MOL0     H30293   2.013   5.172  -0.221 -0.4198 -4.4230  1.6036
  220MOL0     H30294   2.118   5.121  -0.103 -1.1046 -0.3770 -1.4053
  220MOL0     H30295   2.073   5.401  -0.220  1.0081 -1.3270 -2.9624
  220MOL0     H30296   2.121   5.386  -0.045 -2.3002 -1.9406  0.8047
  220MOL0     H30297   2.305   5.230  -0.106 -0.3966 -2.1047 -1.4211
  220MOL0     H30298   2.258   5.238  -0.272  0.6966 -3.4206  2.1216
  220MOL0     H30299   2.328   5.486  -0.277 -0.2182 -2.3891 -2.3556
  220MOL0     H30300   2.335   5.482  -0.105 -1.6341 -1.4591 -0.3089
  220MOL0     H30301   2.519   5.326  -0.294 -0.0648 -3.7012  1.6360
  220MOL0     H30302   2.531   5.318  -0.116 -0.1471  0.3669  0.0561
  220MOL0     H30303   2.555   5.583  -0.264 -0.8878  1.1762  1.7404
  220MOL0     H30304   2.597   5.551  -0.100  1.4579 -0.4585  0.8987
  220MOL0     H30305   2.767   5.416  -0.316  0.3560 -0.2293  0.6089
  220MOL0     H30306   2.802   5.436  -0.145  1.5071 -0.3348 -0.0527
  220MOL0     H30307   2.822   5.652  -0.356  2.0362  1.1102  0.0815
  220MOL0     H30308   2.773   5.702  -0.195  0.5644  0.3907  1.2850
  220MOL0     H30309   3.042   5.569  -0.401 -1.0449 -0.4765  0.1431
  220MOL0     H30310   3.362   5.494  -0.294  0.6766 -0.2620  0.2217
  220MOL0     H30311   3.380   5.641  -0.211  0.0376 -1.1259  0.0290
  220MOL0     H30312   3.445   5.668  -0.454 -0.3913  1.1657 -1.4806
  220MOL0     H30313   3.291   5.627  -0.503 -1.6562 -1.7778  1.0271
  220MOL0     H30314   3.315   5.847  -0.511  0.0160  0.5039  1.1074
  220MOL0     H30315   3.205   5.835  -0.371  0.2999  1.4678 -0.9034
  220MOL0     H30316   3.510   5.880  -0.358  1.2081 -0.6660  3.7461
  220MOL0     H30317   3.394   6.010  -0.343  1.0869  0.7987  0.1201
  220MOL0     H30318   3.598   6.067  -0.249  4.3771  0.7534 -0.8842
  220MOL0     H30319   3.780   6.270  -0.050 -0.6174 -0.8657  1.7536
  220MOL0     H30320   3.788   6.207  -0.215 -1.3298  0.5590  0.4148
  220MOL0     H30321   3.900   6.154  -0.102  0.4968  2.0595 -1.0398
  220MOL0     H30322   4.173   6.098   0.231 -1.6713 -2.6429  1.7649
  220MOL0     H30323   4.282   6.235   0.400 -0.6727 -1.1017 -0.1658
  220MOL0     H30324   4.112   6.610   0.517  0.7030 -0.3225  0.3685
  220MOL0     H30325   4.045   6.546   0.663 -0.4892 -0.7380  0.2423
  220MOL0     H30326   4.342   6.603   0.631  2.0765 -2.0468  2.9501
  220MOL0     H30327   4.223   6.717   0.686  0.6117  0.0207 -2.1322
  220MOL0     H30328   4.301   6.450   0.812 -2.7291 -1.2826 -0.6157
  220MOL0     H30329   4.163   6.542   0.864 -0.4779 -0.9401 -1.1609
  220MOL0     H30330   4.310   6.727   0.924 -1.0531 -0.5964  2.9852
  220MOL0     H30331   4.456   6.658   0.858 -1.3950  0.2406 -1.9279
  220MOL0     H30332   4.308   6.559   1.103 -0.5065 -0.6997  0.2879
  220MOL0     H30333   4.457   6.484   1.031 -2.1962 -1.4752  3.3254
  220MOL0     H30334   4.428   6.762   1.160  1.6795  0.1958  1.0069
  220MOL0     H30335   4.572   6.710   1.069  1.7604  0.9075  3.0076
  220MOL0     H30336   4.604   6.530   1.232  1.1028  0.7235  0.9064
  220MOL0     H30337   4.463   6.604   1.325 -1.2053  1.4034 -1.3868
  220MOL0     H30338   4.673   6.656   1.421 -1.7496 -0.2531  0.0304
  220MOL0     H30339   4.572   6.788   1.373 -2.1695 -1.3681  1.2544
  220MOL0     H30340   3.925   6.469   0.465 -3.2671  0.3948 -2.7070
  220MOL0     H30341   3.822   6.354   0.278  0.0074  0.5190 -0.8823
  220MOL0     H30342   3.628   5.855   0.192  2.0892 -1.4866 -1.3765
  220MOL0     H30343   3.470   5.795   0.050 -0.1059 -0.4213  0.0167
  220MOL0     H30344   1.826   5.057  -0.167 -0.6045 -0.2811  0.3435
  220MOL0     H30345   1.734   4.839  -0.082 -1.6243  0.0054  0.9990
  220MOL0     H30346   1.674   4.510   0.221  1.8570 -1.9745  2.7282
  220MOL0     H30347   1.570   4.342   0.334 -0.7441  0.7725 -3.6334
  220MOL0     H30348   1.192   4.385   0.601 -2.8297 -2.1316  0.9332
  220MOL0     H30349   1.177   4.358   0.436  0.8228  2.2365  0.4655
  220MOL0     H30350   1.254   4.132   0.630 -2.5284 -0.4601  1.3653
  220MOL0     H30351   1.221   4.114   0.460 -0.6873 -1.1286 -0.8707
  220MOL0     H30352   0.984   4.223   0.539 -0.9857 -0.8007  1.3808
  220MOL0     H30353   1.032   4.057   0.581  3.5943 -1.3466 -1.5187
  220MOL0     H30354   0.926   4.212   0.780  0.0313 -1.7306  0.3522
  220MOL0     H30355   1.092   4.271   0.768 -1.9996  0.8922 -0.6100
  220MOL0     H30356   1.165   3.895   0.955  1.2031  1.2809  1.8643
  220MOL0     H30357   1.251   4.612   0.461  3.2561  2.9127  3.6712
  220MOL0     H30358   1.420   4.894   0.363 -1.7471  1.8008 -0.2572
  220MOL0     H30359   1.290   4.848   0.257  1.8903 -1.5165 -1.5189
  220MOL0     H30360   1.277   4.825   0.440  0.4596  0.3485  0.6145
  221MOL0     O30361   2.071   3.796   0.467 -0.9191  0.3279  0.6796
  221MOL0     C30362   2.174   3.741   0.516  0.3520 -0.1408  0.0012
  221MOL0     O30363   2.292   3.794   0.526  0.3708  0.6482 -1.1566
  221MOL0     C30364   2.331   3.898   0.448 -0.3518  0.3889  0.3224
  221MOL0     C30365   2.395   4.009   0.512 -0.3596 -0.6546 -0.3827
  221MOL0     C30366   2.428   4.125   0.440 -0.0778  1.0886 -0.3559
  221MOL0     C30367   2.410   4.129   0.295 -0.6054  0.2507 -0.0592
  221MOL0     O30368   2.429   4.237   0.210 -0.5734  0.3432 -0.8320
  221MOL0     C30369   2.472   4.367   0.257  0.5722  0.3643 -0.4291
  221MOL0     C30370   2.456   4.469   0.140  0.7690  0.3358  0.4196
  221MOL0     C30371   2.522   4.609   0.197 -0.3064  0.5885  0.2336
  221MOL0     C30372   2.417   4.686   0.272 -1.0512 -0.6560  0.5091
  221MOL0     C30373   2.443   4.844   0.271  0.4877 -0.4901 -0.1630
  221MOL0     C30374   2.305   4.917   0.280 -0.7212  0.5666 -1.5041
  221MOL0     C30375   2.231   4.892   0.420 -0.2230  0.3531  0.0560
  221MOL0     C30376   2.095   4.808   0.410 -0.5634  0.4507  0.7365
  221MOL0     N30377   2.101   4.657   0.399 -0.1431 -0.1149 -0.5696
  221MOL0     C30378   2.048   4.576   0.300  0.9563 -0.4916 -0.1829
  221MOL0     C30379   2.080   4.452   0.335  0.5519 -1.1562 -0.1858
  221MOL0     C30380   2.058   4.333   0.240 -0.7995  1.2096 -0.1793
  221MOL0     C30381   2.018   4.199   0.299  0.1143  0.0491 -0.4442
  221MOL0     C30382   1.870   4.203   0.342 -0.3065 -0.1075  0.2786
  221MOL0     C30383   1.837   4.070   0.406 -0.3862 -0.6831  0.3980
  221MOL0     O30384   1.709   4.082   0.462  0.2868  0.5638 -0.6243
  221MOL0     C30385   1.692   4.024   0.581  0.6449 -0.4370 -0.2862
  221MOL0     C30386   1.760   3.914   0.632  0.3917  0.1848  0.6492
  221MOL0     C30387   1.732   3.852   0.756 -0.3550 -0.4599  0.9214
  221MOL0     C30388   1.808   3.724   0.807 -0.3984 -0.3949  0.0581
  221MOL0     C30389   1.628   3.916   0.829  0.8353  0.4335 -1.2106
  221MOL0     C30390   1.586   3.870   0.961  0.3503 -0.1558  0.1581
  221MOL0     O30391   1.564   3.965   1.055  0.5386  0.5087  0.5348
  221MOL0     C30392   1.527   3.929   1.184 -0.4473 -0.6527  0.3222
  221MOL0     C30393   1.596   3.978   1.292  0.2481  0.0738  0.2483
  221MOL0     C30394   1.547   3.959   1.420  1.2550  0.2246 -0.0923
  221MOL0     C30395   1.436   3.879   1.451 -0.3930 -0.8393 -0.3385
  221MOL0     O30396   1.387   3.873   1.577  0.2569  0.1167 -0.3469
  221MOL0     C30397   1.354   3.748   1.632 -1.0495  0.8818 -0.7131
  221MOL0     C30398   1.486   3.668   1.660  0.5899 -0.0300 -0.4384
  221MOL0     C30399   1.571   3.743   1.762  0.3364  0.5865  0.2264
  221MOL0     C30400   1.704   3.673   1.779  0.5594 -0.0268 -0.7867
  221MOL0     C30401   1.805   3.753   1.856  0.7336  0.1423 -0.2938
  221MOL0     C30402   1.777   3.769   2.007 -0.6257 -0.0079 -1.0919
  221MOL0     C30403   1.892   3.833   2.083 -0.2983 -0.1114 -0.7992
  221MOL0     C30404   1.996   3.721   2.111  0.0562  1.1771  0.0615
  221MOL0    Cl30405   1.921   3.592   2.220 -0.6426 -0.3228 -0.1943
  221MOL0     C30406   1.370   3.817   1.345 -1.1188  0.1661 -0.1117
  221MOL0     C30407   1.424   3.845   1.213  0.5249  0.5074  0.8613
  221MOL0     O30408   1.566   3.749   0.974  0.4863 -0.1655  0.7095
  221MOL0     C30409   1.550   4.018   0.776  0.5032  0.0495 -0.2749
  221MOL0     C30410   1.576   4.070   0.651 -0.7605  0.0490  1.0791
  221MOL0     N30411   2.161   4.463   0.450  0.1959  0.0766  0.2400
  221MOL0     N30412   2.178   4.582   0.488 -0.0913 -0.0690 -0.1596
  221MOL0     C30413   2.360   4.009   0.237 -0.1125 -0.4721  0.0690
  221MOL0     C30414   2.318   3.895   0.309  0.2525 -0.2925  0.5985
  221MOL0     C30415   2.153   3.607   0.579 -0.2097  0.2733  0.6631
  221MOL0     C30416   2.058   3.528   0.517  0.1484  1.4030  0.3728
  221MOL0     C30417   2.025   3.404   0.567  0.6130 -0.3433 -0.1529
  221MOL0     C30418   2.077   3.364   0.691 -0.0240 -0.4554  0.0615
  221MOL0     O30419   2.031   3.253   0.757  0.2866 -0.7521 -0.1607
  221MOL0     C30420   2.021   3.132   0.680  0.2399  0.9374 -0.1161
  221MOL0     C30421   2.021   3.001   0.769  0.2556  0.3502 -0.5886
  221MOL0     C30422   1.991   2.877   0.692  0.2009  0.8418  1.0522
  221MOL0     C30423   1.835   2.847   0.662 -0.4967  0.5457  0.1150
  221MOL0     C30424   1.815   2.711   0.615  0.7530 -0.0629  0.4056
  221MOL0     C30425   1.826   2.597   0.570  0.1939 -0.3763  0.6042
  221MOL0     C30426   2.178   3.442   0.753 -0.4949 -0.1284 -0.2748
  221MOL0     C30427   2.212   3.565   0.696 -0.6653 -0.4369 -0.2061
  221MOL0     C30428   2.318   3.651   0.768  0.7825  0.4784  0.0841
  221MOL0     H30429   2.400   4.007   0.620  0.6379  1.9654 -0.3024
  221MOL0     H30430   2.447   4.225   0.478  1.0216  2.0394 -3.1380
  221MOL0     H30431   2.580   4.364   0.275  0.5380 -2.8694 -0.1058
  221MOL0     H30432   2.407   4.400   0.338  0.7843  0.1436 -0.1653
  221MOL0     H30433   2.507   4.437   0.049  1.5431  0.3221  0.8457
  221MOL0     H30434   2.350   4.480   0.113  0.3808 -0.4021  1.5364
  221MOL0     H30435   2.608   4.591   0.264  1.0958  2.4973 -0.9681
  221MOL0     H30436   2.555   4.666   0.110 -0.8806 -3.4482 -2.9305
  221MOL0     H30437   2.326   4.666   0.216 -0.9865  0.9236 -0.1993
  221MOL0     H30438   2.409   4.653   0.376  0.6584 -4.0327 -0.2939
  221MOL0     H30439   2.491   4.868   0.176 -0.4793  0.0758 -0.5246
  221MOL0     H30440   2.508   4.863   0.357 -0.7860 -0.8103  0.9078
  221MOL0     H30441   2.319   5.025   0.264 -1.4633  0.7852 -0.7306
  221MOL0     H30442   2.243   4.882   0.197 -3.7901 -1.2192  1.3009
  221MOL0     H30443   2.212   4.991   0.463  0.2959  0.9696 -1.0960
  221MOL0     H30444   2.303   4.853   0.493 -0.2608  1.4180  0.6760
  221MOL0     H30445   2.028   4.837   0.492 -1.2370  0.9952  0.0103
  221MOL0     H30446   2.045   4.836   0.317 -2.4413 -0.8435  1.2924
  221MOL0     H30447   1.997   4.610   0.211 -0.9239  0.5582  1.2205
  221MOL0     H30448   2.157   4.309   0.200 -0.3838 -0.7349  1.8421
  221MOL0     H30449   1.992   4.368   0.160  0.1019 -1.4168 -2.2119
  221MOL0     H30450   2.029   4.114   0.231  2.6798 -1.1546  1.2760
  221MOL0     H30451   2.092   4.173   0.376  0.8257  1.5040 -0.6078
  221MOL0     H30452   1.845   4.284   0.411 -1.6695  1.6632 -2.1689
  221MOL0     H30453   1.810   4.217   0.252 -0.4161  0.7786  0.4867
  221MOL0     H30454   1.838   3.982   0.342 -0.3666 -1.7321  1.7732
  221MOL0     H30455   1.912   4.063   0.485  2.4687  1.0506 -1.9786
  221MOL0     H30456   1.837   3.859   0.579 -0.3849 -0.1661 -0.1495
  221MOL0     H30457   1.902   3.707   0.754 -0.9935 -0.2678 -1.0799
  221MOL0     H30458   1.747   3.633   0.794 -1.6101  0.5700 -1.3464
  221MOL0     H30459   1.843   3.736   0.909 -1.3678  1.1045  0.2376
  221MOL0     H30460   1.689   4.035   1.287  0.2773  0.6260  3.9804
  221MOL0     H30461   1.597   4.026   1.489 -1.9497  2.9672 -0.1932
  221MOL0     H30462   1.292   3.770   1.719 -3.0496 -0.8793 -1.5992
  221MOL0     H30463   1.282   3.690   1.573 -0.3455 -1.2414  0.4112
  221MOL0     H30464   1.456   3.577   1.714  0.6229  0.1340 -0.1388
  221MOL0     H30465   1.536   3.648   1.565 -1.7725  2.3113 -2.3444
  221MOL0     H30466   1.535   3.741   1.865 -0.5997 -0.2656 -0.1025
  221MOL0     H30467   1.594   3.844   1.725 -1.8208  0.2480 -2.3901
  221MOL0     H30468   1.745   3.639   1.683  0.6642 -2.2920  0.0143
  221MOL0     H30469   1.694   3.577   1.830 -0.4495  0.8468  0.7485
  221MOL0     H30470   1.902   3.708   1.831 -0.5743 -3.2603  0.2685
  221MOL0     H30471   1.808   3.853   1.810  0.6252  0.3671  0.1888
  221MOL0     H30472   1.751   3.675   2.057  1.2805 -0.2612 -0.4936
  221MOL0     H30473   1.688   3.831   2.011  0.8671  2.2783 -1.5541
  221MOL0     H30474   1.857   3.873   2.178  2.4202 -0.6235  0.4993
  221MOL0     H30475   1.933   3.922   2.035 -1.9213  1.7025  1.0333
  221MOL0     H30476   2.088   3.765   2.151  0.5424  0.5921 -0.3962
  221MOL0     H30477   2.023   3.669   2.018 -0.8190 -0.5343  0.7269
  221MOL0     H30478   1.271   3.774   1.353 -0.8387 -0.6832 -0.9451
  221MOL0     H30479   1.370   3.798   1.131  1.3357 -0.1530  0.6852
  221MOL0     H30480   1.465   4.050   0.836 -0.6350  2.6341 -2.9784
  221MOL0     H30481   1.502   4.134   0.603 -0.5925 -1.0240 -0.7157
  221MOL0     H30482   2.348   4.013   0.129 -1.7940  2.5164  0.2408
  221MOL0     H30483   2.276   3.804   0.267  0.6750  0.1324 -0.7718
  221MOL0     H30484   2.017   3.564   0.423  0.3873  2.5180  0.6770
  221MOL0     H30485   1.949   3.340   0.523  1.0410 -1.1357  0.2460
  221MOL0     H30486   1.921   3.145   0.637 -0.6084  2.6756  2.1769
  221MOL0     H30487   2.101   3.119   0.607 -0.0727  0.0989 -0.3252
  221MOL0     H30488   1.944   3.010   0.847 -0.6401 -1.4716 -1.2128
  221MOL0     H30489   2.115   3.006   0.824  0.7041  3.7997 -1.4221
  221MOL0     H30490   2.053   2.870   0.602 -1.3782 -1.7867  0.0365
  221MOL0     H30491   2.025   2.802   0.765  0.8400 -2.4417 -2.2940
  221MOL0     H30492   1.799   2.917   0.586 -1.7504 -3.2684 -3.1924
  221MOL0     H30493   1.774   2.865   0.750 -1.8088  2.4278 -1.1104
  221MOL0     H30494   1.846   2.495   0.541 -2.1146 -0.1937 -2.0638
  221MOL0     H30495   2.233   3.403   0.839 -1.1263  1.6914  1.0155
  221MOL0     H30496   2.327   3.619   0.873 -1.4927  0.1530  0.2295
  221MOL0     H30497   2.413   3.654   0.715 -0.8934  1.8017 -3.0751
  221MOL0     H30498   2.270   3.749   0.766  0.3337  0.2512 -0.4920
  222MOL0     O30499   1.766   2.514   2.655 -0.0221  0.0026 -0.5105
  222MOL0     C30500   1.683   2.499   2.568  0.6651 -0.3970  1.1537
  222MOL0     O30501   1.715   2.436   2.447 -0.6969  0.1746  0.0906
  222MOL0     C30502   1.839   2.388   2.432 -0.8579  0.4786 -1.2761
  222MOL0     C30503   1.947   2.477   2.399 -0.3642  1.1316 -0.7337
  222MOL0     C30504   2.066   2.416   2.358 -0.0710  0.3079  0.1529
  222MOL0     C30505   2.088   2.278   2.359 -0.0167  0.0728  0.5840
  222MOL0     O30506   2.210   2.237   2.317  0.2737  0.6619  0.2174
  222MOL0     C30507   2.228   2.092   2.308 -0.7517 -0.7487  0.1314
  222MOL0     C30508   2.349   2.049   2.218  0.3860  0.0796  0.6359
  222MOL0     C30509   2.349   1.906   2.154 -0.4088 -0.2868 -0.2920
  222MOL0     C30510   2.504   1.866   2.148 -0.5532  0.1085 -0.5167
  222MOL0     C30511   2.572   1.941   2.031  0.3962  0.3245  1.2100
  222MOL0     C30512   2.718   1.918   2.008  1.2271  0.4338 -0.0631
  222MOL0     C30513   2.740   1.775   1.963  0.9471  0.4611  0.1295
  222MOL0     C30514   2.670   1.737   1.832  0.0949 -0.2909  0.1090
  222MOL0     N30515   2.709   1.600   1.805  0.2703 -0.4028 -0.7135
  222MOL0     C30516   2.833   1.564   1.756 -0.7805 -0.1862  0.2234
  222MOL0     C30517   2.821   1.430   1.736 -0.7207 -0.1359 -0.4197
  222MOL0     C30518   2.944   1.353   1.704 -0.4093  0.1045  0.0895
  222MOL0     C30519   3.043   1.415   1.604 -0.1539  1.0925 -0.4915
  222MOL0     C30520   3.168   1.326   1.588 -0.0793  0.1232 -0.0325
  222MOL0     C30521   3.274   1.413   1.520  0.1413 -0.4618  0.3587
  222MOL0     O30522   3.229   1.458   1.394 -1.5456  0.2373  0.4172
  222MOL0     C30523   3.325   1.511   1.311 -0.5622 -1.0477  0.0090
  222MOL0     C30524   3.461   1.516   1.338  0.7936 -0.4061 -0.1314
  222MOL0     C30525   3.550   1.569   1.237  0.4039  1.1307 -0.3600
  222MOL0     C30526   3.697   1.565   1.283  0.4236  0.2861 -1.1779
  222MOL0     C30527   3.495   1.633   1.125  0.3466 -0.6886  0.7376
  222MOL0     C30528   3.580   1.705   1.020 -0.2435  1.1447  0.3782
  222MOL0     O30529   3.517   1.745   0.899 -0.0563 -0.3048 -0.0819
  222MOL0     C30530   3.588   1.750   0.775 -0.4586 -0.2085  0.6632
  222MOL0     C30531   3.706   1.678   0.746 -0.2899  0.3009 -0.2154
  222MOL0     C30532   3.760   1.678   0.613  0.0433  0.8050 -1.4184
  222MOL0     C30533   3.696   1.754   0.517  1.1203  0.2112  0.1362
  222MOL0     O30534   3.748   1.742   0.391 -0.1919 -0.7474  0.0715
  222MOL0     C30535   3.742   1.845   0.289  0.1575  0.2297 -0.0570
  222MOL0     C30536   3.871   1.862   0.218 -0.3099 -0.4102  0.2388
  222MOL0     C30537   3.982   1.906   0.316 -0.2281  0.5737  0.1878
  222MOL0     C30538   4.102   1.956   0.236  0.4587  0.1422  0.1317
  222MOL0     C30539   4.223   1.999   0.329  0.8600 -0.0181 -1.3171
  222MOL0     C30540   4.349   2.022   0.245 -0.7758 -0.5039  0.0646
  222MOL0     C30541   4.437   1.897   0.228  0.2429  0.1179  0.5367
  222MOL0     C30542   4.568   1.933   0.173 -0.7163  0.1788  0.0271
  222MOL0    Cl30543   4.675   2.011   0.290  0.1651  0.0376  0.1840
  222MOL0     C30544   3.588   1.833   0.541  1.1316  0.8366  0.2168
  222MOL0     C30545   3.537   1.832   0.670  0.3271  0.0930 -0.5787
  222MOL0     O30546   3.700   1.722   1.051 -0.2858 -0.0889 -0.2008
  222MOL0     C30547   3.356   1.638   1.105  0.3377  0.6505  0.8004
  222MOL0     C30548   3.275   1.577   1.200  0.5580  0.3277 -0.1860
  222MOL0     N30549   2.689   1.393   1.755 -0.3088 -0.7417  0.2757
  222MOL0     N30550   2.621   1.496   1.801  0.3672  0.7040 -0.0519
  222MOL0     C30551   1.982   2.195   2.408 -0.1959 -0.5651  0.8170
  222MOL0     C30552   1.855   2.250   2.446  0.1619  0.0767  0.0069
  222MOL0     C30553   1.543   2.527   2.586  0.4405 -0.2120 -0.6090
  222MOL0     C30554   1.468   2.523   2.466 -0.3114  0.0216 -0.3798
  222MOL0     C30555   1.331   2.551   2.475  0.6309  0.7694 -0.0816
  222MOL0     C30556   1.258   2.579   2.598  0.4228  0.0586  0.3623
  222MOL0     O30557   1.123   2.596   2.600  0.2555  0.4595 -0.0074
  222MOL0     C30558   1.040   2.649   2.490 -0.6299  0.8178 -0.0597
  222MOL0     C30559   1.045   2.808   2.464 -0.3170  0.9395  0.0090
  222MOL0     C30560   1.020   2.890   2.591 -0.5141 -0.5337  0.6212
  222MOL0     C30561   0.893   2.855   2.664 -0.0189  0.2353  0.2910
  222MOL0     C30562   0.784   2.884   2.566 -0.9990 -0.6539  0.1643
  222MOL0     C30563   0.686   2.900   2.505  0.4261 -0.1460 -0.8060
  222MOL0     C30564   1.331   2.564   2.714 -0.3523  0.5266 -0.3066
  222MOL0     C30565   1.477   2.550   2.709  0.6452 -0.8796 -0.5357
  222MOL0     C30566   1.542   2.570   2.838  0.5636  0.3801 -0.1071
  222MOL0     H30567   1.938   2.586   2.396 -1.4333  1.0310 -1.7947
  222MOL0     H30568   2.151   2.477   2.330  0.3556 -0.7891 -1.0906
  222MOL0     H30569   2.145   2.035   2.265 -0.7665 -1.0190  0.5119
  222MOL0     H30570   2.232   2.063   2.414  0.7833  1.3254  0.7142
  222MOL0     H30571   2.361   2.129   2.143  0.1374  0.9637  1.5122
  222MOL0     H30572   2.438   2.057   2.281  0.6522 -0.5354  0.3369
  222MOL0     H30573   2.292   1.831   2.208  1.5187  0.0504  2.3948
  222MOL0     H30574   2.304   1.912   2.054  1.2439 -1.3334 -1.1416
  222MOL0     H30575   2.549   1.888   2.246  1.0143  2.5952 -1.7008
  222MOL0     H30576   2.505   1.759   2.127  2.0700  0.0378 -0.2986
  222MOL0     H30577   2.564   2.047   2.057  0.9459  0.9408 -0.9587
  222MOL0     H30578   2.503   1.933   1.947  0.0125  1.8481  1.3449
  222MOL0     H30579   2.769   1.988   1.941 -0.0321  0.7983 -0.6731
  222MOL0     H30580   2.750   1.935   2.111 -1.7138  0.2841  0.9645
  222MOL0     H30581   2.709   1.703   2.040 -1.0148 -0.8517 -1.7736
  222MOL0     H30582   2.849   1.769   1.953  1.0408 -2.1943  1.7672
  222MOL0     H30583   2.563   1.751   1.845 -0.1100 -0.2883 -1.3670
  222MOL0     H30584   2.707   1.796   1.747  1.9483  0.9642  1.6842
  222MOL0     H30585   2.916   1.634   1.759 -0.4482 -0.5764  0.2278
  222MOL0     H30586   2.912   1.255   1.669  0.0726 -0.2771  0.6934
  222MOL0     H30587   2.995   1.330   1.799  2.3812 -2.4314 -1.8128
  222MOL0     H30588   2.991   1.425   1.508 -1.4877  0.3848  0.1266
  222MOL0     H30589   3.078   1.503   1.659  1.8502 -1.3422  2.4689
  222MOL0     H30590   3.207   1.309   1.689  5.5643  1.0848 -1.6771
  222MOL0     H30591   3.151   1.232   1.535  1.6075 -0.7438  0.8813
  222MOL0     H30592   3.304   1.507   1.568  2.2759  0.1276 -1.8795
  222MOL0     H30593   3.363   1.350   1.510  3.0536  2.8152  2.7571
  222MOL0     H30594   3.509   1.483   1.429  0.2948 -0.1759  0.2164
  222MOL0     H30595   3.725   1.489   1.356 -0.0324 -0.3391 -1.6504
  222MOL0     H30596   3.729   1.667   1.308 -3.2336  2.3103 -3.7229
  222MOL0     H30597   3.758   1.541   1.195  2.3332 -0.8318  0.3849
  222MOL0     H30598   3.757   1.618   0.820  4.1071  2.9606 -0.7212
  222MOL0     H30599   3.843   1.615   0.583 -0.0531  0.5880 -1.2285
  222MOL0     H30600   3.660   1.822   0.220 -0.6123  0.8117  0.6485
  222MOL0     H30601   3.713   1.937   0.341  0.9565  0.3950  0.1075
  222MOL0     H30602   3.900   1.762   0.185  3.3709  0.3255  0.8553
  222MOL0     H30603   3.849   1.931   0.136 -1.1569  0.1718  0.9434
  222MOL0     H30604   4.012   1.829   0.387 -0.3109 -0.1425 -0.5315
  222MOL0     H30605   3.951   1.984   0.385  0.5081  1.2115 -0.1891
  222MOL0     H30606   4.078   2.040   0.169 -1.2749 -1.4674 -1.3778
  222MOL0     H30607   4.133   1.870   0.175 -1.3369 -0.1599 -0.4226
  222MOL0     H30608   4.197   2.096   0.373 -1.5323  0.0004 -2.6252
  222MOL0     H30609   4.239   1.930   0.412 -2.1645  2.3734  1.5006
  222MOL0     H30610   4.411   2.093   0.300 -0.9961  0.5305 -0.9986
  222MOL0     H30611   4.332   2.074   0.151 -1.7695 -0.0538  0.4723
  222MOL0     H30612   4.383   1.826   0.164  1.9484  1.9376 -3.2276
  222MOL0     H30613   4.446   1.851   0.327  0.9271  0.3313  0.5745
  222MOL0     H30614   4.550   1.996   0.085  0.1953 -2.1970 -1.9838
  222MOL0     H30615   4.617   1.849   0.123 -3.2128 -1.1993 -0.2595
  222MOL0     H30616   3.543   1.891   0.461  0.4804  0.6517  0.4452
  222MOL0     H30617   3.446   1.884   0.695 -0.3777 -1.4139  0.1441
  222MOL0     H30618   3.320   1.684   1.013  0.5472  1.9714  1.3505
  222MOL0     H30619   3.169   1.561   1.181  0.3862  0.0856  0.9114
  222MOL0     H30620   1.995   2.089   2.429  0.1525 -0.4254  1.3382
  222MOL0     H30621   1.782   2.186   2.494 -1.0714  2.3592  1.3514
  222MOL0     H30622   1.508   2.512   2.366  0.7643  1.8990 -0.2133
  222MOL0     H30623   1.270   2.547   2.385 -0.1221 -2.4131  0.4154
  222MOL0     H30624   1.060   2.596   2.396  0.4851  0.4121  0.3939
  222MOL0     H30625   0.937   2.623   2.516 -0.1435 -0.8939  0.3085
  222MOL0     H30626   0.973   2.834   2.386  0.4111  5.7819  0.6635
  222MOL0     H30627   1.148   2.815   2.426  0.0951 -0.9402  0.6741
  222MOL0     H30628   1.107   2.891   2.658  0.2288 -0.9874 -0.3156
  222MOL0     H30629   1.006   2.996   2.567  1.3469 -0.3353  0.2256
  222MOL0     H30630   0.884   2.917   2.754 -1.0669 -0.0796  0.4107
  222MOL0     H30631   0.893   2.749   2.688 -1.8317  0.2426  0.4615
  222MOL0     H30632   0.596   2.913   2.447 -2.4132 -1.5315  2.9102
  222MOL0     H30633   1.287   2.587   2.811  0.1020  0.7582 -0.1534
  222MOL0     H30634   1.481   2.636   2.900 -0.4844  0.5264 -1.2595
  222MOL0     H30635   1.556   2.471   2.881 -0.5553  0.4332  0.4085
  222MOL0     H30636   1.639   2.619   2.824  0.2672  0.6665 -1.2362
  223MOL0     O30637   5.451   3.385   0.635  0.3571  0.3052  0.2922
  223MOL0     C30638   5.571   3.391   0.667 -0.1245 -0.3729 -0.7126
  223MOL0     O30639   5.623   3.340   0.783 -0.1203  0.3493  0.1368
  223MOL0     C30640   5.555   3.257   0.865 -0.2675  0.2109  0.6338
  223MOL0     C30641   5.460   3.303   0.953  0.8760  0.0836 -0.0559
  223MOL0     C30642   5.384   3.221   1.033 -1.0428 -0.1513 -0.1542
  223MOL0     C30643   5.402   3.084   1.019  0.4042 -0.1710 -1.1728
  223MOL0     O30644   5.318   3.016   1.102 -0.5070 -0.6419  0.3782
  223MOL0     C30645   5.287   2.877   1.080  0.1963  0.1057 -0.0107
  223MOL0     C30646   5.158   2.852   1.140 -0.5325  0.2867 -0.3349
  223MOL0     C30647   5.091   2.723   1.104  0.5386  0.8125 -0.2896
  223MOL0     C30648   5.181   2.594   1.099  1.1738 -0.4468  0.6704
  223MOL0     C30649   5.083   2.482   1.078  0.3778  0.6831  0.2200
  223MOL0     C30650   5.086   2.401   1.201  0.0478  0.0836  0.8770
  223MOL0     C30651   4.982   2.289   1.202  0.5714 -0.4217 -0.0690
  223MOL0     C30652   5.015   2.156   1.116 -0.4329  0.1432 -0.6649
  223MOL0     N30653   5.144   2.096   1.162  0.0498  0.7046  0.3698
  223MOL0     C30654   5.163   2.035   1.285  0.6974 -0.6480 -0.3164
  223MOL0     C30655   5.281   1.971   1.280  0.1955 -0.8767  0.2042
  223MOL0     C30656   5.331   1.886   1.387  0.6246 -0.2427 -0.2455
  223MOL0     C30657   5.451   1.801   1.366  0.3708 -0.2879 -0.2460
  223MOL0     C30658   5.435   1.693   1.267  0.4657 -0.0731 -0.2950
  223MOL0     C30659   5.546   1.586   1.265 -0.0303 -0.3911  0.2996
  223MOL0     O30660   5.557   1.518   1.386 -0.2202  0.1137 -0.1657
  223MOL0     C30661   5.675   1.439   1.390  0.7453 -0.4115 -1.1256
  223MOL0     C30662   5.778   1.406   1.300 -0.1786  0.4994  0.0861
  223MOL0     C30663   5.893   1.327   1.332  0.5902 -0.3648  0.2594
  223MOL0     C30664   5.976   1.301   1.208  0.5900  0.2488 -0.9636
  223MOL0     C30665   5.913   1.293   1.467 -0.3028 -0.1856 -1.3911
  223MOL0     C30666   6.031   1.216   1.524 -0.1615  0.8018 -0.5246
  223MOL0     O30667   6.031   1.208   1.663 -0.1764 -0.2399 -0.1690
  223MOL0     C30668   6.139   1.139   1.704  0.0757 -0.2369 -0.0465
  223MOL0     C30669   6.262   1.200   1.726 -0.2783 -0.3830 -0.8153
  223MOL0     C30670   6.374   1.118   1.759  0.9214 -0.5552 -1.1039
  223MOL0     C30671   6.367   0.979   1.766 -0.7024 -0.3225 -0.6531
  223MOL0     O30672   6.476   0.907   1.795  0.3070  0.6341  0.1651
  223MOL0     C30673   6.451   0.777   1.862  0.8208  0.1446  0.1843
  223MOL0     C30674   6.575   0.744   1.946  0.5427  0.5367 -0.1176
  223MOL0     C30675   6.566   0.614   2.028 -0.1044  0.0968 -0.5726
  223MOL0     C30676   6.702   0.591   2.092  0.6856 -0.0112 -0.8850
  223MOL0     C30677   6.725   0.442   2.100 -0.1093 -0.0661  0.8936
  223MOL0     C30678   6.612   0.366   2.174 -0.0262 -0.4342  1.0216
  223MOL0     C30679   6.635   0.217   2.153  0.2065  0.1138  0.1253
  223MOL0     C30680   6.543   0.147   2.248 -0.1402 -0.3703  0.6444
  223MOL0    Cl30681   6.529  -0.030   2.249  0.0732  0.0366  0.1174
  223MOL0     C30682   6.244   0.927   1.744  0.0491 -0.1730  0.2652
  223MOL0     C30683   6.130   0.997   1.713  0.1631 -0.7030 -0.1098
  223MOL0     O30684   6.113   1.161   1.454 -0.9177 -0.1573  0.0332
  223MOL0     C30685   5.812   1.328   1.562  0.5682 -0.5086 -0.8782
  223MOL0     C30686   5.698   1.396   1.525 -0.4121  0.2590  0.4786
  223MOL0     N30687   5.336   1.992   1.153  0.3294  0.1406 -0.2298
  223MOL0     N30688   5.244   2.055   1.087  0.6467  0.0935  0.2248
  223MOL0     C30689   5.505   3.034   0.939  0.3099  0.3216 -0.2161
  223MOL0     C30690   5.573   3.118   0.847  0.5678  0.0944 -0.7704
  223MOL0     C30691   5.663   3.467   0.572  0.8352 -0.0628 -0.0931
  223MOL0     C30692   5.617   3.551   0.465 -0.1480  0.6732  0.5688
  223MOL0     C30693   5.703   3.619   0.385  0.2899 -0.3960  0.2466
  223MOL0     C30694   5.839   3.610   0.393 -0.6231  0.3390  0.0098
  223MOL0     O30695   5.901   3.669   0.283  0.0153 -0.0280  0.0657
  223MOL0     C30696   6.046   3.658   0.279 -0.3255 -0.6810  0.4647
  223MOL0     C30697   6.097   3.741   0.165 -0.2699  0.2499  0.1812
  223MOL0     C30698   6.252   3.729   0.149 -0.0460 -0.1969  0.5380
  223MOL0     C30699   6.325   3.813   0.049  0.1966  0.1491  0.6468
  223MOL0     C30700   6.290   3.759  -0.087 -0.3778 -0.3125 -0.4186
  223MOL0     C30701   6.261   3.713  -0.196  0.2111  0.5755 -0.0656
  223MOL0     C30702   5.881   3.511   0.484 -0.0532 -0.4410 -0.2187
  223MOL0     C30703   5.800   3.446   0.575  0.5391 -0.0018  0.0844
  223MOL0     C30704   5.864   3.334   0.661  0.4525 -0.1901 -0.1558
  223MOL0     H30705   5.445   3.407   0.979  2.9622  0.3920  0.1125
  223MOL0     H30706   5.312   3.266   1.101 -1.3723  0.1867 -0.7194
  223MOL0     H30707   5.360   2.815   1.132 -2.5516 -1.6895  1.9913
  223MOL0     H30708   5.286   2.861   0.972  1.9748  0.8896 -0.1874
  223MOL0     H30709   5.170   2.856   1.249 -1.4378 -0.1700 -0.2069
  223MOL0     H30710   5.096   2.932   1.100  0.7507  1.0424 -0.8538
  223MOL0     H30711   5.012   2.702   1.176 -0.1017 -0.1198 -1.2365
  223MOL0     H30712   5.046   2.735   1.005  1.0956  1.1517 -0.5093
  223MOL0     H30713   5.245   2.589   1.010  0.2242 -2.0391  0.0273
  223MOL0     H30714   5.246   2.595   1.187 -1.4647  0.1709  2.7518
  223MOL0     H30715   5.122   2.420   0.997 -0.5603 -1.0394  1.0389
  223MOL0     H30716   4.984   2.523   1.056 -0.6659  1.0965  4.7317
  223MOL0     H30717   5.185   2.355   1.211 -0.7991 -1.8507  0.9909
  223MOL0     H30718   5.062   2.467   1.285  2.1139  2.4226 -0.2605
  223MOL0     H30719   4.889   2.333   1.163 -0.2383 -0.8894  1.2558
  223MOL0     H30720   4.961   2.261   1.306 -0.4468 -0.9656 -0.4103
  223MOL0     H30721   4.930   2.088   1.122  0.2929 -0.6536  2.9106
  223MOL0     H30722   5.013   2.188   1.012 -3.7618  1.6653 -0.2481
  223MOL0     H30723   5.094   2.021   1.368 -1.8366 -1.0894 -2.3677
  223MOL0     H30724   5.251   1.830   1.436  0.4808  0.1677 -0.0064
  223MOL0     H30725   5.365   1.958   1.461 -3.4713  1.3676  0.3399
  223MOL0     H30726   5.538   1.857   1.331  1.3295 -1.4090  0.2635
  223MOL0     H30727   5.480   1.761   1.464  0.5581  0.8280  0.1730
  223MOL0     H30728   5.339   1.644   1.283 -1.0370  2.1719 -1.8481
  223MOL0     H30729   5.421   1.725   1.164 -0.4002  2.1048  0.4355
  223MOL0     H30730   5.517   1.510   1.193  0.5330  1.7812 -2.4133
  223MOL0     H30731   5.632   1.630   1.213 -1.4523  0.9085 -1.0625
  223MOL0     H30732   5.759   1.435   1.197 -1.4685 -0.4576  0.0246
  223MOL0     H30733   6.002   1.401   1.170 -1.4622  1.0916 -0.3158
  223MOL0     H30734   5.911   1.249   1.137 -0.8897  1.9976 -0.9979
  223MOL0     H30735   6.063   1.241   1.234  0.2140  0.0541 -0.1401
  223MOL0     H30736   6.276   1.307   1.722  0.8942 -0.5668 -3.1307
  223MOL0     H30737   6.458   1.181   1.788  0.5975 -0.1656 -0.9942
  223MOL0     H30738   6.363   0.773   1.927 -1.2426 -1.2007 -2.4620
  223MOL0     H30739   6.444   0.697   1.788 -0.3981 -1.4297  1.9192
  223MOL0     H30740   6.653   0.753   1.870 -0.2255 -2.1436 -1.3307
  223MOL0     H30741   6.590   0.826   2.017 -0.5932 -1.4682  2.6175
  223MOL0     H30742   6.542   0.541   1.950  3.5941 -0.9059 -0.9666
  223MOL0     H30743   6.487   0.619   2.103  2.5345 -1.9480  2.6978
  223MOL0     H30744   6.693   0.631   2.194  0.1905  1.1403 -1.3622
  223MOL0     H30745   6.787   0.641   2.044  0.4514 -0.0266 -1.3202
  223MOL0     H30746   6.738   0.396   2.001 -1.2978 -2.6319  1.8230
  223MOL0     H30747   6.816   0.424   2.158  0.2092  0.2405  0.4895
  223MOL0     H30748   6.516   0.385   2.124 -0.6258  0.4818  2.4479
  223MOL0     H30749   6.600   0.403   2.276  3.0947  2.4112  0.5557
  223MOL0     H30750   6.739   0.193   2.176  0.2958  0.4463  0.0765
  223MOL0     H30751   6.613   0.188   2.050  1.3638  0.4850 -0.2407
  223MOL0     H30752   6.443   0.186   2.229  0.8505  1.7593 -0.4902
  223MOL0     H30753   6.577   0.167   2.350  0.4066 -0.9468  0.5813
  223MOL0     H30754   6.239   0.819   1.753 -0.8712 -0.2259 -0.6805
  223MOL0     H30755   6.033   0.954   1.689 -0.8091  0.8302  0.8547
  223MOL0     H30756   5.804   1.311   1.669 -1.8283 -0.7643 -1.0548
  223MOL0     H30757   5.618   1.410   1.596 -0.2872  1.2487  0.4395
  223MOL0     H30758   5.510   2.926   0.931  0.9427  0.2032  1.4397
  223MOL0     H30759   5.640   3.081   0.770  2.1482  0.4626  0.3623
  223MOL0     H30760   5.510   3.568   0.455 -0.2091 -0.2789 -0.6766
  223MOL0     H30761   5.661   3.681   0.306 -0.6987 -0.3994  0.7673
  223MOL0     H30762   6.098   3.676   0.374  1.3263 -3.5488  0.2019
  223MOL0     H30763   6.069   3.553   0.260  0.1679 -0.2102 -1.9666
  223MOL0     H30764   6.067   3.843   0.191 -2.4572  0.1414 -1.6823
  223MOL0     H30765   6.049   3.711   0.072  1.2923  1.3294 -1.0287
  223MOL0     H30766   6.292   3.762   0.246 -1.5973  1.0818  0.7789
  223MOL0     H30767   6.286   3.626   0.141  1.7664  0.4982 -1.4768
  223MOL0     H30768   6.431   3.825   0.071  0.2595  0.3128  0.2595
  223MOL0     H30769   6.284   3.915   0.056  2.3189  1.2139 -1.2769
  223MOL0     H30770   6.226   3.665  -0.285 -2.3363  1.7019  0.2429
  223MOL0     H30771   5.986   3.485   0.489  0.9498  3.3241  4.0327
  223MOL0     H30772   5.964   3.307   0.624 -0.0547 -2.4842 -0.0215
  223MOL0     H30773   5.880   3.366   0.764 -0.5796  0.8878 -0.3145
  223MOL0     H30774   5.809   3.239   0.670 -0.4697  0.5084  2.1013
  224MOL0     O30775   2.040   1.396   7.633 -0.8902  0.5197 -0.2047
  224MOL0     C30776   1.985   1.321   7.712  0.5482  0.2332  0.6362
  224MOL0     O30777   2.050   1.225   7.785 -0.6984 -0.1811  0.7624
  224MOL0     C30778   2.183   1.191   7.751  0.0313 -0.2734  0.1861
  224MOL0     C30779   2.281   1.293   7.746 -0.6508  0.1210  0.5924
  224MOL0     C30780   2.414   1.257   7.719  0.2163  0.7908  0.5787
  224MOL0     C30781   2.447   1.125   7.693  0.4015  0.0786  0.8631
  224MOL0     O30782   2.581   1.102   7.657  0.7569 -1.2160 -0.3933
  224MOL0     C30783   2.624   0.969   7.641  0.2403 -0.0642 -0.6850
  224MOL0     C30784   2.784   0.973   7.620  0.6142 -0.2927  0.5115
  224MOL0     C30785   2.839   1.061   7.523  0.4852 -0.6736  0.7975
  224MOL0     C30786   2.805   1.021   7.372  0.7251  1.3565  0.3639
  224MOL0     C30787   2.858   1.097   7.257 -0.4722 -0.7849  0.3576
  224MOL0     C30788   3.008   1.140   7.281  0.3153 -0.3740  0.8301
  224MOL0     C30789   3.073   1.170   7.143  0.3804  0.4013  0.5612
  224MOL0     C30790   3.213   1.242   7.158 -0.3564  0.4430 -1.2087
  224MOL0     N30791   3.310   1.181   7.257 -0.4186 -0.7882  0.2391
  224MOL0     C30792   3.299   1.203   7.391  0.3319  0.5001 -0.0029
  224MOL0     C30793   3.414   1.152   7.440 -0.0858 -1.3200  0.3169
  224MOL0     C30794   3.464   1.170   7.582  0.4306 -0.6686 -0.6185
  224MOL0     C30795   3.564   1.286   7.590 -1.1605 -0.2311  1.0914
  224MOL0     C30796   3.635   1.279   7.722 -0.6548 -0.3791 -0.5690
  224MOL0     C30797   3.772   1.351   7.719 -0.0983 -1.1218  0.1946
  224MOL0     O30798   3.750   1.491   7.697  0.4174  0.0458 -0.2798
  224MOL0     C30799   3.850   1.570   7.655 -0.3250  0.3244 -0.3108
  224MOL0     C30800   3.985   1.534   7.644  0.2258  0.0522 -0.6179
  224MOL0     C30801   4.083   1.641   7.627 -0.2201  0.5624 -0.0221
  224MOL0     C30802   4.228   1.603   7.633  0.5682  0.5481  0.1803
  224MOL0     C30803   4.032   1.768   7.610  0.3332 -0.8542  0.2653
  224MOL0     C30804   4.129   1.880   7.572  0.4730 -0.1686  1.0159
  224MOL0     O30805   4.110   2.003   7.632  0.3161  0.5565  0.1656
  224MOL0     C30806   4.213   2.096   7.615 -0.3538  0.7257  0.4020
  224MOL0     C30807   4.335   2.066   7.670 -0.4161  0.9016  0.8908
  224MOL0     C30808   4.439   2.166   7.662  0.2701 -0.2229 -0.9144
  224MOL0     C30809   4.422   2.290   7.598 -0.3986  0.5307 -0.6557
  224MOL0     O30810   4.528   2.372   7.593 -0.1714  0.4954  0.3723
  224MOL0     C30811   4.512   2.516   7.630 -0.2732 -0.6581 -0.1161
  224MOL0     C30812   4.486   2.552   7.783  0.4107  0.2411  0.2839
  224MOL0     C30813   4.601   2.478   7.869 -0.5796 -0.5175  0.7307
  224MOL0     C30814   4.585   2.475   8.020  1.0340 -0.0111  0.5826
  224MOL0     C30815   4.689   2.388   8.089  0.0403 -0.5939  0.6122
  224MOL0     C30816   4.831   2.439   8.070 -0.4994 -1.2322 -0.6333
  224MOL0     C30817   4.941   2.354   8.129  0.7447  0.2357 -0.0098
  224MOL0     C30818   5.095   2.398   8.103  1.2154 -0.2220  0.4248
  224MOL0    Cl30819   5.119   2.569   8.117  0.3147  0.1691  0.1000
  224MOL0     C30820   4.294   2.311   7.543 -0.2351 -0.2525 -0.1036
  224MOL0     C30821   4.196   2.216   7.544  0.7478 -0.9549 -0.4666
  224MOL0     O30822   4.218   1.853   7.491 -0.6444 -0.2213 -0.2378
  224MOL0     C30823   3.895   1.802   7.623 -0.3202 -0.0928  0.2141
  224MOL0     C30824   3.813   1.703   7.650  0.1484 -0.3695 -0.5344
  224MOL0     N30825   3.498   1.105   7.338 -0.3913  0.4678  0.2124
  224MOL0     N30826   3.440   1.133   7.223  0.0860  0.4112 -0.8551
  224MOL0     C30827   2.356   1.022   7.715 -0.3500 -0.1322  0.1660
  224MOL0     C30828   2.218   1.058   7.731 -0.7533  0.0328  0.3218
  224MOL0     C30829   1.831   1.308   7.725  0.0097 -0.1224 -1.1246
  224MOL0     C30830   1.783   1.188   7.793  0.7860 -0.6070 -0.4885
  224MOL0     C30831   1.643   1.165   7.805 -0.0338 -0.5494 -0.1515
  224MOL0     C30832   1.553   1.257   7.754  0.3371 -0.5905 -0.0592
  224MOL0     O30833   1.418   1.215   7.756  0.6035 -0.3833  0.1239
  224MOL0     C30834   1.318   1.307   7.707 -0.2852 -0.1658 -0.0567
  224MOL0     C30835   1.190   1.224   7.702  0.1029  0.4425 -0.4179
  224MOL0     C30836   1.062   1.304   7.667 -0.7744 -0.8604 -1.0293
  224MOL0     C30837   0.947   1.301   7.770  0.6043 -0.2148 -0.7512
  224MOL0     C30838   0.879   1.179   7.779  0.2362 -0.2618  0.4409
  224MOL0     C30839   0.809   1.077   7.793  0.0237 -0.5365 -0.1197
  224MOL0     C30840   1.602   1.374   7.695 -0.5177  0.4429 -0.3621
  224MOL0     C30841   1.743   1.405   7.679 -0.0723 -0.0086  0.5473
  224MOL0     C30842   1.780   1.532   7.604 -0.6266  1.0070 -0.3108
  224MOL0     H30843   2.270   1.396   7.781  0.9035  0.0482  1.3641
  224MOL0     H30844   2.497   1.328   7.724  1.7884 -0.9728  0.5336
  224MOL0     H30845   2.567   0.932   7.555  1.3967 -0.1835 -1.4263
  224MOL0     H30846   2.605   0.914   7.734 -2.0990 -1.0058 -1.6581
  224MOL0     H30847   2.835   1.004   7.712  2.1083 -0.6653 -0.1634
  224MOL0     H30848   2.819   0.874   7.590  0.3407 -0.6802  1.4478
  224MOL0     H30849   2.800   1.162   7.542 -1.5798 -1.2859  0.0716
  224MOL0     H30850   2.948   1.062   7.532  0.4696  0.3690  1.1205
  224MOL0     H30851   2.834   0.917   7.357 -1.7449  0.4961  1.1156
  224MOL0     H30852   2.697   1.023   7.355  0.9357  1.5465 -1.0130
  224MOL0     H30853   2.799   1.184   7.228  0.4750  0.1819  1.2204
  224MOL0     H30854   2.856   1.025   7.175 -1.6125  0.2970 -0.6029
  224MOL0     H30855   3.013   1.223   7.352  3.7286 -2.3321  3.2125
  224MOL0     H30856   3.069   1.063   7.330  2.0841 -0.8533 -1.9281
  224MOL0     H30857   3.013   1.243   7.087 -1.5658 -1.9593 -0.6154
  224MOL0     H30858   3.085   1.079   7.085  2.3558  1.2842 -0.5137
  224MOL0     H30859   3.268   1.246   7.064  1.9588  1.0920  0.0868
  224MOL0     H30860   3.195   1.348   7.181 -4.0922 -0.2112 -0.4860
  224MOL0     H30861   3.225   1.259   7.448 -0.4708 -0.5237  0.0080
  224MOL0     H30862   3.511   1.075   7.608  3.8236  0.5724 -1.6572
  224MOL0     H30863   3.393   1.187   7.663  2.9831 -1.3103  1.9235
  224MOL0     H30864   3.648   1.263   7.524 -0.6561  2.1671  0.8128
  224MOL0     H30865   3.524   1.385   7.566 -0.1543 -0.4368 -1.8762
  224MOL0     H30866   3.577   1.328   7.801  1.0334  0.7610  0.0112
  224MOL0     H30867   3.655   1.176   7.753  0.2162  0.2167  0.9953
  224MOL0     H30868   3.836   1.327   7.805  0.3862 -3.6368 -0.7792
  224MOL0     H30869   3.837   1.300   7.647  2.1657 -0.8092  1.8846
  224MOL0     H30870   4.026   1.433   7.651  0.8138  0.2515 -1.0870
  224MOL0     H30871   4.242   1.513   7.693  2.5480 -1.3742 -2.8541
  224MOL0     H30872   4.289   1.681   7.680 -1.0493 -0.1827  3.8442
  224MOL0     H30873   4.265   1.574   7.534 -0.6082 -0.1401 -0.0790
  224MOL0     H30874   4.347   1.972   7.723 -0.4002  1.7677  2.4743
  224MOL0     H30875   4.532   2.148   7.716  0.7870  0.1415 -1.6765
  224MOL0     H30876   4.596   2.580   7.603 -0.3494  0.0579  1.2435
  224MOL0     H30877   4.424   2.547   7.573  0.1736  1.0050  0.0521
  224MOL0     H30878   4.493   2.661   7.793 -0.3592  0.2591  0.6902
  224MOL0     H30879   4.381   2.524   7.800 -0.4498  2.2615 -1.1964
  224MOL0     H30880   4.691   2.529   7.834 -1.1587 -0.7788 -1.2546
  224MOL0     H30881   4.594   2.377   7.827  1.0447 -0.2087 -0.3735
  224MOL0     H30882   4.490   2.430   8.050 -0.2266  2.7199  0.9287
  224MOL0     H30883   4.577   2.578   8.055 -4.4761 -0.1942  0.6403
  224MOL0     H30884   4.665   2.397   8.195 -0.3042  0.0613  0.4842
  224MOL0     H30885   4.679   2.288   8.046 -0.6701 -0.1805 -0.2008
  224MOL0     H30886   4.850   2.535   8.119  3.0659 -0.8677 -2.3625
  224MOL0     H30887   4.857   2.461   7.966 -2.2706 -0.4215 -0.9238
  224MOL0     H30888   4.923   2.256   8.083 -0.3380 -0.3727  1.6188
  224MOL0     H30889   4.931   2.338   8.237  1.0861  0.7313  0.0984
  224MOL0     H30890   5.131   2.383   8.001  0.9651  1.8132 -0.0071
  224MOL0     H30891   5.158   2.348   8.176  0.9766 -0.6114  0.3664
  224MOL0     H30892   4.272   2.407   7.496  1.2529 -0.0799 -0.4803
  224MOL0     H30893   4.102   2.247   7.501  0.5921  0.7498  0.9968
  224MOL0     H30894   3.863   1.906   7.623  0.3441  0.1240 -0.4494
  224MOL0     H30895   3.710   1.731   7.672  0.3468 -0.5006  0.6646
  224MOL0     H30896   2.388   0.919   7.722 -2.7286 -0.8885  0.9413
  224MOL0     H30897   2.133   0.990   7.739 -0.8579  0.2962  1.5800
  224MOL0     H30898   1.858   1.119   7.831 -2.7444 -3.3887  2.2237
  224MOL0     H30899   1.604   1.069   7.837 -1.5503 -0.1037 -0.5491
  224MOL0     H30900   1.310   1.398   7.767  1.7772 -1.2053  1.9578
  224MOL0     H30901   1.344   1.332   7.604  0.0478  0.8355  0.2635
  224MOL0     H30902   1.181   1.175   7.800  0.4934 -1.8305 -1.4447
  224MOL0     H30903   1.203   1.149   7.623  0.5552  0.2561 -0.1683
  224MOL0     H30904   1.090   1.407   7.644 -2.3132 -0.4982 -1.4102
  224MOL0     H30905   1.023   1.260   7.574 -0.6700  1.4202 -2.2182
  224MOL0     H30906   0.872   1.378   7.747  1.9185  1.5695  0.6502
  224MOL0     H30907   0.981   1.329   7.870 -0.4497  0.3860 -0.5384
  224MOL0     H30908   0.742   0.996   7.815  0.1775 -1.8349 -3.7180
  224MOL0     H30909   1.540   1.452   7.654 -0.8223 -0.1745 -1.0864
  224MOL0     H30910   1.804   1.507   7.500 -1.3001 -0.3597 -0.1499
  224MOL0     H30911   1.688   1.590   7.606 -1.8829 -0.8837  1.5192
  224MOL0     H30912   1.863   1.587   7.650  1.1859  1.0219 -3.3475
  225MOL0     O30913   1.122   3.860   9.715  0.5541 -0.3358  0.0141
  225MOL0     C30914   1.018   3.912   9.670 -0.3320  0.0878 -1.1319
  225MOL0     O30915   1.013   3.974   9.548 -0.7326 -0.1640 -0.3264
  225MOL0     C30916   1.119   4.016   9.482 -0.5155  0.0107  0.1635
  225MOL0     C30917   1.110   4.148   9.432 -0.4144  0.8874  0.2951
  225MOL0     C30918   1.223   4.219   9.391  0.3442 -0.4216  0.3914
  225MOL0     C30919   1.343   4.155   9.374 -0.5020 -0.3567 -0.1672
  225MOL0     O30920   1.454   4.207   9.309 -0.0506  0.1923 -0.5908
  225MOL0     C30921   1.443   4.343   9.241  0.2494 -0.7455  0.0933
  225MOL0     C30922   1.549   4.355   9.142 -0.1607 -0.0910  0.7367
  225MOL0     C30923   1.690   4.326   9.195 -0.3566  0.3241 -0.3108
  225MOL0     C30924   1.760   4.443   9.265  0.1765  0.6138 -0.7570
  225MOL0     C30925   1.911   4.438   9.245 -0.4032  0.4388  0.7905
  225MOL0     C30926   1.980   4.299   9.261  0.1210 -0.9876  1.2350
  225MOL0     C30927   2.127   4.306   9.249 -1.1505 -0.2846 -0.0383
  225MOL0     C30928   2.178   4.159   9.243  0.6465 -0.1744  0.1189
  225MOL0     N30929   2.314   4.159   9.191 -0.6675 -0.6159  1.0195
  225MOL0     C30930   2.344   4.208   9.064  0.5276 -0.6598  0.0580
  225MOL0     C30931   2.478   4.190   9.050  0.5486  0.5794 -0.9706
  225MOL0     C30932   2.556   4.209   8.925  0.0211 -0.2813 -0.0029
  225MOL0     C30933   2.627   4.077   8.879  0.4179  0.5670  0.1523
  225MOL0     C30934   2.524   3.983   8.810 -0.2953  0.7306  0.4302
  225MOL0     C30935   2.553   3.836   8.850 -0.2953  0.2851  0.0304
  225MOL0     O30936   2.495   3.806   8.971  0.7137  0.7936 -0.5023
  225MOL0     C30937   2.378   3.738   8.956 -0.4412 -0.3828 -0.5540
  225MOL0     C30938   2.373   3.604   8.940  0.5857  0.7199  0.4942
  225MOL0     C30939   2.253   3.534   8.920  0.1931  1.2154 -0.4936
  225MOL0     C30940   2.249   3.378   8.892  0.8553 -0.1959 -0.5318
  225MOL0     C30941   2.131   3.603   8.918  0.9376  0.4749 -0.1312
  225MOL0     C30942   1.995   3.535   8.901 -0.4634 -0.7216  0.4277
  225MOL0     O30943   1.934   3.471   9.009  0.4760 -0.7731 -0.2418
  225MOL0     C30944   1.807   3.432   8.985  0.2653  0.0984  0.2588
  225MOL0     C30945   1.783   3.297   8.943 -1.0869 -0.1010  0.4503
  225MOL0     C30946   1.647   3.262   8.930 -0.2091 -0.8401 -0.9960
  225MOL0     C30947   1.535   3.339   8.960 -0.8882 -0.3868 -0.0293
  225MOL0     O30948   1.412   3.282   8.949 -0.1526  0.0410  0.5966
  225MOL0     C30949   1.346   3.321   8.827 -0.0511  0.0408 -0.1375
  225MOL0     C30950   1.374   3.229   8.709 -0.3113 -0.2385  0.4905
  225MOL0     C30951   1.266   3.128   8.679 -0.0486 -0.0443  1.2152
  225MOL0     C30952   1.258   3.025   8.793 -0.3674 -0.1224  0.0472
  225MOL0     C30953   1.132   2.929   8.782  0.3070 -0.2233  0.1664
  225MOL0     C30954   1.119   2.871   8.926  1.2172  0.2666  0.2874
  225MOL0     C30955   0.992   2.784   8.938  0.1293  0.1572 -0.0169
  225MOL0     C30956   0.860   2.862   8.926 -1.1426 -0.7236 -0.5856
  225MOL0    Cl30957   0.849   2.997   9.042  0.0802  0.2073  0.0637
  225MOL0     C30958   1.559   3.467   9.012 -0.9129 -0.3421 -1.0221
  225MOL0     C30959   1.693   3.511   9.026  0.0518 -0.6301  0.1602
  225MOL0     O30960   1.950   3.545   8.787  0.3569  0.0555 -0.2225
  225MOL0     C30961   2.137   3.737   8.953 -1.1915 -0.5920 -1.0928
  225MOL0     C30962   2.256   3.807   8.963  0.2512  0.2136 -0.7578
  225MOL0     N30963   2.533   4.150   9.172  0.0563 -0.0017 -0.5201
  225MOL0     N30964   2.425   4.134   9.256 -0.3623  0.5981 -0.2390
  225MOL0     C30965   1.354   4.022   9.414  0.2440  0.6809  0.2052
  225MOL0     C30966   1.244   3.954   9.480  0.2362  0.8357  0.0686
  225MOL0     C30967   0.893   3.882   9.754 -0.0713 -0.2322  0.5199
  225MOL0     C30968   0.773   3.908   9.697 -0.0889  0.8349  0.5222
  225MOL0     C30969   0.651   3.875   9.763 -1.0526  0.2281 -0.1548
  225MOL0     C30970   0.647   3.832   9.896  0.3395 -0.6770  0.2287
  225MOL0     O30971   0.532   3.804   9.959  0.1889 -0.2766 -0.0547
  225MOL0     C30972   0.415   3.883   9.940  0.0368 -0.5384  0.0554
  225MOL0     C30973   0.428   4.037   9.953 -0.5623 -0.0439 -0.6787
  225MOL0     C30974   0.288   4.095   9.981 -0.3935 -0.1902  0.0646
  225MOL0     C30975   0.189   4.065   9.865  0.2924 -0.4438  0.5118
  225MOL0     C30976   0.235   4.134   9.733 -0.4466 -0.3579  0.6867
  225MOL0     C30977   0.250   4.194   9.624 -0.9627 -0.6220  0.2842
  225MOL0     C30978   0.767   3.807   9.957 -0.0483 -0.1801 -0.2260
  225MOL0     C30979   0.888   3.831   9.887  0.1350 -0.0894 -0.6629
  225MOL0     C30980   1.013   3.789   9.959 -0.5662 -0.3956  0.4610
  225MOL0     H30981   1.023   4.209   9.453 -2.3384 -0.8406 -2.0841
  225MOL0     H30982   1.209   4.325   9.370 -1.6771 -0.4217  1.5127
  225MOL0     H30983   1.441   4.426   9.311 -3.0018 -0.8623  0.3049
  225MOL0     H30984   1.353   4.352   9.179  0.0630  1.1470  0.5899
  225MOL0     H30985   1.527   4.285   9.061 -0.2682 -1.4177  1.8531
  225MOL0     H30986   1.557   4.456   9.101 -3.7746 -0.8488 -2.4637
  225MOL0     H30987   1.689   4.238   9.260  0.9608 -0.9603 -1.9363
  225MOL0     H30988   1.748   4.290   9.110  0.9492 -1.5501  1.2909
  225MOL0     H30989   1.728   4.538   9.221 -1.5368 -0.6247 -2.3652
  225MOL0     H30990   1.738   4.446   9.372  1.1485  1.5434 -0.5722
  225MOL0     H30991   1.940   4.515   9.317 -1.4171  1.1224  0.4828
  225MOL0     H30992   1.932   4.473   9.144 -2.6614  0.4925  0.2920
  225MOL0     H30993   1.950   4.278   9.364 -0.5236 -0.6635  1.1214
  225MOL0     H30994   1.932   4.226   9.195  2.0188 -2.0243  0.9306
  225MOL0     H30995   2.178   4.366   9.325 -4.1521  2.5555 -0.0846
  225MOL0     H30996   2.157   4.351   9.154  1.5362  0.5279  1.0976
  225MOL0     H30997   2.155   4.120   9.342 -0.1667  2.5037  1.0728
  225MOL0     H30998   2.120   4.102   9.169  1.2953  0.3394 -0.8093
  225MOL0     H30999   2.272   4.238   8.990  1.5833 -0.0103 -0.7287
  225MOL0     H31000   2.633   4.285   8.943  0.6965 -1.5460  2.9095
  225MOL0     H31001   2.495   4.248   8.843 -0.3264 -0.0761  0.3466
  225MOL0     H31002   2.711   4.098   8.812  2.5670  2.4093  3.1636
  225MOL0     H31003   2.673   4.027   8.964  2.1328 -0.0255 -1.0575
  225MOL0     H31004   2.425   4.009   8.847 -0.5123  0.2383  0.1953
  225MOL0     H31005   2.535   4.001   8.702  1.0494  0.9080  0.5772
  225MOL0     H31006   2.510   3.764   8.780 -1.9181  0.3547  0.8965
  225MOL0     H31007   2.659   3.811   8.844 -0.4122  0.2357 -3.1494
  225MOL0     H31008   2.463   3.543   8.939  0.4398  0.4764  1.2905
  225MOL0     H31009   2.181   3.357   8.809 -1.8239  3.1578  0.5870
  225MOL0     H31010   2.207   3.323   8.977 -0.6798  0.8201 -0.5820
  225MOL0     H31011   2.344   3.331   8.867  1.1307 -0.0975  0.2891
  225MOL0     H31012   1.863   3.227   8.921 -0.5264  0.2694  1.2289
  225MOL0     H31013   1.640   3.170   8.873 -1.7434  1.0800 -4.1861
  225MOL0     H31014   1.241   3.321   8.859  1.2368 -0.3316  4.9128
  225MOL0     H31015   1.374   3.423   8.801 -1.3730  0.8486  1.4914
  225MOL0     H31016   1.382   3.300   8.627 -1.3474 -1.1877 -0.4665
  225MOL0     H31017   1.474   3.184   8.709 -0.2448 -0.1244 -0.7074
  225MOL0     H31018   1.282   3.083   8.581 -4.6029 -1.7745  1.0583
  225MOL0     H31019   1.171   3.180   8.667 -1.5897 -2.4874  2.1144
  225MOL0     H31020   1.279   3.059   8.895  2.0478 -2.4615  0.4365
  225MOL0     H31021   1.345   2.959   8.788 -0.8772 -0.7521 -0.7079
  225MOL0     H31022   1.052   2.990   8.739  1.7259  2.3814  1.0165
  225MOL0     H31023   1.159   2.852   8.709  0.1696  0.5857 -0.7683
  225MOL0     H31024   1.125   2.949   9.003  2.5416  1.0144 -0.5389
  225MOL0     H31025   1.207   2.808   8.946 -0.3155 -1.8388  0.7727
  225MOL0     H31026   0.991   2.730   9.032 -0.1419 -1.4105 -0.8847
  225MOL0     H31027   0.996   2.702   8.866  1.9883  2.1705 -2.4455
  225MOL0     H31028   0.783   2.787   8.943 -0.0731 -1.2975  2.2794
  225MOL0     H31029   0.859   2.897   8.822 -0.0122  2.4603  0.3478
  225MOL0     H31030   1.479   3.527   9.054 -1.3373 -1.2426 -0.5156
  225MOL0     H31031   1.710   3.613   9.061 -0.0113 -0.8917  0.9796
  225MOL0     H31032   2.045   3.793   8.963 -0.9647 -0.4449  0.4380
  225MOL0     H31033   2.252   3.912   8.989  0.5555 -0.3732  2.0970
  225MOL0     H31034   1.449   3.969   9.411  0.3521  0.8855 -0.0549
  225MOL0     H31035   1.266   3.857   9.526  0.8814  1.2903  0.7529
  225MOL0     H31036   0.784   3.946   9.596 -0.6766  0.6022  0.3635
  225MOL0     H31037   0.558   3.887   9.709 -1.6537  1.4437  1.0918
  225MOL0     H31038   0.373   3.854   9.843  0.2434  2.3094 -0.9765
  225MOL0     H31039   0.345   3.849  10.017 -1.0207  0.3832 -0.4557
  225MOL0     H31040   0.474   4.074   9.861  1.0295  0.5599  0.3312
  225MOL0     H31041   0.496   4.067  10.033  0.5206 -1.6729 -0.9374
  225MOL0     H31042   0.244   4.046  10.069 -3.7680 -0.9413 -1.8573
  225MOL0     H31043   0.304   4.202   9.992  1.2109 -0.2738 -1.1211
  225MOL0     H31044   0.090   4.098   9.897  0.2939 -0.9012  0.9955
  225MOL0     H31045   0.182   3.958   9.847  0.3164 -0.2168 -0.9627
  225MOL0     H31046   0.254   4.248   9.531 -1.6145 -0.1601  0.5218
  225MOL0     H31047   0.761   3.753  10.051 -0.4495  0.5287  0.1622
  225MOL0     H31048   1.057   3.703   9.907 -0.2686 -1.1351  1.9067
  225MOL0     H31049   1.083   3.873   9.964 -2.3072  1.0695  1.3176
  225MOL0     H31050   0.995   3.758  10.062  1.3512 -1.1080  0.6196
  226MOL0     O31051   3.953   4.128   9.555  0.4129  0.5370 -0.3264
  226MOL0     C31052   3.940   4.007   9.571 -0.2354 -0.6738 -0.1360
  226MOL0     O31053   4.047   3.919   9.591  0.1323  0.3937  0.6032
  226MOL0     C31054   4.174   3.968   9.570  0.8678  0.3425  0.3663
  226MOL0     C31055   4.215   4.035   9.454  0.9357  0.9709 -0.5227
  226MOL0     C31056   4.349   4.063   9.437 -0.5398  0.5312  1.1220
  226MOL0     C31057   4.442   4.035   9.539 -0.3981  0.4182 -0.6890
  226MOL0     O31058   4.577   4.067   9.541 -0.3482  0.4830  0.0938
  226MOL0     C31059   4.634   4.141   9.429  0.0722 -0.2986  0.0703
  226MOL0     C31060   4.786   4.172   9.444  0.8924  0.0260  0.3921
  226MOL0     C31061   4.845   4.271   9.547 -0.1248 -0.0707 -0.7818
  226MOL0     C31062   4.991   4.272   9.532  0.3194  0.3320  0.1501
  226MOL0     C31063   5.069   4.358   9.631  0.3273 -0.1979  0.2874
  226MOL0     C31064   5.215   4.344   9.605 -0.6365 -0.2833  0.4748
  226MOL0     C31065   5.309   4.416   9.700 -0.0708 -0.5510  0.9726
  226MOL0     C31066   5.454   4.410   9.662 -0.2401  0.3681 -1.1388
  226MOL0     N31067   5.526   4.473   9.774 -1.0212 -0.0506 -0.3405
  226MOL0     C31068   5.560   4.407   9.894 -0.1663  0.4927 -0.6188
  226MOL0     C31069   5.597   4.504   9.986  0.8214 -0.2400  0.2000
  226MOL0     C31070   5.653   4.472  10.118 -0.2396 -0.5307  0.2773
  226MOL0     C31071   5.795   4.421  10.103 -0.0943  0.0491 -0.6048
  226MOL0     C31072   5.880   4.496  10.011 -0.0360  0.2988 -1.2400
  226MOL0     C31073   5.921   4.640  10.067 -0.9198  0.4222  0.1491
  226MOL0     O31074   5.958   4.633  10.205  0.1860 -0.1880  0.1828
  226MOL0     C31075   6.074   4.563  10.244 -0.7652  0.7445  0.3663
  226MOL0     C31076   6.179   4.522  10.156  0.7199  0.3087 -0.5568
  226MOL0     C31077   6.299   4.457  10.204 -0.1083 -0.4709  0.7399
  226MOL0     C31078   6.400   4.424  10.096 -0.0178 -0.2290 -0.3913
  226MOL0     C31079   6.306   4.421  10.337  0.0382 -0.6282 -0.8253
  226MOL0     C31080   6.419   4.341  10.401 -0.6732  0.1993  0.6152
  226MOL0     O31081   6.475   4.242  10.326  0.1435  0.1383  0.3579
  226MOL0     C31082   6.551   4.152  10.406  0.2010 -0.8570  0.5578
  226MOL0     C31083   6.510   4.067  10.510  0.1415 -1.0226  0.6790
  226MOL0     C31084   6.595   3.969  10.562 -1.2277  0.0963 -0.1114
  226MOL0     C31085   6.728   3.952  10.503 -0.7707 -0.5982  0.2923
  226MOL0     O31086   6.814   3.854  10.539  0.2125  1.6502 -0.1340
  226MOL0     C31087   6.824   3.824  10.679 -0.0119 -0.3195 -1.0633
  226MOL0     C31088   6.921   3.921  10.749  1.3847  0.2323  0.4371
  226MOL0     C31089   7.049   3.943  10.671 -0.5415  0.3543  0.1657
  226MOL0     C31090   7.151   4.046  10.725  0.6158  0.4433  0.1998
  226MOL0     C31091   7.173   4.040  10.872  0.0777 -0.4612 -0.3960
  226MOL0     C31092   7.236   3.916  10.923  0.3302 -0.2745 -0.3452
  226MOL0     C31093   7.393   3.904  10.885  1.0244  0.2964  0.3815
  226MOL0     C31094   7.451   3.814  10.990 -1.0267 -0.4342 -0.0435
  226MOL0    Cl31095   7.631   3.838  10.963 -0.0646 -0.1051 -0.2589
  226MOL0     C31096   6.763   4.032  10.404 -0.2989 -1.0655 -0.5651
  226MOL0     C31097   6.677   4.137  10.352 -0.1972  0.3845  0.6324
  226MOL0     O31098   6.460   4.377  10.510  0.8857  0.2122  0.1254
  226MOL0     C31099   6.200   4.460  10.422 -0.4318  0.0813 -1.1723
  226MOL0     C31100   6.087   4.527  10.372 -0.2237 -0.3504  0.2121
  226MOL0     N31101   5.578   4.634   9.927  0.3729  0.5489  0.1337
  226MOL0     N31102   5.531   4.606   9.807  0.6159 -0.2061 -0.0536
  226MOL0     C31103   4.401   3.965   9.656  0.8882 -0.0655  0.0336
  226MOL0     C31104   4.261   3.945   9.677 -0.1706  0.2221  0.2328
  226MOL0     C31105   3.805   3.944   9.569 -0.1704 -0.9576  0.1175
  226MOL0     C31106   3.775   3.844   9.478 -0.8463  0.7942 -0.2414
  226MOL0     C31107   3.637   3.811   9.444 -0.0898  0.8737 -0.2428
  226MOL0     C31108   3.539   3.867   9.520 -0.1531  0.1932  0.4364
  226MOL0     O31109   3.413   3.816   9.505 -0.4674  0.3283 -0.1282
  226MOL0     C31110   3.319   3.821   9.611 -0.3522 -0.0385  0.3999
  226MOL0     C31111   3.176   3.769   9.573  0.5132 -0.2190 -0.2746
  226MOL0     C31112   3.174   3.623   9.529  0.1974 -0.1219 -0.1540
  226MOL0     C31113   3.244   3.530   9.625  0.2218  0.1705 -0.0339
  226MOL0     C31114   3.231   3.400   9.565 -0.7875  0.0553 -0.4629
  226MOL0     C31115   3.241   3.286   9.527  0.4220 -0.1736 -0.6436
  226MOL0     C31116   3.566   3.947   9.626 -0.3951 -0.8780  0.0923
  226MOL0     C31117   3.698   4.000   9.640 -0.3913  0.2105  0.1345
  226MOL0     C31118   3.723   4.115   9.738  0.4033 -0.1201  0.4182
  226MOL0     H31119   4.154   4.050   9.366 -0.4337 -3.3282 -0.5534
  226MOL0     H31120   4.392   4.102   9.345  2.9050 -0.8277  2.0118
  226MOL0     H31121   4.583   4.237   9.416 -0.9446 -0.7893  0.3525
  226MOL0     H31122   4.606   4.086   9.339 -2.3594 -1.1442  1.2477
  226MOL0     H31123   4.832   4.076   9.466  0.1668 -1.1357 -2.6031
  226MOL0     H31124   4.821   4.205   9.345  1.5719 -1.6098  0.0566
  226MOL0     H31125   4.803   4.372   9.549  1.1156  0.4666  0.7393
  226MOL0     H31126   4.827   4.231   9.647 -2.5404  3.4673  0.3992
  226MOL0     H31127   5.026   4.168   9.540  0.7264  0.5807  2.1978
  226MOL0     H31128   5.019   4.321   9.438  2.0748  1.0426  0.9935
  226MOL0     H31129   5.051   4.326   9.734 -1.1403  1.9990  0.7707
  226MOL0     H31130   5.047   4.464   9.624  2.7579  0.2555 -2.2566
  226MOL0     H31131   5.246   4.240   9.588 -0.8887 -0.1600 -0.7931
  226MOL0     H31132   5.218   4.396   9.509 -0.6054  1.9843  1.6275
  226MOL0     H31133   5.281   4.370   9.795 -4.0685 -0.7837 -0.1557
  226MOL0     H31134   5.286   4.522   9.690 -0.7838 -0.7784  0.0818
  226MOL0     H31135   5.493   4.309   9.647  3.6792  1.7844 -1.4198
  226MOL0     H31136   5.480   4.465   9.572  2.4839 -2.5268 -2.2928
  226MOL0     H31137   5.562   4.302   9.920  2.2120  1.2395  3.0226
  226MOL0     H31138   5.586   4.396  10.157 -1.9053  0.2216 -0.9785
  226MOL0     H31139   5.647   4.559  10.185  2.1364  1.4103 -1.8065
  226MOL0     H31140   5.849   4.395  10.195 -1.9957  2.9877  1.5310
  226MOL0     H31141   5.775   4.327  10.051 -2.5245  0.4469 -0.5050
  226MOL0     H31142   5.970   4.437   9.989  0.0837  1.0115 -2.8279
  226MOL0     H31143   5.835   4.512   9.913  0.6151 -1.9271 -1.9780
  226MOL0     H31144   5.997   4.687  10.005 -0.1176  1.5852  1.9274
  226MOL0     H31145   5.838   4.712  10.069 -0.2847  1.1625  0.4294
  226MOL0     H31146   6.159   4.547  10.052 -2.5580 -1.8416 -0.5691
  226MOL0     H31147   6.386   4.467   9.997 -0.5748 -0.8297 -0.5841
  226MOL0     H31148   6.400   4.316  10.079 -0.0256 -0.7060  2.1964
  226MOL0     H31149   6.499   4.457  10.130 -0.9195  1.5070  0.6961
  226MOL0     H31150   6.409   4.073  10.550  0.1820 -0.5513  0.7166
  226MOL0     H31151   6.562   3.896  10.635  0.4333  0.0789  0.6686
  226MOL0     H31152   6.726   3.828  10.728  1.0852 -1.5378  1.4099
  226MOL0     H31153   6.856   3.722  10.697 -1.9858 -0.9645 -0.8996
  226MOL0     H31154   6.861   4.012  10.750 -1.3804 -1.4133 -1.0700
  226MOL0     H31155   6.946   3.885  10.849 -1.4197  0.2572  1.2394
  226MOL0     H31156   7.026   3.952  10.565  0.6638  0.2779 -0.1180
  226MOL0     H31157   7.097   3.846  10.686 -1.2518  0.3435  3.0649
  226MOL0     H31158   7.102   4.140  10.697  0.1008  0.5912  1.5453
  226MOL0     H31159   7.244   4.023  10.673  0.3182 -1.2005  0.3502
  226MOL0     H31160   7.227   4.131  10.898 -0.6071 -0.3073  0.5150
  226MOL0     H31161   7.086   4.050  10.938  0.9902 -1.5263  1.0089
  226MOL0     H31162   7.187   3.822  10.896  2.5665 -1.2540 -1.2601
  226MOL0     H31163   7.239   3.934  11.031 -0.0493  0.8129 -0.4997
  226MOL0     H31164   7.448   3.997  10.869 -1.0812  1.4064 -0.8297
  226MOL0     H31165   7.406   3.869  10.782  0.1945 -1.0230  0.6978
  226MOL0     H31166   7.419   3.714  10.956  0.6049  0.1638 -3.8561
  226MOL0     H31167   7.412   3.833  11.090 -0.8242 -3.1395  0.6335
  226MOL0     H31168   6.856   4.020  10.348  0.0488  1.4374 -0.6559
  226MOL0     H31169   6.717   4.200  10.272 -0.0185 -2.3544 -1.5722
  226MOL0     H31170   6.203   4.439  10.529 -3.1350 -3.0347 -1.5472
  226MOL0     H31171   5.999   4.558  10.427  0.2346  1.3224  0.0578
  226MOL0     H31172   4.477   3.943   9.731 -2.3407  0.1481  3.6604
  226MOL0     H31173   4.230   3.888   9.764  2.2192 -2.2937 -0.4310
  226MOL0     H31174   3.856   3.810   9.414 -1.1446  2.2605 -1.4638
  226MOL0     H31175   3.613   3.743   9.363 -1.2898  0.7464  0.1987
  226MOL0     H31176   3.366   3.768   9.695  3.5161  1.2845 -0.7512
  226MOL0     H31177   3.297   3.920   9.651 -3.9317 -1.0820  1.3899
  226MOL0     H31178   3.137   3.836   9.496 -0.2018 -2.0490 -1.5819
  226MOL0     H31179   3.119   3.767   9.667 -1.3568  0.0878 -1.3469
  226MOL0     H31180   3.072   3.584   9.533  1.2606 -3.0718  2.1402
  226MOL0     H31181   3.206   3.608   9.425  1.4325 -2.2117  0.4833
  226MOL0     H31182   3.203   3.530   9.727 -0.2223  2.5097 -0.1632
  226MOL0     H31183   3.349   3.558   9.636 -0.4057  3.8484 -1.9238
  226MOL0     H31184   3.258   3.184   9.500 -2.5978 -1.1860  0.8613
  226MOL0     H31185   3.493   3.982   9.699 -1.2987  1.3165 -1.7779
  226MOL0     H31186   3.807   4.096   9.806 -1.3035 -1.3977  2.2735
  226MOL0     H31187   3.734   4.211   9.687  0.6121  0.0165  0.7172
  226MOL0     H31188   3.637   4.135   9.802 -1.6760  0.6272 -2.3930
  227MOL0     O31189   3.635   8.328   0.410  0.4306 -0.2244 -0.1778
  227MOL0     C31190   3.640   8.230   0.479  0.1917  0.6538 -0.1227
  227MOL0     O31191   3.749   8.203   0.565  0.0252  0.8206  1.0770
  227MOL0     C31192   3.838   8.297   0.596 -1.5151 -0.1394 -0.4082
  227MOL0     C31193   3.926   8.365   0.506 -0.0119  0.2035  0.0238
  227MOL0     C31194   4.033   8.452   0.561  0.5717 -1.4421 -0.4988
  227MOL0     C31195   4.029   8.488   0.693 -1.0646  0.3417 -0.3452
  227MOL0     O31196   4.117   8.587   0.724 -0.1684  0.3050  1.2128
  227MOL0     C31197   4.099   8.687   0.824  0.1627 -0.0499  0.0847
  227MOL0     C31198   4.147   8.642   0.965 -0.1754 -0.3808  0.0725
  227MOL0     C31199   4.263   8.547   0.983  0.2590 -0.6408 -0.1029
  227MOL0     C31200   4.400   8.598   0.917  0.0687  0.4289 -0.6220
  227MOL0     C31201   4.520   8.529   0.982 -0.6869 -0.1172  0.5937
  227MOL0     C31202   4.660   8.566   0.927 -0.3416 -0.2350 -0.3542
  227MOL0     C31203   4.678   8.536   0.783 -0.3069  0.3864 -0.3505
  227MOL0     C31204   4.815   8.570   0.725 -0.2747  0.1570 -0.3126
  227MOL0     N31205   4.915   8.467   0.757 -0.7123 -0.5767 -0.4980
  227MOL0     C31206   5.032   8.481   0.821  0.1935  0.0261 -0.5215
  227MOL0     C31207   5.105   8.363   0.796  0.7183  1.1347  0.0004
  227MOL0     C31208   5.244   8.326   0.847  0.6151 -1.0903 -0.1886
  227MOL0     C31209   5.311   8.205   0.785  0.1069 -0.5811 -0.1062
  227MOL0     C31210   5.356   8.218   0.636 -0.5775 -0.0689 -0.4477
  227MOL0     C31211   5.464   8.117   0.590  0.5473  0.0861 -0.6647
  227MOL0     O31212   5.578   8.127   0.675 -0.2107 -0.6502  0.3040
  227MOL0     C31213   5.659   8.241   0.659 -0.3519  0.3079  0.1578
  227MOL0     C31214   5.766   8.238   0.744  0.4450  0.3381  0.6526
  227MOL0     C31215   5.845   8.349   0.765 -0.2773 -0.0162  0.4104
  227MOL0     C31216   5.958   8.340   0.854  0.4920  0.7728 -0.0600
  227MOL0     C31217   5.822   8.466   0.679  0.9894  0.7144 -0.1323
  227MOL0     C31218   5.888   8.606   0.687 -0.4275  0.2393  0.0352
  227MOL0     O31219   5.827   8.709   0.642  0.0585  0.0054  0.1988
  227MOL0     C31220   5.882   8.834   0.629 -0.6369  0.2563 -0.2645
  227MOL0     C31221   6.003   8.867   0.570  0.2417  0.0099 -0.4455
  227MOL0     C31222   6.041   8.996   0.539  0.2184  1.1762 -1.2212
  227MOL0     C31223   5.952   9.103   0.556 -0.2480  0.3011  0.3069
  227MOL0     O31224   5.962   9.230   0.513 -0.6865 -0.4723 -0.0990
  227MOL0     C31225   6.084   9.273   0.446  0.5947  0.2878 -0.1237
  227MOL0     C31226   6.146   9.378   0.541  0.2547 -0.3323  0.0405
  227MOL0     C31227   6.138   9.347   0.686  0.1449 -0.1565  0.9688
  227MOL0     C31228   6.013   9.400   0.756  0.8440 -0.6203 -0.0159
  227MOL0     C31229   6.001   9.351   0.903 -0.0586  0.9465 -0.4919
  227MOL0     C31230   6.129   9.348   0.978 -0.8255 -0.2728  0.1589
  227MOL0     C31231   6.106   9.306   1.121 -0.0512  0.4363 -0.2840
  227MOL0     C31232   6.229   9.272   1.204 -0.5609  0.5358 -0.1454
  227MOL0    Cl31233   6.311   9.429   1.244  0.0879 -0.2341  0.3309
  227MOL0     C31234   5.830   9.070   0.622 -0.8921 -0.1785 -0.6313
  227MOL0     C31235   5.794   8.941   0.655 -0.0270 -0.3049  0.6092
  227MOL0     O31236   6.004   8.603   0.724 -0.4899 -0.0800  0.0713
  227MOL0     C31237   5.733   8.447   0.579  0.2180  0.2422  0.7601
  227MOL0     C31238   5.645   8.343   0.570 -0.8650  0.6385  0.0227
  227MOL0     N31239   5.024   8.280   0.714  0.0788  0.4121  0.5017
  227MOL0     N31240   4.914   8.347   0.699  0.0977 -0.5296 -0.5553
  227MOL0     C31241   3.948   8.427   0.779 -0.0107 -0.4998 -0.1627
  227MOL0     C31242   3.849   8.336   0.732  0.2882 -0.0620  0.1036
  227MOL0     C31243   3.530   8.128   0.463  0.2448  0.1336  0.1571
  227MOL0     C31244   3.559   7.995   0.472 -0.2263 -0.5654 -0.5397
  227MOL0     C31245   3.454   7.903   0.461  1.2156 -0.6210 -0.4431
  227MOL0     C31246   3.321   7.938   0.435 -0.4037  0.2170 -0.1411
  227MOL0     O31247   3.233   7.836   0.440 -0.4489 -0.0863 -0.1471
  227MOL0     C31248   3.088   7.869   0.448  0.1094  1.0513 -0.9591
  227MOL0     C31249   3.005   7.738   0.454 -0.2225 -0.7062  0.0810
  227MOL0     C31250   3.023   7.631   0.342 -0.4979  0.8035 -0.0825
  227MOL0     C31251   2.959   7.680   0.215  0.2207  0.4445 -0.1949
  227MOL0     C31252   2.814   7.692   0.216  0.5613 -0.0803  0.3264
  227MOL0     C31253   2.691   7.702   0.195 -0.2357 -0.4984 -1.1133
  227MOL0     C31254   3.294   8.063   0.433 -0.4336 -0.9929 -0.4490
  227MOL0     C31255   3.393   8.164   0.452  0.4628  0.1591 -0.3277
  227MOL0     C31256   3.348   8.316   0.461 -0.6730  0.2760 -0.1709
  227MOL0     H31257   3.932   8.340   0.401 -0.3798 -0.0528  0.0636
  227MOL0     H31258   4.089   8.513   0.491 -1.3303  0.7288 -0.2325
  227MOL0     H31259   3.993   8.713   0.834  0.7057  2.5218 -0.1969
  227MOL0     H31260   4.158   8.775   0.796 -0.8578  0.0094 -2.0085
  227MOL0     H31261   4.185   8.726   1.025  4.0212 -2.7321  1.1298
  227MOL0     H31262   4.066   8.596   1.022  0.1624  0.5789  1.4031
  227MOL0     H31263   4.287   8.535   1.089 -1.5289  0.9644  0.5300
  227MOL0     H31264   4.238   8.453   0.933 -0.6213  0.4413 -1.8150
  227MOL0     H31265   4.391   8.593   0.808  1.6677 -3.6876 -0.7463
  227MOL0     H31266   4.415   8.704   0.939  1.3556 -0.4457  3.8450
  227MOL0     H31267   4.504   8.423   0.961 -1.1816  0.2910 -1.2034
  227MOL0     H31268   4.523   8.550   1.090  0.9404 -0.5305  0.6665
  227MOL0     H31269   4.674   8.672   0.949 -1.1049  0.1745 -1.7280
  227MOL0     H31270   4.736   8.512   0.984  0.0790 -2.8936 -3.1884
  227MOL0     H31271   4.600   8.584   0.723  1.4994 -1.1281 -4.2856
  227MOL0     H31272   4.667   8.427   0.780  2.2199 -0.1147  3.1445
  227MOL0     H31273   4.807   8.587   0.617 -0.8669 -3.3176 -0.9136
  227MOL0     H31274   4.848   8.664   0.769 -0.5029 -0.8254  2.0751
  227MOL0     H31275   5.062   8.561   0.888  1.4484 -0.5999 -0.3057
  227MOL0     H31276   5.229   8.320   0.956 -4.7683 -1.9006 -0.7052
  227MOL0     H31277   5.312   8.406   0.817  0.2693 -0.7583 -0.0984
  227MOL0     H31278   5.409   8.193   0.833  0.2763  2.5027  0.5771
  227MOL0     H31279   5.245   8.118   0.791 -1.7410  0.8232  0.8822
  227MOL0     H31280   5.265   8.198   0.579  1.0131  1.3833 -3.8066
  227MOL0     H31281   5.384   8.319   0.607  2.2195 -0.5570  0.2730
  227MOL0     H31282   5.416   8.020   0.603  0.3422  0.4119  1.2478
  227MOL0     H31283   5.501   8.126   0.487  1.5466  0.6273 -0.2712
  227MOL0     H31284   5.785   8.150   0.805 -1.0023 -0.1674  0.4176
  227MOL0     H31285   5.974   8.416   0.932  1.9326  0.9142 -0.4811
  227MOL0     H31286   6.055   8.330   0.805  1.7485 -5.4184  2.6575
  227MOL0     H31287   5.952   8.246   0.910 -0.4294  0.3820 -0.7850
  227MOL0     H31288   6.080   8.796   0.544  2.6039  2.1613  0.2542
  227MOL0     H31289   6.139   9.009   0.495 -0.0752  0.2364 -2.1864
  227MOL0     H31290   6.160   9.195   0.433 -0.9580 -1.6481  1.6840
  227MOL0     H31291   6.049   9.321   0.354 -0.1006 -0.2274 -0.1378
  227MOL0     H31292   6.252   9.395   0.520  0.2699  1.2176  1.2360
  227MOL0     H31293   6.088   9.469   0.530 -0.4697 -0.1831  3.7864
  227MOL0     H31294   6.215   9.401   0.742  0.9915 -1.1587  0.8115
  227MOL0     H31295   6.140   9.241   0.715  1.4693  0.0777  1.8519
  227MOL0     H31296   5.921   9.368   0.706  0.2552  0.1499  0.5586
  227MOL0     H31297   6.028   9.508   0.744  4.9226 -0.8973  0.9106
  227MOL0     H31298   5.930   9.410   0.962 -2.0215 -0.9759 -0.7963
  227MOL0     H31299   5.974   9.245   0.912 -1.4625  1.3188 -0.0485
  227MOL0     H31300   6.172   9.449   0.977 -0.4336 -0.4433 -0.2593
  227MOL0     H31301   6.207   9.289   0.929 -1.4383  0.1865 -1.4503
  227MOL0     H31302   6.047   9.214   1.123 -1.2102  1.1640  0.7639
  227MOL0     H31303   6.052   9.381   1.180 -0.1660 -0.1441  0.3731
  227MOL0     H31304   6.283   9.200   1.141 -2.3072 -1.4195  0.4749
  227MOL0     H31305   6.212   9.217   1.297 -2.1963  1.3394  0.0548
  227MOL0     H31306   5.752   9.146   0.626  0.4355  1.1970  0.2333
  227MOL0     H31307   5.689   8.926   0.681 -0.1852  1.5962  1.2456
  227MOL0     H31308   5.714   8.519   0.500 -0.4971  1.2027  1.7668
  227MOL0     H31309   5.569   8.329   0.493  0.0978 -1.2371 -0.6307
  227MOL0     H31310   3.942   8.451   0.885  1.7670 -0.1645 -0.1058
  227MOL0     H31311   3.781   8.282   0.797  0.8037 -0.6375  0.1833
  227MOL0     H31312   3.658   7.958   0.494 -0.0085 -0.0471 -0.6303
  227MOL0     H31313   3.479   7.800   0.486 -0.1031 -1.2156 -1.4727
  227MOL0     H31314   3.066   7.946   0.522  2.7258 -1.5275  2.8166
  227MOL0     H31315   3.051   7.911   0.353 -2.8608  1.9787  0.4777
  227MOL0     H31316   2.899   7.764   0.442 -1.2399 -3.3852  2.1743
  227MOL0     H31317   3.019   7.689   0.551 -1.7222 -0.8232  0.2639
  227MOL0     H31318   3.131   7.618   0.331 -0.6304  0.1371 -0.5867
  227MOL0     H31319   2.979   7.537   0.376  2.8446 -0.4103  1.3413
  227MOL0     H31320   2.986   7.606   0.138  3.9660  1.4863 -0.0852
  227MOL0     H31321   3.001   7.779   0.198 -2.4082  1.3313 -2.1428
  227MOL0     H31322   2.584   7.707   0.197 -0.1699  1.5838  0.7131
  227MOL0     H31323   3.189   8.088   0.421  0.0699  0.6272 -1.9557
  227MOL0     H31324   3.383   8.375   0.375  2.4293  0.7065  1.2248
  227MOL0     H31325   3.240   8.320   0.471 -0.8690 -1.8269 -0.9449
  227MOL0     H31326   3.394   8.357   0.551 -0.8288 -1.0114  0.5110
  228MOL0     O31327  10.513   4.292   8.055 -0.1088  0.5634  0.3789
  228MOL0     C31328  10.608   4.226   8.016 -0.3636  0.6415  0.3572
  228MOL0     O31329  10.670   4.247   7.895 -0.6946 -0.2714  0.0176
  228MOL0     C31330  10.627   4.314   7.780  0.4595 -0.4374  0.5769
  228MOL0     C31331  10.716   4.329   7.671 -0.2581 -0.9554  0.2059
  228MOL0     C31332  10.674   4.398   7.557  0.3621 -0.3491  0.1156
  228MOL0     C31333  10.543   4.449   7.542 -0.4554  0.2600  0.0015
  228MOL0     O31334  10.492   4.512   7.431  0.7118 -0.4267  0.5377
  228MOL0     C31335  10.578   4.593   7.348 -0.2481  0.9975 -1.5720
  228MOL0     C31336  10.476   4.685   7.268  0.5676 -0.5638  0.1157
  228MOL0     C31337  10.409   4.620   7.143  0.1629  0.0018  0.6626
  228MOL0     C31338  10.272   4.686   7.112  0.3755  0.9355  0.8029
  228MOL0     C31339  10.289   4.829   7.066  0.3040  0.9446  0.0003
  228MOL0     C31340  10.160   4.882   7.027  0.2412 -0.5729 -0.4203
  228MOL0     C31341  10.176   5.011   6.948  0.2482  0.4574  0.2453
  228MOL0     C31342  10.046   5.068   6.884 -0.4216 -0.5791 -0.2959
  228MOL0     N31343   9.936   5.057   6.987  0.0149  0.2227 -0.1358
  228MOL0     C31344   9.828   4.975   6.988  0.4060 -0.2334 -0.6967
  228MOL0     C31345   9.769   5.002   7.103 -0.5246 -0.7219 -0.0966
  228MOL0     C31346   9.665   4.920   7.159 -0.7022  0.3990 -0.3836
  228MOL0     C31347   9.697   4.771   7.140 -0.2000 -0.2077 -0.1577
  228MOL0     C31348   9.827   4.713   7.205 -1.1581 -0.7656  0.0595
  228MOL0     C31349   9.843   4.731   7.362  0.9955 -0.0433  1.7377
  228MOL0     O31350   9.963   4.671   7.414 -0.1479  0.1537  0.2151
  228MOL0     C31351  10.073   4.755   7.439 -0.0394 -1.3367 -0.5571
  228MOL0     C31352  10.093   4.884   7.394  0.2835  0.0408 -0.3211
  228MOL0     C31353  10.199   4.959   7.426 -0.9327 -0.4529  0.2402
  228MOL0     C31354  10.207   5.109   7.364  0.6658  0.5080 -0.2736
  228MOL0     C31355  10.307   4.917   7.512  0.0817  0.3373  0.0453
  228MOL0     C31356  10.430   4.995   7.543  0.5133  0.2824 -0.7412
  228MOL0     O31357  10.510   4.922   7.623  0.0115 -0.4657 -0.4073
  228MOL0     C31358  10.640   4.965   7.652  0.9193 -0.4261 -0.7881
  228MOL0     C31359  10.749   4.887   7.625 -0.4997 -0.7679  0.2220
  228MOL0     C31360  10.877   4.923   7.642  0.1085 -1.1913 -0.9440
  228MOL0     C31361  10.906   5.048   7.710 -0.7952  0.3712  0.5546
  228MOL0     O31362  11.032   5.112   7.717 -0.1530  0.2808 -0.5255
  228MOL0     C31363  11.131   5.085   7.614 -0.4894 -0.1410 -0.4200
  228MOL0     C31364  11.259   5.138   7.680 -0.1510  0.0777 -0.2545
  228MOL0     C31365  11.324   5.062   7.792  0.5260  0.5688 -0.3054
  228MOL0     C31366  11.261   5.037   7.929  0.9806  0.1916  0.9450
  228MOL0     C31367  11.226   5.172   7.999  1.1946  1.2198  0.4959
  228MOL0     C31368  11.209   5.152   8.152 -0.3763 -0.5496 -1.1500
  228MOL0     C31369  11.220   5.289   8.221 -0.2309 -0.4893 -0.7383
  228MOL0     C31370  11.209   5.270   8.372  0.4365  0.7055 -0.1139
  228MOL0    Cl31371  11.358   5.198   8.450  0.3522 -0.9895  0.4884
  228MOL0     C31372  10.791   5.131   7.740 -0.0788  0.5127  0.3758
  228MOL0     C31373  10.658   5.095   7.714 -0.7998  0.3853 -0.6399
  228MOL0     O31374  10.447   5.112   7.507  0.6720  0.4242  0.1724
  228MOL0     C31375  10.280   4.787   7.572  0.3580  0.5537 -0.2903
  228MOL0     C31376  10.169   4.710   7.527  0.1708 -0.2479  0.0656
  228MOL0     N31377   9.839   5.112   7.166  0.0841 -0.5289 -0.3494
  228MOL0     N31378   9.937   5.143   7.085 -0.0302 -0.1857 -0.3311
  228MOL0     C31379  10.454   4.429   7.645  0.7976 -0.9973 -0.2103
  228MOL0     C31380  10.491   4.361   7.762 -0.2024 -0.3601  0.4249
  228MOL0     C31381  10.677   4.119   8.099 -0.0729  0.0552  0.2279
  228MOL0     C31382  10.800   4.062   8.044 -0.5052 -0.3906  0.1795
  228MOL0     C31383  10.874   3.974   8.121 -0.0083  0.8076  0.6532
  228MOL0     C31384  10.831   3.927   8.244 -0.6437  0.7456 -0.5124
  228MOL0     O31385  10.900   3.840   8.328 -0.0001 -0.1513 -0.6164
  228MOL0     C31386  11.036   3.812   8.287 -0.6395  0.4340  0.8970
  228MOL0     C31387  11.040   3.657   8.254 -0.2759  0.3035  0.5530
  228MOL0     C31388  10.963   3.562   8.348 -0.7404 -0.2150 -1.3098
  228MOL0     C31389  11.057   3.503   8.458  0.7944  0.4778  0.5585
  228MOL0     C31390  11.125   3.606   8.545 -0.1518  0.2559  1.0514
  228MOL0     C31391  11.176   3.695   8.616 -0.4236 -0.0373  0.3599
  228MOL0     C31392  10.705   3.972   8.287 -0.2531 -0.1020 -0.1666
  228MOL0     C31393  10.632   4.072   8.223 -0.2293  0.7882 -0.3173
  228MOL0     C31394  10.500   4.095   8.292  0.1417 -0.8744  0.4402
  228MOL0     H31395  10.820   4.299   7.677 -0.0117  0.0960  1.8211
  228MOL0     H31396  10.752   4.417   7.484  1.3080 -2.9286  0.3616
  228MOL0     H31397  10.639   4.543   7.272  1.2800 -1.0354  0.8145
  228MOL0     H31398  10.656   4.630   7.415  1.0204 -3.6870 -0.0683
  228MOL0     H31399  10.396   4.716   7.336 -0.5054 -0.4905 -1.1377
  228MOL0     H31400  10.528   4.773   7.227  1.5368 -1.3128 -0.3064
  228MOL0     H31401  10.481   4.637   7.062 -0.2273 -1.3235  0.0221
  228MOL0     H31402  10.382   4.516   7.159 -3.5921  1.0604  2.3406
  228MOL0     H31403  10.235   4.633   7.024 -1.1025  2.5198  0.4317
  228MOL0     H31404  10.208   4.653   7.195 -0.4360 -0.2483 -0.2481
  228MOL0     H31405  10.362   4.834   6.985  0.6273 -0.2017  0.2047
  228MOL0     H31406  10.325   4.881   7.155  2.0080 -1.5221  0.8612
  228MOL0     H31407  10.105   4.809   6.968 -0.9534 -0.1495  0.1379
  228MOL0     H31408  10.101   4.904   7.117  2.5928  1.4560  0.7553
  228MOL0     H31409  10.248   4.996   6.866 -0.8014  1.7948 -0.9648
  228MOL0     H31410  10.225   5.084   7.013 -1.4815  2.4136 -0.5362
  228MOL0     H31411  10.051   5.171   6.847 -3.4742  0.1458  1.0191
  228MOL0     H31412  10.012   5.004   6.802 -3.3159 -0.0744  0.3973
  228MOL0     H31413   9.800   4.907   6.908  1.0871 -1.3328 -0.0373
  228MOL0     H31414   9.567   4.955   7.125 -1.6631 -0.9347  0.8985
  228MOL0     H31415   9.660   4.944   7.266  0.1515  1.3415 -0.5333
  228MOL0     H31416   9.613   4.718   7.186  2.3163 -3.9787  0.5753
  228MOL0     H31417   9.692   4.741   7.035  1.9258  0.3528 -0.4723
  228MOL0     H31418   9.841   4.606   7.187  0.6249 -1.1550  3.1492
  228MOL0     H31419   9.906   4.760   7.146 -2.7973  1.3085 -0.6315
  228MOL0     H31420   9.831   4.838   7.380 -0.7277 -0.4506  3.2971
  228MOL0     H31421   9.752   4.690   7.406  0.2724 -0.6235 -0.2002
  228MOL0     H31422  10.007   4.927   7.344  0.1537  0.8381  0.5498
  228MOL0     H31423  10.292   5.120   7.296 -0.7789 -0.6911 -2.3894
  228MOL0     H31424  10.222   5.175   7.450 -2.3681  0.0296  0.7249
  228MOL0     H31425  10.113   5.136   7.316  0.7563 -0.4665 -1.0318
  228MOL0     H31426  10.731   4.788   7.583 -3.3247  0.2565 -1.2273
  228MOL0     H31427  10.964   4.859   7.630  1.5612  0.5883 -0.4214
  228MOL0     H31428  11.141   4.981   7.581  0.6412 -0.7105  1.5105
  228MOL0     H31429  11.108   5.147   7.527 -1.9029  1.4016  0.9744
  228MOL0     H31430  11.329   5.130   7.597 -0.1064 -0.4580 -0.1691
  228MOL0     H31431  11.254   5.244   7.709  1.1120 -0.8443  4.0688
  228MOL0     H31432  11.421   5.108   7.811  0.7314  0.5101 -1.1776
  228MOL0     H31433  11.341   4.962   7.751 -0.4828  0.0724  0.4450
  228MOL0     H31434  11.314   4.968   7.995  2.0808 -1.1045 -1.2002
  228MOL0     H31435  11.171   4.975   7.918  0.3202  0.1464  5.1181
  228MOL0     H31436  11.312   5.237   7.979  1.4466  0.7347 -0.0419
  228MOL0     H31437  11.138   5.213   7.948  1.9595  3.0541  0.5835
  228MOL0     H31438  11.282   5.081   8.191 -0.8694  0.7875  2.6655
  228MOL0     H31439  11.109   5.112   8.170 -0.2699 -0.1978  0.4129
  228MOL0     H31440  11.142   5.353   8.179  0.9248  0.8932 -0.8871
  228MOL0     H31441  11.319   5.336   8.213  2.2512 -4.9910  0.4834
  228MOL0     H31442  11.124   5.203   8.387 -0.5130  1.2395 -2.6533
  228MOL0     H31443  11.197   5.369   8.416 -2.3810 -0.5789  2.3649
  228MOL0     H31444  10.807   5.227   7.787 -1.4301  0.2801  1.3622
  228MOL0     H31445  10.566   5.142   7.746 -0.6154  0.3826 -0.1090
  228MOL0     H31446  10.346   4.747   7.649  1.0922  0.9902 -0.6798
  228MOL0     H31447  10.162   4.615   7.578  2.0487 -0.1777  0.5168
  228MOL0     H31448  10.353   4.468   7.636  1.8394  2.3051  1.0801
  228MOL0     H31449  10.422   4.352   7.845 -1.7566  1.1137 -0.6463
  228MOL0     H31450  10.840   4.092   7.948 -2.6322  1.7957 -0.1203
  228MOL0     H31451  10.962   3.951   8.062 -1.2892 -2.0778 -0.3677
  228MOL0     H31452  11.082   3.877   8.212  1.2945 -1.6231  0.1806
  228MOL0     H31453  11.105   3.821   8.371  0.3126 -2.6909  0.5816
  228MOL0     H31454  11.146   3.630   8.247 -0.2328  0.7549 -1.1967
  228MOL0     H31455  10.999   3.643   8.153 -0.4511 -0.9210  0.7808
  228MOL0     H31456  10.882   3.617   8.397  0.7958 -1.2260  2.7839
  228MOL0     H31457  10.923   3.480   8.287 -2.2485 -0.7849  0.3349
  228MOL0     H31458  11.132   3.434   8.417  1.0232  0.1411  1.5198
  228MOL0     H31459  11.001   3.433   8.521  1.2523 -1.3795 -0.9957
  228MOL0     H31460  11.221   3.752   8.695  1.5780  0.5044 -1.1041
  228MOL0     H31461  10.678   3.943   8.388 -0.2278  0.4617  0.0080
  228MOL0     H31462  10.505   4.178   8.364  2.3954  0.7122 -1.4184
  228MOL0     H31463  10.433   4.136   8.216 -0.2404  0.5119  1.4774
  228MOL0     H31464  10.464   4.006   8.344  0.0123 -0.7712  0.5315
  229MOL0     O31465   7.937   0.429   1.429 -0.4237 -0.3275 -0.8374
  229MOL0     C31466   7.834   0.493   1.398  0.3356 -0.4421 -0.6591
  229MOL0     O31467   7.832   0.605   1.319 -0.1501 -0.1932 -0.0815
  229MOL0     C31468   7.946   0.629   1.252  0.5808  0.2860  0.5136
  229MOL0     C31469   7.978   0.549   1.134  0.5986  0.1525 -0.5894
  229MOL0     C31470   8.097   0.575   1.063  0.2648  0.1198  0.1364
  229MOL0     C31471   8.169   0.695   1.089 -0.0012 -0.7157  0.1580
  229MOL0     O31472   8.285   0.733   1.016  0.6343 -0.2994  0.3733
  229MOL0     C31473   8.268   0.857   0.950 -0.2250 -1.0742  0.0517
  229MOL0     C31474   8.377   0.955   0.981  0.8806  0.2021  0.1267
  229MOL0     C31475   8.328   1.099   0.978  0.2279  0.8952 -0.2837
  229MOL0     C31476   8.440   1.203   0.984 -0.6629  0.5365 -1.1230
  229MOL0     C31477   8.543   1.190   0.875  0.3570  0.4610  0.0832
  229MOL0     C31478   8.615   1.321   0.843 -0.1613  0.7726 -0.9325
  229MOL0     C31479   8.721   1.324   0.729 -0.0982  0.9845 -1.2131
  229MOL0     C31480   8.820   1.214   0.742  0.2770  0.2747 -0.1546
  229MOL0     N31481   8.933   1.243   0.650 -0.0472  0.3513  0.1654
  229MOL0     C31482   8.930   1.236   0.510 -0.6293  0.2603 -0.2203
  229MOL0     C31483   9.046   1.298   0.472 -0.1470  0.7766 -0.0269
  229MOL0     C31484   9.094   1.321   0.336  0.1527 -0.3766 -0.3949
  229MOL0     C31485   9.202   1.432   0.330  0.8413 -0.1850 -0.7425
  229MOL0     C31486   9.259   1.446   0.191 -0.2390  0.1778  0.0712
  229MOL0     C31487   9.348   1.563   0.180 -0.8746  0.3947 -1.0632
  229MOL0     O31488   9.374   1.574   0.042 -0.0960 -0.0767  0.5471
  229MOL0     C31489   9.437   1.690  -0.010  0.2731 -0.2235  0.3689
  229MOL0     C31490   9.447   1.714  -0.147 -0.6588  0.1895  0.2321
  229MOL0     C31491   9.507   1.825  -0.207 -1.0497 -0.4772 -0.9314
  229MOL0     C31492   9.547   1.817  -0.355 -0.1373  0.6204  0.3391
  229MOL0     C31493   9.554   1.928  -0.126 -0.1760  0.0132 -0.2238
  229MOL0     C31494   9.625   2.044  -0.163 -0.0376 -1.2343  0.7470
  229MOL0     O31495   9.582   2.092  -0.289  0.1544 -0.4525  0.1550
  229MOL0     C31496   9.662   2.171  -0.367 -0.1117 -0.2534  0.2050
  229MOL0     C31497   9.653   2.155  -0.504 -0.0447 -0.0770 -0.0420
  229MOL0     C31498   9.719   2.238  -0.597  0.0059  0.9839 -0.1469
  229MOL0     C31499   9.799   2.341  -0.551 -0.3889  0.2911  0.6273
  229MOL0     O31500   9.875   2.423  -0.628 -0.2537 -0.0370  0.2877
  229MOL0     C31501   9.828   2.440  -0.764 -0.5235  0.2434 -0.8810
  229MOL0     C31502   9.897   2.562  -0.818 -0.1971 -0.7022  0.3879
  229MOL0     C31503   9.839   2.689  -0.752 -0.1152  0.1444 -0.2555
  229MOL0     C31504   9.862   2.824  -0.799  0.2755  0.6288 -0.3891
  229MOL0     C31505  10.005   2.859  -0.759 -0.3042  1.0043  0.5792
  229MOL0     C31506  10.054   2.968  -0.855 -0.0572 -0.4157  0.6429
  229MOL0     C31507  10.187   2.998  -0.791  0.3820 -0.1856 -0.2620
  229MOL0     C31508  10.252   3.102  -0.876 -1.0858 -0.6377  0.4036
  229MOL0    Cl31509  10.376   3.173  -0.769 -0.4719 -0.3309  0.1813
  229MOL0     C31510   9.801   2.375  -0.413  0.4025 -0.1974 -0.2556
  229MOL0     C31511   9.736   2.290  -0.326  0.4874  0.0850  0.4479
  229MOL0     O31512   9.709   2.101  -0.090 -0.2658  0.1669  0.3007
  229MOL0     C31513   9.535   1.914   0.012  0.1760  0.2544  0.1358
  229MOL0     C31514   9.481   1.795   0.064  1.0701 -0.3986  0.0720
  229MOL0     N31515   9.118   1.332   0.585 -0.3853  0.3559 -0.4124
  229MOL0     N31516   9.049   1.309   0.692 -0.3778 -0.5611  0.0422
  229MOL0     C31517   8.128   0.777   1.193  0.4963 -0.5423  0.4270
  229MOL0     C31518   8.024   0.741   1.281  0.7982 -0.0956 -0.4071
  229MOL0     C31519   7.708   0.434   1.429  0.1015 -0.2478  0.7840
  229MOL0     C31520   7.610   0.456   1.331 -0.7757 -0.0180  1.1039
  229MOL0     C31521   7.475   0.423   1.351 -0.0443  0.6750 -0.2336
  229MOL0     C31522   7.447   0.359   1.474  0.9340 -0.0897  0.6082
  229MOL0     O31523   7.328   0.295   1.503  0.0027 -0.3359 -0.2737
  229MOL0     C31524   7.209   0.342   1.430  0.2235 -0.0628 -1.0797
  229MOL0     C31525   7.082   0.265   1.482 -0.2952 -0.5862 -0.0223
  229MOL0     C31526   6.956   0.324   1.419 -0.9280  0.0823  0.6808
  229MOL0     C31527   6.824   0.279   1.486  0.4804 -0.2847 -0.7866
  229MOL0     C31528   6.773   0.355   1.601 -0.4632  0.0527  0.1616
  229MOL0     C31529   6.724   0.412   1.692  0.1513  0.3990  0.1024
  229MOL0     C31530   7.542   0.327   1.565 -1.0222 -0.0995  0.1025
  229MOL0     C31531   7.683   0.356   1.549  0.0160 -0.5000  0.2888
  229MOL0     C31532   7.788   0.314   1.650  0.0987 -0.5873  0.7558
  229MOL0     H31533   7.910   0.468   1.109 -1.7954 -0.1147  5.1165
  229MOL0     H31534   8.129   0.519   0.976  1.0995  1.7680 -0.6551
  229MOL0     H31535   8.169   0.900   0.966 -0.4240 -1.3030 -0.5466
  229MOL0     H31536   8.275   0.831   0.844 -0.8617 -0.6665 -0.0971
  229MOL0     H31537   8.431   0.933   1.073  1.0909  0.8756  0.1768
  229MOL0     H31538   8.445   0.949   0.895 -0.0791 -0.1598 -0.6176
  229MOL0     H31539   8.273   1.123   0.886 -0.0180 -1.0413 -0.6868
  229MOL0     H31540   8.268   1.119   1.067 -1.2613 -0.7397 -0.8626
  229MOL0     H31541   8.393   1.301   0.969 -2.5662  0.0578  1.2078
  229MOL0     H31542   8.484   1.205   1.084  0.1108 -1.3575 -1.3984
  229MOL0     H31543   8.490   1.152   0.788  0.7914 -0.8380  0.3627
  229MOL0     H31544   8.624   1.125   0.909 -1.2893 -0.0184  3.5389
  229MOL0     H31545   8.541   1.399   0.822 -0.5101  0.4205 -1.0129
  229MOL0     H31546   8.672   1.343   0.934 -1.8376 -1.7215  0.8342
  229MOL0     H31547   8.779   1.417   0.740  0.1894  0.5739  1.3468
  229MOL0     H31548   8.666   1.328   0.634 -2.5585 -2.1447 -0.0694
  229MOL0     H31549   8.842   1.192   0.847 -0.8450 -0.7065 -0.1070
  229MOL0     H31550   8.766   1.125   0.709  1.6937 -0.5858 -0.2085
  229MOL0     H31551   8.869   1.179   0.441  2.1465 -0.3862 -2.3364
  229MOL0     H31552   9.020   1.342   0.258  0.2109  0.6853 -0.1914
  229MOL0     H31553   9.135   1.227   0.301 -2.1712 -0.9085 -1.9146
  229MOL0     H31554   9.153   1.525   0.362 -1.1147 -1.8283  1.3263
  229MOL0     H31555   9.284   1.407   0.398  0.1092 -1.6360 -0.3583
  229MOL0     H31556   9.313   1.357   0.156 -0.9258 -1.0598  1.9815
  229MOL0     H31557   9.177   1.452   0.119  0.7138  1.4394 -0.9581
  229MOL0     H31558   9.307   1.659   0.211  2.7821  1.5146  0.9130
  229MOL0     H31559   9.434   1.554   0.247  0.0961 -2.2461 -2.4924
  229MOL0     H31560   9.423   1.641  -0.223  1.1651  1.3559 -1.5464
  229MOL0     H31561   9.654   1.797  -0.370 -0.6123 -1.1734 -1.0425
  229MOL0     H31562   9.496   1.889  -0.418 -0.0836 -1.5162 -2.3226
  229MOL0     H31563   9.500   1.724  -0.388 -0.9485  1.1869 -0.1296
  229MOL0     H31564   9.599   2.069  -0.540  0.1057  0.2294 -1.0360
  229MOL0     H31565   9.706   2.196  -0.696  0.1256  0.2211  0.1464
  229MOL0     H31566   9.852   2.352  -0.824 -0.9231 -0.6125  0.1735
  229MOL0     H31567   9.720   2.458  -0.769 -0.5907  0.4225  0.6241
  229MOL0     H31568  10.004   2.553  -0.796 -1.1078 -0.8238  6.2843
  229MOL0     H31569   9.885   2.576  -0.926  0.2870 -2.2101  0.1267
  229MOL0     H31570   9.858   2.686  -0.645  0.4268  2.1719 -0.2546
  229MOL0     H31571   9.730   2.681  -0.764 -0.3240  4.5133 -3.8934
  229MOL0     H31572   9.796   2.903  -0.762 -0.3276 -0.0776  0.0608
  229MOL0     H31573   9.858   2.830  -0.908  0.7780 -2.5012 -0.6707
  229MOL0     H31574  10.002   2.894  -0.656  0.7783  1.1797  0.5618
  229MOL0     H31575  10.073   2.774  -0.770  0.2218  1.5384 -0.5291
  229MOL0     H31576   9.988   3.055  -0.859 -0.4982 -0.7817 -1.7622
  229MOL0     H31577  10.065   2.925  -0.956  3.8273 -0.2697  0.8747
  229MOL0     H31578  10.245   2.905  -0.783 -0.5817 -0.8472 -0.7415
  229MOL0     H31579  10.171   3.028  -0.687  2.4893  1.1295 -0.2431
  229MOL0     H31580  10.187   3.178  -0.921  0.4634 -0.9541 -2.7061
  229MOL0     H31581  10.305   3.054  -0.959 -3.6777 -1.7572 -0.7025
  229MOL0     H31582   9.857   2.463  -0.386  2.8328 -0.9824 -2.3650
  229MOL0     H31583   9.731   2.334  -0.227 -0.8405  0.2264  0.3421
  229MOL0     H31584   9.577   1.979   0.088  0.9998  1.7082 -1.4988
  229MOL0     H31585   9.477   1.788   0.172  2.1501 -0.4361  0.1145
  229MOL0     H31586   8.170   0.876   1.208 -4.6481  1.8516  1.0294
  229MOL0     H31587   7.991   0.800   1.365  0.0045  0.7752 -1.2999
  229MOL0     H31588   7.637   0.500   1.235 -2.0748  0.2285  0.8423
  229MOL0     H31589   7.406   0.445   1.270 -1.7107  0.0027  0.9542
  229MOL0     H31590   7.182   0.446   1.451 -2.0812 -0.4834 -1.6733
  229MOL0     H31591   7.219   0.329   1.322 -0.1743 -2.6847 -0.8657
  229MOL0     H31592   7.082   0.275   1.591 -0.8563 -0.0295 -0.0671
  229MOL0     H31593   7.097   0.161   1.452  3.3573 -0.5235  1.1674
  229MOL0     H31594   6.961   0.432   1.407 -0.0163  0.0848  1.0580
  229MOL0     H31595   6.956   0.275   1.321  2.3089  0.3690  0.4389
  229MOL0     H31596   6.827   0.172   1.510  0.6623  0.4589  3.0521
  229MOL0     H31597   6.740   0.283   1.416 -0.1683 -1.2737 -0.0848
  229MOL0     H31598   6.679   0.473   1.767 -0.0984  0.2574  0.0672
  229MOL0     H31599   7.515   0.271   1.654 -0.5243 -0.5163  0.0004
  229MOL0     H31600   7.870   0.257   1.604 -1.5456 -1.6332 -1.0241
  229MOL0     H31601   7.827   0.409   1.688  1.3040  0.3409 -2.4460
  229MOL0     H31602   7.735   0.246   1.717 -0.8259 -0.9937 -0.3620
  230MOL0     O31603   6.891   1.862   4.163 -0.4287  0.0266 -0.5578
  230MOL0     C31604   6.879   1.802   4.050  0.2877 -0.0849 -0.4583
  230MOL0     O31605   6.980   1.744   3.988  1.0196  0.4397 -0.1504
  230MOL0     C31606   7.101   1.710   4.047 -0.5298  0.2623 -0.5692
  230MOL0     C31607   7.197   1.809   4.079  0.1207  0.7382 -0.2349
  230MOL0     C31608   7.322   1.767   4.133  0.4527  0.1963  0.5296
  230MOL0     C31609   7.347   1.633   4.147 -0.4972 -0.1320  0.6288
  230MOL0     O31610   7.461   1.601   4.213 -0.3197  0.1273 -0.5026
  230MOL0     C31611   7.518   1.469   4.197  0.1514 -0.4229 -0.6679
  230MOL0     C31612   7.655   1.477   4.256  0.6390 -0.3534  0.4969
  230MOL0     C31613   7.741   1.576   4.173 -0.6321 -0.4675 -0.3435
  230MOL0     C31614   7.877   1.521   4.120  1.1561  0.2096 -0.2245
  230MOL0     C31615   7.872   1.418   3.997 -0.4000 -0.3588  0.2597
  230MOL0     C31616   8.012   1.386   3.959 -0.8409 -0.3157 -0.8813
  230MOL0     C31617   8.091   1.308   4.064  0.9549  0.2740 -0.1535
  230MOL0     C31618   8.198   1.210   4.008  0.1233  0.3849  0.5585
  230MOL0     N31619   8.129   1.089   3.953  0.9361  0.1095 -0.2223
  230MOL0     C31620   8.128   0.961   4.014 -0.4772  0.8751 -0.5917
  230MOL0     C31621   8.028   0.895   3.954 -0.3056 -0.2016  0.8840
  230MOL0     C31622   7.987   0.753   3.974  0.0685 -0.0786  0.8154
  230MOL0     C31623   7.900   0.688   3.868 -0.0581  0.3200 -0.5371
  230MOL0     C31624   7.961   0.680   3.726 -0.0135 -0.8034  0.0513
  230MOL0     C31625   8.109   0.646   3.710  0.0137  0.4389  0.5905
  230MOL0     O31626   8.131   0.509   3.755  0.2744 -0.4180  0.1195
  230MOL0     C31627   8.256   0.457   3.734 -0.0918  1.0239  0.7606
  230MOL0     C31628   8.283   0.326   3.774 -0.6350  1.1858  0.5798
  230MOL0     C31629   8.405   0.259   3.762 -0.1572 -0.2252 -0.3181
  230MOL0     C31630   8.410   0.115   3.815  0.0547  0.2825 -0.2881
  230MOL0     C31631   8.502   0.327   3.682  0.0053 -0.6734  0.0391
  230MOL0     C31632   8.626   0.264   3.638  0.8145  0.0411  0.2208
  230MOL0     O31633   8.630   0.125   3.629  1.1278 -0.3184  0.3721
  230MOL0     C31634   8.732   0.066   3.561 -0.2116 -0.5442 -1.3164
  230MOL0     C31635   8.794   0.111   3.450  0.2714  0.1973  0.7568
  230MOL0     C31636   8.913   0.050   3.406 -0.3666  0.3311  0.6572
  230MOL0     C31637   8.947  -0.074   3.445 -0.2507  0.3041 -0.2838
  230MOL0     O31638   9.062  -0.145   3.401  0.5466 -0.9106  0.5782
  230MOL0     C31639   9.109  -0.109   3.268 -0.1314  0.6508 -0.2204
  230MOL0     C31640   9.216  -0.215   3.220  0.7150 -0.1466 -0.7059
  230MOL0     C31641   9.258  -0.189   3.079  0.5718  0.1212 -0.2538
  230MOL0     C31642   9.349  -0.304   3.028 -1.1723 -0.2959 -0.0424
  230MOL0     C31643   9.433  -0.275   2.898 -0.1260 -0.0877  0.3566
  230MOL0     C31644   9.536  -0.376   2.871 -0.5604 -0.2089 -0.8066
  230MOL0     C31645   9.639  -0.343   2.765 -0.3693  0.1885 -1.1939
  230MOL0     C31646   9.581  -0.316   2.628  1.1357 -0.0619  0.3342
  230MOL0    Cl31647   9.480  -0.444   2.568 -0.3780  0.3178 -0.4782
  230MOL0     C31648   8.878  -0.130   3.551  1.2836  0.2155  0.6153
  230MOL0     C31649   8.766  -0.062   3.608 -1.1399 -1.2051 -0.1329
  230MOL0     O31650   8.718   0.338   3.617 -0.3973 -0.1077 -0.4586
  230MOL0     C31651   8.473   0.464   3.644 -0.5080 -0.6639  0.6335
  230MOL0     C31652   8.368   0.527   3.684  1.2169 -0.4559 -0.4012
  230MOL0     N31653   7.972   0.979   3.861  0.4428 -0.5457  0.2179
  230MOL0     N31654   8.036   1.095   3.857  0.0152 -0.1985 -0.5412
  230MOL0     C31655   7.251   1.539   4.104  0.3450  0.0065 -0.6577
  230MOL0     C31656   7.127   1.573   4.061  0.3559 -0.3229  0.7997
  230MOL0     C31657   6.739   1.804   3.984  0.4305 -0.2167  0.3121
  230MOL0     C31658   6.628   1.837   4.064  0.1098 -0.3734  0.0782
  230MOL0     C31659   6.501   1.821   4.021 -0.8021  0.4135 -0.0575
  230MOL0     C31660   6.468   1.785   3.883 -0.2085 -0.6127  0.2659
  230MOL0     O31661   6.354   1.785   3.818 -0.2884  0.3358  0.0258
  230MOL0     C31662   6.236   1.830   3.886  0.2001  0.6115  0.7117
  230MOL0     C31663   6.121   1.873   3.799 -0.4952 -0.1822 -0.5406
  230MOL0     C31664   5.986   1.898   3.886 -0.3415  0.0719 -0.8845
  230MOL0     C31665   5.887   1.806   3.827  0.1685 -0.7245  0.2007
  230MOL0     C31666   5.830   1.860   3.706 -0.0581 -0.3182 -0.2905
  230MOL0     C31667   5.783   1.910   3.606  0.2892 -0.3271 -0.6866
  230MOL0     C31668   6.574   1.760   3.805  0.3433 -0.1042  0.5206
  230MOL0     C31669   6.711   1.768   3.853 -0.2820  0.0106  0.3850
  230MOL0     C31670   6.826   1.742   3.753 -0.6310  0.1751 -0.1076
  230MOL0     H31671   7.183   1.915   4.058  2.9028  1.0358 -1.0882
  230MOL0     H31672   7.391   1.847   4.155  0.7003  0.9572 -2.6779
  230MOL0     H31673   7.523   1.434   4.094 -0.5119  1.0042 -1.2132
  230MOL0     H31674   7.458   1.403   4.260 -3.6939 -0.7108 -4.2181
  230MOL0     H31675   7.654   1.501   4.362  2.4461 -1.1761  0.7420
  230MOL0     H31676   7.692   1.375   4.241  0.4531 -0.1844 -1.3966
  230MOL0     H31677   7.679   1.601   4.087 -0.6906 -0.6222 -0.3462
  230MOL0     H31678   7.762   1.669   4.228 -1.5645  1.2949 -2.7862
  230MOL0     H31679   7.944   1.604   4.095 -0.4023  1.1445 -1.5564
  230MOL0     H31680   7.929   1.476   4.204  0.1968  2.9211  1.9617
  230MOL0     H31681   7.818   1.473   3.921 -1.0001  2.3537  2.4845
  230MOL0     H31682   7.816   1.325   4.014 -1.3891  0.0555 -0.6676
  230MOL0     H31683   8.004   1.329   3.866 -2.3019 -0.7211 -0.5393
  230MOL0     H31684   8.060   1.476   3.921  1.6306 -1.7466 -1.3484
  230MOL0     H31685   8.031   1.242   4.127  2.1404  0.8379  1.6293
  230MOL0     H31686   8.143   1.373   4.135  2.9091 -0.7243 -0.5985
  230MOL0     H31687   8.249   1.269   3.930  0.7289 -1.1393 -0.2409
  230MOL0     H31688   8.263   1.170   4.086 -0.3651  0.0245  0.7798
  230MOL0     H31689   8.200   0.924   4.087 -1.1753  2.8994  1.2268
  230MOL0     H31690   7.942   0.734   4.072  2.3240 -3.7126  1.3667
  230MOL0     H31691   8.081   0.696   3.970 -0.4757 -0.9184 -0.4475
  230MOL0     H31692   7.878   0.587   3.906 -0.1626  0.9044  1.0507
  230MOL0     H31693   7.800   0.733   3.877  0.7492  1.9004  0.9173
  230MOL0     H31694   7.908   0.605   3.666 -2.6538  0.8361  0.1946
  230MOL0     H31695   7.943   0.776   3.678  0.3175 -0.5999  0.3259
  230MOL0     H31696   8.144   0.663   3.608  0.6996  1.3562  0.9634
  230MOL0     H31697   8.178   0.718   3.755  1.9521 -0.6650 -0.4431
  230MOL0     H31698   8.198   0.268   3.809  0.1672 -0.0153  0.5707
  230MOL0     H31699   8.397   0.043   3.733 -3.4746 -1.3319  1.4630
  230MOL0     H31700   8.322   0.101   3.879 -0.9580  1.8675 -1.2838
  230MOL0     H31701   8.499   0.088   3.873  0.0432  0.1625 -0.3246
  230MOL0     H31702   8.756   0.203   3.407  0.7568  0.1354  0.1811
  230MOL0     H31703   8.956   0.088   3.314 -3.0391 -4.6013 -3.1554
  230MOL0     H31704   9.026  -0.104   3.196  0.4418 -0.2505 -0.9677
  230MOL0     H31705   9.162  -0.014   3.274 -0.0618  0.5051  3.3972
  230MOL0     H31706   9.302  -0.227   3.287  0.0895 -1.4448 -0.0789
  230MOL0     H31707   9.162  -0.310   3.223 -1.9230  1.2705  0.1206
  230MOL0     H31708   9.319  -0.099   3.078 -1.1621  1.3437 -0.3925
  230MOL0     H31709   9.173  -0.165   3.014 -0.6787  1.7241  1.8385
  230MOL0     H31710   9.299  -0.401   3.019  0.5650 -1.3134  0.6220
  230MOL0     H31711   9.425  -0.323   3.104  0.4851 -3.1822 -2.1991
  230MOL0     H31712   9.361  -0.269   2.815 -2.4728  1.0304  2.3454
  230MOL0     H31713   9.485  -0.179   2.904 -1.5630  0.6683  1.2925
  230MOL0     H31714   9.485  -0.468   2.842  3.1174 -2.6555 -0.2454
  230MOL0     H31715   9.590  -0.387   2.966 -0.8103  4.2423  0.0829
  230MOL0     H31716   9.699  -0.434   2.752 -0.2928  0.0397  0.1503
  230MOL0     H31717   9.695  -0.256   2.799  2.0774 -0.7504 -2.4771
  230MOL0     H31718   9.654  -0.313   2.547 -2.2512 -0.4423 -2.9834
  230MOL0     H31719   9.524  -0.222   2.628  0.3351 -0.5322 -0.5683
  230MOL0     H31720   8.905  -0.230   3.586  2.6621  0.9915  1.8830
  230MOL0     H31721   8.711  -0.100   3.693 -0.4806  1.5510  1.6501
  230MOL0     H31722   8.556   0.516   3.597 -0.0266 -0.9728  1.1153
  230MOL0     H31723   8.367   0.635   3.676 -0.3227 -0.1876  2.1706
  230MOL0     H31724   7.273   1.435   4.127 -1.2441 -0.8427 -2.6883
  230MOL0     H31725   7.067   1.488   4.030 -0.3491  0.0278  1.1892
  230MOL0     H31726   6.632   1.868   4.168  0.4801  1.1507 -0.3628
  230MOL0     H31727   6.425   1.838   4.097 -0.1304 -1.0084  0.9730
  230MOL0     H31728   6.201   1.741   3.938 -2.2336  0.5160 -0.9235
  230MOL0     H31729   6.253   1.909   3.960  0.0111  0.5697  0.7980
  230MOL0     H31730   6.109   1.800   3.718 -3.0650  2.4015 -2.7012
  230MOL0     H31731   6.139   1.969   3.751 -0.0100 -0.3382 -0.6776
  230MOL0     H31732   6.005   1.872   3.991  1.1079 -1.1982 -1.4136
  230MOL0     H31733   5.943   1.998   3.882 -3.1561 -1.0271 -0.2380
  230MOL0     H31734   5.809   1.784   3.901  2.2751  0.6551  3.0288
  230MOL0     H31735   5.935   1.710   3.809  1.3399  0.2696 -2.4196
  230MOL0     H31736   5.742   1.959   3.519  3.2565 -0.0432 -2.0407
  230MOL0     H31737   6.557   1.747   3.698 -0.6372  0.7925  0.5436
  230MOL0     H31738   6.789   1.719   3.653  1.9605 -4.5949 -0.2890
  230MOL0     H31739   6.900   1.822   3.764  0.9224 -1.3381  1.2431
  230MOL0     H31740   6.887   1.652   3.771 -0.9280 -0.3133 -1.4507
  231MOL0     O31741   5.589   2.728   6.630  0.1611 -0.0064  0.3328
  231MOL0     C31742   5.601   2.607   6.665 -0.3654  0.0765  0.2231
  231MOL0     O31743   5.522   2.542   6.757  0.4157  0.2005 -0.1011
  231MOL0     C31744   5.428   2.618   6.823 -0.3794  1.0074  0.9654
  231MOL0     C31745   5.293   2.582   6.794  0.2247 -0.6998  0.1608
  231MOL0     C31746   5.196   2.651   6.868 -0.2889  0.3260  0.5290
  231MOL0     C31747   5.222   2.750   6.953 -0.0221 -0.7209 -0.0004
  231MOL0     O31748   5.129   2.829   7.021  0.0691 -0.0510 -0.1103
  231MOL0     C31749   4.988   2.823   6.991 -0.3433  0.1074  0.6121
  231MOL0     C31750   4.916   2.946   7.038 -0.1838  0.4521 -0.0038
  231MOL0     C31751   4.928   2.966   7.189 -0.5117  0.1463 -0.2833
  231MOL0     C31752   4.801   3.026   7.246  0.2489 -0.3239 -0.0756
  231MOL0     C31753   4.824   3.069   7.400 -0.4578 -0.3447  0.5226
  231MOL0     C31754   4.927   3.182   7.403  0.1440 -0.5777 -0.6716
  231MOL0     C31755   4.936   3.249   7.538  0.8195 -0.3543 -0.5538
  231MOL0     C31756   5.007   3.381   7.524  0.6406 -0.0241  0.0232
  231MOL0     N31757   4.984   3.461   7.641  0.4122 -0.7117 -0.0792
  231MOL0     C31758   4.898   3.568   7.642 -0.1942 -0.1517  0.0173
  231MOL0     C31759   4.875   3.599   7.776 -0.0742  0.1352 -0.2267
  231MOL0     C31760   4.792   3.710   7.832 -0.5213  0.0182 -0.3140
  231MOL0     C31761   4.860   3.847   7.812 -0.3958  0.0173 -0.0695
  231MOL0     C31762   4.960   3.873   7.931  1.1177  0.4004  0.3813
  231MOL0     C31763   5.009   4.015   7.925 -0.0609 -0.4371 -0.1797
  231MOL0     O31764   5.106   4.030   7.816  0.3898  0.6383  0.3646
  231MOL0     C31765   5.238   4.021   7.850  0.1633 -0.9364  0.4354
  231MOL0     C31766   5.322   4.082   7.756  0.3652  0.1931 -0.1122
  231MOL0     C31767   5.460   4.083   7.772 -0.2111  0.8506 -0.1334
  231MOL0     C31768   5.543   4.154   7.663  0.4682  0.1484  0.6388
  231MOL0     C31769   5.517   4.021   7.889  0.0338 -0.6678  0.0419
  231MOL0     C31770   5.670   4.021   7.914  0.5366 -0.0264 -0.6270
  231MOL0     O31771   5.749   4.081   7.829 -0.3259 -0.5017 -0.4332
  231MOL0     C31772   5.886   4.067   7.845 -0.7377 -0.3886 -0.2416
  231MOL0     C31773   5.968   4.138   7.943 -0.0296  0.3142  0.9178
  231MOL0     C31774   6.105   4.118   7.934  0.3812 -0.1170  0.7256
  231MOL0     C31775   6.172   4.035   7.843 -0.2744  0.4941 -0.0712
  231MOL0     O31776   6.312   4.028   7.817  0.1609 -0.1642  0.0626
  231MOL0     C31777   6.396   4.111   7.897 -0.3285 -0.0524  0.3564
  231MOL0     C31778   6.539   4.080   7.851 -1.0966 -0.3932 -0.2808
  231MOL0     C31779   6.622   4.180   7.930 -0.9409  0.0199  0.3907
  231MOL0     C31780   6.767   4.172   7.887  0.3805  0.5004 -0.7286
  231MOL0     C31781   6.843   4.270   7.972  0.3842  0.0233 -0.1472
  231MOL0     C31782   6.990   4.268   7.918  0.1134 -0.4423  0.1038
  231MOL0     C31783   7.071   4.138   7.914  0.2964 -0.5266 -0.3583
  231MOL0     C31784   7.217   4.165   7.878 -1.2108  0.3456 -0.6810
  231MOL0    Cl31785   7.316   4.024   7.908 -0.9331  0.7825 -0.0285
  231MOL0     C31786   6.086   3.952   7.766  0.0031  0.1486  0.5935
  231MOL0     C31787   5.949   3.977   7.762  0.5998  0.3926 -0.3675
  231MOL0     O31788   5.710   3.970   8.019 -0.6179 -1.1682 -0.6210
  231MOL0     C31789   5.434   3.963   7.983  0.0677 -0.0315  0.1673
  231MOL0     C31790   5.293   3.960   7.963 -0.2499 -0.3569  0.6879
  231MOL0     N31791   4.956   3.509   7.854 -0.6578 -0.8971 -0.1921
  231MOL0     N31792   5.013   3.430   7.769  0.2566 -0.5954 -0.4400
  231MOL0     C31793   5.355   2.770   6.990  0.6643  0.5901  0.6331
  231MOL0     C31794   5.463   2.710   6.924  0.2139  0.4999  0.2044
  231MOL0     C31795   5.698   2.527   6.589 -0.6602  0.7993  1.3408
  231MOL0     C31796   5.694   2.536   6.444 -0.0774  0.8611 -0.3270
  231MOL0     C31797   5.772   2.453   6.356 -0.2599 -0.0566  0.8034
  231MOL0     C31798   5.865   2.360   6.413  0.2338  0.1733 -0.3147
  231MOL0     O31799   5.931   2.268   6.335 -0.2109 -0.2988  0.0349
  231MOL0     C31800   5.956   2.136   6.394  0.2550  0.3502  0.1363
  231MOL0     C31801   5.996   2.045   6.280  0.3264  0.5167 -0.0963
  231MOL0     C31802   6.002   1.901   6.323  0.1264 -0.5339  0.2065
  231MOL0     C31803   6.124   1.862   6.400  0.4071  0.9663 -0.2550
  231MOL0     C31804   6.245   1.847   6.310  0.4758 -0.2207  0.0259
  231MOL0     C31805   6.344   1.826   6.241 -0.7493  0.7120 -0.3401
  231MOL0     C31806   5.875   2.365   6.561 -0.9281 -0.5005  0.3424
  231MOL0     C31807   5.793   2.439   6.647  0.1330  0.2304 -0.5351
  231MOL0     C31808   5.808   2.432   6.801 -0.1809 -0.1905 -0.5510
  231MOL0     H31809   5.268   2.503   6.724  0.5083  0.7403 -1.6246
  231MOL0     H31810   5.094   2.632   6.836  0.4309  0.4931 -2.0973
  231MOL0     H31811   4.950   2.727   7.027  0.6841  0.0608  1.6467
  231MOL0     H31812   4.987   2.826   6.882  1.1311  3.7688  0.5767
  231MOL0     H31813   4.972   3.027   6.988  0.7893 -1.4229 -2.1182
  231MOL0     H31814   4.810   2.942   7.013  0.1181 -0.0316 -1.3074
  231MOL0     H31815   4.955   2.874   7.242  0.4434  0.3568 -0.3838
  231MOL0     H31816   5.007   3.040   7.205 -0.5402  0.1597 -0.2000
  231MOL0     H31817   4.773   3.118   7.194 -1.4318  0.6606  2.3818
  231MOL0     H31818   4.712   2.962   7.235  0.2843 -0.2676 -0.7469
  231MOL0     H31819   4.853   2.985   7.462  4.4186 -0.6957 -1.7731
  231MOL0     H31820   4.735   3.123   7.434 -1.5300 -0.1564 -2.2734
  231MOL0     H31821   5.025   3.137   7.383  1.5862  1.8762  0.4406
  231MOL0     H31822   4.890   3.257   7.333 -0.8205 -0.0446  0.3719
  231MOL0     H31823   4.989   3.189   7.611  0.8083 -3.1266 -2.6685
  231MOL0     H31824   4.837   3.265   7.582  2.0507  0.3002  2.1366
  231MOL0     H31825   5.114   3.360   7.523  0.4127 -1.9313 -3.6961
  231MOL0     H31826   5.000   3.442   7.434  0.1650  1.1809  0.8450
  231MOL0     H31827   4.850   3.630   7.566 -1.1112 -2.2331 -1.1845
  231MOL0     H31828   4.765   3.687   7.935  0.3534  1.7187  0.3483
  231MOL0     H31829   4.697   3.719   7.779 -1.3334 -0.2645  1.0624
  231MOL0     H31830   4.909   3.867   7.716 -2.5418  1.6268 -0.9313
  231MOL0     H31831   4.768   3.906   7.808  0.2710  1.1620  0.7890
  231MOL0     H31832   4.904   3.860   8.024 -0.4388  0.1246 -0.5512
  231MOL0     H31833   5.045   3.805   7.921 -0.1923 -0.9011 -4.0204
  231MOL0     H31834   4.922   4.076   7.903 -0.3667  0.0716  2.2553
  231MOL0     H31835   5.054   4.051   8.018  2.5901 -0.0659 -1.4974
  231MOL0     H31836   5.283   4.140   7.673 -1.1867 -1.5336 -0.6808
  231MOL0     H31837   5.614   4.229   7.700 -1.3678  1.9820  0.5856
  231MOL0     H31838   5.485   4.207   7.587  0.5564 -1.4078 -0.5568
  231MOL0     H31839   5.594   4.073   7.609 -1.5357 -0.5199 -0.3513
  231MOL0     H31840   5.923   4.195   8.024 -1.8315 -2.1035  1.7406
  231MOL0     H31841   6.159   4.169   8.014  0.2232 -0.7955  1.2785
  231MOL0     H31842   6.381   4.219   7.886 -0.8343  0.0925  2.1854
  231MOL0     H31843   6.400   4.076   8.000  2.2562 -1.9679 -0.3068
  231MOL0     H31844   6.569   3.975   7.855 -0.6223 -0.2530 -0.1240
  231MOL0     H31845   6.540   4.118   7.749  1.2173  0.3830 -0.0338
  231MOL0     H31846   6.606   4.156   8.036 -1.4338  0.0113  0.3156
  231MOL0     H31847   6.589   4.282   7.915 -1.0949 -0.4802 -3.8219
  231MOL0     H31848   6.769   4.212   7.785  2.3563  2.4835  0.0039
  231MOL0     H31849   6.795   4.068   7.904  0.9681  0.8901  0.7812
  231MOL0     H31850   6.797   4.367   7.955  1.1791  0.8399  2.0205
  231MOL0     H31851   6.834   4.256   8.080 -0.1715 -0.4538 -0.2459
  231MOL0     H31852   7.048   4.338   7.979  1.2950 -2.5358  1.4966
  231MOL0     H31853   6.979   4.313   7.818 -1.1172  0.9373  0.8183
  231MOL0     H31854   7.021   4.061   7.855 -1.0366  0.5744 -0.7380
  231MOL0     H31855   7.070   4.102   8.017 -0.9107 -0.1140 -0.2030
  231MOL0     H31856   7.258   4.243   7.943 -3.1878  1.0753 -0.2254
  231MOL0     H31857   7.239   4.195   7.775  2.4077  0.8444  0.1135
  231MOL0     H31858   6.129   3.882   7.696  1.0482  1.3242  0.0220
  231MOL0     H31859   5.886   3.919   7.695  0.4713 -1.5888  1.3341
  231MOL0     H31860   5.479   3.907   8.064 -0.1642 -1.3444 -0.5765
  231MOL0     H31861   5.222   3.916   8.033 -0.5690 -0.1681  0.4851
  231MOL0     H31862   5.383   2.835   7.073  2.3665  2.5059 -1.3149
  231MOL0     H31863   5.568   2.713   6.953  0.6478 -3.0725 -0.5982
  231MOL0     H31864   5.608   2.591   6.407 -2.1033 -1.9029 -0.0900
  231MOL0     H31865   5.762   2.448   6.248 -2.1117 -0.1671  0.9503
  231MOL0     H31866   6.042   2.138   6.462  0.0815  1.5033  0.3555
  231MOL0     H31867   5.869   2.089   6.440  2.6075 -3.5351  1.0321
  231MOL0     H31868   6.091   2.088   6.246  0.2071 -0.1270 -1.3375
  231MOL0     H31869   5.921   2.051   6.201 -1.0152  0.5589  1.1440
  231MOL0     H31870   5.912   1.877   6.382  0.9236  0.0369  1.7007
  231MOL0     H31871   6.000   1.842   6.231  0.5321  1.6032 -1.2449
  231MOL0     H31872   6.109   1.766   6.451 -0.7537  0.9413 -0.6276
  231MOL0     H31873   6.137   1.934   6.482  0.0589  1.5399 -0.7001
  231MOL0     H31874   6.437   1.820   6.189 -0.8707 -0.1411 -0.4710
  231MOL0     H31875   5.944   2.293   6.604  1.0161  1.8848  1.4612
  231MOL0     H31876   5.813   2.531   6.845  0.2512 -0.2154 -0.5446
  231MOL0     H31877   5.719   2.380   6.840 -0.3627 -1.0435 -2.0330
  231MOL0     H31878   5.906   2.389   6.823  0.8085  2.6492  1.0205
  232MOL0     O31879   7.086   9.680   1.275 -0.0602  0.4292 -0.1344
  232MOL0     C31880   7.107   9.558   1.265  0.6589 -1.3004 -0.1227
  232MOL0     O31881   7.229   9.500   1.244  0.5686 -0.0125 -0.6000
  232MOL0     C31882   7.351   9.553   1.269 -0.0396  0.3618 -0.3022
  232MOL0     C31883   7.372   9.687   1.296  0.3197  0.1926 -0.7465
  232MOL0     C31884   7.498   9.736   1.330 -0.6506  0.7429 -0.2497
  232MOL0     C31885   7.615   9.650   1.322 -0.2479 -0.3251 -0.6550
  232MOL0     O31886   7.738   9.691   1.361 -0.2251 -0.3507  0.6227
  232MOL0     C31887   7.817   9.715   1.248 -0.1020 -1.3415  0.7515
  232MOL0     C31888   7.944   9.790   1.306 -0.5490  0.5022 -0.2341
  232MOL0     C31889   8.053   9.693   1.340 -0.1701 -0.1988  0.2935
  232MOL0     C31890   8.178   9.743   1.391 -0.3776 -0.2849  0.2052
  232MOL0     C31891   8.263   9.818   1.286  0.3413 -0.0590  0.2260
  232MOL0     C31892   8.410   9.817   1.309  0.4363 -0.6606  0.4726
  232MOL0     C31893   8.450   9.845   1.458  0.2486 -0.1330 -0.0426
  232MOL0     C31894   8.593   9.892   1.476  0.0385 -0.5140  0.2896
  232MOL0     N31895   8.690   9.792   1.444  0.1083  0.7812 -0.0501
  232MOL0     C31896   8.706   9.674   1.518 -0.0622  0.0623  0.0231
  232MOL0     C31897   8.817   9.623   1.463 -0.6120  0.0968 -0.2531
  232MOL0     C31898   8.874   9.491   1.510  0.0618 -0.0053  0.4309
  232MOL0     C31899   9.008   9.520   1.574 -0.0161  0.6045 -0.7382
  232MOL0     C31900   9.078   9.381   1.590 -0.2336  0.0409 -0.9198
  232MOL0     C31901   9.215   9.392   1.658  0.5886  0.2341 -0.2485
  232MOL0     O31902   9.302   9.449   1.560  0.3905  0.4739  0.4205
  232MOL0     C31903   9.415   9.515   1.604 -0.1730 -0.1681  0.0095
  232MOL0     C31904   9.470   9.506   1.730  1.0613  0.0046  0.4334
  232MOL0     C31905   9.605   9.544   1.764  0.4965  0.3721  1.3339
  232MOL0     C31906   9.646   9.515   1.906 -0.2683 -0.2775  0.6905
  232MOL0     C31907   9.676   9.609   1.660  0.6261 -0.2289  0.1096
  232MOL0     C31908   9.819   9.662   1.667  0.4738 -0.0494 -0.3572
  232MOL0     O31909   9.913   9.569   1.715 -0.1971 -0.0112  0.5173
  232MOL0     C31910  10.028   9.605   1.776  0.8989 -0.4862 -0.6390
  232MOL0     C31911  10.118   9.507   1.809 -0.3055  0.3885 -0.1658
  232MOL0     C31912  10.233   9.537   1.877 -1.4248  0.7806  0.5329
  232MOL0     C31913  10.258   9.668   1.928 -0.5243 -0.3329  0.2124
  232MOL0     O31914  10.361   9.710   2.011  0.2209 -0.2170  0.1432
  232MOL0     C31915  10.457   9.610   2.034 -0.1743 -0.8057 -1.1080
  232MOL0     C31916  10.548   9.661   2.145  0.8282  0.1871  0.6338
  232MOL0     C31917  10.622   9.550   2.203 -0.9432 -0.1171 -0.4384
  232MOL0     C31918  10.555   9.466   2.306 -0.0837 -0.8448 -0.5172
  232MOL0     C31919  10.643   9.357   2.350  0.2102  1.4518 -0.1722
  232MOL0     C31920  10.767   9.391   2.425 -0.3527  0.0011 -0.1869
  232MOL0     C31921  10.846   9.265   2.465 -0.4682  0.5096 -0.2175
  232MOL0     C31922  10.951   9.306   2.571  0.6156  0.3896 -0.0583
  232MOL0    Cl31923  11.078   9.188   2.583  0.8322  0.1143 -0.0367
  232MOL0     C31924  10.173   9.774   1.888  0.1636  1.0436 -0.0357
  232MOL0     C31925  10.052   9.741   1.826  0.5482  0.4139 -0.0905
  232MOL0     O31926   9.852   9.769   1.604 -0.0116  0.3120  0.4348
  232MOL0     C31927   9.619   9.627   1.539 -1.0039 -0.2166  0.0842
  232MOL0     C31928   9.488   9.580   1.508  0.3414  0.5996  0.3828
  232MOL0     N31929   8.861   9.701   1.356  0.6291 -0.5043  0.3955
  232MOL0     N31930   8.784   9.804   1.347  0.5235  0.0449  0.5430
  232MOL0     C31931   7.594   9.515   1.296  0.2483 -0.0902  0.3122
  232MOL0     C31932   7.464   9.462   1.271 -0.0235 -0.1190  0.0485
  232MOL0     C31933   6.980   9.471   1.267  0.0476 -0.2036  0.1317
  232MOL0     C31934   6.993   9.351   1.200 -0.1302  0.0944  0.3465
  232MOL0     C31935   6.888   9.259   1.195 -0.5616  0.4146  0.4078
  232MOL0     C31936   6.764   9.286   1.247 -0.9321 -0.5215  0.0738
  232MOL0     O31937   6.659   9.200   1.228 -0.4400 -1.5747  0.4281
  232MOL0     C31938   6.669   9.073   1.153  0.1601  0.6816  0.0769
  232MOL0     C31939   6.532   9.018   1.128 -0.3208 -0.2689 -0.1729
  232MOL0     C31940   6.538   8.865   1.149 -0.6517  0.2798 -0.1595
  232MOL0     C31941   6.392   8.824   1.139  0.4210  0.5709  0.1501
  232MOL0     C31942   6.330   8.854   1.018 -0.4562 -0.0419  0.2768
  232MOL0     C31943   6.272   8.889   0.918  0.1777  0.0109 -0.0804
  232MOL0     C31944   6.749   9.408   1.312  0.3064 -0.6611  0.8856
  232MOL0     C31945   6.854   9.500   1.331  0.5695 -0.1842  0.3014
  232MOL0     C31946   6.829   9.629   1.404 -0.0184 -0.4122 -0.2473
  232MOL0     H31947   7.298   9.761   1.325  0.1769 -0.0826 -0.4005
  232MOL0     H31948   7.516   9.833   1.373 -0.8250  0.5581  0.2482
  232MOL0     H31949   7.769   9.788   1.182 -0.2347 -0.6456  1.6054
  232MOL0     H31950   7.855   9.629   1.192  0.8125  0.0831 -0.9067
  232MOL0     H31951   7.986   9.860   1.234 -0.8880 -1.0809 -2.0608
  232MOL0     H31952   7.904   9.835   1.398  0.8365 -1.3335  1.3482
  232MOL0     H31953   8.011   9.629   1.418  0.7335 -0.3908  0.6407
  232MOL0     H31954   8.065   9.627   1.253 -0.7892 -2.2638  1.7067
  232MOL0     H31955   8.165   9.812   1.475  3.1402 -0.5838  1.1577
  232MOL0     H31956   8.227   9.660   1.443 -2.1887 -0.7358  1.3039
  232MOL0     H31957   8.230   9.922   1.281 -0.6530 -0.4021 -0.9488
  232MOL0     H31958   8.247   9.775   1.186  0.5390  2.1051 -0.7781
  232MOL0     H31959   8.453   9.718   1.288 -2.0399 -2.0051  1.2382
  232MOL0     H31960   8.444   9.894   1.240 -1.5562 -0.7003 -0.6463
  232MOL0     H31961   8.423   9.765   1.527  0.6682  0.6085  1.0121
  232MOL0     H31962   8.385   9.931   1.478 -1.5631  0.3879 -6.1441
  232MOL0     H31963   8.613   9.979   1.412 -4.0925  1.3699  1.2580
  232MOL0     H31964   8.606   9.928   1.578 -2.9170 -0.5586  0.7595
  232MOL0     H31965   8.673   9.654   1.619 -1.3160  3.5816  0.4526
  232MOL0     H31966   8.884   9.426   1.423 -0.5069  0.6562 -0.1452
  232MOL0     H31967   8.798   9.439   1.568 -1.7248  1.9780  0.0037
  232MOL0     H31968   9.069   9.574   1.502 -0.1105 -2.2868 -3.1758
  232MOL0     H31969   8.986   9.562   1.673 -0.4104 -1.8068  0.2940
  232MOL0     H31970   9.024   9.322   1.664  1.4740 -2.4751 -1.5715
  232MOL0     H31971   9.088   9.333   1.493  2.1867  1.9223 -1.7123
  232MOL0     H31972   9.205   9.446   1.753  0.8462 -0.5612  0.2314
  232MOL0     H31973   9.246   9.291   1.686 -0.0136  0.2093  0.3654
  232MOL0     H31974   9.416   9.449   1.805  1.1834  1.4469  1.6513
  232MOL0     H31975   9.739   9.562   1.937 -0.2590  0.0113  0.2145
  232MOL0     H31976   9.666   9.408   1.921 -1.8200 -0.5485  1.0706
  232MOL0     H31977   9.572   9.545   1.982 -1.5103  1.5395 -1.1418
  232MOL0     H31978  10.116   9.405   1.773 -0.2411  0.8738 -1.6227
  232MOL0     H31979  10.304   9.457   1.897 -0.1743  1.1361 -2.0716
  232MOL0     H31980  10.400   9.524   2.072  0.6765 -1.6416 -1.6778
  232MOL0     H31981  10.508   9.581   1.942  2.4289  2.5615 -0.8929
  232MOL0     H31982  10.613   9.743   2.111  0.6564 -0.1091 -0.4460
  232MOL0     H31983  10.484   9.701   2.224 -0.7354 -0.3560 -0.3147
  232MOL0     H31984  10.720   9.585   2.235 -0.4789  1.7273 -3.4099
  232MOL0     H31985  10.649   9.484   2.119  1.9409 -0.8020  0.9009
  232MOL0     H31986  10.461   9.419   2.274 -0.4860  0.3739 -1.2166
  232MOL0     H31987  10.517   9.525   2.391  3.0469 -0.0102  0.4254
  232MOL0     H31988  10.575   9.304   2.418 -1.2205  2.0339 -1.0815
  232MOL0     H31989  10.674   9.295   2.266 -1.2326  2.0170 -1.1681
  232MOL0     H31990  10.749   9.452   2.514  1.2083 -0.3375  0.3870
  232MOL0     H31991  10.840   9.452   2.370  0.2080  0.5305  1.1222
  232MOL0     H31992  10.891   9.226   2.373 -2.6054  1.2404 -1.6522
  232MOL0     H31993  10.787   9.181   2.503  1.8604 -0.8717  0.6057
  232MOL0     H31994  10.899   9.323   2.666  0.1080 -0.2943 -0.2115
  232MOL0     H31995  10.998   9.403   2.552 -0.6328  1.2370  1.0238
  232MOL0     H31996  10.182   9.873   1.931  3.2375  0.7923  0.1040
  232MOL0     H31997   9.988   9.828   1.814 -1.6086 -1.1413 -0.4110
  232MOL0     H31998   9.669   9.689   1.465 -1.4917 -1.9067 -1.7552
  232MOL0     H31999   9.446   9.599   1.410  3.0972 -1.8481 -1.4545
  232MOL0     H32000   7.674   9.444   1.314 -1.5567 -2.5047 -0.5097
  232MOL0     H32001   7.451   9.356   1.250 -0.6502  0.1598 -1.0350
  232MOL0     H32002   7.089   9.335   1.151 -0.4087  2.1172 -0.9608
  232MOL0     H32003   6.910   9.162   1.152 -0.1894  1.0560 -0.8898
  232MOL0     H32004   6.708   9.073   1.051  0.0652  1.7913  0.0229
  232MOL0     H32005   6.718   9.003   1.221 -2.9481 -0.7748  0.9835
  232MOL0     H32006   6.507   9.047   1.025  1.9503  5.6155  0.5384
  232MOL0     H32007   6.471   9.061   1.208  1.8536 -0.7944  1.8678
  232MOL0     H32008   6.606   8.810   1.084 -1.2590 -1.3077  0.4991
  232MOL0     H32009   6.583   8.849   1.247 -1.6292 -0.4900  0.1745
  232MOL0     H32010   6.332   8.874   1.215  0.1010 -0.1865  0.4095
  232MOL0     H32011   6.374   8.717   1.153  0.9913  0.2570 -1.3420
  232MOL0     H32012   6.218   8.923   0.832 -0.2739 -0.1698  0.1275
  232MOL0     H32013   6.659   9.441   1.363 -2.1674  0.3660 -3.5859
  232MOL0     H32014   6.873   9.713   1.349  0.7154 -0.0199  0.9028
  232MOL0     H32015   6.723   9.651   1.418  0.4393  1.9617 -0.1464
  232MOL0     H32016   6.872   9.633   1.504  0.0894  0.4194 -0.3214
  233MOL0     O32017   8.025  11.362   5.601  0.6591  0.0844 -0.6602
  233MOL0     C32018   7.965  11.259   5.564  0.3034  1.0335 -0.1177
  233MOL0     O32019   8.022  11.154   5.502  0.4932 -0.7298 -0.1821
  233MOL0     C32020   8.158  11.153   5.491 -0.1267  0.5523 -0.3563
  233MOL0     C32021   8.204  11.091   5.380  0.2222  0.2681  0.3987
  233MOL0     C32022   8.341  11.064   5.364 -0.4474 -0.4490  0.3063
  233MOL0     C32023   8.439  11.134   5.429 -0.0799  0.1933  0.3778
  233MOL0     O32024   8.566  11.112   5.387  0.1138 -0.3992 -1.0736
  233MOL0     C32025   8.643  11.237   5.385  0.3551 -0.3293  0.7260
  233MOL0     C32026   8.671  11.271   5.238 -0.2586  0.5152 -0.7208
  233MOL0     C32027   8.753  11.162   5.164 -1.2191 -1.0864  0.1230
  233MOL0     C32028   8.802  11.223   5.027  0.7276 -0.9992  0.4318
  233MOL0     C32029   8.878  11.109   4.953 -0.3844 -0.1245  0.4091
  233MOL0     C32030   8.940  11.152   4.818  0.0556 -0.3722  0.2947
  233MOL0     C32031   9.058  11.052   4.771  0.9199 -0.2092 -0.2563
  233MOL0     C32032   9.154  11.092   4.666  0.5548 -0.0613 -0.6135
  233MOL0     N32033   9.285  11.029   4.688 -0.5054  0.5578 -0.6973
  233MOL0     C32034   9.318  10.898   4.655  0.6506  0.5288  0.1094
  233MOL0     C32035   9.446  10.886   4.699  0.2470  0.6371  0.6875
  233MOL0     C32036   9.534  10.768   4.692  0.0270  0.2869  0.1708
  233MOL0     C32037   9.628  10.744   4.570  0.9563  0.4389 -0.0672
  233MOL0     C32038   9.546  10.696   4.447  0.9198 -0.7096  0.8626
  233MOL0     C32039   9.641  10.621   4.356  0.0108 -0.3346 -0.0292
  233MOL0     O32040   9.735  10.716   4.330  0.7083 -0.7575  0.2363
  233MOL0     C32041   9.864  10.686   4.295  0.0254  0.2180  0.9087
  233MOL0     C32042   9.969  10.769   4.331  0.7728 -0.1685 -0.7174
  233MOL0     C32043  10.102  10.734   4.312  0.0784 -0.2125  0.5419
  233MOL0     C32044  10.205  10.834   4.350 -0.4109 -0.7470  0.3625
  233MOL0     C32045  10.130  10.614   4.237  0.2063  0.5415 -0.5306
  233MOL0     C32046  10.273  10.578   4.192 -0.0198 -0.8888  0.2649
  233MOL0     O32047  10.377  10.659   4.235 -0.2331  0.4481 -0.5636
  233MOL0     C32048  10.507  10.656   4.180  0.4103 -0.2859 -0.7091
  233MOL0     C32049  10.537  10.627   4.047  0.0932 -0.6687  0.2498
  233MOL0     C32050  10.670  10.635   4.001  0.5147 -0.5163  1.0481
  233MOL0     C32051  10.770  10.693   4.078 -0.1663 -0.5576  0.2294
  233MOL0     O32052  10.895  10.707   4.015 -0.4807 -0.4383 -0.7804
  233MOL0     C32053  10.990  10.793   4.076  0.4224 -0.3714 -0.8556
  233MOL0     C32054  11.077  10.730   4.183  0.1375  0.9616  0.1898
  233MOL0     C32055  11.151  10.605   4.128 -0.6661  0.8841 -0.1890
  233MOL0     C32056  11.251  10.628   4.011 -0.1577  1.1532  0.6686
  233MOL0     C32057  11.312  10.489   3.970 -0.1395 -0.2435  0.2490
  233MOL0     C32058  11.366  10.496   3.834 -0.5329 -0.4745  0.0767
  233MOL0     C32059  11.502  10.565   3.834  0.4002 -0.0306  0.1854
  233MOL0     C32060  11.534  10.642   3.695 -0.3414  1.2474 -0.5758
  233MOL0    Cl32061  11.435  10.785   3.691 -0.0231 -0.3341 -0.0570
  233MOL0     C32062  10.738  10.732   4.211 -0.1860  0.9521 -0.7504
  233MOL0     C32063  10.608  10.710   4.266  0.0782 -1.0848  0.5709
  233MOL0     O32064  10.296  10.485   4.123  1.0182  0.4520 -0.2008
  233MOL0     C32065  10.025  10.526   4.219 -0.4305  1.0486  0.2816
  233MOL0     C32066   9.901  10.552   4.253 -0.3978 -0.5453  0.1909
  233MOL0     N32067   9.485  11.008   4.739 -0.4396 -0.1226  0.9200
  233MOL0     N32068   9.399  11.098   4.734  0.1556  0.5854 -0.1319
  233MOL0     C32069   8.391  11.206   5.541  0.4165  0.1286 -0.1421
  233MOL0     C32070   8.259  11.204   5.575 -0.8121  0.8478  0.9352
  233MOL0     C32071   7.810  11.248   5.593  0.5587  0.4304 -0.0532
  233MOL0     C32072   7.755  11.357   5.653  1.1489  0.4547  0.5247
  233MOL0     C32073   7.615  11.350   5.687  0.5400 -0.7177 -0.8058
  233MOL0     C32074   7.540  11.244   5.664  0.0740  0.2484  0.3992
  233MOL0     O32075   7.411  11.262   5.688  1.1032  0.0986  1.4394
  233MOL0     C32076   7.312  11.175   5.630  0.4950  0.0537 -0.5038
  233MOL0     C32077   7.170  11.214   5.674 -0.5913  0.5092 -0.1731
  233MOL0     C32078   7.067  11.097   5.668  0.2188 -0.6168  0.0426
  233MOL0     C32079   7.037  11.058   5.526 -0.6324  0.1065 -0.3778
  233MOL0     C32080   6.946  10.945   5.506 -0.3563  0.9640  0.8262
  233MOL0     C32081   6.868  10.854   5.479 -0.7882 -0.3188 -0.9265
  233MOL0     C32082   7.602  11.140   5.591  0.1498 -0.6293  0.2037
  233MOL0     C32083   7.738  11.133   5.566 -0.0386  0.6831  0.7275
  233MOL0     C32084   7.783  11.006   5.502  0.8950  1.0468  0.5076
  233MOL0     H32085   8.135  11.045   5.309 -0.7593  0.2839  1.3100
  233MOL0     H32086   8.380  10.997   5.288 -0.7565  1.1075 -1.2955
  233MOL0     H32087   8.738  11.217   5.436  0.2542  2.6323  2.2478
  233MOL0     H32088   8.599  11.323   5.436 -0.8267 -0.8625  0.6401
  233MOL0     H32089   8.581  11.289   5.178  1.8312 -0.7363 -4.5372
  233MOL0     H32090   8.721  11.368   5.244 -3.4111  2.3965 -2.1765
  233MOL0     H32091   8.842  11.133   5.221 -0.6559 -0.5333 -0.4512
  233MOL0     H32092   8.688  11.076   5.147 -1.2702 -1.5351  2.2998
  233MOL0     H32093   8.721  11.257   4.961  3.5470  0.8769 -2.3662
  233MOL0     H32094   8.862  11.314   5.034  0.1296 -0.6008  0.5217
  233MOL0     H32095   8.811  11.025   4.931  2.1882 -2.8320  2.1091
  233MOL0     H32096   8.957  11.072   5.019  0.4003  0.8893  0.0590
  233MOL0     H32097   8.861  11.168   4.745  1.7326  0.1956 -1.4847
  233MOL0     H32098   8.994  11.248   4.822 -1.2109  0.4716 -1.6076
  233MOL0     H32099   8.999  10.966   4.737 -0.1188 -0.6010  2.2807
  233MOL0     H32100   9.113  11.022   4.861  1.0827 -0.1137 -0.3237
  233MOL0     H32101   9.113  11.073   4.566  1.2896 -2.8387 -0.4591
  233MOL0     H32102   9.159  11.201   4.675  1.0978  0.0446 -1.8954
  233MOL0     H32103   9.274  10.816   4.599  3.7819  0.1946 -2.1885
  233MOL0     H32104   9.479  10.674   4.702  0.8499 -0.0517  1.8537
  233MOL0     H32105   9.598  10.772   4.780  0.9773 -0.2793 -0.4639
  233MOL0     H32106   9.689  10.830   4.541  1.6506 -0.5878 -1.7986
  233MOL0     H32107   9.696  10.665   4.603  0.9862  0.4619 -0.0708
  233MOL0     H32108   9.467  10.629   4.483  1.3054 -0.7333  1.7065
  233MOL0     H32109   9.508  10.783   4.393 -0.5962 -2.6041 -1.3236
  233MOL0     H32110   9.686  10.541   4.416  0.0636  0.8296  1.5346
  233MOL0     H32111   9.593  10.593   4.261  2.0151  5.5952 -3.2389
  233MOL0     H32112   9.936  10.860   4.379 -0.2087 -1.5081  1.3061
  233MOL0     H32113  10.258  10.878   4.266  0.5040  0.4923  1.5389
  233MOL0     H32114  10.281  10.792   4.416 -1.4771  0.1179  2.2486
  233MOL0     H32115  10.158  10.914   4.409 -0.2947  0.8258 -1.5713
  233MOL0     H32116  10.453  10.621   3.980  0.8899  1.1802 -1.0098
  233MOL0     H32117  10.683  10.605   3.897  0.5105 -1.7156  1.3897
  233MOL0     H32118  11.055  10.825   3.994  2.3161  1.7050  1.3079
  233MOL0     H32119  10.940  10.882   4.116 -0.5448 -1.6293  0.8693
  233MOL0     H32120  11.145  10.809   4.217  1.0298  0.0371  0.6112
  233MOL0     H32121  11.021  10.702   4.273  0.7299 -0.0286  0.2692
  233MOL0     H32122  11.078  10.528   4.102  1.3864 -1.8934  1.7535
  233MOL0     H32123  11.202  10.564   4.215 -1.7757 -0.4123 -0.1133
  233MOL0     H32124  11.331  10.702   4.025  2.2406 -1.5663  2.6034
  233MOL0     H32125  11.192  10.664   3.926 -2.4125 -2.4510  0.5141
  233MOL0     H32126  11.381  10.454   4.047 -3.7678  1.4991  4.7662
  233MOL0     H32127  11.233  10.414   3.970 -0.6968  0.3265 -0.6397
  233MOL0     H32128  11.284  10.542   3.778 -1.6532 -0.7730  1.4119
  233MOL0     H32129  11.388  10.394   3.802  2.9817  0.4762 -0.9322
  233MOL0     H32130  11.574  10.484   3.843  1.4323  0.8134 -0.2120
  233MOL0     H32131  11.510  10.634   3.918 -0.2223  0.0035  0.2256
  233MOL0     H32132  11.518  10.581   3.606  2.1763 -0.5996  0.1271
  233MOL0     H32133  11.638  10.674   3.708  0.5661 -1.6595  0.1135
  233MOL0     H32134  10.803  10.798   4.269 -0.6942  0.1949  0.6999
  233MOL0     H32135  10.590  10.739   4.369  1.1674 -0.6666  0.6641
  233MOL0     H32136  10.053  10.436   4.164  1.0417  1.5170  0.2194
  233MOL0     H32137   9.823  10.478   4.238 -0.2458 -0.4074 -1.4920
  233MOL0     H32138   8.463  11.267   5.596 -0.8229  2.8578 -1.3176
  233MOL0     H32139   8.233  11.250   5.670  1.1419  1.5181  1.1874
  233MOL0     H32140   7.804  11.452   5.672 -1.1329  1.8529 -0.1410
  233MOL0     H32141   7.557  11.423   5.742 -0.0997 -0.8865 -1.2439
  233MOL0     H32142   7.329  11.169   5.522  0.0520 -0.4954 -0.5456
  233MOL0     H32143   7.328  11.074   5.668 -0.8386 -0.1042 -0.3082
  233MOL0     H32144   7.128  11.289   5.607 -4.4604  0.9033  2.3370
  233MOL0     H32145   7.173  11.262   5.772 -1.9639  2.7118 -1.1442
  233MOL0     H32146   7.115  11.017   5.725 -0.7160  1.1060  3.5251
  233MOL0     H32147   6.979  11.123   5.729  1.2349 -1.1084  1.7781
  233MOL0     H32148   7.129  11.032   5.472 -0.6062 -0.8937  0.1283
  233MOL0     H32149   6.995  11.151   5.488 -0.7526  1.7460  3.3429
  233MOL0     H32150   6.791  10.780   5.464 -1.3953  0.1502 -0.1929
  233MOL0     H32151   7.530  11.060   5.576  0.4320 -0.8222 -0.1108
  233MOL0     H32152   7.708  10.930   5.481  0.8316  1.4462 -0.8511
  233MOL0     H32153   7.818  11.020   5.399 -0.0073 -0.3193 -0.0071
  233MOL0     H32154   7.864  10.967   5.564 -1.0580 -2.5208  1.0718
  234MOL0     O32155   2.806   5.419   2.306 -0.3561  0.3979  0.0258
  234MOL0     C32156   2.785   5.534   2.338 -0.5128 -0.1949  0.0361
  234MOL0     O32157   2.874   5.613   2.399 -0.1990  0.4753  0.4633
  234MOL0     C32158   2.976   5.548   2.463 -0.1493  0.5813  0.6421
  234MOL0     C32159   2.956   5.461   2.569 -0.5825 -0.0822 -1.6862
  234MOL0     C32160   3.070   5.407   2.644  0.1352 -0.5709  0.0989
  234MOL0     C32161   3.197   5.445   2.608  1.1828  0.2403  0.1502
  234MOL0     O32162   3.297   5.389   2.680 -0.6412  0.0172 -0.3718
  234MOL0     C32163   3.430   5.393   2.616  1.1913  0.1295  0.3664
  234MOL0     C32164   3.525   5.293   2.685  0.2150 -1.1760  0.2576
  234MOL0     C32165   3.539   5.327   2.840  0.2407  0.4725  0.5922
  234MOL0     C32166   3.683   5.286   2.883 -0.0796  0.3332 -0.2031
  234MOL0     C32167   3.698   5.309   3.034  0.1424  0.0274 -0.2461
  234MOL0     C32168   3.825   5.227   3.086 -0.5925  0.2041  1.1148
  234MOL0     C32169   3.841   5.267   3.228  0.1174  0.0313  0.0914
  234MOL0     C32170   3.981   5.219   3.293 -0.1484  0.3887  0.9496
  234MOL0     N32171   4.036   5.082   3.256  0.6579 -0.3184  0.2073
  234MOL0     C32172   3.989   4.955   3.298  0.1674 -0.3885  0.5575
  234MOL0     C32173   4.084   4.863   3.259 -0.2399 -0.4618  0.7602
  234MOL0     C32174   4.092   4.716   3.293  0.6620  1.3818  0.1333
  234MOL0     C32175   4.234   4.674   3.327  0.3385 -0.6067  0.2014
  234MOL0     C32176   4.248   4.525   3.357 -0.0763  0.8626  0.4417
  234MOL0     C32177   4.396   4.487   3.390 -0.1687  0.3380 -0.0358
  234MOL0     O32178   4.492   4.537   3.288  0.0411 -0.2587  0.2343
  234MOL0     C32179   4.619   4.492   3.283 -0.0508  0.3808  0.4226
  234MOL0     C32180   4.677   4.414   3.382 -0.2049 -0.0201  0.7064
  234MOL0     C32181   4.821   4.381   3.374 -0.0048  1.0727 -0.7114
  234MOL0     C32182   4.858   4.277   3.481 -0.2526 -0.8587 -0.3735
  234MOL0     C32183   4.905   4.434   3.272 -0.9143 -0.4501  0.6062
  234MOL0     C32184   5.047   4.401   3.267 -0.0479  0.9554 -0.0538
  234MOL0     O32185   5.098   4.369   3.138  0.2521 -0.0302 -0.7067
  234MOL0     C32186   5.222   4.325   3.123 -0.0196 -0.1130 -0.0274
  234MOL0     C32187   5.292   4.384   3.013  0.1329  0.3961 -0.3958
  234MOL0     C32188   5.427   4.344   2.995  1.2828 -0.1402 -0.4516
  234MOL0     C32189   5.490   4.253   3.073 -0.7344  0.7454 -1.0701
  234MOL0     O32190   5.623   4.260   3.048  0.5350  0.4984 -1.1410
  234MOL0     C32191   5.699   4.191   3.150 -0.1578 -0.6359 -0.2916
  234MOL0     C32192   5.853   4.220   3.150 -0.1917 -0.1517  0.1938
  234MOL0     C32193   5.888   4.367   3.135  1.0903 -0.0318  0.3471
  234MOL0     C32194   6.022   4.403   3.200 -0.4226  0.1751 -0.2945
  234MOL0     C32195   6.050   4.557   3.206 -0.1094 -0.0328 -0.8931
  234MOL0     C32196   6.040   4.612   3.345  1.1160  0.6093 -0.1268
  234MOL0     C32197   5.889   4.617   3.401 -0.9140 -0.6950  0.2948
  234MOL0     C32198   5.885   4.694   3.537 -0.1421 -0.0407  0.0825
  234MOL0    Cl32199   5.931   4.570   3.663 -0.1641 -0.1374 -0.3252
  234MOL0     C32200   5.419   4.170   3.158 -0.0215  0.7269 -0.4215
  234MOL0     C32201   5.289   4.216   3.197  0.2068  0.2991 -0.0396
  234MOL0     O32202   5.116   4.393   3.374  0.2831 -0.5539 -0.3098
  234MOL0     C32203   4.847   4.493   3.162  0.5169 -0.5920 -0.4235
  234MOL0     C32204   4.707   4.527   3.172 -0.1537  0.0464  0.6526
  234MOL0     N32205   4.181   4.934   3.189  0.0757 -0.1622 -0.7176
  234MOL0     N32206   4.159   5.062   3.188  0.0439 -0.5355 -0.4620
  234MOL0     C32207   3.210   5.531   2.499  0.0998  0.6334  0.4312
  234MOL0     C32208   3.102   5.583   2.424 -0.4316  0.8725  0.9413
  234MOL0     C32209   2.667   5.591   2.275  1.1508 -0.2939 -0.4925
  234MOL0     C32210   2.564   5.499   2.236 -0.5056  0.5413  0.9924
  234MOL0     C32211   2.456   5.548   2.160 -0.1991 -0.0871 -0.1657
  234MOL0     C32212   2.434   5.682   2.141 -0.7192 -0.2683 -0.0063
  234MOL0     O32213   2.304   5.727   2.090 -0.7104 -0.0402  0.2337
  234MOL0     C32214   2.303   5.846   2.003  0.3357 -0.0748 -0.2159
  234MOL0     C32215   2.184   5.921   2.022 -0.0124  0.3395 -0.6443
  234MOL0     C32216   2.058   5.845   1.987 -0.0209  0.1230 -0.7078
  234MOL0     C32217   1.930   5.917   2.041  0.0089  0.2451  0.0164
  234MOL0     C32218   1.813   5.829   2.011 -0.8008  1.0355 -0.0352
  234MOL0     C32219   1.733   5.741   1.978  0.2365  0.1456  0.1287
  234MOL0     C32220   2.533   5.772   2.181 -0.1821 -1.1147  0.9584
  234MOL0     C32221   2.650   5.727   2.243 -0.9468 -0.1781  0.2070
  234MOL0     C32222   2.761   5.837   2.279  0.3156 -1.1519  0.2257
  234MOL0     H32223   2.854   5.432   2.590  0.2505 -0.2644  3.3270
  234MOL0     H32224   3.053   5.342   2.729  1.5869 -1.0529  0.0468
  234MOL0     H32225   3.458   5.498   2.622  1.1070  0.2856 -1.3892
  234MOL0     H32226   3.408   5.355   2.516  0.7574 -2.3338  1.3117
  234MOL0     H32227   3.469   5.199   2.689 -0.4645 -0.7359  2.3220
  234MOL0     H32228   3.621   5.285   2.633  1.0725  2.0341  1.1004
  234MOL0     H32229   3.520   5.432   2.866  1.3068  0.3688  1.8654
  234MOL0     H32230   3.456   5.292   2.903 -0.9611  2.3727  0.1452
  234MOL0     H32231   3.699   5.179   2.867  0.1742  0.3983 -0.3835
  234MOL0     H32232   3.768   5.334   2.835 -1.0499 -1.3784 -3.9617
  234MOL0     H32233   3.613   5.266   3.088 -2.4046  2.1553 -2.2925
  234MOL0     H32234   3.712   5.413   3.064  1.7528 -0.8789  2.5620
  234MOL0     H32235   3.803   5.121   3.069  2.0982 -0.7053  2.7309
  234MOL0     H32236   3.920   5.243   3.034 -1.6288 -1.8005 -1.6693
  234MOL0     H32237   3.751   5.231   3.279 -0.8601  0.7227 -1.0836
  234MOL0     H32238   3.837   5.376   3.223  2.5745  0.1255 -2.4279
  234MOL0     H32239   4.046   5.304   3.272 -1.6174  1.2508 -0.3438
  234MOL0     H32240   3.973   5.218   3.402  0.1047  1.1749  0.9786
  234MOL0     H32241   3.898   4.933   3.352 -0.0909  0.1782  0.3656
  234MOL0     H32242   4.057   4.649   3.215  0.0728  0.3610  1.2563
  234MOL0     H32243   4.031   4.696   3.382  2.1305 -0.2671  0.8302
  234MOL0     H32244   4.296   4.709   3.244 -1.4746  0.2892 -0.8342
  234MOL0     H32245   4.265   4.732   3.414  0.4818 -1.5335  0.7829
  234MOL0     H32246   4.180   4.492   3.435  0.3035  0.6568  0.6883
  234MOL0     H32247   4.224   4.467   3.268  0.4925  2.4694 -0.8155
  234MOL0     H32248   4.418   4.537   3.484  0.2776  0.3200 -0.1310
  234MOL0     H32249   4.402   4.378   3.404  0.6359  0.0910 -1.9130
  234MOL0     H32250   4.623   4.379   3.469 -0.2234 -0.3676  0.5553
  234MOL0     H32251   4.825   4.323   3.575  0.5695 -0.7003 -0.1591
  234MOL0     H32252   4.963   4.256   3.501  0.2808  0.9057 -1.2125
  234MOL0     H32253   4.801   4.185   3.463 -1.5086  0.0771 -1.3431
  234MOL0     H32254   5.248   4.464   2.955 -0.5255  0.8972  0.7506
  234MOL0     H32255   5.478   4.396   2.915 -1.9698 -0.6383 -3.0926
  234MOL0     H32256   5.648   4.224   3.241 -0.0023 -0.7349 -0.1693
  234MOL0     H32257   5.694   4.082   3.142 -0.6722 -0.5870 -0.6919
  234MOL0     H32258   5.885   4.184   3.248 -2.8751  1.2345  1.6929
  234MOL0     H32259   5.905   4.168   3.070 -0.2963  0.0801 -0.0277
  234MOL0     H32260   5.811   4.426   3.187 -1.5086 -1.7993 -1.2673
  234MOL0     H32261   5.890   4.403   3.032 -1.5727 -0.9374 -0.0880
  234MOL0     H32262   6.095   4.366   3.128  0.9002  2.7762 -0.4373
  234MOL0     H32263   6.035   4.360   3.300 -2.4714  0.6576  0.2295
  234MOL0     H32264   6.158   4.562   3.188 -0.3911 -0.9975 -3.2063
  234MOL0     H32265   6.001   4.615   3.127  0.7483 -2.5545 -3.4855
  234MOL0     H32266   6.091   4.709   3.344  2.0211  0.1716 -2.6681
  234MOL0     H32267   6.102   4.548   3.408  1.4271  0.6813 -0.3591
  234MOL0     H32268   5.843   4.520   3.424 -2.3240  0.0421  0.7034
  234MOL0     H32269   5.829   4.670   3.326  0.4620  2.6161  1.3547
  234MOL0     H32270   5.786   4.731   3.565 -0.3607 -0.9730  0.5753
  234MOL0     H32271   5.941   4.787   3.521 -0.4029  0.8312  3.4468
  234MOL0     H32272   5.480   4.111   3.224 -0.0540  1.8717  0.6808
  234MOL0     H32273   5.228   4.169   3.273  0.9651  0.3661  0.6226
  234MOL0     H32274   4.907   4.527   3.078  0.4855 -3.0995 -1.5347
  234MOL0     H32275   4.653   4.565   3.086  1.7388  2.5296  0.4605
  234MOL0     H32276   3.309   5.564   2.468  2.1360 -3.0281  2.4660
  234MOL0     H32277   3.099   5.652   2.341 -1.3575 -0.4431 -0.1744
  234MOL0     H32278   2.569   5.391   2.241  0.1857  0.5881  1.3984
  234MOL0     H32279   2.376   5.480   2.135 -0.2661 -0.4515  0.9865
  234MOL0     H32280   2.371   5.922   2.044  1.8042 -1.0384 -0.8013
  234MOL0     H32281   2.324   5.816   1.900  1.4044  1.2684 -0.4214
  234MOL0     H32282   2.200   6.017   1.972 -0.0799  0.3445 -0.6553
  234MOL0     H32283   2.181   5.942   2.129  0.2444 -1.3474 -0.2667
  234MOL0     H32284   2.056   5.820   1.880  0.7806 -1.2634 -0.4209
  234MOL0     H32285   2.056   5.747   2.036  2.6738  0.8988  1.1461
  234MOL0     H32286   1.915   6.022   2.014  2.8663  0.7472  0.1011
  234MOL0     H32287   1.948   5.920   2.149 -1.5473  1.6630  0.2768
  234MOL0     H32288   1.659   5.668   1.952  1.8523 -0.9943 -1.4652
  234MOL0     H32289   2.527   5.879   2.163 -0.0952 -1.4405 -1.2863
  234MOL0     H32290   2.790   5.832   2.385  0.5640  0.2809  0.2426
  234MOL0     H32291   2.846   5.825   2.211 -0.7730 -0.2159 -1.3558
  234MOL0     H32292   2.727   5.941   2.275 -0.5340 -1.4118  0.5335
  235MOL0     O32293   8.739   0.399   5.891 -0.5284  0.5951 -0.4798
  235MOL0     C32294   8.628   0.402   5.844  1.2639 -1.1205  0.3023
  235MOL0     O32295   8.586   0.350   5.720 -0.1428  0.1106 -0.2255
  235MOL0     C32296   8.683   0.304   5.637  0.0597 -0.1397  0.2860
  235MOL0     C32297   8.779   0.384   5.580  0.3949 -0.4222 -0.1723
  235MOL0     C32298   8.885   0.330   5.512  0.3943 -0.0448 -0.5024
  235MOL0     C32299   8.893   0.192   5.493 -1.1613 -0.5548 -0.2645
  235MOL0     O32300   9.012   0.159   5.431  0.3542 -0.1786  0.0211
  235MOL0     C32301   9.010   0.034   5.358 -0.4838 -0.3496 -0.1530
  235MOL0     C32302   9.147   0.031   5.288  0.0512 -0.6460  0.2585
  235MOL0     C32303   9.120  -0.025   5.141  0.3087 -0.3252 -0.3599
  235MOL0     C32304   9.259  -0.029   5.075 -1.1272  0.0648 -0.1767
  235MOL0     C32305   9.249  -0.035   4.922 -0.0944 -0.4047  0.2733
  235MOL0     C32306   9.380   0.007   4.860  0.2470  0.1148 -0.6758
  235MOL0     C32307   9.378   0.006   4.705  0.2625  0.1588  0.2044
  235MOL0     C32308   9.474   0.117   4.641 -0.4387 -0.6825  0.1094
  235MOL0     N32309   9.458   0.152   4.494  0.7453  0.4897 -0.2834
  235MOL0     C32310   9.410   0.067   4.392 -1.0038  0.6676  0.4819
  235MOL0     C32311   9.412   0.142   4.281 -0.4218 -0.1022  0.1924
  235MOL0     C32312   9.375   0.113   4.132 -1.0147  0.2264 -0.0690
  235MOL0     C32313   9.491   0.151   4.029  0.0772  0.3104  0.6400
  235MOL0     C32314   9.556   0.023   3.974  0.6122  0.7072  0.0572
  235MOL0     C32315   9.690   0.059   3.912 -0.1466 -0.2368  0.1843
  235MOL0     O32316   9.752  -0.069   3.896  0.0235  0.2669 -0.2807
  235MOL0     C32317   9.835  -0.088   3.785 -0.6218  0.6561  0.0173
  235MOL0     C32318   9.886   0.006   3.693 -0.5171 -0.0909 -0.4311
  235MOL0     C32319   9.985  -0.027   3.592  1.3195  0.2967  0.8730
  235MOL0     C32320  10.032   0.090   3.509 -0.5651  0.0769  0.4357
  235MOL0     C32321  10.025  -0.161   3.587  0.0254  0.3476  0.2889
  235MOL0     C32322  10.121  -0.204   3.484 -0.4825 -0.0615  0.1135
  235MOL0     O32323  10.217  -0.295   3.528  0.5498  0.6086 -0.5897
  235MOL0     C32324  10.295  -0.357   3.435 -0.5346  0.2496  0.3580
  235MOL0     C32325  10.303  -0.496   3.431 -0.0285 -0.8997 -0.2991
  235MOL0     C32326  10.397  -0.553   3.343  1.3888 -0.2381 -0.8576
  235MOL0     C32327  10.476  -0.481   3.255 -0.0644 -0.2467  0.2160
  235MOL0     O32328  10.576  -0.544   3.180 -0.4667  0.7590  0.0654
  235MOL0     C32329  10.555  -0.677   3.138  0.9703 -0.2439  0.8954
  235MOL0     C32330  10.670  -0.725   3.036 -0.5402 -1.0318 -0.3509
  235MOL0     C32331  10.610  -0.745   2.895  0.3114  0.6751  0.1970
  235MOL0     C32332  10.707  -0.804   2.789  0.5666 -0.6504 -0.1600
  235MOL0     C32333  10.631  -0.833   2.661 -0.1787 -0.1635 -0.5896
  235MOL0     C32334  10.723  -0.883   2.546 -0.6417 -0.2484  0.7252
  235MOL0     C32335  10.639  -0.946   2.447 -0.8895  0.1991 -0.3589
  235MOL0     C32336  10.543  -0.846   2.385 -0.7958 -0.6003 -0.4620
  235MOL0    Cl32337  10.498  -0.899   2.234 -0.0873 -0.2070 -0.0481
  235MOL0     C32338  10.462  -0.339   3.257  0.5407  0.3004  0.3468
  235MOL0     C32339  10.369  -0.281   3.341  0.0800 -0.1356 -0.2081
  235MOL0     O32340  10.101  -0.171   3.368  0.1122 -0.4399  1.4038
  235MOL0     C32341   9.971  -0.261   3.673  0.1538  0.6054 -0.2129
  235MOL0     C32342   9.874  -0.223   3.768  0.0970 -0.0015  0.2849
  235MOL0     N32343   9.458   0.271   4.316 -0.2789  0.4897 -0.2738
  235MOL0     N32344   9.459   0.275   4.451  0.2196  0.3008 -0.1365
  235MOL0     C32345   8.785   0.117   5.542 -0.3433  1.1013 -0.0270
  235MOL0     C32346   8.680   0.171   5.604 -0.3684 -0.3938 -0.3176
  235MOL0     C32347   8.529   0.461   5.931 -1.0968 -0.5179 -0.2878
  235MOL0     C32348   8.400   0.483   5.878 -0.1721 -0.0430  0.1756
  235MOL0     C32349   8.299   0.519   5.958  1.1721 -0.0203  0.0777
  235MOL0     C32350   8.308   0.553   6.087  0.0094 -0.3628  0.9133
  235MOL0     O32351   8.214   0.615   6.165 -0.1214  0.5326  0.0247
  235MOL0     C32352   8.130   0.702   6.085  0.0586  0.4459  1.5830
  235MOL0     C32353   8.028   0.763   6.170 -0.1536 -0.2374 -0.0374
  235MOL0     C32354   7.897   0.673   6.155  0.7399  0.8926 -0.3745
  235MOL0     C32355   7.897   0.545   6.238  0.4189  0.1735 -0.2077
  235MOL0     C32356   7.753   0.520   6.272 -0.4827  0.1611  0.3253
  235MOL0     C32357   7.638   0.532   6.302  0.3529  0.2874 -0.3939
  235MOL0     C32358   8.433   0.530   6.149  0.1036 -0.5344 -1.1306
  235MOL0     C32359   8.550   0.491   6.079  0.1285  0.2479  0.3638
  235MOL0     C32360   8.676   0.450   6.155  0.4224 -0.5698 -0.2766
  235MOL0     H32361   8.788   0.490   5.601  1.0461 -0.9932  2.7826
  235MOL0     H32362   8.965   0.395   5.478  0.4847  1.2813  1.9953
  235MOL0     H32363   8.927   0.038   5.286 -0.5638  1.3029 -0.0150
  235MOL0     H32364   8.991  -0.055   5.418  0.6014 -1.3968 -1.3002
  235MOL0     H32365   9.181   0.134   5.273  1.0081 -1.3102 -2.7375
  235MOL0     H32366   9.213  -0.040   5.339 -2.7029 -4.3864 -0.8712
  235MOL0     H32367   9.072  -0.123   5.147  0.4191 -0.3027  2.0896
  235MOL0     H32368   9.063   0.053   5.090  1.0646  0.1826 -0.4299
  235MOL0     H32369   9.320   0.055   5.110 -0.3542 -1.0902  1.4048
  235MOL0     H32370   9.312  -0.118   5.111  0.8242  1.3047  0.2183
  235MOL0     H32371   9.169   0.032   4.888 -1.3131 -1.1922  1.4823
  235MOL0     H32372   9.221  -0.135   4.888  0.6736 -0.6248  0.2807
  235MOL0     H32373   9.410   0.106   4.894 -2.1428  0.6020  0.1785
  235MOL0     H32374   9.462  -0.056   4.898 -2.1788 -2.1199  1.1933
  235MOL0     H32375   9.283   0.042   4.665  0.3655  1.4110  0.9947
  235MOL0     H32376   9.381  -0.093   4.659 -4.1350  0.7740 -1.9323
  235MOL0     H32377   9.468   0.218   4.685 -1.3882 -1.0413  0.8474
  235MOL0     H32378   9.577   0.089   4.661 -0.7775 -0.1260  3.2926
  235MOL0     H32379   9.389  -0.039   4.403 -2.5828  1.0935  1.9697
  235MOL0     H32380   9.294   0.183   4.114 -1.1357 -0.1378 -0.9545
  235MOL0     H32381   9.342   0.009   4.127 -2.5437  0.6407  0.8095
  235MOL0     H32382   9.447   0.206   3.945 -0.6826 -0.7764  0.3013
  235MOL0     H32383   9.561   0.221   4.074  2.3147 -2.7126  2.2053
  235MOL0     H32384   9.569  -0.039   4.064  1.7593  1.8080  0.6886
  235MOL0     H32385   9.496  -0.026   3.897 -0.5449 -0.4208  1.5907
  235MOL0     H32386   9.689   0.112   3.817 -0.6054  1.3035  1.0220
  235MOL0     H32387   9.737   0.120   3.990 -1.7425 -0.4923  1.4004
  235MOL0     H32388   9.862   0.111   3.697 -2.0788 -0.4365 -0.1592
  235MOL0     H32389  10.131   0.073   3.464  0.1440 -2.5615  2.7233
  235MOL0     H32390  10.047   0.184   3.563 -0.2807  2.1129 -2.8987
  235MOL0     H32391   9.955   0.111   3.435 -1.2060  2.3084  1.6537
  235MOL0     H32392  10.247  -0.562   3.496  3.8476 -2.3924  1.8619
  235MOL0     H32393  10.383  -0.660   3.344 -1.4224  0.0460 -0.1860
  235MOL0     H32394  10.558  -0.747   3.222  1.5431 -2.1835 -0.6393
  235MOL0     H32395  10.455  -0.687   3.093 -0.5839  4.3222  2.7260
  235MOL0     H32396  10.747  -0.648   3.026 -1.3170  0.1258  1.8448
  235MOL0     H32397  10.726  -0.811   3.075  0.1159 -0.5364 -0.1768
  235MOL0     H32398  10.575  -0.645   2.869  2.6704  1.9429  1.5480
  235MOL0     H32399  10.530  -0.819   2.904  1.6145 -0.7279  0.8102
  235MOL0     H32400  10.745  -0.897   2.833  3.4790  0.4665 -0.0563
  235MOL0     H32401  10.791  -0.735   2.774 -0.4449  0.3064 -1.7468
  235MOL0     H32402  10.552  -0.907   2.669  1.7045 -2.2815 -0.7346
  235MOL0     H32403  10.595  -0.732   2.637 -0.0152  0.3001  0.9783
  235MOL0     H32404  10.798  -0.956   2.577 -1.5146 -1.3334  0.3494
  235MOL0     H32405  10.772  -0.801   2.493 -0.4732 -0.5860  0.3501
  235MOL0     H32406  10.583  -1.033   2.482  0.2678 -1.1668 -1.7211
  235MOL0     H32407  10.708  -0.971   2.366 -2.2570 -2.9533 -0.6932
  235MOL0     H32408  10.603  -0.757   2.366 -0.4745 -0.5903  0.5334
  235MOL0     H32409  10.460  -0.812   2.448  1.6006 -0.6093  2.9212
  235MOL0     H32410  10.519  -0.274   3.190  1.0025 -1.5800 -1.1969
  235MOL0     H32411  10.368  -0.174   3.358 -2.3601 -0.6928  5.1677
  235MOL0     H32412   9.991  -0.367   3.660 -2.1137 -0.1527  1.7312
  235MOL0     H32413   9.822  -0.304   3.819  0.2376 -1.2945 -1.4920
  235MOL0     H32414   8.764   0.013   5.518 -3.8184  2.0744 -1.8382
  235MOL0     H32415   8.603   0.102   5.637  2.6467 -3.7441  0.3116
  235MOL0     H32416   8.374   0.475   5.773 -1.3599  1.4998  0.3232
  235MOL0     H32417   8.211   0.545   5.900  1.0085 -0.6591  0.0343
  235MOL0     H32418   8.195   0.776   6.037 -1.7143  0.0685 -1.6325
  235MOL0     H32419   8.074   0.653   6.005  2.8993  0.4404 -0.5662
  235MOL0     H32420   8.004   0.863   6.131  0.0296 -0.3997 -0.5795
  235MOL0     H32421   8.063   0.769   6.273 -0.9809  3.6180  0.1779
  235MOL0     H32422   7.809   0.737   6.161  0.6432  0.7226 -0.0043
  235MOL0     H32423   7.874   0.636   6.055  0.2922  0.2379 -0.0299
  235MOL0     H32424   7.938   0.559   6.339 -1.3062  1.3882  0.3697
  235MOL0     H32425   7.931   0.463   6.174 -1.1924 -0.5408 -0.1856
  235MOL0     H32426   7.533   0.540   6.320  0.8874  3.3770  2.2757
  235MOL0     H32427   8.445   0.560   6.253 -0.5133 -1.2801 -0.8413
  235MOL0     H32428   8.751   0.518   6.116  1.1437 -1.2265 -0.0688
  235MOL0     H32429   8.672   0.484   6.259  1.2601  1.9088 -1.0062
  235MOL0     H32430   8.690   0.342   6.142 -1.1275 -0.7749 -0.5231
  236MOL0     O32431   2.847   1.928   0.323  0.8277 -0.4312 -0.2220
  236MOL0     C32432   2.731   1.886   0.357 -0.7751 -0.6572 -1.5116
  236MOL0     O32433   2.640   1.966   0.419  0.2266 -0.0878  0.4890
  236MOL0     C32434   2.688   2.084   0.474 -1.0964 -0.0032  0.8544
  236MOL0     C32435   2.723   2.202   0.407 -0.6165  0.6200  0.9631
  236MOL0     C32436   2.761   2.313   0.483  0.2118  1.0919 -0.1461
  236MOL0     C32437   2.795   2.300   0.618  1.0220  0.1748 -0.1646
  236MOL0     O32438   2.848   2.400   0.683 -0.5463  0.2368  0.6630
  236MOL0     C32439   2.985   2.375   0.727 -0.2115 -0.4468  0.2932
  236MOL0     C32440   3.039   2.484   0.824 -0.0903 -0.2824 -1.0287
  236MOL0     C32441   3.020   2.624   0.772 -0.5976 -0.3208 -0.0795
  236MOL0     C32442   3.055   2.730   0.880 -0.1530  0.1146  0.1596
  236MOL0     C32443   3.201   2.731   0.931  0.2899  0.2134  0.0298
  236MOL0     C32444   3.295   2.742   0.807 -0.5102  0.7166  0.7664
  236MOL0     C32445   3.441   2.757   0.843 -0.0729 -0.1470 -0.6673
  236MOL0     C32446   3.527   2.740   0.714 -0.0098  0.5197 -0.0262
  236MOL0     N32447   3.672   2.766   0.735  0.4582 -0.1372 -0.6207
  236MOL0     C32448   3.793   2.735   0.661  1.2348 -1.1121  0.3492
  236MOL0     C32449   3.897   2.774   0.734 -0.0822  0.3017  0.0948
  236MOL0     C32450   4.042   2.756   0.689  0.2066  0.5598  0.2659
  236MOL0     C32451   4.050   2.812   0.545  0.4113  1.1129  0.5757
  236MOL0     C32452   4.194   2.837   0.510  0.3931  0.2619  0.1792
  236MOL0     C32453   4.202   2.893   0.371 -0.7790  1.5155  0.6692
  236MOL0     O32454   4.335   2.935   0.350  0.0391 -0.2652  0.1058
  236MOL0     C32455   4.361   3.067   0.323  0.4563  0.4450  0.4077
  236MOL0     C32456   4.317   3.176   0.401  0.1345 -0.2690  0.4067
  236MOL0     C32457   4.359   3.303   0.369  0.4181 -0.9271 -0.3069
  236MOL0     C32458   4.303   3.423   0.453 -0.1476 -0.6219 -0.9006
  236MOL0     C32459   4.448   3.327   0.260  1.4334 -0.3067 -0.1222
  236MOL0     C32460   4.514   3.459   0.230 -0.2164 -0.9577  0.4215
  236MOL0     O32461   4.585   3.462   0.110  0.8979 -0.1020  0.4581
  236MOL0     C32462   4.655   3.577   0.081  0.5910  0.8921 -0.6068
  236MOL0     C32463   4.585   3.694   0.043 -0.3663 -0.4027  0.4375
  236MOL0     C32464   4.663   3.811   0.013  0.0112 -0.2067  0.0034
  236MOL0     C32465   4.804   3.810   0.023 -0.2171  0.0298 -1.0428
  236MOL0     O32466   4.894   3.913  -0.004  0.3986  0.5052  0.0496
  236MOL0     C32467   4.832   4.021  -0.076 -0.2419 -0.0157  0.2883
  236MOL0     C32468   4.939   4.105  -0.142 -0.1999  1.2083  0.0555
  236MOL0     C32469   4.884   4.224  -0.225 -0.0667  0.1596  0.8267
  236MOL0     C32470   4.986   4.320  -0.288  0.1266 -0.3710 -1.0181
  236MOL0     C32471   4.910   4.441  -0.356  0.3654 -0.1368  0.5172
  236MOL0     C32472   5.016   4.542  -0.414 -0.8075 -0.1834  0.3038
  236MOL0     C32473   5.092   4.492  -0.541  0.2781  0.3215 -0.2563
  236MOL0     C32474   5.163   4.605  -0.605  0.1258  0.1520 -0.0018
  236MOL0    Cl32475   5.233   4.565  -0.774 -0.1618  0.1215 -0.3871
  236MOL0     C32476   4.867   3.688   0.062 -0.6830 -0.9001  0.1612
  236MOL0     C32477   4.795   3.583   0.098  0.0538  0.2358  0.3703
  236MOL0     O32478   4.533   3.524   0.329  0.1018 -0.8628  0.3884
  236MOL0     C32479   4.494   3.211   0.190 -0.7252 -0.0585  0.7346
  236MOL0     C32480   4.446   3.084   0.208  0.9755  0.1954 -0.2001
  236MOL0     N32481   3.853   2.839   0.843  0.7179 -0.5562 -0.2619
  236MOL0     N32482   3.725   2.825   0.848  0.0209 -0.3922  0.3315
  236MOL0     C32483   2.758   2.187   0.685  0.3170  0.0926 -0.1259
  236MOL0     C32484   2.715   2.074   0.610 -0.7738 -0.2653 -0.1068
  236MOL0     C32485   2.688   1.748   0.321  0.4286 -0.0340 -0.0818
  236MOL0     C32486   2.795   1.676   0.268  0.2136  0.7440  0.8953
  236MOL0     C32487   2.778   1.545   0.224 -0.4047  0.5179  0.5757
  236MOL0     C32488   2.655   1.485   0.212 -0.5484  0.2123 -0.1088
  236MOL0     O32489   2.655   1.365   0.158  0.2236 -0.1554  0.1245
  236MOL0     C32490   2.552   1.276   0.196  0.5114  0.3066  0.5375
  236MOL0     C32491   2.584   1.131   0.175 -0.3681  0.4711 -0.1820
  236MOL0     C32492   2.473   1.038   0.207 -0.1048  0.6388 -0.2731
  236MOL0     C32493   2.508   0.892   0.176 -0.6979  0.2049  0.4993
  236MOL0     C32494   2.607   0.838   0.266  0.1802  0.0593  0.6198
  236MOL0     C32495   2.687   0.787   0.332  0.0740 -0.4042 -0.0609
  236MOL0     C32496   2.550   1.553   0.271  0.2284  0.3943 -1.6990
  236MOL0     C32497   2.566   1.678   0.330 -0.1857  0.3704 -0.6205
  236MOL0     C32498   2.449   1.737   0.400 -0.0667  0.5019  0.3576
  236MOL0     H32499   2.685   2.211   0.306  0.2062 -1.0562  0.4622
  236MOL0     H32500   2.786   2.407   0.433  0.0835  1.9956  1.4285
  236MOL0     H32501   3.055   2.377   0.643  3.1514 -1.4973  2.8048
  236MOL0     H32502   2.985   2.277   0.776  0.2492 -0.7068 -0.2144
  236MOL0     H32503   3.000   2.478   0.926  0.0112 -1.3034 -1.0374
  236MOL0     H32504   3.143   2.451   0.834  0.4248  1.1331 -1.4594
  236MOL0     H32505   3.080   2.634   0.681  0.1194 -1.9204  0.1755
  236MOL0     H32506   2.918   2.642   0.736 -0.6970  0.0977  0.4127
  236MOL0     H32507   3.030   2.832   0.849 -1.0267  0.1421  0.9220
  236MOL0     H32508   2.986   2.722   0.964 -4.0583 -1.7474 -2.9321
  236MOL0     H32509   3.234   2.646   0.991  1.5775  0.8422  0.2637
  236MOL0     H32510   3.207   2.817   0.999 -0.3779 -0.3403  0.8056
  236MOL0     H32511   3.289   2.647   0.753  1.7090  0.1327  1.4483
  236MOL0     H32512   3.262   2.825   0.743  1.3329  0.4582 -0.6084
  236MOL0     H32513   3.470   2.688   0.923 -2.4935 -1.7642 -1.0771
  236MOL0     H32514   3.445   2.857   0.886 -0.4164 -1.6570  3.2686
  236MOL0     H32515   3.509   2.634   0.693 -2.9056  0.5272  1.8193
  236MOL0     H32516   3.491   2.809   0.637  0.2926 -0.8724 -1.4568
  236MOL0     H32517   3.800   2.691   0.562 -1.2563 -0.6569 -0.0931
  236MOL0     H32518   4.074   2.652   0.673  1.3712  1.3194 -3.2875
  236MOL0     H32519   4.108   2.811   0.757  0.8987  1.8107 -1.3599
  236MOL0     H32520   4.007   2.742   0.472  1.7054 -0.8778  1.6142
  236MOL0     H32521   4.001   2.909   0.545 -0.3906  0.7202  1.0483
  236MOL0     H32522   4.226   2.911   0.584 -2.1619 -1.3870  3.1747
  236MOL0     H32523   4.267   2.756   0.515  0.4541  0.3800  1.5570
  236MOL0     H32524   4.186   2.814   0.297 -0.3234  1.8119  0.2487
  236MOL0     H32525   4.130   2.973   0.350 -3.5537 -1.4189 -2.0144
  236MOL0     H32526   4.244   3.174   0.481  0.6357  0.3132  0.9001
  236MOL0     H32527   4.224   3.392   0.522 -0.7274 -0.1974 -1.3672
  236MOL0     H32528   4.263   3.503   0.390  0.2648  0.9656  0.7658
  236MOL0     H32529   4.384   3.464   0.514 -0.4500 -0.0439 -0.8782
  236MOL0     H32530   4.478   3.685   0.032 -0.2058 -1.0529 -0.8401
  236MOL0     H32531   4.619   3.905  -0.020  2.8146  0.9630 -0.6709
  236MOL0     H32532   4.773   3.977  -0.158  0.2063 -0.0601 -0.0154
  236MOL0     H32533   4.766   4.077  -0.009  1.0016 -0.3546  1.8519
  236MOL0     H32534   5.008   4.132  -0.062  0.8115  1.8271 -0.9858
  236MOL0     H32535   4.993   4.034  -0.206  0.7682  1.5733  0.4507
  236MOL0     H32536   4.829   4.274  -0.145 -2.9919 -1.7127  0.1488
  236MOL0     H32537   4.801   4.195  -0.290  1.4918  0.2622 -1.3437
  236MOL0     H32538   5.031   4.250  -0.359 -3.5124 -4.5974  0.3411
  236MOL0     H32539   5.065   4.359  -0.223 -0.8145  0.7700 -0.5216
  236MOL0     H32540   4.836   4.406  -0.429 -1.5152 -1.2861  2.8547
  236MOL0     H32541   4.853   4.499  -0.284  2.0062 -0.6640  2.3189
  236MOL0     H32542   5.091   4.573  -0.342  2.6919 -2.4146 -2.0596
  236MOL0     H32543   4.963   4.631  -0.450 -0.1866  0.1532  0.2209
  236MOL0     H32544   5.011   4.458  -0.606  0.9080 -0.9777 -0.3984
  236MOL0     H32545   5.159   4.408  -0.517 -2.7644 -2.1801  0.0989
  236MOL0     H32546   5.237   4.636  -0.531 -0.3995 -1.3819  1.2187
  236MOL0     H32547   5.099   4.693  -0.615 -0.6950 -0.6329 -2.5817
  236MOL0     H32548   4.974   3.679   0.074 -0.5353 -0.4697 -0.7602
  236MOL0     H32549   4.843   3.489   0.128  0.4133  0.1385 -0.4842
  236MOL0     H32550   4.572   3.220   0.114 -0.7916 -1.0999  0.5356
  236MOL0     H32551   4.470   3.006   0.136 -2.5399 -1.2491 -0.0410
  236MOL0     H32552   2.762   2.188   0.793  0.0163 -0.7447 -0.0936
  236MOL0     H32553   2.686   1.985   0.663  2.6332 -0.8301  1.0610
  236MOL0     H32554   2.893   1.720   0.258  0.8453 -0.7950 -0.0554
  236MOL0     H32555   2.866   1.491   0.192  1.6801  1.1744  4.5822
  236MOL0     H32556   2.520   1.288   0.300  3.0460 -0.3499  1.4459
  236MOL0     H32557   2.473   1.302   0.124 -0.5022 -0.8979  1.1710
  236MOL0     H32558   2.657   1.109   0.253  0.5672  3.6058 -0.0458
  236MOL0     H32559   2.634   1.108   0.081  0.8338  0.7160  0.3819
  236MOL0     H32560   2.449   1.054   0.313 -0.0169 -1.5497  0.1112
  236MOL0     H32561   2.382   1.067   0.155  0.3387  1.3640 -0.6701
  236MOL0     H32562   2.556   0.883   0.078 -1.0348  1.1230  0.2386
  236MOL0     H32563   2.413   0.839   0.164 -0.5161 -0.0340  0.0947
  236MOL0     H32564   2.763   0.759   0.402  1.0062  1.3811 -0.3043
  236MOL0     H32565   2.456   1.501   0.285 -0.0283  0.9131 -1.4390
  236MOL0     H32566   2.376   1.665   0.438 -0.2047  0.5488  0.1862
  236MOL0     H32567   2.484   1.790   0.489  2.6481  2.5947 -1.7482
  236MOL0     H32568   2.405   1.810   0.331 -1.7573  2.5186  3.3810
  237MOL0     O32569   3.341   2.525   5.541  0.0314  0.6490 -0.0399
  237MOL0     C32570   3.347   2.642   5.488 -0.3945 -0.0359 -0.4075
  237MOL0     O32571   3.470   2.690   5.453 -0.0693 -0.2269  0.0489
  237MOL0     C32572   3.583   2.609   5.457 -0.0026  0.3656  0.4134
  237MOL0     C32573   3.682   2.646   5.361 -0.4084  0.1438  0.6854
  237MOL0     C32574   3.812   2.596   5.364  0.8822  0.2352  0.5653
  237MOL0     C32575   3.844   2.496   5.459  0.3504  0.2422  0.2200
  237MOL0     O32576   3.976   2.448   5.454  0.4240  0.1168  0.4700
  237MOL0     C32577   4.027   2.390   5.580 -0.0729 -0.9050  0.5955
  237MOL0     C32578   4.179   2.393   5.578  0.2476  0.5545  0.4921
  237MOL0     C32579   4.230   2.537   5.594  0.4841 -0.5741 -0.2842
  237MOL0     C32580   4.379   2.534   5.633  0.8936 -0.1962  0.7440
  237MOL0     C32581   4.408   2.679   5.666  0.0741 -0.3784 -0.5180
  237MOL0     C32582   4.563   2.688   5.692  0.5798 -0.0271 -0.4741
  237MOL0     C32583   4.613   2.830   5.717  0.2417  0.3973  0.3935
  237MOL0     C32584   4.563   2.942   5.614 -0.2631 -0.1324 -0.6844
  237MOL0     N32585   4.560   3.068   5.687 -0.7231  0.4963 -0.0703
  237MOL0     C32586   4.675   3.119   5.740 -0.1597  0.1362 -0.3106
  237MOL0     C32587   4.625   3.226   5.796  0.8734 -0.4573  0.2179
  237MOL0     C32588   4.703   3.329   5.868  0.7586 -0.0262 -0.0567
  237MOL0     C32589   4.733   3.265   6.004  0.5173 -0.4227 -0.4884
  237MOL0     C32590   4.772   3.362   6.118 -0.1563 -0.5237 -0.8919
  237MOL0     C32591   4.899   3.443   6.093  0.1211  0.1152  0.3088
  237MOL0     O32592   5.001   3.353   6.055  0.1488  0.5165 -0.3207
  237MOL0     C32593   5.129   3.365   6.114 -1.0899 -0.2752  0.2874
  237MOL0     C32594   5.150   3.398   6.246 -0.4580 -0.5919  0.1312
  237MOL0     C32595   5.283   3.415   6.302 -0.4851 -0.9131  0.6223
  237MOL0     C32596   5.298   3.469   6.446  0.0945 -0.1067  0.7796
  237MOL0     C32597   5.395   3.386   6.212  0.7554 -0.0483  0.3562
  237MOL0     C32598   5.532   3.378   6.255  0.3055 -0.5665  0.1932
  237MOL0     O32599   5.611   3.388   6.146 -0.9913  0.5436  0.2770
  237MOL0     C32600   5.741   3.339   6.141  0.4986  0.7503  0.5011
  237MOL0     C32601   5.821   3.401   6.040  0.0826 -0.9706 -0.8351
  237MOL0     C32602   5.958   3.364   6.016 -0.6903  0.8785 -0.9350
  237MOL0     C32603   6.013   3.268   6.101  0.7490  0.1515 -0.9034
  237MOL0     O32604   6.142   3.203   6.090  0.6298  0.1872  0.0581
  237MOL0     C32605   6.219   3.213   5.967 -0.7619 -0.5841 -0.8258
  237MOL0     C32606   6.359   3.148   5.991 -0.0753  0.2864  1.1171
  237MOL0     C32607   6.361   3.016   6.067 -0.2320 -0.3874 -0.4599
  237MOL0     C32608   6.295   2.898   5.986  0.2067  0.0655 -0.2181
  237MOL0     C32609   6.323   2.753   6.059  0.3273 -1.3594  0.7852
  237MOL0     C32610   6.281   2.641   5.968  0.2473 -0.4140  0.3391
  237MOL0     C32611   6.291   2.501   6.032 -0.9886  0.3638 -0.2022
  237MOL0     C32612   6.410   2.417   5.988  0.1651  0.5440 -0.4571
  237MOL0    Cl32613   6.552   2.497   6.054 -0.1142 -0.4590  0.1989
  237MOL0     C32614   5.932   3.221   6.208 -0.0133  0.2582 -0.4313
  237MOL0     C32615   5.796   3.244   6.222 -0.3946 -0.7467 -0.6123
  237MOL0     O32616   5.570   3.356   6.372  0.2297 -0.3994 -0.0405
  237MOL0     C32617   5.373   3.357   6.079  0.3168 -1.3487  0.3995
  237MOL0     C32618   5.246   3.341   6.039  0.0538 -0.2297  0.5020
  237MOL0     N32619   4.490   3.247   5.767  0.6208 -0.1944  0.5577
  237MOL0     N32620   4.454   3.151   5.696  0.7985 -0.6280 -0.2866
  237MOL0     C32621   3.741   2.448   5.547  0.3392  0.7456  0.4843
  237MOL0     C32622   3.610   2.507   5.549 -0.5953  0.8204  0.1516
  237MOL0     C32623   3.221   2.732   5.471  0.3539  0.3338  0.5172
  237MOL0     C32624   3.098   2.686   5.533  0.1029  0.0966 -0.7201
  237MOL0     C32625   2.985   2.770   5.540 -0.1191  0.3512  0.1812
  237MOL0     C32626   2.987   2.897   5.480  0.2521  0.4865 -0.3251
  237MOL0     O32627   2.882   2.986   5.496 -0.0266  0.1070  0.0373
  237MOL0     C32628   2.864   3.026   5.637 -0.5548  0.6836  0.3412
  237MOL0     C32629   2.721   3.076   5.645 -1.4091 -0.7004 -0.1216
  237MOL0     C32630   2.630   2.955   5.643 -0.6048  0.0530 -1.0307
  237MOL0     C32631   2.490   2.997   5.673  0.1030  0.6706  0.6938
  237MOL0     C32632   2.466   3.052   5.811 -0.4216  0.3916  0.1234
  237MOL0     C32633   2.466   3.115   5.910 -1.2464 -0.2094 -0.1429
  237MOL0     C32634   3.101   2.932   5.400 -0.1962 -0.8456 -0.4864
  237MOL0     C32635   3.212   2.846   5.392 -0.3636 -0.4236 -0.4615
  237MOL0     C32636   3.320   2.912   5.316  0.1515 -0.8016 -0.3545
  237MOL0     H32637   3.644   2.718   5.289 -0.7281 -0.3254  0.3768
  237MOL0     H32638   3.880   2.625   5.285  1.0343 -1.2113  0.1332
  237MOL0     H32639   4.000   2.284   5.588 -0.3287 -0.9067 -0.1691
  237MOL0     H32640   3.982   2.445   5.662 -2.9859 -2.3560  0.0838
  237MOL0     H32641   4.221   2.326   5.653  2.6437  0.4588 -0.8589
  237MOL0     H32642   4.215   2.348   5.485 -0.1687 -1.8186  1.3995
  237MOL0     H32643   4.217   2.584   5.496 -2.4305 -0.1135  0.2065
  237MOL0     H32644   4.173   2.588   5.673  1.0546  1.0034 -0.8438
  237MOL0     H32645   4.401   2.461   5.710 -0.0074 -2.6424 -1.1801
  237MOL0     H32646   4.430   2.498   5.543  1.1000 -0.3232  0.9135
  237MOL0     H32647   4.360   2.722   5.754  0.6723  2.3756 -1.4549
  237MOL0     H32648   4.374   2.741   5.583 -1.5542  0.5550  0.7885
  237MOL0     H32649   4.577   2.636   5.787  2.4238 -0.5594 -0.9966
  237MOL0     H32650   4.625   2.644   5.613  0.1217 -1.4677 -0.0512
  237MOL0     H32651   4.722   2.840   5.721  0.1163  2.8588 -0.2573
  237MOL0     H32652   4.581   2.868   5.814  1.4235 -0.2043  1.0369
  237MOL0     H32653   4.611   2.946   5.515 -1.4241 -2.9294 -1.4609
  237MOL0     H32654   4.458   2.917   5.595 -1.7933  3.1763  2.2059
  237MOL0     H32655   4.777   3.082   5.744 -0.0477  0.5111  0.4516
  237MOL0     H32656   4.645   3.421   5.881 -2.2695 -1.2996 -2.9837
  237MOL0     H32657   4.787   3.357   5.804 -0.2608 -0.1788 -1.5224
  237MOL0     H32658   4.642   3.215   6.038  0.4799  0.8892  1.5016
  237MOL0     H32659   4.804   3.182   5.991 -0.5753 -1.2555 -1.3288
  237MOL0     H32660   4.691   3.427   6.151  0.1129 -0.0183 -1.2066
  237MOL0     H32661   4.793   3.295   6.201  1.3214  1.0179  0.0328
  237MOL0     H32662   4.891   3.512   6.009  0.2267  1.9863  1.7551
  237MOL0     H32663   4.931   3.494   6.184  0.7345  0.0812  0.1149
  237MOL0     H32664   5.066   3.413   6.313  1.9135  0.1284  3.1488
  237MOL0     H32665   5.392   3.430   6.487  0.0157 -0.5493  0.5444
  237MOL0     H32666   5.216   3.426   6.503 -1.5305  0.5399 -0.9696
  237MOL0     H32667   5.295   3.579   6.452 -0.0494 -0.0728  0.1892
  237MOL0     H32668   5.772   3.482   5.987  0.2326  0.9285  1.7621
  237MOL0     H32669   6.017   3.404   5.934  1.5123  1.5478  0.8662
  237MOL0     H32670   6.172   3.160   5.884  2.8090 -2.2785 -1.9603
  237MOL0     H32671   6.234   3.319   5.943  0.0465 -0.4732  0.0728
  237MOL0     H32672   6.403   3.119   5.895 -1.1935 -2.1174  1.2406
  237MOL0     H32673   6.413   3.229   6.041  1.6472  0.0099 -0.1820
  237MOL0     H32674   6.316   3.044   6.162  1.9346  3.8762 -0.4768
  237MOL0     H32675   6.464   2.983   6.088 -0.8943 -1.3910  1.4144
  237MOL0     H32676   6.355   2.896   5.894  0.8470  0.1810  0.1927
  237MOL0     H32677   6.191   2.914   5.957  0.6715 -0.1820 -2.1986
  237MOL0     H32678   6.430   2.746   6.080  1.2558 -0.8186 -3.0895
  237MOL0     H32679   6.286   2.738   6.161  2.2511 -0.1323  1.7398
  237MOL0     H32680   6.342   2.641   5.877  0.4629  0.0767  0.4788
  237MOL0     H32681   6.180   2.660   5.931  0.4128 -0.1615  0.0107
  237MOL0     H32682   6.208   2.436   6.002  1.0086 -2.5513  0.1395
  237MOL0     H32683   6.289   2.500   6.142  1.2201 -0.8388 -0.1351
  237MOL0     H32684   6.422   2.429   5.879 -2.6672  1.2112 -0.7665
  237MOL0     H32685   6.399   2.313   6.019 -0.0307  1.3408  2.3519
  237MOL0     H32686   5.977   3.161   6.286  2.0265  2.0044 -0.1839
  237MOL0     H32687   5.735   3.205   6.303 -0.8162 -0.4755 -0.7965
  237MOL0     H32688   5.443   3.326   6.001 -0.0582 -1.5964  0.1564
  237MOL0     H32689   5.237   3.315   5.934  1.2441 -0.8014  0.5380
  237MOL0     H32690   3.769   2.364   5.609 -2.3133 -2.0235 -1.7356
  237MOL0     H32691   3.543   2.471   5.627 -2.3176  0.3805 -1.4790
  237MOL0     H32692   3.106   2.593   5.589  4.5902  0.0799 -1.0267
  237MOL0     H32693   2.897   2.744   5.599  0.6182 -1.9471  0.3519
  237MOL0     H32694   2.879   2.934   5.695 -0.4774  1.5831  1.7868
  237MOL0     H32695   2.937   3.098   5.674  1.2029 -1.3502  1.0118
  237MOL0     H32696   2.697   3.144   5.563 -1.5383 -0.0904  0.4107
  237MOL0     H32697   2.717   3.129   5.741 -2.2046 -1.6780  0.3931
  237MOL0     H32698   2.635   2.910   5.544 -1.4742  0.0110 -1.0648
  237MOL0     H32699   2.668   2.891   5.723  0.6012  2.0656  0.1191
  237MOL0     H32700   2.430   2.907   5.658 -0.9747  1.0969  2.1518
  237MOL0     H32701   2.459   3.070   5.598 -1.7072 -0.2165  0.5216
  237MOL0     H32702   2.456   3.179   5.995 -0.8439 -1.3542  0.7819
  237MOL0     H32703   3.106   3.031   5.355  0.7226 -0.6546 -0.0025
  237MOL0     H32704   3.338   2.856   5.223  0.8497 -2.0015  0.4628
  237MOL0     H32705   3.301   3.018   5.300  0.1959 -0.6701  0.4611
  237MOL0     H32706   3.416   2.905   5.369  0.1235 -0.4976 -0.2652
  238MOL0     O32707   7.908   7.833   2.389  0.1920 -0.0703 -0.4934
  238MOL0     C32708   7.968   7.934   2.353  1.1109 -0.0779 -0.1471
  238MOL0     O32709   7.920   8.067   2.363 -0.1985  0.2813 -0.2371
  238MOL0     C32710   7.803   8.091   2.429  0.8626  0.7222 -0.6612
  238MOL0     C32711   7.792   8.152   2.554 -0.1577 -0.5991 -0.1783
  238MOL0     C32712   7.667   8.189   2.613  0.9243 -0.1893 -0.0278
  238MOL0     C32713   7.543   8.142   2.557 -0.2863  0.3825  0.4027
  238MOL0     O32714   7.419   8.168   2.615  0.4798 -0.2401 -0.5427
  238MOL0     C32715   7.415   8.240   2.738 -0.0476 -0.3513  0.3169
  238MOL0     C32716   7.452   8.156   2.864 -0.4647 -0.2454 -0.6423
  238MOL0     C32717   7.348   8.042   2.883 -0.3307  0.4941  0.4337
  238MOL0     C32718   7.364   7.954   3.011  0.3663  0.0267 -0.4211
  238MOL0     C32719   7.297   7.816   3.001 -0.2590 -0.4256 -0.3684
  238MOL0     C32720   7.148   7.814   2.956 -0.1512  0.2859  0.4636
  238MOL0     C32721   7.088   7.681   3.002  0.0912  0.1348 -0.6349
  238MOL0     C32722   7.001   7.701   3.133 -0.5786  0.0800  0.2492
  238MOL0     N32723   7.072   7.789   3.233  1.0566  0.5551  0.1123
  238MOL0     C32724   7.037   7.916   3.261 -0.1729 -0.1250  1.0570
  238MOL0     C32725   7.087   7.935   3.389 -0.4925  1.3672 -0.1744
  238MOL0     C32726   7.076   8.055   3.479  0.2457 -1.0823  1.3230
  238MOL0     C32727   7.204   8.136   3.497 -0.0410 -0.1417  0.1470
  238MOL0     C32728   7.187   8.260   3.584  0.6121  0.1840 -0.3750
  238MOL0     C32729   7.304   8.361   3.576  0.7443  0.4629 -1.5280
  238MOL0     O32730   7.425   8.289   3.588 -0.6919  0.9927 -0.2731
  238MOL0     C32731   7.545   8.356   3.601  0.1275  0.0950 -0.0232
  238MOL0     C32732   7.661   8.282   3.595 -1.0947 -0.5742 -0.0792
  238MOL0     C32733   7.794   8.345   3.588 -0.8575  0.0490  0.6473
  238MOL0     C32734   7.914   8.255   3.583  0.2701  1.3206  1.0183
  238MOL0     C32735   7.802   8.480   3.609  0.0853  0.1517  0.4200
  238MOL0     C32736   7.933   8.553   3.615  0.6078 -0.3860 -0.2234
  238MOL0     O32737   8.051   8.494   3.574 -0.0901 -0.1388 -0.6006
  238MOL0     C32738   8.164   8.579   3.586 -0.6065 -0.1270  0.3000
  238MOL0     C32739   8.193   8.648   3.698 -0.3203 -0.4608  0.4798
  238MOL0     C32740   8.305   8.730   3.698  0.2456  1.0348  0.3570
  238MOL0     C32741   8.402   8.727   3.594 -0.6088 -0.1522 -0.5703
  238MOL0     O32742   8.526   8.779   3.613  0.3950  0.4684  0.4405
  238MOL0     C32743   8.612   8.704   3.692 -0.0612 -0.3031 -0.5741
  238MOL0     C32744   8.757   8.723   3.644  0.1927 -0.1781 -0.8181
  238MOL0     C32745   8.807   8.864   3.675 -0.1130  0.1888 -0.5986
  238MOL0     C32746   8.954   8.884   3.623  0.0068 -0.5048 -0.8943
  238MOL0     C32747   9.011   9.010   3.685  0.0981 -0.1800 -0.0825
  238MOL0     C32748   9.145   9.047   3.623 -0.7086  0.0831  0.2551
  238MOL0     C32749   9.201   9.182   3.683 -0.1375 -0.4862  0.1128
  238MOL0     C32750   9.324   9.227   3.600 -0.5730  0.6677 -0.2527
  238MOL0    Cl32751   9.472   9.156   3.664 -0.1877  0.1195 -0.0911
  238MOL0     C32752   8.379   8.645   3.489  0.5345 -0.1105 -1.0131
  238MOL0     C32753   8.266   8.569   3.485  0.5809 -0.4226 -0.4854
  238MOL0     O32754   7.916   8.671   3.662  0.1776  0.3857  0.2054
  238MOL0     C32755   7.680   8.555   3.623 -0.7773  0.1889  0.7057
  238MOL0     C32756   7.557   8.497   3.601 -0.9898 -0.1957 -0.9339
  238MOL0     N32757   7.151   7.820   3.427  0.4574  0.4906 -0.5919
  238MOL0     N32758   7.131   7.734   3.342  0.1665  0.0895  0.8566
  238MOL0     C32759   7.552   8.095   2.429 -0.1086  0.3899 -0.0214
  238MOL0     C32760   7.676   8.080   2.369  0.1696 -0.6151  0.1941
  238MOL0     C32761   8.113   7.916   2.303  0.4831 -0.2085  0.5798
  238MOL0     C32762   8.215   7.968   2.382 -0.0792 -0.2521  0.0074
  238MOL0     C32763   8.350   7.956   2.350  0.1353 -0.1606  0.8932
  238MOL0     C32764   8.385   7.895   2.230 -0.7821  1.3104  0.7525
  238MOL0     O32765   8.514   7.878   2.190 -0.2775 -1.0268 -0.1878
  238MOL0     C32766   8.615   7.968   2.251  0.0374  0.1776 -0.4130
  238MOL0     C32767   8.751   7.937   2.199 -0.0498  0.3802 -0.1124
  238MOL0     C32768   8.852   8.033   2.262 -0.8578 -0.3322 -0.1006
  238MOL0     C32769   8.995   8.001   2.228  0.6652  0.5310 -0.2220
  238MOL0     C32770   9.028   8.023   2.091 -0.0625 -0.2607  0.8650
  238MOL0     C32771   9.036   8.030   1.966  0.2826  0.7626 -0.4877
  238MOL0     C32772   8.281   7.828   2.159  0.1357  0.4416 -0.5861
  238MOL0     C32773   8.144   7.839   2.186 -0.9496  0.1695 -0.5486
  238MOL0     C32774   8.046   7.764   2.096  0.2931  0.2753  0.6185
  238MOL0     H32775   7.876   8.176   2.618  1.8925 -4.5099 -1.0849
  238MOL0     H32776   7.666   8.247   2.704 -1.7947  2.0724 -1.3250
  238MOL0     H32777   7.308   8.260   2.745  0.1533  0.2605  2.1255
  238MOL0     H32778   7.468   8.336   2.748 -0.5925  0.1069 -1.0083
  238MOL0     H32779   7.557   8.123   2.865 -0.9309 -1.8355  1.5228
  238MOL0     H32780   7.454   8.225   2.949  1.4424 -0.8447 -0.1583
  238MOL0     H32781   7.250   8.090   2.891 -0.2816  0.8745 -1.0461
  238MOL0     H32782   7.353   7.978   2.795  3.1809  1.0072  0.0944
  238MOL0     H32783   7.469   7.959   3.042  0.5290 -0.8286 -0.8160
  238MOL0     H32784   7.299   8.012   3.078 -2.0359 -1.1723 -1.5807
  238MOL0     H32785   7.309   7.770   3.099 -0.1298  1.7759  0.7244
  238MOL0     H32786   7.356   7.757   2.931  1.1773 -0.1827  0.5855
  238MOL0     H32787   7.090   7.898   2.994  3.6187  2.8444  1.0711
  238MOL0     H32788   7.145   7.814   2.847 -0.4109 -0.4323  0.4617
  238MOL0     H32789   7.163   7.603   3.017  0.0570  0.0769 -0.7612
  238MOL0     H32790   7.026   7.652   2.917 -1.2642  2.1177 -0.3825
  238MOL0     H32791   6.901   7.744   3.117 -0.9017 -0.0021  1.8715
  238MOL0     H32792   6.977   7.599   3.165  1.3662 -0.4841  0.0098
  238MOL0     H32793   6.983   7.982   3.194  1.3394 -1.4625 -1.6438
  238MOL0     H32794   7.051   8.022   3.581 -2.0232 -1.8207  0.5765
  238MOL0     H32795   7.005   8.129   3.442  0.9195 -0.4692  1.2334
  238MOL0     H32796   7.276   8.069   3.545 -0.6321 -0.2204  0.9459
  238MOL0     H32797   7.248   8.156   3.399 -1.1821  1.7431 -0.0140
  238MOL0     H32798   7.091   8.307   3.559  0.5564  1.0814  1.3585
  238MOL0     H32799   7.178   8.241   3.692  2.4947 -2.2548 -0.5720
  238MOL0     H32800   7.300   8.420   3.484 -0.6160  3.5628  0.3438
  238MOL0     H32801   7.301   8.422   3.667  1.0809 -2.4074  0.5539
  238MOL0     H32802   7.660   8.174   3.586  0.8382 -0.4329 -3.6800
  238MOL0     H32803   7.885   8.150   3.587  1.9301  0.5667 -2.8097
  238MOL0     H32804   7.973   8.274   3.673  4.0646 -0.8095 -0.8051
  238MOL0     H32805   7.975   8.262   3.493  1.1402 -2.1021  1.2084
  238MOL0     H32806   8.128   8.652   3.785  0.5352 -0.6555  1.1430
  238MOL0     H32807   8.324   8.780   3.793 -4.6404 -0.3385  2.3899
  238MOL0     H32808   8.601   8.722   3.799  0.8837  2.4850 -0.8704
  238MOL0     H32809   8.572   8.603   3.675 -0.5676  0.0502 -1.5806
  238MOL0     H32810   8.815   8.646   3.696 -0.7050  1.1386  2.3909
  238MOL0     H32811   8.764   8.694   3.539 -0.8882 -2.3125 -0.3768
  238MOL0     H32812   8.798   8.893   3.780 -2.6854  0.4869 -0.8388
  238MOL0     H32813   8.750   8.936   3.617 -0.9867  1.5082  1.7580
  238MOL0     H32814   8.948   8.915   3.518 -1.3988  1.1489 -0.3460
  238MOL0     H32815   9.013   8.793   3.638 -0.0697 -0.7527 -1.9931
  238MOL0     H32816   8.940   9.090   3.662 -0.1832 -0.5603 -0.5541
  238MOL0     H32817   9.017   8.996   3.793 -0.8516 -3.7149 -0.3563
  238MOL0     H32818   9.133   9.051   3.514 -0.5739 -0.9065  0.1956
  238MOL0     H32819   9.218   8.968   3.640 -2.0978 -1.1006  0.9439
  238MOL0     H32820   9.224   9.171   3.790 -2.1067  1.9349  0.8582
  238MOL0     H32821   9.124   9.259   3.688  0.6258  0.2395  1.3397
  238MOL0     H32822   9.334   9.335   3.613  1.8590  0.3285  1.3802
  238MOL0     H32823   9.312   9.211   3.493  3.1752  0.9001 -0.8320
  238MOL0     H32824   8.449   8.664   3.408 -0.3059  3.8167 -1.0286
  238MOL0     H32825   8.239   8.509   3.398 -0.1213 -1.1797  0.2366
  238MOL0     H32826   7.686   8.664   3.628 -3.6058  0.3560  2.0166
  238MOL0     H32827   7.477   8.570   3.595  1.1322  2.4288  0.4297
  238MOL0     H32828   7.467   8.077   2.363 -0.0864 -1.9600  0.5048
  238MOL0     H32829   7.692   8.049   2.266  0.1686 -3.0295  0.8559
  238MOL0     H32830   8.203   8.026   2.473  0.6390 -0.5084  0.2775
  238MOL0     H32831   8.424   7.992   2.421  1.2781 -0.5466 -0.0780
  238MOL0     H32832   8.592   8.069   2.216  0.4192  0.4336  0.0667
  238MOL0     H32833   8.611   7.958   2.360 -1.0133 -2.8523 -0.6170
  238MOL0     H32834   8.743   7.940   2.089 -1.3152  2.2273 -0.0073
  238MOL0     H32835   8.786   7.836   2.223 -0.2515  0.5014  0.7169
  238MOL0     H32836   8.828   8.137   2.239  0.7329 -0.1216 -0.8976
  238MOL0     H32837   8.852   8.033   2.372 -0.6008  0.6605 -0.0933
  238MOL0     H32838   9.002   7.896   2.257 -1.0177  0.4403 -0.0078
  238MOL0     H32839   9.070   8.049   2.291 -0.0054 -0.2172  1.1836
  238MOL0     H32840   9.052   8.027   1.860  1.2066 -1.7688 -0.3368
  238MOL0     H32841   8.323   7.775   2.074 -0.0116 -1.1763  0.2938
  238MOL0     H32842   8.006   7.674   2.144 -2.7352  1.8757  1.4161
  238MOL0     H32843   7.967   7.832   2.061  2.4461  0.5490 -4.7024
  238MOL0     H32844   8.092   7.742   1.999  0.1943 -2.2811  1.0864
  239MOL0     O32845   6.800   7.552   5.381 -0.3053  0.0576  0.5910
  239MOL0     C32846   6.782   7.435   5.425 -0.0933 -0.3044 -0.4405
  239MOL0     O32847   6.670   7.358   5.417 -0.5999  0.6458  0.5098
  239MOL0     C32848   6.561   7.399   5.354  0.2991  0.4844  0.0619
  239MOL0     C32849   6.567   7.417   5.219 -1.0952  0.7329 -0.4820
  239MOL0     C32850   6.451   7.447   5.156  0.1770  0.4859 -0.1241
  239MOL0     C32851   6.324   7.467   5.231 -0.4748  0.0793 -0.0404
  239MOL0     O32852   6.202   7.474   5.168 -0.3493 -0.2796 -0.4036
  239MOL0     C32853   6.187   7.504   5.034  0.2343  0.7514  0.4214
  239MOL0     C32854   6.044   7.483   5.012  0.3582  0.7217 -0.1927
  239MOL0     C32855   5.959   7.607   5.059 -0.7466  0.5974  0.3595
  239MOL0     C32856   5.815   7.605   5.011 -0.1150  0.1382  0.4104
  239MOL0     C32857   5.792   7.674   4.876 -0.0426  0.2949 -0.7864
  239MOL0     C32858   5.660   7.640   4.806 -0.6768 -0.1058  0.3478
  239MOL0     C32859   5.631   7.723   4.677 -0.3047  0.4692  0.0531
  239MOL0     C32860   5.722   7.693   4.550  0.5075 -0.2294  0.0025
  239MOL0     N32861   5.699   7.789   4.450  0.0664 -0.2866  0.0701
  239MOL0     C32862   5.715   7.929   4.476  0.1848 -0.0068 -0.7782
  239MOL0     C32863   5.655   7.995   4.379 -0.0909  0.7867 -0.7679
  239MOL0     C32864   5.647   8.151   4.372 -0.4798  0.4371 -0.0233
  239MOL0     C32865   5.757   8.197   4.279  0.2346  0.6245  0.4836
  239MOL0     C32866   5.760   8.347   4.258  0.7240 -0.2059  0.2804
  239MOL0     C32867   5.625   8.419   4.232 -0.1569 -0.8873  0.6582
  239MOL0     O32868   5.649   8.545   4.161  0.2661  0.0094 -0.3210
  239MOL0     C32869   5.540   8.615   4.108  0.1490 -0.0777  0.0846
  239MOL0     C32870   5.404   8.571   4.103 -0.0982 -0.6723 -0.2723
  239MOL0     C32871   5.304   8.653   4.048 -0.9355  0.5864  0.4780
  239MOL0     C32872   5.169   8.590   4.037 -0.1893 -0.6981  0.5730
  239MOL0     C32873   5.338   8.778   3.993  0.6080  0.7195 -0.4023
  239MOL0     C32874   5.233   8.876   3.958 -0.5417 -0.0753 -0.4815
  239MOL0     O32875   5.260   8.959   3.856  0.3760  0.3388 -0.1991
  239MOL0     C32876   5.160   9.050   3.835 -0.9045  0.3159 -0.7623
  239MOL0     C32877   5.192   9.178   3.854 -0.4643  0.7320  1.0444
  239MOL0     C32878   5.104   9.280   3.818 -0.3955 -0.6630 -0.3494
  239MOL0     C32879   4.981   9.255   3.749  0.3470  0.0271 -0.2707
  239MOL0     O32880   4.892   9.359   3.740 -0.3391  0.1224  0.5504
  239MOL0     C32881   4.751   9.330   3.741  0.5390  0.6969  0.5176
  239MOL0     C32882   4.675   9.462   3.754  0.1856  0.4486 -0.0446
  239MOL0     C32883   4.528   9.462   3.721  0.3513 -0.2858  0.6046
  239MOL0     C32884   4.453   9.342   3.796  0.5009 -0.2859 -0.0766
  239MOL0     C32885   4.304   9.350   3.782  0.2843 -0.1000 -0.0634
  239MOL0     C32886   4.238   9.361   3.638 -0.2515  0.1970  0.3901
  239MOL0     C32887   4.254   9.240   3.546  0.4264 -0.9876  0.2672
  239MOL0     C32888   4.229   9.100   3.617 -0.2048  0.5199 -0.1916
  239MOL0    Cl32889   4.176   8.968   3.502  0.3967  0.4606 -0.0233
  239MOL0     C32890   4.941   9.119   3.736  0.6252  0.4637  0.4787
  239MOL0     C32891   5.032   9.015   3.782 -0.8223 -0.3268 -0.1258
  239MOL0     O32892   5.138   8.886   4.032  0.3876 -0.3199 -0.2401
  239MOL0     C32893   5.470   8.824   3.995 -0.3080  0.5727  1.1214
  239MOL0     C32894   5.566   8.743   4.050  0.0257  0.0920  0.1956
  239MOL0     N32895   5.605   7.898   4.286 -0.5603 -0.2893 -0.2381
  239MOL0     N32896   5.628   7.782   4.336 -0.0384  0.0195 -0.2090
  239MOL0     C32897   6.332   7.457   5.367  0.4182  0.2739 -0.3073
  239MOL0     C32898   6.447   7.415   5.429  0.3001 -0.3531 -0.5441
  239MOL0     C32899   6.890   7.373   5.508 -0.7901 -0.9345  0.4363
  239MOL0     C32900   6.891   7.235   5.522  0.0235  0.7679 -0.1778
  239MOL0     C32901   6.985   7.169   5.598 -1.2658  0.8528  0.2461
  239MOL0     C32902   7.096   7.235   5.652  0.2491 -0.5156  0.1049
  239MOL0     O32903   7.198   7.175   5.709 -0.0791  0.2858 -0.7714
  239MOL0     C32904   7.162   7.132   5.841 -0.1530 -0.4500  0.3013
  239MOL0     C32905   7.223   7.225   5.954  0.0859 -0.2436  0.0103
  239MOL0     C32906   7.371   7.252   5.916 -0.3504 -0.3993  0.5687
  239MOL0     C32907   7.446   7.348   6.011  0.2123 -0.0705  0.5664
  239MOL0     C32908   7.483   7.281   6.140 -0.5029  0.3370  0.0363
  239MOL0     C32909   7.500   7.225   6.246 -0.3939 -0.6236 -0.0429
  239MOL0     C32910   7.108   7.367   5.630  0.1171 -0.4837 -0.1418
  239MOL0     C32911   7.007   7.445   5.562  0.5426  0.8356 -0.6205
  239MOL0     C32912   7.050   7.589   5.537 -0.1734 -0.9152  0.3668
  239MOL0     H32913   6.660   7.397   5.166 -1.2542  2.7106 -1.5958
  239MOL0     H32914   6.454   7.434   5.048 -1.2331  0.1465 -0.1374
  239MOL0     H32915   6.242   7.443   4.962 -3.2184 -0.6102 -1.2863
  239MOL0     H32916   6.212   7.609   5.015  0.9400  0.7056  1.0592
  239MOL0     H32917   6.030   7.469   4.905  1.3958  2.0753 -0.5360
  239MOL0     H32918   5.999   7.404   5.072  0.0892  2.8146  2.5705
  239MOL0     H32919   5.962   7.622   5.167 -3.1072  0.6664  0.4582
  239MOL0     H32920   6.013   7.690   5.012  0.4797 -0.2061  0.2972
  239MOL0     H32921   5.789   7.499   4.999 -1.5414  0.5718 -0.5260
  239MOL0     H32922   5.742   7.637   5.087  0.0928  0.1758  0.5964
  239MOL0     H32923   5.875   7.637   4.816  1.2398 -0.5398  1.3651
  239MOL0     H32924   5.808   7.781   4.892 -1.8612  0.3379  1.2676
  239MOL0     H32925   5.666   7.532   4.788 -1.0894  0.1440 -1.4410
  239MOL0     H32926   5.572   7.642   4.870 -1.7920 -1.7864 -1.0652
  239MOL0     H32927   5.648   7.828   4.704  0.8787  0.4949 -0.7250
  239MOL0     H32928   5.528   7.712   4.642 -0.3836  1.1872  0.0339
  239MOL0     H32929   5.829   7.687   4.569  0.7719 -0.5596 -1.4724
  239MOL0     H32930   5.697   7.597   4.504  0.0625 -2.1474  3.9101
  239MOL0     H32931   5.763   7.972   4.563 -0.8990  0.2402 -0.2911
  239MOL0     H32932   5.654   8.190   4.474  1.3244  2.1262 -0.7382
  239MOL0     H32933   5.551   8.182   4.329 -0.8848 -1.3069 -0.4628
  239MOL0     H32934   5.847   8.172   4.336 -1.6190  1.8287  4.2736
  239MOL0     H32935   5.763   8.151   4.180  2.1139  2.8155 -0.5121
  239MOL0     H32936   5.809   8.396   4.343  0.2565  3.3257 -1.3016
  239MOL0     H32937   5.830   8.362   4.175 -0.4797  2.7240 -0.3127
  239MOL0     H32938   5.578   8.353   4.158 -0.0776 -0.2128 -0.0018
  239MOL0     H32939   5.555   8.438   4.313  0.8740  0.7883  1.2143
  239MOL0     H32940   5.378   8.472   4.140  2.2843 -0.6321  1.7622
  239MOL0     H32941   5.177   8.509   3.964 -0.3829 -1.4255  1.3468
  239MOL0     H32942   5.093   8.656   3.995  1.1215 -0.0116 -0.8390
  239MOL0     H32943   5.137   8.548   4.133  1.2189 -0.4283  1.1816
  239MOL0     H32944   5.291   9.202   3.891 -1.2998  1.3603  2.9827
  239MOL0     H32945   5.138   9.380   3.842  2.5050 -2.1846  2.7472
  239MOL0     H32946   4.725   9.279   3.648 -0.3562 -0.8996  1.6081
  239MOL0     H32947   4.725   9.270   3.828  1.7981  0.3403  0.6657
  239MOL0     H32948   4.689   9.492   3.858  1.5055  0.4540 -0.2049
  239MOL0     H32949   4.720   9.547   3.700  0.6404  0.3106  0.1127
  239MOL0     H32950   4.517   9.468   3.612 -0.1372 -2.1747  0.5161
  239MOL0     H32951   4.488   9.558   3.757 -0.8841 -0.6096  0.1471
  239MOL0     H32952   4.473   9.327   3.903 -0.0038 -1.1213 -0.0951
  239MOL0     H32953   4.480   9.246   3.752 -1.0157 -2.3754  3.1480
  239MOL0     H32954   4.258   9.271   3.841  0.3409  0.6837  1.0747
  239MOL0     H32955   4.283   9.443   3.837 -0.2801 -1.6226  2.4576
  239MOL0     H32956   4.275   9.437   3.568  0.5611 -2.0190 -1.7455
  239MOL0     H32957   4.129   9.365   3.646 -0.5886  0.1004 -2.7756
  239MOL0     H32958   4.354   9.249   3.503 -0.1043  1.2420 -0.6346
  239MOL0     H32959   4.187   9.248   3.460  0.3747 -0.8320  0.3226
  239MOL0     H32960   4.163   9.105   3.704  0.6343 -2.4804  0.7367
  239MOL0     H32961   4.318   9.078   3.676 -0.6817  0.8023  0.6584
  239MOL0     H32962   4.853   9.077   3.688  2.5325 -3.8780  0.3013
  239MOL0     H32963   4.997   8.913   3.794 -2.2838  0.3612  1.9988
  239MOL0     H32964   5.493   8.907   3.930  2.3299 -0.7829  0.1857
  239MOL0     H32965   5.671   8.770   4.052 -0.0477  0.3774  2.6768
  239MOL0     H32966   6.240   7.475   5.421  1.3222  0.3735  1.2725
  239MOL0     H32967   6.457   7.404   5.536  1.2950  1.6068 -0.3901
  239MOL0     H32968   6.806   7.174   5.495  1.5519 -1.5451 -0.0472
  239MOL0     H32969   6.960   7.064   5.610 -0.8144  0.7569  0.3647
  239MOL0     H32970   7.056   7.115   5.866 -0.2385  1.3385  1.3383
  239MOL0     H32971   7.211   7.035   5.852  0.7619  0.0131  0.3384
  239MOL0     H32972   7.229   7.170   6.048  1.9714 -0.7065 -0.3310
  239MOL0     H32973   7.166   7.319   5.953  3.8724  2.2848 -0.1130
  239MOL0     H32974   7.421   7.157   5.897  0.2542  0.2817 -1.4759
  239MOL0     H32975   7.387   7.299   5.819  0.2806  0.2944  0.9946
  239MOL0     H32976   7.381   7.432   6.039 -0.1274  0.1611 -0.8584
  239MOL0     H32977   7.541   7.380   5.966  2.2324 -3.1688  2.2456
  239MOL0     H32978   7.519   7.179   6.342 -0.5260  0.8414  0.7151
  239MOL0     H32979   7.194   7.425   5.662 -0.1022  0.2174 -0.7841
  239MOL0     H32980   7.101   7.632   5.623 -0.1791  0.8713 -0.4899
  239MOL0     H32981   7.101   7.586   5.440 -1.2972  0.3973 -0.2912
  239MOL0     H32982   6.966   7.658   5.530  1.1621  0.7940  0.7171
  240MOL0     O32983   0.202   6.057   8.673 -1.2240 -0.4625  0.1657
  240MOL0     C32984   0.180   6.150   8.746  0.3952 -0.4295 -0.6101
  240MOL0     O32985   0.270   6.250   8.776  0.2295 -0.4669 -0.1180
  240MOL0     C32986   0.395   6.235   8.707 -0.5631  0.0916 -0.3582
  240MOL0     C32987   0.413   6.289   8.587 -0.1483  0.6242 -0.4866
  240MOL0     C32988   0.533   6.272   8.515  0.7350  0.5079 -0.6094
  240MOL0     C32989   0.638   6.196   8.575  0.7069  0.6734  0.2027
  240MOL0     O32990   0.757   6.175   8.508 -0.4746 -0.2837 -0.6283
  240MOL0     C32991   0.805   6.254   8.400  0.1055 -0.2389 -0.4973
  240MOL0     C32992   0.952   6.225   8.368 -0.3696  0.0114 -0.9936
  240MOL0     C32993   1.044   6.238   8.487  0.2482 -0.4379  0.9965
  240MOL0     C32994   1.189   6.216   8.442 -0.1037  0.6715 -0.8515
  240MOL0     C32995   1.276   6.218   8.563  0.0332 -0.0024  0.2175
  240MOL0     C32996   1.423   6.215   8.528 -0.1829  0.0633  0.2287
  240MOL0     C32997   1.516   6.242   8.650  0.1549  0.2696  0.1286
  240MOL0     C32998   1.569   6.107   8.720 -0.2302  0.2706 -0.3439
  240MOL0     N32999   1.651   6.130   8.835  0.7841 -0.3307  0.7924
  240MOL0     C33000   1.709   6.030   8.906  0.7449 -0.6742  0.8284
  240MOL0     C33001   1.816   6.075   8.975  0.0680 -1.8868 -0.1306
  240MOL0     C33002   1.905   6.000   9.074  0.6455  0.6387 -0.2095
  240MOL0     C33003   2.019   5.940   8.988 -0.1890  0.6383 -0.2408
  240MOL0     C33004   2.110   6.037   8.906 -0.1717 -0.7002  1.0968
  240MOL0     C33005   2.205   6.124   8.995 -0.1867 -0.2792 -0.2197
  240MOL0     O33006   2.313   6.047   9.052  0.8189 -0.3348  0.0323
  240MOL0     C33007   2.433   6.098   9.092 -0.1376 -1.4163 -0.3188
  240MOL0     C33008   2.533   6.009   9.138 -0.3726  0.7832  0.0061
  240MOL0     C33009   2.653   6.053   9.192 -0.4480  0.0707  0.4666
  240MOL0     C33010   2.735   5.944   9.260 -0.0898 -0.3490  0.2182
  240MOL0     C33011   2.694   6.189   9.180 -0.0512  1.1499  0.5530
  240MOL0     C33012   2.823   6.238   9.222  1.0753  0.0366  0.7374
  240MOL0     O33013   2.827   6.377   9.235 -0.7910  0.2396  0.6486
  240MOL0     C33014   2.940   6.437   9.295  0.7524 -0.0597  0.1691
  240MOL0     C33015   3.056   6.378   9.332  0.1694  0.3343  0.4841
  240MOL0     C33016   3.155   6.443   9.407  0.1487  0.4059  0.8211
  240MOL0     C33017   3.136   6.572   9.451 -0.0035  0.3745 -0.0535
  240MOL0     O33018   3.205   6.641   9.546 -0.2003  0.5041  0.1704
  240MOL0     C33019   3.330   6.592   9.593 -0.6414  0.4374  0.8161
  240MOL0     C33020   3.381   6.645   9.725  0.3482  0.4056 -0.7786
  240MOL0     C33021   3.514   6.566   9.752  0.6348  0.9852 -0.2842
  240MOL0     C33022   3.495   6.459   9.856  0.0725 -0.3750 -1.4480
  240MOL0     C33023   3.634   6.400   9.910  0.7083  0.1634  0.3555
  240MOL0     C33024   3.701   6.304   9.809  0.6399  0.1057  0.8133
  240MOL0     C33025   3.847   6.263   9.847 -0.5678 -0.4949  0.9250
  240MOL0     C33026   3.860   6.206   9.995 -0.8204 -0.0465  0.3864
  240MOL0    Cl33027   3.808   6.037  10.009  0.0570  0.1307 -0.2229
  240MOL0     C33028   3.021   6.630   9.406  0.6046 -0.0346  0.6269
  240MOL0     C33029   2.920   6.569   9.322  0.2117 -1.1194  0.0808
  240MOL0     O33030   2.918   6.158   9.215 -0.3463  0.0625 -0.6576
  240MOL0     C33031   2.598   6.273   9.124  0.3387 -0.2291  0.1669
  240MOL0     C33032   2.475   6.231   9.075  0.4378 -0.3225  0.0144
  240MOL0     N33033   1.816   6.211   8.949 -0.2799  0.3898  0.1870
  240MOL0     N33034   1.723   6.241   8.865  1.5310 -0.4420  0.3334
  240MOL0     C33035   0.616   6.130   8.695  0.3168  0.1311 -0.2849
  240MOL0     C33036   0.494   6.150   8.758 -0.3101  0.8314 -0.1427
  240MOL0     C33037   0.066   6.135   8.836  0.2445 -0.1591 -0.1833
  240MOL0     C33038   0.082   6.112   8.980  0.2938  0.1956  0.5432
  240MOL0     C33039  -0.027   6.097   9.062 -0.6972  0.2016 -0.0140
  240MOL0     C33040  -0.153   6.109   9.010 -0.6484  0.3255  0.2481
  240MOL0     O33041  -0.262   6.069   9.086 -0.5359  0.3688 -0.0445
  240MOL0     C33042  -0.304   5.932   9.071  0.6447  0.8377  0.3291
  240MOL0     C33043  -0.367   5.882   9.207 -0.2964  0.1633  0.0070
  240MOL0     C33044  -0.516   5.890   9.220  0.3599  0.0085 -0.1651
  240MOL0     C33045  -0.584   5.759   9.271  0.2692 -0.0622 -0.8320
  240MOL0     C33046  -0.519   5.719   9.395  0.3329 -0.5468 -0.4626
  240MOL0     C33047  -0.471   5.668   9.496 -1.0594  0.7477  1.0118
  240MOL0     C33048  -0.174   6.117   8.872 -0.3099 -0.1632  0.2520
  240MOL0     C33049  -0.062   6.135   8.787  0.1721  0.1501  0.2442
  240MOL0     C33050  -0.093   6.155   8.640 -0.0332  0.1568  0.6433
  240MOL0     H33051   0.334   6.347   8.540 -1.5334 -0.1423  0.8517
  240MOL0     H33052   0.561   6.312   8.418  1.1729  1.6377 -0.0331
  240MOL0     H33053   0.798   6.362   8.416 -0.0697 -0.4480  0.9553
  240MOL0     H33054   0.732   6.231   8.322 -4.0038 -0.4287  3.0567
  240MOL0     H33055   0.958   6.124   8.326 -0.1594  0.4634 -2.1110
  240MOL0     H33056   0.987   6.298   8.294 -1.2115  2.3278  0.7737
  240MOL0     H33057   1.042   6.334   8.539 -0.9217 -0.1465  0.4443
  240MOL0     H33058   1.017   6.168   8.567 -2.2853 -2.3009 -1.2441
  240MOL0     H33059   1.200   6.117   8.397 -1.6923 -1.4084  2.8803
  240MOL0     H33060   1.213   6.296   8.371 -0.3840  1.4172 -0.1239
  240MOL0     H33061   1.244   6.135   8.626 -0.6532  0.5634  0.6336
  240MOL0     H33062   1.259   6.317   8.607  1.4612  0.7101 -0.7463
  240MOL0     H33063   1.462   6.127   8.476  2.8857  2.1766 -1.3374
  240MOL0     H33064   1.440   6.303   8.465  0.0146  1.4109  2.0861
  240MOL0     H33065   1.467   6.303   8.727  0.8368 -0.1787  0.9410
  240MOL0     H33066   1.604   6.302   8.625  0.0730  0.0016 -0.8455
  240MOL0     H33067   1.481   6.052   8.753  0.9473  0.6744  4.2136
  240MOL0     H33068   1.622   6.045   8.647 -0.9591  0.4479 -1.0268
  240MOL0     H33069   1.684   5.924   8.912 -0.5049 -0.5365 -1.0540
  240MOL0     H33070   1.856   5.918   9.128  5.0759 -3.4087 -1.5930
  240MOL0     H33071   1.947   6.076   9.140  0.4251  0.1919  0.4562
  240MOL0     H33072   2.085   5.870   9.041  1.6959 -0.1863 -3.3754
  240MOL0     H33073   1.976   5.870   8.916 -0.2946  1.3237 -0.8499
  240MOL0     H33074   2.178   5.976   8.846 -0.6595 -2.7057  2.5225
  240MOL0     H33075   2.047   6.099   8.841  1.7548  0.5725  0.3618
  240MOL0     H33076   2.247   6.197   8.925  1.0309 -0.5244  0.2208
  240MOL0     H33077   2.145   6.176   9.071  0.8645  0.5155  0.0989
  240MOL0     H33078   2.504   5.904   9.131  2.1455  0.0635 -0.3892
  240MOL0     H33079   2.766   5.979   9.359 -1.6311  0.0479  0.5768
  240MOL0     H33080   2.818   5.909   9.197 -3.3304 -3.3898 -2.8780
  240MOL0     H33081   2.671   5.858   9.276 -2.7445  1.4179 -0.3183
  240MOL0     H33082   3.083   6.277   9.302 -0.4367 -0.7153  3.1879
  240MOL0     H33083   3.237   6.379   9.439 -0.3168 -0.4197  0.3963
  240MOL0     H33084   3.333   6.484   9.610  0.3485 -0.0508 -1.9707
  240MOL0     H33085   3.407   6.604   9.517 -1.6084 -1.7583 -0.6065
  240MOL0     H33086   3.391   6.754   9.733  0.1084  0.2996  2.0973
  240MOL0     H33087   3.304   6.624   9.799  2.3217  1.7171  1.8230
  240MOL0     H33088   3.590   6.635   9.789 -0.6183  3.2985 -1.8106
  240MOL0     H33089   3.559   6.518   9.664  0.3313 -0.4900  0.3362
  240MOL0     H33090   3.444   6.368   9.824 -0.3091 -0.8710  0.4478
  240MOL0     H33091   3.442   6.513   9.935  2.0270  1.9372 -1.6029
  240MOL0     H33092   3.701   6.484   9.930  0.0278  0.8684 -0.2268
  240MOL0     H33093   3.616   6.347  10.003 -2.0641  2.5470  1.3379
  240MOL0     H33094   3.711   6.346   9.709  2.1051  1.4061  1.4761
  240MOL0     H33095   3.640   6.214   9.791 -0.2156  1.0638 -1.4912
  240MOL0     H33096   3.905   6.355   9.847 -0.2154 -0.7128  0.7777
  240MOL0     H33097   3.892   6.188   9.780 -1.0998 -3.1690  3.3430
  240MOL0     H33098   3.816   6.275  10.068 -2.3135  2.9995 -3.0748
  240MOL0     H33099   3.966   6.201  10.019 -0.8677 -1.4554  0.3822
  240MOL0     H33100   3.015   6.733   9.439  0.8030  0.6557 -1.3724
  240MOL0     H33101   2.830   6.624   9.298  1.1424  0.3802 -0.1001
  240MOL0     H33102   2.626   6.376   9.110  0.2041 -0.0846  0.9510
  240MOL0     H33103   2.406   6.303   9.032  1.7735  2.9695  2.8386
  240MOL0     H33104   0.695   6.072   8.741 -0.1964 -2.0709 -2.0217
  240MOL0     H33105   0.482   6.111   8.858  2.9387  2.1051  0.8735
  240MOL0     H33106   0.182   6.100   9.022 -1.0134 -3.6138  3.1080
  240MOL0     H33107  -0.031   6.070   9.167 -0.7028  0.3410  0.0222
  240MOL0     H33108  -0.382   5.927   8.994  1.8134 -0.1001 -0.8523
  240MOL0     H33109  -0.221   5.867   9.044 -0.7545  0.0011 -2.3825
  240MOL0     H33110  -0.323   5.942   9.288  1.6965 -1.4485  0.1680
  240MOL0     H33111  -0.337   5.777   9.213  0.4137  0.4335  1.7762
  240MOL0     H33112  -0.548   5.976   9.280 -1.9403 -2.0657  1.7832
  240MOL0     H33113  -0.545   5.909   9.116  4.6442 -1.4715 -1.9011
  240MOL0     H33114  -0.563   5.686   9.192 -0.3604 -1.1287 -0.0486
  240MOL0     H33115  -0.688   5.783   9.296  0.8728  0.3062  1.5880
  240MOL0     H33116  -0.420   5.617   9.575 -3.3365 -3.0086  0.2706
  240MOL0     H33117  -0.273   6.126   8.828 -0.9226 -1.1402  1.3543
  240MOL0     H33118  -0.059   6.251   8.600 -1.2118 -0.3880 -1.8759
  240MOL0     H33119  -0.049   6.069   8.587 -0.9079 -2.8108  4.2556
  240MOL0     H33120  -0.201   6.150   8.624  0.2166 -0.9014 -0.9770
  241MOL0     O33121   5.852   6.215   9.052  0.7174 -0.1514  0.3691
  241MOL0     C33122   5.884   6.304   9.131  0.6666  0.0698  0.1305
  241MOL0     O33123   6.008   6.338   9.169 -0.5828  0.1689 -0.1586
  241MOL0     C33124   6.122   6.287   9.103  0.9043  0.1111  0.2547
  241MOL0     C33125   6.188   6.359   9.007 -0.3154 -0.0145 -0.5682
  241MOL0     C33126   6.310   6.321   8.952 -1.2738  0.7648 -0.6092
  241MOL0     C33127   6.367   6.198   8.992 -0.1681 -0.5657  0.4711
  241MOL0     O33128   6.494   6.171   8.948  0.4376  0.6498 -1.2376
  241MOL0     C33129   6.561   6.056   9.007 -0.0380  0.5656 -0.0233
  241MOL0     C33130   6.686   6.039   8.929  0.2272  0.7803  0.2712
  241MOL0     C33131   6.759   5.913   8.965  0.3619  0.0202  0.1114
  241MOL0     C33132   6.880   5.902   8.869 -0.4970 -0.2325 -0.5183
  241MOL0     C33133   6.960   5.778   8.896 -0.7560 -0.6585  0.0193
  241MOL0     C33134   7.083   5.780   8.809 -0.0931  0.6679  0.4355
  241MOL0     C33135   7.192   5.670   8.849  0.0046 -0.2991  0.3264
  241MOL0     C33136   7.313   5.664   8.759  0.0063  0.2042  0.4458
  241MOL0     N33137   7.295   5.591   8.633 -0.8862 -0.1856  0.5983
  241MOL0     C33138   7.196   5.497   8.606 -0.6079  0.6596 -0.2727
  241MOL0     C33139   7.222   5.440   8.485  0.4774 -0.2151 -0.7750
  241MOL0     C33140   7.139   5.346   8.415  0.6090  0.0730 -0.8794
  241MOL0     C33141   7.174   5.202   8.409 -0.1689 -0.5784 -0.6243
  241MOL0     C33142   7.059   5.137   8.325  1.2427  0.4736  0.4064
  241MOL0     C33143   7.085   4.992   8.284 -0.0688 -0.5223  0.0482
  241MOL0     O33144   7.089   4.910   8.407  0.7725  0.5155  0.0981
  241MOL0     C33145   7.145   4.787   8.413  0.5108  0.7846  1.0547
  241MOL0     C33146   7.178   4.727   8.537 -0.6802  0.1256  0.4563
  241MOL0     C33147   7.235   4.601   8.537 -0.3774  0.2979  0.0750
  241MOL0     C33148   7.264   4.533   8.669 -0.8317 -0.5239 -0.9975
  241MOL0     C33149   7.255   4.524   8.418  0.6385  0.4144 -0.5864
  241MOL0     C33150   7.308   4.380   8.407  0.2744 -0.3242  0.6466
  241MOL0     O33151   7.342   4.332   8.524  0.0544  0.7195 -0.2058
  241MOL0     C33152   7.333   4.193   8.526 -0.0383  0.0514 -0.5539
  241MOL0     C33153   7.218   4.115   8.530  0.6763  0.4292  0.0510
  241MOL0     C33154   7.225   3.973   8.524 -0.1027 -0.2186 -1.0880
  241MOL0     C33155   7.346   3.912   8.511  0.4946  0.8750 -0.2328
  241MOL0     O33156   7.336   3.777   8.517  0.2987  0.7096  0.1800
  241MOL0     C33157   7.438   3.695   8.470 -0.4776  0.7206 -0.2556
  241MOL0     C33158   7.408   3.553   8.486  1.2214  0.0548 -0.9075
  241MOL0     C33159   7.369   3.522   8.624  0.5630 -0.5779 -0.6545
  241MOL0     C33160   7.337   3.376   8.635  0.8336  0.0549 -0.3352
  241MOL0     C33161   7.299   3.340   8.782  0.3999  0.6248 -0.3618
  241MOL0     C33162   7.146   3.314   8.794  0.6008 -0.4766  0.5578
  241MOL0     C33163   7.070   3.435   8.854 -0.4697 -0.2972 -0.0423
  241MOL0     C33164   6.924   3.416   8.856  0.8417 -0.7637 -0.5113
  241MOL0    Cl33165   6.850   3.559   8.942  0.0810 -0.2540  0.2212
  241MOL0     C33166   7.461   3.980   8.506  0.2571  0.2746  0.4773
  241MOL0     C33167   7.460   4.122   8.518 -0.7532  0.4143  0.4699
  241MOL0     O33168   7.302   4.320   8.300  0.3986  0.6937 -0.2663
  241MOL0     C33169   7.213   4.579   8.293  0.4644  0.3692  0.6658
  241MOL0     C33170   7.170   4.708   8.290 -0.2509 -0.5386 -0.2945
  241MOL0     N33171   7.343   5.489   8.450  0.0341 -0.5450  0.0483
  241MOL0     N33172   7.382   5.574   8.534 -0.5457 -0.6199 -0.6547
  241MOL0     C33173   6.292   6.114   9.084  0.9763 -0.0060 -0.2950
  241MOL0     C33174   6.177   6.166   9.137  0.2997  0.2740 -0.0308
  241MOL0     C33175   5.775   6.355   9.220  0.3994 -0.5785  0.4641
  241MOL0     C33176   5.793   6.360   9.356  0.3268  0.2038  0.1671
  241MOL0     C33177   5.685   6.382   9.445 -0.5208  0.3643 -0.4856
  241MOL0     C33178   5.556   6.394   9.395  0.9004  0.3825 -0.4288
  241MOL0     O33179   5.451   6.434   9.468  0.5432  0.3342 -0.7652
  241MOL0     C33180   5.474   6.469   9.603 -0.4124 -0.3288 -0.6503
  241MOL0     C33181   5.348   6.538   9.643  0.2414 -0.3684 -0.0835
  241MOL0     C33182   5.365   6.646   9.746  0.0287 -0.6021 -0.5816
  241MOL0     C33183   5.239   6.717   9.789 -0.5718  0.9193  0.2577
  241MOL0     C33184   5.183   6.827   9.711  0.0988 -0.9400  0.5771
  241MOL0     C33185   5.150   6.921   9.644 -0.1499 -0.2937 -0.2218
  241MOL0     C33186   5.537   6.394   9.258 -0.3142  0.8372  0.0626
  241MOL0     C33187   5.644   6.387   9.172 -0.3255 -0.2239 -0.3048
  241MOL0     C33188   5.597   6.392   9.031 -0.3939 -0.1995 -0.6970
  241MOL0     H33189   6.140   6.456   8.994 -1.8309 -0.6802 -0.0410
  241MOL0     H33190   6.373   6.395   8.903 -2.0096  0.6615 -1.7349
  241MOL0     H33191   6.494   5.970   9.007  0.7275 -0.2810 -4.2425
  241MOL0     H33192   6.572   6.078   9.114 -0.8469  1.2161 -0.0601
  241MOL0     H33193   6.657   6.048   8.824 -3.4582 -0.5931  1.0099
  241MOL0     H33194   6.754   6.122   8.949 -0.4683  1.9864 -1.9800
  241MOL0     H33195   6.774   5.916   9.074 -0.4443 -0.2027  0.2382
  241MOL0     H33196   6.706   5.819   8.947  1.4680 -0.0543 -3.5055
  241MOL0     H33197   6.852   5.876   8.766  0.1353  1.6903 -1.2143
  241MOL0     H33198   6.935   5.993   8.894  3.1795 -2.4104  0.0576
  241MOL0     H33199   6.905   5.687   8.870  0.7366 -1.6296  0.1575
  241MOL0     H33200   6.987   5.757   9.000  0.4280 -0.6578 -0.2782
  241MOL0     H33201   7.057   5.762   8.705 -3.2133 -0.7677  1.3404
  241MOL0     H33202   7.122   5.882   8.816 -0.3643  0.7262  1.1939
  241MOL0     H33203   7.139   5.575   8.853  1.6781 -1.3485 -1.1216
  241MOL0     H33204   7.236   5.696   8.946  3.3287  2.0159 -1.5740
  241MOL0     H33205   7.346   5.765   8.734  0.2046  0.2644  0.9431
  241MOL0     H33206   7.402   5.620   8.804  0.8361 -0.8566 -2.0412
  241MOL0     H33207   7.120   5.469   8.679  1.5846 -0.7175  1.6558
  241MOL0     H33208   7.139   5.392   8.315 -0.1566 -0.3234 -1.0717
  241MOL0     H33209   7.036   5.366   8.446  0.0784 -0.6843 -2.0915
  241MOL0     H33210   7.275   5.178   8.374  0.0892 -0.4289  0.0084
  241MOL0     H33211   7.169   5.173   8.515 -2.8876 -0.1425 -0.5777
  241MOL0     H33212   6.956   5.147   8.362  0.2340  4.6220 -2.7453
  241MOL0     H33213   7.046   5.198   8.235 -1.0884  0.6779  0.8191
  241MOL0     H33214   7.010   4.961   8.210 -0.2131  0.0135 -0.0305
  241MOL0     H33215   7.179   4.999   8.228 -0.4065  0.6453 -0.3977
  241MOL0     H33216   7.150   4.773   8.631 -3.0240  0.9742 -0.5729
  241MOL0     H33217   7.246   4.600   8.754  3.7624 -1.4022  0.9803
  241MOL0     H33218   7.367   4.505   8.694 -1.5532 -1.3982  1.2993
  241MOL0     H33219   7.197   4.448   8.684 -3.3389  1.7407  2.2703
  241MOL0     H33220   7.124   4.168   8.520  0.8073  0.3436 -2.0966
  241MOL0     H33221   7.144   3.906   8.550  0.6518 -0.4650  0.7426
  241MOL0     H33222   7.466   3.726   8.369 -0.6094  3.8174  0.5464
  241MOL0     H33223   7.530   3.702   8.530  0.5655 -1.4747 -1.4823
  241MOL0     H33224   7.328   3.522   8.418 -1.3090  1.1189  1.4025
  241MOL0     H33225   7.498   3.493   8.471  2.0348  1.2912 -1.1169
  241MOL0     H33226   7.276   3.574   8.648  1.5887  1.0549 -0.0803
  241MOL0     H33227   7.448   3.557   8.689 -0.8462  5.2288 -1.5409
  241MOL0     H33228   7.424   3.314   8.611  2.2283  0.5012  3.0528
  241MOL0     H33229   7.259   3.349   8.564  1.7508  1.2358 -1.8517
  241MOL0     H33230   7.353   3.248   8.806  1.5685  1.3968  0.0479
  241MOL0     H33231   7.333   3.417   8.851  4.1162 -0.2244 -1.0450
  241MOL0     H33232   7.126   3.235   8.868 -1.6519 -0.3706  0.1495
  241MOL0     H33233   7.107   3.269   8.702  1.2453 -2.0224  0.9991
  241MOL0     H33234   7.100   3.531   8.811 -2.9017 -0.2810 -1.9436
  241MOL0     H33235   7.100   3.444   8.959 -0.8149  5.9956 -0.1060
  241MOL0     H33236   6.892   3.329   8.914 -0.7318  1.5034  2.3201
  241MOL0     H33237   6.893   3.419   8.751  0.7586 -0.0547 -0.4725
  241MOL0     H33238   7.558   3.933   8.490 -1.1820 -2.1164 -2.0422
  241MOL0     H33239   7.556   4.172   8.526 -1.3126  1.6437 -0.2388
  241MOL0     H33240   7.216   4.528   8.197 -0.0195  0.1080  0.7846
  241MOL0     H33241   7.171   4.748   8.190 -0.7861 -0.8034 -0.4080
  241MOL0     H33242   6.322   6.020   9.129  3.0403  0.7626  0.0687
  241MOL0     H33243   6.124   6.111   9.214  0.4093 -0.2923 -0.3555
  241MOL0     H33244   5.896   6.363   9.392  0.6838 -1.0644 -0.6870
  241MOL0     H33245   5.704   6.397   9.550  0.3040 -3.0290 -0.0227
  241MOL0     H33246   5.496   6.387   9.672  0.5893  0.6810  0.2712
  241MOL0     H33247   5.556   6.541   9.598 -0.5110 -0.2092 -0.5515
  241MOL0     H33248   5.275   6.468   9.684 -0.1746 -0.0858 -0.3302
  241MOL0     H33249   5.303   6.591   9.559  0.3995  2.0468  1.2694
  241MOL0     H33250   5.411   6.602   9.835  0.2058 -1.2579 -0.9955
  241MOL0     H33251   5.440   6.719   9.711  1.2700 -2.6320 -2.4683
  241MOL0     H33252   5.247   6.759   9.889 -0.0847 -1.1577  1.1401
  241MOL0     H33253   5.163   6.640   9.804  0.0087  0.3397  0.2726
  241MOL0     H33254   5.121   6.998   9.576  1.3026  0.1242 -0.3875
  241MOL0     H33255   5.433   6.411   9.234 -0.6138 -0.4048  0.4146
  241MOL0     H33256   5.548   6.489   9.019  0.2173  0.6734  2.6654
  241MOL0     H33257   5.672   6.373   8.954 -0.5958  0.8656 -1.1814
  241MOL0     H33258   5.514   6.323   9.012 -0.7320 -0.9017  2.6311
  242MOL0     O33259   8.487   7.153  11.255  0.7111 -0.1194  0.3169
  242MOL0     C33260   8.385   7.225  11.256  0.2702 -0.4469  0.2779
  242MOL0     O33261   8.385   7.350  11.205  0.7845  0.0396 -0.7785
  242MOL0     C33262   8.498   7.394  11.136 -0.1890  0.5237  0.3516
  242MOL0     C33263   8.495   7.396  10.994  0.9940  0.0109  1.0523
  242MOL0     C33264   8.593   7.466  10.922 -0.2706  0.8364  0.8074
  242MOL0     C33265   8.696   7.532  10.985  0.1738 -0.1425  0.1421
  242MOL0     O33266   8.803   7.584  10.903  0.5704  0.0610 -0.0083
  242MOL0     C33267   8.768   7.692  10.826 -0.3603  0.2253 -0.5195
  242MOL0     C33268   8.874   7.704  10.716  0.2739 -0.0078  0.0414
  242MOL0     C33269   9.023   7.715  10.773  0.0883  0.0980  0.7476
  242MOL0     C33270   9.051   7.841  10.851  0.3247  0.6117  0.5681
  242MOL0     C33271   9.191   7.851  10.908  0.0729 -0.1357  0.3202
  242MOL0     C33272   9.205   7.749  11.012 -0.1483  0.1245  0.5716
  242MOL0     C33273   9.344   7.752  11.079  1.0638 -0.3148 -0.3526
  242MOL0     C33274   9.364   7.650  11.191 -0.2152  0.1958 -0.9126
  242MOL0     N33275   9.285   7.680  11.314  0.2830  1.1956  0.6245
  242MOL0     C33276   9.322   7.755  11.416 -0.1780 -0.1687 -0.2390
  242MOL0     C33277   9.220   7.741  11.505  0.0437  0.1741 -0.2480
  242MOL0     C33278   9.230   7.803  11.645  0.8382 -0.3903 -0.6588
  242MOL0     C33279   9.172   7.952  11.651 -0.6900  0.2184  0.1877
  242MOL0     C33280   9.245   8.069  11.569  0.4183 -0.3007 -0.1289
  242MOL0     C33281   9.371   8.115  11.645  0.0652  0.9732  0.5536
  242MOL0     O33282   9.451   8.179  11.550 -0.2682 -0.1254 -0.0311
  242MOL0     C33283   9.571   8.207  11.600 -0.8334 -0.3617 -0.4184
  242MOL0     C33284   9.685   8.132  11.557 -0.7547  0.5264 -0.4521
  242MOL0     C33285   9.816   8.160  11.608  1.1977 -0.7616 -0.6179
  242MOL0     C33286   9.930   8.076  11.557  0.7723 -0.6910  0.7494
  242MOL0     C33287   9.824   8.250  11.710 -0.1166 -0.1649 -0.2418
  242MOL0     C33288   9.954   8.283  11.777  1.0631  0.2614 -0.9570
  242MOL0     O33289  10.060   8.286  11.699 -0.4935  0.4032 -0.0601
  242MOL0     C33290  10.182   8.302  11.758  0.6929 -0.8429 -0.3496
  242MOL0     C33291  10.215   8.406  11.837 -0.9742  0.1609  0.4401
  242MOL0     C33292  10.355   8.429  11.868  0.3158  0.5190  0.4664
  242MOL0     C33293  10.457   8.347  11.826  0.1630  0.4212 -0.1476
  242MOL0     O33294  10.590   8.371  11.872 -0.6738 -1.0358  0.2021
  242MOL0     C33295  10.690   8.321  11.787  0.1169 -0.5707  0.0133
  242MOL0     C33296  10.832   8.353  11.835  0.3826 -0.7025  0.0326
  242MOL0     C33297  10.932   8.333  11.722  1.1335 -0.5050 -0.4935
  242MOL0     C33298  11.066   8.390  11.766  0.5742 -0.5915  0.3599
  242MOL0     C33299  11.147   8.299  11.869 -0.5166  0.3231  0.0913
  242MOL0     C33300  11.275   8.370  11.932 -0.5482  0.0655 -0.5951
  242MOL0     C33301  11.249   8.423  12.074  0.5972  0.4716 -0.6158
  242MOL0     C33302  11.377   8.470  12.136 -0.0348  0.2047  0.1337
  242MOL0    Cl33303  11.502   8.336  12.144 -0.2460  0.3945  0.0918
  242MOL0     C33304  10.416   8.239  11.745  0.3151 -0.5803  0.6565
  242MOL0     C33305  10.281   8.217  11.717  0.2500  0.0408 -0.7726
  242MOL0     O33306   9.955   8.292  11.898 -0.3944 -0.1561 -0.0843
  242MOL0     C33307   9.709   8.319  11.751 -0.3170  0.3904 -0.6626
  242MOL0     C33308   9.583   8.300  11.700  0.0194 -0.3851 -0.4447
  242MOL0     N33309   9.117   7.663  11.445 -0.0148 -0.1318 -0.2314
  242MOL0     N33310   9.167   7.612  11.334 -0.2902 -0.2023 -0.5216
  242MOL0     C33311   8.702   7.539  11.124  0.2343  0.0875  0.0725
  242MOL0     C33312   8.601   7.474  11.199 -0.2001  0.1622  0.4169
  242MOL0     C33313   8.269   7.175  11.322  0.0189  0.1500 -0.2813
  242MOL0     C33314   8.156   7.257  11.312 -0.0070  0.9871  0.0016
  242MOL0     C33315   8.032   7.217  11.361 -0.1662  0.5362  0.9660
  242MOL0     C33316   8.018   7.094  11.429  0.3244 -1.1597 -0.4386
  242MOL0     O33317   7.907   7.037  11.471 -0.0637 -0.1068 -0.5451
  242MOL0     C33318   7.788   7.121  11.449 -0.4421  0.0438 -0.1153
  242MOL0     C33319   7.679   7.047  11.531  0.1049  0.7450 -0.5893
  242MOL0     C33320   7.684   7.082  11.686 -0.0970  0.0572 -0.7095
  242MOL0     C33321   7.566   7.012  11.768 -0.1628  1.2362 -0.4097
  242MOL0     C33322   7.433   7.042  11.717 -0.9975 -0.4246  0.9255
  242MOL0     C33323   7.323   7.057  11.680 -0.0328  1.1827 -0.9106
  242MOL0     C33324   8.125   7.009  11.435  0.0188  0.4579 -0.6388
  242MOL0     C33325   8.251   7.046  11.389  0.4673 -0.9059  0.7973
  242MOL0     C33326   8.364   6.941  11.404 -0.3402 -0.5631 -0.1973
  242MOL0     H33327   8.409   7.348  10.950  0.8257 -1.4531  2.8731
  242MOL0     H33328   8.586   7.459  10.814 -0.5062  0.9432  0.8147
  242MOL0     H33329   8.764   7.785  10.884 -0.7610 -0.7978  1.1920
  242MOL0     H33330   8.666   7.679  10.789 -1.0673  0.4756  1.2149
  242MOL0     H33331   8.866   7.622  10.646 -0.2839  0.2825 -0.2372
  242MOL0     H33332   8.856   7.798  10.663  1.1006 -0.5241 -1.1962
  242MOL0     H33333   9.042   7.626  10.834 -0.2134 -0.5511 -0.0982
  242MOL0     H33334   9.096   7.694  10.694 -1.0222 -3.3663  0.4824
  242MOL0     H33335   9.031   7.921  10.780 -3.3706  0.8551  1.6898
  242MOL0     H33336   8.974   7.867  10.924 -1.0067 -1.2429 -0.0964
  242MOL0     H33337   9.203   7.952  10.949 -0.7277 -0.4133  1.2621
  242MOL0     H33338   9.262   7.835  10.826  0.6299 -1.1753  0.9837
  242MOL0     H33339   9.127   7.772  11.085 -2.9886  1.7148 -2.6932
  242MOL0     H33340   9.192   7.647  10.975 -1.0446  0.4171  0.0511
  242MOL0     H33341   9.357   7.852  11.121 -0.9765 -0.3791  0.5827
  242MOL0     H33342   9.411   7.722  10.999 -3.2096  0.5355 -4.6854
  242MOL0     H33343   9.332   7.554  11.149  2.8290 -1.1459 -0.4764
  242MOL0     H33344   9.471   7.648  11.216 -0.3552  2.0312  0.0147
  242MOL0     H33345   9.409   7.819  11.415 -0.3967  0.1286 -0.6994
  242MOL0     H33346   9.333   7.809  11.681 -0.0206  2.3381  1.6389
  242MOL0     H33347   9.172   7.752  11.722 -0.1100  2.4475  0.6187
  242MOL0     H33348   9.069   7.941  11.615 -1.7035  0.2468  2.8006
  242MOL0     H33349   9.164   7.991  11.753  0.5189  1.6530 -0.2281
  242MOL0     H33350   9.274   8.027  11.472  0.0866  2.2922 -1.4228
  242MOL0     H33351   9.174   8.150  11.552 -1.0237 -1.9047 -2.1259
  242MOL0     H33352   9.333   8.175  11.728 -0.7306  0.7419  0.3713
  242MOL0     H33353   9.425   8.034  11.696  0.0738  1.7679  1.8663
  242MOL0     H33354   9.674   8.053  11.484  0.1738  0.8506 -0.9559
  242MOL0     H33355   9.898   8.008  11.478 -2.4646  0.5223  0.8670
  242MOL0     H33356   9.984   8.017  11.632  2.1836  0.3947  0.6325
  242MOL0     H33357   9.994   8.145  11.500 -0.8982 -2.0564 -3.0647
  242MOL0     H33358  10.138   8.480  11.856  0.2084  1.7456 -0.6228
  242MOL0     H33359  10.385   8.514  11.928 -2.2888  1.3529  0.7112
  242MOL0     H33360  10.691   8.211  11.792 -0.2756 -0.5437  0.7672
  242MOL0     H33361  10.678   8.355  11.684 -0.3715 -1.1809 -0.1410
  242MOL0     H33362  10.824   8.456  11.871 -1.9642  0.0660 -2.3498
  242MOL0     H33363  10.863   8.299  11.925 -0.2520 -0.7689  0.2139
  242MOL0     H33364  10.896   8.386  11.633  0.6289 -1.6861 -1.0173
  242MOL0     H33365  10.930   8.230  11.684 -1.6400 -0.7568  0.0998
  242MOL0     H33366  11.052   8.488  11.812  3.3815 -0.4461  1.0808
  242MOL0     H33367  11.112   8.405  11.668 -0.0697  0.6640  0.2420
  242MOL0     H33368  11.083   8.258  11.948  0.5968  0.8096  1.2749
  242MOL0     H33369  11.178   8.213  11.808 -1.1302  1.3518 -1.7477
  242MOL0     H33370  11.294   8.457  11.868 -0.1010  0.2547 -0.2126
  242MOL0     H33371  11.364   8.309  11.914  0.0396  0.8998 -0.5574
  242MOL0     H33372  11.202   8.340  12.128 -0.9912  2.4098  1.1328
  242MOL0     H33373  11.184   8.511  12.072  4.1304  3.4305  2.2245
  242MOL0     H33374  11.346   8.508  12.234 -1.4610  1.3246 -0.7183
  242MOL0     H33375  11.407   8.561  12.084  1.3147 -0.6318 -0.6009
  242MOL0     H33376  10.495   8.171  11.715  0.2895  1.4091 -4.9678
  242MOL0     H33377  10.252   8.133  11.655 -1.8662 -2.1436  2.7868
  242MOL0     H33378   9.711   8.397  11.826  2.9059  2.4485 -2.6517
  242MOL0     H33379   9.490   8.343  11.735 -0.5989 -0.9448 -1.3468
  242MOL0     H33380   8.784   7.603  11.157  2.0070 -1.0354 -1.9181
  242MOL0     H33381   8.599   7.489  11.307 -1.8696 -0.6999  0.5375
  242MOL0     H33382   8.150   7.355  11.266  0.4591  1.7078  1.4163
  242MOL0     H33383   7.945   7.269  11.324  0.2199  0.0087 -0.7697
  242MOL0     H33384   7.799   7.224  11.484 -0.6883  0.2401 -0.6130
  242MOL0     H33385   7.750   7.117  11.346  0.4465 -0.1345 -0.4469
  242MOL0     H33386   7.691   6.940  11.514  0.1273  0.6749 -0.1294
  242MOL0     H33387   7.584   7.082  11.490 -0.5452 -0.5837 -0.2480
  242MOL0     H33388   7.781   7.062  11.732  0.4910 -1.1971 -2.3626
  242MOL0     H33389   7.669   7.190  11.702  1.5243  0.5357 -2.0573
  242MOL0     H33390   7.568   7.037  11.875 -0.2746  0.0503 -0.1145
  242MOL0     H33391   7.589   6.907  11.748  0.5771  1.6221 -1.7289
  242MOL0     H33392   7.222   7.088  11.661 -0.8062 -1.2930 -1.2662
  242MOL0     H33393   8.097   6.915  11.481  3.2964  0.7994  2.4178
  242MOL0     H33394   8.324   6.852  11.454 -3.1195  0.9206  0.4280
  242MOL0     H33395   8.404   6.916  11.305  2.0226  0.8801  0.3191
  242MOL0     H33396   8.450   6.974  11.462  0.2625 -1.4315 -0.5720
  243MOL0     O33397   2.541  10.281   4.578  0.1615 -0.4560 -0.3013
  243MOL0     C33398   2.561  10.166   4.553  0.7125  0.0458  0.5040
  243MOL0     O33399   2.689  10.108   4.555  0.0496  0.4384  0.1103
  243MOL0     C33400   2.782  10.195   4.598 -0.1331  0.3144 -0.5588
  243MOL0     C33401   2.816  10.216   4.730  0.0435 -0.6862 -0.7038
  243MOL0     C33402   2.932  10.292   4.757 -0.4565  0.7920 -0.1808
  243MOL0     C33403   3.008  10.343   4.655 -0.4861  0.6144  0.2222
  243MOL0     O33404   3.122  10.404   4.690 -0.5177  0.2173 -0.3024
  243MOL0     C33405   3.211  10.451   4.582  0.7624 -0.2648 -0.0656
  243MOL0     C33406   3.335  10.532   4.629  0.1721  0.5960  0.0772
  243MOL0     C33407   3.300  10.666   4.691  0.2538  0.4018  0.1255
  243MOL0     C33408   3.248  10.766   4.582  0.0657 -0.0306 -0.1645
  243MOL0     C33409   3.254  10.904   4.636  0.2741  0.0909 -0.0268
  243MOL0     C33410   3.230  11.021   4.533 -0.4206  0.2135 -0.6678
  243MOL0     C33411   3.220  11.157   4.606 -0.2708 -0.3279  0.7254
  243MOL0     C33412   3.352  11.187   4.687  0.6719 -0.2747 -0.1942
  243MOL0     N33413   3.351  11.329   4.718  0.3967 -0.0694  0.0959
  243MOL0     C33414   3.263  11.398   4.790 -0.4312  0.5742 -0.1546
  243MOL0     C33415   3.306  11.524   4.801 -0.7594 -0.2495 -0.7034
  243MOL0     C33416   3.238  11.633   4.879 -0.3386  0.1561  0.5627
  243MOL0     C33417   3.216  11.597   5.027  0.1215  0.0738  0.9352
  243MOL0     C33418   3.345  11.586   5.096  0.1453  0.7975 -0.2477
  243MOL0     C33419   3.372  11.436   5.112 -0.2903  0.1992 -0.2798
  243MOL0     O33420   3.481  11.414   5.194  0.2866  1.2497  0.4510
  243MOL0     C33421   3.606  11.456   5.152  0.2675  0.1889 -0.1635
  243MOL0     C33422   3.655  11.465   5.019  0.4107 -0.2849  0.0477
  243MOL0     C33423   3.787  11.502   4.995 -0.4010 -0.7404 -0.2214
  243MOL0     C33424   3.822  11.532   4.854 -0.6069 -0.2146 -0.8087
  243MOL0     C33425   3.876  11.512   5.107 -0.6561  0.4995  0.3300
  243MOL0     C33426   4.023  11.545   5.091  0.1417  0.0589 -0.1103
  243MOL0     O33427   4.088  11.586   5.204  0.3432 -0.6415 -0.4309
  243MOL0     C33428   4.220  11.628   5.190  0.2016 -0.0486 -0.6801
  243MOL0     C33429   4.275  11.704   5.083  0.2538 -0.3245  0.6588
  243MOL0     C33430   4.414  11.734   5.071 -0.6974  0.3122 -0.3125
  243MOL0     C33431   4.495  11.704   5.178 -0.1303  0.6431 -0.5985
  243MOL0     O33432   4.625  11.754   5.182 -0.1839 -0.1973 -0.2270
  243MOL0     C33433   4.730  11.666   5.231 -0.9467 -0.4521  0.3721
  243MOL0     C33434   4.850  11.752   5.265 -0.0665 -0.0744 -0.0660
  243MOL0     C33435   4.970  11.671   5.312 -0.5984  0.2325  0.2625
  243MOL0     C33436   5.054  11.761   5.398 -0.7235  0.4515 -0.6684
  243MOL0     C33437   5.175  11.672   5.455 -0.6138 -0.1103 -0.6398
  243MOL0     C33438   5.260  11.750   5.557  0.3732  0.4184  0.0141
  243MOL0     C33439   5.379  11.669   5.606  0.3467 -0.2256  0.2519
  243MOL0     C33440   5.487  11.750   5.672 -1.1433  0.0153  0.3558
  243MOL0    Cl33441   5.580  11.843   5.535 -0.2704  0.2341  0.1553
  243MOL0     C33442   4.439  11.649   5.290  0.4590  0.1213 -0.4532
  243MOL0     C33443   4.303  11.621   5.301  0.0668  0.5715  0.9823
  243MOL0     O33444   4.079  11.508   4.991  0.4518 -0.9367  0.5368
  243MOL0     C33445   3.827  11.498   5.238  0.5732 -0.0262 -0.4496
  243MOL0     C33446   3.698  11.470   5.259 -0.0069 -0.6167 -0.6824
  243MOL0     N33447   3.432  11.522   4.742  0.4377  0.6635 -0.0393
  243MOL0     N33448   3.452  11.410   4.684 -0.5819  0.1087 -0.2822
  243MOL0     C33449   2.971  10.313   4.521 -0.6812 -0.3925 -0.5205
  243MOL0     C33450   2.861  10.241   4.491 -0.5682 -0.3563 -0.4094
  243MOL0     C33451   2.444  10.076   4.530  0.0183  0.7929  0.0830
  243MOL0     C33452   2.467   9.939   4.543 -0.2764 -0.3177 -0.1522
  243MOL0     C33453   2.365   9.847   4.528 -0.4700  0.2299 -0.1608
  243MOL0     C33454   2.230   9.884   4.483  0.0562 -0.2109  0.0532
  243MOL0     O33455   2.128   9.793   4.451  0.1104 -1.0761  0.1659
  243MOL0     C33456   2.151   9.649   4.463 -0.0055 -0.2810  0.3622
  243MOL0     C33457   2.039   9.578   4.403 -0.1485  1.2709 -0.8140
  243MOL0     C33458   1.908   9.638   4.444  0.2580  0.1534  0.1155
  243MOL0     C33459   1.784   9.567   4.393 -0.0399  0.0434  0.2752
  243MOL0     C33460   1.655   9.592   4.462  0.7787 -0.2722  0.3015
  243MOL0     C33461   1.544   9.610   4.508 -0.3771 -0.0742 -0.3818
  243MOL0     C33462   2.213  10.022   4.461  0.3281 -0.0230 -1.1298
  243MOL0     C33463   2.312  10.117   4.491 -0.4254  0.5284  0.8286
  243MOL0     C33464   2.265  10.262   4.477  1.0065  0.4951  0.1617
  243MOL0     H33465   2.758  10.175   4.812  0.0567 -1.5178 -1.1085
  243MOL0     H33466   2.951  10.309   4.863  1.5736 -0.8894 -0.2019
  243MOL0     H33467   3.156  10.500   4.502 -0.3235  1.0304  1.4109
  243MOL0     H33468   3.261  10.363   4.540  0.0336 -1.2239  0.9956
  243MOL0     H33469   3.376  10.482   4.718 -4.9105  0.0751  2.5288
  243MOL0     H33470   3.404  10.543   4.545 -0.2815  0.0013 -0.3751
  243MOL0     H33471   3.216  10.652   4.759 -1.3180  1.8144 -1.4028
  243MOL0     H33472   3.383  10.699   4.753  0.3505  3.0867 -1.2674
  243MOL0     H33473   3.320  10.755   4.500 -0.1251  0.1417 -0.3549
  243MOL0     H33474   3.151  10.750   4.534 -0.7746  1.7652  0.8351
  243MOL0     H33475   3.350  10.925   4.683 -1.0114  2.6263  1.6876
  243MOL0     H33476   3.185  10.911   4.721 -0.4024 -0.2181 -0.5395
  243MOL0     H33477   3.315  11.019   4.465  2.1393  1.1383  2.2797
  243MOL0     H33478   3.144  10.990   4.471 -1.8332  0.4155  1.1022
  243MOL0     H33479   3.134  11.152   4.673 -0.6219  1.7586  0.5032
  243MOL0     H33480   3.207  11.244   4.541 -2.4518 -1.2084 -0.1235
  243MOL0     H33481   3.349  11.133   4.782 -1.8556  0.4496  0.2125
  243MOL0     H33482   3.444  11.165   4.631  1.3688 -1.1209  1.2129
  243MOL0     H33483   3.173  11.349   4.825 -0.6375 -0.4365 -1.9694
  243MOL0     H33484   3.135  11.641   4.842 -0.4386 -1.2706  0.4700
  243MOL0     H33485   3.285  11.731   4.869 -3.0162  1.5154  0.3495
  243MOL0     H33486   3.156  11.682   5.061 -3.1627 -1.3453 -0.7923
  243MOL0     H33487   3.151  11.509   5.039  0.0838 -0.2305 -1.1077
  243MOL0     H33488   3.429  11.619   5.033 -0.5620 -1.3245 -2.4803
  243MOL0     H33489   3.337  11.634   5.194 -3.5165 -1.4719  0.7731
  243MOL0     H33490   3.295  11.375   5.161 -0.0286 -1.3202 -1.6733
  243MOL0     H33491   3.397  11.395   5.014 -0.1590 -0.3819 -0.0058
  243MOL0     H33492   3.589  11.457   4.933  0.4083 -3.4379  0.2335
  243MOL0     H33493   3.901  11.608   4.855 -0.5335 -0.2490  1.1711
  243MOL0     H33494   3.729  11.575   4.816 -1.8950  0.5192  2.7363
  243MOL0     H33495   3.853  11.438   4.807  0.1117 -0.2480 -0.2885
  243MOL0     H33496   4.219  11.729   4.994  1.4289 -0.8993 -0.2807
  243MOL0     H33497   4.459  11.782   4.984  1.1903 -0.0052  0.4411
  243MOL0     H33498   4.703  11.617   5.325  0.7322  0.2497  1.2620
  243MOL0     H33499   4.774  11.595   5.161  3.2916  0.5812  1.6525
  243MOL0     H33500   4.878  11.813   5.179  0.1923  1.5240  1.1176
  243MOL0     H33501   4.815  11.814   5.349  0.1786  2.1433 -1.5168
  243MOL0     H33502   5.032  11.641   5.227  1.0893 -0.6412  1.7315
  243MOL0     H33503   4.927  11.588   5.368  0.4637 -3.2444 -3.5509
  243MOL0     H33504   4.990  11.805   5.476  1.3788 -0.9344  2.0194
  243MOL0     H33505   5.104  11.840   5.343  1.9810  1.8611  3.3583
  243MOL0     H33506   5.137  11.576   5.492 -0.9748 -0.4670 -1.8531
  243MOL0     H33507   5.243  11.647   5.372  1.5688 -1.1520  1.3338
  243MOL0     H33508   5.193  11.776   5.638 -0.7600  1.3058 -1.1648
  243MOL0     H33509   5.297  11.842   5.510  2.7660 -0.1955  0.5542
  243MOL0     H33510   5.420  11.605   5.528 -3.3087 -3.9504  1.0039
  243MOL0     H33511   5.334  11.600   5.678 -3.4279 -2.3877 -3.7183
  243MOL0     H33512   5.554  11.688   5.732  1.4487 -1.1335 -3.3766
  243MOL0     H33513   5.439  11.832   5.726  0.0088  0.6767  0.4002
  243MOL0     H33514   4.487  11.642   5.386  0.1879  2.3443 -0.0977
  243MOL0     H33515   4.254  11.587   5.392 -0.7230 -0.5965  0.1568
  243MOL0     H33516   3.901  11.501   5.317  1.1636 -0.8169 -0.9615
  243MOL0     H33517   3.676  11.469   5.365 -1.2549  1.2715 -0.8734
  243MOL0     H33518   3.027  10.354   4.437 -2.2987  0.7630 -1.0729
  243MOL0     H33519   2.851  10.197   4.392  0.9648 -0.1424 -0.6795
  243MOL0     H33520   2.565   9.898   4.566 -0.1603 -1.0047 -1.7310
  243MOL0     H33521   2.381   9.742   4.550  0.9341 -0.0996 -2.3949
  243MOL0     H33522   2.249   9.618   4.424  1.3867  0.1981  3.2320
  243MOL0     H33523   2.146   9.615   4.566 -0.1697  0.2252  0.5217
  243MOL0     H33524   2.056   9.476   4.441 -0.3331  0.7876 -1.9959
  243MOL0     H33525   2.054   9.588   4.295 -1.4960 -3.7613 -1.7229
  243MOL0     H33526   1.885   9.645   4.550 -1.5310 -1.3291 -0.1265
  243MOL0     H33527   1.904   9.736   4.395  0.0543  0.4721  0.7591
  243MOL0     H33528   1.802   9.462   4.417  3.7501  0.0061 -1.9816
  243MOL0     H33529   1.776   9.576   4.284  2.7049  0.9395  0.0916
  243MOL0     H33530   1.453   9.627   4.560  0.2754 -0.3655  0.8973
  243MOL0     H33531   2.111  10.051   4.438 -0.1440 -2.2701 -2.1135
  243MOL0     H33532   2.309  10.334   4.547  0.2275  1.4704 -0.3198
  243MOL0     H33533   2.285  10.304   4.378  0.0076  1.5375  0.3757
  243MOL0     H33534   2.156  10.263   4.489  1.0230  0.1340  0.3567
  244MOL0     O33535   1.911   5.135   0.484  0.0273 -0.0087 -0.0447
  244MOL0     C33536   1.875   5.206   0.584  0.7832  0.0065 -0.1855
  244MOL0     O33537   1.955   5.257   0.680  0.5697  0.4948  0.2123
  244MOL0     C33538   2.084   5.213   0.704  1.2021 -0.3471 -0.8571
  244MOL0     C33539   2.110   5.083   0.740  0.0788  0.4538 -0.8660
  244MOL0     C33540   2.247   5.038   0.760  0.7887 -0.4963  0.4033
  244MOL0     C33541   2.358   5.127   0.759  0.3847  0.9895  0.9048
  244MOL0     O33542   2.480   5.087   0.800 -0.8839  0.3019 -0.0456
  244MOL0     C33543   2.574   5.183   0.852 -0.0648  1.0857  0.3580
  244MOL0     C33544   2.707   5.111   0.888  0.3757 -0.3752 -0.0230
  244MOL0     C33545   2.814   5.207   0.956 -0.1351  0.8044 -0.2821
  244MOL0     C33546   2.946   5.135   0.977 -0.5108  0.6617  0.6238
  244MOL0     C33547   3.048   5.246   1.016 -1.0374 -0.8302 -0.2779
  244MOL0     C33548   3.193   5.182   1.024  0.2122 -0.6542  0.0064
  244MOL0     C33549   3.291   5.289   1.088 -0.0597  0.0305 -0.0042
  244MOL0     C33550   3.428   5.225   1.095  0.8601  0.0826  0.9642
  244MOL0     N33551   3.531   5.322   1.146 -0.0646 -0.0696 -0.1913
  244MOL0     C33552   3.639   5.357   1.072  0.0917 -0.2721  0.2486
  244MOL0     C33553   3.672   5.479   1.115 -0.0938  0.4553 -0.2825
  244MOL0     C33554   3.783   5.566   1.068  0.4172  0.0399  0.4750
  244MOL0     C33555   3.922   5.506   1.115 -0.2258 -0.9077 -0.8257
  244MOL0     C33556   3.930   5.528   1.268  0.4742  1.4474 -0.1451
  244MOL0     C33557   4.050   5.477   1.340 -1.0512 -0.3837 -1.1936
  244MOL0     O33558   4.180   5.488   1.274 -0.1478  0.2550 -0.0420
  244MOL0     C33559   4.284   5.412   1.334 -0.0025 -0.1972 -0.2587
  244MOL0     C33560   4.291   5.344   1.463  0.0234  0.9356 -0.0409
  244MOL0     C33561   4.401   5.272   1.503  0.0380  0.5619 -0.8737
  244MOL0     C33562   4.374   5.196   1.642  0.0188 -0.0587  0.3510
  244MOL0     C33563   4.509   5.257   1.414  0.3470 -0.0529 -0.0687
  244MOL0     C33564   4.635   5.169   1.421 -0.1447  0.5974  0.2983
  244MOL0     O33565   4.682   5.135   1.302 -0.0266 -0.3117  0.5786
  244MOL0     C33566   4.797   5.076   1.284 -0.4882 -0.4337  0.0712
  244MOL0     C33567   4.918   5.144   1.296  0.3718  0.6422 -0.0951
  244MOL0     C33568   5.032   5.075   1.266 -0.1890 -0.1858 -0.2526
  244MOL0     C33569   5.030   4.937   1.224  0.4100 -0.8604 -0.2599
  244MOL0     O33570   5.148   4.876   1.186  0.1084 -0.0552 -0.1237
  244MOL0     C33571   5.212   4.794   1.292  0.9264  0.2155 -0.6122
  244MOL0     C33572   5.300   4.877   1.385  0.1272 -0.0326  0.7971
  244MOL0     C33573   5.433   4.920   1.315  1.0057  0.0424 -0.2750
  244MOL0     C33574   5.518   5.006   1.409  0.1485  0.2090 -0.7605
  244MOL0     C33575   5.673   5.030   1.356 -0.9931 -0.2478  0.1648
  244MOL0     C33576   5.752   5.132   1.444 -0.5908 -0.7531  0.5134
  244MOL0     C33577   5.894   5.177   1.392 -0.1161 -0.4229 -0.2199
  244MOL0     C33578   5.950   5.303   1.470  1.0223  0.8377 -0.2063
  244MOL0    Cl33579   5.845   5.445   1.439  0.3735 -0.0684  0.6051
  244MOL0     C33580   4.909   4.874   1.203 -0.4383 -0.1234 -0.2894
  244MOL0     C33581   4.790   4.945   1.234 -0.2517  1.2952 -0.2146
  244MOL0     O33582   4.665   5.114   1.525  0.1544 -0.0907 -0.1746
  244MOL0     C33583   4.498   5.322   1.293 -1.3704  0.2641 -0.4775
  244MOL0     C33584   4.392   5.396   1.254  0.3247  0.1353  0.0707
  244MOL0     N33585   3.605   5.497   1.237 -0.9134 -0.2356  0.2123
  244MOL0     N33586   3.521   5.410   1.252  0.8788  0.4680 -0.0621
  244MOL0     C33587   2.328   5.265   0.730 -0.2369  0.0315 -0.4460
  244MOL0     C33588   2.195   5.302   0.702  0.2394 -0.3534  0.1688
  244MOL0     C33589   1.728   5.227   0.599 -0.4581 -0.6388 -0.2320
  244MOL0     C33590   1.650   5.200   0.482 -0.2532  0.3054 -0.5756
  244MOL0     C33591   1.514   5.217   0.486  0.0808  0.3185 -1.3556
  244MOL0     C33592   1.454   5.247   0.613  0.2900  0.8817  0.7152
  244MOL0     O33593   1.321   5.282   0.616 -0.0791  0.0412  0.2786
  244MOL0     C33594   1.226   5.262   0.503 -0.3062  0.2626  0.7258
  244MOL0     C33595   1.190   5.110   0.486  0.1623 -0.1734  0.5736
  244MOL0     C33596   1.119   5.075   0.352  0.7962 -0.2428  0.8179
  244MOL0     C33597   0.984   5.145   0.334 -0.5353  0.1608  0.1328
  244MOL0     C33598   0.881   5.121   0.439 -0.7589  0.3594 -0.1559
  244MOL0     C33599   0.807   5.074   0.524  0.0977  0.2608  0.5260
  244MOL0     C33600   1.522   5.261   0.728 -0.3247  0.5399 -0.4226
  244MOL0     C33601   1.661   5.250   0.725 -0.1353 -0.9898  0.3574
  244MOL0     C33602   1.727   5.245   0.861 -0.1394  0.7272  0.2855
  244MOL0     H33603   2.023   5.019   0.752 -0.0114  0.7512  0.1856
  244MOL0     H33604   2.261   4.936   0.796  1.1353  0.1191  2.0533
  244MOL0     H33605   2.535   5.247   0.932  0.2807 -0.8367  2.1331
  244MOL0     H33606   2.589   5.237   0.758 -2.2310  0.5612 -0.3515
  244MOL0     H33607   2.691   5.031   0.961  2.0541 -0.5805  0.1651
  244MOL0     H33608   2.747   5.057   0.801  0.2970 -0.1370 -0.2074
  244MOL0     H33609   2.841   5.290   0.890  2.2436 -0.7135 -1.3671
  244MOL0     H33610   2.773   5.241   1.051 -2.1936  3.1190 -1.8784
  244MOL0     H33611   2.942   5.068   1.063 -1.0496  0.7623  0.6774
  244MOL0     H33612   2.969   5.085   0.882 -1.8612  0.1907  0.5360
  244MOL0     H33613   3.025   5.277   1.119  1.7740  0.4019  0.0841
  244MOL0     H33614   3.045   5.326   0.942 -0.9446 -1.0755 -0.5459
  244MOL0     H33615   3.188   5.091   1.085 -0.9030 -1.3875 -1.1312
  244MOL0     H33616   3.240   5.153   0.930 -0.9257  0.4395 -0.9381
  244MOL0     H33617   3.260   5.324   1.187  3.3394 -2.0493  1.9916
  244MOL0     H33618   3.307   5.381   1.029 -3.2636  0.7395  0.0769
  244MOL0     H33619   3.423   5.135   1.157  1.5877  1.6598  3.4967
  244MOL0     H33620   3.442   5.200   0.990 -3.5008  3.6884 -0.8232
  244MOL0     H33621   3.683   5.310   0.984  0.0502  2.0108 -1.0693
  244MOL0     H33622   3.767   5.668   1.103 -3.2931 -0.5123  0.7689
  244MOL0     H33623   3.786   5.572   0.958 -1.9764 -0.2665  0.3522
  244MOL0     H33624   3.930   5.402   1.083 -1.3634 -1.1853 -0.2890
  244MOL0     H33625   4.006   5.550   1.060  0.8814  1.5194  2.4868
  244MOL0     H33626   3.913   5.636   1.279 -1.1857  1.2714 -0.6130
  244MOL0     H33627   3.845   5.476   1.315  1.4466 -1.3797 -1.3062
  244MOL0     H33628   4.059   5.527   1.436 -2.5877 -1.6506 -0.3489
  244MOL0     H33629   4.026   5.371   1.356 -3.9477  0.0547 -2.0824
  244MOL0     H33630   4.208   5.349   1.534 -0.0901 -0.1966 -0.0777
  244MOL0     H33631   4.298   5.252   1.697  2.9027  2.8054  1.7610
  244MOL0     H33632   4.467   5.205   1.698 -1.6746  1.6020  3.1788
  244MOL0     H33633   4.346   5.091   1.636  0.8509 -0.3569  1.4306
  244MOL0     H33634   4.918   5.244   1.339  0.1504 -0.6471  3.1906
  244MOL0     H33635   5.127   5.122   1.288  0.6332 -1.4967 -0.9017
  244MOL0     H33636   5.137   4.743   1.353  0.5633  1.6082  0.1534
  244MOL0     H33637   5.273   4.712   1.253 -0.4817 -0.1382 -2.1842
  244MOL0     H33638   5.249   4.969   1.416  1.1648  0.4158  1.2189
  244MOL0     H33639   5.321   4.822   1.477  1.5602 -0.9923 -0.0782
  244MOL0     H33640   5.405   4.976   1.225 -1.1433 -2.5930 -1.4222
  244MOL0     H33641   5.497   4.834   1.292  3.6668  1.4745  1.2311
  244MOL0     H33642   5.527   4.956   1.506  4.1109  0.5805 -0.7661
  244MOL0     H33643   5.464   5.098   1.429  0.8843  0.0302  2.7195
  244MOL0     H33644   5.727   4.935   1.363 -0.7833 -0.2321 -1.1546
  244MOL0     H33645   5.675   5.052   1.249  2.9370  0.4746  0.2471
  244MOL0     H33646   5.764   5.090   1.545  0.9375 -2.6667 -0.4148
  244MOL0     H33647   5.687   5.220   1.453 -0.3823 -0.4292 -0.9942
  244MOL0     H33648   5.900   5.201   1.286 -1.3690 -1.4667 -0.5513
  244MOL0     H33649   5.960   5.091   1.404  2.1624  1.2314 -0.1345
  244MOL0     H33650   6.055   5.319   1.444  0.2562  2.1719 -2.7483
  244MOL0     H33651   5.936   5.276   1.575  0.2558 -2.6598 -1.0835
  244MOL0     H33652   4.903   4.773   1.165 -0.8270 -0.7851  1.4491
  244MOL0     H33653   4.688   4.913   1.218  0.0143 -0.3853  1.1655
  244MOL0     H33654   4.582   5.313   1.225  0.3005  3.1367  1.0205
  244MOL0     H33655   4.406   5.443   1.157 -1.4080  0.8133  0.1006
  244MOL0     H33656   2.406   5.338   0.710 -0.2217 -0.5174 -2.6823
  244MOL0     H33657   2.171   5.404   0.672  0.4362 -1.0611 -2.7161
  244MOL0     H33658   1.688   5.182   0.382  5.1204  0.8783  1.0444
  244MOL0     H33659   1.463   5.206   0.391  2.0561 -0.8407 -2.3364
  244MOL0     H33660   1.141   5.326   0.528  1.1140  2.6176 -0.1199
  244MOL0     H33661   1.276   5.306   0.416  0.0860 -0.6135  0.5037
  244MOL0     H33662   1.126   5.079   0.569  1.5340 -2.4895  0.8597
  244MOL0     H33663   1.282   5.050   0.485  0.6772  0.6133 -0.5075
  244MOL0     H33664   1.179   5.101   0.264  1.6227  0.5850  1.6059
  244MOL0     H33665   1.112   4.967   0.335 -0.0066  0.0860 -1.4175
  244MOL0     H33666   0.943   5.113   0.238  0.3140 -1.2276  0.1975
  244MOL0     H33667   1.007   5.252   0.324 -1.5377  0.1882 -2.9198
  244MOL0     H33668   0.752   5.030   0.605 -1.8912  0.2418 -0.7609
  244MOL0     H33669   1.463   5.282   0.816 -3.0398  1.9598 -2.4013
  244MOL0     H33670   1.799   5.163   0.866 -2.9526 -1.9129  0.4478
  244MOL0     H33671   1.773   5.344   0.852 -1.8371  1.4737 -0.5449
  244MOL0     H33672   1.656   5.232   0.943 -0.7502 -2.7768 -0.6450
  245MOL0     O33673  11.044   9.792   1.256 -0.4380  0.0747  0.7564
  245MOL0     C33674  10.973   9.826   1.161  1.0468  0.9174 -0.4574
  245MOL0     O33675  10.996   9.920   1.075 -0.8679  0.2408  0.3336
  245MOL0     C33676  11.119   9.982   1.073 -0.6519  1.0709 -0.1123
  245MOL0     C33677  11.221   9.929   0.995  0.8120  0.4573  0.5217
  245MOL0     C33678  11.355   9.980   0.997 -0.2530 -0.1304  0.0008
  245MOL0     C33679  11.384  10.087   1.085 -0.9863 -0.4867  0.4554
  245MOL0     O33680  11.514  10.130   1.100  0.4627  0.3140 -0.1384
  245MOL0     C33681  11.549  10.191   1.224  0.5253  0.0605  0.5252
  245MOL0     C33682  11.697  10.147   1.240  0.2435 -0.6195  0.1835
  245MOL0     C33683  11.717   9.998   1.253  1.1481  0.8686  0.4578
  245MOL0     C33684  11.858   9.947   1.196 -0.0079  0.2636 -0.1756
  245MOL0     C33685  11.985  10.000   1.281 -0.2051 -0.1543 -0.6949
  245MOL0     C33686  12.025   9.921   1.405 -0.0487  0.0149 -0.4435
  245MOL0     C33687  12.162   9.944   1.466 -0.5592 -0.5130  0.0224
  245MOL0     C33688  12.285   9.857   1.414  0.5276 -0.2747  0.7375
  245MOL0     N33689  12.306   9.883   1.272 -0.3548  0.1287  0.5591
  245MOL0     C33690  12.337   9.789   1.172  0.2798 -0.5851  0.6698
  245MOL0     C33691  12.392   9.857   1.061  0.1969 -0.0813  0.1151
  245MOL0     C33692  12.452   9.798   0.940 -0.6777 -0.2409 -0.1144
  245MOL0     C33693  12.482   9.898   0.832  0.3228 -0.4285  0.5598
  245MOL0     C33694  12.588   9.998   0.874  0.4233  0.7277  0.2534
  245MOL0     C33695  12.645  10.069   0.753  0.1377 -0.1988  1.1459
  245MOL0     O33696  12.549  10.152   0.685 -0.5024  0.3863  0.1112
  245MOL0     C33697  12.596  10.253   0.613 -0.7056  0.0499  0.5414
  245MOL0     C33698  12.490  10.337   0.567 -0.1356 -0.2321  0.3955
  245MOL0     C33699  12.513  10.460   0.501 -0.5760  0.5035  0.0193
  245MOL0     C33700  12.397  10.536   0.474  0.2343 -0.3560  1.1048
  245MOL0     C33701  12.645  10.486   0.460  0.0850 -0.0324  0.4064
  245MOL0     C33702  12.687  10.601   0.369 -0.3549  0.0806 -0.0346
  245MOL0     O33703  12.820  10.610   0.326  0.4571 -0.0917 -0.0493
  245MOL0     C33704  12.874  10.734   0.307 -0.4408  0.9462  0.3288
  245MOL0     C33705  12.945  10.761   0.197 -0.2489 -0.2742  0.8816
  245MOL0     C33706  13.021  10.879   0.180  0.2262  0.2320  0.3735
  245MOL0     C33707  13.011  10.975   0.277 -0.0668  0.3992  0.3872
  245MOL0     O33708  13.084  11.089   0.258 -0.1811  0.6611 -0.4402
  245MOL0     C33709  13.200  11.105   0.342 -0.7171  0.9013  0.6432
  245MOL0     C33710  13.170  11.175   0.471  0.3748  0.9318 -0.3634
  245MOL0     C33711  13.127  11.316   0.444  0.4776  0.1494  0.5819
  245MOL0     C33712  13.129  11.396   0.575  0.1582  0.0549 -0.1307
  245MOL0     C33713  13.005  11.490   0.590 -0.1297 -0.0265  0.0872
  245MOL0     C33714  13.042  11.586   0.702  1.3647  0.3859  0.6517
  245MOL0     C33715  12.918  11.699   0.702  0.0593  0.8767 -1.0650
  245MOL0     C33716  12.953  11.818   0.788  0.0493 -0.5653  0.2795
  245MOL0    Cl33717  12.828  11.956   0.813 -0.5138  0.1339 -0.0462
  245MOL0     C33718  12.929  10.957   0.392  0.0439  0.7747 -0.3974
  245MOL0     C33719  12.860  10.834   0.401 -0.1618  0.1129 -0.1912
  245MOL0     O33720  12.605  10.697   0.361 -0.1101 -0.2219 -0.9187
  245MOL0     C33721  12.750  10.407   0.515  0.4414 -0.5262 -0.5300
  245MOL0     C33722  12.723  10.293   0.590 -0.5268  0.1283  0.7721
  245MOL0     N33723  12.384   9.994   1.098  0.0786  0.1885 -0.4927
  245MOL0     N33724  12.342  10.006   1.223 -0.0804  0.0879 -0.1231
  245MOL0     C33725  11.281  10.147   1.160 -0.4296 -0.0111  0.3197
  245MOL0     C33726  11.153  10.093   1.156  0.6206  0.8543 -0.6709
  245MOL0     C33727  10.860   9.743   1.142 -0.3479 -0.7393 -0.0510
  245MOL0     C33728  10.803   9.718   1.009  0.2330 -0.4893 -0.5958
  245MOL0     C33729  10.705   9.619   0.976  0.1787 -0.8741  0.3232
  245MOL0     C33730  10.649   9.544   1.078 -0.2169 -0.1790 -0.6988
  245MOL0     O33731  10.563   9.444   1.036  0.2504 -0.0316  0.3850
  245MOL0     C33732  10.468   9.379   1.123 -0.5461 -0.5641  0.2138
  245MOL0     C33733  10.330   9.434   1.082  0.7489 -0.8763  0.1755
  245MOL0     C33734  10.283   9.394   0.942 -0.4085  1.1245 -0.6552
  245MOL0     C33735  10.190   9.488   0.875  0.3829 -0.4410 -0.0239
  245MOL0     C33736  10.052   9.449   0.870  0.0308 -0.5254  0.7311
  245MOL0     C33737   9.937   9.443   0.828  0.6726 -0.0809  0.0666
  245MOL0     C33738  10.689   9.579   1.214  0.1997 -0.4544 -0.3774
  245MOL0     C33739  10.786   9.678   1.248 -0.0440 -0.4550  0.0939
  245MOL0     C33740  10.790   9.712   1.395 -0.4854  0.1612  0.3969
  245MOL0     H33741  11.193   9.847   0.929  0.4519 -0.1329  1.3844
  245MOL0     H33742  11.436   9.944   0.933  1.1394  1.9955  0.4532
  245MOL0     H33743  11.489  10.152   1.307  0.4491  1.8587  1.3670
  245MOL0     H33744  11.535  10.299   1.212 -2.1882 -0.5215 -4.6120
  245MOL0     H33745  11.762  10.192   1.165 -1.2971 -2.9690 -2.7855
  245MOL0     H33746  11.734  10.201   1.327 -0.3625  2.5221 -1.3521
  245MOL0     H33747  11.721   9.967   1.359  0.6520  0.0423  0.2443
  245MOL0     H33748  11.639   9.944   1.199  1.0136 -1.0935  2.4370
  245MOL0     H33749  11.857   9.837   1.201 -0.0545  0.3051  1.2394
  245MOL0     H33750  11.878   9.981   1.094 -0.2675  0.9782  0.0069
  245MOL0     H33751  11.970  10.104   1.312  1.6597 -0.0314 -0.0854
  245MOL0     H33752  12.072  10.004   1.214  0.8569  3.4732  0.6663
  245MOL0     H33753  11.956   9.932   1.489  0.1244  0.3454 -0.3423
  245MOL0     H33754  12.022   9.817   1.370 -1.3244  0.5356 -2.0189
  245MOL0     H33755  12.145   9.929   1.573 -2.7150  0.4958 -0.1159
  245MOL0     H33756  12.192  10.048   1.455  0.3292 -0.8693 -1.0759
  245MOL0     H33757  12.375   9.871   1.474 -0.7606 -0.7588  2.8891
  245MOL0     H33758  12.269   9.750   1.431  1.1611 -0.7912 -1.5502
  245MOL0     H33759  12.327   9.681   1.163  0.0108 -0.4742 -0.4837
  245MOL0     H33760  12.375   9.727   0.911 -2.9174  1.7762  0.5399
  245MOL0     H33761  12.547   9.757   0.974 -1.1475 -0.8024  0.5511
  245MOL0     H33762  12.520   9.839   0.748 -0.4742  0.6494 -0.5897
  245MOL0     H33763  12.390   9.948   0.801  1.3596 -0.2187 -2.5164
  245MOL0     H33764  12.539  10.074   0.936  1.5291  0.8612  1.0082
  245MOL0     H33765  12.665   9.941   0.927 -0.2288 -3.1019 -2.4963
  245MOL0     H33766  12.723  10.131   0.795  1.6192 -0.9853 -0.3201
  245MOL0     H33767  12.691   9.991   0.691 -0.7645  1.6160 -2.0674
  245MOL0     H33768  12.389  10.296   0.573  1.2451 -3.9619  0.8083
  245MOL0     H33769  12.399  10.618   0.546 -3.0930 -1.1883  2.3317
  245MOL0     H33770  12.302  10.482   0.477  0.0030 -0.4880 -2.9678
  245MOL0     H33771  12.399  10.580   0.374  0.5908 -1.3142  0.6801
  245MOL0     H33772  12.946  10.695   0.111  4.2310 -1.0693  1.2834
  245MOL0     H33773  13.089  10.897   0.097  2.6026  0.0305  2.1686
  245MOL0     H33774  13.245  11.010   0.371 -3.2681 -0.8545 -0.7620
  245MOL0     H33775  13.271  11.172   0.291 -0.0963  1.4279  2.1502
  245MOL0     H33776  13.095  11.118   0.527  1.5323  0.4640  0.7407
  245MOL0     H33777  13.264  11.170   0.525 -1.0081  1.8841  2.2929
  245MOL0     H33778  13.024  11.309   0.407  1.3905 -3.6194 -1.8025
  245MOL0     H33779  13.188  11.354   0.362  0.1508 -2.0935 -0.7785
  245MOL0     H33780  13.215  11.463   0.567  0.0987  0.3483  1.4407
  245MOL0     H33781  13.149  11.343   0.668 -0.7925 -1.6689 -0.8639
  245MOL0     H33782  12.987  11.543   0.496  2.5885  2.7235  0.9453
  245MOL0     H33783  12.914  11.438   0.622 -1.8597  2.5572 -0.2728
  245MOL0     H33784  13.136  11.637   0.681  0.2945  1.8078 -1.0531
  245MOL0     H33785  13.045  11.547   0.804  2.0653  1.8026  1.2000
  245MOL0     H33786  12.834  11.643   0.743  1.5926 -0.6042  0.1738
  245MOL0     H33787  12.896  11.742   0.603 -0.8123  0.1161 -1.2111
  245MOL0     H33788  13.044  11.860   0.744  0.0506 -0.3668  0.4664
  245MOL0     H33789  12.974  11.774   0.886 -0.2563 -0.1948  0.5130
  245MOL0     H33790  12.894  11.032   0.462  1.0559  2.3881 -1.5576
  245MOL0     H33791  12.793  10.812   0.484  2.8784  2.5353  3.2335
  245MOL0     H33792  12.849  10.421   0.472  0.4213 -1.3746 -0.8752
  245MOL0     H33793  12.800  10.228   0.631  1.7193  0.9604 -1.7809
  245MOL0     H33794  11.307  10.236   1.215 -0.7065 -0.2049  0.7738
  245MOL0     H33795  11.084  10.133   1.229 -1.0542 -0.4125 -1.5017
  245MOL0     H33796  10.846   9.778   0.928  1.4625  0.2685  0.5731
  245MOL0     H33797  10.655   9.618   0.879  0.0730  0.9634  0.3208
  245MOL0     H33798  10.480   9.270   1.124  1.3201 -0.4105 -0.7019
  245MOL0     H33799  10.478   9.418   1.225 -1.6044  2.3285 -0.6972
  245MOL0     H33800  10.331   9.543   1.091 -0.8093 -0.9084  1.3428
  245MOL0     H33801  10.256   9.406   1.159  0.8740 -1.4772  0.0880
  245MOL0     H33802  10.370   9.360   0.886 -0.6707 -0.4740 -0.1669
  245MOL0     H33803  10.233   9.297   0.949  3.0412 -0.8583 -1.1738
  245MOL0     H33804  10.233   9.494   0.774 -2.0905 -0.3122 -1.1414
  245MOL0     H33805  10.206   9.582   0.929  0.4773 -1.6909  2.2597
  245MOL0     H33806   9.843   9.477   0.788 -0.0713 -0.7642  1.1791
  245MOL0     H33807  10.630   9.531   1.291 -0.7563  1.3796  0.1014
  245MOL0     H33808  10.704   9.668   1.446  0.8524 -3.5245 -0.2400
  245MOL0     H33809  10.876   9.667   1.446  0.0967 -2.7859 -2.8053
  245MOL0     H33810  10.793   9.819   1.417  0.0110  0.1277  0.5086
  246MOL0     O33811   7.566   2.385  10.408  0.4951 -0.2420 -0.4078
  246MOL0     C33812   7.563   2.330  10.516 -0.0702 -0.0745 -0.1112
  246MOL0     O33813   7.656   2.229  10.553  0.7312 -0.6376  0.3422
  246MOL0     C33814   7.723   2.159  10.461 -0.2437  0.0864  1.0164
  246MOL0     C33815   7.859   2.180  10.463 -0.7140 -1.2362  0.1068
  246MOL0     C33816   7.936   2.123  10.366 -0.7715 -0.3555  0.0886
  246MOL0     C33817   7.873   2.053  10.251  0.1050  0.3154 -0.1062
  246MOL0     O33818   7.964   2.001  10.162 -0.2421 -0.7074 -0.0291
  246MOL0     C33819   7.919   1.969  10.026  0.3848  0.1951  0.5309
  246MOL0     C33820   7.886   1.811  10.021  0.2629 -0.4518  0.3696
  246MOL0     C33821   8.026   1.741  10.033  0.7215  0.4161  0.1022
  246MOL0     C33822   8.090   1.733   9.889  0.1655 -0.0470 -0.3086
  246MOL0     C33823   8.201   1.636   9.894 -0.2050 -0.6524 -0.1361
  246MOL0     C33824   8.237   1.571   9.760 -0.7119 -0.5417 -0.7951
  246MOL0     C33825   8.391   1.539   9.771 -0.9160  0.7524  0.0041
  246MOL0     C33826   8.452   1.503   9.638 -0.6845  0.9175  1.5953
  246MOL0     N33827   8.395   1.368   9.598  0.1608 -0.5740  0.0768
  246MOL0     C33828   8.279   1.347   9.534 -0.3111  0.8585  0.9843
  246MOL0     C33829   8.274   1.216   9.520  0.0163  0.0889 -0.3214
  246MOL0     C33830   8.170   1.127   9.449  0.2303  0.5702 -0.1374
  246MOL0     C33831   8.086   1.049   9.547  0.0002  0.7391  0.3366
  246MOL0     C33832   8.177   0.937   9.619  0.6026  0.1058 -0.0078
  246MOL0     C33833   8.228   0.822   9.536 -0.4532 -0.3691  0.1973
  246MOL0     O33834   8.121   0.746   9.474  0.0916 -0.0926  0.0659
  246MOL0     C33835   8.148   0.639   9.395 -0.2217  0.2545 -0.5360
  246MOL0     C33836   8.278   0.601   9.376 -0.1176  1.3073 -0.1828
  246MOL0     C33837   8.317   0.509   9.277  1.3126  0.7243  0.1294
  246MOL0     C33838   8.464   0.472   9.261  0.4458  0.1129  0.2041
  246MOL0     C33839   8.206   0.452   9.198 -0.0124  0.0502 -0.1274
  246MOL0     C33840   8.225   0.360   9.082 -0.8535  0.3478 -0.8114
  246MOL0     O33841   8.115   0.289   9.040  0.2038 -0.1748 -0.1509
  246MOL0     C33842   8.118   0.198   8.935  0.5786  0.2759  0.2228
  246MOL0     C33843   8.224   0.110   8.916  0.7836  0.2553 -0.1456
  246MOL0     C33844   8.242   0.042   8.794  0.6017 -0.9424  0.1131
  246MOL0     C33845   8.151   0.052   8.684 -0.2581  0.3007  0.3386
  246MOL0     O33846   8.154  -0.024   8.566  1.0778  0.4128 -0.1839
  246MOL0     C33847   8.235  -0.144   8.554 -0.3118 -0.5235 -0.9495
  246MOL0     C33848   8.220  -0.199   8.418  1.2864  0.4700  0.1912
  246MOL0     C33849   8.275  -0.345   8.405  0.5277 -0.7792 -0.6545
  246MOL0     C33850   8.424  -0.354   8.380 -0.8445  1.1209 -1.0469
  246MOL0     C33851   8.486  -0.494   8.369 -0.2600 -0.1353 -0.2541
  246MOL0     C33852   8.633  -0.490   8.354  0.4181 -0.0823  1.0187
  246MOL0     C33853   8.681  -0.481   8.200  0.0545  0.8211 -0.5709
  246MOL0     C33854   8.805  -0.560   8.182  0.6253 -0.7414  0.1424
  246MOL0    Cl33855   8.935  -0.495   8.289 -0.5438 -0.1113  0.0621
  246MOL0     C33856   8.045   0.137   8.710 -0.3442  0.0890 -0.5405
  246MOL0     C33857   8.034   0.206   8.833  0.4356 -0.4654  0.1091
  246MOL0     O33858   8.339   0.352   9.037 -0.2709  0.0146  0.0853
  246MOL0     C33859   8.074   0.474   9.235  0.5203  0.8984 -0.6928
  246MOL0     C33860   8.046   0.573   9.328 -0.0405  0.3281  0.0898
  246MOL0     N33861   8.396   1.164   9.558  0.2503 -0.2794  0.5538
  246MOL0     N33862   8.470   1.251   9.621 -0.0973 -0.2729  0.4549
  246MOL0     C33863   7.737   2.032  10.254 -0.0672  0.2075 -0.1853
  246MOL0     C33864   7.663   2.081  10.366 -0.1408 -0.4089  0.0743
  246MOL0     C33865   7.481   2.387  10.627 -0.3297  0.1952 -0.7983
  246MOL0     C33866   7.477   2.523  10.658 -0.7854  0.1334 -0.0038
  246MOL0     C33867   7.396   2.577  10.752  1.0233  0.0669 -0.2200
  246MOL0     C33868   7.314   2.495  10.826  0.7961  0.3347  0.1171
  246MOL0     O33869   7.227   2.551  10.930 -0.2797 -0.5480 -0.5441
  246MOL0     C33870   7.301   2.638  11.023  0.3227  0.3550  0.5201
  246MOL0     C33871   7.226   2.658  11.151 -0.4603 -0.2548 -0.1266
  246MOL0     C33872   7.100   2.743  11.133 -0.3872 -0.2819 -0.4744
  246MOL0     C33873   7.049   2.774  11.273 -0.3165 -0.4152 -0.3793
  246MOL0     C33874   6.932   2.866  11.259 -0.1653 -0.2768 -0.4355
  246MOL0     C33875   6.833   2.943  11.251 -0.0911  0.4850 -0.1865
  246MOL0     C33876   7.323   2.366  10.807  0.6135  0.1446  0.4039
  246MOL0     C33877   7.417   2.303  10.714  1.7654  0.3516 -0.3997
  246MOL0     C33878   7.420   2.154  10.695  0.1143 -0.0801  1.3327
  246MOL0     H33879   7.897   2.237  10.548 -0.6625  1.4596 -1.6194
  246MOL0     H33880   8.041   2.138  10.387 -0.9222  1.2594 -0.2004
  246MOL0     H33881   7.993   1.997   9.950  0.0486 -0.9825 -0.2553
  246MOL0     H33882   7.823   2.018  10.008 -0.3730 -1.5688 -0.4691
  246MOL0     H33883   7.816   1.794  10.103  0.7523  1.2131  1.1881
  246MOL0     H33884   7.838   1.791   9.925 -0.3064  0.5797  0.4186
  246MOL0     H33885   8.097   1.778  10.108  0.3504  2.0186 -0.2895
  246MOL0     H33886   7.991   1.639  10.051 -0.7030  0.9477  0.4543
  246MOL0     H33887   8.014   1.704   9.816  1.2604  2.2982 -2.5418
  246MOL0     H33888   8.130   1.827   9.851  3.3328 -1.0834  0.2059
  246MOL0     H33889   8.201   1.563   9.975  1.4109  2.1654  2.6260
  246MOL0     H33890   8.286   1.701   9.917 -0.8505  0.3780 -0.5957
  246MOL0     H33891   8.185   1.476   9.742  2.7761 -2.5758 -0.9228
  246MOL0     H33892   8.209   1.641   9.680  0.6893 -0.1849 -0.9926
  246MOL0     H33893   8.408   1.463   9.848 -1.3399  0.9347  0.2860
  246MOL0     H33894   8.450   1.629   9.794  1.9726 -0.7585 -1.0738
  246MOL0     H33895   8.438   1.573   9.555 -0.8145 -1.2285 -0.2986
  246MOL0     H33896   8.561   1.489   9.637 -0.9215 -2.0279 -1.3562
  246MOL0     H33897   8.204   1.417   9.501  0.5174  1.3296  0.0474
  246MOL0     H33898   8.209   1.060   9.372  0.5122 -0.4389  0.8562
  246MOL0     H33899   8.105   1.193   9.391  0.2255  2.3887  1.8307
  246MOL0     H33900   8.034   1.118   9.613  0.2530  1.9896 -0.7337
  246MOL0     H33901   8.001   1.002   9.498 -0.4956  1.1896  0.7536
  246MOL0     H33902   8.253   0.987   9.680  0.7087  2.2665 -1.7587
  246MOL0     H33903   8.106   0.887   9.684 -0.9433  0.8871 -1.0361
  246MOL0     H33904   8.298   0.862   9.463  0.4813  0.8029  1.6796
  246MOL0     H33905   8.291   0.760   9.602 -1.2497 -1.0068  0.3806
  246MOL0     H33906   8.358   0.629   9.444  1.5668 -5.1523  1.1218
  246MOL0     H33907   8.501   0.487   9.160  0.2043 -0.5676  0.0095
  246MOL0     H33908   8.468   0.364   9.277 -0.9066 -0.2072 -1.4213
  246MOL0     H33909   8.532   0.525   9.329  0.4236 -0.4226  0.6573
  246MOL0     H33910   8.302   0.088   8.988 -0.4092 -0.6182  0.9281
  246MOL0     H33911   8.328  -0.018   8.762  0.8289  1.5058 -4.8234
  246MOL0     H33912   8.339  -0.120   8.575 -1.5627  3.2415  2.2037
  246MOL0     H33913   8.191  -0.217   8.622 -0.0445 -0.2111 -0.4379
  246MOL0     H33914   8.112  -0.194   8.400  1.7227 -0.2065 -3.1699
  246MOL0     H33915   8.254  -0.135   8.337  1.9868 -2.1632 -1.7446
  246MOL0     H33916   8.218  -0.394   8.326  2.4693 -0.8411 -2.0719
  246MOL0     H33917   8.248  -0.402   8.495  1.7408  1.1293  1.0167
  246MOL0     H33918   8.473  -0.294   8.456  0.1339  0.3247 -1.0273
  246MOL0     H33919   8.444  -0.296   8.289 -1.5747  1.2055 -1.1636
  246MOL0     H33920   8.464  -0.550   8.460  1.8714  0.3741  0.6539
  246MOL0     H33921   8.447  -0.543   8.280 -1.5412  0.3878 -0.0042
  246MOL0     H33922   8.690  -0.561   8.414  0.4842  1.9662  3.5811
  246MOL0     H33923   8.672  -0.397   8.398  0.3429  2.4010 -3.5527
  246MOL0     H33924   8.701  -0.378   8.169  0.6100  0.5869 -1.0161
  246MOL0     H33925   8.612  -0.519   8.124 -0.8475  0.5458  0.3713
  246MOL0     H33926   8.841  -0.558   8.079 -3.0065 -1.4807 -1.2757
  246MOL0     H33927   8.796  -0.661   8.224 -0.1556 -0.7015  0.0902
  246MOL0     H33928   7.962   0.162   8.645 -0.4546 -1.9779 -1.2512
  246MOL0     H33929   7.960   0.285   8.842  1.9282  0.7593  2.4534
  246MOL0     H33930   7.995   0.420   9.183  0.5159 -1.5483  1.5776
  246MOL0     H33931   7.944   0.603   9.349  0.6870  1.4547  2.2871
  246MOL0     H33932   7.699   1.967  10.176  0.3087 -0.9269  0.5531
  246MOL0     H33933   7.555   2.071  10.369 -0.1081 -0.7489  0.1696
  246MOL0     H33934   7.544   2.584  10.599  1.0955 -1.5616  0.2716
  246MOL0     H33935   7.386   2.682  10.774  0.9742  0.1114 -0.4578
  246MOL0     H33936   7.394   2.584  11.042  1.3304  0.1002 -3.9563
  246MOL0     H33937   7.336   2.733  10.983  1.2075  0.8198  2.3175
  246MOL0     H33938   7.294   2.694  11.228  2.1495 -0.1549 -2.3238
  246MOL0     H33939   7.178   2.566  11.187  0.1668  0.4606  2.7764
  246MOL0     H33940   7.116   2.834  11.075  0.4071  0.7021  1.2023
  246MOL0     H33941   7.025   2.682  11.082 -0.9416  1.0253 -1.2578
  246MOL0     H33942   7.125   2.831  11.327 -0.8268 -0.8443  0.8134
  246MOL0     H33943   7.030   2.677  11.318 -1.0612 -0.5603 -0.9849
  246MOL0     H33944   6.746   3.003  11.237  2.0829  3.7178 -1.0705
  246MOL0     H33945   7.263   2.292  10.860 -0.3771 -0.3818 -1.3678
  246MOL0     H33946   7.352   2.115  10.772  2.1242 -1.3745  2.5630
  246MOL0     H33947   7.386   2.124  10.596  2.7449 -2.4763  1.0395
  246MOL0     H33948   7.513   2.111  10.734 -0.4313 -1.2794  1.3760
  247MOL0     O33949   2.483  11.278   1.001  0.9035 -0.2240  0.2708
  247MOL0     C33950   2.488  11.395   0.959 -0.0890  0.6084  0.2968
  247MOL0     O33951   2.599  11.459   0.932 -0.3757 -0.8540 -0.0312
  247MOL0     C33952   2.720  11.406   0.962 -0.1509 -0.6072  0.6242
  247MOL0     C33953   2.782  11.311   0.885  0.5105 -0.0770 -0.1531
  247MOL0     C33954   2.907  11.255   0.921  0.0373 -0.1443  0.2172
  247MOL0     C33955   2.983  11.305   1.028  0.6519  0.6699 -0.1986
  247MOL0     O33956   3.114  11.277   1.063 -0.6600 -0.1611 -0.3250
  247MOL0     C33957   3.148  11.141   1.035 -0.3235  0.3455  0.0508
  247MOL0     C33958   3.271  11.102   1.095 -0.0014  0.2902  0.0390
  247MOL0     C33959   3.380  11.213   1.062 -0.2365  0.2061  0.4558
  247MOL0     C33960   3.507  11.180   1.140 -0.2128  0.8171  0.2295
  247MOL0     C33961   3.620  11.286   1.106 -1.1234 -0.2703  0.4173
  247MOL0     C33962   3.748  11.255   1.181  0.0630  0.5244  0.4564
  247MOL0     C33963   3.854  11.357   1.134  0.1261  0.4093  0.4212
  247MOL0     C33964   3.980  11.344   1.217 -0.9450  0.4058 -0.5569
  247MOL0     N33965   4.070  11.234   1.169  0.0313 -0.8036  0.3357
  247MOL0     C33966   4.061  11.103   1.202 -0.3670  1.0703 -0.3742
  247MOL0     C33967   4.154  11.033   1.131 -0.1444 -0.6633 -0.3288
  247MOL0     C33968   4.187  10.892   1.133 -0.1291  0.2611  0.3306
  247MOL0     C33969   4.258  10.860   1.261 -0.2538 -0.1393 -0.1118
  247MOL0     C33970   4.300  10.713   1.253  0.5734 -0.4306 -0.8405
  247MOL0     C33971   4.390  10.687   1.370  0.1867 -0.3797 -0.4189
  247MOL0     O33972   4.521  10.741   1.352 -0.2211  0.3781 -0.4219
  247MOL0     C33973   4.607  10.750   1.464  0.9298  0.7121  0.9000
  247MOL0     C33974   4.590  10.692   1.584 -0.6151  0.7156  0.0280
  247MOL0     C33975   4.672  10.709   1.697 -0.3535  1.1366 -0.9751
  247MOL0     C33976   4.638  10.642   1.833 -0.6719 -0.7926 -0.0573
  247MOL0     C33977   4.794  10.779   1.676  0.0365  0.1254  0.3708
  247MOL0     C33978   4.902  10.809   1.774  0.2324 -0.7469  0.4444
  247MOL0     O33979   4.927  10.727   1.885  0.0146 -0.0994 -0.3194
  247MOL0     C33980   5.039  10.740   1.958  0.0288  0.1457 -0.9269
  247MOL0     C33981   5.038  10.788   2.087  0.6135 -0.9551 -0.3214
  247MOL0     C33982   5.160  10.801   2.159  0.7825 -0.4435 -0.6319
  247MOL0     C33983   5.273  10.749   2.110  0.2116 -0.2382  1.0363
  247MOL0     O33984   5.400  10.741   2.169  0.3168 -0.2307  0.6654
  247MOL0     C33985   5.430  10.778   2.301  0.2924 -0.2964  0.4045
  247MOL0     C33986   5.561  10.717   2.341 -0.2580  0.4211  0.6844
  247MOL0     C33987   5.546  10.612   2.448  0.2809 -0.3895  0.1535
  247MOL0     C33988   5.450  10.498   2.404 -0.0949  0.3338  0.0217
  247MOL0     C33989   5.448  10.382   2.510 -0.4055 -0.1280  0.6790
  247MOL0     C33990   5.369  10.258   2.460  0.4374 -0.3560 -0.7293
  247MOL0     C33991   5.442  10.183   2.346 -0.2704 -0.1135  0.5784
  247MOL0     C33992   5.347  10.093   2.269  1.0389  0.1435 -0.2284
  247MOL0    Cl33993   5.213  10.181   2.201 -0.1889 -0.2191  0.0493
  247MOL0     C33994   5.278  10.684   1.985  0.0600 -0.3122  0.4419
  247MOL0     C33995   5.158  10.682   1.912  0.1359 -0.8323  0.5334
  247MOL0     O33996   4.974  10.901   1.746  0.2297  0.0601 -0.6157
  247MOL0     C33997   4.815  10.834   1.546 -0.2987 -0.0256 -0.0691
  247MOL0     C33998   4.718  10.825   1.445 -0.8032 -1.2756 -0.1214
  247MOL0     N33999   4.218  11.137   1.064 -0.0058  0.2734 -0.6731
  247MOL0     N34000   4.174  11.254   1.094 -0.5923  0.1231 -0.4765
  247MOL0     C34001   2.920  11.408   1.108  0.5188 -0.0026  0.7805
  247MOL0     C34002   2.795  11.457   1.071 -0.1041  0.0568 -0.4821
  247MOL0     C34003   2.356  11.456   0.925 -0.0740  0.7332 -0.2779
  247MOL0     C34004   2.358  11.594   0.954 -0.5622  0.5966  0.6167
  247MOL0     C34005   2.248  11.668   0.928 -0.4984 -0.3789  0.0540
  247MOL0     C34006   2.133  11.614   0.874  0.3346  0.0935  0.5150
  247MOL0     O34007   2.013  11.685   0.843  0.3900  0.2942 -0.2930
  247MOL0     C34008   2.005  11.819   0.875  0.0343 -0.1335 -0.0749
  247MOL0     C34009   1.960  11.860   1.017 -0.5085  0.3932  0.3979
  247MOL0     C34010   1.826  11.805   1.055  0.5837  0.3911  0.5582
  247MOL0     C34011   1.826  11.682   1.156 -0.1980 -1.2232  0.1989
  247MOL0     C34012   1.686  11.649   1.195 -1.0657 -0.1424  1.3675
  247MOL0     C34013   1.569  11.638   1.217  0.1347 -1.2384  0.3326
  247MOL0     C34014   2.140  11.479   0.833  0.2949 -0.1490 -0.7231
  247MOL0     C34015   2.249  11.392   0.873 -0.4000 -0.4416  0.2258
  247MOL0     C34016   2.246  11.257   0.830  0.5618 -0.4538  0.7635
  247MOL0     H34017   2.738  11.268   0.796  1.0907  0.5229 -0.7459
  247MOL0     H34018   2.938  11.178   0.852 -0.2263  0.0603 -0.1375
  247MOL0     H34019   3.170  11.124   0.929  1.1999 -2.3052  0.6976
  247MOL0     H34020   3.079  11.070   1.080 -0.2081 -0.5059 -1.0869
  247MOL0     H34021   3.251  11.072   1.198 -1.6645 -1.9698 -0.8903
  247MOL0     H34022   3.306  11.015   1.039 -1.0314  0.5474 -1.0306
  247MOL0     H34023   3.406  11.207   0.956  1.0944 -1.9039  0.8510
  247MOL0     H34024   3.333  11.305   1.100 -0.3684  0.8826 -1.2755
  247MOL0     H34025   3.487  11.175   1.247 -0.9139 -0.9265  0.0379
  247MOL0     H34026   3.538  11.077   1.121 -1.6894  0.0166  1.8175
  247MOL0     H34027   3.593  11.382   1.150  2.0375  2.0019 -2.0747
  247MOL0     H34028   3.635  11.301   0.998 -0.8548 -0.7036  0.3907
  247MOL0     H34029   3.741  11.240   1.289  1.7277 -0.5632  0.4586
  247MOL0     H34030   3.778  11.155   1.147  0.2853  1.5319 -2.6231
  247MOL0     H34031   3.810  11.457   1.145  1.2742  0.8068  1.6544
  247MOL0     H34032   3.877  11.331   1.030 -2.6593 -2.7296  0.4054
  247MOL0     H34033   4.047  11.430   1.206  2.7861 -2.0407  1.1125
  247MOL0     H34034   3.957  11.351   1.324 -1.8193 -0.1713 -0.6942
  247MOL0     H34035   3.987  11.055   1.266  2.3006 -2.6047  0.2930
  247MOL0     H34036   4.253  10.874   1.048  0.6873 -0.7310  1.1507
  247MOL0     H34037   4.107  10.817   1.139  2.5841 -2.6943  3.9388
  247MOL0     H34038   4.347  10.924   1.253 -0.1093 -0.5909 -4.3671
  247MOL0     H34039   4.203  10.886   1.351 -0.8109  2.2840 -1.0558
  247MOL0     H34040   4.223  10.636   1.264  0.3706 -0.1319 -0.1222
  247MOL0     H34041   4.360  10.698   1.162  1.8274  2.1823 -0.5300
  247MOL0     H34042   4.345  10.738   1.456  1.1082  2.0545 -1.2948
  247MOL0     H34043   4.396  10.579   1.386  0.4918 -0.6852 -2.3690
  247MOL0     H34044   4.505  10.626   1.598 -0.4750  0.5653  0.1852
  247MOL0     H34045   4.684  10.693   1.918 -0.0858 -2.4871  0.6823
  247MOL0     H34046   4.669  10.537   1.830  3.9854  0.3829 -0.7725
  247MOL0     H34047   4.530  10.652   1.849 -0.3357  1.1735  1.4634
  247MOL0     H34048   4.950  10.823   2.140  2.3114 -0.3727  2.3086
  247MOL0     H34049   5.165  10.852   2.254  2.3090  0.3549 -1.0936
  247MOL0     H34050   5.455  10.885   2.310 -0.5634 -0.0143 -0.4305
  247MOL0     H34051   5.351  10.753   2.373  3.0310 -0.3618  3.6330
  247MOL0     H34052   5.609  10.673   2.253 -1.6774 -4.2772  1.9433
  247MOL0     H34053   5.630  10.794   2.375 -0.0729  0.3307  0.5168
  247MOL0     H34054   5.513  10.653   2.544  2.0139 -1.2420  1.1774
  247MOL0     H34055   5.646  10.575   2.472 -0.8644 -2.6682  1.8500
  247MOL0     H34056   5.490  10.458   2.311  2.1654 -1.9952  1.8325
  247MOL0     H34057   5.348  10.535   2.388  0.8090  3.1247  0.0779
  247MOL0     H34058   5.555  10.361   2.520  0.7101  2.4673 -3.2258
  247MOL0     H34059   5.414  10.409   2.610  2.8247  0.7772  1.6575
  247MOL0     H34060   5.270  10.293   2.429  0.0675 -1.8810 -1.3718
  247MOL0     H34061   5.367  10.191   2.546  4.2928  1.6286  1.1696
  247MOL0     H34062   5.520  10.132   2.404  2.8367  1.3938 -1.9653
  247MOL0     H34063   5.490  10.247   2.273  0.0757 -1.0943 -0.0798
  247MOL0     H34064   5.310  10.017   2.338  2.2704  1.4218  1.9852
  247MOL0     H34065   5.407  10.046   2.191 -0.5949 -1.3793 -0.6183
  247MOL0     H34066   5.372  10.645   1.947 -1.0343 -2.1007 -0.5776
  247MOL0     H34067   5.150  10.644   1.811 -2.5357  2.2687 -0.6099
  247MOL0     H34068   4.910  10.876   1.515 -1.6188  0.7069 -3.4493
  247MOL0     H34069   4.746  10.876   1.353 -0.2215 -2.1713 -0.4609
  247MOL0     H34070   2.974  11.456   1.189  1.6258 -0.3315  0.2585
  247MOL0     H34071   2.743  11.533   1.129 -0.4012 -0.3546 -0.1967
  247MOL0     H34072   2.436  11.641   1.013 -0.7160  1.8391 -0.1307
  247MOL0     H34073   2.247  11.776   0.945 -2.2787  0.3485 -3.5369
  247MOL0     H34074   2.104  11.865   0.864 -0.4555  1.1726  0.6819
  247MOL0     H34075   1.935  11.867   0.807 -0.2387  0.2697  0.4821
  247MOL0     H34076   1.954  11.969   1.012  0.3442  0.3878 -2.5637
  247MOL0     H34077   2.042  11.829   1.083 -0.5961 -0.1342  0.2625
  247MOL0     H34078   1.779  11.894   1.097  1.8584  0.9166  0.9277
  247MOL0     H34079   1.776  11.769   0.964 -0.0364 -2.8166  2.0279
  247MOL0     H34080   1.888  11.702   1.244  0.4199  2.7054 -0.9496
  247MOL0     H34081   1.866  11.597   1.100  0.7622 -0.7894  0.2161
  247MOL0     H34082   1.464  11.641   1.238 -0.5389 -3.5865 -2.1100
  247MOL0     H34083   2.059  11.435   0.775  0.3975  1.5025 -2.2177
  247MOL0     H34084   2.291  11.252   0.730  0.7542 -0.4573  0.8517
  247MOL0     H34085   2.299  11.182   0.889 -1.5709 -2.0790  0.7665
  247MOL0     H34086   2.143  11.221   0.822  0.4374  0.1827 -1.0298
  248MOL0     O34087   8.190   8.082   3.854  0.7081  0.3778  0.1651
  248MOL0     C34088   8.094   8.128   3.914 -0.5869  0.8892 -0.3485
  248MOL0     O34089   8.106   8.231   3.998 -0.3346 -0.8930 -0.0074
  248MOL0     C34090   8.226   8.296   3.992 -1.0762  0.3232 -0.4027
  248MOL0     C34091   8.255   8.390   3.894  0.0435  0.6717  0.9940
  248MOL0     C34092   8.379   8.449   3.885 -0.2209  0.2456  0.3180
  248MOL0     C34093   8.480   8.414   3.971  0.2852  0.1196  0.4255
  248MOL0     O34094   8.601   8.473   3.952  0.2971 -0.0724 -0.4162
  248MOL0     C34095   8.710   8.405   4.022 -0.4828  0.7378  0.1130
  248MOL0     C34096   8.840   8.445   3.976 -0.0173 -0.0524 -0.4910
  248MOL0     C34097   8.878   8.588   3.971 -0.0457  0.0402  0.3006
  248MOL0     C34098   9.001   8.612   3.891 -0.0253 -0.0879 -0.3803
  248MOL0     C34099   9.130   8.556   3.953 -1.0370  0.7439 -0.2943
  248MOL0     C34100   9.260   8.612   3.888  0.4241 -0.4337  0.0929
  248MOL0     C34101   9.281   8.562   3.743 -0.0892 -0.1309  0.1720
  248MOL0     C34102   9.412   8.615   3.676  0.3479 -0.1323  0.3145
  248MOL0     N34103   9.526   8.539   3.723  0.2182  0.6852 -0.3577
  248MOL0     C34104   9.650   8.591   3.767 -0.4227 -0.5448 -0.2747
  248MOL0     C34105   9.728   8.478   3.798  1.0802 -0.6925  0.3076
  248MOL0     C34106   9.860   8.482   3.878 -0.3852 -0.5530 -0.3437
  248MOL0     C34107   9.975   8.405   3.826 -0.5368 -0.0599  0.1168
  248MOL0     C34108  10.034   8.491   3.705  0.0086  0.2615 -0.4233
  248MOL0     C34109  10.147   8.416   3.644  0.2887  0.1992  0.5174
  248MOL0     O34110  10.271   8.459   3.693  0.1577  0.7789  0.0160
  248MOL0     C34111  10.383   8.380   3.706  0.0368 -0.1085 -0.0519
  248MOL0     C34112  10.389   8.258   3.641  0.5505 -0.3138 -0.0061
  248MOL0     C34113  10.507   8.181   3.643 -0.4473  0.0842 -0.0356
  248MOL0     C34114  10.510   8.068   3.546 -0.0692 -0.3492  0.0496
  248MOL0     C34115  10.621   8.217   3.726 -0.1762 -0.1639  0.4566
  248MOL0     C34116  10.749   8.145   3.729 -0.1246  0.7243  0.5825
  248MOL0     O34117  10.838   8.184   3.819 -0.2116  0.2841 -0.2437
  248MOL0     C34118  10.966   8.146   3.796  0.1697  0.8125 -1.2430
  248MOL0     C34119  11.010   8.018   3.844  0.0506 -0.3978 -0.0805
  248MOL0     C34120  11.142   7.982   3.803 -0.9919  0.3490 -0.3955
  248MOL0     C34121  11.235   8.071   3.752 -0.1037 -0.3366 -0.0806
  248MOL0     O34122  11.360   8.040   3.698 -0.5127 -0.0195 -0.0493
  248MOL0     C34123  11.467   8.138   3.713  0.4270  0.1088  0.4403
  248MOL0     C34124  11.603   8.054   3.724  0.5171  0.3466  0.1716
  248MOL0     C34125  11.726   8.136   3.759 -0.6675 -0.2045  0.2887
  248MOL0     C34126  11.747   8.260   3.676 -0.0852  0.3844 -0.7917
  248MOL0     C34127  11.887   8.339   3.685  1.3188  0.3729 -0.1649
  248MOL0     C34128  11.881   8.461   3.592 -0.0158 -0.3332 -0.4240
  248MOL0     C34129  11.987   8.562   3.610  0.1733 -0.2617 -0.1863
  248MOL0     C34130  12.126   8.501   3.604  0.0121  0.1291  0.6920
  248MOL0    Cl34131  12.262   8.605   3.544  0.4634 -0.0876 -0.1594
  248MOL0     C34132  11.187   8.201   3.709  0.2218  0.6870 -0.4468
  248MOL0     C34133  11.051   8.234   3.740 -0.1134 -0.2124  0.2081
  248MOL0     O34134  10.761   8.045   3.655  0.1084  0.6066  0.3899
  248MOL0     C34135  10.606   8.332   3.805 -0.3498  0.5625  1.1261
  248MOL0     C34136  10.496   8.418   3.781  0.1345  0.4995  0.2789
  248MOL0     N34137   9.664   8.367   3.746  0.0436 -0.5491 -0.0070
  248MOL0     N34138   9.552   8.402   3.697  0.0576  0.2165  0.0625
  248MOL0     C34139   8.448   8.333   4.079  0.6306 -0.4138 -0.2761
  248MOL0     C34140   8.323   8.268   4.093 -0.7833 -0.3850  0.1629
  248MOL0     C34141   7.965   8.057   3.887 -0.0152  0.6167 -0.1279
  248MOL0     C34142   7.971   7.932   3.829 -0.2517  0.5865  0.3119
  248MOL0     C34143   7.848   7.862   3.813 -0.0220  0.2007 -0.3586
  248MOL0     C34144   7.723   7.920   3.843 -1.0607  0.7271  1.1484
  248MOL0     O34145   7.611   7.854   3.807 -0.3361  0.0771  0.3771
  248MOL0     C34146   7.512   7.914   3.725 -0.2514  0.2752 -0.0270
  248MOL0     C34147   7.378   7.843   3.739 -0.2069 -0.2461  0.3015
  248MOL0     C34148   7.372   7.695   3.687 -0.5793 -0.1551  0.4290
  248MOL0     C34149   7.239   7.628   3.740  0.0978  0.5367 -0.3015
  248MOL0     C34150   7.221   7.611   3.884 -0.1456 -0.6276 -0.2712
  248MOL0     C34151   7.216   7.590   4.002  0.3403  0.3150  0.2820
  248MOL0     C34152   7.717   8.045   3.890 -0.7585  0.3687  0.2614
  248MOL0     C34153   7.841   8.112   3.919 -0.1633  0.4709 -0.4155
  248MOL0     C34154   7.821   8.262   3.967  0.1586 -0.5232 -0.3210
  248MOL0     H34155   8.185   8.414   3.814  1.9065 -0.2552 -1.0304
  248MOL0     H34156   8.406   8.524   3.812 -0.6704 -0.3504 -0.4786
  248MOL0     H34157   8.715   8.299   3.994  2.4028  1.3088 -2.1173
  248MOL0     H34158   8.712   8.417   4.131 -0.3103 -1.4409  0.3906
  248MOL0     H34159   8.912   8.396   4.041 -0.8867 -0.1370  0.4213
  248MOL0     H34160   8.862   8.412   3.874 -0.2386  1.2697 -0.9969
  248MOL0     H34161   8.798   8.636   3.913 -0.1699 -1.5024 -0.8963
  248MOL0     H34162   8.893   8.645   4.062  0.6142  0.8756 -0.3170
  248MOL0     H34163   8.998   8.567   3.792 -0.0387  1.0251 -0.9093
  248MOL0     H34164   9.021   8.718   3.872  2.9172 -0.6110 -0.5199
  248MOL0     H34165   9.141   8.448   3.965 -0.8434  0.5929 -1.7393
  248MOL0     H34166   9.126   8.591   4.057 -0.2063 -0.4591  0.1742
  248MOL0     H34167   9.242   8.720   3.880  1.2959 -0.1831  1.1749
  248MOL0     H34168   9.349   8.588   3.947  0.5432 -0.0937  0.0524
  248MOL0     H34169   9.202   8.589   3.672  1.0549 -0.2718 -1.2036
  248MOL0     H34170   9.278   8.453   3.752 -2.7077 -0.2540 -1.1415
  248MOL0     H34171   9.405   8.605   3.567  3.4020  0.5937 -0.0631
  248MOL0     H34172   9.426   8.721   3.700  0.1708 -0.0300 -0.0268
  248MOL0     H34173   9.670   8.688   3.810  0.8071 -1.7538  2.1206
  248MOL0     H34174   9.839   8.450   3.980  0.4122 -1.5715 -0.4806
  248MOL0     H34175   9.882   8.588   3.869  0.1206 -0.1756  3.6650
  248MOL0     H34176  10.039   8.392   3.913  0.8575 -0.7005 -0.9794
  248MOL0     H34177   9.940   8.305   3.798  0.1439 -0.8119  1.8545
  248MOL0     H34178   9.954   8.496   3.631  1.2718 -3.4784 -2.2947
  248MOL0     H34179  10.068   8.592   3.729 -3.3343  1.4437 -0.1044
  248MOL0     H34180  10.134   8.309   3.663  0.6738  0.5399  3.1158
  248MOL0     H34181  10.148   8.437   3.537  1.2936  0.4501  0.5603
  248MOL0     H34182  10.308   8.219   3.580 -0.4599  0.3013  0.9198
  248MOL0     H34183  10.608   8.074   3.497 -0.5444  2.9128 -0.7254
  248MOL0     H34184  10.440   8.087   3.465 -1.1174 -0.6175  0.8737
  248MOL0     H34185  10.490   7.968   3.585 -1.3129  0.4525  1.5803
  248MOL0     H34186  10.942   7.943   3.883 -1.7199  1.8128  1.3465
  248MOL0     H34187  11.168   7.878   3.822  1.6002  1.0842  0.4324
  248MOL0     H34188  11.469   8.198   3.622 -1.2334 -1.8718 -0.9905
  248MOL0     H34189  11.450   8.197   3.803  0.7705 -1.4948  1.6115
  248MOL0     H34190  11.590   7.977   3.801  0.2674 -1.5097 -1.6299
  248MOL0     H34191  11.624   8.005   3.628  0.2364  0.0750  0.2474
  248MOL0     H34192  11.818   8.079   3.740 -0.9483 -0.6259  0.1689
  248MOL0     H34193  11.724   8.166   3.864  0.6186  3.4593 -0.5791
  248MOL0     H34194  11.666   8.331   3.693 -0.2923  0.0137 -0.1745
  248MOL0     H34195  11.733   8.234   3.571 -0.0956  0.4652 -0.8105
  248MOL0     H34196  11.900   8.370   3.790  0.5405  4.2685 -1.0521
  248MOL0     H34197  11.969   8.272   3.658  0.9376 -0.0690 -0.2314
  248MOL0     H34198  11.784   8.504   3.616 -0.2126 -1.0489  0.0971
  248MOL0     H34199  11.880   8.424   3.489 -1.3281 -1.6721  0.0297
  248MOL0     H34200  11.964   8.619   3.700  0.4566 -1.3379  0.5864
  248MOL0     H34201  11.972   8.633   3.527  0.3040  0.0908  0.0888
  248MOL0     H34202  12.133   8.423   3.527  2.7668  0.5427  0.4537
  248MOL0     H34203  12.144   8.459   3.703  1.2968 -1.5535 -0.2085
  248MOL0     H34204  11.240   8.285   3.666  2.7430 -0.1419  0.8401
  248MOL0     H34205  11.015   8.336   3.725  2.9610  0.9976  0.1819
  248MOL0     H34206  10.684   8.357   3.876  0.3035 -1.3407  1.1593
  248MOL0     H34207  10.485   8.513   3.831 -0.1917  1.1683 -1.0156
  248MOL0     H34208   8.513   8.315   4.164 -3.5155 -1.7412  2.9557
  248MOL0     H34209   8.309   8.200   4.176  2.9675 -1.1299  0.3385
  248MOL0     H34210   8.060   7.875   3.802  0.4825  1.6628  0.4195
  248MOL0     H34211   7.848   7.762   3.771 -1.9924 -0.9768  2.1993
  248MOL0     H34212   7.487   8.019   3.746 -0.1423  0.1912  0.5313
  248MOL0     H34213   7.533   7.911   3.618 -1.6149  1.8426 -0.3887
  248MOL0     H34214   7.301   7.895   3.681  0.4843 -2.0190 -2.4409
  248MOL0     H34215   7.354   7.835   3.845  2.3203  0.1738  0.9539
  248MOL0     H34216   7.366   7.687   3.578  1.6090 -0.8467  0.3173
  248MOL0     H34217   7.463   7.638   3.709  1.1197  2.1217 -0.3124
  248MOL0     H34218   7.229   7.529   3.693 -3.2115  0.7301 -0.1823
  248MOL0     H34219   7.160   7.689   3.696  0.9893  0.9118 -1.4610
  248MOL0     H34220   7.197   7.556   4.102  0.6423 -1.3666 -0.1955
  248MOL0     H34221   7.621   8.092   3.907 -1.3809  0.8194 -3.5306
  248MOL0     H34222   7.868   8.285   4.063 -0.5474 -0.4213  0.0029
  248MOL0     H34223   7.840   8.342   3.895  0.5462 -1.0964 -0.8762
  248MOL0     H34224   7.716   8.277   3.991  0.2022  0.4399 -0.6946
  249MOL0     O34225   0.438   1.105   6.055 -0.5874 -0.2636  0.3320
  249MOL0     C34226   0.320   1.107   6.006  0.2846  0.2581  0.2081
  249MOL0     O34227   0.290   1.075   5.880  0.4485 -0.5686  0.0936
  249MOL0     C34228   0.367   1.123   5.782 -0.3316 -0.0100 -0.7136
  249MOL0     C34229   0.339   1.075   5.649  0.3268  0.6550 -0.1698
  249MOL0     C34230   0.401   1.129   5.541 -0.1016  0.1726  0.1316
  249MOL0     C34231   0.511   1.215   5.540 -0.5987 -0.8520  0.1957
  249MOL0     O34232   0.570   1.244   5.417 -0.6204 -0.4056  0.4499
  249MOL0     C34233   0.710   1.237   5.415  0.2887  0.9084  0.0395
  249MOL0     C34234   0.767   1.092   5.427  0.1560  0.5404 -0.4807
  249MOL0     C34235   0.914   1.085   5.436 -0.5932 -0.3834 -0.0161
  249MOL0     C34236   0.982   1.156   5.314  0.8948 -0.2460 -0.1206
  249MOL0     C34237   1.131   1.126   5.317 -0.1128  0.3722 -0.2801
  249MOL0     C34238   1.203   1.207   5.426 -0.2158 -0.9710  0.4085
  249MOL0     C34239   1.355   1.187   5.421  0.1079  0.0630  0.1393
  249MOL0     C34240   1.395   1.294   5.525 -1.1335  0.1024  0.7842
  249MOL0     N34241   1.543   1.288   5.550  0.8295  0.5721 -1.0076
  249MOL0     C34242   1.638   1.314   5.457 -0.1074  0.2431 -0.9453
  249MOL0     C34243   1.761   1.291   5.519  0.9090  0.1612 -0.4597
  249MOL0     C34244   1.895   1.301   5.469  0.0068 -0.2772 -0.2345
  249MOL0     C34245   1.989   1.186   5.500 -0.2926 -0.7498  0.1893
  249MOL0     C34246   2.126   1.238   5.537 -0.4386 -0.3456 -0.0875
  249MOL0     C34247   2.138   1.309   5.671 -0.5975  0.8106 -0.1856
  249MOL0     O34248   2.258   1.385   5.670  0.3073  0.0691 -0.0996
  249MOL0     C34249   2.315   1.418   5.786 -0.5687  0.8399 -0.6101
  249MOL0     C34250   2.450   1.456   5.785 -0.0463 -0.5580  0.6713
  249MOL0     C34251   2.515   1.500   5.902 -0.5121  0.4208 -0.2303
  249MOL0     C34252   2.657   1.551   5.894  0.3829 -0.4815  1.2003
  249MOL0     C34253   2.444   1.504   6.025 -0.3935  0.3737 -0.7919
  249MOL0     C34254   2.500   1.554   6.155  0.2846  0.5768  0.3295
  249MOL0     O34255   2.638   1.557   6.180 -0.0981  0.7326  0.9765
  249MOL0     C34256   2.677   1.586   6.305  0.7077  0.4685 -0.8998
  249MOL0     C34257   2.703   1.482   6.395  0.1191 -0.7626  0.5300
  249MOL0     C34258   2.714   1.503   6.531 -1.4325 -0.3192  0.6143
  249MOL0     C34259   2.730   1.630   6.581 -0.8992 -0.2604  0.6030
  249MOL0     O34260   2.767   1.660   6.712  0.5274 -0.4817  0.5116
  249MOL0     C34261   2.839   1.783   6.733  0.9962 -1.5347 -0.7986
  249MOL0     C34262   2.909   1.793   6.868  0.2515 -1.5226 -0.6691
  249MOL0     C34263   3.029   1.705   6.894  0.4308  0.8658 -0.1129
  249MOL0     C34264   3.091   1.745   7.026  0.3223  0.2514  0.2271
  249MOL0     C34265   3.177   1.635   7.084  0.1051 -0.7699  0.0167
  249MOL0     C34266   3.261   1.556   6.983  0.4617 -0.9959 -0.5746
  249MOL0     C34267   3.381   1.635   6.925  0.5688 -0.4092 -0.8075
  249MOL0     C34268   3.434   1.577   6.792 -0.3401  0.6605 -0.1139
  249MOL0    Cl34269   3.474   1.402   6.801 -0.0147 -0.0209  0.4851
  249MOL0     C34270   2.703   1.742   6.494 -0.0636 -0.0615  0.1097
  249MOL0     C34271   2.677   1.713   6.362 -0.2851 -0.1967  0.0419
  249MOL0     O34272   2.414   1.577   6.238 -0.3179  0.6846 -0.1343
  249MOL0     C34273   2.306   1.470   6.026  0.1113 -0.6968  0.2952
  249MOL0     C34274   2.242   1.429   5.906  0.6441 -0.4691 -0.4030
  249MOL0     N34275   1.727   1.255   5.649  0.4843  0.5732  0.6121
  249MOL0     N34276   1.603   1.253   5.664 -0.3113  0.4359  0.5317
  249MOL0     C34277   0.542   1.266   5.669  0.7701 -0.4983 -0.1931
  249MOL0     C34278   0.469   1.220   5.786  0.6453  0.6004 -0.2071
  249MOL0     C34279   0.204   1.119   6.103 -0.0724 -0.0396  1.7241
  249MOL0     C34280   0.075   1.136   6.052  0.0451  0.6815  0.4960
  249MOL0     C34281  -0.040   1.148   6.129  0.3141 -0.6937 -0.0879
  249MOL0     C34282  -0.025   1.150   6.269  0.7050  0.6070  0.7498
  249MOL0     O34283  -0.122   1.185   6.355  0.5988 -0.7238  0.2077
  249MOL0     C34284  -0.261   1.146   6.320 -0.0204 -0.5675 -0.3885
  249MOL0     C34285  -0.349   1.132   6.448 -0.0518 -0.6863  0.2343
  249MOL0     C34286  -0.282   1.038   6.547  0.2684  0.7286  0.5825
  249MOL0     C34287  -0.194   1.112   6.648  0.7419 -0.5710  0.2876
  249MOL0     C34288  -0.146   1.027   6.753  0.3701  0.2032 -0.3825
  249MOL0     C34289  -0.112   0.955   6.848  0.0853 -0.1913 -0.5252
  249MOL0     C34290   0.096   1.116   6.319  0.4532 -0.0144 -1.0202
  249MOL0     C34291   0.214   1.116   6.240  0.4929  0.7036 -1.0294
  249MOL0     C34292   0.342   1.083   6.323  0.5495 -0.0425  0.3303
  249MOL0     H34293   0.271   0.991   5.642  0.1093  0.8018  0.1598
  249MOL0     H34294   0.382   1.087   5.443  1.6619  0.8114 -0.5172
  249MOL0     H34295   0.742   1.302   5.497 -1.3761  0.4369  1.1125
  249MOL0     H34296   0.738   1.286   5.321  0.3151 -0.0676 -0.4680
  249MOL0     H34297   0.730   1.045   5.518  1.5271  0.8371  0.2636
  249MOL0     H34298   0.732   1.041   5.337 -2.7951  1.6525 -0.0540
  249MOL0     H34299   0.956   1.124   5.529  1.2252 -0.2570 -0.8493
  249MOL0     H34300   0.935   0.978   5.438  0.3129 -0.2058  0.5435
  249MOL0     H34301   0.948   1.114   5.220 -1.0397 -0.8975  0.8196
  249MOL0     H34302   0.967   1.263   5.330 -0.6883  0.0253 -2.8967
  249MOL0     H34303   1.177   1.145   5.219  0.3432  0.8607  0.0209
  249MOL0     H34304   1.137   1.021   5.345 -0.7259 -0.7916 -3.9590
  249MOL0     H34305   1.176   1.312   5.413 -1.3464 -1.0621  1.7347
  249MOL0     H34306   1.154   1.180   5.520 -1.9895 -1.0603 -0.5018
  249MOL0     H34307   1.393   1.203   5.319 -0.3811 -2.2947 -0.4776
  249MOL0     H34308   1.385   1.088   5.456 -1.6528 -0.6088 -0.1983
  249MOL0     H34309   1.366   1.396   5.497 -0.1393  0.5518  1.3182
  249MOL0     H34310   1.351   1.270   5.623  1.0377  0.8176  2.0118
  249MOL0     H34311   1.610   1.345   5.357 -0.5264  2.3504 -0.2180
  249MOL0     H34312   1.936   1.398   5.501  1.9450 -1.0854 -0.1345
  249MOL0     H34313   1.886   1.310   5.361 -0.6411 -0.6286 -0.2126
  249MOL0     H34314   1.942   1.131   5.583 -1.1091 -2.9235 -1.6087
  249MOL0     H34315   2.002   1.112   5.421  2.2442 -0.0075 -0.1635
  249MOL0     H34316   2.189   1.151   5.555  0.9387  0.4462 -0.8696
  249MOL0     H34317   2.174   1.291   5.454 -0.0643 -1.5376 -0.6422
  249MOL0     H34318   2.050   1.371   5.690 -1.0615 -0.0627  0.6038
  249MOL0     H34319   2.144   1.233   5.750 -2.1296 -1.0309 -1.7394
  249MOL0     H34320   2.503   1.435   5.693  2.1579 -1.2538  2.0114
  249MOL0     H34321   2.657   1.654   5.932 -0.8161 -0.6783  1.7546
  249MOL0     H34322   2.682   1.565   5.789  0.2553  1.3742  1.3906
  249MOL0     H34323   2.725   1.480   5.943  0.6637 -1.2655 -0.2652
  249MOL0     H34324   2.715   1.379   6.364  0.7287 -0.6191  0.2581
  249MOL0     H34325   2.711   1.414   6.594 -0.9703  0.3873  1.6618
  249MOL0     H34326   2.919   1.795   6.659 -0.1584 -1.9694 -2.1492
  249MOL0     H34327   2.759   1.857   6.730  1.2888 -0.9419  2.3847
  249MOL0     H34328   2.937   1.896   6.889 -0.7568 -1.5817  1.1737
  249MOL0     H34329   2.846   1.767   6.954  1.1303  0.6840  0.7313
  249MOL0     H34330   3.108   1.712   6.819  0.4088 -0.8688 -0.3355
  249MOL0     H34331   2.997   1.603   6.916 -1.2100  1.0826 -1.2833
  249MOL0     H34332   3.013   1.769   7.099 -0.8273 -0.3557 -0.7616
  249MOL0     H34333   3.154   1.832   7.009 -0.0137  0.7289  1.3582
  249MOL0     H34334   3.243   1.681   7.158  0.9405  0.2037 -1.2816
  249MOL0     H34335   3.101   1.565   7.122 -0.3717  0.4535  1.4032
  249MOL0     H34336   3.191   1.499   6.921 -1.2380 -1.0323  1.2580
  249MOL0     H34337   3.308   1.471   7.033  1.6605 -0.0135  0.0166
  249MOL0     H34338   3.453   1.643   7.007 -2.3647  1.3306  1.8473
  249MOL0     H34339   3.359   1.741   6.908  1.0583 -0.4634 -1.7886
  249MOL0     H34340   3.521   1.626   6.749  0.5512 -1.7419 -1.2038
  249MOL0     H34341   3.349   1.582   6.723 -1.9239 -2.7209  1.3420
  249MOL0     H34342   2.690   1.844   6.529 -1.1943  0.3544 -1.3963
  249MOL0     H34343   2.654   1.786   6.285  1.6838  1.1545  0.6753
  249MOL0     H34344   2.243   1.470   6.114  1.6204 -0.4499  1.4187
  249MOL0     H34345   2.135   1.411   5.908 -0.0371  2.9051  1.6740
  249MOL0     H34346   0.608   1.353   5.674 -0.7017  0.6630 -0.3035
  249MOL0     H34347   0.494   1.275   5.876  0.7963  1.2776 -0.6564
  249MOL0     H34348   0.061   1.141   5.945  0.1355  2.4939  0.5470
  249MOL0     H34349  -0.142   1.155   6.093 -0.6914 -0.5711  2.5945
  249MOL0     H34350  -0.304   1.230   6.266  1.0590  0.4865  0.3286
  249MOL0     H34351  -0.275   1.057   6.259  0.3065  0.7395 -2.4784
  249MOL0     H34352  -0.449   1.097   6.424 -0.8995  1.2762  0.7327
  249MOL0     H34353  -0.358   1.230   6.497  3.6420 -0.7864  1.4920
  249MOL0     H34354  -0.362   0.992   6.607  2.7735 -2.6884  1.6277
  249MOL0     H34355  -0.230   0.956   6.497 -1.3599  0.7889 -1.3209
  249MOL0     H34356  -0.269   1.183   6.685 -0.2083  0.5595 -3.3932
  249MOL0     H34357  -0.116   1.172   6.600 -0.8419  0.2471 -1.3887
  249MOL0     H34358  -0.068   0.899   6.928  1.0674  1.0136 -0.1995
  249MOL0     H34359   0.103   1.107   6.427  1.9734 -0.5368 -1.1367
  249MOL0     H34360   0.431   1.136   6.290  0.7659 -0.0834  0.8328
  249MOL0     H34361   0.324   1.107   6.428  0.3988 -2.0505  0.8052
  249MOL0     H34362   0.361   0.975   6.320  5.0626  0.5897 -1.4485
  250MOL0     O34363  11.221   5.165   3.819  0.5417  0.0418  0.4610
  250MOL0     C34364  11.207   5.248   3.728  0.0274  0.5240 -0.2124
  250MOL0     O34365  11.308   5.325   3.686  0.0931 -0.2380  0.0885
  250MOL0     C34366  11.432   5.321   3.742  0.0364  1.0501  0.6922
  250MOL0     C34367  11.485   5.429   3.815 -0.0233 -0.4522 -0.0459
  250MOL0     C34368  11.596   5.424   3.899 -0.7471  0.2038  0.0338
  250MOL0     C34369  11.658   5.306   3.915 -0.0828  0.3183  0.8032
  250MOL0     O34370  11.771   5.276   3.985 -0.7853  0.0136 -0.0544
  250MOL0     C34371  11.837   5.381   4.059  0.6549  0.1354 -0.3835
  250MOL0     C34372  11.767   5.403   4.195 -0.8020 -0.1446  0.4066
  250MOL0     C34373  11.850   5.498   4.297  0.3551  0.4681 -0.3225
  250MOL0     C34374  11.957   5.426   4.382  0.9281 -0.0529  1.1204
  250MOL0     C34375  12.063   5.526   4.433  0.6031 -1.1748  0.8737
  250MOL0     C34376  12.165   5.460   4.523  0.1653 -1.1602 -0.0197
  250MOL0     C34377  12.275   5.560   4.555 -0.3852 -0.6600 -0.1736
  250MOL0     C34378  12.365   5.507   4.672 -0.5325  0.7228 -0.2189
  250MOL0     N34379  12.463   5.608   4.710 -0.3303 -0.5333  0.5600
  250MOL0     C34380  12.555   5.644   4.619  0.6342 -1.3371  0.9442
  250MOL0     C34381  12.633   5.738   4.682  0.0649 -0.2450  0.0739
  250MOL0     C34382  12.724   5.828   4.625 -0.1937  0.0069 -0.3416
  250MOL0     C34383  12.865   5.821   4.671 -0.1192 -0.9953 -0.8642
  250MOL0     C34384  12.963   5.939   4.622  0.4409  0.3967  0.4022
  250MOL0     C34385  13.108   5.899   4.646  0.1294  0.0416  0.3477
  250MOL0     O34386  13.144   5.906   4.789  0.5395 -0.4235  0.8802
  250MOL0     C34387  13.271   5.860   4.824  0.2171  0.1435  0.2663
  250MOL0     C34388  13.345   5.772   4.752 -0.1857  0.5015 -0.3653
  250MOL0     C34389  13.480   5.732   4.787  0.0809  0.3261 -0.5567
  250MOL0     C34390  13.533   5.624   4.701 -0.6878  0.0773  0.1132
  250MOL0     C34391  13.537   5.783   4.910  0.3896  0.6844  0.5247
  250MOL0     C34392  13.669   5.747   4.966 -0.1647 -0.7172 -0.3316
  250MOL0     O34393  13.768   5.702   4.887 -0.4109  0.4701  0.1233
  250MOL0     C34394  13.904   5.686   4.933  0.8939  0.9981 -0.1051
  250MOL0     C34395  14.002   5.732   4.843 -1.0293 -0.0885 -0.3323
  250MOL0     C34396  14.131   5.718   4.877 -0.7754 -0.3012  0.1803
  250MOL0     C34397  14.165   5.669   5.005 -0.6259 -0.1642  1.0895
  250MOL0     O34398  14.296   5.672   5.046 -0.0095 -0.3072 -0.1604
  250MOL0     C34399  14.359   5.556   5.103 -0.6986  0.6712  0.8171
  250MOL0     C34400  14.508   5.585   5.102 -0.4563  0.1135 -0.4491
  250MOL0     C34401  14.590   5.456   5.113  0.9935 -1.2391 -0.2488
  250MOL0     C34402  14.737   5.494   5.112 -0.0637 -0.1616 -0.7682
  250MOL0     C34403  14.813   5.387   5.181  0.1018  1.0061 -0.2304
  250MOL0     C34404  14.961   5.427   5.169  0.2627  0.1144 -0.2511
  250MOL0     C34405  15.033   5.330   5.260 -0.2771 -0.0372  0.1070
  250MOL0     C34406  15.178   5.368   5.295 -0.0097  0.2276  0.1781
  250MOL0    Cl34407  15.255   5.457   5.152  0.1729 -0.2431  0.4438
  250MOL0     C34408  14.066   5.611   5.086  0.1081  0.0496  1.1323
  250MOL0     C34409  13.939   5.616   5.044 -0.3168  1.1585 -0.6114
  250MOL0     O34410  13.676   5.769   5.088  0.2530  0.4227  0.5483
  250MOL0     C34411  13.463   5.889   4.968  0.0019 -0.6915  0.1755
  250MOL0     C34412  13.340   5.926   4.926  1.3057 -0.1183  0.2373
  250MOL0     N34413  12.594   5.751   4.812  0.4479  0.5296 -0.5403
  250MOL0     N34414  12.496   5.664   4.829  0.4593 -1.0339 -0.1996
  250MOL0     C34415  11.615   5.197   3.837 -0.2475 -0.0060 -0.1452
  250MOL0     C34416  11.501   5.202   3.757 -0.5070 -1.0290  0.2479
  250MOL0     C34417  11.071   5.252   3.673 -0.3076 -0.0427 -1.1809
  250MOL0     C34418  10.977   5.159   3.711 -0.0155  0.4090  0.3964
  250MOL0     C34419  10.842   5.160   3.663 -0.0829 -0.0176  0.6352
  250MOL0     C34420  10.800   5.252   3.564 -0.1010 -0.1782 -0.2564
  250MOL0     O34421  10.674   5.247   3.516 -0.0901 -0.2632  0.4695
  250MOL0     C34422  10.615   5.361   3.445 -0.2431  0.6349 -0.1978
  250MOL0     C34423  10.468   5.320   3.410 -0.0236 -0.8984  0.2580
  250MOL0     C34424  10.369   5.296   3.531  0.3860  0.2266 -0.5872
  250MOL0     C34425  10.224   5.342   3.503  0.4917 -0.6164  0.9972
  250MOL0     C34426  10.177   5.274   3.378 -0.2544 -0.0320  0.7064
  250MOL0     C34427  10.145   5.207   3.276 -0.0399 -0.1052  0.1953
  250MOL0     C34428  10.898   5.347   3.531  0.1254  1.1454  0.3281
  250MOL0     C34429  11.031   5.358   3.584 -0.0450 -1.8399  0.1398
  250MOL0     C34430  11.108   5.483   3.546 -0.5525  0.3292 -0.2342
  250MOL0     H34431  11.428   5.521   3.817 -1.5964 -1.3750 -0.2071
  250MOL0     H34432  11.643   5.513   3.939  0.3726 -1.5119  2.8269
  250MOL0     H34433  11.841   5.474   4.002  1.1893  0.4117  0.1048
  250MOL0     H34434  11.940   5.354   4.083  1.1193  0.1659 -2.1798
  250MOL0     H34435  11.666   5.443   4.180 -1.7877 -3.0400 -1.4697
  250MOL0     H34436  11.757   5.308   4.248 -0.1738  0.3870  1.5086
  250MOL0     H34437  11.900   5.574   4.236  0.5207 -1.9521 -3.4473
  250MOL0     H34438  11.777   5.536   4.369  1.5645 -2.0594  2.4485
  250MOL0     H34439  11.912   5.374   4.466 -1.3604  0.2348  0.1422
  250MOL0     H34440  12.004   5.351   4.318  0.9569  1.4476 -0.7399
  250MOL0     H34441  12.010   5.605   4.486  2.8688 -0.9489  2.9489
  250MOL0     H34442  12.114   5.571   4.347 -1.4515  1.7680  1.0474
  250MOL0     H34443  12.114   5.434   4.617 -1.8046  1.9744 -0.0535
  250MOL0     H34444  12.210   5.374   4.474  1.6459 -0.4739  0.0624
  250MOL0     H34445  12.244   5.661   4.583  2.2634  0.0661  0.4025
  250MOL0     H34446  12.330   5.560   4.460 -0.0990 -1.5786 -0.0173
  250MOL0     H34447  12.322   5.475   4.767  1.2181  5.7060  2.6105
  250MOL0     H34448  12.418   5.419   4.635  2.2118  1.8106  0.8868
  250MOL0     H34449  12.548   5.624   4.512  1.8051  2.2142  0.0723
  250MOL0     H34450  12.682   5.928   4.638 -2.6363 -0.8945 -0.6255
  250MOL0     H34451  12.731   5.804   4.518 -1.2152 -0.2442 -0.3663
  250MOL0     H34452  12.863   5.824   4.781 -2.4421 -0.8567 -0.8762
  250MOL0     H34453  12.916   5.725   4.656  0.3930 -1.3245  2.1795
  250MOL0     H34454  12.946   5.973   4.519 -2.9948 -1.7199  0.1322
  250MOL0     H34455  12.936   6.029   4.677  4.6955  1.2381  1.5270
  250MOL0     H34456  13.120   5.794   4.619  1.7438 -0.0711  1.3175
  250MOL0     H34457  13.177   5.960   4.586 -1.7394 -0.5844 -2.6178
  250MOL0     H34458  13.318   5.745   4.650 -0.3324  0.6709 -0.3718
  250MOL0     H34459  13.472   5.578   4.623  0.6069 -0.7782 -0.4336
  250MOL0     H34460  13.567   5.545   4.769  0.7216  1.6133  1.2817
  250MOL0     H34461  13.620   5.663   4.646 -1.1946  2.1993  0.7279
  250MOL0     H34462  13.979   5.778   4.748 -0.8401 -1.9991 -1.3642
  250MOL0     H34463  14.213   5.750   4.814 -1.0957  2.1290  0.8793
  250MOL0     H34464  14.329   5.542   5.207 -0.5545 -2.9402  0.5001
  250MOL0     H34465  14.354   5.468   5.038  4.0723  0.6950  0.0633
  250MOL0     H34466  14.536   5.644   5.014  1.5603 -0.0848  0.0079
  250MOL0     H34467  14.541   5.639   5.191 -3.1167  0.7777  0.2166
  250MOL0     H34468  14.571   5.379   5.037 -0.7612  0.0664 -1.1781
  250MOL0     H34469  14.577   5.402   5.208  1.1560 -0.2838  0.3261
  250MOL0     H34470  14.758   5.590   5.159 -0.3742 -2.2390  4.2074
  250MOL0     H34471  14.759   5.509   5.006  0.0432 -4.7975 -1.6035
  250MOL0     H34472  14.782   5.383   5.286  2.1754 -0.0065  0.4085
  250MOL0     H34473  14.800   5.287   5.139  0.3433  0.0046  1.9186
  250MOL0     H34474  14.971   5.528   5.209 -2.5261  0.3486  0.0431
  250MOL0     H34475  14.990   5.433   5.063 -3.1623  4.5475 -1.2588
  250MOL0     H34476  15.037   5.236   5.204 -0.8952  0.4246 -0.7391
  250MOL0     H34477  14.979   5.322   5.355  0.0395 -0.8655  0.2245
  250MOL0     H34478  15.241   5.283   5.321 -1.4317  0.3315  4.7686
  250MOL0     H34479  15.196   5.435   5.380  0.7673  0.5451 -0.2235
  250MOL0     H34480  14.097   5.559   5.176  0.7824 -0.6494  0.5265
  250MOL0     H34481  13.867   5.571   5.112  1.1049  1.8123  1.4299
  250MOL0     H34482  13.512   5.939   5.051  3.6474  0.1787 -2.2815
  250MOL0     H34483  13.297   6.013   4.974  1.8772  1.5024 -2.0572
  250MOL0     H34484  11.658   5.100   3.855 -2.5016 -1.0511 -0.0558
  250MOL0     H34485  11.466   5.118   3.697  1.5300 -1.9835  0.3142
  250MOL0     H34486  11.004   5.083   3.784  0.2438 -0.2917 -0.4130
  250MOL0     H34487  10.773   5.082   3.691 -0.9853  0.1354 -1.0080
  250MOL0     H34488  10.605   5.445   3.514 -2.6697 -1.7765  2.6866
  250MOL0     H34489  10.668   5.392   3.355 -1.2005  1.2903 -0.5485
  250MOL0     H34490  10.470   5.232   3.346 -1.9973  0.3012 -1.5993
  250MOL0     H34491  10.425   5.399   3.347  2.6068 -0.6004 -1.3074
  250MOL0     H34492  10.378   5.192   3.561  1.2846  0.0068 -1.5305
  250MOL0     H34493  10.394   5.366   3.611 -1.1446  0.8386 -0.5998
  250MOL0     H34494  10.225   5.452   3.510 -1.9630 -0.4531  0.0750
  250MOL0     H34495  10.144   5.316   3.573 -0.6036  0.5582  0.2518
  250MOL0     H34496  10.133   5.153   3.185 -1.3640 -0.0659  0.3358
  250MOL0     H34497  10.871   5.433   3.470  0.2840  0.5793 -0.5606
  250MOL0     H34498  11.042   5.554   3.495  0.1921 -0.4829 -2.4173
  250MOL0     H34499  11.154   5.529   3.635 -0.3798 -0.3381  0.0267
  250MOL0     H34500  11.183   5.449   3.475  0.0445 -0.0814  0.5725
  251MOL0     O34501   8.086   8.683   0.829  0.5514  0.6506  0.5242
  251MOL0     C34502   8.085   8.795   0.792  0.4350 -0.2124 -0.2022
  251MOL0     O34503   7.976   8.875   0.764  0.3427  0.0493  0.2255
  251MOL0     C34504   7.852   8.832   0.800  1.1418 -0.6598  0.0354
  251MOL0     C34505   7.747   8.873   0.706 -1.0729  0.4610 -0.0033
  251MOL0     C34506   7.615   8.834   0.729  0.1323 -0.1336  0.0706
  251MOL0     C34507   7.571   8.764   0.846 -0.5471 -0.0225 -0.9750
  251MOL0     O34508   7.439   8.738   0.872 -0.0789  0.2116 -0.6764
  251MOL0     C34509   7.399   8.639   0.970 -0.5363  0.1043  0.4434
  251MOL0     C34510   7.254   8.614   0.931  0.9748  0.2131  0.1511
  251MOL0     C34511   7.175   8.560   1.052  0.1844  0.1070 -0.4303
  251MOL0     C34512   7.029   8.608   1.046 -0.5970 -0.8176 -0.3284
  251MOL0     C34513   6.924   8.546   1.136  0.4066 -0.8982  0.0298
  251MOL0     C34514   6.896   8.392   1.131  0.4878 -0.5007 -0.1137
  251MOL0     C34515   6.745   8.363   1.153 -0.3134 -0.9102  0.7275
  251MOL0     C34516   6.720   8.220   1.129 -0.6553 -0.3834 -0.0414
  251MOL0     N34517   6.576   8.188   1.135  0.5990 -0.3214 -0.1044
  251MOL0     C34518   6.472   8.228   1.047  0.5970 -0.0221 -0.4589
  251MOL0     C34519   6.356   8.181   1.106  0.4305 -0.1054 -1.2452
  251MOL0     C34520   6.224   8.219   1.044  0.9240  0.4733  0.4288
  251MOL0     C34521   6.126   8.247   1.161  0.0945 -0.2187 -0.0074
  251MOL0     C34522   6.159   8.371   1.248  0.1861 -0.2096 -0.2766
  251MOL0     C34523   6.117   8.498   1.185 -0.3542 -0.0804 -0.5313
  251MOL0     O34524   6.148   8.600   1.272 -0.0829  0.2578 -0.4224
  251MOL0     C34525   6.074   8.714   1.268  0.6649 -0.0739  0.3901
  251MOL0     C34526   6.010   8.765   1.159  0.3136 -0.1421  0.3364
  251MOL0     C34527   5.933   8.879   1.167  0.1668 -0.2131 -0.4032
  251MOL0     C34528   5.873   8.917   1.025  0.4365  0.2292 -0.5932
  251MOL0     C34529   5.904   8.950   1.288 -0.2815  0.3531  0.0388
  251MOL0     C34530   5.829   9.073   1.300 -0.2531  0.0944  0.5238
  251MOL0     O34531   5.825   9.135   1.428  0.0436  0.1743  0.3292
  251MOL0     C34532   5.739   9.245   1.445  0.4080 -0.2782 -0.0510
  251MOL0     C34533   5.731   9.366   1.357 -0.5269  0.1873 -0.6140
  251MOL0     C34534   5.643   9.466   1.393  0.0645  0.1286  0.4057
  251MOL0     C34535   5.562   9.460   1.504  0.4095 -0.6058 -0.0590
  251MOL0     O34536   5.473   9.561   1.535 -0.1236 -0.4739 -0.3647
  251MOL0     C34537   5.432   9.659   1.444 -0.4776  0.3950  0.2250
  251MOL0     C34538   5.348   9.759   1.529 -1.0219 -0.3404  0.2242
  251MOL0     C34539   5.214   9.701   1.579 -0.3799 -0.4487  0.3603
  251MOL0     C34540   5.213   9.600   1.693 -0.3584 -0.2210 -0.8582
  251MOL0     C34541   5.067   9.581   1.744 -0.5610 -0.3067 -0.2867
  251MOL0     C34542   5.032   9.477   1.857 -0.6511  0.7627 -0.2760
  251MOL0     C34543   5.055   9.335   1.796  0.5934  0.2393  0.6558
  251MOL0     C34544   5.007   9.226   1.883  0.0788  0.5913  0.6304
  251MOL0    Cl34545   4.835   9.244   1.927  0.0270 -0.0641 -0.3051
  251MOL0     C34546   5.588   9.356   1.597  0.0638 -0.5503 -0.1050
  251MOL0     C34547   5.679   9.251   1.565  0.3971 -0.1785 -0.5587
  251MOL0     O34548   5.769   9.115   1.201  0.1491  0.5921 -0.3334
  251MOL0     C34549   5.973   8.901   1.400 -0.6898  0.8679 -0.1462
  251MOL0     C34550   6.055   8.785   1.385  0.1341  1.0118 -0.3728
  251MOL0     N34551   6.393   8.130   1.231  0.5596 -0.3395  0.1599
  251MOL0     N34552   6.516   8.141   1.246  0.0025 -0.5438  0.2999
  251MOL0     C34553   7.682   8.725   0.938  0.4448  0.1957 -0.4105
  251MOL0     C34554   7.814   8.766   0.915 -0.2412  0.4111 -1.3888
  251MOL0     C34555   8.219   8.841   0.747 -1.6863 -0.0447 -0.0231
  251MOL0     C34556   8.230   8.985   0.715  0.5259  0.8808  0.1028
  251MOL0     C34557   8.345   9.044   0.680  0.2275 -0.1791 -0.4898
  251MOL0     C34558   8.472   8.978   0.685  0.3032  0.4534  1.0302
  251MOL0     O34559   8.583   9.053   0.670 -0.2127 -0.0295  0.9093
  251MOL0     C34560   8.683   9.038   0.770  0.4758 -0.3829 -0.3359
  251MOL0     C34561   8.738   9.180   0.805  0.0774 -0.3885  0.2352
  251MOL0     C34562   8.855   9.168   0.909  0.5230 -0.0842  0.0641
  251MOL0     C34563   8.891   9.317   0.947 -0.0143  0.2258  0.5306
  251MOL0     C34564   8.973   9.316   1.065 -0.2026  0.1850  0.4196
  251MOL0     C34565   9.032   9.320   1.166  0.1976 -0.2779 -0.3345
  251MOL0     C34566   8.466   8.845   0.719 -0.6651  0.4902  0.9655
  251MOL0     C34567   8.347   8.778   0.749 -0.7249  0.9433 -0.6190
  251MOL0     C34568   8.371   8.627   0.782  0.0857 -0.2548  0.5074
  251MOL0     H34569   7.764   8.941   0.624  1.1385  0.0488  0.0549
  251MOL0     H34570   7.545   8.882   0.662 -0.5722 -1.6922 -0.3598
  251MOL0     H34571   7.415   8.678   1.071  1.7877  0.1643  0.0964
  251MOL0     H34572   7.459   8.552   0.944 -0.1025  0.5948 -0.2314
  251MOL0     H34573   7.211   8.709   0.901  1.7703  0.5181 -0.0536
  251MOL0     H34574   7.242   8.556   0.840 -1.5654  2.1399 -0.8410
  251MOL0     H34575   7.182   8.451   1.061 -4.4595 -0.3255  0.5498
  251MOL0     H34576   7.218   8.604   1.142  1.2927 -0.7113 -0.5306
  251MOL0     H34577   7.030   8.717   1.054  0.1829 -0.7820 -0.8457
  251MOL0     H34578   6.996   8.590   0.944 -1.0730  0.0646 -0.3366
  251MOL0     H34579   6.832   8.605   1.142 -0.4787 -2.3401  1.3559
  251MOL0     H34580   6.976   8.569   1.229 -1.6599  3.1193  0.4045
  251MOL0     H34581   6.909   8.352   1.030 -1.9528  1.3326 -1.2483
  251MOL0     H34582   6.967   8.338   1.195  2.9161 -1.5517 -3.3846
  251MOL0     H34583   6.685   8.431   1.093 -0.9639  1.2014  3.5349
  251MOL0     H34584   6.714   8.387   1.256 -1.5079  1.7990 -0.1876
  251MOL0     H34585   6.743   8.195   1.025  1.3563 -1.2843  0.5740
  251MOL0     H34586   6.786   8.158   1.191  3.2818  0.3736 -3.1117
  251MOL0     H34587   6.487   8.273   0.950 -3.1448 -1.3469 -1.8168
  251MOL0     H34588   6.186   8.140   0.978 -0.6983 -0.2644  2.1413
  251MOL0     H34589   6.241   8.307   0.981 -1.4080  3.1008  3.1602
  251MOL0     H34590   6.031   8.254   1.107 -0.1281 -1.6292  0.1498
  251MOL0     H34591   6.116   8.165   1.232  1.0629  0.5599  1.0598
  251MOL0     H34592   6.105   8.356   1.343  2.8623 -1.3716  1.1759
  251MOL0     H34593   6.266   8.377   1.270  0.0058 -1.2811  1.0582
  251MOL0     H34594   6.170   8.510   1.090  0.8662  1.8816  0.3327
  251MOL0     H34595   6.008   8.492   1.175 -0.4673 -0.0797  0.5716
  251MOL0     H34596   6.032   8.712   1.067 -0.4295 -1.1580  0.7222
  251MOL0     H34597   5.886   8.841   0.948 -0.2004 -0.3248 -0.1576
  251MOL0     H34598   5.928   9.003   0.984  0.4029 -0.1844 -1.5277
  251MOL0     H34599   5.768   8.946   1.038  0.8775  0.6617  3.1720
  251MOL0     H34600   5.804   9.387   1.279  1.2510  0.6193  1.0817
  251MOL0     H34601   5.633   9.546   1.321  2.1818 -1.1710 -1.4365
  251MOL0     H34602   5.518   9.706   1.394  0.6279 -0.5349  1.2007
  251MOL0     H34603   5.371   9.610   1.368 -2.1792 -1.2047  2.5178
  251MOL0     H34604   5.412   9.794   1.610 -0.5086 -0.0621 -0.2902
  251MOL0     H34605   5.323   9.844   1.464 -1.9788 -1.0280 -0.3313
  251MOL0     H34606   5.162   9.669   1.488 -0.5485  3.0536 -0.9387
  251MOL0     H34607   5.162   9.789   1.620 -0.6843 -1.4597  2.2771
  251MOL0     H34608   5.282   9.619   1.776  4.0039 -4.5008 -2.9671
  251MOL0     H34609   5.259   9.507   1.657  2.9125  1.4564 -1.3219
  251MOL0     H34610   5.024   9.677   1.773 -3.3406 -1.2453 -0.9866
  251MOL0     H34611   5.009   9.558   1.653  0.0097 -0.7079 -0.5526
  251MOL0     H34612   4.926   9.483   1.884 -0.1281  2.2204  1.6254
  251MOL0     H34613   5.092   9.491   1.947 -0.8794  0.7631 -0.1236
  251MOL0     H34614   5.162   9.317   1.781  0.4012  0.9069 -1.9929
  251MOL0     H34615   5.007   9.330   1.698 -2.2013  2.1165  1.8210
  251MOL0     H34616   5.061   9.219   1.978 -3.5557  0.3606  2.8811
  251MOL0     H34617   5.018   9.125   1.841 -0.2441  1.0848 -0.6980
  251MOL0     H34618   5.547   9.360   1.697  0.2984  1.9747 -0.0400
  251MOL0     H34619   5.693   9.164   1.628  1.0403  0.1544 -0.2288
  251MOL0     H34620   5.986   8.947   1.498  0.9331 -2.7241  1.5544
  251MOL0     H34621   6.118   8.768   1.472  1.2705  3.3318 -0.6834
  251MOL0     H34622   7.671   8.671   1.032 -1.8730  1.1791 -0.0646
  251MOL0     H34623   7.894   8.755   0.989  0.3537  0.9698 -1.9384
  251MOL0     H34624   8.146   9.053   0.725  1.5952  2.1102  1.1339
  251MOL0     H34625   8.345   9.150   0.659  1.8431 -0.3065 -1.2618
  251MOL0     H34626   8.640   9.000   0.863  0.1380 -0.5873 -0.5720
  251MOL0     H34627   8.764   8.975   0.732 -1.4466 -1.9404 -2.0886
  251MOL0     H34628   8.660   9.251   0.832 -2.1515 -2.7860  0.4905
  251MOL0     H34629   8.783   9.203   0.708  0.6234 -1.3438  0.2487
  251MOL0     H34630   8.821   9.131   1.007 -1.9366 -0.1510 -0.7641
  251MOL0     H34631   8.937   9.107   0.870 -0.9242 -1.2452 -1.2575
  251MOL0     H34632   8.800   9.373   0.970  0.3528 -0.0998  3.1865
  251MOL0     H34633   8.929   9.365   0.856 -4.5035  0.9417 -1.1990
  251MOL0     H34634   9.079   9.324   1.262  1.5215  3.2750 -0.9916
  251MOL0     H34635   8.558   8.788   0.711 -0.6049  0.7319 -0.3389
  251MOL0     H34636   8.368   8.608   0.890  4.1732 -0.9100  0.6458
  251MOL0     H34637   8.297   8.556   0.743  1.8455 -1.2228 -1.2542
  251MOL0     H34638   8.465   8.583   0.748  0.8846  1.5572  0.2568
  252MOL0     O34639  10.949   3.124   1.981  0.2949 -0.1203 -0.1128
  252MOL0     C34640  11.051   3.104   1.920  0.5546 -0.3344  0.3066
  252MOL0     O34641  11.151   3.015   1.946  0.8337 -0.2181 -0.3436
  252MOL0     C34642  11.150   2.953   2.068  0.3451 -0.4939 -0.1260
  252MOL0     C34643  11.037   2.886   2.120  0.6663  0.0194  0.3065
  252MOL0     C34644  11.045   2.802   2.239 -0.4269  0.0476 -0.3897
  252MOL0     C34645  11.163   2.795   2.312  0.2700  0.4239  0.2558
  252MOL0     O34646  11.141   2.732   2.433 -0.0425 -0.1384 -0.0313
  252MOL0     C34647  11.263   2.662   2.476  0.2887  0.7271 -0.4212
  252MOL0     C34648  11.243   2.575   2.595  0.7690 -0.3457  0.3099
  252MOL0     C34649  11.227   2.656   2.720 -0.3435 -0.0313 -0.4873
  252MOL0     C34650  11.268   2.583   2.847 -0.5968  0.2336 -0.4213
  252MOL0     C34651  11.198   2.660   2.967 -0.4532  0.0263  0.0088
  252MOL0     C34652  11.235   2.579   3.093 -0.5713  0.7138  0.2745
  252MOL0     C34653  11.148   2.620   3.212 -0.1810  0.2020  0.7674
  252MOL0     C34654  11.015   2.545   3.228 -0.0670 -0.1938  0.6322
  252MOL0     N34655  10.935   2.564   3.348 -0.0753  0.2335  0.8354
  252MOL0     C34656  10.812   2.512   3.370  0.4168  0.0524 -0.7385
  252MOL0     C34657  10.767   2.559   3.490  0.7135  1.0422 -0.0473
  252MOL0     C34658  10.626   2.545   3.533 -0.7450  0.4079 -0.1829
  252MOL0     C34659  10.605   2.576   3.681 -0.1554 -0.0488  0.1308
  252MOL0     C34660  10.447   2.550   3.707 -0.1375  0.2695  0.3684
  252MOL0     C34661  10.406   2.625   3.841  0.6459  0.1087  0.4951
  252MOL0     O34662  10.482   2.597   3.961  0.0249 -0.2199 -0.3268
  252MOL0     C34663  10.475   2.460   4.002  0.5831  0.0149 -0.0072
  252MOL0     C34664  10.357   2.392   4.027  0.2510  0.4943  0.4366
  252MOL0     C34665  10.364   2.256   4.048 -0.4906  0.8994  0.2766
  252MOL0     C34666  10.237   2.168   4.058  0.3280  1.0434  0.3336
  252MOL0     C34667  10.492   2.182   4.073  1.3715  0.0334  0.1928
  252MOL0     C34668  10.488   2.045   4.115  0.4376 -0.7313 -0.0606
  252MOL0     O34669  10.580   1.974   4.053  0.9134 -0.1079 -0.1198
  252MOL0     C34670  10.603   1.851   4.109 -0.0450  0.5103 -0.5002
  252MOL0     C34671  10.632   1.817   4.239  0.2286 -0.4598 -0.9093
  252MOL0     C34672  10.660   1.688   4.293 -0.2011  0.9615  0.1467
  252MOL0     C34673  10.682   1.583   4.201  0.3780 -0.1456  0.2561
  252MOL0     O34674  10.693   1.455   4.253 -0.4871 -0.2023  0.0661
  252MOL0     C34675  10.635   1.349   4.182  0.6649  0.1619  0.3192
  252MOL0     C34676  10.626   1.223   4.276 -0.6454  0.2948  0.1845
  252MOL0     C34677  10.580   1.260   4.415  0.3533  0.3611 -0.4566
  252MOL0     C34678  10.430   1.281   4.432 -0.0430 -0.2444  1.0102
  252MOL0     C34679  10.399   1.310   4.581 -0.2483 -1.0106  0.1144
  252MOL0     C34680  10.255   1.278   4.615  0.2831 -0.1647 -1.4692
  252MOL0     C34681  10.149   1.340   4.526  0.1687 -0.4323  0.8375
  252MOL0     C34682  10.013   1.319   4.582 -0.2643 -0.2246  0.6405
  252MOL0    Cl34683   9.891   1.355   4.458  0.4236  0.3101 -0.1543
  252MOL0     C34684  10.661   1.609   4.066  0.1335 -0.1673  0.5775
  252MOL0     C34685  10.627   1.741   4.022  0.1957  1.2676  0.4848
  252MOL0     O34686  10.427   2.011   4.215 -0.0061 -0.0015 -0.2690
  252MOL0     C34687  10.605   2.267   4.066 -0.5363  0.1441 -0.5525
  252MOL0     C34688  10.599   2.404   4.026 -0.8470  0.5510 -0.9023
  252MOL0     N34689  10.863   2.644   3.535  0.3512  0.1249  0.2559
  252MOL0     N34690  10.962   2.648   3.450  1.0106 -0.5363  0.1745
  252MOL0     C34691  11.274   2.857   2.256 -0.1853 -0.0822 -0.0831
  252MOL0     C34692  11.273   2.936   2.134  0.2848 -0.2683  0.1989
  252MOL0     C34693  11.074   3.181   1.795 -0.1422 -0.2872 -0.3254
  252MOL0     C34694  10.966   3.212   1.718 -0.1237  0.3326 -0.1369
  252MOL0     C34695  10.981   3.301   1.612  0.1162 -0.6324 -0.5132
  252MOL0     C34696  11.104   3.349   1.572  1.2280  0.7103 -0.1613
  252MOL0     O34697  11.127   3.428   1.468  0.1081 -0.0797  0.3457
  252MOL0     C34698  11.022   3.449   1.365 -0.6692  0.6996  0.3192
  252MOL0     C34699  11.075   3.538   1.251 -0.1724 -0.8081  0.0902
  252MOL0     C34700  11.095   3.456   1.126 -0.5324 -1.1293  0.6478
  252MOL0     C34701  11.174   3.543   1.026  0.1222 -0.4771 -0.2639
  252MOL0     C34702  11.135   3.530   0.887  0.3736 -0.1751  0.5774
  252MOL0     C34703  11.106   3.526   0.767  0.1697  0.2641  0.3992
  252MOL0     C34704  11.221   3.305   1.639  0.2757 -0.3831  0.8819
  252MOL0     C34705  11.205   3.224   1.752 -0.2272 -0.4033 -0.5836
  252MOL0     C34706  11.329   3.187   1.829  1.0092 -0.4290  0.2895
  252MOL0     H34707  10.944   2.895   2.066  2.5662  0.4282 -3.1843
  252MOL0     H34708  10.952   2.764   2.281 -2.1205  2.2963 -1.8797
  252MOL0     H34709  11.333   2.742   2.502 -0.6665  1.6988 -0.7631
  252MOL0     H34710  11.298   2.588   2.404 -1.7937 -1.4898  0.7049
  252MOL0     H34711  11.156   2.512   2.575  0.4866  0.4293 -0.9755
  252MOL0     H34712  11.337   2.519   2.601  1.3306  0.4455 -0.7372
  252MOL0     H34713  11.268   2.756   2.710 -0.5807 -0.1231 -2.9936
  252MOL0     H34714  11.121   2.682   2.726 -0.6976 -1.2627 -0.9877
  252MOL0     H34715  11.225   2.483   2.836 -1.1294  0.5364 -1.1994
  252MOL0     H34716  11.376   2.581   2.861 -0.4985 -1.7470 -1.1702
  252MOL0     H34717  11.089   2.664   2.954 -0.2220  1.8884 -2.1502
  252MOL0     H34718  11.231   2.765   2.964 -0.9778  0.2687  1.7981
  252MOL0     H34719  11.225   2.474   3.066  0.4258  0.6765  0.0049
  252MOL0     H34720  11.341   2.601   3.108 -0.8963  2.2906  0.5208
  252MOL0     H34721  11.135   2.729   3.209 -1.5385  0.0612  0.9221
  252MOL0     H34722  11.204   2.613   3.306  1.1274  1.1961  0.0974
  252MOL0     H34723  10.952   2.558   3.139  0.2353 -0.6783  0.3410
  252MOL0     H34724  11.038   2.438   3.226 -0.2994 -0.2322 -0.5460
  252MOL0     H34725  10.755   2.446   3.305  1.5630 -1.1582 -0.5489
  252MOL0     H34726  10.599   2.440   3.528 -0.4117  0.3266 -0.3108
  252MOL0     H34727  10.568   2.612   3.469 -0.2747  3.4606  2.3020
  252MOL0     H34728  10.665   2.519   3.752 -2.1286 -4.0440 -1.0757
  252MOL0     H34729  10.628   2.682   3.693 -0.8357  0.1797 -0.4716
  252MOL0     H34730  10.390   2.592   3.624  1.3377  2.3400  0.3357
  252MOL0     H34731  10.434   2.441   3.706  1.0306  0.1220  0.5350
  252MOL0     H34732  10.417   2.730   3.812 -1.6149  0.1005 -0.6085
  252MOL0     H34733  10.298   2.618   3.853  0.8557 -0.3282  2.3325
  252MOL0     H34734  10.257   2.433   4.021 -1.0578 -2.6103 -1.0642
  252MOL0     H34735  10.254   2.072   4.008  0.8909  0.1315  2.1939
  252MOL0     H34736  10.153   2.214   4.005  1.0849  2.7939  0.5854
  252MOL0     H34737  10.203   2.147   4.159  0.4261  0.3598  0.2313
  252MOL0     H34738  10.635   1.896   4.312 -0.5199 -0.2279 -1.1174
  252MOL0     H34739  10.673   1.665   4.399  0.9475 -2.0180 -0.5162
  252MOL0     H34740  10.532   1.376   4.159  1.2625  0.5430 -2.2395
  252MOL0     H34741  10.693   1.331   4.090  0.2631 -1.8837  0.4056
  252MOL0     H34742  10.549   1.155   4.240 -4.0301  2.7989  2.0945
  252MOL0     H34743  10.720   1.168   4.282 -1.4989 -1.4876 -1.5153
  252MOL0     H34744  10.641   1.345   4.445  1.6211 -0.3980 -0.8284
  252MOL0     H34745  10.603   1.174   4.478 -0.9812 -0.1183 -0.5924
  252MOL0     H34746  10.382   1.185   4.411 -0.6671 -0.3179  2.6366
  252MOL0     H34747  10.399   1.359   4.361  0.7458 -1.2286 -0.4434
  252MOL0     H34748  10.469   1.252   4.641  0.8812  0.9944  0.8203
  252MOL0     H34749  10.418   1.415   4.605 -1.8634 -0.0964 -2.2141
  252MOL0     H34750  10.239   1.320   4.714  1.6099  2.5703 -2.3203
  252MOL0     H34751  10.240   1.169   4.615 -1.1553  0.0115 -0.1647
  252MOL0     H34752  10.165   1.297   4.426 -0.3128 -1.0300  1.0176
  252MOL0     H34753  10.168   1.448   4.521 -2.2219  0.0690  1.3849
  252MOL0     H34754  10.007   1.377   4.675  3.3616  0.3793  0.6667
  252MOL0     H34755  10.000   1.214   4.608 -1.5614 -0.2203  0.0861
  252MOL0     H34756  10.681   1.521   4.006  2.7589  1.3775 -1.0020
  252MOL0     H34757  10.617   1.757   3.915  0.8441  0.0512  0.2146
  252MOL0     H34758  10.696   2.234   4.115  0.5031 -0.7412 -2.9060
  252MOL0     H34759  10.686   2.467   4.038 -0.0183 -0.7657  0.2703
  252MOL0     H34760  11.366   2.852   2.314 -0.0685  0.0466 -0.2534
  252MOL0     H34761  11.363   2.969   2.085  0.1300 -1.7759 -1.1645
  252MOL0     H34762  10.861   3.193   1.739  0.1719  1.3177  2.5998
  252MOL0     H34763  10.888   3.340   1.572 -0.7950 -2.1804  0.0242
  252MOL0     H34764  10.999   3.348   1.329 -0.7896  0.2090  1.7073
  252MOL0     H34765  10.933   3.485   1.417  0.0874  1.6518  0.9826
  252MOL0     H34766  11.171   3.575   1.289 -0.6361 -0.1825  0.6780
  252MOL0     H34767  11.002   3.618   1.238 -0.6609 -0.6149  3.2339
  252MOL0     H34768  11.147   3.361   1.145  1.9053  0.2266  1.1679
  252MOL0     H34769  10.998   3.420   1.090 -1.1851  1.1846 -0.0192
  252MOL0     H34770  11.282   3.532   1.040  0.0620 -1.4555 -0.5244
  252MOL0     H34771  11.166   3.651   1.046  0.7409 -0.5913  0.6389
  252MOL0     H34772  11.085   3.526   0.662  2.1523  3.4432 -0.1464
  252MOL0     H34773  11.309   3.332   1.583 -0.2718 -0.2026  0.0971
  252MOL0     H34774  11.319   3.209   1.935 -2.0622  0.0463 -0.0174
  252MOL0     H34775  11.351   3.080   1.831 -1.7549 -1.0634  1.8028
  252MOL0     H34776  11.420   3.243   1.802 -1.3086  3.7265  0.3222
  253MOL0     O34777   6.080   3.852   7.014  0.4214 -0.1723 -0.4048
  253MOL0     C34778   5.996   3.916   7.072  0.1416  0.0963 -0.5402
  253MOL0     O34779   6.006   4.046   7.099 -0.1890  0.3192  0.3599
  253MOL0     C34780   6.121   4.120   7.073  0.4173  0.0485  0.3092
  253MOL0     C34781   6.113   4.240   7.139  0.4099  0.2306 -0.0758
  253MOL0     C34782   6.224   4.337   7.147 -0.0101  0.4566  0.1105
  253MOL0     C34783   6.344   4.307   7.080 -0.1534 -0.5644  0.3330
  253MOL0     O34784   6.457   4.383   7.071 -0.7166 -0.4339  0.6054
  253MOL0     C34785   6.456   4.523   7.106 -0.7142 -0.6857 -0.3746
  253MOL0     C34786   6.578   4.587   7.041  0.3047 -0.1890  0.1639
  253MOL0     C34787   6.572   4.732   6.996 -0.2534  0.3441 -0.2448
  253MOL0     C34788   6.706   4.791   6.967  0.2980  0.3377  0.3557
  253MOL0     C34789   6.693   4.948   6.959  0.5973  0.1927 -0.4756
  253MOL0     C34790   6.813   5.011   6.890  0.2128  0.8736 -0.1193
  253MOL0     C34791   6.951   4.976   6.949 -0.1387  0.6504  0.0807
  253MOL0     C34792   7.065   5.041   6.880 -0.9388 -0.7940  0.1151
  253MOL0     N34793   7.194   4.997   6.938 -0.2868 -0.2877 -0.6744
  253MOL0     C34794   7.312   4.964   6.873 -0.9118 -0.4398  1.3655
  253MOL0     C34795   7.397   4.937   6.970 -0.3367  0.4312  0.5693
  253MOL0     C34796   7.538   4.896   6.944  0.1343  0.4455  0.0239
  253MOL0     C34797   7.643   4.992   7.010  0.4610  0.2863  0.5288
  253MOL0     C34798   7.778   4.925   7.016  0.3785  0.3763  1.0693
  253MOL0     C34799   7.887   5.033   7.047  0.5440  0.3455 -0.1522
  253MOL0     O34800   7.975   4.979   7.141 -0.1693  0.6387  0.7312
  253MOL0     C34801   8.073   4.897   7.103  0.4790 -0.9208 -0.2869
  253MOL0     C34802   8.141   4.839   7.212 -1.0125  1.0989  0.7863
  253MOL0     C34803   8.253   4.748   7.196  0.6485 -0.5128  0.5004
  253MOL0     C34804   8.317   4.692   7.322 -0.3683 -0.1083 -0.4889
  253MOL0     C34805   8.304   4.740   7.058  0.4557  0.5879 -0.0512
  253MOL0     C34806   8.427   4.654   7.023  0.3254  0.0503  1.6168
  253MOL0     O34807   8.484   4.678   6.903  0.1099  0.7896 -0.0954
  253MOL0     C34808   8.583   4.593   6.867 -0.2265  0.0702  1.0406
  253MOL0     C34809   8.555   4.484   6.789 -0.1379  0.0933 -0.5188
  253MOL0     C34810   8.655   4.406   6.736  0.0277  0.7827  0.2706
  253MOL0     C34811   8.790   4.432   6.765 -0.8739 -0.0697 -0.3728
  253MOL0     O34812   8.896   4.351   6.712  0.1493 -0.8739 -0.8360
  253MOL0     C34813   8.862   4.230   6.639  0.7696  0.6041 -0.7159
  253MOL0     C34814   8.983   4.185   6.569 -0.3302 -0.1701  0.0158
  253MOL0     C34815   8.970   4.048   6.494 -0.2514 -0.4659 -0.4257
  253MOL0     C34816   8.944   4.051   6.349 -0.7902 -0.3538 -0.3842
  253MOL0     C34817   8.932   3.910   6.294  0.0624  0.5503 -0.0062
  253MOL0     C34818   8.892   3.908   6.149  0.7694 -0.1055 -0.6424
  253MOL0     C34819   8.860   3.773   6.097 -0.4340  0.0846  0.7297
  253MOL0     C34820   8.889   3.763   5.943  1.0449  0.5579 -0.4415
  253MOL0    Cl34821   8.842   3.600   5.895 -0.0257  0.5886 -0.3377
  253MOL0     C34822   8.818   4.543   6.845  0.2328 -0.4807  0.0166
  253MOL0     C34823   8.716   4.622   6.898  0.4080 -0.0068 -0.2839
  253MOL0     O34824   8.471   4.572   7.106 -0.4089 -0.2967 -0.1155
  253MOL0     C34825   8.223   4.786   6.951  0.7352  0.9345 -0.6945
  253MOL0     C34826   8.111   4.858   6.973  0.3622  0.3556 -0.1898
  253MOL0     N34827   7.345   4.956   7.090 -0.2038  0.2121 -0.0567
  253MOL0     N34828   7.224   4.997   7.071  0.5364  0.6628 -0.9739
  253MOL0     C34829   6.351   4.185   7.003 -0.0829  0.0202  0.3832
  253MOL0     C34830   6.239   4.094   6.997 -0.1935  0.4150 -1.3696
  253MOL0     C34831   5.873   3.838   7.105 -0.1778 -0.7763  0.7488
  253MOL0     C34832   5.861   3.713   7.044  0.7446 -0.0254  0.8364
  253MOL0     C34833   5.747   3.635   7.068  0.6277 -1.7649  0.2502
  253MOL0     C34834   5.649   3.673   7.162  0.0183 -0.3169  0.3305
  253MOL0     O34835   5.541   3.608   7.198 -0.5470 -0.1665 -0.5563
  253MOL0     C34836   5.480   3.501   7.122 -0.8405  0.2571 -0.1609
  253MOL0     C34837   5.341   3.466   7.178 -0.3527  0.0845 -0.2077
  253MOL0     C34838   5.254   3.369   7.090 -0.2744  0.7196  0.2354
  253MOL0     C34839   5.120   3.329   7.144 -0.1120 -0.4132  0.1460
  253MOL0     C34840   5.035   3.449   7.169  0.5845 -0.6871  0.4466
  253MOL0     C34841   4.971   3.550   7.196  0.5093  0.9819 -0.2912
  253MOL0     C34842   5.668   3.796   7.221 -0.2759 -0.6140  0.4299
  253MOL0     C34843   5.769   3.887   7.184  0.1820  0.1890 -0.7631
  253MOL0     C34844   5.757   4.029   7.233 -0.2174 -0.3419 -0.4892
  253MOL0     H34845   6.021   4.266   7.191 -0.6943 -1.4261 -1.1443
  253MOL0     H34846   6.215   4.430   7.204 -3.4059  1.2964 -1.5377
  253MOL0     H34847   6.461   4.546   7.213 -1.5133  1.1370 -0.6916
  253MOL0     H34848   6.356   4.560   7.080 -0.6337  0.7242  1.1767
  253MOL0     H34849   6.664   4.572   7.107  1.2908  1.7328 -0.5701
  253MOL0     H34850   6.607   4.529   6.953  2.0345 -4.2570  3.1334
  253MOL0     H34851   6.514   4.740   6.903 -1.1884  0.8620  0.3680
  253MOL0     H34852   6.518   4.789   7.072  0.7604 -1.2041  1.7164
  253MOL0     H34853   6.786   4.769   7.037  0.0997 -1.4792  0.0515
  253MOL0     H34854   6.734   4.764   6.865  2.8833  1.4533  0.6927
  253MOL0     H34855   6.677   4.997   7.056 -3.6459 -0.3377 -0.7252
  253MOL0     H34856   6.599   4.973   6.910  0.4515 -0.9543 -0.8190
  253MOL0     H34857   6.811   4.971   6.788  2.5590  1.0538 -0.3077
  253MOL0     H34858   6.798   5.119   6.895 -0.4148  0.9182 -1.9655
  253MOL0     H34859   6.954   4.867   6.942 -5.6377  0.3111 -1.9733
  253MOL0     H34860   6.957   5.011   7.052  2.1693  0.6225  0.0142
  253MOL0     H34861   7.059   5.038   6.771 -2.2842  2.5274 -0.0091
  253MOL0     H34862   7.066   5.149   6.894 -0.1322 -0.5290 -1.6578
  253MOL0     H34863   7.322   4.955   6.766  0.2570  3.0852  1.0568
  253MOL0     H34864   7.570   4.891   6.839  2.5929 -2.6871  0.7517
  253MOL0     H34865   7.557   4.796   6.985  2.5541  1.2630  1.0496
  253MOL0     H34866   7.657   5.071   6.935  2.1840 -1.2188 -0.8628
  253MOL0     H34867   7.608   5.026   7.107  0.6494 -1.2990  1.1790
  253MOL0     H34868   7.781   4.857   7.102 -0.1018 -1.3805 -0.2524
  253MOL0     H34869   7.801   4.878   6.920 -0.0457 -0.8189  1.5363
  253MOL0     H34870   7.933   5.082   6.960  0.7773  1.9170  0.8134
  253MOL0     H34871   7.836   5.120   7.090 -1.2726 -1.3752  1.3833
  253MOL0     H34872   8.116   4.859   7.315 -0.0228  0.0410  1.2436
  253MOL0     H34873   8.420   4.728   7.329 -0.7704  0.8395  0.8044
  253MOL0     H34874   8.309   4.583   7.322 -0.5332 -0.0977 -0.6166
  253MOL0     H34875   8.259   4.731   7.406  0.0968  3.5168 -1.6646
  253MOL0     H34876   8.451   4.472   6.761 -0.9589  1.9681  1.4312
  253MOL0     H34877   8.619   4.319   6.682 -1.2258  0.0985  2.1194
  253MOL0     H34878   8.818   4.156   6.706  0.0593 -2.4200 -4.2016
  253MOL0     H34879   8.783   4.253   6.566 -1.3508  1.1073  1.5835
  253MOL0     H34880   9.005   4.262   6.494 -3.1149  0.2290 -0.5030
  253MOL0     H34881   9.061   4.183   6.646 -1.0953  4.1198  1.1458
  253MOL0     H34882   8.875   4.016   6.539  0.2885  1.7919  2.6693
  253MOL0     H34883   9.053   3.977   6.495 -0.4719 -1.0338 -4.8517
  253MOL0     H34884   9.027   4.095   6.294  0.3401 -0.7953  0.9236
  253MOL0     H34885   8.850   4.104   6.330 -2.8208 -3.4234  0.2545
  253MOL0     H34886   9.023   3.850   6.303  1.1315  2.0820 -0.2014
  253MOL0     H34887   8.853   3.866   6.355  1.0467 -0.7494  0.3607
  253MOL0     H34888   8.966   3.959   6.086 -1.5378  2.2393 -1.6356
  253MOL0     H34889   8.801   3.969   6.140  0.1995 -0.9284 -0.5359
  253MOL0     H34890   8.757   3.749   6.123 -2.5415  3.4094 -3.3564
  253MOL0     H34891   8.932   3.701   6.137  4.0634  3.1848 -0.8577
  253MOL0     H34892   8.994   3.787   5.924  1.4256 -1.5450 -1.2727
  253MOL0     H34893   8.832   3.847   5.902 -0.0569 -0.4493 -1.0103
  253MOL0     H34894   8.924   4.562   6.859  0.0102  1.4113 -0.6381
  253MOL0     H34895   8.738   4.715   6.950 -0.8756 -0.0997  0.4686
  253MOL0     H34896   8.255   4.764   6.849  3.5888  2.9841 -0.3632
  253MOL0     H34897   8.048   4.889   6.890 -0.8936  1.5466  1.1442
  253MOL0     H34898   6.438   4.168   6.941 -1.4576  1.3688 -2.1126
  253MOL0     H34899   6.250   3.996   6.952 -2.4859 -1.4899  1.8122
  253MOL0     H34900   5.939   3.674   6.980  1.1612  0.1650  1.2199
  253MOL0     H34901   5.726   3.541   7.017  0.2318 -1.1463 -0.7654
  253MOL0     H34902   5.466   3.511   7.014 -3.0825  0.5922  0.1033
  253MOL0     H34903   5.550   3.421   7.146 -2.0947 -1.1994 -1.1324
  253MOL0     H34904   5.291   3.562   7.194 -2.3363 -0.5646 -1.9957
  253MOL0     H34905   5.361   3.415   7.273 -2.1318  2.3379  1.4960
  253MOL0     H34906   5.247   3.403   6.986 -1.2441  0.7018  0.2856
  253MOL0     H34907   5.301   3.271   7.084  2.0889  1.7373  1.2098
  253MOL0     H34908   5.142   3.269   7.233 -1.0799 -1.7663 -0.4865
  253MOL0     H34909   5.081   3.257   7.071 -0.9426 -0.4315  0.5988
  253MOL0     H34910   4.915   3.638   7.219 -1.1690 -0.5063  1.6545
  253MOL0     H34911   5.589   3.843   7.278 -0.7266  0.2476 -0.8714
  253MOL0     H34912   5.759   4.092   7.144  0.8926  1.5478  0.8062
  253MOL0     H34913   5.661   4.054   7.279  0.3320  4.5613 -1.4862
  253MOL0     H34914   5.830   4.066   7.306  1.0016 -2.5340 -0.4960
  254MOL0     O34915   7.313   5.916  10.074 -0.2663  0.4420  0.0135
  254MOL0     C34916   7.309   5.812  10.013 -0.2351  1.1155 -0.5471
  254MOL0     O34917   7.417   5.733   9.989  0.0353  0.6215 -0.2635
  254MOL0     C34918   7.547   5.775   9.995  0.4289  0.2834 -0.2347
  254MOL0     C34919   7.584   5.913   9.995  0.4936  0.4227  0.2563
  254MOL0     C34920   7.717   5.953  10.030  0.5603 -0.2238  0.1693
  254MOL0     C34921   7.817   5.859  10.051 -0.4029  0.2395 -0.0515
  254MOL0     O34922   7.949   5.910  10.053  0.0398 -0.2752  0.2509
  254MOL0     C34923   7.983   5.975  10.172 -0.0713  1.2541  0.0778
  254MOL0     C34924   8.074   5.877  10.245  0.0675 -0.4308 -0.1388
  254MOL0     C34925   8.110   5.914  10.386  0.5592 -0.7873 -0.1958
  254MOL0     C34926   8.250   5.870  10.428 -0.9993 -0.5382 -0.8194
  254MOL0     C34927   8.355   5.977  10.384 -0.1449  0.9099  0.2604
  254MOL0     C34928   8.492   5.926  10.429 -0.7653  0.5229 -1.1041
  254MOL0     C34929   8.610   6.017  10.414 -0.2833  0.1238 -0.3555
  254MOL0     C34930   8.722   5.972  10.509  1.2798 -0.4247 -0.1997
  254MOL0     N34931   8.834   6.067  10.510 -0.1897 -0.0663  0.9074
  254MOL0     C34932   8.825   6.200  10.530 -0.5068  0.4507  0.3227
  254MOL0     C34933   8.953   6.245  10.534  0.0455  0.0410  0.3682
  254MOL0     C34934   8.989   6.396  10.554  0.3660  0.1659  1.1129
  254MOL0     C34935   9.131   6.424  10.609 -0.0727  0.5550  0.8455
  254MOL0     C34936   9.148   6.571  10.631  0.1560 -0.0885 -0.0639
  254MOL0     C34937   9.285   6.611  10.684  0.7850 -0.2810 -0.3792
  254MOL0     O34938   9.316   6.532  10.803 -0.3164 -0.1946 -0.0208
  254MOL0     C34939   9.426   6.558  10.876 -0.8824  0.3339 -0.6652
  254MOL0     C34940   9.451   6.478  10.984 -0.5924 -0.3790 -0.7146
  254MOL0     C34941   9.560   6.497  11.069  0.8582 -1.2694  0.1711
  254MOL0     C34942   9.588   6.377  11.160  0.2309 -0.5533  0.1017
  254MOL0     C34943   9.657   6.601  11.041 -0.5223 -0.5953  0.3145
  254MOL0     C34944   9.780   6.639  11.121  0.0945  0.2096  0.6149
  254MOL0     O34945   9.857   6.747  11.072 -0.3279 -0.1016  0.0864
  254MOL0     C34946   9.979   6.786  11.136  0.5364  0.1150  0.2323
  254MOL0     C34947  10.072   6.838  11.053 -0.1325  0.5323  0.1664
  254MOL0     C34948  10.194   6.884  11.107 -0.0727  0.8868 -0.7185
  254MOL0     C34949  10.221   6.868  11.244  0.6418 -0.4255 -0.7907
  254MOL0     O34950  10.340   6.918  11.282 -0.0666  0.8725 -0.6878
  254MOL0     C34951  10.414   6.827  11.366 -0.3721 -0.3081 -0.0339
  254MOL0     C34952  10.544   6.893  11.398  0.0034 -0.1663 -0.3218
  254MOL0     C34953  10.648   6.877  11.287  0.3567 -0.3758 -0.4076
  254MOL0     C34954  10.729   7.001  11.290 -0.1524  0.0960 -0.2420
  254MOL0     C34955  10.858   6.988  11.207  0.1834 -0.2888  0.6279
  254MOL0     C34956  10.947   7.107  11.225 -0.7296 -0.5112 -0.1013
  254MOL0     C34957  11.083   7.101  11.158  0.0234  0.4797 -0.0951
  254MOL0     C34958  11.079   7.084  11.011  0.6153 -0.6781  0.1183
  254MOL0    Cl34959  10.977   7.221  10.943 -0.2493  0.0448 -0.1417
  254MOL0     C34960  10.122   6.817  11.327  0.0371  0.2063  0.0007
  254MOL0     C34961  10.009   6.776  11.275 -0.7577 -0.7242 -0.1616
  254MOL0     O34962   9.807   6.574  11.217 -0.3175 -0.0907  0.3112
  254MOL0     C34963   9.637   6.680  10.923  1.2776  0.1362 -0.1758
  254MOL0     C34964   9.518   6.657  10.842 -0.9824 -0.4101 -0.9382
  254MOL0     N34965   9.038   6.145  10.499 -0.7591 -0.1128 -0.4675
  254MOL0     N34966   8.964   6.038  10.489  0.8335  0.3934  1.0505
  254MOL0     C34967   7.789   5.723  10.047 -0.1752 -0.7887 -0.2667
  254MOL0     C34968   7.656   5.683  10.030 -0.7550  0.2671  0.1502
  254MOL0     C34969   7.183   5.762   9.970 -0.1582  0.5387 -0.4148
  254MOL0     C34970   7.178   5.633   9.917  0.2144  0.0110  0.0679
  254MOL0     C34971   7.056   5.579   9.882 -0.7760  0.2692 -0.1139
  254MOL0     C34972   6.933   5.646   9.885 -0.6083  0.5141 -0.2066
  254MOL0     O34973   6.813   5.592   9.851  0.1876 -0.0771  0.4472
  254MOL0     C34974   6.808   5.489   9.750  0.5927 -0.2191  0.2703
  254MOL0     C34975   6.699   5.381   9.788  0.8550 -0.2268  0.3049
  254MOL0     C34976   6.562   5.455   9.811 -0.0400 -0.4689  0.6373
  254MOL0     C34977   6.502   5.516   9.679 -0.5689 -0.0138 -0.0906
  254MOL0     C34978   6.422   5.425   9.598 -0.2471 -0.6847  0.4780
  254MOL0     C34979   6.349   5.341   9.550 -0.3314 -0.2698 -0.6626
  254MOL0     C34980   6.946   5.777   9.921  0.6180  0.0435 -0.1049
  254MOL0     C34981   7.062   5.840   9.976  0.0514 -0.4946  0.3265
  254MOL0     C34982   7.049   5.979  10.017 -0.7551 -0.2148 -0.3416
  254MOL0     H34983   7.524   6.002   9.981  1.7848  0.9703 -2.5114
  254MOL0     H34984   7.736   6.060  10.032  2.1765 -0.4889  1.9908
  254MOL0     H34985   7.895   5.993  10.233  0.2780  0.5120  0.8283
  254MOL0     H34986   8.028   6.070  10.142  1.1704 -0.1283 -2.9422
  254MOL0     H34987   8.030   5.777  10.249 -2.8122  0.7918  2.3477
  254MOL0     H34988   8.168   5.874  10.189  0.6189  1.1247  0.6602
  254MOL0     H34989   8.075   6.013  10.417 -4.0499 -3.1028  3.2636
  254MOL0     H34990   8.049   5.849  10.448 -0.4864 -0.6388 -1.0313
  254MOL0     H34991   8.263   5.849  10.534 -1.7192 -2.3855 -1.0723
  254MOL0     H34992   8.262   5.775  10.376 -0.7378  0.0099 -1.8024
  254MOL0     H34993   8.325   6.075  10.422  0.6353  1.1616  0.2455
  254MOL0     H34994   8.351   5.990  10.275 -2.0618  0.7813  0.2814
  254MOL0     H34995   8.493   5.903  10.536  1.8137  1.3092 -0.8893
  254MOL0     H34996   8.515   5.830  10.383  0.0935 -0.0338  0.4247
  254MOL0     H34997   8.579   6.117  10.445 -2.1050 -0.7904  0.9805
  254MOL0     H34998   8.640   6.004  10.310  0.3656 -1.7950  0.0191
  254MOL0     H34999   8.696   5.964  10.615  0.2175 -0.1988 -0.4315
  254MOL0     H35000   8.751   5.872  10.478 -1.9152 -1.9055  1.0615
  254MOL0     H35001   8.736   6.262  10.536  0.0287  1.4863 -1.7397
  254MOL0     H35002   8.912   6.434  10.622  0.2050  1.4433  0.2620
  254MOL0     H35003   8.987   6.455  10.462  1.3939 -0.5810  0.5917
  254MOL0     H35004   9.140   6.372  10.705 -3.0076  0.0949  0.9467
  254MOL0     H35005   9.212   6.386  10.546  1.0195 -0.5833  2.8389
  254MOL0     H35006   9.130   6.629  10.540 -0.5634  1.0771  0.7961
  254MOL0     H35007   9.072   6.607  10.701  0.2221  0.2503 -0.1625
  254MOL0     H35008   9.351   6.585  10.601 -0.7532 -1.4715 -1.2918
  254MOL0     H35009   9.285   6.719  10.705 -0.3794  0.0058 -1.7041
  254MOL0     H35010   9.398   6.386  11.005 -0.3881 -0.3443 -0.0271
  254MOL0     H35011   9.631   6.404  11.257  1.0182 -1.3723 -0.0009
  254MOL0     H35012   9.653   6.307  11.107  1.2034 -0.4554  1.1078
  254MOL0     H35013   9.502   6.317  11.192 -0.9968  0.7695 -0.6198
  254MOL0     H35014  10.053   6.843  10.947  1.4540 -2.9059 -0.3887
  254MOL0     H35015  10.276   6.921  11.046 -0.8585  3.5207 -0.2913
  254MOL0     H35016  10.373   6.817  11.467 -0.4241  0.9005  0.0766
  254MOL0     H35017  10.419   6.730  11.315 -0.2922 -1.3023  1.7614
  254MOL0     H35018  10.530   6.999  11.421  0.8283 -0.1088 -0.0244
  254MOL0     H35019  10.583   6.836  11.484  1.9043  0.4318 -0.7338
  254MOL0     H35020  10.599   6.879  11.189 -2.5222 -2.1674  0.8583
  254MOL0     H35021  10.713   6.789  11.300  0.6187 -0.3668 -1.5673
  254MOL0     H35022  10.752   7.043  11.388 -0.5522 -1.1463  0.4010
  254MOL0     H35023  10.675   7.085  11.243 -1.6424 -1.8339 -2.1748
  254MOL0     H35024  10.920   6.902  11.231 -0.2364 -0.3792  1.4142
  254MOL0     H35025  10.833   6.966  11.103 -0.4420 -0.6239  0.8449
  254MOL0     H35026  10.967   7.109  11.333  3.9035 -0.9695 -0.7538
  254MOL0     H35027  10.908   7.204  11.191  1.1112  0.0975 -0.5577
  254MOL0     H35028  11.138   7.017  11.201  0.9890  0.7377 -0.7942
  254MOL0     H35029  11.130   7.193  11.193  0.0008  0.5171 -0.1640
  254MOL0     H35030  11.050   6.986  10.974  1.4100 -1.6251  1.8705
  254MOL0     H35031  11.185   7.094  10.986  0.9461 -1.2293  1.2411
  254MOL0     H35032  10.137   6.794  11.432  1.0644  0.8675  0.0156
  254MOL0     H35033   9.943   6.721  11.340  0.4495 -0.8170  1.0092
  254MOL0     H35034   9.699   6.762  10.888  1.3172 -0.8172 -2.4696
  254MOL0     H35035   9.516   6.716  10.751 -0.8532 -0.6446 -1.0937
  254MOL0     H35036   7.873   5.655  10.047  0.1961 -0.3792  1.6264
  254MOL0     H35037   7.630   5.579  10.008  1.5628 -0.2771 -0.2886
  254MOL0     H35038   7.265   5.568   9.918 -0.4311 -0.8910 -0.6655
  254MOL0     H35039   7.062   5.472   9.864 -0.5448  0.3622 -0.6044
  254MOL0     H35040   6.793   5.535   9.652  2.2993  2.1674  1.0382
  254MOL0     H35041   6.899   5.430   9.738 -1.5378 -3.9148  0.6162
  254MOL0     H35042   6.731   5.318   9.872  3.5119 -0.2744 -0.6645
  254MOL0     H35043   6.689   5.313   9.703  0.5764 -0.6463  0.6673
  254MOL0     H35044   6.487   5.385   9.848  1.2904 -2.6085 -0.4750
  254MOL0     H35045   6.576   5.530   9.889  0.6002 -1.2135  1.2533
  254MOL0     H35046   6.589   5.549   9.622 -2.0429  2.0907 -1.3120
  254MOL0     H35047   6.453   5.612   9.701  0.3114  1.3809 -3.6341
  254MOL0     H35048   6.273   5.268   9.528 -1.5394 -0.0530  2.3079
  254MOL0     H35049   6.847   5.821   9.927  0.1394 -0.4857 -2.9743
  254MOL0     H35050   7.116   6.050   9.969  0.5088  0.6305  2.4897
  254MOL0     H35051   6.946   6.004   9.992 -0.3388 -0.7378 -2.8207
  254MOL0     H35052   7.085   5.994  10.119  0.3112  0.7827 -0.8526
  255MOL0     O35053   6.471   1.843   7.369 -0.4745 -0.9329 -0.3441
  255MOL0     C35054   6.387   1.922   7.342  0.2564 -1.2287  0.4734
  255MOL0     O35055   6.405   2.061   7.347  0.1930 -0.1871  0.2901
  255MOL0     C35056   6.527   2.100   7.372  0.1448 -0.4586 -0.2188
  255MOL0     C35057   6.578   2.189   7.279  1.0068 -0.3464 -0.6592
  255MOL0     C35058   6.707   2.235   7.293 -0.2967 -1.0229  0.0492
  255MOL0     C35059   6.786   2.210   7.404  0.5610 -0.0667 -0.2459
  255MOL0     O35060   6.917   2.261   7.412 -0.6080  0.0661 -0.3384
  255MOL0     C35061   6.991   2.285   7.289  0.1272 -0.1168 -1.6645
  255MOL0     C35062   7.134   2.311   7.331 -0.1333 -0.5072 -0.1364
  255MOL0     C35063   7.237   2.265   7.226 -0.1961 -0.6041 -0.7295
  255MOL0     C35064   7.369   2.348   7.232 -1.2422 -0.3912 -0.8042
  255MOL0     C35065   7.458   2.308   7.120 -0.0077 -0.1582 -0.1115
  255MOL0     C35066   7.597   2.381   7.120 -0.1030 -0.1241  0.1254
  255MOL0     C35067   7.683   2.354   7.001  0.8458 -0.4201  1.2910
  255MOL0     C35068   7.818   2.423   7.008 -0.8175  0.2309  0.0345
  255MOL0     N35069   7.900   2.394   6.894  0.3938 -0.8227 -0.2726
  255MOL0     C35070   7.863   2.345   6.765  0.5858 -0.5315 -0.1542
  255MOL0     C35071   7.983   2.331   6.702 -0.0004 -0.3558 -0.6217
  255MOL0     C35072   8.028   2.258   6.585 -0.2692 -0.7431  0.9657
  255MOL0     C35073   7.982   2.117   6.597  0.2029  1.1444 -0.7076
  255MOL0     C35074   7.964   2.047   6.454 -0.0017  0.4569 -0.6133
  255MOL0     C35075   8.092   2.005   6.383 -0.5447  0.4414  0.3982
  255MOL0     O35076   8.198   2.090   6.396 -0.4537 -0.9681  0.8476
  255MOL0     C35077   8.290   2.085   6.295  0.0841 -0.0944 -0.0458
  255MOL0     C35078   8.309   1.980   6.213  0.2608  0.7622 -0.5543
  255MOL0     C35079   8.419   1.977   6.132 -0.9519  0.0617  0.6154
  255MOL0     C35080   8.430   1.855   6.042 -0.4425  0.7621 -0.0730
  255MOL0     C35081   8.507   2.087   6.113 -0.7940 -0.7229  0.1498
  255MOL0     C35082   8.636   2.090   6.031  0.0742  0.3890 -0.4382
  255MOL0     O35083   8.676   2.223   6.006  0.6036  0.6897  0.5328
  255MOL0     C35084   8.791   2.253   5.930  0.3330  0.3179 -0.2686
  255MOL0     C35085   8.784   2.327   5.811 -0.1107 -0.4287  0.2414
  255MOL0     C35086   8.891   2.384   5.742  1.2426  0.5781  0.0403
  255MOL0     C35087   9.018   2.341   5.780  0.8505 -0.0915  0.1885
  255MOL0     O35088   9.140   2.371   5.724 -0.1972 -0.7423  0.5776
  255MOL0     C35089   9.146   2.385   5.583  0.2497  0.7790  0.0830
  255MOL0     C35090   9.285   2.421   5.542 -0.4060 -0.2340  0.8427
  255MOL0     C35091   9.317   2.418   5.389  0.3730 -0.0969  1.0676
  255MOL0     C35092   9.469   2.474   5.372 -0.0457 -0.4471 -0.0707
  255MOL0     C35093   9.544   2.397   5.262 -0.2231  0.1976  1.0319
  255MOL0     C35094   9.684   2.449   5.268 -0.0978 -0.4025 -0.8090
  255MOL0     C35095   9.774   2.384   5.165  0.9370 -0.2933 -0.5471
  255MOL0     C35096   9.881   2.482   5.117  0.5582  0.2378 -0.2299
  255MOL0    Cl35097   9.996   2.421   4.982  0.1725  0.2371  0.1919
  255MOL0     C35098   9.034   2.256   5.896  0.4989 -0.1544 -0.4637
  255MOL0     C35099   8.918   2.214   5.966  0.3616 -0.1693  0.3348
  255MOL0     O35100   8.687   1.993   5.974 -0.1889 -0.5356  0.0821
  255MOL0     C35101   8.479   2.203   6.194  0.2240 -0.1689  0.5766
  255MOL0     C35102   8.377   2.192   6.294  0.5482  0.2261 -0.2771
  255MOL0     N35103   8.080   2.383   6.786 -0.1357  0.2814 -0.3660
  255MOL0     N35104   8.033   2.422   6.896  0.0080 -0.2707  0.4688
  255MOL0     C35105   6.724   2.131   7.512 -0.1419 -0.8951 -0.0792
  255MOL0     C35106   6.590   2.080   7.489 -0.4382  0.3638 -0.2152
  255MOL0     C35107   6.255   1.875   7.295  0.5664  0.2915 -0.3830
  255MOL0     C35108   6.167   1.975   7.253  0.6797  0.4275  0.7086
  255MOL0     C35109   6.042   1.933   7.197  0.4343 -0.9706 -0.6333
  255MOL0     C35110   6.002   1.802   7.186 -0.1310 -0.1298 -0.3392
  255MOL0     O35111   5.881   1.747   7.132  0.2917 -0.4047 -0.9829
  255MOL0     C35112   5.797   1.843   7.060 -0.5529  0.1811 -0.0890
  255MOL0     C35113   5.702   1.925   7.159  0.0282  0.8513 -0.1548
  255MOL0     C35114   5.620   1.833   7.243  0.1023 -0.2849  0.5406
  255MOL0     C35115   5.518   1.913   7.329  0.2164  0.6348  0.5725
  255MOL0     C35116   5.575   2.015   7.408 -0.6752  0.0755  0.5245
  255MOL0     C35117   5.630   2.095   7.480 -0.0598 -0.5438  0.5960
  255MOL0     C35118   6.099   1.708   7.223  0.2362 -0.5772 -0.2441
  255MOL0     C35119   6.225   1.739   7.285 -0.4607  0.6728 -0.2093
  255MOL0     C35120   6.313   1.616   7.351 -0.2377 -0.6471 -0.5368
  255MOL0     H35121   6.519   2.223   7.194  2.5508  0.7610 -1.3407
  255MOL0     H35122   6.751   2.307   7.225  0.0910  0.3252  1.6758
  255MOL0     H35123   6.961   2.369   7.225  1.9999  0.1159 -2.3183
  255MOL0     H35124   6.980   2.193   7.231 -0.1511 -1.0742 -0.1304
  255MOL0     H35125   7.138   2.420   7.344 -1.2481 -0.4070 -0.5220
  255MOL0     H35126   7.169   2.269   7.425  1.3602  2.0110  0.5189
  255MOL0     H35127   7.249   2.157   7.229  1.3588 -0.4582  0.7329
  255MOL0     H35128   7.195   2.302   7.132 -0.1791 -0.1994 -0.5820
  255MOL0     H35129   7.353   2.456   7.227  1.6160  0.0611 -2.1977
  255MOL0     H35130   7.421   2.335   7.327  0.3408 -1.6487 -1.7886
  255MOL0     H35131   7.399   2.334   7.032 -1.7178  1.2773  1.3734
  255MOL0     H35132   7.462   2.200   7.133 -3.3203 -0.5106 -1.1857
  255MOL0     H35133   7.592   2.490   7.132 -0.3737 -0.2956  1.8711
  255MOL0     H35134   7.651   2.341   7.207 -1.9639 -1.8139  0.5730
  255MOL0     H35135   7.632   2.391   6.912  2.0924 -1.0970  0.2491
  255MOL0     H35136   7.701   2.246   6.993  2.1631 -0.0949 -1.3452
  255MOL0     H35137   7.812   2.532   7.020  2.8570  0.3713  2.3131
  255MOL0     H35138   7.879   2.382   7.089 -0.0045  1.0011 -0.1674
  255MOL0     H35139   7.767   2.312   6.729 -0.3796  0.0433  1.7497
  255MOL0     H35140   8.135   2.271   6.563 -0.4936 -1.2705 -0.5914
  255MOL0     H35141   7.987   2.312   6.499  2.5924  0.4961  0.2431
  255MOL0     H35142   8.060   2.070   6.657 -0.9084 -1.1588 -0.9395
  255MOL0     H35143   7.886   2.106   6.649  1.1121 -2.8142  0.4810
  255MOL0     H35144   7.896   1.963   6.469  1.2750 -0.6393 -0.7422
  255MOL0     H35145   7.913   2.114   6.384 -1.6190 -0.6427 -0.5292
  255MOL0     H35146   8.120   1.908   6.426 -4.0019 -0.2464  1.3792
  255MOL0     H35147   8.071   1.991   6.277 -0.6933 -0.4425  0.5377
  255MOL0     H35148   8.238   1.899   6.201 -1.7049  2.5389 -1.6906
  255MOL0     H35149   8.535   1.825   6.037  0.0096  2.3487 -3.6224
  255MOL0     H35150   8.407   1.878   5.937  4.9396 -0.3119 -1.8245
  255MOL0     H35151   8.371   1.767   6.069  2.4601 -2.0172 -1.9662
  255MOL0     H35152   8.688   2.359   5.772  0.5248  1.6113  0.2393
  255MOL0     H35153   8.872   2.442   5.652  0.3524  0.0759 -0.1091
  255MOL0     H35154   9.119   2.286   5.543  0.0678  0.1360  1.7105
  255MOL0     H35155   9.078   2.462   5.546 -0.8528 -0.5738 -0.8160
  255MOL0     H35156   9.296   2.524   5.577 -0.5980 -0.3784  1.3256
  255MOL0     H35157   9.345   2.338   5.580 -0.8734 -2.6914 -3.1784
  255MOL0     H35158   9.250   2.479   5.326 -0.1113 -0.1409  1.5310
  255MOL0     H35159   9.304   2.314   5.359 -1.3910  1.2490 -3.9129
  255MOL0     H35160   9.526   2.463   5.464 -0.6150 -2.3253  0.1059
  255MOL0     H35161   9.461   2.580   5.347 -1.6424 -0.8588 -1.5406
  255MOL0     H35162   9.535   2.288   5.261 -0.4918  0.1872 -1.0509
  255MOL0     H35163   9.505   2.430   5.165  1.7215 -1.5936 -0.4712
  255MOL0     H35164   9.730   2.432   5.365  1.7646 -2.4604 -1.9687
  255MOL0     H35165   9.677   2.557   5.251 -1.5070 -0.4923 -0.9620
  255MOL0     H35166   9.718   2.353   5.077  2.8533 -2.3245 -1.1449
  255MOL0     H35167   9.819   2.295   5.209  1.0727 -1.4733 -2.9145
  255MOL0     H35168   9.946   2.512   5.200  4.4244 -2.7363 -1.8582
  255MOL0     H35169   9.828   2.568   5.074  0.3608 -0.4097 -1.3320
  255MOL0     H35170   9.130   2.221   5.932 -0.0474  0.4697  1.7447
  255MOL0     H35171   8.933   2.143   6.046 -0.8001 -0.4743  0.3095
  255MOL0     H35172   8.551   2.284   6.188 -0.8351  0.6964 -0.9510
  255MOL0     H35173   8.358   2.277   6.359  1.0414 -0.9319  1.4486
  255MOL0     H35174   6.785   2.108   7.599  2.5156  2.5819 -0.8276
  255MOL0     H35175   6.538   2.020   7.563  0.7656  0.7974  1.0331
  255MOL0     H35176   6.187   2.082   7.245 -1.5612  0.8166 -0.7221
  255MOL0     H35177   5.981   2.017   7.166 -1.8040 -1.7638  1.3611
  255MOL0     H35178   5.860   1.895   6.987  1.1213 -2.1087 -0.3753
  255MOL0     H35179   5.732   1.779   7.000 -0.7316  0.5644 -0.3080
  255MOL0     H35180   5.637   1.978   7.089  0.8426  2.8795  0.5622
  255MOL0     H35181   5.761   1.988   7.226 -0.5586  3.1815 -1.7136
  255MOL0     H35182   5.573   1.756   7.181  2.8189 -1.0390 -0.7535
  255MOL0     H35183   5.694   1.780   7.304 -0.5759  0.1841  1.7990
  255MOL0     H35184   5.455   1.842   7.383 -0.9768 -0.0749 -1.6305
  255MOL0     H35185   5.444   1.956   7.261 -0.5019  0.2801  1.1023
  255MOL0     H35186   5.660   2.166   7.554  0.0097  0.5497 -0.4418
  255MOL0     H35187   6.072   1.604   7.214  0.9522 -0.6094 -2.4041
  255MOL0     H35188   6.348   1.643   7.451 -0.5385  2.3442 -1.1641
  255MOL0     H35189   6.238   1.537   7.359 -0.3253 -0.4375  1.0348
  255MOL0     H35190   6.395   1.576   7.290 -0.2405 -0.9972 -0.3137
  256MOL0     O35191   1.836   5.320   2.645 -0.3374 -0.5240  0.1687
  256MOL0     C35192   1.845   5.393   2.546  0.5560 -1.0666 -0.2041
  256MOL0     O35193   1.750   5.411   2.448  0.0121 -1.2879 -0.6692
  256MOL0     C35194   1.626   5.350   2.465 -0.5797 -0.2180  0.5584
  256MOL0     C35195   1.579   5.288   2.347  0.9437 -0.1328  0.1392
  256MOL0     C35196   1.457   5.215   2.359 -0.0037  0.4615  0.1063
  256MOL0     C35197   1.390   5.208   2.477 -0.1630  0.5163 -0.3977
  256MOL0     O35198   1.274   5.143   2.502  0.3500  0.1469  0.0531
  256MOL0     C35199   1.241   5.038   2.412  0.5111  0.5429 -1.0572
  256MOL0     C35200   1.308   4.911   2.454 -0.3728 -0.5200  0.2412
  256MOL0     C35201   1.295   4.797   2.357  0.8832 -0.0049  0.0042
  256MOL0     C35202   1.151   4.739   2.348  0.0309 -0.6166  0.0415
  256MOL0     C35203   1.137   4.630   2.239  0.2996 -0.2275 -0.1245
  256MOL0     C35204   1.233   4.512   2.261 -0.2536 -0.5242 -0.5692
  256MOL0     C35205   1.194   4.378   2.198 -0.4450  0.9161 -0.3369
  256MOL0     C35206   1.178   4.378   2.036 -0.8236 -0.5826 -0.3795
  256MOL0     N35207   1.302   4.371   1.955 -0.4279  0.3480  0.2034
  256MOL0     C35208   1.348   4.256   1.884  0.5382 -0.4523 -0.2894
  256MOL0     C35209   1.455   4.291   1.814 -0.0977 -0.8195 -1.0379
  256MOL0     C35210   1.528   4.206   1.717 -0.1636  0.2624  0.1950
  256MOL0     C35211   1.668   4.259   1.673  0.3056  0.1309 -0.9610
  256MOL0     C35212   1.768   4.234   1.794 -0.1276  0.1344 -0.1195
  256MOL0     C35213   1.905   4.295   1.756  0.1788 -0.5563 -0.3354
  256MOL0     O35214   1.976   4.212   1.670  0.0972  0.0357  0.5102
  256MOL0     C35215   2.112   4.222   1.660  0.7310 -0.1768 -0.1278
  256MOL0     C35216   2.187   4.135   1.577  0.2026  0.0823 -0.1083
  256MOL0     C35217   2.321   4.147   1.551  0.7698  0.4220  0.8499
  256MOL0     C35218   2.390   4.051   1.456  0.1467  0.2655  0.1379
  256MOL0     C35219   2.387   4.250   1.606  0.0871 -0.1650 -0.0316
  256MOL0     C35220   2.528   4.287   1.596  0.1417  0.4951  0.6072
  256MOL0     O35221   2.572   4.380   1.674 -0.3158 -0.2955 -0.1662
  256MOL0     C35222   2.702   4.430   1.652 -0.6221  0.2065  0.1317
  256MOL0     C35223   2.732   4.512   1.539  0.4068 -0.2918 -0.7057
  256MOL0     C35224   2.848   4.576   1.521 -0.4099  0.5313  0.4830
  256MOL0     C35225   2.952   4.547   1.609  0.1969  0.2995  0.2474
  256MOL0     O35226   3.069   4.613   1.594 -0.5585  0.6902 -0.1704
  256MOL0     C35227   3.113   4.671   1.720 -0.5037  0.1451  0.0376
  256MOL0     C35228   3.228   4.768   1.690  0.1843 -0.4060  0.4924
  256MOL0     C35229   3.319   4.783   1.813 -0.4317 -0.2921 -0.2156
  256MOL0     C35230   3.413   4.908   1.803 -0.2483 -0.5364 -0.0823
  256MOL0     C35231   3.543   4.879   1.727 -1.0732 -0.1552  0.8913
  256MOL0     C35232   3.634   4.996   1.748 -0.3319  0.5798 -0.6785
  256MOL0     C35233   3.773   4.945   1.708 -0.5112 -1.1077  0.4296
  256MOL0     C35234   3.875   5.055   1.708  0.3083  0.1558 -0.0450
  256MOL0    Cl35235   3.919   5.102   1.871 -0.2345  0.1423  0.5151
  256MOL0     C35236   2.940   4.444   1.702 -0.0448 -0.9403 -0.3516
  256MOL0     C35237   2.813   4.394   1.727 -1.0183 -0.0966 -0.5063
  256MOL0     O35238   2.592   4.249   1.496 -0.7257 -0.5561  0.0592
  256MOL0     C35239   2.323   4.333   1.700  0.3812 -0.1815 -0.0593
  256MOL0     C35240   2.186   4.326   1.722  0.2680  0.7198 -0.4972
  256MOL0     N35241   1.477   4.426   1.837 -0.2378 -0.0020  0.5465
  256MOL0     N35242   1.379   4.474   1.912 -1.0995 -0.0831  0.2039
  256MOL0     C35243   1.440   5.278   2.591  0.7142 -0.7086  0.0957
  256MOL0     C35244   1.554   5.341   2.586  0.0256  0.0562 -0.2965
  256MOL0     C35245   1.979   5.463   2.525  0.5095  0.7324 -0.5775
  256MOL0     C35246   2.016   5.524   2.401 -0.6853 -0.6349  0.2902
  256MOL0     C35247   2.140   5.581   2.378  0.2455  1.2436  0.0030
  256MOL0     C35248   2.234   5.581   2.476  0.1444 -0.0436  0.0161
  256MOL0     O35249   2.354   5.638   2.452 -0.4596 -0.4925  0.2839
  256MOL0     C35250   2.378   5.768   2.494 -0.0231  0.6512 -0.5317
  256MOL0     C35251   2.295   5.880   2.421 -0.2175 -0.3183 -0.0531
  256MOL0     C35252   2.359   6.015   2.395  0.5932  0.8299 -0.2807
  256MOL0     C35253   2.405   6.093   2.513  0.2058  0.7797  0.8238
  256MOL0     C35254   2.524   6.024   2.581  0.1957 -0.0609 -0.0226
  256MOL0     C35255   2.616   5.961   2.625  0.0942  0.0706 -0.3794
  256MOL0     C35256   2.206   5.517   2.596 -0.0230 -0.3175  0.4434
  256MOL0     C35257   2.087   5.457   2.623  0.5747 -0.6796  0.7184
  256MOL0     C35258   2.074   5.403   2.760  0.4472  1.1853 -0.0957
  256MOL0     H35259   1.648   5.283   2.263  0.8666  1.5132 -0.0475
  256MOL0     H35260   1.437   5.152   2.272  1.0299 -0.9049  0.8268
  256MOL0     H35261   1.253   5.059   2.305 -3.4995 -0.7995 -1.9264
  256MOL0     H35262   1.133   5.021   2.417  0.7738 -1.3121 -1.0418
  256MOL0     H35263   1.414   4.938   2.461  0.3108 -2.8408 -0.5331
  256MOL0     H35264   1.271   4.880   2.552 -0.7988  1.1252  0.6460
  256MOL0     H35265   1.318   4.821   2.253  0.6859  2.5052  0.4829
  256MOL0     H35266   1.369   4.721   2.385  2.1166  0.8973 -0.7308
  256MOL0     H35267   1.123   4.697   2.445  1.2079 -3.0702 -0.5894
  256MOL0     H35268   1.085   4.818   2.311 -0.2939 -1.8300 -2.1725
  256MOL0     H35269   1.142   4.678   2.140 -1.5559  0.6608  0.1741
  256MOL0     H35270   1.037   4.589   2.255  0.5452  0.0064  2.2651
  256MOL0     H35271   1.331   4.545   2.224 -0.4882  0.3317 -0.4585
  256MOL0     H35272   1.245   4.497   2.369 -1.1827 -2.4190 -0.6937
  256MOL0     H35273   1.100   4.344   2.244  0.2330 -3.1382 -1.5563
  256MOL0     H35274   1.272   4.305   2.223 -0.6134  1.2604  1.3094
  256MOL0     H35275   1.129   4.284   2.007  0.4136 -1.5768  0.5920
  256MOL0     H35276   1.125   4.467   2.002  1.3082  0.5736 -0.8028
  256MOL0     H35277   1.298   4.160   1.881 -0.0363 -0.1784  0.2460
  256MOL0     H35278   1.460   4.195   1.631 -1.6707  2.6449  0.9760
  256MOL0     H35279   1.543   4.108   1.762  5.7838 -1.4772 -4.2383
  256MOL0     H35280   1.714   4.211   1.587  2.3874  1.7460 -0.8097
  256MOL0     H35281   1.669   4.362   1.638  0.1925  0.2982 -0.4743
  256MOL0     H35282   1.719   4.287   1.877 -3.1182 -0.8708 -1.0980
  256MOL0     H35283   1.776   4.130   1.825 -1.6057  0.2014  0.5802
  256MOL0     H35284   1.886   4.394   1.715 -0.9804 -0.2579  0.8424
  256MOL0     H35285   1.959   4.310   1.850 -0.3674 -0.3004 -0.0595
  256MOL0     H35286   2.133   4.048   1.542 -2.1300  0.0847  3.0567
  256MOL0     H35287   2.431   4.111   1.374 -0.9185 -0.0830 -0.6726
  256MOL0     H35288   2.326   3.974   1.413 -0.2404  0.6442  0.0244
  256MOL0     H35289   2.479   4.012   1.506  0.3525 -0.7133 -0.9555
  256MOL0     H35290   2.654   4.554   1.477  0.9924  1.0379 -0.5788
  256MOL0     H35291   2.852   4.652   1.444 -1.3987 -0.8818 -1.0390
  256MOL0     H35292   3.026   4.719   1.765 -1.9034 -3.0400  0.9772
  256MOL0     H35293   3.139   4.601   1.800  0.1462  1.9542  1.5038
  256MOL0     H35294   3.294   4.734   1.609 -0.5765  0.0426 -0.3245
  256MOL0     H35295   3.183   4.864   1.666 -2.7759 -1.5105  1.1374
  256MOL0     H35296   3.375   4.693   1.837  1.6701  1.1652  0.6010
  256MOL0     H35297   3.258   4.798   1.902  3.2199  2.6818  2.0797
  256MOL0     H35298   3.440   4.933   1.906 -1.3470  0.9561 -0.1268
  256MOL0     H35299   3.355   4.990   1.760 -0.5646 -0.6615  0.1085
  256MOL0     H35300   3.601   4.794   1.764  2.7863  1.4415 -0.9558
  256MOL0     H35301   3.517   4.846   1.626 -3.9630  2.0951  0.7439
  256MOL0     H35302   3.635   5.025   1.853 -0.6254 -0.1353 -0.4765
  256MOL0     H35303   3.609   5.089   1.694 -0.1578  1.2546  0.3825
  256MOL0     H35304   3.768   4.904   1.606 -2.0939 -2.7497  1.1023
  256MOL0     H35305   3.799   4.856   1.765 -1.9991 -1.6974  0.2482
  256MOL0     H35306   3.833   5.140   1.652  1.5723  0.2897 -0.8312
  256MOL0     H35307   3.969   5.026   1.659  0.4484  0.3978  0.0763
  256MOL0     H35308   3.023   4.413   1.763 -1.1039 -2.3230  0.4506
  256MOL0     H35309   2.822   4.319   1.805 -0.7787 -1.4657 -1.8039
  256MOL0     H35310   2.370   4.418   1.749  0.4532 -0.3020  0.0822
  256MOL0     H35311   2.149   4.401   1.792  0.8304  2.2207 -1.7605
  256MOL0     H35312   1.385   5.291   2.684  0.5589  1.2504 -0.2164
  256MOL0     H35313   1.591   5.400   2.669 -3.1929 -2.1832  3.0140
  256MOL0     H35314   1.944   5.516   2.320 -1.7532  0.1935  1.1169
  256MOL0     H35315   2.152   5.610   2.275  1.1112 -0.0059 -0.2754
  256MOL0     H35316   2.355   5.770   2.601 -2.2614 -4.1286 -0.6861
  256MOL0     H35317   2.484   5.791   2.479  0.9871 -2.3244  1.1984
  256MOL0     H35318   2.211   5.896   2.488  0.4293 -1.4359  1.0670
  256MOL0     H35319   2.255   5.856   2.322 -0.4784  2.6944 -0.7929
  256MOL0     H35320   2.442   5.991   2.328  0.7146 -0.1281  0.1924
  256MOL0     H35321   2.294   6.077   2.333  0.9425  1.0254 -0.4565
  256MOL0     H35322   2.317   6.097   2.578 -1.4267  1.3237 -1.3013
  256MOL0     H35323   2.433   6.196   2.490  1.8341  0.4646  1.2638
  256MOL0     H35324   2.703   5.909   2.660 -1.0330  0.4251  3.3087
  256MOL0     H35325   2.285   5.507   2.669  0.7063 -1.2711 -0.4439
  256MOL0     H35326   2.165   5.400   2.821 -0.0036  0.0887  0.5554
  256MOL0     H35327   2.001   5.454   2.824  0.8732  0.0464  1.3494
  256MOL0     H35328   2.047   5.299   2.743 -0.2438  1.3883 -0.2935
  257MOL0     O35329  10.205   4.741   3.361 -0.3154 -0.0584  0.7194
  257MOL0     C35330  10.160   4.713   3.251  1.0415  0.0053 -0.6305
  257MOL0     O35331  10.228   4.714   3.135  0.4036  0.0541 -0.2774
  257MOL0     C35332  10.353   4.777   3.144 -0.0429 -0.0625  0.8411
  257MOL0     C35333  10.461   4.712   3.075  0.2237 -0.7633 -0.4205
  257MOL0     C35334  10.585   4.773   3.070 -0.0468 -0.0368 -0.2783
  257MOL0     C35335  10.613   4.900   3.127  1.0831  0.0701 -0.3692
  257MOL0     O35336  10.746   4.946   3.104 -0.0949 -0.0293 -0.0412
  257MOL0     C35337  10.794   5.026   3.215  0.0676 -0.2633 -0.1998
  257MOL0     C35338  10.939   5.060   3.224 -0.4358  0.5613 -0.6576
  257MOL0     C35339  10.991   5.161   3.125  0.3143 -0.5444  0.9545
  257MOL0     C35340  11.140   5.167   3.157 -0.4449 -0.3647  0.2251
  257MOL0     C35341  11.208   5.295   3.097  0.4716 -0.8324  0.3784
  257MOL0     C35342  11.352   5.311   3.126  0.0316  0.0389 -0.0874
  257MOL0     C35343  11.434   5.183   3.103 -0.1935  0.4354  0.4783
  257MOL0     C35344  11.449   5.147   2.962 -0.0008 -0.2839  0.0476
  257MOL0     N35345  11.542   5.240   2.894  0.9419 -0.0947  0.0871
  257MOL0     C35346  11.510   5.313   2.791  0.2733  0.7058 -0.1256
  257MOL0     C35347  11.621   5.383   2.763 -0.3331  0.1470 -0.3616
  257MOL0     C35348  11.633   5.477   2.647 -0.3182  0.1701  0.0987
  257MOL0     C35349  11.508   5.569   2.634 -1.1265  0.6993 -0.3792
  257MOL0     C35350  11.530   5.683   2.534  0.4939  0.1345 -0.2463
  257MOL0     C35351  11.433   5.803   2.525 -0.9442 -1.0137  0.2138
  257MOL0     O35352  11.305   5.776   2.484  0.4862  0.1449 -0.3562
  257MOL0     C35353  11.218   5.874   2.459 -0.1149 -0.4412 -0.5036
  257MOL0     C35354  11.244   6.013   2.463  0.4296 -0.5719 -0.0646
  257MOL0     C35355  11.130   6.100   2.447  0.2782  0.6495 -0.0825
  257MOL0     C35356  11.164   6.249   2.465  0.0892 -0.1341 -0.4044
  257MOL0     C35357  11.002   6.056   2.405  0.4698  0.0380 -0.9381
  257MOL0     C35358  10.883   6.135   2.378  0.1224 -0.0458  0.8468
  257MOL0     O35359  10.765   6.086   2.418 -0.0221 -0.0056  0.4715
  257MOL0     C35360  10.642   6.109   2.363  0.1914  0.6237  0.0801
  257MOL0     C35361  10.613   6.161   2.237  0.3019 -0.3647 -0.1848
  257MOL0     C35362  10.490   6.219   2.207 -0.4020  0.3764  0.5677
  257MOL0     C35363  10.380   6.194   2.300  0.4344 -0.8132  0.1697
  257MOL0     O35364  10.257   6.252   2.282  0.2221  0.2448 -0.7389
  257MOL0     C35365  10.237   6.331   2.156  0.1911  0.5621 -0.4518
  257MOL0     C35366  10.174   6.255   2.029 -1.1663 -1.1889  0.3002
  257MOL0     C35367  10.044   6.181   2.067  0.9405 -0.7801 -0.1919
  257MOL0     C35368   9.989   6.085   1.966 -0.0039 -0.9753 -0.2880
  257MOL0     C35369   9.878   5.998   2.017 -0.0046 -0.2487 -0.8164
  257MOL0     C35370   9.771   5.973   1.912  0.9307  0.7222 -0.1256
  257MOL0     C35371   9.820   5.874   1.796 -0.0153 -0.4854 -0.1618
  257MOL0     C35372   9.742   5.881   1.663  0.0488 -0.0459  0.8188
  257MOL0    Cl35373   9.570   5.849   1.686  0.2912  0.0348 -0.2721
  257MOL0     C35374  10.399   6.123   2.417 -0.6539  0.1393 -0.1747
  257MOL0     C35375  10.535   6.085   2.449 -0.7529  0.2327  0.7680
  257MOL0     O35376  10.893   6.234   2.313 -0.0208 -0.3275 -0.0873
  257MOL0     C35377  10.984   5.924   2.402 -0.1670  0.8628  0.3064
  257MOL0     C35378  11.091   5.834   2.425 -0.1007  0.2246  0.1199
  257MOL0     N35379  11.729   5.337   2.844  0.4253 -0.6611  0.9402
  257MOL0     N35380  11.666   5.267   2.930 -0.6369 -0.5368  0.0104
  257MOL0     C35381  10.512   4.963   3.187 -0.1265 -0.1761 -0.0548
  257MOL0     C35382  10.381   4.913   3.193 -0.7549 -0.2414  1.0731
  257MOL0     C35383  10.018   4.678   3.241  0.8104  0.8539 -0.2452
  257MOL0     C35384   9.969   4.604   3.125 -0.4026 -0.0449 -0.2326
  257MOL0     C35385   9.836   4.559   3.103 -0.3119  0.6459  0.3249
  257MOL0     C35386   9.748   4.600   3.194 -0.2310 -0.3411 -0.9288
  257MOL0     O35387   9.616   4.560   3.171 -0.5310 -0.2086 -0.1006
  257MOL0     C35388   9.506   4.592   3.259 -0.5568 -0.6676 -0.7175
  257MOL0     C35389   9.452   4.742   3.231 -0.0711  0.8942  0.0278
  257MOL0     C35390   9.302   4.761   3.274 -0.3728 -0.0602  0.7880
  257MOL0     C35391   9.262   4.690   3.409  0.4528 -0.1618  0.3319
  257MOL0     C35392   9.327   4.742   3.532  0.4052  0.1466  0.6390
  257MOL0     C35393   9.345   4.804   3.629 -0.2637 -0.8792 -0.5498
  257MOL0     C35394   9.785   4.675   3.308 -0.6487 -0.4969 -0.1296
  257MOL0     C35395   9.916   4.717   3.336 -0.1678  0.6238 -0.6065
  257MOL0     C35396   9.943   4.815   3.447  0.5328  0.4376 -0.3146
  257MOL0     H35397  10.446   4.612   3.035  1.6105 -1.9615  1.8281
  257MOL0     H35398  10.666   4.727   3.014 -0.1443  2.5259 -2.6841
  257MOL0     H35399  10.782   4.963   3.304  1.6028 -2.0284 -1.1761
  257MOL0     H35400  10.732   5.117   3.220  2.9777  1.8109  0.7541
  257MOL0     H35401  10.963   5.084   3.328 -0.9281  3.8139 -1.2173
  257MOL0     H35402  10.999   4.971   3.201  2.2567  1.5901  1.8171
  257MOL0     H35403  10.965   5.122   3.027  0.5513  3.0245 -0.6722
  257MOL0     H35404  10.941   5.256   3.146  1.9060  0.7926 -0.9729
  257MOL0     H35405  11.154   5.168   3.266 -1.0061  0.6959  0.2966
  257MOL0     H35406  11.176   5.072   3.116 -1.2707  0.2308 -2.0236
  257MOL0     H35407  11.168   5.391   3.131  1.2223  0.4295 -2.0589
  257MOL0     H35408  11.189   5.289   2.990 -2.4959 -1.8581  0.8778
  257MOL0     H35409  11.394   5.384   3.056  0.7995 -0.9643 -0.7027
  257MOL0     H35410  11.364   5.354   3.226 -2.9924 -0.4854  0.5936
  257MOL0     H35411  11.391   5.105   3.166 -3.5535 -1.3442 -3.5339
  257MOL0     H35412  11.534   5.207   3.140  0.5217 -1.4216 -0.1181
  257MOL0     H35413  11.502   5.051   2.958 -1.1949 -0.9607 -0.3671
  257MOL0     H35414  11.351   5.147   2.912 -0.4276  1.3352  0.8490
  257MOL0     H35415  11.416   5.308   2.736 -0.3902  3.2988  0.6615
  257MOL0     H35416  11.673   5.432   2.556  0.4760  0.8013  0.1283
  257MOL0     H35417  11.719   5.539   2.672  1.3625 -1.2706 -1.7271
  257MOL0     H35418  11.421   5.507   2.607 -2.2195  2.6632 -1.5611
  257MOL0     H35419  11.478   5.619   2.726 -2.5513 -0.9870  0.1511
  257MOL0     H35420  11.632   5.716   2.555  2.9753 -3.7336 -4.3812
  257MOL0     H35421  11.538   5.641   2.433  1.8117 -2.7294  0.9358
  257MOL0     H35422  11.417   5.858   2.618 -1.0283 -1.1166  0.2604
  257MOL0     H35423  11.482   5.875   2.459 -1.3009  0.6674  1.7203
  257MOL0     H35424  11.341   6.056   2.485  0.3996 -0.4809 -0.1090
  257MOL0     H35425  11.264   6.259   2.507  0.3245  0.8989 -1.1870
  257MOL0     H35426  11.092   6.296   2.534 -0.7065 -1.1134 -0.5397
  257MOL0     H35427  11.167   6.295   2.366  3.5743  0.5197 -0.0970
  257MOL0     H35428  10.689   6.181   2.162 -0.3576  0.3973 -0.6778
  257MOL0     H35429  10.487   6.272   2.113 -1.3523  1.5061  1.2159
  257MOL0     H35430  10.175   6.413   2.194  0.0761  0.0736  0.4264
  257MOL0     H35431  10.326   6.390   2.131 -1.6299  2.6999 -2.3677
  257MOL0     H35432  10.145   6.312   1.940  1.1520 -1.3747 -0.6580
  257MOL0     H35433  10.243   6.179   1.991 -0.7715 -1.3099  1.2311
  257MOL0     H35434   9.966   6.256   2.081  0.7146 -0.7317 -1.5460
  257MOL0     H35435  10.061   6.123   2.158 -0.1558 -3.4870 -1.5951
  257MOL0     H35436  10.068   6.022   1.923  1.2215  0.2717  0.0499
  257MOL0     H35437   9.949   6.145   1.884 -1.8476 -1.6249  0.0967
  257MOL0     H35438   9.913   5.903   2.059 -1.8375 -1.0591 -1.0297
  257MOL0     H35439   9.825   6.058   2.092 -0.5117 -0.4734 -0.9938
  257MOL0     H35440   9.745   6.072   1.873 -2.5599 -1.1217 -3.0949
  257MOL0     H35441   9.682   5.933   1.960  2.2845 -0.1190  1.7883
  257MOL0     H35442   9.819   5.773   1.837 -0.8117  0.0183  1.1328
  257MOL0     H35443   9.925   5.898   1.775  0.0930  0.9659  1.7092
  257MOL0     H35444   9.772   5.804   1.591 -1.5983 -2.0862  2.2070
  257MOL0     H35445   9.753   5.983   1.623  2.5460 -0.1658  1.0194
  257MOL0     H35446  10.313   6.111   2.482 -0.7006  0.5516 -0.1594
  257MOL0     H35447  10.559   6.040   2.544  1.3914  1.7483  0.9986
  257MOL0     H35448  10.887   5.884   2.373 -0.8180  2.4378  0.2317
  257MOL0     H35449  11.072   5.728   2.410 -1.8952  0.3484  1.1922
  257MOL0     H35450  10.525   5.064   3.225  0.3000  0.0468 -0.7902
  257MOL0     H35451  10.302   4.968   3.244  1.8817  3.1097  1.8777
  257MOL0     H35452  10.045   4.549   3.069  0.5236 -0.6915  1.5893
  257MOL0     H35453   9.811   4.478   3.035 -0.9171  2.0768 -1.2164
  257MOL0     H35454   9.425   4.523   3.235 -2.1423  0.0569  2.0708
  257MOL0     H35455   9.528   4.574   3.365 -1.4710  0.9870 -0.2028
  257MOL0     H35456   9.441   4.756   3.123  1.7548  0.0205 -0.3223
  257MOL0     H35457   9.510   4.819   3.283 -0.3467  0.2502  1.3231
  257MOL0     H35458   9.285   4.868   3.294  2.6705  0.4637  0.9648
  257MOL0     H35459   9.236   4.720   3.198 -0.5018  0.6259  0.5209
  257MOL0     H35460   9.276   4.582   3.401 -0.6581 -0.2771 -0.2268
  257MOL0     H35461   9.155   4.709   3.423  0.3380 -2.1187  2.8994
  257MOL0     H35462   9.358   4.868   3.714 -2.4164  0.0619 -0.8647
  257MOL0     H35463   9.708   4.729   3.363 -1.6123 -1.1922 -0.7493
  257MOL0     H35464   9.853   4.862   3.488  0.9343 -1.2069  2.6634
  257MOL0     H35465   9.988   4.779   3.540  1.7645 -0.2359 -1.1377
  257MOL0     H35466  10.014   4.884   3.400  1.3770  0.4440  0.9371
  258MOL0     O35467   0.913   1.765  10.982 -0.4248  0.0044  0.0406
  258MOL0     C35468   0.913   1.884  10.961  0.8381 -0.3432  1.1744
  258MOL0     O35469   0.976   1.985  11.025  0.7619  0.2548  0.3856
  258MOL0     C35470   1.089   1.961  11.104  0.6461  0.0203  0.6968
  258MOL0     C35471   1.138   2.064  11.183 -0.8881 -0.2416 -0.3316
  258MOL0     C35472   1.249   2.030  11.270 -0.1749 -1.1497 -0.0286
  258MOL0     C35473   1.325   1.911  11.257  0.3749 -0.5005 -0.0723
  258MOL0     O35474   1.427   1.894  11.349  0.0336  0.3578 -0.1259
  258MOL0     C35475   1.534   1.796  11.330  0.0891  0.1186  0.2685
  258MOL0     C35476   1.662   1.860  11.375  0.1126 -0.0071 -0.4309
  258MOL0     C35477   1.711   1.978  11.279  0.6263  0.3085 -0.6214
  258MOL0     C35478   1.860   1.988  11.278 -0.2607 -0.4903  0.1482
  258MOL0     C35479   1.921   2.083  11.185  0.2661 -0.5975 -0.2613
  258MOL0     C35480   1.863   2.233  11.209 -0.1830 -0.4831 -0.0637
  258MOL0     C35481   1.967   2.335  11.164  0.2308  0.3611  0.1812
  258MOL0     C35482   2.079   2.330  11.267  0.2801 -0.1239  0.1103
  258MOL0     N35483   2.209   2.354  11.205 -0.6524  0.4671 -0.3457
  258MOL0     C35484   2.232   2.447  11.106 -1.1290 -0.6903  0.7441
  258MOL0     C35485   2.365   2.447  11.097  0.6756 -0.9036  0.0901
  258MOL0     C35486   2.434   2.524  10.989 -0.2760 -0.4599  0.7014
  258MOL0     C35487   2.570   2.478  10.940 -0.7839 -0.3659  0.5703
  258MOL0     C35488   2.638   2.569  10.830  0.2418 -0.7378 -0.0532
  258MOL0     C35489   2.757   2.512  10.755  0.1612  0.5749  0.5597
  258MOL0     O35490   2.820   2.635  10.691 -0.0443  0.1018 -0.0172
  258MOL0     C35491   2.945   2.631  10.642 -0.2784 -0.3746  0.5599
  258MOL0     C35492   3.042   2.536  10.675  1.3410  0.0656 -0.5327
  258MOL0     C35493   3.167   2.542  10.617 -0.7096  0.2338 -0.4517
  258MOL0     C35494   3.259   2.432  10.671 -0.5133 -0.1287 -0.2202
  258MOL0     C35495   3.213   2.644  10.543  0.2053 -0.3900  0.1040
  258MOL0     C35496   3.352   2.660  10.501 -0.6114  0.6155 -0.5113
  258MOL0     O35497   3.377   2.727  10.385 -0.0089 -0.3747  0.7891
  258MOL0     C35498   3.505   2.761  10.352  0.1829 -0.3433 -0.5733
  258MOL0     C35499   3.528   2.745  10.211  0.2620 -0.3523 -0.7279
  258MOL0     C35500   3.653   2.776  10.160 -0.5496 -0.3627 -0.5393
  258MOL0     C35501   3.757   2.825  10.239  0.8129  0.1221  0.7969
  258MOL0     O35502   3.876   2.858  10.173  0.3075 -0.2307 -0.4202
  258MOL0     C35503   4.010   2.823  10.213  0.3411  1.0008 -0.2158
  258MOL0     C35504   4.095   2.881  10.092 -0.5514  0.3042  0.6379
  258MOL0     C35505   4.119   3.033  10.116  0.0385 -0.1233 -0.2801
  258MOL0     C35506   4.200   3.069  10.240  0.4773 -0.2179  0.2598
  258MOL0     C35507   4.224   3.224  10.244 -0.0327 -0.7045 -0.6763
  258MOL0     C35508   4.359   3.247  10.313  0.4628  0.5700 -0.8599
  258MOL0     C35509   4.398   3.393  10.304  0.6493  0.0400 -0.4371
  258MOL0     C35510   4.322   3.488  10.391  0.0897 -0.0997  1.0179
  258MOL0    Cl35511   4.170   3.545  10.316  0.2104 -0.5196 -0.4342
  258MOL0     C35512   3.734   2.838  10.375 -0.4489 -0.4377 -0.2154
  258MOL0     C35513   3.610   2.804  10.436 -0.1173  0.0427 -0.2458
  258MOL0     O35514   3.444   2.613  10.576  0.3807 -0.1543 -0.0971
  258MOL0     C35515   3.115   2.744  10.504  0.5882 -0.1968  0.0945
  258MOL0     C35516   2.985   2.737  10.565 -0.2339 -0.1230 -0.6100
  258MOL0     N35517   2.418   2.352  11.184 -0.2925  0.0494  0.3078
  258MOL0     N35518   2.325   2.295  11.240  0.4396 -0.6301  0.5185
  258MOL0     C35519   1.275   1.810  11.176 -0.4638 -0.4160 -0.6504
  258MOL0     C35520   1.161   1.834  11.105 -0.1992 -0.0597  0.3806
  258MOL0     C35521   0.813   1.922  10.860  0.7183  0.0547 -0.4699
  258MOL0     C35522   0.701   1.841  10.840 -0.1314 -0.5860  0.4430
  258MOL0     C35523   0.608   1.881  10.752 -0.4829  0.5219  1.0874
  258MOL0     C35524   0.609   2.000  10.690 -1.1474 -0.3559 -0.2284
  258MOL0     O35525   0.513   2.053  10.613 -0.3059  0.7379  0.7474
  258MOL0     C35526   0.376   2.067  10.649 -0.2417 -0.1720 -0.0342
  258MOL0     C35527   0.323   2.213  10.626  0.4104  0.7590 -0.0037
  258MOL0     C35528   0.173   2.224  10.675  0.1084 -0.0186 -0.4452
  258MOL0     C35529   0.106   2.347  10.618 -0.0490  0.1287 -0.5093
  258MOL0     C35530   0.077   2.337  10.472 -0.3023  0.1066 -1.1461
  258MOL0     C35531   0.039   2.356  10.358  0.2410 -0.1809 -0.1896
  258MOL0     C35532   0.715   2.087  10.713 -0.3352 -0.2111 -0.9574
  258MOL0     C35533   0.825   2.045  10.785 -0.1230 -0.4755  0.1593
  258MOL0     C35534   0.947   2.131  10.787  0.1509 -0.1662  0.3139
  258MOL0     H35535   1.085   2.159  11.178 -1.2131 -0.4621 -1.3304
  258MOL0     H35536   1.274   2.111  11.338 -4.2112  0.8582 -0.6184
  258MOL0     H35537   1.540   1.764  11.225  0.1885 -0.9219  0.5881
  258MOL0     H35538   1.520   1.710  11.395 -1.1620 -0.0752 -0.2213
  258MOL0     H35539   1.643   1.886  11.480 -0.1028 -3.1703  0.4117
  258MOL0     H35540   1.739   1.783  11.360 -0.7413 -0.9574 -0.0193
  258MOL0     H35541   1.674   1.970  11.176  0.7986  1.6158 -0.7925
  258MOL0     H35542   1.662   2.064  11.324 -0.4717 -0.4730 -0.2744
  258MOL0     H35543   1.875   2.021  11.381  0.8608 -1.0040  0.1629
  258MOL0     H35544   1.904   1.889  11.262  0.2484 -0.1083 -0.8948
  258MOL0     H35545   1.883   2.062  11.084  0.7125 -0.4902 -0.4501
  258MOL0     H35546   2.029   2.073  11.183  0.5113  1.5913 -2.0786
  258MOL0     H35547   1.771   2.235  11.149 -0.8635  0.5586  0.9801
  258MOL0     H35548   1.840   2.239  11.316  1.1386 -2.2980  0.3608
  258MOL0     H35549   1.930   2.437  11.150  1.1671  0.7710  0.5661
  258MOL0     H35550   1.998   2.301  11.064  1.9976  1.4126  0.3295
  258MOL0     H35551   2.060   2.403  11.347 -1.0609 -0.5131  0.1763
  258MOL0     H35552   2.093   2.232  11.314  0.3712  0.4150  1.2450
  258MOL0     H35553   2.163   2.494  11.036  0.7082 -0.9982 -1.4121
  258MOL0     H35554   2.452   2.622  11.034 -0.4451  0.4503 -1.1574
  258MOL0     H35555   2.370   2.534  10.901  0.1546 -0.0312  0.4312
  258MOL0     H35556   2.635   2.476  11.029 -0.4974  1.8676  0.4719
  258MOL0     H35557   2.557   2.377  10.902  2.1176  0.0080 -1.7429
  258MOL0     H35558   2.553   2.580  10.763 -4.3592 -0.8172  5.0728
  258MOL0     H35559   2.664   2.666  10.875 -0.6987 -0.7777  0.5970
  258MOL0     H35560   2.825   2.467  10.828  1.1942  3.2382  1.3634
  258MOL0     H35561   2.730   2.434  10.683 -0.1740  1.8333 -0.7343
  258MOL0     H35562   3.023   2.459  10.748  0.1186  1.3255  0.5485
  258MOL0     H35563   3.319   2.471  10.754  1.3217 -1.8282 -0.6529
  258MOL0     H35564   3.333   2.393  10.601  2.1352  2.0494  1.1834
  258MOL0     H35565   3.204   2.340  10.695  1.5434 -1.1823  0.7068
  258MOL0     H35566   3.441   2.726  10.149  1.7074 -2.2076 -2.2820
  258MOL0     H35567   3.656   2.774  10.052  0.4723 -3.0261 -0.5282
  258MOL0     H35568   4.040   2.859  10.312  0.6363  0.8439 -0.2484
  258MOL0     H35569   4.015   2.714  10.224  0.4109  0.6782 -2.8044
  258MOL0     H35570   4.189   2.826  10.080  0.1148  1.0977  1.9853
  258MOL0     H35571   4.042   2.871   9.997 -0.6942 -0.9479  0.8216
  258MOL0     H35572   4.022   3.081  10.127 -0.3328 -0.7885 -0.6425
  258MOL0     H35573   4.169   3.063  10.023 -0.1280 -1.3125 -0.7662
  258MOL0     H35574   4.292   3.010  10.247  0.1152 -0.8545 -0.3015
  258MOL0     H35575   4.150   3.025  10.326  2.0923 -1.4187  0.6187
  258MOL0     H35576   4.237   3.255  10.140  1.0363 -1.7364 -0.8703
  258MOL0     H35577   4.148   3.283  10.297 -0.0378  0.2278 -1.6914
  258MOL0     H35578   4.447   3.188  10.284 -0.4731 -2.0832  1.2543
  258MOL0     H35579   4.340   3.221  10.418  1.8394  1.0851 -0.4639
  258MOL0     H35580   4.395   3.427  10.200  2.8190 -0.4438 -0.7010
  258MOL0     H35581   4.505   3.400  10.324  0.3603  1.4340  0.8130
  258MOL0     H35582   4.386   3.575  10.409 -1.4401  1.5577 -1.0084
  258MOL0     H35583   4.301   3.447  10.490  1.4786  1.2924  1.9308
  258MOL0     H35584   3.822   2.865  10.433  1.3059 -2.9554 -1.5477
  258MOL0     H35585   3.585   2.820  10.541  1.2116  1.5182 -0.1102
  258MOL0     H35586   3.142   2.825  10.437  1.1828 -1.0886 -0.7830
  258MOL0     H35587   2.913   2.818  10.560 -0.4024 -0.0728  1.6175
  258MOL0     H35588   1.326   1.716  11.156 -0.4069 -0.0733 -2.2240
  258MOL0     H35589   1.125   1.750  11.046 -3.2115 -0.1790  2.1413
  258MOL0     H35590   0.679   1.744  10.882  1.8543 -1.7697 -1.0694
  258MOL0     H35591   0.524   1.818  10.724  0.4301  1.1340 -3.8560
  258MOL0     H35592   0.314   1.999  10.589 -0.5270  1.1170 -1.2645
  258MOL0     H35593   0.365   2.039  10.754 -4.9203  0.9104  0.0109
  258MOL0     H35594   0.325   2.234  10.519  3.5685 -0.6706 -0.3500
  258MOL0     H35595   0.382   2.280  10.690 -0.2131 -0.0216  1.4489
  258MOL0     H35596   0.132   2.125  10.653  0.8792 -0.1258 -1.5132
  258MOL0     H35597   0.180   2.228  10.784  0.1280  1.5691 -0.4767
  258MOL0     H35598   0.171   2.432  10.639  1.1989 -0.1126 -2.9639
  258MOL0     H35599   0.014   2.366  10.674  0.4067  1.9069 -0.3286
  258MOL0     H35600   0.005   2.365  10.257 -0.6704 -1.1996  0.0033
  258MOL0     H35601   0.705   2.184  10.667  0.6340 -0.6477 -2.1580
  258MOL0     H35602   1.035   2.066  10.796  1.8030  1.8917 -0.1901
  258MOL0     H35603   0.968   2.170  10.687  2.5918  0.4867  0.9991
  258MOL0     H35604   0.939   2.217  10.854 -0.0234  0.2886 -0.2863
  259MOL0     O35605   2.111   6.068   0.724 -0.5687 -0.4206 -0.1263
  259MOL0     C35606   2.072   6.155   0.805  0.0649 -0.3966  0.1549
  259MOL0     O35607   2.129   6.192   0.921  0.4494  0.6902 -0.0047
  259MOL0     C35608   2.249   6.135   0.945  0.7509  0.0901 -1.1602
  259MOL0     C35609   2.261   5.995   0.984  0.0160 -0.2616 -0.2562
  259MOL0     C35610   2.386   5.936   0.999  0.7634 -0.3928  0.4214
  259MOL0     C35611   2.499   6.001   0.982 -0.4177 -0.1004  0.1454
  259MOL0     O35612   2.621   5.938   0.991  0.3159  0.4820 -0.4905
  259MOL0     C35613   2.719   5.968   0.896 -0.0571  0.4471  0.5297
  259MOL0     C35614   2.790   5.835   0.864  0.0044  0.3848 -0.2059
  259MOL0     C35615   2.889   5.873   0.750 -0.7645  0.3582  0.3535
  259MOL0     C35616   2.985   5.754   0.725  0.2475 -0.0250 -0.2461
  259MOL0     C35617   3.129   5.773   0.794 -0.1289 -0.4091 -0.3664
  259MOL0     C35618   3.128   5.805   0.943  0.1921 -0.0098  0.0402
  259MOL0     C35619   3.268   5.818   1.010 -0.0805 -0.2551  0.4696
  259MOL0     C35620   3.356   5.930   0.947  0.5688  0.3018 -0.0447
  259MOL0     N35621   3.471   5.969   1.033 -1.0166  0.9527 -0.4059
  259MOL0     C35622   3.545   5.885   1.113 -0.2234 -0.3178 -0.1567
  259MOL0     C35623   3.608   5.965   1.206 -0.6335 -0.6498  0.0703
  259MOL0     C35624   3.695   5.915   1.315 -0.1775 -0.3476  0.1548
  259MOL0     C35625   3.723   6.017   1.419  0.3333 -0.1723 -0.2102
  259MOL0     C35626   3.797   5.972   1.550 -0.4838  0.5957 -0.6281
  259MOL0     C35627   3.915   5.884   1.543 -0.7195  0.6826  0.9496
  259MOL0     O35628   4.006   5.953   1.452 -0.3485 -0.0980  0.2604
  259MOL0     C35629   4.128   5.905   1.457  0.8578  0.0921 -0.1188
  259MOL0     C35630   4.211   5.936   1.574  0.5364 -0.0221  0.6821
  259MOL0     C35631   4.342   5.880   1.567 -0.4190  0.9859 -0.4925
  259MOL0     C35632   4.427   5.886   1.687 -0.3672 -0.4880 -0.2946
  259MOL0     C35633   4.391   5.819   1.453  0.0527 -0.8943 -0.4944
  259MOL0     C35634   4.531   5.791   1.443 -1.0780  0.3998  0.9378
  259MOL0     O35635   4.613   5.893   1.468 -0.8817  0.0565 -0.4205
  259MOL0     C35636   4.753   5.869   1.461 -0.4465  0.2473  0.5256
  259MOL0     C35637   4.843   5.926   1.554  0.1659  0.7972 -0.2969
  259MOL0     C35638   4.980   5.911   1.553  0.3271  0.3407  0.0610
  259MOL0     C35639   5.038   5.828   1.461 -1.0984 -0.2667 -0.3052
  259MOL0     O35640   5.176   5.792   1.472  0.0617 -0.0648 -0.7254
  259MOL0     C35641   5.249   5.802   1.344 -0.3136 -0.0008 -1.2913
  259MOL0     C35642   5.259   5.947   1.297  0.3307  0.3878 -0.4462
  259MOL0     C35643   5.353   6.042   1.378 -0.8342  0.3854 -0.0264
  259MOL0     C35644   5.344   6.182   1.323 -0.6429  0.2059  0.1721
  259MOL0     C35645   5.423   6.283   1.406  0.4093 -0.3639  0.5416
  259MOL0     C35646   5.330   6.379   1.484 -0.2879 -0.4711  0.1215
  259MOL0     C35647   5.408   6.468   1.588 -0.0541  0.1128  0.4829
  259MOL0     C35648   5.315   6.565   1.641 -0.5217 -0.2866 -0.2097
  259MOL0    Cl35649   5.229   6.658   1.533 -0.4008  0.1999  0.5232
  259MOL0     C35650   4.959   5.775   1.364  1.0890 -0.1714  0.0122
  259MOL0     C35651   4.824   5.799   1.364  0.1951 -0.0030  0.7399
  259MOL0     O35652   4.557   5.683   1.384 -0.5928  0.0754 -0.3518
  259MOL0     C35653   4.296   5.779   1.353  0.3777 -0.5369  0.4513
  259MOL0     C35654   4.167   5.828   1.349  0.2318 -0.4884 -0.5490
  259MOL0     N35655   3.588   6.095   1.171 -0.2510  0.0194 -0.1311
  259MOL0     N35656   3.499   6.091   1.076 -0.4362  0.6051 -0.5238
  259MOL0     C35657   2.495   6.139   0.956 -0.3406 -0.4946  0.0963
  259MOL0     C35658   2.372   6.205   0.933 -0.3038  0.5185  0.0629
  259MOL0     C35659   1.977   6.260   0.751 -0.6642  0.2162 -0.8081
  259MOL0     C35660   1.980   6.389   0.807  0.9748  0.0680 -0.1201
  259MOL0     C35661   1.881   6.480   0.762  1.1289 -0.3912 -0.7014
  259MOL0     C35662   1.779   6.444   0.679  0.6698  0.3627  0.2858
  259MOL0     O35663   1.680   6.532   0.646  0.1930  1.0481  0.5524
  259MOL0     C35664   1.562   6.506   0.716 -0.4977  0.2731 -1.1832
  259MOL0     C35665   1.438   6.524   0.629  0.3743 -0.0984  0.7017
  259MOL0     C35666   1.433   6.422   0.524  0.7469  0.5353 -1.0468
  259MOL0     C35667   1.293   6.414   0.463 -0.3104  0.2184  0.4668
  259MOL0     C35668   1.295   6.391   0.318 -1.1644 -0.2935 -0.8823
  259MOL0     C35669   1.311   6.379   0.195 -0.3620  0.2028 -0.2444
  259MOL0     C35670   1.782   6.324   0.619 -0.3648  0.5722  0.0378
  259MOL0     C35671   1.877   6.221   0.654  0.1422 -0.1725 -0.4217
  259MOL0     C35672   1.852   6.080   0.599  0.1584 -0.4454 -0.1402
  259MOL0     H35673   2.166   5.942   0.987 -1.2862  1.9099 -0.4744
  259MOL0     H35674   2.392   5.831   1.028 -0.6009 -1.7945 -3.6463
  259MOL0     H35675   2.791   6.043   0.929 -2.5185  2.6811  1.2592
  259MOL0     H35676   2.670   6.010   0.807  2.6897  1.0518 -0.8082
  259MOL0     H35677   2.836   5.792   0.954 -2.9828 -1.1610  0.7031
  259MOL0     H35678   2.721   5.757   0.830 -0.5355  0.6055  0.3878
  259MOL0     H35679   2.836   5.881   0.655 -2.0598 -2.1829  0.7766
  259MOL0     H35680   2.938   5.967   0.775  0.4950 -0.1832  0.0205
  259MOL0     H35681   2.943   5.660   0.763 -0.5412  0.6944  0.7034
  259MOL0     H35682   3.006   5.745   0.618  1.7940  0.3531  0.0014
  259MOL0     H35683   3.172   5.854   0.734 -1.5342 -0.6394 -1.7573
  259MOL0     H35684   3.192   5.684   0.781 -0.6349 -0.5120 -2.3705
  259MOL0     H35685   3.080   5.902   0.961 -0.3758 -0.5520  1.6053
  259MOL0     H35686   3.071   5.726   0.993  0.3684  0.2723  0.7075
  259MOL0     H35687   3.321   5.722   1.003  0.2312 -0.3442  3.0614
  259MOL0     H35688   3.242   5.825   1.116 -3.1634 -1.9478 -0.0779
  259MOL0     H35689   3.392   5.904   0.847 -3.6410 -0.5326 -1.5300
  259MOL0     H35690   3.288   6.011   0.920 -0.8699 -1.1722 -1.0414
  259MOL0     H35691   3.550   5.777   1.103 -0.7373 -0.2795 -0.9302
  259MOL0     H35692   3.783   5.862   1.277 -0.7013 -0.0575 -1.5876
  259MOL0     H35693   3.629   5.839   1.357 -0.8444  0.4044  0.4848
  259MOL0     H35694   3.776   6.094   1.363 -1.7986  0.6267 -1.2028
  259MOL0     H35695   3.626   6.059   1.444 -0.0837  0.6552 -2.9321
  259MOL0     H35696   3.832   6.061   1.603  2.4310 -1.6578  1.5348
  259MOL0     H35697   3.727   5.912   1.610  0.4136 -1.0362 -1.1508
  259MOL0     H35698   3.959   5.874   1.643  2.0263  0.2070 -0.1905
  259MOL0     H35699   3.886   5.784   1.510 -1.3922  0.1022  3.1308
  259MOL0     H35700   4.172   5.994   1.658  1.2809 -3.2798  3.5306
  259MOL0     H35701   4.371   5.874   1.780 -0.0535  0.0501 -0.0337
  259MOL0     H35702   4.485   5.979   1.684  0.5213 -1.0376 -0.3805
  259MOL0     H35703   4.500   5.805   1.686 -0.4779 -0.8918  4.4784
  259MOL0     H35704   4.792   5.972   1.638 -1.5558  0.6306 -1.1992
  259MOL0     H35705   5.043   5.955   1.631  3.1775 -2.1771 -0.6354
  259MOL0     H35706   5.350   5.763   1.359  0.0979  1.6390  0.5792
  259MOL0     H35707   5.205   5.742   1.264 -0.5922 -1.2133 -0.2767
  259MOL0     H35708   5.278   5.955   1.190 -2.6414  1.5964 -0.9928
  259MOL0     H35709   5.158   5.988   1.299 -0.6225 -1.4467 -3.7444
  259MOL0     H35710   5.458   6.014   1.366  0.6923  4.7540  0.9460
  259MOL0     H35711   5.328   6.037   1.484  1.6660 -0.7005  0.5809
  259MOL0     H35712   5.243   6.222   1.316 -0.0936  1.6892  0.4375
  259MOL0     H35713   5.377   6.180   1.218  0.4859  1.8799  0.4641
  259MOL0     H35714   5.494   6.227   1.468 -1.3528 -2.3130  0.8952
  259MOL0     H35715   5.481   6.342   1.334  0.5774  0.1109  1.0541
  259MOL0     H35716   5.254   6.312   1.526  0.4824 -2.0190 -0.8471
  259MOL0     H35717   5.278   6.443   1.412  0.3585 -2.0789 -1.9046
  259MOL0     H35718   5.484   6.528   1.538  1.5997 -2.0441  0.2413
  259MOL0     H35719   5.463   6.409   1.662  0.1895 -0.0776  0.1513
  259MOL0     H35720   5.367   6.636   1.705 -0.0035  0.7243 -1.7074
  259MOL0     H35721   5.248   6.506   1.705  1.4526 -1.8158  0.5573
  259MOL0     H35722   4.994   5.700   1.294 -0.5393 -3.4522  2.4755
  259MOL0     H35723   4.766   5.746   1.290  2.7457  0.6468 -1.9386
  259MOL0     H35724   4.328   5.708   1.277  1.3654 -0.9313  1.2153
  259MOL0     H35725   4.100   5.804   1.267  2.8867 -0.2284 -2.9874
  259MOL0     H35726   2.582   6.203   0.957  1.2052 -2.4884 -0.2011
  259MOL0     H35727   2.369   6.308   0.897 -0.6432 -0.3762 -2.6488
  259MOL0     H35728   2.047   6.434   0.880  0.3161  3.7828 -1.5865
  259MOL0     H35729   1.878   6.582   0.799  1.8218  0.2259 -2.2705
  259MOL0     H35730   1.552   6.405   0.758  1.4131  0.8502  0.8403
  259MOL0     H35731   1.561   6.569   0.806 -0.7299 -0.6938 -0.4954
  259MOL0     H35732   1.438   6.616   0.571  0.1649 -0.4434  0.1449
  259MOL0     H35733   1.344   6.507   0.683 -0.6506  1.9282 -0.3454
  259MOL0     H35734   1.506   6.449   0.448  0.7064  1.4257 -0.7758
  259MOL0     H35735   1.453   6.323   0.567 -2.4200  0.4092  0.4417
  259MOL0     H35736   1.243   6.509   0.485 -0.2864  0.4712 -0.5506
  259MOL0     H35737   1.233   6.339   0.517 -0.1195 -0.1511  0.1704
  259MOL0     H35738   1.335   6.343   0.097  1.7544 -0.5058  0.4646
  259MOL0     H35739   1.694   6.292   0.563 -0.5730  0.8072  0.2310
  259MOL0     H35740   1.874   6.010   0.680 -0.9127  0.9210  1.3843
  259MOL0     H35741   1.751   6.070   0.558  0.3880 -0.7492 -0.6433
  259MOL0     H35742   1.918   6.060   0.514  1.7630 -1.3526  1.2475
  260MOL0     O35743   8.943  10.116   7.201 -0.6649  0.6228  0.3389
  260MOL0     C35744   8.998  10.102   7.307 -0.2609 -0.0308 -0.0240
  260MOL0     O35745   9.127  10.086   7.319 -0.1635  0.9951  0.1806
  260MOL0     C35746   9.195  10.065   7.208 -0.0098 -0.0405  0.3046
  260MOL0     C35747   9.226  10.177   7.134 -0.2321 -0.4227  0.7363
  260MOL0     C35748   9.287  10.159   7.005  1.0252  0.5032  0.0332
  260MOL0     C35749   9.330  10.032   6.963  0.1717  1.0724  0.3818
  260MOL0     O35750   9.389  10.014   6.839  0.1969  0.0243  0.0243
  260MOL0     C35751   9.488  10.116   6.802  0.1012 -0.9495  0.1299
  260MOL0     C35752   9.432  10.191   6.679  0.1312 -0.1471 -0.2938
  260MOL0     C35753   9.512  10.293   6.602 -0.3833  0.4798 -0.4920
  260MOL0     C35754   9.547  10.411   6.690 -0.2939  0.3080 -0.0788
  260MOL0     C35755   9.580  10.540   6.608 -0.2475  0.6223  0.1307
  260MOL0     C35756   9.623  10.654   6.697 -1.3905 -0.5486 -0.1139
  260MOL0     C35757   9.673  10.784   6.640 -0.0297  0.1470 -0.0837
  260MOL0     C35758   9.800  10.777   6.553 -0.4977  0.4366  0.1789
  260MOL0     N35759   9.915  10.711   6.613  0.4502 -0.0393 -0.5333
  260MOL0     C35760   9.946  10.580   6.594 -0.3798  0.6011  0.1244
  260MOL0     C35761  10.063  10.568   6.658 -0.5383 -0.1608 -0.1981
  260MOL0     C35762  10.135  10.435   6.676 -0.0500 -0.3645 -0.5778
  260MOL0     C35763  10.257  10.457   6.766 -0.0731  0.3149  0.0687
  260MOL0     C35764  10.329  10.325   6.788 -0.0589  0.4751 -0.0321
  260MOL0     C35765  10.455  10.310   6.703 -0.3315 -0.2032  0.1591
  260MOL0     O35766  10.442  10.245   6.576  0.0634  0.0099 -0.2703
  260MOL0     C35767  10.408  10.110   6.581 -0.2901  0.5525 -0.4561
  260MOL0     C35768  10.378  10.058   6.460  0.9132 -0.2109  0.7782
  260MOL0     C35769  10.340   9.928   6.438 -0.5219  0.5394  0.4554
  260MOL0     C35770  10.297   9.894   6.290  0.1001  0.6857 -1.0060
  260MOL0     C35771  10.356   9.843   6.546  0.0068 -0.1733 -0.0750
  260MOL0     C35772  10.341   9.693   6.528 -0.2400 -0.6403  0.2059
  260MOL0     O35773  10.370   9.614   6.642  0.6608  0.1482  0.4169
  260MOL0     C35774  10.372   9.481   6.635  0.6522  0.1537 -0.0216
  260MOL0     C35775  10.259   9.414   6.590 -0.4897 -0.3151  0.2429
  260MOL0     C35776  10.260   9.276   6.573  0.6795 -0.4239  0.9422
  260MOL0     C35777  10.374   9.201   6.603  0.1086  0.0322 -0.2027
  260MOL0     O35778  10.358   9.069   6.576 -0.6820 -0.2722  0.4598
  260MOL0     C35779  10.459   9.036   6.479  0.2927 -0.1725  0.5395
  260MOL0     C35780  10.373   9.003   6.349 -1.0319 -0.0478 -0.6632
  260MOL0     C35781  10.464   8.975   6.219 -1.0321  0.2455 -0.4220
  260MOL0     C35782  10.557   9.094   6.186  0.6916  0.0669 -0.7320
  260MOL0     C35783  10.474   9.203   6.109  0.3299  0.8793  0.4904
  260MOL0     C35784  10.574   9.326   6.104 -0.1914  0.2247  1.0770
  260MOL0     C35785  10.521   9.433   5.999  0.1989 -0.3015 -0.6946
  260MOL0     C35786  10.638   9.521   5.948 -0.6445  0.1563  0.9638
  260MOL0    Cl35787  10.684   9.617   6.091  0.1283  0.4645 -0.2928
  260MOL0     C35788  10.474   9.258   6.680 -0.7343 -0.0149  0.4958
  260MOL0     C35789  10.478   9.400   6.691  0.3898 -0.0431 -0.4616
  260MOL0     O35790  10.303   9.651   6.421 -0.2892 -0.1624 -0.0681
  260MOL0     C35791  10.386   9.891   6.672  0.1097 -0.1353  0.3375
  260MOL0     C35792  10.420  10.022   6.694 -0.3364 -0.3941  0.2294
  260MOL0     N35793  10.100  10.696   6.717  0.6807  0.1001 -0.2015
  260MOL0     N35794  10.009  10.777   6.679 -0.6030  0.4892 -0.3603
  260MOL0     C35795   9.319   9.925   7.053  0.1417  0.0221 -0.0480
  260MOL0     C35796   9.243   9.939   7.171 -0.2416  0.1316 -0.7204
  260MOL0     C35797   8.910  10.094   7.424 -0.4430  0.2472  0.3125
  260MOL0     C35798   8.967  10.033   7.535 -0.1810 -0.2481  0.3982
  260MOL0     C35799   8.912  10.025   7.660  0.6551 -0.0386 -0.1452
  260MOL0     C35800   8.773  10.070   7.673  0.0505  0.7973 -0.4838
  260MOL0     O35801   8.709  10.066   7.796  0.1490  0.4351  0.1243
  260MOL0     C35802   8.577  10.119   7.823 -0.0540 -0.3529  0.1215
  260MOL0     C35803   8.538  10.114   7.979  0.2090  0.6104 -1.0327
  260MOL0     C35804   8.401  10.179   7.983  0.8390 -0.2829  0.4570
  260MOL0     C35805   8.379  10.276   8.103 -0.2175 -0.5775  0.1593
  260MOL0     C35806   8.413  10.417   8.075 -0.3839 -0.8638  0.6673
  260MOL0     C35807   8.428  10.534   8.044  0.4618  0.5708 -0.9856
  260MOL0     C35808   8.709  10.128   7.558  0.3544  0.8936 -0.3702
  260MOL0     C35809   8.784  10.153   7.441  1.0981 -0.7613 -0.0594
  260MOL0     C35810   8.705  10.208   7.321  0.1320 -1.5885  0.8136
  260MOL0     H35811   9.189  10.275   7.165  0.0170 -0.1905  0.3194
  260MOL0     H35812   9.290  10.243   6.937  1.1416  0.1801 -0.3700
  260MOL0     H35813   9.584  10.069   6.777 -0.0896 -0.8499 -0.8598
  260MOL0     H35814   9.515  10.179   6.886  0.8502  1.9563 -2.1257
  260MOL0     H35815   9.412  10.109   6.610 -1.2292 -0.4186  0.3935
  260MOL0     H35816   9.340  10.239   6.715 -1.9442 -3.4583 -0.7578
  260MOL0     H35817   9.598  10.249   6.551 -0.4422 -0.5721  0.2959
  260MOL0     H35818   9.448  10.326   6.519 -1.2003 -0.6096 -0.3165
  260MOL0     H35819   9.472  10.439   6.765  0.9224  3.4567  0.1049
  260MOL0     H35820   9.636  10.376   6.744 -1.2906 -1.8469  0.2932
  260MOL0     H35821   9.492  10.562   6.547 -1.0787 -1.7133  0.3895
  260MOL0     H35822   9.665  10.522   6.541  0.3298  1.1905  0.6987
  260MOL0     H35823   9.541  10.680   6.764  0.0473 -1.8117  2.2949
  260MOL0     H35824   9.707  10.624   6.760 -2.7476  0.1903  2.1451
  260MOL0     H35825   9.692  10.847   6.727  1.2987 -0.5037  0.1263
  260MOL0     H35826   9.585  10.816   6.583  0.3391 -0.0533 -0.7716
  260MOL0     H35827   9.780  10.733   6.455  3.7793 -1.5568 -0.0574
  260MOL0     H35828   9.818  10.883   6.533  0.3632  0.1106 -0.9091
  260MOL0     H35829   9.896  10.502   6.537  0.2592  1.1490 -1.2561
  260MOL0     H35830  10.173  10.395   6.582  2.4125 -0.0907  0.2346
  260MOL0     H35831  10.060  10.373   6.728 -1.2093  2.3064  1.1633
  260MOL0     H35832  10.320  10.541   6.734 -1.3945  0.8908 -1.1284
  260MOL0     H35833  10.222  10.490   6.865  1.5640 -1.7598  1.4272
  260MOL0     H35834  10.367  10.325   6.890 -0.6478 -1.4392  0.2253
  260MOL0     H35835  10.259  10.241   6.774 -2.9374  2.5431  1.0317
  260MOL0     H35836  10.501  10.408   6.688 -2.6038  0.7556 -1.0291
  260MOL0     H35837  10.531  10.253   6.757  1.7480  2.6885  0.5298
  260MOL0     H35838  10.378  10.132   6.381  0.8308  4.6339  4.8120
  260MOL0     H35839  10.369   9.820   6.251  1.0514  0.8340  0.4012
  260MOL0     H35840  10.303   9.984   6.229  1.0873  0.7267 -0.8762
  260MOL0     H35841  10.200   9.844   6.289  0.8260 -0.8333  0.1164
  260MOL0     H35842  10.167   9.452   6.549  0.0727  0.1662 -0.5973
  260MOL0     H35843  10.173   9.233   6.525 -0.0317  2.3286 -0.4525
  260MOL0     H35844  10.524   9.123   6.465 -1.2686  1.6036  3.3810
  260MOL0     H35845  10.511   8.943   6.502 -2.0304 -1.1283  2.3129
  260MOL0     H35846  10.306   8.919   6.371 -2.6382  1.6204  1.3327
  260MOL0     H35847  10.303   9.087   6.341 -1.9893 -0.5520  1.5483
  260MOL0     H35848  10.403   8.955   6.131  2.2351 -0.5302 -2.6781
  260MOL0     H35849  10.532   8.896   6.252 -1.4959  0.9877  2.6262
  260MOL0     H35850  10.631   9.052   6.118 -0.5449 -0.8973 -1.5265
  260MOL0     H35851  10.609   9.147   6.267 -1.6916  0.4290  0.6602
  260MOL0     H35852  10.432   9.162   6.017  0.1932  1.5352  0.2554
  260MOL0     H35853  10.387   9.233   6.170  2.1742  3.8691  1.8968
  260MOL0     H35854  10.668   9.280   6.071 -1.4388 -0.6979 -1.4646
  260MOL0     H35855  10.592   9.370   6.203 -0.3113 -1.3591  1.8462
  260MOL0     H35856  10.445   9.500   6.038  0.7977 -0.6877  1.2318
  260MOL0     H35857  10.501   9.388   5.901  2.5611 -1.0150 -0.9305
  260MOL0     H35858  10.611   9.583   5.862 -4.3058 -3.2975 -0.7126
  260MOL0     H35859  10.723   9.461   5.916 -2.7826 -2.0954 -0.9950
  260MOL0     H35860  10.539   9.178   6.713 -2.7315 -1.1949  1.7292
  260MOL0     H35861  10.566   9.447   6.734  1.2088 -1.7911 -0.1518
  260MOL0     H35862  10.376   9.829   6.761 -2.6751  2.0420  1.7053
  260MOL0     H35863  10.457  10.066   6.786 -0.2455  1.1482 -0.4990
  260MOL0     H35864   9.360   9.829   7.023 -2.7569 -1.1788 -0.5933
  260MOL0     H35865   9.221   9.860   7.242  1.1611  0.8790  0.6000
  260MOL0     H35866   9.066   9.988   7.543  1.1082  1.8570 -2.2156
  260MOL0     H35867   8.959   9.965   7.736  1.9485  1.6048  0.4012
  260MOL0     H35868   8.563  10.222   7.790  2.0126 -0.6326 -1.8952
  260MOL0     H35869   8.513  10.054   7.764  1.9538 -1.0649 -1.4072
  260MOL0     H35870   8.614  10.171   8.033  2.0794 -5.0242  3.1554
  260MOL0     H35871   8.540  10.010   8.013  1.9941  0.4197 -1.6194
  260MOL0     H35872   8.369  10.237   7.896 -0.8699 -0.6788  0.8015
  260MOL0     H35873   8.328  10.101   8.005 -1.8468  1.2390 -2.2593
  260MOL0     H35874   8.438  10.245   8.189  0.9916  4.1036  1.3229
  260MOL0     H35875   8.276  10.277   8.139 -0.4087  0.5530 -0.3869
  260MOL0     H35876   8.429  10.640   8.027 -1.8255  0.8735  0.3503
  260MOL0     H35877   8.612  10.175   7.570  0.7144  1.1451  2.1328
  260MOL0     H35878   8.608  10.250   7.350  1.0452  2.4683 -1.2687
  260MOL0     H35879   8.768  10.286   7.277  1.9896 -3.2776  0.3169
  260MOL0     H35880   8.672  10.143   7.239  1.4062  0.4975 -1.5199
  261MOL0     O35881   0.273   4.587   0.179  0.3758  0.1542  0.4224
  261MOL0     C35882   0.247   4.648   0.073  0.5717  0.7469 -1.0343
  261MOL0     O35883   0.325   4.650  -0.035  0.4528 -0.2448  0.2970
  261MOL0     C35884   0.446   4.589  -0.055 -0.2885  0.8896  0.2623
  261MOL0     C35885   0.482   4.465   0.005 -0.0897 -0.1219  0.1527
  261MOL0     C35886   0.607   4.414  -0.030 -0.3895 -0.1877  0.0513
  261MOL0     C35887   0.695   4.476  -0.123  0.6700 -0.2917 -0.0286
  261MOL0     O35888   0.804   4.403  -0.161  0.6041  0.3625 -0.5048
  261MOL0     C35889   0.788   4.341  -0.292  0.0572 -0.9203 -0.3083
  261MOL0     C35890   0.917   4.358  -0.366  0.2251  0.4798 -0.5836
  261MOL0     C35891   0.907   4.439  -0.494 -0.3006  0.0391  0.0541
  261MOL0     C35892   1.035   4.421  -0.578  0.4698 -0.3101 -0.2824
  261MOL0     C35893   1.129   4.531  -0.553  0.2913 -0.4033 -0.3927
  261MOL0     C35894   1.232   4.535  -0.671  0.1509 -0.8026 -0.5150
  261MOL0     C35895   1.323   4.656  -0.652 -0.1141  0.5266  0.2944
  261MOL0     C35896   1.442   4.665  -0.757  0.1232 -0.0619 -0.3225
  261MOL0     N35897   1.524   4.773  -0.717 -0.4672  0.1784 -0.3108
  261MOL0     C35898   1.591   4.771  -0.603 -0.4759 -0.2356 -1.1588
  261MOL0     C35899   1.629   4.898  -0.584 -0.4296 -1.0693 -0.6747
  261MOL0     C35900   1.701   4.941  -0.459 -0.6037  0.5880  0.3257
  261MOL0     C35901   1.826   5.029  -0.488  0.4443  0.7045  0.7261
  261MOL0     C35902   1.934   4.944  -0.542  0.9377 -0.2676  0.7804
  261MOL0     C35903   2.044   5.032  -0.606 -0.2615 -1.3265 -0.1094
  261MOL0     O35904   2.125   5.095  -0.506 -0.1743  0.0400  0.3947
  261MOL0     C35905   2.235   5.167  -0.543  0.4330  0.1018  0.8719
  261MOL0     C35906   2.226   5.308  -0.560 -1.3444  0.1130 -0.9836
  261MOL0     C35907   2.333   5.393  -0.579  0.2462  0.1542  0.6880
  261MOL0     C35908   2.305   5.541  -0.588 -0.4890 -0.2562 -0.3399
  261MOL0     C35909   2.460   5.333  -0.579 -0.4423 -0.0007  0.8898
  261MOL0     C35910   2.581   5.405  -0.620 -0.9082 -0.7399  0.2750
  261MOL0     O35911   2.584   5.531  -0.674 -0.0234 -0.3471 -0.1571
  261MOL0     C35912   2.692   5.603  -0.711  0.2378 -0.4869 -0.3893
  261MOL0     C35913   2.821   5.602  -0.657  0.7753 -0.7794  0.1828
  261MOL0     C35914   2.915   5.698  -0.690 -0.7550  1.2141  0.1069
  261MOL0     C35915   2.883   5.794  -0.790 -0.1408 -0.5077 -0.0674
  261MOL0     O35916   2.979   5.892  -0.804 -0.1661 -0.1891  0.0371
  261MOL0     C35917   2.968   5.999  -0.902  0.5887  0.2121 -0.0070
  261MOL0     C35918   2.870   6.112  -0.863  0.1509  0.2944  1.0304
  261MOL0     C35919   2.951   6.218  -0.792 -0.7331 -0.1398  0.0279
  261MOL0     C35920   2.854   6.313  -0.736  0.1241 -0.5663  0.0887
  261MOL0     C35921   2.919   6.416  -0.652  0.1144 -0.3906 -0.8665
  261MOL0     C35922   2.901   6.378  -0.506 -0.3175  0.2479 -0.8685
  261MOL0     C35923   2.896   6.503  -0.430 -0.2793 -0.2668 -0.7671
  261MOL0     C35924   2.919   6.472  -0.283  0.4457 -0.2638 -1.2215
  261MOL0    Cl35925   2.920   6.626  -0.195 -0.4532 -0.0693 -0.2325
  261MOL0     C35926   2.764   5.793  -0.854 -0.0690 -0.5728  0.3542
  261MOL0     C35927   2.660   5.705  -0.804 -0.8453 -0.3215  0.3397
  261MOL0     O35928   2.691   5.350  -0.593  0.4263 -0.0874  0.7657
  261MOL0     C35929   2.471   5.192  -0.560 -0.4486 -0.2755  0.8607
  261MOL0     C35930   2.358   5.109  -0.534 -0.0548  0.1548 -0.5131
  261MOL0     N35931   1.575   4.979  -0.676 -0.0754  0.1298  0.3698
  261MOL0     N35932   1.517   4.903  -0.758  0.1360 -0.3534 -0.1384
  261MOL0     C35933   0.665   4.605  -0.172 -0.7831  0.1520 -0.1318
  261MOL0     C35934   0.537   4.650  -0.143  1.0221 -0.1464 -0.1923
  261MOL0     C35935   0.122   4.727   0.068  0.3891 -0.4281 -0.0294
  261MOL0     C35936   0.088   4.785   0.191 -0.0346 -0.6821 -0.3592
  261MOL0     C35937  -0.036   4.848   0.209  0.1783  0.5699  0.5345
  261MOL0     C35938  -0.130   4.854   0.108 -0.0302  0.6595 -0.0716
  261MOL0     O35939  -0.244   4.928   0.114  0.2183 -0.2334  0.6660
  261MOL0     C35940  -0.352   4.853   0.160 -0.4229 -0.1219 -0.4589
  261MOL0     C35941  -0.474   4.922   0.118  0.8657 -0.8180  0.0870
  261MOL0     C35942  -0.481   4.941  -0.036  0.7647 -0.3257  0.7151
  261MOL0     C35943  -0.619   4.980  -0.099 -0.3623  0.7982 -0.8728
  261MOL0     C35944  -0.716   4.881  -0.077  0.5970  0.1515 -0.3786
  261MOL0     C35945  -0.795   4.796  -0.058  0.2038  0.4640  0.3858
  261MOL0     C35946  -0.094   4.799  -0.018 -1.1166  0.7803  0.6175
  261MOL0     C35947   0.038   4.741  -0.043  0.1071 -0.4278 -0.2142
  261MOL0     C35948   0.071   4.672  -0.166 -0.3059  0.0283  0.6753
  261MOL0     H35949   0.417   4.422   0.080 -0.2722  1.1016  0.7203
  261MOL0     H35950   0.637   4.318   0.010  1.0104 -0.4441 -1.4887
  261MOL0     H35951   0.707   4.377  -0.355  2.8498  2.6951 -2.2354
  261MOL0     H35952   0.772   4.238  -0.258 -1.9756  0.2421  2.6567
  261MOL0     H35953   1.001   4.393  -0.307  1.1803 -1.8259 -0.4801
  261MOL0     H35954   0.962   4.262  -0.393 -0.9879  0.0464 -1.1995
  261MOL0     H35955   0.820   4.406  -0.551  0.2949 -2.0907  0.2801
  261MOL0     H35956   0.891   4.544  -0.467  2.1459  0.4806  0.0802
  261MOL0     H35957   1.090   4.328  -0.560  0.9796 -0.1770 -1.1054
  261MOL0     H35958   1.008   4.418  -0.684  1.4989 -1.8924 -0.5426
  261MOL0     H35959   1.171   4.527  -0.452  1.0457  2.2222 -0.5331
  261MOL0     H35960   1.064   4.619  -0.552 -0.3780 -0.8931 -0.8518
  261MOL0     H35961   1.277   4.435  -0.676 -1.9886 -2.0595  2.4324
  261MOL0     H35962   1.184   4.542  -0.770 -0.9258 -1.1922 -0.0482
  261MOL0     H35963   1.368   4.647  -0.552  0.8890  1.6583 -0.0410
  261MOL0     H35964   1.262   4.746  -0.662 -2.4614 -1.2427 -3.2118
  261MOL0     H35965   1.495   4.570  -0.769 -1.8929 -1.4425  1.0026
  261MOL0     H35966   1.384   4.676  -0.849 -1.1775 -2.4285  0.1132
  261MOL0     H35967   1.608   4.683  -0.541  0.9435  0.6887 -0.1794
  261MOL0     H35968   1.726   4.860  -0.390 -0.9380  0.2769  0.0863
  261MOL0     H35969   1.624   5.003  -0.412 -3.2257  0.5449 -3.4409
  261MOL0     H35970   1.794   5.111  -0.552 -1.9959  0.2853  1.3064
  261MOL0     H35971   1.854   5.063  -0.388 -0.8683 -3.2301  2.6355
  261MOL0     H35972   1.985   4.878  -0.472  0.2394 -1.9678 -0.2501
  261MOL0     H35973   1.890   4.885  -0.623  0.6840 -1.2402  1.6010
  261MOL0     H35974   2.115   4.973  -0.665  1.1927 -0.0636  0.3147
  261MOL0     H35975   2.005   5.110  -0.671 -1.5938 -1.8719 -0.0008
  261MOL0     H35976   2.123   5.340  -0.555 -1.2694  0.7490 -2.7997
  261MOL0     H35977   2.360   5.595  -0.511  1.5133  0.7762 -2.3675
  261MOL0     H35978   2.197   5.554  -0.572 -0.2627  0.4187  0.7698
  261MOL0     H35979   2.322   5.591  -0.684 -0.3781 -0.2727 -0.3294
  261MOL0     H35980   2.852   5.542  -0.572  0.0688 -0.7239  0.4891
  261MOL0     H35981   3.010   5.696  -0.636 -0.9743 -4.0816  0.8785
  261MOL0     H35982   3.067   6.044  -0.916  0.1859  1.1814  0.1468
  261MOL0     H35983   2.950   5.958  -1.002  0.8376  1.1865 -0.4706
  261MOL0     H35984   2.833   6.149  -0.958  1.4821  0.2539  0.4820
  261MOL0     H35985   2.782   6.066  -0.815 -1.7985  0.7547 -1.8732
  261MOL0     H35986   3.023   6.276  -0.850  0.7372  1.0374  2.8329
  261MOL0     H35987   3.005   6.173  -0.709  1.1919  0.1663 -0.9906
  261MOL0     H35988   2.778   6.260  -0.678 -1.3627  0.9863 -0.3823
  261MOL0     H35989   2.797   6.366  -0.812 -1.5585  0.1245  1.7505
  261MOL0     H35990   3.024   6.425  -0.682 -0.6445  1.7158 -3.2509
  261MOL0     H35991   2.878   6.516  -0.667  2.0201  0.6000  0.1622
  261MOL0     H35992   2.992   6.321  -0.483 -0.7269 -2.3029 -4.7492
  261MOL0     H35993   2.801   6.334  -0.493 -0.1806  0.0409 -0.4985
  261MOL0     H35994   2.802   6.557  -0.443 -0.8050 -1.2497 -1.2338
  261MOL0     H35995   2.961   6.583  -0.465  0.6110  0.9495  3.1103
  261MOL0     H35996   3.018   6.425  -0.275  1.2192  1.3419 -0.8770
  261MOL0     H35997   2.836   6.418  -0.237  0.1925  1.0668 -0.0231
  261MOL0     H35998   2.736   5.870  -0.926  2.9110 -1.0663 -1.4891
  261MOL0     H35999   2.562   5.721  -0.847 -1.8189  0.9524  2.8111
  261MOL0     H36000   2.568   5.144  -0.570  1.0713  2.9593 -1.8228
  261MOL0     H36001   2.352   5.002  -0.523 -0.4519  0.0121 -1.8630
  261MOL0     H36002   0.728   4.664  -0.238 -1.6566  0.6837 -0.5024
  261MOL0     H36003   0.504   4.741  -0.192 -2.0932 -1.0558 -0.0133
  261MOL0     H36004   0.153   4.768   0.276  1.7918 -0.4754 -1.6421
  261MOL0     H36005  -0.052   4.886   0.309 -0.5302 -1.8411  1.3925
  261MOL0     H36006  -0.347   4.747   0.131  0.7919 -0.3556  0.5602
  261MOL0     H36007  -0.350   4.849   0.269  0.1404  0.7170 -0.4339
  261MOL0     H36008  -0.474   5.025   0.157 -0.2285 -0.6061 -0.4177
  261MOL0     H36009  -0.566   4.868   0.143 -2.2362  2.3308 -3.1666
  261MOL0     H36010  -0.404   5.008  -0.076  1.6235 -1.6117  0.1282
  261MOL0     H36011  -0.452   4.842  -0.073  1.2754 -1.4084  3.7766
  261MOL0     H36012  -0.611   4.994  -0.208  3.3315 -0.2935 -0.8868
  261MOL0     H36013  -0.660   5.066  -0.045  0.2426 -0.0244  0.9814
  261MOL0     H36014  -0.864   4.714  -0.059  1.4088 -0.6575 -2.6304
  261MOL0     H36015  -0.171   4.805  -0.094 -1.6212 -0.4720  0.9987
  261MOL0     H36016  -0.001   4.679  -0.248  0.4393 -0.6570 -0.0454
  261MOL0     H36017   0.165   4.724  -0.189 -1.1490  0.9821 -0.7664
  261MOL0     H36018   0.072   4.565  -0.145  2.5101 -0.1558  0.0117
  262MOL0     O36019   3.002  10.979   5.130 -0.6620  0.3119 -0.0869
  262MOL0     C36020   3.021  10.881   5.060 -0.0530 -0.1766 -0.1958
  262MOL0     O36021   3.142  10.818   5.050  0.4111  0.0783  0.0933
  262MOL0     C36022   3.258  10.865   5.116  1.3574 -0.1490 -0.0151
  262MOL0     C36023   3.317  10.785   5.206  0.4887  0.4620 -0.8893
  262MOL0     C36024   3.428  10.839   5.287 -0.0914 -0.1219 -0.2618
  262MOL0     C36025   3.482  10.967   5.256 -0.4534  0.2550  0.2253
  262MOL0     O36026   3.590  11.001   5.336 -0.2117  0.0591  0.1000
  262MOL0     C36027   3.669  11.099   5.273  0.5052  0.6082  0.2905
  262MOL0     C36028   3.796  11.107   5.354 -1.2569 -0.3900  0.1858
  262MOL0     C36029   3.783  11.174   5.490 -0.6473  0.2500 -0.8943
  262MOL0     C36030   3.918  11.233   5.552  0.7847  0.9344  0.7277
  262MOL0     C36031   3.905  11.305   5.690  0.7520  0.4843  0.1448
  262MOL0     C36032   4.039  11.349   5.738  0.1828  0.1685 -0.3609
  262MOL0     C36033   4.093  11.457   5.651 -0.9021  0.3823 -0.6910
  262MOL0     C36034   4.240  11.499   5.678  0.6079  0.1065 -1.0729
  262MOL0     N36035   4.283  11.512   5.819  0.2150  0.7383 -0.2860
  262MOL0     C36036   4.415  11.522   5.837  0.3774  0.2860  0.6823
  262MOL0     C36037   4.442  11.530   5.963  0.2954  0.1678 -0.6824
  262MOL0     C36038   4.576  11.534   6.031  1.1170  0.5191  0.1766
  262MOL0     C36039   4.660  11.407   6.036 -1.0621  0.2840  0.5231
  262MOL0     C36040   4.787  11.424   6.121  0.6438  0.2403  0.1627
  262MOL0     C36041   4.865  11.294   6.151 -0.1641  0.2115  0.3845
  262MOL0     O36042   4.982  11.323   6.225 -0.0951 -0.3974 -0.5488
  262MOL0     C36043   5.048  11.223   6.285 -0.1646 -0.1796  1.4300
  262MOL0     C36044   5.150  11.270   6.365  0.2824 -0.2035 -0.6788
  262MOL0     C36045   5.229  11.174   6.434  0.1183  0.2995 -0.3079
  262MOL0     C36046   5.326  11.226   6.536 -0.3979  0.3677  0.7200
  262MOL0     C36047   5.220  11.036   6.406 -0.3513  0.7155  0.0286
  262MOL0     C36048   5.297  10.926   6.474 -0.4365  0.4037  0.2967
  262MOL0     O36049   5.357  10.952   6.593 -0.1771  0.4412  0.2546
  262MOL0     C36050   5.466  10.872   6.624  0.3564  0.0679  0.5299
  262MOL0     C36051   5.467  10.775   6.728 -0.5115 -0.2810 -0.2364
  262MOL0     C36052   5.580  10.697   6.757 -0.6858  0.1083 -0.5411
  262MOL0     C36053   5.691  10.703   6.676 -0.9489 -0.3745 -0.3005
  262MOL0     O36054   5.795  10.616   6.681  0.0059  1.0017 -0.2943
  262MOL0     C36055   5.774  10.487   6.746  0.7464  0.2810  0.4635
  262MOL0     C36056   5.892  10.400   6.704 -0.1254 -0.3046 -0.0665
  262MOL0     C36057   5.877  10.255   6.760  0.6198 -0.7270 -0.4058
  262MOL0     C36058   6.017  10.190   6.756  0.0600  0.1691 -0.1341
  262MOL0     C36059   6.026  10.044   6.795 -1.1521 -0.1980 -0.4070
  262MOL0     C36060   6.017  10.017   6.952  0.5642 -0.1699  0.2728
  262MOL0     C36061   6.038   9.869   7.001  0.1404 -0.3481  0.5259
  262MOL0     C36062   6.027   9.851   7.158  0.7047 -0.1290  0.5685
  262MOL0    Cl36063   6.079   9.691   7.200 -0.1155  0.1431  0.2402
  262MOL0     C36064   5.693  10.805   6.584 -0.0298  0.5690  0.5399
  262MOL0     C36065   5.585  10.886   6.554 -0.6386  0.8663 -0.3609
  262MOL0     O36066   5.306  10.816   6.417 -0.6611  0.2253 -0.3930
  262MOL0     C36067   5.110  10.995   6.332  0.2640 -0.4604  0.0998
  262MOL0     C36068   5.023  11.084   6.275 -0.2076  0.0078  0.1856
  262MOL0     N36069   4.317  11.523   6.033  0.7098 -0.1170  0.6497
  262MOL0     N36070   4.222  11.515   5.938 -0.4120 -1.0792  0.9269
  262MOL0     C36071   3.417  11.036   5.150 -0.6022 -0.7353  0.1581
  262MOL0     C36072   3.305  10.986   5.084 -0.3349  0.3095 -0.1116
  262MOL0     C36073   2.910  10.833   4.969 -1.6143  0.6814 -0.0075
  262MOL0     C36074   2.934  10.706   4.893  0.2112  0.9938 -0.2683
  262MOL0     C36075   2.846  10.652   4.802  0.6618  1.4355  0.1810
  262MOL0     C36076   2.728  10.723   4.770 -0.0990 -0.1156 -0.0185
  262MOL0     O36077   2.639  10.685   4.681  0.3801  0.0580 -0.2592
  262MOL0     C36078   2.660  10.577   4.595 -0.1383  0.0394  0.3342
  262MOL0     C36079   2.763  10.608   4.486 -0.8401  0.7613 -0.8491
  262MOL0     C36080   2.743  10.743   4.425 -0.2144  0.2344  0.0327
  262MOL0     C36081   2.840  10.764   4.309 -0.0118  0.1199 -0.1910
  262MOL0     C36082   2.795  10.869   4.212  0.2744 -0.2502 -0.9894
  262MOL0     C36083   2.765  10.960   4.136  0.6153 -0.1559  0.2005
  262MOL0     C36084   2.702  10.839   4.841  0.0900 -0.7283 -0.3886
  262MOL0     C36085   2.790  10.896   4.941 -0.0859  0.2539  0.3543
  262MOL0     C36086   2.761  11.031   5.003 -1.1225  0.6722 -0.1120
  262MOL0     H36087   3.289  10.683   5.228  0.2705  1.2022  2.9278
  262MOL0     H36088   3.466  10.785   5.373 -3.1461 -0.2074  1.1588
  262MOL0     H36089   3.620  11.197   5.266 -0.4100  0.0629 -1.2911
  262MOL0     H36090   3.684  11.078   5.167 -0.3732 -0.4652  0.3713
  262MOL0     H36091   3.845  11.011   5.375  0.7987  0.8330  1.3014
  262MOL0     H36092   3.864  11.170   5.296 -2.6722  0.2517 -0.8534
  262MOL0     H36093   3.707  11.253   5.481 -0.5638  0.3351 -0.8433
  262MOL0     H36094   3.747  11.098   5.560 -2.1165  0.2031 -1.6537
  262MOL0     H36095   3.988  11.150   5.560 -0.4819 -0.2656 -0.1714
  262MOL0     H36096   3.956  11.309   5.483  2.2469  2.2241  2.8227
  262MOL0     H36097   3.871  11.240   5.771 -1.5712  1.0481 -0.3106
  262MOL0     H36098   3.828  11.383   5.683  0.6023  0.4136  0.8712
  262MOL0     H36099   4.021  11.390   5.838 -0.2831 -1.5107  0.2758
  262MOL0     H36100   4.112  11.267   5.736 -0.0299 -0.0751  0.8423
  262MOL0     H36101   4.029  11.545   5.663  0.3327  0.9194  3.3259
  262MOL0     H36102   4.090  11.429   5.545 -1.5258 -1.9422 -0.1005
  262MOL0     H36103   4.309  11.427   5.633  2.0075  0.8466 -0.1837
  262MOL0     H36104   4.250  11.598   5.633 -0.0717 -0.4114 -2.4291
  262MOL0     H36105   4.481  11.508   5.752 -1.3924 -0.6159 -0.6220
  262MOL0     H36106   4.560  11.558   6.137 -1.7752 -0.7054  0.1046
  262MOL0     H36107   4.629  11.623   5.995  1.0889 -0.5084 -2.6175
  262MOL0     H36108   4.607  11.323   6.083  0.4408 -0.1012  1.5941
  262MOL0     H36109   4.693  11.369   5.938  0.8077  1.9372  0.4418
  262MOL0     H36110   4.845  11.504   6.073 -0.4823 -0.0975 -1.8981
  262MOL0     H36111   4.744  11.453   6.217 -3.8247 -0.5407 -1.3906
  262MOL0     H36112   4.795  11.237   6.213 -1.6582  1.9810  0.4327
  262MOL0     H36113   4.903  11.238   6.065 -1.3326 -0.1961  0.1132
  262MOL0     H36114   5.170  11.377   6.370 -0.1890 -0.1649  2.8233
  262MOL0     H36115   5.428  11.193   6.514  0.3288  2.1428  1.2418
  262MOL0     H36116   5.314  11.207   6.643 -0.2668  3.4171  1.3866
  262MOL0     H36117   5.323  11.336   6.532 -1.3446  0.3448  0.6674
  262MOL0     H36118   5.381  10.758   6.793  0.5766  0.8435  1.5855
  262MOL0     H36119   5.575  10.632   6.844 -1.4696  2.5646  1.3530
  262MOL0     H36120   5.771  10.515   6.851 -1.6189 -0.3387  0.6207
  262MOL0     H36121   5.684  10.431   6.720  0.8590  0.5329 -0.5251
  262MOL0     H36122   5.895  10.390   6.595 -0.3445  0.0735 -0.1090
  262MOL0     H36123   5.986  10.442   6.742  0.5547 -3.0577  1.6044
  262MOL0     H36124   5.801  10.193   6.712 -1.5216  2.3145 -1.1985
  262MOL0     H36125   5.856  10.260   6.868 -0.1228 -0.3609 -0.5626
  262MOL0     H36126   6.084  10.250   6.819  1.4425  0.3956 -1.7698
  262MOL0     H36127   6.071  10.206   6.663  2.9025  0.5324  1.4631
  262MOL0     H36128   5.942   9.992   6.749 -0.2521 -1.9206 -0.1693
  262MOL0     H36129   6.120  10.004   6.756 -0.9161 -0.0649  0.0270
  262MOL0     H36130   5.916  10.040   6.986  0.5931 -0.8232  0.8328
  262MOL0     H36131   6.081  10.082   7.012 -3.4557  2.3456  2.2255
  262MOL0     H36132   6.130   9.820   6.966  1.0500  0.8786  1.1267
  262MOL0     H36133   5.954   9.812   6.961 -2.7042  1.5467  3.3584
  262MOL0     H36134   5.923   9.865   7.187  0.1369 -3.0438  0.2307
  262MOL0     H36135   6.092   9.923   7.209  1.4818 -0.5430  0.1717
  262MOL0     H36136   5.789  10.813   6.534  1.6872  1.4844  3.7365
  262MOL0     H36137   5.576  10.960   6.475 -1.2615 -0.1289 -1.2470
  262MOL0     H36138   5.086  10.891   6.313 -0.3007 -0.1970 -0.7085
  262MOL0     H36139   4.936  11.048   6.220 -2.9465  0.9628  3.5570
  262MOL0     H36140   3.443  11.138   5.124  1.0556 -1.6331 -2.0406
  262MOL0     H36141   3.251  11.045   5.010  3.6024  1.8705 -1.9778
  262MOL0     H36142   3.027  10.651   4.906 -0.7977 -0.8325 -0.5249
  262MOL0     H36143   2.867  10.559   4.749  2.1839  1.1612  1.2028
  262MOL0     H36144   2.702  10.491   4.647  2.6262 -0.1384 -1.8951
  262MOL0     H36145   2.566  10.537   4.556 -0.7675 -2.5911  4.0337
  262MOL0     H36146   2.767  10.522   4.417 -1.5078  1.8974 -2.3638
  262MOL0     H36147   2.861  10.603   4.534 -1.3107 -1.1149  0.0056
  262MOL0     H36148   2.643  10.759   4.381  1.2111  3.9656 -2.3173
  262MOL0     H36149   2.758  10.817   4.503  1.1522 -2.2353  2.2582
  262MOL0     H36150   2.857  10.680   4.242 -0.6123  0.1078 -0.3350
  262MOL0     H36151   2.933  10.803   4.350 -1.0984  3.9017 -0.9073
  262MOL0     H36152   2.738  11.035   4.065 -0.2989  1.0955  1.8427
  262MOL0     H36153   2.613  10.896   4.818  1.2709  1.5978  0.5251
  262MOL0     H36154   2.674  11.071   4.949 -0.5265  0.0262 -1.6294
  262MOL0     H36155   2.750  11.021   5.111 -0.9531  5.3083  0.5083
  262MOL0     H36156   2.841  11.103   4.990  0.6003 -0.8965  1.3096
  263MOL0     O36157   2.997  10.922   2.487  0.6190 -0.0845 -0.0854
  263MOL0     C36158   2.980  10.957   2.371  0.9892  0.2254  0.5397
  263MOL0     O36159   3.053  10.909   2.265 -0.2391  0.2690  0.1549
  263MOL0     C36160   3.172  10.853   2.284 -0.8107 -1.3686 -0.7129
  263MOL0     C36161   3.267  10.873   2.397  0.7044  0.0372  0.8110
  263MOL0     C36162   3.387  10.803   2.404  0.2735  0.6121 -0.0692
  263MOL0     C36163   3.419  10.710   2.304 -0.6479  0.4049 -0.1627
  263MOL0     O36164   3.532  10.628   2.303  0.1727  0.4633 -0.0958
  263MOL0     C36165   3.630  10.658   2.406  0.0218  1.3307  0.7999
  263MOL0     C36166   3.762  10.588   2.364 -0.4093  0.0990  0.3064
  263MOL0     C36167   3.870  10.616   2.466 -0.6763  0.1623  0.3166
  263MOL0     C36168   4.003  10.588   2.400  0.0510 -0.6463  0.2757
  263MOL0     C36169   4.127  10.610   2.486  0.0531 -0.7751  0.1057
  263MOL0     C36170   4.258  10.610   2.413  0.6345  0.1650  1.2364
  263MOL0     C36171   4.379  10.646   2.494  0.1111 -0.1118 -0.1834
  263MOL0     C36172   4.428  10.534   2.581  0.1395  0.4247 -0.5993
  263MOL0     N36173   4.343  10.477   2.684 -0.2987 -0.2102 -0.3128
  263MOL0     C36174   4.318  10.342   2.713 -0.6393  0.3529  0.9974
  263MOL0     C36175   4.259  10.341   2.832  0.1507 -0.0816  0.3434
  263MOL0     C36176   4.203  10.228   2.911 -0.2962 -0.1311  0.1699
  263MOL0     C36177   4.055  10.231   2.911 -0.8518 -1.3407 -0.6585
  263MOL0     C36178   3.996  10.255   2.769  0.7155 -0.0502 -0.8041
  263MOL0     C36179   3.841  10.243   2.780  0.7251  0.9610 -0.4080
  263MOL0     O36180   3.776  10.291   2.661 -0.8291 -0.2714 -0.1924
  263MOL0     C36181   3.643  10.289   2.680 -0.0454 -0.3695 -0.2830
  263MOL0     C36182   3.561  10.259   2.795  0.1168  0.3370  0.1665
  263MOL0     C36183   3.424  10.275   2.793 -0.5700  0.0244  0.1318
  263MOL0     C36184   3.352  10.262   2.926  0.6250  0.2228 -0.0865
  263MOL0     C36185   3.362  10.328   2.675 -0.2528 -0.0575  0.4733
  263MOL0     C36186   3.211  10.346   2.662  0.5404 -0.5684 -0.8361
  263MOL0     O36187   3.177  10.434   2.562  0.4876  0.6665 -0.6606
  263MOL0     C36188   3.038  10.439   2.517 -0.9338 -0.4537 -0.2119
  263MOL0     C36189   2.945  10.335   2.510  0.2230 -0.2031  0.2386
  263MOL0     C36190   2.811  10.355   2.482  0.0682 -0.2056 -0.3001
  263MOL0     C36191   2.759  10.485   2.458 -0.6638  0.6047 -0.2489
  263MOL0     O36192   2.624  10.510   2.427 -0.4440 -0.3161  0.0251
  263MOL0     C36193   2.535  10.410   2.397 -0.6132 -0.1569 -1.0789
  263MOL0     C36194   2.390  10.462   2.394 -0.2820  0.2835 -0.3613
  263MOL0     C36195   2.348  10.543   2.264  0.1323 -0.3471  0.4542
  263MOL0     C36196   2.196  10.560   2.275 -0.2683  1.1803  0.8577
  263MOL0     C36197   2.135  10.627   2.148 -0.4590  0.1601  0.2158
  263MOL0     C36198   2.118  10.536   2.032  0.7700 -0.3146 -0.3277
  263MOL0     C36199   2.059  10.615   1.919 -0.9477  0.1786  0.2828
  263MOL0     C36200   2.017  10.506   1.813  0.1474  0.3895  0.2567
  263MOL0    Cl36201   1.906  10.598   1.708  0.2127  0.2123 -0.3291
  263MOL0     C36202   2.849  10.589   2.475  0.3815 -1.0833  0.5555
  263MOL0     C36203   2.990  10.574   2.499  0.1998  0.6975 -0.3230
  263MOL0     O36204   3.137  10.298   2.748 -0.4530  0.3229  0.3194
  263MOL0     C36205   3.441  10.351   2.559 -0.1845  0.0108  0.2298
  263MOL0     C36206   3.578  10.331   2.564 -0.3451 -0.1421 -1.8124
  263MOL0     N36207   4.251  10.470   2.876 -0.0147  0.5835  0.8561
  263MOL0     N36208   4.281  10.551   2.784 -0.1475  0.3577 -0.5025
  263MOL0     C36209   3.333  10.697   2.196  0.5950 -0.6424  0.0084
  263MOL0     C36210   3.214  10.772   2.180  0.0822  0.0271  0.3934
  263MOL0     C36211   2.852  11.027   2.344 -0.0259 -0.5516 -0.5457
  263MOL0     C36212   2.819  11.064   2.217 -0.2214 -0.4524 -0.4638
  263MOL0     C36213   2.723  11.156   2.190  0.0302 -0.1784 -0.4814
  263MOL0     C36214   2.627  11.195   2.288 -1.4202 -0.3316  0.2215
  263MOL0     O36215   2.515  11.261   2.269  0.2122  0.9062  0.1535
  263MOL0     C36216   2.523  11.387   2.210  0.6567  0.6557  0.3202
  263MOL0     C36217   2.416  11.402   2.100  0.4998  0.4290 -0.1175
  263MOL0     C36218   2.277  11.380   2.157  0.2301  0.8488  0.4547
  263MOL0     C36219   2.184  11.401   2.043 -0.2862 -0.0256 -0.3104
  263MOL0     C36220   2.185  11.536   1.986  0.4210  0.1296 -0.1548
  263MOL0     C36221   2.168  11.638   1.938  0.3524  0.1272 -0.3130
  263MOL0     C36222   2.653  11.156   2.422  0.8910  0.0004  1.5357
  263MOL0     C36223   2.761  11.075   2.445 -0.5992  0.4850 -0.0428
  263MOL0     C36224   2.772  11.024   2.592 -0.8958 -0.4814  0.2649
  263MOL0     H36225   3.234  10.943   2.474  1.6483  2.2419 -0.7064
  263MOL0     H36226   3.456  10.827   2.484  0.1211  1.4622 -0.1865
  263MOL0     H36227   3.593  10.618   2.501 -3.3793  0.9708 -0.5627
  263MOL0     H36228   3.653  10.765   2.411  2.4132  0.9750 -0.7854
  263MOL0     H36229   3.750  10.480   2.366  1.3386 -0.1246  1.5594
  263MOL0     H36230   3.797  10.618   2.265  4.0628 -1.5022  1.1759
  263MOL0     H36231   3.860  10.713   2.515 -2.0669  0.7896 -1.1103
  263MOL0     H36232   3.867  10.541   2.546 -0.6720 -0.0956  0.0796
  263MOL0     H36233   4.011  10.483   2.371  1.9381 -0.7184  0.9321
  263MOL0     H36234   4.015  10.647   2.309 -1.6542 -3.0914 -1.6949
  263MOL0     H36235   4.134  10.539   2.569  2.0503 -0.9952 -0.1932
  263MOL0     H36236   4.112  10.704   2.539 -1.7575 -1.1084  0.2489
  263MOL0     H36237   4.276  10.508   2.379  2.8092  0.3848  1.5663
  263MOL0     H36238   4.253  10.679   2.329  0.4470  0.3358  1.3880
  263MOL0     H36239   4.373  10.742   2.547  1.0875 -0.1972  0.1080
  263MOL0     H36240   4.467  10.661   2.430 -1.4159 -2.6743 -3.1491
  263MOL0     H36241   4.443  10.455   2.506 -2.1570  0.4668 -1.1708
  263MOL0     H36242   4.518  10.580   2.624 -0.3186  2.7587 -1.9452
  263MOL0     H36243   4.362  10.257   2.662  4.2712  0.9916  3.5907
  263MOL0     H36244   4.237  10.236   3.015 -3.8792 -0.0284  1.4530
  263MOL0     H36245   4.232  10.132   2.865 -0.8523  0.1590 -0.8153
  263MOL0     H36246   4.023  10.142   2.965  0.8928 -1.5118  0.1716
  263MOL0     H36247   4.041  10.321   2.971 -0.4630 -0.4750 -1.8083
  263MOL0     H36248   4.030  10.351   2.728 -0.6306  0.0812 -1.6866
  263MOL0     H36249   4.038  10.175   2.707  1.4244 -1.7949  1.7757
  263MOL0     H36250   3.820  10.137   2.793  1.4821  0.9654  1.0867
  263MOL0     H36251   3.815  10.307   2.865 -2.1574 -1.0306  0.3354
  263MOL0     H36252   3.615  10.220   2.881  3.0753  3.1063 -0.2358
  263MOL0     H36253   3.282  10.180   2.911  2.3303 -1.4669  0.7250
  263MOL0     H36254   3.312  10.359   2.959  3.4848  1.1513  0.9327
  263MOL0     H36255   3.430  10.233   2.997  1.1178 -0.5417 -0.9223
  263MOL0     H36256   2.972  10.233   2.534 -1.2578 -0.6581  0.1042
  263MOL0     H36257   2.753  10.266   2.461  1.4442 -0.7273 -2.0892
  263MOL0     H36258   2.567  10.354   2.309  1.1814  2.0795 -1.9438
  263MOL0     H36259   2.537  10.338   2.479  1.5163 -0.0014 -0.9472
  263MOL0     H36260   2.323  10.375   2.404 -0.1956  0.1734 -0.7240
  263MOL0     H36261   2.367  10.513   2.488  1.0029 -1.1670  0.7982
  263MOL0     H36262   2.372  10.485   2.174  0.4071  1.5092 -0.7136
  263MOL0     H36263   2.391  10.643   2.258 -0.4972 -0.1684 -2.2605
  263MOL0     H36264   2.164  10.620   2.360 -0.6682 -0.2485  1.7511
  263MOL0     H36265   2.137  10.470   2.295 -3.5384  2.1119 -3.1271
  263MOL0     H36266   2.036  10.665   2.174  0.2715  0.5912  2.5291
  263MOL0     H36267   2.193  10.715   2.116 -1.5704  0.6010 -0.6787
  263MOL0     H36268   2.054  10.454   2.064  2.8472 -1.1455  1.9623
  263MOL0     H36269   2.216  10.505   1.993  0.8663  0.8541 -1.0707
  263MOL0     H36270   2.130  10.683   1.870  1.3460 -2.9267 -1.0614
  263MOL0     H36271   1.964  10.661   1.946 -1.5748 -1.7548  1.5183
  263MOL0     H36272   1.954  10.433   1.864  0.7431  0.0427  0.5042
  263MOL0     H36273   2.098  10.449   1.766  0.6462 -1.3710  3.0091
  263MOL0     H36274   2.820  10.691   2.453  1.9850 -0.8041 -0.4394
  263MOL0     H36275   3.061  10.656   2.505  1.0806 -0.1044  0.5876
  263MOL0     H36276   3.388  10.388   2.471 -3.6390 -0.2314  2.0493
  263MOL0     H36277   3.629  10.341   2.468 -0.9250  2.3891 -1.9364
  263MOL0     H36278   3.348  10.614   2.127  0.8131  0.9796 -2.0000
  263MOL0     H36279   3.153  10.753   2.092  1.3305 -1.9373 -0.1274
  263MOL0     H36280   2.890  11.028   2.145  3.0462  1.0108  1.7775
  263MOL0     H36281   2.714  11.175   2.084  1.5639 -3.5683 -1.3568
  263MOL0     H36282   2.499  11.456   2.291 -2.1622  0.3342 -0.1637
  263MOL0     H36283   2.625  11.408   2.174  0.7327  1.0714  0.7698
  263MOL0     H36284   2.431  11.337   2.013 -2.4228  0.2534 -0.6142
  263MOL0     H36285   2.415  11.509   2.075 -0.2767  0.6490  0.7748
  263MOL0     H36286   2.273  11.278   2.198 -1.0011  0.4423 -0.6196
  263MOL0     H36287   2.254  11.450   2.238 -1.9009  2.3968 -1.3639
  263MOL0     H36288   2.083  11.390   2.084 -0.0838 -0.4671  0.0754
  263MOL0     H36289   2.190  11.332   1.959 -1.8676 -1.1254  0.4208
  263MOL0     H36290   2.135  11.726   1.887  0.0262 -0.0558 -0.4240
  263MOL0     H36291   2.572  11.190   2.486 -1.2080  3.3228 -2.3349
  263MOL0     H36292   2.696  11.069   2.655 -0.0293 -0.1226  1.0763
  263MOL0     H36293   2.773  10.915   2.600  3.4527 -0.7946 -1.4380
  263MOL0     H36294   2.865  11.072   2.625 -0.7395 -0.1699 -0.6030
  264MOL0     O36295  10.069   7.354   2.979  0.1813 -0.8445 -1.0607
  264MOL0     C36296   9.987   7.299   3.059 -0.4789 -0.0957  0.5954
  264MOL0     O36297  10.018   7.209   3.150 -1.0917 -0.1706  0.7145
  264MOL0     C36298  10.151   7.158   3.151 -0.6536  0.3271  0.7809
  264MOL0     C36299  10.242   7.193   3.255 -0.3028 -0.3211  0.9021
  264MOL0     C36300  10.365   7.136   3.254 -0.5447  0.0371  0.0982
  264MOL0     C36301  10.402   7.041   3.157  0.2828 -0.7972  0.4015
  264MOL0     O36302  10.521   6.980   3.161 -0.1244 -0.0937  0.5795
  264MOL0     C36303  10.644   7.040   3.202  0.0702  0.1731 -0.8189
  264MOL0     C36304  10.745   6.927   3.237  0.5734 -0.6631  0.1788
  264MOL0     C36305  10.872   6.992   3.296 -0.6986  0.2187  0.3772
  264MOL0     C36306  10.961   6.890   3.375  0.6300 -0.4756 -1.0128
  264MOL0     C36307  11.046   6.799   3.289  0.4216  0.2133 -0.0880
  264MOL0     C36308  11.140   6.699   3.370  0.3650  0.1499 -0.7791
  264MOL0     C36309  11.206   6.617   3.263 -1.3817 -0.4820 -0.7053
  264MOL0     C36310  11.298   6.500   3.327 -0.6626 -0.9789 -0.5618
  264MOL0     N36311  11.412   6.543   3.411  0.0726  0.1157  0.2561
  264MOL0     C36312  11.530   6.585   3.349  1.4398  0.9268 -0.5303
  264MOL0     C36313  11.610   6.601   3.461  0.3611  0.1585  0.8184
  264MOL0     C36314  11.751   6.634   3.443  0.1406  0.3429 -0.2474
  264MOL0     C36315  11.770   6.786   3.384 -0.2323 -0.3461  0.0462
  264MOL0     C36316  11.915   6.820   3.387 -0.7750  0.1251 -0.4015
  264MOL0     C36317  11.943   6.971   3.394  0.8674 -0.1815 -0.5305
  264MOL0     O36318  12.081   7.001   3.359 -0.1010  0.2721  0.9468
  264MOL0     C36319  12.184   6.943   3.428  0.8667  0.3754 -1.3651
  264MOL0     C36320  12.236   7.022   3.532 -0.1713 -0.7997 -0.3481
  264MOL0     C36321  12.358   6.978   3.591 -0.1295  0.7716 -0.3831
  264MOL0     C36322  12.417   7.064   3.703 -1.3370  0.4757  0.7657
  264MOL0     C36323  12.421   6.854   3.557  0.2445 -0.1823  1.2252
  264MOL0     C36324  12.549   6.803   3.619  0.4222 -0.0987 -0.4284
  264MOL0     O36325  12.639   6.753   3.541  0.0874 -0.0105  0.2802
  264MOL0     C36326  12.744   6.686   3.598  0.7747 -0.2805  0.1289
  264MOL0     C36327  12.869   6.750   3.624  0.7164  0.2100 -1.0195
  264MOL0     C36328  12.978   6.670   3.650  0.4060  0.1580  0.3371
  264MOL0     C36329  12.978   6.535   3.626 -0.3535  0.0402  0.3208
  264MOL0     O36330  13.101   6.478   3.627  0.2085  0.9606  0.1355
  264MOL0     C36331  13.153   6.421   3.511  0.4255  0.8213 -0.4629
  264MOL0     C36332  13.272   6.334   3.553  1.0369 -0.7860  0.5446
  264MOL0     C36333  13.338   6.276   3.427 -0.1442  0.1202  0.5898
  264MOL0     C36334  13.460   6.186   3.454 -0.2531 -0.0461  0.1914
  264MOL0     C36335  13.541   6.160   3.322 -0.7654  0.7621  0.2322
  264MOL0     C36336  13.651   6.052   3.328  0.0982 -0.2242  0.1191
  264MOL0     C36337  13.727   6.031   3.201  0.5519  0.1346  0.7369
  264MOL0     C36338  13.833   5.922   3.211 -0.2100 -0.0878  0.9346
  264MOL0    Cl36339  13.956   5.970   3.331 -0.3996  0.2958 -0.0635
  264MOL0     C36340  12.854   6.469   3.599  0.1458  0.0235  0.0443
  264MOL0     C36341  12.739   6.541   3.580 -0.2546  0.1904 -0.9993
  264MOL0     O36342  12.541   6.794   3.744  0.0405 -0.8101 -0.1701
  264MOL0     C36343  12.353   6.778   3.461 -1.1602  0.7271 -0.6080
  264MOL0     C36344  12.245   6.826   3.388  0.1183  0.1821  0.2296
  264MOL0     N36345  11.543   6.587   3.579 -0.0528  0.2303 -0.3898
  264MOL0     N36346  11.420   6.558   3.546  0.4025  0.1219  0.1052
  264MOL0     C36347  10.319   7.000   3.056  0.8549  0.4532  0.1388
  264MOL0     C36348  10.194   7.065   3.048 -0.2178 -0.4640  0.4665
  264MOL0     C36349   9.844   7.338   3.059  0.4597  0.7689 -0.5965
  264MOL0     C36350   9.742   7.243   3.056  0.1740  0.2789 -0.9851
  264MOL0     C36351   9.608   7.268   3.044 -0.3882  0.0949  0.3671
  264MOL0     C36352   9.561   7.398   3.013 -0.8439 -0.2669 -0.1453
  264MOL0     O36353   9.427   7.426   2.992 -1.2415 -0.3105 -0.1159
  264MOL0     C36354   9.339   7.335   3.057  0.0397 -0.0091 -0.1276
  264MOL0     C36355   9.205   7.389   3.084 -0.0716 -0.1506  0.4830
  264MOL0     C36356   9.194   7.507   3.182  0.2852 -0.4029 -0.3655
  264MOL0     C36357   9.255   7.473   3.318  0.6549  0.0771  0.1014
  264MOL0     C36358   9.181   7.367   3.391  0.3342 -0.1512 -0.0241
  264MOL0     C36359   9.121   7.298   3.468 -0.4038  0.5367  0.2100
  264MOL0     C36360   9.660   7.497   3.025  0.6700  0.2084  0.9917
  264MOL0     C36361   9.799   7.472   3.042  0.3951 -0.1502 -0.6094
  264MOL0     C36362   9.889   7.591   3.039 -0.8423 -0.3228 -0.0552
  264MOL0     H36363  10.207   7.262   3.331 -0.7104  0.6734 -0.1498
  264MOL0     H36364  10.425   7.161   3.341 -2.0313  0.1693  1.1194
  264MOL0     H36365  10.627   7.096   3.294 -0.6029  0.9577 -1.3979
  264MOL0     H36366  10.689   7.107   3.128  1.2997 -0.3960 -0.6085
  264MOL0     H36367  10.699   6.868   3.318  1.8474 -0.9406  0.7341
  264MOL0     H36368  10.763   6.872   3.145 -0.1012 -2.7548  1.2220
  264MOL0     H36369  10.934   7.044   3.222  0.4664 -2.0122 -0.3195
  264MOL0     H36370  10.830   7.073   3.356 -1.7584  0.4942 -0.7023
  264MOL0     H36371  11.023   6.943   3.448  1.5827 -1.0995 -1.3532
  264MOL0     H36372  10.890   6.836   3.438 -0.4852 -1.3779 -2.9444
  264MOL0     H36373  11.117   6.863   3.236  2.7045 -1.2961  0.9756
  264MOL0     H36374  10.984   6.741   3.221 -0.2813  1.7637 -0.8288
  264MOL0     H36375  11.207   6.766   3.425  1.7082 -1.3371 -0.5248
  264MOL0     H36376  11.080   6.633   3.433  1.8004  1.1427  1.7819
  264MOL0     H36377  11.271   6.677   3.199  2.3618 -2.8308  0.5199
  264MOL0     H36378  11.137   6.562   3.198 -1.9060 -1.9278  1.0007
  264MOL0     H36379  11.233   6.435   3.385 -0.1317 -1.1887 -0.1937
  264MOL0     H36380  11.345   6.443   3.246  0.8242 -3.3833  1.8134
  264MOL0     H36381  11.556   6.587   3.243 -0.3567 -3.2966 -1.2823
  264MOL0     H36382  11.807   6.562   3.383 -0.2769  0.6880 -1.0778
  264MOL0     H36383  11.792   6.628   3.544  0.9097  1.6079 -0.4584
  264MOL0     H36384  11.733   6.800   3.282 -0.5937 -0.6642  0.1263
  264MOL0     H36385  11.720   6.854   3.454 -0.6475  2.0787 -2.4472
  264MOL0     H36386  11.957   6.773   3.476 -2.2902  1.7641  1.2877
  264MOL0     H36387  11.965   6.779   3.299  0.8170  0.1613  0.4503
  264MOL0     H36388  11.877   7.012   3.316  0.9100  2.7115  0.8131
  264MOL0     H36389  11.934   7.024   3.489  2.8281 -0.3306 -0.2219
  264MOL0     H36390  12.204   7.120   3.565  0.4630 -1.0979  1.2616
  264MOL0     H36391  12.375   7.164   3.718 -0.0349  1.5460 -1.8495
  264MOL0     H36392  12.524   7.073   3.681 -1.5056 -1.6295 -1.3240
  264MOL0     H36393  12.405   7.010   3.797 -1.5466 -0.1203  0.4048
  264MOL0     H36394  12.870   6.859   3.631  1.1674  0.1628 -0.3344
  264MOL0     H36395  13.065   6.729   3.676  1.1804 -0.0074 -1.7608
  264MOL0     H36396  13.082   6.354   3.462 -1.1355  1.4352  0.8568
  264MOL0     H36397  13.179   6.508   3.451 -2.5402  4.5225  3.0225
  264MOL0     H36398  13.344   6.399   3.603  2.1451 -0.0689 -1.8650
  264MOL0     H36399  13.245   6.253   3.621  2.0621 -0.1827  1.7135
  264MOL0     H36400  13.372   6.356   3.361  1.0050  0.5883  1.7148
  264MOL0     H36401  13.264   6.219   3.370  1.4404 -2.1661  0.6627
  264MOL0     H36402  13.424   6.086   3.480  0.0188 -0.8258 -2.1856
  264MOL0     H36403  13.524   6.232   3.530  0.0134  0.5671 -0.3974
  264MOL0     H36404  13.473   6.125   3.245  1.1589 -0.5770 -0.9503
  264MOL0     H36405  13.591   6.252   3.288 -1.6413  1.0911 -0.1836
  264MOL0     H36406  13.594   5.961   3.351  0.8209 -0.5607  0.6470
  264MOL0     H36407  13.717   6.063   3.415 -1.3316 -2.0557  1.5410
  264MOL0     H36408  13.769   6.124   3.161 -0.4614  0.7731  1.1252
  264MOL0     H36409  13.654   6.010   3.122  1.5357 -0.1513 -0.1215
  264MOL0     H36410  13.888   5.924   3.116 -0.5103  1.0350  0.7648
  264MOL0     H36411  13.795   5.822   3.230  0.9796 -0.5233  1.1470
  264MOL0     H36412  12.846   6.361   3.583  3.2821 -0.1734 -0.9979
  264MOL0     H36413  12.647   6.488   3.558 -0.3116  0.7419 -2.1684
  264MOL0     H36414  12.400   6.687   3.426 -0.3998  0.6453  0.5609
  264MOL0     H36415  12.212   6.781   3.296  1.1838  1.2252 -0.6913
  264MOL0     H36416  10.346   6.916   2.994 -0.9148  1.1874 -1.7197
  264MOL0     H36417  10.120   7.029   2.978 -1.2866 -2.1141  2.3294
  264MOL0     H36418   9.774   7.143   3.084  1.0913  1.5054  3.1414
  264MOL0     H36419   9.540   7.184   3.050  1.5388 -1.4647  1.4279
  264MOL0     H36420   9.331   7.244   2.998 -0.3739  0.1029 -0.2422
  264MOL0     H36421   9.364   7.307   3.160 -1.5018 -1.6282 -0.1588
  264MOL0     H36422   9.133   7.308   3.099 -0.4317 -0.4038 -2.1429
  264MOL0     H36423   9.157   7.420   2.990  1.9718 -1.9005 -1.2334
  264MOL0     H36424   9.249   7.592   3.140 -2.7625  1.4846 -0.9260
  264MOL0     H36425   9.089   7.540   3.187  0.9182  1.9767 -1.3320
  264MOL0     H36426   9.235   7.565   3.374 -1.1902  0.5634 -1.2647
  264MOL0     H36427   9.363   7.455   3.315  0.4064 -1.3988 -1.5555
  264MOL0     H36428   9.084   7.243   3.553 -0.6713  1.0894  0.4545
  264MOL0     H36429   9.610   7.591   3.004 -1.7751 -0.8705  1.5402
  264MOL0     H36430   9.947   7.595   3.132  1.5536  1.3280 -1.5122
  264MOL0     H36431   9.966   7.594   2.961 -1.3488  0.6859 -0.5376
  264MOL0     H36432   9.820   7.675   3.025 -4.3993 -2.8236  1.1181
  265MOL0     O36433   6.444   6.616   9.101 -0.3605  0.5083 -0.0402
  265MOL0     C36434   6.491   6.592   9.214 -0.2589 -0.0036 -0.9008
  265MOL0     O36435   6.436   6.633   9.336  0.0839 -0.5895 -0.8025
  265MOL0     C36436   6.300   6.678   9.327  0.1342  0.6741  0.4747
  265MOL0     C36437   6.196   6.589   9.323  0.6017 -0.1533 -0.3731
  265MOL0     C36438   6.068   6.634   9.311  0.1280 -0.8504  0.3935
  265MOL0     C36439   6.041   6.770   9.317  0.9392  0.4204 -0.4646
  265MOL0     O36440   5.913   6.824   9.308  0.0027 -0.2501  0.5834
  265MOL0     C36441   5.811   6.743   9.371 -0.3098 -0.0233 -0.0032
  265MOL0     C36442   5.702   6.840   9.418  0.4537  0.0182  0.0834
  265MOL0     C36443   5.596   6.876   9.314 -0.2369 -0.6318 -0.4249
  265MOL0     C36444   5.500   6.756   9.276  0.1037 -0.6319  0.8393
  265MOL0     C36445   5.376   6.806   9.204 -0.3727  0.1771 -0.3578
  265MOL0     C36446   5.286   6.701   9.141  0.0342 -0.2222 -0.7974
  265MOL0     C36447   5.221   6.605   9.239 -0.4520 -0.5790 -0.3858
  265MOL0     C36448   5.128   6.672   9.343  0.8537 -0.3181  0.4084
  265MOL0     N36449   5.019   6.746   9.283  0.1815  0.6898 -0.0910
  265MOL0     C36450   4.917   6.694   9.204  0.5592  0.7270  0.7335
  265MOL0     C36451   4.845   6.798   9.151  0.4088  0.9126 -0.5720
  265MOL0     C36452   4.744   6.786   9.033  0.5230 -0.1689 -0.4319
  265MOL0     C36453   4.626   6.890   9.058 -0.1799  0.6818  0.5846
  265MOL0     C36454   4.558   6.913   9.196 -0.1366 -0.2579 -0.1883
  265MOL0     C36455   4.507   6.771   9.243  0.5035 -0.1365  1.2276
  265MOL0     O36456   4.424   6.776   9.357 -0.3630  0.2333  0.4701
  265MOL0     C36457   4.462   6.762   9.486  0.3531 -0.3145  0.4581
  265MOL0     C36458   4.602   6.737   9.520  0.6254  0.0870  0.3353
  265MOL0     C36459   4.633   6.720   9.647 -1.0074 -0.5373 -1.0227
  265MOL0     C36460   4.787   6.695   9.676 -0.1719  0.0646  0.3718
  265MOL0     C36461   4.539   6.706   9.758  1.6848 -0.2830  0.7244
  265MOL0     C36462   4.566   6.691   9.900  1.1349 -0.9383  0.0361
  265MOL0     O36463   4.455   6.714   9.985 -0.3242 -0.2110 -0.9401
  265MOL0     C36464   4.477   6.749  10.122  0.2599  0.3498  0.0909
  265MOL0     C36465   4.378   6.713  10.211 -0.5247 -0.2915 -0.3327
  265MOL0     C36466   4.392   6.734  10.353  0.1671  0.2673 -0.6374
  265MOL0     C36467   4.510   6.772  10.406  0.3006 -0.8924  0.0939
  265MOL0     O36468   4.513   6.793  10.545 -0.8881  0.4947  0.7155
  265MOL0     C36469   4.632   6.867  10.598  0.2044 -1.0799  0.1349
  265MOL0     C36470   4.607   6.899  10.741 -0.7607 -0.0862  0.0288
  265MOL0     C36471   4.739   6.925  10.803  0.6353 -0.5760 -0.8899
  265MOL0     C36472   4.722   7.001  10.937 -0.2420  0.0845  0.7838
  265MOL0     C36473   4.863   7.026  11.000 -0.2716  0.0489  0.1490
  265MOL0     C36474   4.960   7.106  10.905  0.0270 -0.5213  0.4088
  265MOL0     C36475   5.071   7.147  10.997 -0.2784 -0.9489 -0.4382
  265MOL0     C36476   5.177   7.241  10.937 -1.2126  0.1448 -0.1543
  265MOL0    Cl36477   5.310   7.268  11.053 -0.4976  0.0188  0.0432
  265MOL0     C36478   4.618   6.800  10.326 -0.0425  0.2129  0.8437
  265MOL0     C36479   4.600   6.788  10.185 -0.0260  0.0326  0.4673
  265MOL0     O36480   4.677   6.651   9.936 -0.0450 -0.8642 -0.0236
  265MOL0     C36481   4.403   6.729   9.718  0.5715 -0.3529 -0.2156
  265MOL0     C36482   4.371   6.763   9.592 -0.3308 -0.6276  0.4932
  265MOL0     N36483   4.908   6.910   9.204  1.1484 -0.1361  0.1744
  265MOL0     N36484   5.004   6.882   9.283 -1.1432 -0.9590 -0.0925
  265MOL0     C36485   6.148   6.861   9.320  1.7845 -0.1417 -0.9833
  265MOL0     C36486   6.279   6.814   9.332 -0.4804  0.6137 -0.7708
  265MOL0     C36487   6.605   6.496   9.223 -0.0407  0.5265  0.5230
  265MOL0     C36488   6.612   6.420   9.341 -0.9947 -0.3037  0.3376
  265MOL0     C36489   6.706   6.319   9.357 -1.4047 -0.7514  0.3148
  265MOL0     C36490   6.813   6.301   9.268  0.1897 -0.0874 -0.2862
  265MOL0     O36491   6.913   6.211   9.301  0.7747 -0.1656 -0.0156
  265MOL0     C36492   7.011   6.160   9.203 -0.7156  0.8660 -0.2748
  265MOL0     C36493   7.068   6.019   9.244  0.2536  0.0259 -0.0410
  265MOL0     C36494   7.201   5.978   9.167  0.1468 -0.2632 -0.5854
  265MOL0     C36495   7.259   5.846   9.222  0.3936  0.5513  0.5445
  265MOL0     C36496   7.379   5.800   9.165 -0.7590  0.3786  0.3946
  265MOL0     C36497   7.484   5.763   9.117  0.3772  0.0009 -0.3882
  265MOL0     C36498   6.809   6.382   9.148 -1.0069  0.3850 -0.8396
  265MOL0     C36499   6.707   6.479   9.128 -0.2117  0.1130  0.5915
  265MOL0     C36500   6.735   6.564   9.003  0.7742  0.2147 -0.3879
  265MOL0     H36501   6.213   6.482   9.318 -1.3032 -0.5001 -0.2678
  265MOL0     H36502   5.983   6.566   9.310 -1.6129  1.2146 -0.0559
  265MOL0     H36503   5.850   6.698   9.462 -1.5380  1.0984  1.1278
  265MOL0     H36504   5.772   6.667   9.303 -0.5335  0.0775  0.0118
  265MOL0     H36505   5.651   6.798   9.506 -0.2021  1.9325  0.6785
  265MOL0     H36506   5.744   6.934   9.456 -1.0080  0.6207  0.3100
  265MOL0     H36507   5.539   6.964   9.344  1.5546  2.0035 -3.9110
  265MOL0     H36508   5.644   6.901   9.218  0.3454 -2.2665 -0.5983
  265MOL0     H36509   5.562   6.691   9.213 -0.7597 -1.2521  0.6193
  265MOL0     H36510   5.476   6.705   9.370 -0.3187 -1.1335  0.4648
  265MOL0     H36511   5.417   6.858   9.118 -1.0243 -1.8485 -1.9773
  265MOL0     H36512   5.317   6.872   9.269  0.6792 -1.0088  1.9373
  265MOL0     H36513   5.206   6.752   9.086 -0.1717  1.2338  0.7764
  265MOL0     H36514   5.361   6.643   9.086  2.8954  1.9772  0.5102
  265MOL0     H36515   5.301   6.555   9.293  1.3059 -0.2672 -2.5366
  265MOL0     H36516   5.161   6.533   9.182  0.6397 -0.2383 -2.0336
  265MOL0     H36517   5.076   6.599   9.407  2.7217  0.2083  2.6746
  265MOL0     H36518   5.182   6.734   9.415 -0.2100 -1.9357  2.7062
  265MOL0     H36519   4.882   6.595   9.180  1.2414  0.9911 -1.6608
  265MOL0     H36520   4.712   6.682   9.036  2.3296 -0.7756  3.0570
  265MOL0     H36521   4.788   6.799   8.934  1.4406 -0.0134 -0.0172
  265MOL0     H36522   4.674   6.985   9.033 -1.2457  1.0233 -0.2680
  265MOL0     H36523   4.544   6.867   8.989  0.1333  0.4032  0.2999
  265MOL0     H36524   4.626   6.954   9.271  0.8546 -0.5357 -0.9121
  265MOL0     H36525   4.475   6.982   9.182 -0.2564  0.1416  2.0293
  265MOL0     H36526   4.447   6.723   9.165 -1.1072  0.3299  2.1320
  265MOL0     H36527   4.598   6.710   9.255  1.4384  1.2414  1.3256
  265MOL0     H36528   4.675   6.720   9.441 -0.1580  1.7145 -0.7712
  265MOL0     H36529   4.848   6.721   9.589 -1.7848  2.8619 -0.0530
  265MOL0     H36530   4.798   6.591   9.707 -0.2417  0.4289  1.6963
  265MOL0     H36531   4.821   6.770   9.748  2.7203 -1.2214  0.4544
  265MOL0     H36532   4.291   6.655  10.182  1.0790 -3.0479  0.0627
  265MOL0     H36533   4.307   6.725  10.420 -0.5668  4.8552 -0.6867
  265MOL0     H36534   4.724   6.810  10.588  0.3151 -0.6763 -1.2860
  265MOL0     H36535   4.645   6.962  10.545 -0.9791 -1.8681 -1.6632
  265MOL0     H36536   4.546   6.984  10.772 -0.7334 -1.4720  4.8292
  265MOL0     H36537   4.559   6.812  10.787 -1.7226  1.5165  2.2083
  265MOL0     H36538   4.803   6.983  10.736 -1.2870  2.4884 -0.2515
  265MOL0     H36539   4.802   6.837  10.823  5.9364  3.0439  0.5779
  265MOL0     H36540   4.660   6.936  10.999  1.0029 -0.2865  1.6729
  265MOL0     H36541   4.671   7.098  10.932 -3.0434 -1.2948  0.9476
  265MOL0     H36542   4.855   7.088  11.089 -0.1346  0.0342  0.1717
  265MOL0     H36543   4.914   6.934  11.028  0.7076  0.6372  0.3315
  265MOL0     H36544   4.905   7.192  10.865  0.2873 -0.6579 -0.2640
  265MOL0     H36545   4.992   7.038  10.826  0.6339 -0.2815  0.4437
  265MOL0     H36546   5.129   7.062  11.035  1.0469 -0.0284 -0.3161
  265MOL0     H36547   5.027   7.205  11.078 -1.7346  0.9079 -2.4600
  265MOL0     H36548   5.142   7.340  10.906  1.2086  0.9777 -0.4207
  265MOL0     H36549   5.211   7.196  10.843 -0.6492  1.3572 -0.5509
  265MOL0     H36550   4.716   6.818  10.370  0.1014 -0.8461  0.9684
  265MOL0     H36551   4.684   6.792  10.116 -0.3327 -0.9932  0.0238
  265MOL0     H36552   4.315   6.732   9.782 -0.6679 -0.5858 -1.8328
  265MOL0     H36553   4.272   6.796   9.560  1.1692  1.6824 -2.1592
  265MOL0     H36554   6.130   6.968   9.319 -0.1996 -0.4306 -0.3526
  265MOL0     H36555   6.357   6.889   9.339 -1.8600  2.1792 -1.4053
  265MOL0     H36556   6.535   6.438   9.415 -0.6523  0.6686  0.4744
  265MOL0     H36557   6.718   6.275   9.456  0.1349 -0.3410  0.3472
  265MOL0     H36558   6.966   6.177   9.104 -1.2125  1.3160  0.0253
  265MOL0     H36559   7.101   6.223   9.211  0.0610 -0.5148  3.6580
  265MOL0     H36560   6.982   5.954   9.226 -0.1580  0.8303 -1.0991
  265MOL0     H36561   7.089   6.013   9.351  0.4368  0.3971 -0.0573
  265MOL0     H36562   7.186   5.975   9.058 -3.1043  0.6136 -0.2676
  265MOL0     H36563   7.276   6.055   9.184  1.7012 -1.7526 -0.3469
  265MOL0     H36564   7.182   5.774   9.193  2.1721 -0.1992 -2.7172
  265MOL0     H36565   7.258   5.861   9.331  1.6148  0.7903  0.5360
  265MOL0     H36566   7.575   5.723   9.077  1.0742  1.1272  0.0298
  265MOL0     H36567   6.892   6.369   9.080  1.1903  0.5800  1.6740
  265MOL0     H36568   6.804   6.515   8.934  0.5553 -0.3507 -0.2090
  265MOL0     H36569   6.654   6.602   8.941  2.4507 -0.1722 -2.9802
  265MOL0     H36570   6.784   6.654   9.041 -1.5004  0.3722  2.6030
  266MOL0     O36571  11.215   4.728   4.946  0.5217  1.0882  0.2022
  266MOL0     C36572  11.132   4.773   4.864  0.0254 -0.0885 -0.1806
  266MOL0     O36573  11.117   4.733   4.727  0.6067  0.1221 -0.7986
  266MOL0     C36574  11.180   4.811   4.636 -0.1609  0.1715 -0.5509
  266MOL0     C36575  11.322   4.820   4.647 -0.4296  0.2760  0.0820
  266MOL0     C36576  11.395   4.864   4.543 -0.3727 -0.9831  0.8079
  266MOL0     C36577  11.337   4.899   4.427  0.0928 -0.3294  0.9319
  266MOL0     O36578  11.418   4.942   4.324 -0.0783 -0.4088  0.0154
  266MOL0     C36579  11.372   4.934   4.186  0.7570 -0.4939  0.0696
  266MOL0     C36580  11.371   5.075   4.125  0.4014 -0.5775  0.8962
  266MOL0     C36581  11.241   5.146   4.172  0.0981 -0.6986 -0.0406
  266MOL0     C36582  11.255   5.298   4.162  0.2478 -0.4389  0.0842
  266MOL0     C36583  11.131   5.379   4.160  0.0424  0.2098  0.6009
  266MOL0     C36584  11.026   5.330   4.259  0.2051  0.0172 -0.3490
  266MOL0     C36585  10.882   5.397   4.247  0.4179 -0.4399 -0.9261
  266MOL0     C36586  10.887   5.540   4.304 -0.5079  0.5865  0.0274
  266MOL0     N36587  10.749   5.571   4.342  0.6978 -0.4158  0.2468
  266MOL0     C36588  10.687   5.580   4.470  1.6005  0.1070  0.2957
  266MOL0     C36589  10.559   5.625   4.440  0.5019 -0.0550 -0.1020
  266MOL0     C36590  10.451   5.663   4.538  0.2797  0.3840  0.0814
  266MOL0     C36591  10.496   5.642   4.682  0.9765  0.0583  0.2603
  266MOL0     C36592  10.409   5.727   4.787 -0.1966  0.3891 -0.5538
  266MOL0     C36593  10.482   5.755   4.921 -0.4568  0.0593  0.2499
  266MOL0     O36594  10.608   5.811   4.891  0.5353 -0.0580  0.5839
  266MOL0     C36595  10.696   5.841   4.995 -0.6002  0.2292 -0.0385
  266MOL0     C36596  10.670   5.824   5.130 -0.5810  0.1826 -1.0126
  266MOL0     C36597  10.775   5.857   5.226 -0.3690 -0.8396  0.0262
  266MOL0     C36598  10.742   5.842   5.367  0.4268 -0.4898  0.7450
  266MOL0     C36599  10.900   5.913   5.169 -0.4676  0.5535 -1.4857
  266MOL0     C36600  11.022   5.935   5.248  0.3444 -0.2012  0.1623
  266MOL0     O36601  11.027   5.863   5.365  0.3447  0.0464  0.2030
  266MOL0     C36602  11.146   5.864   5.430 -0.0316  0.1643  0.5506
  266MOL0     C36603  11.166   5.970   5.513 -0.2166 -0.2183 -0.4681
  266MOL0     C36604  11.278   5.970   5.599 -0.2295  0.4121 -0.2197
  266MOL0     C36605  11.362   5.859   5.600  0.4969  0.7536  0.2301
  266MOL0     O36606  11.473   5.834   5.675 -0.3919  0.6410  0.0811
  266MOL0     C36607  11.500   5.925   5.778  0.4335 -0.0549  0.2099
  266MOL0     C36608  11.625   5.873   5.850  1.3130  0.6164  0.3803
  266MOL0     C36609  11.649   5.940   5.978  0.0229 -0.3444  0.4381
  266MOL0     C36610  11.802   5.927   6.007 -0.1466  0.9771  0.2530
  266MOL0     C36611  11.834   5.936   6.160 -0.7190 -0.4683  0.3734
  266MOL0     C36612  11.993   5.956   6.171 -0.6601  0.2687  0.4037
  266MOL0     C36613  12.039   5.998   6.309 -0.2702 -0.6181 -1.1309
  266MOL0     C36614  12.195   6.003   6.332  0.2465  0.2357  0.4706
  266MOL0    Cl36615  12.256   5.840   6.380 -0.2822 -0.0676  0.3910
  266MOL0     C36616  11.339   5.752   5.510  0.3129  0.6162 -0.2429
  266MOL0     C36617  11.229   5.753   5.428 -0.8408  0.7341  0.2877
  266MOL0     O36618  11.092   6.031   5.225  0.0512 -0.4015 -0.3218
  266MOL0     C36619  10.921   5.914   5.032 -0.0602 -0.0561 -0.8187
  266MOL0     C36620  10.819   5.893   4.947 -0.0261 -0.5890  0.3082
  266MOL0     N36621  10.543   5.632   4.303 -0.1447 -0.4096  0.3761
  266MOL0     N36622  10.648   5.590   4.245  0.0396  0.3438 -0.4334
  266MOL0     C36623  11.193   4.892   4.410  0.5576 -0.1699  0.3590
  266MOL0     C36624  11.112   4.851   4.520 -0.2289 -0.2661  0.2669
  266MOL0     C36625  11.059   4.897   4.901 -0.6008  1.0801 -0.2850
  266MOL0     C36626  10.946   4.925   4.823 -0.3946  0.2381 -0.0546
  266MOL0     C36627  10.870   5.036   4.855 -0.4313 -0.6968 -0.2924
  266MOL0     C36628  10.904   5.134   4.949  0.8124  0.0940 -0.6192
  266MOL0     O36629  10.819   5.250   4.958  0.2152  0.5744  0.1742
  266MOL0     C36630  10.862   5.346   5.049 -0.2244 -0.9155  0.6971
  266MOL0     C36631  10.815   5.492   5.009  0.1457 -0.8492 -0.3384
  266MOL0     C36632  10.837   5.531   4.859  0.7522 -0.7057  0.2253
  266MOL0     C36633  10.978   5.607   4.847  0.0915 -0.2546  0.6150
  266MOL0     C36634  10.978   5.678   4.713  0.3733  0.1283 -0.7363
  266MOL0     C36635  10.942   5.747   4.625  0.8617 -0.0628  0.0589
  266MOL0     C36636  11.013   5.097   5.034 -0.3774  0.3848 -0.6643
  266MOL0     C36637  11.086   4.978   5.012 -0.2627  0.4090  0.0226
  266MOL0     C36638  11.201   4.960   5.112  0.5653 -0.0656  0.7801
  266MOL0     H36639  11.377   4.789   4.735 -0.4692 -1.2303 -0.4021
  266MOL0     H36640  11.501   4.880   4.564 -0.5534 -0.4799  1.3545
  266MOL0     H36641  11.279   4.877   4.181 -0.5531  1.2679  2.3178
  266MOL0     H36642  11.440   4.875   4.124  0.7656 -2.7078  2.0442
  266MOL0     H36643  11.452   5.134   4.170 -1.0587  0.8026  1.8273
  266MOL0     H36644  11.388   5.079   4.017  3.4414 -0.2413  1.2890
  266MOL0     H36645  11.157   5.106   4.114 -1.2711  3.2138 -1.0438
  266MOL0     H36646  11.215   5.112   4.272 -0.7407 -0.7450 -0.2710
  266MOL0     H36647  11.318   5.334   4.243  1.4227 -0.9067 -0.6022
  266MOL0     H36648  11.302   5.323   4.066 -0.5341  0.5103 -0.0766
  266MOL0     H36649  11.082   5.371   4.062 -0.2558 -1.1811  0.8474
  266MOL0     H36650  11.166   5.481   4.179  1.1826  0.0709 -0.6087
  266MOL0     H36651  11.016   5.222   4.243  1.7414 -0.6785  2.6050
  266MOL0     H36652  11.055   5.343   4.364 -1.0478 -0.1473  0.0474
  266MOL0     H36653  10.816   5.334   4.308  0.9120 -0.8708 -0.8265
  266MOL0     H36654  10.844   5.395   4.144 -2.9420  1.0663  0.1263
  266MOL0     H36655  10.954   5.548   4.390 -0.2641  0.1436 -0.1187
  266MOL0     H36656  10.929   5.616   4.238  0.1198  1.9795  1.9316
  266MOL0     H36657  10.730   5.556   4.566  0.0608  1.1324  1.2885
  266MOL0     H36658  10.355   5.616   4.514  0.6855 -0.0448 -0.7444
  266MOL0     H36659  10.432   5.770   4.526 -0.2021  0.6322  2.5777
  266MOL0     H36660  10.496   5.534   4.697 -0.3797 -0.1397 -1.0289
  266MOL0     H36661  10.600   5.675   4.694  1.0967 -0.7367  1.6410
  266MOL0     H36662  10.396   5.825   4.740 -3.7194 -0.2784 -1.2993
  266MOL0     H36663  10.313   5.678   4.807 -0.5904  0.7177 -1.5740
  266MOL0     H36664  10.420   5.824   4.979 -0.7215 -0.1859  0.2647
  266MOL0     H36665  10.497   5.655   4.963  2.2260 -0.4643 -1.6992
  266MOL0     H36666  10.567   5.806   5.161 -0.6379  0.1405 -1.2251
  266MOL0     H36667  10.778   5.925   5.428  3.6967 -0.5420 -0.8883
  266MOL0     H36668  10.796   5.751   5.393  0.4194 -0.1251  2.1343
  266MOL0     H36669  10.636   5.827   5.393 -0.0271 -0.4375 -0.9501
  266MOL0     H36670  11.085   6.043   5.521  0.2770  0.1976  0.8941
  266MOL0     H36671  11.293   6.049   5.672  0.6631 -1.8885  2.2828
  266MOL0     H36672  11.519   6.025   5.740 -0.9566  0.5655  1.0443
  266MOL0     H36673  11.412   5.937   5.842 -2.0660 -0.9778 -2.7453
  266MOL0     H36674  11.614   5.764   5.861 -1.2557  0.4612 -2.3609
  266MOL0     H36675  11.703   5.893   5.777  0.9966  0.8075  0.0924
  266MOL0     H36676  11.591   5.899   6.062 -0.2660  0.1323  0.4726
  266MOL0     H36677  11.617   6.044   5.970 -3.2720 -1.2627 -0.0511
  266MOL0     H36678  11.858   6.000   5.948 -0.1954 -0.8525 -2.1773
  266MOL0     H36679  11.842   5.833   5.968 -0.1897  0.4222  1.4963
  266MOL0     H36680  11.786   6.014   6.220  1.3851  0.9792  0.2702
  266MOL0     H36681  11.803   5.842   6.208 -0.2990 -0.6669  0.2597
  266MOL0     H36682  12.018   6.027   6.092  0.8942 -0.5417  0.1426
  266MOL0     H36683  12.041   5.860   6.151 -2.8168 -1.2402  1.9915
  266MOL0     H36684  11.990   5.934   6.383  0.3269  0.3250  0.1146
  266MOL0     H36685  12.007   6.099   6.339  0.1358 -0.7999 -0.0381
  266MOL0     H36686  12.223   6.067   6.417  1.7818  0.9136 -0.4956
  266MOL0     H36687  12.249   6.045   6.247 -0.9001  0.9857  0.0862
  266MOL0     H36688  11.419   5.680   5.497  0.0163 -0.1359  1.7398
  266MOL0     H36689  11.224   5.667   5.362  3.1750  1.3689 -1.0897
  266MOL0     H36690  11.024   5.926   5.000  1.6301 -0.3823  3.7044
  266MOL0     H36691  10.835   5.917   4.842  2.3601  0.1885  0.7808
  266MOL0     H36692  11.133   4.920   4.324  2.0152  1.0521 -0.3114
  266MOL0     H36693  11.006   4.840   4.502  0.3550 -2.7562 -2.3449
  266MOL0     H36694  10.899   4.862   4.749 -0.1597  0.7165 -0.6295
  266MOL0     H36695  10.780   5.057   4.799 -1.6650 -1.8005  1.1909
  266MOL0     H36696  10.833   5.321   5.152  0.4498 -0.7977  0.9218
  266MOL0     H36697  10.972   5.350   5.054 -0.1000 -2.4666 -0.3291
  266MOL0     H36698  10.852   5.567   5.079 -2.8320  1.1424 -0.7049
  266MOL0     H36699  10.706   5.504   5.015  0.0625  1.1461 -3.2931
  266MOL0     H36700  10.816   5.454   4.783 -1.4354  0.1931 -0.1534
  266MOL0     H36701  10.771   5.615   4.835  1.2652 -0.3663 -0.0144
  266MOL0     H36702  11.064   5.540   4.846  1.8373  1.8555  1.2529
  266MOL0     H36703  10.980   5.674   4.933 -0.6337 -0.9229  1.1628
  266MOL0     H36704  10.898   5.811   4.551 -2.0717 -2.1272 -0.1415
  266MOL0     H36705  11.034   5.163   5.117  0.4399  0.7362 -1.1390
  266MOL0     H36706  11.176   4.895   5.196  2.7685  0.5646  1.9858
  266MOL0     H36707  11.290   4.920   5.062  1.9095  3.9377 -0.4114
  266MOL0     H36708  11.224   5.059   5.152  2.7797 -0.5872  0.9267
  267MOL0     O36709   1.040   9.085   8.711  0.4855 -0.0035  0.1443
  267MOL0     C36710   1.059   9.111   8.591 -0.0442  1.0462  0.2107
  267MOL0     O36711   1.184   9.133   8.542 -0.3353 -0.0114 -0.0599
  267MOL0     C36712   1.298   9.100   8.612 -0.4973  0.2704  0.1129
  267MOL0     C36713   1.419   9.178   8.578  0.8505 -0.2282 -0.8133
  267MOL0     C36714   1.538   9.161   8.647  0.4883  0.3206 -0.3174
  267MOL0     C36715   1.541   9.057   8.745 -0.1482  0.5574 -0.1694
  267MOL0     O36716   1.650   9.015   8.811  0.0289  0.0104 -0.6188
  267MOL0     C36717   1.733   9.111   8.864  0.5836 -0.3972 -0.3359
  267MOL0     C36718   1.863   9.047   8.898 -0.3922 -0.0614 -0.0582
  267MOL0     C36719   1.962   9.157   8.947 -0.1943 -0.3066 -0.1725
  267MOL0     C36720   2.029   9.222   8.827  0.1508  0.2485  0.1734
  267MOL0     C36721   2.145   9.305   8.883 -0.1758  0.8157  0.3632
  267MOL0     C36722   2.193   9.405   8.775 -0.8071  0.3061 -0.5024
  267MOL0     C36723   2.261   9.327   8.661 -0.3507 -0.2409 -1.0276
  267MOL0     C36724   2.402   9.283   8.702  0.2920  0.3091  0.0565
  267MOL0     N36725   2.461   9.209   8.588  0.0281  0.1476  0.0906
  267MOL0     C36726   2.569   9.257   8.524  0.6200  0.4129 -0.4714
  267MOL0     C36727   2.611   9.159   8.439 -0.1814  0.4755 -0.0910
  267MOL0     C36728   2.724   9.161   8.339  0.4484 -0.1029 -0.6597
  267MOL0     C36729   2.853   9.211   8.394 -0.2817  0.7603  0.3059
  267MOL0     C36730   2.962   9.219   8.274  0.1464  0.3454 -0.4483
  267MOL0     C36731   3.105   9.232   8.338 -0.1246  0.2709  0.0436
  267MOL0     O36732   3.099   9.337   8.439 -0.3421 -0.6934  0.9158
  267MOL0     C36733   3.210   9.356   8.520 -0.3351  0.2410 -0.7763
  267MOL0     C36734   3.337   9.287   8.511 -0.2970  0.0393 -0.1222
  267MOL0     C36735   3.444   9.321   8.591 -0.5003 -0.1047 -0.1784
  267MOL0     C36736   3.571   9.240   8.569  0.1990 -0.6842  0.3609
  267MOL0     C36737   3.428   9.429   8.680 -0.5565  0.3748 -0.3367
  267MOL0     C36738   3.545   9.477   8.745 -1.3302  0.0683  0.1783
  267MOL0     O36739   3.657   9.510   8.671  0.7402  0.0732 -0.4160
  267MOL0     C36740   3.769   9.506   8.743  0.3521  0.0756 -0.3164
  267MOL0     C36741   3.822   9.617   8.798 -0.1793 -0.6431 -0.7190
  267MOL0     C36742   3.940   9.612   8.877  0.6016 -0.6502  0.1195
  267MOL0     C36743   4.005   9.488   8.902  0.3596  0.2231 -0.0167
  267MOL0     O36744   4.116   9.499   8.979  0.4718 -1.1785  0.2558
  267MOL0     C36745   4.233   9.408   8.971  0.9920 -0.8037  1.2914
  267MOL0     C36746   4.364   9.476   9.017 -0.4830 -0.5014 -0.7162
  267MOL0     C36747   4.349   9.506   9.176 -0.0999 -0.6883  0.5163
  267MOL0     C36748   4.473   9.565   9.242 -1.1303 -0.3879 -0.6543
  267MOL0     C36749   4.466   9.578   9.400 -0.3361  0.3796  0.6862
  267MOL0     C36750   4.612   9.577   9.457 -0.5758  0.1430  0.1589
  267MOL0     C36751   4.604   9.599   9.602  0.6236 -0.0787 -0.2423
  267MOL0     C36752   4.662   9.737   9.642  0.2091 -0.0228  0.3817
  267MOL0    Cl36753   4.660   9.738   9.821 -0.0562 -0.0819 -0.1812
  267MOL0     C36754   3.953   9.370   8.843  0.4977  0.1073 -0.2894
  267MOL0     C36755   3.831   9.384   8.771 -0.2178 -0.6634  0.2537
  267MOL0     O36756   3.533   9.485   8.870  0.5563  0.5472  0.2960
  267MOL0     C36757   3.301   9.486   8.701  0.1256  0.2139  0.5767
  267MOL0     C36758   3.193   9.455   8.617  0.5118  0.6536  0.1312
  267MOL0     N36759   2.512   9.059   8.444  0.0320 -0.3658 -0.2113
  267MOL0     N36760   2.425   9.088   8.532  0.0728 -0.5797 -0.1809
  267MOL0     C36761   1.425   8.980   8.777 -0.0782 -0.9405  0.4454
  267MOL0     C36762   1.309   8.998   8.705 -0.4145  0.1089 -0.2351
  267MOL0     C36763   0.941   9.145   8.504 -0.0280  0.1125 -0.0878
  267MOL0     C36764   0.958   9.224   8.393  0.5590  0.1750 -0.7233
  267MOL0     C36765   0.863   9.278   8.308  0.2526  0.0205 -0.2386
  267MOL0     C36766   0.735   9.229   8.316  0.4871  1.1533 -0.7060
  267MOL0     O36767   0.642   9.272   8.222 -0.3144 -0.1061 -0.2387
  267MOL0     C36768   0.501   9.237   8.242  0.7914  0.1356 -0.2109
  267MOL0     C36769   0.431   9.317   8.135  0.1979 -0.3346  0.0700
  267MOL0     C36770   0.434   9.468   8.155  0.4239  0.7876 -0.0604
  267MOL0     C36771   0.317   9.535   8.095 -0.3538 -0.1330  0.6763
  267MOL0     C36772   0.297   9.502   7.949  1.1353 -0.7407  0.0043
  267MOL0     C36773   0.300   9.474   7.837  0.0849  0.1075  0.3345
  267MOL0     C36774   0.707   9.135   8.425 -0.3592 -0.1375  0.1969
  267MOL0     C36775   0.808   9.094   8.519 -0.3259 -0.0923 -0.4722
  267MOL0     C36776   0.759   9.003   8.631  0.4030 -0.1851  0.5041
  267MOL0     H36777   1.407   9.246   8.494  1.4968 -1.1200 -1.6440
  267MOL0     H36778   1.629   9.211   8.615  2.8803 -4.1914 -1.5055
  267MOL0     H36779   1.695   9.151   8.959 -1.2828 -2.0279 -0.3119
  267MOL0     H36780   1.740   9.189   8.789 -1.1588  0.7649  0.6208
  267MOL0     H36781   1.840   8.967   8.969 -2.9866  0.1063 -0.5750
  267MOL0     H36782   1.898   8.992   8.811  1.6435  1.5639 -0.3391
  267MOL0     H36783   1.911   9.237   9.002  0.3526  0.5475 -0.8744
  267MOL0     H36784   2.039   9.108   9.007 -0.3851 -0.3506  0.0348
  267MOL0     H36785   2.061   9.143   8.759 -2.7372  0.1364 -1.2385
  267MOL0     H36786   1.956   9.280   8.770 -0.3434 -1.0404 -0.5548
  267MOL0     H36787   2.225   9.239   8.918  0.3493  2.4685  2.4720
  267MOL0     H36788   2.114   9.370   8.965 -2.1578  0.1673  0.1638
  267MOL0     H36789   2.110   9.464   8.736  0.6656  1.2228 -2.4364
  267MOL0     H36790   2.264   9.478   8.815  1.0787 -0.5378 -2.1034
  267MOL0     H36791   2.276   9.393   8.575  0.1594  2.8112  1.2720
  267MOL0     H36792   2.197   9.247   8.622  0.8930 -1.1084 -1.3515
  267MOL0     H36793   2.464   9.371   8.725 -0.8242  0.7264  1.6811
  267MOL0     H36794   2.403   9.218   8.790  0.6727  0.5386  0.2253
  267MOL0     H36795   2.634   9.343   8.539  0.9187  0.1485 -0.2101
  267MOL0     H36796   2.693   9.234   8.263  0.3419  0.1614 -0.3598
  267MOL0     H36797   2.743   9.063   8.293  1.5619  0.4605 -1.4561
  267MOL0     H36798   2.838   9.310   8.437  0.4344  0.0389  2.3826
  267MOL0     H36799   2.888   9.149   8.478 -1.2667  1.1038  0.9867
  267MOL0     H36800   2.958   9.134   8.206  0.7427 -0.6903  0.7849
  267MOL0     H36801   2.944   9.310   8.214 -0.6597  1.0362  0.7969
  267MOL0     H36802   3.137   9.134   8.374  1.3497  1.7663  3.1433
  267MOL0     H36803   3.174   9.266   8.261  1.1587  1.4081  1.6238
  267MOL0     H36804   3.362   9.206   8.443  0.4489 -1.6090  1.9930
  267MOL0     H36805   3.615   9.192   8.657  0.4613 -0.7574  0.1922
  267MOL0     H36806   3.649   9.300   8.521  0.0114  0.3723  1.3222
  267MOL0     H36807   3.559   9.156   8.501  2.6893 -0.0142 -1.0028
  267MOL0     H36808   3.776   9.715   8.791 -2.0548 -0.9615  3.5926
  267MOL0     H36809   3.983   9.704   8.915 -0.7060  0.4043 -0.8469
  267MOL0     H36810   4.219   9.323   9.038 -2.0668 -0.7629  0.8421
  267MOL0     H36811   4.230   9.382   8.865 -0.5504 -0.9293  1.3390
  267MOL0     H36812   4.444   9.402   9.009 -0.0657 -0.3332  1.4102
  267MOL0     H36813   4.400   9.566   8.966 -0.3964  0.3472  0.7946
  267MOL0     H36814   4.329   9.409   9.223  3.3603 -0.5945  2.4869
  267MOL0     H36815   4.271   9.581   9.193 -0.2373 -0.4985 -0.8611
  267MOL0     H36816   4.489   9.659   9.188  2.5435 -2.1962 -3.1451
  267MOL0     H36817   4.554   9.495   9.221 -2.1662 -1.9421  0.2731
  267MOL0     H36818   4.424   9.676   9.422  2.3141  1.7783 -0.0579
  267MOL0     H36819   4.410   9.496   9.446 -1.4352 -0.5274 -2.0792
  267MOL0     H36820   4.662   9.653   9.398 -1.9825 -0.3450 -1.7604
  267MOL0     H36821   4.649   9.475   9.446  0.4457  0.2493  2.1932
  267MOL0     H36822   4.659   9.524   9.659 -0.0605  0.6474  1.4383
  267MOL0     H36823   4.501   9.594   9.637  0.7607  1.5855  0.5344
  267MOL0     H36824   4.604   9.821   9.603 -1.3155 -1.8868 -1.6314
  267MOL0     H36825   4.767   9.753   9.614  0.2167 -1.2207 -0.3290
  267MOL0     H36826   4.010   9.279   8.858  0.9899  0.8316  3.0519
  267MOL0     H36827   3.806   9.297   8.710 -0.9045 -0.7681  0.6795
  267MOL0     H36828   3.303   9.578   8.759  2.2204 -0.7017  2.0950
  267MOL0     H36829   3.101   9.513   8.611 -0.1490 -0.4343 -0.7377
  267MOL0     H36830   1.430   8.902   8.852 -0.9975 -2.5913 -1.1449
  267MOL0     H36831   1.217   8.946   8.728 -0.4402 -0.1812 -0.9684
  267MOL0     H36832   1.057   9.264   8.376  0.7282  1.0144  1.7814
  267MOL0     H36833   0.904   9.347   8.235  1.1449  1.1611  1.2988
  267MOL0     H36834   0.486   9.130   8.229 -0.2185  0.2227  0.1253
  267MOL0     H36835   0.473   9.266   8.344  2.5597  0.9813  0.0774
  267MOL0     H36836   0.327   9.284   8.134 -0.1185  0.3113  2.7907
  267MOL0     H36837   0.471   9.293   8.036  2.1431 -1.4652  1.0680
  267MOL0     H36838   0.448   9.508   8.256 -0.5392 -1.3822  0.9800
  267MOL0     H36839   0.524   9.504   8.104  0.8171  1.4038  1.0271
  267MOL0     H36840   0.328   9.644   8.096  2.7301 -0.3577 -0.1548
  267MOL0     H36841   0.231   9.511   8.158 -0.1035 -1.6981  0.4681
  267MOL0     H36842   0.306   9.453   7.732 -1.0825  0.1797  0.2371
  267MOL0     H36843   0.608   9.091   8.423 -0.7172  0.5916  1.1984
  267MOL0     H36844   0.836   8.926   8.640  1.1841  0.8224  4.0467
  267MOL0     H36845   0.779   9.047   8.730 -1.8624  1.0427  0.4841
  267MOL0     H36846   0.657   8.965   8.634 -0.9751  3.0011  4.4320
  268MOL0     O36847   2.137   6.453  11.359 -0.2052  0.3051 -0.3992
  268MOL0     C36848   2.146   6.495  11.244 -0.1438  0.5986 -1.3108
  268MOL0     O36849   2.113   6.620  11.205  0.2882  0.2409 -0.2070
  268MOL0     C36850   2.019   6.704  11.270 -0.4381  0.0368 -0.2375
  268MOL0     C36851   2.022   6.839  11.226  0.7962 -0.4597  1.1184
  268MOL0     C36852   1.931   6.930  11.286 -0.4841 -0.0889 -0.4481
  268MOL0     C36853   1.837   6.897  11.385 -0.2561 -0.1631  0.0706
  268MOL0     O36854   1.752   6.988  11.440  0.3277 -0.2206 -0.3754
  268MOL0     C36855   1.712   7.097  11.357  0.6701  0.1802 -1.3839
  268MOL0     C36856   1.588   7.158  11.422 -0.5504  0.5090 -0.0884
  268MOL0     C36857   1.460   7.066  11.397 -0.4283 -0.1373  0.0739
  268MOL0     C36858   1.331   7.126  11.461  0.3341 -0.4026  0.1292
  268MOL0     C36859   1.208   7.030  11.456 -0.3593 -0.6129  0.1352
  268MOL0     C36860   1.095   7.102  11.530 -0.7355  0.0548  0.5801
  268MOL0     C36861   0.961   7.019  11.515 -0.5566 -0.1861  0.3232
  268MOL0     C36862   0.845   7.102  11.573 -0.8740  0.1327  0.0553
  268MOL0     N36863   0.817   7.071  11.717 -0.1747 -0.6776  0.7584
  268MOL0     C36864   0.830   7.160  11.823 -0.6415  0.4369 -0.7859
  268MOL0     C36865   0.739   7.113  11.914 -0.2439  0.2856  0.3898
  268MOL0     C36866   0.699   7.180  12.050 -0.4982  0.1622  0.2161
  268MOL0     C36867   0.813   7.231  12.131 -0.3186  0.5771 -0.6682
  268MOL0     C36868   0.827   7.161  12.276 -0.1124  0.0638  0.3114
  268MOL0     C36869   0.977   7.145  12.308  0.6093 -0.1949  0.3761
  268MOL0     O36870   0.986   7.104  12.440  0.5334  0.3598 -0.3681
  268MOL0     C36871   1.093   7.152  12.505  0.4959  0.0399 -0.3974
  268MOL0     C36872   1.077   7.218  12.623 -0.4642  0.0592 -0.3719
  268MOL0     C36873   1.176   7.283  12.697  0.6872  0.4127 -0.9245
  268MOL0     C36874   1.121   7.354  12.821  0.0658 -0.0220 -0.2332
  268MOL0     C36875   1.310   7.279  12.662 -0.2471 -0.6336  1.1702
  268MOL0     C36876   1.426   7.329  12.737  0.7447 -0.3982 -0.1352
  268MOL0     O36877   1.550   7.336  12.671  0.6754  0.9474 -0.4288
  268MOL0     C36878   1.646   7.348  12.766 -0.9471 -0.2130 -0.4959
  268MOL0     C36879   1.693   7.237  12.839 -0.3995  0.2293 -0.7690
  268MOL0     C36880   1.797   7.246  12.926  0.1172  0.0971  0.3999
  268MOL0     C36881   1.854   7.372  12.957  0.7561 -0.0752 -0.1723
  268MOL0     O36882   1.950   7.388  13.050 -1.6810 -0.0278  0.1144
  268MOL0     C36883   1.938   7.345  13.188 -0.3864  1.1786 -0.4978
  268MOL0     C36884   1.793   7.369  13.232  0.8002  0.1601 -0.1934
  268MOL0     C36885   1.767   7.509  13.247  0.9564 -0.3330 -0.1791
  268MOL0     C36886   1.612   7.537  13.275 -0.1105  0.7985  0.3097
  268MOL0     C36887   1.570   7.684  13.249 -0.7136  0.1758  0.0570
  268MOL0     C36888   1.567   7.744  13.109 -0.4243  0.1204  0.5449
  268MOL0     C36889   1.477   7.664  13.017  0.0533 -0.4571  0.0447
  268MOL0     C36890   1.481   7.726  12.884  0.1854 -0.1736  0.0623
  268MOL0    Cl36891   1.368   7.674  12.772 -0.5388  0.2909 -0.1174
  268MOL0     C36892   1.804   7.485  12.889 -0.5642  0.2374 -0.3571
  268MOL0     C36893   1.705   7.475  12.794 -0.2906  0.3612 -0.0809
  268MOL0     O36894   1.405   7.343  12.862 -0.0838 -0.1895  1.2104
  268MOL0     C36895   1.338   7.202  12.544  0.3414 -0.2929  0.0737
  268MOL0     C36896   1.231   7.145  12.474 -0.3952 -0.1945 -0.5395
  268MOL0     N36897   0.690   6.992  11.872  0.0781  0.2545 -0.4247
  268MOL0     N36898   0.747   6.962  11.756  0.4820  1.1867  0.0056
  268MOL0     C36899   1.853   6.767  11.438  0.0192 -0.2708 -0.2187
  268MOL0     C36900   1.935   6.669  11.383 -0.0135  0.5834  0.5197
  268MOL0     C36901   2.204   6.404  11.145 -0.5981 -0.4908 -0.1651
  268MOL0     C36902   2.308   6.463  11.065  0.2963 -0.3489  0.1284
  268MOL0     C36903   2.376   6.384  10.972 -0.1834 -0.0942  1.0084
  268MOL0     C36904   2.362   6.245  10.961  0.1612  0.4390  0.6219
  268MOL0     O36905   2.442   6.188  10.864 -0.4361  0.9039 -0.0837
  268MOL0     C36906   2.406   6.056  10.831  0.2872 -0.2185 -0.3334
  268MOL0     C36907   2.499   6.007  10.722 -0.9798  0.1633 -0.1672
  268MOL0     C36908   2.480   6.095  10.599 -0.1732 -0.3667 -1.0758
  268MOL0     C36909   2.347   6.065  10.526 -0.1592 -0.2975 -0.2711
  268MOL0     C36910   2.365   5.932  10.465  0.6336  0.2071 -0.0656
  268MOL0     C36911   2.383   5.823  10.413  0.3513  1.5828 -0.0775
  268MOL0     C36912   2.255   6.186  11.041 -0.2818  0.0697  0.2397
  268MOL0     C36913   2.182   6.268  11.133 -0.5357  0.0254  0.0751
  268MOL0     C36914   2.073   6.204  11.213  0.6622  0.1289 -0.1041
  268MOL0     H36915   2.075   6.864  11.135  1.8387  1.2159  2.1276
  268MOL0     H36916   1.935   7.035  11.258  0.3488 -0.4058 -1.5503
  268MOL0     H36917   1.688   7.071  11.254  1.0754  0.7166 -1.6250
  268MOL0     H36918   1.789   7.176  11.361  1.5499 -0.5338 -3.0938
  268MOL0     H36919   1.603   7.165  11.530  0.0530 -2.6812  0.1212
  268MOL0     H36920   1.563   7.258  11.384  0.9009  0.3508 -1.5487
  268MOL0     H36921   1.451   7.049  11.290  2.7242 -5.0917  0.2735
  268MOL0     H36922   1.488   6.968  11.437  1.5493 -0.8500 -2.8017
  268MOL0     H36923   1.359   7.142  11.566 -2.9312  0.2515  1.0431
  268MOL0     H36924   1.308   7.219  11.408  2.5379 -0.8081 -1.6528
  268MOL0     H36925   1.228   6.932  11.501  1.0611  1.4943  4.7182
  268MOL0     H36926   1.176   7.008  11.354  0.7879  0.2079 -0.4260
  268MOL0     H36927   1.121   7.093  11.636 -1.5009 -2.7674  0.6201
  268MOL0     H36928   1.081   7.206  11.498 -2.4892  0.0756  1.2773
  268MOL0     H36929   0.966   6.918  11.556 -2.7527 -0.9909 -1.2268
  268MOL0     H36930   0.944   7.008  11.407  0.3857  0.1448  0.1281
  268MOL0     H36931   0.864   7.210  11.564  1.4903 -0.2538 -0.3106
  268MOL0     H36932   0.755   7.086  11.513 -1.2579  0.1413  0.6167
  268MOL0     H36933   0.896   7.246  11.818  0.0606 -0.0965 -0.7326
  268MOL0     H36934   0.653   7.098  12.106  0.8346  0.2441  1.4746
  268MOL0     H36935   0.625   7.258  12.035  2.1742  2.6110 -1.3728
  268MOL0     H36936   0.908   7.211  12.082 -0.5459 -2.1180 -0.1618
  268MOL0     H36937   0.794   7.333  12.168 -5.1040 -0.7095  1.2208
  268MOL0     H36938   0.766   7.209  12.353 -0.4073 -0.4838  0.4284
  268MOL0     H36939   0.789   7.058  12.276  2.4752 -0.9887  0.7655
  268MOL0     H36940   1.015   7.065  12.243  0.4780 -1.2722  1.5718
  268MOL0     H36941   1.031   7.236  12.284  2.8655 -0.9170  2.3430
  268MOL0     H36942   0.974   7.227  12.656 -0.6275  0.7908 -1.0395
  268MOL0     H36943   1.019   7.386  12.797 -0.0780  0.1415  0.5544
  268MOL0     H36944   1.172   7.442  12.860  0.6206  0.0249 -1.0413
  268MOL0     H36945   1.118   7.279  12.901  2.4781  1.9044  1.8348
  268MOL0     H36946   1.651   7.141  12.811 -0.0111 -0.6321  1.4159
  268MOL0     H36947   1.837   7.157  12.973 -1.8213 -1.3506 -0.5570
  268MOL0     H36948   1.954   7.238  13.206  0.5293  1.4695  0.4832
  268MOL0     H36949   2.015   7.398  13.245  0.2270  2.9420 -2.8228
  268MOL0     H36950   1.730   7.321  13.157 -0.4038  2.4377 -0.7237
  268MOL0     H36951   1.780   7.323  13.331 -0.8929  1.9106  0.4559
  268MOL0     H36952   1.802   7.560  13.156  0.1983  0.8960  0.2035
  268MOL0     H36953   1.826   7.547  13.331  0.3436  1.0646 -0.3498
  268MOL0     H36954   1.591   7.520  13.381  3.8135 -1.4115  0.9128
  268MOL0     H36955   1.562   7.478  13.197  1.3054  0.8775 -0.6962
  268MOL0     H36956   1.467   7.681  13.286 -0.3801  0.2236  1.0358
  268MOL0     H36957   1.633   7.749  13.311  2.9370 -1.6305 -1.4706
  268MOL0     H36958   1.667   7.752  13.064  0.0207  0.1316  1.5121
  268MOL0     H36959   1.531   7.844  13.135  1.2072  0.6480  0.9459
  268MOL0     H36960   1.375   7.666  13.056  0.5996 -3.1984  1.8874
  268MOL0     H36961   1.501   7.559  12.998 -1.9021 -0.9666  0.1525
  268MOL0     H36962   1.578   7.690  12.847 -0.2121  0.0571 -1.2737
  268MOL0     H36963   1.471   7.835  12.874 -2.6427 -0.2142  1.5552
  268MOL0     H36964   1.847   7.584  12.907  0.1543  0.5820 -3.4484
  268MOL0     H36965   1.682   7.560  12.731 -0.6144  1.1754  1.0888
  268MOL0     H36966   1.440   7.200  12.508  0.1729  0.0188 -0.4410
  268MOL0     H36967   1.266   7.078  12.396 -0.1857 -1.2061  0.3800
  268MOL0     H36968   1.776   6.742  11.511  1.9932 -1.4958  1.5647
  268MOL0     H36969   1.920   6.566  11.416  1.1579  0.4218  0.5867
  268MOL0     H36970   2.308   6.570  11.084 -2.0736 -0.0719 -1.0111
  268MOL0     H36971   2.447   6.440  10.912 -2.5215  1.8593 -0.1190
  268MOL0     H36972   2.420   5.997  10.923  1.0939  0.1641 -0.1978
  268MOL0     H36973   2.301   6.049  10.803  0.7219  0.7745 -2.3652
  268MOL0     H36974   2.471   5.903  10.702 -0.0665 -0.1030 -0.0698
  268MOL0     H36975   2.602   6.010  10.758  0.2504  1.7509 -3.3756
  268MOL0     H36976   2.485   6.202  10.623  2.4289 -0.9169  1.4475
  268MOL0     H36977   2.561   6.073  10.529 -1.4290 -2.2911 -1.9771
  268MOL0     H36978   2.329   6.134  10.444 -0.8467 -1.0645 -0.7829
  268MOL0     H36979   2.260   6.074  10.592  1.2914 -0.7302  1.8017
  268MOL0     H36980   2.383   5.737  10.350 -1.5834 -0.1212  2.0508
  268MOL0     H36981   2.221   6.085  11.022  0.5807 -0.1463 -0.1588
  268MOL0     H36982   1.976   6.254  11.201 -1.3020 -2.8862  1.8483
  268MOL0     H36983   2.061   6.099  11.184 -0.0808  0.6398 -1.7721
  268MOL0     H36984   2.091   6.206  11.321 -1.6757  2.6949  0.3581
  269MOL0     O36985   4.838   5.329   3.308  0.5160 -0.3379 -0.1675
  269MOL0     C36986   4.888   5.437   3.269  0.6037  1.0216  0.2473
  269MOL0     O36987   4.860   5.496   3.150 -0.4257 -0.0931 -0.2222
  269MOL0     C36988   4.731   5.474   3.103  0.6142 -0.4295  0.8366
  269MOL0     C36989   4.678   5.346   3.070  0.3679 -0.3142 -0.5356
  269MOL0     C36990   4.542   5.326   3.050 -0.1089 -0.0265  0.7146
  269MOL0     C36991   4.452   5.442   3.040 -0.4625  0.1333 -0.3573
  269MOL0     O36992   4.320   5.428   3.004  0.7079  0.1265  0.0152
  269MOL0     C36993   4.284   5.318   2.921 -0.3841 -0.1548 -0.1040
  269MOL0     C36994   4.151   5.350   2.849  0.8235 -0.0222  0.3749
  269MOL0     C36995   4.110   5.255   2.736  0.5423 -0.7248 -0.5499
  269MOL0     C36996   4.097   5.121   2.801 -0.4107 -0.3147 -0.8786
  269MOL0     C36997   4.021   5.013   2.720 -1.0073 -0.3142  0.5741
  269MOL0     C36998   4.042   4.872   2.786 -0.2973 -0.0809  0.1038
  269MOL0     C36999   3.946   4.765   2.725 -0.0496 -0.9491 -0.3697
  269MOL0     C37000   3.797   4.778   2.761 -0.1273 -0.2219  0.6450
  269MOL0     N37001   3.779   4.772   2.904  1.2463 -0.3395  0.0693
  269MOL0     C37002   3.706   4.865   2.975 -0.4542 -0.3372 -0.1192
  269MOL0     C37003   3.712   4.831   3.105  1.0167 -0.2704  0.6787
  269MOL0     C37004   3.641   4.903   3.213 -0.0105 -1.0310  0.5007
  269MOL0     C37005   3.486   4.872   3.223 -0.5226  0.6069 -0.3317
  269MOL0     C37006   3.400   4.929   3.106  0.6046 -0.4014 -1.1170
  269MOL0     C37007   3.259   4.951   3.150  0.7693  0.3346  0.4138
  269MOL0     O37008   3.196   4.998   3.029  0.1523  0.0445 -0.0759
  269MOL0     C37009   3.061   4.991   3.020 -0.3081  0.0626  0.3924
  269MOL0     C37010   3.013   5.048   2.908 -0.2492 -0.2777  0.3972
  269MOL0     C37011   2.875   5.059   2.880 -0.3170 -0.3429  0.4753
  269MOL0     C37012   2.834   5.136   2.758  0.4459  0.9193 -0.3701
  269MOL0     C37013   2.783   4.993   2.963  0.0224  0.0891  0.1213
  269MOL0     C37014   2.640   4.984   2.937 -0.1964 -0.4377 -0.3111
  269MOL0     O37015   2.568   5.064   2.842  0.1459 -0.4433  0.6542
  269MOL0     C37016   2.434   5.051   2.834  0.5659  0.1788  1.5364
  269MOL0     C37017   2.354   5.109   2.926  0.6858  0.4560  0.6192
  269MOL0     C37018   2.214   5.094   2.915 -0.4647  0.3135 -0.7065
  269MOL0     C37019   2.157   5.006   2.819  0.2733 -0.5696  1.1020
  269MOL0     O37020   2.019   4.992   2.814  0.0068 -0.2403  0.4221
  269MOL0     C37021   1.955   4.981   2.683  0.0595 -0.5759 -0.0542
  269MOL0     C37022   1.800   4.975   2.699 -1.9998 -0.2480 -0.4353
  269MOL0     C37023   1.740   5.000   2.561 -0.3797 -0.8172  0.0852
  269MOL0     C37024   1.723   4.870   2.480 -0.3152 -0.5672  0.1404
  269MOL0     C37025   1.686   4.888   2.334  0.1314  0.1625  0.2957
  269MOL0     C37026   1.697   4.756   2.257 -0.3197  0.2813 -0.7409
  269MOL0     C37027   1.655   4.778   2.115 -0.3010  0.0414 -0.2744
  269MOL0     C37028   1.657   4.656   2.023 -0.2654 -0.1419 -0.4380
  269MOL0    Cl37029   1.828   4.631   1.963  0.0713 -0.0088  0.2936
  269MOL0     C37030   2.240   4.957   2.720  0.3841 -0.0143 -0.1942
  269MOL0     C37031   2.377   4.971   2.737  0.1023 -0.4513  0.2517
  269MOL0     O37032   2.583   4.902   3.009  0.2661  0.6883  0.1271
  269MOL0     C37033   2.833   4.949   3.079 -0.0429  0.3382  0.4297
  269MOL0     C37034   2.970   4.937   3.114  0.0886 -0.5060  0.5288
  269MOL0     N37035   3.773   4.711   3.108 -0.6358 -0.3578  0.3897
  269MOL0     N37036   3.812   4.679   2.991 -0.4016  0.0716  0.1944
  269MOL0     C37037   4.514   5.559   3.068  0.9140  0.3557 -0.2007
  269MOL0     C37038   4.644   5.579   3.103  0.5590 -0.4012 -0.8082
  269MOL0     C37039   4.992   5.488   3.345  0.7609 -1.4113 -0.3129
  269MOL0     C37040   5.108   5.523   3.277 -0.9764  0.3468 -0.6753
  269MOL0     C37041   5.225   5.562   3.345 -0.6553 -0.7176  0.5196
  269MOL0     C37042   5.216   5.573   3.487 -0.5335 -0.4701  0.9641
  269MOL0     O37043   5.337   5.611   3.539  0.1734 -0.0164  0.5961
  269MOL0     C37044   5.318   5.716   3.639  0.3052 -0.4185  0.5645
  269MOL0     C37045   5.463   5.763   3.689  1.0901 -0.0490  0.5413
  269MOL0     C37046   5.537   5.650   3.775  0.3191  0.6696 -0.1506
  269MOL0     C37047   5.480   5.639   3.918  0.7186  0.6587 -0.5188
  269MOL0     C37048   5.535   5.524   3.983  0.2014  0.6594 -0.5877
  269MOL0     C37049   5.594   5.444   4.046  0.4113 -0.2265 -0.1669
  269MOL0     C37050   5.101   5.549   3.555  0.8803 -0.6283 -0.0413
  269MOL0     C37051   4.985   5.512   3.483 -0.0133 -0.0157  0.2869
  269MOL0     C37052   4.861   5.482   3.562  0.1835 -0.2616 -0.2294
  269MOL0     H37053   4.751   5.265   3.073  2.6734  1.6583  0.4566
  269MOL0     H37054   4.506   5.227   3.024 -2.3969  0.5622  1.4213
  269MOL0     H37055   4.284   5.218   2.967  2.3689 -0.1597  0.0905
  269MOL0     H37056   4.355   5.312   2.838  1.7624  1.1736  1.5262
  269MOL0     H37057   4.064   5.356   2.916 -1.1004  2.0926 -2.0811
  269MOL0     H37058   4.155   5.450   2.804 -1.2277  0.0422  0.2203
  269MOL0     H37059   4.011   5.291   2.706 -0.1504 -2.2956 -0.2555
  269MOL0     H37060   4.182   5.255   2.654  0.6375 -0.7877 -0.4670
  269MOL0     H37061   4.194   5.075   2.823 -0.7282 -0.0624  1.2629
  269MOL0     H37062   4.056   5.148   2.899  0.6285  1.3622 -0.8774
  269MOL0     H37063   4.056   5.019   2.616  1.4178 -0.6789  1.2955
  269MOL0     H37064   3.915   5.038   2.714 -0.9183 -0.0471  0.0422
  269MOL0     H37065   4.140   4.827   2.770 -0.2869  0.9067 -3.3680
  269MOL0     H37066   4.031   4.877   2.895  1.1575  0.6941  0.2363
  269MOL0     H37067   3.980   4.667   2.760  1.7164  0.7988  3.2822
  269MOL0     H37068   3.952   4.778   2.616  1.7365 -0.8536 -0.2912
  269MOL0     H37069   3.762   4.868   2.711  0.3874  0.4383  1.4479
  269MOL0     H37070   3.753   4.686   2.721  2.4046 -1.0083 -0.5411
  269MOL0     H37071   3.638   4.936   2.930 -0.7607  1.0316  2.3500
  269MOL0     H37072   3.646   5.012   3.206  2.4750 -1.0807  0.7490
  269MOL0     H37073   3.692   4.876   3.306 -0.5486  1.8571  1.7488
  269MOL0     H37074   3.474   4.764   3.237 -1.8925  0.6667 -0.9370
  269MOL0     H37075   3.459   4.913   3.321 -1.1219 -0.2636 -0.1204
  269MOL0     H37076   3.442   5.019   3.061 -0.6141 -0.3447 -2.1901
  269MOL0     H37077   3.393   4.858   3.023 -3.9977 -0.6561 -0.8003
  269MOL0     H37078   3.210   4.862   3.190 -0.7792  0.2178 -1.5853
  269MOL0     H37079   3.256   5.040   3.213  0.2945  2.4047 -2.3206
  269MOL0     H37080   3.085   5.096   2.843 -0.5721 -1.7690 -1.1471
  269MOL0     H37081   2.779   5.226   2.788 -0.2710 -0.5613  3.2138
  269MOL0     H37082   2.774   5.070   2.695  0.5541 -0.6529  1.0981
  269MOL0     H37083   2.920   5.160   2.695  0.8716 -0.0782 -0.1772
  269MOL0     H37084   2.401   5.181   2.992 -0.5477  0.2075  1.8109
  269MOL0     H37085   2.145   5.148   2.979 -0.4103 -0.2491 -0.1565
  269MOL0     H37086   1.978   5.069   2.622 -0.1622 -0.8892 -0.6000
  269MOL0     H37087   1.986   4.894   2.624  1.9254  0.3307 -0.4869
  269MOL0     H37088   1.770   4.882   2.749  1.2245 -0.1186  2.0522
  269MOL0     H37089   1.762   5.053   2.765 -0.8842  2.2854 -2.6121
  269MOL0     H37090   1.794   5.079   2.507  2.6447 -0.7582  2.8688
  269MOL0     H37091   1.640   5.038   2.582  1.1336  1.3644  4.4283
  269MOL0     H37092   1.643   4.805   2.518 -0.4698 -0.7625 -0.5118
  269MOL0     H37093   1.818   4.814   2.480  1.2337  1.9194  0.3693
  269MOL0     H37094   1.588   4.936   2.322  0.6606  0.7146 -2.4052
  269MOL0     H37095   1.754   4.961   2.290 -0.8544  0.0493 -1.5081
  269MOL0     H37096   1.642   4.677   2.309 -0.5166  0.9356  0.0474
  269MOL0     H37097   1.800   4.719   2.265  0.9180  3.8149  3.5590
  269MOL0     H37098   1.716   4.862   2.080  1.4308 -0.7192  0.8046
  269MOL0     H37099   1.548   4.802   2.107 -0.9352 -2.7985 -1.6121
  269MOL0     H37100   1.587   4.677   1.942  0.5821  0.3653 -1.0494
  269MOL0     H37101   1.635   4.563   2.077 -0.9140 -0.0975 -0.6168
  269MOL0     H37102   2.199   4.899   2.638 -0.1715 -2.1311  1.5086
  269MOL0     H37103   2.448   4.929   2.666  2.8496  4.1589 -0.1371
  269MOL0     H37104   2.754   4.920   3.147  0.5860 -1.4860  0.4391
  269MOL0     H37105   3.009   4.906   3.210  3.3500  1.2319 -0.0892
  269MOL0     H37106   4.450   5.647   3.072 -0.4283 -0.5981  0.2280
  269MOL0     H37107   4.672   5.677   3.141 -0.2001  0.1753 -1.7039
  269MOL0     H37108   5.111   5.518   3.169  0.0861 -0.3730 -0.6168
  269MOL0     H37109   5.318   5.595   3.299 -0.8918  1.9013  1.7554
  269MOL0     H37110   5.264   5.796   3.587  1.1713 -0.4922 -0.4653
  269MOL0     H37111   5.252   5.689   3.722 -0.4234  1.9076  0.8153
  269MOL0     H37112   5.458   5.844   3.762  1.3876  0.8941 -0.4673
  269MOL0     H37113   5.537   5.778   3.609  0.1290 -0.1157 -0.3787
  269MOL0     H37114   5.519   5.559   3.718  1.2614 -0.6973  1.6393
  269MOL0     H37115   5.646   5.658   3.772  0.4246 -0.5956 -3.6442
  269MOL0     H37116   5.372   5.629   3.912  0.5232  2.1887 -0.1054
  269MOL0     H37117   5.505   5.732   3.971  2.3931  1.0279 -1.8690
  269MOL0     H37118   5.633   5.369   4.112  1.0334 -0.0561 -0.3368
  269MOL0     H37119   5.104   5.561   3.663 -2.6557 -0.4846  0.1434
  269MOL0     H37120   4.788   5.562   3.546 -0.8079 -0.6616  1.8812
  269MOL0     H37121   4.812   5.388   3.536  1.4249 -0.3893 -2.2958
  269MOL0     H37122   4.883   5.479   3.669  1.7284  4.1244 -0.2284
  270MOL0     O37123   8.356  10.407   3.409 -0.1598  0.1270 -0.4379
  270MOL0     C37124   8.331  10.292   3.447 -0.1410  0.2678 -0.7828
  270MOL0     O37125   8.408  10.213   3.533 -0.5682 -0.8681  0.0292
  270MOL0     C37126   8.538  10.239   3.553  0.3587 -0.4776  0.0230
  270MOL0     C37127   8.577  10.347   3.625 -0.6060 -0.4230 -0.5784
  270MOL0     C37128   8.707  10.369   3.654 -0.4977 -0.8943 -0.0754
  270MOL0     C37129   8.815  10.282   3.624 -0.0194 -0.1690  0.2147
  270MOL0     O37130   8.943  10.308   3.668 -0.5628 -0.6738  0.7048
  270MOL0     C37131   8.937  10.342   3.807 -0.2259  0.1135  0.2499
  270MOL0     C37132   9.079  10.331   3.865 -0.5100 -0.7032  0.5219
  270MOL0     C37133   9.136  10.191   3.876  0.6833 -0.2082 -0.1211
  270MOL0     C37134   9.267  10.188   3.946 -0.4412 -0.2301  0.4314
  270MOL0     C37135   9.314  10.034   3.971 -0.9470 -0.4968 -0.0955
  270MOL0     C37136   9.372   9.976   3.848  0.3440  0.3552 -1.1436
  270MOL0     C37137   9.412   9.836   3.884 -1.0522  0.6474 -0.2590
  270MOL0     C37138   9.525   9.796   3.789  0.6258 -0.1871  0.4722
  270MOL0     N37139   9.569   9.658   3.791 -0.0112  0.0360 -0.1529
  270MOL0     C37140   9.699   9.607   3.797  0.6871 -0.4832  0.4502
  270MOL0     C37141   9.675   9.477   3.830  0.1534 -0.3965  0.5949
  270MOL0     C37142   9.779   9.380   3.889 -0.1901 -0.0276  0.5336
  270MOL0     C37143   9.865   9.316   3.779 -0.2355  0.4573  0.7218
  270MOL0     C37144   9.934   9.195   3.831  0.3186 -0.3914  0.4835
  270MOL0     C37145  10.054   9.220   3.916  0.3427  0.4209 -0.5557
  270MOL0     O37146  10.154   9.291   3.840  0.0938  0.3293  0.2550
  270MOL0     C37147  10.267   9.211   3.837  0.2788  0.9746  0.2405
  270MOL0     C37148  10.312   9.165   3.717 -0.1361  0.1728 -0.2595
  270MOL0     C37149  10.426   9.080   3.701 -0.1030 -0.6581 -0.3269
  270MOL0     C37150  10.460   9.035   3.559  1.2924  0.0904 -0.9630
  270MOL0     C37151  10.509   9.061   3.821  0.7007  0.5839  0.8924
  270MOL0     C37152  10.628   8.973   3.830 -0.2710  1.2073 -0.7236
  270MOL0     O37153  10.669   8.939   3.957  0.5073  0.9726 -0.8095
  270MOL0     C37154  10.765   8.843   3.966 -0.7460  0.4393 -0.8016
  270MOL0     C37155  10.874   8.874   4.047 -0.8774 -0.0357  1.0344
  270MOL0     C37156  10.982   8.785   4.060  0.4783  0.6759 -0.2878
  270MOL0     C37157  10.977   8.656   4.002  0.2330  0.3460 -0.0857
  270MOL0     O37158  11.091   8.583   4.028 -0.5791  0.2397  1.7407
  270MOL0     C37159  11.107   8.450   3.972  0.9251  0.3083 -0.2898
  270MOL0     C37160  11.215   8.375   4.036  0.0801 -0.4576 -0.1806
  270MOL0     C37161  11.350   8.402   3.965 -0.4095  0.3136 -0.1245
  270MOL0     C37162  11.415   8.533   4.025  0.0290  0.3045 -0.9462
  270MOL0     C37163  11.548   8.564   3.946 -0.7022  0.8402 -0.5341
  270MOL0     C37164  11.639   8.669   4.016 -0.8026  0.6350  0.5620
  270MOL0     C37165  11.760   8.701   3.926  0.0958  0.1403 -0.2197
  270MOL0     C37166  11.844   8.811   3.988  0.2271  0.0252 -0.0028
  270MOL0    Cl37167  11.969   8.863   3.878 -0.0771 -0.3523 -0.0099
  270MOL0     C37168  10.872   8.621   3.917  0.4633 -0.7491 -0.2714
  270MOL0     C37169  10.772   8.722   3.891  0.2603 -0.3673  0.0503
  270MOL0     O37170  10.689   8.941   3.723  0.0690  0.2719 -0.8632
  270MOL0     C37171  10.461   9.129   3.942  0.2840  0.9396 -0.1429
  270MOL0     C37172  10.342   9.190   3.945  0.7482  0.2666 -0.6527
  270MOL0     N37173   9.542   9.447   3.816 -0.5823 -0.7535 -0.4697
  270MOL0     N37174   9.477   9.555   3.799  0.3183  0.5443 -0.2211
  270MOL0     C37175   8.782  10.169   3.544  0.6438 -0.1764  0.1366
  270MOL0     C37176   8.640  10.151   3.514 -0.2129  0.1547  0.6880
  270MOL0     C37177   8.211  10.232   3.397 -0.0557 -0.0284 -0.6393
  270MOL0     C37178   8.211  10.089   3.381  0.4361  0.1250  0.7960
  270MOL0     C37179   8.098  10.021   3.337  0.1360 -0.0223 -1.0985
  270MOL0     C37180   7.981  10.091   3.322 -1.0112  1.5551  0.0259
  270MOL0     O37181   7.867  10.025   3.288 -0.4644  0.1004 -0.6157
  270MOL0     C37182   7.856   9.878   3.293  0.2468  0.5549  0.5930
  270MOL0     C37183   7.714   9.841   3.251  1.0244  0.2371  1.1675
  270MOL0     C37184   7.607   9.881   3.357 -0.1043  0.2311 -0.3426
  270MOL0     C37185   7.481   9.814   3.301  0.2024 -0.8641 -0.5923
  270MOL0     C37186   7.381   9.819   3.409  0.6366 -0.5557 -0.0164
  270MOL0     C37187   7.304   9.831   3.503 -1.0926 -0.5137 -0.3948
  270MOL0     C37188   7.971  10.229   3.344 -0.4794 -0.2199  0.5815
  270MOL0     C37189   8.086  10.296   3.380  0.0661 -0.4590 -0.2056
  270MOL0     C37190   8.071  10.449   3.385 -0.2157 -0.1562 -0.7618
  270MOL0     H37191   8.501  10.414   3.664  0.0535 -0.8164  1.5234
  270MOL0     H37192   8.731  10.458   3.711  1.3906 -1.9531  0.9149
  270MOL0     H37193   8.874  10.269   3.859  0.5150  0.3256  1.5020
  270MOL0     H37194   8.895  10.442   3.826  0.8832  0.3231  1.8381
  270MOL0     H37195   9.139  10.393   3.797  1.6745 -2.1427  1.0585
  270MOL0     H37196   9.066  10.369   3.966 -1.8888  1.7694 -0.5002
  270MOL0     H37197   9.065  10.136   3.939  0.6751  3.0608  3.0572
  270MOL0     H37198   9.146  10.154   3.774  1.2541 -0.5471  0.0571
  270MOL0     H37199   9.343  10.241   3.889 -0.0976 -0.4525  0.6754
  270MOL0     H37200   9.261  10.237   4.044 -0.2862 -0.4106  0.5329
  270MOL0     H37201   9.225   9.978   4.004 -1.3592 -0.8904 -1.7435
  270MOL0     H37202   9.395  10.042   4.044 -0.2632 -1.4303 -0.7316
  270MOL0     H37203   9.295   9.976   3.769  1.7186 -0.4246 -2.5417
  270MOL0     H37204   9.459  10.034   3.815  1.5986  1.5333  3.5509
  270MOL0     H37205   9.324   9.772   3.884 -1.9350  1.7759  1.8797
  270MOL0     H37206   9.469   9.831   3.978 -2.9967 -0.2602  0.9351
  270MOL0     H37207   9.488   9.820   3.688  2.6656  0.4866 -0.1582
  270MOL0     H37208   9.612   9.861   3.800 -1.6175  3.4319 -1.3413
  270MOL0     H37209   9.799   9.649   3.789 -0.1566  1.3774 -1.4103
  270MOL0     H37210   9.731   9.297   3.941  1.0070  0.8399  3.1833
  270MOL0     H37211   9.848   9.435   3.953  2.6927 -1.0846 -1.4464
  270MOL0     H37212   9.803   9.292   3.692  0.3546 -1.4797  0.7789
  270MOL0     H37213   9.934   9.394   3.746 -0.1757 -0.0879 -0.5124
  270MOL0     H37214   9.862   9.128   3.878  0.4194  0.5976  2.1335
  270MOL0     H37215   9.972   9.134   3.749 -3.2057 -0.9875 -0.8784
  270MOL0     H37216  10.026   9.270   4.009  0.2659 -2.2705  0.9632
  270MOL0     H37217  10.080   9.120   3.951 -2.5986 -0.2064  0.0588
  270MOL0     H37218  10.257   9.183   3.625 -2.5493 -4.7514 -0.1050
  270MOL0     H37219  10.540   9.105   3.535 -0.7668  3.4005  0.9501
  270MOL0     H37220  10.386   9.045   3.479 -0.5823  2.3126  0.8912
  270MOL0     H37221  10.488   8.930   3.568 -1.8881 -0.9095 -1.3213
  270MOL0     H37222  10.885   8.970   4.095 -0.1292  2.0596 -2.9341
  270MOL0     H37223  11.075   8.805   4.112  1.7233  0.7265 -2.4202
  270MOL0     H37224  11.011   8.398   3.977 -0.3802  2.7123  1.2382
  270MOL0     H37225  11.145   8.457   3.869  0.4061 -3.9958 -0.9680
  270MOL0     H37226  11.226   8.401   4.142 -2.3125 -0.5640  0.1574
  270MOL0     H37227  11.195   8.268   4.030 -1.1899 -0.3462  1.2958
  270MOL0     H37228  11.335   8.415   3.858 -1.8939  0.3428  0.0671
  270MOL0     H37229  11.418   8.317   3.978 -1.3472 -0.5291 -0.6103
  270MOL0     H37230  11.436   8.513   4.131 -0.4491  0.3553 -0.8387
  270MOL0     H37231  11.351   8.621   4.024  1.6087  1.5414  0.2964
  270MOL0     H37232  11.612   8.476   3.935 -3.2370 -1.1827 -0.2021
  270MOL0     H37233  11.522   8.591   3.843 -1.3807 -3.2310 -1.5993
  270MOL0     H37234  11.678   8.644   4.114  0.3979  1.1159  0.2255
  270MOL0     H37235  11.579   8.760   4.022 -0.2767  1.1710 -1.4465
  270MOL0     H37236  11.728   8.750   3.834  0.9512 -0.7267 -0.9928
  270MOL0     H37237  11.828   8.618   3.903 -0.7790 -0.4530 -0.6742
  270MOL0     H37238  11.893   8.785   4.082  2.5741  3.2146 -0.1532
  270MOL0     H37239  11.784   8.895   4.022  2.9030  2.0400  0.0901
  270MOL0     H37240  10.848   8.521   3.880  1.8298 -1.7914  1.4758
  270MOL0     H37241  10.686   8.713   3.825 -0.3411  4.1048 -0.1155
  270MOL0     H37242  10.523   9.152   4.028  1.8935  1.1871 -1.3218
  270MOL0     H37243  10.304   9.242   4.033  3.2561  3.1826 -1.1391
  270MOL0     H37244   8.864  10.104   3.514  0.7567 -0.7350  1.5653
  270MOL0     H37245   8.607  10.063   3.459 -0.3323  2.1295 -2.6673
  270MOL0     H37246   8.304  10.038   3.401 -1.0065 -1.6677  3.5329
  270MOL0     H37247   8.093   9.917   3.306 -3.8363 -0.2314 -0.3159
  270MOL0     H37248   7.928   9.834   3.224  0.2929 -2.1622  2.2315
  270MOL0     H37249   7.875   9.826   3.387 -0.1720 -1.4420 -0.3909
  270MOL0     H37250   7.697   9.733   3.244  1.3339  0.1266  1.9998
  270MOL0     H37251   7.691   9.890   3.156  1.2448  0.2286  1.1090
  270MOL0     H37252   7.624   9.831   3.453  2.3374 -0.7872 -1.2260
  270MOL0     H37253   7.591   9.989   3.367 -1.5628  0.1486 -1.3695
  270MOL0     H37254   7.491   9.710   3.267  0.9649 -0.3893 -1.8671
  270MOL0     H37255   7.443   9.872   3.216  0.3485  0.9351  0.5407
  270MOL0     H37256   7.249   9.850   3.593 -0.5348 -1.0307  0.0626
  270MOL0     H37257   7.878  10.280   3.324  0.6555  2.5963  1.8832
  270MOL0     H37258   8.158  10.497   3.340 -0.4022  0.0043 -0.9587
  270MOL0     H37259   7.983  10.477   3.326 -1.9747 -1.0976  1.3000
  270MOL0     H37260   8.055  10.488   3.486 -1.7134  0.3744 -1.1769
  271MOL0     O37261   0.627   2.354   1.521 -0.5130  0.7941 -0.4273
  271MOL0     C37262   0.654   2.471   1.494  0.8278 -0.1280  0.5790
  271MOL0     O37263   0.772   2.529   1.506  0.3321  0.1271  0.6293
  271MOL0     C37264   0.856   2.506   1.609 -0.6566  0.1871  0.3461
  271MOL0     C37265   1.000   2.502   1.593 -0.2626 -0.0719 -0.9101
  271MOL0     C37266   1.089   2.484   1.695  1.1116  0.3168  0.0576
  271MOL0     C37267   1.036   2.461   1.822 -0.5758  0.8247  0.4085
  271MOL0     O37268   1.120   2.421   1.921  0.0685 -0.1793 -0.5844
  271MOL0     C37269   1.091   2.290   1.982  0.2732  0.7486 -0.4405
  271MOL0     C37270   1.182   2.283   2.102 -0.1009  0.0739 -0.5390
  271MOL0     C37271   1.336   2.287   2.063 -0.0026  0.2735 -0.5263
  271MOL0     C37272   1.421   2.281   2.189  0.5952 -0.1065  0.6352
  271MOL0     C37273   1.557   2.238   2.161  0.4829 -0.1783 -0.1412
  271MOL0     C37274   1.628   2.345   2.074 -0.1372  0.1451 -0.8650
  271MOL0     C37275   1.765   2.305   2.029 -0.4920 -0.0136  0.8848
  271MOL0     C37276   1.849   2.422   1.972 -0.0732 -0.1969 -0.7428
  271MOL0     N37277   1.959   2.376   1.896 -0.2241  0.7315 -0.8343
  271MOL0     C37278   2.067   2.300   1.941  0.8212  0.1601  1.3765
  271MOL0     C37279   2.125   2.256   1.828 -0.0226 -0.1424  0.3184
  271MOL0     C37280   2.252   2.169   1.812  0.2888 -1.1241 -0.6171
  271MOL0     C37281   2.308   2.183   1.677 -0.1841  0.3088 -0.2901
  271MOL0     C37282   2.398   2.057   1.647  0.6361  0.6062 -0.2054
  271MOL0     C37283   2.465   2.087   1.519 -0.6387  0.3183  0.1092
  271MOL0     O37284   2.544   1.981   1.469  0.2490 -0.0906  0.4649
  271MOL0     C37285   2.681   1.975   1.511 -0.0052  0.1503  0.0996
  271MOL0     C37286   2.769   1.892   1.444  0.0363  0.3211 -0.8245
  271MOL0     C37287   2.907   1.862   1.481 -0.1318 -0.1714  0.1105
  271MOL0     C37288   2.988   1.761   1.393  0.4192 -0.4771  0.6800
  271MOL0     C37289   2.967   1.933   1.584  0.0319 -0.4773 -0.2936
  271MOL0     C37290   3.106   1.910   1.628 -0.1135  0.5273  0.3517
  271MOL0     O37291   3.198   1.983   1.567 -0.1573 -0.1751  0.2298
  271MOL0     C37292   3.327   1.966   1.625  0.7458 -1.0643 -0.1680
  271MOL0     C37293   3.396   1.865   1.566  0.0888 -0.4114  0.3690
  271MOL0     C37294   3.533   1.839   1.602 -0.5471 -0.1353 -0.6502
  271MOL0     C37295   3.587   1.916   1.708 -0.2208 -0.7344  0.3729
  271MOL0     O37296   3.717   1.909   1.757  0.3640  0.4746  0.4555
  271MOL0     C37297   3.818   1.813   1.698 -0.1454 -0.1766  0.4424
  271MOL0     C37298   3.881   1.857   1.572  1.0607 -0.1163  0.4840
  271MOL0     C37299   3.999   1.768   1.543  0.2151  0.3604 -0.5640
  271MOL0     C37300   4.036   1.774   1.397  0.5431  0.1256 -0.7713
  271MOL0     C37301   4.077   1.636   1.339 -0.1459  0.8765 -0.2917
  271MOL0     C37302   4.215   1.586   1.398  0.1209 -0.5712 -0.5793
  271MOL0     C37303   4.260   1.458   1.333 -0.4873  0.1826  0.5026
  271MOL0     C37304   4.155   1.355   1.330 -0.3735  0.0694  0.4312
  271MOL0    Cl37305   4.061   1.335   1.486 -0.1013  0.2419  0.0339
  271MOL0     C37306   3.517   2.030   1.752 -0.3746 -0.3217 -0.4569
  271MOL0     C37307   3.388   2.058   1.715  0.6588  0.4297  0.2154
  271MOL0     O37308   3.123   1.825   1.721  0.5619  0.4133 -0.1624
  271MOL0     C37309   2.883   2.032   1.651 -0.2290 -0.9258 -0.4632
  271MOL0     C37310   2.740   2.047   1.620 -0.4529 -0.5942 -0.8567
  271MOL0     N37311   2.048   2.297   1.720 -0.1609  0.3236  0.2458
  271MOL0     N37312   1.947   2.377   1.758  0.5146 -0.1262 -0.0824
  271MOL0     C37313   0.895   2.464   1.841  0.0289  0.1466  0.0673
  271MOL0     C37314   0.805   2.494   1.739 -0.4683 -0.8175  0.3802
  271MOL0     C37315   0.548   2.552   1.424  0.8837  0.2416  0.2347
  271MOL0     C37316   0.427   2.582   1.489  0.1524 -0.4427  0.2253
  271MOL0     C37317   0.322   2.649   1.419 -0.3699 -0.6303 -0.1092
  271MOL0     C37318   0.341   2.685   1.285 -0.8100  0.2052  0.9642
  271MOL0     O37319   0.246   2.746   1.219  0.0689  0.8875 -0.4848
  271MOL0     C37320   0.220   2.694   1.085  0.4685 -0.5682  0.5043
  271MOL0     C37321   0.070   2.718   1.043 -0.0712 -0.4595 -0.4283
  271MOL0     C37322  -0.019   2.656   1.148 -0.8686 -0.3096  0.4509
  271MOL0     C37323  -0.168   2.697   1.123 -0.1237  1.2521 -0.1661
  271MOL0     C37324  -0.254   2.611   1.208  0.4621 -0.3229  0.0622
  271MOL0     C37325  -0.319   2.530   1.268 -0.4662 -0.5435  1.4634
  271MOL0     C37326   0.463   2.658   1.225  0.3422  0.6627  0.1277
  271MOL0     C37327   0.562   2.583   1.280  0.0400  1.2011  0.3663
  271MOL0     C37328   0.686   2.576   1.207 -0.0295  0.7659 -0.3926
  271MOL0     H37329   1.043   2.498   1.493 -0.2273  2.0369 -1.0280
  271MOL0     H37330   1.194   2.467   1.673  1.7269  0.0527  2.8526
  271MOL0     H37331   1.116   2.213   1.908 -2.2839  0.0601 -0.6991
  271MOL0     H37332   0.985   2.276   2.005 -0.4691 -3.7421 -4.7856
  271MOL0     H37333   1.162   2.369   2.167  0.6073  1.4300 -2.0262
  271MOL0     H37334   1.167   2.191   2.158 -0.5246 -0.9505 -2.2520
  271MOL0     H37335   1.357   2.209   1.989 -1.0174 -1.7521  1.2392
  271MOL0     H37336   1.357   2.383   2.013 -1.8744 -1.1102 -4.3200
  271MOL0     H37337   1.441   2.379   2.234  0.9629  0.8894 -1.5345
  271MOL0     H37338   1.378   2.221   2.269 -1.4464  1.8499  1.1220
  271MOL0     H37339   1.557   2.142   2.110 -1.7835  0.0503 -0.6633
  271MOL0     H37340   1.620   2.223   2.249  0.8875  1.0181 -0.2092
  271MOL0     H37341   1.582   2.379   1.981  1.5531  2.6798 -0.8751
  271MOL0     H37342   1.646   2.433   2.137  0.3043 -0.4735 -0.1071
  271MOL0     H37343   1.740   2.228   1.956  1.0839  1.9812 -1.9522
  271MOL0     H37344   1.824   2.252   2.104  0.7398  1.1345  0.7600
  271MOL0     H37345   1.780   2.489   1.919  0.0535  0.2745 -0.3223
  271MOL0     H37346   1.887   2.477   2.059 -0.0987 -1.6823  0.2393
  271MOL0     H37347   2.095   2.284   2.044  0.3868  1.0677  1.6501
  271MOL0     H37348   2.235   2.066   1.845  0.5821 -1.5820 -1.8551
  271MOL0     H37349   2.329   2.209   1.878  1.6259 -3.1074 -0.8805
  271MOL0     H37350   2.234   2.181   1.596  0.1765  0.8668 -0.6414
  271MOL0     H37351   2.358   2.281   1.672 -0.8772  0.7418  0.8820
  271MOL0     H37352   2.468   2.040   1.729 -1.5493 -1.4861  1.3911
  271MOL0     H37353   2.338   1.966   1.631 -0.6624  1.5213 -0.6838
  271MOL0     H37354   2.389   2.102   1.441 -0.0389 -1.5691 -0.9077
  271MOL0     H37355   2.533   2.172   1.526  1.0082 -1.0592  1.7659
  271MOL0     H37356   2.719   1.838   1.364 -0.7462  2.0012 -1.5112
  271MOL0     H37357   2.917   1.716   1.323  0.5584 -0.4872  0.5442
  271MOL0     H37358   3.043   1.676   1.435  1.0526 -1.3626 -1.7665
  271MOL0     H37359   3.052   1.823   1.328 -0.7605 -0.8381 -0.8752
  271MOL0     H37360   3.351   1.802   1.489 -0.0967 -0.6922  0.7070
  271MOL0     H37361   3.567   1.743   1.564 -0.0802 -0.8145  1.3706
  271MOL0     H37362   3.900   1.809   1.770  0.1259 -0.0351  0.1446
  271MOL0     H37363   3.782   1.711   1.677  1.4259 -0.7001  0.1597
  271MOL0     H37364   3.799   1.850   1.500  1.3475  0.0833  0.1362
  271MOL0     H37365   3.900   1.963   1.588  1.0639 -0.2893  1.7688
  271MOL0     H37366   3.974   1.664   1.562 -0.6440  0.6212 -0.2154
  271MOL0     H37367   4.087   1.807   1.595 -1.3574  4.8067 -0.7804
  271MOL0     H37368   4.122   1.841   1.387  1.3393 -0.8758 -0.8050
  271MOL0     H37369   3.952   1.819   1.344  0.2818  1.5193  0.7209
  271MOL0     H37370   4.001   1.558   1.352 -0.3083  0.8443 -1.3410
  271MOL0     H37371   4.094   1.645   1.232 -2.4746 -1.0571 -0.9274
  271MOL0     H37372   4.216   1.584   1.508 -0.9678  4.3523 -0.2559
  271MOL0     H37373   4.297   1.654   1.379  0.3942 -0.6272  0.3256
  271MOL0     H37374   4.342   1.413   1.389 -1.6378 -1.8620  0.6539
  271MOL0     H37375   4.301   1.484   1.235 -0.5337 -0.2428  0.3698
  271MOL0     H37376   4.191   1.255   1.303  0.6367  0.9756 -1.9025
  271MOL0     H37377   4.086   1.378   1.248 -0.5201  0.2268  0.5986
  271MOL0     H37378   3.574   2.095   1.818 -1.1553 -0.9619  0.8936
  271MOL0     H37379   3.342   2.150   1.751 -0.0110  0.3824 -0.4998
  271MOL0     H37380   2.926   2.094   1.729 -1.4307 -0.6452 -0.0016
  271MOL0     H37381   2.687   2.124   1.674  0.5171  0.6723 -1.6328
  271MOL0     H37382   0.853   2.458   1.941 -0.4334  0.5878 -0.0970
  271MOL0     H37383   0.699   2.503   1.758 -0.0379  0.9885  2.1791
  271MOL0     H37384   0.414   2.553   1.593 -0.1309  1.7726  0.8646
  271MOL0     H37385   0.234   2.665   1.481 -0.3842  3.1820 -0.8638
  271MOL0     H37386   0.278   2.753   1.013 -2.5431  2.9305  0.6300
  271MOL0     H37387   0.244   2.588   1.097  3.6819 -0.2186 -1.4508
  271MOL0     H37388   0.059   2.666   0.948  0.5532 -2.1675  0.3962
  271MOL0     H37389   0.040   2.823   1.030  0.7658 -0.2947 -1.1468
  271MOL0     H37390  -0.004   2.549   1.136 -0.9098 -0.3482  0.7416
  271MOL0     H37391   0.009   2.693   1.247 -0.2009  3.5147 -0.9705
  271MOL0     H37392  -0.178   2.671   1.017 -0.3743  0.0149  0.1389
  271MOL0     H37393  -0.198   2.801   1.135  2.0027  1.7246  1.5570
  271MOL0     H37394  -0.395   2.459   1.294 -2.1039  1.3406  2.0575
  271MOL0     H37395   0.480   2.694   1.123 -1.1162  1.1781  0.0405
  271MOL0     H37396   0.727   2.476   1.220 -1.1096  0.0508 -2.1176
  271MOL0     H37397   0.668   2.597   1.101  1.0642 -0.8501 -0.9240
  271MOL0     H37398   0.757   2.656   1.232 -0.2672  0.7312  0.3927
  272MOL0     O37399   7.831   4.666   0.376  0.0483  0.1699 -0.4360
  272MOL0     C37400   7.794   4.590   0.463  0.0131 -0.3411  0.5566
  272MOL0     O37401   7.830   4.455   0.480  0.3488  0.1410  0.2104
  272MOL0     C37402   7.918   4.403   0.389 -0.2062  0.8470 -0.2356
  272MOL0     C37403   8.051   4.435   0.380 -0.4920 -0.1420 -0.8672
  272MOL0     C37404   8.139   4.377   0.286 -0.5844  0.3435 -2.4429
  272MOL0     C37405   8.097   4.279   0.203 -0.0192 -0.3041 -0.0896
  272MOL0     O37406   8.181   4.226   0.108  0.2845  0.9765 -0.3305
  272MOL0     C37407   8.323   4.198   0.122 -0.4540 -0.6227 -0.3280
  272MOL0     C37408   8.359   4.070   0.039 -0.5535  0.4234  1.2859
  272MOL0     C37409   8.506   4.013   0.044  0.1226 -0.8325  0.2533
  272MOL0     C37410   8.544   3.899  -0.050 -0.7425 -0.4862  0.2415
  272MOL0     C37411   8.696   3.863  -0.048 -0.4835 -0.1585  0.1785
  272MOL0     C37412   8.782   3.938  -0.148 -0.1781  1.0788 -0.1547
  272MOL0     C37413   8.925   3.876  -0.136  0.1374  0.6116 -0.6231
  272MOL0     C37414   8.935   3.754  -0.222  0.0966 -0.8744 -0.0155
  272MOL0     N37415   9.011   3.638  -0.172 -0.3078 -0.1940 -0.0380
  272MOL0     C37416   9.147   3.611  -0.199 -0.2904 -0.2995 -1.1071
  272MOL0     C37417   9.183   3.505  -0.122  0.3895 -0.1592  0.3922
  272MOL0     C37418   9.313   3.427  -0.125  0.1538  0.1662  0.7329
  272MOL0     C37419   9.355   3.450   0.016  1.4055  0.3974  0.5158
  272MOL0     C37420   9.502   3.407   0.024  0.0616 -0.7352  0.5673
  272MOL0     C37421   9.547   3.423   0.173 -0.5220 -0.0054  0.3368
  272MOL0     O37422   9.688   3.400   0.192 -0.7601  0.2507 -0.2351
  272MOL0     C37423   9.739   3.275   0.179  0.1605 -0.9438 -0.7948
  272MOL0     C37424   9.738   3.179   0.281 -0.2086 -1.1399 -0.0521
  272MOL0     C37425   9.810   3.063   0.258 -0.7706 -0.6027 -0.0370
  272MOL0     C37426   9.811   2.978   0.386  0.1951  0.3461 -0.0347
  272MOL0     C37427   9.870   3.021   0.132  0.1822  0.5828 -0.0241
  272MOL0     C37428   9.942   2.893   0.116  0.7895  0.9131  0.4715
  272MOL0     O37429   9.968   2.863  -0.012 -0.1522 -0.3377 -0.0440
  272MOL0     C37430  10.020   2.742  -0.027 -0.2920  0.2792  0.6463
  272MOL0     C37431   9.947   2.631  -0.074 -0.3109  0.8213 -0.2642
  272MOL0     C37432  10.011   2.511  -0.097  0.1776 -0.0036 -0.0892
  272MOL0     C37433  10.153   2.496  -0.077  1.4797 -0.1065  0.1890
  272MOL0     O37434  10.222   2.375  -0.083 -0.1690  0.1423 -0.5278
  272MOL0     C37435  10.146   2.255  -0.105 -1.2891 -0.1288 -0.4164
  272MOL0     C37436  10.254   2.149  -0.122  0.0504 -0.1735 -0.0793
  272MOL0     C37437  10.185   2.011  -0.155  0.5204 -0.0992 -1.3689
  272MOL0     C37438  10.048   1.976  -0.078 -0.4107 -0.8416 -0.5667
  272MOL0     C37439  10.013   1.827  -0.093  0.5244 -0.4717  0.4154
  272MOL0     C37440   9.897   1.793  -0.011  1.0712 -0.1860  0.1896
  272MOL0     C37441   9.866   1.642  -0.007 -0.6170 -0.6443 -0.9736
  272MOL0     C37442   9.792   1.588  -0.133  0.8166 -0.1492  0.1078
  272MOL0    Cl37443   9.759   1.421  -0.111  0.0813 -0.4423  0.1527
  272MOL0     C37444  10.228   2.605  -0.029  1.5519 -0.2023 -1.2049
  272MOL0     C37445  10.159   2.726  -0.012  0.3474  0.2312 -0.0292
  272MOL0     O37446   9.984   2.841   0.215 -0.3104  0.5717  0.0194
  272MOL0     C37447   9.865   3.120   0.031  0.3862 -0.8931  0.5009
  272MOL0     C37448   9.801   3.241   0.056 -1.0884 -0.7019 -0.9873
  272MOL0     N37449   9.067   3.465  -0.063  0.8032  0.1325  0.4552
  272MOL0     N37450   8.967   3.539  -0.088 -0.0923  0.3287 -0.2957
  272MOL0     C37451   7.957   4.244   0.208  0.4970 -0.1207  0.4112
  272MOL0     C37452   7.877   4.303   0.301  1.6357 -1.2971  0.1779
  272MOL0     C37453   7.709   4.649   0.575  0.0969  1.4094  0.4528
  272MOL0     C37454   7.697   4.579   0.698  0.4350  0.6554 -0.4847
  272MOL0     C37455   7.611   4.614   0.802  0.4763 -0.7085  0.1618
  272MOL0     C37456   7.538   4.734   0.791 -0.2244  0.0987  0.4432
  272MOL0     O37457   7.463   4.760   0.899 -0.0028 -0.4759  0.1455
  272MOL0     C37458   7.380   4.873   0.882  0.5382  0.2862 -0.1996
  272MOL0     C37459   7.278   4.882   1.002  0.6199 -0.1577 -0.8182
  272MOL0     C37460   7.181   4.769   0.984 -0.2392  1.6277 -0.0834
  272MOL0     C37461   7.091   4.759   1.105 -0.8635 -0.7755 -0.4135
  272MOL0     C37462   6.993   4.864   1.100  1.1344 -0.1362 -0.2040
  272MOL0     C37463   6.917   4.953   1.070 -0.8243  0.0247  0.3711
  272MOL0     C37464   7.553   4.805   0.668 -0.8233  0.1497 -0.5847
  272MOL0     C37465   7.635   4.767   0.561  0.0933  0.2830 -0.1356
  272MOL0     C37466   7.630   4.856   0.436 -0.3899  0.0156 -0.2200
  272MOL0     H37467   8.096   4.503   0.452  0.6552  1.0667 -2.6122
  272MOL0     H37468   8.244   4.402   0.281  0.1965 -1.8164  0.5078
  272MOL0     H37469   8.337   4.186   0.230 -0.5404 -0.5933 -0.3134
  272MOL0     H37470   8.381   4.282   0.083 -1.4758 -0.9801 -2.8316
  272MOL0     H37471   8.274   4.002   0.048  0.1318 -0.8869 -1.1637
  272MOL0     H37472   8.341   4.091  -0.067  1.7667  0.7170  0.8891
  272MOL0     H37473   8.572   4.100   0.035 -0.7115 -0.2928 -0.8924
  272MOL0     H37474   8.523   3.981   0.147 -2.0912  1.2309  1.3541
  272MOL0     H37475   8.485   3.811  -0.023 -2.6039  0.3407 -0.8870
  272MOL0     H37476   8.510   3.927  -0.150  1.3906 -0.6591 -0.5896
  272MOL0     H37477   8.698   3.754  -0.057  1.8017 -0.2045  0.6545
  272MOL0     H37478   8.724   3.885   0.056 -0.3683  0.4353  0.0266
  272MOL0     H37479   8.749   3.916  -0.250  1.8143 -0.0351 -0.6154
  272MOL0     H37480   8.778   4.043  -0.119 -0.6342  0.8879  0.5020
  272MOL0     H37481   8.951   3.865  -0.030  1.7005 -3.4475 -1.2351
  272MOL0     H37482   9.003   3.945  -0.171 -1.1618  1.0459 -2.8049
  272MOL0     H37483   8.832   3.721  -0.241 -0.1285 -0.2241  0.0449
  272MOL0     H37484   8.977   3.798  -0.314 -1.4372 -2.0102 -1.3198
  272MOL0     H37485   9.207   3.659  -0.276 -0.5377  0.8109 -0.6234
  272MOL0     H37486   9.370   3.479  -0.203  2.0018  0.7435  2.3963
  272MOL0     H37487   9.302   3.322  -0.154 -0.6469 -0.4152  2.9293
  272MOL0     H37488   9.350   3.556   0.044 -0.3640 -0.2327  2.8821
  272MOL0     H37489   9.293   3.390   0.082  2.3544  0.0344  1.1098
  272MOL0     H37490   9.503   3.302  -0.007  2.2627  0.1315 -2.8399
  272MOL0     H37491   9.568   3.451  -0.052 -3.0558  1.8400 -0.9086
  272MOL0     H37492   9.531   3.530   0.193  1.3641  1.0458 -2.9621
  272MOL0     H37493   9.489   3.362   0.242  2.9918  0.0205  3.6193
  272MOL0     H37494   9.694   3.190   0.379  0.6211 -2.0012  0.4305
  272MOL0     H37495   9.910   2.954   0.426  0.7881  1.0235 -1.0720
  272MOL0     H37496   9.760   2.883   0.366  2.4765 -1.1589  0.8662
  272MOL0     H37497   9.757   3.024   0.470 -0.8203 -4.0667  2.0184
  272MOL0     H37498   9.843   2.630  -0.103 -0.1459  0.6287 -0.8730
  272MOL0     H37499   9.954   2.421  -0.119  1.7382 -1.0002 -0.2608
  272MOL0     H37500  10.073   2.253  -0.024 -1.1582 -0.7943 -0.3141
  272MOL0     H37501  10.101   2.272  -0.204 -0.5934 -0.0405 -0.7248
  272MOL0     H37502  10.325   2.172  -0.202  0.5138  1.4127  0.7328
  272MOL0     H37503  10.306   2.143  -0.026 -0.3844 -0.7228  0.1269
  272MOL0     H37504  10.249   1.924  -0.137 -1.6269 -1.2802  1.3338
  272MOL0     H37505  10.157   2.019  -0.260  0.0985 -1.1880 -1.3498
  272MOL0     H37506   9.964   2.038  -0.108 -2.8110 -3.6949 -0.1852
  272MOL0     H37507  10.069   1.987   0.029 -0.2058 -0.2079 -0.6675
  272MOL0     H37508   9.996   1.806  -0.199  0.4379 -1.1060  0.5476
  272MOL0     H37509  10.100   1.762  -0.078  0.0720 -1.7708 -2.0479
  272MOL0     H37510   9.813   1.854  -0.047  0.4751 -1.2070 -0.1653
  272MOL0     H37511   9.919   1.827   0.091  1.5998 -0.6540  0.2380
  272MOL0     H37512   9.814   1.626   0.088  1.9905 -2.1684  0.3138
  272MOL0     H37513   9.963   1.592   0.006 -0.4583  0.0597  0.8238
  272MOL0     H37514   9.841   1.608  -0.229  1.6186 -2.7653 -0.0984
  272MOL0     H37515   9.695   1.639  -0.133  0.6674 -0.3872 -1.0412
  272MOL0     H37516  10.334   2.596  -0.008  1.6425  2.0316 -0.4148
  272MOL0     H37517  10.210   2.816   0.021  2.8765 -0.0428 -2.7759
  272MOL0     H37518   9.900   3.109  -0.071  2.6584  0.0709  1.1118
  272MOL0     H37519   9.805   3.321  -0.017  3.3467  0.5109  0.2799
  272MOL0     H37520   7.924   4.165   0.142  0.1258 -0.2348  0.7308
  272MOL0     H37521   7.769   4.293   0.306  1.3847  1.3311  2.7852
  272MOL0     H37522   7.760   4.492   0.713  0.4918  0.2303 -2.8416
  272MOL0     H37523   7.607   4.562   0.897  2.0756  1.0772  1.2788
  272MOL0     H37524   7.435   4.967   0.874  0.5358  0.3093  0.0350
  272MOL0     H37525   7.324   4.877   0.789  0.5680  1.5293 -0.1785
  272MOL0     H37526   7.223   4.976   0.992 -0.5125 -0.3734  2.3043
  272MOL0     H37527   7.320   4.884   1.103  0.0383  1.2891 -0.5749
  272MOL0     H37528   7.123   4.778   0.892  0.3543 -1.3475 -0.8364
  272MOL0     H37529   7.233   4.673   0.986 -3.0647 -0.0050  1.6139
  272MOL0     H37530   7.144   4.776   1.200  1.1621 -0.1055 -1.5938
  272MOL0     H37531   7.038   4.664   1.111 -3.8247  0.7820  0.5956
  272MOL0     H37532   6.853   5.028   1.030 -2.6921 -2.4743 -1.7100
  272MOL0     H37533   7.504   4.901   0.653 -1.0778  0.1391  0.1406
  272MOL0     H37534   7.631   4.786   0.351  1.0936  2.2888 -2.1893
  272MOL0     H37535   7.538   4.913   0.450 -1.8242 -1.7998 -1.6346
  272MOL0     H37536   7.716   4.921   0.420 -0.0146 -0.9920 -2.8244
  273MOL0     O37537   0.040   8.303   8.775  0.7572 -0.1393  0.1952
  273MOL0     C37538   0.011   8.208   8.843 -0.3593  0.5147 -0.3529
  273MOL0     O37539   0.071   8.089   8.854  0.4358  0.0705  0.1439
  273MOL0     C37540   0.186   8.060   8.779  0.0465  0.4445  0.5760
  273MOL0     C37541   0.199   7.936   8.713  0.7487 -0.2237  0.4241
  273MOL0     C37542   0.312   7.897   8.640  0.0223 -0.0643 -0.0189
  273MOL0     C37543   0.417   7.994   8.629  0.2169 -0.2896 -0.0138
  273MOL0     O37544   0.522   7.957   8.546  0.3346  0.3720  1.0753
  273MOL0     C37545   0.603   8.056   8.488  0.2558  0.1017 -0.3421
  273MOL0     C37546   0.711   7.977   8.419  0.0853 -0.7385 -0.6595
  273MOL0     C37547   0.830   8.071   8.377 -0.0092  0.4288 -0.5312
  273MOL0     C37548   0.925   7.980   8.288  0.5969  0.4822 -0.6259
  273MOL0     C37549   1.047   8.050   8.229 -0.2907  0.0114 -0.5076
  273MOL0     C37550   1.150   8.057   8.348  0.7457  0.1269 -0.1809
  273MOL0     C37551   1.286   8.099   8.301  0.6998  0.5692 -0.2691
  273MOL0     C37552   1.397   7.992   8.318 -0.2683 -0.6809 -1.0063
  273MOL0     N37553   1.536   8.025   8.257  0.4733  0.6207  0.2969
  273MOL0     C37554   1.646   7.952   8.269 -0.9322  0.7697 -0.3857
  273MOL0     C37555   1.742   8.033   8.224  1.0967  0.8121  1.2378
  273MOL0     C37556   1.887   7.994   8.232  0.5276  0.5677  0.1234
  273MOL0     C37557   1.936   8.002   8.086  0.1287 -0.9553 -0.8379
  273MOL0     C37558   2.073   7.939   8.060  0.4662  0.9451 -0.3401
  273MOL0     C37559   2.126   7.958   7.916 -1.0078 -1.3479 -0.2196
  273MOL0     O37560   2.164   8.097   7.892  0.0687 -0.2236  0.0280
  273MOL0     C37561   2.275   8.150   7.948  0.7603 -0.3316  0.4412
  273MOL0     C37562   2.397   8.119   7.892 -0.2976  0.8776 -0.5628
  273MOL0     C37563   2.519   8.163   7.943 -0.3504 -0.2560 -0.6458
  273MOL0     C37564   2.641   8.105   7.878  0.3207  0.0837  0.2053
  273MOL0     C37565   2.517   8.234   8.070  0.4896 -0.2530 -0.4361
  273MOL0     C37566   2.635   8.284   8.144 -0.4889  0.5518 -0.5954
  273MOL0     O37567   2.614   8.334   8.274 -0.6953  0.8148  0.1562
  273MOL0     C37568   2.728   8.342   8.347 -0.4111 -0.2325  0.2717
  273MOL0     C37569   2.797   8.459   8.367  0.6077  1.2026 -0.0741
  273MOL0     C37570   2.906   8.462   8.450  0.2553 -0.8371  0.6716
  273MOL0     C37571   2.940   8.355   8.530 -0.5992 -0.4289 -0.4979
  273MOL0     O37572   3.035   8.366   8.631 -0.5384  1.3464 -0.4002
  273MOL0     C37573   3.086   8.500   8.675  0.5014  1.0895 -0.1426
  273MOL0     C37574   3.147   8.473   8.819  0.2239  0.0954 -0.1589
  273MOL0     C37575   3.212   8.586   8.886  0.2087 -1.0409 -0.5874
  273MOL0     C37576   3.289   8.544   9.013 -0.0736  1.6163  0.1944
  273MOL0     C37577   3.363   8.658   9.072  0.2263 -1.2205  0.2495
  273MOL0     C37578   3.421   8.613   9.210 -0.1208 -0.7387 -0.0903
  273MOL0     C37579   3.504   8.729   9.265 -0.1160  1.2444 -0.3551
  273MOL0     C37580   3.559   8.681   9.403 -0.1821 -0.6500 -0.1017
  273MOL0    Cl37581   3.445   8.712   9.529  0.2825  0.0984 -0.5232
  273MOL0     C37582   2.874   8.238   8.507 -0.2460  0.3257 -0.0182
  273MOL0     C37583   2.771   8.232   8.418  0.6229 -0.1531 -0.2017
  273MOL0     O37584   2.753   8.261   8.096 -0.1128 -0.2886 -0.1012
  273MOL0     C37585   2.389   8.264   8.128 -0.1665  0.7250  0.5998
  273MOL0     C37586   2.271   8.219   8.063 -0.1136 -0.3997 -0.0957
  273MOL0     N37587   1.684   8.152   8.185 -0.2959  0.0064 -0.1602
  273MOL0     N37588   1.558   8.141   8.195  0.3942 -0.2238 -0.1746
  273MOL0     C37589   0.407   8.113   8.694 -0.5004 -0.4495  1.0365
  273MOL0     C37590   0.297   8.146   8.773 -0.1107 -0.1954 -0.6645
  273MOL0     C37591  -0.113   8.202   8.919  0.1416  0.1658 -0.2003
  273MOL0     C37592  -0.222   8.132   8.857 -0.1065 -0.2426  0.0622
  273MOL0     C37593  -0.348   8.128   8.929 -0.9692 -0.1614  1.1525
  273MOL0     C37594  -0.368   8.192   9.059 -0.2406 -0.1198 -0.0783
  273MOL0     O37595  -0.491   8.180   9.113 -0.1103  0.7839  0.1693
  273MOL0     C37596  -0.509   8.213   9.251 -0.2871 -0.4387  0.5318
  273MOL0     C37597  -0.650   8.181   9.287  0.0866  0.2961  0.4605
  273MOL0     C37598  -0.694   8.233   9.416 -0.2404 -0.1547 -1.0626
  273MOL0     C37599  -0.834   8.189   9.446  0.8178 -0.2449  0.7208
  273MOL0     C37600  -0.907   8.293   9.514  0.9383 -0.4630  0.2782
  273MOL0     C37601  -0.989   8.368   9.576 -0.0093 -0.0614  0.2044
  273MOL0     C37602  -0.264   8.272   9.102  0.4164  1.0969 -0.1507
  273MOL0     C37603  -0.135   8.270   9.038 -0.0440  0.3157  0.3053
  273MOL0     C37604  -0.025   8.377   9.083 -0.2058  0.4011 -0.5318
  273MOL0     H37605   0.112   7.872   8.711  0.2684  0.3979  1.1153
  273MOL0     H37606   0.311   7.799   8.594  1.3070 -0.5852  0.9945
  273MOL0     H37607   0.646   8.111   8.573 -1.7527 -0.4884  1.1107
  273MOL0     H37608   0.549   8.125   8.422 -1.0190  0.1499  0.7087
  273MOL0     H37609   0.747   7.909   8.496  2.5539  2.6325  1.4071
  273MOL0     H37610   0.656   7.939   8.332 -1.1613  0.7008 -0.5450
  273MOL0     H37611   0.786   8.148   8.314 -0.2628  1.6711  1.0913
  273MOL0     H37612   0.872   8.120   8.466 -4.3977  1.0005  1.5014
  273MOL0     H37613   0.960   7.890   8.339  1.4385 -0.0485 -2.0921
  273MOL0     H37614   0.876   7.948   8.196  0.1865  0.5169 -0.4223
  273MOL0     H37615   1.009   8.144   8.187 -2.7348 -0.2826  0.9088
  273MOL0     H37616   1.084   7.995   8.141 -1.0072 -2.5037  0.6664
  273MOL0     H37617   1.117   8.129   8.423  1.8403 -0.3781  0.8161
  273MOL0     H37618   1.161   7.961   8.398  0.5980  0.4654  0.5117
  273MOL0     H37619   1.324   8.189   8.352 -0.5223  1.0980 -0.2603
  273MOL0     H37620   1.272   8.129   8.197  1.1437 -0.8965 -0.7733
  273MOL0     H37621   1.414   7.970   8.424 -0.2249 -2.2446 -1.3149
  273MOL0     H37622   1.368   7.895   8.278  1.1274 -1.8820  0.6859
  273MOL0     H37623   1.661   7.855   8.317 -0.3611  0.4089 -1.2727
  273MOL0     H37624   1.906   7.892   8.265 -2.0835 -0.8839 -2.3835
  273MOL0     H37625   1.933   8.064   8.302 -0.6050 -0.8557  2.3951
  273MOL0     H37626   1.859   7.964   8.019 -1.0908  1.3718 -0.8531
  273MOL0     H37627   1.929   8.111   8.079 -0.7453 -1.0418 -1.5049
  273MOL0     H37628   2.148   7.963   8.136 -0.7242  2.0967  0.5134
  273MOL0     H37629   2.059   7.831   8.066 -3.0801  1.3482  3.5532
  273MOL0     H37630   2.212   7.895   7.891  0.4762  1.4025 -2.8453
  273MOL0     H37631   2.036   7.950   7.854  0.0301 -0.2826 -1.9736
  273MOL0     H37632   2.405   8.066   7.798  1.4361 -0.2324  0.1593
  273MOL0     H37633   2.618   8.068   7.778 -1.2502  2.0067 -0.1957
  273MOL0     H37634   2.674   8.013   7.929 -0.3736 -1.0637 -1.3511
  273MOL0     H37635   2.724   8.176   7.869 -0.0386  0.4039 -0.6295
  273MOL0     H37636   2.768   8.554   8.323 -1.7693 -0.8163 -3.2813
  273MOL0     H37637   2.947   8.561   8.467  0.3972 -0.5436 -1.2145
  273MOL0     H37638   3.172   8.537   8.619  1.1113  0.4718  0.3460
  273MOL0     H37639   3.007   8.574   8.688  1.3431  2.1977 -1.1066
  273MOL0     H37640   3.061   8.453   8.885 -0.2121  2.2507 -0.0197
  273MOL0     H37641   3.217   8.389   8.812  1.1351  0.4097  3.3396
  273MOL0     H37642   3.145   8.666   8.920  2.6839  1.1971 -0.6106
  273MOL0     H37643   3.277   8.639   8.816  0.9653  0.1849  0.9825
  273MOL0     H37644   3.354   8.461   8.987 -1.7475 -0.4638  2.2480
  273MOL0     H37645   3.214   8.508   9.084 -0.5492 -1.6241 -1.7684
  273MOL0     H37646   3.435   8.701   9.001 -2.0186 -1.4037 -2.3093
  273MOL0     H37647   3.294   8.743   9.076  1.1013 -0.3301 -2.0297
  273MOL0     H37648   3.492   8.529   9.206  1.6103  0.3217  3.8102
  273MOL0     H37649   3.336   8.591   9.276  1.8716 -2.5079  2.1166
  273MOL0     H37650   3.432   8.808   9.285 -1.0407 -0.4465  4.5388
  273MOL0     H37651   3.583   8.765   9.198  0.6749  2.6797  1.2644
  273MOL0     H37652   3.657   8.721   9.430 -0.3883  0.6980 -1.2602
  273MOL0     H37653   3.586   8.575   9.397  0.7779 -0.4532  0.5286
  273MOL0     H37654   2.904   8.151   8.564  1.6288 -0.7279 -2.4428
  273MOL0     H37655   2.715   8.141   8.402  1.9625 -1.0657  0.1764
  273MOL0     H37656   2.383   8.311   8.225 -1.1324 -0.2921  1.0584
  273MOL0     H37657   2.177   8.257   8.102  1.0821  0.2325  2.3639
  273MOL0     H37658   0.482   8.192   8.696 -1.2993  0.3803 -0.2598
  273MOL0     H37659   0.290   8.251   8.798  0.6834 -0.1891 -0.4497
  273MOL0     H37660  -0.211   8.078   8.764 -0.0587 -1.4188  0.7384
  273MOL0     H37661  -0.428   8.071   8.883  1.6071 -0.5462 -3.6051
  273MOL0     H37662  -0.448   8.149   9.315  1.6709  0.9569  0.1471
  273MOL0     H37663  -0.487   8.319   9.268  2.1346 -0.4251 -2.0229
  273MOL0     H37664  -0.653   8.072   9.273  0.2317  0.2293  0.9108
  273MOL0     H37665  -0.715   8.204   9.202  0.3526  0.6243  0.3424
  273MOL0     H37666  -0.630   8.190   9.494 -2.6132 -0.8114  0.6394
  273MOL0     H37667  -0.699   8.342   9.429 -3.7172 -0.5181  2.1483
  273MOL0     H37668  -0.837   8.094   9.500 -0.9430 -2.1733 -2.4059
  273MOL0     H37669  -0.895   8.161   9.359  0.8573 -1.9291  1.1925
  273MOL0     H37670  -1.058   8.423   9.636  1.0209 -0.8262  2.1619
  273MOL0     H37671  -0.281   8.337   9.187 -0.6850  0.9945 -0.2780
  273MOL0     H37672  -0.034   8.405   9.189 -1.2749  0.2550 -0.5747
  273MOL0     H37673   0.079   8.351   9.059 -0.3258 -1.8286  1.0412
  273MOL0     H37674  -0.052   8.472   9.035  1.0335  0.5149 -1.0474
  274MOL0     O37675   2.515   3.059   1.992 -0.4459 -0.2682  0.4386
  274MOL0     C37676   2.623   2.997   1.992  0.5178 -0.1469 -0.0250
  274MOL0     O37677   2.656   2.901   2.081  0.2942  0.0408  0.9892
  274MOL0     C37678   2.617   2.896   2.212 -0.3330  0.0373 -0.2566
  274MOL0     C37679   2.599   2.773   2.264  0.6776  0.5705 -0.0894
  274MOL0     C37680   2.558   2.743   2.394 -0.0577 -0.3250 -0.2374
  274MOL0     C37681   2.521   2.856   2.476 -1.3475  0.6149  0.1004
  274MOL0     O37682   2.462   2.853   2.605  0.8485  0.1117  0.1052
  274MOL0     C37683   2.402   2.727   2.636 -0.3053  0.4967 -0.3543
  274MOL0     C37684   2.301   2.747   2.754 -0.3352 -0.0957  0.7908
  274MOL0     C37685   2.195   2.853   2.728 -0.0042  0.4900 -0.4840
  274MOL0     C37686   2.126   2.892   2.853  0.0135 -0.0180 -0.9032
  274MOL0     C37687   1.992   2.966   2.833 -0.1860  0.0395 -0.2547
  274MOL0     C37688   1.873   2.877   2.805 -0.1105 -0.0964  0.1344
  274MOL0     C37689   1.740   2.962   2.801 -0.0843  0.4757  0.4486
  274MOL0     C37690   1.733   3.060   2.676 -0.5190 -0.2583  0.0808
  274MOL0     N37691   1.603   3.132   2.667  0.1802  0.5783  0.1196
  274MOL0     C37692   1.568   3.245   2.750  0.3507 -0.3024  0.3752
  274MOL0     C37693   1.471   3.314   2.679 -0.2617 -0.3544 -0.4587
  274MOL0     C37694   1.403   3.425   2.740  0.4114  0.0124 -0.4376
  274MOL0     C37695   1.255   3.442   2.691 -0.2973  0.0842  0.3584
  274MOL0     C37696   1.157   3.476   2.801 -0.1282 -0.1083 -0.4804
  274MOL0     C37697   1.160   3.624   2.827 -0.9205 -0.0887 -0.5331
  274MOL0     O37698   1.080   3.644   2.942 -0.3701  0.0294  0.7174
  274MOL0     C37699   0.947   3.660   2.926 -0.4099 -0.3450  0.8812
  274MOL0     C37700   0.872   3.599   3.024  0.3543  1.4697 -0.1949
  274MOL0     C37701   0.737   3.598   3.029 -0.2948 -0.1345  0.5139
  274MOL0     C37702   0.662   3.537   3.147 -0.1205  0.4413 -0.0942
  274MOL0     C37703   0.672   3.668   2.921 -0.0006 -1.1732 -0.2330
  274MOL0     C37704   0.527   3.685   2.912 -0.0712  0.2093 -0.1617
  274MOL0     O37705   0.475   3.641   2.792 -0.6695 -0.3264 -0.6243
  274MOL0     C37706   0.341   3.645   2.764 -0.4331 -0.4317  0.0114
  274MOL0     C37707   0.305   3.597   2.642  0.1794 -0.1572  0.2241
  274MOL0     C37708   0.170   3.587   2.595 -0.3376 -0.0332 -0.2006
  274MOL0     C37709   0.065   3.620   2.687 -0.0082  0.6629  0.4072
  274MOL0     O37710  -0.068   3.619   2.659  0.3702  0.8567  0.5018
  274MOL0     C37711  -0.112   3.539   2.552  0.0762 -0.1502  0.4770
  274MOL0     C37712  -0.268   3.562   2.527 -0.5978 -0.7238 -0.9712
  274MOL0     C37713  -0.293   3.688   2.446  0.1675  0.0783  1.2745
  274MOL0     C37714  -0.434   3.696   2.381  0.0396  0.5454 -0.2765
  274MOL0     C37715  -0.460   3.815   2.287 -0.0326  1.0473 -0.2611
  274MOL0     C37716  -0.503   3.941   2.368 -0.9132  1.2135  0.2363
  274MOL0     C37717  -0.554   4.048   2.283  0.4392  0.5940  0.6120
  274MOL0     C37718  -0.601   4.162   2.375 -1.0181  0.5454 -0.1901
  274MOL0    Cl37719  -0.714   4.275   2.287 -0.1389 -0.0190 -0.1163
  274MOL0     C37720   0.100   3.669   2.814  0.2041  0.3857  0.4549
  274MOL0     C37721   0.235   3.680   2.851 -0.2047 -0.5555 -0.3455
  274MOL0     O37722   0.463   3.738   3.005  0.3466  0.0185 -0.4253
  274MOL0     C37723   0.752   3.736   2.822  0.6143  0.1882 -0.5349
  274MOL0     C37724   0.885   3.735   2.823  0.0090 -0.2961  0.4202
  274MOL0     N37725   1.450   3.250   2.556 -0.5915  0.4581 -0.9514
  274MOL0     N37726   1.538   3.146   2.548 -0.0398 -0.0781 -0.1728
  274MOL0     C37727   2.540   2.984   2.422  0.1318  0.2230 -0.6014
  274MOL0     C37728   2.593   3.004   2.294 -0.9337 -0.4487 -0.1993
  274MOL0     C37729   2.724   3.030   1.885 -0.4141  0.4545 -0.2020
  274MOL0     C37730   2.823   2.929   1.869  0.2124 -0.1020  0.4719
  274MOL0     C37731   2.905   2.929   1.753  0.0163  1.0720  0.0687
  274MOL0     C37732   2.892   3.028   1.656  0.5293 -0.0234 -0.1584
  274MOL0     O37733   2.974   3.031   1.550 -0.1564  0.0311 -0.6024
  274MOL0     C37734   2.930   3.071   1.415  0.5010  0.2890  0.8411
  274MOL0     C37735   2.831   2.967   1.358  0.1658 -1.1241 -0.0435
  274MOL0     C37736   2.900   2.856   1.287  0.0754  0.5179  0.3237
  274MOL0     C37737   3.009   2.786   1.363  0.3948 -0.1494  0.4646
  274MOL0     C37738   3.051   2.671   1.281  0.3519  0.6983  0.4685
  274MOL0     C37739   3.083   2.575   1.221 -0.1689  1.7606 -0.0582
  274MOL0     C37740   2.799   3.133   1.671 -0.1286  0.2571 -0.6428
  274MOL0     C37741   2.712   3.134   1.782 -0.2734  0.2865 -0.7509
  274MOL0     C37742   2.616   3.245   1.804 -0.1873 -0.4984  0.9013
  274MOL0     H37743   2.624   2.691   2.197  0.4796 -0.5052  1.1245
  274MOL0     H37744   2.557   2.641   2.432  1.3451 -0.2558  0.0629
  274MOL0     H37745   2.477   2.655   2.670 -3.1416 -3.9756 -2.5276
  274MOL0     H37746   2.341   2.688   2.553 -0.6370  3.0052 -1.3686
  274MOL0     H37747   2.258   2.650   2.780 -1.2083 -0.6369 -2.2443
  274MOL0     H37748   2.367   2.774   2.837  3.4225 -2.3849 -1.1998
  274MOL0     H37749   2.239   2.941   2.681  1.2291  0.9831  1.4853
  274MOL0     H37750   2.116   2.813   2.663 -0.5581  2.0541 -0.8202
  274MOL0     H37751   2.104   2.808   2.920 -2.0134  2.3003  1.5956
  274MOL0     H37752   2.194   2.957   2.908  1.2605 -2.8644  1.2157
  274MOL0     H37753   1.997   3.044   2.758 -2.2570  1.9110  1.4254
  274MOL0     H37754   1.965   3.001   2.933  0.8594  2.0463 -0.6304
  274MOL0     H37755   1.886   2.835   2.705 -2.1074 -0.2968 -0.0730
  274MOL0     H37756   1.856   2.804   2.884  0.3331 -0.5648 -0.1962
  274MOL0     H37757   1.726   3.012   2.897 -0.3794 -1.8470  1.7038
  274MOL0     H37758   1.660   2.889   2.790  3.3575 -3.4423 -1.7722
  274MOL0     H37759   1.815   3.132   2.674 -0.9479  0.2253 -0.9148
  274MOL0     H37760   1.739   2.991   2.591  0.6961 -1.3536  1.0207
  274MOL0     H37761   1.620   3.265   2.843  0.3894 -3.4016  1.1521
  274MOL0     H37762   1.451   3.518   2.707 -0.2095 -0.0713 -1.6347
  274MOL0     H37763   1.402   3.423   2.849  0.2166 -2.5138 -0.4287
  274MOL0     H37764   1.244   3.512   2.608 -0.3510 -1.8205 -1.3080
  274MOL0     H37765   1.219   3.352   2.640  1.4797  0.1901 -1.2085
  274MOL0     H37766   1.059   3.437   2.775  0.1261  0.2256 -1.9996
  274MOL0     H37767   1.183   3.420   2.892 -3.3781  0.2539  0.8046
  274MOL0     H37768   1.262   3.654   2.855 -0.6459 -2.3151  1.1143
  274MOL0     H37769   1.119   3.663   2.733 -0.5179 -2.0205 -1.5706
  274MOL0     H37770   0.924   3.557   3.110 -2.0451 -1.2647  0.0998
  274MOL0     H37771   0.736   3.482   3.205  1.3894  0.4712 -1.9149
  274MOL0     H37772   0.590   3.468   3.102 -1.7669  1.3484  1.0319
  274MOL0     H37773   0.611   3.613   3.207 -0.1128  0.2934  0.0979
  274MOL0     H37774   0.376   3.552   2.572 -2.7408  0.4315 -3.4476
  274MOL0     H37775   0.137   3.547   2.500 -0.9901  0.0577 -0.0162
  274MOL0     H37776  -0.056   3.572   2.464  1.0947  1.2953  1.6249
  274MOL0     H37777  -0.093   3.433   2.575 -1.6549 -1.1813 -2.2610
  274MOL0     H37778  -0.298   3.470   2.478  3.3796 -4.2457  2.4297
  274MOL0     H37779  -0.311   3.565   2.628  1.9851 -2.0909  0.2888
  274MOL0     H37780  -0.215   3.675   2.371  0.6637 -2.3597  2.1332
  274MOL0     H37781  -0.281   3.782   2.502 -0.4814  1.0003 -0.0672
  274MOL0     H37782  -0.509   3.701   2.461  0.8948  1.1406  0.5088
  274MOL0     H37783  -0.461   3.605   2.327  1.9451 -1.2782  1.6709
  274MOL0     H37784  -0.377   3.836   2.219  0.5071  4.3855  1.2667
  274MOL0     H37785  -0.548   3.774   2.236  2.1529 -2.0510 -1.8554
  274MOL0     H37786  -0.409   3.972   2.414 -0.9179 -1.6359  2.4904
  274MOL0     H37787  -0.574   3.919   2.449 -2.3156 -0.8118 -1.4458
  274MOL0     H37788  -0.640   4.017   2.223  1.0491  1.9788 -1.0754
  274MOL0     H37789  -0.479   4.095   2.219  2.1053 -0.0494  2.0166
  274MOL0     H37790  -0.512   4.216   2.409  0.4544 -0.6906 -1.8493
  274MOL0     H37791  -0.651   4.126   2.465 -1.6090  3.2067  0.6029
  274MOL0     H37792   0.022   3.692   2.886  1.7313 -2.1774  3.1673
  274MOL0     H37793   0.250   3.731   2.945  0.8186  0.3445 -0.9631
  274MOL0     H37794   0.700   3.788   2.741 -0.2217 -0.3011 -0.3263
  274MOL0     H37795   0.944   3.791   2.751 -1.8920  2.2284  0.6832
  274MOL0     H37796   2.511   3.074   2.476 -3.3904 -0.2348 -1.4878
  274MOL0     H37797   2.615   3.101   2.251 -0.1694 -0.8134 -0.6576
  274MOL0     H37798   2.824   2.834   1.922  2.4632 -0.7338 -0.6034
  274MOL0     H37799   2.979   2.852   1.735 -1.1504 -0.0683 -0.0216
  274MOL0     H37800   2.876   3.165   1.423  0.2614  0.9889 -4.7799
  274MOL0     H37801   3.026   3.079   1.362 -1.1009  1.8280 -2.1211
  274MOL0     H37802   2.762   3.017   1.289  0.1092  0.8516  1.3459
  274MOL0     H37803   2.764   2.947   1.442 -0.7663  3.0606  0.4542
  274MOL0     H37804   2.822   2.782   1.267 -0.3854  0.8356  0.9193
  274MOL0     H37805   2.950   2.900   1.200  0.1151  1.0455  0.6081
  274MOL0     H37806   2.972   2.750   1.460  0.4146 -1.3667  0.0408
  274MOL0     H37807   3.100   2.845   1.379  0.0132  0.7217 -0.4304
  274MOL0     H37808   3.110   2.498   1.151 -0.0624  2.7692 -1.1574
  274MOL0     H37809   2.783   3.214   1.601  0.6909  0.4038 -0.6575
  274MOL0     H37810   2.520   3.200   1.777  1.8785 -3.3421 -2.5897
  274MOL0     H37811   2.618   3.279   1.908 -1.6318 -1.3502  1.2391
  274MOL0     H37812   2.640   3.333   1.743  0.5792 -1.9897 -1.0602
  275MOL0     O37813   3.785   5.852   2.978  0.1477 -0.1694  0.7056
  275MOL0     C37814   3.752   5.782   3.070  0.3223 -0.1879  0.3196
  275MOL0     O37815   3.626   5.765   3.112  0.4015  0.0938 -0.3075
  275MOL0     C37816   3.522   5.806   3.036  0.7079 -0.7637  0.0647
  275MOL0     C37817   3.415   5.881   3.104 -0.3579 -0.0323  0.6886
  275MOL0     C37818   3.310   5.948   3.031 -0.6564 -0.2706 -0.9619
  275MOL0     C37819   3.299   5.922   2.890  0.1143 -0.1904 -0.1683
  275MOL0     O37820   3.200   5.964   2.805  0.0102 -0.0647  0.0586
  275MOL0     C37821   3.131   6.090   2.852  0.1789 -0.0185  0.3139
  275MOL0     C37822   3.027   6.120   2.744 -0.1865 -0.0637  0.0131
  275MOL0     C37823   3.085   6.147   2.612 -0.4852  0.3017  1.0166
  275MOL0     C37824   3.134   6.033   2.529  0.6242  0.0479 -0.4989
  275MOL0     C37825   3.181   6.094   2.401  0.5943 -0.4755 -0.4514
  275MOL0     C37826   3.230   5.985   2.302 -0.3091  0.8366 -0.0333
  275MOL0     C37827   3.338   5.890   2.370  0.2435  0.2818  0.5262
  275MOL0     C37828   3.416   5.815   2.257  0.1958  0.3557 -0.7253
  275MOL0     N37829   3.508   5.723   2.332  0.2977  0.8778 -0.0323
  275MOL0     C37830   3.604   5.761   2.417 -0.1132 -1.1811 -0.3839
  275MOL0     C37831   3.664   5.647   2.461 -0.7826  0.0369 -0.2402
  275MOL0     C37832   3.753   5.618   2.578 -0.1443 -0.4358 -1.0611
  275MOL0     C37833   3.875   5.540   2.535 -0.2572  0.7810 -0.1673
  275MOL0     C37834   3.959   5.607   2.416 -0.4371  0.0921 -0.9310
  275MOL0     C37835   4.098   5.550   2.392 -0.3244  0.0551  0.8481
  275MOL0     O37836   4.169   5.566   2.516 -0.0878 -0.0062 -0.0551
  275MOL0     C37837   4.298   5.523   2.518  0.1994  0.1997 -0.7549
  275MOL0     C37838   4.354   5.432   2.427  0.3768 -0.0071  0.6315
  275MOL0     C37839   4.478   5.380   2.445 -0.9023 -0.2269  0.1997
  275MOL0     C37840   4.512   5.273   2.340  0.3560  0.1828 -0.7627
  275MOL0     C37841   4.547   5.415   2.556  0.2807 -0.2086 -0.4409
  275MOL0     C37842   4.682   5.357   2.588  0.6364  0.0363 -0.2560
  275MOL0     O37843   4.705   5.319   2.721  0.4415  0.0539  0.7354
  275MOL0     C37844   4.834   5.304   2.759 -0.1479  0.5084  0.3289
  275MOL0     C37845   4.911   5.179   2.724  0.4003  0.7337  0.1671
  275MOL0     C37846   5.045   5.174   2.755  0.2602 -0.1974  0.9770
  275MOL0     C37847   5.109   5.279   2.827  0.5399 -0.3801  0.2507
  275MOL0     O37848   5.241   5.256   2.857 -0.6280  0.2803 -0.5680
  275MOL0     C37849   5.333   5.368   2.853  0.3472 -0.2711 -0.1213
  275MOL0     C37850   5.473   5.320   2.843 -0.9554 -0.6451  0.1117
  275MOL0     C37851   5.575   5.420   2.906  0.4520 -0.2119  0.3662
  275MOL0     C37852   5.713   5.345   2.906  0.9900 -0.2099  0.4014
  275MOL0     C37853   5.813   5.452   2.942  0.1615  1.0176 -0.2952
  275MOL0     C37854   5.964   5.400   2.945 -0.1790 -0.3508  0.4327
  275MOL0     C37855   6.063   5.517   2.977 -0.8807 -0.2618 -0.7524
  275MOL0     C37856   6.158   5.492   3.091 -0.1720 -0.4949 -0.5977
  275MOL0    Cl37857   6.245   5.346   3.067  0.3086 -0.0066  0.0576
  275MOL0     C37858   5.033   5.401   2.850 -0.6165  0.8648 -0.0013
  275MOL0     C37859   4.902   5.407   2.819  0.1003  0.0941 -0.2690
  275MOL0     O37860   4.748   5.316   2.500  1.3221 -0.1692 -0.6503
  275MOL0     C37861   4.491   5.500   2.650 -0.6659  0.6342  0.8187
  275MOL0     C37862   4.368   5.561   2.632  0.6727 -0.3582  1.3516
  275MOL0     N37863   3.604   5.541   2.399 -0.4019 -0.0562 -0.0120
  275MOL0     N37864   3.513   5.581   2.318 -0.3607 -0.5563  0.2049
  275MOL0     C37865   3.391   5.827   2.830 -0.4822  0.8399  0.3838
  275MOL0     C37866   3.503   5.779   2.900  0.5509  0.0661 -0.0534
  275MOL0     C37867   3.859   5.714   3.151  0.6361  0.1117  0.1022
  275MOL0     C37868   3.824   5.673   3.287 -0.6669 -0.3060  0.3419
  275MOL0     C37869   3.922   5.608   3.368 -0.2893  0.3088 -0.3711
  275MOL0     C37870   4.052   5.584   3.326 -0.1137  1.0388 -0.7592
  275MOL0     O37871   4.127   5.495   3.407 -0.3312 -0.3582 -1.4815
  275MOL0     C37872   4.258   5.462   3.360  0.2544  0.8164  0.2783
  275MOL0     C37873   4.341   5.353   3.435  0.0881 -0.2999 -0.0336
  275MOL0     C37874   4.363   5.369   3.576 -0.8071 -0.1843 -0.6085
  275MOL0     C37875   4.423   5.502   3.624 -0.2654 -0.4543 -0.0105
  275MOL0     C37876   4.465   5.489   3.766 -0.2178  0.6004 -0.6344
  275MOL0     C37877   4.481   5.477   3.884  0.7109  1.3901 -0.3547
  275MOL0     C37878   4.093   5.639   3.204 -0.3331  0.5541  0.2548
  275MOL0     C37879   3.994   5.693   3.112 -0.2974  0.7886 -0.1386
  275MOL0     C37880   4.043   5.724   2.975 -0.4766 -0.6701 -0.8453
  275MOL0     H37881   3.414   5.890   3.213 -2.6632  0.7337  0.6560
  275MOL0     H37882   3.247   6.007   3.097  0.2633 -1.9431  1.5487
  275MOL0     H37883   3.205   6.168   2.870  3.0372 -2.9898  2.7472
  275MOL0     H37884   3.079   6.064   2.945 -2.9703 -0.7599 -1.5043
  275MOL0     H37885   2.954   6.038   2.741  0.5580 -1.1879  4.6288
  275MOL0     H37886   2.971   6.206   2.783 -1.2260  0.1291 -1.8011
  275MOL0     H37887   3.010   6.206   2.559 -0.1588 -1.0263 -1.0109
  275MOL0     H37888   3.176   6.204   2.632  0.6564 -0.0133 -2.6904
  275MOL0     H37889   3.220   5.982   2.574 -2.1850 -2.9643  1.8425
  275MOL0     H37890   3.062   5.955   2.504  1.7439 -1.0510 -0.3996
  275MOL0     H37891   3.259   6.168   2.419  0.4435 -0.5134  0.3740
  275MOL0     H37892   3.099   6.144   2.349  2.4797 -0.4490 -3.7019
  275MOL0     H37893   3.145   5.919   2.279  2.1666 -3.2044  1.3210
  275MOL0     H37894   3.252   6.033   2.206 -1.7166 -1.4359 -1.5902
  275MOL0     H37895   3.287   5.817   2.433 -0.3970 -1.9015 -2.2674
  275MOL0     H37896   3.401   5.954   2.432  0.5911  0.3330  0.1286
  275MOL0     H37897   3.336   5.759   2.207  1.2463 -1.0383 -0.9198
  275MOL0     H37898   3.464   5.880   2.184 -0.2605  0.4174 -0.9726
  275MOL0     H37899   3.620   5.864   2.447  2.0366 -1.5064 -0.2107
  275MOL0     H37900   3.699   5.551   2.646 -0.6628 -0.3015 -1.3352
  275MOL0     H37901   3.784   5.702   2.639 -1.0020 -1.7733  1.3547
  275MOL0     H37902   3.940   5.525   2.621 -0.5448 -2.0355 -0.3457
  275MOL0     H37903   3.846   5.437   2.516  1.7078 -0.1778  1.6747
  275MOL0     H37904   3.899   5.600   2.325  0.5194  0.5266 -1.6101
  275MOL0     H37905   3.979   5.713   2.430  2.4198 -0.7440  3.9732
  275MOL0     H37906   4.084   5.442   2.383  0.2181 -0.1335  2.0814
  275MOL0     H37907   4.141   5.592   2.300 -2.6735 -1.1282 -0.9051
  275MOL0     H37908   4.301   5.409   2.335 -0.4240  2.4967  0.4032
  275MOL0     H37909   4.463   5.282   2.242 -1.3909  0.9423  0.1408
  275MOL0     H37910   4.491   5.171   2.372 -0.5949  0.6437  0.1300
  275MOL0     H37911   4.617   5.292   2.315  0.8866  1.3337  1.9739
  275MOL0     H37912   4.858   5.101   2.671 -1.2498  1.2760  0.9439
  275MOL0     H37913   5.118   5.093   2.756  3.3006  2.3133 -0.9124
  275MOL0     H37914   5.310   5.433   2.769 -0.2949  0.0591  0.3025
  275MOL0     H37915   5.329   5.429   2.944 -0.3645  1.8740 -1.5401
  275MOL0     H37916   5.481   5.225   2.896 -1.8693 -0.7027  0.1541
  275MOL0     H37917   5.488   5.309   2.735 -0.7065  0.2582  0.0400
  275MOL0     H37918   5.541   5.434   3.009 -1.4425  0.2871 -0.3009
  275MOL0     H37919   5.573   5.520   2.862 -2.1258 -0.5252 -0.3438
  275MOL0     H37920   5.732   5.311   2.804  3.0072  1.1872  0.2667
  275MOL0     H37921   5.708   5.257   2.970 -0.7007 -0.8609 -0.5468
  275MOL0     H37922   5.811   5.523   2.859  0.3706  1.2808 -0.0779
  275MOL0     H37923   5.778   5.498   3.035 -2.2542 -0.5872 -0.3281
  275MOL0     H37924   5.993   5.339   2.858 -0.4936 -0.5080  0.4375
  275MOL0     H37925   5.964   5.325   3.025  0.4057 -1.9956 -1.0251
  275MOL0     H37926   6.007   5.605   3.008 -0.1360  2.1169 -5.2952
  275MOL0     H37927   6.130   5.543   2.894  1.9980 -2.4043  0.7289
  275MOL0     H37928   6.108   5.503   3.188 -0.4557 -0.8463 -0.7030
  275MOL0     H37929   6.239   5.566   3.096  1.3050 -2.1303  0.7373
  275MOL0     H37930   5.088   5.485   2.890 -0.1911  1.0722 -0.9733
  275MOL0     H37931   4.843   5.496   2.841  0.4858 -0.4186  3.4256
  275MOL0     H37932   4.541   5.521   2.744 -0.2709 -0.2575  0.8182
  275MOL0     H37933   4.323   5.617   2.713 -0.7680 -0.2729  0.5322
  275MOL0     H37934   3.384   5.802   2.725 -1.6798 -0.5906  0.7668
  275MOL0     H37935   3.585   5.729   2.850  1.6136  0.3525  1.3546
  275MOL0     H37936   3.721   5.682   3.319 -0.5405  1.8382  0.3439
  275MOL0     H37937   3.905   5.562   3.465  1.5911  2.2521  0.9885
  275MOL0     H37938   4.247   5.429   3.256 -0.4706  0.6174  0.4151
  275MOL0     H37939   4.324   5.550   3.363  2.4372 -0.6886 -0.5608
  275MOL0     H37940   4.438   5.353   3.385  0.9356 -0.8576  1.5573
  275MOL0     H37941   4.293   5.256   3.417 -0.0188  0.1490 -2.4513
  275MOL0     H37942   4.263   5.357   3.617 -0.7260 -1.2461 -0.7008
  275MOL0     H37943   4.416   5.282   3.617 -3.6433 -2.4051 -1.3251
  275MOL0     H37944   4.348   5.581   3.621  2.4805  2.6443  3.3216
  275MOL0     H37945   4.504   5.528   3.555 -1.2110 -1.6661 -1.6495
  275MOL0     H37946   4.499   5.467   3.989 -1.9534  2.5031  0.3005
  275MOL0     H37947   4.194   5.626   3.166 -1.3567  0.9465 -2.8705
  275MOL0     H37948   4.110   5.811   2.980 -1.0517 -0.1948 -1.2766
  275MOL0     H37949   4.109   5.643   2.941 -1.9355 -0.7522 -3.7674
  275MOL0     H37950   3.969   5.731   2.895  0.6388 -0.1741 -1.8794
  276MOL0     O37951  11.163   7.370   5.950  0.1036 -0.3734 -0.4180
  276MOL0     C37952  11.114   7.407   5.844 -0.0201  0.0734  0.1840
  276MOL0     O37953  11.154   7.510   5.768 -0.4090 -0.2234  0.0541
  276MOL0     C37954  11.275   7.558   5.785  0.2599  0.2434  0.0973
  276MOL0     C37955  11.280   7.698   5.783 -0.7921 -0.2215  0.6327
  276MOL0     C37956  11.403   7.766   5.775  0.0595  0.2350  0.1183
  276MOL0     C37957  11.515   7.685   5.782  0.6895 -0.7115  0.4691
  276MOL0     O37958  11.640   7.749   5.784  0.1731 -0.2480 -0.4409
  276MOL0     C37959  11.687   7.760   5.919 -0.2394  0.0043  0.1660
  276MOL0     C37960  11.783   7.879   5.930  0.4194 -0.3273  0.7808
  276MOL0     C37961  11.906   7.876   5.838  0.7986  0.5707 -0.3101
  276MOL0     C37962  11.984   8.003   5.859  1.4312  0.3603 -0.3533
  276MOL0     C37963  12.012   8.077   5.732 -0.6838  0.0861 -0.2591
  276MOL0     C37964  12.104   8.204   5.752 -0.4137 -0.0146  0.6392
  276MOL0     C37965  12.140   8.265   5.610 -0.1693  0.4941 -0.6289
  276MOL0     C37966  12.225   8.383   5.628  0.0432 -0.3894  0.6313
  276MOL0     N37967  12.234   8.448   5.498 -0.1688 -0.0845 -0.8158
  276MOL0     C37968  12.325   8.427   5.396 -0.2768 -0.2084 -0.0272
  276MOL0     C37969  12.330   8.541   5.323 -0.4180 -0.5573  0.3399
  276MOL0     C37970  12.430   8.580   5.211 -0.8732  0.9336 -0.3910
  276MOL0     C37971  12.444   8.467   5.109  0.3087 -0.6948 -0.9083
  276MOL0     C37972  12.556   8.493   5.015  0.4874  0.5784 -0.3361
  276MOL0     C37973  12.604   8.359   4.946 -0.2661 -1.2075  0.8148
  276MOL0     O37974  12.744   8.372   4.905 -0.4646 -0.0028  0.3637
  276MOL0     C37975  12.808   8.263   4.852  0.8203 -1.3795 -0.0440
  276MOL0     C37976  12.777   8.130   4.858  0.4052  0.1312  0.4817
  276MOL0     C37977  12.853   8.031   4.797  0.2992  0.3140 -0.1895
  276MOL0     C37978  12.800   7.886   4.788 -0.0652  0.3385 -0.1486
  276MOL0     C37979  12.979   8.070   4.740  0.5921 -1.1922 -0.0741
  276MOL0     C37980  13.072   7.971   4.682 -0.5790 -0.2648 -0.6383
  276MOL0     O37981  13.129   8.011   4.568  0.5216 -0.4227 -0.0139
  276MOL0     C37982  13.259   7.977   4.547 -0.3933 -0.0770  0.7302
  276MOL0     C37983  13.293   7.979   4.415 -0.0928 -0.2569 -0.2485
  276MOL0     C37984  13.428   7.954   4.381 -0.3682 -0.6222 -0.4323
  276MOL0     C37985  13.535   7.942   4.479  0.1539 -0.4637 -0.0952
  276MOL0     O37986  13.667   7.912   4.452 -0.1041 -0.5175  0.5338
  276MOL0     C37987  13.710   7.891   4.314 -0.3726 -0.1763  0.4155
  276MOL0     C37988  13.863   7.883   4.314 -0.9541  0.3743  1.2097
  276MOL0     C37989  13.916   7.752   4.369 -0.3528 -0.0694  0.3280
  276MOL0     C37990  14.074   7.732   4.375  0.1236 -0.8079 -0.9724
  276MOL0     C37991  14.138   7.836   4.464  0.1866  0.2428 -0.2823
  276MOL0     C37992  14.280   7.806   4.473 -0.9071  0.1540  0.2806
  276MOL0     C37993  14.371   7.887   4.562  0.3034 -0.0117 -0.2893
  276MOL0     C37994  14.400   7.804   4.686 -0.6145 -0.8251  0.6748
  276MOL0    Cl37995  14.527   7.680   4.646 -0.1464 -0.2559 -0.2615
  276MOL0     C37996  13.490   7.932   4.606 -0.8099 -0.1206 -0.6407
  276MOL0     C37997  13.357   7.957   4.648 -0.1041  0.4531 -0.3937
  276MOL0     O37998  13.103   7.869   4.749 -0.2419  0.0319  0.2364
  276MOL0     C37999  13.009   8.209   4.746 -1.0220  0.9903  0.6319
  276MOL0     C38000  12.928   8.301   4.798 -0.0859  0.6344  0.4031
  276MOL0     N38001  12.220   8.617   5.366 -1.0604 -0.5693 -0.4556
  276MOL0     N38002  12.165   8.550   5.467 -0.1472 -0.4532  0.1103
  276MOL0     C38003  11.512   7.544   5.789 -1.0576  0.7698  0.0287
  276MOL0     C38004  11.393   7.479   5.793 -0.2656  0.3867 -0.1513
  276MOL0     C38005  10.993   7.342   5.794 -0.0802 -0.4915 -0.4321
  276MOL0     C38006  10.900   7.429   5.734  0.3675 -0.2548 -0.5221
  276MOL0     C38007  10.773   7.388   5.712 -0.1750  0.6775  0.0462
  276MOL0     C38008  10.721   7.260   5.748  0.0389  0.4092 -0.2702
  276MOL0     O38009  10.584   7.242   5.735 -0.3086  0.2414 -0.0353
  276MOL0     C38010  10.523   7.112   5.733  0.0763  0.3621  0.3877
  276MOL0     C38011  10.401   7.103   5.638 -0.3864  0.1777 -0.1470
  276MOL0     C38012  10.445   7.102   5.492  0.0208  0.9415 -0.7245
  276MOL0     C38013  10.456   6.962   5.426 -0.3409 -0.6179  0.8498
  276MOL0     C38014  10.580   6.881   5.454 -0.4349  0.6997  0.2400
  276MOL0     C38015  10.688   6.827   5.480 -0.0692  0.3149  0.1245
  276MOL0     C38016  10.821   7.171   5.793 -0.1091 -0.1456  0.2847
  276MOL0     C38017  10.956   7.215   5.807 -0.7958  0.1956 -0.4265
  276MOL0     C38018  11.044   7.116   5.880 -0.0252 -0.9560 -0.1276
  276MOL0     H38019  11.188   7.756   5.782 -0.2288  0.7084  1.4385
  276MOL0     H38020  11.413   7.874   5.778 -0.2422  0.2494  0.6768
  276MOL0     H38021  11.754   7.676   5.940  1.4511  1.0977 -0.6394
  276MOL0     H38022  11.609   7.773   5.994 -1.1289  2.8879 -1.1215
  276MOL0     H38023  11.725   7.965   5.898  0.2048 -0.3099  1.2127
  276MOL0     H38024  11.814   7.891   6.034  1.3464  5.5622  0.1548
  276MOL0     H38025  11.962   7.783   5.852 -2.0105 -1.7893 -3.1497
  276MOL0     H38026  11.884   7.867   5.731 -0.0252 -2.2595  0.0070
  276MOL0     H38027  11.923   8.069   5.921  1.8347  0.6825 -0.2961
  276MOL0     H38028  12.077   7.989   5.914  0.5490  3.6185  2.3283
  276MOL0     H38029  11.928   8.087   5.663 -1.4251 -2.4149  0.1766
  276MOL0     H38030  12.071   8.006   5.673  0.5550  0.6198  0.3026
  276MOL0     H38031  12.053   8.278   5.815 -0.7899  1.0543 -0.8799
  276MOL0     H38032  12.191   8.171   5.811 -0.0618  1.6329  1.0994
  276MOL0     H38033  12.052   8.288   5.550 -0.7961 -0.7807 -0.2213
  276MOL0     H38034  12.193   8.185   5.558 -1.0239 -2.0594  2.1296
  276MOL0     H38035  12.187   8.446   5.709 -3.1018 -1.1722 -0.0916
  276MOL0     H38036  12.323   8.353   5.664  1.0520  2.5293  0.5910
  276MOL0     H38037  12.384   8.337   5.378 -0.3434 -0.1437 -0.6196
  276MOL0     H38038  12.524   8.605   5.261 -1.3434 -1.1323  1.7411
  276MOL0     H38039  12.408   8.672   5.155 -2.6507 -0.5491 -2.2879
  276MOL0     H38040  12.473   8.373   5.159 -0.9840 -0.1451  1.0088
  276MOL0     H38041  12.346   8.462   5.060 -0.5072 -0.3199  0.6258
  276MOL0     H38042  12.529   8.557   4.930  1.5225 -2.8163 -3.4953
  276MOL0     H38043  12.649   8.537   5.054  0.8297  0.7469 -1.2983
  276MOL0     H38044  12.602   8.284   5.026  1.2472  0.2849  2.3363
  276MOL0     H38045  12.533   8.332   4.867 -0.4947  3.0191 -0.6663
  276MOL0     H38046  12.683   8.113   4.909  1.5614 -0.1640  2.6149
  276MOL0     H38047  12.696   7.873   4.820  0.9809  1.2952  4.1187
  276MOL0     H38048  12.867   7.826   4.850 -2.9627 -2.5070  0.5139
  276MOL0     H38049  12.812   7.832   4.693 -0.3181 -1.1199  0.6228
  276MOL0     H38050  13.214   7.987   4.341 -1.2594  1.8868  1.1535
  276MOL0     H38051  13.459   7.943   4.278  1.7104  1.1437 -0.0694
  276MOL0     H38052  13.668   7.796   4.281 -1.5878  0.8108 -1.0213
  276MOL0     H38053  13.672   7.968   4.245  0.8543  0.5750  0.5346
  276MOL0     H38054  13.903   7.900   4.213 -0.9581  0.0155  1.1436
  276MOL0     H38055  13.902   7.963   4.377 -0.1308 -0.3742  1.6658
  276MOL0     H38056  13.865   7.676   4.310  1.2460 -0.4196 -0.6722
  276MOL0     H38057  13.883   7.751   4.474  3.0389 -1.1106  1.5195
  276MOL0     H38058  14.110   7.734   4.272  1.0046  0.2311 -0.6558
  276MOL0     H38059  14.090   7.629   4.407 -0.5568 -0.4522  0.6197
  276MOL0     H38060  14.131   7.939   4.427 -0.7708 -0.4240 -2.1053
  276MOL0     H38061  14.087   7.831   4.560  0.8031 -2.3626 -0.0122
  276MOL0     H38062  14.321   7.818   4.372 -1.0038 -2.9110 -0.2218
  276MOL0     H38063  14.292   7.699   4.495  0.4165 -0.0173 -1.0563
  276MOL0     H38064  14.318   7.979   4.588  2.5889  1.1451  0.6119
  276MOL0     H38065  14.463   7.922   4.514 -1.9416  2.7580 -3.0556
  276MOL0     H38066  14.316   7.745   4.722 -1.7775 -2.0970 -3.5423
  276MOL0     H38067  14.432   7.863   4.772  2.4569 -3.0475  1.2201
  276MOL0     H38068  13.563   7.912   4.684  0.0871 -1.9723 -1.8708
  276MOL0     H38069  13.316   7.943   4.748 -2.5784 -0.3695 -1.4583
  276MOL0     H38070  13.108   8.232   4.710 -0.7622  1.1384  1.4088
  276MOL0     H38071  12.957   8.406   4.792  0.6348  0.8438  4.4440
  276MOL0     H38072  11.602   7.486   5.801 -1.6342  0.0846  1.2003
  276MOL0     H38073  11.395   7.371   5.791  3.8886  0.2803 -2.8993
  276MOL0     H38074  10.923   7.530   5.701  3.3682 -0.3137  1.1145
  276MOL0     H38075  10.702   7.461   5.674 -2.7323 -1.1961  0.9651
  276MOL0     H38076  10.597   7.035   5.707  2.0235  2.6380 -1.3197
  276MOL0     H38077  10.490   7.089   5.834  1.5571  0.8211  1.0008
  276MOL0     H38078  10.323   7.178   5.652 -0.0815  0.6256 -0.7708
  276MOL0     H38079  10.349   7.011   5.666  1.7894 -0.6143  1.5335
  276MOL0     H38080  10.357   7.152   5.451 -1.7521 -0.5102  1.0957
  276MOL0     H38081  10.528   7.169   5.470  0.9782 -0.2302 -0.8086
  276MOL0     H38082  10.457   6.984   5.319  2.9156 -0.6141  0.7816
  276MOL0     H38083  10.367   6.901   5.444  0.1245 -2.4172 -2.2672
  276MOL0     H38084  10.778   6.780   5.513 -1.7369 -3.0604  0.3449
  276MOL0     H38085  10.788   7.073   5.828 -1.8370  0.3844  0.2390
  276MOL0     H38086  11.002   7.017   5.863  0.1179 -0.8339 -1.2258
  276MOL0     H38087  11.144   7.112   5.837 -0.5975 -3.3796 -1.4047
  276MOL0     H38088  11.044   7.144   5.986 -2.4059  1.4520 -0.6543
  277MOL0     O38089  10.267   3.210   9.142 -0.5866 -0.0083  0.3975
  277MOL0     C38090  10.240   3.125   9.055 -0.3901 -0.2933  0.7709
  277MOL0     O38091  10.159   3.018   9.076 -0.2489  0.3213  0.2464
  277MOL0     C38092  10.078   3.013   9.177  1.2865 -0.2836  0.3762
  277MOL0     C38093   9.981   3.104   9.212  0.1952 -0.3379  0.4660
  277MOL0     C38094   9.902   3.075   9.327 -1.0856  0.1313  0.6131
  277MOL0     C38095   9.925   2.950   9.399  0.5666 -0.0428 -0.4115
  277MOL0     O38096   9.847   2.917   9.505  1.2599  0.2987 -1.2648
  277MOL0     C38097   9.817   3.005   9.617  0.0142 -0.3412 -0.5921
  277MOL0     C38098   9.702   2.943   9.698 -0.2325  0.7961 -0.0287
  277MOL0     C38099   9.644   3.045   9.793 -0.2786 -0.4694 -0.9290
  277MOL0     C38100   9.521   3.116   9.734  0.1005 -0.0039  0.9210
  277MOL0     C38101   9.457   3.203   9.846  0.0215 -0.8694 -0.4405
  277MOL0     C38102   9.378   3.316   9.774  1.0663 -0.1083 -0.0246
  277MOL0     C38103   9.349   3.426   9.873  0.5692  0.9192  0.7319
  277MOL0     C38104   9.264   3.546   9.824  0.2621  1.0247 -0.9413
  277MOL0     N38105   9.150   3.494   9.744  0.1099  0.7249  0.1237
  277MOL0     C38106   9.152   3.436   9.615 -0.6907 -1.1103 -0.8155
  277MOL0     C38107   9.017   3.415   9.598  0.2263 -0.8863 -0.3247
  277MOL0     C38108   8.957   3.377   9.470  0.2616  1.2967 -0.3139
  277MOL0     C38109   9.043   3.274   9.385 -0.2125  0.1427  0.4827
  277MOL0     C38110   8.964   3.228   9.255 -0.5306  0.1813 -0.1787
  277MOL0     C38111   8.997   3.082   9.215  0.4884 -0.5421 -0.1200
  277MOL0     O38112   9.141   3.054   9.204  0.1610 -0.1292 -0.1735
  277MOL0     C38113   9.183   2.925   9.178 -0.1675  0.4173 -0.4706
  277MOL0     C38114   9.313   2.911   9.151  0.3381 -0.7908 -0.2276
  277MOL0     C38115   9.377   2.788   9.125  1.0865 -0.3162  0.8307
  277MOL0     C38116   9.524   2.789   9.090 -0.7543  0.1045  0.8461
  277MOL0     C38117   9.292   2.672   9.101 -0.5032 -0.1550 -0.7611
  277MOL0     C38118   9.331   2.535   9.057  0.3235 -0.0094  0.6961
  277MOL0     O38119   9.465   2.518   9.032 -0.3980 -0.9564 -0.3086
  277MOL0     C38120   9.524   2.398   9.003 -0.1807  0.1040  0.0499
  277MOL0     C38121   9.461   2.279   8.969  0.5957  0.6639  0.9149
  277MOL0     C38122   9.533   2.168   8.930  0.1106  0.5807  0.2433
  277MOL0     C38123   9.669   2.168   8.928 -0.4814  0.0621 -0.7921
  277MOL0     O38124   9.727   2.051   8.882  0.0929  0.4885 -0.6833
  277MOL0     C38125   9.866   2.029   8.900 -0.7913  0.0740  0.3603
  277MOL0     C38126   9.894   1.905   8.804  0.2288 -0.5499  0.8071
  277MOL0     C38127   9.866   1.772   8.867 -0.4727 -1.0163 -0.4334
  277MOL0     C38128   9.726   1.727   8.837  0.1253 -0.2083  0.6845
  277MOL0     C38129   9.720   1.571   8.848  0.6334 -0.0831 -0.2983
  277MOL0     C38130   9.574   1.512   8.849 -0.1488  0.2302  0.9765
  277MOL0     C38131   9.590   1.367   8.883  0.2562  0.3307 -0.2498
  277MOL0     C38132   9.450   1.304   8.904 -0.0470 -0.6425  0.4424
  277MOL0    Cl38133   9.348   1.315   8.749  0.2794 -0.2064 -0.9618
  277MOL0     C38134   9.735   2.285   8.978 -0.6963  0.4117  0.2538
  277MOL0     C38135   9.663   2.399   9.001  0.1760 -0.1492 -0.3339
  277MOL0     O38136   9.244   2.451   9.037 -0.1099 -0.2868 -0.2905
  277MOL0     C38137   9.156   2.690   9.131  0.0368  0.6733 -0.4644
  277MOL0     C38138   9.106   2.809   9.176  0.6255  0.0741 -0.4856
  277MOL0     N38139   8.947   3.457   9.707 -0.8255  0.4435 -0.2954
  277MOL0     N38140   9.022   3.497   9.798  0.6563 -0.6769 -0.3932
  277MOL0     C38141  10.012   2.857   9.358  0.2462 -0.4170 -0.4646
  277MOL0     C38142  10.089   2.893   9.249 -0.8213  0.4511 -0.0085
  277MOL0     C38143  10.314   3.132   8.924  0.1176  0.7313  0.0520
  277MOL0     C38144  10.328   3.006   8.856  0.4835  0.0175  0.4267
  277MOL0     C38145  10.390   3.007   8.734  0.0728  0.0658  0.2398
  277MOL0     C38146  10.444   3.123   8.682  0.0002  0.1232  0.4420
  277MOL0     O38147  10.500   3.111   8.559  0.0410  0.8107  0.2008
  277MOL0     C38148  10.623   3.169   8.524 -0.4837  0.5912  0.2363
  277MOL0     C38149  10.748   3.096   8.571  0.4034  0.7104  0.0407
  277MOL0     C38150  10.869   3.162   8.503  0.3729 -0.7133 -0.2949
  277MOL0     C38151  10.998   3.107   8.565  0.3855 -0.2424  0.0017
  277MOL0     C38152  11.013   2.967   8.557  0.9913  0.9651  0.4215
  277MOL0     C38153  11.034   2.847   8.554 -0.0714  0.9654  0.1941
  277MOL0     C38154  10.429   3.246   8.749  0.3758  0.5075 -0.7413
  277MOL0     C38155  10.372   3.251   8.872 -0.2665 -1.6017 -1.0073
  277MOL0     C38156  10.367   3.390   8.929 -0.2864 -0.1287 -0.1585
  277MOL0     H38157   9.965   3.190   9.147  0.7870 -0.2066  0.4864
  277MOL0     H38158   9.833   3.151   9.361  1.3316  2.1021  1.4072
  277MOL0     H38159   9.791   3.109   9.593  1.1286  0.0326 -0.2680
  277MOL0     H38160   9.901   3.016   9.687 -0.0963  0.2229 -0.5412
  277MOL0     H38161   9.642   2.897   9.619  1.2928  1.9632 -1.9521
  277MOL0     H38162   9.736   2.864   9.765 -0.1666  1.2144  0.4409
  277MOL0     H38163   9.618   2.990   9.884  1.0865  0.3319 -0.0258
  277MOL0     H38164   9.719   3.122   9.814 -0.1257 -0.8004 -0.2208
  277MOL0     H38165   9.558   3.177   9.652  2.4944  1.2309  2.7957
  277MOL0     H38166   9.451   3.044   9.690 -0.0335  0.7559 -0.1388
  277MOL0     H38167   9.537   3.239   9.912 -1.1109  0.8712  0.0602
  277MOL0     H38168   9.387   3.136   9.897  2.8719 -3.6190  0.1427
  277MOL0     H38169   9.441   3.364   9.698  1.6970 -0.3152  0.3521
  277MOL0     H38170   9.292   3.260   9.737 -0.0980  0.2843  1.9915
  277MOL0     H38171   9.443   3.472   9.905  1.5461  0.1081 -0.8805
  277MOL0     H38172   9.302   3.377   9.958 -1.8710 -2.2846 -2.1992
  277MOL0     H38173   9.235   3.603   9.913  0.9486  3.7815 -2.4030
  277MOL0     H38174   9.317   3.616   9.759  3.1329  1.0102  1.1738
  277MOL0     H38175   9.241   3.428   9.553  0.0871 -0.3717  0.1909
  277MOL0     H38176   8.952   3.464   9.405  0.5484  2.3641  1.0536
  277MOL0     H38177   8.857   3.340   9.493 -0.0472  2.0831 -0.3875
  277MOL0     H38178   9.136   3.320   9.349 -0.9990  0.1687 -1.6184
  277MOL0     H38179   9.072   3.185   9.441 -0.3663  0.8372  1.7195
  277MOL0     H38180   8.857   3.226   9.275 -0.8940  0.6824 -1.8962
  277MOL0     H38181   8.983   3.299   9.174 -1.2212 -0.0283 -0.5289
  277MOL0     H38182   8.959   3.022   9.299  0.2585  1.7118  1.4670
  277MOL0     H38183   8.944   3.070   9.120 -0.0361 -0.3445  0.1395
  277MOL0     H38184   9.364   3.005   9.168 -0.1363 -0.8077  1.4880
  277MOL0     H38185   9.544   2.782   8.983 -1.9812  0.0429  0.6116
  277MOL0     H38186   9.567   2.702   9.141  1.8782 -0.4853 -2.0493
  277MOL0     H38187   9.568   2.884   9.122  0.5670  0.1392 -0.9010
  277MOL0     H38188   9.354   2.264   8.965  0.4384  1.4368  1.8912
  277MOL0     H38189   9.481   2.081   8.893  1.9355 -1.1016  1.4628
  277MOL0     H38190   9.917   2.119   8.864 -0.1715 -2.2344 -5.5950
  277MOL0     H38191   9.896   2.009   9.003 -1.2982  0.8658  0.6665
  277MOL0     H38192   9.844   1.908   8.707 -1.1416 -4.4334  1.2008
  277MOL0     H38193   9.998   1.924   8.778  0.1103  0.0297  0.7456
  277MOL0     H38194   9.887   1.769   8.974 -2.1515  1.5908  0.0545
  277MOL0     H38195   9.933   1.699   8.820  0.7312 -1.2608  1.5383
  277MOL0     H38196   9.695   1.762   8.738 -0.6812  1.8097  1.5918
  277MOL0     H38197   9.653   1.777   8.902  0.1509  0.1955  0.4080
  277MOL0     H38198   9.772   1.523   8.765  2.4445 -1.5945  1.5888
  277MOL0     H38199   9.769   1.544   8.942 -1.2046  0.2318  0.8202
  277MOL0     H38200   9.543   1.518   8.744  2.0436  0.0070  0.2745
  277MOL0     H38201   9.505   1.571   8.910 -1.9791  1.2056 -1.8354
  277MOL0     H38202   9.649   1.373   8.975 -2.7434 -0.8332  1.9272
  277MOL0     H38203   9.647   1.312   8.807  1.6685  2.1449 -0.5823
  277MOL0     H38204   9.399   1.364   8.980 -0.1754 -0.8409  0.5171
  277MOL0     H38205   9.462   1.205   8.951  1.2829 -1.1081 -0.8102
  277MOL0     H38206   9.843   2.292   8.983 -0.4786 -1.4684 -0.7371
  277MOL0     H38207   9.707   2.494   9.028 -1.8281 -0.0298  3.0534
  277MOL0     H38208   9.096   2.599   9.128 -0.8155  1.0959  1.8480
  277MOL0     H38209   9.001   2.805   9.203  0.7430 -2.1716 -0.1798
  277MOL0     H38210  10.020   2.760   9.405 -2.9565 -2.2063 -3.1967
  277MOL0     H38211  10.159   2.825   9.201 -0.2193  0.6613  0.5650
  277MOL0     H38212  10.291   2.914   8.900 -0.0218 -0.0569 -0.1362
  277MOL0     H38213  10.400   2.913   8.681 -0.4201  0.7793 -1.1796
  277MOL0     H38214  10.629   3.171   8.414  1.5850 -1.2343  0.2614
  277MOL0     H38215  10.623   3.269   8.567 -1.2546  0.3234  0.8835
  277MOL0     H38216  10.742   2.992   8.540 -0.7251  1.7723 -3.9344
  277MOL0     H38217  10.744   3.104   8.680 -0.1528 -4.6815  0.6660
  277MOL0     H38218  10.862   3.142   8.396 -0.0640 -2.8358  0.0733
  277MOL0     H38219  10.865   3.270   8.518 -0.3943 -0.6479 -0.9208
  277MOL0     H38220  11.000   3.123   8.673 -0.4757  0.1149 -0.0329
  277MOL0     H38221  11.081   3.164   8.523  0.6160  0.4184  1.2891
  277MOL0     H38222  11.054   2.742   8.548  1.6894  1.0615  2.5937
  277MOL0     H38223  10.469   3.339   8.709  1.1285  1.0435  1.1727
  277MOL0     H38224  10.351   3.457   8.844 -0.1467 -0.7504 -0.6904
  277MOL0     H38225  10.286   3.405   9.000 -1.0357  1.4994 -1.2911
  277MOL0     H38226  10.458   3.414   8.985 -0.9226 -1.9169  1.7755
  278MOL0     O38227   7.658   7.334  11.185 -0.0191  0.6548 -0.4796
  278MOL0     C38228   7.588   7.399  11.261  0.5003  0.1647  0.5280
  278MOL0     O38229   7.631   7.497  11.346 -0.1177 -0.1370 -0.0987
  278MOL0     C38230   7.765   7.520  11.345  0.2241  0.7843  0.0362
  278MOL0     C38231   7.839   7.572  11.236  1.1866 -0.1945 -0.9711
  278MOL0     C38232   7.971   7.601  11.272  0.5800 -0.4207  0.1300
  278MOL0     C38233   8.031   7.583  11.397  0.5844 -0.1948 -0.8112
  278MOL0     O38234   8.157   7.627  11.417 -0.5130 -0.8289  0.1846
  278MOL0     C38235   8.230   7.588  11.537  0.8772 -0.1186 -0.5026
  278MOL0     C38236   8.368   7.635  11.546  0.1664  0.0017 -0.2979
  278MOL0     C38237   8.382   7.788  11.529 -0.4523  0.8809 -0.0958
  278MOL0     C38238   8.282   7.866  11.603  0.3208  0.0110 -0.1328
  278MOL0     C38239   8.312   8.018  11.627  1.3655  0.2773 -0.7481
  278MOL0     C38240   8.391   8.076  11.511 -0.3270  0.1737 -0.0397
  278MOL0     C38241   8.297   8.099  11.387  0.6518  0.9191 -1.1482
  278MOL0     C38242   8.373   8.158  11.268 -0.2501 -0.0008  0.3733
  278MOL0     N38243   8.289   8.202  11.154 -0.2452  0.5075  0.6697
  278MOL0     C38244   8.187   8.124  11.104  0.2280 -0.0918  0.1157
  278MOL0     C38245   8.125   8.210  11.019  0.1819  0.5772  1.0604
  278MOL0     C38246   8.011   8.186  10.927  0.4019  0.0248  0.7754
  278MOL0     C38247   8.048   8.065  10.835 -0.5006 -0.8061 -0.4671
  278MOL0     C38248   7.930   7.972  10.819  0.3808 -0.0606 -0.4828
  278MOL0     C38249   7.833   8.024  10.707 -1.0309 -1.2628 -0.0241
  278MOL0     O38250   7.716   7.951  10.709  0.5794  0.2660 -0.6901
  278MOL0     C38251   7.616   7.970  10.617  1.1991 -1.3133 -0.2860
  278MOL0     C38252   7.616   8.076  10.526  0.7537 -0.5861  0.7703
  278MOL0     C38253   7.508   8.110  10.442  0.0183 -1.1754  0.1047
  278MOL0     C38254   7.521   8.228  10.355  0.4312 -0.6637  0.8681
  278MOL0     C38255   7.384   8.033  10.455 -0.7893 -0.9787  0.5302
  278MOL0     C38256   7.254   8.056  10.387 -0.3526  0.0538  0.4848
  278MOL0     O38257   7.242   8.170  10.309  0.3794 -0.1941  0.0708
  278MOL0     C38258   7.125   8.220  10.250 -0.2564 -0.0417 -0.3889
  278MOL0     C38259   6.997   8.206  10.307  0.2698 -0.1933  0.2965
  278MOL0     C38260   6.890   8.262  10.247 -0.2375 -0.8434 -0.0687
  278MOL0     C38261   6.911   8.327  10.126 -0.5732  0.6611 -0.7332
  278MOL0     O38262   6.811   8.383  10.045 -0.4042  0.4644 -0.4018
  278MOL0     C38263   6.678   8.334  10.036  0.8391  0.3178  0.4205
  278MOL0     C38264   6.588   8.446  10.065  0.1533  0.1444 -0.0833
  278MOL0     C38265   6.455   8.380  10.076 -1.2938  0.8630  0.0157
  278MOL0     C38266   6.338   8.471  10.071  0.2956 -0.3846  0.5421
  278MOL0     C38267   6.202   8.401  10.059 -0.2980 -0.9798 -0.5091
  278MOL0     C38268   6.088   8.507  10.081 -0.0502 -0.7030 -0.5184
  278MOL0     C38269   5.959   8.424  10.093 -0.0244  0.3922  0.7595
  278MOL0     C38270   5.847   8.522  10.096 -0.0132  0.7053 -0.8770
  278MOL0    Cl38271   5.698   8.439  10.055 -0.2491  0.2273  0.3614
  278MOL0     C38272   7.038   8.353  10.072 -0.7564  0.0643 -0.2501
  278MOL0     C38273   7.138   8.291  10.136 -0.9192 -0.3764 -0.3821
  278MOL0     O38274   7.162   7.975  10.405 -0.9172  0.1071  0.6984
  278MOL0     C38275   7.388   7.930  10.550  1.3588 -0.1914  0.5818
  278MOL0     C38276   7.501   7.897  10.623  0.6783 -0.4262 -0.7454
  278MOL0     N38277   8.198   8.325  11.014 -0.6193  0.2668 -0.1774
  278MOL0     N38278   8.302   8.315  11.090  0.0400 -0.1333  0.5184
  278MOL0     C38279   7.957   7.513  11.496 -0.0223 -0.9669  1.5267
  278MOL0     C38280   7.821   7.492  11.471  0.2965 -0.1701  0.5675
  278MOL0     C38281   7.442   7.360  11.267  0.2644  1.0938 -1.0787
  278MOL0     C38282   7.379   7.342  11.142  1.2647 -0.0571  0.4789
  278MOL0     C38283   7.248   7.289  11.125  0.7989  0.7495 -0.4300
  278MOL0     C38284   7.169   7.275  11.238 -0.0487 -0.2365 -0.1656
  278MOL0     O38285   7.032   7.251  11.241  0.0022 -0.3640 -0.2667
  278MOL0     C38286   6.990   7.118  11.192 -0.5866  0.6765  0.1885
  278MOL0     C38287   6.852   7.083  11.261  1.0777 -0.9915  0.2065
  278MOL0     C38288   6.862   7.066  11.416 -0.4025 -0.4858  0.0548
  278MOL0     C38289   6.772   6.957  11.467  0.0136  0.4756 -0.5701
  278MOL0     C38290   6.631   6.983  11.441 -0.2370  0.5175 -1.1941
  278MOL0     C38291   6.511   7.002  11.425  0.2622 -0.3155  0.4555
  278MOL0     C38292   7.228   7.302  11.370  0.8348  1.0242  0.1006
  278MOL0     C38293   7.361   7.334  11.383  0.9428 -0.8154  0.1179
  278MOL0     C38294   7.415   7.358  11.517 -1.0676  0.0803 -0.2681
  278MOL0     H38295   7.792   7.601  11.142 -2.0625 -2.4930 -0.2591
  278MOL0     H38296   8.023   7.667  11.204  0.4070 -2.9788 -2.7109
  278MOL0     H38297   8.222   7.479  11.531  0.1493 -0.0073 -2.3957
  278MOL0     H38298   8.172   7.614  11.626 -0.1194 -1.7297 -0.6335
  278MOL0     H38299   8.405   7.600  11.643  1.7038 -1.8385 -1.4653
  278MOL0     H38300   8.432   7.584  11.473  3.4043  0.2709  2.1495
  278MOL0     H38301   8.477   7.824  11.568 -1.0806  2.0943  0.3799
  278MOL0     H38302   8.389   7.811  11.422  0.3958 -0.1309 -0.2692
  278MOL0     H38303   8.196   7.867  11.535  1.6765 -1.2006 -1.9724
  278MOL0     H38304   8.260   7.817  11.698 -2.1158  0.2157 -0.5443
  278MOL0     H38305   8.375   8.019  11.716 -1.0496 -1.5777  1.0994
  278MOL0     H38306   8.215   8.059  11.652  1.0968 -2.4198  3.7257
  278MOL0     H38307   8.427   8.175  11.540 -1.3424  0.6173 -0.2307
  278MOL0     H38308   8.478   8.017  11.481 -1.0476 -2.5398  2.6260
  278MOL0     H38309   8.224   8.172  11.422  1.7167  0.6875  1.8660
  278MOL0     H38310   8.243   8.005  11.371  1.0923  0.6397 -1.0037
  278MOL0     H38311   8.432   8.246  11.296 -0.3254  1.3734 -3.2424
  278MOL0     H38312   8.445   8.085  11.231 -0.1250 -0.1589  0.9223
  278MOL0     H38313   8.151   8.028  11.138 -0.5965  0.2534  0.2344
  278MOL0     H38314   8.000   8.276  10.865 -0.4833 -1.6756 -1.7103
  278MOL0     H38315   7.918   8.175  10.984  0.9383 -1.6800  1.3598
  278MOL0     H38316   8.091   8.096  10.739  0.6775  1.2837  0.6746
  278MOL0     H38317   8.136   8.013  10.874  0.7050  2.1077  1.0051
  278MOL0     H38318   7.957   7.876  10.773  1.3326 -1.2509  2.3914
  278MOL0     H38319   7.879   7.947  10.912  0.8165 -1.8647 -0.7021
  278MOL0     H38320   7.798   8.125  10.729 -1.7490 -1.5218  0.0474
  278MOL0     H38321   7.887   8.010  10.612 -1.7129  2.3972 -1.1136
  278MOL0     H38322   7.699   8.145  10.514 -0.3882  0.6404 -0.4111
  278MOL0     H38323   7.446   8.302  10.384 -0.1909 -1.7734  2.2245
  278MOL0     H38324   7.511   8.201  10.249  2.2971  0.3285  0.3904
  278MOL0     H38325   7.618   8.272  10.379 -0.0638  1.6780 -1.0332
  278MOL0     H38326   6.981   8.163  10.406 -1.8080  1.4947  0.7789
  278MOL0     H38327   6.793   8.252  10.295  0.0040 -2.6318  0.1205
  278MOL0     H38328   6.647   8.296   9.939 -3.3910  2.3105  0.7521
  278MOL0     H38329   6.651   8.259  10.111  2.3244 -1.1843 -0.5113
  278MOL0     H38330   6.632   8.487  10.156  1.5513 -0.5928 -0.3919
  278MOL0     H38331   6.588   8.513   9.978  1.1502  0.7276  0.3459
  278MOL0     H38332   6.440   8.322  10.168 -0.6110 -1.5688 -1.3360
  278MOL0     H38333   6.433   8.312   9.993  0.0765  0.1844  0.1795
  278MOL0     H38334   6.353   8.534   9.983 -1.7984 -4.0131 -2.7320
  278MOL0     H38335   6.339   8.535  10.160 -0.3012 -0.5481  0.6699
  278MOL0     H38336   6.196   8.348   9.964 -1.0192  0.3334 -1.2159
  278MOL0     H38337   6.199   8.327  10.140 -2.6689  0.8306  1.1869
  278MOL0     H38338   6.085   8.585  10.005 -0.7523  2.0760  2.1641
  278MOL0     H38339   6.112   8.559  10.175  0.7101 -3.1252  0.7104
  278MOL0     H38340   5.954   8.356  10.178 -1.9571 -0.0830  0.3004
  278MOL0     H38341   5.946   8.362  10.005  2.1479  0.1873  0.5146
  278MOL0     H38342   5.862   8.603  10.024 -1.5197  2.7909  1.0291
  278MOL0     H38343   5.845   8.569  10.194  1.3990 -1.7131  0.4120
  278MOL0     H38344   7.049   8.413   9.983  1.2487  0.2232  0.0615
  278MOL0     H38345   7.242   8.296  10.107 -1.4966  0.7553 -2.4698
  278MOL0     H38346   7.307   7.860  10.571  0.2635  1.4472  2.1415
  278MOL0     H38347   7.496   7.807  10.683  1.6591 -0.4726 -0.7167
  278MOL0     H38348   7.994   7.473  11.591  2.1797  0.4355  1.3150
  278MOL0     H38349   7.761   7.453  11.552  0.8186  1.9256  2.0324
  278MOL0     H38350   7.432   7.357  11.048 -0.2039  0.2395 -0.3425
  278MOL0     H38351   7.205   7.270  11.027  0.0679  0.1989 -0.0144
  278MOL0     H38352   6.975   7.122  11.084 -0.8398 -1.6495  0.0718
  278MOL0     H38353   7.062   7.037  11.209 -0.8879 -0.4908 -3.2016
  278MOL0     H38354   6.816   6.990  11.216 -0.5419  1.2676 -3.7032
  278MOL0     H38355   6.776   7.158  11.236  2.3094  0.3943  0.4300
  278MOL0     H38356   6.965   7.043  11.444  0.8542  2.4332 -1.6271
  278MOL0     H38357   6.833   7.159  11.466 -0.0760  0.2362 -1.0458
  278MOL0     H38358   6.786   6.947  11.574  0.4175 -1.9017 -0.7959
  278MOL0     H38359   6.802   6.858  11.431 -0.1642 -0.4265  1.6436
  278MOL0     H38360   6.410   7.027  11.396  0.3987  0.0347  0.2696
  278MOL0     H38361   7.162   7.299  11.456 -3.5228 -1.9053 -2.9128
  278MOL0     H38362   7.430   7.464  11.537  0.4279 -0.1398 -0.0511
  278MOL0     H38363   7.353   7.313  11.595 -1.9906  0.9788 -0.4613
  278MOL0     H38364   7.515   7.314  11.523 -1.2430 -0.4919 -1.3911
  279MOL0     O38365   4.121   9.042   0.543  0.4001 -0.2859 -0.4444
  279MOL0     C38366   4.162   9.057   0.426  0.2559  1.2127 -0.4834
  279MOL0     O38367   4.236   9.167   0.380 -0.2859  0.3596  0.0856
  279MOL0     C38368   4.265   9.265   0.471 -0.1619  0.0455  0.9687
  279MOL0     C38369   4.178   9.317   0.561 -0.2172 -0.3043  0.1456
  279MOL0     C38370   4.225   9.391   0.669 -0.1587 -0.2827 -0.1271
  279MOL0     C38371   4.359   9.418   0.688  0.5507 -0.4904  0.1921
  279MOL0     O38372   4.393   9.495   0.791 -0.9725  0.2692 -0.2519
  279MOL0     C38373   4.533   9.513   0.820  0.0051  0.6495  0.5893
  279MOL0     C38374   4.551   9.580   0.957 -0.4992 -0.2140  0.4296
  279MOL0     C38375   4.479   9.713   0.976  0.0031  0.4458  0.0757
  279MOL0     C38376   4.505   9.772   1.115 -0.5651 -0.1847 -0.1677
  279MOL0     C38377   4.639   9.841   1.134  0.0323 -0.1018 -0.5364
  279MOL0     C38378   4.653   9.965   1.040  0.3562 -0.2745 -0.1778
  279MOL0     C38379   4.802  10.006   1.049 -0.4452 -0.5966 -0.9370
  279MOL0     C38380   4.824  10.162   1.025  1.1672 -0.2363  0.0292
  279MOL0     N38381   4.760  10.228   1.137 -0.5051 -0.1480  0.5888
  279MOL0     C38382   4.836  10.280   1.238  0.8252  1.3049  0.1230
  279MOL0     C38383   4.761  10.377   1.305 -0.2400  0.7576  0.2640
  279MOL0     C38384   4.800  10.450   1.431  1.1560  0.8183 -0.6033
  279MOL0     C38385   4.907  10.375   1.519 -0.0619 -0.6045  0.1488
  279MOL0     C38386   4.925  10.448   1.649 -0.3457  0.4693 -0.7589
  279MOL0     C38387   5.063  10.401   1.709 -0.0559 -0.0517 -0.3973
  279MOL0     O38388   5.089  10.259   1.694  0.4993  0.4749 -0.3804
  279MOL0     C38389   5.213  10.220   1.742  0.8060 -0.7056  0.0573
  279MOL0     C38390   5.299  10.300   1.801  1.2777  0.0536 -0.4035
  279MOL0     C38391   5.421  10.241   1.858 -0.0634  0.2346  0.2620
  279MOL0     C38392   5.502  10.335   1.939  0.3945  0.1341  0.7683
  279MOL0     C38393   5.429  10.102   1.868 -0.4235 -0.5516  0.2823
  279MOL0     C38394   5.542  10.025   1.939  0.4680 -0.1128 -0.5805
  279MOL0     O38395   5.606  10.089   2.036  0.1684 -0.9107 -0.5583
  279MOL0     C38396   5.710  10.026   2.103 -0.2899  0.4264  0.6379
  279MOL0     C38397   5.689   9.928   2.202 -0.2413  0.2483  0.4046
  279MOL0     C38398   5.791   9.884   2.279 -0.2269  0.7941  0.2856
  279MOL0     C38399   5.919   9.946   2.271 -0.6494 -0.0826  0.2623
  279MOL0     O38400   6.034   9.919   2.343 -0.1852  0.1634 -0.5323
  279MOL0     C38401   6.075   9.783   2.364 -0.4577  0.8391  0.2297
  279MOL0     C38402   6.127   9.714   2.234 -0.7617  0.7387 -0.3062
  279MOL0     C38403   6.181   9.568   2.253  0.1656  0.2140 -0.9626
  279MOL0     C38404   6.296   9.542   2.156  0.8633  0.4428 -0.1752
  279MOL0     C38405   6.367   9.405   2.154  0.7655 -0.5076  0.1915
  279MOL0     C38406   6.440   9.381   2.280 -0.8067  0.2243 -0.3413
  279MOL0     C38407   6.569   9.312   2.249  1.2888  0.4222  1.3040
  279MOL0     C38408   6.652   9.290   2.376 -0.4734  0.9101 -0.2995
  279MOL0    Cl38409   6.796   9.200   2.333  0.0712  0.0837 -0.0039
  279MOL0     C38410   5.939  10.030   2.163  0.4889 -0.2964 -0.2865
  279MOL0     C38411   5.833  10.077   2.080 -0.4607 -0.7506  0.4314
  279MOL0     O38412   5.573   9.908   1.903  0.0021 -0.0094  0.8786
  279MOL0     C38413   5.338  10.028   1.805 -0.5320  0.7840 -1.4623
  279MOL0     C38414   5.232  10.088   1.740  0.3316 -0.1014 -0.4402
  279MOL0     N38415   4.644  10.392   1.236  0.7766 -0.1105 -0.7672
  279MOL0     N38416   4.647  10.314   1.130  0.0346  0.2803  0.5047
  279MOL0     C38417   4.444   9.375   0.585 -0.1457 -0.0483 -0.8580
  279MOL0     C38418   4.397   9.305   0.469  1.4030 -0.3603  0.1112
  279MOL0     C38419   4.160   8.933   0.338  0.9271  0.7454 -0.5120
  279MOL0     C38420   4.261   8.925   0.238  0.0951  0.5446 -0.1986
  279MOL0     C38421   4.263   8.818   0.147  0.8433 -0.2405 -0.1780
  279MOL0     C38422   4.162   8.719   0.140 -0.4014 -0.6152  1.3308
  279MOL0     O38423   4.166   8.620   0.046  0.2244 -0.3269  0.4525
  279MOL0     C38424   4.080   8.504   0.060  0.1370  1.1736 -0.4187
  279MOL0     C38425   4.120   8.385  -0.018  0.2671 -0.6394  0.2388
  279MOL0     C38426   4.244   8.319   0.029 -0.6243 -0.4108 -0.3831
  279MOL0     C38427   4.248   8.169  -0.015  0.3904  0.8489 -0.1144
  279MOL0     C38428   4.369   8.113   0.037 -0.3383 -0.3103  0.0155
  279MOL0     C38429   4.474   8.070   0.080 -0.0682 -0.2246  0.0703
  279MOL0     C38430   4.062   8.729   0.240 -0.0329 -0.0532 -1.0443
  279MOL0     C38431   4.059   8.836   0.338 -0.9122  1.0413 -1.7585
  279MOL0     C38432   3.948   8.833   0.448  0.4276  0.8036  0.9597
  279MOL0     H38433   4.072   9.294   0.567  0.0550 -1.6583 -0.0206
  279MOL0     H38434   4.148   9.429   0.735 -1.1203 -2.0342 -0.1737
  279MOL0     H38435   4.577   9.573   0.740  0.3592  0.6440  0.7771
  279MOL0     H38436   4.586   9.418   0.824 -0.8546  0.1890  2.7589
  279MOL0     H38437   4.509   9.516   1.036  2.6669 -0.3514  2.1842
  279MOL0     H38438   4.659   9.592   0.970 -0.6806 -0.0666  2.0869
  279MOL0     H38439   4.517   9.783   0.901  0.9939 -0.3834 -0.2163
  279MOL0     H38440   4.371   9.713   0.959  0.1688  1.1024 -1.0669
  279MOL0     H38441   4.430   9.849   1.136  1.2398  1.8267 -0.7362
  279MOL0     H38442   4.489   9.703   1.199 -3.3779  0.5804  0.0240
  279MOL0     H38443   4.725   9.776   1.115 -0.1178 -0.9296  1.3905
  279MOL0     H38444   4.657   9.880   1.235 -1.2122 -0.5822 -0.1019
  279MOL0     H38445   4.618   9.963   0.937  0.9555  0.5543 -0.4062
  279MOL0     H38446   4.588  10.040   1.086 -1.7021 -1.0303 -1.6994
  279MOL0     H38447   4.859   9.963   0.966 -1.2013 -1.5489 -0.9761
  279MOL0     H38448   4.846   9.976   1.145 -0.6063 -0.6568 -0.8823
  279MOL0     H38449   4.928  10.194   1.019  0.8027  1.2480  1.2427
  279MOL0     H38450   4.766  10.176   0.933  0.7688 -2.9190 -0.2087
  279MOL0     H38451   4.934  10.246   1.271  0.0378 -0.8567  0.3907
  279MOL0     H38452   4.706  10.463   1.484  0.2675 -2.4513 -1.1791
  279MOL0     H38453   4.831  10.554   1.413  1.7091  1.0918  1.6470
  279MOL0     H38454   4.873  10.272   1.538  0.9213 -0.9871 -0.1023
  279MOL0     H38455   5.001  10.384   1.464  0.3131 -0.6577  0.7720
  279MOL0     H38456   4.921  10.556   1.632 -1.1372  0.4982 -0.4231
  279MOL0     H38457   4.850  10.415   1.721 -0.8749  2.1283 -0.5082
  279MOL0     H38458   5.140  10.460   1.660  1.5580 -0.2337  1.7611
  279MOL0     H38459   5.071  10.422   1.816  1.7066  0.5019 -0.6130
  279MOL0     H38460   5.275  10.406   1.806 -2.1428 -0.5848 -0.8725
  279MOL0     H38461   5.472  10.440   1.929  1.6043  0.7519  3.0964
  279MOL0     H38462   5.602  10.335   1.896 -0.0289  4.5659 -0.7021
  279MOL0     H38463   5.493  10.312   2.045  1.4727 -1.1436  0.6119
  279MOL0     H38464   5.587   9.896   2.221 -1.5939  3.7317 -0.0689
  279MOL0     H38465   5.763   9.811   2.354  1.4636  2.4966  2.7619
  279MOL0     H38466   6.165   9.778   2.427 -0.7345 -0.7427  0.5611
  279MOL0     H38467   6.002   9.727   2.424 -0.5126  2.2315  1.5165
  279MOL0     H38468   6.051   9.704   2.156  2.7549  0.3799 -4.0240
  279MOL0     H38469   6.202   9.782   2.193  1.4902 -1.4832 -0.1046
  279MOL0     H38470   6.104   9.491   2.243  0.7132 -0.7337  1.3075
  279MOL0     H38471   6.236   9.548   2.346  1.0657 -0.0642 -1.5376
  279MOL0     H38472   6.373   9.613   2.187  2.2570 -1.0211 -0.1286
  279MOL0     H38473   6.268   9.573   2.055 -0.6804 -0.3342 -0.0139
  279MOL0     H38474   6.301   9.318   2.147  2.7925 -1.9805 -2.0734
  279MOL0     H38475   6.439   9.396   2.072  3.0668  1.8989  1.8050
  279MOL0     H38476   6.385   9.323   2.355  2.5901 -0.9414  1.4387
  279MOL0     H38477   6.465   9.479   2.323  1.4491 -1.8852  3.6914
  279MOL0     H38478   6.629   9.371   2.179 -0.6762 -0.1340 -0.9301
  279MOL0     H38479   6.543   9.218   2.200  1.3259  0.7956  0.5654
  279MOL0     H38480   6.604   9.220   2.444  2.5260 -2.2244 -1.1536
  279MOL0     H38481   6.684   9.383   2.425 -1.2216  0.7844  0.4427
  279MOL0     H38482   6.035  10.078   2.142  0.0501  1.8886  2.2237
  279MOL0     H38483   5.857  10.170   2.028 -2.0746  0.1693  1.2434
  279MOL0     H38484   5.335   9.919   1.814 -1.3401  0.9345  0.6510
  279MOL0     H38485   5.159  10.017   1.702  0.7217  0.4902 -2.4428
  279MOL0     H38486   4.551   9.394   0.579  0.1997 -0.3140  2.5005
  279MOL0     H38487   4.464   9.252   0.403 -1.5304 -4.8109  0.2765
  279MOL0     H38488   4.335   9.004   0.233 -0.6103  1.3039  0.9283
  279MOL0     H38489   4.337   8.813   0.068  1.2948 -2.3109  0.3164
  279MOL0     H38490   4.085   8.475   0.166 -1.1730  1.6697 -0.2029
  279MOL0     H38491   3.978   8.533   0.034 -0.4173 -0.2739  0.0435
  279MOL0     H38492   4.132   8.421  -0.121 -0.9061  1.7828  0.8542
  279MOL0     H38493   4.033   8.318  -0.025 -1.3572  1.4472 -0.8525
  279MOL0     H38494   4.328   8.380  -0.008  1.3976 -3.4062 -1.1220
  279MOL0     H38495   4.248   8.328   0.138 -0.3276 -0.7302 -0.3653
  279MOL0     H38496   4.241   8.169  -0.125  0.8939  0.4736 -0.1542
  279MOL0     H38497   4.166   8.111   0.029  2.6304 -2.4665  0.1033
  279MOL0     H38498   4.572   8.050   0.119  0.0017 -0.6722 -0.3387
  279MOL0     H38499   4.000   8.641   0.253  3.0006 -2.6153 -2.5453
  279MOL0     H38500   3.991   8.829   0.549 -3.4296 -0.8716  2.7503
  279MOL0     H38501   3.880   8.917   0.431  0.8396  0.3310 -4.6271
  279MOL0     H38502   3.882   8.747   0.437 -0.2560  1.5705 -1.5994
  280MOL0     O38503   3.713   3.065   8.716 -0.2982  0.1090 -0.2847
  280MOL0     C38504   3.662   3.180   8.701  0.4211  0.5694  0.7359
  280MOL0     O38505   3.733   3.295   8.720 -0.3538 -0.5876  0.2036
  280MOL0     C38506   3.859   3.280   8.762 -0.6696  0.2767  0.3325
  280MOL0     C38507   3.967   3.286   8.668  0.3199 -0.2118 -0.1136
  280MOL0     C38508   4.095   3.266   8.707 -0.0606 -0.5800  0.6762
  280MOL0     C38509   4.123   3.251   8.842 -0.2169 -0.2767  0.1098
  280MOL0     O38510   4.246   3.239   8.902  0.0434 -0.0850 -0.0348
  280MOL0     C38511   4.357   3.187   8.832 -0.2939  0.2541  0.1722
  280MOL0     C38512   4.490   3.230   8.901  0.7595 -0.3012  0.5270
  280MOL0     C38513   4.613   3.201   8.813  0.0880 -0.1582  1.0273
  280MOL0     C38514   4.736   3.209   8.900  0.4148 -0.0529  0.3466
  280MOL0     C38515   4.871   3.172   8.824 -0.6625 -0.2239  0.0646
  280MOL0     C38516   4.873   3.037   8.747 -0.1568  0.3414 -0.2194
  280MOL0     C38517   5.014   3.010   8.698 -0.6326 -0.3490 -0.7883
  280MOL0     C38518   5.028   2.858   8.674 -0.0354  0.6285  0.6096
  280MOL0     N38519   5.031   2.771   8.791  0.1227  0.5376 -0.0231
  280MOL0     C38520   5.122   2.762   8.893 -1.1746 -0.7264  0.5306
  280MOL0     C38521   5.069   2.672   8.979 -0.0126 -0.6025  1.3261
  280MOL0     C38522   5.134   2.641   9.112  0.4138 -0.0793 -0.1562
  280MOL0     C38523   5.176   2.765   9.195 -0.2778  0.7826 -0.3892
  280MOL0     C38524   5.271   2.718   9.308  0.4849 -0.4475  0.7276
  280MOL0     C38525   5.410   2.680   9.274  0.5248  0.1450  0.4304
  280MOL0     O38526   5.497   2.786   9.245 -0.2228 -0.0123  0.4618
  280MOL0     C38527   5.629   2.760   9.238 -1.2032 -0.8131  0.2825
  280MOL0     C38528   5.683   2.634   9.207  0.1028  0.5025  0.6752
  280MOL0     C38529   5.821   2.607   9.213  0.1344  0.4701  0.2891
  280MOL0     C38530   5.870   2.467   9.172  0.6015 -0.5728  0.7817
  280MOL0     C38531   5.915   2.715   9.246  0.0766  0.6411  0.1207
  280MOL0     C38532   6.068   2.710   9.256  0.3086  0.0247 -0.6326
  280MOL0     O38533   6.133   2.824   9.309  0.6330  0.4631  0.6428
  280MOL0     C38534   6.266   2.823   9.319  0.2248 -0.3695 -0.5533
  280MOL0     C38535   6.320   2.752   9.425  0.8053 -0.2745  0.0129
  280MOL0     C38536   6.457   2.725   9.427 -0.6336  0.1972  0.0932
  280MOL0     C38537   6.545   2.770   9.320  0.3146 -0.4007 -0.4924
  280MOL0     O38538   6.684   2.745   9.318  0.7246 -0.4360  0.2941
  280MOL0     C38539   6.733   2.656   9.415  0.1690 -0.3624  0.3920
  280MOL0     C38540   6.886   2.651   9.370 -0.0129 -0.3120 -0.4296
  280MOL0     C38541   6.961   2.794   9.387  0.2852  0.7214  0.3267
  280MOL0     C38542   6.953   2.860   9.522  0.1852 -0.1129 -0.1109
  280MOL0     C38543   7.046   2.799   9.629 -0.8216 -0.1480  0.4950
  280MOL0     C38544   7.067   2.894   9.748 -0.9036 -0.0728  0.4227
  280MOL0     C38545   7.212   2.902   9.806  0.3578 -0.6071 -0.1770
  280MOL0     C38546   7.307   2.984   9.714 -0.0550  0.3940 -1.0818
  280MOL0    Cl38547   7.475   3.005   9.770 -0.0261 -0.2727  0.1082
  280MOL0     C38548   6.483   2.850   9.224  0.4578  0.4397  0.3290
  280MOL0     C38549   6.345   2.882   9.228 -0.4732 -0.7764  0.4736
  280MOL0     O38550   6.133   2.614   9.222  0.4783  0.5706  0.1654
  280MOL0     C38551   5.858   2.835   9.293 -0.4351  0.4650 -0.0832
  280MOL0     C38552   5.719   2.853   9.290 -0.2340  0.1445  0.5382
  280MOL0     N38553   4.945   2.637   8.925 -0.0495 -1.2417 -0.0303
  280MOL0     N38554   4.919   2.699   8.818  0.3075  0.1609 -0.4824
  280MOL0     C38555   4.022   3.255   8.938  0.0158  0.6109  0.3174
  280MOL0     C38556   3.890   3.273   8.903  0.1180 -0.1015  0.5891
  280MOL0     C38557   3.515   3.189   8.654 -0.8251 -0.1080  0.0093
  280MOL0     C38558   3.441   3.067   8.668  0.1290 -0.1746  0.2370
  280MOL0     C38559   3.304   3.060   8.651 -0.2891  0.5073  0.2925
  280MOL0     C38560   3.228   3.176   8.607  0.2583 -0.1331  0.2731
  280MOL0     O38561   3.094   3.187   8.589  0.6430  0.2729  0.2814
  280MOL0     C38562   3.013   3.182   8.710  0.6789  0.2701 -0.0629
  280MOL0     C38563   2.868   3.204   8.691 -0.0509 -0.4591 -0.5110
  280MOL0     C38564   2.787   3.183   8.819  0.4185 -0.0350 -0.1468
  280MOL0     C38565   2.661   3.267   8.819  0.5416 -0.4851 -0.0624
  280MOL0     C38566   2.566   3.228   8.718 -0.3852  0.3562  0.5603
  280MOL0     C38567   2.491   3.203   8.621 -0.0065  0.7554 -0.0567
  280MOL0     C38568   3.303   3.293   8.593 -0.7271  0.3685  0.2600
  280MOL0     C38569   3.442   3.300   8.623  0.1760 -0.0258 -0.7796
  280MOL0     C38570   3.495   3.444   8.619 -0.2437  0.2906 -0.2776
  280MOL0     H38571   3.954   3.293   8.561 -0.3889 -3.4689 -0.3595
  280MOL0     H38572   4.183   3.272   8.644 -0.7399 -0.7425 -0.3029
  280MOL0     H38573   4.371   3.219   8.728  3.4190 -0.0371  0.4433
  280MOL0     H38574   4.356   3.078   8.825 -0.6239  0.2501  0.2533
  280MOL0     H38575   4.479   3.339   8.902  0.7637 -0.2671 -0.7511
  280MOL0     H38576   4.509   3.190   9.001  1.1226 -1.1273  0.1324
  280MOL0     H38577   4.588   3.101   8.776 -1.5447  1.4920 -2.8530
  280MOL0     H38578   4.614   3.267   8.726 -1.5114 -1.8452 -0.3600
  280MOL0     H38579   4.741   3.299   8.963 -1.2916 -0.0841  0.5640
  280MOL0     H38580   4.726   3.130   8.974 -0.8719  0.7174  1.0417
  280MOL0     H38581   4.946   3.178   8.903  0.4981 -0.5258 -0.9761
  280MOL0     H38582   4.892   3.257   8.759  2.3401  0.5700  1.8952
  280MOL0     H38583   4.844   2.961   8.819 -0.9366  1.8885  1.1815
  280MOL0     H38584   4.802   3.044   8.664 -1.5088 -3.8806  0.3882
  280MOL0     H38585   5.093   3.043   8.767 -0.5919 -0.2740 -0.8697
  280MOL0     H38586   5.024   3.063   8.602 -0.6124 -0.1805 -0.6941
  280MOL0     H38587   4.961   2.811   8.601  1.6067 -2.3396  0.8793
  280MOL0     H38588   5.123   2.842   8.622  1.0956  0.9583  2.5022
  280MOL0     H38589   5.220   2.808   8.901 -2.1591  1.0500  5.1424
  280MOL0     H38590   5.216   2.569   9.110 -0.6938 -1.4339  0.8557
  280MOL0     H38591   5.069   2.577   9.172  1.2991 -0.2337  0.6723
  280MOL0     H38592   5.233   2.833   9.130 -0.4265  0.3647 -0.9640
  280MOL0     H38593   5.089   2.824   9.227 -0.1457  1.6810 -1.6079
  280MOL0     H38594   5.283   2.795   9.384 -0.1248 -0.9792  1.3758
  280MOL0     H38595   5.221   2.631   9.353 -2.6313  1.1126  0.5736
  280MOL0     H38596   5.446   2.626   9.362 -1.0441  1.2874  1.8365
  280MOL0     H38597   5.425   2.615   9.187  1.1756  1.5203 -0.5126
  280MOL0     H38598   5.617   2.555   9.172 -2.3259  2.2882  0.9676
  280MOL0     H38599   5.795   2.387   9.169  2.3428 -2.3880  2.4263
  280MOL0     H38600   5.949   2.435   9.240 -0.1128 -2.5599  0.7637
  280MOL0     H38601   5.909   2.483   9.071  1.4066 -0.6278  1.0814
  280MOL0     H38602   6.250   2.718   9.501 -1.5280  2.8907 -0.5120
  280MOL0     H38603   6.496   2.675   9.515  0.5931  0.9034 -0.0383
  280MOL0     H38604   6.723   2.681   9.521  3.6434 -1.7734  1.1856
  280MOL0     H38605   6.698   2.554   9.397  1.7172 -0.4847 -2.4421
  280MOL0     H38606   6.941   2.578   9.429 -1.5209 -1.4928 -0.4419
  280MOL0     H38607   6.892   2.609   9.269  0.2949 -1.7760  0.1776
  280MOL0     H38608   6.922   2.858   9.308 -1.7368  0.8695  1.3946
  280MOL0     H38609   7.064   2.780   9.352  0.2704  1.3821  0.0159
  280MOL0     H38610   6.853   2.880   9.561  0.6922 -1.2321  1.9511
  280MOL0     H38611   6.990   2.959   9.492  0.0202 -0.6699 -2.2962
  280MOL0     H38612   7.024   2.701   9.671 -0.3582 -0.0632  0.9485
  280MOL0     H38613   7.140   2.779   9.578 -1.4390 -0.8037 -0.3959
  280MOL0     H38614   6.999   2.871   9.830 -0.9109 -1.9742 -0.0704
  280MOL0     H38615   7.040   2.997   9.724  0.8072 -0.0492 -1.7786
  280MOL0     H38616   7.257   2.803   9.812 -1.9110 -1.7373 -0.6507
  280MOL0     H38617   7.201   2.954   9.902  0.5264 -0.0678 -0.4452
  280MOL0     H38618   7.260   3.083   9.706 -1.3417  0.0275  1.3291
  280MOL0     H38619   7.303   2.940   9.614 -0.8827  0.1950 -0.9695
  280MOL0     H38620   6.547   2.896   9.149 -0.5238 -0.7074 -1.2666
  280MOL0     H38621   6.306   2.934   9.141 -0.3844 -1.9624 -0.3043
  280MOL0     H38622   5.922   2.913   9.334 -1.8993  2.3040 -1.1285
  280MOL0     H38623   5.677   2.945   9.330 -1.0712  0.1870 -0.3775
  280MOL0     H38624   4.052   3.230   9.039  0.7179 -0.4583 -0.1289
  280MOL0     H38625   3.820   3.258   8.984 -1.1627  0.2409 -0.4113
  280MOL0     H38626   3.478   2.968   8.693 -1.0642 -1.0041 -1.1764
  280MOL0     H38627   3.265   2.959   8.662  0.0895  0.4175  0.8175
  280MOL0     H38628   3.024   3.081   8.751 -0.6877  0.9017  2.0482
  280MOL0     H38629   3.050   3.254   8.785 -0.6054  2.6108 -1.5493
  280MOL0     H38630   2.839   3.132   8.614  0.4871  0.5824 -1.7307
  280MOL0     H38631   2.854   3.308   8.660  0.8615 -0.3311 -0.5415
  280MOL0     H38632   2.754   3.083   8.848 -1.8409  0.3551 -1.1714
  280MOL0     H38633   2.850   3.217   8.902 -1.9110 -1.0033  2.1400
  280MOL0     H38634   2.696   3.370   8.808  1.1294 -0.7030 -0.2791
  280MOL0     H38635   2.610   3.250   8.914  0.1581 -1.1320 -0.3780
  280MOL0     H38636   2.430   3.183   8.534  1.2478  2.2823 -1.3594
  280MOL0     H38637   3.262   3.388   8.561  0.4134  0.7615 -0.0993
  280MOL0     H38638   3.454   3.513   8.693 -0.6649  0.9911 -1.1518
  280MOL0     H38639   3.602   3.461   8.615 -0.4838  1.8579 -0.5467
  280MOL0     H38640   3.475   3.477   8.516  1.2361  1.2312 -0.2754
  281MOL0     O38641   4.610   8.992   3.817 -0.2080 -0.5708  0.3745
  281MOL0     C38642   4.622   8.891   3.885  0.0478 -0.1899  0.0794
  281MOL0     O38643   4.607   8.885   4.018 -0.0829  0.2514 -0.6892
  281MOL0     C38644   4.571   8.997   4.083  1.0946 -0.1338  0.1008
  281MOL0     C38645   4.456   8.981   4.161 -0.8065  0.4677 -0.2900
  281MOL0     C38646   4.426   9.087   4.248  0.0688 -1.4944 -0.6058
  281MOL0     C38647   4.491   9.206   4.253 -0.1390 -0.1391  0.1800
  281MOL0     O38648   4.463   9.316   4.332  0.1147 -0.2221  0.4568
  281MOL0     C38649   4.358   9.311   4.437  0.1773 -0.5013  0.5057
  281MOL0     C38650   4.361   9.432   4.527 -0.2250 -0.0186 -0.4174
  281MOL0     C38651   4.229   9.431   4.617  0.3613 -0.2200 -0.0864
  281MOL0     C38652   4.098   9.450   4.533  0.1733 -0.1792  0.7983
  281MOL0     C38653   3.982   9.405   4.624  0.2676  0.0448  0.3050
  281MOL0     C38654   3.849   9.436   4.551  0.3270 -0.0471  0.9846
  281MOL0     C38655   3.730   9.382   4.633  0.6249  0.1833  0.5496
  281MOL0     C38656   3.688   9.477   4.752 -1.7072  1.4010  0.3783
  281MOL0     N38657   3.613   9.591   4.716  0.1789  0.4087 -0.3639
  281MOL0     C38658   3.479   9.599   4.675  0.1886 -0.0059  0.5730
  281MOL0     C38659   3.453   9.731   4.665  0.6291 -0.3278 -0.4267
  281MOL0     C38660   3.332   9.796   4.624  0.1944 -0.2017  0.2499
  281MOL0     C38661   3.339   9.946   4.593 -0.0722 -0.2006 -0.2596
  281MOL0     C38662   3.197  10.002   4.621  0.1013 -0.6862  0.0368
  281MOL0     C38663   3.082   9.946   4.549  0.1368 -0.8545  0.0431
  281MOL0     O38664   3.109   9.959   4.409  0.2744  0.7985 -0.0247
  281MOL0     C38665   3.031   9.871   4.339  0.4574 -0.2217  0.6283
  281MOL0     C38666   3.087   9.771   4.263 -0.2883 -0.0324 -1.3775
  281MOL0     C38667   3.019   9.698   4.168 -0.3931 -0.7555  0.9542
  281MOL0     C38668   3.109   9.600   4.095 -0.7523 -0.6963 -0.0487
  281MOL0     C38669   2.878   9.706   4.157 -0.6598 -0.5206 -0.2054
  281MOL0     C38670   2.799   9.621   4.069  0.4104  0.5718  0.4488
  281MOL0     O38671   2.818   9.485   4.079 -0.3447 -0.3994  0.4418
  281MOL0     C38672   2.804   9.404   3.965 -0.1819  0.6241 -0.5599
  281MOL0     C38673   2.788   9.274   3.988 -0.3812 -0.0564 -0.5709
  281MOL0     C38674   2.761   9.176   3.884 -0.2532 -0.4178  0.4096
  281MOL0     C38675   2.763   9.219   3.751  0.1317 -0.7261 -0.0377
  281MOL0     O38676   2.722   9.143   3.641  0.5609 -0.0645 -0.2742
  281MOL0     C38677   2.592   9.075   3.670 -0.5033  0.0832  0.0876
  281MOL0     C38678   2.528   9.023   3.541  0.1871  0.5933 -0.6570
  281MOL0     C38679   2.500   9.149   3.452  0.6441  0.2063 -0.5663
  281MOL0     C38680   2.358   9.209   3.469 -0.1402 -0.5917 -0.3774
  281MOL0     C38681   2.242   9.130   3.404  0.2914  0.1881  0.6892
  281MOL0     C38682   2.109   9.197   3.423 -0.3319 -0.0063 -0.7914
  281MOL0     C38683   2.000   9.098   3.368  0.2923  0.3802  0.0095
  281MOL0     C38684   1.866   9.168   3.340  0.6684  0.6706  0.5915
  281MOL0    Cl38685   1.817   9.292   3.477  0.2982 -0.0127  0.0563
  281MOL0     C38686   2.799   9.357   3.733  0.6381  0.4528 -0.8418
  281MOL0     C38687   2.814   9.446   3.838  0.1828  0.2050  0.1927
  281MOL0     O38688   2.718   9.679   3.994 -0.0834 -0.1802 -0.6603
  281MOL0     C38689   2.812   9.799   4.247  0.1970 -0.2645 -0.6030
  281MOL0     C38690   2.891   9.878   4.333  0.8976  0.0220  1.2021
  281MOL0     N38691   3.563   9.802   4.701  0.0935 -0.6421 -0.0026
  281MOL0     N38692   3.657   9.719   4.743 -0.6144  0.1436  0.4573
  281MOL0     C38693   4.608   9.214   4.170  0.2006 -0.2791  0.0227
  281MOL0     C38694   4.648   9.113   4.087  0.8238  0.6376  0.0454
  281MOL0     C38695   4.671   8.763   3.834  0.3323 -0.8834  0.1557
  281MOL0     C38696   4.780   8.698   3.900 -0.3501 -0.2321  0.2645
  281MOL0     C38697   4.821   8.570   3.865 -0.1681 -1.0770 -0.3787
  281MOL0     C38698   4.776   8.509   3.751  0.0563 -0.1380 -0.1873
  281MOL0     O38699   4.799   8.387   3.700  0.0595  0.6963  0.1133
  281MOL0     C38700   4.910   8.326   3.755 -0.4251 -0.2277 -0.5637
  281MOL0     C38701   4.923   8.177   3.714  0.6768  0.7684  0.8764
  281MOL0     C38702   4.856   8.147   3.581 -0.4366 -0.4596 -0.0555
  281MOL0     C38703   4.919   8.220   3.463 -0.1876 -0.1397  0.5318
  281MOL0     C38704   4.854   8.172   3.343 -0.0747 -0.5724  0.7676
  281MOL0     C38705   4.792   8.136   3.245  0.0427  0.5494  0.0211
  281MOL0     C38706   4.676   8.585   3.674 -0.6874  0.2458  0.3708
  281MOL0     C38707   4.629   8.712   3.714  0.2363  0.2147 -0.5520
  281MOL0     C38708   4.526   8.781   3.618  0.2563 -0.6260  0.3722
  281MOL0     H38709   4.411   8.882   4.157  2.8246 -1.3225 -2.3894
  281MOL0     H38710   4.341   9.081   4.315  0.5223 -4.5151 -0.1576
  281MOL0     H38711   4.353   9.220   4.498  2.1893  0.3363  2.0492
  281MOL0     H38712   4.263   9.309   4.384  1.1644  2.3656 -1.6323
  281MOL0     H38713   4.444   9.431   4.598 -1.8812  1.9698  1.7070
  281MOL0     H38714   4.362   9.527   4.473  0.2016 -0.2233 -0.7636
  281MOL0     H38715   4.225   9.341   4.680  1.2520 -0.1048  0.1459
  281MOL0     H38716   4.234   9.509   4.693 -1.1454 -1.0489  0.9109
  281MOL0     H38717   4.084   9.553   4.498 -0.5204 -0.7079 -0.5649
  281MOL0     H38718   4.087   9.375   4.453  1.7352 -0.3000  0.6753
  281MOL0     H38719   3.994   9.456   4.721  1.5216  0.3097  0.0320
  281MOL0     H38720   4.004   9.299   4.639  1.7701  0.4878  1.4689
  281MOL0     H38721   3.844   9.544   4.535 -0.8022  0.0788  2.0082
  281MOL0     H38722   3.848   9.386   4.454  1.5434 -1.0901  1.4811
  281MOL0     H38723   3.761   9.281   4.662  0.0439 -0.0269  0.4639
  281MOL0     H38724   3.643   9.356   4.572  0.1387  0.7342  0.9872
  281MOL0     H38725   3.623   9.433   4.828 -1.9581 -1.3219 -1.2545
  281MOL0     H38726   3.778   9.503   4.809 -0.5320 -2.1922  0.4566
  281MOL0     H38727   3.412   9.522   4.637 -0.8145  1.2985 -0.4138
  281MOL0     H38728   3.249   9.773   4.692  1.8259 -1.3010  1.9663
  281MOL0     H38729   3.313   9.739   4.533 -0.0512 -3.3434  2.1287
  281MOL0     H38730   3.406   9.995   4.664 -0.6770 -1.6014  1.3495
  281MOL0     H38731   3.369   9.972   4.491 -3.4370  2.7595 -0.6739
  281MOL0     H38732   3.178  10.008   4.728  1.4579  0.4411  0.2419
  281MOL0     H38733   3.209  10.100   4.575 -0.6428  0.3214  1.9063
  281MOL0     H38734   3.057   9.843   4.575 -0.7213 -0.1135  2.5399
  281MOL0     H38735   2.993  10.008   4.565 -0.4501 -1.5520 -0.4547
  281MOL0     H38736   3.191   9.751   4.286 -0.0709  3.3112  1.4065
  281MOL0     H38737   3.093   9.604   3.987 -2.7680 -0.9608  0.2109
  281MOL0     H38738   3.095   9.496   4.127  0.2926 -1.1674 -1.0070
  281MOL0     H38739   3.213   9.618   4.125 -0.8388 -1.0120  0.4449
  281MOL0     H38740   2.776   9.237   4.090  0.3332  1.9896  0.3208
  281MOL0     H38741   2.732   9.073   3.904 -1.1172 -0.4444 -0.8159
  281MOL0     H38742   2.620   8.986   3.727  0.2187 -0.6963 -1.4255
  281MOL0     H38743   2.525   9.133   3.734 -3.5831 -1.2594 -1.6762
  281MOL0     H38744   2.600   8.963   3.484 -1.3828  0.7210 -2.9346
  281MOL0     H38745   2.442   8.960   3.567  0.7399 -0.2176 -0.7519
  281MOL0     H38746   2.510   9.126   3.345 -1.5844  0.0299 -0.7994
  281MOL0     H38747   2.571   9.223   3.487  1.4261 -1.8650  2.6334
  281MOL0     H38748   2.353   9.303   3.413  0.0531 -0.5272 -0.2854
  281MOL0     H38749   2.345   9.231   3.575  2.2261  2.2796 -0.5444
  281MOL0     H38750   2.249   9.124   3.295  2.0795 -0.2969  0.7930
  281MOL0     H38751   2.237   9.025   3.436 -1.5450  0.4475  1.3697
  281MOL0     H38752   2.109   9.293   3.370  1.4387  0.4825  0.0097
  281MOL0     H38753   2.091   9.222   3.527  1.7060  2.9736 -1.0316
  281MOL0     H38754   1.989   9.018   3.442  0.5591 -0.7410 -1.1322
  281MOL0     H38755   2.029   9.048   3.275  1.8338 -1.8740  1.5930
  281MOL0     H38756   1.783   9.098   3.325 -0.1325  1.5317  0.8866
  281MOL0     H38757   1.881   9.234   3.254  3.1244 -0.8879 -0.2752
  281MOL0     H38758   2.806   9.399   3.633 -0.1146  1.7145 -0.3861
  281MOL0     H38759   2.835   9.551   3.819 -1.2592  0.5647  0.4452
  281MOL0     H38760   2.705   9.816   4.248 -0.1561 -2.2062  0.3530
  281MOL0     H38761   2.852   9.962   4.391  0.4967  2.7253 -2.5675
  281MOL0     H38762   4.664   9.307   4.165 -0.2195 -0.0516 -0.5395
  281MOL0     H38763   4.736   9.106   4.023 -0.0117  0.4424 -1.1025
  281MOL0     H38764   4.825   8.744   3.987 -0.0933  0.6435 -0.3210
  281MOL0     H38765   4.895   8.531   3.933  0.5141  1.0142  0.1719
  281MOL0     H38766   5.006   8.372   3.728  0.6056 -1.7578  0.3083
  281MOL0     H38767   4.920   8.338   3.864 -0.1790  1.6082 -0.7549
  281MOL0     H38768   4.881   8.110   3.789  2.7373 -1.9183 -0.2090
  281MOL0     H38769   5.024   8.139   3.698  0.0964  0.3154 -2.4372
  281MOL0     H38770   4.861   8.039   3.568  0.3967 -0.7732  2.3910
  281MOL0     H38771   4.748   8.166   3.580 -0.3434  0.6280 -3.5888
  281MOL0     H38772   5.021   8.182   3.455 -0.2608 -0.1764 -0.3569
  281MOL0     H38773   4.919   8.329   3.471 -0.9069 -0.0840 -0.0934
  281MOL0     H38774   4.751   8.093   3.156  1.8603  1.2540 -1.2181
  281MOL0     H38775   4.649   8.538   3.580 -0.8077  0.2951  0.3802
  281MOL0     H38776   4.428   8.773   3.666  0.2801  0.2476  0.5838
  281MOL0     H38777   4.543   8.887   3.598 -2.2856  0.1353  1.8098
  281MOL0     H38778   4.516   8.732   3.521  1.2846 -0.8548  0.3721
  282MOL0     O38779   9.823   1.419  10.357  0.3497 -0.5846 -0.3576
  282MOL0     C38780   9.822   1.324  10.289 -0.5000  0.4254  0.3651
  282MOL0     O38781   9.928   1.236  10.278  0.2940 -0.1550 -0.4136
  282MOL0     C38782  10.021   1.239  10.372 -0.3642 -0.1801  0.0265
  282MOL0     C38783  10.013   1.147  10.479  0.6284 -0.1750 -0.9619
  282MOL0     C38784  10.119   1.140  10.575 -0.0437  0.6714  0.3595
  282MOL0     C38785  10.231   1.224  10.564 -0.5005  0.5481 -0.4175
  282MOL0     O38786  10.329   1.224  10.658 -0.7682  0.3970  0.0516
  282MOL0     C38787  10.344   1.138  10.770 -0.7556 -0.1600  0.2959
  282MOL0     C38788  10.480   1.149  10.843  0.0074  0.2474 -0.4075
  282MOL0     C38789  10.545   1.287  10.848 -0.1832 -0.8900 -0.4328
  282MOL0     C38790  10.690   1.299  10.822  0.3092  0.9023  0.3440
  282MOL0     C38791  10.747   1.425  10.873 -0.0265  0.5698 -0.2294
  282MOL0     C38792  10.903   1.439  10.849  0.7431 -0.0404  0.0114
  282MOL0     C38793  10.963   1.334  10.923  0.2395  0.6224 -0.2049
  282MOL0     C38794  11.116   1.325  10.920 -1.3732 -1.2002 -0.5920
  282MOL0     N38795  11.184   1.453  10.957 -0.1976 -0.0499 -0.2954
  282MOL0     C38796  11.178   1.507  11.081 -1.3449  0.2540  0.2596
  282MOL0     C38797  11.230   1.631  11.068  1.0951  0.6333 -0.3130
  282MOL0     C38798  11.251   1.745  11.170 -0.6008  0.8205  0.1141
  282MOL0     C38799  11.376   1.720  11.252  0.4438 -0.3120 -0.3201
  282MOL0     C38800  11.394   1.828  11.356  0.2127  0.9038 -0.5780
  282MOL0     C38801  11.528   1.805  11.425 -0.1536 -0.0069 -0.3720
  282MOL0     O38802  11.503   1.728  11.546 -0.6911 -0.5643  0.5511
  282MOL0     C38803  11.614   1.714  11.631  0.9852  0.0432 -0.7517
  282MOL0     C38804  11.610   1.610  11.719 -0.4404 -0.0771 -0.5218
  282MOL0     C38805  11.720   1.577  11.800  0.3637 -0.2020  0.7027
  282MOL0     C38806  11.703   1.469  11.907 -0.5522  0.0781 -0.4142
  282MOL0     C38807  11.841   1.649  11.779  0.6815 -0.0225  1.4618
  282MOL0     C38808  11.968   1.638  11.856 -0.3465 -0.0654 -0.6924
  282MOL0     O38809  12.072   1.729  11.826 -0.4553  0.7244  0.0459
  282MOL0     C38810  12.172   1.771  11.916  0.6347 -0.5435 -0.2946
  282MOL0     C38811  12.175   1.743  12.057  0.8896  0.4948  0.1945
  282MOL0     C38812  12.269   1.798  12.138  0.7962 -0.7296 -0.8959
  282MOL0     C38813  12.360   1.891  12.086  0.5738  0.7244  0.5854
  282MOL0     O38814  12.447   1.952  12.167  0.5924  0.0127  0.3789
  282MOL0     C38815  12.393   2.058  12.248  0.1279  0.4344 -0.0084
  282MOL0     C38816  12.501   2.128  12.335 -0.2375  0.2485  0.3892
  282MOL0     C38817  12.425   2.210  12.436  0.7186 -0.2779  0.1787
  282MOL0     C38818  12.524   2.252  12.543  0.3929  0.3141 -0.4783
  282MOL0     C38819  12.604   2.379  12.522  0.4775 -0.7860 -0.4601
  282MOL0     C38820  12.512   2.501  12.531  0.4257  0.4941 -1.0033
  282MOL0     C38821  12.577   2.635  12.560  0.2080 -0.0395 -0.4336
  282MOL0     C38822  12.713   2.658  12.494  0.5532  0.2548 -0.4280
  282MOL0    Cl38823  12.685   2.769  12.357  0.0990  0.1998  0.3572
  282MOL0     C38824  12.355   1.925  11.950  0.2087  0.4437 -0.1327
  282MOL0     C38825  12.259   1.866  11.863 -1.6581 -0.0745 -0.5405
  282MOL0     O38826  11.971   1.555  11.939 -0.6320  0.8354 -0.9367
  282MOL0     C38827  11.840   1.749  11.675  0.1792 -0.0902 -0.3473
  282MOL0     C38828  11.732   1.785  11.608  0.8068 -0.4789  0.2387
  282MOL0     N38829  11.278   1.645  10.939 -0.6784 -0.3123 -0.5068
  282MOL0     N38830  11.245   1.541  10.872  0.8477  0.1430  0.6685
  282MOL0     C38831  10.234   1.317  10.457 -0.8202 -0.1463 -0.2503
  282MOL0     C38832  10.128   1.330  10.363  0.1997 -0.9643  0.9026
  282MOL0     C38833   9.694   1.287  10.228  0.3214 -0.8469  0.9056
  282MOL0     C38834   9.701   1.249  10.093 -0.0291  0.3071 -0.0108
  282MOL0     C38835   9.577   1.212  10.022 -0.2151  0.8214  0.2852
  282MOL0     C38836   9.460   1.240  10.083  0.5150 -0.3421 -0.1417
  282MOL0     O38837   9.347   1.245  10.001  0.0542 -0.2919  0.4318
  282MOL0     C38838   9.215   1.278  10.048 -0.0997 -0.4542 -0.8555
  282MOL0     C38839   9.156   1.170  10.143  0.5257  0.3393  0.4377
  282MOL0     C38840   9.023   1.216  10.199 -0.2627 -0.2046 -0.6125
  282MOL0     C38841   8.966   1.127  10.311 -0.6827  0.0967  0.1151
  282MOL0     C38842   9.035   1.161  10.445 -0.6111 -1.0914 -0.1283
  282MOL0     C38843   9.097   1.171  10.553  0.5954 -0.3740  0.8219
  282MOL0     C38844   9.452   1.288  10.220 -0.1381  0.0817  0.4018
  282MOL0     C38845   9.570   1.312  10.289  0.0078  0.6801 -0.7397
  282MOL0     C38846   9.547   1.351  10.434  0.1425 -0.8027 -0.0839
  282MOL0     H38847   9.932   1.076  10.494  1.7734 -1.3524 -0.2033
  282MOL0     H38848  10.125   1.058  10.645  0.9639 -0.1704 -0.6848
  282MOL0     H38849  10.306   1.040  10.739 -1.7786  0.8412 -1.8658
  282MOL0     H38850  10.273   1.175  10.844 -0.6954  1.9532 -0.6229
  282MOL0     H38851  10.485   1.101  10.941  4.9515 -0.1186 -0.6318
  282MOL0     H38852  10.543   1.080  10.787 -0.7851 -0.5086 -0.3996
  282MOL0     H38853  10.505   1.354  10.772  0.0420 -0.0316  0.1860
  282MOL0     H38854  10.517   1.330  10.945 -2.4578  0.5111 -1.6200
  282MOL0     H38855  10.740   1.208  10.857  0.2316  0.3285 -1.0025
  282MOL0     H38856  10.710   1.297  10.715  5.0239 -0.0506  0.9881
  282MOL0     H38857  10.728   1.421  10.981  0.8312 -0.2750 -0.0994
  282MOL0     H38858  10.692   1.507  10.825  1.8450  1.3191 -1.1598
  282MOL0     H38859  10.922   1.431  10.741 -0.4223 -0.6400 -0.1536
  282MOL0     H38860  10.929   1.534  10.897  2.1972 -0.7658  0.7374
  282MOL0     H38861  10.923   1.237  10.890 -0.0728  0.8532 -0.5121
  282MOL0     H38862  10.953   1.360  11.028  2.1307  0.8684 -0.0610
  282MOL0     H38863  11.158   1.243  10.979  2.3169  1.1560  0.4399
  282MOL0     H38864  11.142   1.309  10.815  0.0433 -0.6141 -0.3557
  282MOL0     H38865  11.138   1.454  11.167 -0.6186  0.0390  0.4740
  282MOL0     H38866  11.176   1.732  11.248  1.7073 -0.8685  2.2020
  282MOL0     H38867  11.253   1.841  11.118 -0.9849 -0.4132 -2.3358
  282MOL0     H38868  11.374   1.623  11.304  1.7709 -0.2001 -0.0216
  282MOL0     H38869  11.458   1.710  11.181  0.6005 -1.2009 -0.0372
  282MOL0     H38870  11.383   1.924  11.304 -0.1412  0.7575 -0.7813
  282MOL0     H38871  11.316   1.813  11.431 -0.0191 -0.4180 -1.0433
  282MOL0     H38872  11.599   1.757  11.357  0.1506  0.4222 -0.3619
  282MOL0     H38873  11.568   1.904  11.448 -1.7545  0.3492  1.1197
  282MOL0     H38874  11.520   1.553  11.737 -1.8152  1.6540 -1.6336
  282MOL0     H38875  11.744   1.503  12.002 -2.6078  1.5104  0.0375
  282MOL0     H38876  11.748   1.376  11.872 -0.3452  0.9828 -2.7689
  282MOL0     H38877  11.602   1.432  11.925  0.5129 -3.8900 -1.6228
  282MOL0     H38878  12.108   1.671  12.101  0.4192  1.3124  0.8417
  282MOL0     H38879  12.279   1.773  12.243  3.2420  2.2534 -0.2940
  282MOL0     H38880  12.345   2.128  12.179  3.0699  3.4618  0.7120
  282MOL0     H38881  12.317   2.013  12.312  0.7307 -1.9879 -0.8856
  282MOL0     H38882  12.552   2.052  12.396 -2.2276  1.2283  3.5175
  282MOL0     H38883  12.576   2.179  12.274 -0.9104  3.7884  2.2942
  282MOL0     H38884  12.339   2.160  12.481  0.1550  0.2640 -0.2673
  282MOL0     H38885  12.393   2.307  12.396 -0.1328  1.0169  3.6556
  282MOL0     H38886  12.592   2.168  12.557 -0.6706 -0.8440 -1.9186
  282MOL0     H38887  12.465   2.267  12.634 -3.4686 -0.5988 -2.5733
  282MOL0     H38888  12.674   2.396  12.603 -1.9588  0.5024  1.5245
  282MOL0     H38889  12.664   2.387  12.431  0.2219 -0.2588 -0.5894
  282MOL0     H38890  12.452   2.474  12.619  1.6503 -1.7023 -0.7777
  282MOL0     H38891  12.437   2.522  12.453 -1.9582  1.5292  1.3912
  282MOL0     H38892  12.594   2.619  12.667 -1.4217 -1.2116 -0.2991
  282MOL0     H38893  12.513   2.723  12.550  0.1784 -0.1093 -0.8963
  282MOL0     H38894  12.773   2.573  12.463  3.9798  2.0863  0.6250
  282MOL0     H38895  12.770   2.711  12.571  0.3192 -1.1748  0.7882
  282MOL0     H38896  12.428   1.994  11.909 -1.0798  0.7855 -1.9684
  282MOL0     H38897  12.269   1.889  11.757 -2.0913  0.0565 -0.5543
  282MOL0     H38898  11.931   1.803  11.647 -0.7417  0.7627 -1.8833
  282MOL0     H38899  11.741   1.878  11.552  1.5524 -1.4533 -1.3120
  282MOL0     H38900  10.319   1.382  10.439 -0.6713 -0.7632 -1.8960
  282MOL0     H38901  10.129   1.407  10.287 -0.9925 -0.8868  0.9500
  282MOL0     H38902   9.800   1.248  10.048 -0.1167  1.4573 -0.2595
  282MOL0     H38903   9.574   1.174   9.921 -2.1650  0.1122  0.5689
  282MOL0     H38904   9.228   1.370  10.105  1.3756  0.5082 -2.6554
  282MOL0     H38905   9.147   1.302   9.966 -0.1219 -5.0157 -2.4312
  282MOL0     H38906   9.226   1.149  10.224 -0.0222 -1.5193  0.4710
  282MOL0     H38907   9.145   1.079  10.084 -0.2967 -0.4166  1.7311
  282MOL0     H38908   9.022   1.321  10.227  1.4020 -0.0303 -1.0606
  282MOL0     H38909   8.950   1.196  10.120 -0.4175 -2.2690 -0.0019
  282MOL0     H38910   8.989   1.024  10.282  3.3256  0.5888  0.8474
  282MOL0     H38911   8.858   1.143  10.313 -0.7845 -0.4775 -0.5842
  282MOL0     H38912   9.133   1.173  10.654  0.4729 -1.7311  0.9120
  282MOL0     H38913   9.363   1.316  10.274 -0.5109  2.4037 -1.2660
  282MOL0     H38914   9.448   1.318  10.466 -0.2467 -2.3014 -2.5220
  282MOL0     H38915   9.621   1.297  10.493  0.7267 -4.3681 -3.6398
  282MOL0     H38916   9.569   1.459  10.436 -0.6824 -0.5630 -1.8554
  283MOL0     O38917   6.788   7.660   2.793  0.4021  0.0744 -0.2926
  283MOL0     C38918   6.712   7.704   2.707  0.2399  0.1333 -0.4774
  283MOL0     O38919   6.683   7.830   2.672  0.5844  0.3992  0.0387
  283MOL0     C38920   6.765   7.935   2.685 -0.3018 -0.0540 -0.4075
  283MOL0     C38921   6.911   7.931   2.704  0.4371  0.3555 -0.1633
  283MOL0     C38922   6.986   8.047   2.720  0.3287 -0.1554 -0.7123
  283MOL0     C38923   6.923   8.171   2.722  0.5094 -0.2361  1.0340
  283MOL0     O38924   7.001   8.281   2.734 -0.7423 -0.3596 -0.2534
  283MOL0     C38925   6.938   8.404   2.690  0.1509 -0.3029  0.3324
  283MOL0     C38926   7.053   8.510   2.688  0.7629 -1.4700  0.4012
  283MOL0     C38927   7.156   8.470   2.575  0.6437  0.0999 -0.2121
  283MOL0     C38928   7.264   8.573   2.545 -0.3181  0.3048 -1.3564
  283MOL0     C38929   7.375   8.527   2.444 -0.1321 -0.2921  0.2751
  283MOL0     C38930   7.337   8.536   2.293  1.0446 -0.7606  0.1650
  283MOL0     C38931   7.459   8.524   2.200  0.0186  0.1581 -0.2607
  283MOL0     C38932   7.514   8.383   2.177 -0.6688  0.2963  0.2180
  283MOL0     N38933   7.642   8.389   2.100  0.7334 -0.9399  0.3142
  283MOL0     C38934   7.654   8.456   1.976  0.5322 -0.6830  0.0610
  283MOL0     C38935   7.777   8.448   1.945  0.0616  0.9909  0.8341
  283MOL0     C38936   7.819   8.522   1.825  0.0723 -0.1541 -0.0839
  283MOL0     C38937   7.872   8.419   1.722 -0.8715 -0.3282 -0.6359
  283MOL0     C38938   7.983   8.484   1.631 -0.5947  1.2196  0.0494
  283MOL0     C38939   8.118   8.514   1.698  0.7404 -0.2309 -0.2825
  283MOL0     O38940   8.203   8.586   1.598  0.2002  0.0509 -0.0284
  283MOL0     C38941   8.334   8.611   1.641 -0.8849 -0.5813  0.6136
  283MOL0     C38942   8.387   8.554   1.761 -0.4222 -0.9003  0.0047
  283MOL0     C38943   8.503   8.602   1.817 -0.7033  0.9425  0.2102
  283MOL0     C38944   8.541   8.543   1.957  0.4347 -0.0513 -0.1563
  283MOL0     C38945   8.588   8.690   1.750  0.5088 -0.4666 -0.9640
  283MOL0     C38946   8.717   8.735   1.807 -0.0221 -0.3990 -0.3841
  283MOL0     O38947   8.735   8.742   1.942 -0.1880  0.2717  0.0752
  283MOL0     C38948   8.858   8.797   1.981  0.4168 -0.1239  0.0547
  283MOL0     C38949   8.988   8.746   1.953  0.0409 -0.7167  0.4544
  283MOL0     C38950   9.104   8.796   2.022  0.5273  0.0827 -0.0281
  283MOL0     C38951   9.095   8.879   2.135 -0.6990  0.2911  0.3351
  283MOL0     O38952   9.202   8.943   2.191 -0.1784 -0.7729 -0.5510
  283MOL0     C38953   9.249   8.859   2.297 -0.9649  0.6670 -0.5042
  283MOL0     C38954   9.375   8.921   2.362 -0.6311  0.0581 -0.3732
  283MOL0     C38955   9.395   8.843   2.494 -0.8116 -0.0025 -0.1993
  283MOL0     C38956   9.515   8.901   2.564  0.1640 -0.5377 -0.4939
  283MOL0     C38957   9.586   8.815   2.667  0.2150 -0.1251 -0.9589
  283MOL0     C38958   9.681   8.904   2.750  0.5903 -0.1810 -0.3261
  283MOL0     C38959   9.782   8.818   2.832 -0.0734 -0.3431 -0.3385
  283MOL0     C38960   9.885   8.888   2.923 -0.0031  0.4160 -0.2102
  283MOL0    Cl38961   9.989   9.003   2.830  0.1399 -0.2798  0.1154
  283MOL0     C38962   8.963   8.922   2.173 -1.0270  0.6212 -0.0991
  283MOL0     C38963   8.853   8.882   2.095 -0.5812 -0.0360 -0.1528
  283MOL0     O38964   8.797   8.775   1.724  0.1010  0.2959  0.2945
  283MOL0     C38965   8.540   8.738   1.621 -0.3720 -0.3979  0.2575
  283MOL0     C38966   8.423   8.693   1.567  0.0398 -0.3851  0.0816
  283MOL0     N38967   7.849   8.368   2.038  0.1118 -0.2803  0.3096
  283MOL0     N38968   7.762   8.330   2.132  0.0549 -0.5365  1.0705
  283MOL0     C38969   6.784   8.180   2.691 -0.3949  0.0079 -0.2680
  283MOL0     C38970   6.707   8.062   2.683  0.3069 -0.5463 -0.1713
  283MOL0     C38971   6.651   7.602   2.618  0.5042 -1.1718 -0.1501
  283MOL0     C38972   6.595   7.646   2.496  0.7888 -0.9761 -0.3923
  283MOL0     C38973   6.521   7.572   2.410  0.1540 -0.3922  0.6286
  283MOL0     C38974   6.503   7.431   2.438  0.7389  0.3186 -0.5243
  283MOL0     O38975   6.416   7.366   2.360 -0.0065  0.5955  0.8723
  283MOL0     C38976   6.331   7.257   2.414 -0.1543  0.0201  0.1551
  283MOL0     C38977   6.241   7.205   2.299  0.4742  0.3429  0.0047
  283MOL0     C38978   6.340   7.135   2.201 -0.1275 -0.6406 -0.4018
  283MOL0     C38979   6.255   7.082   2.082 -0.6930  0.6088 -0.4849
  283MOL0     C38980   6.145   6.998   2.125  0.2833  1.0113  0.3193
  283MOL0     C38981   6.050   6.923   2.154 -0.4432  0.5415  0.2844
  283MOL0     C38982   6.564   7.379   2.545 -0.2681  0.2403 -0.3606
  283MOL0     C38983   6.638   7.460   2.635 -0.3002  0.1550 -0.3206
  283MOL0     C38984   6.699   7.394   2.758  0.1235 -0.7436  1.1929
  283MOL0     H38985   6.957   7.833   2.712 -0.9842 -0.5212 -2.0943
  283MOL0     H38986   7.095   8.052   2.716  0.3178  0.4388 -0.3033
  283MOL0     H38987   6.855   8.429   2.757  0.1025  2.1981 -0.5737
  283MOL0     H38988   6.892   8.390   2.592 -2.2064 -0.3212  1.3846
  283MOL0     H38989   7.005   8.604   2.661  1.5046 -0.3696  2.6707
  283MOL0     H38990   7.104   8.525   2.783  1.9388  1.1362 -0.5543
  283MOL0     H38991   7.210   8.380   2.607 -1.4175 -0.1550  3.0279
  283MOL0     H38992   7.104   8.434   2.485  1.0115 -2.5088  0.5430
  283MOL0     H38993   7.221   8.667   2.510 -1.5496 -0.0857 -0.9256
  283MOL0     H38994   7.309   8.583   2.644 -3.1683  0.2517  0.0279
  283MOL0     H38995   7.394   8.420   2.459  1.8801  0.1124  0.8330
  283MOL0     H38996   7.470   8.580   2.453 -0.1247  0.0326 -1.4033
  283MOL0     H38997   7.259   8.463   2.272  2.1022 -2.5741  2.0893
  283MOL0     H38998   7.308   8.639   2.274  3.4101 -0.6716 -4.5409
  283MOL0     H38999   7.535   8.591   2.241 -0.2443  1.2087 -1.4369
  283MOL0     H39000   7.427   8.567   2.106 -2.2488  0.7867  0.7422
  283MOL0     H39001   7.537   8.321   2.264  3.2473 -1.4500 -1.7883
  283MOL0     H39002   7.443   8.325   2.117 -1.4862  0.0055  1.4368
  283MOL0     H39003   7.581   8.509   1.915  0.6077  0.4667  0.9308
  283MOL0     H39004   7.890   8.598   1.859 -1.2846  0.5874  1.2173
  283MOL0     H39005   7.743   8.586   1.778 -0.0292 -0.8032 -0.8330
  283MOL0     H39006   7.919   8.335   1.775  3.6031  1.1606 -1.7613
  283MOL0     H39007   7.793   8.387   1.654 -1.7507  1.2871 -0.4152
  283MOL0     H39008   8.008   8.412   1.552  1.8702  0.7940  1.1431
  283MOL0     H39009   7.952   8.571   1.573  0.2650  0.9277 -0.8712
  283MOL0     H39010   8.105   8.578   1.786 -0.9939 -0.9637  0.0327
  283MOL0     H39011   8.158   8.416   1.726 -0.4030 -0.4872  0.5560
  283MOL0     H39012   8.330   8.483   1.820 -3.3597  2.0001  1.0239
  283MOL0     H39013   8.645   8.510   1.966  0.4969  0.6709  3.4567
  283MOL0     H39014   8.492   8.449   1.981  2.8840 -0.6033  3.5632
  283MOL0     H39015   8.516   8.611   2.039 -2.4429 -2.6669  1.3500
  283MOL0     H39016   8.989   8.663   1.883 -0.6142  1.2562 -2.0648
  283MOL0     H39017   9.196   8.757   1.981 -0.8824 -0.7584 -2.5854
  283MOL0     H39018   9.177   8.869   2.379  0.5681  0.0192  0.9791
  283MOL0     H39019   9.272   8.755   2.273  1.0342  1.3013 -1.6118
  283MOL0     H39020   9.458   8.903   2.293  0.6806  1.5527  0.7405
  283MOL0     H39021   9.363   9.029   2.379  1.5315  0.8518 -3.1087
  283MOL0     H39022   9.414   8.739   2.467  0.7641  0.5452 -1.4142
  283MOL0     H39023   9.313   8.845   2.567  1.8147  0.3434  2.9946
  283MOL0     H39024   9.482   8.994   2.610  0.6035  0.6230 -2.4160
  283MOL0     H39025   9.589   8.930   2.489  0.8173 -0.8394  0.0224
  283MOL0     H39026   9.518   8.774   2.742  0.5627  1.5653  0.3473
  283MOL0     H39027   9.643   8.743   2.607  1.3599  0.0302 -0.0786
  283MOL0     H39028   9.610   8.952   2.818  0.0497 -0.3438 -0.7700
  283MOL0     H39029   9.736   8.977   2.690  0.4409 -1.0496 -1.5516
  283MOL0     H39030   9.834   8.756   2.758  1.0683 -1.3440  1.2076
  283MOL0     H39031   9.727   8.750   2.899  0.4001 -0.2911  0.1148
  283MOL0     H39032   9.940   8.801   2.959 -0.7122  0.6953  1.6388
  283MOL0     H39033   9.838   8.950   2.999  1.0988 -0.5215  1.2905
  283MOL0     H39034   8.967   8.996   2.252 -0.2433  1.1707 -0.6314
  283MOL0     H39035   8.749   8.904   2.119 -0.7526 -3.1919  2.6689
  283MOL0     H39036   8.608   8.801   1.565 -1.0557 -1.4446 -1.8680
  283MOL0     H39037   8.411   8.729   1.466 -1.2388 -0.4154  0.2050
  283MOL0     H39038   6.730   8.274   2.698 -0.0281  0.0925  2.8223
  283MOL0     H39039   6.599   8.070   2.675  0.3612 -1.0846 -1.7435
  283MOL0     H39040   6.614   7.744   2.452 -1.3322  0.1279  0.9728
  283MOL0     H39041   6.500   7.617   2.313  1.7794  0.2019  0.5128
  283MOL0     H39042   6.411   7.188   2.441  0.1874  0.2939 -0.1370
  283MOL0     H39043   6.278   7.288   2.505  1.3270  0.9959  0.7325
  283MOL0     H39044   6.184   7.281   2.245 -0.4378 -1.9964 -2.5881
  283MOL0     H39045   6.163   7.136   2.332  1.1159 -0.9385 -1.0267
  283MOL0     H39046   6.412   7.209   2.165  1.2131 -0.4341  2.3875
  283MOL0     H39047   6.394   7.054   2.251  0.1055  0.2066  0.7775
  283MOL0     H39048   6.309   7.023   2.007  0.6388 -0.6457  1.3666
  283MOL0     H39049   6.215   7.175   2.040 -0.7403  0.3314 -1.0754
  283MOL0     H39050   5.968   6.863   2.186  0.7533 -0.7167  1.1200
  283MOL0     H39051   6.555   7.272   2.564 -1.9169 -0.0017 -2.2389
  283MOL0     H39052   6.657   7.299   2.791  0.0678 -1.6122 -1.1668
  283MOL0     H39053   6.806   7.384   2.738  0.2186  0.7480  0.8097
  283MOL0     H39054   6.688   7.461   2.844  0.0414 -0.2874  0.8319
  284MOL0     O39055  10.559   9.001   2.616  0.2413  0.3876  0.1329
  284MOL0     C39056  10.510   9.068   2.713 -0.3071  0.1015 -0.1980
  284MOL0     O39057  10.422   9.179   2.707 -0.1683 -0.0206 -0.1969
  284MOL0     C39058  10.359   9.213   2.592 -0.0730  0.0664  0.8979
  284MOL0     C39059  10.317   9.349   2.583 -0.5700  0.2166 -0.3128
  284MOL0     C39060  10.245   9.405   2.473  0.3629 -0.0084  0.0265
  284MOL0     C39061  10.219   9.323   2.359  0.6962 -0.4557 -1.6542
  284MOL0     O39062  10.139   9.354   2.250 -0.4675 -0.0469  0.6255
  284MOL0     C39063  10.130   9.497   2.212  0.1150  0.0436 -0.0037
  284MOL0     C39064  10.019   9.562   2.285 -0.5513  0.4037 -1.1654
  284MOL0     C39065   9.995   9.709   2.231 -0.1111  0.2281  0.2169
  284MOL0     C39066   9.860   9.756   2.291  0.0872  0.6564 -0.8051
  284MOL0     C39067   9.853   9.900   2.259  0.1399 -0.3249  0.2243
  284MOL0     C39068   9.864   9.947   2.104 -0.5451 -0.0455 -0.7752
  284MOL0     C39069   9.823  10.088   2.100  0.0622  0.4539  0.5396
  284MOL0     C39070   9.813  10.143   1.962 -0.2808 -0.2909 -0.0757
  284MOL0     N39071   9.935  10.148   1.876  0.1816  0.1995 -0.7941
  284MOL0     C39072   9.958  10.103   1.746  1.2289 -0.0101 -0.1719
  284MOL0     C39073  10.094  10.094   1.726 -0.2199 -0.1727 -0.2728
  284MOL0     C39074  10.167  10.040   1.603 -0.2837  0.3718  0.6253
  284MOL0     C39075  10.264  10.153   1.556  0.3184  0.5101 -0.7467
  284MOL0     C39076  10.196  10.233   1.450  0.4424 -0.8340 -0.0074
  284MOL0     C39077  10.296  10.332   1.410 -0.0111 -0.7749  0.1973
  284MOL0     O39078  10.235  10.418   1.310 -0.2443  0.0104  0.7652
  284MOL0     C39079  10.310  10.490   1.218 -0.0722  0.3506 -0.8245
  284MOL0     C39080  10.234  10.564   1.117  0.0582 -0.2578 -0.7960
  284MOL0     C39081  10.305  10.623   1.008 -0.1077 -0.3088 -0.0921
  284MOL0     C39082  10.229  10.697   0.903 -0.0889  0.5434  0.3284
  284MOL0     C39083  10.445  10.595   0.989  0.8378  0.8325 -0.0435
  284MOL0     C39084  10.515  10.607   0.859 -0.6098  0.6179  0.1302
  284MOL0     O39085  10.643  10.648   0.861  0.0036 -0.5360  0.4494
  284MOL0     C39086  10.725  10.669   0.751 -0.5004  1.2027  0.0549
  284MOL0     C39087  10.860  10.689   0.793  0.0313  0.6617  0.2953
  284MOL0     C39088  10.959  10.722   0.701 -0.1833  0.2424  0.1399
  284MOL0     C39089  10.927  10.719   0.568 -0.0198  0.1719  0.5247
  284MOL0     O39090  11.034  10.755   0.495  0.1705  0.0268 -0.3043
  284MOL0     C39091  11.077  10.675   0.390 -0.2733 -0.4812  0.2246
  284MOL0     C39092  11.201  10.593   0.427 -0.3255 -0.5342  0.1176
  284MOL0     C39093  11.326  10.670   0.470 -0.2674  0.2352 -0.8306
  284MOL0     C39094  11.441  10.589   0.518  0.7732  0.6390 -0.1693
  284MOL0     C39095  11.491  10.477   0.419  0.3612  0.0694  0.5755
  284MOL0     C39096  11.562  10.536   0.297 -0.7632 -0.1975 -0.3545
  284MOL0     C39097  11.583  10.435   0.189  1.4084 -0.5406 -0.2701
  284MOL0     C39098  11.455  10.356   0.151  0.2451  0.0442 -0.3754
  284MOL0    Cl39099  11.507  10.303  -0.018  0.1499  0.4393 -0.1589
  284MOL0     C39100  10.800  10.677   0.521  0.3184 -0.0297  0.3716
  284MOL0     C39101  10.697  10.657   0.612 -0.7925 -0.0395  0.5241
  284MOL0     O39102  10.449  10.579   0.759 -0.3407  0.4732 -0.0012
  284MOL0     C39103  10.513  10.541   1.099 -0.0721  1.5998 -0.5912
  284MOL0     C39104  10.450  10.484   1.209 -0.4205  0.1870  0.2211
  284MOL0     N39105  10.154  10.141   1.843  0.1749 -0.3118  0.6156
  284MOL0     N39106  10.056  10.170   1.925  0.7286 -0.3882  0.2016
  284MOL0     C39107  10.269   9.191   2.361  0.9145 -0.2492  0.0713
  284MOL0     C39108  10.333   9.132   2.478  0.0513  0.6758 -0.3840
  284MOL0     C39109  10.545   9.013   2.840 -0.9012  0.6586  0.0292
  284MOL0     C39110  10.682   8.966   2.845 -0.3497  1.1520  0.0290
  284MOL0     C39111  10.727   8.915   2.968  0.6662 -0.1658  0.3853
  284MOL0     C39112  10.636   8.880   3.065  0.9282  0.7713 -0.3151
  284MOL0     O39113  10.681   8.803   3.167 -0.2839 -0.3500 -0.4752
  284MOL0     C39114  10.597   8.708   3.233 -0.6838 -0.1909  0.4498
  284MOL0     C39115  10.677   8.632   3.341  0.4535 -0.5245  1.2904
  284MOL0     C39116  10.774   8.728   3.416  1.3737  0.1507 -0.0923
  284MOL0     C39117  10.821   8.647   3.539 -0.0412 -0.0592 -0.0520
  284MOL0     C39118  10.928   8.547   3.509  0.2795 -1.1452 -0.7122
  284MOL0     C39119  11.020   8.479   3.480  0.9000  0.9414  0.1240
  284MOL0     C39120  10.499   8.914   3.057  0.2860 -0.2337  0.6125
  284MOL0     C39121  10.455   8.992   2.948  0.7478 -0.0657 -0.3127
  284MOL0     C39122  10.313   9.037   2.934 -0.3352 -0.0548 -1.0392
  284MOL0     H39123  10.350   9.397   2.674 -0.0497 -3.2795  1.4892
  284MOL0     H39124  10.220   9.511   2.474  1.0178  0.2726 -2.9518
  284MOL0     H39125  10.098   9.501   2.108  2.1829  0.3690 -0.6583
  284MOL0     H39126  10.220   9.559   2.212 -0.8215  1.4889 -1.3715
  284MOL0     H39127   9.930   9.502   2.266 -1.7484  2.2273 -1.5148
  284MOL0     H39128  10.042   9.566   2.392  2.9628  0.9560 -1.7964
  284MOL0     H39129  10.082   9.769   2.259 -0.0861  1.3797 -2.1378
  284MOL0     H39130  10.009   9.709   2.123  0.9976 -1.0893  0.3253
  284MOL0     H39131   9.775   9.707   2.242  1.1994 -2.0549 -0.2197
  284MOL0     H39132   9.852   9.745   2.400 -6.9005  4.6001 -0.3268
  284MOL0     H39133   9.936   9.951   2.309  3.2571 -4.0382 -0.6929
  284MOL0     H39134   9.762   9.939   2.305  0.3804  1.3843 -0.6619
  284MOL0     H39135   9.965   9.936   2.065 -0.2214  2.4308 -0.7946
  284MOL0     H39136   9.790   9.886   2.051 -0.8895 -1.1667  0.9069
  284MOL0     H39137   9.886  10.148   2.167 -0.8120  1.5171  0.4319
  284MOL0     H39138   9.719  10.099   2.131  0.2227 -0.1352  1.3253
  284MOL0     H39139   9.748  10.074   1.908 -0.7854  0.4002 -0.3613
  284MOL0     H39140   9.777  10.246   1.969  1.0717  0.1470  0.8737
  284MOL0     H39141   9.886  10.072   1.671  2.3861 -1.3385 -0.7796
  284MOL0     H39142  10.103  10.013   1.519 -1.5606  2.3452  0.8877
  284MOL0     H39143  10.232   9.960   1.640 -0.7733 -0.1667  0.3326
  284MOL0     H39144  10.302  10.215   1.638 -1.8468 -2.3300  2.6916
  284MOL0     H39145  10.350  10.103   1.511  0.7261 -0.0977  0.6607
  284MOL0     H39146  10.154  10.161   1.380 -0.6855 -2.5024  2.2792
  284MOL0     H39147  10.109  10.284   1.492 -1.3253 -1.7498 -2.3107
  284MOL0     H39148  10.324  10.401   1.491 -2.2791  1.1029 -0.5014
  284MOL0     H39149  10.386  10.287   1.369 -0.9590 -4.0165  1.3616
  284MOL0     H39150  10.127  10.577   1.122  0.3046  4.1229 -2.1880
  284MOL0     H39151  10.155  10.766   0.946 -0.6433  1.9777 -2.6673
  284MOL0     H39152  10.174  10.623   0.844  0.1904 -0.9900  1.8992
  284MOL0     H39153  10.299  10.765   0.854 -0.9708  2.3107  1.3662
  284MOL0     H39154  10.884  10.684   0.899 -1.5612 -1.0072  0.6315
  284MOL0     H39155  11.061  10.740   0.733  1.6226 -2.6230 -3.3883
  284MOL0     H39156  10.992  10.611   0.365 -0.3026  0.2991 -1.8593
  284MOL0     H39157  11.103  10.720   0.294  1.0744  0.0193  0.7975
  284MOL0     H39158  11.170  10.534   0.513 -0.6519 -2.3231 -1.1601
  284MOL0     H39159  11.224  10.523   0.345 -1.8208 -2.4227  1.2279
  284MOL0     H39160  11.303  10.734   0.555  4.2577  1.4405 -0.2302
  284MOL0     H39161  11.358  10.744   0.395 -0.4016  2.3047  1.0711
  284MOL0     H39162  11.412  10.541   0.612  2.0962  2.0432  0.9972
  284MOL0     H39163  11.524  10.656   0.539  1.7696 -0.7047  0.3361
  284MOL0     H39164  11.553  10.420   0.488 -1.0438  1.3487  3.0322
  284MOL0     H39165  11.409  10.408   0.396 -1.0008  1.5192  0.8453
  284MOL0     H39166  11.661  10.569   0.330 -1.7603  4.1281 -1.0818
  284MOL0     H39167  11.523  10.624   0.247 -0.2121  0.0953 -0.2710
  284MOL0     H39168  11.656  10.357   0.213 -0.0499 -1.6242  0.7980
  284MOL0     H39169  11.625  10.495   0.108 -1.6063  2.4702  0.1877
  284MOL0     H39170  11.366  10.417   0.167  0.9656  1.0507 -0.1549
  284MOL0     H39171  11.440  10.269   0.216 -0.2440  0.0525 -0.4722
  284MOL0     H39172  10.783  10.653   0.416  0.2561 -1.1964  0.6328
  284MOL0     H39173  10.598  10.633   0.574 -1.5184 -0.1212  2.4023
  284MOL0     H39174  10.620  10.527   1.088 -0.4974 -0.9925 -2.4284
  284MOL0     H39175  10.514  10.433   1.280 -1.7322 -1.6287  0.1680
  284MOL0     H39176  10.241   9.132   2.275 -0.4287  1.5761 -0.7944
  284MOL0     H39177  10.363   9.028   2.483 -2.2595  0.0015  1.5780
  284MOL0     H39178  10.749   8.983   2.761 -1.2182  1.4074 -0.6190
  284MOL0     H39179  10.831   8.888   2.982  0.8090  0.3018  0.2358
  284MOL0     H39180  10.504   8.749   3.272 -0.7692 -0.6017  0.6838
  284MOL0     H39181  10.562   8.640   3.154  0.5248  1.3739 -1.5248
  284MOL0     H39182  10.746   8.566   3.289 -0.4044 -0.2053 -0.3174
  284MOL0     H39183  10.608   8.574   3.403 -1.5794 -0.7566 -1.0443
  284MOL0     H39184  10.857   8.754   3.350  1.0932 -1.4559 -1.1634
  284MOL0     H39185  10.719   8.818   3.445 -0.6050 -1.0423  0.0639
  284MOL0     H39186  10.745   8.592   3.597  2.6374 -0.4094  3.5063
  284MOL0     H39187  10.855   8.713   3.619  0.9300  0.7611 -1.1094
  284MOL0     H39188  11.108   8.420   3.462  2.1823  2.0920  2.1807
  284MOL0     H39189  10.429   8.901   3.139  0.0957 -0.2801  0.4427
  284MOL0     H39190  10.282   9.003   2.835  1.8546 -1.0352 -1.4518
  284MOL0     H39191  10.248   8.997   3.013  0.8894  1.1307  0.6562
  284MOL0     H39192  10.305   9.144   2.955  0.4467 -0.3367  0.9898
  285MOL0     O39193   9.906   4.972   5.811 -0.1451 -0.2587  0.3753
  285MOL0     C39194   9.841   5.082   5.811 -0.4347 -0.5986  0.8844
  285MOL0     O39195   9.876   5.197   5.870  0.5204  0.2539  0.2184
  285MOL0     C39196  10.004   5.241   5.888 -0.3984  0.2300 -0.1182
  285MOL0     C39197  10.112   5.196   5.812  0.5840  0.2885  0.0794
  285MOL0     C39198  10.236   5.254   5.842  0.5444  0.1306  0.0280
  285MOL0     C39199  10.250   5.341   5.952  1.2633  0.6617  0.6040
  285MOL0     O39200  10.367   5.394   5.981 -0.0574  0.1772  0.5724
  285MOL0     C39201  10.399   5.377   6.119  0.9648  0.1577  0.0060
  285MOL0     C39202  10.546   5.415   6.111  0.2615  0.1293  0.0204
  285MOL0     C39203  10.614   5.418   6.256 -1.1083  0.8421  0.2001
  285MOL0     C39204  10.761   5.444   6.238 -0.3253  0.6380 -0.6947
  285MOL0     C39205  10.837   5.416   6.358 -1.1198 -0.0149  0.4902
  285MOL0     C39206  10.988   5.429   6.336  0.0693  0.4075  0.5711
  285MOL0     C39207  11.067   5.390   6.465 -0.1571  0.6139 -0.9141
  285MOL0     C39208  11.226   5.378   6.448 -0.7435  0.4950 -1.1471
  285MOL0     N39209  11.306   5.392   6.567 -0.8405 -0.1564 -0.5386
  285MOL0     C39210  11.328   5.498   6.656  0.4093 -0.2158  0.3089
  285MOL0     C39211  11.423   5.456   6.741  0.1174 -0.1826  0.2361
  285MOL0     C39212  11.486   5.550   6.844  0.0899  0.6425  0.0089
  285MOL0     C39213  11.507   5.467   6.976  0.2790  0.2005 -0.6562
  285MOL0     C39214  11.550   5.547   7.099  0.5495  0.4469  0.4493
  285MOL0     C39215  11.694   5.604   7.086  0.1476  0.1364  0.7551
  285MOL0     O39216  11.704   5.703   6.981 -0.1610  0.3936 -0.5891
  285MOL0     C39217  11.836   5.745   6.959  0.3457  0.0946 -0.1605
  285MOL0     C39218  11.857   5.824   6.846 -0.7827 -0.3062 -0.3458
  285MOL0     C39219  11.979   5.862   6.813 -0.1418 -0.6327  0.7849
  285MOL0     C39220  11.990   5.937   6.678 -0.4841  0.4627  0.2139
  285MOL0     C39221  12.096   5.830   6.896  0.3975 -0.2656 -0.8307
  285MOL0     C39222  12.234   5.881   6.879 -0.2748 -0.6716  0.1156
  285MOL0     O39223  12.335   5.806   6.925  0.4406 -0.1695  0.1318
  285MOL0     C39224  12.461   5.853   6.890  0.1001 -0.3802 -0.2512
  285MOL0     C39225  12.543   5.866   7.004  0.8265  0.4499 -0.1440
  285MOL0     C39226  12.679   5.878   6.989  1.0629  0.1006  0.6991
  285MOL0     C39227  12.733   5.878   6.868  0.2655 -0.0470  0.2410
  285MOL0     O39228  12.864   5.862   6.844  0.2881 -0.2224 -0.2389
  285MOL0     C39229  12.933   5.971   6.771 -0.0014  0.7629  0.6469
  285MOL0     C39230  13.080   5.979   6.779  0.4069 -0.5445  0.6184
  285MOL0     C39231  13.127   6.121   6.743 -0.3937 -0.5389  0.0961
  285MOL0     C39232  13.276   6.114   6.698 -0.3364 -0.1786 -1.0620
  285MOL0     C39233  13.284   6.080   6.556 -0.4495  1.1515  0.3696
  285MOL0     C39234  13.433   6.074   6.518  0.3871 -0.2260  1.1252
  285MOL0     C39235  13.446   6.034   6.373 -0.3379  0.0259 -0.3406
  285MOL0     C39236  13.577   6.083   6.316 -0.5810  0.4418 -0.2931
  285MOL0    Cl39237  13.543   6.268   6.295  0.3235 -0.2001 -0.3476
  285MOL0     C39238  12.650   5.876   6.755  0.4923 -0.5450  0.1263
  285MOL0     C39239  12.509   5.864   6.759  0.7325 -0.5573 -0.4723
  285MOL0     O39240  12.243   5.986   6.821 -1.1024  0.2945  0.5803
  285MOL0     C39241  12.075   5.747   7.006 -0.2379  0.1023 -0.2098
  285MOL0     C39242  11.947   5.700   7.041 -0.0073  0.0957  0.1267
  285MOL0     N39243  11.468   5.330   6.702 -0.4838  1.7829  0.3578
  285MOL0     N39244  11.394   5.290   6.606 -0.2026  0.0950  0.0198
  285MOL0     C39245  10.137   5.380   6.028 -0.3735 -0.3250 -0.7665
  285MOL0     C39246  10.010   5.331   5.996  0.3923  0.6192  0.7470
  285MOL0     C39247   9.713   5.082   5.733  0.8309 -0.1519 -0.4263
  285MOL0     C39248   9.655   4.956   5.707 -0.1204 -0.3206  0.6073
  285MOL0     C39249   9.533   4.947   5.637  0.2052 -0.1940 -0.1569
  285MOL0     C39250   9.461   5.061   5.601 -0.0330  0.2211 -0.3952
  285MOL0     O39251   9.338   5.048   5.547  0.4284 -0.0251  1.1481
  285MOL0     C39252   9.311   4.938   5.465  0.1134  0.1358  0.2814
  285MOL0     C39253   9.194   4.963   5.375  0.5318 -0.3036  0.6257
  285MOL0     C39254   9.058   4.993   5.450  0.1692  0.5883 -0.5790
  285MOL0     C39255   9.003   4.881   5.551 -0.4822 -0.3786 -0.1702
  285MOL0     C39256   8.977   4.769   5.465  0.7810  0.6876  0.2328
  285MOL0     C39257   8.970   4.676   5.382 -0.4550  0.8038 -0.2509
  285MOL0     C39258   9.520   5.185   5.622 -1.0743 -0.2032 -0.5211
  285MOL0     C39259   9.644   5.203   5.687  1.7955  0.4999  0.0702
  285MOL0     C39260   9.690   5.348   5.708  0.1975  1.0741  0.4723
  285MOL0     H39261  10.099   5.126   5.730  1.4641  0.5790 -0.3274
  285MOL0     H39262  10.316   5.227   5.774  1.0078  2.1486 -0.2958
  285MOL0     H39263  10.380   5.280   6.165 -0.1962 -1.4389 -3.5042
  285MOL0     H39264  10.348   5.448   6.184  1.1731  0.4269 -0.1214
  285MOL0     H39265  10.598   5.339   6.052  1.9572 -0.7319  2.4662
  285MOL0     H39266  10.558   5.514   6.067  1.3900  0.6565  1.4282
  285MOL0     H39267  10.573   5.492   6.325 -1.7477 -0.7226  1.5663
  285MOL0     H39268  10.606   5.313   6.286 -0.4103 -0.4402 -3.5216
  285MOL0     H39269  10.797   5.373   6.163 -0.2755  0.8140 -0.8379
  285MOL0     H39270  10.786   5.543   6.200 -1.5691  0.6551 -1.5265
  285MOL0     H39271  10.822   5.316   6.399  2.9371 -0.8971  0.2804
  285MOL0     H39272  10.815   5.489   6.437 -1.6722  0.8121 -0.4047
  285MOL0     H39273  11.014   5.359   6.257 -0.5566 -0.0939  0.8009
  285MOL0     H39274  11.015   5.531   6.306 -0.2316 -0.1999 -1.9948
  285MOL0     H39275  11.028   5.292   6.492 -0.0201  0.4929 -1.1585
  285MOL0     H39276  11.045   5.464   6.543 -2.2597 -0.5836 -0.2797
  285MOL0     H39277  11.248   5.282   6.400  0.7016  0.3661 -0.2936
  285MOL0     H39278  11.252   5.460   6.380 -2.0957  1.3060 -0.7228
  285MOL0     H39279  11.284   5.597   6.652  1.1008  0.0555 -2.5794
  285MOL0     H39280  11.438   5.645   6.870  1.2227  1.0892  0.5223
  285MOL0     H39281  11.588   5.571   6.812  0.4078  0.2978  0.7580
  285MOL0     H39282  11.414   5.415   7.002 -1.3313  3.1073 -0.2432
  285MOL0     H39283  11.591   5.399   6.960 -0.0285  0.3616 -3.4600
  285MOL0     H39284  11.483   5.634   7.104  0.7913  0.7272 -0.8751
  285MOL0     H39285  11.544   5.492   7.194 -0.0231  3.6678  2.4285
  285MOL0     H39286  11.720   5.656   7.179 -0.4184 -0.1967  1.1126
  285MOL0     H39287  11.770   5.531   7.058  0.0488  0.1065  0.5666
  285MOL0     H39288  11.783   5.848   6.771  0.9747 -0.6746 -2.3047
  285MOL0     H39289  11.900   5.918   6.618 -0.9259 -2.3258  1.6036
  285MOL0     H39290  12.079   5.894   6.632 -2.5326 -4.0851 -0.0134
  285MOL0     H39291  11.997   6.044   6.696 -0.7043  0.1219  2.5881
  285MOL0     H39292  12.496   5.862   7.101  0.6206 -1.2058 -0.2980
  285MOL0     H39293  12.743   5.872   7.077  2.9840 -1.8617 -0.7085
  285MOL0     H39294  12.891   5.976   6.671  1.0725  2.9547  0.2500
  285MOL0     H39295  12.903   6.061   6.825  6.6202  2.7797  1.9441
  285MOL0     H39296  13.105   5.938   6.877 -2.0394  0.1481  1.6133
  285MOL0     H39297  13.131   5.910   6.711 -1.6349 -0.4579 -1.0879
  285MOL0     H39298  13.116   6.187   6.830  0.9421 -0.5160  0.2698
  285MOL0     H39299  13.065   6.158   6.661 -2.0118 -1.4380  0.8803
  285MOL0     H39300  13.321   6.045   6.770  1.7268  1.7417 -0.3913
  285MOL0     H39301  13.306   6.219   6.698  1.6069 -0.6899 -1.6411
  285MOL0     H39302  13.239   5.982   6.542  0.0257  0.7715  1.3687
  285MOL0     H39303  13.229   6.148   6.491  1.0617 -1.8781 -4.6176
  285MOL0     H39304  13.484   5.999   6.580 -0.1997 -0.7284  1.0138
  285MOL0     H39305  13.481   6.171   6.533 -0.4193  0.1695  1.1770
  285MOL0     H39306  13.375   6.093   6.314  1.4096  3.0249  0.3089
  285MOL0     H39307  13.434   5.926   6.361  0.9039 -0.3082  1.0455
  285MOL0     H39308  13.601   6.030   6.224  1.6289  2.9480 -1.2905
  285MOL0     H39309  13.659   6.073   6.387 -2.5802  2.4722  2.5624
  285MOL0     H39310  12.698   5.877   6.657 -0.7980 -0.7750 -0.5312
  285MOL0     H39311  12.438   5.877   6.678 -0.4769  0.4273  0.7013
  285MOL0     H39312  12.156   5.737   7.078 -0.7098 -0.0523  0.3051
  285MOL0     H39313  11.931   5.643   7.132 -1.4892 -0.1072 -0.2353
  285MOL0     H39314  10.137   5.455   6.107 -2.1726 -1.4260  0.3610
  285MOL0     H39315   9.916   5.357   6.043 -1.6093  0.5345 -2.9028
  285MOL0     H39316   9.700   4.868   5.753 -1.1035 -3.0362 -3.1215
  285MOL0     H39317   9.501   4.845   5.619  2.5232 -1.1355  0.6634
  285MOL0     H39318   9.400   4.920   5.405 -0.3842  0.6747 -0.6483
  285MOL0     H39319   9.293   4.851   5.529  1.5285 -0.1609  0.2961
  285MOL0     H39320   9.185   4.885   5.299  1.2642 -0.8633  1.0931
  285MOL0     H39321   9.200   5.060   5.324  1.7065 -0.6530  0.0647
  285MOL0     H39322   9.074   5.082   5.513 -3.5504  1.3290 -0.4815
  285MOL0     H39323   8.984   5.014   5.372  0.5584  1.1235 -0.8124
  285MOL0     H39324   8.914   4.916   5.604 -0.9936  0.3312 -1.4599
  285MOL0     H39325   9.084   4.866   5.623 -0.1685 -0.5720 -0.5552
  285MOL0     H39326   8.977   4.591   5.316  3.1698 -0.3806  1.3814
  285MOL0     H39327   9.466   5.275   5.596 -1.1625 -0.5652 -1.6733
  285MOL0     H39328   9.709   5.348   5.816 -4.3179 -0.7971  1.4909
  285MOL0     H39329   9.772   5.374   5.641  1.0338  0.5578  1.2792
  285MOL0     H39330   9.611   5.419   5.681  0.8100  2.3366  1.8293
  286MOL0     O39331   8.673   4.102   1.321 -0.2790 -0.5101 -0.4026
  286MOL0     C39332   8.710   4.104   1.202 -0.0349 -0.7985 -0.3210
  286MOL0     O39333   8.803   4.189   1.152  0.6667 -1.0289 -0.1821
  286MOL0     C39334   8.847   4.289   1.236  0.1405 -0.1756 -0.5210
  286MOL0     C39335   8.777   4.411   1.248  0.1289 -0.2532 -0.2868
  286MOL0     C39336   8.822   4.506   1.334 -0.7641 -0.7121  0.8742
  286MOL0     C39337   8.940   4.496   1.413  0.6549 -1.0790 -0.7066
  286MOL0     O39338   8.994   4.593   1.495 -0.3275  0.2484  0.1668
  286MOL0     C39339   8.903   4.697   1.515  0.6577  0.0484  0.0001
  286MOL0     C39340   8.976   4.784   1.616 -0.2213 -0.4958  0.2836
  286MOL0     C39341   9.113   4.834   1.559 -1.1655 -0.2524  0.2689
  286MOL0     C39342   9.169   4.940   1.655  0.6712 -0.2224  0.5039
  286MOL0     C39343   9.311   4.970   1.613  0.1629  0.1959 -0.3239
  286MOL0     C39344   9.396   5.056   1.716 -0.1999 -0.1974  0.9763
  286MOL0     C39345   9.526   5.089   1.643  0.2347 -0.2494 -0.2882
  286MOL0     C39346   9.605   5.149   1.757 -0.5294 -0.4109 -0.7026
  286MOL0     N39347   9.743   5.162   1.715  0.6259 -0.0005  0.0311
  286MOL0     C39348   9.794   5.266   1.644 -0.3897 -0.0811 -0.3306
  286MOL0     C39349   9.915   5.228   1.606  0.3152  1.0349  0.3777
  286MOL0     C39350   9.989   5.327   1.512 -0.1300  0.2220 -0.0970
  286MOL0     C39351  10.091   5.426   1.588 -0.2181  0.8055 -0.0510
  286MOL0     C39352  10.008   5.517   1.678  0.3095  0.5373  0.9707
  286MOL0     C39353  10.088   5.634   1.732 -0.4136  0.5851  0.1737
  286MOL0     O39354  10.105   5.733   1.631 -0.2256 -0.2347 -0.2191
  286MOL0     C39355  10.179   5.846   1.651  0.2319  0.8013 -0.4187
  286MOL0     C39356  10.145   5.962   1.581  0.8251  0.6681  0.4654
  286MOL0     C39357  10.192   6.091   1.594  0.3874 -0.5405 -0.2749
  286MOL0     C39358  10.119   6.202   1.522 -0.3376 -0.2257 -0.7449
  286MOL0     C39359  10.290   6.110   1.694 -1.0579 -0.4232 -0.5335
  286MOL0     C39360  10.358   6.240   1.716 -0.7339  1.0877 -0.0015
  286MOL0     O39361  10.442   6.249   1.825  0.1348  0.3109 -0.8543
  286MOL0     C39362  10.525   6.358   1.836 -0.6621  0.0845  0.2289
  286MOL0     C39363  10.485   6.488   1.876 -0.6134  0.9149  0.4287
  286MOL0     C39364  10.585   6.583   1.883  1.1581  0.5882 -0.3193
  286MOL0     C39365  10.724   6.557   1.875  1.0951  0.8674  0.4067
  286MOL0     O39366  10.823   6.645   1.909 -0.1652  0.5384 -0.4002
  286MOL0     C39367  10.789   6.742   2.009  0.9833 -0.0936  0.0254
  286MOL0     C39368  10.915   6.799   2.062 -0.4364 -0.3507  0.0474
  286MOL0     C39369  11.012   6.856   1.955 -0.1876 -0.8681 -1.6291
  286MOL0     C39370  11.120   6.950   2.024 -0.1347  0.2104  0.7605
  286MOL0     C39371  11.254   6.877   2.061 -0.3718 -0.3178 -0.1082
  286MOL0     C39372  11.347   6.979   2.125  0.7749  1.1162 -0.3498
  286MOL0     C39373  11.470   6.902   2.167 -0.1182  0.0955 -0.3174
  286MOL0     C39374  11.558   6.980   2.265 -0.5719 -0.9915  0.2447
  286MOL0    Cl39375  11.717   6.914   2.268 -0.2351 -0.8181 -0.3841
  286MOL0     C39376  10.759   6.433   1.830 -0.9758 -0.6314 -0.7526
  286MOL0     C39377  10.664   6.330   1.807 -0.3036  0.4290 -0.7905
  286MOL0     O39378  10.345   6.334   1.639  0.1441 -0.0580 -0.4657
  286MOL0     C39379  10.320   5.999   1.782  0.5384  0.0952 -0.6594
  286MOL0     C39380  10.265   5.867   1.758  0.2155 -0.7051  0.0173
  286MOL0     N39381   9.938   5.100   1.652 -0.5161  0.2406 -0.8435
  286MOL0     N39382   9.831   5.058   1.722  0.5403  0.0258  0.6803
  286MOL0     C39383   9.002   4.372   1.402 -0.7539 -0.2077 -0.0263
  286MOL0     C39384   8.955   4.264   1.323 -0.5035 -0.0175 -0.0869
  286MOL0     C39385   8.643   4.006   1.120  0.1360 -0.8460  0.3314
  286MOL0     C39386   8.548   3.920   1.171  0.0164 -0.5794 -0.2827
  286MOL0     C39387   8.489   3.818   1.103  0.0857  0.0120 -0.2777
  286MOL0     C39388   8.516   3.800   0.963  1.0591 -0.3291 -0.0217
  286MOL0     O39389   8.454   3.695   0.899  0.2719 -0.1733 -0.0488
  286MOL0     C39390   8.508   3.648   0.775  0.5042  0.0679 -0.9444
  286MOL0     C39391   8.454   3.508   0.765  0.2137 -0.1777  0.5624
  286MOL0     C39392   8.479   3.445   0.628 -0.1287 -0.9254 -0.9671
  286MOL0     C39393   8.482   3.294   0.645  0.4068  0.6978  0.0570
  286MOL0     C39394   8.351   3.244   0.678 -0.3532 -0.2458  0.3848
  286MOL0     C39395   8.242   3.199   0.698  0.0601 -0.3149 -0.5731
  286MOL0     C39396   8.604   3.892   0.903  0.1732  0.4026  0.0907
  286MOL0     C39397   8.669   3.986   0.980  0.2247  0.1113 -1.1221
  286MOL0     C39398   8.740   4.087   0.891 -0.1321 -0.5050 -0.4641
  286MOL0     H39399   8.681   4.416   1.198 -2.3081 -1.3956  3.8134
  286MOL0     H39400   8.767   4.599   1.326 -0.5874 -0.7397 -1.7117
  286MOL0     H39401   8.815   4.664   1.572  1.4920 -0.8808  0.7952
  286MOL0     H39402   8.884   4.749   1.421  3.3126 -1.7565 -1.6766
  286MOL0     H39403   8.928   4.880   1.637  2.2349  1.1558 -1.0665
  286MOL0     H39404   8.991   4.734   1.713 -2.3418  0.5218  1.1929
  286MOL0     H39405   9.187   4.754   1.543 -1.3265  0.0756 -2.6737
  286MOL0     H39406   9.110   4.887   1.464  0.2321  0.7831  0.7619
  286MOL0     H39407   9.107   5.030   1.659  3.6739  1.9428  2.1197
  286MOL0     H39408   9.170   4.905   1.758  0.2522 -2.9989 -0.3496
  286MOL0     H39409   9.318   5.024   1.518  0.2042  1.4331  0.3593
  286MOL0     H39410   9.363   4.875   1.595  0.8223  0.7610 -1.4398
  286MOL0     H39411   9.336   5.144   1.740  0.1460  0.5751 -0.8537
  286MOL0     H39412   9.416   4.996   1.806  3.7414  0.5659  0.7995
  286MOL0     H39413   9.498   5.152   1.558 -1.7578 -1.1829 -0.3860
  286MOL0     H39414   9.570   5.001   1.597 -1.0611 -1.8941  1.4304
  286MOL0     H39415   9.557   5.237   1.801  3.2755  1.7492 -0.4271
  286MOL0     H39416   9.620   5.079   1.840  0.9687  2.4349  1.6003
  286MOL0     H39417   9.745   5.358   1.613  2.6978  1.3358 -1.4365
  286MOL0     H39418   9.913   5.385   1.460  0.2513  3.4957  2.6436
  286MOL0     H39419  10.053   5.265   1.449 -1.9034 -1.0523 -0.7497
  286MOL0     H39420  10.165   5.368   1.645 -0.1870 -0.5577 -1.4139
  286MOL0     H39421  10.145   5.487   1.515 -1.3768  2.6145  0.5553
  286MOL0     H39422   9.930   5.556   1.612  3.2839  3.8419 -0.9499
  286MOL0     H39423   9.952   5.454   1.748 -1.2229 -2.6928 -2.8144
  286MOL0     H39424  10.036   5.670   1.821  0.5776 -0.0422  1.0231
  286MOL0     H39425  10.187   5.595   1.754 -0.4984  0.1974 -0.1291
  286MOL0     H39426  10.075   5.955   1.498  3.1710 -2.2857 -1.4463
  286MOL0     H39427  10.188   6.252   1.454  1.3113  0.0243  1.0158
  286MOL0     H39428  10.082   6.275   1.595  1.4191  1.5576 -1.5340
  286MOL0     H39429  10.034   6.162   1.466  0.5087 -1.4023 -1.2374
  286MOL0     H39430  10.384   6.512   1.908 -0.9819 -1.6960  1.4669
  286MOL0     H39431  10.553   6.677   1.927 -1.6180 -0.1835 -0.4657
  286MOL0     H39432  10.733   6.822   1.959 -0.8399 -2.6814 -2.3991
  286MOL0     H39433  10.732   6.703   2.094  2.6143  1.1077  1.7545
  286MOL0     H39434  10.884   6.875   2.134 -0.6262 -0.2614 -0.1293
  286MOL0     H39435  10.948   6.710   2.116  0.2296  1.0123  2.0148
  286MOL0     H39436  10.948   6.925   1.899 -3.4506  1.4987  4.1039
  286MOL0     H39437  11.071   6.780   1.903  1.1294 -1.3019  0.3940
  286MOL0     H39438  11.091   6.977   2.126 -0.2627 -0.4726  0.9098
  286MOL0     H39439  11.130   7.043   1.968 -0.9866  0.4642  1.0037
  286MOL0     H39440  11.238   6.803   2.141  1.8811  2.2623  3.0112
  286MOL0     H39441  11.299   6.839   1.969  0.6811  0.3117  0.1343
  286MOL0     H39442  11.293   7.024   2.209 -0.0561  0.6744 -0.6386
  286MOL0     H39443  11.364   7.067   2.063 -5.4507  0.7931 -3.2612
  286MOL0     H39444  11.531   6.896   2.075  0.8877 -0.5868  0.3674
  286MOL0     H39445  11.456   6.802   2.208  0.9854  0.1009  0.1143
  286MOL0     H39446  11.521   6.984   2.368 -0.0194 -0.7252  0.4355
  286MOL0     H39447  11.555   7.083   2.230 -0.9166 -1.3455 -0.8112
  286MOL0     H39448  10.867   6.425   1.819 -0.4222  1.5806  1.9950
  286MOL0     H39449  10.696   6.238   1.759  0.8326  0.8461 -0.8677
  286MOL0     H39450  10.379   6.008   1.872 -0.2441 -1.6682  0.0822
  286MOL0     H39451  10.275   5.790   1.834 -4.0837 -0.6642  0.9234
  286MOL0     H39452   9.097   4.350   1.449 -0.4290  0.8172 -0.1854
  286MOL0     H39453   9.012   4.173   1.307  0.4728  0.9042 -2.2478
  286MOL0     H39454   8.511   3.949   1.269 -0.1004 -1.9929  0.1199
  286MOL0     H39455   8.405   3.762   1.143  2.7684 -2.8169  1.9393
  286MOL0     H39456   8.480   3.718   0.696  2.7168  0.1501 -1.7159
  286MOL0     H39457   8.615   3.632   0.788  0.0192 -3.4903 -0.3445
  286MOL0     H39458   8.346   3.509   0.783  0.2535 -0.8735  0.8692
  286MOL0     H39459   8.497   3.444   0.842  1.1724  2.0993  2.0036
  286MOL0     H39460   8.403   3.480   0.558 -1.4951  0.4034  1.0995
  286MOL0     H39461   8.575   3.479   0.589  0.9206 -0.9933  1.3980
  286MOL0     H39462   8.554   3.269   0.724  2.0479  0.0267 -1.5702
  286MOL0     H39463   8.511   3.233   0.559  0.4651 -0.6926  1.0234
  286MOL0     H39464   8.148   3.147   0.704  0.0440 -0.1639  0.7427
  286MOL0     H39465   8.618   3.895   0.795 -0.0500 -0.3601  0.0358
  286MOL0     H39466   8.835   4.131   0.923 -0.7963 -0.4015  1.4704
  286MOL0     H39467   8.762   4.038   0.795 -3.3715  1.5526 -2.4103
  286MOL0     H39468   8.674   4.169   0.864  2.2129  0.2075 -4.9140
  287MOL0     O39469   3.951   6.747   3.428  0.6918 -0.1011 -0.8570
  287MOL0     C39470   3.930   6.813   3.334  1.6618 -0.0960 -0.0880
  287MOL0     O39471   3.999   6.817   3.217  0.0004 -0.5234  0.7571
  287MOL0     C39472   4.132   6.813   3.209 -0.2029 -0.4941  0.2156
  287MOL0     C39473   4.200   6.796   3.087  0.8622  0.7076 -0.5783
  287MOL0     C39474   4.338   6.794   3.084 -1.1764  0.1232 -0.3834
  287MOL0     C39475   4.426   6.821   3.198 -0.1516  0.0958  0.4060
  287MOL0     O39476   4.563   6.805   3.194 -0.6949 -0.2404  0.8591
  287MOL0     C39477   4.633   6.761   3.310 -0.2244 -0.1856 -0.4911
  287MOL0     C39478   4.595   6.613   3.328  0.8442  0.4728  1.2718
  287MOL0     C39479   4.676   6.552   3.435  0.1112  0.0748  0.0008
  287MOL0     C39480   4.671   6.392   3.432 -0.5325 -0.3293 -0.6239
  287MOL0     C39481   4.800   6.330   3.504 -0.5402  0.1493  1.0358
  287MOL0     C39482   4.823   6.380   3.652  0.4570 -0.1452  0.5613
  287MOL0     C39483   4.929   6.291   3.724 -0.4024  0.4627  0.3956
  287MOL0     C39484   4.870   6.165   3.796 -0.5767  0.4098 -0.5738
  287MOL0     N39485   4.989   6.081   3.838  0.7067 -0.1641 -0.1145
  287MOL0     C39486   5.087   6.120   3.928  0.4674  0.8409 -0.0579
  287MOL0     C39487   5.149   6.008   3.969 -0.0161 -0.7392 -0.1240
  287MOL0     C39488   5.259   5.991   4.066 -0.4306 -0.4623  0.4876
  287MOL0     C39489   5.225   5.878   4.156 -1.0114  0.3638 -0.7703
  287MOL0     C39490   5.147   5.921   4.282 -0.1748  0.1019 -0.1086
  287MOL0     C39491   5.074   5.791   4.347  0.4581  0.4516 -0.3818
  287MOL0     O39492   5.010   5.841   4.463 -0.1693 -0.0441  0.3724
  287MOL0     C39493   4.917   5.771   4.533  0.5345  0.9307  1.1007
  287MOL0     C39494   4.887   5.638   4.516 -0.3235 -0.2641  0.3725
  287MOL0     C39495   4.801   5.578   4.615 -0.4420 -0.1913  0.7618
  287MOL0     C39496   4.768   5.431   4.603 -0.5773 -0.3610 -0.1331
  287MOL0     C39497   4.748   5.651   4.727  0.4322  0.6457 -0.1497
  287MOL0     C39498   4.642   5.605   4.831  0.7398  0.5729 -0.6286
  287MOL0     O39499   4.572   5.705   4.891 -0.6704 -0.3289 -0.6840
  287MOL0     C39500   4.470   5.689   4.977  0.0199  0.1185 -0.1354
  287MOL0     C39501   4.468   5.749   5.098 -0.4519  0.1558  0.1702
  287MOL0     C39502   4.367   5.728   5.184  0.1346  0.3820 -0.5882
  287MOL0     C39503   4.250   5.664   5.154 -0.1855 -1.0552  0.5321
  287MOL0     O39504   4.143   5.646   5.239  0.4684  0.3066  0.0921
  287MOL0     C39505   4.117   5.724   5.356 -0.8737 -0.9743  0.2986
  287MOL0     C39506   4.062   5.862   5.323  0.3301 -0.6701  0.2064
  287MOL0     C39507   3.913   5.868   5.280 -0.6339 -0.0947  0.2099
  287MOL0     C39508   3.820   5.824   5.395 -0.8068 -0.2256  0.4252
  287MOL0     C39509   3.676   5.828   5.345 -0.0364 -1.1251  0.3800
  287MOL0     C39510   3.608   5.973   5.348 -0.5483  0.0762 -0.7662
  287MOL0     C39511   3.465   5.976   5.292 -0.2290 -0.1357 -0.5186
  287MOL0     C39512   3.419   6.116   5.295 -0.0154  0.1454 -0.0067
  287MOL0    Cl39513   3.531   6.230   5.210  0.5362  0.1590  0.2323
  287MOL0     C39514   4.244   5.609   5.023  0.3536  0.0872 -0.1839
  287MOL0     C39515   4.350   5.622   4.937  0.3368  0.1194 -0.0521
  287MOL0     O39516   4.613   5.485   4.856  0.5371 -0.2061 -0.3343
  287MOL0     C39517   4.770   5.788   4.734 -0.0984 -0.9280 -0.0852
  287MOL0     C39518   4.850   5.842   4.638  0.2935  0.0127  0.5021
  287MOL0     N39519   5.080   5.908   3.908  0.8004 -0.8348  0.2508
  287MOL0     N39520   4.998   5.948   3.821 -0.2420  0.8272  0.0431
  287MOL0     C39521   4.359   6.852   3.316 -1.6406  0.2704 -0.3427
  287MOL0     C39522   4.222   6.848   3.323  0.1902  0.9601 -0.9141
  287MOL0     C39523   3.809   6.882   3.346  0.4193  1.3699 -0.3769
  287MOL0     C39524   3.805   7.016   3.382 -0.6274  0.2564 -0.2595
  287MOL0     C39525   3.688   7.084   3.402 -0.9016 -0.0332  0.7873
  287MOL0     C39526   3.566   7.023   3.390  0.5230 -0.0582  0.1136
  287MOL0     O39527   3.451   7.083   3.419  0.1269 -0.0017 -0.5703
  287MOL0     C39528   3.440   7.227   3.422 -0.0709 -0.8286 -0.3510
  287MOL0     C39529   3.299   7.288   3.414 -0.4571 -0.5762  0.2655
  287MOL0     C39530   3.241   7.245   3.283  0.2754  0.5736 -0.1206
  287MOL0     C39531   3.087   7.228   3.274 -0.0941  0.7418  0.3093
  287MOL0     C39532   3.051   7.135   3.163  0.0530 -0.3093 -1.0755
  287MOL0     C39533   3.011   7.066   3.072 -0.9990 -0.0332 -0.4093
  287MOL0     C39534   3.566   6.892   3.343 -0.0219  0.9942  0.4395
  287MOL0     C39535   3.681   6.815   3.326 -0.9610  0.7159 -0.1639
  287MOL0     C39536   3.668   6.669   3.315  0.1153 -0.1949 -0.3567
  287MOL0     H39537   4.142   6.783   2.996 -1.4455 -0.0118  0.9074
  287MOL0     H39538   4.382   6.776   2.986 -1.0095  2.3597 -0.7573
  287MOL0     H39539   4.602   6.814   3.401  0.4038 -0.4315 -0.1211
  287MOL0     H39540   4.742   6.762   3.300 -0.1405  0.1824  0.3849
  287MOL0     H39541   4.489   6.591   3.345  1.4668 -2.2907  2.1423
  287MOL0     H39542   4.607   6.560   3.233  1.8466  0.0004  1.6493
  287MOL0     H39543   4.782   6.573   3.418 -0.0010  2.0851  1.4958
  287MOL0     H39544   4.652   6.599   3.531 -0.8021 -0.6644  0.1475
  287MOL0     H39545   4.579   6.356   3.479 -1.3737 -0.0204 -1.9819
  287MOL0     H39546   4.670   6.359   3.327  1.4574  2.6600 -1.7029
  287MOL0     H39547   4.884   6.357   3.439 -2.6512 -1.9107 -2.9589
  287MOL0     H39548   4.807   6.221   3.498  1.6176  0.2820 -3.9003
  287MOL0     H39549   4.842   6.488   3.652 -0.2908  0.0040 -0.6121
  287MOL0     H39550   4.728   6.365   3.706 -0.0386 -2.4851 -0.8190
  287MOL0     H39551   4.975   6.356   3.800  1.1050  2.4092 -2.0173
  287MOL0     H39552   4.999   6.253   3.650 -2.0401 -0.4588 -0.7433
  287MOL0     H39553   4.803   6.185   3.880  0.8886  1.1924  0.4469
  287MOL0     H39554   4.805   6.112   3.725 -2.2887 -0.1845  1.3472
  287MOL0     H39555   5.111   6.218   3.968 -0.8872  1.3864 -0.5040
  287MOL0     H39556   5.271   6.081   4.126 -3.7446 -0.9267  2.0829
  287MOL0     H39557   5.349   5.962   4.011  0.4455 -0.3946  1.8266
  287MOL0     H39558   5.173   5.804   4.095 -1.5929  1.3082 -1.4466
  287MOL0     H39559   5.318   5.832   4.191 -0.5057  1.5654 -0.4834
  287MOL0     H39560   5.211   5.954   4.364 -0.3588  0.8823 -0.2702
  287MOL0     H39561   5.069   5.990   4.247 -1.6918 -1.5053 -0.0680
  287MOL0     H39562   5.002   5.745   4.279  0.3020 -1.5971  1.0717
  287MOL0     H39563   5.149   5.719   4.381  0.0325  0.4629  0.6123
  287MOL0     H39564   4.935   5.580   4.439 -0.7978  0.2025 -0.2857
  287MOL0     H39565   4.819   5.371   4.679  0.2944 -0.2410 -0.6082
  287MOL0     H39566   4.802   5.387   4.508  2.0828 -1.2385  1.1180
  287MOL0     H39567   4.659   5.423   4.602 -1.0109  3.5808  0.6754
  287MOL0     H39568   4.549   5.813   5.130  0.1858 -0.8978  0.7469
  287MOL0     H39569   4.379   5.785   5.276 -0.3508  2.0133 -1.4992
  287MOL0     H39570   4.047   5.663   5.415 -0.8236 -2.2316 -0.8907
  287MOL0     H39571   4.204   5.736   5.421 -0.1893 -1.0746 -0.6010
  287MOL0     H39572   4.066   5.925   5.412 -0.2879  0.4031 -0.4976
  287MOL0     H39573   4.121   5.904   5.241 -0.4069  0.6836  0.3350
  287MOL0     H39574   3.895   5.810   5.189 -0.8795  1.5795 -0.8489
  287MOL0     H39575   3.893   5.975   5.268  0.1077  0.3606  2.5645
  287MOL0     H39576   3.850   5.887   5.480 -0.9096  1.5806 -0.8253
  287MOL0     H39577   3.845   5.721   5.422 -1.1918 -0.5833 -0.5653
  287MOL0     H39578   3.662   5.784   5.246 -0.7103 -0.1493  0.0228
  287MOL0     H39579   3.609   5.773   5.411  0.2533  0.7915  2.3857
  287MOL0     H39580   3.676   6.042   5.297 -2.0160  3.1172  1.1235
  287MOL0     H39581   3.608   6.007   5.452 -1.7243 -2.2612  0.0877
  287MOL0     H39582   3.397   5.915   5.353  0.4357 -2.1380 -1.6900
  287MOL0     H39583   3.454   5.945   5.188 -2.9691 -1.2538  0.0085
  287MOL0     H39584   3.417   6.146   5.400 -2.4753 -1.6631  0.5706
  287MOL0     H39585   3.318   6.126   5.255  0.4584 -0.6252 -1.4479
  287MOL0     H39586   4.150   5.560   5.000  0.9877 -1.1191 -0.2814
  287MOL0     H39587   4.337   5.579   4.838  0.5917 -1.3113  0.5105
  287MOL0     H39588   4.723   5.849   4.810  0.4743 -0.0611 -0.4191
  287MOL0     H39589   4.882   5.946   4.634  2.8045 -0.7406 -2.9690
  287MOL0     H39590   4.423   6.883   3.397  2.0683 -1.6644 -2.2728
  287MOL0     H39591   4.163   6.871   3.411  1.1044  1.5572 -0.4426
  287MOL0     H39592   3.890   7.082   3.397 -0.8006  0.3744  0.2127
  287MOL0     H39593   3.691   7.191   3.417  0.3953  0.4563 -2.2361
  287MOL0     H39594   3.474   7.246   3.524  0.0305 -1.8084 -0.1975
  287MOL0     H39595   3.513   7.285   3.364  0.7063 -0.4002  1.0013
  287MOL0     H39596   3.291   7.396   3.424 -3.5320 -0.8226  1.5258
  287MOL0     H39597   3.247   7.236   3.496 -0.2617  0.1389  0.8463
  287MOL0     H39598   3.283   7.303   3.200 -0.0612 -1.7204 -2.0176
  287MOL0     H39599   3.278   7.147   3.252 -2.1530  0.1228 -1.8357
  287MOL0     H39600   3.043   7.326   3.254 -1.3201  0.2224  0.3887
  287MOL0     H39601   3.054   7.191   3.371  1.6206  0.1869  0.7212
  287MOL0     H39602   2.992   6.999   2.990 -0.6095  0.0658 -0.5819
  287MOL0     H39603   3.467   6.848   3.339  0.1249  0.6219  0.8164
  287MOL0     H39604   3.699   6.623   3.409 -1.3446  1.3775  0.9510
  287MOL0     H39605   3.570   6.629   3.290  0.1748 -1.7484  1.6514
  287MOL0     H39606   3.740   6.628   3.244  2.0584  2.7647 -0.2636
  288MOL0     O39607   2.058   0.342   1.616  0.4560 -0.1021 -0.2600
  288MOL0     C39608   1.998   0.419   1.543 -0.0513  0.1556  0.6951
  288MOL0     O39609   2.044   0.481   1.427  0.2919 -0.8293  0.1553
  288MOL0     C39610   2.169   0.449   1.374 -0.3490 -0.0419 -0.9110
  288MOL0     C39611   2.200   0.315   1.353  0.1020 -0.8434 -0.1307
  288MOL0     C39612   2.328   0.273   1.312  0.1501  0.4669  0.5996
  288MOL0     C39613   2.421   0.370   1.291 -0.1629  0.5175 -0.7520
  288MOL0     O39614   2.549   0.331   1.265 -0.1468 -0.5921 -0.5826
  288MOL0     C39615   2.605   0.247   1.371 -0.9578 -0.7509  0.2493
  288MOL0     C39616   2.748   0.292   1.399 -0.2061 -1.0636 -0.6935
  288MOL0     C39617   2.738   0.412   1.488 -0.6914 -0.2518 -0.2268
  288MOL0     C39618   2.871   0.489   1.493  0.2611  0.4300 -0.1795
  288MOL0     C39619   2.937   0.465   1.628 -0.1044 -0.9778  1.3908
  288MOL0     C39620   3.084   0.508   1.630 -0.7128  0.3728 -0.1301
  288MOL0     C39621   3.126   0.653   1.617 -0.0367  0.4011  0.4808
  288MOL0     C39622   3.184   0.686   1.482  0.1906  0.5887 -0.1221
  288MOL0     N39623   3.250   0.819   1.478  0.3546  0.7826 -0.6118
  288MOL0     C39624   3.379   0.839   1.510 -0.5827  1.2123 -0.3032
  288MOL0     C39625   3.395   0.970   1.518  0.6878  0.3953 -0.0917
  288MOL0     C39626   3.532   1.026   1.525 -0.1140 -0.0960 -0.5083
  288MOL0     C39627   3.591   1.069   1.390 -0.7163 -0.5664 -0.0723
  288MOL0     C39628   3.692   1.186   1.399  0.2675  0.0704 -0.3395
  288MOL0     C39629   3.767   1.209   1.274  0.4910  0.3635  0.2468
  288MOL0     O39630   3.861   1.099   1.251 -0.9283 -0.3799  0.0008
  288MOL0     C39631   3.963   1.114   1.166 -0.2748 -0.1703 -0.7065
  288MOL0     C39632   3.973   1.220   1.069  0.3311  0.1493  0.0559
  288MOL0     C39633   4.080   1.237   0.981 -0.3074  0.2698 -0.2710
  288MOL0     C39634   4.075   1.348   0.881 -0.2859 -0.4106 -0.3726
  288MOL0     C39635   4.192   1.154   0.994 -0.0068 -0.3087 -0.4518
  288MOL0     C39636   4.318   1.163   0.931  0.5918  0.0087  0.8466
  288MOL0     O39637   4.324   1.186   0.797 -0.0204  1.1388  0.0603
  288MOL0     C39638   4.440   1.175   0.721  0.6123  0.1023 -0.3926
  288MOL0     C39639   4.571   1.139   0.765  0.2252 -0.2387 -0.0015
  288MOL0     C39640   4.686   1.132   0.684 -0.0822  0.1779  0.2901
  288MOL0     C39641   4.671   1.187   0.553 -0.0539  1.0341  0.5362
  288MOL0     O39642   4.771   1.190   0.455  0.7485 -0.1073 -0.1074
  288MOL0     C39643   4.886   1.105   0.475 -0.1545  0.3401  0.1455
  288MOL0     C39644   4.943   1.099   0.332 -1.0110  0.2597  0.6068
  288MOL0     C39645   5.069   1.018   0.317  1.2193 -0.3581  0.5652
  288MOL0     C39646   5.107   1.004   0.175 -0.0387 -1.0674  0.5390
  288MOL0     C39647   5.241   0.927   0.147  0.4760 -0.4391  0.7696
  288MOL0     C39648   5.262   0.922  -0.004 -1.0711 -1.1238  0.8391
  288MOL0     C39649   5.404   0.860  -0.034 -0.2667 -0.5147 -0.5768
  288MOL0     C39650   5.439   0.878  -0.178  0.5927 -0.1719 -0.1508
  288MOL0    Cl39651   5.450   0.710  -0.247 -0.2331  0.1386 -0.1657
  288MOL0     C39652   4.550   1.231   0.511  0.1074 -0.1265  0.2395
  288MOL0     C39653   4.431   1.219   0.590 -0.2261 -0.3801  0.3829
  288MOL0     O39654   4.409   1.192   1.006  0.2265 -0.0934 -0.3633
  288MOL0     C39655   4.172   1.043   1.079  0.1352  0.6128  0.1100
  288MOL0     C39656   4.073   1.030   1.178 -0.1059 -0.9755  0.3633
  288MOL0     N39657   3.269   1.032   1.496 -0.5847  0.4867  0.5069
  288MOL0     N39658   3.188   0.942   1.478  0.3831 -0.6228  0.0442
  288MOL0     C39659   2.393   0.508   1.324  0.2167 -0.7650 -0.9871
  288MOL0     C39660   2.257   0.549   1.358 -0.7502  0.2785  1.0349
  288MOL0     C39661   1.863   0.463   1.580  0.3654  0.2108 -0.3788
  288MOL0     C39662   1.756   0.434   1.489 -1.0987 -0.5217 -0.1914
  288MOL0     C39663   1.626   0.459   1.522 -0.1731  0.4366  0.4707
  288MOL0     C39664   1.590   0.528   1.637  0.0643 -0.2531  0.4003
  288MOL0     O39665   1.461   0.573   1.658  0.2184 -0.4287  0.1237
  288MOL0     C39666   1.437   0.713   1.648  0.4499  0.2871 -0.1523
  288MOL0     C39667   1.349   0.767   1.764 -0.3447  0.1947  0.0352
  288MOL0     C39668   1.418   0.734   1.903  0.4926  0.0992 -0.2121
  288MOL0     C39669   1.327   0.784   2.008 -1.1567 -0.4397 -0.2917
  288MOL0     C39670   1.377   0.763   2.145  0.2113  0.0152  0.2160
  288MOL0     C39671   1.408   0.725   2.254  0.3086 -0.2217 -0.3062
  288MOL0     C39672   1.693   0.551   1.730  0.9056  0.4444 -0.0628
  288MOL0     C39673   1.828   0.516   1.709  0.8209  0.2898  0.3864
  288MOL0     C39674   1.933   0.540   1.819 -0.8842  0.3314  0.0053
  288MOL0     H39675   2.118   0.245   1.368 -0.9070 -0.3119 -2.6488
  288MOL0     H39676   2.353   0.171   1.287  4.6401  0.8453  2.5167
  288MOL0     H39677   2.609   0.142   1.340 -3.7035 -0.3816 -1.7534
  288MOL0     H39678   2.543   0.254   1.461  1.8528  1.2086  2.2116
  288MOL0     H39679   2.791   0.207   1.453 -0.7055  0.1862  1.7620
  288MOL0     H39680   2.792   0.314   1.301 -1.0292  1.1756 -0.6016
  288MOL0     H39681   2.665   0.479   1.442 -0.1382 -0.4384 -1.4236
  288MOL0     H39682   2.706   0.382   1.588  1.6180 -2.3550 -0.0183
  288MOL0     H39683   2.933   0.456   1.409  0.9025  0.8719  0.1126
  288MOL0     H39684   2.840   0.593   1.486 -0.4261  0.5229  2.8859
  288MOL0     H39685   2.930   0.360   1.659 -0.3405 -1.3106  0.2492
  288MOL0     H39686   2.883   0.524   1.702  2.6413 -0.3652  3.0565
  288MOL0     H39687   3.117   0.485   1.731 -1.0229  2.3572  0.4520
  288MOL0     H39688   3.139   0.446   1.558  0.0009  3.4390 -2.4128
  288MOL0     H39689   3.208   0.670   1.688  2.1751 -1.8985 -1.3330
  288MOL0     H39690   3.040   0.718   1.637  0.7284  1.0078  1.9220
  288MOL0     H39691   3.260   0.616   1.446 -0.9909 -0.2758 -1.0341
  288MOL0     H39692   3.109   0.674   1.403  1.0957 -2.2927 -0.6771
  288MOL0     H39693   3.460   0.768   1.521 -0.2252  1.8747  1.7542
  288MOL0     H39694   3.600   0.957   1.575 -1.3194  1.2731  3.3114
  288MOL0     H39695   3.526   1.109   1.596  3.5413  1.4400 -1.7550
  288MOL0     H39696   3.636   0.983   1.339 -2.1701 -0.7920 -1.0456
  288MOL0     H39697   3.513   1.109   1.323 -0.6282 -0.0581  0.1222
  288MOL0     H39698   3.650   1.283   1.427  0.5819  0.2715 -0.5433
  288MOL0     H39699   3.768   1.178   1.477 -1.6534 -0.1161  1.6007
  288MOL0     H39700   3.696   1.216   1.191 -0.2439  1.1847  0.9172
  288MOL0     H39701   3.825   1.302   1.280 -0.7067  1.3692 -2.3953
  288MOL0     H39702   3.887   1.280   1.042 -0.4151 -0.4872  0.9500
  288MOL0     H39703   4.169   1.401   0.863 -0.1903 -1.3682 -3.2109
  288MOL0     H39704   4.004   1.424   0.914 -0.2941 -1.3858  2.0224
  288MOL0     H39705   4.035   1.315   0.784 -3.4059  1.2432  0.2293
  288MOL0     H39706   4.592   1.103   0.865 -3.7439  1.1435  1.5378
  288MOL0     H39707   4.772   1.074   0.718 -3.2476 -5.2118  0.3213
  288MOL0     H39708   4.956   1.157   0.541  2.1163 -1.6835 -0.5410
  288MOL0     H39709   4.867   1.001   0.502 -1.9501  0.3826 -0.8055
  288MOL0     H39710   4.868   1.042   0.277  0.4797 -1.8547  0.6661
  288MOL0     H39711   4.960   1.193   0.279 -1.2404 -0.0701 -0.0589
  288MOL0     H39712   5.070   0.919   0.363  1.3951 -0.4656  0.3341
  288MOL0     H39713   5.149   1.083   0.353 -0.0460  2.0226 -0.6751
  288MOL0     H39714   5.116   1.105   0.134  0.0067 -1.1184  0.4233
  288MOL0     H39715   5.023   0.965   0.117  1.4424  0.8460 -3.2021
  288MOL0     H39716   5.318   0.990   0.194  2.4447 -1.0163 -1.4568
  288MOL0     H39717   5.241   0.826   0.188 -1.3805 -0.6629  0.3037
  288MOL0     H39718   5.259   1.024  -0.042  1.8423  0.6271  4.5885
  288MOL0     H39719   5.183   0.866  -0.054 -0.8043 -0.4949 -0.3013
  288MOL0     H39720   5.397   0.753  -0.009 -1.4710 -0.1075  1.0223
  288MOL0     H39721   5.485   0.906   0.023 -0.7188  0.7316 -0.9116
  288MOL0     H39722   5.543   0.912  -0.176  0.9736 -1.3383  1.1768
  288MOL0     H39723   5.370   0.941  -0.234 -2.0940 -0.9758  2.0603
  288MOL0     H39724   4.542   1.262   0.407 -0.7078 -1.7021 -0.1918
  288MOL0     H39725   4.336   1.240   0.540  0.6794  2.3408 -0.3666
  288MOL0     H39726   4.256   0.975   1.089 -0.4885 -0.1373  0.3769
  288MOL0     H39727   4.061   0.952   1.252  0.4105 -2.0230 -0.6220
  288MOL0     H39728   2.473   0.581   1.334 -3.2847  3.1406  1.9755
  288MOL0     H39729   2.234   0.652   1.384  0.0976  1.0612 -1.0557
  288MOL0     H39730   1.787   0.395   1.393  0.4795 -0.5428  0.2948
  288MOL0     H39731   1.546   0.437   1.453 -1.0025  0.9188  1.2606
  288MOL0     H39732   1.530   0.771   1.652  1.9062 -1.8247 -1.0797
  288MOL0     H39733   1.382   0.734   1.556  1.3566  0.3905 -0.6924
  288MOL0     H39734   1.248   0.726   1.756 -1.3079  2.1049  1.4474
  288MOL0     H39735   1.334   0.876   1.760 -0.2354  0.2559  1.0849
  288MOL0     H39736   1.434   0.626   1.905  3.2351  0.3917 -1.6320
  288MOL0     H39737   1.522   0.769   1.907  0.7557  0.0737 -3.9156
  288MOL0     H39738   1.239   0.720   1.995 -0.4908 -1.0608 -2.1128
  288MOL0     H39739   1.300   0.889   1.994  0.0470 -0.0740  0.0931
  288MOL0     H39740   1.451   0.691   2.347 -0.7352  1.6258  0.9045
  288MOL0     H39741   1.670   0.602   1.822  2.0969  0.0033  0.4960
  288MOL0     H39742   2.032   0.572   1.786 -1.2938  0.7267 -0.8649
  288MOL0     H39743   1.901   0.615   1.892 -0.3760  1.1482 -0.6053
  288MOL0     H39744   1.959   0.444   1.866  3.5070  1.0078 -0.6580
  289MOL0     O39745   8.812   0.112  10.461 -0.4800  0.0487  0.1912
  289MOL0     C39746   8.784   0.057  10.355 -0.4027  0.0970  0.0720
  289MOL0     O39747   8.866   0.047  10.247 -0.0498 -0.4513  0.3737
  289MOL0     C39748   9.001   0.093  10.254  0.1365  0.2808  0.0688
  289MOL0     C39749   9.091   0.068  10.349  0.3005 -0.3452  0.6776
  289MOL0     C39750   9.220   0.137  10.349  0.9875  0.7872  0.2082
  289MOL0     C39751   9.255   0.224  10.243  0.3082  0.0166  0.3996
  289MOL0     O39752   9.388   0.266  10.247  0.4325 -0.0985 -0.1639
  289MOL0     C39753   9.444   0.368  10.161  0.5509 -0.6029 -0.0274
  289MOL0     C39754   9.595   0.362  10.185 -0.4846 -0.6138 -0.4315
  289MOL0     C39755   9.678   0.405  10.071  0.5897 -0.6071  0.4831
  289MOL0     C39756   9.820   0.400  10.100  0.7849 -0.7325 -0.3041
  289MOL0     C39757   9.897   0.448   9.982 -0.1310 -1.2170  0.0827
  289MOL0     C39758  10.052   0.443  10.008  0.6764  0.5159  0.5328
  289MOL0     C39759  10.138   0.510   9.910  0.6939 -0.0738  0.2625
  289MOL0     C39760  10.280   0.535   9.962  0.2714  0.2005 -0.3705
  289MOL0     N39761  10.365   0.600   9.855  0.6386 -0.8184 -0.4919
  289MOL0     C39762  10.391   0.736   9.856  1.0872 -0.2634 -0.0886
  289MOL0     C39763  10.468   0.753   9.743  0.2669 -0.1168 -0.2990
  289MOL0     C39764  10.531   0.886   9.700  0.1000 -0.7120 -0.1036
  289MOL0     C39765  10.414   0.978   9.654 -1.0148  0.0797 -0.2702
  289MOL0     C39766  10.461   1.121   9.665 -0.2628  0.4603  0.1152
  289MOL0     C39767  10.561   1.146   9.543  0.1277 -0.0421  0.0228
  289MOL0     O39768  10.699   1.136   9.589  0.0747 -0.2034  0.0115
  289MOL0     C39769  10.787   1.109   9.492 -0.1772  0.2745 -0.5891
  289MOL0     C39770  10.809   1.184   9.382  0.4581 -1.0900 -0.2262
  289MOL0     C39771  10.901   1.156   9.284  0.4385  0.7056  0.5247
  289MOL0     C39772  10.922   1.254   9.179 -0.6381 -0.8571  0.1925
  289MOL0     C39773  10.972   1.033   9.292 -0.3026 -0.4969 -1.0239
  289MOL0     C39774  11.067   0.980   9.187 -0.1191  0.1798  0.0567
  289MOL0     O39775  11.133   1.079   9.112  0.0935  0.2438  0.0763
  289MOL0     C39776  11.201   1.028   9.006  0.4963  0.5009  0.2503
  289MOL0     C39777  11.331   0.987   9.008  0.2438  1.1073 -1.1972
  289MOL0     C39778  11.396   0.963   8.895  0.3318 -0.7729  0.5292
  289MOL0     C39779  11.337   0.967   8.768 -0.0104  0.5179  0.8048
  289MOL0     O39780  11.420   0.913   8.675 -0.1362  0.1797  0.6393
  289MOL0     C39781  11.400   0.966   8.540 -0.3270  0.1711 -0.6671
  289MOL0     C39782  11.517   0.936   8.443  0.3096  0.2473  0.9393
  289MOL0     C39783  11.634   1.018   8.489  0.3639 -0.0157 -0.4591
  289MOL0     C39784  11.750   0.987   8.392  0.6352  0.7202 -0.3944
  289MOL0     C39785  11.866   1.086   8.391  0.4319 -0.0299  0.3525
  289MOL0     C39786  11.942   1.079   8.517 -0.1750  0.4096 -0.2539
  289MOL0     C39787  12.076   1.163   8.511  0.0742  0.2318  0.6674
  289MOL0     C39788  12.145   1.148   8.641 -0.1335 -0.3815  0.2022
  289MOL0    Cl39789  12.286   1.254   8.633  0.2028  0.0152  0.1653
  289MOL0     C39790  11.206   1.018   8.756  1.0069  0.4197 -0.3228
  289MOL0     C39791  11.140   1.044   8.880 -0.0336  0.1448  0.2207
  289MOL0     O39792  11.081   0.859   9.171  0.1076 -1.1534 -0.6431
  289MOL0     C39793  10.959   0.958   9.413  0.7710  0.4090 -0.2688
  289MOL0     C39794  10.874   1.003   9.512 -0.0054 -0.1793 -0.3569
  289MOL0     N39795  10.486   0.632   9.681  0.1737  0.5338  0.1030
  289MOL0     N39796  10.422   0.544   9.751 -0.5849 -0.7915  1.1591
  289MOL0     C39797   9.162   0.244  10.142 -0.5084 -0.2316  0.0552
  289MOL0     C39798   9.042   0.173  10.143 -0.0968  0.3891 -0.6091
  289MOL0     C39799   8.649  -0.008  10.348  0.6779 -0.5272  1.1826
  289MOL0     C39800   8.635  -0.132  10.285  0.8790  0.7116  0.2570
  289MOL0     C39801   8.517  -0.197  10.275 -0.1337  0.5742  0.2967
  289MOL0     C39802   8.399  -0.151  10.327  0.4071 -0.4394  0.2017
  289MOL0     O39803   8.283  -0.214  10.321  1.0858  0.3659 -0.0475
  289MOL0     C39804   8.277  -0.344  10.251  0.8670  0.3541 -0.1102
  289MOL0     C39805   8.126  -0.385  10.227  0.2834 -0.8921 -0.6444
  289MOL0     C39806   8.029  -0.342  10.344  0.1292 -0.1185  0.0934
  289MOL0     C39807   8.072  -0.376  10.479 -0.1942 -0.4768  0.6431
  289MOL0     C39808   8.136  -0.506  10.485 -1.6260  0.0211  0.4821
  289MOL0     C39809   8.182  -0.621  10.477 -0.0993 -0.1208 -0.3729
  289MOL0     C39810   8.407  -0.021  10.381 -0.1724  0.3329 -0.7683
  289MOL0     C39811   8.530   0.049  10.399 -0.3805  0.3175  0.3255
  289MOL0     C39812   8.537   0.188  10.469 -0.5676  1.0126  1.0218
  289MOL0     H39813   9.060   0.004  10.431 -0.5031 -0.5903  0.1952
  289MOL0     H39814   9.289   0.118  10.430 -0.1949 -0.1301  1.0317
  289MOL0     H39815   9.399   0.464  10.185 -2.8280 -2.2836  0.9593
  289MOL0     H39816   9.417   0.355  10.055  0.7857  1.9295 -0.4695
  289MOL0     H39817   9.617   0.433  10.265  0.1480  2.2041 -2.9243
  289MOL0     H39818   9.611   0.261  10.222 -0.6928 -0.2600  0.6570
  289MOL0     H39819   9.645   0.331   9.998 -2.7659 -1.7996  2.9927
  289MOL0     H39820   9.662   0.507  10.035 -3.4890 -0.2047  2.9244
  289MOL0     H39821   9.844   0.456  10.191  0.7557  0.1572 -0.8446
  289MOL0     H39822   9.848   0.295  10.116 -0.1750 -0.9910 -0.2518
  289MOL0     H39823   9.871   0.553   9.965 -2.3155 -1.8209 -0.6078
  289MOL0     H39824   9.859   0.396   9.894 -4.6171  2.0342 -0.2689
  289MOL0     H39825  10.074   0.488  10.105  0.3872 -0.8826  1.2758
  289MOL0     H39826  10.088   0.340  10.019 -2.4000 -1.0159 -1.9388
  289MOL0     H39827  10.090   0.605   9.884  2.2487  2.1501  4.5577
  289MOL0     H39828  10.155   0.448   9.822  0.6254 -1.4835  1.2093
  289MOL0     H39829  10.274   0.604  10.047  1.3262  0.8789 -0.8163
  289MOL0     H39830  10.322   0.438   9.987 -0.2351  0.2566  0.7412
  289MOL0     H39831  10.345   0.813   9.918 -2.0015 -1.5956 -0.5397
  289MOL0     H39832  10.591   0.867   9.611 -1.3926  2.3829 -1.9394
  289MOL0     H39833  10.596   0.929   9.777  0.5669 -0.2980 -0.7148
  289MOL0     H39834  10.390   0.943   9.553  2.2882 -0.2543 -1.0485
  289MOL0     H39835  10.338   0.972   9.733  1.4906  1.1003  2.4163
  289MOL0     H39836  10.373   1.182   9.643 -0.5831  0.5462  1.5363
  289MOL0     H39837  10.494   1.153   9.764  0.6738  0.4352 -0.1789
  289MOL0     H39838  10.538   1.086   9.455 -2.9777 -1.2663  1.4976
  289MOL0     H39839  10.543   1.247   9.504  1.4361  1.5207  3.0898
  289MOL0     H39840  10.769   1.285   9.378 -0.7561 -1.4929  1.0937
  289MOL0     H39841  10.921   1.211   9.079  2.1020  1.2032 -0.8458
  289MOL0     H39842  11.013   1.314   9.182 -0.8786 -0.4224 -0.7726
  289MOL0     H39843  10.842   1.328   9.184  1.4755  1.4901  1.4451
  289MOL0     H39844  11.382   0.981   9.103 -0.8512  1.2239 -0.5760
  289MOL0     H39845  11.502   0.940   8.892  0.6366  0.2479 -3.6100
  289MOL0     H39846  11.308   0.929   8.495 -0.8247  0.7212 -0.1149
  289MOL0     H39847  11.392   1.075   8.549 -1.2046  0.3632 -3.0700
  289MOL0     H39848  11.538   0.829   8.441  0.6410  0.2564 -3.0157
  289MOL0     H39849  11.488   0.967   8.342 -2.2835  0.5709  1.7078
  289MOL0     H39850  11.655   0.991   8.593  0.6513  0.6687 -0.3290
  289MOL0     H39851  11.608   1.125   8.490  1.4373  0.2696 -1.3238
  289MOL0     H39852  11.716   0.982   8.288  1.4439 -0.3363 -0.6165
  289MOL0     H39853  11.784   0.886   8.418 -1.2404  0.3195  0.7136
  289MOL0     H39854  11.923   1.056   8.303 -1.3505  0.2918 -0.9699
  289MOL0     H39855  11.816   1.183   8.382 -2.0759 -1.1208  1.5829
  289MOL0     H39856  11.981   0.978   8.535  2.4570  1.3375 -0.3311
  289MOL0     H39857  11.884   1.116   8.601 -2.1773  1.1948 -1.9014
  289MOL0     H39858  12.053   1.267   8.484 -0.6328 -0.1072 -0.0747
  289MOL0     H39859  12.140   1.119   8.435 -0.2138 -0.9734  1.1119
  289MOL0     H39860  12.174   1.044   8.662  0.1199 -0.4694 -0.5810
  289MOL0     H39861  12.082   1.191   8.719 -0.7508 -2.6508  1.0538
  289MOL0     H39862  11.162   1.039   8.659  1.6734  0.8535 -0.5408
  289MOL0     H39863  11.033   1.066   8.882 -0.2727 -0.9819  0.2256
  289MOL0     H39864  11.008   0.864   9.437  2.0012  1.2127  0.4956
  289MOL0     H39865  10.875   0.945   9.604  0.2235  1.8037  0.9699
  289MOL0     H39866   9.190   0.317  10.067 -0.3035  0.5040  0.8289
  289MOL0     H39867   8.970   0.184  10.063  0.4046  0.8342 -0.9998
  289MOL0     H39868   8.732  -0.166  10.250  1.4312  0.8244  1.5983
  289MOL0     H39869   8.516  -0.300  10.242 -2.1174  0.1665  1.5024
  289MOL0     H39870   8.321  -0.346  10.150 -4.1354 -1.9689 -2.6060
  289MOL0     H39871   8.333  -0.422  10.304  3.9996  0.0683 -3.4214
  289MOL0     H39872   8.123  -0.490  10.194  2.1552 -0.7327 -1.4442
  289MOL0     H39873   8.092  -0.333  10.137 -2.0145 -0.5299  0.3639
  289MOL0     H39874   8.008  -0.235  10.344 -0.8215 -0.2289 -2.5123
  289MOL0     H39875   7.934  -0.395  10.336 -0.2999  0.0703  3.0641
  289MOL0     H39876   7.991  -0.377  10.552 -0.5804  0.7811  0.2620
  289MOL0     H39877   8.141  -0.299  10.516 -1.6433  0.8735  0.6514
  289MOL0     H39878   8.214  -0.722  10.488  2.6730  0.6301 -0.7529
  289MOL0     H39879   8.321   0.037  10.414 -0.5833 -1.3553  1.3467
  289MOL0     H39880   8.593   0.181  10.562 -1.3023  1.6993  1.5238
  289MOL0     H39881   8.592   0.253  10.400  2.0594  0.2870  2.3205
  289MOL0     H39882   8.440   0.224  10.503 -0.4795  2.1132  0.1709
  290MOL0     O39883   8.742   2.788   9.119 -0.3306 -0.2726  0.4081
  290MOL0     C39884   8.651   2.758   9.048  0.3879  0.6025  0.1351
  290MOL0     O39885   8.584   2.847   8.968  0.1595 -0.0350 -0.8036
  290MOL0     C39886   8.615   2.975   8.974 -0.1172 -1.3847  1.0289
  290MOL0     C39887   8.715   3.023   8.885  0.6846  0.1241 -0.5023
  290MOL0     C39888   8.747   3.164   8.876  1.0555 -0.0619  0.1652
  290MOL0     C39889   8.668   3.254   8.955  0.2639 -1.0001 -0.3764
  290MOL0     O39890   8.692   3.388   8.956 -0.5642 -0.7977 -0.6542
  290MOL0     C39891   8.828   3.424   8.924 -0.5480  0.6020  0.2785
  290MOL0     C39892   8.850   3.568   8.941  0.1271  0.2770  0.5610
  290MOL0     C39893   8.842   3.621   9.080  0.0409 -0.2720  0.7773
  290MOL0     C39894   8.879   3.772   9.088 -0.5169  0.4568  0.4618
  290MOL0     C39895   8.892   3.821   9.228 -0.6244  0.1820  0.0797
  290MOL0     C39896   9.022   3.769   9.291 -0.0003  0.8671 -0.0452
  290MOL0     C39897   9.047   3.842   9.419 -0.3395  0.6139 -0.0744
  290MOL0     C39898   9.185   3.802   9.487 -0.3394 -0.6582 -0.2137
  290MOL0     N39899   9.215   3.874   9.609 -0.1700  0.2997  0.0144
  290MOL0     C39900   9.260   4.004   9.602 -0.6242  0.1534  0.1707
  290MOL0     C39901   9.228   4.050   9.723 -0.4091 -0.4598 -0.1332
  290MOL0     C39902   9.239   4.197   9.764 -0.0992 -0.6830 -0.2117
  290MOL0     C39903   9.277   4.224   9.912  1.1492 -0.0144  0.2115
  290MOL0     C39904   9.430   4.217   9.945  0.4529 -0.0067  0.0494
  290MOL0     C39905   9.488   4.080   9.937  0.6690 -0.5380  0.0795
  290MOL0     O39906   9.539   4.064   9.799 -0.3903  0.0463 -0.3421
  290MOL0     C39907   9.556   3.937   9.748 -1.4915 -0.5450  0.1002
  290MOL0     C39908   9.569   3.950   9.605 -0.0546  0.3004 -0.4317
  290MOL0     C39909   9.579   3.833   9.529 -0.0098  0.5519 -0.7003
  290MOL0     C39910   9.587   3.836   9.376  0.0871 -0.0272  0.1805
  290MOL0     C39911   9.586   3.707   9.595 -0.1586  0.6502  0.5746
  290MOL0     C39912   9.602   3.575   9.521  0.1946  0.7457 -0.0510
  290MOL0     O39913   9.506   3.537   9.429  0.6566 -0.8554  0.1301
  290MOL0     C39914   9.528   3.433   9.346 -0.1807 -0.0436  0.3395
  290MOL0     C39915   9.601   3.462   9.232  0.5631  0.0932 -1.1967
  290MOL0     C39916   9.634   3.365   9.138  0.5763  0.3093  0.1185
  290MOL0     C39917   9.596   3.235   9.163 -0.9941  0.2590  0.1500
  290MOL0     O39918   9.621   3.125   9.080  0.0526  0.3570  0.5503
  290MOL0     C39919   9.716   3.157   8.976  0.4047  1.0409 -0.1908
  290MOL0     C39920   9.757   3.016   8.915 -0.4541 -0.4095 -0.0338
  290MOL0     C39921   9.845   3.037   8.789  0.3244  0.2774  0.8243
  290MOL0     C39922   9.887   2.905   8.739 -0.1047  0.3743 -0.4833
  290MOL0     C39923   9.916   2.907   8.596 -0.5014  0.2521  0.2485
  290MOL0     C39924  10.071   2.896   8.566 -0.0888  0.2185 -0.4925
  290MOL0     C39925  10.118   2.864   8.426 -0.4715 -0.6657  0.2094
  290MOL0     C39926  10.270   2.858   8.414  0.7053 -0.8399 -1.4132
  290MOL0    Cl39927  10.315   2.714   8.512  0.1239  0.2883 -0.1505
  290MOL0     C39928   9.526   3.194   9.277  0.2523 -0.0182  0.2914
  290MOL0     C39929   9.489   3.294   9.371 -0.7645  0.2455 -0.4608
  290MOL0     O39930   9.690   3.501   9.562 -0.6223 -0.0755  0.1115
  290MOL0     C39931   9.582   3.699   9.733 -0.0649  0.7978 -0.2914
  290MOL0     C39932   9.570   3.810   9.817 -0.1839  0.1412 -0.5448
  290MOL0     N39933   9.170   3.952   9.797 -0.7353  0.2578 -0.3334
  290MOL0     N39934   9.154   3.849   9.726 -0.0858  0.0002  0.5816
  290MOL0     C39935   8.566   3.202   9.038 -0.4635 -0.1784 -0.2196
  290MOL0     C39936   8.542   3.065   9.057  0.6634 -0.0674 -0.4410
  290MOL0     C39937   8.633   2.612   9.019  0.3744  0.5560 -0.4234
  290MOL0     C39938   8.541   2.573   8.919 -0.1380 -0.3177 -0.1740
  290MOL0     C39939   8.528   2.438   8.878 -0.5302 -0.4264 -0.1419
  290MOL0     C39940   8.605   2.337   8.940 -0.4681  0.6825 -0.1563
  290MOL0     O39941   8.582   2.213   8.886 -0.2557 -0.0390  0.9834
  290MOL0     C39942   8.630   2.097   8.952  0.6861 -0.1498 -0.2831
  290MOL0     C39943   8.584   1.977   8.862  0.4921 -1.5305 -0.2079
  290MOL0     C39944   8.621   1.845   8.926  0.0818  0.5237 -0.1835
  290MOL0     C39945   8.589   1.730   8.838 -0.0532  0.3995  0.5284
  290MOL0     C39946   8.653   1.759   8.712 -0.8266  0.3648  0.1019
  290MOL0     C39947   8.724   1.769   8.609 -0.1829 -0.7439 -0.4486
  290MOL0     C39948   8.687   2.365   9.051  0.0183 -0.0241 -0.1431
  290MOL0     C39949   8.711   2.506   9.080 -0.0451  0.4660 -0.2913
  290MOL0     C39950   8.818   2.523   9.183  0.2756 -0.3996  0.5291
  290MOL0     H39951   8.775   2.954   8.826  1.0972 -1.1116  1.3017
  290MOL0     H39952   8.817   3.195   8.800  0.6442 -2.5301 -1.3195
  290MOL0     H39953   8.847   3.402   8.819  3.1226  3.3970  0.1290
  290MOL0     H39954   8.907   3.370   8.977 -2.3646  0.5294  3.1496
  290MOL0     H39955   8.953   3.584   8.909  0.2576 -0.4689  0.5862
  290MOL0     H39956   8.785   3.631   8.880  0.6835 -0.0912 -0.4422
  290MOL0     H39957   8.741   3.615   9.122 -0.7240  1.0252 -0.7655
  290MOL0     H39958   8.899   3.557   9.149 -0.0453  1.6000  2.7005
  290MOL0     H39959   8.974   3.789   9.036 -0.3473  0.0151  0.6273
  290MOL0     H39960   8.802   3.830   9.036  0.1911  0.2190 -0.9261
  290MOL0     H39961   8.801   3.790   9.279 -2.9088  2.2188 -2.4906
  290MOL0     H39962   8.892   3.930   9.218 -2.6810  0.0562 -2.1907
  290MOL0     H39963   9.020   3.661   9.305  0.9186  0.5255 -2.2562
  290MOL0     H39964   9.108   3.794   9.228  0.2645  0.0542 -0.0132
  290MOL0     H39965   8.969   3.811   9.489  1.8027  1.2745  2.7929
  290MOL0     H39966   9.050   3.951   9.406  3.2976  0.7225  0.5491
  290MOL0     H39967   9.189   3.698   9.520 -1.3009 -0.4043  0.7582
  290MOL0     H39968   9.267   3.817   9.416 -0.9574 -2.6808 -1.4551
  290MOL0     H39969   9.306   4.064   9.525  0.2957  1.6599  1.8047
  290MOL0     H39970   9.157   4.260   9.728  2.1095  1.9414 -1.0026
  290MOL0     H39971   9.316   4.245   9.704 -0.5126  0.5360  0.2049
  290MOL0     H39972   9.237   4.322   9.938  3.0628  1.2663 -1.4025
  290MOL0     H39973   9.216   4.161   9.977 -0.3698 -0.7619 -1.8511
  290MOL0     H39974   9.493   4.288   9.891  1.1617 -1.0145 -0.4933
  290MOL0     H39975   9.442   4.244  10.051  2.4712  1.3840 -0.4686
  290MOL0     H39976   9.569   4.064  10.007 -1.0078 -2.0282  1.7897
  290MOL0     H39977   9.409   4.009   9.964 -1.1649  2.2983  2.9578
  290MOL0     H39978   9.557   4.050   9.565 -2.2491 -0.7779 -2.7460
  290MOL0     H39979   9.502   3.788   9.328  0.5457 -0.0761 -0.6030
  290MOL0     H39980   9.676   3.778   9.348 -0.9157 -1.4671 -0.1633
  290MOL0     H39981   9.604   3.937   9.339  0.5314 -0.3069 -0.3930
  290MOL0     H39982   9.629   3.566   9.217  1.7669  0.2138  1.3364
  290MOL0     H39983   9.679   3.394   9.044  2.0474 -2.7038 -0.2282
  290MOL0     H39984   9.661   3.204   8.893  2.4742  0.0011 -2.2681
  290MOL0     H39985   9.798   3.219   9.012  0.1037  0.9432  0.6807
  290MOL0     H39986   9.812   2.957   8.990  1.2337 -0.8997 -1.5772
  290MOL0     H39987   9.669   2.962   8.880 -0.0922 -0.7206 -0.4788
  290MOL0     H39988   9.936   3.096   8.797  1.4337 -0.9865 -1.4335
  290MOL0     H39989   9.783   3.086   8.713  0.4363 -2.4541 -1.1706
  290MOL0     H39990   9.810   2.832   8.764 -2.0644  2.5591  0.2235
  290MOL0     H39991   9.976   2.871   8.794 -1.6883 -0.1285  1.9178
  290MOL0     H39992   9.869   2.826   8.539  3.1329 -0.9006 -1.3942
  290MOL0     H39993   9.883   3.001   8.551 -3.2213 -1.5177 -1.8117
  290MOL0     H39994  10.111   2.806   8.615 -0.2242 -0.4388 -1.5526
  290MOL0     H39995  10.118   2.984   8.610 -0.8574  0.8285 -0.8926
  290MOL0     H39996  10.057   2.932   8.367 -2.0751 -1.8758  0.4011
  290MOL0     H39997  10.080   2.769   8.386 -1.8914  0.5381 -1.4317
  290MOL0     H39998  10.315   2.950   8.451 -0.4408 -0.0932 -1.7925
  290MOL0     H39999  10.296   2.859   8.308  1.4204  1.1536 -1.2506
  290MOL0     H40000   9.497   3.093   9.304  1.3981 -0.7308 -1.0459
  290MOL0     H40001   9.435   3.263   9.460 -1.1174  2.4642  0.1665
  290MOL0     H40002   9.591   3.599   9.775  3.1248  1.5428  1.1016
  290MOL0     H40003   9.564   3.822   9.925  0.6663 -0.5486 -0.4120
  290MOL0     H40004   8.509   3.271   9.100 -1.2556 -2.0918  1.2786
  290MOL0     H40005   8.464   3.037   9.127  0.2023 -0.0296 -0.9312
  290MOL0     H40006   8.479   2.640   8.860  2.4176  2.3438 -0.0708
  290MOL0     H40007   8.463   2.412   8.795  0.8021  1.1425 -1.7214
  290MOL0     H40008   8.739   2.103   8.941  0.7937 -0.6747  0.4356
  290MOL0     H40009   8.604   2.095   9.058  0.2561  0.6173 -0.3713
  290MOL0     H40010   8.631   1.991   8.764  0.1833 -0.6235 -0.2378
  290MOL0     H40011   8.476   1.994   8.852  0.7089 -0.5820 -1.0645
  290MOL0     H40012   8.726   1.852   8.958 -0.2445 -0.0458  1.1176
  290MOL0     H40013   8.560   1.837   9.017  0.6969 -0.9502  0.1398
  290MOL0     H40014   8.483   1.720   8.812 -0.2373  0.1383  1.3442
  290MOL0     H40015   8.629   1.642   8.889  1.1349 -0.0327 -1.0521
  290MOL0     H40016   8.783   1.772   8.519  2.7024 -1.1336  1.2873
  290MOL0     H40017   8.749   2.283   9.086 -2.1711 -1.5613  0.3639
  290MOL0     H40018   8.764   2.544   9.276 -2.1834 -1.4172 -0.5963
  290MOL0     H40019   8.866   2.426   9.174  0.5660 -0.2775  0.7478
  290MOL0     H40020   8.889   2.601   9.152 -0.3226  0.1234  0.4485
  291MOL0     O40021   3.391   5.293   4.626 -0.5125 -0.8770  0.0630
  291MOL0     C40022   3.455   5.241   4.528 -0.1703  0.7306 -0.4516
  291MOL0     O40023   3.560   5.148   4.544  0.2240 -0.0640 -0.3690
  291MOL0     C40024   3.609   5.107   4.667 -0.0346  0.6797  0.3331
  291MOL0     C40025   3.653   4.969   4.673  0.6461 -0.7308 -0.3573
  291MOL0     C40026   3.684   4.901   4.797 -1.1670  0.2722 -0.3227
  291MOL0     C40027   3.663   4.970   4.917  0.0449 -0.5696  0.8497
  291MOL0     O40028   3.659   4.899   5.031 -0.2179  0.8261 -0.0082
  291MOL0     C40029   3.739   4.956   5.135 -0.9880 -0.5113  0.2008
  291MOL0     C40030   3.874   4.883   5.123  0.8582  0.5163  1.0926
  291MOL0     C40031   3.955   4.903   5.251 -0.2350 -0.1590  0.1371
  291MOL0     C40032   4.106   4.896   5.212  0.4591 -0.1043  0.0837
  291MOL0     C40033   4.215   4.887   5.319  0.4297 -0.1903 -0.3593
  291MOL0     C40034   4.355   4.883   5.276 -0.6311  0.6245 -0.3872
  291MOL0     C40035   4.446   4.843   5.400  0.4682  0.5234  0.4195
  291MOL0     C40036   4.593   4.848   5.339 -0.0957 -0.5479 -0.3677
  291MOL0     N40037   4.684   4.781   5.429 -0.2537 -0.6644 -0.3065
  291MOL0     C40038   4.716   4.649   5.424  0.6732 -0.1046 -0.1120
  291MOL0     C40039   4.792   4.620   5.536 -0.7782 -0.8912 -0.4011
  291MOL0     C40040   4.858   4.496   5.580 -0.0175 -0.5680  0.4593
  291MOL0     C40041   5.003   4.526   5.633 -0.1831  0.2401  0.1270
  291MOL0     C40042   5.091   4.417   5.596 -0.5930 -0.3943 -0.4268
  291MOL0     C40043   5.229   4.444   5.646  0.1762  0.2261  0.1687
  291MOL0     O40044   5.311   4.334   5.615 -1.0321  0.3330  0.3395
  291MOL0     C40045   5.447   4.331   5.638 -0.1427 -0.1090 -0.8128
  291MOL0     C40046   5.510   4.432   5.717  0.1802 -0.2606  0.2612
  291MOL0     C40047   5.651   4.436   5.734  0.3933  0.7325  0.8207
  291MOL0     C40048   5.724   4.540   5.822  0.5367  0.6800  0.5856
  291MOL0     C40049   5.729   4.337   5.671 -0.9534 -1.0356 -0.4595
  291MOL0     C40050   5.874   4.343   5.672  0.6622 -0.3690  0.5085
  291MOL0     O40051   5.936   4.231   5.722  0.1581 -0.2676 -0.0213
  291MOL0     C40052   6.069   4.216   5.705  0.3501 -0.3996  0.8051
  291MOL0     C40053   6.157   4.285   5.785 -0.5711  0.0281 -0.2441
  291MOL0     C40054   6.297   4.253   5.775 -0.5581 -0.3502  0.0376
  291MOL0     C40055   6.346   4.158   5.684  0.7745  0.3024  0.1260
  291MOL0     O40056   6.481   4.130   5.666  0.2003 -0.4724 -0.2369
  291MOL0     C40057   6.557   4.241   5.618  0.4858  0.4301 -0.3278
  291MOL0     C40058   6.656   4.294   5.726  0.6330  0.4011  0.3963
  291MOL0     C40059   6.790   4.349   5.676  0.1927 -0.1944  0.6852
  291MOL0     C40060   6.778   4.433   5.548 -0.4487 -0.0050  0.4733
  291MOL0     C40061   6.896   4.514   5.517  0.2025 -0.0726  0.5000
  291MOL0     C40062   7.013   4.417   5.511 -0.2576 -0.1407 -0.0089
  291MOL0     C40063   7.150   4.467   5.458 -0.2173 -0.9796 -0.2916
  291MOL0     C40064   7.273   4.429   5.537  0.1468 -0.4372 -0.3468
  291MOL0    Cl40065   7.243   4.465   5.715 -0.1229  0.0552 -0.2440
  291MOL0     C40066   6.247   4.102   5.597  0.0813  0.5869  0.1642
  291MOL0     C40067   6.114   4.126   5.606  0.2973 -0.4580  0.4517
  291MOL0     O40068   5.938   4.443   5.631 -0.3794 -0.0654  0.0366
  291MOL0     C40069   5.667   4.237   5.607 -0.2605 -0.1044 -0.3366
  291MOL0     C40070   5.526   4.228   5.598 -0.2940  0.2362 -0.2309
  291MOL0     N40071   4.798   4.743   5.600  0.4063  0.0325 -0.9008
  291MOL0     N40072   4.744   4.837   5.538  0.6967  0.0022  0.4241
  291MOL0     C40073   3.626   5.107   4.914  0.2530  0.5237  0.1395
  291MOL0     C40074   3.594   5.173   4.791 -0.6380  0.4209 -0.4020
  291MOL0     C40075   3.408   5.259   4.380  0.5850  0.1345  0.0315
  291MOL0     C40076   3.299   5.347   4.356  0.0498 -0.0954  0.3304
  291MOL0     C40077   3.244   5.371   4.225 -0.7734 -0.4122  1.0220
  291MOL0     C40078   3.309   5.311   4.114  1.1925 -0.4971 -0.0955
  291MOL0     O40079   3.278   5.324   3.984 -0.5429 -0.0889 -0.1356
  291MOL0     C40080   3.150   5.381   3.949 -0.1583  0.3336 -0.7393
  291MOL0     C40081   3.147   5.411   3.803 -0.7044  0.3771 -0.5934
  291MOL0     C40082   3.007   5.455   3.765  0.1294 -0.5945 -0.5778
  291MOL0     C40083   3.006   5.510   3.623  0.9758 -0.2703 -0.2392
  291MOL0     C40084   2.869   5.517   3.565 -0.3918  0.3574  0.7434
  291MOL0     C40085   2.755   5.503   3.526  0.2167  0.6321  0.5212
  291MOL0     C40086   3.418   5.228   4.141 -0.2331  0.0769  0.4442
  291MOL0     C40087   3.473   5.204   4.266  0.2997  0.0336 -0.3950
  291MOL0     C40088   3.602   5.142   4.268  0.5124  0.6890  0.1725
  291MOL0     H40089   3.684   4.933   4.575  3.1142  0.6568 -0.1843
  291MOL0     H40090   3.730   4.803   4.801 -0.6539  0.5257  0.0624
  291MOL0     H40091   3.697   4.919   5.229  4.2791 -1.4671  2.5382
  291MOL0     H40092   3.756   5.064   5.129 -2.0151 -0.3098  0.7705
  291MOL0     H40093   3.847   4.777   5.123 -0.7770  0.9033  1.8930
  291MOL0     H40094   3.916   4.921   5.030 -2.0416  2.3582  0.4053
  291MOL0     H40095   3.936   4.999   5.298 -0.9950 -0.3507  0.2295
  291MOL0     H40096   3.934   4.830   5.329 -3.7683  0.9472  0.4142
  291MOL0     H40097   4.124   4.806   5.152 -0.0761 -1.8720  2.4279
  291MOL0     H40098   4.139   4.980   5.151  2.0983 -0.8516 -0.1032
  291MOL0     H40099   4.190   4.805   5.387  1.0377  0.6574  0.9216
  291MOL0     H40100   4.199   4.974   5.384 -2.0842  0.3167 -1.5447
  291MOL0     H40101   4.360   4.805   5.198 -2.1898  1.5098 -1.4263
  291MOL0     H40102   4.386   4.979   5.236  1.3852 -0.2892 -1.1459
  291MOL0     H40103   4.410   4.744   5.431  0.0301  0.4831 -0.2004
  291MOL0     H40104   4.429   4.917   5.480  0.5720  1.6430 -0.5719
  291MOL0     H40105   4.599   4.797   5.242  1.5621  1.6914 -1.5272
  291MOL0     H40106   4.619   4.953   5.327  0.1312 -0.2810  2.0534
  291MOL0     H40107   4.679   4.578   5.351 -0.4827  0.6176 -0.2524
  291MOL0     H40108   4.862   4.431   5.492 -0.0149 -2.3454  1.7215
  291MOL0     H40109   4.796   4.438   5.649  1.7730 -0.7767  1.9557
  291MOL0     H40110   5.031   4.616   5.577 -0.6763  1.6856  2.0950
  291MOL0     H40111   4.999   4.555   5.738  1.5706 -1.3202  0.6752
  291MOL0     H40112   5.051   4.325   5.638  4.1375 -2.5406 -0.0577
  291MOL0     H40113   5.090   4.408   5.487  1.6429 -1.9459 -0.3924
  291MOL0     H40114   5.260   4.536   5.598  1.4867  0.7851  1.9895
  291MOL0     H40115   5.243   4.465   5.752  1.2955 -3.0180  0.7956
  291MOL0     H40116   5.455   4.521   5.746 -0.0257  1.0231 -3.5680
  291MOL0     H40117   5.778   4.617   5.767 -1.3864  0.6611 -1.4637
  291MOL0     H40118   5.795   4.480   5.878 -0.8789 -1.2197  0.4472
  291MOL0     H40119   5.658   4.594   5.892 -2.2561 -0.7176 -0.7872
  291MOL0     H40120   6.126   4.357   5.860  1.2232 -0.4751  1.0575
  291MOL0     H40121   6.359   4.316   5.839 -3.3205  0.0232  2.5639
  291MOL0     H40122   6.629   4.221   5.538 -1.5333 -0.3629 -2.0410
  291MOL0     H40123   6.488   4.321   5.591 -0.6347 -1.0749 -2.1694
  291MOL0     H40124   6.609   4.376   5.782  1.3946 -0.6973  2.8075
  291MOL0     H40125   6.665   4.206   5.791  0.7873 -0.3508 -0.6250
  291MOL0     H40126   6.840   4.253   5.660  0.1430 -0.1422  0.2199
  291MOL0     H40127   6.837   4.404   5.758 -0.6944  4.5030 -1.5721
  291MOL0     H40128   6.695   4.503   5.562 -0.0437  0.5721  0.0422
  291MOL0     H40129   6.771   4.372   5.458  3.0222  1.2538 -0.8001
  291MOL0     H40130   6.875   4.552   5.416 -0.8700 -0.6153  0.5031
  291MOL0     H40131   6.904   4.598   5.586  0.1542  0.1486  0.2413
  291MOL0     H40132   6.983   4.336   5.443 -0.8291  0.9104 -1.0568
  291MOL0     H40133   7.028   4.373   5.610  2.4323  1.7445  0.5187
  291MOL0     H40134   7.150   4.577   5.454  0.3284 -0.8611  1.8347
  291MOL0     H40135   7.171   4.429   5.357  0.8483 -1.0975 -0.0383
  291MOL0     H40136   7.365   4.469   5.495  0.5640 -0.3586  0.6299
  291MOL0     H40137   7.280   4.320   5.535  0.3519 -0.4166 -0.7868
  291MOL0     H40138   6.276   4.022   5.529 -2.8955 -1.2494  0.8750
  291MOL0     H40139   6.042   4.076   5.542  1.2341 -1.2137 -0.0374
  291MOL0     H40140   5.723   4.162   5.552  1.0637  0.6759 -0.1045
  291MOL0     H40141   5.473   4.137   5.572  1.3296 -1.1177  0.9685
  291MOL0     H40142   3.602   5.151   5.010 -1.4514  3.1877 -1.3794
  291MOL0     H40143   3.555   5.274   4.792  1.0331  1.1060 -1.2156
  291MOL0     H40144   3.256   5.401   4.440  0.6808  2.7577 -1.0274
  291MOL0     H40145   3.166   5.447   4.220 -1.1785 -0.8897 -1.0018
  291MOL0     H40146   3.072   5.310   3.980  0.9643 -0.1488  1.0986
  291MOL0     H40147   3.131   5.476   4.000  1.5740 -0.3957  1.3891
  291MOL0     H40148   3.182   5.325   3.744  1.8858  0.2097  1.0140
  291MOL0     H40149   3.215   5.494   3.786 -1.0462  0.7821  0.0012
  291MOL0     H40150   2.935   5.375   3.785 -0.3559  0.2856  1.4005
  291MOL0     H40151   2.979   5.536   3.833 -2.3295 -2.7666  1.2160
  291MOL0     H40152   3.071   5.463   3.549 -1.4601 -1.4678 -1.7529
  291MOL0     H40153   3.050   5.610   3.625  0.3194  0.1376 -2.8052
  291MOL0     H40154   2.651   5.500   3.501  0.4532 -1.8649 -0.5236
  291MOL0     H40155   3.471   5.197   4.051  3.5064  1.0726  2.1305
  291MOL0     H40156   3.641   5.124   4.167  0.4987 -0.3930  0.3452
  291MOL0     H40157   3.673   5.192   4.335  0.3206  0.4715  0.5445
  291MOL0     H40158   3.579   5.049   4.321  0.1718  1.4349  1.3847
  292MOL0     O40159   4.608   6.623   2.144 -0.0159  0.7054 -0.2184
  292MOL0     C40160   4.626   6.614   2.026  0.7822  0.1151  0.2795
  292MOL0     O40161   4.732   6.556   1.972 -0.1305 -0.0667 -0.1631
  292MOL0     C40162   4.852   6.543   2.047 -0.1390  0.3240 -0.9926
  292MOL0     C40163   4.967   6.555   1.969  0.4813 -0.2460 -0.1484
  292MOL0     C40164   5.096   6.535   2.020  0.2519  0.0228  0.7122
  292MOL0     C40165   5.119   6.525   2.153  0.7883  0.6936 -0.1984
  292MOL0     O40166   5.244   6.520   2.193 -0.7712  0.6239 -0.8378
  292MOL0     C40167   5.321   6.406   2.155 -0.1028  0.3295 -0.3749
  292MOL0     C40168   5.466   6.428   2.206  0.1536  0.2534 -0.2933
  292MOL0     C40169   5.548   6.322   2.129 -0.6752 -0.3597  0.1872
  292MOL0     C40170   5.695   6.321   2.173 -0.1100  0.2513 -0.6632
  292MOL0     C40171   5.756   6.467   2.156  0.6620  0.9406  0.2902
  292MOL0     C40172   5.909   6.444   2.170 -0.1156 -0.5429  0.2871
  292MOL0     C40173   5.973   6.575   2.202 -0.1171  0.4530  0.2442
  292MOL0     C40174   6.124   6.569   2.235  0.4588 -0.3685  0.3501
  292MOL0     N40175   6.196   6.493   2.133  0.1492  0.2903  0.1465
  292MOL0     C40176   6.202   6.509   2.002 -0.3707 -0.0428  0.4865
  292MOL0     C40177   6.264   6.401   1.951  0.1636 -0.1204  0.3320
  292MOL0     C40178   6.305   6.378   1.804 -0.3678 -0.8671  0.8442
  292MOL0     C40179   6.408   6.475   1.749 -0.1178 -0.2087  0.4090
  292MOL0     C40180   6.538   6.438   1.832  0.3673  0.0774 -0.1890
  292MOL0     C40181   6.666   6.484   1.758  0.1441 -0.5443  0.1747
  292MOL0     O40182   6.773   6.400   1.795  0.1946 -0.3889 -0.4039
  292MOL0     C40183   6.895   6.446   1.755  0.0186 -0.3855 -0.6173
  292MOL0     C40184   6.949   6.546   1.826 -0.8891  0.4512 -0.6003
  292MOL0     C40185   7.079   6.597   1.797  0.1191 -0.2059  0.2504
  292MOL0     C40186   7.125   6.716   1.874 -0.9509 -0.0978 -0.5372
  292MOL0     C40187   7.161   6.524   1.702 -0.5395  0.2360  0.0907
  292MOL0     C40188   7.305   6.557   1.655 -0.2917 -0.2525 -0.4851
  292MOL0     O40189   7.373   6.478   1.573 -0.6941 -0.1499  0.4615
  292MOL0     C40190   7.510   6.485   1.584  0.3133 -0.0327 -0.2885
  292MOL0     C40191   7.585   6.595   1.533  1.2344  0.5608 -0.8332
  292MOL0     C40192   7.721   6.608   1.544 -0.7743 -0.5444 -0.2473
  292MOL0     C40193   7.797   6.519   1.621  0.8627  0.6846  0.4396
  292MOL0     O40194   7.930   6.523   1.636 -0.2580  0.0708  0.6019
  292MOL0     C40195   8.015   6.597   1.539  0.9649 -1.1363 -0.0392
  292MOL0     C40196   8.146   6.631   1.606 -0.1242 -0.3644 -0.4350
  292MOL0     C40197   8.229   6.510   1.656  0.6769  0.3742  0.6871
  292MOL0     C40198   8.369   6.553   1.699  0.0810 -0.3435  0.7420
  292MOL0     C40199   8.445   6.436   1.751  0.3451  0.6727  0.0776
  292MOL0     C40200   8.593   6.479   1.787  0.9700  0.0423 -0.4822
  292MOL0     C40201   8.679   6.367   1.837 -0.4777 -0.4387  0.6492
  292MOL0     C40202   8.821   6.424   1.870  0.7526 -0.3889  0.1235
  292MOL0    Cl40203   8.926   6.287   1.909  0.4240 -0.0684 -0.5360
  292MOL0     C40204   7.724   6.411   1.672 -0.7280 -0.1433 -0.6507
  292MOL0     C40205   7.589   6.396   1.656 -0.4644 -0.1869  0.5152
  292MOL0     O40206   7.354   6.653   1.709  0.0425 -0.3293 -0.3923
  292MOL0     C40207   7.106   6.411   1.641 -0.1382  0.5822 -0.4458
  292MOL0     C40208   6.976   6.383   1.660 -0.5372  0.2591 -0.8199
  292MOL0     N40209   6.297   6.323   2.060 -0.2510  0.2430  0.9978
  292MOL0     N40210   6.269   6.388   2.168  0.9505 -0.5811 -0.5316
  292MOL0     C40211   5.009   6.525   2.236  1.4875  0.2270  0.4139
  292MOL0     C40212   4.879   6.530   2.184 -0.1752  0.1722  0.2429
  292MOL0     C40213   4.523   6.665   1.925 -1.1466 -0.0134  0.2553
  292MOL0     C40214   4.574   6.670   1.789  0.0140 -0.2591 -0.7054
  292MOL0     C40215   4.493   6.708   1.679 -0.5407  0.2247 -0.0059
  292MOL0     C40216   4.369   6.760   1.704  0.1633  0.6064 -0.5149
  292MOL0     O40217   4.297   6.815   1.604 -0.0522  0.5904  0.0295
  292MOL0     C40218   4.165   6.867   1.611  0.0827  0.0552  0.6141
  292MOL0     C40219   4.125   6.933   1.485 -0.4353 -0.5236  0.5464
  292MOL0     C40220   4.004   7.026   1.501  0.4614  0.1997  0.6056
  292MOL0     C40221   3.962   7.083   1.370 -0.4003  0.5496  0.0887
  292MOL0     C40222   3.848   7.165   1.385 -0.1222 -0.7118 -0.3580
  292MOL0     C40223   3.764   7.252   1.404 -0.2133 -0.1210 -0.0439
  292MOL0     C40224   4.312   6.769   1.832 -0.3947  0.0825 -0.0874
  292MOL0     C40225   4.386   6.721   1.937 -0.8140 -0.1093 -0.5069
  292MOL0     C40226   4.320   6.730   2.072  0.9944  0.2405  0.4222
  292MOL0     H40227   4.962   6.578   1.863  0.1210  2.1347  0.3351
  292MOL0     H40228   5.181   6.539   1.953 -0.8197 -1.2083 -0.8051
  292MOL0     H40229   5.313   6.396   2.047 -3.8872 -1.8616 -0.0874
  292MOL0     H40230   5.295   6.309   2.199 -1.4314 -0.0265 -1.8735
  292MOL0     H40231   5.500   6.526   2.171 -0.7964  0.2886 -1.1597
  292MOL0     H40232   5.459   6.417   2.315 -2.1357 -2.5666 -0.6018
  292MOL0     H40233   5.509   6.220   2.129  2.8537 -1.9518 -2.3267
  292MOL0     H40234   5.557   6.353   2.024  0.7218  1.5199  0.7918
  292MOL0     H40235   5.704   6.283   2.275 -0.6519  0.9905 -0.3327
  292MOL0     H40236   5.748   6.254   2.104 -0.5437 -1.9538  1.0198
  292MOL0     H40237   5.719   6.520   2.244 -1.4118  1.4895 -0.8277
  292MOL0     H40238   5.728   6.520   2.065 -1.5647  1.0347  0.9737
  292MOL0     H40239   5.938   6.373   2.248 -1.9983 -0.7251  0.8684
  292MOL0     H40240   5.939   6.401   2.074  0.3167  2.1021 -0.8609
  292MOL0     H40241   5.935   6.615   2.297 -3.3259 -1.4183 -0.1158
  292MOL0     H40242   5.957   6.644   2.120 -0.1803  1.3898  1.0315
  292MOL0     H40243   6.174   6.665   2.251  3.2595 -1.3485 -1.6907
  292MOL0     H40244   6.126   6.514   2.330  0.9393 -1.2184 -0.1412
  292MOL0     H40245   6.170   6.592   1.940  3.1416  0.5365 -0.7833
  292MOL0     H40246   6.222   6.396   1.736  0.1857  0.6689  0.5294
  292MOL0     H40247   6.345   6.276   1.798  0.2822 -0.5035 -2.4407
  292MOL0     H40248   6.419   6.459   1.642  1.3103 -0.1447  0.5270
  292MOL0     H40249   6.391   6.582   1.763  1.4104  0.6159 -2.9870
  292MOL0     H40250   6.541   6.492   1.927  0.7859 -0.1256 -0.0869
  292MOL0     H40251   6.553   6.331   1.850  0.8323  0.2698  0.6176
  292MOL0     H40252   6.656   6.476   1.649 -0.6749  1.2031  0.0882
  292MOL0     H40253   6.690   6.589   1.776  0.5979 -0.4120 -1.0970
  292MOL0     H40254   6.890   6.578   1.911 -2.0858  0.0470 -1.2527
  292MOL0     H40255   7.229   6.714   1.907 -0.6635  0.1820 -1.4049
  292MOL0     H40256   7.069   6.722   1.968 -0.6972 -0.0997 -0.3877
  292MOL0     H40257   7.104   6.806   1.815  2.1992  3.8579  3.6700
  292MOL0     H40258   7.531   6.669   1.475 -0.9928  0.1697  0.6003
  292MOL0     H40259   7.765   6.700   1.509 -4.5139  1.6384  0.2589
  292MOL0     H40260   8.040   6.534   1.453  0.0830 -1.5014 -0.0394
  292MOL0     H40261   7.970   6.692   1.510  5.0766  1.1653  0.3344
  292MOL0     H40262   8.205   6.686   1.533  0.9899  1.8874  1.9888
  292MOL0     H40263   8.123   6.691   1.695  0.2720  1.1599 -1.3382
  292MOL0     H40264   8.252   6.440   1.575 -0.4661  0.3427  0.3668
  292MOL0     H40265   8.176   6.462   1.739  0.2586  2.6507  1.8183
  292MOL0     H40266   8.362   6.623   1.782 -0.0138 -1.0380  1.3281
  292MOL0     H40267   8.428   6.600   1.619 -0.7222 -1.4515 -0.5383
  292MOL0     H40268   8.395   6.397   1.840  1.1013  1.1502  0.7326
  292MOL0     H40269   8.449   6.351   1.682  3.0436  1.1184 -0.4286
  292MOL0     H40270   8.600   6.555   1.866 -2.3692 -0.5270  0.5386
  292MOL0     H40271   8.634   6.521   1.695 -1.6087  1.8203 -0.9391
  292MOL0     H40272   8.685   6.282   1.768  0.4617  0.8885 -0.9669
  292MOL0     H40273   8.633   6.344   1.934 -3.1004  1.9084  0.1174
  292MOL0     H40274   8.810   6.496   1.951  1.6656  1.6659 -1.4712
  292MOL0     H40275   8.867   6.482   1.789 -0.1466  2.5436  1.5727
  292MOL0     H40276   7.790   6.352   1.734  1.0933  2.3746 -0.0416
  292MOL0     H40277   7.540   6.314   1.707 -0.9409 -0.4394 -0.3351
  292MOL0     H40278   7.163   6.358   1.566 -1.1893  0.1259 -0.9492
  292MOL0     H40279   6.939   6.291   1.616  0.2691 -0.2558 -0.4467
  292MOL0     H40280   5.030   6.517   2.343  4.6542  1.3199 -0.0010
  292MOL0     H40281   4.807   6.539   2.264 -0.9803  1.7402 -0.6083
  292MOL0     H40282   4.674   6.632   1.768  0.3090 -1.5729  2.4929
  292MOL0     H40283   4.520   6.695   1.575 -0.1619 -2.6971  0.3914
  292MOL0     H40284   4.098   6.788   1.646  0.0072 -1.1796 -2.0557
  292MOL0     H40285   4.163   6.940   1.692  1.9611 -0.2964  1.0124
  292MOL0     H40286   4.095   6.866   1.404 -1.8748 -0.7010  1.2043
  292MOL0     H40287   4.218   6.980   1.452  0.1427 -2.2031 -0.3736
  292MOL0     H40288   3.920   6.961   1.527 -0.1310  0.2671 -1.0223
  292MOL0     H40289   4.033   7.103   1.573 -1.1010 -1.0830  2.6942
  292MOL0     H40290   3.948   7.009   1.291  2.5389  1.5492 -1.5193
  292MOL0     H40291   4.046   7.146   1.339  0.7491 -0.6958  0.5813
  292MOL0     H40292   3.692   7.332   1.414 -1.8011 -1.4277 -0.5682
  292MOL0     H40293   4.221   6.824   1.853 -0.5377  0.3096 -1.2706
  292MOL0     H40294   4.339   6.827   2.118  0.6524  1.5156 -1.9751
  292MOL0     H40295   4.211   6.721   2.065  0.8632  0.2713  2.0997
  292MOL0     H40296   4.356   6.665   2.152  2.8606  0.1433 -0.4525
  293MOL0     O40297   1.428   1.873  10.489 -0.0302 -0.1156  0.1683
  293MOL0     C40298   1.305   1.851  10.486 -0.0043 -0.2710  0.0476
  293MOL0     O40299   1.249   1.736  10.509  0.2167  0.1852 -0.2291
  293MOL0     C40300   1.333   1.625  10.535 -0.3524 -0.6164  0.2371
  293MOL0     C40301   1.446   1.625  10.619  0.0631  0.0651 -0.8332
  293MOL0     C40302   1.523   1.509  10.654 -0.3926 -0.1730  0.3539
  293MOL0     C40303   1.496   1.388  10.596 -1.2473  0.4943 -0.8250
  293MOL0     O40304   1.578   1.275  10.611 -1.0126  0.0578  0.0242
  293MOL0     C40305   1.613   1.238  10.746  0.2447  0.5084 -0.1478
  293MOL0     C40306   1.547   1.104  10.796  0.2325  0.7401 -0.6840
  293MOL0     C40307   1.396   1.110  10.805  0.4449  0.5183 -0.2900
  293MOL0     C40308   1.355   1.038  10.933 -0.3183  0.6496  0.1486
  293MOL0     C40309   1.200   1.038  10.969 -0.2956  0.5267 -0.1321
  293MOL0     C40310   1.189   0.992  11.117 -0.2823 -0.2931 -0.1407
  293MOL0     C40311   1.249   0.853  11.151 -0.8200  0.2043  0.5994
  293MOL0     C40312   1.173   0.739  11.064 -0.8104 -0.8749 -0.2322
  293MOL0     N40313   1.038   0.708  11.115 -0.2457  0.6726 -0.3690
  293MOL0     C40314   0.997   0.719  11.245  0.7478 -0.5800 -0.7726
  293MOL0     C40315   0.860   0.728  11.249 -0.3125  0.8310 -0.3224
  293MOL0     C40316   0.773   0.721  11.373 -0.5844  0.5230  0.2560
  293MOL0     C40317   0.801   0.594  11.456 -0.0399 -0.3370 -0.2923
  293MOL0     C40318   0.749   0.462  11.392  0.8250 -0.4437 -0.2418
  293MOL0     C40319   0.776   0.348  11.494  0.8317  1.1142  0.7279
  293MOL0     O40320   0.896   0.358  11.559 -0.6390  0.2278 -0.3117
  293MOL0     C40321   0.945   0.264  11.651  0.8037  0.9132 -0.6172
  293MOL0     C40322   1.023   0.312  11.747  0.6517  0.1112  0.2049
  293MOL0     C40323   1.078   0.232  11.849 -0.1951 -0.2498 -0.2912
  293MOL0     C40324   1.160   0.303  11.957 -0.7023 -0.9164 -0.5401
  293MOL0     C40325   1.063   0.089  11.843 -0.5563  0.3293  0.0536
  293MOL0     C40326   1.113  -0.004  11.955 -0.2098 -0.6130 -0.2658
  293MOL0     O40327   1.059  -0.127  11.944  0.2535  0.1332  0.1887
  293MOL0     C40328   1.108  -0.225  12.025  0.3306  0.0069  0.3383
  293MOL0     C40329   1.031  -0.267  12.133  0.5332  0.2263  0.4274
  293MOL0     C40330   1.084  -0.364  12.219 -0.4713  0.1677  1.1177
  293MOL0     C40331   1.214  -0.420  12.199 -1.2033 -0.4490 -0.1381
  293MOL0     O40332   1.282  -0.513  12.279  0.9213 -0.6528  0.1800
  293MOL0     C40333   1.231  -0.531  12.412  0.2246  0.0179  0.6485
  293MOL0     C40334   1.337  -0.531  12.518 -0.3560  0.3353 -0.0771
  293MOL0     C40335   1.398  -0.674  12.525  0.5188 -0.4816  0.2847
  293MOL0     C40336   1.539  -0.659  12.584  0.1156  0.6761  0.3532
  293MOL0     C40337   1.595  -0.802  12.616 -0.4793  0.2772  0.6358
  293MOL0     C40338   1.747  -0.821  12.649  0.7254 -0.4429  0.6709
  293MOL0     C40339   1.788  -0.733  12.768  0.1514 -0.3430 -0.1862
  293MOL0     C40340   1.925  -0.775  12.814 -0.4476 -0.3627 -0.0421
  293MOL0    Cl40341   2.051  -0.708  12.700 -0.0209 -0.0004  0.1480
  293MOL0     C40342   1.289  -0.366  12.092  0.5459 -0.2378  0.1505
  293MOL0     C40343   1.239  -0.265  12.015  0.2060  0.7638 -0.4143
  293MOL0     O40344   1.194   0.029  12.037 -0.2518  0.2133 -0.2845
  293MOL0     C40345   0.978   0.038  11.749 -0.1990 -0.5265 -0.5275
  293MOL0     C40346   0.915   0.127  11.648 -1.0127  1.1251  0.1092
  293MOL0     N40347   0.820   0.756  11.125 -0.3577 -0.2896  0.3220
  293MOL0     N40348   0.919   0.734  11.048 -0.1397  0.2692  0.3473
  293MOL0     C40349   1.396   1.375  10.506 -0.5277  0.6054 -0.4739
  293MOL0     C40350   1.306   1.487  10.487  0.0241 -0.3343 -0.1952
  293MOL0     C40351   1.221   1.975  10.468  0.3049  0.7779 -0.6398
  293MOL0     C40352   1.275   2.107  10.456 -0.0170  0.1344  0.3517
  293MOL0     C40353   1.195   2.217  10.445 -0.6159  0.1024  1.4104
  293MOL0     C40354   1.063   2.210  10.421  0.6781 -0.2839 -0.1387
  293MOL0     O40355   1.002   2.331  10.388  0.1422  0.2283  0.3885
  293MOL0     C40356   0.866   2.334  10.335 -1.2119 -0.6645 -0.3464
  293MOL0     C40357   0.768   2.373  10.448 -0.9176  0.3684 -0.4956
  293MOL0     C40358   0.626   2.358  10.389 -0.7459 -0.3078 -0.9452
  293MOL0     C40359   0.572   2.491  10.312 -0.4463 -0.0080  0.4060
  293MOL0     C40360   0.571   2.611  10.389  0.1379 -0.5752 -0.3976
  293MOL0     C40361   0.556   2.711  10.447  0.5930 -0.4640  0.3158
  293MOL0     C40362   0.999   2.083  10.429 -0.2370 -0.5477 -0.3218
  293MOL0     C40363   1.076   1.971  10.463 -0.0953  0.7136 -0.4864
  293MOL0     C40364   0.988   1.848  10.489 -0.3774 -0.3676  0.2661
  293MOL0     H40365   1.486   1.723  10.644  1.4268  0.0627 -2.7975
  293MOL0     H40366   1.616   1.518  10.709 -1.0446 -1.6355  1.7914
  293MOL0     H40367   1.583   1.316  10.817  1.3805  1.1739 -0.3605
  293MOL0     H40368   1.721   1.237  10.761  0.5554  1.3832 -2.0042
  293MOL0     H40369   1.572   1.031  10.719  2.5961  1.6974 -0.9283
  293MOL0     H40370   1.592   1.083  10.893  0.0055  2.3405 -0.2061
  293MOL0     H40371   1.350   1.208  10.789  0.7395  0.7203  0.0700
  293MOL0     H40372   1.350   1.045  10.730 -4.0374  1.7008  1.1020
  293MOL0     H40373   1.388   0.934  10.923  2.6217  1.5109 -0.2377
  293MOL0     H40374   1.409   1.091  11.012 -0.7443  1.5300 -0.1308
  293MOL0     H40375   1.148   0.974  10.897  1.8953 -1.4842 -0.0327
  293MOL0     H40376   1.146   1.133  10.957 -1.4285  0.1725  1.7021
  293MOL0     H40377   1.233   1.070  11.179  1.1486 -1.8190  0.8464
  293MOL0     H40378   1.083   0.994  11.146 -0.0191  1.3373  0.8250
  293MOL0     H40379   1.244   0.827  11.258 -0.1564 -0.2468  0.5210
  293MOL0     H40380   1.353   0.861  11.120 -0.5699 -1.3130  0.9435
  293MOL0     H40381   1.170   0.770  10.959  1.0698  1.9019  0.4384
  293MOL0     H40382   1.245   0.657  11.069  2.3646  1.6774 -0.6180
  293MOL0     H40383   1.059   0.714  11.334  0.8164 -0.3522 -0.8058
  293MOL0     H40384   0.672   0.717  11.333  0.1508  0.0852 -1.6697
  293MOL0     H40385   0.783   0.814  11.430  0.1124  0.8632 -0.3976
  293MOL0     H40386   0.909   0.582  11.470  0.0128  0.1320 -0.2974
  293MOL0     H40387   0.748   0.608  11.550  2.2499 -0.0764  1.0237
  293MOL0     H40388   0.644   0.465  11.362  0.0404  2.7514  2.2791
  293MOL0     H40389   0.804   0.445  11.299 -1.4815 -2.0744 -1.4210
  293MOL0     H40390   0.689   0.342  11.561 -1.1312 -0.3922 -1.7451
  293MOL0     H40391   0.781   0.258  11.433 -1.8573  0.8225  0.7969
  293MOL0     H40392   1.035   0.420  11.749 -1.8634  0.4744 -1.0152
  293MOL0     H40393   1.267   0.293  11.937 -0.5526  0.6781 -0.6592
  293MOL0     H40394   1.129   0.277  12.059  0.6699  0.7974  0.3789
  293MOL0     H40395   1.140   0.410  11.954 -0.3808 -0.8756 -1.3266
  293MOL0     H40396   0.935  -0.224  12.158 -0.1086 -0.7212 -0.2981
  293MOL0     H40397   1.022  -0.405  12.298  1.9479 -1.7216  2.1351
  293MOL0     H40398   1.177  -0.443  12.447  0.4143  0.4383 -0.1023
  293MOL0     H40399   1.151  -0.606  12.412 -1.0722  1.2608 -2.2842
  293MOL0     H40400   1.408  -0.450  12.497  0.4810 -0.0245  1.2605
  293MOL0     H40401   1.290  -0.511  12.614  0.8215 -1.0335  0.8117
  293MOL0     H40402   1.397  -0.713  12.423  1.1586  0.8361 -0.2566
  293MOL0     H40403   1.329  -0.735  12.584 -2.2142  0.4711 -1.7020
  293MOL0     H40404   1.531  -0.594  12.671 -0.2208 -0.1202  0.9300
  293MOL0     H40405   1.603  -0.608  12.511 -0.6799  1.3480  0.1235
  293MOL0     H40406   1.532  -0.852  12.690 -1.1772  0.2443  0.0359
  293MOL0     H40407   1.580  -0.865  12.527  1.8533  0.5298  0.0026
  293MOL0     H40408   1.812  -0.794  12.565  1.7031 -2.7317  0.6101
  293MOL0     H40409   1.764  -0.929  12.659 -0.7460 -0.9484 -1.4362
  293MOL0     H40410   1.719  -0.748  12.851  0.1384  1.9495  0.2852
  293MOL0     H40411   1.790  -0.626  12.743  2.3387 -0.2455  0.2070
  293MOL0     H40412   1.931  -0.884  12.812  1.1538 -0.3440  1.7276
  293MOL0     H40413   1.953  -0.741  12.914 -0.6018 -2.4570  0.7588
  293MOL0     H40414   1.391  -0.402  12.078  0.4883  0.4310 -2.5008
  293MOL0     H40415   1.298  -0.225  11.933  0.0315 -1.3637 -1.6512
  293MOL0     H40416   0.960  -0.069  11.745 -1.5710 -0.2921 -1.7739
  293MOL0     H40417   0.860   0.098  11.560  2.6852  0.5274 -2.2220
  293MOL0     H40418   1.367   1.278  10.466 -0.9942  0.6426 -0.2308
  293MOL0     H40419   1.213   1.465  10.434  0.0938 -3.2891  0.7233
  293MOL0     H40420   1.381   2.124  10.470  0.1107  0.6207 -0.9946
  293MOL0     H40421   1.238   2.314  10.424 -2.3282  0.9737  1.6711
  293MOL0     H40422   0.860   2.418  10.265  3.1179  0.4047  0.2812
  293MOL0     H40423   0.829   2.242  10.289  0.9695 -2.4307  1.1995
  293MOL0     H40424   0.796   2.468  10.495 -1.5294  0.3861 -0.1483
  293MOL0     H40425   0.782   2.299  10.528  1.2044  1.8331  0.5730
  293MOL0     H40426   0.636   2.274  10.319  2.3024  1.9196 -3.4851
  293MOL0     H40427   0.562   2.339  10.476 -0.5509 -1.3017 -1.0096
  293MOL0     H40428   0.473   2.475  10.268 -0.4904  1.9220 -0.2658
  293MOL0     H40429   0.630   2.506  10.220  0.2748 -1.7044  0.5418
  293MOL0     H40430   0.548   2.807  10.494 -2.6590  0.2573 -1.4429
  293MOL0     H40431   0.890   2.078  10.429 -0.5030  2.7470 -1.3074
  293MOL0     H40432   0.975   1.778  10.406 -2.0692 -0.0063  0.1864
  293MOL0     H40433   1.026   1.784  10.570 -1.4620  0.7429  1.7135
  293MOL0     H40434   0.887   1.880  10.517 -1.8751 -4.7817  0.8028
  294MOL0     O40435   2.771  10.085  10.227 -0.2904 -0.6017 -0.5766
  294MOL0     C40436   2.688  10.108  10.312  0.6058  0.2296 -0.1704
  294MOL0     O40437   2.712  10.176  10.433  0.2793  0.5902  0.9390
  294MOL0     C40438   2.834  10.236  10.434  0.4392 -0.2887  0.2203
  294MOL0     C40439   2.946  10.169  10.473  0.1310 -0.2214  0.6105
  294MOL0     C40440   3.074  10.231  10.472 -0.1052  0.0525  0.1086
  294MOL0     C40441   3.090  10.360  10.419 -0.1340 -1.2873 -0.6816
  294MOL0     O40442   3.211  10.429  10.401  0.1062 -0.3933 -0.4009
  294MOL0     C40443   3.342  10.357  10.422 -0.8010  0.0042  0.3038
  294MOL0     C40444   3.460  10.429  10.348  0.6586 -0.8802  0.6606
  294MOL0     C40445   3.447  10.589  10.371 -1.0057  0.1957 -0.3181
  294MOL0     C40446   3.567  10.670  10.289 -0.6544  0.3422 -0.1011
  294MOL0     C40447   3.510  10.814  10.275 -0.5693 -0.7432  0.5575
  294MOL0     C40448   3.616  10.914  10.224  0.0487  0.0835 -0.1643
  294MOL0     C40449   3.668  10.874  10.083  0.3052 -0.0025 -0.9091
  294MOL0     C40450   3.772  10.979  10.041 -0.0237  0.6031 -0.4344
  294MOL0     N40451   3.723  11.120  10.059  0.2526 -0.1632  0.3273
  294MOL0     C40452   3.622  11.187   9.990  0.1994 -0.2755 -0.4582
  294MOL0     C40453   3.637  11.317  10.037 -0.2604 -0.2940  0.4096
  294MOL0     C40454   3.558  11.429  10.006  0.7829  0.5152  0.5743
  294MOL0     C40455   3.524  11.508  10.122  0.1534 -0.1892 -0.1287
  294MOL0     C40456   3.453  11.639  10.076  0.0598  0.3612 -0.3705
  294MOL0     C40457   3.360  11.693  10.181  0.7221 -0.5540 -0.1492
  294MOL0     O40458   3.252  11.597  10.200 -0.0023  0.1757  0.4168
  294MOL0     C40459   3.164  11.562  10.099 -0.0486 -0.0798 -0.2974
  294MOL0     C40460   3.078  11.449  10.128  0.0873 -0.3394  0.8720
  294MOL0     C40461   2.965  11.430  10.046  0.4049  0.3014 -0.8101
  294MOL0     C40462   2.873  11.323  10.091 -0.6811 -0.1428 -1.0078
  294MOL0     C40463   2.948  11.512   9.935 -0.2137  0.1817  0.3635
  294MOL0     C40464   2.834  11.485   9.840 -0.1132 -0.5791 -1.4986
  294MOL0     O40465   2.755  11.370   9.855  0.2067  0.2283  0.4504
  294MOL0     C40466   2.635  11.362   9.785  0.0315  0.4247 -0.7104
  294MOL0     C40467   2.632  11.360   9.643 -0.1757 -0.7539 -0.1408
  294MOL0     C40468   2.514  11.354   9.578 -0.5397 -0.3158 -0.3012
  294MOL0     C40469   2.393  11.340   9.651 -0.7195 -0.6137  0.6621
  294MOL0     O40470   2.275  11.332   9.572  0.2815 -0.2509 -0.0503
  294MOL0     C40471   2.145  11.277   9.618 -0.9663 -0.6276 -0.3674
  294MOL0     C40472   2.164  11.135   9.646 -0.1645 -0.2028 -0.5657
  294MOL0     C40473   2.076  11.077   9.772  0.2457 -0.5462  0.3642
  294MOL0     C40474   2.079  10.926   9.762 -0.5443  0.0750  0.4754
  294MOL0     C40475   1.995  10.856   9.871 -0.9610  0.0890 -0.5657
  294MOL0     C40476   1.845  10.886   9.838 -0.1787  0.2907 -0.3298
  294MOL0     C40477   1.761  10.778   9.898  0.4541  0.4303  1.0445
  294MOL0     C40478   1.770  10.751  10.042  0.8095 -0.4262  0.2294
  294MOL0    Cl40479   1.719  10.900  10.122 -0.1764  0.6360  0.4855
  294MOL0     C40480   2.397  11.329   9.792 -0.3204 -0.3634  0.6170
  294MOL0     C40481   2.524  11.338   9.859  0.8734  0.3945  0.3885
  294MOL0     O40482   2.827  11.554   9.742  0.0810 -0.4149 -0.4753
  294MOL0     C40483   3.036  11.615   9.910 -0.0688 -0.5309 -0.4249
  294MOL0     C40484   3.138  11.645   9.991 -0.4621  0.1738  0.1048
  294MOL0     N40485   3.749  11.321  10.122  0.3467 -0.2264  0.8101
  294MOL0     N40486   3.786  11.201  10.145  0.6088  0.7179  0.3151
  294MOL0     C40487   2.973  10.423  10.375  1.0562 -0.1181 -0.2922
  294MOL0     C40488   2.846  10.362  10.384 -0.5962 -1.2555 -0.8862
  294MOL0     C40489   2.543  10.073  10.287 -0.2322 -0.9177  0.5429
  294MOL0     C40490   2.448  10.171  10.331  0.4563 -0.9032  0.5695
  294MOL0     C40491   2.314  10.144  10.319 -0.9764  0.1017 -0.0449
  294MOL0     C40492   2.257  10.037  10.237  0.4598  0.2693 -1.1848
  294MOL0     O40493   2.121  10.027  10.208  0.4448  0.0299  0.3240
  294MOL0     C40494   2.093   9.977  10.074  0.7858 -0.7617  0.0945
  294MOL0     C40495   1.943   9.982  10.069  0.2164 -0.5587  0.3381
  294MOL0     C40496   1.885   9.925   9.931  0.4259 -0.3755  0.3580
  294MOL0     C40497   1.725   9.943   9.933  0.2570 -0.3432  0.3003
  294MOL0     C40498   1.634   9.896   9.813  0.6787 -0.3065  0.3823
  294MOL0     C40499   1.563   9.866   9.725  0.3169  0.3101  0.0640
  294MOL0     C40500   2.354   9.951  10.192 -0.0893 -0.6618 -0.5792
  294MOL0     C40501   2.495   9.958  10.214  0.3909 -0.6677 -0.8289
  294MOL0     C40502   2.587   9.857  10.156  0.4524  0.6709  1.0419
  294MOL0     H40503   2.932  10.062  10.485 -0.8329 -0.3550 -1.3935
  294MOL0     H40504   3.160  10.174  10.506 -1.9003 -0.9482  3.4993
  294MOL0     H40505   3.336  10.252  10.393  0.0165  0.1875 -0.5974
  294MOL0     H40506   3.356  10.368  10.530  1.1642 -0.7325  0.1611
  294MOL0     H40507   3.551  10.386  10.392  1.0963  1.9640  2.7837
  294MOL0     H40508   3.460  10.412  10.240 -2.3085 -2.6306  0.8196
  294MOL0     H40509   3.345  10.624  10.354 -1.8790 -1.2729  1.5036
  294MOL0     H40510   3.463  10.614  10.477 -2.5479 -0.4178  0.0865
  294MOL0     H40511   3.665  10.668  10.337 -1.0236 -1.6934  0.6350
  294MOL0     H40512   3.570  10.642  10.183 -0.9115  0.2791 -0.0932
  294MOL0     H40513   3.487  10.841  10.379 -1.4065  0.6701  0.0287
  294MOL0     H40514   3.417  10.808  10.219 -0.4419 -0.7460  0.3454
  294MOL0     H40515   3.567  11.011  10.210 -1.5914 -0.6116  0.5016
  294MOL0     H40516   3.694  10.931  10.298  0.5263  1.4317 -0.9411
  294MOL0     H40517   3.587  10.862  10.010 -0.5407  2.2870 -0.4312
  294MOL0     H40518   3.720  10.779  10.096 -0.1922 -0.1197  0.3555
  294MOL0     H40519   3.863  10.964  10.100  0.8853 -0.8701 -2.1057
  294MOL0     H40520   3.801  10.969   9.937 -0.7328 -3.1066 -0.4246
  294MOL0     H40521   3.557  11.147   9.913 -1.0104 -3.0098  1.8132
  294MOL0     H40522   3.466  11.397   9.956  1.1574  0.0065  0.2009
  294MOL0     H40523   3.615  11.491   9.935  3.4791 -2.0010  0.3674
  294MOL0     H40524   3.471  11.446  10.195  1.4467  0.6595  1.5989
  294MOL0     H40525   3.611  11.544  10.178 -1.0384  0.5636  1.3378
  294MOL0     H40526   3.530  11.715  10.058 -0.9710  1.0562 -2.2474
  294MOL0     H40527   3.395  11.611   9.987 -2.5451 -0.3215  1.4281
  294MOL0     H40528   3.417  11.702  10.274 -1.2542  0.4828  1.0335
  294MOL0     H40529   3.319  11.790  10.153 -1.6208 -1.0449  1.2846
  294MOL0     H40530   3.093  11.400  10.224  1.3747 -2.0614 -0.1606
  294MOL0     H40531   2.924  11.293  10.182  2.0329  3.6999 -1.0159
  294MOL0     H40532   2.864  11.241  10.019  2.3295 -1.6109  0.1325
  294MOL0     H40533   2.784  11.375  10.128  0.9907  1.8737  0.3981
  294MOL0     H40534   2.726  11.369   9.589 -0.8828  4.2739 -0.9891
  294MOL0     H40535   2.518  11.363   9.470 -1.8537  0.0989 -0.3373
  294MOL0     H40536   2.106  11.340   9.699  0.9756  2.2692 -1.5498
  294MOL0     H40537   2.075  11.281   9.534 -1.0032 -1.5839 -0.3901
  294MOL0     H40538   2.136  11.077   9.558 -1.6430  0.2937 -0.4596
  294MOL0     H40539   2.272  11.118   9.653 -0.1788  0.1264  0.6899
  294MOL0     H40540   1.973  11.112   9.763  0.9283  1.6233  0.5885
  294MOL0     H40541   2.115  11.121   9.864 -1.0814 -0.1651  0.7716
  294MOL0     H40542   2.185  10.907   9.781 -0.3176  1.9001  1.2577
  294MOL0     H40543   2.046  10.889   9.664  1.6187 -2.7766  0.6953
  294MOL0     H40544   2.025  10.752   9.858  1.1768  0.7805 -1.6308
  294MOL0     H40545   2.021  10.890   9.972 -1.1076 -0.7355 -0.2447
  294MOL0     H40546   1.829  10.884   9.729  0.6920  0.6440 -0.4697
  294MOL0     H40547   1.813  10.984   9.874 -4.5413 -0.9194 -0.3376
  294MOL0     H40548   1.784  10.686   9.843 -1.0170  1.4638 -1.4634
  294MOL0     H40549   1.656  10.798   9.877  0.6661  0.5454 -0.0010
  294MOL0     H40550   1.869  10.718  10.076  1.7544  2.3053  0.3431
  294MOL0     H40551   1.698  10.673  10.069  1.8976 -1.5248  0.0353
  294MOL0     H40552   2.305  11.305   9.845  0.4391 -0.9942  1.6847
  294MOL0     H40553   2.524  11.322   9.966 -1.9521 -2.0247  0.1836
  294MOL0     H40554   3.030  11.662   9.813  1.4957 -3.2073 -1.9314
  294MOL0     H40555   3.204  11.729   9.971  0.1486 -0.2024  0.4975
  294MOL0     H40556   2.962  10.522  10.331 -0.7721 -0.8206 -1.5238
  294MOL0     H40557   2.750  10.408  10.363  1.2312  3.8429  0.4639
  294MOL0     H40558   2.484  10.262  10.378 -1.7487 -0.4688  1.5541
  294MOL0     H40559   2.249  10.221  10.359  2.9647  2.3188  2.6917
  294MOL0     H40560   2.134  10.034   9.990  1.4427  0.3704  1.1565
  294MOL0     H40561   2.125   9.873  10.059  0.4463 -0.7541 -0.7819
  294MOL0     H40562   1.919  10.089  10.071 -4.3659 -1.3521  2.4618
  294MOL0     H40563   1.891   9.934  10.153  1.0856 -1.3185  0.4474
  294MOL0     H40564   1.940   9.983   9.857  0.6282 -0.3041  0.5635
  294MOL0     H40565   1.906   9.819   9.910 -2.0178 -0.2323 -3.9639
  294MOL0     H40566   1.706  10.049   9.954 -1.9903 -0.9190  1.5472
  294MOL0     H40567   1.682   9.894  10.021  0.5294 -1.0684  0.0389
  294MOL0     H40568   1.495   9.842   9.646 -0.8412  1.4615  0.6703
  294MOL0     H40569   2.324   9.865  10.132 -0.6698 -1.3500  0.6470
  294MOL0     H40570   2.672   9.842  10.224 -0.1395  2.4231  2.2544
  294MOL0     H40571   2.531   9.766  10.137  1.2317  0.0830  1.5041
  294MOL0     H40572   2.624   9.899  10.062 -3.0066 -3.2124 -2.4487
  295MOL0     O40573   2.053   6.598   7.943 -0.6258  0.4016  0.1165
  295MOL0     C40574   2.019   6.718   7.942 -0.4144  0.2287 -0.2948
  295MOL0     O40575   2.099   6.820   7.963 -0.2551  0.2658 -0.3321
  295MOL0     C40576   2.228   6.814   8.010  0.2640  0.3603  1.0898
  295MOL0     C40577   2.294   6.722   8.105  0.2830  0.1811  0.5028
  295MOL0     C40578   2.418   6.744   8.151 -0.5214 -0.2404 -0.4816
  295MOL0     C40579   2.500   6.842   8.101 -0.0107 -0.3058 -0.7388
  295MOL0     O40580   2.638   6.831   8.129  0.1781 -0.3750  0.3100
  295MOL0     C40581   2.715   6.930   8.074  0.3814  0.7085 -0.2781
  295MOL0     C40582   2.869   6.912   8.091 -0.2270 -0.8728  0.6735
  295MOL0     C40583   2.948   6.785   8.049  0.0806 -0.6098 -0.3109
  295MOL0     C40584   3.060   6.744   8.144 -0.0785 -0.3060  0.6718
  295MOL0     C40585   3.196   6.778   8.068 -0.2209  0.8703 -0.0087
  295MOL0     C40586   3.300   6.742   8.183 -0.0203  1.0222 -0.4813
  295MOL0     C40587   3.337   6.592   8.170  0.3129 -0.6940 -0.4418
  295MOL0     C40588   3.398   6.536   8.296  0.1768  0.0136  0.6024
  295MOL0     N40589   3.533   6.587   8.337 -0.8058 -0.6880  0.3183
  295MOL0     C40590   3.555   6.696   8.416 -1.2026  0.3330 -0.4013
  295MOL0     C40591   3.685   6.723   8.432 -0.1649  0.2495 -0.0673
  295MOL0     C40592   3.743   6.831   8.509 -0.1063  0.2782 -0.3333
  295MOL0     C40593   3.773   6.796   8.647  0.4557  0.1173 -0.1651
  295MOL0     C40594   3.896   6.698   8.650  0.8364 -1.0427 -0.0991
  295MOL0     C40595   3.905   6.643   8.785 -0.2396 -0.4736 -0.5622
  295MOL0     O40596   4.035   6.585   8.806  0.8709 -0.0386 -0.4102
  295MOL0     C40597   4.055   6.529   8.931 -0.1154 -0.4036 -0.3283
  295MOL0     C40598   4.036   6.392   8.938  0.0049 -0.5399  0.0514
  295MOL0     C40599   4.076   6.326   9.060  0.4367 -0.6731 -0.4644
  295MOL0     C40600   4.078   6.182   9.060  0.1971  0.4232 -0.6572
  295MOL0     C40601   4.116   6.399   9.175  0.0962  0.5126 -0.1054
  295MOL0     C40602   4.152   6.347   9.310  0.8681 -0.7181 -1.0737
  295MOL0     O40603   4.223   6.441   9.390 -0.0994  0.4103 -0.1614
  295MOL0     C40604   4.252   6.402   9.525  0.1849 -0.8160 -1.0732
  295MOL0     C40605   4.383   6.421   9.581 -0.0031 -0.0146  0.2991
  295MOL0     C40606   4.420   6.379   9.707 -0.4624 -0.5617  0.2767
  295MOL0     C40607   4.325   6.318   9.789 -0.0873  0.6443 -0.9498
  295MOL0     O40608   4.364   6.270   9.918  0.6066 -0.1592 -0.4185
  295MOL0     C40609   4.313   6.340  10.029  0.5242 -0.8214 -0.5781
  295MOL0     C40610   4.312   6.247  10.151  0.3397 -0.2568 -0.0238
  295MOL0     C40611   4.280   6.324  10.278 -1.3599  0.5394 -0.1556
  295MOL0     C40612   4.274   6.233  10.403  0.2434  0.4839 -0.0269
  295MOL0     C40613   4.218   6.305  10.531 -0.1261 -0.4962 -0.2409
  295MOL0     C40614   4.321   6.409  10.573  0.1785  0.5061 -0.7703
  295MOL0     C40615   4.294   6.446  10.719  0.5580 -0.4083  0.7280
  295MOL0     C40616   4.386   6.557  10.773 -0.0010  0.3308  0.8695
  295MOL0    Cl40617   4.361   6.574  10.954 -0.1286  0.3792  0.7312
  295MOL0     C40618   4.196   6.317   9.748 -0.4669 -0.7652 -0.1049
  295MOL0     C40619   4.160   6.354   9.619  0.9587 -0.7893 -0.2529
  295MOL0     O40620   4.122   6.232   9.344  0.4353  0.4401 -0.1960
  295MOL0     C40621   4.117   6.541   9.161 -0.3317 -0.8135 -0.0086
  295MOL0     C40622   4.094   6.610   9.036  0.2215  0.4655  0.2553
  295MOL0     N40623   3.749   6.633   8.356 -0.3878  0.2010  0.7252
  295MOL0     N40624   3.663   6.554   8.301  0.4534 -0.6223  0.2067
  295MOL0     C40625   2.441   6.941   8.013  0.0667  0.0118  0.7569
  295MOL0     C40626   2.306   6.929   7.979  0.1857  0.0775  1.0298
  295MOL0     C40627   1.881   6.756   7.903  0.1443  0.2628 -0.3176
  295MOL0     C40628   1.850   6.881   7.833 -0.5541 -0.0581 -0.5782
  295MOL0     C40629   1.714   6.917   7.811 -0.8735 -0.3106 -0.3336
  295MOL0     C40630   1.607   6.841   7.864  0.1739  0.0822 -0.5646
  295MOL0     O40631   1.473   6.877   7.867 -0.6246 -0.0924  0.5597
  295MOL0     C40632   1.430   6.985   7.778  0.3911 -0.3694 -0.5916
  295MOL0     C40633   1.389   6.937   7.634  0.0644  0.3202 -0.1611
  295MOL0     C40634   1.274   6.838   7.631 -0.4880 -0.3394 -0.3955
  295MOL0     C40635   1.236   6.793   7.486  0.2789  0.1730  0.2679
  295MOL0     C40636   1.152   6.893   7.424  0.4013 -0.6785  0.6021
  295MOL0     C40637   1.090   6.967   7.352  0.5161 -0.6671  0.4544
  295MOL0     C40638   1.643   6.722   7.932  0.0177  0.1641 -0.3340
  295MOL0     C40639   1.775   6.679   7.947  0.3727 -0.6783  0.0043
  295MOL0     C40640   1.792   6.541   8.009  0.3864 -0.8273  0.5911
  295MOL0     H40641   2.239   6.642   8.154  1.4643 -0.3290  1.0289
  295MOL0     H40642   2.462   6.676   8.224  2.4566 -0.0939 -1.9676
  295MOL0     H40643   2.685   7.026   8.116 -2.3700 -0.4377  0.5257
  295MOL0     H40644   2.700   6.929   7.965 -2.3406  0.6662  0.0491
  295MOL0     H40645   2.922   6.998   8.049  1.1536 -0.7390  2.5620
  295MOL0     H40646   2.871   6.934   8.198 -0.2794  2.3089  0.1309
  295MOL0     H40647   2.880   6.699   8.052 -0.3919 -0.2205  1.7288
  295MOL0     H40648   2.988   6.798   7.948 -0.1858 -0.7218 -0.4296
  295MOL0     H40649   3.051   6.812   8.229 -1.7997  4.5015 -2.9566
  295MOL0     H40650   3.041   6.642   8.181 -2.2863  0.1793  0.9954
  295MOL0     H40651   3.213   6.883   8.044  1.0365  0.7887  0.4531
  295MOL0     H40652   3.205   6.720   7.976 -1.1181  2.0849 -0.8935
  295MOL0     H40653   3.386   6.808   8.168 -0.1441  1.3611  0.2552
  295MOL0     H40654   3.255   6.774   8.277 -2.1446  1.7873 -1.6734
  295MOL0     H40655   3.413   6.594   8.091  1.5810 -1.6966  0.7066
  295MOL0     H40656   3.246   6.536   8.145  0.2291 -1.6882  1.8922
  295MOL0     H40657   3.323   6.549   8.375 -1.7667  0.2792 -1.1935
  295MOL0     H40658   3.405   6.428   8.279 -0.8353  0.3053 -2.0826
  295MOL0     H40659   3.477   6.751   8.468 -3.2490  0.3658 -3.3076
  295MOL0     H40660   3.675   6.916   8.502 -1.4271 -0.7887 -0.9970
  295MOL0     H40661   3.836   6.854   8.455  1.6805 -3.6192  0.7180
  295MOL0     H40662   3.794   6.884   8.708  3.0918 -1.3242  1.1997
  295MOL0     H40663   3.685   6.749   8.692  0.6288 -1.6157 -1.5289
  295MOL0     H40664   3.878   6.620   8.576 -1.6484  0.8897 -1.7239
  295MOL0     H40665   3.991   6.750   8.634  1.5305 -1.2049  2.8548
  295MOL0     H40666   3.903   6.726   8.857 -1.1264  0.2938 -1.4358
  295MOL0     H40667   3.831   6.569   8.815 -0.0125  0.2921  2.2608
  295MOL0     H40668   3.997   6.339   8.851  0.4033 -1.5458  0.4661
  295MOL0     H40669   4.020   6.140   8.977 -2.9927  0.9620  1.1101
  295MOL0     H40670   4.028   6.141   9.148 -0.2708  0.6815 -0.7978
  295MOL0     H40671   4.177   6.138   9.070 -1.7561 -4.2665  0.9341
  295MOL0     H40672   4.460   6.459   9.515  0.1578 -2.8430 -1.3071
  295MOL0     H40673   4.519   6.384   9.751 -0.7269 -2.4551  1.1815
  295MOL0     H40674   4.376   6.428  10.045  1.2068 -1.0017 -2.0680
  295MOL0     H40675   4.214   6.383  10.013  0.5148  0.1935  1.7501
  295MOL0     H40676   4.223   6.186  10.134  0.7470 -2.1837  3.7150
  295MOL0     H40677   4.405   6.190  10.164 -0.9665 -2.3704  0.4770
  295MOL0     H40678   4.189   6.384  10.284  0.1978  2.9943  0.0340
  295MOL0     H40679   4.367   6.388  10.297  0.7443 -2.3557  0.6902
  295MOL0     H40680   4.373   6.187  10.412 -0.0222 -0.2573 -0.7217
  295MOL0     H40681   4.208   6.150  10.376  1.1691 -0.6361  1.0345
  295MOL0     H40682   4.120   6.346  10.504 -0.0605  0.7350  1.2304
  295MOL0     H40683   4.212   6.237  10.617  1.5549  0.8266  0.9744
  295MOL0     H40684   4.314   6.494  10.505 -2.4401 -1.3700 -3.0659
  295MOL0     H40685   4.418   6.359  10.572 -1.1086 -2.2092 -2.3411
  295MOL0     H40686   4.293   6.358  10.784  3.4950 -1.0001  0.0980
  295MOL0     H40687   4.192   6.483  10.735 -0.0943 -1.2242 -1.2083
  295MOL0     H40688   4.355   6.652  10.729  2.0968  2.1781  3.0631
  295MOL0     H40689   4.493   6.537  10.761 -0.0593  0.1186  0.6874
  295MOL0     H40690   4.130   6.274   9.823  1.9625  0.1239  2.7011
  295MOL0     H40691   4.055   6.348   9.591  0.4829 -0.8049  1.4207
  295MOL0     H40692   4.155   6.614   9.232 -1.3496  0.4270 -0.7050
  295MOL0     H40693   4.109   6.717   9.027  3.7892  0.3060  2.3689
  295MOL0     H40694   2.502   7.015   7.963  1.4057 -0.2834  1.8833
  295MOL0     H40695   2.269   7.005   7.911 -1.0239 -1.8100 -0.5505
  295MOL0     H40696   1.936   6.937   7.798 -1.5713  1.1035 -1.3336
  295MOL0     H40697   1.697   7.003   7.748  0.1483 -0.4541 -0.8312
  295MOL0     H40698   1.348   7.036   7.831  0.5820 -0.4536 -0.2150
  295MOL0     H40699   1.497   7.070   7.768 -0.5918  0.5928  0.6430
  295MOL0     H40700   1.479   6.899   7.585 -0.5144  2.0617 -2.8305
  295MOL0     H40701   1.359   7.026   7.577 -2.3022  0.3252  0.9545
  295MOL0     H40702   1.319   6.749   7.676 -1.4919 -0.8851 -0.4643
  295MOL0     H40703   1.189   6.889   7.677 -0.1592  1.6138 -1.7983
  295MOL0     H40704   1.165   6.711   7.499 -0.9101  0.4136 -3.6183
  295MOL0     H40705   1.316   6.756   7.421 -0.5855 -0.3957 -0.4853
  295MOL0     H40706   1.031   7.029   7.287  1.7612 -0.2329 -0.2878
  295MOL0     H40707   1.566   6.663   7.980 -0.5902  1.4690  0.3378
  295MOL0     H40708   1.872   6.551   8.083 -0.0042  2.4933  0.6893
  295MOL0     H40709   1.708   6.502   8.067  1.0110 -1.0380  1.3759
  295MOL0     H40710   1.814   6.467   7.931 -0.0397 -1.2529  0.8657
  296MOL0     O40711   0.386   3.502   7.211 -0.3054 -0.2946  0.4031
  296MOL0     C40712   0.393   3.607   7.144  0.2353 -0.6829 -0.3516
  296MOL0     O40713   0.506   3.690   7.146  0.2707 -0.0236  0.4637
  296MOL0     C40714   0.611   3.653   7.227 -0.2985 -0.7021  0.4548
  296MOL0     C40715   0.662   3.729   7.325  0.7523  0.3139 -0.7530
  296MOL0     C40716   0.762   3.702   7.414  0.6729  0.1071  0.1121
  296MOL0     C40717   0.814   3.571   7.414 -0.3724 -0.5099  0.9104
  296MOL0     O40718   0.912   3.530   7.496  0.4943  0.0839  0.0904
  296MOL0     C40719   0.997   3.633   7.553 -0.0535  0.5945 -0.1107
  296MOL0     C40720   1.105   3.552   7.612 -0.4595  0.3275  0.4664
  296MOL0     C40721   1.173   3.453   7.515  0.6946  0.0998 -0.4038
  296MOL0     C40722   1.271   3.529   7.425 -0.2971 -0.3271  0.5727
  296MOL0     C40723   1.369   3.434   7.360 -0.8464  0.1978 -0.2218
  296MOL0     C40724   1.299   3.319   7.295 -0.0815  0.3659 -0.9277
  296MOL0     C40725   1.386   3.223   7.213 -0.2501 -0.7568  0.9461
  296MOL0     C40726   1.301   3.103   7.163  0.1509 -0.5750 -0.4782
  296MOL0     N40727   1.389   2.999   7.107  0.4548 -0.7121  0.9007
  296MOL0     C40728   1.465   2.925   7.193  0.5522 -0.3533 -0.0988
  296MOL0     C40729   1.542   2.851   7.117  0.1533  0.6172  0.1567
  296MOL0     C40730   1.654   2.765   7.155 -0.7815 -0.7283 -0.7272
  296MOL0     C40731   1.779   2.839   7.112 -0.5438  0.0252 -0.2538
  296MOL0     C40732   1.901   2.781   7.186 -0.1296  0.4546 -0.9586
  296MOL0     C40733   2.021   2.862   7.146 -0.4807  0.3136  0.2212
  296MOL0     O40734   2.140   2.807   7.196 -0.9352 -0.0140  0.4397
  296MOL0     C40735   2.249   2.873   7.139  0.3882  0.2908 -0.3156
  296MOL0     C40736   2.255   3.008   7.118 -1.5157 -0.0136  0.4178
  296MOL0     C40737   2.377   3.068   7.070  1.0598 -0.7249 -0.6433
  296MOL0     C40738   2.377   3.225   7.042  0.6757 -1.1484 -0.0815
  296MOL0     C40739   2.491   2.985   7.054 -0.0233 -0.2369  0.0424
  296MOL0     C40740   2.629   3.031   7.007  1.0615 -1.4835 -1.1178
  296MOL0     O40741   2.710   2.933   6.954  0.5054 -0.6258  0.6605
  296MOL0     C40742   2.829   2.959   6.887  0.4525 -0.4073 -0.7550
  296MOL0     C40743   2.944   2.884   6.929 -1.4671  0.4256  0.2808
  296MOL0     C40744   3.074   2.894   6.863  0.2302  0.0473 -0.8865
  296MOL0     C40745   3.079   2.975   6.750 -0.0375 -0.0230  0.3883
  296MOL0     O40746   3.196   2.968   6.678 -0.3603 -0.4325 -0.0384
  296MOL0     C40747   3.181   2.968   6.534 -0.3631 -0.0029 -0.6159
  296MOL0     C40748   3.248   2.853   6.461  0.2427 -0.3047 -0.4689
  296MOL0     C40749   3.389   2.826   6.511  0.2710  0.2204  0.4878
  296MOL0     C40750   3.476   2.759   6.412 -0.5279 -0.6966 -0.1940
  296MOL0     C40751   3.621   2.755   6.472  0.4532  0.6003  0.7302
  296MOL0     C40752   3.710   2.665   6.375 -0.5229  0.2506  0.2482
  296MOL0     C40753   3.737   2.749   6.244 -0.0460  0.4035 -0.3897
  296MOL0     C40754   3.858   2.715   6.162  1.3843 -0.3360  0.7405
  296MOL0    Cl40755   4.007   2.742   6.254 -0.0133 -0.0176 -0.0813
  296MOL0     C40756   2.967   3.038   6.709  0.4123 -0.2389  0.9523
  296MOL0     C40757   2.841   3.030   6.771 -0.1211  0.3700  0.0637
  296MOL0     O40758   2.658   3.145   7.047 -0.1509  0.2010 -0.0961
  296MOL0     C40759   2.473   2.848   7.058 -0.0987 -0.0860 -0.2574
  296MOL0     C40760   2.355   2.791   7.107 -0.4038 -0.2613 -0.3851
  296MOL0     N40761   1.508   2.878   6.982 -0.0165 -0.3924 -0.7179
  296MOL0     N40762   1.410   2.959   6.977 -0.1574 -0.2469 -0.7988
  296MOL0     C40763   0.771   3.481   7.321  0.3150  0.5791  0.1996
  296MOL0     C40764   0.679   3.525   7.222 -0.3448  0.2329  0.1414
  296MOL0     C40765   0.275   3.655   7.070 -0.7499 -0.4662  0.4913
  296MOL0     C40766   0.273   3.776   6.990  0.6025 -0.7275  0.2634
  296MOL0     C40767   0.165   3.817   6.920 -0.5751  0.1684 -0.5070
  296MOL0     C40768   0.039   3.762   6.931  0.9509  0.0331  1.0561
  296MOL0     O40769  -0.079   3.802   6.869  0.5932 -1.1303 -0.1750
  296MOL0     C40770  -0.076   3.921   6.782  0.7528  0.4919  0.5556
  296MOL0     C40771  -0.215   3.973   6.737  0.5302  0.0860  0.2484
  296MOL0     C40772  -0.322   3.873   6.702 -0.2932 -0.2405 -0.6922
  296MOL0     C40773  -0.273   3.773   6.601  0.2946 -0.4164 -0.3933
  296MOL0     C40774  -0.261   3.835   6.465  0.2297  0.3190  0.1840
  296MOL0     C40775  -0.237   3.889   6.359 -1.0979  0.6443 -0.5102
  296MOL0     C40776   0.032   3.649   7.008  0.2283  0.0360 -0.3208
  296MOL0     C40777   0.145   3.595   7.067  0.5322  0.9400 -0.0413
  296MOL0     C40778   0.122   3.460   7.129 -0.5700 -0.0595 -0.5305
  296MOL0     H40779   0.614   3.826   7.336 -1.2931 -0.4698 -2.1786
  296MOL0     H40780   0.796   3.761   7.499  0.8073  0.1444  0.0327
  296MOL0     H40781   0.943   3.684   7.634 -0.1235 -1.4722  1.1928
  296MOL0     H40782   1.042   3.704   7.483  0.3169 -2.3752 -3.1110
  296MOL0     H40783   1.182   3.602   7.672 -0.1142  0.0398  0.2682
  296MOL0     H40784   1.060   3.486   7.687  0.4638 -0.2032  0.5677
  296MOL0     H40785   1.211   3.371   7.577 -1.1906  0.8775  1.9140
  296MOL0     H40786   1.103   3.398   7.452  1.9716 -5.6340  2.4857
  296MOL0     H40787   1.211   3.583   7.352  0.8584 -1.2214 -1.0885
  296MOL0     H40788   1.318   3.607   7.485  1.7198  0.6407 -2.0815
  296MOL0     H40789   1.438   3.406   7.441 -0.5539  0.7291 -0.2801
  296MOL0     H40790   1.422   3.497   7.287 -1.9313  1.1045 -0.2592
  296MOL0     H40791   1.259   3.260   7.378  0.1226  0.1172 -1.0052
  296MOL0     H40792   1.227   3.355   7.222  0.7444  3.2776 -0.4206
  296MOL0     H40793   1.459   3.172   7.278 -1.7093 -4.0937  0.1436
  296MOL0     H40794   1.446   3.281   7.141  0.0701 -0.8936  1.0983
  296MOL0     H40795   1.236   3.061   7.241  0.0960 -1.4493 -0.9873
  296MOL0     H40796   1.233   3.147   7.090 -1.7029 -0.3850  1.2463
  296MOL0     H40797   1.463   2.949   7.299 -2.9122  1.6108 -0.4502
  296MOL0     H40798   1.646   2.661   7.122  0.6251 -1.4770  1.1011
  296MOL0     H40799   1.655   2.755   7.264  2.7322  0.2459 -0.5496
  296MOL0     H40800   1.793   2.827   7.005  0.3130 -2.4173  0.0773
  296MOL0     H40801   1.772   2.947   7.129 -3.8414  0.3400 -2.6993
  296MOL0     H40802   1.887   2.800   7.293  0.6064  0.4753 -0.8640
  296MOL0     H40803   1.922   2.675   7.171  1.0784  0.6793 -0.9529
  296MOL0     H40804   2.029   2.872   7.037  1.8009  0.5192  0.3667
  296MOL0     H40805   2.004   2.965   7.179 -0.6298  0.8775 -1.4996
  296MOL0     H40806   2.165   3.066   7.138 -1.3090  0.1937  0.7584
  296MOL0     H40807   2.435   3.254   6.954  1.3811  1.2233  1.0610
  296MOL0     H40808   2.408   3.263   7.140  0.3501 -2.0573  0.3839
  296MOL0     H40809   2.275   3.255   7.018  1.6129  0.0845 -2.9660
  296MOL0     H40810   2.923   2.814   7.009  1.0811  0.0447  0.6844
  296MOL0     H40811   3.151   2.822   6.889  0.4238  0.0333 -1.4701
  296MOL0     H40812   3.080   2.954   6.494 -0.9468  1.7010  0.1837
  296MOL0     H40813   3.214   3.063   6.493  4.8764 -1.5132 -0.6182
  296MOL0     H40814   3.185   2.766   6.478 -2.6070  2.0765  2.2516
  296MOL0     H40815   3.267   2.891   6.359  0.4563  0.4641 -0.1523
  296MOL0     H40816   3.380   2.761   6.598 -4.0107 -2.3324 -1.5262
  296MOL0     H40817   3.440   2.915   6.548 -0.2221 -0.5755  3.3488
  296MOL0     H40818   3.475   2.812   6.316  0.4024  1.7612  1.0676
  296MOL0     H40819   3.441   2.656   6.400  0.0445 -1.3218  2.8326
  296MOL0     H40820   3.663   2.854   6.490 -1.5110  1.7988 -0.8657
  296MOL0     H40821   3.619   2.708   6.571 -0.2202 -1.2418 -0.1011
  296MOL0     H40822   3.659   2.571   6.350  0.2667  0.2824 -1.6386
  296MOL0     H40823   3.802   2.633   6.425 -0.0356  0.8441 -0.2527
  296MOL0     H40824   3.736   2.854   6.271 -1.6942  0.5461 -0.8901
  296MOL0     H40825   3.644   2.744   6.187  0.0566  0.8423 -0.5979
  296MOL0     H40826   3.863   2.779   6.073 -0.8958 -2.0409 -0.7354
  296MOL0     H40827   3.854   2.612   6.127 -1.9613  0.7393 -2.8064
  296MOL0     H40828   2.966   3.096   6.617 -1.9222  0.8669  1.5966
  296MOL0     H40829   2.749   3.080   6.743 -0.5648  1.0078  2.4207
  296MOL0     H40830   2.553   2.782   7.026  0.7064  0.5085  0.4737
  296MOL0     H40831   2.329   2.686   7.108 -1.1482 -0.0954  1.5600
  296MOL0     H40832   0.800   3.377   7.331 -0.4135  0.5177  2.0608
  296MOL0     H40833   0.652   3.454   7.144 -1.4809 -1.4171  1.9611
  296MOL0     H40834   0.356   3.845   6.996 -0.3210  0.3558  1.1415
  296MOL0     H40835   0.186   3.908   6.864 -0.7228  1.9118  2.1159
  296MOL0     H40836  -0.030   3.999   6.844  2.5655 -0.1488  0.0874
  296MOL0     H40837  -0.021   3.901   6.690  1.4759  1.0284  0.8538
  296MOL0     H40838  -0.201   4.047   6.657  1.7858  1.9926  2.1171
  296MOL0     H40839  -0.255   4.028   6.823 -0.2484 -0.4844  0.2604
  296MOL0     H40840  -0.343   3.815   6.792  2.2840  2.6072  2.0029
  296MOL0     H40841  -0.411   3.933   6.678 -0.5024 -0.6698 -1.0025
  296MOL0     H40842  -0.336   3.683   6.601  1.8784 -1.5666  0.0090
  296MOL0     H40843  -0.181   3.725   6.636 -0.9734 -1.9924  0.9253
  296MOL0     H40844  -0.215   3.928   6.262  1.6242 -0.7930 -0.5661
  296MOL0     H40845  -0.064   3.600   7.013  0.2949 -0.0577  0.0645
  296MOL0     H40846   0.016   3.430   7.121 -1.0000  1.7235 -2.3303
  296MOL0     H40847   0.174   3.377   7.079  0.5334  0.0024  0.4726
  296MOL0     H40848   0.161   3.479   7.229  1.7048  0.9975 -1.5676
  297MOL0     O40849  11.350   4.109   2.142  0.6367  0.4602 -0.2860
  297MOL0     C40850  11.364   4.077   2.260  0.5974 -0.4482  0.2997
  297MOL0     O40851  11.434   3.966   2.292  0.1635 -0.2797 -0.2338
  297MOL0     C40852  11.498   3.892   2.200  0.0204 -0.5289  0.7247
  297MOL0     C40853  11.519   3.909   2.062 -0.1939  1.0510  0.4914
  297MOL0     C40854  11.587   3.805   1.981  0.9956 -0.1578 -0.2376
  297MOL0     C40855  11.639   3.689   2.040 -0.2431  0.1511  0.4628
  297MOL0     O40856  11.703   3.592   1.959 -0.4545  0.9556  0.1315
  297MOL0     C40857  11.836   3.644   1.914  0.4340 -0.1806 -0.6565
  297MOL0     C40858  11.922   3.519   1.878  0.2885  0.7165 -0.6682
  297MOL0     C40859  12.080   3.543   1.876 -0.5851  0.5405 -0.6088
  297MOL0     C40860  12.145   3.549   2.019 -0.7944  0.0720  0.1698
  297MOL0     C40861  12.298   3.557   2.012 -0.1831  0.2186  0.2657
  297MOL0     C40862  12.347   3.687   1.941  0.4566 -1.1791 -0.7495
  297MOL0     C40863  12.498   3.695   1.913  0.0800  0.0018 -0.2687
  297MOL0     C40864  12.592   3.662   2.038  0.7037  0.1984  0.0482
  297MOL0     N40865  12.585   3.777   2.126  1.1586  0.1966 -0.8550
  297MOL0     C40866  12.562   3.782   2.263 -0.1627 -0.2259 -0.2253
  297MOL0     C40867  12.563   3.907   2.305  0.2274 -0.6250 -0.4425
  297MOL0     C40868  12.561   3.962   2.449  0.7698  0.0081 -0.4504
  297MOL0     C40869  12.702   3.941   2.504 -0.0222  0.5409  0.2105
  297MOL0     C40870  12.715   4.039   2.620  0.0497  0.1214  0.3180
  297MOL0     C40871  12.838   3.999   2.707  0.4553  1.4589  0.3334
  297MOL0     O40872  12.959   3.990   2.619 -0.5060  0.3018  0.0350
  297MOL0     C40873  13.042   3.881   2.641 -0.4630  0.1876  0.1872
  297MOL0     C40874  13.052   3.812   2.767 -0.0755 -0.8427 -0.9481
  297MOL0     C40875  13.128   3.693   2.780 -1.0298 -0.7038 -1.4744
  297MOL0     C40876  13.132   3.643   2.930 -0.1063  0.6652  0.2775
  297MOL0     C40877  13.214   3.653   2.679 -0.6485  0.1086  0.2409
  297MOL0     C40878  13.285   3.514   2.666  0.0324 -0.0057 -0.6629
  297MOL0     O40879  13.372   3.505   2.557 -0.1616  0.8589 -0.1845
  297MOL0     C40880  13.421   3.373   2.536 -0.1978  0.0199  0.1562
  297MOL0     C40881  13.363   3.292   2.442 -0.6395 -0.1619 -0.1072
  297MOL0     C40882  13.419   3.173   2.403  0.2609 -0.9755 -0.2944
  297MOL0     C40883  13.548   3.136   2.446 -0.3353  0.8559 -0.1326
  297MOL0     O40884  13.604   3.014   2.418  0.0642 -0.3529  0.2262
  297MOL0     C40885  13.616   2.958   2.293  0.6408  0.0891 -0.0213
  297MOL0     C40886  13.567   2.810   2.298  0.2253  0.6496 -0.2176
  297MOL0     C40887  13.575   2.734   2.172  0.6483 -0.3413  0.2646
  297MOL0     C40888  13.718   2.690   2.128  0.6448 -0.5761 -0.4304
  297MOL0     C40889  13.705   2.566   2.034 -0.0505 -0.0011 -0.3699
  297MOL0     C40890  13.854   2.527   1.993 -1.0026 -0.4175 -0.9478
  297MOL0     C40891  13.914   2.426   2.087 -0.8861 -0.4136  0.4230
  297MOL0     C40892  14.049   2.396   2.034 -0.6647  0.1069 -0.0728
  297MOL0    Cl40893  14.046   2.296   1.883  0.0505  0.0146 -0.0788
  297MOL0     C40894  13.609   3.212   2.540  0.4695  0.6536  0.2769
  297MOL0     C40895  13.544   3.325   2.589 -0.4864  0.3375  0.2112
  297MOL0     O40896  13.269   3.430   2.752 -0.6407 -0.0922  0.5943
  297MOL0     C40897  13.212   3.729   2.556 -0.2115 -0.3547 -0.7934
  297MOL0     C40898  13.120   3.827   2.534 -0.0108 -0.0542  0.2614
  297MOL0     N40899  12.591   3.984   2.195 -0.4743  1.2731  0.3062
  297MOL0     N40900  12.610   3.902   2.096  0.3071  0.1174  0.1092
  297MOL0     C40901  11.629   3.680   2.177 -0.0620  0.0190 -0.5726
  297MOL0     C40902  11.566   3.781   2.258  0.2031  0.8447  0.3983
  297MOL0     C40903  11.288   4.157   2.360  0.0978  0.0708  0.1941
  297MOL0     C40904  11.212   4.265   2.309 -0.1677  0.3705  0.3092
  297MOL0     C40905  11.149   4.350   2.396  0.4342  0.1842  0.9986
  297MOL0     C40906  11.143   4.326   2.534  0.2305 -0.8549 -0.8256
  297MOL0     O40907  11.071   4.393   2.640 -0.1600 -0.0576  0.3961
  297MOL0     C40908  11.031   4.528   2.615 -0.6481  0.2756 -0.7300
  297MOL0     C40909  10.929   4.580   2.721 -0.5271  0.0631  0.0867
  297MOL0     C40910  10.788   4.586   2.673  0.9766  0.2207 -0.7232
  297MOL0     C40911  10.690   4.643   2.776 -0.7216  0.4811 -1.1291
  297MOL0     C40912  10.555   4.643   2.720  0.2238  0.2143 -0.3468
  297MOL0     C40913  10.447   4.651   2.673  1.0621 -0.1830  0.2343
  297MOL0     C40914  11.218   4.222   2.591 -0.0929 -0.0475  0.7458
  297MOL0     C40915  11.296   4.141   2.500 -0.1477 -0.6496 -0.2270
  297MOL0     C40916  11.371   4.026   2.564  0.4254 -0.1100  0.5623
  297MOL0     H40917  11.469   3.983   2.001 -0.4144  0.5443  0.0461
  297MOL0     H40918  11.583   3.825   1.874  0.7012  0.8226 -0.0592
  297MOL0     H40919  11.884   3.696   1.997 -0.1320 -0.1153 -0.3619
  297MOL0     H40920  11.835   3.707   1.825  2.1006 -0.6218 -1.0225
  297MOL0     H40921  11.915   3.448   1.961  1.1201  2.0594  0.5969
  297MOL0     H40922  11.881   3.465   1.792 -0.2768 -1.1162  0.6932
  297MOL0     H40923  12.125   3.465   1.814 -1.9328 -1.4311  0.7777
  297MOL0     H40924  12.088   3.638   1.822 -0.3610  0.2990 -1.0023
  297MOL0     H40925  12.100   3.627   2.082 -0.1015  2.2881 -1.9515
  297MOL0     H40926  12.117   3.454   2.067 -0.7662 -1.2476 -2.2529
  297MOL0     H40927  12.338   3.472   1.958  0.1101 -1.2703  2.6602
  297MOL0     H40928  12.339   3.548   2.113  0.0091  0.6285  0.2273
  297MOL0     H40929  12.298   3.708   1.845 -2.3561 -0.5000  0.7316
  297MOL0     H40930  12.328   3.763   2.017 -0.0319 -3.2292  1.2712
  297MOL0     H40931  12.516   3.793   1.868 -1.3403 -0.0143 -0.9295
  297MOL0     H40932  12.510   3.607   1.848  0.5336 -0.7530  0.8048
  297MOL0     H40933  12.560   3.569   2.086 -2.0882 -0.0425 -2.0233
  297MOL0     H40934  12.692   3.654   1.993 -0.5670 -1.0102 -2.8190
  297MOL0     H40935  12.548   3.695   2.326  0.3603 -0.9527 -1.1103
  297MOL0     H40936  12.488   3.921   2.519  1.3388 -1.6043 -0.7317
  297MOL0     H40937  12.534   4.067   2.442  0.5538 -0.1316 -2.5087
  297MOL0     H40938  12.715   3.836   2.534 -0.5311 -0.4534 -2.6613
  297MOL0     H40939  12.782   3.966   2.434 -0.1499 -0.5809 -0.3591
  297MOL0     H40940  12.737   4.139   2.584  1.9524 -1.3269 -2.9676
  297MOL0     H40941  12.620   4.048   2.674 -0.7473  0.2061 -1.0572
  297MOL0     H40942  12.857   4.055   2.798 -0.9549 -1.9049  2.9128
  297MOL0     H40943  12.807   3.904   2.752  0.5695  0.5470 -1.3984
  297MOL0     H40944  13.005   3.864   2.851  0.1950  0.6494 -1.6942
  297MOL0     H40945  13.102   3.716   3.007  2.6451  1.8931  0.2854
  297MOL0     H40946  13.236   3.619   2.954 -0.6526  0.0076  2.2316
  297MOL0     H40947  13.076   3.549   2.932  0.4106  0.3601  1.0238
  297MOL0     H40948  13.262   3.312   2.409 -1.2171 -1.8232  0.5366
  297MOL0     H40949  13.362   3.111   2.335 -3.1111  1.5141  0.0457
  297MOL0     H40950  13.553   3.007   2.218  0.7685  0.8479  0.3629
  297MOL0     H40951  13.721   2.950   2.263  0.5101 -2.0826 -0.0902
  297MOL0     H40952  13.618   2.759   2.380  0.8829 -0.2774 -1.1638
  297MOL0     H40953  13.464   2.814   2.334  0.8229 -2.9857  2.4310
  297MOL0     H40954  13.538   2.802   2.094  1.5213  1.4913  1.3567
  297MOL0     H40955  13.511   2.646   2.165 -1.3294  0.9244  1.1549
  297MOL0     H40956  13.772   2.655   2.216  4.2984  3.4745 -0.7377
  297MOL0     H40957  13.770   2.773   2.078 -0.8245  0.3371 -0.5032
  297MOL0     H40958  13.653   2.489   2.092 -1.3871  1.2131  0.0841
  297MOL0     H40959  13.646   2.591   1.946  0.1802  0.2884 -0.4421
  297MOL0     H40960  13.915   2.619   1.991 -0.0285 -0.9887 -4.4123
  297MOL0     H40961  13.866   2.481   1.895  2.5156 -0.4275 -0.6500
  297MOL0     H40962  13.858   2.332   2.082 -1.1256 -0.2654  0.3636
  297MOL0     H40963  13.923   2.472   2.186 -2.6797 -0.5174  0.6569
  297MOL0     H40964  14.099   2.344   2.116  1.3338 -1.9797 -2.4734
  297MOL0     H40965  14.106   2.488   2.020  1.7625 -0.8816  2.3913
  297MOL0     H40966  13.694   3.171   2.593  1.0541 -0.1630 -1.2465
  297MOL0     H40967  13.598   3.381   2.664  1.1253  0.8567 -1.2744
  297MOL0     H40968  13.264   3.689   2.469  2.8137  2.0016 -0.2399
  297MOL0     H40969  13.106   3.869   2.435 -0.2159 -1.4614 -0.3338
  297MOL0     H40970  11.674   3.589   2.215  0.7293  0.0638 -1.3620
  297MOL0     H40971  11.565   3.771   2.366 -0.3237 -0.0828  0.3202
  297MOL0     H40972  11.179   4.272   2.205 -3.5649 -0.3024  1.1934
  297MOL0     H40973  11.088   4.431   2.356  1.9602  2.1869  2.4901
  297MOL0     H40974  11.119   4.592   2.623 -0.1238 -0.6583  1.7871
  297MOL0     H40975  10.989   4.540   2.515 -2.0649  1.0794 -0.0612
  297MOL0     H40976  10.954   4.682   2.750 -2.9377  0.8766 -0.4419
  297MOL0     H40977  10.937   4.511   2.806  0.5109 -0.7133 -0.6236
  297MOL0     H40978  10.782   4.647   2.582  1.4818  1.9476  0.3724
  297MOL0     H40979  10.757   4.483   2.651 -0.0433  0.3293  0.1657
  297MOL0     H40980  10.718   4.741   2.816 -1.0193 -0.6488  2.1631
  297MOL0     H40981  10.690   4.573   2.860 -1.8255 -0.4230 -1.8345
  297MOL0     H40982  10.355   4.676   2.624  1.0238 -0.2870  0.2540
  297MOL0     H40983  11.222   4.204   2.698 -2.0344  5.4449  2.0855
  297MOL0     H40984  11.475   4.013   2.532 -0.0961 -1.9122 -0.5327
  297MOL0     H40985  11.369   4.038   2.672 -2.7605  2.2021  0.4095
  297MOL0     H40986  11.318   3.932   2.548  2.0987 -0.6652 -2.6940
  298MOL0     O40987   3.480  10.691   9.871  0.2221 -0.0169  0.3532
  298MOL0     C40988   3.485  10.579   9.810 -0.0813  0.0017 -0.1296
  298MOL0     O40989   3.580  10.556   9.713  0.6454 -0.2021 -0.4526
  298MOL0     C40990   3.680  10.647   9.700 -0.0207 -0.2026 -0.5808
  298MOL0     C40991   3.787  10.664   9.789  0.7958  0.0734 -0.4695
  298MOL0     C40992   3.898  10.729   9.744 -0.4883  0.8269  0.7497
  298MOL0     C40993   3.895  10.821   9.635 -0.0161  1.1766  0.1129
  298MOL0     O40994   3.998  10.906   9.619 -0.4188 -0.3992 -0.3268
  298MOL0     C40995   4.042  10.945   9.491 -0.0739 -0.0759 -0.5616
  298MOL0     C40996   4.178  11.014   9.497  0.4007  0.6888 -0.1922
  298MOL0     C40997   4.239  11.075   9.366  0.6029  0.7141  0.1203
  298MOL0     C40998   4.221  11.221   9.359 -0.0971 -0.6494 -0.1590
  298MOL0     C40999   4.191  11.294   9.220  0.1890  0.4437  0.0355
  298MOL0     C41000   4.055  11.252   9.170  0.1206  0.2551  0.3676
  298MOL0     C41001   3.951  11.329   9.253  0.6294  0.3990 -0.5248
  298MOL0     C41002   3.940  11.481   9.221 -0.2548  0.8555  0.0186
  298MOL0     N41003   3.810  11.547   9.250 -0.1267  0.5214 -0.7006
  298MOL0     C41004   3.677  11.511   9.231 -0.4186  1.1959  0.6480
  298MOL0     C41005   3.600  11.614   9.273  0.0330  1.2160 -0.2625
  298MOL0     C41006   3.454  11.626   9.253 -0.2650 -0.3350 -0.4395
  298MOL0     C41007   3.391  11.763   9.273 -0.3529 -0.1416  0.4134
  298MOL0     C41008   3.239  11.768   9.277  0.2482 -0.4852 -0.4970
  298MOL0     C41009   3.185  11.908   9.308  1.3243 -0.2338  0.3886
  298MOL0     O41010   3.052  11.908   9.361 -0.0734  0.4015 -0.1724
  298MOL0     C41011   2.946  11.841   9.296  0.4870  0.1718  0.8743
  298MOL0     C41012   2.926  11.847   9.159 -1.0258 -0.5242  0.4188
  298MOL0     C41013   2.821  11.784   9.089  0.1833 -0.6126  0.5439
  298MOL0     C41014   2.818  11.788   8.935  0.7068 -0.3989  0.4528
  298MOL0     C41015   2.727  11.720   9.172 -0.3176 -0.1890 -0.0848
  298MOL0     C41016   2.596  11.668   9.126 -0.4009  0.2082  0.1716
  298MOL0     O41017   2.524  11.584   9.211  0.3943 -1.3229  0.0919
  298MOL0     C41018   2.407  11.534   9.178 -0.1352 -0.1601  0.4272
  298MOL0     C41019   2.315  11.523   9.278  0.4472  0.4328  0.8059
  298MOL0     C41020   2.184  11.460   9.254  0.0072 -1.0973  0.0549
  298MOL0     C41021   2.156  11.429   9.115 -0.0946  1.0472 -0.9535
  298MOL0     O41022   2.035  11.383   9.067 -0.3375  1.0643  0.2778
  298MOL0     C41023   1.917  11.391   9.150  0.3089  1.0490  0.6174
  298MOL0     C41024   1.917  11.253   9.221 -0.1835  0.0763 -0.1496
  298MOL0     C41025   1.824  11.245   9.345  0.5131  0.5887  0.0268
  298MOL0     C41026   1.848  11.108   9.413 -0.0107 -1.2942 -0.3472
  298MOL0     C41027   1.754  11.085   9.527  0.1700  0.5016 -0.5620
  298MOL0     C41028   1.617  11.106   9.492  0.4003  1.4450 -1.2085
  298MOL0     C41029   1.528  11.044   9.601 -0.1209 -0.8783 -0.4091
  298MOL0     C41030   1.390  11.027   9.539 -0.7725 -0.5647 -0.3635
  298MOL0    Cl41031   1.305  11.176   9.486  0.1676  0.0798 -0.2530
  298MOL0     C41032   2.251  11.443   9.016  0.2287  1.1908 -0.2920
  298MOL0     C41033   2.377  11.495   9.044  0.0357 -0.2853 -0.2850
  298MOL0     O41034   2.540  11.726   9.028  0.4988 -0.4408 -0.4553
  298MOL0     C41035   2.753  11.703   9.310  0.6298  0.8037  0.2687
  298MOL0     C41036   2.852  11.777   9.373  0.5267  0.4234  0.4791
  298MOL0     N41037   3.688  11.720   9.304 -0.0184 -0.4009 -1.1328
  298MOL0     N41038   3.808  11.680   9.292 -0.4424  0.3477  0.5648
  298MOL0     C41039   3.780  10.813   9.561  0.5098 -0.9639 -0.4868
  298MOL0     C41040   3.676  10.726   9.591  0.4530 -0.0622  1.0203
  298MOL0     C41041   3.377  10.475   9.832  0.1259 -0.2401 -0.2075
  298MOL0     C41042   3.302  10.491   9.955  0.1190 -0.0265  0.5482
  298MOL0     C41043   3.198  10.400   9.985 -0.5465  0.1869 -0.0504
  298MOL0     C41044   3.176  10.289   9.899  0.4854 -0.5542  0.5048
  298MOL0     O41045   3.063  10.209   9.907 -0.6730  0.3481 -0.3968
  298MOL0     C41046   2.944  10.242   9.986 -0.0653  0.2860  0.1770
  298MOL0     C41047   2.834  10.296   9.893 -0.3359  0.5672 -0.6236
  298MOL0     C41048   2.701  10.288   9.969 -0.3181  0.4326 -0.6917
  298MOL0     C41049   2.584  10.303   9.877  0.9842 -0.1810 -0.1158
  298MOL0     C41050   2.463  10.313   9.961 -0.2691 -0.1158 -0.8420
  298MOL0     C41051   2.351  10.309  10.011 -1.4066 -0.7307  0.4718
  298MOL0     C41052   3.265  10.269   9.798 -0.8163 -0.1231  0.5740
  298MOL0     C41053   3.366  10.350   9.762  0.2152  0.1204 -0.0061
  298MOL0     C41054   3.452  10.295   9.658 -0.1292 -0.1996 -0.4807
  298MOL0     H41055   3.780  10.618   9.887 -0.6782  0.2556 -0.4666
  298MOL0     H41056   3.985  10.733   9.809  0.0746  0.2923  0.0513
  298MOL0     H41057   3.971  11.017   9.448 -0.5191 -1.0937 -1.6018
  298MOL0     H41058   4.047  10.857   9.426  1.5028  0.2849 -0.9537
  298MOL0     H41059   4.159  11.095   9.568 -0.7753  1.4259 -1.2918
  298MOL0     H41060   4.251  10.940   9.529  2.1513  1.7986 -1.4473
  298MOL0     H41061   4.345  11.050   9.356  0.0947 -2.0906  0.8958
  298MOL0     H41062   4.187  11.033   9.280  2.9950 -1.7166 -0.2817
  298MOL0     H41063   4.160  11.262   9.440 -0.7529  0.1082 -1.0290
  298MOL0     H41064   4.317  11.267   9.386 -1.5258  1.4449  1.6500
  298MOL0     H41065   4.265  11.279   9.141 -0.1439 -3.4294  0.2862
  298MOL0     H41066   4.201  11.402   9.232  3.8109  0.3371 -1.0447
  298MOL0     H41067   4.047  11.271   9.063  1.0815 -1.2732 -0.0174
  298MOL0     H41068   4.045  11.143   9.164  2.0512  0.1277 -2.1182
  298MOL0     H41069   3.977  11.304   9.356 -3.4474 -0.6688  0.4485
  298MOL0     H41070   3.850  11.292   9.228  0.8781  0.7233 -2.1483
  298MOL0     H41071   4.020  11.532   9.275 -0.5165  2.0526 -0.6898
  298MOL0     H41072   3.945  11.482   9.112 -2.1832  0.9682 -0.1158
  298MOL0     H41073   3.636  11.421   9.187 -1.3514  1.4752  0.9243
  298MOL0     H41074   3.415  11.559   9.330  1.6649  0.0660  0.9537
  298MOL0     H41075   3.424  11.589   9.154  2.3023 -1.3780 -0.8895
  298MOL0     H41076   3.426  11.785   9.375 -0.8950 -3.0294  1.3046
  298MOL0     H41077   3.432  11.826   9.193  1.5839  0.3335  1.6933
  298MOL0     H41078   3.197  11.731   9.184  0.1368  2.9916 -1.9784
  298MOL0     H41079   3.210  11.695   9.353  0.1838  0.3556  0.3112
  298MOL0     H41080   3.255  11.957   9.375  1.2326 -1.5609  1.5117
  298MOL0     H41081   3.183  11.965   9.215  0.8811  0.2644  0.7004
  298MOL0     H41082   2.991  11.914   9.104 -0.4514  1.4870  3.3307
  298MOL0     H41083   2.916  11.812   8.892  1.6633 -2.3413  1.4229
  298MOL0     H41084   2.752  11.866   8.895  1.3072 -1.0818 -2.0849
  298MOL0     H41085   2.778  11.698   8.889  0.0983  0.0482  0.0859
  298MOL0     H41086   2.328  11.548   9.382 -0.3730 -1.4447  1.4124
  298MOL0     H41087   2.117  11.460   9.339 -1.5479  1.4343 -1.0692
  298MOL0     H41088   1.915  11.476   9.220  1.8773  1.0031  0.7568
  298MOL0     H41089   1.833  11.401   9.081 -0.4505 -1.3605  1.0903
  298MOL0     H41090   1.888  11.174   9.151 -0.9611  0.9508 -0.8504
  298MOL0     H41091   2.023  11.242   9.247  0.1927  0.2718 -1.4822
  298MOL0     H41092   1.721  11.256   9.312 -0.1283 -0.4766  1.5692
  298MOL0     H41093   1.845  11.321   9.421 -0.0517 -2.2701  3.2862
  298MOL0     H41094   1.952  11.110   9.449  0.3780 -0.1149 -1.4474
  298MOL0     H41095   1.829  11.032   9.337 -0.1892  0.9990 -2.7339
  298MOL0     H41096   1.772  10.982   9.558 -0.6067  0.7722  0.9007
  298MOL0     H41097   1.782  11.156   9.606 -1.9966 -0.0313  0.7801
  298MOL0     H41098   1.594  11.063   9.395  1.0615  2.2654 -1.7362
  298MOL0     H41099   1.592  11.212   9.496 -0.5472  1.2051  1.0156
  298MOL0     H41100   1.524  11.123   9.676 -1.3775 -0.7286 -0.6121
  298MOL0     H41101   1.557  10.951   9.652  0.2234  1.4839  4.2519
  298MOL0     H41102   1.319  10.975   9.604 -2.5108  1.1898 -0.7367
  298MOL0     H41103   1.389  10.958   9.454 -0.9013  0.4364 -1.1877
  298MOL0     H41104   2.233  11.385   8.927  1.7769 -0.8727  0.6598
  298MOL0     H41105   2.451  11.506   8.965  3.1709  0.1773  2.4756
  298MOL0     H41106   2.697  11.652   9.387 -0.8129  0.8107 -0.7475
  298MOL0     H41107   2.857  11.779   9.481  1.9151 -2.3857  0.5529
  298MOL0     H41108   3.759  10.882   9.480 -3.1830 -1.3240 -0.0195
  298MOL0     H41109   3.586  10.735   9.531 -0.0672 -3.1774  1.1743
  298MOL0     H41110   3.335  10.566  10.026 -0.0518 -0.2401  0.8556
  298MOL0     H41111   3.145  10.432  10.074 -0.7969 -0.0561 -0.1125
  298MOL0     H41112   2.923  10.143  10.030  3.0674 -0.2075  0.7874
  298MOL0     H41113   2.966  10.316  10.063 -1.1590 -0.0192  0.8101
  298MOL0     H41114   2.833  10.239   9.799 -2.6677  0.5778 -0.6669
  298MOL0     H41115   2.853  10.401   9.868 -0.4619  1.1488  1.5623
  298MOL0     H41116   2.704  10.192  10.021 -0.6220 -0.2071 -1.8089
  298MOL0     H41117   2.687  10.371  10.037 -1.3315  0.5409 -1.0104
  298MOL0     H41118   2.563  10.214   9.818  2.6810 -2.3736  2.3433
  298MOL0     H41119   2.590  10.385   9.805 -0.3433 -3.6056 -4.5957
  298MOL0     H41120   2.258  10.280  10.054 -0.6104 -3.3242  0.6103
  298MOL0     H41121   3.244  10.175   9.748 -0.2289  0.0250  0.0281
  298MOL0     H41122   3.548  10.347   9.649 -0.3642  0.8871  2.3903
  298MOL0     H41123   3.473  10.188   9.653  1.1802  0.0674 -3.9235
  298MOL0     H41124   3.404  10.311   9.561 -2.3206 -1.9092  0.2585
  299MOL0     O41125   1.086  10.424  10.952  0.0733 -0.9468  0.0141
  299MOL0     C41126   1.063  10.304  10.942  1.1204  0.7538  0.7268
  299MOL0     O41127   1.150  10.198  10.983  0.2869  0.0762  0.0201
  299MOL0     C41128   1.257  10.226  11.063 -0.1078  0.0920 -0.3651
  299MOL0     C41129   1.272  10.332  11.167  0.0330  0.0870 -1.0959
  299MOL0     C41130   1.386  10.336  11.243 -0.1856 -0.1719 -0.2223
  299MOL0     C41131   1.485  10.239  11.234  0.1390  0.2472  0.4524
  299MOL0     O41132   1.610  10.247  11.284  0.1328  0.3591 -0.2468
  299MOL0     C41133   1.641  10.349  11.381 -0.4431 -0.3085  0.4678
  299MOL0     C41134   1.795  10.351  11.417  0.3499  0.6472  1.0086
  299MOL0     C41135   1.821  10.499  11.442 -0.3215 -0.0054  0.1488
  299MOL0     C41136   1.965  10.514  11.495 -0.0572 -0.2799 -0.2437
  299MOL0     C41137   2.025  10.660  11.485  0.0406  0.3837  0.1141
  299MOL0     C41138   1.975  10.749  11.604  0.5164 -0.0477 -0.0091
  299MOL0     C41139   2.048  10.890  11.597 -0.5802  0.2438  0.3749
  299MOL0     C41140   1.991  10.973  11.484  0.0610 -0.3568  0.0009
  299MOL0     N41141   2.076  11.091  11.461 -1.0662 -0.6361  0.7527
  299MOL0     C41142   2.023  11.210  11.457 -0.1566  0.5774 -0.0224
  299MOL0     C41143   2.124  11.294  11.406 -0.6732  0.1609  0.2152
  299MOL0     C41144   2.124  11.442  11.390 -0.6219  0.0687  0.3022
  299MOL0     C41145   2.154  11.493  11.249 -0.0210  0.3658  0.1798
  299MOL0     C41146   2.154  11.648  11.257 -0.2701  0.0168  0.1856
  299MOL0     C41147   2.204  11.718  11.124  0.1982 -0.2227 -0.6734
  299MOL0     O41148   2.309  11.650  11.057  0.3334 -0.5215  0.5912
  299MOL0     C41149   2.434  11.673  11.101 -0.4650  0.7381  0.2309
  299MOL0     C41150   2.482  11.798  11.135 -0.4919 -1.1154 -0.3200
  299MOL0     C41151   2.616  11.814  11.174  0.7338  0.0157 -0.7342
  299MOL0     C41152   2.664  11.955  11.192 -0.8119 -0.1767  0.3235
  299MOL0     C41153   2.703  11.706  11.187 -0.6719 -0.5735  0.0349
  299MOL0     C41154   2.834  11.709  11.243 -0.3951 -0.4659 -0.9914
  299MOL0     O41155   2.930  11.634  11.186 -0.0243  0.0789 -0.1295
  299MOL0     C41156   3.056  11.629  11.246  0.3007 -0.1075 -0.0267
  299MOL0     C41157   3.129  11.738  11.296  0.3127  0.5827 -0.9524
  299MOL0     C41158   3.263  11.724  11.340 -0.5771  1.0417 -0.6747
  299MOL0     C41159   3.326  11.592  11.356 -0.3164 -0.8504  0.0110
  299MOL0     O41160   3.453  11.573  11.407 -0.2241 -0.0435  0.7453
  299MOL0     C41161   3.514  11.691  11.464 -0.0217 -1.0323 -0.0492
  299MOL0     C41162   3.650  11.658  11.511 -0.4923  0.4041  0.3167
  299MOL0     C41163   3.721  11.771  11.586 -0.7567  0.0505  0.8265
  299MOL0     C41164   3.657  11.786  11.722 -0.5605 -0.3457  0.1592
  299MOL0     C41165   3.739  11.868  11.829  0.1939  0.7714  0.4694
  299MOL0     C41166   3.880  11.819  11.859 -0.8974  0.7145 -0.7264
  299MOL0     C41167   3.971  11.924  11.938  0.2424  0.3456 -0.8274
  299MOL0     C41168   4.069  11.848  12.022 -0.1002 -0.2069 -0.2423
  299MOL0    Cl41169   4.197  11.960  12.075 -0.2265  0.3018  0.3610
  299MOL0     C41170   3.249  11.488  11.307 -0.3097 -0.8248 -0.1610
  299MOL0     C41171   3.120  11.503  11.246 -0.5430 -0.7113 -0.4506
  299MOL0     O41172   2.843  11.768  11.353  0.7152  0.5298 -0.7291
  299MOL0     C41173   2.651  11.579  11.151 -0.7983  0.5828 -0.5251
  299MOL0     C41174   2.520  11.560  11.099 -0.4170  0.5291  0.7672
  299MOL0     N41175   2.240  11.214  11.380  0.5568  0.2980 -0.4180
  299MOL0     N41176   2.210  11.101  11.432 -0.1910 -0.2510 -0.2682
  299MOL0     C41177   1.464  10.123  11.157 -0.6327  0.5815  0.7379
  299MOL0     C41178   1.357  10.126  11.070  0.0845  0.6835 -0.5402
  299MOL0     C41179   0.929  10.259  10.886  1.3190  0.7575  0.6423
  299MOL0     C41180   0.907  10.124  10.851 -0.6238 -0.8537 -1.5441
  299MOL0     C41181   0.797  10.066  10.796  1.0855 -0.2475 -0.0205
  299MOL0     C41182   0.686  10.156  10.772  0.1563 -0.6471 -0.1595
  299MOL0     O41183   0.570  10.097  10.736  0.5370  0.4017 -0.4649
  299MOL0     C41184   0.456  10.172  10.708 -0.1647  0.4026  0.4647
  299MOL0     C41185   0.357  10.059  10.685  0.4799 -0.3648 -0.1527
  299MOL0     C41186   0.218  10.107  10.730  0.4185  0.2966 -0.3480
  299MOL0     C41187   0.107   9.997  10.724  0.6333  0.6772  0.1166
  299MOL0     C41188   0.070   9.983  10.580 -0.2754 -0.0084 -1.1216
  299MOL0     C41189   0.046   9.984  10.459 -0.7558  0.6553  0.1708
  299MOL0     C41190   0.695  10.292  10.803 -0.2720  0.1692  0.0939
  299MOL0     C41191   0.816  10.338  10.859  0.1022 -1.1850 -0.4761
  299MOL0     C41192   0.812  10.480  10.907  0.1435 -0.7883  0.7654
  299MOL0     H41193   1.189  10.400  11.181 -0.5394 -0.5039 -1.5608
  299MOL0     H41194   1.408  10.426  11.299  2.6693 -0.7138 -0.3446
  299MOL0     H41195   1.573  10.338  11.466 -2.2607 -0.4595 -0.9627
  299MOL0     H41196   1.618  10.446  11.336 -1.2328  0.4094  2.3281
  299MOL0     H41197   1.824  10.289  11.502  0.2295 -0.1238  0.4977
  299MOL0     H41198   1.852  10.319  11.329 -3.1171  0.8658 -1.5307
  299MOL0     H41199   1.830  10.545  11.343 -1.2603  0.0001  0.0597
  299MOL0     H41200   1.754  10.544  11.516  0.6437 -2.9557  3.0469
  299MOL0     H41201   1.967  10.490  11.602  2.1885  1.7102  0.2715
  299MOL0     H41202   2.034  10.449  11.439  0.1511 -0.6102  0.3829
  299MOL0     H41203   2.008  10.707  11.388  0.1266 -2.0516 -1.1519
  299MOL0     H41204   2.134  10.658  11.500 -0.0155 -1.5181  0.5382
  299MOL0     H41205   1.869  10.768  11.584  0.1576 -1.2236  0.6410
  299MOL0     H41206   2.001  10.694  11.696 -0.9465 -0.4366  0.1995
  299MOL0     H41207   2.155  10.875  11.579 -0.9658 -0.9993 -1.1426
  299MOL0     H41208   2.024  10.936  11.693 -1.0755  0.1962  0.2764
  299MOL0     H41209   1.988  10.917  11.390  1.0776 -2.1942  1.0189
  299MOL0     H41210   1.886  10.995  11.504 -0.9063 -2.2196 -2.5506
  299MOL0     H41211   1.923  11.238  11.489  0.3868  1.3727  1.0673
  299MOL0     H41212   2.186  11.485  11.470 -2.1302  1.1119  0.9723
  299MOL0     H41213   2.025  11.474  11.424 -1.1424  3.0561 -3.3250
  299MOL0     H41214   2.246  11.454  11.205 -1.4864 -1.1524 -1.7060
  299MOL0     H41215   2.073  11.468  11.180 -0.2721 -0.9525  0.9176
  299MOL0     H41216   2.056  11.684  11.289  0.5644  0.7197  2.0499
  299MOL0     H41217   2.226  11.683  11.332 -0.9830 -1.2116  1.4876
  299MOL0     H41218   2.120  11.706  11.055  0.8079 -0.1065 -1.4373
  299MOL0     H41219   2.222  11.826  11.133  0.5298 -0.4565  2.6572
  299MOL0     H41220   2.422  11.888  11.133 -0.8802 -1.2913  1.6968
  299MOL0     H41221   2.711  11.959  11.291  3.0660 -3.5126 -1.0860
  299MOL0     H41222   2.593  12.038  11.186  1.2424  1.5972 -2.1340
  299MOL0     H41223   2.740  11.977  11.116 -0.9216 -0.4564  0.1301
  299MOL0     H41224   3.080  11.835  11.299 -2.8695 -0.8740 -1.6148
  299MOL0     H41225   3.306  11.821  11.360 -1.0100  1.1997 -0.4930
  299MOL0     H41226   3.531  11.776  11.396  0.4574  0.9493  2.4185
  299MOL0     H41227   3.460  11.737  11.546 -0.8001 -2.5190  0.3096
  299MOL0     H41228   3.651  11.567  11.572  3.5423  0.6662  0.9150
  299MOL0     H41229   3.698  11.638  11.415 -1.0290 -1.1102  0.3420
  299MOL0     H41230   3.716  11.865  11.530  2.4859  0.2388  0.6930
  299MOL0     H41231   3.825  11.739  11.595 -1.0927 -0.8390  1.7186
  299MOL0     H41232   3.653  11.683  11.759  0.0330 -0.1975  0.6527
  299MOL0     H41233   3.559  11.833  11.712 -0.3572  0.8261  2.8036
  299MOL0     H41234   3.735  11.970  11.790  3.2996  0.1210 -1.9893
  299MOL0     H41235   3.679  11.864  11.920 -0.1860 -0.6099  0.1821
  299MOL0     H41236   3.937  11.803  11.767 -0.7382 -0.4644 -0.4423
  299MOL0     H41237   3.871  11.728  11.919 -0.5742  1.2665  0.1642
  299MOL0     H41238   3.905  11.978  12.007  0.9080 -1.6028  1.5029
  299MOL0     H41239   4.020  11.997  11.874  0.5850  0.3968 -0.5124
  299MOL0     H41240   4.120  11.772  11.961  1.4009 -0.3935  1.1829
  299MOL0     H41241   4.015  11.797  12.102 -0.4769  1.6107  0.6967
  299MOL0     H41242   3.282  11.384  11.309  0.8402 -0.5294 -1.8287
  299MOL0     H41243   3.057  11.430  11.198 -0.5428  0.8502 -3.0672
  299MOL0     H41244   2.718  11.493  11.156  1.7742  2.4156 -1.1348
  299MOL0     H41245   2.498  11.458  11.068 -2.2198  0.8805  0.8070
  299MOL0     H41246   1.528  10.036  11.162 -1.4460 -0.0556  0.3963
  299MOL0     H41247   1.349  10.048  10.995  1.5162  0.9258 -0.9849
  299MOL0     H41248   0.986  10.051  10.867  0.6260  0.8153  0.2959
  299MOL0     H41249   0.787   9.962  10.768  0.7622 -0.1475 -0.2854
  299MOL0     H41250   0.426  10.242  10.786 -0.9161  0.4700  0.1210
  299MOL0     H41251   0.472  10.244  10.627 -0.0158  1.1360  1.1285
  299MOL0     H41252   0.389   9.965  10.731  4.3522  0.8477  0.0070
  299MOL0     H41253   0.355  10.043  10.577 -2.1016  0.1563 -0.2419
  299MOL0     H41254   0.228  10.127  10.837 -0.7883  0.8671 -0.3178
  299MOL0     H41255   0.188  10.201  10.683  0.2086  1.7146  2.4302
  299MOL0     H41256   0.027  10.041  10.783  1.0601 -0.8093  1.9134
  299MOL0     H41257   0.134   9.903  10.774 -0.0304  0.6372  0.4022
  299MOL0     H41258   0.038   9.999  10.354 -1.4505  1.5809  0.3398
  299MOL0     H41259   0.612  10.358  10.782  1.8480  3.3295  0.7957
  299MOL0     H41260   0.829  10.496  11.014  1.0372  0.7922  0.4235
  299MOL0     H41261   0.871  10.542  10.839 -2.4186  0.5443 -0.4052
  299MOL0     H41262   0.712  10.521  10.888  1.1403  0.8462 -1.6153
  300MOL0     O41263   6.102  10.267   4.919 -0.8941  0.3149 -0.0060
  300MOL0     C41264   6.100  10.144   4.935  0.0485 -0.0360  0.0524
  300MOL0     O41265   6.197  10.062   4.886 -0.3454 -0.3146 -0.2671
  300MOL0     C41266   6.301  10.117   4.821 -0.6567  0.1991  0.2667
  300MOL0     C41267   6.284  10.162   4.692 -0.7503 -0.2304  0.7100
  300MOL0     C41268   6.396  10.199   4.616  0.2067 -0.0749 -0.6245
  300MOL0     C41269   6.529  10.177   4.667  0.7975 -0.2930  0.7463
  300MOL0     O41270   6.644  10.212   4.604  0.1216 -0.0961  0.5205
  300MOL0     C41271   6.646  10.333   4.523  0.1760  0.1277 -0.4186
  300MOL0     C41272   6.790  10.375   4.494  0.4821 -0.8215 -0.3557
  300MOL0     C41273   6.872  10.286   4.401 -0.0713 -0.1472  1.2473
  300MOL0     C41274   7.014  10.282   4.450  0.0128  0.0615  0.7330
  300MOL0     C41275   7.039  10.190   4.571  0.0624 -0.2093  0.0751
  300MOL0     C41276   7.193  10.168   4.612 -0.0716  0.4571  1.0481
  300MOL0     C41277   7.254  10.309   4.643  0.1133 -0.2865 -0.2348
  300MOL0     C41278   7.404  10.305   4.675  0.1779  0.2729 -0.2938
  300MOL0     N41279   7.452  10.439   4.712  0.2051 -0.6420  0.4771
  300MOL0     C41280   7.493  10.526   4.620 -0.7312 -0.2722 -0.4917
  300MOL0     C41281   7.516  10.640   4.690  0.1084 -0.6153 -0.7666
  300MOL0     C41282   7.568  10.770   4.623  0.1247 -0.1077 -0.2886
  300MOL0     C41283   7.726  10.774   4.630  0.2115 -0.3788  0.5820
  300MOL0     C41284   7.768  10.775   4.776 -0.2345 -0.0392  0.1322
  300MOL0     C41285   7.915  10.791   4.795  0.2765  0.5222 -0.1219
  300MOL0     O41286   7.965  10.906   4.730  0.6139  0.2435 -0.1967
  300MOL0     C41287   8.080  10.895   4.667 -1.6394  0.6167 -0.5877
  300MOL0     C41288   8.132  10.979   4.566 -0.3534 -0.2721  0.1531
  300MOL0     C41289   8.258  10.968   4.503  0.8461  0.2191  0.1963
  300MOL0     C41290   8.297  11.064   4.389 -0.1569  0.3246 -1.0377
  300MOL0     C41291   8.353  10.877   4.559  0.9771  0.3990  0.2604
  300MOL0     C41292   8.476  10.856   4.496 -0.8620  0.0206  1.0077
  300MOL0     O41293   8.588  10.840   4.575 -0.2531  0.0503 -0.2906
  300MOL0     C41294   8.721  10.839   4.521  1.4886 -0.6927 -0.3715
  300MOL0     C41295   8.809  10.734   4.548  0.3653 -0.4458 -0.2547
  300MOL0     C41296   8.945  10.737   4.488  0.2962 -0.4169  0.3718
  300MOL0     C41297   8.994  10.853   4.417  0.4137 -0.1212  0.9862
  300MOL0     O41298   9.118  10.846   4.357 -0.0397  0.5403  1.0473
  300MOL0     C41299   9.148  10.914   4.238 -0.0272 -0.2936  0.0736
  300MOL0     C41300   9.274  10.865   4.167 -0.1262 -0.2546  0.8878
  300MOL0     C41301   9.265  10.717   4.111  0.2485 -0.8315 -0.0445
  300MOL0     C41302   9.381  10.707   4.010  0.3402  0.5823 -0.3946
  300MOL0     C41303   9.404  10.564   3.944 -0.1030  0.6512  0.2106
  300MOL0     C41304   9.539  10.565   3.859  0.3677  1.4557 -0.0898
  300MOL0     C41305   9.573  10.419   3.827  0.3676 -0.1192  0.6444
  300MOL0     C41306   9.713  10.422   3.765 -0.6178  0.4046 -0.1604
  300MOL0    Cl41307   9.770  10.261   3.695 -0.2136  0.1095 -0.3939
  300MOL0     C41308   8.895  10.951   4.384 -0.2383  0.9115 -0.9229
  300MOL0     C41309   8.759  10.950   4.436 -0.7205  0.4914 -0.1133
  300MOL0     O41310   8.481  10.853   4.367  0.1299 -0.8894 -0.3716
  300MOL0     C41311   8.314  10.807   4.675 -0.6894  0.2457 -0.3529
  300MOL0     C41312   8.188  10.816   4.737 -0.0654 -0.3335  0.0875
  300MOL0     N41313   7.460  10.625   4.816 -0.1346 -0.0051 -0.0502
  300MOL0     N41314   7.418  10.504   4.823  0.1954  0.0570 -0.6805
  300MOL0     C41315   6.551  10.128   4.791  0.3563  0.2684  0.9736
  300MOL0     C41316   6.433  10.099   4.866  0.4274  0.5021  0.8840
  300MOL0     C41317   5.972  10.097   4.996 -0.6456 -0.0550 -0.4894
  300MOL0     C41318   5.979   9.959   5.037  0.5682  0.2519 -0.1787
  300MOL0     C41319   5.873   9.906   5.098  0.0823  0.5557 -0.2796
  300MOL0     C41320   5.756   9.983   5.113  0.6268  0.6819 -1.0492
  300MOL0     O41321   5.656   9.917   5.179  0.2842  0.5364  0.1547
  300MOL0     C41322   5.519   9.964   5.188  0.0677  0.8081 -1.1667
  300MOL0     C41323   5.423   9.910   5.089  0.7621 -0.1207  0.6833
  300MOL0     C41324   5.277   9.945   5.133 -0.8617  0.5685 -0.2120
  300MOL0     C41325   5.169   9.857   5.067 -0.0055 -0.0805  0.6073
  300MOL0     C41326   5.198   9.714   5.089 -0.0851 -0.2744 -0.0701
  300MOL0     C41327   5.207   9.595   5.121 -0.0363  0.6905  0.5017
  300MOL0     C41328   5.743  10.109   5.067 -0.0555 -0.2534  0.3937
  300MOL0     C41329   5.855  10.179   5.011  0.7505  0.3628  0.4635
  300MOL0     C41330   5.835  10.316   4.966  0.4670  1.0128  0.9170
  300MOL0     H41331   6.186  10.176   4.647 -0.7652  1.0359  1.0840
  300MOL0     H41332   6.380  10.255   4.525 -4.2695  2.5376  1.4104
  300MOL0     H41333   6.612  10.416   4.585 -0.1288 -0.1383 -0.2280
  300MOL0     H41334   6.589  10.329   4.429 -4.1621  3.3768  1.7406
  300MOL0     H41335   6.783  10.475   4.450 -0.2336 -1.0363 -0.7363
  300MOL0     H41336   6.848  10.375   4.587  0.7096  3.7672 -0.2698
  300MOL0     H41337   6.834  10.184   4.397 -1.1455  0.2398  1.2410
  300MOL0     H41338   6.873  10.332   4.302 -0.2174  0.7955  1.6666
  300MOL0     H41339   7.069  10.240   4.365 -5.1817 -1.6456 -2.2644
  300MOL0     H41340   7.046  10.385   4.466 -1.4677  0.2834  2.6494
  300MOL0     H41341   6.984  10.097   4.553 -2.9438  1.4899 -0.2641
  300MOL0     H41342   7.006  10.234   4.665 -0.1811  0.9830 -0.5545
  300MOL0     H41343   7.198  10.088   4.686 -0.9278  2.8395  3.8577
  300MOL0     H41344   7.245  10.129   4.524  1.8343  1.6179  1.5892
  300MOL0     H41345   7.202  10.347   4.731  3.0996 -0.5064  1.7529
  300MOL0     H41346   7.252  10.373   4.554  1.6844 -0.0789 -0.1511
  300MOL0     H41347   7.417  10.235   4.759  3.7548  0.7549 -0.2740
  300MOL0     H41348   7.461  10.271   4.588 -0.4319  0.3787 -0.7366
  300MOL0     H41349   7.529  10.504   4.520  0.0118 -5.0378  0.5462
  300MOL0     H41350   7.522  10.857   4.670  1.6949  2.0575 -2.5079
  300MOL0     H41351   7.539  10.767   4.518 -2.2140  0.0108  0.2841
  300MOL0     H41352   7.778  10.695   4.573  1.4826  1.4903 -0.9693
  300MOL0     H41353   7.757  10.861   4.571 -0.5529 -0.8688 -0.5896
  300MOL0     H41354   7.706  10.851   4.824  0.6222 -0.1422  1.4595
  300MOL0     H41355   7.768  10.675   4.820  3.0397 -0.7925 -1.2312
  300MOL0     H41356   7.941  10.803   4.900  0.3988 -0.8290  0.0169
  300MOL0     H41357   7.966  10.703   4.754 -0.7098  0.2453 -0.8118
  300MOL0     H41358   8.066  11.062   4.542 -2.0369 -1.2297  1.2694
  300MOL0     H41359   8.262  11.039   4.289 -3.1626  0.8451 -0.2316
  300MOL0     H41360   8.405  11.082   4.388 -0.4105  2.0892 -0.5216
  300MOL0     H41361   8.244  11.160   4.400 -0.4809  0.1477 -1.0202
  300MOL0     H41362   8.774  10.647   4.604  1.4013  0.6652  2.2854
  300MOL0     H41363   9.011  10.651   4.494  1.0753  0.0907 -0.6118
  300MOL0     H41364   9.069  10.900   4.164 -2.1485  1.0836  1.9284
  300MOL0     H41365   9.158  11.022   4.245  2.2509 -0.1583 -3.1113
  300MOL0     H41366   9.293  10.934   4.084  0.8588  1.5819  2.5478
  300MOL0     H41367   9.359  10.893   4.230  0.8715  1.9946 -1.2812
  300MOL0     H41368   9.173  10.688   4.060  0.6599  1.9026 -2.6358
  300MOL0     H41369   9.289  10.648   4.192 -1.1898 -0.2012  0.9752
  300MOL0     H41370   9.476  10.748   4.044  0.5431  3.1306 -3.6384
  300MOL0     H41371   9.354  10.768   3.924  1.5887  1.2135 -0.3587
  300MOL0     H41372   9.413  10.487   4.021  1.3463 -0.2565 -0.7966
  300MOL0     H41373   9.317  10.537   3.884 -0.1579  1.5378 -0.1210
  300MOL0     H41374   9.619  10.612   3.917  0.6654  1.9184 -0.8509
  300MOL0     H41375   9.528  10.636   3.776 -0.8351  1.0287 -0.3201
  300MOL0     H41376   9.500  10.383   3.754 -0.1437  1.3276  0.4186
  300MOL0     H41377   9.571  10.354   3.914 -0.4679  0.8222  1.3527
  300MOL0     H41378   9.777  10.458   3.846  1.6108  1.1725 -2.1532
  300MOL0     H41379   9.719  10.505   3.694 -1.5105 -0.4533 -1.2718
  300MOL0     H41380   8.928  11.026   4.312  1.7604  1.1066  0.1062
  300MOL0     H41381   8.694  11.030   4.402 -2.1664  0.4544  2.2862
  300MOL0     H41382   8.394  10.747   4.717  0.2044  0.4989 -1.6151
  300MOL0     H41383   8.173  10.768   4.833 -0.3768 -0.7179 -0.1483
  300MOL0     H41384   6.646  10.083   4.821 -0.7623 -2.0572  1.3110
  300MOL0     H41385   6.444  10.038   4.955  1.6160  0.8928  1.0276
  300MOL0     H41386   6.068   9.897   5.032  0.5449 -0.0443  2.0381
  300MOL0     H41387   5.870   9.809   5.145 -3.6020  1.5474  1.9662
  300MOL0     H41388   5.483   9.930   5.285  0.0156  0.0106 -1.4596
  300MOL0     H41389   5.511  10.073   5.189  2.2997  1.0238 -0.7669
  300MOL0     H41390   5.429   9.802   5.072  1.1481  0.0483 -0.3366
  300MOL0     H41391   5.443   9.956   4.992 -2.1168 -0.9423 -0.4174
  300MOL0     H41392   5.276   9.915   5.239 -1.1633  0.0591 -0.3537
  300MOL0     H41393   5.250  10.050   5.123 -0.5642  0.6908  0.1962
  300MOL0     H41394   5.157   9.877   4.960 -1.8429  0.9369  0.9579
  300MOL0     H41395   5.077   9.891   5.116 -2.0211 -1.7943 -1.7474
  300MOL0     H41396   5.221   9.491   5.139  1.4505  0.6818 -0.5106
  300MOL0     H41397   5.648  10.162   5.068  0.5438  0.8843 -0.3525
  300MOL0     H41398   5.911  10.385   5.006  0.4131  1.7653 -0.2186
  300MOL0     H41399   5.851  10.327   4.858 -0.7341  0.0367  0.6243
  300MOL0     H41400   5.733  10.350   4.988  0.1648  0.0245  1.0735
  301MOL0     O41401   4.952   1.885   2.407 -0.0605  0.5662 -0.1204
  301MOL0     C41402   4.858   1.804   2.384  0.6033 -0.5876 -0.0684
  301MOL0     O41403   4.860   1.666   2.371 -0.4187 -0.1151  0.4976
  301MOL0     C41404   4.981   1.618   2.338  0.2859  1.1898 -0.3458
  301MOL0     C41405   5.068   1.673   2.245 -0.4656 -0.1532 -0.4706
  301MOL0     C41406   5.178   1.619   2.201 -0.2862  1.1627 -1.7628
  301MOL0     C41407   5.216   1.486   2.235 -0.2303 -0.6435  0.0826
  301MOL0     O41408   5.331   1.452   2.178 -0.3339  0.2576 -0.1537
  301MOL0     C41409   5.337   1.307   2.155 -0.4188  0.1136  0.8233
  301MOL0     C41410   5.474   1.259   2.103 -0.1337  1.0865 -0.6003
  301MOL0     C41411   5.523   1.314   1.969  0.4465  0.2072 -0.1127
  301MOL0     C41412   5.634   1.242   1.899  0.6642 -0.0529  0.0294
  301MOL0     C41413   5.770   1.250   1.969  0.2159 -0.6203  0.6380
  301MOL0     C41414   5.783   1.133   2.078 -0.0762 -0.1894  0.6766
  301MOL0     C41415   5.931   1.104   2.104 -0.5474  0.0055  0.7890
  301MOL0     C41416   5.939   0.989   2.204  0.0775 -0.7405 -0.1295
  301MOL0     N41417   6.078   0.956   2.223 -0.0282  1.4698  0.2830
  301MOL0     C41418   6.139   0.959   2.345  0.7173 -0.6352  0.2252
  301MOL0     C41419   6.252   0.891   2.324 -0.1333  0.2294 -0.0450
  301MOL0     C41420   6.356   0.849   2.423  0.1174 -0.0766 -0.2176
  301MOL0     C41421   6.400   0.970   2.514 -0.2353  0.7128  1.0070
  301MOL0     C41422   6.539   0.954   2.568 -0.1933 -0.0899 -0.1063
  301MOL0     C41423   6.550   0.879   2.696 -0.2391 -0.3956  0.8586
  301MOL0     O41424   6.683   0.839   2.740 -0.0267 -1.1929 -0.7760
  301MOL0     C41425   6.764   0.745   2.679 -0.8700 -0.7872 -0.3339
  301MOL0     C41426   6.896   0.746   2.729 -0.2962 -0.0664  0.1872
  301MOL0     C41427   6.994   0.649   2.679  0.8753  0.0545 -0.5721
  301MOL0     C41428   7.137   0.661   2.732  0.6169 -0.2403  1.0850
  301MOL0     C41429   6.951   0.548   2.588  0.7702 -0.9598  0.7834
  301MOL0     C41430   7.036   0.436   2.535 -0.8974  0.3777  0.0770
  301MOL0     O41431   6.978   0.357   2.440 -0.4939  0.1499 -0.3773
  301MOL0     C41432   7.050   0.253   2.388  0.3838 -0.1374 -0.4856
  301MOL0     C41433   7.097   0.261   2.263 -1.1944 -0.4457 -0.1018
  301MOL0     C41434   7.185   0.160   2.215 -0.2938  0.1582 -0.4593
  301MOL0     C41435   7.223   0.050   2.296 -0.5889  0.2371  0.5946
  301MOL0     O41436   7.317  -0.046   2.262 -0.1456  0.6565  0.1383
  301MOL0     C41437   7.406  -0.025   2.153 -0.2361 -1.1929  0.9638
  301MOL0     C41438   7.516  -0.122   2.135 -0.6609  0.3615 -0.3980
  301MOL0     C41439   7.638  -0.073   2.056  0.5086  0.1149  0.3100
  301MOL0     C41440   7.733  -0.189   2.046  0.3241  0.3274  0.0361
  301MOL0     C41441   7.837  -0.155   1.933  0.0179  0.2039  0.7676
  301MOL0     C41442   7.953  -0.262   1.923 -0.2778 -0.4986  0.2056
  301MOL0     C41443   8.079  -0.210   1.837  0.3679  0.7369  0.3055
  301MOL0     C41444   8.134  -0.073   1.857  0.1785 -0.4904  0.1063
  301MOL0    Cl41445   8.176  -0.056   2.038 -0.2523  0.0931 -0.3328
  301MOL0     C41446   7.159   0.038   2.421 -0.1533 -0.0455 -0.2043
  301MOL0     C41447   7.077   0.137   2.467 -0.2696 -0.9334  0.5593
  301MOL0     O41448   7.144   0.406   2.595 -0.9480  0.4892  0.3656
  301MOL0     C41449   6.815   0.554   2.545  0.4360  0.3556  0.1049
  301MOL0     C41450   6.722   0.646   2.597 -0.1852 -1.0309  1.3503
  301MOL0     N41451   6.262   0.854   2.190  0.3202 -1.3697  0.1237
  301MOL0     N41452   6.148   0.893   2.125 -0.4288 -0.7250 -0.0689
  301MOL0     C41453   5.135   1.425   2.334  0.6942 -0.1455  0.1955
  301MOL0     C41454   5.015   1.489   2.379  0.3786 -0.6839 -0.1461
  301MOL0     C41455   4.725   1.861   2.376  0.5115 -0.2378  0.2407
  301MOL0     C41456   4.619   1.778   2.438  0.1196 -0.6532 -0.2758
  301MOL0     C41457   4.491   1.826   2.448  0.5681  1.8352  0.2759
  301MOL0     C41458   4.448   1.948   2.395  0.4583  0.0334  0.2962
  301MOL0     O41459   4.320   1.998   2.405 -0.1534 -0.2363  0.7338
  301MOL0     C41460   4.214   1.917   2.477 -0.4206  0.3789 -0.5012
  301MOL0     C41461   4.078   1.973   2.486  0.0380  0.3682  0.7780
  301MOL0     C41462   4.013   1.984   2.351 -0.4914  0.9531  0.0259
  301MOL0     C41463   3.889   2.064   2.332  0.0322  0.1494  0.0925
  301MOL0     C41464   3.856   2.069   2.188 -0.0166 -0.1997 -0.1561
  301MOL0     C41465   3.833   2.073   2.069 -0.0357  0.7836 -0.5665
  301MOL0     C41466   4.553   2.028   2.346 -0.5945  0.8728  1.4087
  301MOL0     C41467   4.683   1.986   2.329 -0.5391 -0.3062  0.3572
  301MOL0     C41468   4.782   2.081   2.259 -0.2630  0.3524  0.2102
  301MOL0     H41469   5.049   1.769   2.198  2.0525  0.1154 -1.1136
  301MOL0     H41470   5.246   1.675   2.137  2.5093  1.5329  1.2579
  301MOL0     H41471   5.261   1.282   2.081  0.1586  0.6381  0.0309
  301MOL0     H41472   5.327   1.251   2.249  0.2883 -1.9455 -0.2910
  301MOL0     H41473   5.554   1.293   2.170  0.7856 -0.2351 -0.9582
  301MOL0     H41474   5.483   1.150   2.099  1.2244  1.1728 -0.3891
  301MOL0     H41475   5.435   1.304   1.906  1.4580  0.5765 -1.6482
  301MOL0     H41476   5.547   1.419   1.987  0.4005 -0.0085  1.3437
  301MOL0     H41477   5.591   1.142   1.898  0.4313  0.0494 -0.7874
  301MOL0     H41478   5.637   1.287   1.800 -2.8504  2.9605  1.0902
  301MOL0     H41479   5.792   1.352   2.000 -1.3877 -0.0566  0.0295
  301MOL0     H41480   5.841   1.214   1.895 -0.1327 -0.9223  0.4494
  301MOL0     H41481   5.733   1.156   2.172 -2.8590 -0.7522 -0.5725
  301MOL0     H41482   5.740   1.037   2.048  1.7695 -1.7480  2.6221
  301MOL0     H41483   5.977   1.195   2.144 -1.8649  1.7159 -1.3904
  301MOL0     H41484   5.982   1.073   2.012 -0.5965 -1.0128  1.0986
  301MOL0     H41485   5.889   1.021   2.296  0.7505  0.3772 -0.1353
  301MOL0     H41486   5.890   0.901   2.162 -2.6086  0.1972  0.7844
  301MOL0     H41487   6.088   1.005   2.429 -1.6553 -2.1239 -0.2969
  301MOL0     H41488   6.440   0.808   2.366 -0.7214 -1.7477 -0.3209
  301MOL0     H41489   6.315   0.765   2.480 -1.0864  0.6128 -0.0300
  301MOL0     H41490   6.399   1.062   2.454 -3.0860  0.5226  0.6180
  301MOL0     H41491   6.341   0.996   2.602  0.9945  3.1990  1.2045
  301MOL0     H41492   6.602   0.903   2.494  1.4876  1.2844  0.3025
  301MOL0     H41493   6.580   1.055   2.579 -3.1209  1.1995  0.0236
  301MOL0     H41494   6.511   0.948   2.772 -2.1548 -0.1048 -0.3184
  301MOL0     H41495   6.476   0.799   2.701 -1.4629  0.5958 -0.4830
  301MOL0     H41496   6.928   0.808   2.812 -0.0699 -2.5694  2.0664
  301MOL0     H41497   7.136   0.755   2.788 -0.9701  0.8429 -0.6406
  301MOL0     H41498   7.206   0.666   2.647 -1.3958 -0.6453 -0.6586
  301MOL0     H41499   7.166   0.576   2.795 -3.2222 -2.5051  0.1482
  301MOL0     H41500   7.072   0.348   2.204  1.2835 -1.0095 -2.1656
  301MOL0     H41501   7.222   0.165   2.113  0.0232 -1.0305 -0.4132
  301MOL0     H41502   7.342  -0.011   2.065 -1.8283 -0.2030  2.2187
  301MOL0     H41503   7.452   0.072   2.172 -1.5864 -0.6693  1.6912
  301MOL0     H41504   7.539  -0.159   2.235  0.8386  0.4618 -0.6689
  301MOL0     H41505   7.475  -0.211   2.086 -1.4538 -0.7803  2.1616
  301MOL0     H41506   7.689   0.017   2.091  3.0318 -1.4029  0.7615
  301MOL0     H41507   7.604  -0.045   1.955  0.1330  2.9931  1.1478
  301MOL0     H41508   7.675  -0.278   2.021 -0.6179  0.7415  0.6436
  301MOL0     H41509   7.787  -0.212   2.138  2.2779  2.1457 -0.5890
  301MOL0     H41510   7.782  -0.155   1.838 -1.4171 -0.4390  1.5613
  301MOL0     H41511   7.876  -0.054   1.948 -0.2214  0.2888  0.8320
  301MOL0     H41512   7.912  -0.358   1.892 -1.3821 -0.1151  0.4418
  301MOL0     H41513   7.985  -0.274   2.027 -0.2749  3.2180  0.7561
  301MOL0     H41514   8.072  -0.229   1.729 -0.2971 -2.7008  0.8263
  301MOL0     H41515   8.167  -0.268   1.867  1.2584  0.2625 -2.8454
  301MOL0     H41516   8.052  -0.007   1.827  3.4057  3.9883  0.1929
  301MOL0     H41517   8.222  -0.041   1.801 -0.1247  1.3881  0.6421
  301MOL0     H41518   7.182  -0.050   2.480  1.5360 -1.4841 -2.8151
  301MOL0     H41519   7.026   0.129   2.563 -0.1543 -0.9189  0.6218
  301MOL0     H41520   6.780   0.486   2.468 -0.0313  0.1354  0.5036
  301MOL0     H41521   6.619   0.634   2.566  0.8841 -3.1474 -1.9672
  301MOL0     H41522   5.165   1.334   2.385 -0.1977 -0.7753 -0.3694
  301MOL0     H41523   4.946   1.442   2.449  2.7558 -2.9408  0.8388
  301MOL0     H41524   4.640   1.673   2.457  0.7372 -1.4047 -4.2023
  301MOL0     H41525   4.426   1.751   2.493  0.5653 -0.9937 -3.9109
  301MOL0     H41526   4.221   1.814   2.441 -2.1879 -0.4856  1.4163
  301MOL0     H41527   4.256   1.905   2.577  0.9369  1.6658 -0.8807
  301MOL0     H41528   4.088   2.070   2.535 -0.9345 -0.2534  2.2938
  301MOL0     H41529   4.009   1.906   2.539 -2.6772  1.7967 -0.7445
  301MOL0     H41530   4.096   2.023   2.292  0.4292  1.1172  1.3933
  301MOL0     H41531   4.005   1.884   2.307  4.5936  0.8154 -1.2317
  301MOL0     H41532   3.890   2.165   2.373 -2.8068 -0.4439  1.9027
  301MOL0     H41533   3.807   2.009   2.380  0.7995 -0.3894  0.7981
  301MOL0     H41534   3.809   2.066   1.965  0.5952 -0.4395 -0.6519
  301MOL0     H41535   4.526   2.129   2.317 -0.1054  0.6659  0.1591
  301MOL0     H41536   4.832   2.140   2.337  0.6505 -0.9694  0.6559
  301MOL0     H41537   4.862   2.025   2.211  0.1291  0.8520  0.2632
  301MOL0     H41538   4.741   2.138   2.175 -0.3238 -2.6868 -1.9490
  302MOL0     O41539   4.069   6.769  10.346  0.4597 -0.2240  0.5125
  302MOL0     C41540   4.037   6.850  10.265  0.3318 -0.4508  0.7202
  302MOL0     O41541   4.007   6.975  10.291  0.0186  0.3372 -0.2470
  302MOL0     C41542   4.067   7.048  10.392  0.0618  0.6175 -0.3805
  302MOL0     C41543   4.183   7.008  10.465  1.1683  1.2069  0.6616
  302MOL0     C41544   4.235   7.082  10.568  0.4891  0.4693 -0.4731
  302MOL0     C41545   4.179   7.203  10.612 -0.2754 -0.5487  0.0159
  302MOL0     O41546   4.230   7.266  10.720 -0.1929 -1.5316  0.0212
  302MOL0     C41547   4.170   7.388  10.768 -0.4073 -0.3452 -0.5484
  302MOL0     C41548   4.254   7.476  10.868  0.2570  0.2091  0.6381
  302MOL0     C41549   4.367   7.553  10.805  1.0548  0.0137 -0.1916
  302MOL0     C41550   4.466   7.467  10.746  0.3232  0.1995  0.4898
  302MOL0     C41551   4.600   7.530  10.752 -0.5985 -0.2528  0.3775
  302MOL0     C41552   4.696   7.426  10.690 -1.0156 -0.9713 -0.0002
  302MOL0     C41553   4.838   7.480  10.691 -0.0687 -0.6036  0.7439
  302MOL0     C41554   4.860   7.580  10.568 -0.3541 -0.2102  0.5393
  302MOL0     N41555   5.005   7.606  10.545  0.3711 -0.0989  0.2100
  302MOL0     C41556   5.074   7.636  10.430  0.2880  0.9534 -1.0895
  302MOL0     C41557   5.208   7.653  10.469  0.2079  0.1040  0.1618
  302MOL0     C41558   5.312   7.692  10.364 -0.1288  0.2292 -0.0320
  302MOL0     C41559   5.437   7.609  10.380 -0.0223  0.0074  0.5751
  302MOL0     C41560   5.556   7.649  10.290 -0.4342 -0.9218 -0.3743
  302MOL0     C41561   5.654   7.539  10.263  0.7328 -0.0526  0.6674
  302MOL0     O41562   5.706   7.484  10.382  0.0880 -0.0784 -0.1175
  302MOL0     C41563   5.794   7.387  10.367 -0.1406  0.2864 -1.2325
  302MOL0     C41564   5.829   7.330  10.492 -0.9360 -0.1236  0.0545
  302MOL0     C41565   5.926   7.225  10.493  0.1198  0.1882 -0.4771
  302MOL0     C41566   5.957   7.171  10.632  0.5641 -0.8844  0.3711
  302MOL0     C41567   5.998   7.188  10.366  0.6145 -0.0359 -1.6157
  302MOL0     C41568   6.109   7.098  10.360  0.3992  0.4506  0.4078
  302MOL0     O41569   6.153   7.040  10.469  0.3743  0.4763  0.3959
  302MOL0     C41570   6.255   6.947  10.472  0.0459 -0.3172  0.6751
  302MOL0     C41571   6.376   6.933  10.386  0.0938  0.1258  0.3924
  302MOL0     C41572   6.469   6.836  10.422  0.0773  0.0322 -0.8083
  302MOL0     C41573   6.451   6.752  10.528  1.2289  0.3958 -0.8335
  302MOL0     O41574   6.545   6.656  10.540  0.0194 -1.1775  0.0173
  302MOL0     C41575   6.570   6.602  10.678  0.1510 -0.2899 -0.9410
  302MOL0     C41576   6.680   6.499  10.665 -0.9388 -0.4055  0.6045
  302MOL0     C41577   6.742   6.441  10.792 -0.3534 -0.3746  0.7294
  302MOL0     C41578   6.850   6.341  10.743 -0.6139  0.0428 -0.1668
  302MOL0     C41579   6.911   6.294  10.873 -0.3743  0.5816  0.4436
  302MOL0     C41580   7.049   6.236  10.845 -0.6203 -0.1426  0.0198
  302MOL0     C41581   7.149   6.327  10.779  0.3379 -0.2267 -0.0138
  302MOL0     C41582   7.188   6.452  10.872  0.1066 -0.4550 -0.1638
  302MOL0    Cl41583   7.258   6.405  11.030  0.1578  0.1980  0.0989
  302MOL0     C41584   6.339   6.767  10.614  0.9854  0.8476 -0.3583
  302MOL0     C41585   6.245   6.860  10.581 -0.1744 -0.8556 -0.7919
  302MOL0     O41586   6.151   7.073  10.245  0.5052 -0.2641 -0.1183
  302MOL0     C41587   5.956   7.257  10.249  0.0411 -1.3353  0.2456
  302MOL0     C41588   5.864   7.353  10.251 -0.1536  0.2605  0.3044
  302MOL0     N41589   5.212   7.643  10.604 -0.7838  0.3372  0.5736
  302MOL0     N41590   5.094   7.613  10.647 -0.3062  0.0779  0.0422
  302MOL0     C41591   4.074   7.249  10.537  0.4489 -0.2614 -0.1898
  302MOL0     C41592   4.021   7.175  10.424  0.9236 -0.0150  0.1721
  302MOL0     C41593   4.036   6.812  10.119 -0.1224 -0.2434  0.3765
  302MOL0     C41594   4.085   6.906  10.034  0.4000  0.1358  0.1946
  302MOL0     C41595   4.084   6.879   9.895 -0.1499  0.6300  1.0332
  302MOL0     C41596   4.039   6.758   9.839  0.1452  0.3920 -0.3350
  302MOL0     O41597   4.046   6.741   9.705 -0.7252  0.5080  0.1606
  302MOL0     C41598   3.937   6.677   9.637  0.1455 -0.6481 -0.1131
  302MOL0     C41599   3.811   6.758   9.650  0.5508  0.1436  0.0460
  302MOL0     C41600   3.819   6.892   9.578 -0.2714 -0.1633 -0.8801
  302MOL0     C41601   3.803   6.895   9.431  0.2888 -0.0574  0.6128
  302MOL0     C41602   3.799   7.033   9.388  0.3137 -0.5509 -0.6051
  302MOL0     C41603   3.785   7.155   9.365 -0.4921  0.2171 -0.1211
  302MOL0     C41604   3.988   6.663   9.932 -0.2166 -0.3128  0.2290
  302MOL0     C41605   3.977   6.696  10.073 -0.6528  0.8831 -0.0574
  302MOL0     C41606   3.914   6.600  10.165  0.0154  0.2884 -0.9078
  302MOL0     H41607   4.232   6.918  10.427  1.3329  1.8337 -0.6794
  302MOL0     H41608   4.326   7.038  10.607 -1.2874 -5.6629 -2.1738
  302MOL0     H41609   4.073   7.369  10.815  0.6144 -1.6720  1.1285
  302MOL0     H41610   4.154   7.460  10.688 -4.4932  0.2484  0.5755
  302MOL0     H41611   4.196   7.564  10.898  3.2672  3.0312 -1.1755
  302MOL0     H41612   4.279   7.413  10.954 -0.3321 -1.8846 -0.6475
  302MOL0     H41613   4.317   7.621  10.734 -2.9135 -0.7375  1.5782
  302MOL0     H41614   4.407   7.607  10.891  1.3182 -0.6810  0.1318
  302MOL0     H41615   4.472   7.379  10.810 -0.9528  0.4565  0.9918
  302MOL0     H41616   4.455   7.433  10.642 -1.1124  0.0359  0.6697
  302MOL0     H41617   4.620   7.539  10.860  1.4907 -2.6356  0.2756
  302MOL0     H41618   4.613   7.624  10.697 -2.7862 -1.3073 -2.1285
  302MOL0     H41619   4.697   7.328  10.738 -1.1216 -1.1032 -0.2640
  302MOL0     H41620   4.666   7.429  10.584 -1.1905  1.8267  0.0488
  302MOL0     H41621   4.908   7.396  10.682 -1.8885 -2.0114 -1.2914
  302MOL0     H41622   4.857   7.530  10.786  1.1122  0.3411  0.0477
  302MOL0     H41623   4.829   7.527  10.477  2.8650 -0.2640 -0.6583
  302MOL0     H41624   4.810   7.676  10.578 -0.6401 -0.0161 -2.0256
  302MOL0     H41625   5.028   7.634  10.331  0.7382 -1.0345 -1.2939
  302MOL0     H41626   5.341   7.796  10.380  1.8438 -0.3437  0.4695
  302MOL0     H41627   5.263   7.683  10.267  0.9062 -0.1631 -0.5335
  302MOL0     H41628   5.465   7.632  10.483  2.7017 -1.4323  0.2358
  302MOL0     H41629   5.406   7.505  10.365 -1.0166  0.3803 -0.0923
  302MOL0     H41630   5.530   7.687  10.191  2.8058 -0.6586 -1.2428
  302MOL0     H41631   5.600   7.733  10.345 -1.2835 -0.9506  0.3937
  302MOL0     H41632   5.609   7.463  10.199 -0.8577 -0.0970  1.7681
  302MOL0     H41633   5.738   7.585  10.210 -0.3735  0.5425 -0.6189
  302MOL0     H41634   5.781   7.370  10.581 -0.0582  2.4696 -0.5324
  302MOL0     H41635   5.878   7.192  10.706  1.8995 -0.3464  1.6960
  302MOL0     H41636   6.058   7.204  10.658  0.8404 -0.1385 -1.4664
  302MOL0     H41637   5.954   7.062  10.620  0.6249 -0.6340 -2.6493
  302MOL0     H41638   6.407   6.984  10.295  1.3814 -1.6727 -0.2468
  302MOL0     H41639   6.550   6.815  10.353  0.0783  0.2372 -0.8697
  302MOL0     H41640   6.597   6.685  10.744  3.1062  0.0141 -2.3615
  302MOL0     H41641   6.488   6.543  10.721 -1.5283  2.5917  0.1108
  302MOL0     H41642   6.651   6.425  10.590  1.6432  0.3590 -1.2901
  302MOL0     H41643   6.764   6.550  10.619 -1.2240  0.3428  0.9021
  302MOL0     H41644   6.671   6.400  10.865 -0.5856 -0.7738  0.2813
  302MOL0     H41645   6.794   6.528  10.835  0.4811  0.2907 -1.5193
  302MOL0     H41646   6.913   6.399  10.675 -0.6532 -1.3851 -1.4639
  302MOL0     H41647   6.812   6.256  10.686  3.1913 -2.5827  0.8033
  302MOL0     H41648   6.921   6.365  10.956 -1.9346 -1.9304  2.9911
  302MOL0     H41649   6.841   6.225  10.922  0.9798 -1.9795 -1.0281
  302MOL0     H41650   7.047   6.141  10.790  0.1954 -0.6979  0.9147
  302MOL0     H41651   7.091   6.213  10.944  0.9779 -2.6451 -1.1425
  302MOL0     H41652   7.128   6.360  10.677  2.1282  2.8556  0.4720
  302MOL0     H41653   7.241   6.268  10.772 -1.4872 -3.1989 -0.8992
  302MOL0     H41654   7.098   6.514  10.881 -1.2627 -2.2608 -0.9009
  302MOL0     H41655   7.266   6.513  10.824  0.0566  0.0863  0.4228
  302MOL0     H41656   6.324   6.694  10.693 -2.7482  1.2931 -0.4729
  302MOL0     H41657   6.163   6.878  10.650 -0.0501 -1.4573 -0.4792
  302MOL0     H41658   5.997   7.241  10.150 -2.3780  0.4822 -1.1798
  302MOL0     H41659   5.849   7.397  10.152  1.7859  0.8152  0.2197
  302MOL0     H41660   4.026   7.345  10.550 -0.3092 -0.2400 -2.7078
  302MOL0     H41661   3.935   7.215  10.371 -0.2539 -0.2218  1.8464
  302MOL0     H41662   4.111   7.009  10.056  2.8435  0.0117 -1.7276
  302MOL0     H41663   4.112   6.955   9.822 -1.3240  0.3116  0.2144
  302MOL0     H41664   3.958   6.654   9.532 -3.5471 -2.3206 -0.6489
  302MOL0     H41665   3.910   6.581   9.682 -0.1603 -1.0574 -1.1428
  302MOL0     H41666   3.782   6.782   9.752 -3.1440 -1.5948 -0.4446
  302MOL0     H41667   3.724   6.700   9.617 -0.1197  1.1587 -0.0266
  302MOL0     H41668   3.742   6.954   9.625  2.8823  2.0658  1.8583
  302MOL0     H41669   3.917   6.941   9.588 -0.3058 -0.5173  1.6733
  302MOL0     H41670   3.718   6.839   9.391 -0.3001  2.7520 -2.6060
  302MOL0     H41671   3.894   6.857   9.385  1.2271  2.4544  0.2115
  302MOL0     H41672   3.770   7.261   9.359 -0.5310  0.1359 -1.8807
  302MOL0     H41673   3.953   6.566   9.897  1.4201 -0.6793 -0.5021
  302MOL0     H41674   3.856   6.522  10.115 -2.4011  1.7786 -0.5420
  302MOL0     H41675   3.992   6.562  10.232 -2.3910 -1.7281  0.9665
  302MOL0     H41676   3.832   6.648  10.219 -1.6843 -1.6532 -1.6294
  303MOL0     O41677   8.453   3.013   4.492 -0.7072  0.4195 -0.1198
  303MOL0     C41678   8.572   3.005   4.519 -0.3857 -0.1038  0.4103
  303MOL0     O41679   8.642   3.093   4.602  0.2456  0.2777 -0.0262
  303MOL0     C41680   8.781   3.105   4.601 -0.6093 -0.2727  0.0651
  303MOL0     C41681   8.864   3.006   4.657  0.0788 -0.2322 -0.0319
  303MOL0     C41682   9.002   3.024   4.657  0.3040  0.2107  0.5570
  303MOL0     C41683   9.059   3.131   4.588 -0.0476 -0.5816  1.4498
  303MOL0     O41684   9.198   3.163   4.587 -0.0850 -1.2034  0.3837
  303MOL0     C41685   9.295   3.099   4.675  0.0090 -0.0023  0.3233
  303MOL0     C41686   9.275   3.150   4.817 -0.8750  0.3596 -0.6468
  303MOL0     C41687   9.295   3.299   4.839 -0.3113 -0.2836  0.1869
  303MOL0     C41688   9.438   3.349   4.820  0.4683  0.2457 -0.2200
  303MOL0     C41689   9.430   3.492   4.760 -0.3613 -0.2235  0.2408
  303MOL0     C41690   9.573   3.539   4.711  0.2786 -0.0656  0.9213
  303MOL0     C41691   9.623   3.465   4.594  0.3668  0.3963  0.9402
  303MOL0     C41692   9.770   3.475   4.567 -0.2643 -0.5882  0.8290
  303MOL0     N41693   9.817   3.383   4.459  0.2869  0.3849 -0.1881
  303MOL0     C41694   9.852   3.429   4.326 -0.0281 -0.3292 -0.6306
  303MOL0     C41695   9.933   3.334   4.269  0.2446  0.7762  0.0826
  303MOL0     C41696  10.008   3.350   4.140  0.4837  0.1245 -0.0102
  303MOL0     C41697  10.144   3.282   4.150  0.0562  0.0306 -0.0006
  303MOL0     C41698  10.253   3.327   4.047 -0.8668 -0.5200  0.0190
  303MOL0     C41699  10.302   3.481   4.047  0.1793  0.4525  0.0634
  303MOL0     O41700  10.336   3.511   4.177 -0.2577  0.1869 -0.1995
  303MOL0     C41701  10.473   3.500   4.213 -0.1823  0.2844 -0.2307
  303MOL0     C41702  10.562   3.602   4.182  0.5223  0.4885  0.2398
  303MOL0     C41703  10.702   3.583   4.204  0.4449  0.4331 -0.1660
  303MOL0     C41704  10.785   3.708   4.208 -0.1297  0.6323  0.3554
  303MOL0     C41705  10.750   3.456   4.240  0.1606  1.1507  0.3717
  303MOL0     C41706  10.894   3.415   4.256  0.5305 -0.1370  0.0593
  303MOL0     O41707  10.914   3.283   4.285 -1.1027  0.5662  0.0820
  303MOL0     C41708  11.046   3.239   4.278  0.9036 -0.0480 -1.6998
  303MOL0     C41709  11.134   3.277   4.173  0.0537  0.0117 -0.3246
  303MOL0     C41710  11.271   3.225   4.174  0.8914  0.6998  0.6210
  303MOL0     C41711  11.310   3.135   4.272 -0.8231 -0.5141 -0.3098
  303MOL0     O41712  11.441   3.095   4.271 -0.4726 -0.5431  0.3361
  303MOL0     C41713  11.524   3.098   4.390 -0.1917 -0.2811 -0.4787
  303MOL0     C41714  11.557   3.247   4.438  0.8751  0.3453  0.6756
  303MOL0     C41715  11.670   3.238   4.538 -0.2736 -0.4502 -0.4032
  303MOL0     C41716  11.700   3.385   4.594  0.5662 -0.0689  0.5839
  303MOL0     C41717  11.773   3.374   4.727  0.6092 -0.1048 -0.2705
  303MOL0     C41718  11.845   3.507   4.761 -0.1699  0.3986  0.5606
  303MOL0     C41719  11.930   3.513   4.890  0.4460 -0.8417  1.0260
  303MOL0     C41720  11.991   3.651   4.920 -0.1303  0.2028 -0.5067
  303MOL0    Cl41721  11.862   3.781   4.933 -0.1062 -0.5707  0.1227
  303MOL0     C41722  11.222   3.096   4.375  0.2205  0.2226 -0.7675
  303MOL0     C41723  11.082   3.145   4.372 -0.7103 -0.0947 -0.5539
  303MOL0     O41724  10.975   3.507   4.262  0.0230  0.1893  0.0354
  303MOL0     C41725  10.655   3.351   4.273  0.0606  0.3140 -0.4227
  303MOL0     C41726  10.521   3.377   4.263  1.1133 -0.4483 -0.5395
  303MOL0     N41727   9.927   3.230   4.359  0.2557  0.1019  0.5427
  303MOL0     N41728   9.869   3.262   4.472 -0.6044 -0.0445  0.1709
  303MOL0     C41729   8.977   3.218   4.515 -0.5000  0.0446  0.8048
  303MOL0     C41730   8.841   3.217   4.533  0.4254  0.4865 -0.0810
  303MOL0     C41731   8.643   2.908   4.437 -0.4592 -0.0897  0.3575
  303MOL0     C41732   8.714   2.963   4.326  0.7412 -0.2015 -1.1288
  303MOL0     C41733   8.771   2.879   4.235  0.9582  0.0057  0.7734
  303MOL0     C41734   8.769   2.739   4.249  0.6317  0.2529 -0.1571
  303MOL0     O41735   8.838   2.663   4.149 -0.0551  0.2435  0.2268
  303MOL0     C41736   8.830   2.525   4.173  0.5978  0.1915 -0.0627
  303MOL0     C41737   8.863   2.460   4.038 -0.3573  0.6607  0.9397
  303MOL0     C41738   9.009   2.464   4.010  0.1948  0.7643  0.7852
  303MOL0     C41739   9.059   2.597   3.951  0.5963  0.1565  0.5084
  303MOL0     C41740   8.999   2.621   3.822 -0.9184 -0.3566  0.0435
  303MOL0     C41741   8.941   2.645   3.721  0.7986 -0.3312  0.7725
  303MOL0     C41742   8.705   2.689   4.363 -0.1844 -0.0205 -0.0947
  303MOL0     C41743   8.645   2.772   4.461 -0.5305 -1.2201 -0.9258
  303MOL0     C41744   8.597   2.714   4.592 -1.0750  0.1700 -0.2927
  303MOL0     H41745   8.817   2.924   4.709  1.7743  0.0721  2.1182
  303MOL0     H41746   9.068   2.945   4.691  1.5279 -0.2068 -2.5090
  303MOL0     H41747   9.397   3.123   4.644 -0.4043 -0.2111 -1.2491
  303MOL0     H41748   9.286   2.990   4.678  0.7023 -0.0593  0.4422
  303MOL0     H41749   9.180   3.118   4.862  0.9805 -1.7365  2.1537
  303MOL0     H41750   9.348   3.095   4.876  1.0034  0.8690 -2.3969
  303MOL0     H41751   9.228   3.338   4.763 -0.7316 -0.0852  0.6518
  303MOL0     H41752   9.264   3.314   4.943 -1.3733 -0.0535 -0.1449
  303MOL0     H41753   9.487   3.360   4.917  1.9698  3.4332 -1.1886
  303MOL0     H41754   9.499   3.286   4.755  1.1759  2.5066 -1.8700
  303MOL0     H41755   9.391   3.561   4.835 -3.9061 -0.0313 -1.5874
  303MOL0     H41756   9.363   3.493   4.674  0.5836 -0.0662 -0.5131
  303MOL0     H41757   9.565   3.642   4.675 -2.2172 -0.5873 -0.2465
  303MOL0     H41758   9.652   3.529   4.786  4.1170  2.6673 -2.3065
  303MOL0     H41759   9.575   3.506   4.505  0.2517 -3.2341 -0.8685
  303MOL0     H41760   9.601   3.359   4.612  0.2840  0.3863  0.7813
  303MOL0     H41761   9.792   3.581   4.550 -2.5148 -0.2159 -0.1825
  303MOL0     H41762   9.837   3.453   4.651 -0.2849 -0.0550  0.9845
  303MOL0     H41763   9.823   3.527   4.291 -2.3519 -0.5903  0.3937
  303MOL0     H41764  10.016   3.456   4.115  0.1282  0.2029  0.1912
  303MOL0     H41765   9.942   3.306   4.064 -0.6233 -0.4156  1.2149
  303MOL0     H41766  10.176   3.309   4.251  1.0591  1.2273 -0.6081
  303MOL0     H41767  10.129   3.174   4.138 -0.9118  0.3056 -1.5928
  303MOL0     H41768  10.340   3.266   4.075 -1.3149 -2.2853 -2.1551
  303MOL0     H41769  10.216   3.306   3.946  0.9183 -2.2614 -0.3418
  303MOL0     H41770  10.389   3.494   3.981  1.6463  1.6067  2.1114
  303MOL0     H41771  10.218   3.541   4.012  1.4799 -0.3897 -5.7032
  303MOL0     H41772  10.520   3.700   4.163  1.5724  0.6542 -1.3289
  303MOL0     H41773  10.855   3.709   4.124  0.7506 -2.1650  0.9526
  303MOL0     H41774  10.828   3.720   4.308 -1.5558  0.0039  1.0717
  303MOL0     H41775  10.726   3.799   4.192 -2.4220 -0.7513  0.4944
  303MOL0     H41776  11.107   3.341   4.090  2.3612 -0.1270 -1.2499
  303MOL0     H41777  11.341   3.258   4.098  0.4393  1.4819  0.5363
  303MOL0     H41778  11.483   3.052   4.480  2.7231  2.7784  2.7461
  303MOL0     H41779  11.619   3.045   4.379 -1.0489 -1.7590 -1.0171
  303MOL0     H41780  11.582   3.312   4.354  1.5756 -0.0767  0.5557
  303MOL0     H41781  11.461   3.276   4.482  0.3436 -0.7065  0.2592
  303MOL0     H41782  11.761   3.202   4.490 -0.4866 -0.5845 -0.7152
  303MOL0     H41783  11.643   3.167   4.617 -1.6336  0.4306 -0.0319
  303MOL0     H41784  11.605   3.439   4.588  0.7651  0.1972 -3.9235
  303MOL0     H41785  11.765   3.434   4.521 -0.6769  0.3358 -0.2853
  303MOL0     H41786  11.704   3.345   4.807  0.5776 -1.7745 -0.8735
  303MOL0     H41787  11.852   3.299   4.716 -1.0771 -1.8735 -0.9469
  303MOL0     H41788  11.765   3.581   4.768 -0.8724 -0.0266 -1.9390
  303MOL0     H41789  11.911   3.534   4.678  0.6301  0.5940  1.2553
  303MOL0     H41790  12.015   3.444   4.891 -0.2850 -1.7569  1.3162
  303MOL0     H41791  11.869   3.482   4.975 -1.0400 -3.4282 -0.8231
  303MOL0     H41792  12.066   3.677   4.844  2.1927 -1.2445  1.1480
  303MOL0     H41793  12.042   3.631   5.015 -0.1513 -2.6743 -1.0198
  303MOL0     H41794  11.266   3.029   4.448  1.8523 -0.0913 -1.9933
  303MOL0     H41795  11.011   3.103   4.442 -1.2345 -1.1493 -1.6742
  303MOL0     H41796  10.685   3.258   4.320  0.2759 -0.3948 -1.9227
  303MOL0     H41797  10.447   3.306   4.300  0.6165 -1.3501 -3.0982
  303MOL0     H41798   9.021   3.295   4.452 -0.5964 -1.8104 -1.7228
  303MOL0     H41799   8.785   3.299   4.490  3.0273  2.7919  0.6329
  303MOL0     H41800   8.706   3.070   4.307  1.1214  0.0871  0.2729
  303MOL0     H41801   8.809   2.916   4.141 -1.0288 -1.1037 -0.5368
  303MOL0     H41802   8.898   2.484   4.249 -0.6291  0.9450  1.5201
  303MOL0     H41803   8.735   2.487   4.210  2.4264 -1.3466  3.6209
  303MOL0     H41804   8.808   2.498   3.951  0.7991 -0.2734 -0.2502
  303MOL0     H41805   8.834   2.354   4.043 -1.2543  0.9112  1.1850
  303MOL0     H41806   9.066   2.446   4.101  2.9486 -0.2833 -1.0061
  303MOL0     H41807   9.019   2.382   3.938 -1.8492  0.4514  0.7941
  303MOL0     H41808   9.163   2.573   3.930  0.1927 -1.4427  0.2133
  303MOL0     H41809   9.054   2.680   4.022  1.0028  0.0129  0.7085
  303MOL0     H41810   8.894   2.668   3.628  0.9811 -1.8998  0.2517
  303MOL0     H41811   8.696   2.584   4.388  0.0488  0.0890  0.4702
  303MOL0     H41812   8.499   2.763   4.604  0.1424  2.9981 -0.9638
  303MOL0     H41813   8.583   2.606   4.598 -1.2090  0.2234  0.4860
  303MOL0     H41814   8.660   2.746   4.676  0.9752 -2.0003 -0.9159
  304MOL0     O41815   9.791   7.041  10.499  0.5374 -0.5327 -0.4198
  304MOL0     C41816   9.731   7.064  10.606  0.1617 -0.1821  1.3645
  304MOL0     O41817   9.786   7.119  10.716  0.4257 -0.0127  0.5065
  304MOL0     C41818   9.924   7.134  10.718 -0.6866 -0.2166  0.3053
  304MOL0     C41819   9.977   7.263  10.764 -0.0029  0.0508 -0.4987
  304MOL0     C41820  10.119   7.268  10.785 -0.2978 -0.0422  0.1389
  304MOL0     C41821  10.204   7.163  10.752  0.7718 -0.2323 -0.6206
  304MOL0     O41822  10.343   7.193  10.762  0.3772  0.2090  0.1199
  304MOL0     C41823  10.437   7.134  10.666 -0.5012  0.4793 -0.1912
  304MOL0     C41824  10.576   7.204  10.683  0.3853  0.3068 -0.5729
  304MOL0     C41825  10.698   7.116  10.634  1.0436  0.7732  0.2749
  304MOL0     C41826  10.820   7.213  10.613 -0.0600  0.2058 -0.2841
  304MOL0     C41827  10.946   7.128  10.602 -0.9057  0.8750 -0.1427
  304MOL0     C41828  11.065   7.213  10.553  0.6965 -0.2279 -0.1761
  304MOL0     C41829  11.198   7.140  10.569 -1.0837  0.1650  0.4814
  304MOL0     C41830  11.220   6.991  10.516  0.4415 -0.8661 -1.2086
  304MOL0     N41831  11.368   6.964  10.495  0.1186  0.0274  0.7305
  304MOL0     C41832  11.438   6.990  10.376  0.5163 -0.3583  0.4769
  304MOL0     C41833  11.552   6.925  10.399 -0.5062 -0.2752  0.1479
  304MOL0     C41834  11.664   6.907  10.304 -0.0437 -0.2948  0.2945
  304MOL0     C41835  11.808   6.945  10.367  0.8104 -0.4178 -0.1890
  304MOL0     C41836  11.916   6.885  10.277  0.0987 -0.3019  0.2993
  304MOL0     C41837  12.048   6.906  10.344 -0.0953 -0.4611  0.2284
  304MOL0     O41838  12.093   7.028  10.281 -0.1013  0.9077  0.8282
  304MOL0     C41839  12.209   7.090  10.326  0.3557 -0.7335 -0.4451
  304MOL0     C41840  12.313   7.021  10.390  0.2382 -0.2691 -0.0568
  304MOL0     C41841  12.437   7.084  10.421  1.0440 -0.8800  0.0706
  304MOL0     C41842  12.540   7.013  10.502 -0.8214  0.1404  0.1997
  304MOL0     C41843  12.444   7.229  10.404 -0.1984  0.0236  0.2214
  304MOL0     C41844  12.556   7.312  10.458 -0.2257  0.2493  0.3624
  304MOL0     O41845  12.617   7.275  10.575  0.2973 -0.1542 -0.7700
  304MOL0     C41846  12.724   7.358  10.606 -0.1488 -0.2807 -0.6886
  304MOL0     C41847  12.718   7.437  10.726  0.2670  0.8221  0.0797
  304MOL0     C41848  12.836   7.499  10.772 -0.4210 -0.2660 -0.0530
  304MOL0     C41849  12.961   7.481  10.714 -0.5475  0.2684 -0.6319
  304MOL0     O41850  13.065   7.559  10.766  0.1034  0.3601  0.6155
  304MOL0     C41851  13.196   7.545  10.712 -0.3770  0.6455 -1.3921
  304MOL0     C41852  13.286   7.650  10.785  0.7602 -0.2505 -0.0585
  304MOL0     C41853  13.434   7.615  10.750  0.6962  0.4141 -0.1579
  304MOL0     C41854  13.519   7.656  10.863 -0.2818 -0.2650  0.1427
  304MOL0     C41855  13.670   7.656  10.819 -0.8554  0.5332  0.1343
  304MOL0     C41856  13.754   7.677  10.942 -0.0520 -0.2863  0.0307
  304MOL0     C41857  13.892   7.721  10.903 -0.7105 -0.4574  0.1762
  304MOL0     C41858  13.964   7.737  11.034 -0.1457  0.8770  0.8095
  304MOL0    Cl41859  14.138   7.749  10.983  0.0760 -0.3863 -0.1280
  304MOL0     C41860  12.973   7.385  10.611  0.3557 -0.5683  0.2177
  304MOL0     C41861  12.854   7.332  10.554 -0.1859 -0.2069 -0.2047
  304MOL0     O41862  12.594   7.402  10.381 -0.1178  0.9459 -0.4578
  304MOL0     C41863  12.342   7.293  10.338  0.3289 -0.1006 -0.5017
  304MOL0     C41864  12.219   7.229  10.300 -0.3694 -0.9279 -0.4242
  304MOL0     N41865  11.562   6.892  10.531  0.3874  0.2794  0.2841
  304MOL0     N41866  11.446   6.915  10.591 -1.3765  0.5005 -0.1723
  304MOL0     C41867  10.154   7.045  10.704  0.1163  0.1587 -0.7238
  304MOL0     C41868  10.019   7.030  10.688  0.3372 -0.7551 -0.2172
  304MOL0     C41869   9.585   7.040  10.617 -0.4787 -1.0793 -0.0448
  304MOL0     C41870   9.509   7.128  10.692  0.1298 -0.0039 -0.2866
  304MOL0     C41871   9.371   7.113  10.698  0.1818  0.9258 -0.0435
  304MOL0     C41872   9.314   7.000  10.637 -0.3727 -0.3764 -0.6778
  304MOL0     O41873   9.186   6.966  10.655  0.2818 -0.1370 -1.0159
  304MOL0     C41874   9.085   7.066  10.674 -0.0814  0.3274  0.7800
  304MOL0     C41875   8.944   7.008  10.668  0.3559 -0.1864 -0.2762
  304MOL0     C41876   8.929   6.915  10.552 -0.4929 -0.4274  0.3741
  304MOL0     C41877   8.821   6.812  10.554 -0.3930  0.3466  0.0865
  304MOL0     C41878   8.794   6.751  10.418 -0.5557 -0.5146 -0.2512
  304MOL0     C41879   8.766   6.699  10.311  0.1799  0.0281 -0.2285
  304MOL0     C41880   9.387   6.907  10.562 -0.1063 -1.3003  0.2381
  304MOL0     C41881   9.519   6.927  10.554 -0.2544 -0.8259 -0.2336
  304MOL0     C41882   9.602   6.816  10.487  0.2412  0.7679  0.3595
  304MOL0     H41883   9.914   7.352  10.769 -0.3217 -0.0520 -2.0804
  304MOL0     H41884  10.164   7.364  10.807 -2.8267  1.3972 -0.5807
  304MOL0     H41885  10.392   7.147  10.567  1.7786  2.6414 -1.0478
  304MOL0     H41886  10.436   7.025  10.681 -2.1045  0.4915 -0.0434
  304MOL0     H41887  10.566   7.290  10.616  0.4308  0.0273 -0.9421
  304MOL0     H41888  10.571   7.253  10.781 -0.6089  0.4474 -0.6758
  304MOL0     H41889  10.724   7.043  10.711 -0.6747  1.9198  2.0080
  304MOL0     H41890  10.667   7.053  10.549  1.5427 -0.6482  1.1071
  304MOL0     H41891  10.802   7.264  10.517 -0.1551 -1.6673 -1.3042
  304MOL0     H41892  10.826   7.284  10.696 -1.0357 -2.2465  2.0008
  304MOL0     H41893  10.935   7.049  10.527  1.1322 -0.2071  0.6216
  304MOL0     H41894  10.973   7.066  10.688  1.8835  0.8669 -0.9402
  304MOL0     H41895  11.060   7.234  10.446  0.0344 -2.4011 -0.6174
  304MOL0     H41896  11.072   7.306  10.610  0.9795  0.0188 -0.6065
  304MOL0     H41897  11.197   7.133  10.678 -4.0425 -2.4788  0.4409
  304MOL0     H41898  11.280   7.190  10.517 -0.3643 -0.9113  0.5338
  304MOL0     H41899  11.177   6.915  10.582  1.1479  0.0819  0.4019
  304MOL0     H41900  11.170   6.966  10.422 -2.7617 -2.5398  0.7534
  304MOL0     H41901  11.401   7.029  10.282 -2.3407  1.2171  2.1139
  304MOL0     H41902  11.655   6.982  10.224  2.1740  3.3249  3.1107
  304MOL0     H41903  11.649   6.806  10.265 -1.1494 -1.0422  2.5217
  304MOL0     H41904  11.812   7.054  10.378  0.7745 -0.4522  0.1692
  304MOL0     H41905  11.822   6.908  10.469 -2.8493 -0.0093  0.6088
  304MOL0     H41906  11.908   6.776  10.276 -0.7590 -0.2428  0.6149
  304MOL0     H41907  11.921   6.919  10.173 -2.6333  1.5109  0.6521
  304MOL0     H41908  12.045   6.915  10.453  4.5022 -0.6456  0.5742
  304MOL0     H41909  12.112   6.820  10.323  0.7695  0.0122  0.8807
  304MOL0     H41910  12.298   6.916  10.410  1.4201 -0.7316 -1.4753
  304MOL0     H41911  12.638   7.044  10.466 -1.1558 -0.3754 -1.2209
  304MOL0     H41912  12.524   6.905  10.490  0.1107 -0.1931  1.6954
  304MOL0     H41913  12.531   7.033  10.609  3.6041 -4.1460  1.7532
  304MOL0     H41914  12.621   7.443  10.775  0.0392 -1.4807 -0.0037
  304MOL0     H41915  12.827   7.569  10.855  0.3900  0.8497 -0.8900
  304MOL0     H41916  13.232   7.445  10.740 -1.0738  0.2808 -1.7703
  304MOL0     H41917  13.191   7.557  10.604 -3.8700 -1.1981 -1.5626
  304MOL0     H41918  13.260   7.747  10.742 -0.5313 -0.6720 -0.2658
  304MOL0     H41919  13.273   7.660  10.893 -1.4793  0.4784 -0.3516
  304MOL0     H41920  13.460   7.651  10.650  0.3910 -3.5603 -1.8618
  304MOL0     H41921  13.441   7.506  10.748 -0.2578  0.3499 -0.7304
  304MOL0     H41922  13.504   7.584  10.944 -2.3629 -3.1802 -2.5909
  304MOL0     H41923  13.498   7.758  10.898  1.1643  0.4387 -0.9532
  304MOL0     H41924  13.692   7.558  10.776  1.8373  0.2457  1.8623
  304MOL0     H41925  13.680   7.732  10.741 -3.6368 -0.7869 -1.6562
  304MOL0     H41926  13.759   7.582  10.996  0.3970  0.1073  0.6913
  304MOL0     H41927  13.707   7.750  11.008  0.5599  0.4466 -0.3347
  304MOL0     H41928  13.896   7.817  10.852 -0.0551  0.7355  2.3756
  304MOL0     H41929  13.952   7.650  10.844  0.4987  1.8942 -1.5745
  304MOL0     H41930  13.973   7.650  11.099  2.9710  1.5122  1.4025
  304MOL0     H41931  13.935   7.828  11.087 -0.4732  0.4892  1.2999
  304MOL0     H41932  13.072   7.355  10.576  0.1289 -2.5702  1.1172
  304MOL0     H41933  12.850   7.257  10.476 -0.4558 -0.4917  0.0760
  304MOL0     H41934  12.356   7.395  10.303 -1.6374  0.5048  0.3610
  304MOL0     H41935  12.143   7.279  10.241 -1.8408 -0.4311  1.7786
  304MOL0     H41936  10.208   6.958  10.669  1.1043 -1.2661  3.7102
  304MOL0     H41937   9.971   6.936  10.663 -3.7844  1.2804 -0.8364
  304MOL0     H41938   9.557   7.209  10.745  0.8692 -1.1482  0.8419
  304MOL0     H41939   9.307   7.182  10.752  0.3885 -0.7729  2.5500
  304MOL0     H41940   9.098   7.115  10.771 -0.9714  1.0008  0.5840
  304MOL0     H41941   9.092   7.136  10.591  2.4870 -1.1181 -0.3114
  304MOL0     H41942   8.871   7.088  10.669  0.2121 -0.3116 -0.8431
  304MOL0     H41943   8.937   6.959  10.766 -0.5348  1.0273  0.2811
  304MOL0     H41944   8.916   6.976  10.461  0.0705 -1.6505 -0.5542
  304MOL0     H41945   9.024   6.865  10.531  1.6036  1.9916  3.2451
  304MOL0     H41946   8.733   6.865  10.591 -0.3246 -0.0106  0.7710
  304MOL0     H41947   8.853   6.732  10.621 -0.2696 -0.0806 -0.4831
  304MOL0     H41948   8.735   6.654  10.219  0.0543  0.6788 -0.5073
  304MOL0     H41949   9.344   6.819  10.515 -1.7483 -0.1156 -0.5554
  304MOL0     H41950   9.629   6.831  10.382 -1.2413 -0.0471 -0.1792
  304MOL0     H41951   9.699   6.804  10.536  1.4709  2.8150 -1.3675
  304MOL0     H41952   9.566   6.713  10.494  1.3533  0.2388 -1.1748
  305MOL0     O41953   5.196  10.578   9.370 -0.4165 -0.8647 -0.8383
  305MOL0     C41954   5.318  10.588   9.408  0.5287 -0.1301  0.3977
  305MOL0     O41955   5.419  10.636   9.324 -0.3409 -0.1512 -0.4777
  305MOL0     C41956   5.439  10.586   9.194  0.4145  0.2172  0.7406
  305MOL0     C41957   5.359  10.494   9.122  0.5042 -0.1914 -0.9015
  305MOL0     C41958   5.388  10.446   8.995  0.0834 -0.0709  0.6233
  305MOL0     C41959   5.496  10.503   8.920  0.1490  1.2230 -0.8450
  305MOL0     O41960   5.522  10.460   8.803  0.6879 -0.3303  0.1709
  305MOL0     C41961   5.521  10.556   8.708  0.5490 -0.4377  1.1382
  305MOL0     C41962   5.610  10.505   8.597 -0.0593  0.9947  0.7855
  305MOL0     C41963   5.737  10.442   8.641  0.7791 -0.6393  0.0969
  305MOL0     C41964   5.844  10.443   8.530  0.4043  0.2194  0.3824
  305MOL0     C41965   5.978  10.407   8.583 -0.4556 -0.4170  0.0068
  305MOL0     C41966   6.098  10.475   8.510  1.1013  0.1048 -0.8932
  305MOL0     C41967   6.239  10.439   8.576 -1.0301 -0.4846  0.8147
  305MOL0     C41968   6.287  10.302   8.567 -0.0464  0.4994  0.0183
  305MOL0     N41969   6.429  10.299   8.608 -0.3868 -0.2643 -0.0794
  305MOL0     C41970   6.466  10.236   8.729 -0.0061 -0.1621 -0.4288
  305MOL0     C41971   6.602  10.252   8.732  0.4716  0.2985  0.0611
  305MOL0     C41972   6.693  10.204   8.848  0.0213  0.3820 -0.0720
  305MOL0     C41973   6.846  10.246   8.832  0.0209  0.2141 -0.3858
  305MOL0     C41974   6.908  10.272   8.978  0.0382 -0.5545  0.0423
  305MOL0     C41975   7.057  10.301   8.983 -0.0638 -0.6491  0.0149
  305MOL0     O41976   7.132  10.186   8.948  0.0911  0.2029 -0.0995
  305MOL0     C41977   7.268  10.188   8.950 -0.3669  0.5882 -0.3080
  305MOL0     C41978   7.325  10.075   8.890  0.3411  0.8132  0.5502
  305MOL0     C41979   7.461  10.049   8.870  0.5686 -0.8807 -0.3105
  305MOL0     C41980   7.510   9.922   8.804 -0.0625  0.2095  0.4002
  305MOL0     C41981   7.543  10.155   8.918  0.3425 -0.8149 -0.9255
  305MOL0     C41982   7.689  10.153   8.902  0.1672  0.2941  0.6841
  305MOL0     O41983   7.734  10.084   8.796 -0.3958  0.0301 -0.3458
  305MOL0     C41984   7.868  10.057   8.780 -0.3136 -0.1399 -0.2669
  305MOL0     C41985   7.974  10.153   8.772 -0.4606  0.3938 -0.2837
  305MOL0     C41986   8.103  10.115   8.771  0.0444  0.3139  0.5430
  305MOL0     C41987   8.135   9.979   8.758  0.1907  0.2969 -1.3523
  305MOL0     O41988   8.260   9.935   8.735 -0.3707 -0.0526  0.0465
  305MOL0     C41989   8.363   9.999   8.812 -0.0689 -0.3070 -0.6777
  305MOL0     C41990   8.482   9.907   8.824 -0.5322 -0.0349  0.4395
  305MOL0     C41991   8.449   9.786   8.897 -0.1408 -1.2035 -0.0764
  305MOL0     C41992   8.587   9.724   8.943 -0.4472 -0.1338 -1.0256
  305MOL0     C41993   8.571   9.656   9.070 -0.6081 -0.1520  0.3793
  305MOL0     C41994   8.575   9.743   9.201 -0.4676  0.4816  0.1561
  305MOL0     C41995   8.603   9.664   9.324 -0.0787 -0.0941 -0.1147
  305MOL0     C41996   8.682   9.737   9.440 -0.6976 -0.5305  0.8510
  305MOL0    Cl41997   8.840   9.800   9.393 -0.0600 -0.0584 -0.4254
  305MOL0     C41998   8.038   9.875   8.749  0.0991 -0.9210 -0.6108
  305MOL0     C41999   7.901   9.925   8.772  0.2501  0.2970  0.7159
  305MOL0     O42000   7.759  10.227   8.967  0.5312  0.5695 -0.3211
  305MOL0     C42001   7.484  10.271   8.974 -0.0507  0.3895 -0.3818
  305MOL0     C42002   7.350  10.295   8.993  0.5559  0.4226 -0.2370
  305MOL0     N42003   6.644  10.324   8.619  0.5760  1.0978 -0.0368
  305MOL0     N42004   6.536  10.369   8.562  0.5143 -0.4016  0.8117
  305MOL0     C42005   5.569  10.601   8.988 -0.4251 -0.2483 -0.2689
  305MOL0     C42006   5.551  10.637   9.124 -0.5794  0.6568  0.3431
  305MOL0     C42007   5.349  10.568   9.550  0.3863  1.2382 -0.3108
  305MOL0     C42008   5.456  10.646   9.601 -0.1165  0.2141  0.0010
  305MOL0     C42009   5.500  10.649   9.737 -0.6317  0.1288  0.6562
  305MOL0     C42010   5.431  10.556   9.825  0.6953 -0.2509 -0.4213
  305MOL0     O42011   5.463  10.540   9.957  0.1729  0.0669 -0.3509
  305MOL0     C42012   5.584  10.596  10.015 -0.8015 -0.4772 -0.5557
  305MOL0     C42013   5.628  10.543  10.155 -0.1569  0.2646 -0.5864
  305MOL0     C42014   5.511  10.581  10.253  0.0331 -0.3470  0.3277
  305MOL0     C42015   5.569  10.588  10.395  0.6924 -0.4010 -0.4941
  305MOL0     C42016   5.566  10.455  10.464 -0.5701 -0.4601  0.1947
  305MOL0     C42017   5.567  10.343  10.505 -0.9854 -0.2296  0.1022
  305MOL0     C42018   5.331  10.474   9.772  0.4371  0.3527 -1.0501
  305MOL0     C42019   5.283  10.481   9.643  0.3354  0.4326  0.2006
  305MOL0     C42020   5.172  10.388   9.606  0.1455 -0.3318 -0.1274
  305MOL0     H42021   5.265  10.456   9.162  1.7196 -0.7140  1.6645
  305MOL0     H42022   5.320  10.377   8.947 -1.1737  1.1863  0.5255
  305MOL0     H42023   5.552  10.655   8.741  1.4387  0.7535 -2.7778
  305MOL0     H42024   5.419  10.568   8.668  0.8145 -0.4346  0.4505
  305MOL0     H42025   5.560  10.436   8.527  0.8652  1.0559  0.0425
  305MOL0     H42026   5.636  10.595   8.541  0.6488 -0.2110 -0.9399
  305MOL0     H42027   5.786  10.500   8.721  2.4547 -1.0385 -0.6060
  305MOL0     H42028   5.719  10.341   8.678  0.2107 -0.4391  0.3776
  305MOL0     H42029   5.813  10.374   8.451  3.3394 -0.8020  0.0118
  305MOL0     H42030   5.849  10.549   8.502  2.5276  0.0677  0.0199
  305MOL0     H42031   5.992  10.300   8.569 -0.6269 -0.4785  0.3049
  305MOL0     H42032   5.977  10.435   8.689 -0.4246 -0.7916  0.1065
  305MOL0     H42033   6.084  10.454   8.404 -2.2610  0.4589 -0.6357
  305MOL0     H42034   6.081  10.583   8.517  1.5357  0.1632 -0.6810
  305MOL0     H42035   6.240  10.477   8.678 -2.8115 -0.2602  0.7840
  305MOL0     H42036   6.315  10.488   8.515  0.0728 -0.6801  2.0075
  305MOL0     H42037   6.226  10.235   8.628 -0.5617 -1.7542 -2.7587
  305MOL0     H42038   6.286  10.262   8.466 -0.3789 -0.0543  0.2360
  305MOL0     H42039   6.405  10.177   8.797  0.5092 -0.4130 -0.1805
  305MOL0     H42040   6.689  10.095   8.858 -0.3660  0.4384  0.4300
  305MOL0     H42041   6.656  10.248   8.941 -2.5015 -2.7592  0.6198
  305MOL0     H42042   6.907  10.169   8.784 -1.3181 -1.3784  0.3823
  305MOL0     H42043   6.860  10.334   8.768 -1.5108  0.5800 -0.2461
  305MOL0     H42044   6.863  10.359   9.026 -0.5368 -1.2534  0.7984
  305MOL0     H42045   6.887  10.186   9.043 -2.2054 -0.0701  0.0388
  305MOL0     H42046   7.078  10.385   8.916  1.3988  0.7735  2.1225
  305MOL0     H42047   7.086  10.322   9.087  0.2615 -2.3316  0.2908
  305MOL0     H42048   7.249  10.009   8.850 -0.8297  1.3656  1.7774
  305MOL0     H42049   7.427   9.853   8.788 -1.7490  2.2767 -0.3241
  305MOL0     H42050   7.567   9.868   8.880 -0.5243  0.5183  0.9751
  305MOL0     H42051   7.555   9.946   8.707 -0.5854 -0.0598  0.0835
  305MOL0     H42052   7.956  10.260   8.775  1.2758  0.6875  1.3899
  305MOL0     H42053   8.182  10.188   8.782 -0.3684  0.5370  2.4576
  305MOL0     H42054   8.398  10.091   8.765  0.7985 -0.6027 -0.6190
  305MOL0     H42055   8.326  10.030   8.910 -1.4440 -2.5115 -0.4222
  305MOL0     H42056   8.515   9.886   8.722 -0.0640 -2.9521  1.1033
  305MOL0     H42057   8.558   9.970   8.872 -0.9440  0.3410  0.6040
  305MOL0     H42058   8.399   9.716   8.829 -3.3153 -1.0454  1.9090
  305MOL0     H42059   8.391   9.809   8.987  0.7742 -1.2772  0.5471
  305MOL0     H42060   8.672   9.792   8.952  1.2962 -2.3807  1.0093
  305MOL0     H42061   8.612   9.653   8.863  1.5487 -0.3191 -0.2900
  305MOL0     H42062   8.470   9.614   9.068 -0.6791 -0.0826  1.5100
  305MOL0     H42063   8.649   9.580   9.073  0.9199  1.3578 -0.0580
  305MOL0     H42064   8.487   9.808   9.208  0.8542  2.2171  1.8729
  305MOL0     H42065   8.655   9.818   9.195 -0.4841  0.3952 -1.9607
  305MOL0     H42066   8.672   9.590   9.281 -1.0260 -0.5931 -0.8231
  305MOL0     H42067   8.509   9.623   9.363  1.0501 -0.9422  1.8666
  305MOL0     H42068   8.696   9.657   9.513  3.2224 -0.4741  0.3365
  305MOL0     H42069   8.626   9.822   9.481  1.2453  0.9432  0.5456
  305MOL0     H42070   8.065   9.770   8.747  1.8338 -0.5204 -0.0322
  305MOL0     H42071   7.819   9.854   8.783  0.8962 -0.2447  2.4688
  305MOL0     H42072   7.547  10.351   9.012  0.3718 -0.6084  1.0807
  305MOL0     H42073   7.303  10.388   9.023  2.8767  1.8300 -0.6995
  305MOL0     H42074   5.646  10.657   8.936 -2.5011  3.2709  0.1182
  305MOL0     H42075   5.611  10.713   9.172  0.0343 -1.7297  3.7414
  305MOL0     H42076   5.516  10.703   9.530 -1.1308  0.4520 -0.6847
  305MOL0     H42077   5.585  10.708   9.770 -0.9092  1.9334 -1.6568
  305MOL0     H42078   5.670  10.590   9.948  1.4287 -0.4965  2.1439
  305MOL0     H42079   5.572  10.705  10.010 -0.9684 -0.4583  0.0781
  305MOL0     H42080   5.721  10.590  10.189  0.6444 -2.0852  0.6996
  305MOL0     H42081   5.652  10.436  10.157 -0.7437  0.1301 -0.5229
  305MOL0     H42082   5.466  10.678  10.231  1.1998 -0.2687 -1.9969
  305MOL0     H42083   5.439  10.500  10.238  0.4983 -0.2182 -3.4726
  305MOL0     H42084   5.492  10.645  10.448  1.2587  1.1515 -1.2627
  305MOL0     H42085   5.663  10.645  10.391 -0.4077  1.5449  0.0532
  305MOL0     H42086   5.573  10.240  10.534 -0.2752 -0.2586 -0.1253
  305MOL0     H42087   5.287  10.400   9.838 -1.9704  2.0752 -0.5904
  305MOL0     H42088   5.098  10.417   9.532  0.3151 -0.1390 -0.2214
  305MOL0     H42089   5.221  10.300   9.564 -0.4478 -0.8312  0.2055
  305MOL0     H42090   5.110  10.366   9.693 -1.1497  1.8478 -0.4261
  306MOL0     O42091   8.597   7.568  10.544  0.7895  0.2891 -0.0612
  306MOL0     C42092   8.561   7.458  10.502 -0.0627 -0.4100  0.6414
  306MOL0     O42093   8.650   7.363  10.477  0.0644 -0.1495  0.4365
  306MOL0     C42094   8.778   7.377  10.506  0.4654 -0.6458  0.1725
  306MOL0     C42095   8.876   7.406  10.415  0.6630  0.6155 -0.4808
  306MOL0     C42096   9.004   7.429  10.459  0.2211  0.1241 -0.4682
  306MOL0     C42097   9.041   7.400  10.594  0.3062 -0.0110 -0.1336
  306MOL0     O42098   9.168   7.388  10.634  0.5245  0.0072  0.5023
  306MOL0     C42099   9.268   7.470  10.573 -0.1102 -0.2863 -0.4235
  306MOL0     C42100   9.383   7.495  10.673  0.3956 -0.2489 -0.0943
  306MOL0     C42101   9.510   7.560  10.609  0.1824  0.2424 -0.5543
  306MOL0     C42102   9.545   7.496  10.472  0.0686  0.3920  0.1435
  306MOL0     C42103   9.687   7.514  10.419 -0.2959  0.6630 -0.7603
  306MOL0     C42104   9.724   7.660  10.389 -0.2956 -0.6591 -1.0853
  306MOL0     C42105   9.866   7.673  10.336 -0.0801 -0.3111  0.9892
  306MOL0     C42106   9.897   7.819  10.304 -0.6480 -0.6688 -0.1937
  306MOL0     N42107  10.036   7.830  10.245  0.2859 -0.1320  0.2513
  306MOL0     C42108  10.081   7.773  10.128  0.0807 -0.5011  0.1831
  306MOL0     C42109  10.210   7.821  10.116  1.0454 -0.9997  0.5339
  306MOL0     C42110  10.301   7.789   9.994  0.4540 -0.6345 -0.1726
  306MOL0     C42111  10.431   7.709  10.038 -0.0328  0.0779 -0.9098
  306MOL0     C42112  10.526   7.702   9.917 -0.3026 -0.8029  0.5615
  306MOL0     C42113  10.624   7.593   9.929 -0.1087 -0.1030  0.5434
  306MOL0     O42114  10.737   7.618   9.835 -0.6616  0.1440  0.0752
  306MOL0     C42115  10.854   7.684   9.885 -0.6062  0.0174  0.7401
  306MOL0     C42116  10.864   7.743  10.006 -0.0791  1.1031 -0.8326
  306MOL0     C42117  10.989   7.787  10.062  0.3869  0.0134  0.1592
  306MOL0     C42118  10.992   7.854  10.190 -0.5633 -0.3182 -0.3640
  306MOL0     C42119  11.107   7.774   9.982  0.2238 -0.0141 -0.1028
  306MOL0     C42120  11.247   7.816  10.022  0.1972 -0.3528 -0.7178
  306MOL0     O42121  11.339   7.803   9.921 -0.5094 -0.1265 -0.0103
  306MOL0     C42122  11.473   7.833   9.940 -1.0766  0.2767 -0.4391
  306MOL0     C42123  11.555   7.867   9.830  0.4228  1.3372 -0.4111
  306MOL0     C42124  11.696   7.892   9.834 -0.7073  1.0800 -0.1135
  306MOL0     C42125  11.764   7.883   9.958 -0.7302 -0.4264 -0.0907
  306MOL0     O42126  11.902   7.880   9.957  0.0581 -0.6774 -0.4611
  306MOL0     C42127  11.973   7.874   9.829 -0.4811 -0.7643 -0.4635
  306MOL0     C42128  12.127   7.863   9.859 -0.4299  0.3481 -1.4192
  306MOL0     C42129  12.206   7.850   9.731  0.8362  0.3642  0.0775
  306MOL0     C42130  12.346   7.807   9.754 -1.4238 -0.3584  0.0789
  306MOL0     C42131  12.437   7.926   9.772  0.1865  0.0485 -0.5932
  306MOL0     C42132  12.582   7.873   9.774  0.1284  0.0183  0.2477
  306MOL0     C42133  12.689   7.977   9.804 -0.4781  0.1665  0.2413
  306MOL0     C42134  12.833   7.919   9.801 -0.5456 -0.1741  0.9041
  306MOL0    Cl42135  12.961   8.040   9.815  0.3939 -0.4959  0.1095
  306MOL0     C42136  11.679   7.853  10.073  0.5999 -0.2724 -0.1243
  306MOL0     C42137  11.540   7.841  10.067 -0.3334  0.0375 -0.7364
  306MOL0     O42138  11.269   7.856  10.138  0.6469  0.1710 -1.0483
  306MOL0     C42139  11.091   7.721   9.856  0.7879  0.8578 -0.0199
  306MOL0     C42140  10.971   7.680   9.798 -0.0305 -0.0871 -0.7050
  306MOL0     N42141  10.248   7.896  10.230 -0.8085  0.3180 -0.4843
  306MOL0     N42142  10.146   7.892  10.303  0.2477 -0.2449  0.4337
  306MOL0     C42143   8.940   7.365  10.683 -0.6589 -0.8405  1.5825
  306MOL0     C42144   8.813   7.351  10.638  0.3628 -0.2186  0.0348
  306MOL0     C42145   8.419   7.420  10.466  0.2289 -1.0560  0.0301
  306MOL0     C42146   8.392   7.299  10.405  0.3360  1.2157  0.1971
  306MOL0     C42147   8.261   7.245  10.380 -0.4813 -0.3714  0.0802
  306MOL0     C42148   8.150   7.328  10.396 -0.0497 -0.9516 -0.8724
  306MOL0     O42149   8.017   7.287  10.386 -0.2971 -0.1158 -0.0553
  306MOL0     C42150   7.989   7.146  10.380 -0.3230 -0.1712 -0.1520
  306MOL0     C42151   7.878   7.120  10.284  0.0721  0.3862 -0.4071
  306MOL0     C42152   7.904   7.126  10.132  0.1317  0.0136 -0.1669
  306MOL0     C42153   8.047   7.089  10.091  0.1949  0.8710  0.5412
  306MOL0     C42154   8.076   6.946  10.136 -0.1204  0.5272  0.2023
  306MOL0     C42155   8.101   6.832  10.175 -0.4583 -0.1350  0.4214
  306MOL0     C42156   8.177   7.460  10.445  0.0298 -0.2638  0.0535
  306MOL0     C42157   8.309   7.508  10.474  0.1655 -0.2522  0.6755
  306MOL0     C42158   8.317   7.653  10.522  0.3046  0.8964 -0.4267
  306MOL0     H42159   8.848   7.416  10.310  0.6007  1.0787 -0.4233
  306MOL0     H42160   9.079   7.453  10.385 -0.3785 -0.4656 -1.2917
  306MOL0     H42161   9.220   7.565  10.548 -1.9007 -0.6357  1.4043
  306MOL0     H42162   9.297   7.422  10.479 -0.7342  1.7749 -1.7471
  306MOL0     H42163   9.352   7.555  10.759  3.1572 -1.7731  2.1461
  306MOL0     H42164   9.415   7.406  10.728 -0.6280 -0.9039 -0.5310
  306MOL0     H42165   9.494   7.668  10.601 -2.3073 -0.0936 -0.9921
  306MOL0     H42166   9.592   7.542  10.679  0.4849 -0.3124 -1.0501
  306MOL0     H42167   9.523   7.389  10.474  2.0039 -0.0790  2.8925
  306MOL0     H42168   9.476   7.531  10.395  2.5775 -0.1167 -2.5229
  306MOL0     H42169   9.702   7.452  10.330 -1.9019 -1.8885  0.6240
  306MOL0     H42170   9.763   7.471  10.485 -0.5221 -2.5026 -2.4006
  306MOL0     H42171   9.651   7.710  10.325 -0.9265  2.3223  1.6739
  306MOL0     H42172   9.728   7.714  10.484  0.7313 -0.9024 -0.9734
  306MOL0     H42173   9.870   7.609  10.247 -3.1916  2.6796 -1.5625
  306MOL0     H42174   9.933   7.638  10.416  2.0649  0.0339 -0.5608
  306MOL0     H42175   9.828   7.860  10.229  2.6121  0.5945 -2.7689
  306MOL0     H42176   9.889   7.873  10.398 -1.4308 -1.1329  0.0167
  306MOL0     H42177  10.042   7.707  10.051  3.0362 -0.4079 -1.5340
  306MOL0     H42178  10.333   7.885   9.953 -0.4562 -0.2685 -0.0479
  306MOL0     H42179  10.244   7.742   9.913  1.4187 -0.9864 -0.6688
  306MOL0     H42180  10.472   7.752  10.130  1.0271  0.7424 -1.6629
  306MOL0     H42181  10.396   7.614  10.078 -2.3089  0.9973 -0.5501
  306MOL0     H42182  10.459   7.706   9.831  0.3273  2.0610  0.1141
  306MOL0     H42183  10.581   7.796   9.922 -1.9714  0.1578  1.5663
  306MOL0     H42184  10.669   7.591  10.028  1.3066  2.6644  0.0306
  306MOL0     H42185  10.562   7.507   9.901 -1.9015  1.6124 -1.0317
  306MOL0     H42186  10.772   7.761  10.060 -0.2599 -1.2773 -0.1997
  306MOL0     H42187  11.046   7.794  10.264 -1.7870 -1.1592 -0.1197
  306MOL0     H42188  10.893   7.872  10.233  0.2443 -3.7524  3.6761
  306MOL0     H42189  11.045   7.949  10.183 -0.8076 -0.2646 -1.6317
  306MOL0     H42190  11.517   7.861   9.729 -1.4165 -1.7972  0.3360
  306MOL0     H42191  11.742   7.910   9.737  2.2145  3.9854  1.6097
  306MOL0     H42192  11.938   7.790   9.770 -3.4087  0.2525 -0.3363
  306MOL0     H42193  11.952   7.969   9.778  0.5582 -0.5686 -0.5498
  306MOL0     H42194  12.167   7.948   9.916  0.7961 -1.0537 -0.1060
  306MOL0     H42195  12.135   7.777   9.926 -2.8353  0.1360 -1.3182
  306MOL0     H42196  12.200   7.947   9.680  1.2974  1.0202  1.2268
  306MOL0     H42197  12.150   7.771   9.682 -4.4818  1.0648  4.1461
  306MOL0     H42198  12.384   7.762   9.661 -0.3389  1.4487 -0.4076
  306MOL0     H42199  12.349   7.739   9.840  0.5775 -0.3351  0.0762
  306MOL0     H42200  12.423   7.993   9.687  1.3817  0.4182 -0.5105
  306MOL0     H42201  12.419   7.979   9.866 -2.1844 -1.3050 -0.2106
  306MOL0     H42202  12.597   7.821   9.679 -1.5916  2.2305 -1.3389
  306MOL0     H42203  12.589   7.801   9.856 -0.8777  0.6616  0.9249
  306MOL0     H42204  12.673   8.022   9.902  0.0228  2.8022 -0.7848
  306MOL0     H42205  12.704   8.049   9.723  1.6365 -1.3046 -0.7654
  306MOL0     H42206  12.844   7.858   9.711  1.3505  0.8173  0.4123
  306MOL0     H42207  12.848   7.857   9.890  0.3150 -3.5650 -1.4044
  306MOL0     H42208  11.752   7.836  10.152  0.7532 -2.3884 -0.6457
  306MOL0     H42209  11.489   7.816  10.159 -2.0616  2.4512 -0.9243
  306MOL0     H42210  11.173   7.702   9.788  0.2030 -1.4726 -0.1679
  306MOL0     H42211  10.959   7.645   9.696 -1.6449 -1.4702 -0.0940
  306MOL0     H42212   8.983   7.342  10.780  1.7183 -2.1956  0.3098
  306MOL0     H42213   8.735   7.323  10.709  0.0449 -1.2066 -0.6712
  306MOL0     H42214   8.475   7.232  10.386  1.3514  2.0550  1.4584
  306MOL0     H42215   8.262   7.144  10.342 -2.3078 -0.7948  1.0299
  306MOL0     H42216   8.074   7.079  10.362 -0.7444 -1.4488  2.1973
  306MOL0     H42217   7.957   7.122  10.482  0.5060  0.4210  0.2556
  306MOL0     H42218   7.784   7.167  10.313 -0.2910 -0.3862 -0.3198
  306MOL0     H42219   7.857   7.015  10.301 -1.6116  1.0937  2.5052
  306MOL0     H42220   7.833   7.055  10.088 -0.8419  0.2934  0.9121
  306MOL0     H42221   7.884   7.229  10.103  1.4897  0.3272 -0.0472
  306MOL0     H42222   8.127   7.153  10.130  1.3271 -0.7424  0.9725
  306MOL0     H42223   8.061   7.094   9.982  1.4590 -0.3001  0.6199
  306MOL0     H42224   8.117   6.735  10.217  1.2676 -0.6178 -1.2187
  306MOL0     H42225   8.092   7.526  10.455  0.0201 -0.3467  0.5445
  306MOL0     H42226   8.212   7.681  10.524 -1.0343 -3.2996 -2.0616
  306MOL0     H42227   8.373   7.654  10.616 -2.2066 -2.6894  1.2744
  306MOL0     H42228   8.366   7.716  10.447  3.4128 -0.2588  0.4688
  307MOL0     O42229  10.783  10.625   5.244  0.2142 -0.2421  0.0925
  307MOL0     C42230  10.790  10.500   5.249  0.4278 -0.2063 -1.1179
  307MOL0     O42231  10.886  10.433   5.308  0.1636  0.3630 -0.3075
  307MOL0     C42232  11.004  10.503   5.335 -0.5358  0.2912 -1.3668
  307MOL0     C42233  11.123  10.433   5.308  0.1952 -0.3112  0.5217
  307MOL0     C42234  11.251  10.471   5.344 -0.1618  0.3749  0.0033
  307MOL0     C42235  11.265  10.585   5.423 -0.1014  0.2662 -0.5988
  307MOL0     O42236  11.386  10.628   5.467  0.0268 -0.5002  0.1861
  307MOL0     C42237  11.510  10.569   5.426 -0.3563 -0.6109  0.7269
  307MOL0     C42238  11.625  10.620   5.521 -0.2167 -0.2166  0.1315
  307MOL0     C42239  11.621  10.558   5.664 -0.8091 -0.3662 -0.3638
  307MOL0     C42240  11.729  10.624   5.753  0.1315  0.9114 -0.3927
  307MOL0     C42241  11.707  10.589   5.900 -0.3844  0.1158  0.1020
  307MOL0     C42242  11.776  10.690   5.988 -0.5796  0.4036  0.0854
  307MOL0     C42243  11.682  10.801   6.035 -0.3801  0.0613  0.4665
  307MOL0     C42244  11.751  10.894   6.140 -0.1325  0.5928  0.2513
  307MOL0     N42245  11.895  10.921   6.118 -0.2497  0.6475 -0.0815
  307MOL0     C42246  11.996  10.848   6.184 -0.5689 -0.8346  0.1535
  307MOL0     C42247  12.105  10.927   6.167 -0.7620  0.5292  0.9360
  307MOL0     C42248  12.242  10.903   6.224 -1.1173 -0.4236 -0.6658
  307MOL0     C42249  12.261  11.008   6.329 -0.2351 -0.4769  0.1737
  307MOL0     C42250  12.378  10.982   6.419 -0.1099  0.4383 -0.6755
  307MOL0     C42251  12.392  11.092   6.527 -0.0290 -0.4647  0.6563
  307MOL0     O42252  12.528  11.096   6.556 -0.7728 -0.6652 -0.8315
  307MOL0     C42253  12.570  11.037   6.667 -0.0747 -0.1663  0.1701
  307MOL0     C42254  12.699  11.066   6.721 -0.0288  0.2564  0.7946
  307MOL0     C42255  12.737  11.018   6.842  0.6273 -0.4986  0.3717
  307MOL0     C42256  12.877  11.062   6.881  0.3295 -0.2214 -0.0465
  307MOL0     C42257  12.647  10.956   6.931 -1.0682 -0.0775 -0.1038
  307MOL0     C42258  12.677  10.911   7.065 -0.2001 -0.2163 -0.4061
  307MOL0     O42259  12.584  10.823   7.122 -0.0815  0.1369  0.2788
  307MOL0     C42260  12.587  10.800   7.252 -0.1142  0.6904  0.8116
  307MOL0     C42261  12.542  10.898   7.341 -0.0985 -0.2727  0.4454
  307MOL0     C42262  12.557  10.891   7.478 -0.2190 -1.2476 -0.4006
  307MOL0     C42263  12.610  10.778   7.530  0.3628 -0.4487  1.6378
  307MOL0     O42264  12.623  10.764   7.666 -0.2389  0.0837  0.5874
  307MOL0     C42265  12.696  10.861   7.735  1.1957 -0.5324 -0.3904
  307MOL0     C42266  12.749  10.804   7.868 -0.3634  0.5318 -0.8956
  307MOL0     C42267  12.639  10.795   7.980  0.2270 -0.0576 -0.4808
  307MOL0     C42268  12.698  10.872   8.104  0.4949 -0.0457  0.5882
  307MOL0     C42269  12.597  10.867   8.225 -0.0744 -0.4785  0.2115
  307MOL0     C42270  12.649  10.881   8.362  0.3231 -0.1280 -0.7562
  307MOL0     C42271  12.711  11.016   8.395 -0.5383  0.9831  0.5711
  307MOL0     C42272  12.796  11.039   8.513  0.3473  0.8497 -0.5553
  307MOL0    Cl42273  12.938  10.934   8.520  0.3980  0.0800  0.4479
  307MOL0     C42274  12.652  10.675   7.446  0.7615 -0.1688 -0.4534
  307MOL0     C42275  12.638  10.682   7.306 -0.2045  0.0916  0.5845
  307MOL0     O42276  12.781  10.954   7.122  0.6457  0.4486  0.2610
  307MOL0     C42277  12.528  10.907   6.874  0.5734 -0.8515 -0.2346
  307MOL0     C42278  12.490  10.950   6.745 -0.0502 -0.4011 -0.6095
  307MOL0     N42279  12.077  11.022   6.069 -0.6442  0.3525  0.3405
  307MOL0     N42280  11.950  11.018   6.044 -0.2127  0.5449  0.6076
  307MOL0     C42281  11.144  10.652   5.470  0.6037  0.2115 -0.2874
  307MOL0     C42282  11.013  10.600   5.436 -0.5932  0.0865 -0.9210
  307MOL0     C42283  10.676  10.425   5.201 -1.2852  0.0974 -0.4790
  307MOL0     C42284  10.549  10.483   5.197 -0.5584 -0.0767 -1.0715
  307MOL0     C42285  10.434  10.419   5.161 -0.0082  0.0010 -0.2049
  307MOL0     C42286  10.437  10.286   5.133  0.7712  0.5139  0.3399
  307MOL0     O42287  10.322  10.212   5.128 -0.1282 -1.0180 -0.3645
  307MOL0     C42288  10.269  10.193   4.997 -0.4043 -0.0194 -0.2123
  307MOL0     C42289  10.142  10.118   5.002 -0.7924  0.8020 -0.1922
  307MOL0     C42290  10.157   9.963   5.019  0.7223  0.2508  0.8282
  307MOL0     C42291  10.035   9.882   4.983  0.4067  0.6982  0.3204
  307MOL0     C42292  10.032   9.846   4.841 -0.2885  0.4181  0.2569
  307MOL0     C42293  10.023   9.805   4.725  1.1322  0.0027  0.2002
  307MOL0     C42294  10.567  10.234   5.116  0.7269 -0.9194  0.3415
  307MOL0     C42295  10.688  10.297   5.144 -0.1585  0.1440  0.0388
  307MOL0     C42296  10.815  10.213   5.125 -0.3473  0.1577 -0.9030
  307MOL0     H42297  11.112  10.335   5.262  0.9400  0.1611 -0.7113
  307MOL0     H42298  11.335  10.411   5.312 -1.2698 -1.7424  0.8999
  307MOL0     H42299  11.525  10.607   5.325 -2.9307  1.1645  0.9126
  307MOL0     H42300  11.518  10.461   5.434  1.4102 -0.4218  2.5557
  307MOL0     H42301  11.719  10.584   5.480  1.4806 -1.3876  4.5533
  307MOL0     H42302  11.632  10.729   5.515  0.5774 -0.3181 -1.1458
  307MOL0     H42303  11.524  10.592   5.701  0.6650  3.2352  0.6911
  307MOL0     H42304  11.640  10.451   5.663  1.3175 -0.0525  0.2289
  307MOL0     H42305  11.828  10.593   5.719 -0.6020 -1.3171 -0.7131
  307MOL0     H42306  11.729  10.733   5.742  0.1530  0.9587  0.0484
  307MOL0     H42307  11.737  10.486   5.918 -1.4231 -0.2433 -0.1326
  307MOL0     H42308  11.598  10.592   5.908 -0.6083 -2.3034 -1.1613
  307MOL0     H42309  11.811  10.638   6.077  1.5869 -0.3135 -1.1071
  307MOL0     H42310  11.875  10.720   5.951  1.3568 -5.0794 -0.1150
  307MOL0     H42311  11.594  10.750   6.075 -2.5890  2.1875 -1.3688
  307MOL0     H42312  11.652  10.856   5.944 -0.3390  2.1895  1.6681
  307MOL0     H42313  11.699  10.989   6.150 -0.8339  0.2992 -0.4738
  307MOL0     H42314  11.747  10.843   6.236  1.0688 -2.5964 -1.2216
  307MOL0     H42315  11.982  10.768   6.255  1.0112  0.0746  1.5729
  307MOL0     H42316  12.320  10.894   6.147  0.3409  0.2144  0.6912
  307MOL0     H42317  12.245  10.807   6.277 -3.8540 -0.3187 -0.1552
  307MOL0     H42318  12.269  11.101   6.271 -0.2696 -0.6106 -0.0472
  307MOL0     H42319  12.176  11.019   6.396 -0.2908  2.0773 -0.2106
  307MOL0     H42320  12.371  10.885   6.469 -0.1480  0.2704 -1.0108
  307MOL0     H42321  12.466  10.974   6.354  1.4978 -0.1059  1.4249
  307MOL0     H42322  12.355  11.183   6.480 -1.9933  0.1460  3.1822
  307MOL0     H42323  12.328  11.099   6.615 -3.0549 -1.0139 -1.3553
  307MOL0     H42324  12.774  11.126   6.671  0.7902 -0.8814  0.6246
  307MOL0     H42325  12.930  10.995   6.949 -1.1654 -1.8559 -0.4537
  307MOL0     H42326  12.868  11.155   6.939 -0.4160 -0.8585  0.8796
  307MOL0     H42327  12.945  11.084   6.798  1.2368  0.4117  0.8362
  307MOL0     H42328  12.490  10.984   7.301  2.0932  0.9774  0.1027
  307MOL0     H42329  12.535  10.974   7.544  1.3549 -1.2232  0.1408
  307MOL0     H42330  12.772  10.902   7.669 -2.0547 -0.6344 -4.5913
  307MOL0     H42331  12.643  10.955   7.751  1.2684 -0.4541 -0.6019
  307MOL0     H42332  12.793  10.706   7.851 -2.2516 -1.4088  3.9116
  307MOL0     H42333  12.827  10.867   7.909 -0.1651 -0.0362 -0.4014
  307MOL0     H42334  12.616  10.693   8.010 -0.7797  0.4917  0.7430
  307MOL0     H42335  12.547  10.845   7.950  0.2229  1.0850  1.2452
  307MOL0     H42336  12.710  10.978   8.079 -0.1296 -0.7830 -3.4710
  307MOL0     H42337  12.797  10.836   8.133  1.1443  0.2884 -1.1108
  307MOL0     H42338  12.518  10.940   8.206 -0.5537 -1.1213 -0.3113
  307MOL0     H42339  12.552  10.768   8.227 -0.6620 -0.2203 -0.1622
  307MOL0     H42340  12.721  10.803   8.390 -1.5229 -1.6412 -0.0309
  307MOL0     H42341  12.567  10.862   8.432  1.7628 -1.3620  0.6603
  307MOL0     H42342  12.647  11.102   8.377  2.2827  2.8928 -1.1619
  307MOL0     H42343  12.779  11.019   8.310 -1.3507 -1.7270 -0.2577
  307MOL0     H42344  12.729  11.026   8.599 -1.3055  1.1259 -1.7625
  307MOL0     H42345  12.826  11.144   8.527 -0.5615  0.9382  1.0144
  307MOL0     H42346  12.698  10.587   7.489  0.1184 -1.4395 -2.2493
  307MOL0     H42347  12.675  10.608   7.237  0.9026  1.1549 -0.0021
  307MOL0     H42348  12.464  10.838   6.928  1.0723 -0.3739  1.0127
  307MOL0     H42349  12.399  10.909   6.703 -0.0034 -1.1701  0.0181
  307MOL0     H42350  11.151  10.724   5.552  0.1253 -0.3987  0.3078
  307MOL0     H42351  10.923  10.639   5.482 -1.1833  0.4738 -2.3664
  307MOL0     H42352  10.533  10.586   5.228 -0.8048  0.0068 -1.4676
  307MOL0     H42353  10.342  10.475   5.177  0.4788  1.0233 -0.8657
  307MOL0     H42354  10.264  10.294   4.956 -2.0849 -1.3155 -3.5368
  307MOL0     H42355  10.344  10.131   4.947  0.3360  0.5085  0.2231
  307MOL0     H42356  10.088  10.125   4.907 -1.4229  1.8675  0.2210
  307MOL0     H42357  10.091  10.160   5.090 -1.4750 -0.1052 -0.1462
  307MOL0     H42358  10.232   9.921   4.951 -2.2799  1.3208 -3.5837
  307MOL0     H42359  10.180   9.937   5.123 -0.5328  0.3882  1.1622
  307MOL0     H42360   9.942   9.937   5.003 -1.2590 -1.3073 -1.4492
  307MOL0     H42361  10.038   9.784   5.031 -0.7110 -0.2522 -1.4366
  307MOL0     H42362  10.011   9.771   4.625  2.2484 -1.6250  0.5744
  307MOL0     H42363  10.567  10.132   5.078 -0.3637 -0.1179 -1.9818
  307MOL0     H42364  10.795  10.127   5.060  1.4712  0.8181 -2.4468
  307MOL0     H42365  10.894  10.272   5.078  0.5648 -0.2107  0.1450
  307MOL0     H42366  10.854  10.174   5.219 -2.9520 -0.4927 -0.0083
  308MOL0     O42367   2.321   2.520   5.026  0.5472  0.4920 -0.0919
  308MOL0     C42368   2.239   2.585   4.963 -0.0560  0.5645  0.9055
  308MOL0     O42369   2.265   2.693   4.876  0.0080  0.4161  0.0586
  308MOL0     C42370   2.392   2.704   4.827  0.1280 -0.0396  0.7168
  308MOL0     C42371   2.429   2.839   4.831 -1.2359 -0.3665  0.2110
  308MOL0     C42372   2.551   2.875   4.779 -0.0434  0.2612  0.1980
  308MOL0     C42373   2.643   2.779   4.727 -0.8771 -0.1614 -0.7180
  308MOL0     O42374   2.762   2.835   4.690 -0.5883 -0.3383  0.5075
  308MOL0     C42375   2.876   2.751   4.676  0.4911  0.3982 -0.6015
  308MOL0     C42376   3.002   2.826   4.676  0.2420  0.3542 -0.2393
  308MOL0     C42377   3.128   2.747   4.676 -0.1002 -0.1759 -0.8202
  308MOL0     C42378   3.171   2.695   4.538 -0.5263 -0.0803 -0.7847
  308MOL0     C42379   3.314   2.714   4.504  0.0306 -0.4858  0.6404
  308MOL0     C42380   3.351   2.637   4.374  0.5126  1.0307 -0.0292
  308MOL0     C42381   3.501   2.630   4.343 -0.4986 -0.0183 -0.2009
  308MOL0     C42382   3.549   2.750   4.257  0.4461  0.2562  0.5256
  308MOL0     N42383   3.689   2.784   4.277  0.6122 -0.2950  1.1371
  308MOL0     C42384   3.795   2.698   4.269 -0.4288  0.6090 -0.4391
  308MOL0     C42385   3.898   2.779   4.309 -1.1657  0.4600 -0.1432
  308MOL0     C42386   4.042   2.738   4.330 -0.1906 -0.3610 -0.1409
  308MOL0     C42387   4.127   2.830   4.238  0.2605 -0.0902  0.3137
  308MOL0     C42388   4.274   2.791   4.224  0.3911 -0.1780  0.2016
  308MOL0     C42389   4.296   2.639   4.193  0.7867 -0.1475 -0.8037
  308MOL0     O42390   4.434   2.618   4.185 -0.0933 -0.2714 -0.3403
  308MOL0     C42391   4.513   2.600   4.298 -0.0810  0.7149 -0.5075
  308MOL0     C42392   4.653   2.565   4.282  1.2156  0.3780  0.1807
  308MOL0     C42393   4.733   2.523   4.389  0.0508  0.2699  0.4784
  308MOL0     C42394   4.873   2.487   4.358 -1.3204  0.1521 -0.7631
  308MOL0     C42395   4.685   2.533   4.522  0.5083  0.3984  0.1109
  308MOL0     C42396   4.767   2.513   4.650  0.7046 -0.5625 -0.1598
  308MOL0     O42397   4.884   2.580   4.654 -0.0906 -0.1803 -0.2326
  308MOL0     C42398   4.947   2.592   4.778  0.1142  0.7168  0.0689
  308MOL0     C42399   4.911   2.687   4.865 -0.3575 -0.3426 -0.3739
  308MOL0     C42400   4.969   2.693   4.986 -0.1754  0.0360 -0.1413
  308MOL0     C42401   5.084   2.615   5.013  0.1363 -0.2022 -0.1270
  308MOL0     O42402   5.138   2.639   5.132  0.5017 -0.1448 -0.6465
  308MOL0     C42403   5.219   2.547   5.200  0.2662 -0.5409  0.8541
  308MOL0     C42404   5.360   2.595   5.204  0.5043 -0.3672 -0.4086
  308MOL0     C42405   5.393   2.723   5.268 -0.1767 -0.0277 -0.1050
  308MOL0     C42406   5.534   2.768   5.222 -0.7980  0.5780 -0.7396
  308MOL0     C42407   5.560   2.904   5.266 -1.1413  0.5177  0.4148
  308MOL0     C42408   5.706   2.952   5.267  0.3714  0.3578  0.4213
  308MOL0     C42409   5.802   2.918   5.149 -0.3122 -0.3128 -1.0645
  308MOL0     C42410   5.946   2.967   5.158 -0.4835 -0.0688  0.8239
  308MOL0    Cl42411   6.041   2.912   5.296  0.0927 -0.2255  0.0547
  308MOL0     C42412   5.128   2.516   4.927 -0.1241 -1.3978  0.5477
  308MOL0     C42413   5.049   2.512   4.809 -0.3486  0.2830  0.6602
  308MOL0     O42414   4.711   2.462   4.751 -0.4197  0.8965  0.1951
  308MOL0     C42415   4.546   2.576   4.547 -0.2452  0.0881  0.5156
  308MOL0     C42416   4.467   2.601   4.429  0.8184  0.1331 -0.6978
  308MOL0     N42417   3.846   2.912   4.323  0.3175  0.5088  0.3035
  308MOL0     N42418   3.719   2.916   4.302 -0.8575 -0.0063 -0.2353
  308MOL0     C42419   2.595   2.646   4.711  0.2090 -0.6327 -0.7431
  308MOL0     C42420   2.471   2.607   4.761 -0.1109  0.6043 -0.2255
  308MOL0     C42421   2.097   2.537   4.979 -0.3222 -0.7144  0.1136
  308MOL0     C42422   2.005   2.611   4.898  0.4923  0.6572  0.2503
  308MOL0     C42423   1.874   2.563   4.895 -0.2003 -0.2123 -0.2289
  308MOL0     C42424   1.833   2.454   4.969 -0.1237 -0.1987  0.3685
  308MOL0     O42425   1.699   2.425   4.954 -0.3211  0.1013 -0.1488
  308MOL0     C42426   1.636   2.332   5.042 -0.1072  0.1778  0.1199
  308MOL0     C42427   1.512   2.296   4.962 -0.0943  0.2335 -0.9775
  308MOL0     C42428   1.448   2.166   5.018 -0.6019 -0.4718  1.4152
  308MOL0     C42429   1.377   2.211   5.153 -0.3427 -0.4281  1.7152
  308MOL0     C42430   1.390   2.115   5.259  0.1004 -0.1758  0.1386
  308MOL0     C42431   1.414   2.034   5.352 -0.0046  0.5083 -0.6018
  308MOL0     C42432   1.927   2.389   5.053 -0.0866  0.3514  0.2141
  308MOL0     C42433   2.059   2.434   5.058 -0.5725 -0.0026 -0.4548
  308MOL0     C42434   2.147   2.359   5.162 -0.1134 -0.2390  0.1876
  308MOL0     H42435   2.358   2.912   4.870 -0.0165  0.4790  0.8814
  308MOL0     H42436   2.578   2.980   4.788 -3.0283  1.2699 -1.2196
  308MOL0     H42437   2.866   2.699   4.580 -2.1128 -0.5177  0.0934
  308MOL0     H42438   2.877   2.676   4.756  1.3661  0.5033 -0.5047
  308MOL0     H42439   3.005   2.892   4.588  1.5826 -1.2732 -1.4852
  308MOL0     H42440   3.005   2.884   4.768  2.0742  0.6795 -0.4580
  308MOL0     H42441   3.193   2.825   4.716 -4.1019  2.0058  2.0906
  308MOL0     H42442   3.127   2.664   4.747 -1.1234 -0.7101 -1.4413
  308MOL0     H42443   3.133   2.595   4.517  2.1108 -1.0195 -1.4779
  308MOL0     H42444   3.111   2.752   4.466 -2.2236  0.9384  1.2910
  308MOL0     H42445   3.373   2.674   4.587  1.3457 -0.9283 -0.4845
  308MOL0     H42446   3.344   2.819   4.488  0.6802 -0.7809 -0.1341
  308MOL0     H42447   3.339   2.529   4.387 -1.3398  0.7841 -2.9190
  308MOL0     H42448   3.296   2.661   4.283  2.7729  2.5734 -1.0752
  308MOL0     H42449   3.535   2.539   4.292  1.5941  0.1855  0.7579
  308MOL0     H42450   3.541   2.636   4.444 -1.9962  1.1405  0.3565
  308MOL0     H42451   3.528   2.723   4.153  2.0799 -2.8008  0.8733
  308MOL0     H42452   3.487   2.832   4.292 -2.7838 -1.8040  0.0621
  308MOL0     H42453   3.798   2.590   4.262  1.9110  0.6517 -0.8594
  308MOL0     H42454   4.063   2.633   4.307  1.4533 -0.1454  0.2497
  308MOL0     H42455   4.070   2.753   4.435  0.1563 -1.2900 -0.0933
  308MOL0     H42456   4.106   2.820   4.131  2.0837 -2.5507  0.1006
  308MOL0     H42457   4.116   2.930   4.281 -0.2481  0.0626 -0.1575
  308MOL0     H42458   4.328   2.858   4.157  1.3740 -0.4056  0.7604
  308MOL0     H42459   4.320   2.812   4.321 -0.1467  2.8081 -0.1072
  308MOL0     H42460   4.246   2.580   4.270 -1.8860  3.5931  0.6244
  308MOL0     H42461   4.251   2.614   4.096 -2.0437  0.4937  0.2266
  308MOL0     H42462   4.689   2.576   4.180  1.4971 -0.3861  0.1905
  308MOL0     H42463   4.904   2.410   4.429 -2.9422  2.0159  2.1892
  308MOL0     H42464   4.931   2.579   4.371 -1.1338 -0.0649 -0.0156
  308MOL0     H42465   4.889   2.454   4.255 -1.6753 -0.4646 -0.6232
  308MOL0     H42466   4.827   2.748   4.834 -1.2034 -1.1681  0.2624
  308MOL0     H42467   4.928   2.770   5.051 -2.3657  0.3568 -1.7929
  308MOL0     H42468   5.175   2.549   5.300  2.3439 -0.6775  1.8047
  308MOL0     H42469   5.200   2.448   5.158 -0.0398 -0.9369  1.8906
  308MOL0     H42470   5.416   2.512   5.249 -0.1254  0.7619  2.6974
  308MOL0     H42471   5.404   2.591   5.104  0.0662 -0.8777 -0.5790
  308MOL0     H42472   5.385   2.719   5.377  1.2294 -3.5408  0.0044
  308MOL0     H42473   5.321   2.800   5.240  2.4356  1.9870 -1.8110
  308MOL0     H42474   5.537   2.760   5.113  0.2079  0.3004 -0.6980
  308MOL0     H42475   5.613   2.703   5.260  1.0377  1.5984 -2.6261
  308MOL0     H42476   5.496   2.961   5.198 -0.5320 -0.0824 -0.6748
  308MOL0     H42477   5.526   2.902   5.370  1.8680 -0.6939  1.4976
  308MOL0     H42478   5.749   2.905   5.356 -2.3948  1.0669  2.2554
  308MOL0     H42479   5.717   3.060   5.283 -0.1652  1.1561 -3.4295
  308MOL0     H42480   5.748   2.946   5.058 -1.5073 -2.0375 -0.9195
  308MOL0     H42481   5.801   2.809   5.147 -1.1701 -0.3068 -1.0499
  308MOL0     H42482   5.940   3.076   5.156  2.3619  0.1568  0.5966
  308MOL0     H42483   6.007   2.934   5.073  1.6253 -0.3289  2.3510
  308MOL0     H42484   5.214   2.453   4.947 -0.0972 -1.5760 -0.0933
  308MOL0     H42485   5.085   2.437   4.739  0.4110 -0.0552  1.4017
  308MOL0     H42486   4.513   2.584   4.649  0.6245 -0.1510  0.8279
  308MOL0     H42487   4.364   2.615   4.461  1.4388 -0.0851  1.6076
  308MOL0     H42488   2.654   2.570   4.661  0.4176  0.1047 -1.6444
  308MOL0     H42489   2.444   2.502   4.757  2.1843 -0.0032 -2.9102
  308MOL0     H42490   2.035   2.702   4.846  0.2799  0.9762  0.6773
  308MOL0     H42491   1.808   2.622   4.832 -0.6970 -1.0413 -0.4895
  308MOL0     H42492   1.690   2.240   5.066 -3.2996 -1.0111  3.8223
  308MOL0     H42493   1.616   2.377   5.139  1.6394 -3.7142  2.5437
  308MOL0     H42494   1.545   2.270   4.861  1.8195  0.5719 -0.4766
  308MOL0     H42495   1.435   2.373   4.950 -0.5326 -0.3299 -1.8270
  308MOL0     H42496   1.371   2.119   4.957 -0.3633  2.5308 -1.4828
  308MOL0     H42497   1.523   2.089   5.040  0.4355 -0.2119 -0.8767
  308MOL0     H42498   1.270   2.215   5.135 -0.4138  0.4966  2.3042
  308MOL0     H42499   1.413   2.310   5.183  0.2773 -0.2631  0.4904
  308MOL0     H42500   1.444   1.974   5.435 -0.5415  0.9476 -0.0809
  308MOL0     H42501   1.877   2.309   5.107 -1.8397  1.6623  0.6470
  308MOL0     H42502   2.208   2.420   5.229 -1.4272 -1.2464  2.4436
  308MOL0     H42503   2.084   2.295   5.225  2.4084 -2.2420  0.8471
  308MOL0     H42504   2.206   2.292   5.099  0.7203 -0.0791  0.7856
  309MOL0     O42505   2.361   2.075   5.072  0.2257 -0.3211 -0.0562
  309MOL0     C42506   2.453   2.118   5.143  0.0173 -0.0001 -0.0793
  309MOL0     O42507   2.442   2.164   5.271  1.0953  0.3542 -0.2306
  309MOL0     C42508   2.319   2.149   5.339  0.0002 -0.5817 -1.0088
  309MOL0     C42509   2.292   2.260   5.422  0.7955 -0.1483 -0.1338
  309MOL0     C42510   2.171   2.260   5.497  0.1770  0.1880  0.7097
  309MOL0     C42511   2.077   2.160   5.486  0.2996  0.4736  0.7350
  309MOL0     O42512   1.966   2.169   5.565  0.6595 -0.2583 -0.1881
  309MOL0     C42513   1.834   2.144   5.507 -0.1031  0.1427  0.2357
  309MOL0     C42514   1.728   2.230   5.575  0.0712 -0.9372 -0.0683
  309MOL0     C42515   1.728   2.222   5.730  0.8530 -0.1510 -0.9755
  309MOL0     C42516   1.692   2.076   5.776  0.4394  0.3051  0.1185
  309MOL0     C42517   1.697   2.076   5.930 -1.2670  0.5508  0.5422
  309MOL0     C42518   1.615   1.958   5.980 -0.0554  0.4041 -0.2185
  309MOL0     C42519   1.661   1.918   6.121 -0.0592 -0.7749 -0.6016
  309MOL0     C42520   1.613   2.017   6.222 -0.2900 -0.5333 -0.3648
  309MOL0     N42521   1.471   2.014   6.231  0.4119  0.0445  0.3703
  309MOL0     C42522   1.372   2.104   6.177 -0.0928  0.7527  0.4311
  309MOL0     C42523   1.260   2.061   6.238 -0.1858  0.7793  0.2041
  309MOL0     C42524   1.133   2.123   6.206 -0.0415  0.4083  0.8075
  309MOL0     C42525   1.145   2.282   6.217  0.8008  0.2260  0.0299
  309MOL0     C42526   1.016   2.354   6.199  0.7068 -0.4060 -0.0755
  309MOL0     C42527   1.039   2.507   6.200  0.2779 -0.5663 -0.6704
  309MOL0     O42528   0.931   2.566   6.275  0.4483 -0.5433  0.1660
  309MOL0     C42529   0.923   2.563   6.418 -1.1328  0.8130  1.0415
  309MOL0     C42530   1.035   2.546   6.505 -0.8394 -0.4107  0.0647
  309MOL0     C42531   1.022   2.554   6.645 -0.6674 -0.5551 -0.0000
  309MOL0     C42532   1.146   2.529   6.731  0.2558  0.1074  1.0524
  309MOL0     C42533   0.898   2.590   6.701 -0.6640  0.8614 -0.0634
  309MOL0     C42534   0.884   2.620   6.850  0.5306  0.3546 -0.2351
  309MOL0     O42535   0.781   2.564   6.911 -0.2522  0.3728  0.5769
  309MOL0     C42536   0.769   2.564   7.046  0.1039 -0.5344 -0.9264
  309MOL0     C42537   0.806   2.453   7.120  0.4850  0.1244 -0.0018
  309MOL0     C42538   0.794   2.452   7.262  0.2157  0.0624  0.3738
  309MOL0     C42539   0.750   2.571   7.330  0.0822  0.5628  0.3238
  309MOL0     O42540   0.742   2.556   7.464 -0.9508  0.1572 -0.5433
  309MOL0     C42541   0.818   2.638   7.550  0.3711  0.1746  0.1317
  309MOL0     C42542   0.826   2.571   7.690 -0.8114 -0.5135  0.4215
  309MOL0     C42543   0.916   2.667   7.774 -0.5303  0.8582 -0.5591
  309MOL0     C42544   0.936   2.613   7.921 -0.4028 -0.6390 -0.7043
  309MOL0     C42545   1.069   2.651   7.975 -0.2229 -0.5498 -0.0480
  309MOL0     C42546   1.112   2.604   8.114  0.1608 -0.6043 -0.4618
  309MOL0     C42547   1.215   2.700   8.177 -0.3990  0.0920  0.4147
  309MOL0     C42548   1.274   2.645   8.297  0.0351 -0.2036  0.3247
  309MOL0    Cl42549   1.380   2.756   8.391  0.2861  0.2312  0.2916
  309MOL0     C42550   0.708   2.682   7.253 -0.2034  1.3140  0.1178
  309MOL0     C42551   0.726   2.673   7.112  0.1662 -0.5882 -0.8966
  309MOL0     O42552   0.982   2.672   6.903 -0.7095  0.0348  0.7676
  309MOL0     C42553   0.787   2.615   6.621 -0.2421 -0.1226  0.1345
  309MOL0     C42554   0.802   2.589   6.484  0.2577  0.2321 -0.3626
  309MOL0     N42555   1.278   1.955   6.328  0.1193 -0.8599  0.2187
  309MOL0     N42556   1.408   1.929   6.317 -0.5199  0.9855 -0.8818
  309MOL0     C42557   2.106   2.051   5.401 -0.1913  0.4166 -0.1957
  309MOL0     C42558   2.232   2.042   5.333  0.2832  0.8489 -0.0107
  309MOL0     C42559   2.585   2.134   5.085 -0.3000  0.5546  0.0384
  309MOL0     C42560   2.629   2.259   5.033  0.4860 -0.2701 -0.4991
  309MOL0     C42561   2.757   2.272   4.970 -0.5467  0.6798  1.0937
  309MOL0     C42562   2.836   2.160   4.943 -0.6342  0.3406  0.1392
  309MOL0     O42563   2.959   2.164   4.891  0.2177 -0.0812 -0.5768
  309MOL0     C42564   2.979   2.251   4.784  0.0968  0.1146  0.4149
  309MOL0     C42565   3.136   2.235   4.760 -0.1401  0.1771  0.2348
  309MOL0     C42566   3.189   2.329   4.650 -0.8286 -0.5487 -0.0352
  309MOL0     C42567   3.342   2.333   4.643  0.2469  0.7423 -0.0936
  309MOL0     C42568   3.405   2.209   4.584 -0.7977 -0.0583 -0.6009
  309MOL0     C42569   3.463   2.116   4.527 -0.5889 -0.0993  0.6356
  309MOL0     C42570   2.793   2.037   4.999 -0.6690  0.1000  0.4303
  309MOL0     C42571   2.679   2.028   5.075 -0.9787 -0.0064 -0.1122
  309MOL0     C42572   2.637   1.893   5.135  0.1678 -0.2715 -0.4124
  309MOL0     H42573   2.359   2.345   5.420  0.5966  0.1945  2.9672
  309MOL0     H42574   2.133   2.338   5.563 -1.6044 -1.6083  1.9129
  309MOL0     H42575   1.817   2.037   5.520  0.0610  0.4677  4.2908
  309MOL0     H42576   1.837   2.185   5.406  2.9612  1.0238  0.5839
  309MOL0     H42577   1.748   2.333   5.542  0.8158 -0.5241  1.5577
  309MOL0     H42578   1.633   2.208   5.528 -0.5981 -1.5460  1.4915
  309MOL0     H42579   1.821   2.243   5.784  0.1009 -2.0280  1.2348
  309MOL0     H42580   1.666   2.301   5.774 -1.0379 -2.2458  0.3299
  309MOL0     H42581   1.595   2.045   5.736  2.0591 -0.8688 -3.2179
  309MOL0     H42582   1.767   2.003   5.744  2.4337  0.2415  4.2527
  309MOL0     H42583   1.678   2.168   5.987  2.3708  1.4984  0.4796
  309MOL0     H42584   1.803   2.058   5.949 -0.6271  0.2711 -2.6246
  309MOL0     H42585   1.510   1.985   5.988 -0.2154  0.0057 -0.8857
  309MOL0     H42586   1.624   1.874   5.911 -2.6973  0.0629 -0.2466
  309MOL0     H42587   1.770   1.911   6.131 -0.1122 -0.5318  0.2806
  309MOL0     H42588   1.612   1.822   6.142 -2.0114  0.3945  0.4156
  309MOL0     H42589   1.658   1.999   6.321 -3.1127 -1.2720  0.8857
  309MOL0     H42590   1.632   2.120   6.191 -0.6525 -0.8574 -1.6903
  309MOL0     H42591   1.382   2.183   6.103 -0.0509 -0.4865 -0.9280
  309MOL0     H42592   1.070   2.074   6.281  2.9965 -3.1772  1.3132
  309MOL0     H42593   1.099   2.083   6.110  0.1207  1.0884  0.4591
  309MOL0     H42594   1.202   2.318   6.303 -0.9754  1.1022  0.8871
  309MOL0     H42595   1.210   2.307   6.132 -1.6098 -0.8998 -2.2763
  309MOL0     H42596   0.988   2.321   6.098  1.3126  2.7173 -1.3641
  309MOL0     H42597   0.936   2.324   6.268 -1.1847 -0.1473 -2.0558
  309MOL0     H42598   1.139   2.532   6.237  0.0123  0.5338 -0.6656
  309MOL0     H42599   1.025   2.539   6.096 -2.1384 -0.6774 -0.4319
  309MOL0     H42600   1.133   2.525   6.463 -0.2859  2.0604 -0.0449
  309MOL0     H42601   1.230   2.486   6.676 -0.1536  1.3848 -0.6615
  309MOL0     H42602   1.118   2.468   6.817 -1.0865  1.7605  1.8696
  309MOL0     H42603   1.180   2.626   6.769 -1.0368  2.0105 -2.2451
  309MOL0     H42604   0.841   2.368   7.061 -0.8077 -1.6590  1.6538
  309MOL0     H42605   0.835   2.373   7.324  3.8926  0.8607 -0.8012
  309MOL0     H42606   0.915   2.662   7.507  0.7946  2.9405  2.3288
  309MOL0     H42607   0.760   2.729   7.570  2.4362  1.2105  1.8717
  309MOL0     H42608   0.727   2.560   7.735 -0.3052  0.7032  1.9404
  309MOL0     H42609   0.868   2.470   7.686 -1.0055 -0.6256  1.1724
  309MOL0     H42610   0.879   2.769   7.769  1.5439  1.7951  1.2400
  309MOL0     H42611   1.016   2.661   7.730 -0.2242 -1.0787  0.2598
  309MOL0     H42612   0.923   2.505   7.921  1.1087 -0.8438 -1.3764
  309MOL0     H42613   0.854   2.660   7.976 -1.9535 -2.2057 -1.5596
  309MOL0     H42614   1.146   2.613   7.906  1.8591 -3.2830  3.4250
  309MOL0     H42615   1.064   2.760   7.975 -2.1600 -0.5938 -1.5248
  309MOL0     H42616   1.168   2.514   8.087  0.8347  0.3034 -2.3181
  309MOL0     H42617   1.032   2.580   8.184 -1.7156  0.8966 -1.9842
  309MOL0     H42618   1.153   2.788   8.201 -0.8549  0.7439 -2.7158
  309MOL0     H42619   1.302   2.718   8.113  1.8924 -4.2503  1.8800
  309MOL0     H42620   1.326   2.552   8.275 -0.7315 -0.7732  0.8600
  309MOL0     H42621   1.189   2.607   8.355 -0.2326 -1.7488 -0.9961
  309MOL0     H42622   0.659   2.772   7.289 -1.6710 -0.0214  1.6083
  309MOL0     H42623   0.688   2.751   7.046  1.1494  1.4219  0.7846
  309MOL0     H42624   0.696   2.651   6.668 -0.9232 -0.3511 -0.9840
  309MOL0     H42625   0.713   2.602   6.423  1.4735 -1.9044 -2.7571
  309MOL0     H42626   2.045   1.963   5.385  0.1646  0.0769  0.2917
  309MOL0     H42627   2.268   1.956   5.278  2.6890  1.8752 -0.1862
  309MOL0     H42628   2.554   2.337   5.032 -0.7661 -1.3089  2.2723
  309MOL0     H42629   2.769   2.366   4.916  0.0710 -1.3893 -2.6459
  309MOL0     H42630   2.913   2.214   4.706  0.0684  0.8325  0.0937
  309MOL0     H42631   2.956   2.355   4.810  0.8232  0.1197  1.0856
  309MOL0     H42632   3.146   2.128   4.740 -2.3033  0.3799 -2.4756
  309MOL0     H42633   3.194   2.255   4.851 -2.8937  0.7571  2.0168
  309MOL0     H42634   3.151   2.291   4.555 -2.0290  0.7832 -0.1217
  309MOL0     H42635   3.147   2.430   4.656  1.2354  0.3454  0.1805
  309MOL0     H42636   3.371   2.337   4.749 -2.1679 -1.0566  0.7057
  309MOL0     H42637   3.386   2.416   4.587 -0.0129  0.1910 -1.1282
  309MOL0     H42638   3.528   2.049   4.474 -1.7240 -0.2773 -0.5726
  309MOL0     H42639   2.856   1.949   4.995 -1.0545 -0.1450 -0.5862
  309MOL0     H42640   2.602   1.907   5.238 -3.0852 -0.2255 -1.3979
  309MOL0     H42641   2.565   1.841   5.072  1.8922 -1.2719 -1.6419
  309MOL0     H42642   2.726   1.830   5.131  2.2465  2.4097  0.6795
  310MOL0     O42643   3.621   8.632   5.736  0.3432  0.0113 -0.0374
  310MOL0     C42644   3.634   8.506   5.740 -0.3189 -0.2548 -0.7261
  310MOL0     O42645   3.753   8.443   5.783  0.3574  0.4783  0.0767
  310MOL0     C42646   3.844   8.514   5.857 -0.1311  0.8534 -0.0901
  310MOL0     C42647   3.809   8.615   5.943 -0.4225  0.0998  0.1826
  310MOL0     C42648   3.904   8.681   6.021 -1.0295  0.0153  0.0032
  310MOL0     C42649   4.038   8.622   6.027 -0.2229 -0.4998 -0.0608
  310MOL0     O42650   4.135   8.686   6.108 -0.4984  0.0167 -0.1615
  310MOL0     C42651   4.207   8.586   6.187 -0.5557 -0.4683 -0.2231
  310MOL0     C42652   4.266   8.651   6.309  0.4304 -0.0638  0.1086
  310MOL0     C42653   4.336   8.558   6.416 -0.2649  0.2833  0.2314
  310MOL0     C42654   4.419   8.629   6.520 -0.3999 -0.2281 -0.0712
  310MOL0     C42655   4.350   8.739   6.594 -0.2068  0.0485 -0.6436
  310MOL0     C42656   4.233   8.690   6.679  0.0362  0.2408  0.0417
  310MOL0     C42657   4.195   8.781   6.798 -0.9480  1.0925  0.1256
  310MOL0     C42658   4.112   8.702   6.898  0.0216  0.1489  0.9200
  310MOL0     N42659   4.000   8.630   6.831 -0.5239  0.0915  0.2002
  310MOL0     C42660   4.002   8.492   6.820 -0.7237  0.0712  0.3706
  310MOL0     C42661   3.885   8.452   6.758 -0.3067 -1.0092 -0.6299
  310MOL0     C42662   3.826   8.322   6.713  0.4135 -0.0971  0.2360
  310MOL0     C42663   3.729   8.317   6.594 -0.3029  0.1016  0.5008
  310MOL0     C42664   3.796   8.332   6.463 -0.6272 -0.9848  0.3606
  310MOL0     C42665   3.911   8.225   6.443 -0.5335 -0.6679  0.0386
  310MOL0     O42666   3.946   8.226   6.299 -0.3929 -0.5092 -0.1203
  310MOL0     C42667   3.855   8.164   6.218  0.7439  0.7702  0.1734
  310MOL0     C42668   3.890   8.162   6.084 -0.1183  0.1332 -0.5862
  310MOL0     C42669   3.823   8.100   5.980 -0.4836  0.2389 -0.2120
  310MOL0     C42670   3.882   8.093   5.841 -0.1721 -0.7093  0.3302
  310MOL0     C42671   3.709   8.025   6.011  0.2194  0.0493 -0.9303
  310MOL0     C42672   3.638   7.934   5.913 -0.2235 -0.5401 -0.8858
  310MOL0     O42673   3.551   7.854   5.969  0.8607 -0.7589 -0.4419
  310MOL0     C42674   3.499   7.750   5.899  0.0526 -0.0668  0.0529
  310MOL0     C42675   3.566   7.661   5.802  0.1602 -1.2186 -0.2514
  310MOL0     C42676   3.496   7.569   5.733 -0.5016 -0.4652  0.1302
  310MOL0     C42677   3.358   7.545   5.748  0.5076  0.2441  0.2210
  310MOL0     O42678   3.285   7.447   5.692  0.4396 -0.0798 -0.5168
  310MOL0     C42679   3.310   7.397   5.559  0.5952 -0.3830  0.5919
  310MOL0     C42680   3.178   7.353   5.506 -0.0892  0.5190 -0.0420
  310MOL0     C42681   3.122   7.249   5.606 -0.1837 -0.2107 -0.6491
  310MOL0     C42682   2.987   7.177   5.563  0.4599 -0.7342  0.6455
  310MOL0     C42683   2.880   7.282   5.525 -0.5754  0.4131 -0.5935
  310MOL0     C42684   2.747   7.211   5.501  0.4740  0.8270  0.3445
  310MOL0     C42685   2.645   7.309   5.451 -1.1063  0.0765 -0.2820
  310MOL0     C42686   2.507   7.238   5.433 -0.1309 -0.1521 -0.3532
  310MOL0    Cl42687   2.389   7.338   5.329 -0.1525  0.0791  0.0602
  310MOL0     C42688   3.283   7.638   5.833 -1.3066 -0.5293  0.8606
  310MOL0     C42689   3.359   7.733   5.912  0.3683 -0.1581  0.0267
  310MOL0     O42690   3.657   7.944   5.793 -0.3592 -0.2933 -0.1764
  310MOL0     C42691   3.658   8.038   6.141 -0.2835  0.1086 -0.2499
  310MOL0     C42692   3.733   8.107   6.239  0.5483  0.5608 -0.4895
  310MOL0     N42693   3.805   8.574   6.755 -0.7788  0.0171 -0.0072
  310MOL0     N42694   3.872   8.675   6.814 -0.2190 -0.5473  0.3205
  310MOL0     C42695   4.070   8.530   5.936  0.0809  0.3868  0.0441
  310MOL0     C42696   3.980   8.474   5.847  0.0015 -0.1264  0.4099
  310MOL0     C42697   3.517   8.415   5.719  0.4810 -0.1805  0.3728
  310MOL0     C42698   3.526   8.282   5.752  0.2152  0.4869  0.0231
  310MOL0     C42699   3.419   8.193   5.724  0.9150 -1.1947 -0.0275
  310MOL0     C42700   3.305   8.237   5.661  0.0646  0.0154 -0.5559
  310MOL0     O42701   3.200   8.159   5.620 -0.2738 -0.1700 -0.0996
  310MOL0     C42702   3.180   8.028   5.674  0.0630  0.0114 -0.5485
  310MOL0     C42703   3.251   7.917   5.598  0.3357 -1.3617 -0.8037
  310MOL0     C42704   3.242   7.928   5.450  0.3065  0.6004  0.5577
  310MOL0     C42705   3.105   7.946   5.383  0.5462 -0.0827 -0.2109
  310MOL0     C42706   3.024   7.831   5.400 -0.3545  0.5525 -0.6376
  310MOL0     C42707   2.960   7.726   5.430  0.5547 -0.4541 -0.2900
  310MOL0     C42708   3.300   8.374   5.631 -0.1605 -0.2813  0.6407
  310MOL0     C42709   3.397   8.463   5.668  0.1688 -0.9588 -0.6736
  310MOL0     C42710   3.367   8.612   5.635  0.1376 -0.4824  0.2088
  310MOL0     H42711   3.706   8.643   5.957 -0.6263 -0.2605 -0.5452
  310MOL0     H42712   3.880   8.769   6.081  0.1223 -0.2451  0.8888
  310MOL0     H42713   4.285   8.546   6.122 -1.7815 -1.3849 -1.1827
  310MOL0     H42714   4.143   8.507   6.226 -0.1871 -0.6463  0.0231
  310MOL0     H42715   4.337   8.725   6.269 -2.0004  0.8981 -2.8292
  310MOL0     H42716   4.193   8.710   6.364  1.6549 -0.3815  2.1717
  310MOL0     H42717   4.263   8.493   6.464  1.3500 -1.4972  0.3856
  310MOL0     H42718   4.410   8.497   6.364 -0.8643 -0.2674  0.0186
  310MOL0     H42719   4.456   8.571   6.605  0.2676  3.4989  2.4804
  310MOL0     H42720   4.499   8.683   6.470 -1.2878 -0.4519 -1.8108
  310MOL0     H42721   4.308   8.816   6.529 -0.9188 -0.1034 -0.3715
  310MOL0     H42722   4.421   8.783   6.665  2.5504 -3.2821 -1.0727
  310MOL0     H42723   4.147   8.664   6.616 -0.9966  3.0371  0.1575
  310MOL0     H42724   4.256   8.593   6.723  0.2630  0.3402  0.1405
  310MOL0     H42725   4.148   8.875   6.766  2.6579  3.3342  0.7654
  310MOL0     H42726   4.285   8.804   6.856 -2.0772  0.5377  2.1924
  310MOL0     H42727   4.180   8.632   6.948 -0.9890 -1.0447  0.6616
  310MOL0     H42728   4.070   8.769   6.974 -0.8901  2.0258 -1.1316
  310MOL0     H42729   4.088   8.437   6.857 -1.3775 -0.9268  0.4328
  310MOL0     H42730   3.773   8.279   6.798  1.5403 -1.0979  0.4504
  310MOL0     H42731   3.903   8.246   6.701  0.9951  0.4064  0.7146
  310MOL0     H42732   3.671   8.224   6.598 -0.5965  0.2136 -0.8172
  310MOL0     H42733   3.654   8.396   6.605 -0.5345  0.0546 -0.6593
  310MOL0     H42734   3.723   8.333   6.382  2.3522  0.4961 -2.5325
  310MOL0     H42735   3.847   8.428   6.456 -0.3349 -1.2156 -0.9041
  310MOL0     H42736   3.995   8.259   6.505 -1.5201  2.7616 -0.3253
  310MOL0     H42737   3.879   8.126   6.475 -0.6311 -1.0862 -1.2797
  310MOL0     H42738   3.980   8.218   6.062 -0.0358 -0.3577 -1.5321
  310MOL0     H42739   3.803   8.123   5.770 -1.5452  1.8024  2.7488
  310MOL0     H42740   3.923   7.994   5.818  0.8631  0.1852 -2.1285
  310MOL0     H42741   3.962   8.168   5.844  1.0215 -1.9152 -0.3493
  310MOL0     H42742   3.674   7.654   5.800  0.4671  1.3548 -4.1850
  310MOL0     H42743   3.562   7.510   5.671  1.4842  0.0166  1.6785
  310MOL0     H42744   3.349   7.475   5.493 -2.1204  1.7980  1.3709
  310MOL0     H42745   3.383   7.316   5.555 -2.3983 -3.2514 -0.4186
  310MOL0     H42746   3.109   7.438   5.501  1.5410  1.8476 -0.5138
  310MOL0     H42747   3.186   7.312   5.405 -1.5534 -0.5314  0.2329
  310MOL0     H42748   3.099   7.307   5.696  0.2913  0.3251 -0.8646
  310MOL0     H42749   3.196   7.173   5.634  0.0574  1.3252  3.4952
  310MOL0     H42750   2.940   7.122   5.646 -2.7526 -3.5217 -2.6964
  310MOL0     H42751   2.997   7.103   5.483  2.2679 -3.4396  3.1564
  310MOL0     H42752   2.870   7.356   5.604  3.5970  0.0023  0.5473
  310MOL0     H42753   2.919   7.318   5.430 -3.0225  1.0912 -1.4122
  310MOL0     H42754   2.709   7.187   5.601  3.1636  1.6062  1.6443
  310MOL0     H42755   2.744   7.121   5.440 -0.3072 -0.6205  2.3959
  310MOL0     H42756   2.668   7.340   5.349 -1.9615 -2.0767 -1.2016
  310MOL0     H42757   2.648   7.392   5.522 -0.2561  1.0922 -1.4747
  310MOL0     H42758   2.471   7.210   5.532  1.0423 -0.6204 -0.0475
  310MOL0     H42759   2.524   7.146   5.377  3.9680 -1.0431  1.9977
  310MOL0     H42760   3.175   7.629   5.837 -1.3861 -2.4370 -2.3125
  310MOL0     H42761   3.299   7.798   5.976  1.8021  1.4855 -0.2084
  310MOL0     H42762   3.558   8.001   6.164 -0.4674 -0.5554 -1.9542
  310MOL0     H42763   3.697   8.110   6.341  1.4837  1.5414 -0.1622
  310MOL0     H42764   4.176   8.514   5.921  1.1514  3.6988  2.8083
  310MOL0     H42765   4.021   8.408   5.772  0.2888  2.3091 -1.7324
  310MOL0     H42766   3.608   8.238   5.808  0.3353  2.2243  1.3066
  310MOL0     H42767   3.432   8.089   5.753  2.2203 -0.5565  1.8256
  310MOL0     H42768   3.218   8.029   5.777 -1.8981  0.0845  0.2128
  310MOL0     H42769   3.074   8.005   5.686  0.5684 -0.9678  3.1672
  310MOL0     H42770   3.206   7.823   5.630 -1.6269  0.5218  2.6156
  310MOL0     H42771   3.355   7.907   5.628  0.8831  0.2139 -2.0214
  310MOL0     H42772   3.302   8.014   5.419 -0.5128  0.0474 -2.9337
  310MOL0     H42773   3.290   7.834   5.422 -0.4621  0.2304  0.4637
  310MOL0     H42774   3.120   7.956   5.275 -0.4229  1.8639 -0.1970
  310MOL0     H42775   3.050   8.034   5.417 -2.9811 -1.7640 -1.1589
  310MOL0     H42776   2.908   7.640   5.466  0.9466 -1.4332 -1.9773
  310MOL0     H42777   3.212   8.414   5.582  2.2871  2.8590 -1.6102
  310MOL0     H42778   3.262   8.612   5.606  0.0143  1.2393  0.5521
  310MOL0     H42779   3.379   8.674   5.725 -1.8911  2.6213 -1.4654
  310MOL0     H42780   3.431   8.634   5.549 -2.2735  0.8975 -1.3574
  311MOL0     O42781   0.015   6.815   2.701  0.1675  0.3047 -0.2002
  311MOL0     C42782  -0.034   6.893   2.618  0.6540 -0.2266 -0.6460
  311MOL0     O42783   0.024   7.014   2.588 -0.1455  0.1379  0.6030
  311MOL0     C42784   0.143   7.049   2.642 -0.4346 -0.7738  0.3421
  311MOL0     C42785   0.268   6.999   2.608  1.3987  0.4398  0.2919
  311MOL0     C42786   0.390   7.031   2.675  0.2319  1.2774 -0.0100
  311MOL0     C42787   0.395   7.116   2.786  0.3915 -0.4774  0.8043
  311MOL0     O42788   0.519   7.144   2.839 -0.9135  0.4585 -0.5295
  311MOL0     C42789   0.518   7.221   2.965 -0.0486  0.7595 -0.6977
  311MOL0     C42790   0.662   7.222   3.016 -0.1288  0.2972 -0.4526
  311MOL0     C42791   0.742   7.321   2.933 -0.0236 -0.4649  1.1385
  311MOL0     C42792   0.867   7.379   3.002  0.0923  0.1345  0.6368
  311MOL0     C42793   0.988   7.279   2.991 -0.0998 -0.3667  0.1258
  311MOL0     C42794   0.991   7.194   3.123 -0.0272 -0.1206 -0.8341
  311MOL0     C42795   1.128   7.129   3.134  0.4471  0.0877  0.9044
  311MOL0     C42796   1.130   7.036   3.252  0.2409 -0.0865 -0.2849
  311MOL0     N42797   1.255   6.961   3.271 -0.3684  0.2797  0.0898
  311MOL0     C42798   1.285   6.827   3.243 -0.1655 -0.3690  0.3608
  311MOL0     C42799   1.413   6.803   3.270  0.0209  0.0721  0.2156
  311MOL0     C42800   1.495   6.680   3.234 -0.4090  0.3680  0.1119
  311MOL0     C42801   1.470   6.626   3.092  0.0256 -0.7516  1.0007
  311MOL0     C42802   1.590   6.526   3.067  0.4216  0.0383 -0.7613
  311MOL0     C42803   1.571   6.472   2.923 -0.4151  0.1668  0.7551
  311MOL0     O42804   1.443   6.413   2.916 -0.4793  0.6588  0.6349
  311MOL0     C42805   1.398   6.351   2.805 -0.4657  1.0246  0.3142
  311MOL0     C42806   1.474   6.326   2.683  0.2852  0.3041  0.8730
  311MOL0     C42807   1.410   6.264   2.573  0.2435 -0.3853 -0.1453
  311MOL0     C42808   1.497   6.253   2.447  0.6360  0.6708  0.2505
  311MOL0     C42809   1.278   6.221   2.577  0.6488  0.1459  0.0772
  311MOL0     C42810   1.205   6.158   2.465 -0.5610  0.2870  0.1241
  311MOL0     O42811   1.115   6.064   2.508  0.4373 -0.1910  0.1365
  311MOL0     C42812   1.058   5.982   2.417  0.3262 -0.1297 -0.3888
  311MOL0     C42813   0.928   6.018   2.366 -0.3019  0.2914  0.3546
  311MOL0     C42814   0.873   5.933   2.271 -0.1964 -0.8866 -0.6967
  311MOL0     C42815   0.926   5.810   2.236  0.2795 -0.0239  1.0400
  311MOL0     O42816   0.851   5.732   2.144 -0.1727  0.0981  0.0935
  311MOL0     C42817   0.936   5.647   2.061  0.9397  0.7700 -0.6745
  311MOL0     C42818   0.837   5.591   1.962 -0.0810 -0.0709 -0.3072
  311MOL0     C42819   0.751   5.475   2.011  1.1079 -0.3056 -0.2989
  311MOL0     C42820   0.678   5.406   1.889  0.2012  0.4546  0.6445
  311MOL0     C42821   0.583   5.294   1.941  0.4591 -0.1269  0.0313
  311MOL0     C42822   0.503   5.236   1.822 -1.0707  0.7011 -0.4960
  311MOL0     C42823   0.391   5.134   1.859 -0.5633  0.5104  0.3787
  311MOL0     C42824   0.443   5.013   1.946  0.2172  0.4913  0.8478
  311MOL0    Cl42825   0.553   4.919   1.839 -0.2567  0.3702  0.2454
  311MOL0     C42826   1.051   5.779   2.291  0.4452 -0.1852 -0.4890
  311MOL0     C42827   1.120   5.858   2.385  0.3724  0.4799  0.2869
  311MOL0     O42828   1.235   6.175   2.345 -0.6731 -0.5288 -0.2876
  311MOL0     C42829   1.214   6.230   2.706 -0.2292  0.7659 -0.7787
  311MOL0     C42830   1.270   6.304   2.810 -0.2832  0.8485  0.5054
  311MOL0     N42831   1.465   6.931   3.308 -0.1215 -0.2599  0.0120
  311MOL0     N42832   1.374   7.020   3.294  0.1518  0.1218  0.5666
  311MOL0     C42833   0.273   7.188   2.797 -1.0007 -0.4890 -0.5483
  311MOL0     C42834   0.154   7.148   2.733 -0.6879 -0.4534  1.0040
  311MOL0     C42835  -0.158   6.855   2.542  0.1080 -0.2096  0.1303
  311MOL0     C42836  -0.254   6.952   2.520 -0.1131 -0.7361  0.8309
  311MOL0     C42837  -0.385   6.908   2.484  0.4609  0.0401 -0.4683
  311MOL0     C42838  -0.415   6.777   2.445  0.8104 -0.6825  0.6474
  311MOL0     O42839  -0.539   6.744   2.397  0.9829  0.0556  0.1389
  311MOL0     C42840  -0.586   6.620   2.455 -0.2901 -0.4838  0.2302
  311MOL0     C42841  -0.687   6.543   2.366  1.0659 -0.8381  0.5407
  311MOL0     C42842  -0.819   6.614   2.360 -0.3025 -0.6753  0.9069
  311MOL0     C42843  -0.929   6.552   2.283  0.0302  0.1248  0.0230
  311MOL0     C42844  -1.053   6.638   2.265  0.3101 -0.4501  0.3839
  311MOL0     C42845  -1.152   6.700   2.234  0.3396  0.4604  0.3563
  311MOL0     C42846  -0.312   6.682   2.449 -0.3196 -0.5813  0.1763
  311MOL0     C42847  -0.187   6.717   2.503  0.2926 -0.2171 -0.5502
  311MOL0     C42848  -0.097   6.598   2.521 -0.4409 -0.0520  0.7521
  311MOL0     H42849   0.275   6.932   2.523 -2.7018  2.5825 -2.0512
  311MOL0     H42850   0.481   6.981   2.643 -2.2120 -3.6800 -0.1350
  311MOL0     H42851   0.466   7.166   3.044  0.9947  0.5267 -0.1581
  311MOL0     H42852   0.484   7.324   2.949  2.4284  1.4480 -2.0395
  311MOL0     H42853   0.667   7.251   3.121 -1.3936 -0.7192 -0.0839
  311MOL0     H42854   0.704   7.121   3.010 -1.1944 -0.1069 -1.7437
  311MOL0     H42855   0.766   7.267   2.841 -2.7079 -0.2192  0.1758
  311MOL0     H42856   0.676   7.397   2.890  1.5442  1.4675  1.9823
  311MOL0     H42857   0.903   7.468   2.949  1.8577 -0.4972  0.7340
  311MOL0     H42858   0.849   7.412   3.105  1.6653 -0.8997  1.2857
  311MOL0     H42859   1.073   7.346   2.974 -1.4453  1.2838 -0.5130
  311MOL0     H42860   0.981   7.219   2.900  0.0573  0.3341 -0.3585
  311MOL0     H42861   0.963   7.252   3.211  1.4443 -0.1224 -0.3350
  311MOL0     H42862   0.913   7.119   3.106 -0.0450 -0.0563 -1.0409
  311MOL0     H42863   1.202   7.204   3.161 -0.4735  1.2675  0.2773
  311MOL0     H42864   1.149   7.078   3.039 -2.6935  0.9282 -0.3922
  311MOL0     H42865   1.115   7.081   3.351 -2.6393 -2.2439  0.3832
  311MOL0     H42866   1.049   6.965   3.235 -0.4025  1.0335 -2.2344
  311MOL0     H42867   1.205   6.770   3.199 -2.8179  2.5306  1.0983
  311MOL0     H42868   1.486   6.609   3.316 -0.3380  0.9191  0.6057
  311MOL0     H42869   1.600   6.711   3.239 -0.8220  2.0066 -0.4895
  311MOL0     H42870   1.368   6.588   3.080  0.5540 -1.9315 -0.0341
  311MOL0     H42871   1.486   6.720   3.038  0.3426  0.5000  3.1499
  311MOL0     H42872   1.688   6.572   3.081  0.6694 -0.9785  1.2278
  311MOL0     H42873   1.597   6.438   3.132 -0.1863  0.7101  0.2400
  311MOL0     H42874   1.589   6.557   2.856  0.8047 -0.8593 -0.2673
  311MOL0     H42875   1.655   6.403   2.914 -2.1230 -1.7726 -1.6924
  311MOL0     H42876   1.576   6.359   2.667  0.0886 -0.6273 -4.1077
  311MOL0     H42877   1.605   6.259   2.464  0.6389  1.8434 -0.0465
  311MOL0     H42878   1.474   6.327   2.369  1.5350  2.2899  1.4384
  311MOL0     H42879   1.479   6.152   2.411  1.0459  0.3295  0.9653
  311MOL0     H42880   0.873   6.111   2.377 -0.4246  0.2658 -0.0336
  311MOL0     H42881   0.775   5.950   2.227 -0.1465 -0.0089 -0.5008
  311MOL0     H42882   1.016   5.704   2.013  0.0584  1.6655 -1.0941
  311MOL0     H42883   0.971   5.562   2.121 -0.9717 -1.6600 -2.7954
  311MOL0     H42884   0.772   5.666   1.915 -2.8118 -2.9058 -1.4261
  311MOL0     H42885   0.903   5.541   1.890 -0.1053  0.7612 -0.9249
  311MOL0     H42886   0.683   5.526   2.080  1.1829  2.5668 -2.2145
  311MOL0     H42887   0.809   5.394   2.059 -0.0466 -1.3024 -0.5373
  311MOL0     H42888   0.747   5.358   1.819 -2.6582 -2.7113 -0.2549
  311MOL0     H42889   0.617   5.482   1.840  0.4896 -0.0686 -0.5630
  311MOL0     H42890   0.639   5.206   1.973  1.0275  0.0707 -0.3927
  311MOL0     H42891   0.522   5.331   2.023  5.3993 -0.3109  4.3168
  311MOL0     H42892   0.576   5.202   1.749 -0.9165 -0.1862  0.0533
  311MOL0     H42893   0.457   5.319   1.767 -0.4330  1.2828 -0.1806
  311MOL0     H42894   0.361   5.096   1.761  0.8152  0.8744 -0.2199
  311MOL0     H42895   0.310   5.181   1.915 -1.3627  0.4402 -0.6901
  311MOL0     H42896   0.359   4.946   1.963  1.6809 -1.3085  1.3761
  311MOL0     H42897   0.483   5.039   2.044  1.2259  0.1981  0.5322
  311MOL0     H42898   1.116   5.698   2.259 -0.1954 -0.9652  0.1110
  311MOL0     H42899   1.218   5.831   2.425  0.4677  0.9375  0.3628
  311MOL0     H42900   1.112   6.197   2.723 -0.4618  2.5023  1.6829
  311MOL0     H42901   1.220   6.318   2.906  0.3911 -0.4834  1.0795
  311MOL0     H42902   0.286   7.273   2.864 -0.2439  0.3998 -1.7839
  311MOL0     H42903   0.066   7.211   2.746 -0.8288 -0.5998  0.7618
  311MOL0     H42904  -0.245   7.055   2.555  2.2334 -0.2804 -0.8589
  311MOL0     H42905  -0.462   6.983   2.502 -0.7641 -1.5523  1.4059
  311MOL0     H42906  -0.516   6.542   2.488 -1.4885 -0.8034  2.1575
  311MOL0     H42907  -0.636   6.663   2.542 -1.9090  0.8000 -1.2737
  311MOL0     H42908  -0.712   6.446   2.411 -4.0110 -0.9775 -1.8427
  311MOL0     H42909  -0.646   6.536   2.265  0.5998  0.4020  0.2496
  311MOL0     H42910  -0.862   6.632   2.460 -2.4376 -0.5506  0.0223
  311MOL0     H42911  -0.798   6.712   2.317 -0.3616 -0.8586  0.4616
  311MOL0     H42912  -0.968   6.466   2.338  0.1325  1.2875  2.0163
  311MOL0     H42913  -0.891   6.526   2.184  0.6893  0.2242  0.2486
  311MOL0     H42914  -1.240   6.753   2.203 -0.1117  1.0583  2.4977
  311MOL0     H42915  -0.333   6.592   2.393 -2.2732  0.6602 -1.2325
  311MOL0     H42916  -0.113   6.565   2.624 -0.0694  3.2353  1.9867
  311MOL0     H42917  -0.127   6.514   2.458  1.7931  0.3495 -0.9900
  311MOL0     H42918   0.008   6.627   2.506 -0.3689 -0.7267 -0.0973
  312MOL0     O42919   4.640   7.780   8.827 -0.0016  0.2188 -0.9035
  312MOL0     C42920   4.681   7.852   8.922  0.5218 -0.1991 -0.2856
  312MOL0     O42921   4.803   7.866   8.972  0.2719  0.3298  0.0380
  312MOL0     C42922   4.905   7.811   8.897  0.4218  0.3948 -0.3892
  312MOL0     C42923   4.941   7.860   8.772 -0.4560 -0.0299 -0.5030
  312MOL0     C42924   5.047   7.812   8.704 -0.4559 -0.6491 -0.0459
  312MOL0     C42925   5.126   7.706   8.753  0.2665 -0.0449  0.7065
  312MOL0     O42926   5.225   7.674   8.660  0.7518  0.1846 -0.3784
  312MOL0     C42927   5.315   7.570   8.689  0.4369 -0.1386 -0.1519
  312MOL0     C42928   5.424   7.606   8.795  0.6670 -0.2047  0.1962
  312MOL0     C42929   5.562   7.537   8.768 -0.2220  0.3689  0.0123
  312MOL0     C42930   5.664   7.560   8.886 -0.9662  0.5342  0.5932
  312MOL0     C42931   5.812   7.548   8.832  0.3466 -0.3706 -0.5828
  312MOL0     C42932   5.843   7.402   8.793 -1.3876 -0.0507  0.7521
  312MOL0     C42933   6.001   7.386   8.773 -0.7818  0.3475 -0.3159
  312MOL0     C42934   6.077   7.379   8.901 -0.1647 -0.2718  0.1429
  312MOL0     N42935   6.221   7.401   8.895  0.7032 -0.2065 -0.3447
  312MOL0     C42936   6.304   7.337   8.809  0.6125  0.5885  0.0827
  312MOL0     C42937   6.432   7.383   8.830  0.2225  1.4140 -0.1602
  312MOL0     C42938   6.557   7.332   8.776 -0.0409 -0.1915  0.2312
  312MOL0     C42939   6.669   7.313   8.879  0.1274  0.8248  0.4132
  312MOL0     C42940   6.789   7.244   8.820  0.5009  0.8328 -0.3434
  312MOL0     C42941   6.875   7.319   8.710 -0.4802 -0.0830  0.7052
  312MOL0     O42942   7.013   7.277   8.697 -0.9387  0.4756 -0.1818
  312MOL0     C42943   7.100   7.298   8.798  0.0117  0.1408  0.0245
  312MOL0     C42944   7.081   7.378   8.912 -0.7490 -0.4374 -0.3443
  312MOL0     C42945   7.185   7.387   9.009 -0.7687 -0.5209  0.0617
  312MOL0     C42946   7.155   7.485   9.125  0.2928  0.7400  0.0319
  312MOL0     C42947   7.309   7.313   8.989 -0.1711  0.1181 -0.5135
  312MOL0     C42948   7.421   7.315   9.083  0.8742 -0.2307  0.5761
  312MOL0     O42949   7.532   7.250   9.035 -0.0897  0.3838  0.0361
  312MOL0     C42950   7.653   7.248   9.110 -0.6732 -0.2109  0.2305
  312MOL0     C42951   7.663   7.260   9.247  0.7723  0.1954  0.3159
  312MOL0     C42952   7.790   7.260   9.304  1.4160  0.2843  0.0988
  312MOL0     C42953   7.902   7.231   9.224  0.0722  1.4663 -0.0789
  312MOL0     O42954   8.020   7.213   9.292 -0.1022 -0.2517  0.5366
  312MOL0     C42955   8.145   7.196   9.217 -0.0096 -0.7829  0.4902
  312MOL0     C42956   8.260   7.198   9.320  0.5199  0.2662 -0.0748
  312MOL0     C42957   8.402   7.164   9.269 -0.1455 -0.6119  0.1651
  312MOL0     C42958   8.465   7.293   9.200  0.2196  0.4661  0.8453
  312MOL0     C42959   8.589   7.259   9.110 -0.7795  0.6532 -0.7537
  312MOL0     C42960   8.727   7.241   9.178 -0.3006 -0.1824 -0.6267
  312MOL0     C42961   8.792   7.367   9.252  0.3511  0.2178  0.3100
  312MOL0     C42962   8.869   7.471   9.170  0.6869  0.3553 -0.2480
  312MOL0    Cl42963   8.990   7.394   9.063  0.2022 -0.4788  0.1849
  312MOL0     C42964   7.889   7.202   9.082  0.0026 -0.6239  0.3974
  312MOL0     C42965   7.766   7.219   9.030 -0.0203 -0.2142 -0.3474
  312MOL0     O42966   7.407   7.364   9.194 -0.2931 -0.0466  0.3747
  312MOL0     C42967   7.317   7.230   8.876 -0.2397 -0.0441 -0.0707
  312MOL0     C42968   7.218   7.221   8.780  0.1143 -0.3010  0.2128
  312MOL0     N42969   6.423   7.486   8.931  1.2327 -0.6533  0.8503
  312MOL0     N42970   6.292   7.490   8.971  0.0222 -0.0356 -0.3039
  312MOL0     C42971   5.090   7.664   8.882 -0.6476 -0.6248 -0.0332
  312MOL0     C42972   4.986   7.721   8.959 -0.1721  0.5192  0.0215
  312MOL0     C42973   4.556   7.917   8.985  0.1580  0.4026  0.1985
  312MOL0     C42974   4.519   8.052   8.956  1.1072 -0.2750  0.2804
  312MOL0     C42975   4.403   8.110   9.013  0.1926 -0.4246 -0.5545
  312MOL0     C42976   4.318   8.032   9.093 -0.6204 -0.3573 -0.2927
  312MOL0     O42977   4.207   8.085   9.156 -0.7851 -0.2463 -0.2270
  312MOL0     C42978   4.188   8.230   9.175 -0.3999  0.5713  0.8444
  312MOL0     C42979   4.061   8.250   9.257 -0.1873  0.4301 -0.6658
  312MOL0     C42980   4.021   8.398   9.253 -1.0099  1.1313 -0.2458
  312MOL0     C42981   3.869   8.411   9.270 -0.4057 -0.2416 -0.1572
  312MOL0     C42982   3.798   8.380   9.145  0.1877 -0.4298  0.2338
  312MOL0     C42983   3.736   8.357   9.044 -0.0344 -0.0505  0.5107
  312MOL0     C42984   4.343   7.896   9.109 -0.5494  0.3487 -0.4765
  312MOL0     C42985   4.468   7.842   9.066 -0.1640 -0.5330  0.7848
  312MOL0     C42986   4.500   7.704   9.113  0.4705  0.4728  0.4766
  312MOL0     H42987   4.884   7.942   8.728 -1.3476  0.0045  0.6559
  312MOL0     H42988   5.066   7.836   8.600 -1.4108  1.3898  0.2109
  312MOL0     H42989   5.362   7.554   8.591  0.7021  4.7986 -1.0726
  312MOL0     H42990   5.265   7.479   8.724 -2.1709  1.9351  1.9890
  312MOL0     H42991   5.439   7.714   8.808  1.8142 -0.4970  1.5142
  312MOL0     H42992   5.390   7.570   8.892 -1.4242  0.6942 -0.1542
  312MOL0     H42993   5.546   7.436   8.729  2.2236  1.5947 -4.9579
  312MOL0     H42994   5.605   7.585   8.680  2.5437 -0.6182  0.7111
  312MOL0     H42995   5.652   7.654   8.940 -0.2854  2.5651 -2.5147
  312MOL0     H42996   5.645   7.478   8.955 -1.5991 -0.6397 -0.9106
  312MOL0     H42997   5.889   7.590   8.898  1.4926  1.5898 -2.9763
  312MOL0     H42998   5.816   7.603   8.737 -0.7543 -0.3291 -0.6228
  312MOL0     H42999   5.817   7.331   8.872 -0.1569  0.2801  1.4786
  312MOL0     H43000   5.787   7.379   8.702 -1.1720 -2.4026  1.1549
  312MOL0     H43001   6.038   7.473   8.718  0.4288  1.3921  2.0215
  312MOL0     H43002   6.013   7.291   8.721  1.2177  1.1221 -1.3498
  312MOL0     H43003   6.022   7.437   8.976 -0.5538  0.6835 -0.8655
  312MOL0     H43004   6.067   7.276   8.937 -1.3813  0.4995  2.2146
  312MOL0     H43005   6.281   7.255   8.741  0.2056 -0.5484  1.5149
  312MOL0     H43006   6.593   7.402   8.699 -1.3008 -0.9979 -1.1377
  312MOL0     H43007   6.548   7.238   8.721  1.1721  0.4771 -1.1999
  312MOL0     H43008   6.702   7.410   8.916  1.5696  0.7936 -0.7254
  312MOL0     H43009   6.634   7.255   8.966  0.0615 -0.6567 -0.5662
  312MOL0     H43010   6.850   7.224   8.909 -3.9715 -2.0350  2.4931
  312MOL0     H43011   6.761   7.149   8.772  1.0144  0.3414  0.3094
  312MOL0     H43012   6.828   7.304   8.612  0.9049  0.0533 -0.0063
  312MOL0     H43013   6.880   7.427   8.728 -1.8777  0.1706 -0.2304
  312MOL0     H43014   6.986   7.430   8.918  1.4570  3.9757  1.6970
  312MOL0     H43015   7.076   7.559   9.108  0.9439  0.9660 -2.4543
  312MOL0     H43016   7.247   7.543   9.138  0.4879  0.6574 -0.9174
  312MOL0     H43017   7.143   7.411   9.205  1.7828  0.2313 -0.1866
  312MOL0     H43018   7.581   7.279   9.315  2.0425 -1.7986  2.5431
  312MOL0     H43019   7.792   7.297   9.407 -2.7039  2.2820 -0.3203
  312MOL0     H43020   8.143   7.103   9.160 -2.4278 -0.0112 -0.8137
  312MOL0     H43021   8.157   7.276   9.143 -2.5283 -1.0027 -0.2664
  312MOL0     H43022   8.254   7.305   9.346  0.4037 -0.2917  2.4706
  312MOL0     H43023   8.231   7.136   9.405 -1.2577  0.6872 -0.3322
  312MOL0     H43024   8.409   7.079   9.201  3.6982  1.0774 -1.8439
  312MOL0     H43025   8.462   7.133   9.356  1.3444 -0.8591 -0.9180
  312MOL0     H43026   8.501   7.354   9.284 -1.0011 -1.3970  2.8337
  312MOL0     H43027   8.392   7.347   9.140 -0.4363  0.0942  1.2938
  312MOL0     H43028   8.571   7.167   9.053 -1.6830  1.5826 -2.0258
  312MOL0     H43029   8.600   7.333   9.029  0.2468  0.2889 -0.9710
  312MOL0     H43030   8.791   7.192   9.104  0.4379 -1.6270  0.8984
  312MOL0     H43031   8.716   7.160   9.251  0.1074 -0.0823 -0.4518
  312MOL0     H43032   8.852   7.329   9.336  0.0718 -0.0653  0.3839
  312MOL0     H43033   8.712   7.415   9.308  0.2947  1.5256 -0.8529
  312MOL0     H43034   8.932   7.520   9.245  5.4549 -0.6679 -3.1237
  312MOL0     H43035   8.802   7.546   9.128 -0.0218 -0.1755 -0.0804
  312MOL0     H43036   7.963   7.171   9.009 -1.6308 -0.1261 -1.5791
  312MOL0     H43037   7.763   7.209   8.921 -0.8696 -2.2153 -0.1902
  312MOL0     H43038   7.404   7.172   8.848 -0.2070 -0.6625  1.2559
  312MOL0     H43039   7.231   7.148   8.700 -1.5815 -0.8742  0.4100
  312MOL0     H43040   5.141   7.581   8.929 -1.4129 -1.4779 -0.6646
  312MOL0     H43041   4.957   7.684   9.056 -3.0315  2.6476  0.1041
  312MOL0     H43042   4.585   8.109   8.892  0.3298 -1.0129 -1.2284
  312MOL0     H43043   4.370   8.211   8.993  2.8225  0.2528 -1.9321
  312MOL0     H43044   4.270   8.278   9.229  2.5455 -0.1271 -2.6366
  312MOL0     H43045   4.173   8.273   9.076  3.2436 -0.4424 -0.3017
  312MOL0     H43046   4.081   8.221   9.361  2.6925  2.4995 -0.5312
  312MOL0     H43047   3.984   8.180   9.223  3.3495 -4.0063 -0.3647
  312MOL0     H43048   4.082   8.450   9.327  1.8384 -0.9212 -0.9927
  312MOL0     H43049   4.049   8.449   9.160  2.5384  1.5699  0.9293
  312MOL0     H43050   3.849   8.513   9.307 -0.3936 -0.6627  1.0419
  312MOL0     H43051   3.848   8.339   9.349 -1.0866 -0.8522 -0.8704
  312MOL0     H43052   3.680   8.331   8.956 -2.7037 -2.8064  2.8076
  312MOL0     H43053   4.288   7.838   9.182  1.4425  1.7096  2.3018
  312MOL0     H43054   4.570   7.714   9.196 -0.9027 -1.5854  1.9806
  312MOL0     H43055   4.415   7.647   9.152  1.1657  0.4511  2.0036
  312MOL0     H43056   4.549   7.657   9.027  0.6753  2.5371 -0.5956
  313MOL0     O43057   2.852   4.753   4.747  0.4784  0.2434  0.0191
  313MOL0     C43058   2.819   4.655   4.675  0.5747 -0.0862 -0.3832
  313MOL0     O43059   2.688   4.631   4.638  0.0328 -0.5832 -0.0753
  313MOL0     C43060   2.607   4.737   4.635  0.9407 -0.8180 -0.2144
  313MOL0     C43061   2.628   4.846   4.555 -0.4170 -0.1659  0.3713
  313MOL0     C43062   2.559   4.972   4.580  0.0712  0.0602  0.9007
  313MOL0     C43063   2.444   4.972   4.658 -1.0833 -0.3198  0.6349
  313MOL0     O43064   2.381   5.092   4.665  0.6713 -0.2643  0.2814
  313MOL0     C43065   2.262   5.106   4.752 -0.4843 -0.4596  0.5372
  313MOL0     C43066   2.145   5.052   4.677  1.0564  0.0419  0.0269
  313MOL0     C43067   2.084   5.164   4.583  0.6282 -0.1361 -0.2705
  313MOL0     C43068   1.967   5.107   4.501 -0.6939 -0.0562 -0.6022
  313MOL0     C43069   1.865   5.042   4.590 -0.0698 -0.2577 -0.3926
  313MOL0     C43070   1.725   5.024   4.528  1.4395 -0.1175  0.1728
  313MOL0     C43071   1.620   4.941   4.600 -0.9827 -0.2653  0.5459
  313MOL0     C43072   1.501   4.899   4.507 -1.0881 -0.9408 -0.1494
  313MOL0     N43073   1.450   4.765   4.539  0.0562 -0.0188 -0.4970
  313MOL0     C43074   1.426   4.656   4.448  0.0123 -0.4929 -0.2749
  313MOL0     C43075   1.374   4.558   4.527 -0.5189  0.4413  0.0767
  313MOL0     C43076   1.344   4.419   4.475  1.0046  0.6117 -0.0443
  313MOL0     C43077   1.208   4.395   4.393 -1.0301 -0.2744  0.3391
  313MOL0     C43078   1.132   4.276   4.437  0.9937 -0.2422  0.6317
  313MOL0     C43079   1.011   4.248   4.334  0.5864  0.4117 -0.0096
  313MOL0     O43080   0.917   4.360   4.340  0.1396 -1.3813  0.3520
  313MOL0     C43081   0.810   4.360   4.252  0.7056 -0.1629 -0.3404
  313MOL0     C43082   0.794   4.456   4.147  0.7600 -0.2968  0.9857
  313MOL0     C43083   0.690   4.449   4.047  0.2020 -0.0907  0.4530
  313MOL0     C43084   0.697   4.558   3.939 -0.2409 -0.0892 -0.0482
  313MOL0     C43085   0.602   4.337   4.061  0.0398  0.5246 -0.8824
  313MOL0     C43086   0.495   4.304   3.966 -1.1579  0.2459  0.1330
  313MOL0     O43087   0.431   4.180   3.987  0.8965  0.1892 -0.3684
  313MOL0     C43088   0.374   4.112   3.878  0.1217  0.1718 -0.7970
  313MOL0     C43089   0.406   3.975   3.867 -0.9937 -0.8415 -0.9160
  313MOL0     C43090   0.351   3.891   3.773  0.0756 -0.2494  0.4146
  313MOL0     C43091   0.250   3.942   3.693 -0.9178 -1.1864  0.3480
  313MOL0     O43092   0.190   3.861   3.613  0.0324 -0.2333  1.0741
  313MOL0     C43093   0.073   3.896   3.542 -0.2791  0.1577  0.5585
  313MOL0     C43094   0.051   3.791   3.434  0.4617 -0.2898 -0.0617
  313MOL0     C43095  -0.075   3.832   3.352  0.5511  0.1622  0.0088
  313MOL0     C43096  -0.030   3.925   3.238  0.0742  0.1541 -0.2648
  313MOL0     C43097  -0.147   3.966   3.150  0.4014  0.6787  0.2939
  313MOL0     C43098  -0.204   3.857   3.059  0.0076  0.8246  0.4586
  313MOL0     C43099  -0.326   3.904   2.992 -0.3162 -0.5676 -0.0806
  313MOL0     C43100  -0.319   3.867   2.849 -0.2947 -0.1700  0.5617
  313MOL0    Cl43101  -0.435   3.942   2.741 -0.0290  0.4376  0.3876
  313MOL0     C43102   0.216   4.078   3.703  0.7210 -0.3288 -0.2601
  313MOL0     C43103   0.278   4.164   3.791 -0.0183 -0.0705  0.1353
  313MOL0     O43104   0.494   4.364   3.852 -0.6358 -0.0205 -0.5040
  313MOL0     C43105   0.613   4.253   4.177 -0.2535  0.7685 -0.5441
  313MOL0     C43106   0.711   4.268   4.273  0.3084 -0.5150  0.3682
  313MOL0     N43107   1.372   4.603   4.652  0.5897 -0.4954  0.2902
  313MOL0     N43108   1.408   4.719   4.658 -0.2973  0.1348  0.0436
  313MOL0     C43109   2.414   4.858   4.731  0.3402  0.5441  0.0515
  313MOL0     C43110   2.503   4.747   4.727  0.9400 -0.1967 -0.2177
  313MOL0     C43111   2.915   4.555   4.647 -0.0828  0.6530  0.9212
  313MOL0     C43112   2.898   4.484   4.519 -0.3941 -0.5989 -0.8433
  313MOL0     C43113   2.996   4.403   4.472  0.0209  0.5300 -0.6780
  313MOL0     C43114   3.115   4.382   4.546 -0.0160  0.0288  0.4849
  313MOL0     O43115   3.197   4.286   4.495  0.2648 -0.0875 -0.4263
  313MOL0     C43116   3.334   4.318   4.517  0.4228  0.4975 -0.2703
  313MOL0     C43117   3.420   4.217   4.449  0.1676 -0.6263 -0.5853
  313MOL0     C43118   3.567   4.248   4.458 -0.7980  0.7811  1.2335
  313MOL0     C43119   3.662   4.146   4.391  0.1896  0.2819  0.1119
  313MOL0     C43120   3.614   4.005   4.401 -0.8598 -0.2278 -0.6658
  313MOL0     C43121   3.579   3.892   4.383 -0.4860  0.9772  0.3203
  313MOL0     C43122   3.126   4.438   4.670  0.3244  0.7201 -0.6465
  313MOL0     C43123   3.028   4.524   4.723 -0.6769 -0.6784  0.4717
  313MOL0     C43124   3.057   4.573   4.864  0.1854  0.0794 -0.2195
  313MOL0     H43125   2.716   4.863   4.494 -0.1905  1.8428  1.1842
  313MOL0     H43126   2.585   5.068   4.535  0.5126  0.2462  1.5405
  313MOL0     H43127   2.243   5.211   4.777  2.2669  0.7334 -1.7026
  313MOL0     H43128   2.292   5.056   4.845  2.3711 -1.8415 -0.9778
  313MOL0     H43129   2.164   4.963   4.616 -1.2133  0.5962 -1.6170
  313MOL0     H43130   2.075   5.020   4.754  0.4689 -0.7559 -0.8156
  313MOL0     H43131   2.043   5.253   4.630 -1.1782  0.4851 -2.8580
  313MOL0     H43132   2.167   5.198   4.521  1.3452 -2.7021 -0.8597
  313MOL0     H43133   1.918   5.182   4.438  0.6173  1.7468  0.4165
  313MOL0     H43134   2.009   5.033   4.433 -2.7116 -2.9322  1.0825
  313MOL0     H43135   1.855   5.108   4.677 -0.3453 -2.4315  1.3208
  313MOL0     H43136   1.901   4.946   4.627  1.6677  1.1002  1.6629
  313MOL0     H43137   1.697   5.130   4.520 -1.4504 -0.9106 -1.4130
  313MOL0     H43138   1.733   4.986   4.425  0.1733  2.1749 -0.8550
  313MOL0     H43139   1.593   4.987   4.695 -0.9106  0.8351  0.0553
  313MOL0     H43140   1.674   4.847   4.615 -0.0272  0.1976  0.0964
  313MOL0     H43141   1.422   4.973   4.517 -1.2347 -1.1804  0.5212
  313MOL0     H43142   1.533   4.898   4.402  0.9908  0.3622  0.4113
  313MOL0     H43143   1.461   4.655   4.345 -1.5388  0.0376 -0.8379
  313MOL0     H43144   1.337   4.357   4.566  0.4144  1.5247  0.5465
  313MOL0     H43145   1.436   4.395   4.420 -0.6999 -0.0887 -2.7849
  313MOL0     H43146   1.152   4.488   4.403 -1.3231 -0.2888 -0.9391
  313MOL0     H43147   1.233   4.388   4.286 -1.6605  0.8234  0.1016
  313MOL0     H43148   1.201   4.191   4.431 -1.7960 -2.7411  1.4001
  313MOL0     H43149   1.091   4.283   4.538 -0.6237 -0.2442  0.0014
  313MOL0     H43150   1.042   4.231   4.230 -0.7147 -1.1694 -0.1685
  313MOL0     H43151   0.960   4.156   4.364 -1.1616  0.2341 -3.1174
  313MOL0     H43152   0.869   4.535   4.139 -0.2986  1.1760  3.8611
  313MOL0     H43153   0.597   4.603   3.934 -1.3572 -2.5206 -1.0992
  313MOL0     H43154   0.728   4.509   3.847  2.7739  0.0311  0.8025
  313MOL0     H43155   0.764   4.640   3.969 -0.8991  0.9073 -1.2117
  313MOL0     H43156   0.481   3.936   3.935 -1.5744 -0.7539 -0.2130
  313MOL0     H43157   0.368   3.784   3.774 -1.0281 -0.4411  1.2145
  313MOL0     H43158  -0.012   3.910   3.609  0.7757  0.0797  1.9647
  313MOL0     H43159   0.091   3.994   3.495 -0.7450  1.1802  2.4224
  313MOL0     H43160   0.136   3.792   3.366 -0.8261  0.8300 -1.7279
  313MOL0     H43161   0.041   3.690   3.475 -2.8124  0.4080  1.1449
  313MOL0     H43162  -0.140   3.880   3.426 -0.4023  2.3311 -2.1008
  313MOL0     H43163  -0.124   3.745   3.307 -2.5209  2.0649 -0.5820
  313MOL0     H43164   0.053   3.881   3.181  0.9502  0.4725  0.7372
  313MOL0     H43165   0.011   4.019   3.277 -0.6523 -0.1201  1.2412
  313MOL0     H43166  -0.231   4.004   3.209  1.5106  1.5849  1.3266
  313MOL0     H43167  -0.110   4.047   3.087  0.8390  0.3622  0.1426
  313MOL0     H43168  -0.213   3.761   3.110 -0.7551 -1.1632 -3.0747
  313MOL0     H43169  -0.127   3.832   2.985  1.6794  1.7018  1.8375
  313MOL0     H43170  -0.342   4.012   3.006 -1.3931 -1.0661  4.0801
  313MOL0     H43171  -0.417   3.854   3.027 -0.9936  0.2015 -0.6921
  313MOL0     H43172  -0.332   3.759   2.851 -0.3510 -0.1781  2.8965
  313MOL0     H43173  -0.220   3.878   2.802 -1.3647 -1.3408 -2.1596
  313MOL0     H43174   0.147   4.126   3.634  0.9119 -0.1195 -0.3081
  313MOL0     H43175   0.261   4.271   3.799  0.6757  0.0038  0.6793
  313MOL0     H43176   0.533   4.181   4.194 -1.4808  2.1545 -0.2364
  313MOL0     H43177   0.710   4.207   4.363  3.7863  1.6285  2.0478
  313MOL0     H43178   2.336   4.861   4.806  1.8353  1.4067  1.6510
  313MOL0     H43179   2.493   4.659   4.789 -0.8564  0.1397  0.0450
  313MOL0     H43180   2.815   4.494   4.449  0.6889  0.2568 -2.0655
  313MOL0     H43181   2.987   4.339   4.385 -2.1266  2.3246 -1.8618
  313MOL0     H43182   3.352   4.423   4.489  1.2217  0.8873  1.5384
  313MOL0     H43183   3.358   4.319   4.623  1.7386 -3.5362 -0.3769
  313MOL0     H43184   3.396   4.211   4.342  1.3781 -2.5088 -0.7982
  313MOL0     H43185   3.402   4.127   4.507  1.3089  1.5216  3.4927
  313MOL0     H43186   3.597   4.348   4.424 -1.5413  1.9924  3.8716
  313MOL0     H43187   3.597   4.242   4.563  0.2750 -1.7164  0.8428
  313MOL0     H43188   3.766   4.155   4.424 -0.3859  0.3490  2.0383
  313MOL0     H43189   3.660   4.178   4.287  0.1980 -0.2464 -0.0486
  313MOL0     H43190   3.563   3.786   4.380  1.7313  0.5848  0.4436
  313MOL0     H43191   3.204   4.403   4.737  0.0004 -1.4494 -1.3173
  313MOL0     H43192   3.161   4.576   4.896  0.0225  4.1700  0.4431
  313MOL0     H43193   3.035   4.680   4.865  0.4174  0.1262  0.2236
  313MOL0     H43194   2.999   4.527   4.945  0.7665  0.1776  0.2588
  314MOL0     O43195   6.965   0.569   6.160 -0.2608  0.2143 -0.3510
  314MOL0     C43196   6.990   0.686   6.125 -1.1752  0.4649 -0.4030
  314MOL0     O43197   6.905   0.791   6.127 -0.2717  0.8387  0.2329
  314MOL0     C43198   6.784   0.768   6.181  0.3584  0.1825 -0.3401
  314MOL0     C43199   6.725   0.872   6.252  0.7025  0.3150 -0.3205
  314MOL0     C43200   6.601   0.852   6.316 -0.0920 -0.2316  0.8941
  314MOL0     C43201   6.522   0.742   6.287 -0.2919  0.4343 -0.3451
  314MOL0     O43202   6.404   0.725   6.359 -0.8798  0.5292 -0.0449
  314MOL0     C43203   6.295   0.664   6.294 -0.2901 -0.0096  0.2990
  314MOL0     C43204   6.165   0.666   6.371  0.0498 -0.4165  0.1197
  314MOL0     C43205   6.164   0.627   6.516  0.7933  0.5434  0.1090
  314MOL0     C43206   6.225   0.493   6.554 -0.5718  0.3214  0.2884
  314MOL0     C43207   6.128   0.376   6.527 -0.2942  0.0476  0.7373
  314MOL0     C43208   6.193   0.241   6.539 -0.3536  0.2606  0.1091
  314MOL0     C43209   6.152   0.145   6.437 -0.6380 -0.3549 -0.1621
  314MOL0     C43210   6.193   0.005   6.467  0.1858 -0.4500 -0.8657
  314MOL0     N43211   6.341   0.003   6.482  0.3886 -0.4284 -0.1357
  314MOL0     C43212   6.425  -0.032   6.382 -1.3933  0.6957 -0.4359
  314MOL0     C43213   6.545  -0.058   6.449 -0.1140  0.1453 -0.0332
  314MOL0     C43214   6.659  -0.130   6.384 -0.2576 -0.8189 -1.1299
  314MOL0     C43215   6.805  -0.124   6.453  0.1880  0.6278 -0.4504
  314MOL0     C43216   6.918  -0.187   6.360 -0.0396 -0.1863 -0.4088
  314MOL0     C43217   7.051  -0.188   6.430 -0.2081 -0.6582 -0.7887
  314MOL0     O43218   7.115  -0.056   6.418 -0.1502  0.3317 -0.4045
  314MOL0     C43219   7.255  -0.052   6.425 -0.2120  0.4051  0.1832
  314MOL0     C43220   7.322   0.056   6.367 -0.3377 -0.6184  0.3668
  314MOL0     C43221   7.462   0.062   6.347  0.8595  0.0412  0.3965
  314MOL0     C43222   7.527   0.177   6.266  0.0267 -0.8809 -0.3701
  314MOL0     C43223   7.543  -0.041   6.399 -0.2550  0.0043 -0.1988
  314MOL0     C43224   7.698  -0.044   6.396 -0.3750  0.6834 -1.0413
  314MOL0     O43225   7.748  -0.170   6.436  0.3596  0.6637  0.3488
  314MOL0     C43226   7.883  -0.198   6.462 -1.0725  0.1340  0.5430
  314MOL0     C43227   7.991  -0.109   6.433 -0.2694 -0.3409 -0.6841
  314MOL0     C43228   8.119  -0.153   6.450  0.4064 -0.2079  0.4907
  314MOL0     C43229   8.148  -0.284   6.488  0.1392 -1.1147 -0.5448
  314MOL0     O43230   8.277  -0.317   6.483  0.1931  0.7730  0.3589
  314MOL0     C43231   8.308  -0.439   6.405 -0.5716 -0.0616  0.1795
  314MOL0     C43232   8.399  -0.411   6.276  0.0779 -0.3654  0.5552
  314MOL0     C43233   8.525  -0.329   6.316  0.3525 -0.5099 -0.0692
  314MOL0     C43234   8.617  -0.315   6.191  0.4096  0.2303 -0.0563
  314MOL0     C43235   8.741  -0.235   6.222 -0.4776  0.7782 -0.1100
  314MOL0     C43236   8.864  -0.327   6.246 -0.5667 -0.9684 -0.7998
  314MOL0     C43237   8.924  -0.378   6.115  0.4920  0.9577 -0.2631
  314MOL0     C43238   9.057  -0.441   6.135  0.4362  0.1424 -0.4041
  314MOL0    Cl43239   9.172  -0.317   6.184 -0.1577  0.1535 -0.5292
  314MOL0     C43240   8.042  -0.365   6.517  0.0747  0.7558  0.9628
  314MOL0     C43241   7.911  -0.326   6.501  0.6235 -0.2908  0.1593
  314MOL0     O43242   7.757   0.052   6.353 -0.4547  0.6767 -0.9498
  314MOL0     C43243   7.478  -0.146   6.474 -0.3296 -0.3734  0.4819
  314MOL0     C43244   7.334  -0.149   6.482  0.5902  0.3384  1.3105
  314MOL0     N43245   6.528  -0.035   6.587 -0.1405 -0.3214  0.1657
  314MOL0     N43246   6.404   0.005   6.601  0.2587 -1.2060  0.0940
  314MOL0     C43247   6.576   0.642   6.204 -1.0367 -0.1722  0.2024
  314MOL0     C43248   6.706   0.661   6.153  0.2800 -0.2053  0.3040
  314MOL0     C43249   7.124   0.717   6.058 -0.2364  0.2506 -0.2267
  314MOL0     C43250   7.139   0.839   5.991 -0.4192  0.1447  0.6078
  314MOL0     C43251   7.259   0.872   5.920 -0.5969  0.4884 -0.0329
  314MOL0     C43252   7.363   0.781   5.922  0.2554 -0.2187  0.8496
  314MOL0     O43253   7.473   0.815   5.849 -0.0970  0.3406 -0.4023
  314MOL0     C43254   7.592   0.822   5.935 -0.7194 -0.1169 -0.4916
  314MOL0     C43255   7.681   0.925   5.872  1.0716  0.9985  0.2365
  314MOL0     C43256   7.818   0.933   5.935 -0.8839 -1.1275 -0.7871
  314MOL0     C43257   7.903   1.060   5.896 -0.2794  0.1452 -0.0036
  314MOL0     C43258   8.050   1.052   5.915  0.7362  0.5816 -0.0100
  314MOL0     C43259   8.175   1.045   5.901 -0.4560 -0.0921  0.0348
  314MOL0     C43260   7.349   0.663   5.984  0.1525  0.4138  0.7233
  314MOL0     C43261   7.228   0.625   6.045  0.2788  0.9236  0.9773
  314MOL0     C43262   7.233   0.491   6.112 -0.1185 -0.1106  1.0753
  314MOL0     H43263   6.786   0.961   6.256 -0.0844  0.9203 -1.2957
  314MOL0     H43264   6.553   0.930   6.374  0.6261  2.5452 -1.9938
  314MOL0     H43265   6.315   0.559   6.271 -2.5288  0.4422 -5.1943
  314MOL0     H43266   6.287   0.721   6.200  3.2051 -0.7218 -0.5769
  314MOL0     H43267   6.123   0.766   6.362  0.8919 -0.1602 -1.2544
  314MOL0     H43268   6.085   0.612   6.320  0.9132 -2.6553  0.9761
  314MOL0     H43269   6.210   0.707   6.574  5.4990 -1.3631 -0.5634
  314MOL0     H43270   6.059   0.627   6.547 -0.0212 -0.5934 -2.4018
  314MOL0     H43271   6.317   0.473   6.498 -0.4837 -0.4275  0.6803
  314MOL0     H43272   6.249   0.489   6.661  0.4842 -1.4713  0.0119
  314MOL0     H43273   6.090   0.378   6.425 -0.1832 -0.0043  0.6945
  314MOL0     H43274   6.054   0.396   6.605  2.7511  1.4829  3.4859
  314MOL0     H43275   6.300   0.261   6.529 -0.5598  0.3409 -2.4757
  314MOL0     H43276   6.160   0.195   6.633  0.3836  0.4335  0.4597
  314MOL0     H43277   6.216   0.161   6.350 -0.2238  0.5871  0.3136
  314MOL0     H43278   6.045   0.148   6.413 -1.0199  1.5183  1.5235
  314MOL0     H43279   6.140  -0.030   6.556  0.2134 -0.1691 -0.7373
  314MOL0     H43280   6.157  -0.058   6.385 -0.8717  0.6688 -1.2822
  314MOL0     H43281   6.403  -0.059   6.279 -2.5850 -0.7195  0.1541
  314MOL0     H43282   6.679  -0.079   6.289  1.1453  0.2893 -0.2898
  314MOL0     H43283   6.627  -0.234   6.373  1.8588 -1.8267  1.2424
  314MOL0     H43284   6.841  -0.024   6.478  1.9519 -0.3680  1.3308
  314MOL0     H43285   6.799  -0.184   6.544 -4.3012  1.6164  0.1332
  314MOL0     H43286   6.888  -0.288   6.330 -1.8399 -0.2304  1.3269
  314MOL0     H43287   6.928  -0.117   6.276  1.5960  1.0392  0.7522
  314MOL0     H43288   7.036  -0.211   6.536  1.2990 -1.6638 -0.7589
  314MOL0     H43289   7.104  -0.268   6.377  0.8109  0.9365 -2.3027
  314MOL0     H43290   7.264   0.135   6.319  1.6844 -0.3097 -1.7357
  314MOL0     H43291   7.580   0.143   6.177 -0.4679 -2.4796 -0.0725
  314MOL0     H43292   7.586   0.231   6.340  3.2979 -1.8027 -2.1382
  314MOL0     H43293   7.438   0.234   6.236 -0.1465 -1.0633 -0.2015
  314MOL0     H43294   7.976  -0.005   6.406 -0.0092  0.5308  2.2053
  314MOL0     H43295   8.209  -0.095   6.434  0.5617 -0.8579 -1.1701
  314MOL0     H43296   8.367  -0.508   6.466 -2.4488 -0.5749  1.5176
  314MOL0     H43297   8.216  -0.491   6.377 -0.6514  0.3189 -0.2845
  314MOL0     H43298   8.420  -0.508   6.230 -3.0077 -1.0030  0.2719
  314MOL0     H43299   8.351  -0.350   6.199  2.0458  0.1037 -0.3629
  314MOL0     H43300   8.578  -0.370   6.402 -1.2534 -0.4055  1.0176
  314MOL0     H43301   8.490  -0.233   6.355  1.7594 -0.6313  1.6013
  314MOL0     H43302   8.556  -0.261   6.118  0.3298  0.6837  0.3426
  314MOL0     H43303   8.647  -0.411   6.147 -0.1942 -0.6130  1.2686
  314MOL0     H43304   8.762  -0.166   6.140  0.2749  0.3163 -0.3155
  314MOL0     H43305   8.727  -0.173   6.311 -0.9687  1.1139 -0.4236
  314MOL0     H43306   8.827  -0.401   6.318 -1.1287  0.7593  0.7607
  314MOL0     H43307   8.943  -0.264   6.289 -3.8518  2.2196  1.1702
  314MOL0     H43308   8.942  -0.292   6.048  2.1078 -2.4459 -4.7182
  314MOL0     H43309   8.858  -0.448   6.065  0.5757  0.0686  0.8514
  314MOL0     H43310   9.087  -0.486   6.039  1.6007  0.1610 -0.0665
  314MOL0     H43311   9.047  -0.507   6.221 -3.4114  1.4595  0.3434
  314MOL0     H43312   8.068  -0.460   6.563 -0.1018  0.5622  0.6684
  314MOL0     H43313   7.825  -0.393   6.505  0.9214 -0.7025 -0.2616
  314MOL0     H43314   7.526  -0.232   6.520 -1.1465  0.7202  3.6585
  314MOL0     H43315   7.289  -0.230   6.538  2.7333 -2.7630 -1.0909
  314MOL0     H43316   6.524   0.551   6.176 -1.0860  0.6728 -2.7184
  314MOL0     H43317   6.744   0.590   6.080  3.7487  0.0047  1.7181
  314MOL0     H43318   7.061   0.913   5.976 -0.9790 -0.0358  2.3255
  314MOL0     H43319   7.272   0.962   5.861 -1.2990  0.5461 -0.0986
  314MOL0     H43320   7.582   0.858   6.038  0.4344  0.8012 -0.6704
  314MOL0     H43321   7.637   0.722   5.941 -0.4371  0.0754  0.7069
  314MOL0     H43322   7.626   1.019   5.879 -0.2675  0.1810  1.1603
  314MOL0     H43323   7.706   0.909   5.767  0.8253  3.4614 -0.2644
  314MOL0     H43324   7.808   0.936   6.044 -2.7993 -2.1829 -0.8982
  314MOL0     H43325   7.885   0.847   5.929  1.4316  0.2624  2.1105
  314MOL0     H43326   7.873   1.146   5.956 -0.7632 -0.2691  0.3636
  314MOL0     H43327   7.873   1.095   5.797 -0.0971  0.6121  0.1067
  314MOL0     H43328   8.277   1.047   5.868 -1.1070 -0.2770 -2.1382
  314MOL0     H43329   7.431   0.593   5.981 -1.0422 -1.1092 -2.8229
  314MOL0     H43330   7.335   0.452   6.119 -0.5994 -1.9289 -1.1967
  314MOL0     H43331   7.184   0.505   6.209 -2.6380 -0.4398 -0.0709
  314MOL0     H43332   7.181   0.411   6.060  2.8145 -1.3750 -0.0995
  315MOL0     O43333   8.484   3.945   6.110 -0.4479 -0.3157 -0.3421
  315MOL0     C43334   8.382   3.973   6.172  0.7961 -0.0985  0.5045
  315MOL0     O43335   8.354   4.084   6.236 -0.4528 -0.4318 -0.2223
  315MOL0     C43336   8.434   4.190   6.213 -0.6963 -0.2619  0.4964
  315MOL0     C43337   8.526   4.233   6.312 -0.3927  0.8005  0.5798
  315MOL0     C43338   8.606   4.347   6.289  1.1308 -0.4684 -0.6968
  315MOL0     C43339   8.594   4.426   6.175 -1.0446  0.1530  0.6654
  315MOL0     O43340   8.657   4.544   6.146  0.5943 -0.3986 -0.4038
  315MOL0     C43341   8.721   4.631   6.236  0.4726 -0.7432  0.1726
  315MOL0     C43342   8.866   4.588   6.269 -0.0260  0.6475  0.9877
  315MOL0     C43343   8.917   4.672   6.386  0.2967 -0.4534 -0.2881
  315MOL0     C43344   9.054   4.630   6.418  0.1912  0.1521 -0.1856
  315MOL0     C43345   9.098   4.713   6.540  0.5322  0.8973 -0.5293
  315MOL0     C43346   9.251   4.704   6.578  0.4981  0.0865 -0.9286
  315MOL0     C43347   9.346   4.717   6.457  0.0185  0.0905 -0.2513
  315MOL0     C43348   9.491   4.705   6.496  0.2043  0.6561 -0.1988
  315MOL0     N43349   9.541   4.805   6.587 -0.8160  0.3132  0.2216
  315MOL0     C43350   9.575   4.929   6.545 -0.0995  0.5659  0.3301
  315MOL0     C43351   9.597   5.001   6.649 -0.8310 -0.3380  0.0602
  315MOL0     C43352   9.606   5.154   6.643  0.0915  0.6338  0.4610
  315MOL0     C43353   9.680   5.214   6.764  0.0959  0.3314  0.7102
  315MOL0     C43354   9.700   5.365   6.772  0.7253  0.3358 -0.3499
  315MOL0     C43355   9.764   5.407   6.906 -0.3475 -0.5033 -0.1876
  315MOL0     O43356   9.747   5.551   6.919 -0.7331 -0.3460  0.0884
  315MOL0     C43357   9.783   5.602   7.045  0.6889 -0.2205 -0.0796
  315MOL0     C43358   9.835   5.527   7.153  0.2278 -0.8241 -0.2453
  315MOL0     C43359   9.881   5.582   7.267 -0.1660 -0.6119  0.2676
  315MOL0     C43360   9.884   5.503   7.397  0.6889 -0.4308  0.3403
  315MOL0     C43361   9.896   5.720   7.276 -0.9136 -0.1269 -0.2234
  315MOL0     C43362   9.968   5.795   7.385  0.1550  0.0602 -0.1846
  315MOL0     O43363   9.961   5.769   7.520 -0.0463 -0.2811  1.2208
  315MOL0     C43364  10.052   5.835   7.600 -0.4113  0.2045 -0.0478
  315MOL0     C43365  10.049   5.974   7.614  0.7969  0.4550  0.2658
  315MOL0     C43366  10.127   6.042   7.708  0.4897 -0.1813  0.0028
  315MOL0     C43367  10.204   5.976   7.803 -1.0047 -0.1119  0.2645
  315MOL0     O43368  10.269   6.056   7.898  0.0644 -0.1835  0.1412
  315MOL0     C43369  10.398   6.005   7.930 -0.0917  0.0900 -0.1614
  315MOL0     C43370  10.441   6.091   8.040  0.6133 -0.8512 -0.6401
  315MOL0     C43371  10.587   6.070   8.096  0.2067  0.6098  0.1260
  315MOL0     C43372  10.650   6.208   8.133 -0.1744  0.3868  0.3572
  315MOL0     C43373  10.607   6.265   8.269 -0.2231  0.0596  0.6701
  315MOL0     C43374  10.696   6.387   8.319 -0.1335 -0.1366 -0.2078
  315MOL0     C43375  10.847   6.363   8.329  0.3071  0.5458  0.3056
  315MOL0     C43376  10.894   6.238   8.394  0.3927 -0.1617 -0.6165
  315MOL0    Cl43377  10.829   6.252   8.561 -0.0126  0.1538  0.5415
  315MOL0     C43378  10.202   5.835   7.794 -0.6670 -0.0856  0.3822
  315MOL0     C43379  10.128   5.764   7.695  0.7071  0.1882 -0.3976
  315MOL0     O43380  10.038   5.878   7.336  0.2284  0.1482  0.6118
  315MOL0     C43381   9.844   5.794   7.164  0.0498  0.1535  0.0203
  315MOL0     C43382   9.776   5.743   7.056 -0.0472 -0.0967  0.7299
  315MOL0     N43383   9.575   4.930   6.766  0.5552  0.1684  0.4772
  315MOL0     N43384   9.555   4.808   6.726 -0.2743 -0.1711 -0.0258
  315MOL0     C43385   8.512   4.383   6.079 -0.1542 -1.1377  0.3458
  315MOL0     C43386   8.426   4.268   6.093  0.4326  0.9934 -0.0453
  315MOL0     C43387   8.307   3.859   6.191 -0.0994 -0.6319  0.1343
  315MOL0     C43388   8.366   3.745   6.256  0.5713  0.2004 -0.1681
  315MOL0     C43389   8.290   3.625   6.263 -0.0049  0.1516  0.4822
  315MOL0     C43390   8.156   3.618   6.212 -0.2624  0.2105 -0.5215
  315MOL0     O43391   8.080   3.500   6.215 -0.9902  0.5709 -0.0614
  315MOL0     C43392   8.034   3.443   6.335  0.3013  0.1828 -0.2972
  315MOL0     C43393   7.893   3.494   6.366  0.4692  0.1620 -0.5466
  315MOL0     C43394   7.787   3.415   6.293 -0.2843  0.8524  0.1761
  315MOL0     C43395   7.750   3.466   6.154  0.2335  0.0971  0.1740
  315MOL0     C43396   7.700   3.604   6.159  1.3988  0.0638 -0.1805
  315MOL0     C43397   7.649   3.707   6.183  0.2296 -0.4720  0.3980
  315MOL0     C43398   8.100   3.733   6.151 -0.5155  0.4338  0.4594
  315MOL0     C43399   8.177   3.848   6.146  0.7683 -0.2826  0.0355
  315MOL0     C43400   8.122   3.964   6.078 -0.3297 -0.1185 -0.9734
  315MOL0     H43401   8.527   4.159   6.391 -2.9276  1.5191  1.3721
  315MOL0     H43402   8.668   4.371   6.375  0.5988 -3.4869  0.6970
  315MOL0     H43403   8.659   4.654   6.323 -2.0590  0.8343 -1.8827
  315MOL0     H43404   8.727   4.732   6.195  1.3840 -0.3917  1.1323
  315MOL0     H43405   8.868   4.479   6.282  0.7910  0.6379  0.8213
  315MOL0     H43406   8.924   4.616   6.180 -1.7534  1.1295 -0.0254
  315MOL0     H43407   8.911   4.779   6.363 -1.2194  0.1667  2.5130
  315MOL0     H43408   8.848   4.650   6.468  0.7370  0.1448  0.2456
  315MOL0     H43409   9.064   4.523   6.439  2.0371  0.0730 -1.1878
  315MOL0     H43410   9.116   4.665   6.334 -0.3164  0.7844 -0.3031
  315MOL0     H43411   9.044   4.670   6.625 -1.3080 -1.1707 -2.6116
  315MOL0     H43412   9.061   4.816   6.541 -0.0550  0.6912  0.1097
  315MOL0     H43413   9.271   4.790   6.642  3.2584 -1.7633  0.8879
  315MOL0     H43414   9.276   4.610   6.628 -0.3146 -0.0495 -0.7515
  315MOL0     H43415   9.332   4.818   6.419  0.0694  0.5777  1.0000
  315MOL0     H43416   9.321   4.640   6.383 -2.7369  0.8444 -0.2245
  315MOL0     H43417   9.519   4.611   6.544  1.9731  2.2026  2.0159
  315MOL0     H43418   9.555   4.705   6.407  2.0759  2.2708  1.0561
  315MOL0     H43419   9.569   4.975   6.446 -0.5969  3.7008  1.7024
  315MOL0     H43420   9.505   5.195   6.649  0.6176  1.9760  0.6028
  315MOL0     H43421   9.652   5.165   6.544 -4.6183 -0.1025 -2.0984
  315MOL0     H43422   9.630   5.168   6.850 -0.8413 -0.9149 -0.4563
  315MOL0     H43423   9.781   5.173   6.756 -0.5874 -2.0379  2.9616
  315MOL0     H43424   9.764   5.405   6.693  2.1566 -2.7315 -0.8827
  315MOL0     H43425   9.601   5.411   6.765  0.5728  0.0307 -0.1999
  315MOL0     H43426   9.699   5.352   6.976  0.4528  0.1298  1.0857
  315MOL0     H43427   9.871   5.389   6.914 -0.1331  0.0939 -1.4907
  315MOL0     H43428   9.839   5.419   7.164  0.4120 -0.6713  1.3358
  315MOL0     H43429   9.823   5.414   7.382 -1.7874  1.2508 -0.2394
  315MOL0     H43430   9.855   5.556   7.488 -3.5699  0.2232 -1.1457
  315MOL0     H43431   9.990   5.483   7.413  1.1207  1.7367  0.5837
  315MOL0     H43432   9.982   6.040   7.561 -0.2126 -0.9464 -0.2818
  315MOL0     H43433  10.114   6.150   7.713  0.0050 -0.2450  0.2231
  315MOL0     H43434  10.415   5.902   7.961 -1.8735 -0.7047 -1.5922
  315MOL0     H43435  10.461   6.023   7.842 -1.4533 -1.4761 -1.5261
  315MOL0     H43436  10.421   6.194   8.012  1.2123 -1.2565 -2.8166
  315MOL0     H43437  10.380   6.080   8.130  1.7032  1.8691  0.5051
  315MOL0     H43438  10.648   6.033   8.013 -0.3464  0.2215 -0.1152
  315MOL0     H43439  10.592   6.008   8.186 -2.3938 -2.0310 -1.3704
  315MOL0     H43440  10.618   6.287   8.064 -2.0451  2.3285  3.1975
  315MOL0     H43441  10.757   6.191   8.118  0.2059  0.9371  2.1601
  315MOL0     H43442  10.501   6.293   8.277  0.0506  0.8614  1.6259
  315MOL0     H43443  10.613   6.187   8.346  0.5216  1.4439  2.0759
  315MOL0     H43444  10.654   6.422   8.414  0.9590  0.6661 -0.0065
  315MOL0     H43445  10.691   6.479   8.260 -2.6949  0.4952  0.8739
  315MOL0     H43446  10.890   6.449   8.383 -0.0859 -0.1335  1.7540
  315MOL0     H43447  10.870   6.367   8.222  1.6659  0.9317  0.5941
  315MOL0     H43448  11.003   6.225   8.398  0.4155  0.2412  1.7667
  315MOL0     H43449  10.855   6.154   8.336  0.0746  0.3104 -1.1026
  315MOL0     H43450  10.251   5.776   7.870 -1.3870 -1.5689 -0.2686
  315MOL0     H43451  10.147   5.658   7.705  2.4602  0.4243 -0.9275
  315MOL0     H43452   9.860   5.902   7.165  0.2108  0.1859 -1.9148
  315MOL0     H43453   9.722   5.805   6.986 -2.5673 -2.3339  0.5167
  315MOL0     H43454   8.513   4.436   5.984  1.4870 -0.5858  0.6453
  315MOL0     H43455   8.366   4.225   6.013  0.1139 -3.4518  2.2518
  315MOL0     H43456   8.469   3.741   6.289  0.7955 -0.4250 -0.9338
  315MOL0     H43457   8.337   3.534   6.302 -1.7250 -0.2282  1.8045
  315MOL0     H43458   8.022   3.334   6.325 -0.9809  0.2434  0.3637
  315MOL0     H43459   8.088   3.471   6.426  0.9834 -0.5845 -0.4548
  315MOL0     H43460   7.888   3.600   6.337  3.3224  0.7166  0.6924
  315MOL0     H43461   7.878   3.492   6.474  2.6347 -1.6504 -0.2205
  315MOL0     H43462   7.822   3.311   6.285  2.8049  1.5280  2.8775
  315MOL0     H43463   7.696   3.419   6.355 -0.2280  2.6837  0.1985
  315MOL0     H43464   7.681   3.397   6.105 -1.6926  1.6057  0.6275
  315MOL0     H43465   7.835   3.466   6.086  1.1976 -1.5388  1.3119
  315MOL0     H43466   7.621   3.806   6.210  1.4917 -0.1958  0.7437
  315MOL0     H43467   7.999   3.728   6.113 -1.0567  3.5279  1.1434
  315MOL0     H43468   8.118   4.057   6.135 -1.5893 -0.4048 -0.5529
  315MOL0     H43469   8.187   3.986   5.993  1.2351  2.2847  0.7170
  315MOL0     H43470   8.021   3.939   6.043 -0.2600 -0.4168 -0.9694
  316MOL0     O43471   9.932   9.297   2.918  0.4526  0.2914 -0.9414
  316MOL0     C43472   9.950   9.408   2.879  0.3683  0.5266 -0.2328
  316MOL0     O43473  10.069   9.478   2.905  0.2432 -0.3573  0.4837
  316MOL0     C43474  10.162   9.432   3.002  0.3054 -0.3446 -0.7281
  316MOL0     C43475  10.128   9.411   3.137 -0.8312 -0.6162 -0.3798
  316MOL0     C43476  10.223   9.373   3.234 -0.7074 -0.3996 -0.6560
  316MOL0     C43477  10.356   9.352   3.192  0.2846 -0.0552 -0.2548
  316MOL0     O43478  10.440   9.299   3.276 -0.0398 -0.6481 -0.3592
  316MOL0     C43479  10.578   9.345   3.287  0.2333 -0.0429  0.1379
  316MOL0     C43480  10.665   9.245   3.210 -0.2946 -0.2312 -0.6014
  316MOL0     C43481  10.788   9.310   3.158  0.0119  0.0464 -0.2517
  316MOL0     C43482  10.854   9.214   3.057  0.4588  0.5875 -0.3425
  316MOL0     C43483  10.957   9.283   2.976 -0.4839  0.4106  0.3342
  316MOL0     C43484  11.090   9.315   3.044 -0.4386 -0.8502 -0.7195
  316MOL0     C43485  11.185   9.365   2.945 -0.7266 -0.6231  0.2600
  316MOL0     C43486  11.131   9.481   2.863  0.2105  0.3760 -0.4900
  316MOL0     N43487  11.246   9.547   2.801  0.3984 -0.5723 -0.0843
  316MOL0     C43488  11.315   9.501   2.695  0.4099  0.3394  0.2940
  316MOL0     C43489  11.437   9.566   2.700  0.2794  0.3654  0.8476
  316MOL0     C43490  11.559   9.545   2.601  0.5636 -0.1089 -0.5871
  316MOL0     C43491  11.688   9.485   2.673  0.6805  0.4305  0.5572
  316MOL0     C43492  11.785   9.446   2.564  0.0760  0.3337  0.0123
  316MOL0     C43493  11.916   9.388   2.620  0.6727  0.1965  0.1347
  316MOL0     O43494  11.973   9.313   2.510  0.0331 -0.0114  0.5446
  316MOL0     C43495  12.102   9.276   2.512 -0.0829 -0.8594  0.6947
  316MOL0     C43496  12.132   9.153   2.472 -0.0397  0.9840  0.6073
  316MOL0     C43497  12.264   9.100   2.463  0.4890  0.2634 -0.5365
  316MOL0     C43498  12.287   8.970   2.386  0.5421  1.1555 -0.0791
  316MOL0     C43499  12.372   9.186   2.472 -0.3512  0.3278  0.2927
  316MOL0     C43500  12.509   9.152   2.449  0.1366 -0.1791  0.4662
  316MOL0     O43501  12.551   9.019   2.448  0.9895 -0.0488 -0.7197
  316MOL0     C43502  12.686   8.984   2.433  0.2679  0.1919 -0.0471
  316MOL0     C43503  12.762   9.040   2.329 -0.9451 -0.0412 -0.5447
  316MOL0     C43504  12.893   8.991   2.318 -0.4482  0.9333 -0.3900
  316MOL0     C43505  12.953   8.893   2.397 -0.4781 -0.2718  0.1572
  316MOL0     O43506  13.073   8.843   2.361  0.8540  0.7144  0.1116
  316MOL0     C43507  13.175   8.921   2.419 -0.9215  0.3931  0.2986
  316MOL0     C43508  13.194   8.894   2.575 -0.0044  0.4848 -0.2611
  316MOL0     C43509  13.342   8.917   2.622 -0.2875 -0.3527 -1.2919
  316MOL0     C43510  13.360   8.887   2.772 -0.7240 -0.1788  0.0693
  316MOL0     C43511  13.489   8.929   2.842 -0.5404  0.2690 -0.3115
  316MOL0     C43512  13.605   8.855   2.780 -0.1563  0.1036 -0.5024
  316MOL0     C43513  13.594   8.700   2.797 -0.1729 -0.7198  0.2581
  316MOL0     C43514  13.721   8.645   2.740 -0.0051  1.3552  0.0419
  316MOL0    Cl43515  13.704   8.465   2.723  0.3645  0.1049 -0.0174
  316MOL0     C43516  12.875   8.842   2.502  0.4739  0.4391  0.4293
  316MOL0     C43517  12.740   8.877   2.514  0.0514 -0.3869 -0.6347
  316MOL0     O43518  12.572   9.250   2.411  0.5144 -0.0281 -0.3695
  316MOL0     C43519  12.338   9.319   2.510  0.8472  0.5600  0.5292
  316MOL0     C43520  12.210   9.358   2.550  1.0649 -0.7492  1.4053
  316MOL0     N43521  11.433   9.648   2.809 -0.1000  0.5819 -0.1584
  316MOL0     N43522  11.318   9.639   2.869 -0.0632  0.0188 -0.8317
  316MOL0     C43523  10.392   9.385   3.066  0.4943 -0.2832  0.4265
  316MOL0     C43524  10.292   9.412   2.968 -0.1978 -0.4218 -0.3316
  316MOL0     C43525   9.854   9.464   2.790  0.5719 -0.5178  0.7689
  316MOL0     C43526   9.882   9.595   2.749  1.0346 -0.3098  0.3862
  316MOL0     C43527   9.781   9.669   2.689 -0.6397 -0.4870 -0.2598
  316MOL0     C43528   9.673   9.602   2.631  0.5942 -0.5642 -0.0263
  316MOL0     O43529   9.576   9.677   2.563 -0.1775  0.6887 -1.0481
  316MOL0     C43530   9.578   9.818   2.552 -0.2244  0.5456 -0.4819
  316MOL0     C43531   9.471   9.856   2.453 -0.2103  0.2692  0.2766
  316MOL0     C43532   9.480   9.796   2.307 -0.6827  0.2391 -1.3010
  316MOL0     C43533   9.436   9.895   2.202  0.0843 -0.0828 -0.1512
  316MOL0     C43534   9.303   9.961   2.219  0.2898 -0.4129  0.1117
  316MOL0     C43535   9.198  10.020   2.230 -0.5346 -0.5474 -0.6143
  316MOL0     C43536   9.650   9.467   2.657 -0.1451 -0.0826  0.7349
  316MOL0     C43537   9.730   9.400   2.747 -0.1395  0.0878 -0.1498
  316MOL0     C43538   9.678   9.261   2.778  0.0479 -0.2433  0.0189
  316MOL0     H43539  10.023   9.412   3.167 -1.5815 -0.9734 -2.8001
  316MOL0     H43540  10.191   9.369   3.337  1.7241  1.4515  0.2785
  316MOL0     H43541  10.617   9.345   3.389  1.1873  0.0981 -0.2235
  316MOL0     H43542  10.578   9.449   3.251 -0.2482  1.1958  3.3745
  316MOL0     H43543  10.694   9.168   3.282  0.8131  0.9810  0.3041
  316MOL0     H43544  10.602   9.184   3.145  1.1327  0.0261 -2.2824
  316MOL0     H43545  10.766   9.407   3.113 -2.3209  1.0374  2.7009
  316MOL0     H43546  10.850   9.333   3.245 -1.4248 -1.2131  1.1604
  316MOL0     H43547  10.885   9.117   3.098 -0.0649 -0.3244 -2.0317
  316MOL0     H43548  10.767   9.192   2.995 -1.2566  1.0184  1.7700
  316MOL0     H43549  10.919   9.380   2.943 -2.3832  0.5015  2.5027
  316MOL0     H43550  10.982   9.211   2.898  1.3537  0.4485  0.8258
  316MOL0     H43551  11.075   9.394   3.119  6.1707  1.0254 -0.7783
  316MOL0     H43552  11.128   9.227   3.098  0.6201 -0.3907 -0.7127
  316MOL0     H43553  11.219   9.279   2.885  1.7641 -0.3389  1.1195
  316MOL0     H43554  11.264   9.411   3.005 -4.0304  2.3630  2.7211
  316MOL0     H43555  11.065   9.451   2.781 -0.5120  2.2717 -0.6442
  316MOL0     H43556  11.077   9.546   2.933  0.6432  1.8511 -1.4944
  316MOL0     H43557  11.287   9.430   2.619  1.6563  0.8708 -0.7026
  316MOL0     H43558  11.575   9.643   2.556  0.0584  0.7749  1.0563
  316MOL0     H43559  11.532   9.477   2.520 -0.2165 -0.0742 -0.3673
  316MOL0     H43560  11.729   9.561   2.739 -0.4576 -1.5880  3.8216
  316MOL0     H43561  11.671   9.396   2.734 -1.1849  0.3693  0.0296
  316MOL0     H43562  11.741   9.376   2.493 -2.4751  2.1440 -0.3090
  316MOL0     H43563  11.822   9.535   2.512  1.7506  0.4238  1.2369
  316MOL0     H43564  11.980   9.469   2.655 -0.8661  0.7632  1.7475
  316MOL0     H43565  11.890   9.319   2.700 -0.4742  1.2059  0.6617
  316MOL0     H43566  12.045   9.098   2.437 -0.5682  1.3955  1.2555
  316MOL0     H43567  12.193   8.919   2.364  1.9316 -1.9547  0.6307
  316MOL0     H43568  12.338   8.903   2.455 -0.8176 -0.3878 -0.5253
  316MOL0     H43569  12.341   8.978   2.291  1.4031 -0.0950  0.2894
  316MOL0     H43570  12.732   9.131   2.279  0.7705  2.3553  2.4357
  316MOL0     H43571  12.953   9.040   2.242  3.3371 -0.6466  1.3570
  316MOL0     H43572  13.271   8.885   2.379 -1.1794 -1.4075  1.1843
  316MOL0     H43573  13.162   9.028   2.400 -1.1487  0.0653 -1.6085
  316MOL0     H43574  13.125   8.967   2.617  0.3446  1.3543 -1.1617
  316MOL0     H43575  13.174   8.789   2.599  0.6967  0.4229  0.0912
  316MOL0     H43576  13.382   9.016   2.597 -1.3424 -0.3934 -3.3729
  316MOL0     H43577  13.405   8.843   2.571 -0.6489  0.1386 -2.4897
  316MOL0     H43578  13.342   8.781   2.790  2.2820 -0.6972  0.5198
  316MOL0     H43579  13.278   8.945   2.816 -1.2712 -1.4824  0.8381
  316MOL0     H43580  13.527   9.032   2.839  2.5273 -0.4402  4.1457
  316MOL0     H43581  13.482   8.908   2.949 -0.0414 -2.5358 -0.7505
  316MOL0     H43582  13.694   8.885   2.837 -1.8159  0.6167  1.9371
  316MOL0     H43583  13.622   8.881   2.675 -0.6213 -3.0272 -1.4482
  316MOL0     H43584  13.509   8.667   2.736  0.9739 -0.1253 -1.7544
  316MOL0     H43585  13.585   8.660   2.899 -1.0454 -1.5003 -0.1108
  316MOL0     H43586  13.814   8.671   2.790  1.4248  0.9386 -2.2198
  316MOL0     H43587  13.722   8.674   2.634  1.5139  0.4871 -0.2115
  316MOL0     H43588  12.922   8.760   2.555  3.5256  0.3725 -2.0800
  316MOL0     H43589  12.690   8.826   2.596 -3.0922  2.3088 -0.6583
  316MOL0     H43590  12.404   9.404   2.501 -0.0163  1.1029 -1.4403
  316MOL0     H43591  12.197   9.460   2.583  0.6378 -1.5161  3.7646
  316MOL0     H43592  10.495   9.374   3.035 -0.1992 -1.2683 -1.7727
  316MOL0     H43593  10.325   9.437   2.868  0.5638 -0.2030 -0.0401
  316MOL0     H43594   9.973   9.647   2.776  1.2573  0.3327 -1.4547
  316MOL0     H43595   9.797   9.776   2.681 -3.4421  0.0969  0.7101
  316MOL0     H43596   9.569   9.872   2.646  0.5517  0.1097 -0.1476
  316MOL0     H43597   9.664   9.848   2.491 -0.9447 -0.5699 -2.1458
  316MOL0     H43598   9.485   9.962   2.428  0.7860 -0.4523 -2.5496
  316MOL0     H43599   9.370   9.839   2.492 -0.7963 -1.6282 -1.8571
  316MOL0     H43600   9.581   9.756   2.292 -0.5599  0.4405 -1.0171
  316MOL0     H43601   9.413   9.709   2.306  0.0045 -0.3382 -0.1878
  316MOL0     H43602   9.438   9.845   2.104  0.5238 -0.0650 -0.1546
  316MOL0     H43603   9.515   9.970   2.192 -0.3979  0.1550 -2.9534
  316MOL0     H43604   9.105  10.068   2.252 -0.4586 -1.2033  1.3685
  316MOL0     H43605   9.562   9.411   2.624 -0.1628  0.2892  0.1429
  316MOL0     H43606   9.729   9.190   2.712 -1.0973 -1.1636  0.0932
  316MOL0     H43607   9.694   9.233   2.882  2.3116  0.6711 -0.0233
  316MOL0     H43608   9.572   9.246   2.753  0.4494  0.6517 -2.5411
  317MOL0     O43609   6.755   2.681   5.586  0.1405 -0.9473 -0.0665
  317MOL0     C43610   6.676   2.778   5.580  0.4522  0.0080 -1.1616
  317MOL0     O43611   6.710   2.907   5.586  0.0245  0.1943 -0.0076
  317MOL0     C43612   6.834   2.948   5.633 -0.3555  0.9175 -0.1727
  317MOL0     C43613   6.868   2.914   5.762  0.5525 -0.4459  0.8339
  317MOL0     C43614   6.993   2.956   5.821 -0.6423  0.4406 -0.2308
  317MOL0     C43615   7.086   3.021   5.738  0.2533 -0.1248  0.0501
  317MOL0     O43616   7.201   3.061   5.800  0.2626 -0.7000 -0.2506
  317MOL0     C43617   7.317   3.081   5.718 -0.6500  0.2918  0.2697
  317MOL0     C43618   7.434   3.120   5.808  0.3971 -0.1292  0.5821
  317MOL0     C43619   7.559   3.145   5.727 -0.1884  0.5608 -0.0679
  317MOL0     C43620   7.686   3.134   5.820  0.3131 -0.4960  0.3715
  317MOL0     C43621   7.817   3.167   5.752 -0.9703 -0.0121  0.4057
  317MOL0     C43622   7.841   3.320   5.738  0.0550 -0.5641 -0.9771
  317MOL0     C43623   7.990   3.360   5.755  1.0761  0.5917 -0.3522
  317MOL0     C43624   8.061   3.336   5.627 -0.6114  0.4413 -0.2419
  317MOL0     N43625   8.199   3.383   5.639 -0.5015  0.5620  1.0738
  317MOL0     C43626   8.261   3.444   5.738  0.1936  0.6591  0.1228
  317MOL0     C43627   8.372   3.496   5.685 -0.1038 -0.0586  0.2555
  317MOL0     C43628   8.476   3.574   5.752  0.4515 -0.2694 -0.0740
  317MOL0     C43629   8.449   3.721   5.727  0.1205  0.2347 -0.0391
  317MOL0     C43630   8.559   3.804   5.784 -0.1168  0.0173 -0.4713
  317MOL0     C43631   8.523   3.958   5.792  1.0237 -0.3513  0.0080
  317MOL0     O43632   8.514   4.017   5.659  0.1342 -0.0721 -0.1126
  317MOL0     C43633   8.627   4.055   5.583 -0.2084 -0.1559  0.1975
  317MOL0     C43634   8.605   4.096   5.450  0.8277 -0.6062 -0.4679
  317MOL0     C43635   8.701   4.156   5.367 -0.2163 -0.6212 -0.2541
  317MOL0     C43636   8.666   4.185   5.220  0.3190  0.7105 -0.0780
  317MOL0     C43637   8.835   4.177   5.425  0.8148 -0.2312 -0.0482
  317MOL0     C43638   8.936   4.246   5.345 -0.2620 -0.5775  0.4467
  317MOL0     O43639   9.068   4.219   5.376  0.4114 -0.9877 -0.3062
  317MOL0     C43640   9.160   4.315   5.334 -0.1548  0.0561 -0.5199
  317MOL0     C43641   9.175   4.431   5.411  0.0799  0.3602 -0.6796
  317MOL0     C43642   9.253   4.541   5.368 -0.1841  0.1284  0.4389
  317MOL0     C43643   9.330   4.525   5.253 -0.6536 -0.2969  0.4994
  317MOL0     O43644   9.420   4.622   5.227 -0.6534 -0.1950 -0.0381
  317MOL0     C43645   9.552   4.573   5.197 -0.5486  0.1026  0.0120
  317MOL0     C43646   9.649   4.669   5.263 -0.3274  0.4689  0.8740
  317MOL0     C43647   9.797   4.613   5.269  0.0344  0.8922  0.2420
  317MOL0     C43648   9.818   4.513   5.383 -0.4230 -0.2861  0.1303
  317MOL0     C43649   9.966   4.532   5.441 -0.0719  0.6367 -0.4393
  317MOL0     C43650   9.991   4.643   5.545 -0.1044 -0.2020  0.8670
  317MOL0     C43651  10.144   4.671   5.561  0.4678  0.1025  0.4810
  317MOL0     C43652  10.168   4.798   5.640 -0.1573  0.5948  0.7223
  317MOL0    Cl43653  10.157   4.951   5.540 -0.1638  0.4785 -0.2773
  317MOL0     C43654   9.319   4.408   5.170 -0.1725 -0.3221 -0.2063
  317MOL0     C43655   9.239   4.294   5.213 -0.6610 -0.0424 -0.7552
  317MOL0     O43656   8.899   4.336   5.265  0.2897  0.0698  0.1547
  317MOL0     C43657   8.860   4.135   5.553  0.0778  0.3376 -0.8052
  317MOL0     C43658   8.761   4.084   5.636  0.6073  1.1051 -0.1297
  317MOL0     N43659   8.374   3.465   5.553  0.5674  0.3520 -0.1437
  317MOL0     N43660   8.267   3.401   5.523  0.0930 -0.0060  0.1651
  317MOL0     C43661   7.050   3.060   5.611 -0.2451 -0.6656 -0.6938
  317MOL0     C43662   6.922   3.031   5.561  0.8251 -0.0290 -0.5187
  317MOL0     C43663   6.526   2.763   5.569 -0.2790  0.5744  0.3390
  317MOL0     C43664   6.441   2.852   5.634  0.5017 -0.4344  0.3521
  317MOL0     C43665   6.302   2.837   5.634  0.1895  0.1625  0.2978
  317MOL0     C43666   6.238   2.736   5.562  0.4876  0.5953 -0.8345
  317MOL0     O43667   6.103   2.730   5.566 -0.3030 -0.2759  0.5384
  317MOL0     C43668   6.041   2.607   5.610 -0.1454 -0.2022 -0.2096
  317MOL0     C43669   5.889   2.626   5.639  0.0700  0.3753 -0.1556
  317MOL0     C43670   5.812   2.612   5.510 -0.0200 -0.2055 -0.3248
  317MOL0     C43671   5.659   2.635   5.536 -0.1788 -0.1794  1.8362
  317MOL0     C43672   5.605   2.567   5.647  0.2054 -1.8627  0.3347
  317MOL0     C43673   5.563   2.495   5.737 -0.6093 -0.7817 -0.2411
  317MOL0     C43674   6.317   2.647   5.485  0.6062  0.1757  0.0283
  317MOL0     C43675   6.460   2.664   5.491 -0.0857 -0.6297  0.6513
  317MOL0     C43676   6.534   2.590   5.381  0.8895  0.2509 -0.0478
  317MOL0     H43677   6.785   2.861   5.808 -1.4507  0.8312 -1.1121
  317MOL0     H43678   7.006   2.928   5.925  0.1938 -0.2192 -0.4992
  317MOL0     H43679   7.308   3.146   5.631 -3.5143 -2.6961 -1.9227
  317MOL0     H43680   7.332   2.981   5.677 -1.5675  0.7393 -1.1985
  317MOL0     H43681   7.400   3.213   5.856  1.1822  0.2132  0.4874
  317MOL0     H43682   7.448   3.046   5.888 -1.0007  0.4756  1.4238
  317MOL0     H43683   7.564   3.062   5.657 -2.9153 -0.0496  0.3657
  317MOL0     H43684   7.560   3.243   5.679  1.7193  1.1528  1.0472
  317MOL0     H43685   7.688   3.198   5.908  0.0635  0.7044 -0.4661
  317MOL0     H43686   7.694   3.029   5.850 -0.6114 -0.6539  0.0935
  317MOL0     H43687   7.826   3.124   5.651  1.1218 -1.8014  1.2701
  317MOL0     H43688   7.886   3.112   5.816 -2.6963  0.3175  2.6587
  317MOL0     H43689   7.796   3.363   5.648 -0.4481  0.0370 -0.4491
  317MOL0     H43690   7.790   3.369   5.822 -1.0522  0.6325 -2.2916
  317MOL0     H43691   8.051   3.308   5.830  0.3372 -1.2967 -1.0125
  317MOL0     H43692   7.983   3.468   5.774 -3.7848  1.1412 -3.5664
  317MOL0     H43693   8.064   3.227   5.618  2.0247  0.2789  1.4489
  317MOL0     H43694   8.005   3.388   5.549 -1.1705 -0.4892 -0.4750
  317MOL0     H43695   8.240   3.446   5.844  1.5249 -0.4935  0.4361
  317MOL0     H43696   8.565   3.543   5.696  0.4186  3.6017 -2.5946
  317MOL0     H43697   8.492   3.549   5.858  0.2822  1.4011  0.3714
  317MOL0     H43698   8.444   3.737   5.619 -0.7525  1.2105  0.1333
  317MOL0     H43699   8.350   3.756   5.757  0.6783  1.8496  0.0327
  317MOL0     H43700   8.573   3.765   5.885 -1.6372  1.4880  0.3508
  317MOL0     H43701   8.657   3.787   5.738  0.1078  1.4157 -0.5513
  317MOL0     H43702   8.420   3.962   5.830  0.9065  1.8438 -0.3890
  317MOL0     H43703   8.587   4.009   5.865 -2.3240  2.1201  1.4925
  317MOL0     H43704   8.502   4.093   5.415  0.9432 -0.4015 -0.8359
  317MOL0     H43705   8.655   4.289   5.189  1.2996  0.4184 -1.4689
  317MOL0     H43706   8.571   4.135   5.197  0.9288 -2.6133  3.5049
  317MOL0     H43707   8.747   4.134   5.167  0.6185  1.1731 -0.0681
  317MOL0     H43708   9.124   4.441   5.506  1.1241  3.3887 -0.3276
  317MOL0     H43709   9.273   4.628   5.430  2.3813  0.4507 -0.7364
  317MOL0     H43710   9.576   4.477   5.243  0.1054  2.1454  4.4172
  317MOL0     H43711   9.564   4.562   5.089  2.4568  2.6685 -0.0878
  317MOL0     H43712   9.651   4.752   5.193 -0.8718 -0.4713 -0.2909
  317MOL0     H43713   9.606   4.708   5.356  0.3803  2.0381  0.5598
  317MOL0     H43714   9.863   4.700   5.278  0.3987  1.3396 -4.4683
  317MOL0     H43715   9.827   4.570   5.173 -0.8891 -0.7909  0.6582
  317MOL0     H43716   9.800   4.415   5.337 -1.7517  0.4640 -1.0165
  317MOL0     H43717   9.746   4.531   5.463 -0.9921  1.0035 -0.6392
  317MOL0     H43718  10.003   4.437   5.481  1.0750  1.2935  0.1063
  317MOL0     H43719  10.030   4.553   5.354  1.6102  1.5832  0.9648
  317MOL0     H43720   9.952   4.617   5.644 -2.4805 -2.2441 -0.4945
  317MOL0     H43721   9.947   4.734   5.503  0.0889 -0.9326 -1.0252
  317MOL0     H43722  10.197   4.670   5.466 -1.5190  0.2190 -0.6800
  317MOL0     H43723  10.178   4.582   5.615 -2.8585  0.2072  3.0431
  317MOL0     H43724  10.272   4.787   5.672 -0.8280 -1.6456  2.4622
  317MOL0     H43725  10.097   4.818   5.721 -0.0953  1.3672  0.5882
  317MOL0     H43726   9.382   4.409   5.081  0.1797  1.8667  0.0024
  317MOL0     H43727   9.222   4.199   5.164 -1.9820 -0.3754  0.2623
  317MOL0     H43728   8.962   4.142   5.589  0.7186 -2.4672 -1.8190
  317MOL0     H43729   8.795   4.063   5.737  1.6366  2.2519 -0.2129
  317MOL0     H43730   7.125   3.112   5.552 -0.5984 -0.7568 -1.2302
  317MOL0     H43731   6.900   3.070   5.462 -0.5666  1.3954  0.3073
  317MOL0     H43732   6.467   2.941   5.690  0.7031  0.2649 -0.8128
  317MOL0     H43733   6.236   2.905   5.686 -0.0481  0.0620  0.1350
  317MOL0     H43734   6.066   2.514   5.557 -1.3738 -0.8555  0.3092
  317MOL0     H43735   6.085   2.592   5.709 -0.9555 -0.4881  0.1071
  317MOL0     H43736   5.870   2.713   5.703 -1.8297 -0.4576  0.4870
  317MOL0     H43737   5.860   2.546   5.707  1.2474  1.2750  1.4914
  317MOL0     H43738   5.862   2.688   5.448 -0.6869 -1.2223 -2.1926
  317MOL0     H43739   5.824   2.510   5.473  1.5742 -1.0591  2.2372
  317MOL0     H43740   5.611   2.588   5.451  1.3491  1.1157  0.1829
  317MOL0     H43741   5.631   2.740   5.550 -1.9818 -0.9559  5.2793
  317MOL0     H43742   5.515   2.424   5.802  0.6162 -1.8320 -0.4403
  317MOL0     H43743   6.272   2.569   5.425 -1.8378  1.4422  0.0791
  317MOL0     H43744   6.637   2.624   5.377  2.0395 -2.8807 -0.0345
  317MOL0     H43745   6.542   2.483   5.404  0.3360  0.2963  0.3685
  317MOL0     H43746   6.480   2.613   5.288 -1.9471  1.7910  1.8267
  318MOL0     O43747   1.380   6.203   6.439  0.0094  0.1008  0.6869
  318MOL0     C43748   1.338   6.105   6.375  0.6113  0.3885 -0.1994
  318MOL0     O43749   1.204   6.072   6.347 -0.7773 -0.0792  0.7801
  318MOL0     C43750   1.116   6.167   6.391  0.3070 -0.5368 -1.2137
  318MOL0     C43751   1.044   6.159   6.514 -0.6152 -0.4195 -0.0250
  318MOL0     C43752   0.953   6.263   6.537  0.1124  1.2390 -0.6117
  318MOL0     C43753   0.924   6.358   6.449  0.6277 -0.0428  0.3548
  318MOL0     O43754   0.842   6.466   6.468 -0.1281  0.9621 -0.0661
  318MOL0     C43755   0.742   6.458   6.569  0.2467 -0.2545 -0.5249
  318MOL0     C43756   0.612   6.389   6.519  0.4319  0.2774  0.2951
  318MOL0     C43757   0.515   6.354   6.639  0.4887 -0.5030 -0.5450
  318MOL0     C43758   0.388   6.297   6.580  0.1853  0.3323  1.0410
  318MOL0     C43759   0.267   6.274   6.667  0.6554 -0.6163  0.1597
  318MOL0     C43760   0.192   6.136   6.638 -0.1494  0.0054  0.9559
  318MOL0     C43761   0.090   6.101   6.742 -0.7752 -0.1612 -0.0796
  318MOL0     C43762  -0.043   6.188   6.748 -0.1103 -0.0922  0.3104
  318MOL0     N43763  -0.145   6.150   6.652 -0.0247 -0.9053 -0.7260
  318MOL0     C43764  -0.178   6.018   6.620  0.2824 -0.5485 -0.7019
  318MOL0     C43765  -0.287   6.030   6.543 -0.1705 -0.6119  0.2154
  318MOL0     C43766  -0.334   5.915   6.460 -0.1680 -0.5948  0.7782
  318MOL0     C43767  -0.486   5.910   6.464  0.5439  0.2212  0.0407
  318MOL0     C43768  -0.539   5.777   6.412 -0.0930  0.3388 -0.8973
  318MOL0     C43769  -0.695   5.773   6.434  0.7448 -0.2750  0.3488
  318MOL0     O43770  -0.758   5.893   6.384 -0.4648  0.0425  0.2500
  318MOL0     C43771  -0.872   5.877   6.316  0.5238 -0.5763  0.8593
  318MOL0     C43772  -0.999   5.892   6.369  0.8096  0.0791  0.4223
  318MOL0     C43773  -1.119   5.864   6.298  0.1962 -0.1495 -0.1918
  318MOL0     C43774  -1.257   5.898   6.344 -0.3357  0.3221 -0.1092
  318MOL0     C43775  -1.099   5.813   6.166 -0.2203 -0.5048 -0.0995
  318MOL0     C43776  -1.212   5.771   6.080  0.6375 -0.2518 -0.5568
  318MOL0     O43777  -1.202   5.818   5.946  0.4034 -0.1389  0.5472
  318MOL0     C43778  -1.291   5.756   5.852 -0.5900  0.2075 -0.4157
  318MOL0     C43779  -1.386   5.835   5.798  1.3497 -0.4157 -0.4977
  318MOL0     C43780  -1.473   5.792   5.691 -1.3880 -0.4600 -0.1364
  318MOL0     C43781  -1.467   5.657   5.647 -0.5883 -0.1092 -1.5076
  318MOL0     O43782  -1.553   5.595   5.558 -0.3564 -0.0507  0.8837
  318MOL0     C43783  -1.661   5.673   5.493 -0.1641  0.1971 -0.0550
  318MOL0     C43784  -1.733   5.585   5.388  0.1821  0.3146  0.6290
  318MOL0     C43785  -1.798   5.671   5.274 -0.1530 -0.6024  0.2340
  318MOL0     C43786  -1.862   5.580   5.172  0.1365  0.3037 -0.2018
  318MOL0     C43787  -1.935   5.648   5.055  0.0986  0.2070  0.1262
  318MOL0     C43788  -2.000   5.546   4.971  0.1253  0.8976  0.9306
  318MOL0     C43789  -2.062   5.618   4.849  0.4398 -0.9465  0.0172
  318MOL0     C43790  -2.128   5.514   4.750 -1.1747 -0.4432  0.0465
  318MOL0    Cl43791  -2.297   5.482   4.812 -0.0217  0.1162 -0.0014
  318MOL0     C43792  -1.360   5.575   5.700 -0.9886 -0.3037  0.8136
  318MOL0     C43793  -1.273   5.626   5.796  0.2039 -0.4866  0.0569
  318MOL0     O43794  -1.294   5.691   6.117  0.6168  0.6332  0.2060
  318MOL0     C43795  -0.978   5.825   6.100 -0.3570 -0.7381 -0.3514
  318MOL0     C43796  -0.862   5.846   6.181  0.0786  0.1736 -0.2015
  318MOL0     N43797  -0.330   6.165   6.539 -0.4549  0.2980  0.4228
  318MOL0     N43798  -0.239   6.231   6.602 -0.1336  0.3476  0.2597
  318MOL0     C43799   0.991   6.368   6.324  0.5001 -0.3721 -0.4594
  318MOL0     C43800   1.086   6.273   6.294  0.1345 -0.1486 -0.1525
  318MOL0     C43801   1.425   5.997   6.347 -0.7887 -0.2956  0.1382
  318MOL0     C43802   1.388   5.864   6.384 -0.1897 -0.7015 -0.1680
  318MOL0     C43803   1.475   5.759   6.365  0.0422 -0.3693  0.3456
  318MOL0     C43804   1.600   5.777   6.305  0.9741 -0.4294 -0.2092
  318MOL0     O43805   1.693   5.682   6.283  0.1600 -0.1554  0.1173
  318MOL0     C43806   1.693   5.560   6.371 -0.4965 -0.1274  0.5803
  318MOL0     C43807   1.838   5.523   6.419  1.4302 -0.2244  0.3541
  318MOL0     C43808   1.881   5.629   6.517 -0.3584 -0.4924  1.1767
  318MOL0     C43809   1.814   5.613   6.651  0.0714 -0.9272  0.4870
  318MOL0     C43810   1.888   5.697   6.744  1.3557  0.3481  0.1590
  318MOL0     C43811   1.959   5.753   6.815  0.3218  0.2544 -0.2882
  318MOL0     C43812   1.639   5.911   6.276  0.0015 -0.1034 -0.5446
  318MOL0     C43813   1.554   6.025   6.292 -0.4647 -1.2080 -1.2003
  318MOL0     C43814   1.601   6.160   6.242 -0.4561  0.8513  0.0333
  318MOL0     H43815   1.064   6.077   6.582  3.1438  0.1385 -0.2373
  318MOL0     H43816   0.916   6.256   6.639  0.0308 -1.7206 -0.7407
  318MOL0     H43817   0.722   6.561   6.600 -1.2734 -0.3904 -0.9602
  318MOL0     H43818   0.769   6.415   6.666  1.3567  2.8497  0.6686
  318MOL0     H43819   0.558   6.459   6.454 -2.7962  0.1832  2.6370
  318MOL0     H43820   0.644   6.297   6.469  0.9739 -1.9425  4.2717
  318MOL0     H43821   0.566   6.294   6.715 -2.1171 -1.0263  0.9436
  318MOL0     H43822   0.495   6.442   6.701  2.5313 -0.1168 -0.3704
  318MOL0     H43823   0.361   6.355   6.491 -0.3774  1.7598  2.1082
  318MOL0     H43824   0.410   6.194   6.553 -0.8954  0.1841  0.6495
  318MOL0     H43825   0.208   6.366   6.654 -0.0960 -1.1192 -0.0391
  318MOL0     H43826   0.295   6.265   6.772  3.0795  1.5099 -0.2028
  318MOL0     H43827   0.145   6.134   6.539  0.5664  2.4847  0.4927
  318MOL0     H43828   0.267   6.056   6.640  0.5556  0.6398  0.3738
  318MOL0     H43829   0.133   6.117   6.841 -3.9854 -1.9362  1.7349
  318MOL0     H43830   0.071   5.994   6.747 -0.0779 -0.2265  1.8864
  318MOL0     H43831  -0.098   6.176   6.842 -1.2967  0.6467 -0.2629
  318MOL0     H43832  -0.016   6.294   6.743 -1.4520  0.5801  4.2466
  318MOL0     H43833  -0.115   5.930   6.632  0.2122 -0.6877 -1.3142
  318MOL0     H43834  -0.288   5.827   6.505  3.9717  0.0256 -1.7349
  318MOL0     H43835  -0.304   5.934   6.356  1.0259 -1.5270  0.9342
  318MOL0     H43836  -0.516   5.922   6.569  2.0627 -4.6469  1.2945
  318MOL0     H43837  -0.509   5.995   6.399  0.8827  1.1277  1.0681
  318MOL0     H43838  -0.511   5.763   6.308  0.1432 -0.2765 -0.7508
  318MOL0     H43839  -0.509   5.689   6.470 -0.1304  0.9307  0.0413
  318MOL0     H43840  -0.736   5.683   6.387 -1.5044 -0.3607  2.3094
  318MOL0     H43841  -0.704   5.762   6.543 -2.2591  2.2491  0.4701
  318MOL0     H43842  -1.004   5.932   6.469  0.2144 -0.1703  0.4974
  318MOL0     H43843  -1.321   5.809   6.341  0.6983 -0.4813  0.8828
  318MOL0     H43844  -1.301   5.974   6.278 -0.1134 -1.6710 -2.6970
  318MOL0     H43845  -1.250   5.945   6.443  1.8134  0.9563 -0.5021
  318MOL0     H43846  -1.376   5.939   5.826 -0.2983 -0.3352 -0.0871
  318MOL0     H43847  -1.537   5.867   5.647 -2.4964 -0.7175  0.9993
  318MOL0     H43848  -1.739   5.704   5.563 -0.0665 -1.2226  0.7122
  318MOL0     H43849  -1.624   5.762   5.440 -1.8892  0.4290 -0.9522
  318MOL0     H43850  -1.659   5.516   5.346  1.8488  1.3936  1.6618
  318MOL0     H43851  -1.809   5.537   5.450 -1.0105 -1.1311 -1.8225
  318MOL0     H43852  -1.708   5.717   5.232 -1.2263 -1.0231 -2.8198
  318MOL0     H43853  -1.872   5.745   5.306  0.2258 -0.8447  1.7384
  318MOL0     H43854  -1.932   5.528   5.238  2.1639  0.6136  2.3864
  318MOL0     H43855  -1.801   5.500   5.129 -0.0555  1.3774 -2.6062
  318MOL0     H43856  -2.014   5.710   5.098  0.1499 -0.1588  0.7619
  318MOL0     H43857  -1.865   5.713   5.001 -2.6641  1.3763 -2.2782
  318MOL0     H43858  -2.075   5.500   5.036  2.6528 -3.1471  1.3654
  318MOL0     H43859  -1.928   5.480   4.921 -2.1073  1.7392 -3.9722
  318MOL0     H43860  -1.984   5.674   4.796 -0.4922 -0.1839 -0.5806
  318MOL0     H43861  -2.143   5.680   4.889 -0.1809 -2.3697  1.0660
  318MOL0     H43862  -2.066   5.425   4.740 -0.6991 -0.7014  3.7702
  318MOL0     H43863  -2.135   5.561   4.652 -0.0393  1.2660  0.7203
  318MOL0     H43864  -1.337   5.472   5.674  0.6807 -1.0039  4.3673
  318MOL0     H43865  -1.185   5.570   5.827  1.2165 -0.7199 -2.9161
  318MOL0     H43866  -0.965   5.788   5.999  0.1435 -1.2636 -0.1058
  318MOL0     H43867  -0.764   5.834   6.136  0.3968 -0.0452  0.5373
  318MOL0     H43868   0.967   6.445   6.252 -0.7840  1.1056  1.4271
  318MOL0     H43869   1.135   6.273   6.197 -0.8192 -0.4190 -0.6469
  318MOL0     H43870   1.291   5.841   6.428 -1.2008 -1.2268 -2.4898
  318MOL0     H43871   1.445   5.660   6.396  0.3991 -0.0493  1.7938
  318MOL0     H43872   1.634   5.587   6.459  1.6693  1.4121  1.6582
  318MOL0     H43873   1.652   5.474   6.318  2.1344  1.2032 -4.1414
  318MOL0     H43874   1.908   5.515   6.336  1.1858  0.5671  0.0604
  318MOL0     H43875   1.827   5.427   6.471 -4.0329  1.2668  2.6807
  318MOL0     H43876   1.990   5.623   6.522 -0.2686 -0.5483 -0.3864
  318MOL0     H43877   1.850   5.723   6.471 -1.6028 -1.0107  0.8877
  318MOL0     H43878   1.829   5.511   6.685  1.1669 -0.0227  2.8796
  318MOL0     H43879   1.711   5.648   6.642  0.3932 -0.3593 -1.9825
  318MOL0     H43880   2.015   5.819   6.879 -0.7590 -0.3441  1.3299
  318MOL0     H43881   1.738   5.940   6.241 -0.4387  1.2583 -0.7113
  318MOL0     H43882   1.595   6.243   6.314  0.7241 -0.3678  1.6251
  318MOL0     H43883   1.702   6.163   6.200 -1.0764  1.6601 -1.4634
  318MOL0     H43884   1.531   6.184   6.162  0.8137 -0.0696 -1.4075
  319MOL0     O43885  10.780   7.822  10.469  0.5346  0.4844 -0.6631
  319MOL0     C43886  10.754   7.740  10.554 -0.1915  0.8967  0.6605
  319MOL0     O43887  10.851   7.672  10.629  0.2989  0.1693 -0.2990
  319MOL0     C43888  10.977   7.690  10.593 -0.7083 -0.0437 -0.0957
  319MOL0     C43889  11.039   7.805  10.637  0.0130 -0.5151  0.6858
  319MOL0     C43890  11.174   7.825  10.622  0.4253 -0.2372  0.1052
  319MOL0     C43891  11.255   7.732  10.561 -0.8322 -0.5567 -0.6550
  319MOL0     O43892  11.395   7.741  10.552  0.9490 -0.2917  0.3304
  319MOL0     C43893  11.449   7.855  10.608  0.3058 -0.2461 -0.6780
  319MOL0     C43894  11.459   7.972  10.512 -0.5685  0.0513 -0.1618
  319MOL0     C43895  11.598   7.972  10.437  0.9170  0.8574 -0.2288
  319MOL0     C43896  11.627   8.113  10.378  0.3229 -0.0420  0.8960
  319MOL0     C43897  11.733   8.132  10.274  0.5801  0.8627  0.7375
  319MOL0     C43898  11.861   8.063  10.323  0.3712 -0.0206  0.4750
  319MOL0     C43899  11.997   8.100  10.253 -0.4214 -0.5765  0.0097
  319MOL0     C43900  12.113   8.063  10.341  0.2613  0.2120  0.4158
  319MOL0     N43901  12.244   8.111  10.283  0.0653  0.2280 -0.0307
  319MOL0     C43902  12.346   8.171  10.353  0.0202 -0.3696 -0.2044
  319MOL0     C43903  12.441   8.194  10.260  0.1077 -0.1775  0.7936
  319MOL0     C43904  12.578   8.265  10.269  0.2748 -0.4871 -0.1678
  319MOL0     C43905  12.685   8.175  10.306  0.1039  0.0345  0.6194
  319MOL0     C43906  12.819   8.246  10.316 -1.0490 -0.0721  0.0806
  319MOL0     C43907  12.855   8.339  10.197 -0.0059  0.4280  0.2900
  319MOL0     O43908  12.989   8.380  10.210 -0.6432 -0.0038 -0.3946
  319MOL0     C43909  13.098   8.294  10.212  0.4338 -0.4268 -0.3462
  319MOL0     C43910  13.095   8.161  10.182 -0.1827 -0.1238  0.4812
  319MOL0     C43911  13.220   8.084  10.196  0.5067  0.1298 -0.8524
  319MOL0     C43912  13.202   7.942  10.138  0.2343 -0.3344 -0.2461
  319MOL0     C43913  13.339   8.143  10.252  0.7870 -0.7104  0.0663
  319MOL0     C43914  13.460   8.071  10.293  0.3919  0.3679  0.1985
  319MOL0     O43915  13.548   8.145  10.366 -0.2461  0.1473  0.1195
  319MOL0     C43916  13.670   8.090  10.402 -0.2295  0.0354  0.7648
  319MOL0     C43917  13.684   7.982  10.481 -1.4341  1.0979 -0.1406
  319MOL0     C43918  13.816   7.917  10.503  0.3451  0.0115  0.7046
  319MOL0     C43919  13.924   7.977  10.449  0.2413 -0.2603 -0.8938
  319MOL0     O43920  14.043   7.925  10.460 -0.2869  0.4496  0.8241
  319MOL0     C43921  14.126   7.979  10.560  0.3621 -0.3711 -0.3655
  319MOL0     C43922  14.263   7.917  10.580  0.0358 -0.0436  0.3522
  319MOL0     C43923  14.258   7.769  10.628  0.3710 -0.2505 -0.2050
  319MOL0     C43924  14.395   7.706  10.634 -0.1033  0.2067  0.8309
  319MOL0     C43925  14.403   7.579  10.707 -0.2982  0.0989 -0.8410
  319MOL0     C43926  14.312   7.469  10.662  0.9444 -0.1689 -0.5990
  319MOL0     C43927  14.318   7.330  10.746  0.5798 -0.0569 -0.5757
  319MOL0     C43928  14.275   7.347  10.892  0.0388 -0.1561 -0.3230
  319MOL0    Cl43929  14.090   7.384  10.890 -0.3280  0.1239  0.0182
  319MOL0     C43930  13.911   8.085  10.366  0.2861  0.2658 -0.8672
  319MOL0     C43931  13.785   8.139  10.345 -0.9834 -0.0105 -0.4841
  319MOL0     O43932  13.484   7.956  10.252  0.0216  0.6429 -0.1155
  319MOL0     C43933  13.334   8.281  10.270  0.3651 -0.1210  0.3078
  319MOL0     C43934  13.217   8.359  10.251  0.3316  1.3062 -0.2926
  319MOL0     N43935  12.388   8.150  10.142 -1.0409  0.1869  0.4599
  319MOL0     N43936  12.276   8.100  10.152  0.6323  0.5545 -0.5563
  319MOL0     C43937  11.199   7.611  10.523  0.5153 -0.0473 -0.0596
  319MOL0     C43938  11.061   7.590  10.540 -0.6159  0.4955  0.0461
  319MOL0     C43939  10.610   7.702  10.590  0.2581 -1.2123 -0.8514
  319MOL0     C43940  10.591   7.596  10.675 -0.5017  0.4963  0.7749
  319MOL0     C43941  10.460   7.566  10.734 -0.6524 -0.3803 -0.2090
  319MOL0     C43942  10.345   7.636  10.700  0.0846 -0.5237  0.6635
  319MOL0     O43943  10.215   7.603  10.742 -0.5056 -0.2386  0.6632
  319MOL0     C43944  10.175   7.669  10.863 -0.3532 -0.4265 -0.0830
  319MOL0     C43945  10.021   7.680  10.877 -0.3661 -0.3481 -0.4635
  319MOL0     C43946   9.935   7.716  10.746  0.7341 -0.8176  0.6144
  319MOL0     C43947   9.802   7.774  10.784  0.3758 -0.2382  0.5129
  319MOL0     C43948   9.727   7.679  10.862  0.5033 -0.2925 -0.2444
  319MOL0     C43949   9.666   7.601  10.931  0.7028 -0.3035 -0.2021
  319MOL0     C43950  10.357   7.731  10.594 -1.0982 -0.1738 -0.6007
  319MOL0     C43951  10.487   7.771  10.540  0.0356  0.3534 -0.7000
  319MOL0     C43952  10.492   7.888  10.446  0.8364  0.1142 -0.8022
  319MOL0     H43953  10.988   7.889  10.682  0.8526  0.7100 -0.5605
  319MOL0     H43954  11.201   7.921  10.665 -1.2769  2.3413 -3.9775
  319MOL0     H43955  11.554   7.835  10.631  0.6913  0.3241 -1.8463
  319MOL0     H43956  11.400   7.897  10.696 -1.5017 -1.4667 -1.0483
  319MOL0     H43957  11.383   7.971  10.434 -0.7482 -2.4686 -0.0587
  319MOL0     H43958  11.437   8.067  10.560  1.8276  1.4662 -1.6755
  319MOL0     H43959  11.680   7.964  10.510  1.5651  2.2772 -0.7661
  319MOL0     H43960  11.608   7.899  10.357  2.8126  2.9815 -2.0555
  319MOL0     H43961  11.535   8.166  10.352  0.6256 -0.8683 -2.2876
  319MOL0     H43962  11.660   8.171  10.465 -1.9579  1.5959  0.7618
  319MOL0     H43963  11.746   8.239  10.260 -0.3992  0.7364 -1.8513
  319MOL0     H43964  11.703   8.094  10.175 -2.7735  1.6370  1.3241
  319MOL0     H43965  11.859   8.081  10.431 -3.4895 -0.8661  0.7026
  319MOL0     H43966  11.847   7.955  10.316  0.2102  0.1277 -2.8890
  319MOL0     H43967  12.003   8.206  10.229  1.4543 -1.1171 -2.3992
  319MOL0     H43968  11.999   8.033  10.166 -3.3680 -1.5472  0.5935
  319MOL0     H43969  12.096   8.114  10.436 -0.7591 -1.3285  1.0925
  319MOL0     H43970  12.119   7.957  10.369 -1.7759  0.1411  0.7017
  319MOL0     H43971  12.349   8.194  10.459 -0.0979 -2.7640  0.3962
  319MOL0     H43972  12.569   8.345  10.343 -3.3875 -1.0661  0.2269
  319MOL0     H43973  12.596   8.309  10.170 -3.2186  1.7535  0.0069
  319MOL0     H43974  12.668   8.130  10.405 -3.8415  2.5596  1.3119
  319MOL0     H43975  12.681   8.093  10.233  0.2914 -1.6051  2.3563
  319MOL0     H43976  12.822   8.303  10.409  0.5924 -2.1428  1.3593
  319MOL0     H43977  12.893   8.170  10.340 -0.1755  0.1719 -1.6584
  319MOL0     H43978  12.847   8.276  10.108 -2.6717 -2.7848  2.5125
  319MOL0     H43979  12.785   8.422  10.184 -1.9580 -1.4420 -2.2975
  319MOL0     H43980  13.020   8.104  10.130  0.4743 -0.2523 -0.3493
  319MOL0     H43981  13.171   7.866  10.210 -3.2622 -0.7245 -1.9210
  319MOL0     H43982  13.303   7.926  10.098 -0.1645  1.4635 -2.1767
  319MOL0     H43983  13.132   7.931  10.055  3.2556  3.2050 -3.6916
  319MOL0     H43984  13.602   7.930  10.530  0.2957 -0.4038  1.3330
  319MOL0     H43985  13.816   7.826  10.562 -0.7960  0.1822  0.9887
  319MOL0     H43986  14.159   8.081  10.536  2.4021 -0.5714  1.3831
  319MOL0     H43987  14.069   7.975  10.653 -0.1631 -1.7911 -0.7261
  319MOL0     H43988  14.301   7.922  10.477 -1.6421 -0.5783 -0.3200
  319MOL0     H43989  14.322   7.978  10.649  0.7941 -2.4756  1.9860
  319MOL0     H43990  14.201   7.708  10.557 -0.4441 -0.5424  0.6786
  319MOL0     H43991  14.214   7.768  10.728  0.8365 -0.8515  0.0010
  319MOL0     H43992  14.461   7.777  10.683 -0.0790  2.7215 -2.4854
  319MOL0     H43993  14.428   7.690  10.531  0.8152  1.2818  0.9410
  319MOL0     H43994  14.507   7.550  10.691  1.1926  2.1105  3.5397
  319MOL0     H43995  14.397   7.589  10.816 -2.1252  1.2594 -1.0027
  319MOL0     H43996  14.340   7.441  10.560 -1.3858 -0.3811 -1.2446
  319MOL0     H43997  14.209   7.505  10.664  0.3999 -1.5364  2.4565
  319MOL0     H43998  14.418   7.288  10.758  0.3024 -0.0859  2.3576
  319MOL0     H43999  14.253   7.263  10.689  0.5061 -1.8320  1.4562
  319MOL0     H44000  14.319   7.429  10.950  0.7209  1.8040 -3.3688
  319MOL0     H44001  14.292   7.254  10.948 -0.0097  0.7112  1.2099
  319MOL0     H44002  13.997   8.119  10.310  0.4042  1.0740 -0.2204
  319MOL0     H44003  13.779   8.231  10.288 -2.7261 -0.3541 -0.9331
  319MOL0     H44004  13.406   8.347  10.318 -2.0377  3.2138 -0.3646
  319MOL0     H44005  13.215   8.465  10.272 -0.9798  1.1102  0.6878
  319MOL0     H44006  11.259   7.526  10.493 -0.6312 -1.1581  0.6827
  319MOL0     H44007  11.019   7.493  10.514 -1.6568  0.9230  0.0734
  319MOL0     H44008  10.670   7.523  10.693 -1.9763 -1.2582  0.4122
  319MOL0     H44009  10.446   7.479  10.797 -1.4516 -0.1896 -0.1080
  319MOL0     H44010  10.223   7.622  10.949  1.6561  2.6849  0.6675
  319MOL0     H44011  10.203   7.775  10.860  0.2826 -0.5562  0.7762
  319MOL0     H44012  10.000   7.764  10.943  3.2391 -0.1631  0.6463
  319MOL0     H44013   9.992   7.582  10.915 -2.6608 -0.5903 -2.5599
  319MOL0     H44014   9.987   7.791  10.686 -1.5099  0.7654  0.5455
  319MOL0     H44015   9.933   7.628  10.680  1.4711  0.1931 -0.8083
  319MOL0     H44016   9.742   7.791  10.694  2.1085  1.5160 -0.3991
  319MOL0     H44017   9.810   7.876  10.823 -0.7874 -0.2357  0.7774
  319MOL0     H44018   9.617   7.527  10.991  1.1286 -0.2006  0.2770
  319MOL0     H44019  10.272   7.780  10.549  0.7638  3.8689 -0.1523
  319MOL0     H44020  10.393   7.929  10.470  0.2305 -1.3515 -0.7154
  319MOL0     H44021  10.567   7.962  10.475  1.1261 -0.6328  0.4370
  319MOL0     H44022  10.505   7.850  10.345  0.5031 -3.2747  0.2954
  320MOL0     O44023   3.612   1.923   2.608  0.4810 -0.7423  0.3864
  320MOL0     C44024   3.537   1.963   2.692  0.1850 -0.3459 -1.0307
  320MOL0     O44025   3.568   2.038   2.806 -0.1840 -0.1212  0.1953
  320MOL0     C44026   3.701   2.054   2.836 -0.7304  0.5849  1.3487
  320MOL0     C44027   3.731   2.054   2.978 -0.2565 -0.3903  0.1418
  320MOL0     C44028   3.859   2.102   3.024  0.1825  0.6326 -0.2593
  320MOL0     C44029   3.960   2.136   2.930  0.2293  0.3688  0.3481
  320MOL0     O44030   4.083   2.178   2.961 -1.0797  0.5541  0.0337
  320MOL0     C44031   4.102   2.249   3.090  0.0057 -0.7160 -0.2630
  320MOL0     C44032   4.232   2.323   3.071 -0.7651 -0.5693  0.1245
  320MOL0     C44033   4.266   2.392   3.207 -0.3381  0.5330 -0.3003
  320MOL0     C44034   4.351   2.516   3.173 -0.1117 -0.7889 -0.1798
  320MOL0     C44035   4.500   2.483   3.150 -0.0167  0.3529  1.2279
  320MOL0     C44036   4.548   2.533   3.016 -0.7536 -0.2636  1.0371
  320MOL0     C44037   4.696   2.501   2.993  0.1798 -1.1116 -0.1672
  320MOL0     C44038   4.732   2.522   2.845 -0.2038 -0.0996 -0.1818
  320MOL0     N44039   4.874   2.541   2.841  0.1293  0.3082 -0.2609
  320MOL0     C44040   4.975   2.447   2.797  0.0490  0.2341  0.0910
  320MOL0     C44041   5.088   2.523   2.786 -0.6284  0.1321 -0.7410
  320MOL0     C44042   5.223   2.481   2.726  0.2094 -0.2538  0.5710
  320MOL0     C44043   5.225   2.478   2.573  0.4711 -0.8541  0.8476
  320MOL0     C44044   5.355   2.406   2.524  0.7655  0.0403 -0.7280
  320MOL0     C44045   5.485   2.486   2.544  0.3415 -0.4019 -0.2984
  320MOL0     O44046   5.462   2.629   2.514 -0.3531  0.4291 -0.7214
  320MOL0     C44047   5.569   2.713   2.498 -0.0127 -0.2891  0.5282
  320MOL0     C44048   5.550   2.839   2.436 -1.0054  0.1270  0.4324
  320MOL0     C44049   5.651   2.927   2.414  0.5192 -0.5510  0.1556
  320MOL0     C44050   5.631   3.052   2.330  0.9086  0.5136  0.4406
  320MOL0     C44051   5.783   2.894   2.460 -0.2891 -0.0946  0.3222
  320MOL0     C44052   5.902   2.986   2.456  1.2661 -0.8005 -0.0282
  320MOL0     O44053   6.020   2.921   2.441  0.3672  0.2392 -0.4121
  320MOL0     C44054   6.140   2.981   2.456  0.3674  1.3420 -0.1478
  320MOL0     C44055   6.182   3.111   2.489 -0.2707  0.4094  0.3820
  320MOL0     C44056   6.315   3.140   2.473  0.0345 -0.1953  0.0234
  320MOL0     C44057   6.412   3.048   2.456 -0.1252 -0.2164 -0.0369
  320MOL0     O44058   6.543   3.098   2.466 -0.0853 -0.3075 -0.0990
  320MOL0     C44059   6.635   3.037   2.375 -0.6552 -0.3156  0.0153
  320MOL0     C44060   6.776   3.117   2.368  0.6178 -0.3025 -0.1212
  320MOL0     C44061   6.860   3.057   2.261 -0.7855 -0.2246  1.0949
  320MOL0     C44062   6.976   3.149   2.227 -0.0188 -0.8223  0.4632
  320MOL0     C44063   7.080   3.053   2.148  1.0057  1.1638  1.3332
  320MOL0     C44064   7.193   3.138   2.086  0.0112  0.3858 -0.0298
  320MOL0     C44065   7.316   3.062   2.040  0.0524  0.1614 -0.4526
  320MOL0     C44066   7.408   3.148   1.952  0.2416  0.5909 -0.0851
  320MOL0    Cl44067   7.551   3.054   1.889  0.0248 -0.0847 -0.3300
  320MOL0     C44068   6.374   2.909   2.436  0.5318 -0.0996 -0.1811
  320MOL0     C44069   6.238   2.881   2.433  0.4279 -0.4130 -0.4546
  320MOL0     O44070   5.879   3.115   2.458 -0.3883  0.1781 -0.5920
  320MOL0     C44071   5.800   2.768   2.507  0.3053  0.8887 -0.5017
  320MOL0     C44072   5.699   2.680   2.528 -0.0691  0.3672  0.1639
  320MOL0     N44073   5.057   2.653   2.817  0.2981 -0.8553 -0.1117
  320MOL0     N44074   4.935   2.664   2.855 -0.5288  0.0530 -0.0603
  320MOL0     C44075   3.929   2.115   2.794 -1.3692 -0.6167  0.0485
  320MOL0     C44076   3.806   2.085   2.744  0.2352  0.0328 -0.7020
  320MOL0     C44077   3.385   1.943   2.674  0.3179 -0.4943 -0.0106
  320MOL0     C44078   3.306   2.041   2.746 -0.3975 -0.3814 -0.3026
  320MOL0     C44079   3.165   2.049   2.724  0.0213  0.4889  0.7610
  320MOL0     C44080   3.109   1.956   2.633 -0.0391 -0.2802 -0.3520
  320MOL0     O44081   2.978   1.956   2.594  0.6592  0.0550 -0.5593
  320MOL0     C44082   2.884   2.018   2.682 -0.6039  0.1225 -0.8614
  320MOL0     C44083   2.752   1.976   2.640 -0.5023 -0.1083 -0.1523
  320MOL0     C44084   2.638   2.027   2.735  0.3733  0.0804 -0.7224
  320MOL0     C44085   2.496   2.018   2.669 -0.3671 -0.4739  0.9007
  320MOL0     C44086   2.469   1.870   2.663  0.0629 -0.5104  0.2424
  320MOL0     C44087   2.456   1.754   2.640  0.2252 -0.2368 -0.1553
  320MOL0     C44088   3.189   1.859   2.573 -0.2988 -0.0493 -0.8077
  320MOL0     C44089   3.329   1.853   2.584  0.0839 -0.1331  0.5313
  320MOL0     C44090   3.405   1.738   2.518 -0.4972  0.9128  0.8762
  320MOL0     H44091   3.653   2.024   3.048  1.6507 -1.6398  1.8512
  320MOL0     H44092   3.885   2.112   3.129  0.1775  2.1490 -0.3916
  320MOL0     H44093   4.112   2.175   3.170 -1.0367 -0.5353  0.0467
  320MOL0     H44094   4.022   2.319   3.113 -0.8545 -0.2758 -3.9974
  320MOL0     H44095   4.313   2.257   3.039  0.1359  1.1675 -1.3541
  320MOL0     H44096   4.215   2.395   2.990  1.6832  1.8445  1.5841
  320MOL0     H44097   4.175   2.431   3.254 -1.2226  0.4666 -1.8962
  320MOL0     H44098   4.322   2.325   3.273 -0.3203  1.2092  0.3876
  320MOL0     H44099   4.316   2.570   3.084  1.4363  2.5208  1.0636
  320MOL0     H44100   4.347   2.590   3.254 -1.4608  0.1405 -1.0318
  320MOL0     H44101   4.517   2.375   3.152  1.2967  0.5496  2.9192
  320MOL0     H44102   4.563   2.515   3.233 -0.8623  0.6500  1.7632
  320MOL0     H44103   4.497   2.487   2.930 -2.2352  0.9891  1.2111
  320MOL0     H44104   4.531   2.640   3.004  0.3996 -0.2056 -0.3861
  320MOL0     H44105   4.715   2.401   3.034 -2.8389 -1.5334  0.4583
  320MOL0     H44106   4.747   2.572   3.058 -2.5091  1.1838 -0.4044
  320MOL0     H44107   4.715   2.444   2.769 -2.0623 -0.0576  0.1575
  320MOL0     H44108   4.691   2.618   2.815  1.3826  1.2261  1.6316
  320MOL0     H44109   4.968   2.344   2.763  3.3312 -0.2024  0.4286
  320MOL0     H44110   5.243   2.383   2.771 -1.3712  0.3042  2.6466
  320MOL0     H44111   5.304   2.548   2.756  2.0653 -2.6476  1.2710
  320MOL0     H44112   5.139   2.428   2.527  1.2021  0.4119 -2.0576
  320MOL0     H44113   5.220   2.578   2.529  1.9894 -0.2858  1.8822
  320MOL0     H44114   5.369   2.315   2.582  2.3015  0.9694  0.4573
  320MOL0     H44115   5.339   2.385   2.418  0.2577  0.5220 -0.7528
  320MOL0     H44116   5.521   2.479   2.647 -2.0455 -0.5896  0.5848
  320MOL0     H44117   5.559   2.453   2.470 -0.2844 -1.0794 -0.6290
  320MOL0     H44118   5.449   2.844   2.395 -0.2954 -2.6960 -2.0243
  320MOL0     H44119   5.535   3.040   2.281 -0.4858 -2.3219  3.4256
  320MOL0     H44120   5.704   3.061   2.249 -1.0996  0.2865 -1.4752
  320MOL0     H44121   5.636   3.140   2.395  1.6378  1.5204 -0.9305
  320MOL0     H44122   6.111   3.192   2.498 -1.9123 -0.9807  0.4533
  320MOL0     H44123   6.348   3.243   2.476  1.1948 -0.4972 -1.4292
  320MOL0     H44124   6.652   2.933   2.405 -3.6637 -0.6552  0.9147
  320MOL0     H44125   6.582   3.049   2.280  2.4092  2.8617 -1.5141
  320MOL0     H44126   6.770   3.222   2.340  1.0263 -1.0133 -3.1666
  320MOL0     H44127   6.828   3.114   2.465 -0.5431 -0.9060  0.5048
  320MOL0     H44128   6.810   3.028   2.168 -0.8977  1.9071  0.4534
  320MOL0     H44129   6.890   2.959   2.301 -1.1276 -0.2047  1.4030
  320MOL0     H44130   7.012   3.195   2.319 -2.3785  1.6592  0.2671
  320MOL0     H44131   6.934   3.224   2.159  1.4382  0.5846  1.0685
  320MOL0     H44132   7.116   2.980   2.221  0.1089 -0.6753  0.0273
  320MOL0     H44133   7.034   2.998   2.065  1.4269  0.4990  1.5322
  320MOL0     H44134   7.228   3.213   2.157 -1.8834  0.2879  1.0566
  320MOL0     H44135   7.161   3.193   1.997 -1.4741  0.1551  0.3391
  320MOL0     H44136   7.287   2.971   1.987 -0.5938 -1.0239  1.8256
  320MOL0     H44137   7.378   3.040   2.127 -3.2477 -1.0120  1.7750
  320MOL0     H44138   7.432   3.235   2.013  1.1698 -1.6136  2.9036
  320MOL0     H44139   7.356   3.179   1.861  0.1714  2.4802  0.5568
  320MOL0     H44140   6.447   2.830   2.426 -1.8181 -2.5922  1.2120
  320MOL0     H44141   6.214   2.777   2.412  1.7838 -1.0166  0.8573
  320MOL0     H44142   5.895   2.729   2.541 -0.7483 -0.9848  0.4616
  320MOL0     H44143   5.713   2.581   2.570  0.6977 -0.0825 -1.0921
  320MOL0     H44144   4.013   2.134   2.727  1.1537 -2.0876  2.5386
  320MOL0     H44145   3.795   2.081   2.636 -2.3333 -2.1918 -0.4652
  320MOL0     H44146   3.357   2.103   2.819  3.0545 -3.3369  0.0870
  320MOL0     H44147   3.107   2.131   2.765 -2.9830 -0.8954 -0.4390
  320MOL0     H44148   2.921   1.991   2.781  0.7827  2.5051 -0.6421
  320MOL0     H44149   2.894   2.127   2.672 -1.2699  0.3753  0.8834
  320MOL0     H44150   2.755   1.868   2.650  0.8605 -0.0766 -0.0951
  320MOL0     H44151   2.740   2.004   2.535 -3.0837 -2.3546 -0.5654
  320MOL0     H44152   2.638   1.985   2.836  2.3541  3.3638  0.8396
  320MOL0     H44153   2.657   2.132   2.761 -0.4795  0.0151  0.2175
  320MOL0     H44154   2.496   2.066   2.571 -1.7870  0.6242  1.3986
  320MOL0     H44155   2.427   2.071   2.736  0.4891 -0.2710  1.6499
  320MOL0     H44156   2.445   1.648   2.624 -0.2072 -0.3363  0.7699
  320MOL0     H44157   3.131   1.789   2.514 -0.7891  0.8891 -1.4582
  320MOL0     H44158   3.353   1.681   2.441  2.2094  1.2688 -1.3934
  320MOL0     H44159   3.493   1.779   2.467 -0.9650  2.7576  1.4713
  320MOL0     H44160   3.443   1.677   2.601 -0.1504 -0.6869 -0.3981
  321MOL0     O44161   1.808   8.676   8.813  0.6029  0.0114 -0.2720
  321MOL0     C44162   1.896   8.731   8.754 -0.1031 -0.7760  0.1185
  321MOL0     O44163   1.906   8.753   8.620  0.1793 -0.5387  0.3047
  321MOL0     C44164   1.798   8.705   8.547 -0.2186 -0.1496 -0.2329
  321MOL0     C44165   1.812   8.597   8.457 -0.0332  0.2346  0.3118
  321MOL0     C44166   1.704   8.567   8.376 -0.4309 -0.2861  0.2694
  321MOL0     C44167   1.575   8.624   8.380 -0.2478 -0.6656 -0.6667
  321MOL0     O44168   1.471   8.564   8.309  0.1833 -0.4181  0.0503
  321MOL0     C44169   1.488   8.496   8.186  0.2873  0.9826  0.0006
  321MOL0     C44170   1.345   8.450   8.144  0.1786 -0.0685 -0.0961
  321MOL0     C44171   1.355   8.379   8.011  0.3819  0.2469  0.0213
  321MOL0     C44172   1.215   8.336   7.972  0.2421  0.2211 -0.1381
  321MOL0     C44173   1.219   8.223   7.867  0.5034 -0.2570  1.1622
  321MOL0     C44174   1.257   8.271   7.723 -0.0567  0.5062 -0.0585
  321MOL0     C44175   1.232   8.169   7.618 -0.5811  0.1179 -0.2718
  321MOL0     C44176   1.279   8.222   7.478  0.0457  1.1616 -0.0047
  321MOL0     N44177   1.425   8.249   7.457  1.2029 -0.4900  0.9405
  321MOL0     C44178   1.516   8.153   7.453 -0.6652 -0.5026  0.2643
  321MOL0     C44179   1.618   8.209   7.384 -0.1247  0.5519  0.3553
  321MOL0     C44180   1.749   8.139   7.366 -0.7562  1.0472 -0.9091
  321MOL0     C44181   1.879   8.204   7.430 -0.0298  0.2413  0.3594
  321MOL0     C44182   1.905   8.167   7.582  0.1042 -0.8965  0.1612
  321MOL0     C44183   2.006   8.249   7.657 -0.0894 -0.8081 -0.3090
  321MOL0     O44184   2.133   8.211   7.599  0.0979  0.7812  0.2635
  321MOL0     C44185   2.248   8.277   7.635  0.0743  0.1167 -0.3676
  321MOL0     C44186   2.253   8.382   7.733 -0.6787 -0.7875 -0.5300
  321MOL0     C44187   2.375   8.442   7.765  0.2695  0.1111  0.9737
  321MOL0     C44188   2.388   8.547   7.879 -0.3050 -0.3249 -0.3255
  321MOL0     C44189   2.501   8.404   7.690  0.1394 -0.4162 -0.2598
  321MOL0     C44190   2.635   8.466   7.716 -0.5111 -0.3054  0.4742
  321MOL0     O44191   2.742   8.389   7.708 -0.3660  0.3036 -0.5553
  321MOL0     C44192   2.873   8.449   7.727  0.4559 -0.5161  0.0045
  321MOL0     C44193   2.933   8.507   7.612  0.2966  0.0533  0.1191
  321MOL0     C44194   3.055   8.570   7.622 -0.1083  0.7949 -0.3095
  321MOL0     C44195   3.125   8.570   7.750 -0.3226 -0.6343  0.6108
  321MOL0     O44196   3.246   8.641   7.776 -0.1953  0.0240  0.0074
  321MOL0     C44197   3.321   8.703   7.671  0.1990  0.4170 -0.3419
  321MOL0     C44198   3.465   8.733   7.727 -0.4354 -0.7691 -0.2959
  321MOL0     C44199   3.458   8.828   7.847  0.2054 -0.3158  0.3327
  321MOL0     C44200   3.599   8.896   7.862  0.3099 -0.3827  0.5093
  321MOL0     C44201   3.701   8.795   7.923  0.0288  0.4323  0.1092
  321MOL0     C44202   3.851   8.817   7.891 -1.3350  1.0515  0.7839
  321MOL0     C44203   3.951   8.712   7.962  0.3110 -0.1313 -0.2903
  321MOL0     C44204   4.090   8.734   7.920 -0.7938  1.1343  0.1659
  321MOL0    Cl44205   4.171   8.569   7.936 -0.0552 -0.2070  0.1007
  321MOL0     C44206   3.063   8.512   7.862  0.3783 -0.4793 -0.1394
  321MOL0     C44207   2.937   8.455   7.848 -0.1788  0.2760 -0.5554
  321MOL0     O44208   2.636   8.591   7.725 -0.0112 -0.0988 -0.8016
  321MOL0     C44209   2.493   8.303   7.590  0.6294 -0.1564  0.3881
  321MOL0     C44210   2.367   8.249   7.566  0.8939  0.0154 -0.1632
  321MOL0     N44211   1.585   8.342   7.369  0.3919  0.1719 -0.3083
  321MOL0     N44212   1.465   8.370   7.412  0.4739 -0.3587  0.8189
  321MOL0     C44213   1.554   8.729   8.473  0.1253  0.2931  0.0081
  321MOL0     C44214   1.664   8.763   8.551 -0.0613 -0.4470  0.6661
  321MOL0     C44215   2.035   8.756   8.822 -0.7250 -0.6253  0.0529
  321MOL0     C44216   2.134   8.830   8.755 -1.1334 -0.6066  0.9631
  321MOL0     C44217   2.260   8.850   8.810  0.6067  0.5003 -0.7764
  321MOL0     C44218   2.300   8.797   8.936 -0.4361 -1.2485  0.4738
  321MOL0     O44219   2.415   8.824   8.998  1.0235 -0.1128  0.2250
  321MOL0     C44220   2.489   8.932   8.957 -0.1822 -0.7848 -0.1678
  321MOL0     C44221   2.600   8.969   9.057  0.1854 -0.2239  0.2744
  321MOL0     C44222   2.651   9.117   9.040 -0.1027  0.0277  0.4999
  321MOL0     C44223   2.767   9.148   9.135  0.6304 -0.4232  0.3266
  321MOL0     C44224   2.891   9.085   9.096  0.0661 -0.1812  0.5730
  321MOL0     C44225   2.997   9.053   9.054 -0.4322 -0.4013  0.2696
  321MOL0     C44226   2.206   8.719   9.006 -0.2685  0.1235 -0.3699
  321MOL0     C44227   2.080   8.692   8.944  0.0201 -0.3379  0.3467
  321MOL0     C44228   1.987   8.600   9.011 -0.1201  0.2985 -0.0696
  321MOL0     H44229   1.905   8.543   8.444  0.1818  0.9279 -1.3177
  321MOL0     H44230   1.721   8.489   8.302 -1.3686  1.1821 -1.5758
  321MOL0     H44231   1.545   8.404   8.204  0.5212  1.2736  0.7697
  321MOL0     H44232   1.543   8.565   8.123  3.1975 -0.2166  1.0776
  321MOL0     H44233   1.305   8.383   8.220  1.3031 -2.2967 -1.3767
  321MOL0     H44234   1.296   8.546   8.125 -1.9216 -1.3187 -1.2950
  321MOL0     H44235   1.413   8.427   7.933  1.3005 -1.7515 -0.6081
  321MOL0     H44236   1.417   8.293   8.040 -0.4734  0.1580  1.7068
  321MOL0     H44237   1.159   8.288   8.052 -1.3389  0.5025 -1.0341
  321MOL0     H44238   1.150   8.418   7.940 -1.5029 -2.2132 -3.4589
  321MOL0     H44239   1.113   8.193   7.865 -0.1595  1.9345  0.8930
  321MOL0     H44240   1.262   8.130   7.906 -1.3516 -2.1014 -0.9053
  321MOL0     H44241   1.209   8.368   7.711 -0.4379  0.3669  0.3171
  321MOL0     H44242   1.365   8.287   7.734  0.1788  1.7641 -3.1716
  321MOL0     H44243   1.124   8.159   7.606 -0.3569 -1.0055 -1.5837
  321MOL0     H44244   1.277   8.074   7.648 -1.5446 -0.8315 -1.6776
  321MOL0     H44245   1.255   8.137   7.413 -0.6037  1.8603 -0.6932
  321MOL0     H44246   1.220   8.309   7.448  1.5225  2.3902  0.5253
  321MOL0     H44247   1.513   8.050   7.488 -2.3044 -0.5289  0.1390
  321MOL0     H44248   1.775   8.133   7.260 -1.0029 -0.9844 -0.9017
  321MOL0     H44249   1.752   8.035   7.400  1.4765  1.1438 -0.6867
  321MOL0     H44250   1.967   8.154   7.388 -0.6693 -0.0163 -0.7140
  321MOL0     H44251   1.887   8.311   7.408 -0.9500  0.1542 -0.4644
  321MOL0     H44252   1.810   8.184   7.633  0.2339  1.5752 -0.2828
  321MOL0     H44253   1.924   8.060   7.593  2.0790 -0.4898  1.1553
  321MOL0     H44254   1.990   8.352   7.626 -1.7915 -1.1707 -0.7465
  321MOL0     H44255   2.001   8.229   7.764  0.5126  2.0470  0.3267
  321MOL0     H44256   2.166   8.433   7.773 -0.6424  0.0922 -1.5304
  321MOL0     H44257   2.403   8.653   7.856 -1.4211  0.4920  2.3102
  321MOL0     H44258   2.461   8.512   7.953 -0.7537 -0.4594  0.0619
  321MOL0     H44259   2.298   8.535   7.940  0.0734 -3.2748 -0.1860
  321MOL0     H44260   2.890   8.492   7.514  0.9856  1.7944 -0.4927
  321MOL0     H44261   3.100   8.617   7.536  0.3863 -0.2833 -0.6485
  321MOL0     H44262   3.342   8.636   7.587 -0.5795  2.0546 -1.9320
  321MOL0     H44263   3.274   8.795   7.635  3.3809  1.6362 -1.8413
  321MOL0     H44264   3.519   8.640   7.749 -0.5816 -0.8968 -0.4754
  321MOL0     H44265   3.521   8.785   7.649  1.3485 -1.1352  0.6931
  321MOL0     H44266   3.431   8.770   7.935 -0.2392 -0.9298 -0.1994
  321MOL0     H44267   3.392   8.912   7.821  0.7951  0.4781  1.3416
  321MOL0     H44268   3.593   8.983   7.928 -0.2710  0.1676 -0.2495
  321MOL0     H44269   3.628   8.935   7.764 -0.4486  0.4586  0.6102
  321MOL0     H44270   3.685   8.793   8.031  2.6527  0.1522  0.5638
  321MOL0     H44271   3.665   8.698   7.886 -1.4436  1.1935 -0.5202
  321MOL0     H44272   3.884   8.915   7.927 -1.9826  1.4194  0.3996
  321MOL0     H44273   3.862   8.830   7.783 -0.2552  1.1485  0.8886
  321MOL0     H44274   3.908   8.615   7.934  1.8912 -0.7299 -0.7497
  321MOL0     H44275   3.943   8.718   8.071 -2.4537 -2.1666 -0.2817
  321MOL0     H44276   4.142   8.805   7.985 -0.8184 -0.0121  1.4996
  321MOL0     H44277   4.094   8.771   7.818 -0.4395 -2.6990 -1.3768
  321MOL0     H44278   3.105   8.525   7.961 -1.7598 -1.5192  0.9713
  321MOL0     H44279   2.892   8.410   7.936  0.2043  1.3757  0.2219
  321MOL0     H44280   2.569   8.256   7.528 -1.1079 -1.5340 -0.7884
  321MOL0     H44281   2.361   8.163   7.501  0.5237 -1.4217  1.6697
  321MOL0     H44282   1.456   8.776   8.478 -0.7555 -1.5691  1.9709
  321MOL0     H44283   1.650   8.842   8.623  0.7955 -2.2584  2.9400
  321MOL0     H44284   2.119   8.867   8.654  3.0014 -0.8085  0.1047
  321MOL0     H44285   2.326   8.917   8.755  1.0999  1.4822  0.9157
  321MOL0     H44286   2.541   8.911   8.863 -0.0347 -1.6858  0.1021
  321MOL0     H44287   2.427   9.020   8.935 -0.1699 -0.3365  1.4923
  321MOL0     H44288   2.688   8.904   9.048  2.7200  2.9759 -0.1325
  321MOL0     H44289   2.572   8.964   9.162  4.0889  0.7311  1.5221
  321MOL0     H44290   2.678   9.133   8.935  1.1506  1.8388  1.0503
  321MOL0     H44291   2.562   9.176   9.060  0.0887  0.4661  0.0790
  321MOL0     H44292   2.742   9.108   9.234 -0.2073  0.8855  0.6639
  321MOL0     H44293   2.779   9.256   9.130 -0.1487 -0.3977 -1.7833
  321MOL0     H44294   3.100   9.033   9.032  0.1961  0.8336  1.8232
  321MOL0     H44295   2.226   8.673   9.102 -2.5295 -0.2555 -0.0116
  321MOL0     H44296   2.030   8.562   9.105  0.2975 -0.6018 -0.6047
  321MOL0     H44297   1.890   8.646   9.029 -0.5138  0.5762 -2.6070
  321MOL0     H44298   1.979   8.514   8.944 -1.5808 -0.3880  0.9319
  322MOL0     O44299   1.479   1.742   1.133 -0.3176  0.5398 -0.5033
  322MOL0     C44300   1.365   1.789   1.151 -0.1640 -0.7247  0.1341
  322MOL0     O44301   1.318   1.917   1.107  0.9430 -0.4030  0.4520
  322MOL0     C44302   1.415   1.997   1.060 -0.6144  0.3956 -0.3166
  322MOL0     C44303   1.473   1.988   0.932  0.7606  0.0769 -0.0926
  322MOL0     C44304   1.567   2.078   0.884  0.1586  0.0825 -0.0135
  322MOL0     C44305   1.612   2.185   0.966  0.0465 -0.1354  0.5532
  322MOL0     O44306   1.716   2.267   0.928 -0.9473 -0.0167  0.2570
  322MOL0     C44307   1.820   2.222   0.838  0.0760 -0.0307  0.4425
  322MOL0     C44308   1.942   2.310   0.843  0.0381  0.0904 -0.2127
  322MOL0     C44309   2.059   2.244   0.765 -0.0462  0.6498 -0.7359
  322MOL0     C44310   2.193   2.321   0.788 -0.0067  0.2011  0.1296
  322MOL0     C44311   2.202   2.452   0.717  0.0954 -0.4205 -0.2820
  322MOL0     C44312   2.345   2.491   0.725 -0.3781  0.1555 -0.0290
  322MOL0     C44313   2.372   2.607   0.630  0.2717  0.6493  0.5717
  322MOL0     C44314   2.292   2.731   0.652  0.9304  0.4028 -0.7280
  322MOL0     N44315   2.350   2.851   0.594 -0.1833 -0.1822 -0.6105
  322MOL0     C44316   2.371   2.878   0.464 -0.2535  0.2248 -0.3134
  322MOL0     C44317   2.424   3.005   0.451  0.2768  0.8795 -0.2215
  322MOL0     C44318   2.475   3.058   0.319 -0.2736 -0.5229  0.1159
  322MOL0     C44319   2.618   3.118   0.323  0.9345  0.8526 -1.2041
  322MOL0     C44320   2.653   3.215   0.205 -0.4267  0.5505 -0.8454
  322MOL0     C44321   2.802   3.234   0.201  0.1275  0.0276  0.4069
  322MOL0     O44322   2.862   3.277   0.321  0.9315  0.3247  0.8606
  322MOL0     C44323   2.995   3.326   0.309 -0.6566  0.0246  0.1362
  322MOL0     C44324   3.071   3.297   0.195 -0.1609 -0.4550  0.5480
  322MOL0     C44325   3.205   3.335   0.189  0.1318 -0.3942 -0.1197
  322MOL0     C44326   3.271   3.301   0.053 -0.2906  0.3667 -0.3372
  322MOL0     C44327   3.270   3.394   0.294 -0.8305 -0.1790  0.0093
  322MOL0     C44328   3.416   3.432   0.283 -0.4430  0.3878 -0.6166
  322MOL0     O44329   3.449   3.548   0.357  0.2654 -0.7552 -0.1377
  322MOL0     C44330   3.569   3.611   0.335  0.0478  0.0431 -1.4691
  322MOL0     C44331   3.676   3.534   0.384 -0.7566  0.1757  0.6922
  322MOL0     C44332   3.807   3.593   0.385  0.1898 -0.1735  0.0230
  322MOL0     C44333   3.838   3.714   0.330 -0.2106 -1.0818 -0.6445
  322MOL0     O44334   3.972   3.750   0.332 -0.4423 -0.3058 -0.0526
  322MOL0     C44335   4.010   3.817   0.207 -0.4103 -0.2344 -0.1461
  322MOL0     C44336   4.157   3.796   0.181  1.1105 -0.4202  0.0365
  322MOL0     C44337   4.241   3.876   0.282 -0.8299  0.1669 -0.2823
  322MOL0     C44338   4.396   3.894   0.239 -0.5876  0.2522 -0.6182
  322MOL0     C44339   4.473   3.989   0.331  0.5556  0.5395  0.9615
  322MOL0     C44340   4.602   4.025   0.267  0.6897 -0.8337 -0.7253
  322MOL0     C44341   4.684   4.116   0.367  1.2846  0.9393 -0.3845
  322MOL0     C44342   4.814   4.170   0.310  0.7236  0.4754 -0.1530
  322MOL0    Cl44343   4.776   4.285   0.182  0.0944  0.1884 -0.1800
  322MOL0     C44344   3.732   3.796   0.287  0.9404  0.0104 -0.6831
  322MOL0     C44345   3.592   3.746   0.308  0.2299  0.4447 -0.6717
  322MOL0     O44346   3.497   3.353   0.238 -0.6996 -0.6882  0.1619
  322MOL0     C44347   3.195   3.406   0.413 -0.2344  0.3327 -0.3898
  322MOL0     C44348   3.058   3.385   0.419  0.1137  0.3309 -0.4112
  322MOL0     N44349   2.427   3.063   0.577 -0.4737  0.0834  0.3788
  322MOL0     N44350   2.389   2.963   0.659 -0.4193 -0.4644 -0.5630
  322MOL0     C44351   1.549   2.206   1.086  0.3152 -0.2530 -0.5873
  322MOL0     C44352   1.459   2.110   1.139  0.4352 -0.2877 -0.9125
  322MOL0     C44353   1.262   1.694   1.200 -0.0066  0.1125  0.5333
  322MOL0     C44354   1.292   1.585   1.292  0.0037 -0.8965  0.9138
  322MOL0     C44355   1.192   1.508   1.350  1.0302  1.3097 -0.4211
  322MOL0     C44356   1.063   1.517   1.312 -0.5509 -0.1755 -0.0016
  322MOL0     O44357   0.971   1.436   1.380 -0.6572  0.0451 -0.9620
  322MOL0     C44358   0.862   1.385   1.306 -0.4092  0.4471  0.0577
  322MOL0     C44359   0.913   1.257   1.239 -0.1027  0.2005  0.4911
  322MOL0     C44360   0.795   1.161   1.215  0.1424  0.0703  1.0025
  322MOL0     C44361   0.815   1.060   1.102  0.4767 -0.8629 -0.4659
  322MOL0     C44362   0.819   1.118   0.964 -0.1686  0.1390 -0.5603
  322MOL0     C44363   0.821   1.168   0.854  0.3710 -0.2853 -0.0308
  322MOL0     C44364   1.027   1.623   1.219  0.0798  1.2128 -0.0147
  322MOL0     C44365   1.124   1.710   1.166  0.1717  0.0313  0.1212
  322MOL0     C44366   1.061   1.806   1.071 -0.6820 -0.6147  0.0567
  322MOL0     H44367   1.454   1.900   0.871  1.8172  1.0379 -1.9188
  322MOL0     H44368   1.607   2.064   0.784 -0.0383  2.9255 -0.5857
  322MOL0     H44369   1.787   2.226   0.734  2.3807 -1.3527 -0.3835
  322MOL0     H44370   1.850   2.121   0.865  1.4981  0.6831  1.6509
  322MOL0     H44371   1.933   2.409   0.796 -1.5702 -0.2583 -0.6833
  322MOL0     H44372   1.968   2.322   0.948  3.3045  3.2974 -1.1776
  322MOL0     H44373   2.079   2.146   0.810  1.4945  1.3313  0.1704
  322MOL0     H44374   2.040   2.237   0.658 -1.7513 -0.5062 -0.3952
  322MOL0     H44375   2.218   2.335   0.894  0.5608  1.4261 -0.1447
  322MOL0     H44376   2.273   2.261   0.742 -1.8849 -0.1587 -2.9024
  322MOL0     H44377   2.145   2.531   0.767  0.6527  0.7976 -1.5138
  322MOL0     H44378   2.164   2.453   0.615 -0.7066  0.4908  0.0185
  322MOL0     H44379   2.383   2.517   0.824 -0.6716 -1.3282  0.5040
  322MOL0     H44380   2.408   2.409   0.689  0.7145  0.0343  2.0303
  322MOL0     H44381   2.364   2.588   0.523 -1.1490  2.5386  0.2781
  322MOL0     H44382   2.479   2.628   0.641  1.1934 -2.5796 -1.1573
  322MOL0     H44383   2.194   2.714   0.607  1.2875 -2.4564 -0.6254
  322MOL0     H44384   2.284   2.742   0.761 -0.4658 -0.8602 -0.6657
  322MOL0     H44385   2.345   2.811   0.383 -1.6770 -0.2127  0.4723
  322MOL0     H44386   2.402   3.127   0.276 -1.0410 -1.7433 -0.5812
  322MOL0     H44387   2.477   2.968   0.257 -2.5353 -0.8298  0.3822
  322MOL0     H44388   2.626   3.173   0.417 -0.2641  2.4798 -2.0009
  322MOL0     H44389   2.691   3.037   0.327  1.3608  1.2848  0.7724
  322MOL0     H44390   2.623   3.176   0.107  1.7825 -1.0499 -0.9537
  322MOL0     H44391   2.599   3.306   0.234 -1.0390 -0.2159  0.5445
  322MOL0     H44392   2.847   3.135   0.186 -0.6150 -0.1881 -0.5374
  322MOL0     H44393   2.827   3.299   0.117 -1.1932 -1.4863 -1.2253
  322MOL0     H44394   3.033   3.239   0.111  1.8442 -0.4611 -0.4175
  322MOL0     H44395   3.352   3.233   0.081 -2.1030 -0.9767  2.0444
  322MOL0     H44396   3.300   3.391  -0.001  0.1984  1.7564  2.0796
  322MOL0     H44397   3.199   3.253  -0.014 -3.8120  1.8787  2.0770
  322MOL0     H44398   3.657   3.438   0.430  0.8016  0.4083  1.8976
  322MOL0     H44399   3.884   3.528   0.424  0.2312  0.8566  1.8093
  322MOL0     H44400   3.946   3.768   0.133  0.0658 -1.7205  0.4009
  322MOL0     H44401   3.979   3.922   0.213  0.1279 -0.1453  1.5960
  322MOL0     H44402   4.175   3.688   0.182  1.4689 -0.3590  0.5644
  322MOL0     H44403   4.191   3.831   0.083 -0.0847  2.0885  0.4488
  322MOL0     H44404   4.226   3.828   0.379  1.6951  1.9533  1.1265
  322MOL0     H44405   4.192   3.974   0.279 -1.3642 -0.1291 -1.4503
  322MOL0     H44406   4.410   3.918   0.133  1.7605  0.7231 -0.2712
  322MOL0     H44407   4.440   3.794   0.249 -2.5269 -0.6014 -0.2468
  322MOL0     H44408   4.411   4.079   0.339 -0.7837 -0.1284 -1.0801
  322MOL0     H44409   4.486   3.928   0.421  0.2365 -3.0635 -1.2523
  322MOL0     H44410   4.593   4.074   0.170 -0.6938 -0.6548 -0.5256
  322MOL0     H44411   4.655   3.930   0.253  1.8959 -0.6598  2.0420
  322MOL0     H44412   4.718   4.060   0.454  0.7956 -0.6991 -1.1913
  322MOL0     H44413   4.622   4.198   0.405 -0.7079 -0.0297 -1.3827
  322MOL0     H44414   4.887   4.091   0.289  1.1331  0.7142  0.3322
  322MOL0     H44415   4.865   4.231   0.386  3.7057 -1.5284 -0.3671
  322MOL0     H44416   3.751   3.893   0.243 -0.3593  0.4326 -0.3795
  322MOL0     H44417   3.508   3.810   0.284 -0.0901  0.1942 -0.2303
  322MOL0     H44418   3.226   3.449   0.508 -0.4150  0.0165 -0.1839
  322MOL0     H44419   3.008   3.387   0.516  1.1038 -2.8300  0.2632
  322MOL0     H44420   1.578   2.275   1.164  2.4461 -2.5692  0.7969
  322MOL0     H44421   1.405   2.124   1.232 -0.9635  2.5422 -2.0380
  322MOL0     H44422   1.397   1.575   1.319  0.4024 -0.6959 -0.4523
  322MOL0     H44423   1.226   1.435   1.423  0.4590  0.0786 -1.3666
  322MOL0     H44424   0.769   1.378   1.364 -0.0786  1.2795  0.7015
  322MOL0     H44425   0.831   1.440   1.216  0.5460  0.6728 -0.1416
  322MOL0     H44426   0.995   1.212   1.295  2.2280 -1.0355 -3.5183
  322MOL0     H44427   0.948   1.285   1.139  0.9637 -1.1697  0.4542
  322MOL0     H44428   0.780   1.112   1.312 -0.8240  0.4461  1.0475
  322MOL0     H44429   0.701   1.211   1.190  0.4649 -0.0687 -0.5819
  322MOL0     H44430   0.729   0.993   1.116  0.2412 -0.6417 -0.8616
  322MOL0     H44431   0.897   0.993   1.130 -2.5128 -4.2835  1.1787
  322MOL0     H44432   0.798   1.221   0.764  0.7485  2.9995  1.6464
  322MOL0     H44433   0.921   1.640   1.207 -0.8714 -1.1349  3.5079
  322MOL0     H44434   0.965   1.773   1.031 -1.4837  2.1232 -0.4964
  322MOL0     H44435   1.057   1.901   1.124  3.9282 -1.9979  3.5020
  322MOL0     H44436   1.119   1.808   0.978  1.0881  3.0681  1.0749
  323MOL0     O44437   3.134   9.109   6.495 -0.4427 -0.8029  0.5315
  323MOL0     C44438   3.165   9.174   6.393  0.1383  1.2538 -0.5057
  323MOL0     O44439   3.081   9.218   6.304 -0.0156  0.1712  0.7467
  323MOL0     C44440   2.947   9.191   6.305  0.1714 -0.9256 -0.3035
  323MOL0     C44441   2.860   9.242   6.403  0.1805  0.0834 -0.1275
  323MOL0     C44442   2.719   9.212   6.397 -0.3109 -0.0554 -0.4158
  323MOL0     C44443   2.665   9.156   6.283 -0.6522 -0.3670  0.0194
  323MOL0     O44444   2.525   9.141   6.273 -0.0509  0.3159  0.2937
  323MOL0     C44445   2.463   9.055   6.176 -0.7055 -0.3115 -0.4543
  323MOL0     C44446   2.317   9.091   6.160 -0.6644 -0.8416  1.1200
  323MOL0     C44447   2.292   9.243   6.168  0.2287  0.1523 -0.1545
  323MOL0     C44448   2.163   9.296   6.106 -0.6539 -0.4452 -1.2553
  323MOL0     C44449   2.135   9.446   6.121 -0.9364  0.1120  0.6282
  323MOL0     C44450   2.122   9.491   6.268  0.6695  1.1711  0.2887
  323MOL0     C44451   2.046   9.627   6.283  0.8126  0.7018  0.5706
  323MOL0     C44452   2.070   9.663   6.433  0.3972  0.0552 -0.1685
  323MOL0     N44453   1.999   9.786   6.456  0.7600  0.0743  0.3506
  323MOL0     C44454   1.886   9.794   6.535 -0.4844  0.5226 -0.0324
  323MOL0     C44455   1.832   9.916   6.502  0.3650  0.1115  0.0817
  323MOL0     C44456   1.695   9.965   6.549 -0.3479  0.1342  0.6868
  323MOL0     C44457   1.601   9.931   6.439 -0.7425 -0.7445  0.3066
  323MOL0     C44458   1.460   9.987   6.480  0.5897 -0.0857 -0.0534
  323MOL0     C44459   1.348   9.965   6.374  0.1056  0.0811 -0.1059
  323MOL0     O44460   1.299   9.826   6.384  0.1601  0.3902  0.2025
  323MOL0     C44461   1.196   9.789   6.301 -0.9977 -0.0286  0.3225
  323MOL0     C44462   1.186   9.837   6.170  0.2987  0.4577 -0.3597
  323MOL0     C44463   1.087   9.797   6.078  0.8390 -0.5319 -0.3199
  323MOL0     C44464   1.086   9.861   5.936 -0.5917 -0.0144  0.8318
  323MOL0     C44465   0.990   9.710   6.132  0.1574  0.2703  0.0841
  323MOL0     C44466   0.875   9.667   6.056  0.9015 -0.1677 -0.0542
  323MOL0     O44467   0.765   9.642   6.122  0.5148 -0.8853  0.0693
  323MOL0     C44468   0.648   9.612   6.064  1.0006 -0.1463  0.0876
  323MOL0     C44469   0.620   9.497   5.993 -0.4735 -0.3708 -0.1064
  323MOL0     C44470   0.509   9.490   5.912  0.1672  0.4202 -0.1521
  323MOL0     C44471   0.413   9.602   5.912 -0.1075 -0.0538 -0.4111
  323MOL0     O44472   0.293   9.601   5.844  0.1346 -0.2076 -0.1679
  323MOL0     C44473   0.223   9.473   5.853 -0.6589 -0.6698 -0.1193
  323MOL0     C44474   0.091   9.494   5.805  0.5603 -0.5736  0.8390
  323MOL0     C44475   0.012   9.369   5.806 -0.2508 -0.1366 -0.6413
  323MOL0     C44476  -0.119   9.374   5.725 -0.3462  0.3487 -0.0756
  323MOL0     C44477  -0.208   9.250   5.743  0.0202  0.7625  0.3492
  323MOL0     C44478  -0.256   9.219   5.884  0.0177 -0.7255 -0.5003
  323MOL0     C44479  -0.352   9.093   5.901 -0.0232 -0.5359  0.0168
  323MOL0     C44480  -0.505   9.108   5.887  0.3208 -0.2265 -1.2570
  323MOL0    Cl44481  -0.548   9.117   5.713  0.7231 -0.0686  0.0835
  323MOL0     C44482   0.436   9.712   5.987 -0.0802  0.0994  0.3572
  323MOL0     C44483   0.554   9.717   6.055 -0.0190  0.0697 -0.1532
  323MOL0     O44484   0.878   9.641   5.935 -0.6377  0.0274  0.0369
  323MOL0     C44485   1.007   9.654   6.262  0.2764 -0.5707 -0.4003
  323MOL0     C44486   1.112   9.699   6.349  0.3929 -0.5632  0.1602
  323MOL0     N44487   1.926   9.986   6.432  0.3422  0.2051 -0.6209
  323MOL0     N44488   2.021   9.909   6.402 -0.3718 -0.1171  0.5962
  323MOL0     C44489   2.753   9.107   6.185 -0.3128  0.1509 -0.3096
  323MOL0     C44490   2.892   9.121   6.198 -0.1176  0.3256 -0.2073
  323MOL0     C44491   3.313   9.198   6.352 -0.0496 -0.1468 -0.1758
  323MOL0     C44492   3.348   9.288   6.251 -0.3603 -0.6192  0.8023
  323MOL0     C44493   3.474   9.325   6.209 -0.3652 -0.1609 -0.0262
  323MOL0     C44494   3.588   9.269   6.281  0.6305 -0.0386 -0.5810
  323MOL0     O44495   3.715   9.284   6.232  0.1051 -0.7154 -0.8381
  323MOL0     C44496   3.765   9.417   6.223 -0.0087  0.4093  0.5015
  323MOL0     C44497   3.893   9.412   6.160 -0.5851 -1.0448  0.1188
  323MOL0     C44498   3.952   9.555   6.142 -0.7146  0.6117 -0.3776
  323MOL0     C44499   4.087   9.550   6.077  0.6683 -0.2943 -0.4137
  323MOL0     C44500   4.192   9.486   6.153  0.6723 -0.6131  0.0191
  323MOL0     C44501   4.279   9.433   6.217  0.9078  1.0387  0.2440
  323MOL0     C44502   3.554   9.185   6.390 -0.0331 -0.2179  0.3990
  323MOL0     C44503   3.420   9.158   6.432 -0.6431  0.1947 -0.0171
  323MOL0     C44504   3.418   9.090   6.555 -0.0480  0.6909 -0.2533
  323MOL0     H44505   2.903   9.285   6.493 -1.1524 -0.4722  0.8063
  323MOL0     H44506   2.655   9.246   6.478 -2.9558 -3.0702 -1.0353
  323MOL0     H44507   2.478   8.948   6.195 -0.6181 -0.1169  0.6156
  323MOL0     H44508   2.505   9.069   6.076  0.1408 -0.6997 -0.1595
  323MOL0     H44509   2.288   9.061   6.059  0.0567 -0.0757  0.6574
  323MOL0     H44510   2.251   9.036   6.227 -1.7457 -2.0819 -0.8652
  323MOL0     H44511   2.287   9.265   6.275 -2.6646 -0.5503 -0.0829
  323MOL0     H44512   2.368   9.305   6.119 -0.1822  1.4409  0.7781
  323MOL0     H44513   2.154   9.266   6.001 -2.5568  3.3456 -2.3865
  323MOL0     H44514   2.074   9.259   6.158 -1.3821  1.0262 -1.3965
  323MOL0     H44515   2.048   9.474   6.061 -0.5912 -1.3869 -0.6436
  323MOL0     H44516   2.210   9.509   6.071 -0.9163 -0.9383 -0.7229
  323MOL0     H44517   2.062   9.416   6.319  2.1478 -0.3011 -0.0450
  323MOL0     H44518   2.217   9.486   6.323 -0.5853 -1.9921  2.4690
  323MOL0     H44519   1.941   9.623   6.252  0.8407 -0.3124  0.5553
  323MOL0     H44520   2.096   9.699   6.218  1.4650  0.6418  0.9930
  323MOL0     H44521   2.032   9.584   6.498  0.0192  0.9375  0.7082
  323MOL0     H44522   2.177   9.668   6.458  0.5401 -1.1434 -0.4727
  323MOL0     H44523   1.837   9.715   6.591  1.6158 -1.2848 -0.6030
  323MOL0     H44524   1.692  10.073   6.564 -2.8406 -0.3024  4.7486
  323MOL0     H44525   1.663   9.924   6.645 -1.1683 -2.2118 -0.5028
  323MOL0     H44526   1.630   9.981   6.346 -4.0813 -0.7781 -0.8675
  323MOL0     H44527   1.592   9.823   6.427  0.6150 -0.8724  0.2550
  323MOL0     H44528   1.432   9.943   6.576  3.2700  0.6593  1.1400
  323MOL0     H44529   1.450  10.093   6.507 -1.6397 -0.0344 -0.8329
  323MOL0     H44530   1.275  10.047   6.366 -0.6443 -0.7557 -3.7809
  323MOL0     H44531   1.393   9.975   6.275 -2.1782  1.7372 -1.0700
  323MOL0     H44532   1.262   9.908   6.139 -0.9925  1.2468 -1.9232
  323MOL0     H44533   1.166   9.936   5.933 -1.1913  0.6835  1.8663
  323MOL0     H44534   0.991   9.914   5.940 -0.7914 -0.3804  1.0017
  323MOL0     H44535   1.091   9.784   5.858  1.9056  4.1348 -3.6528
  323MOL0     H44536   0.702   9.428   6.010  0.9120  1.1333 -0.3777
  323MOL0     H44537   0.494   9.412   5.838 -0.3705  1.7992 -1.5761
  323MOL0     H44538   0.269   9.391   5.797  0.4957  0.8317 -1.4755
  323MOL0     H44539   0.224   9.438   5.956  1.7292 -0.6524 -0.0700
  323MOL0     H44540   0.047   9.584   5.850 -0.4980  1.2806 -3.4632
  323MOL0     H44541   0.094   9.521   5.699 -0.3201 -1.5732  0.5489
  323MOL0     H44542  -0.010   9.354   5.912 -1.0805  4.0688 -0.0670
  323MOL0     H44543   0.064   9.279   5.773 -0.7806  0.0121 -1.9801
  323MOL0     H44544  -0.092   9.372   5.620 -2.5773  1.8362 -0.7379
  323MOL0     H44545  -0.171   9.463   5.762  2.7304  1.6346  1.5002
  323MOL0     H44546  -0.298   9.273   5.685  1.3134 -0.9470 -2.5630
  323MOL0     H44547  -0.166   9.161   5.696  2.8181  2.4456 -0.6531
  323MOL0     H44548  -0.301   9.309   5.927  0.3129 -0.2970 -1.0683
  323MOL0     H44549  -0.166   9.203   5.943 -0.8099  1.3671  1.5001
  323MOL0     H44550  -0.331   9.049   5.998 -2.4657  0.4084  1.0570
  323MOL0     H44551  -0.317   9.024   5.823  0.5227  1.2544 -1.3994
  323MOL0     H44552  -0.538   9.193   5.948 -0.7458 -1.0234 -0.7062
  323MOL0     H44553  -0.554   9.023   5.934  0.9564  1.6245  3.1745
  323MOL0     H44554   0.358   9.787   5.985 -0.8565 -0.6514 -2.3753
  323MOL0     H44555   0.586   9.813   6.095  2.7109  0.0719 -2.1155
  323MOL0     H44556   0.942   9.578   6.303  0.7249  0.0728  1.6001
  323MOL0     H44557   1.125   9.645   6.443 -4.3433 -1.1531  0.6893
  323MOL0     H44558   2.718   9.035   6.112 -1.2547  0.7475 -0.4693
  323MOL0     H44559   2.955   9.075   6.122  0.4268 -0.4776  0.6976
  323MOL0     H44560   3.267   9.320   6.187 -0.0939  0.6036  1.0620
  323MOL0     H44561   3.499   9.388   6.124  2.8826 -0.0199  0.8666
  323MOL0     H44562   3.702   9.471   6.151 -0.1179 -1.7895 -1.1274
  323MOL0     H44563   3.765   9.475   6.316 -1.5590  3.5430 -1.2812
  323MOL0     H44564   3.891   9.375   6.057 -0.9135  0.8302 -0.5985
  323MOL0     H44565   3.953   9.349   6.226  0.7647  0.0889  0.0421
  323MOL0     H44566   3.889   9.615   6.076 -0.5386  0.5812 -0.5751
  323MOL0     H44567   3.966   9.617   6.232  0.1638  0.5265 -0.4443
  323MOL0     H44568   4.132   9.648   6.059  1.3250 -0.7914 -1.6602
  323MOL0     H44569   4.074   9.506   5.978  1.9119 -3.2484  0.6341
  323MOL0     H44570   4.368   9.401   6.268  1.3933  1.2054 -0.4764
  323MOL0     H44571   3.634   9.142   6.450  0.2654  1.0774  0.9513
  323MOL0     H44572   3.431   8.982   6.542 -2.4559  0.5355 -2.0591
  323MOL0     H44573   3.503   9.123   6.616 -0.2502 -3.0313  2.4450
  323MOL0     H44574   3.331   9.100   6.621  0.6473 -0.0228  0.8106
  324MOL0     O44575   9.136   3.945   8.193 -0.1686 -0.3877 -1.1959
  324MOL0     C44576   9.058   4.018   8.141  0.3572  0.1684 -0.4230
  324MOL0     O44577   8.953   3.974   8.074  0.2402 -0.3786  0.4508
  324MOL0     C44578   8.946   3.838   8.051 -0.1149 -0.4698  0.2736
  324MOL0     C44579   8.940   3.748   8.152 -0.3111  0.3145  0.8433
  324MOL0     C44580   8.922   3.615   8.120 -1.0503  0.7770  0.1665
  324MOL0     C44581   8.914   3.571   7.983 -0.6156  0.6705  0.5281
  324MOL0     O44582   8.909   3.443   7.949 -0.0465  0.5876  0.8019
  324MOL0     C44583   8.957   3.337   8.026 -0.1964  0.3627 -0.7721
  324MOL0     C44584   9.012   3.202   7.963  0.5565 -0.0879  1.2956
  324MOL0     C44585   9.017   3.094   8.071  0.1934 -0.2793  0.4029
  324MOL0     C44586   9.086   2.959   8.027 -0.3830  0.2081  0.1085
  324MOL0     C44587   9.230   2.972   7.963  0.3983  0.2371  0.0141
  324MOL0     C44588   9.328   3.050   8.047 -0.2812 -0.2557  0.1202
  324MOL0     C44589   9.440   3.109   7.958  0.3727  0.1889 -0.2116
  324MOL0     C44590   9.549   3.026   7.913 -0.0997  0.8455  0.1161
  324MOL0     N44591   9.655   3.092   7.838  0.0301 -0.1666 -1.1594
  324MOL0     C44592   9.633   3.171   7.723  0.2424  0.2824  0.5772
  324MOL0     C44593   9.751   3.223   7.693 -0.5234  0.0533 -0.2384
  324MOL0     C44594   9.795   3.304   7.573 -0.2321 -0.2206 -0.0704
  324MOL0     C44595   9.940   3.271   7.523  0.2440 -0.5244  1.0432
  324MOL0     C44596   9.939   3.125   7.478 -0.1440 -0.6437  0.5052
  324MOL0     C44597  10.091   3.088   7.447 -0.2821  0.0406  0.5178
  324MOL0     O44598  10.136   3.200   7.372 -0.0878 -0.0437  0.3951
  324MOL0     C44599  10.268   3.188   7.342  0.1879  0.1035 -0.4993
  324MOL0     C44600  10.320   3.293   7.271 -1.0534 -0.1710 -0.0784
  324MOL0     C44601  10.452   3.294   7.230  0.3137 -0.0668 -0.0239
  324MOL0     C44602  10.506   3.415   7.149  0.3219  0.0370  0.0898
  324MOL0     C44603  10.543   3.176   7.252  0.2813 -0.0700 -1.5241
  324MOL0     C44604  10.690   3.165   7.203  0.3066 -0.1047 -0.5628
  324MOL0     O44605  10.733   3.039   7.176  0.1186  0.1034  0.0852
  324MOL0     C44606  10.858   3.037   7.135  0.6055  0.4957 -0.1959
  324MOL0     C44607  10.981   3.067   7.201 -0.4296  1.2025 -0.4281
  324MOL0     C44608  11.107   3.046   7.132 -0.6222  0.3556 -0.1286
  324MOL0     C44609  11.118   2.995   7.001 -0.2993  0.7079  0.4732
  324MOL0     O44610  11.242   2.973   6.946  0.1404 -0.0895  0.6737
  324MOL0     C44611  11.346   2.923   7.033  0.0474 -0.3079  0.3348
  324MOL0     C44612  11.442   3.040   7.056 -0.9079 -0.2079 -0.3550
  324MOL0     C44613  11.572   2.990   7.132  0.7108 -0.0673 -0.6022
  324MOL0     C44614  11.682   3.094   7.158  0.2978  0.8864 -0.5373
  324MOL0     C44615  11.766   3.037   7.274 -0.0080  1.0140 -0.5637
  324MOL0     C44616  11.868   3.140   7.323  0.1328  0.5096  0.4281
  324MOL0     C44617  11.988   3.085   7.400  0.2492  0.0611  0.0762
  324MOL0     C44618  11.947   2.990   7.513  0.9120 -0.8947  0.2925
  324MOL0    Cl44619  11.880   3.090   7.636  0.4007  0.4877  0.1788
  324MOL0     C44620  11.000   2.957   6.942  0.3562  0.1238  0.1242
  324MOL0     C44621  10.876   2.981   7.009  0.7660  1.0129  0.1012
  324MOL0     O44622  10.756   3.271   7.197  0.5550  0.3963 -0.0493
  324MOL0     C44623  10.484   3.071   7.325  0.8339 -0.4328  0.8656
  324MOL0     C44624  10.355   3.079   7.372  0.9610  0.3968  1.2778
  324MOL0     N44625   9.832   3.203   7.809  0.7646 -0.0070 -0.2420
  324MOL0     N44626   9.779   3.117   7.884  0.3982 -0.3014  0.2075
  324MOL0     C44627   8.924   3.665   7.878  0.2988  0.4977  0.8694
  324MOL0     C44628   8.940   3.800   7.914 -0.6184  0.5343 -0.6275
  324MOL0     C44629   9.086   4.166   8.148 -0.4731  0.0410  0.5422
  324MOL0     C44630   8.985   4.251   8.123 -0.0039 -0.2182  0.8978
  324MOL0     C44631   8.997   4.390   8.122 -0.2394 -0.5133  0.3262
  324MOL0     C44632   9.121   4.443   8.157 -0.3543 -0.7123 -0.9440
  324MOL0     O44633   9.126   4.582   8.170 -0.0041 -0.5852 -0.4754
  324MOL0     C44634   9.248   4.653   8.191 -0.0718  0.0085  0.4922
  324MOL0     C44635   9.226   4.801   8.226  0.5460 -0.4328  0.3970
  324MOL0     C44636   9.197   4.874   8.097 -0.5613 -0.3003 -0.0970
  324MOL0     C44637   9.206   5.029   8.109 -0.2774 -0.0913 -0.6792
  324MOL0     C44638   9.111   5.083   8.203  0.5978 -0.6811 -0.5362
  324MOL0     C44639   9.017   5.126   8.271  0.0809 -0.6032  0.2189
  324MOL0     C44640   9.234   4.363   8.184 -0.2162 -0.0762 -0.0992
  324MOL0     C44641   9.220   4.224   8.173  0.1886 -0.0480  0.1419
  324MOL0     C44642   9.345   4.148   8.201 -0.5979  0.5882  0.0981
  324MOL0     H44643   8.958   3.784   8.253  3.5624  0.2129  0.3387
  324MOL0     H44644   8.920   3.556   8.211 -3.1769 -0.3509 -0.5262
  324MOL0     H44645   8.864   3.317   8.079  0.0688  1.1645  0.0267
  324MOL0     H44646   9.030   3.370   8.100  0.1786  0.8474 -1.3438
  324MOL0     H44647   8.942   3.169   7.885 -0.3332  2.1179  1.0716
  324MOL0     H44648   9.112   3.226   7.924  0.0504 -0.5554 -0.3968
  324MOL0     H44649   9.064   3.126   8.164  1.5921 -0.9125 -0.0610
  324MOL0     H44650   8.911   3.083   8.098 -0.2139  2.6575  0.3229
  324MOL0     H44651   9.082   2.897   8.117 -2.2137 -1.8384 -1.3002
  324MOL0     H44652   9.016   2.922   7.952  0.3808  2.9857 -2.1429
  324MOL0     H44653   9.217   3.019   7.866 -3.3522  1.5078  0.9652
  324MOL0     H44654   9.266   2.872   7.934 -1.2153  0.0745 -1.6157
  324MOL0     H44655   9.275   3.131   8.097  0.1993 -0.4504  0.9614
  324MOL0     H44656   9.374   2.993   8.129 -4.2904 -2.4947  1.0622
  324MOL0     H44657   9.477   3.185   8.027  2.3850 -1.3696  0.5573
  324MOL0     H44658   9.401   3.159   7.869  0.4284  2.1448  0.8074
  324MOL0     H44659   9.600   2.978   7.997  2.3300  1.0738 -1.1245
  324MOL0     H44660   9.513   2.945   7.849  1.8090  0.6935 -0.8525
  324MOL0     H44661   9.543   3.190   7.666  1.2707  2.9520 -0.3073
  324MOL0     H44662   9.781   3.413   7.579  1.7002  0.0214  0.8065
  324MOL0     H44663   9.724   3.265   7.500 -0.7856 -3.3792  1.9583
  324MOL0     H44664   9.961   3.342   7.442  0.6160 -0.8866  0.8204
  324MOL0     H44665  10.008   3.294   7.606  0.1075 -1.5974  1.4663
  324MOL0     H44666   9.898   3.059   7.554  0.8046 -0.5155  1.1506
  324MOL0     H44667   9.876   3.119   7.389  0.1225  3.4670 -0.1785
  324MOL0     H44668  10.149   3.092   7.539  1.2588  2.9122 -0.4623
  324MOL0     H44669  10.098   2.989   7.400 -2.8212  0.1667 -0.2514
  324MOL0     H44670  10.264   3.379   7.236 -1.0718 -0.2846 -0.3347
  324MOL0     H44671  10.591   3.464   7.197  1.0316  0.6971 -1.7654
  324MOL0     H44672  10.425   3.485   7.125  0.4763 -0.3656 -1.7227
  324MOL0     H44673  10.532   3.370   7.053 -3.0704 -1.5717 -0.2267
  324MOL0     H44674  10.986   3.115   7.299 -0.8216 -0.5715  0.4928
  324MOL0     H44675  11.194   3.081   7.186 -0.1859  0.6558 -1.0118
  324MOL0     H44676  11.307   2.868   7.119  0.5692  0.2578  0.9451
  324MOL0     H44677  11.402   2.850   6.973 -0.6680 -2.4971  2.1974
  324MOL0     H44678  11.467   3.077   6.955 -0.1543 -0.1472 -0.1534
  324MOL0     H44679  11.394   3.126   7.104 -0.7261 -0.7534  0.8342
  324MOL0     H44680  11.613   2.909   7.070  0.9518  0.9694 -1.8296
  324MOL0     H44681  11.536   2.949   7.227  1.2633  0.2546 -0.2479
  324MOL0     H44682  11.632   3.183   7.198 -0.2603  0.3640 -0.0650
  324MOL0     H44683  11.737   3.121   7.067 -1.8594 -1.8702 -2.8350
  324MOL0     H44684  11.710   3.020   7.366 -0.5539 -0.9373 -1.2048
  324MOL0     H44685  11.823   2.948   7.245 -0.6708 -0.4935  2.3526
  324MOL0     H44686  11.811   3.214   7.379 -1.6587  0.9479 -1.8037
  324MOL0     H44687  11.908   3.178   7.228 -2.1443 -2.0509 -1.7194
  324MOL0     H44688  12.049   3.171   7.430  0.2620  0.5070 -1.2056
  324MOL0     H44689  12.050   3.035   7.324 -2.1699 -3.1635  0.0222
  324MOL0     H44690  12.031   2.932   7.551  0.1483 -1.4804  1.1033
  324MOL0     H44691  11.874   2.920   7.473 -0.2236  1.3161 -1.7642
  324MOL0     H44692  11.015   2.910   6.845  3.3519  3.1367 -1.0753
  324MOL0     H44693  10.793   2.941   6.952  1.0310 -1.2964  1.2446
  324MOL0     H44694  10.534   2.981   7.361 -2.3376 -1.6565  2.6277
  324MOL0     H44695  10.310   2.996   7.427 -2.1581  1.9203  1.2239
  324MOL0     H44696   8.934   3.624   7.778  0.5458 -3.7085  2.4405
  324MOL0     H44697   8.941   3.883   7.844  0.2866  1.4044  0.3832
  324MOL0     H44698   8.887   4.217   8.090 -0.5656  2.7745 -0.9663
  324MOL0     H44699   8.904   4.442   8.103 -0.4434 -1.3315 -1.0886
  324MOL0     H44700   9.295   4.606   8.278  1.4245 -3.6589 -2.0476
  324MOL0     H44701   9.322   4.624   8.115 -0.3503 -0.4760  0.4000
  324MOL0     H44702   9.305   4.850   8.283 -1.7732  0.6994  2.8684
  324MOL0     H44703   9.141   4.818   8.293  2.7631  1.3342  2.9917
  324MOL0     H44704   9.270   4.853   8.019 -2.2229  0.4625 -1.9520
  324MOL0     H44705   9.098   4.841   8.064 -0.6232 -3.1624  2.5069
  324MOL0     H44706   9.183   5.071   8.011  0.8718 -1.8882 -1.8012
  324MOL0     H44707   9.310   5.056   8.132  0.1610 -3.1974  1.6725
  324MOL0     H44708   8.935   5.155   8.333  0.7697  1.5713  0.2078
  324MOL0     H44709   9.325   4.409   8.222 -0.4498 -1.1789  1.9692
  324MOL0     H44710   9.434   4.204   8.172  1.3623 -2.4724 -0.1913
  324MOL0     H44711   9.337   4.116   8.306  1.3884 -2.0885 -0.4605
  324MOL0     H44712   9.348   4.075   8.121  4.0578  0.2080  0.3302
  325MOL0     O44713  10.262   7.202   2.326  0.1553  0.1867  0.6527
  325MOL0     C44714  10.248   7.168   2.207  0.3139 -0.2255 -0.3321
  325MOL0     O44715  10.349   7.141   2.120  0.2529  0.2308 -0.5026
  325MOL0     C44716  10.471   7.151   2.177  0.0656 -0.0062 -0.1265
  325MOL0     C44717  10.511   7.046   2.247 -0.2276 -0.4254  0.0804
  325MOL0     C44718  10.638   7.059   2.314 -0.0222  0.3122  0.0691
  325MOL0     C44719  10.709   7.182   2.312 -0.3677 -0.9814 -0.4007
  325MOL0     O44720  10.839   7.188   2.347 -0.3195 -0.5293 -0.6218
  325MOL0     C44721  10.927   7.287   2.293 -0.5230 -0.1034 -0.3809
  325MOL0     C44722  11.067   7.252   2.359 -0.1254 -0.6190 -0.3947
  325MOL0     C44723  11.176   7.322   2.283  1.0329 -0.1844 -0.1130
  325MOL0     C44724  11.312   7.310   2.349 -0.4205 -0.2456  0.4406
  325MOL0     C44725  11.426   7.381   2.273  0.4781  0.3816  0.3549
  325MOL0     C44726  11.414   7.533   2.229  0.1175  0.2529 -0.2650
  325MOL0     C44727  11.530   7.580   2.133  0.1883  0.6520  0.7743
  325MOL0     C44728  11.517   7.727   2.101  0.5539 -0.6269  0.3197
  325MOL0     N44729  11.384   7.779   2.067  0.5450  0.3637 -0.6981
  325MOL0     C44730  11.298   7.848   2.150  1.1687  0.5000  0.6328
  325MOL0     C44731  11.177   7.832   2.087  0.9151 -0.0138 -0.4329
  325MOL0     C44732  11.040   7.865   2.139 -0.1890 -0.3526  0.9696
  325MOL0     C44733  10.947   7.744   2.112 -0.8172  0.6100 -0.1415
  325MOL0     C44734  10.815   7.754   2.191 -0.5682  0.1691  0.2389
  325MOL0     C44735  10.720   7.651   2.147  0.2843 -0.4211  0.3258
  325MOL0     O44736  10.617   7.615   2.243 -0.4605 -0.2643 -0.2592
  325MOL0     C44737  10.516   7.702   2.272  0.5184 -0.1845 -0.8436
  325MOL0     C44738  10.495   7.823   2.217  0.1816 -0.6455  0.1775
  325MOL0     C44739  10.386   7.904   2.241 -0.0378 -0.2077  0.5422
  325MOL0     C44740  10.387   8.046   2.182 -0.0535  0.4999 -0.6913
  325MOL0     C44741  10.272   7.849   2.314 -0.2559  0.5844 -0.1768
  325MOL0     C44742  10.135   7.907   2.336 -0.0559  0.5144  0.4405
  325MOL0     O44743  10.052   7.833   2.411  0.0614  0.4632  0.0913
  325MOL0     C44744   9.922   7.867   2.411 -0.3357 -0.7088 -0.9009
  325MOL0     C44745   9.875   7.992   2.463 -0.8398  0.0026  0.3330
  325MOL0     C44746   9.741   8.022   2.478  1.0082 -0.3215 -0.1862
  325MOL0     C44747   9.645   7.923   2.451 -0.5495 -0.4848  0.1585
  325MOL0     O44748   9.515   7.964   2.468  0.3633 -0.1350 -0.7524
  325MOL0     C44749   9.421   7.851   2.465 -0.6466 -0.7846 -0.3089
  325MOL0     C44750   9.275   7.896   2.497 -0.0686  0.6804 -0.2050
  325MOL0     C44751   9.180   7.780   2.499 -0.1991  0.3451  0.2842
  325MOL0     C44752   9.040   7.803   2.575  0.2548 -0.1304 -0.2058
  325MOL0     C44753   8.958   7.673   2.557 -0.6323  0.8323  0.4943
  325MOL0     C44754   8.855   7.629   2.665  0.1182  0.8018  0.4529
  325MOL0     C44755   8.760   7.744   2.722 -0.1998 -0.5222  0.4706
  325MOL0     C44756   8.702   7.829   2.599  0.1812  0.6210 -1.0279
  325MOL0    Cl44757   8.587   7.721   2.510 -0.2221 -0.4085 -0.0998
  325MOL0     C44758   9.688   7.799   2.411 -0.2071  1.0763 -0.2037
  325MOL0     C44759   9.824   7.773   2.391 -0.3993  0.3181  0.5549
  325MOL0     O44760  10.098   8.002   2.275  0.4810 -0.2088 -0.1857
  325MOL0     C44761  10.289   7.719   2.370  0.1245  0.0863 -0.7024
  325MOL0     C44762  10.416   7.650   2.355 -0.3613 -0.1455 -0.7448
  325MOL0     N44763  11.205   7.780   1.966  0.4989 -0.3463  0.3029
  325MOL0     N44764  11.324   7.754   1.952  0.0487  0.2468 -0.0730
  325MOL0     C44765  10.648   7.292   2.260  0.7283 -0.2511  0.5717
  325MOL0     C44766  10.529   7.278   2.183  0.1538 -0.5223  0.4429
  325MOL0     C44767  10.110   7.121   2.160  0.0868 -0.3554  0.3789
  325MOL0     C44768  10.098   7.019   2.067  0.5739 -0.1953  0.1776
  325MOL0     C44769   9.980   6.969   2.023 -0.0909  0.0212 -0.6479
  325MOL0     C44770   9.854   7.017   2.060 -0.4990 -0.3992  0.2848
  325MOL0     O44771   9.736   6.976   2.008  0.5247 -0.4805 -0.0148
  325MOL0     C44772   9.749   6.861   1.916 -0.3627  0.2488 -0.4049
  325MOL0     C44773   9.616   6.826   1.863  1.0050  0.4122 -0.5080
  325MOL0     C44774   9.557   6.942   1.779  0.4979 -0.9953  0.4557
  325MOL0     C44775   9.411   6.915   1.726 -0.1638  0.5497 -0.9080
  325MOL0     C44776   9.416   6.820   1.618 -0.1517  0.2742  0.1870
  325MOL0     C44777   9.431   6.750   1.514  0.2212  0.5238  0.5500
  325MOL0     C44778   9.864   7.126   2.151  0.8441  0.5571 -0.3982
  325MOL0     C44779   9.986   7.190   2.185 -0.2908  0.4135 -0.3230
  325MOL0     C44780   9.983   7.314   2.269 -0.0088  0.0606 -0.7728
  325MOL0     H44781  10.451   6.959   2.224 -0.9228  0.4484 -1.5948
  325MOL0     H44782  10.677   6.965   2.351 -1.5241 -0.9968 -1.4655
  325MOL0     H44783  10.890   7.384   2.326  0.2814  0.3126 -0.6784
  325MOL0     H44784  10.940   7.287   2.184  0.2957  2.4393 -0.3495
  325MOL0     H44785  11.069   7.280   2.465 -1.6341 -0.5736 -0.3677
  325MOL0     H44786  11.094   7.147   2.346  0.6946 -0.6694  1.3463
  325MOL0     H44787  11.172   7.272   2.185 -0.5222 -1.3860  0.5135
  325MOL0     H44788  11.137   7.423   2.267  2.9763  0.8868  1.5590
  325MOL0     H44789  11.306   7.360   2.446  2.9004  4.0865 -1.2609
  325MOL0     H44790  11.335   7.206   2.370  0.7537  0.1071  0.9540
  325MOL0     H44791  11.452   7.330   2.179 -0.2423  2.4277 -1.0323
  325MOL0     H44792  11.515   7.375   2.335  1.3383  1.2602 -0.7404
  325MOL0     H44793  11.327   7.541   2.163 -0.2691  0.3336  0.2503
  325MOL0     H44794  11.411   7.595   2.318 -0.0314 -3.0402  2.2017
  325MOL0     H44795  11.525   7.519   2.042  0.6299  1.3407  0.2792
  325MOL0     H44796  11.625   7.559   2.184 -0.1352 -3.8849 -0.0606
  325MOL0     H44797  11.546   7.778   2.194 -1.2977  1.4041 -0.1433
  325MOL0     H44798  11.581   7.756   2.018 -2.5038  0.9668 -1.6758
  325MOL0     H44799  11.305   7.883   2.252 -1.7533 -1.0932  1.5155
  325MOL0     H44800  10.998   7.957   2.096  1.6743  0.0678 -0.0769
  325MOL0     H44801  11.048   7.879   2.247 -2.9630 -1.9742  1.4835
  325MOL0     H44802  10.916   7.731   2.008 -0.3177 -1.7516 -0.0656
  325MOL0     H44803  10.998   7.655   2.151  0.8425  0.8439 -1.6747
  325MOL0     H44804  10.837   7.727   2.295 -2.1956  0.4345  0.6652
  325MOL0     H44805  10.767   7.851   2.176  0.4655  0.3991 -2.0223
  325MOL0     H44806  10.670   7.687   2.056 -0.7327  0.4614  1.2030
  325MOL0     H44807  10.776   7.559   2.131 -0.3645 -0.7724  0.0116
  325MOL0     H44808  10.567   7.867   2.149 -1.2555  2.3269  0.4382
  325MOL0     H44809  10.478   8.092   2.221 -0.4533 -0.3523  1.4064
  325MOL0     H44810  10.298   8.103   2.211 -2.1808 -2.9175  0.0781
  325MOL0     H44811  10.378   8.050   2.073  0.1549 -0.8739 -0.7682
  325MOL0     H44812   9.946   8.070   2.489 -1.0010  0.4430 -0.4968
  325MOL0     H44813   9.703   8.116   2.519 -0.0873 -1.6902  2.1498
  325MOL0     H44814   9.431   7.807   2.365 -4.2628  2.0514 -2.1955
  325MOL0     H44815   9.446   7.780   2.544 -2.4114 -0.0783  0.9432
  325MOL0     H44816   9.276   7.941   2.596 -2.0168 -1.3186  0.8191
  325MOL0     H44817   9.233   7.960   2.419 -1.0511 -0.9449 -1.0730
  325MOL0     H44818   9.225   7.691   2.545 -0.1815  0.0607 -0.2681
  325MOL0     H44819   9.155   7.741   2.400 -1.9504 -1.3013  1.3154
  325MOL0     H44820   8.990   7.893   2.538 -0.6283 -1.5851 -2.8047
  325MOL0     H44821   9.065   7.817   2.680  0.4247  1.9391 -0.4621
  325MOL0     H44822   8.907   7.662   2.461 -1.6357  0.3505  1.0625
  325MOL0     H44823   9.033   7.594   2.555  0.6089  1.9098  2.1838
  325MOL0     H44824   8.912   7.590   2.750  0.2714  2.1351  0.9953
  325MOL0     H44825   8.791   7.548   2.628 -1.6908  2.5892 -0.5494
  325MOL0     H44826   8.824   7.805   2.787  0.2047  1.0820 -1.3207
  325MOL0     H44827   8.678   7.692   2.772 -0.2877 -1.7827 -0.9348
  325MOL0     H44828   8.775   7.862   2.525  1.1647  2.2035  0.5670
  325MOL0     H44829   8.649   7.918   2.633 -0.4146  0.2697 -1.0210
  325MOL0     H44830   9.621   7.715   2.401  2.0355 -0.7189 -1.0437
  325MOL0     H44831   9.851   7.675   2.351 -0.3761  0.6533 -0.2644
  325MOL0     H44832  10.212   7.667   2.426  0.3225  0.5003 -0.0339
  325MOL0     H44833  10.434   7.554   2.404  2.5278  0.9169  0.4927
  325MOL0     H44834  10.693   7.391   2.262 -3.0099  1.8132 -2.6297
  325MOL0     H44835  10.499   7.371   2.134  1.3671 -1.9644 -3.3584
  325MOL0     H44836  10.185   6.965   2.032 -0.1845 -0.1032 -1.9890
  325MOL0     H44837   9.997   6.884   1.958  1.3735 -0.5858  0.4637
  325MOL0     H44838   9.824   6.867   1.837  3.5099  1.4206  2.9729
  325MOL0     H44839   9.776   6.777   1.981 -4.6783 -0.4904  0.7386
  325MOL0     H44840   9.548   6.810   1.947  1.2328 -0.2340 -0.4426
  325MOL0     H44841   9.613   6.731   1.808 -0.5266 -2.3275  3.7990
  325MOL0     H44842   9.562   7.030   1.844  0.5884 -1.1958  0.7261
  325MOL0     H44843   9.622   6.959   1.693 -1.2731 -1.8166 -1.0930
  325MOL0     H44844   9.380   7.011   1.684  0.4222  1.0359 -0.2641
  325MOL0     H44845   9.340   6.899   1.808 -1.4049 -1.2998 -2.2815
  325MOL0     H44846   9.462   6.685   1.435 -0.5831  2.1692 -1.1988
  325MOL0     H44847   9.779   7.192   2.166 -0.7631 -1.1371 -1.5025
  325MOL0     H44848   9.902   7.377   2.231 -0.7752  0.2072  0.9955
  325MOL0     H44849   9.951   7.293   2.371 -0.8133 -0.2988 -1.0965
  325MOL0     H44850  10.081   7.362   2.280 -0.3319  0.4040  0.8238
  326MOL0     O44851   3.477   7.167   7.399  0.5995  0.1759 -0.8162
  326MOL0     C44852   3.468   7.287   7.393  0.0983  0.7917  0.3920
  326MOL0     O44853   3.562   7.369   7.441 -0.1338 -0.7300  0.4536
  326MOL0     C44854   3.675   7.319   7.506  0.3533 -1.2656 -0.6160
  326MOL0     C44855   3.770   7.257   7.424  0.5785  0.2493  0.7273
  326MOL0     C44856   3.887   7.219   7.488  0.8214 -0.1518  0.1765
  326MOL0     C44857   3.899   7.225   7.628 -0.4455  0.0091 -0.1257
  326MOL0     O44858   4.008   7.154   7.676  0.8099  0.2774 -0.1739
  326MOL0     C44859   4.024   7.137   7.821  0.5578  0.2260  0.1679
  326MOL0     C44860   4.109   7.020   7.847 -0.5571  0.6186  0.0872
  326MOL0     C44861   4.257   7.057   7.862 -1.0453 -0.5332  0.1359
  326MOL0     C44862   4.314   7.108   7.731  0.8414 -0.2298 -0.3713
  326MOL0     C44863   4.464   7.115   7.747  0.6338 -0.0268  0.6005
  326MOL0     C44864   4.521   7.148   7.601 -0.6808 -0.2386 -0.5951
  326MOL0     C44865   4.659   7.209   7.611  0.2484  0.3752 -0.2632
  326MOL0     C44866   4.727   7.195   7.477 -0.1200 -0.6384  0.3114
  326MOL0     N44867   4.862   7.265   7.484 -0.9508  0.9739  0.1271
  326MOL0     C44868   4.894   7.394   7.455 -0.7503 -0.1415 -0.2692
  326MOL0     C44869   5.026   7.408   7.457 -0.4490  0.1610 -0.0531
  326MOL0     C44870   5.112   7.516   7.411 -0.5284  0.0685  0.5771
  326MOL0     C44871   5.250   7.518   7.463 -0.3487  1.2514 -0.1114
  326MOL0     C44872   5.359   7.463   7.361 -0.2531 -0.1903  1.4872
  326MOL0     C44873   5.499   7.442   7.421  0.1954  0.2564 -0.0526
  326MOL0     O44874   5.565   7.565   7.450  0.5098  0.1399 -0.5588
  326MOL0     C44875   5.674   7.566   7.534  0.3572  0.5279  0.2600
  326MOL0     C44876   5.755   7.456   7.570 -0.5733  0.2424 -0.2465
  326MOL0     C44877   5.867   7.465   7.650 -0.1542  0.0884  0.0464
  326MOL0     C44878   5.951   7.352   7.656  0.0831 -0.0023  0.5660
  326MOL0     C44879   5.906   7.588   7.713  0.0493 -1.4428  0.3080
  326MOL0     C44880   6.035   7.614   7.784 -1.5182  0.1102  0.0499
  326MOL0     O44881   6.094   7.500   7.838  0.4384 -0.2686 -0.0697
  326MOL0     C44882   6.221   7.513   7.887  0.9600  0.0128 -0.1235
  326MOL0     C44883   6.305   7.414   7.847 -0.6041 -0.0362 -0.8327
  326MOL0     C44884   6.432   7.396   7.905 -0.5876  0.2063 -0.1168
  326MOL0     C44885   6.488   7.488   7.990  0.8907 -0.4763  0.0961
  326MOL0     O44886   6.622   7.487   8.021  0.0995 -0.6018 -0.8407
  326MOL0     C44887   6.669   7.573   8.123  0.3095  0.2039  0.4023
  326MOL0     C44888   6.725   7.704   8.075 -1.0317  0.3834 -0.0037
  326MOL0     C44889   6.812   7.782   8.186  1.1873 -0.5070  0.9291
  326MOL0     C44890   6.868   7.903   8.116 -0.4304  0.4936 -0.4989
  326MOL0     C44891   6.914   8.011   8.219  0.2878  0.6974  0.8230
  326MOL0     C44892   7.056   7.966   8.260 -0.5100  0.3541 -0.3226
  326MOL0     C44893   7.073   7.965   8.405 -0.0098  0.4595 -0.3186
  326MOL0     C44894   7.211   7.941   8.461 -0.3906  0.0842 -0.1761
  326MOL0    Cl44895   7.304   8.085   8.418 -0.0975  0.0732 -0.3372
  326MOL0     C44896   6.402   7.595   8.022 -0.9174  0.2659 -1.3237
  326MOL0     C44897   6.270   7.607   7.981 -0.0666 -0.2535  0.0960
  326MOL0     O44898   6.089   7.729   7.774 -0.0313 -0.0327  0.1274
  326MOL0     C44899   5.818   7.697   7.678 -0.5631 -0.1616  0.6627
  326MOL0     C44900   5.711   7.687   7.592 -0.7322  0.4615  0.6471
  326MOL0     N44901   5.079   7.288   7.507  0.9283 -0.7851 -0.3294
  326MOL0     N44902   4.984   7.200   7.512  0.6161 -0.4335  0.2014
  326MOL0     C44903   3.806   7.291   7.706 -0.4754 -0.5947 -0.5271
  326MOL0     C44904   3.691   7.343   7.644  0.0770 -0.2863  0.3685
  326MOL0     C44905   3.360   7.348   7.308 -0.3555  1.0639 -0.0823
  326MOL0     C44906   3.369   7.484   7.274 -0.3401  0.1890 -1.0101
  326MOL0     C44907   3.271   7.543   7.200 -0.9390  0.7000  0.9382
  326MOL0     C44908   3.163   7.473   7.161 -0.4802  0.4707  0.2305
  326MOL0     O44909   3.058   7.525   7.088 -0.0041  0.2080 -0.5030
  326MOL0     C44910   3.037   7.661   7.066 -0.4434 -0.1645  0.0553
  326MOL0     C44911   3.135   7.704   6.954 -0.0986 -0.4893  0.5481
  326MOL0     C44912   3.093   7.851   6.907 -0.3222  0.1289  0.1617
  326MOL0     C44913   3.209   7.922   6.827  0.1815  0.5968 -0.1659
  326MOL0     C44914   3.246   7.855   6.703  0.2041  0.2504  0.2042
  326MOL0     C44915   3.256   7.800   6.595 -0.0375 -0.0453  0.0220
  326MOL0     C44916   3.156   7.338   7.177 -0.2069  0.4091  0.1219
  326MOL0     C44917   3.248   7.271   7.257  0.0372 -0.0903  0.1101
  326MOL0     C44918   3.225   7.128   7.276  0.3458  0.8940 -0.4390
  326MOL0     H44919   3.766   7.243   7.317 -0.2633  3.7601  0.1792
  326MOL0     H44920   3.956   7.174   7.418 -0.4808  1.7624 -2.5495
  326MOL0     H44921   3.923   7.130   7.863  0.1857  0.9737 -0.5768
  326MOL0     H44922   4.051   7.231   7.870 -3.4768  1.7020 -0.0680
  326MOL0     H44923   4.080   6.979   7.945 -2.0192  0.3434 -0.4255
  326MOL0     H44924   4.085   6.943   7.773  2.1802  0.2828 -0.5524
  326MOL0     H44925   4.263   7.128   7.945 -0.1997  0.2098 -0.5291
  326MOL0     H44926   4.311   6.965   7.884 -1.7145 -0.5520  1.7668
  326MOL0     H44927   4.286   7.037   7.653  1.0056 -2.8230  1.7771
  326MOL0     H44928   4.264   7.199   7.697 -0.9835 -0.6291  1.0856
  326MOL0     H44929   4.519   7.027   7.781  1.5823  0.4715  0.4009
  326MOL0     H44930   4.494   7.189   7.822  0.8898 -1.8580  2.3681
  326MOL0     H44931   4.521   7.054   7.545  0.1080  0.8139 -2.4648
  326MOL0     H44932   4.457   7.218   7.546  0.6742  3.0993  1.7220
  326MOL0     H44933   4.711   7.163   7.695 -2.3431  1.3662  2.0555
  326MOL0     H44934   4.645   7.315   7.635  2.0658  1.2759 -2.7709
  326MOL0     H44935   4.741   7.087   7.469 -0.7293 -0.8686  2.0194
  326MOL0     H44936   4.665   7.232   7.394 -1.0960 -0.1156  1.2413
  326MOL0     H44937   4.824   7.468   7.417  0.6227  3.0825  2.9282
  326MOL0     H44938   5.057   7.608   7.432  2.1882  1.4834  1.8975
  326MOL0     H44939   5.137   7.500   7.305  0.2985 -1.3735  0.9520
  326MOL0     H44940   5.278   7.621   7.489 -1.3551  1.1217  1.6683
  326MOL0     H44941   5.261   7.461   7.556  1.3157  0.7188 -0.5928
  326MOL0     H44942   5.342   7.361   7.324  0.8555  0.2743 -0.3881
  326MOL0     H44943   5.367   7.532   7.277 -1.6934 -0.1826  1.3296
  326MOL0     H44944   5.490   7.405   7.523  1.4556  1.0583  0.3665
  326MOL0     H44945   5.566   7.385   7.356 -1.0775 -2.4542  0.8599
  326MOL0     H44946   5.743   7.367   7.508  1.8446 -0.8979  0.7810
  326MOL0     H44947   6.048   7.383   7.616  0.7751 -1.0374  1.3883
  326MOL0     H44948   5.908   7.268   7.601 -2.4191  1.5891 -0.0831
  326MOL0     H44949   5.954   7.337   7.764  1.1672  2.6136  0.9799
  326MOL0     H44950   6.270   7.349   7.767  2.0524 -1.6521 -0.7779
  326MOL0     H44951   6.496   7.313   7.877  1.5699  1.6403  0.3332
  326MOL0     H44952   6.594   7.580   8.203  0.4494 -1.6142  0.7288
  326MOL0     H44953   6.758   7.524   8.165 -0.1740  1.3078  2.9556
  326MOL0     H44954   6.785   7.680   7.987  0.1691  2.3339  0.2171
  326MOL0     H44955   6.636   7.764   8.055 -0.8124  1.4071  1.8231
  326MOL0     H44956   6.884   7.716   8.237  0.2823  0.1700  3.2403
  326MOL0     H44957   6.746   7.820   8.265  0.7122  1.3274 -0.2945
  326MOL0     H44958   6.788   7.957   8.064 -1.0750  0.6677  0.6419
  326MOL0     H44959   6.941   7.870   8.042  2.5976  0.1713  2.4382
  326MOL0     H44960   6.919   8.106   8.165 -0.6636  0.7319  0.7752
  326MOL0     H44961   6.840   8.026   8.298  0.7932  2.4175  1.0114
  326MOL0     H44962   7.127   8.038   8.218  1.7291 -0.9373  1.0490
  326MOL0     H44963   7.075   7.865   8.221  0.3632  0.2662  0.3085
  326MOL0     H44964   7.000   7.893   8.444 -0.7505 -0.3376 -2.9803
  326MOL0     H44965   7.047   8.068   8.428  3.4118  1.2574  0.5935
  326MOL0     H44966   7.259   7.849   8.425 -1.5863 -0.0045 -1.6620
  326MOL0     H44967   7.194   7.922   8.567  0.7362 -1.3633 -0.2192
  326MOL0     H44968   6.426   7.673   8.094  0.2362 -0.2235 -1.1501
  326MOL0     H44969   6.211   7.694   8.011 -1.0114 -0.0161 -2.1816
  326MOL0     H44970   5.835   7.797   7.716 -0.2124  0.6300 -1.4417
  326MOL0     H44971   5.667   7.777   7.551 -0.4679  0.7226  0.9373
  326MOL0     H44972   3.823   7.299   7.813 -0.1358 -0.1324 -0.6116
  326MOL0     H44973   3.624   7.394   7.713 -1.7280  0.2489 -1.6579
  326MOL0     H44974   3.443   7.552   7.314 -1.4243  0.3355  0.8787
  326MOL0     H44975   3.287   7.648   7.176  2.7969  0.4198  1.6260
  326MOL0     H44976   2.935   7.677   7.029  0.5226  0.6146 -2.4778
  326MOL0     H44977   3.055   7.719   7.157 -1.0353  1.3320 -0.7473
  326MOL0     H44978   3.143   7.628   6.876 -2.9728 -0.1084 -0.2387
  326MOL0     H44979   3.229   7.725   7.006  0.3364  3.1376 -1.3318
  326MOL0     H44980   3.009   7.848   6.836  0.3731 -0.8973 -0.6560
  326MOL0     H44981   3.069   7.903   7.000  1.9716  0.1333  0.8251
  326MOL0     H44982   3.298   7.940   6.888  0.4145  0.1136 -0.3628
  326MOL0     H44983   3.179   8.021   6.792  0.4797  1.1047  0.9551
  326MOL0     H44984   3.279   7.755   6.500 -0.0492  3.3238 -1.7347
  326MOL0     H44985   3.068   7.294   7.133 -1.5483  0.8193  2.2446
  326MOL0     H44986   3.322   7.089   7.247  2.6959  4.6017  1.5815
  326MOL0     H44987   3.220   7.102   7.382  0.1783  2.4991 -0.0142
  326MOL0     H44988   3.139   7.092   7.218  1.2364  1.8188 -2.4287
  327MOL0     O44989   3.598   8.931   4.531  0.8318  0.4519  0.3521
  327MOL0     C44990   3.501   8.875   4.471 -0.9701  1.0879 -0.4536
  327MOL0     O44991   3.427   8.933   4.371 -0.7215  0.2181 -0.0144
  327MOL0     C44992   3.466   9.055   4.339  0.2203 -1.3858 -0.6115
  327MOL0     C44993   3.438   9.159   4.434  0.5289 -0.4404 -0.4226
  327MOL0     C44994   3.464   9.292   4.397 -0.6028  0.8086  0.1860
  327MOL0     C44995   3.533   9.325   4.279 -0.2857 -0.2275 -0.1444
  327MOL0     O44996   3.571   9.447   4.239  0.1450 -0.3889  0.9754
  327MOL0     C44997   3.515   9.565   4.300  0.5694  0.5620 -0.1231
  327MOL0     C44998   3.551   9.697   4.229 -1.4760  0.1766 -0.9730
  327MOL0     C44999   3.528   9.824   4.309 -0.7911 -0.6265 -0.5662
  327MOL0     C45000   3.590   9.945   4.231  0.6505  0.2295  0.6492
  327MOL0     C45001   3.719   9.984   4.296 -0.1561  0.1378 -0.0668
  327MOL0     C45002   3.786  10.088   4.207 -0.1900  0.2642  0.3328
  327MOL0     C45003   3.895  10.164   4.288 -0.5593 -0.0246  0.6015
  327MOL0     C45004   4.026  10.086   4.258  0.7575 -0.3769  0.7763
  327MOL0     N45005   4.134  10.123   4.345 -0.1950 -0.3804  0.7530
  327MOL0     C45006   4.212  10.039   4.427  0.6308 -0.0459  0.3228
  327MOL0     C45007   4.311  10.117   4.475 -0.0350  0.3945 -0.5187
  327MOL0     C45008   4.424  10.066   4.559  0.3618  0.0968  0.1124
  327MOL0     C45009   4.506   9.965   4.489  0.5645 -0.3697  0.0342
  327MOL0     C45010   4.632   9.914   4.560  0.2169 -0.1642 -0.4819
  327MOL0     C45011   4.758   9.993   4.507 -0.2894 -0.8978 -0.1746
  327MOL0     O45012   4.876   9.920   4.551 -0.0425 -0.2799  0.2105
  327MOL0     C45013   4.974   9.980   4.621 -0.1108 -0.6821  0.3790
  327MOL0     C45014   5.096   9.986   4.561  0.2355 -0.6906  0.3135
  327MOL0     C45015   5.205  10.050   4.622 -0.0966 -0.4830 -0.1110
  327MOL0     C45016   5.330  10.046   4.546 -0.2026 -0.1815 -0.3012
  327MOL0     C45017   5.188  10.114   4.751  0.3397 -0.2301 -0.2072
  327MOL0     C45018   5.296  10.180   4.836  0.7750  0.1326 -0.1606
  327MOL0     O45019   5.243  10.249   4.941  0.4606 -0.0362 -0.3513
  327MOL0     C45020   5.307  10.339   5.016  0.8965 -0.2195  0.1414
  327MOL0     C45021   5.415  10.419   4.965 -0.0861 -0.6235  0.3608
  327MOL0     C45022   5.476  10.500   5.053 -0.7872 -0.7637  0.1021
  327MOL0     C45023   5.447  10.508   5.186  0.0119 -0.4222  0.0377
  327MOL0     O45024   5.513  10.599   5.271  1.0485  0.0120  0.4685
  327MOL0     C45025   5.497  10.606   5.414  0.0816 -0.0408  0.0948
  327MOL0     C45026   5.581  10.718   5.476  0.4908 -1.1426 -0.2837
  327MOL0     C45027   5.538  10.744   5.621 -0.8049  0.3578 -0.0606
  327MOL0     C45028   5.637  10.838   5.710  0.0349  0.0966 -0.3788
  327MOL0     C45029   5.628  10.810   5.865  0.0544  0.9688  0.3397
  327MOL0     C45030   5.554  10.930   5.934  0.3582  0.3288 -0.5937
  327MOL0     C45031   5.495  10.884   6.068  0.6025  0.3702  0.4294
  327MOL0     C45032   5.605  10.866   6.176  0.2251 -0.2051  0.1078
  327MOL0    Cl45033   5.685  11.025   6.220 -0.5739  0.1821  0.0808
  327MOL0     C45034   5.333  10.434   5.229 -0.1758  0.0638 -0.5849
  327MOL0     C45035   5.271  10.346   5.147  0.2966 -0.7099  0.3158
  327MOL0     O45036   5.413  10.169   4.808  0.1052  0.0393 -0.5871
  327MOL0     C45037   5.056  10.103   4.808  0.3280  0.2480  0.2842
  327MOL0     C45038   4.955  10.041   4.742 -0.3345  0.1630 -0.0648
  327MOL0     N45039   4.288  10.246   4.430 -0.1300 -0.3674 -0.4615
  327MOL0     N45040   4.184  10.248   4.353 -0.5530 -0.4123  0.4557
  327MOL0     C45041   3.551   9.220   4.189 -0.4320  0.6264  0.9013
  327MOL0     C45042   3.511   9.092   4.220  0.7240  0.5744 -0.0392
  327MOL0     C45043   3.491   8.727   4.505 -0.1227 -0.1399  0.5341
  327MOL0     C45044   3.457   8.679   4.635 -0.3634  0.1605  0.2776
  327MOL0     C45045   3.465   8.539   4.666 -0.5369  0.0659 -0.7802
  327MOL0     C45046   3.482   8.444   4.572  0.0045  0.2338  0.5366
  327MOL0     O45047   3.465   8.312   4.586 -0.3998 -0.0819  0.0878
  327MOL0     C45048   3.542   8.253   4.689 -0.5260 -0.6168 -1.2626
  327MOL0     C45049   3.514   8.101   4.702  0.5204  0.8551  0.5833
  327MOL0     C45050   3.363   8.076   4.729 -0.6180  0.5128 -0.3584
  327MOL0     C45051   3.320   7.922   4.718 -0.0567 -0.3225  0.7537
  327MOL0     C45052   3.302   7.854   4.844  0.3983 -0.4817 -0.2983
  327MOL0     C45053   3.276   7.793   4.952 -0.5358  0.2409 -0.3589
  327MOL0     C45054   3.518   8.491   4.441 -0.4342 -0.4599  0.4327
  327MOL0     C45055   3.532   8.626   4.408  0.5896  0.0105  0.4118
  327MOL0     C45056   3.559   8.657   4.259  0.1980 -0.1915  0.5615
  327MOL0     H45057   3.403   9.145   4.536  1.8832  1.3459  0.3455
  327MOL0     H45058   3.443   9.368   4.472 -0.2724 -2.1364  3.5378
  327MOL0     H45059   3.566   9.573   4.397  2.7322  1.6026 -1.2932
  327MOL0     H45060   3.406   9.554   4.307  0.4271  2.1165  0.3710
  327MOL0     H45061   3.658   9.679   4.211 -1.4238 -1.4610  0.6187
  327MOL0     H45062   3.511   9.710   4.128  0.2248  0.4993 -1.6478
  327MOL0     H45063   3.420   9.836   4.319 -0.7080 -1.4327  1.8778
  327MOL0     H45064   3.569   9.833   4.409  1.3823  0.2335 -1.4737
  327MOL0     H45065   3.599   9.934   4.122 -1.5947  0.0685  0.4266
  327MOL0     H45066   3.523  10.028   4.253  1.7736  1.0533  1.0662
  327MOL0     H45067   3.782   9.895   4.299  0.2563  0.4459  0.7251
  327MOL0     H45068   3.702  10.019   4.398  0.3071 -0.8228  0.3548
  327MOL0     H45069   3.824  10.044   4.114  0.8370 -1.0346  1.3145
  327MOL0     H45070   3.709  10.161   4.185 -0.5649 -0.0639  0.5493
  327MOL0     H45071   3.871  10.164   4.394  0.3859 -0.7550  0.8290
  327MOL0     H45072   3.907  10.266   4.250 -3.1381 -0.1254 -0.7210
  327MOL0     H45073   4.008   9.979   4.258  1.3788 -0.4935  1.4171
  327MOL0     H45074   4.054  10.111   4.155  0.1678 -0.4986  0.5885
  327MOL0     H45075   4.207   9.933   4.445 -0.4545  0.5856  4.7193
  327MOL0     H45076   4.378  10.024   4.648  0.7947 -1.4085 -0.3433
  327MOL0     H45077   4.494  10.146   4.587 -1.6007  2.1050 -0.4337
  327MOL0     H45078   4.434   9.884   4.475 -2.9463  2.5006  0.0010
  327MOL0     H45079   4.544  10.005   4.394 -0.5563  0.4635 -0.0872
  327MOL0     H45080   4.622   9.929   4.668 -0.1779 -0.2863 -0.5001
  327MOL0     H45081   4.650   9.808   4.538  1.7067 -0.6336  2.4605
  327MOL0     H45082   4.749   9.987   4.398 -1.9766 -0.7462 -0.0660
  327MOL0     H45083   4.760  10.097   4.543  0.8022 -0.0060 -2.6025
  327MOL0     H45084   5.120   9.933   4.469 -0.2651  3.1314 -2.2576
  327MOL0     H45085   5.372  10.147   4.535 -1.8620  0.4447 -1.3122
  327MOL0     H45086   5.310  10.009   4.445 -0.9501  0.1014 -0.2658
  327MOL0     H45087   5.400   9.978   4.595 -0.2297  1.1731  1.7291
  327MOL0     H45088   5.449  10.427   4.863 -0.7453  1.5988  0.2551
  327MOL0     H45089   5.557  10.559   5.010 -2.1102  0.6521 -0.5270
  327MOL0     H45090   5.389  10.615   5.431  0.1184  2.0836 -0.5394
  327MOL0     H45091   5.538  10.515   5.459 -1.2575  0.8644  3.4493
  327MOL0     H45092   5.687  10.689   5.480  0.5341 -0.8566  1.5564
  327MOL0     H45093   5.566  10.812   5.422 -0.3574 -0.9784  0.2255
  327MOL0     H45094   5.545  10.643   5.662  0.5818 -0.2123 -1.5661
  327MOL0     H45095   5.437  10.785   5.619 -0.9559 -0.0198 -0.4291
  327MOL0     H45096   5.614  10.942   5.685 -0.8055 -0.4702 -2.1706
  327MOL0     H45097   5.741  10.812   5.692  0.6609 -0.4331  3.3214
  327MOL0     H45098   5.571  10.718   5.882  0.0045  0.6697 -1.2828
  327MOL0     H45099   5.729  10.800   5.905 -0.6736  3.1003  2.9477
  327MOL0     H45100   5.475  10.952   5.862 -0.4031 -0.0364  0.1144
  327MOL0     H45101   5.622  11.016   5.940  0.1686  0.3552  2.7659
  327MOL0     H45102   5.446  10.787   6.055  1.4074  0.0954 -0.6763
  327MOL0     H45103   5.416  10.952   6.100 -0.8751 -0.1635 -1.8898
  327MOL0     H45104   5.680  10.794   6.142 -0.3461  0.3178 -2.4827
  327MOL0     H45105   5.555  10.826   6.265 -1.7312  0.6688 -0.5507
  327MOL0     H45106   5.297  10.458   5.329 -0.8944  3.4931 -1.5161
  327MOL0     H45107   5.203  10.270   5.184 -0.0529 -0.8874 -0.6514
  327MOL0     H45108   5.025  10.148   4.902 -1.1895  0.8440 -0.4680
  327MOL0     H45109   4.854  10.037   4.783 -0.5383 -3.1385 -0.6062
  327MOL0     H45110   3.596   9.237   4.092  0.5032 -4.0887  0.2588
  327MOL0     H45111   3.540   9.017   4.147  0.1700 -1.0268  1.3269
  327MOL0     H45112   3.407   8.740   4.709 -1.4240 -2.4818  1.8711
  327MOL0     H45113   3.448   8.511   4.769  0.1063 -0.6347 -0.8561
  327MOL0     H45114   3.648   8.279   4.677 -1.0195  1.6263 -1.2375
  327MOL0     H45115   3.513   8.294   4.786  1.1167  1.1414 -1.4565
  327MOL0     H45116   3.571   8.060   4.786  3.3615 -0.2745 -1.7188
  327MOL0     H45117   3.551   8.041   4.618  1.8571 -2.8748  3.5491
  327MOL0     H45118   3.339   8.097   4.833  1.2341  2.7143 -0.3173
  327MOL0     H45119   3.310   8.123   4.646 -1.6753  0.3457  0.2123
  327MOL0     H45120   3.395   7.866   4.661 -1.2998  1.0669 -2.5126
  327MOL0     H45121   3.230   7.909   4.657  1.6071 -1.4971 -1.6055
  327MOL0     H45122   3.283   7.760   5.054  2.4352  2.0013  0.1227
  327MOL0     H45123   3.541   8.414   4.367  1.0715  1.5272 -1.3037
  327MOL0     H45124   3.614   8.750   4.248  0.8480 -0.6294  0.0208
  327MOL0     H45125   3.625   8.580   4.219  0.2296  0.0376  0.1629
  327MOL0     H45126   3.470   8.653   4.195  0.2317 -0.8093  0.5428
  328MOL0     O45127  10.000   3.748   4.442  0.7047 -0.6452  0.6203
  328MOL0     C45128  10.072   3.841   4.484 -0.3263  0.4972 -0.0954
  328MOL0     O45129  10.030   3.959   4.530  0.1181 -0.5417  0.0888
  328MOL0     C45130   9.896   3.977   4.549  0.0677  0.5874  0.0692
  328MOL0     C45131   9.857   3.927   4.683 -0.4948 -0.5262  0.7095
  328MOL0     C45132   9.724   3.929   4.728 -0.0307  0.6071  0.5005
  328MOL0     C45133   9.622   3.970   4.642  0.3671  0.8963  0.2020
  328MOL0     O45134   9.489   3.951   4.676 -0.2335  0.0016 -0.2073
  328MOL0     C45135   9.396   4.060   4.650  0.6074 -0.1190 -0.6412
  328MOL0     C45136   9.341   4.119   4.784  0.1975  0.8239  0.1250
  328MOL0     C45137   9.454   4.179   4.878 -0.2416  0.4196 -0.1218
  328MOL0     C45138   9.496   4.326   4.835  0.0971  0.6988  0.3010
  328MOL0     C45139   9.634   4.362   4.893  0.1065  0.4145 -0.0202
  328MOL0     C45140   9.755   4.311   4.811 -0.3416  0.1485 -0.1892
  328MOL0     C45141   9.889   4.336   4.884  0.5275  0.7364  0.1636
  328MOL0     C45142   9.906   4.247   5.005 -0.1473  0.0990 -0.3828
  328MOL0     N45143  10.038   4.282   5.067  0.6945  0.3580 -0.4462
  328MOL0     C45144  10.154   4.207   5.056 -0.3384  0.6195 -0.5705
  328MOL0     C45145  10.218   4.227   5.169 -1.1620 -0.5005  0.0532
  328MOL0     C45146  10.328   4.142   5.219 -0.5392  0.5211  0.1198
  328MOL0     C45147  10.436   4.223   5.291  0.3400 -0.3165 -0.6551
  328MOL0     C45148  10.547   4.125   5.330  0.3247  0.5071 -0.1803
  328MOL0     C45149  10.670   4.200   5.388  0.4362  0.3246  0.1879
  328MOL0     O45150  10.751   4.119   5.466 -0.2675 -0.2385 -0.1980
  328MOL0     C45151  10.871   4.175   5.506  0.4900 -0.8188  0.1752
  328MOL0     C45152  10.990   4.128   5.464 -0.3546  0.4333  0.6717
  328MOL0     C45153  11.113   4.154   5.530  0.5898  0.0413 -0.5224
  328MOL0     C45154  11.236   4.095   5.487 -0.8124 -0.6281  0.3631
  328MOL0     C45155  11.108   4.249   5.643 -0.1236 -0.9573  0.1251
  328MOL0     C45156  11.221   4.297   5.726 -0.9525  0.4241 -0.3246
  328MOL0     O45157  11.320   4.213   5.742 -0.7447  0.0376 -0.7060
  328MOL0     C45158  11.445   4.279   5.754 -0.2270 -0.5793 -0.2140
  328MOL0     C45159  11.488   4.309   5.884 -0.7241  0.2861 -0.1901
  328MOL0     C45160  11.606   4.371   5.903  0.2362  0.4972  0.1468
  328MOL0     C45161  11.687   4.411   5.794 -0.4820 -0.3651  0.3466
  328MOL0     O45162  11.807   4.460   5.829 -1.2726  0.4984 -0.0054
  328MOL0     C45163  11.849   4.584   5.776  0.0145  0.1272  0.1817
  328MOL0     C45164  11.976   4.633   5.848  0.4713 -0.3142  0.6932
  328MOL0     C45165  11.939   4.697   5.989 -0.1248  0.6505  0.3900
  328MOL0     C45166  12.073   4.728   6.058  0.1861  0.4128  0.1852
  328MOL0     C45167  12.058   4.765   6.208  0.3557  0.6285 -0.2386
  328MOL0     C45168  11.998   4.660   6.295  0.1671 -0.5871 -0.5892
  328MOL0     C45169  11.997   4.709   6.442  0.5918  0.6138 -0.7974
  328MOL0     C45170  11.959   4.594   6.538 -0.0458  0.2072 -0.5629
  328MOL0    Cl45171  11.975   4.689   6.697  0.3157 -0.1332  0.0083
  328MOL0     C45172  11.649   4.383   5.662 -0.0478 -0.4017 -0.5975
  328MOL0     C45173  11.530   4.309   5.650 -0.1105 -0.1234  0.2891
  328MOL0     O45174  11.219   4.405   5.770  0.6226  0.2401 -0.3754
  328MOL0     C45175  10.974   4.311   5.677 -0.6666  0.2084 -0.7649
  328MOL0     C45176  10.856   4.268   5.611  0.1916 -1.0936 -0.6940
  328MOL0     N45177  10.151   4.314   5.245  0.7414  0.5480 -0.4691
  328MOL0     N45178  10.038   4.341   5.192 -0.1340 -0.6181 -1.3702
  328MOL0     C45179   9.661   3.996   4.508  0.0249  0.0234  0.2741
  328MOL0     C45180   9.793   3.999   4.461  0.9201 -0.7178  0.6754
  328MOL0     C45181  10.222   3.820   4.485 -0.2064  0.0595  0.5441
  328MOL0     C45182  10.300   3.936   4.483 -0.2500 -0.0301 -0.1011
  328MOL0     C45183  10.435   3.931   4.504 -0.1182  1.0127 -0.0741
  328MOL0     C45184  10.496   3.801   4.501 -0.6272  0.2935  0.2952
  328MOL0     O45185  10.633   3.798   4.518  0.2627 -0.2340  0.1199
  328MOL0     C45186  10.698   3.671   4.555  0.4224  0.0243 -0.0747
  328MOL0     C45187  10.835   3.705   4.614 -0.1604  0.3540  0.5821
  328MOL0     C45188  10.826   3.807   4.730 -0.3022 -0.3450 -0.3419
  328MOL0     C45189  10.961   3.830   4.803  0.0566 -0.1930  0.4531
  328MOL0     C45190  10.936   3.901   4.930  0.2539 -0.2288  0.6655
  328MOL0     C45191  10.912   3.928   5.045  0.5195  0.1562 -0.4694
  328MOL0     C45192  10.422   3.688   4.491 -0.7562  1.0145 -0.0506
  328MOL0     C45193  10.281   3.689   4.482 -0.8333  0.8684 -0.0952
  328MOL0     C45194  10.211   3.565   4.481  0.8263 -0.2617 -0.5639
  328MOL0     H45195   9.935   3.894   4.751 -1.3120 -3.7709  0.2548
  328MOL0     H45196   9.708   3.881   4.824 -1.0701 -1.4670 -0.6356
  328MOL0     H45197   9.315   4.006   4.600  1.4142 -2.9451  0.8598
  328MOL0     H45198   9.442   4.140   4.592 -1.0635  1.6625  0.3833
  328MOL0     H45199   9.279   4.207   4.763 -0.9746  0.3357  1.3846
  328MOL0     H45200   9.281   4.042   4.833  2.3780 -2.1162 -1.5493
  328MOL0     H45201   9.407   4.180   4.977 -3.5186 -0.0137 -1.5672
  328MOL0     H45202   9.534   4.103   4.879 -1.0216 -0.4287 -0.7677
  328MOL0     H45203   9.498   4.331   4.726  0.1970  1.6675  0.3379
  328MOL0     H45204   9.417   4.395   4.866 -1.2913  0.0370 -1.5835
  328MOL0     H45205   9.637   4.323   4.995  0.5661 -2.9242 -1.1777
  328MOL0     H45206   9.644   4.470   4.885 -0.7122  0.4648 -0.4690
  328MOL0     H45207   9.757   4.208   4.775 -0.2812 -0.0472  0.3664
  328MOL0     H45208   9.758   4.365   4.716  1.0348 -0.0461 -0.2683
  328MOL0     H45209   9.880   4.439   4.920  1.0212  0.3790  1.3664
  328MOL0     H45210   9.982   4.330   4.827  0.2960 -0.3715 -0.1128
  328MOL0     H45211   9.820   4.269   5.070  0.0164 -0.0405 -0.1215
  328MOL0     H45212   9.905   4.140   4.984  0.5172 -1.3175  5.3655
  328MOL0     H45213  10.176   4.131   4.981 -2.7677  0.0392 -0.7819
  328MOL0     H45214  10.377   4.089   5.138 -1.8689  0.6474 -0.7986
  328MOL0     H45215  10.295   4.073   5.298 -2.3752 -1.1671 -1.9915
  328MOL0     H45216  10.494   4.303   5.244  3.0996 -2.3116 -0.9156
  328MOL0     H45217  10.400   4.268   5.384  2.9119  1.9442 -0.6289
  328MOL0     H45218  10.516   4.044   5.396  0.3872  0.5523 -0.0952
  328MOL0     H45219  10.576   4.082   5.234 -0.7826  1.0732 -0.7870
  328MOL0     H45220  10.723   4.236   5.298 -0.8502 -0.8138 -1.0731
  328MOL0     H45221  10.642   4.289   5.446  3.6572  1.5270  0.1104
  328MOL0     H45222  10.978   4.054   5.385 -0.3957  1.7125 -0.5764
  328MOL0     H45223  11.320   4.164   5.472  1.8007 -3.4179  1.1963
  328MOL0     H45224  11.225   4.038   5.395 -0.2775 -1.1723  0.6273
  328MOL0     H45225  11.275   4.026   5.562 -0.1091  0.1385  0.7286
  328MOL0     H45226  11.429   4.264   5.963 -2.0795  2.5892  0.1998
  328MOL0     H45227  11.651   4.376   6.002  3.6349 -0.9448 -1.1614
  328MOL0     H45228  11.871   4.586   5.669  0.2324  1.9680  0.2278
  328MOL0     H45229  11.772   4.662   5.778  1.2109  1.4179 -1.1544
  328MOL0     H45230  12.053   4.556   5.853  0.6124 -0.4987 -2.4151
  328MOL0     H45231  12.008   4.707   5.773 -1.4416  1.4670  1.5273
  328MOL0     H45232  11.871   4.638   6.052  0.5518  0.9086  1.3688
  328MOL0     H45233  11.892   4.794   5.970 -0.6403  0.0493 -1.6950
  328MOL0     H45234  12.124   4.804   5.998 -1.8417 -0.5510 -2.9931
  328MOL0     H45235  12.141   4.643   6.051 -1.0051 -0.4730 -0.8486
  328MOL0     H45236  12.160   4.787   6.241  1.0259 -4.0146  1.4861
  328MOL0     H45237  11.990   4.851   6.208  1.5162  1.6086 -2.1633
  328MOL0     H45238  12.058   4.569   6.289  0.2212 -0.6207  0.2340
  328MOL0     H45239  11.896   4.633   6.268 -0.5145  1.4226 -0.2056
  328MOL0     H45240  11.916   4.780   6.458 -0.6704 -0.3027 -2.7170
  328MOL0     H45241  12.100   4.742   6.460  0.0181  1.1228  2.0139
  328MOL0     H45242  12.033   4.513   6.534  3.4103  2.7900  2.8601
  328MOL0     H45243  11.860   4.552   6.517  0.2977 -1.0531  0.2593
  328MOL0     H45244  11.713   4.408   5.578  1.7513 -0.9760  0.5438
  328MOL0     H45245  11.501   4.254   5.561  0.0381 -1.4870  1.0604
  328MOL0     H45246  10.956   4.381   5.758  0.6628 -0.5630  0.2372
  328MOL0     H45247  10.765   4.297   5.662  0.8203 -0.3037  0.0198
  328MOL0     H45248   9.591   4.015   4.428 -0.4579 -0.0397  0.6775
  328MOL0     H45249   9.814   4.016   4.356 -1.0943  0.9515  0.4901
  328MOL0     H45250  10.253   4.033   4.487 -0.0721  0.0215  1.3845
  328MOL0     H45251  10.501   4.012   4.534  0.7681 -0.0189  0.8300
  328MOL0     H45252  10.645   3.618   4.634  0.8516 -2.6085 -1.4266
  328MOL0     H45253  10.713   3.608   4.466  1.3585  1.1889 -0.7790
  328MOL0     H45254  10.907   3.751   4.545 -1.2876  1.8409  0.3580
  328MOL0     H45255  10.882   3.611   4.646  0.2787 -0.9032 -3.1642
  328MOL0     H45256  10.788   3.903   4.692 -1.1186 -1.1370 -1.5852
  328MOL0     H45257  10.759   3.765   4.804  2.8367 -0.5263  2.6183
  328MOL0     H45258  11.031   3.894   4.748 -1.9805  2.2514  0.5061
  328MOL0     H45259  11.010   3.734   4.818  2.0191  0.2857 -2.1801
  328MOL0     H45260  10.888   3.955   5.145  0.0469 -3.4102  0.5317
  328MOL0     H45261  10.476   3.594   4.485  0.4069  1.7104 -0.9228
  328MOL0     H45262  10.173   3.567   4.584  1.3761  1.5398 -0.3415
  328MOL0     H45263  10.130   3.556   4.408  0.2573  1.9056 -0.2906
  328MOL0     H45264  10.272   3.476   4.468  0.7660 -0.9653  2.9208
  329MOL0     O45265  10.569   4.673   5.087  0.2639 -0.1603 -0.9564
  329MOL0     C45266  10.457   4.671   5.140 -0.5588 -0.6769 -0.4488
  329MOL0     O45267  10.435   4.678   5.277 -0.0849  0.1290 -0.0299
  329MOL0     C45268  10.535   4.688   5.374  0.5244 -0.4478 -0.6147
  329MOL0     C45269  10.506   4.753   5.496 -0.1847  0.6755 -0.4383
  329MOL0     C45270  10.607   4.756   5.595 -0.8074  0.2054 -0.1777
  329MOL0     C45271  10.732   4.690   5.576  0.0138 -0.6272 -0.8370
  329MOL0     O45272  10.824   4.677   5.674 -0.1633  0.2185  0.3395
  329MOL0     C45273  10.808   4.763   5.789 -0.5395  0.0568 -1.4424
  329MOL0     C45274  10.932   4.748   5.886 -0.7044 -0.4928  0.5488
  329MOL0     C45275  11.059   4.807   5.816  0.5954  0.4103 -0.2181
  329MOL0     C45276  11.182   4.753   5.893  0.1532  0.0623  0.3988
  329MOL0     C45277  11.318   4.812   5.855  0.2169 -0.2118  0.4248
  329MOL0     C45278  11.430   4.732   5.926  0.3872  0.6122  0.2430
  329MOL0     C45279  11.414   4.741   6.076  0.8076 -0.4578 -0.5741
  329MOL0     C45280  11.553   4.729   6.132 -0.5761  0.3883 -0.7984
  329MOL0     N45281  11.564   4.717   6.279  0.6690 -0.2644  0.2559
  329MOL0     C45282  11.547   4.825   6.373  0.0669  0.2809  0.6156
  329MOL0     C45283  11.542   4.763   6.489 -0.5201  0.4125 -0.3194
  329MOL0     C45284  11.522   4.838   6.608  0.0838  0.3076  0.1469
  329MOL0     C45285  11.654   4.878   6.684 -0.3229  0.1975 -0.0722
  329MOL0     C45286  11.633   4.969   6.811  1.2298 -0.7192  0.0120
  329MOL0     C45287  11.760   5.033   6.866  0.0008  0.3078 -0.8441
  329MOL0     O45288  11.719   5.129   6.959  0.1714 -0.3431  0.4982
  329MOL0     C45289  11.817   5.197   7.025 -0.2852  0.0244 -0.9137
  329MOL0     C45290  11.780   5.221   7.157  1.1165 -0.7495  0.7298
  329MOL0     C45291  11.860   5.297   7.240 -0.2959  0.7853  0.9892
  329MOL0     C45292  11.809   5.342   7.376  0.4084  0.4432 -0.0669
  329MOL0     C45293  11.993   5.334   7.192  0.2453  0.1713 -0.0654
  329MOL0     C45294  12.100   5.394   7.290  0.2359  0.4861  0.7294
  329MOL0     O45295  12.184   5.477   7.225 -0.3144 -0.0991  0.0853
  329MOL0     C45296  12.314   5.486   7.273  0.4827  1.0579 -1.9390
  329MOL0     C45297  12.417   5.404   7.227 -0.3702  0.3197 -0.4223
  329MOL0     C45298  12.549   5.427   7.266  0.1379  0.5460 -0.9118
  329MOL0     C45299  12.578   5.531   7.360  0.8604 -0.1664 -0.5928
  329MOL0     O45300  12.708   5.560   7.410 -0.0107 -0.8281 -0.0278
  329MOL0     C45301  12.797   5.466   7.458  0.6852  0.8554  0.7472
  329MOL0     C45302  12.906   5.538   7.538 -0.0241 -0.1302 -0.0647
  329MOL0     C45303  12.846   5.638   7.647 -0.4568  0.0067  0.0346
  329MOL0     C45304  12.954   5.713   7.728 -0.0734 -0.3405 -0.8373
  329MOL0     C45305  12.908   5.825   7.824  0.4467  0.0728  0.9834
  329MOL0     C45306  13.028   5.899   7.881  0.5376 -0.0214 -0.3085
  329MOL0     C45307  13.085   6.011   7.787  0.0035  0.6155 -0.0532
  329MOL0     C45308  13.215   6.066   7.838 -0.0473  0.1111 -0.3282
  329MOL0    Cl45309  13.217   6.140   8.001  0.0901  0.2288 -0.2278
  329MOL0     C45310  12.474   5.610   7.407  0.1914  0.0792 -0.3596
  329MOL0     C45311  12.344   5.596   7.358  0.8733 -0.1212 -0.3015
  329MOL0     O45312  12.111   5.356   7.408 -0.8137 -0.7793  0.2223
  329MOL0     C45313  12.026   5.319   7.056  0.5170  0.0489 -0.5698
  329MOL0     C45314  11.934   5.252   6.970  0.0452 -0.4009 -0.2323
  329MOL0     N45315  11.566   4.626   6.475 -0.8425  0.1724  0.6449
  329MOL0     N45316  11.581   4.603   6.345 -0.6202  0.4460  0.3796
  329MOL0     C45317  10.755   4.621   5.457  0.3890  0.1989  0.0291
  329MOL0     C45318  10.658   4.615   5.364  0.6389  0.4140  0.5064
  329MOL0     C45319  10.330   4.682   5.066  0.3626  0.8954  0.5217
  329MOL0     C45320  10.211   4.618   5.113 -0.5493  0.2384 -0.6882
  329MOL0     C45321  10.092   4.616   5.039 -0.3910 -0.4861 -0.2015
  329MOL0     C45322  10.079   4.690   4.931  1.3080  0.3587 -0.6620
  329MOL0     O45323   9.954   4.695   4.889 -0.1561  0.1458  0.3458
  329MOL0     C45324   9.933   4.753   4.759 -0.2131  0.0174 -1.2921
  329MOL0     C45325   9.787   4.717   4.727 -0.9853  0.3695 -0.8586
  329MOL0     C45326   9.696   4.835   4.678 -0.7174  0.2060 -0.1607
  329MOL0     C45327   9.551   4.805   4.625 -0.5237 -0.2128  0.5692
  329MOL0     C45328   9.470   4.749   4.732 -0.7606  0.7842 -0.2012
  329MOL0     C45329   9.403   4.721   4.827  0.1057 -0.2374 -0.0822
  329MOL0     C45330  10.191   4.762   4.883  0.7722 -1.7064  0.0456
  329MOL0     C45331  10.315   4.749   4.939  0.0650  0.2331 -0.1789
  329MOL0     C45332  10.433   4.819   4.879  1.0528 -0.0950 -0.4603
  329MOL0     H45333  10.412   4.805   5.515 -0.0241  0.8520 -0.1164
  329MOL0     H45334  10.579   4.808   5.686  0.4434  0.0884  0.3045
  329MOL0     H45335  10.713   4.753   5.843 -0.8308  4.8488 -0.6462
  329MOL0     H45336  10.799   4.863   5.745  1.2739 -0.2352 -2.5813
  329MOL0     H45337  10.907   4.804   5.976  1.3842 -0.3830  1.1196
  329MOL0     H45338  10.944   4.644   5.917 -0.9117 -0.8650 -0.5441
  329MOL0     H45339  11.062   4.787   5.709  0.2715  0.2392 -0.1961
  329MOL0     H45340  11.065   4.916   5.826  2.3151  0.2647  0.6086
  329MOL0     H45341  11.163   4.779   5.997  0.4896  1.6416  0.1008
  329MOL0     H45342  11.181   4.644   5.887  2.4922  0.0785 -2.8818
  329MOL0     H45343  11.324   4.913   5.896 -4.1863 -0.5429  2.4059
  329MOL0     H45344  11.331   4.803   5.747  0.5374  0.3358  0.4106
  329MOL0     H45345  11.420   4.627   5.897 -0.9286  0.2390  1.8526
  329MOL0     H45346  11.529   4.767   5.896  0.7931 -1.2224 -0.6581
  329MOL0     H45347  11.347   4.665   6.117  1.6519 -0.3627  1.0965
  329MOL0     H45348  11.374   4.837   6.109  2.6943  0.2516 -0.1828
  329MOL0     H45349  11.598   4.637   6.095 -1.2069  0.2011 -1.1200
  329MOL0     H45350  11.620   4.811   6.105  2.2799 -1.3833  0.4843
  329MOL0     H45351  11.529   4.931   6.355 -5.6116 -0.6109 -0.8026
  329MOL0     H45352  11.459   4.776   6.673 -1.1520 -0.9341 -2.1043
  329MOL0     H45353  11.457   4.924   6.589 -2.9861 -1.0639  3.4235
  329MOL0     H45354  11.689   4.780   6.719 -3.0493 -0.3080  1.6071
  329MOL0     H45355  11.722   4.933   6.619 -2.7994  2.8688 -0.6138
  329MOL0     H45356  11.556   5.044   6.789  0.3007 -1.4742  0.6121
  329MOL0     H45357  11.593   4.906   6.891 -0.2411  0.6957  0.4547
  329MOL0     H45358  11.811   4.956   6.924  0.4762 -0.5473 -2.3344
  329MOL0     H45359  11.825   5.073   6.787  0.4365 -0.7300 -1.0263
  329MOL0     H45360  11.688   5.177   7.195  2.0474 -2.3634  1.2040
  329MOL0     H45361  11.796   5.451   7.376 -0.5689  0.4046 -2.7219
  329MOL0     H45362  11.882   5.316   7.453  1.1384  3.7913  0.5193
  329MOL0     H45363  11.713   5.298   7.402  1.6150 -1.4447  1.4648
  329MOL0     H45364  12.407   5.331   7.148 -0.3904  1.8479 -1.8776
  329MOL0     H45365  12.633   5.370   7.228 -1.2249 -1.9839 -0.3615
  329MOL0     H45366  12.738   5.398   7.519  0.2832  0.5287  0.0116
  329MOL0     H45367  12.844   5.424   7.369 -1.9115  1.1557 -0.8570
  329MOL0     H45368  12.971   5.468   7.590 -1.3932 -0.5682  1.1073
  329MOL0     H45369  12.971   5.593   7.469  1.9812 -0.9152  1.1151
  329MOL0     H45370  12.772   5.585   7.708 -3.0304  0.5827 -2.3412
  329MOL0     H45371  12.785   5.715   7.597 -0.1572  0.6684  0.6814
  329MOL0     H45372  13.019   5.767   7.659 -2.4024  4.2194  0.1681
  329MOL0     H45373  13.007   5.644   7.794 -0.3574  1.6640  1.6463
  329MOL0     H45374  12.837   5.892   7.776 -1.7038 -2.3501  0.5711
  329MOL0     H45375  12.867   5.778   7.914  5.4801 -0.3547  3.4410
  329MOL0     H45376  13.110   5.829   7.901  0.6111 -0.0512 -0.7076
  329MOL0     H45377  12.993   5.936   7.978 -0.8809 -0.9581 -0.4287
  329MOL0     H45378  13.022   6.100   7.787  0.0011  0.6397  1.4950
  329MOL0     H45379  13.105   5.967   7.688 -0.0956 -3.0879  1.3950
  329MOL0     H45380  13.242   6.143   7.765  1.9499 -1.2074 -1.0569
  329MOL0     H45381  13.288   5.984   7.834  0.3252  0.4039  0.1779
  329MOL0     H45382  12.492   5.701   7.463  0.4537  0.2348 -0.6948
  329MOL0     H45383  12.257   5.653   7.390  0.9088 -0.0109 -0.4028
  329MOL0     H45384  12.125   5.353   7.029  1.3760 -0.1740  2.0462
  329MOL0     H45385  11.950   5.250   6.863 -2.2321  2.2344 -0.7384
  329MOL0     H45386  10.838   4.557   5.428  0.5770  0.4726 -0.0413
  329MOL0     H45387  10.683   4.563   5.272  0.7475 -2.4041  2.0217
  329MOL0     H45388  10.216   4.556   5.201  0.9005 -1.3971 -1.8661
  329MOL0     H45389  10.012   4.548   5.067 -1.9762  0.7713 -1.4915
  329MOL0     H45390   9.929   4.862   4.773  2.3595 -0.1490  1.8864
  329MOL0     H45391  10.001   4.730   4.677  1.2694  1.1291 -0.4290
  329MOL0     H45392   9.739   4.666   4.810 -0.3861 -4.2382 -3.0228
  329MOL0     H45393   9.797   4.641   4.649  1.2930 -0.8736  0.5313
  329MOL0     H45394   9.691   4.907   4.761 -0.1968 -0.4269  0.4331
  329MOL0     H45395   9.749   4.881   4.594 -1.7363  1.9101  0.0839
  329MOL0     H45396   9.573   4.730   4.549  1.0464  0.4246  0.3570
  329MOL0     H45397   9.497   4.886   4.576 -1.6299 -1.4701 -0.3490
  329MOL0     H45398   9.353   4.698   4.918  1.1867  3.4701  1.6274
  329MOL0     H45399  10.170   4.816   4.791 -4.7493  0.1597  1.9496
  329MOL0     H45400  10.516   4.753   4.855  1.5559  0.5144 -0.4082
  329MOL0     H45401  10.400   4.877   4.792 -1.6040  1.4244  1.3977
  329MOL0     H45402  10.465   4.894   4.952 -2.9668  2.7056 -1.2335
  330MOL0     O45403   8.474   8.691   2.783 -0.3348  0.0943  0.7553
  330MOL0     C45404   8.363   8.662   2.749  0.8133 -0.0310 -0.3920
  330MOL0     O45405   8.267   8.747   2.713  0.2743  0.0347  0.5991
  330MOL0     C45406   8.276   8.885   2.711 -0.0276 -0.2456  0.6034
  330MOL0     C45407   8.274   8.944   2.839 -0.0020 -0.9760 -0.6404
  330MOL0     C45408   8.285   9.081   2.856 -0.7610  0.3211 -0.5002
  330MOL0     C45409   8.295   9.152   2.740 -0.3810 -0.2696  0.6776
  330MOL0     O45410   8.326   9.290   2.769 -0.0334  0.7301 -0.3569
  330MOL0     C45411   8.368   9.376   2.664  0.1039  0.0573 -0.1257
  330MOL0     C45412   8.443   9.488   2.730 -0.0258 -0.3447 -0.0348
  330MOL0     C45413   8.567   9.432   2.813 -0.7046 -0.6819  0.6561
  330MOL0     C45414   8.616   9.549   2.906  0.5311  0.1442 -0.2531
  330MOL0     C45415   8.729   9.503   3.004 -0.0638 -1.1327 -0.1607
  330MOL0     C45416   8.856   9.439   2.942 -0.0766 -0.2411 -0.0396
  330MOL0     C45417   8.946   9.528   2.853  0.1491  0.5384 -0.4236
  330MOL0     C45418   9.049   9.620   2.928 -0.7215 -0.5354 -0.5474
  330MOL0     N45419   9.160   9.537   2.988  0.3020 -0.0141  0.6901
  330MOL0     C45420   9.287   9.536   2.927  0.1765 -0.3983  0.6504
  330MOL0     C45421   9.356   9.472   3.022  0.0205 -0.4117 -0.1746
  330MOL0     C45422   9.502   9.440   3.010  0.2862  0.1463  0.8677
  330MOL0     C45423   9.577   9.537   3.112 -0.0450  0.2084  0.8701
  330MOL0     C45424   9.603   9.476   3.249  0.0517 -0.2174 -0.3733
  330MOL0     C45425   9.722   9.377   3.235 -0.3438 -0.2502  0.0562
  330MOL0     O45426   9.753   9.303   3.359  0.2781 -0.1189  0.3186
  330MOL0     C45427   9.820   9.186   3.346  0.6753  0.0557 -0.4738
  330MOL0     C45428   9.815   9.105   3.460  0.2930 -0.6813 -0.8565
  330MOL0     C45429   9.882   8.982   3.469  0.5174  0.6718  0.2277
  330MOL0     C45430   9.848   8.896   3.587 -0.2976  0.1597  0.2403
  330MOL0     C45431   9.965   8.937   3.361  0.7644 -0.4015 -0.8989
  330MOL0     C45432  10.047   8.809   3.360  0.3366  0.9921  0.0429
  330MOL0     O45433  10.101   8.774   3.243  0.2052  0.0180  0.3046
  330MOL0     C45434  10.160   8.649   3.239  0.0480  0.2679 -0.5256
  330MOL0     C45435  10.116   8.545   3.157 -0.3473 -0.5596  0.3685
  330MOL0     C45436  10.176   8.419   3.151  0.2099 -0.0494 -0.1784
  330MOL0     C45437  10.283   8.393   3.235  0.5321  0.0908  0.4667
  330MOL0     O45438  10.341   8.270   3.244 -0.1382 -0.2413 -1.0441
  330MOL0     C45439  10.297   8.172   3.152  0.5486 -0.1804 -0.4132
  330MOL0     C45440  10.390   8.052   3.161 -0.0846  0.2936  0.5154
  330MOL0     C45441  10.536   8.069   3.114 -0.3806 -0.3837  0.3611
  330MOL0     C45442  10.632   8.155   3.199 -1.4029  0.3135 -0.0709
  330MOL0     C45443  10.776   8.187   3.136 -0.0661 -0.1215  0.3410
  330MOL0     C45444  10.819   8.330   3.173 -0.3449  0.3990  0.2385
  330MOL0     C45445  10.973   8.345   3.151 -0.4522  0.8494  0.3074
  330MOL0     C45446  11.005   8.493   3.147 -0.2321 -0.3555  0.3421
  330MOL0    Cl45447  10.958   8.578   2.995  0.1159 -0.1398  0.0583
  330MOL0     C45448  10.333   8.492   3.319 -0.9355 -0.3802 -0.4359
  330MOL0     C45449  10.272   8.620   3.322  0.1747 -0.2717  1.0351
  330MOL0     O45450  10.060   8.757   3.469 -0.1013  0.0635 -0.3248
  330MOL0     C45451   9.968   9.015   3.239 -0.1887  0.3128 -0.5271
  330MOL0     C45452   9.888   9.130   3.233  0.2236 -0.2519  0.1836
  330MOL0     N45453   9.275   9.415   3.118  0.1129  0.5502 -0.1825
  330MOL0     N45454   9.161   9.472   3.109 -0.7111 -1.0081 -0.0060
  330MOL0     C45455   8.281   9.094   2.610 -0.0813 -0.7235 -1.1825
  330MOL0     C45456   8.263   8.962   2.599 -0.3490  0.0474 -0.0913
  330MOL0     C45457   8.309   8.520   2.745 -0.2556 -0.3305 -0.3052
  330MOL0     C45458   8.172   8.508   2.744  0.2282  0.3614  0.4766
  330MOL0     C45459   8.114   8.376   2.752 -0.2322 -0.0141 -0.1030
  330MOL0     C45460   8.196   8.262   2.761  0.1938  0.2074  0.4034
  330MOL0     O45461   8.122   8.146   2.771  0.1652 -0.0744  0.3574
  330MOL0     C45462   8.175   8.036   2.837 -0.2456 -0.5555 -0.7624
  330MOL0     C45463   8.070   7.933   2.869  0.9372 -1.2086 -0.0185
  330MOL0     C45464   7.983   7.916   2.742  0.6009  0.6480 -0.4479
  330MOL0     C45465   7.884   7.796   2.738  0.0117 -0.0374  0.0794
  330MOL0     C45466   7.806   7.797   2.859 -0.2694 -0.5806 -0.8940
  330MOL0     C45467   7.738   7.773   2.961 -0.3878  0.5148  0.0139
  330MOL0     C45468   8.333   8.276   2.751 -0.9912  0.1290  0.0736
  330MOL0     C45469   8.395   8.404   2.737 -0.3404 -0.2525 -0.3976
  330MOL0     C45470   8.541   8.414   2.709 -0.8219  0.2774  0.0123
  330MOL0     H45471   8.272   8.891   2.934  2.3674 -0.0523 -0.0002
  330MOL0     H45472   8.291   9.129   2.953 -0.8176 -1.3633  0.3787
  330MOL0     H45473   8.281   9.410   2.606  0.2103 -0.5341 -0.6457
  330MOL0     H45474   8.431   9.334   2.585 -0.1003  2.8661 -1.9331
  330MOL0     H45475   8.476   9.563   2.658  0.3495  0.6373  1.1395
  330MOL0     H45476   8.372   9.538   2.797 -0.0957  0.8238 -0.9475
  330MOL0     H45477   8.535   9.353   2.882  2.4567 -1.5650  1.2678
  330MOL0     H45478   8.650   9.398   2.750  1.5602  1.1207  2.4956
  330MOL0     H45479   8.647   9.641   2.855  3.2163 -0.4475  0.1711
  330MOL0     H45480   8.527   9.570   2.966  1.4147 -0.4271  1.3238
  330MOL0     H45481   8.686   9.433   3.076 -0.4811 -2.9415 -2.0476
  330MOL0     H45482   8.764   9.588   3.063 -0.3733 -1.9393  1.2359
  330MOL0     H45483   8.928   9.409   3.019  1.5986  3.3244  0.0232
  330MOL0     H45484   8.827   9.347   2.890  1.7414 -1.5754  1.1891
  330MOL0     H45485   8.876   9.594   2.799  0.3024  2.8126  1.9453
  330MOL0     H45486   8.988   9.464   2.775  0.9018  1.7567 -1.0574
  330MOL0     H45487   9.086   9.697   2.859  1.2877  0.3251  1.3973
  330MOL0     H45488   8.992   9.676   3.002  0.8830 -1.8304  1.7713
  330MOL0     H45489   9.327   9.589   2.841 -0.3326  0.2033  0.7803
  330MOL0     H45490   9.540   9.453   2.908 -0.3553 -3.4391  0.0313
  330MOL0     H45491   9.518   9.334   3.030 -2.3554 -0.4715  0.0119
  330MOL0     H45492   9.672   9.558   3.061 -1.5818 -1.5905 -3.2046
  330MOL0     H45493   9.514   9.626   3.118  0.2048  0.7560 -2.4052
  330MOL0     H45494   9.631   9.551   3.324 -1.5011 -0.5074  0.5544
  330MOL0     H45495   9.512   9.420   3.275  1.1164 -2.1070 -0.5576
  330MOL0     H45496   9.706   9.311   3.150  0.3926  1.6129 -1.5958
  330MOL0     H45497   9.808   9.430   3.192 -1.3851  0.0692 -1.7313
  330MOL0     H45498   9.760   9.153   3.540  0.6202  1.5163 -1.8843
  330MOL0     H45499   9.790   8.805   3.570 -1.3505 -0.0094  3.8589
  330MOL0     H45500   9.786   8.955   3.655 -0.7131  0.6780 -0.5696
  330MOL0     H45501   9.935   8.867   3.645 -1.0263 -1.3709  0.6131
  330MOL0     H45502  10.032   8.575   3.095 -1.5497 -2.2524  1.0901
  330MOL0     H45503  10.141   8.346   3.079  0.1940  0.1735 -0.4000
  330MOL0     H45504  10.195   8.148   3.182  0.4060 -0.9384 -1.4581
  330MOL0     H45505  10.305   8.211   3.050  1.2894 -4.0872 -2.0326
  330MOL0     H45506  10.390   8.026   3.267  1.4540  2.1822  1.0319
  330MOL0     H45507  10.363   7.967   3.097  5.9298  0.9969 -3.8330
  330MOL0     H45508  10.533   8.117   3.016 -2.3103 -1.7045 -0.2972
  330MOL0     H45509  10.584   7.971   3.108  1.1277  0.4163 -2.4810
  330MOL0     H45510  10.650   8.112   3.298 -0.8582  3.2040  1.2021
  330MOL0     H45511  10.590   8.255   3.213 -0.9363  0.4782  0.1597
  330MOL0     H45512  10.857   8.123   3.171  0.7620 -0.2201 -1.6143
  330MOL0     H45513  10.763   8.198   3.028 -0.2491  2.2139  0.5520
  330MOL0     H45514  10.815   8.348   3.281  5.0172 -0.7334  0.9001
  330MOL0     H45515  10.759   8.396   3.109  3.1475  1.9790 -1.6644
  330MOL0     H45516  10.998   8.298   3.056 -0.9190  2.3852 -0.6058
  330MOL0     H45517  11.029   8.287   3.225 -2.6856  0.3324  1.6957
  330MOL0     H45518  11.111   8.504   3.173  0.8260 -2.4608 -2.5526
  330MOL0     H45519  10.954   8.546   3.228 -0.5336 -2.1645  1.3957
  330MOL0     H45520  10.412   8.462   3.387 -1.6266 -1.3139 -0.0299
  330MOL0     H45521  10.308   8.690   3.396  1.2731 -1.1495  1.3634
  330MOL0     H45522  10.018   8.974   3.151  0.5848 -4.1408  1.6621
  330MOL0     H45523   9.876   9.188   3.142 -1.4751  1.8908  1.6671
  330MOL0     H45524   8.277   9.151   2.518 -1.4727 -2.4623 -2.2640
  330MOL0     H45525   8.234   8.916   2.505 -1.9901  0.2298  0.2928
  330MOL0     H45526   8.100   8.590   2.743 -0.6053 -0.3490  1.1325
  330MOL0     H45527   8.006   8.368   2.755 -0.2997  1.2069  1.8601
  330MOL0     H45528   8.252   7.990   2.776  0.3165  0.6017 -0.9493
  330MOL0     H45529   8.230   8.065   2.927  1.3248 -4.2582 -0.3264
  330MOL0     H45530   7.996   7.953   2.948  0.0679 -1.5413 -0.7336
  330MOL0     H45531   8.121   7.841   2.899  2.6639 -0.5851 -0.9653
  330MOL0     H45532   7.930   8.004   2.707 -0.1707 -0.3030 -1.7776
  330MOL0     H45533   8.054   7.907   2.659  1.2302  3.2315 -0.2702
  330MOL0     H45534   7.928   7.696   2.726  1.4200  0.7393 -1.8087
  330MOL0     H45535   7.814   7.801   2.654 -2.9912 -0.4031  2.3912
  330MOL0     H45536   7.686   7.750   3.052  0.9951 -1.2007  0.4181
  330MOL0     H45537   8.401   8.192   2.765 -1.3576  0.2082  3.0890
  330MOL0     H45538   8.574   8.318   2.668  0.7410  0.1143  1.5282
  330MOL0     H45539   8.571   8.493   2.640  1.4602 -0.7620 -0.2664
  330MOL0     H45540   8.598   8.439   2.798 -0.4804 -0.3458 -0.0234
  331MOL0     O45541   7.793   5.891   3.195  0.7210 -0.3486 -0.7097
  331MOL0     C45542   7.726   5.998   3.201  0.0923 -0.4328  0.0023
  331MOL0     O45543   7.776   6.128   3.202 -0.1759 -0.5917 -0.5758
  331MOL0     C45544   7.903   6.150   3.176  0.3365 -0.1861  0.1526
  331MOL0     C45545   8.004   6.080   3.249  0.2211 -0.1589  0.2762
  331MOL0     C45546   8.138   6.080   3.210 -0.1133 -0.4382 -0.5300
  331MOL0     C45547   8.173   6.167   3.104 -0.8353 -0.6480  0.0256
  331MOL0     O45548   8.305   6.160   3.069 -0.5341  0.1663 -0.3417
  331MOL0     C45549   8.357   6.220   2.953 -0.8140 -0.7132 -0.0453
  331MOL0     C45550   8.499   6.161   2.941 -0.0393  0.1051 -0.1483
  331MOL0     C45551   8.590   6.212   3.052  0.3085 -0.3312 -0.2397
  331MOL0     C45552   8.743   6.216   3.014  0.3023 -0.1751 -0.3184
  331MOL0     C45553   8.819   6.304   3.114  0.0826  0.5576  0.2945
  331MOL0     C45554   8.969   6.298   3.090  0.7163 -0.7049 -0.2814
  331MOL0     C45555   9.038   6.170   3.146  0.2244  0.2907  0.1038
  331MOL0     C45556   9.185   6.200   3.185 -0.3068 -0.2091 -0.4172
  331MOL0     N45557   9.278   6.197   3.069  0.4979 -0.2144 -0.7879
  331MOL0     C45558   9.392   6.126   3.053  0.9403  0.6259 -0.0359
  331MOL0     C45559   9.468   6.178   2.954 -0.4012 -1.0965  0.1853
  331MOL0     C45560   9.605   6.141   2.899  0.5407  0.7218  0.4216
  331MOL0     C45561   9.697   6.157   3.018  0.0008  1.1097 -0.7434
  331MOL0     C45562   9.839   6.174   2.956 -0.6768 -0.2574 -0.4729
  331MOL0     C45563   9.941   6.193   3.066 -0.4804 -0.0018 -0.2296
  331MOL0     O45564   9.932   6.112   3.182 -0.2890  0.2524  0.5177
  331MOL0     C45565  10.047   6.077   3.251  1.4901 -0.4199  0.1975
  331MOL0     C45566  10.178   6.102   3.208  0.0162  0.4016  0.2079
  331MOL0     C45567  10.287   6.108   3.303  0.6724 -0.3684  0.2344
  331MOL0     C45568  10.426   6.135   3.235 -0.5885 -0.6660  0.6120
  331MOL0     C45569  10.264   6.067   3.433  0.9831  0.4838 -0.8757
  331MOL0     C45570  10.367   6.067   3.539 -0.8058  0.0955  0.1467
  331MOL0     O45571  10.484   6.131   3.512 -1.1581  0.3004  0.2095
  331MOL0     C45572  10.585   6.121   3.605  0.4833  0.0283  0.5714
  331MOL0     C45573  10.690   6.041   3.577 -0.2319 -0.1868  0.1410
  331MOL0     C45574  10.807   6.037   3.656 -0.1378  0.2014  0.5978
  331MOL0     C45575  10.828   6.117   3.770  0.6318 -0.1904  0.0111
  331MOL0     O45576  10.941   6.106   3.847 -0.2721  0.0373  0.2775
  331MOL0     C45577  10.973   6.223   3.930  0.1990  0.1571 -0.4668
  331MOL0     C45578  11.112   6.211   4.003  0.1037  0.0278 -0.1980
  331MOL0     C45579  11.229   6.256   3.910  0.8133  0.7270 -0.2032
  331MOL0     C45580  11.363   6.258   3.992 -0.5301  0.3690 -0.8402
  331MOL0     C45581  11.498   6.289   3.909 -0.5973  0.5008  0.3520
  331MOL0     C45582  11.615   6.201   3.955  0.1628  0.5753 -0.0698
  331MOL0     C45583  11.748   6.260   3.897  0.3707 -0.1547  0.1357
  331MOL0     C45584  11.871   6.175   3.912 -0.3767  0.4220 -0.4075
  331MOL0    Cl45585  11.928   6.195   4.084 -0.0069  0.3721  0.1111
  331MOL0     C45586  10.718   6.208   3.794  1.1125 -0.1597 -0.3786
  331MOL0     C45587  10.595   6.202   3.721  0.2849  0.2089  0.6115
  331MOL0     O45588  10.341   6.009   3.644 -1.0108  0.2419  0.3236
  331MOL0     C45589  10.128   6.024   3.465 -0.2532 -0.6370 -0.1009
  331MOL0     C45590  10.023   6.035   3.377  1.1837 -0.9576 -0.1426
  331MOL0     N45591   9.389   6.284   2.905 -0.0345 -0.1909 -0.2043
  331MOL0     N45592   9.281   6.296   2.984 -0.7175 -0.0688  0.4064
  331MOL0     C45593   8.079   6.242   3.034 -0.5400 -0.9062  0.6451
  331MOL0     C45594   7.944   6.239   3.072  0.1834  0.2515  0.3492
  331MOL0     C45595   7.576   5.976   3.206 -0.0632  0.0711  0.1021
  331MOL0     C45596   7.497   6.090   3.238  1.0159  0.4847 -0.1190
  331MOL0     C45597   7.356   6.074   3.241 -0.3520  0.5055 -0.4219
  331MOL0     C45598   7.293   5.956   3.220  0.5075 -0.1844  0.1851
  331MOL0     O45599   7.153   5.957   3.233  0.1114 -0.2894 -0.4237
  331MOL0     C45600   7.091   5.849   3.301 -0.0485 -0.1060 -0.1878
  331MOL0     C45601   6.941   5.867   3.281  0.1152  0.0482  0.3950
  331MOL0     C45602   6.879   5.830   3.142 -0.3255  0.1162  0.1399
  331MOL0     C45603   6.736   5.757   3.144 -1.0785 -1.0017 -0.7639
  331MOL0     C45604   6.632   5.846   3.194  0.4794  0.6531  0.3933
  331MOL0     C45605   6.534   5.904   3.250 -0.7915  0.0041 -0.5543
  331MOL0     C45606   7.371   5.846   3.186  0.0552  0.2551 -1.2151
  331MOL0     C45607   7.512   5.849   3.187 -0.2273  0.4659  0.5533
  331MOL0     C45608   7.583   5.722   3.124 -0.1820 -0.1682  0.8823
  331MOL0     H45609   7.976   6.013   3.329  2.1952 -0.1408  1.0392
  331MOL0     H45610   8.212   6.027   3.269 -0.8524 -0.2280  0.6072
  331MOL0     H45611   8.372   6.326   2.975 -0.5350 -0.7150 -0.2320
  331MOL0     H45612   8.297   6.205   2.863  0.0032  0.5316 -0.8071
  331MOL0     H45613   8.495   6.051   2.946 -0.3571  0.1292  0.1597
  331MOL0     H45614   8.540   6.193   2.845 -3.5688 -0.6409 -2.1165
  331MOL0     H45615   8.557   6.314   3.074 -0.9946 -0.5472 -1.0712
  331MOL0     H45616   8.575   6.156   3.145 -3.0475  0.9862  0.1709
  331MOL0     H45617   8.781   6.114   3.023 -1.4740 -0.9341 -0.7777
  331MOL0     H45618   8.753   6.253   2.912 -0.5530 -1.2022 -0.8058
  331MOL0     H45619   8.806   6.278   3.220 -1.0503 -0.0061  0.0388
  331MOL0     H45620   8.791   6.409   3.104  4.6638  2.0039  0.3810
  331MOL0     H45621   8.988   6.302   2.983  1.3487 -0.4358 -0.1633
  331MOL0     H45622   9.016   6.393   3.120  1.2598 -1.3067  0.8362
  331MOL0     H45623   9.033   6.093   3.068 -1.2685  2.8048 -2.5042
  331MOL0     H45624   8.980   6.132   3.230 -0.3749  2.8913  0.9427
  331MOL0     H45625   9.195   6.295   3.238  1.3386 -0.4879 -0.1625
  331MOL0     H45626   9.216   6.126   3.259  0.9921  0.2618 -0.4651
  331MOL0     H45627   9.428   6.044   3.114 -2.6397 -1.7950 -0.9371
  331MOL0     H45628   9.643   6.207   2.821  3.4882 -1.6182 -0.3352
  331MOL0     H45629   9.604   6.039   2.859 -0.5268  1.3189 -1.1789
  331MOL0     H45630   9.674   6.250   3.072  0.9619  1.6659 -1.2634
  331MOL0     H45631   9.683   6.075   3.090 -2.6248  1.1750 -1.0831
  331MOL0     H45632   9.877   6.083   2.909  0.2481 -1.0555  1.6877
  331MOL0     H45633   9.845   6.258   2.887  0.0672 -0.8103 -1.0954
  331MOL0     H45634  10.040   6.186   3.020  0.6864  2.9347  1.5919
  331MOL0     H45635   9.925   6.297   3.095 -2.7914 -0.4011  0.0833
  331MOL0     H45636  10.197   6.122   3.103 -1.6747 -1.1777 -0.4536
  331MOL0     H45637  10.433   6.244   3.222  0.4707 -0.7121  0.7134
  331MOL0     H45638  10.439   6.086   3.138  0.7381  2.4904 -0.9703
  331MOL0     H45639  10.515   6.121   3.298  0.5941 -0.3880 -0.9330
  331MOL0     H45640  10.691   5.973   3.492  1.0363  1.3283 -1.1154
  331MOL0     H45641  10.889   5.977   3.618 -1.6965 -1.9502  0.4404
  331MOL0     H45642  10.971   6.313   3.868  1.7877  0.0777 -0.6794
  331MOL0     H45643  10.904   6.239   4.013  1.8728  3.0731  0.5139
  331MOL0     H45644  11.113   6.282   4.086 -1.1424  0.0206 -0.1539
  331MOL0     H45645  11.117   6.111   4.049  1.0655  0.4612  0.6680
  331MOL0     H45646  11.203   6.353   3.867  0.4620  0.7913  0.1507
  331MOL0     H45647  11.241   6.189   3.824 -1.4685  2.7247 -2.2067
  331MOL0     H45648  11.379   6.167   4.050 -0.4726  0.0410 -1.3591
  331MOL0     H45649  11.363   6.333   4.071 -0.4180 -1.7447  1.2625
  331MOL0     H45650  11.491   6.279   3.800  3.5604  2.9627 -0.3788
  331MOL0     H45651  11.531   6.391   3.931  4.2023 -0.7250 -0.0311
  331MOL0     H45652  11.599   6.096   3.927 -0.8988  1.4916 -3.3358
  331MOL0     H45653  11.627   6.213   4.063 -0.7501  1.6029 -0.0654
  331MOL0     H45654  11.762   6.351   3.956 -4.6272  0.2149  1.2210
  331MOL0     H45655  11.734   6.297   3.795  0.4399  3.7015  1.3542
  331MOL0     H45656  11.953   6.215   3.852 -1.1631  2.2945 -0.2971
  331MOL0     H45657  11.863   6.071   3.881  2.5526 -0.5540  1.6334
  331MOL0     H45658  10.718   6.281   3.874 -0.3670  1.5513 -1.8490
  331MOL0     H45659  10.512   6.267   3.744 -0.2609 -0.2729  0.0453
  331MOL0     H45660  10.104   5.996   3.567  1.5752  0.7893  0.7512
  331MOL0     H45661   9.928   6.027   3.429  1.4716  1.1697  0.8334
  331MOL0     H45662   8.118   6.307   2.957 -0.3672  0.5118  1.8802
  331MOL0     H45663   7.864   6.287   3.018  0.3255 -0.2318 -0.3066
  331MOL0     H45664   7.523   6.193   3.260 -0.1776  0.5999  0.8478
  331MOL0     H45665   7.287   6.157   3.250  0.1886  1.1295 -1.7879
  331MOL0     H45666   7.123   5.750   3.266  2.3081  0.3314  0.5552
  331MOL0     H45667   7.110   5.854   3.408  1.0277 -0.3965 -0.3541
  331MOL0     H45668   6.910   5.970   3.300 -1.3982 -0.0222 -1.4125
  331MOL0     H45669   6.894   5.790   3.343 -0.8837  0.6701  0.4222
  331MOL0     H45670   6.858   5.926   3.093 -0.2105 -0.5701 -1.2653
  331MOL0     H45671   6.950   5.780   3.077 -1.3668 -0.6262 -0.4647
  331MOL0     H45672   6.744   5.662   3.198  2.0670 -1.6075 -2.0318
  331MOL0     H45673   6.713   5.733   3.040  0.4185 -1.2554 -1.0593
  331MOL0     H45674   6.459   5.964   3.297 -3.2543 -2.9239 -0.5238
  331MOL0     H45675   7.322   5.752   3.161  0.6076 -0.4274  0.1121
  331MOL0     H45676   7.509   5.656   3.077 -0.3248  0.7871 -0.3236
  331MOL0     H45677   7.652   5.745   3.042  0.9569  0.4691  1.9965
  331MOL0     H45678   7.639   5.669   3.200 -0.9208 -0.4112  1.2696
  332MOL0     O45679   8.442   8.709   6.108 -0.2932  0.6173 -0.6796
  332MOL0     C45680   8.560   8.688   6.148  0.4090  0.4660  0.0718
  332MOL0     O45681   8.589   8.611   6.262  0.5467 -0.4583  0.2688
  332MOL0     C45682   8.484   8.589   6.357  0.4793  0.5225 -0.1208
  332MOL0     C45683   8.382   8.494   6.326  0.4569  0.3644  0.2885
  332MOL0     C45684   8.271   8.472   6.414  0.4434  0.3706 -0.5083
  332MOL0     C45685   8.267   8.549   6.531  0.3383 -0.1758 -0.0116
  332MOL0     O45686   8.172   8.530   6.630 -0.4412  0.5703 -0.3923
  332MOL0     C45687   8.067   8.443   6.616  0.3812 -0.2321 -0.2124
  332MOL0     C45688   7.985   8.468   6.751  0.1697 -1.5650  0.2033
  332MOL0     C45689   7.887   8.360   6.785  0.3679  0.3804 -0.6011
  332MOL0     C45690   7.783   8.385   6.893  0.9054 -0.5094  0.1288
  332MOL0     C45691   7.740   8.257   6.958  0.0421  0.8820  0.1780
  332MOL0     C45692   7.663   8.287   7.089  0.2858  0.5931  0.2989
  332MOL0     C45693   7.599   8.162   7.150 -0.1539  0.7307  0.5580
  332MOL0     C45694   7.684   8.049   7.206 -1.0033  0.1154 -0.3076
  332MOL0     N45695   7.791   8.081   7.300 -0.5335 -0.1670  0.4312
  332MOL0     C45696   7.911   8.018   7.289 -0.6186 -0.2459  0.0080
  332MOL0     C45697   7.978   8.030   7.411  0.2582 -0.6481 -0.8416
  332MOL0     C45698   8.122   7.978   7.437  0.2989  0.1010  0.2137
  332MOL0     C45699   8.211   8.079   7.504 -0.2736  0.1089 -0.8744
  332MOL0     C45700   8.353   8.030   7.496 -0.2236  0.0504 -0.4292
  332MOL0     C45701   8.422   8.072   7.374  0.1089 -0.2133 -0.4204
  332MOL0     O45702   8.554   8.015   7.363 -0.4989 -0.4144 -0.0228
  332MOL0     C45703   8.649   8.059   7.283 -1.4742 -0.5807  0.0760
  332MOL0     C45704   8.663   8.178   7.221 -0.4217  0.5396 -0.6268
  332MOL0     C45705   8.768   8.214   7.127 -0.2574  0.5031  0.1545
  332MOL0     C45706   8.753   8.338   7.042 -0.4406 -0.7930 -0.8574
  332MOL0     C45707   8.883   8.128   7.125  0.0649  0.0321 -0.4749
  332MOL0     C45708   9.011   8.167   7.060  0.3364  0.1000 -0.2256
  332MOL0     O45709   9.110   8.072   7.073  0.1751 -0.0406  0.2330
  332MOL0     C45710   9.241   8.104   7.025 -0.1688  0.3579 -0.2817
  332MOL0     C45711   9.293   8.038   6.913  0.2813  0.2207 -0.5413
  332MOL0     C45712   9.423   8.053   6.877 -0.0213  0.3395 -0.3475
  332MOL0     C45713   9.501   8.149   6.944 -0.6200 -0.2961  0.0804
  332MOL0     O45714   9.622   8.173   6.888  0.2679 -0.2212  0.4045
  332MOL0     C45715   9.730   8.154   6.981 -0.1060  0.2008 -0.1809
  332MOL0     C45716   9.856   8.220   6.936  0.4577  0.1512 -0.1112
  332MOL0     C45717   9.968   8.230   7.040 -0.2030 -0.0242 -0.7537
  332MOL0     C45718  10.095   8.300   6.969  0.6933 -0.7266  0.2571
  332MOL0     C45719  10.225   8.308   7.061 -0.0165 -0.0778  0.2713
  332MOL0     C45720  10.338   8.377   6.977 -0.4120 -0.1412 -0.0162
  332MOL0     C45721  10.450   8.416   7.068 -0.1169 -0.3242 -0.1905
  332MOL0     C45722  10.573   8.469   6.990  0.8374  0.5263 -0.0146
  332MOL0    Cl45723  10.678   8.559   7.093  0.2362 -0.3975 -0.6377
  332MOL0     C45724   9.443   8.231   7.040  0.2645 -0.8324 -0.8992
  332MOL0     C45725   9.307   8.212   7.081  0.5424 -0.0915  0.4386
  332MOL0     O45726   9.022   8.271   6.992 -0.5840  0.0355 -0.1327
  332MOL0     C45727   8.872   8.006   7.189  0.3331 -0.1325  0.5410
  332MOL0     C45728   8.764   7.973   7.270  1.0796 -0.2727 -0.1124
  332MOL0     N45729   7.898   8.116   7.488  0.2905 -0.3539  0.5407
  332MOL0     N45730   7.780   8.138   7.426 -0.6693 -0.7061  0.0488
  332MOL0     C45731   8.371   8.646   6.563  0.3390  0.7511 -0.6991
  332MOL0     C45732   8.478   8.659   6.478 -0.0456  0.9543 -0.6715
  332MOL0     C45733   8.690   8.737   6.084  0.2129  0.5999  0.3636
  332MOL0     C45734   8.814   8.691   6.136 -0.8050 -0.2219  0.3022
  332MOL0     C45735   8.937   8.750   6.095 -0.2666  0.1378  0.5305
  332MOL0     C45736   8.940   8.857   6.008 -0.3373  0.2490 -1.1255
  332MOL0     O45737   9.063   8.914   5.967 -0.1401 -0.3533 -0.0179
  332MOL0     C45738   9.187   8.843   5.986 -0.6203  0.3200 -0.2398
  332MOL0     C45739   9.302   8.887   5.894  1.1515  0.4073  0.7082
  332MOL0     C45740   9.437   8.864   5.950 -0.4725  0.9926  1.0237
  332MOL0     C45741   9.543   8.906   5.854 -0.3235  0.6211 -0.5015
  332MOL0     C45742   9.675   8.889   5.925  0.0254 -0.1942  0.4653
  332MOL0     C45743   9.788   8.872   5.967 -0.2601  0.8002  0.5880
  332MOL0     C45744   8.820   8.899   5.952  0.7834 -0.8717  0.3272
  332MOL0     C45745   8.696   8.834   5.977  1.3379 -0.2093  0.0930
  332MOL0     C45746   8.573   8.880   5.897  0.3271 -0.1000 -0.0872
  332MOL0     H45747   8.395   8.434   6.237  2.7052 -0.7525  1.2955
  332MOL0     H45748   8.190   8.400   6.404 -1.6751  2.5719 -0.2480
  332MOL0     H45749   8.099   8.339   6.628  0.9843  0.0705  0.9867
  332MOL0     H45750   8.004   8.455   6.528  0.4784 -0.4322 -0.3096
  332MOL0     H45751   8.061   8.476   6.829  1.7468 -1.3188 -1.3029
  332MOL0     H45752   7.928   8.561   6.755  1.0321 -1.0255  0.1042
  332MOL0     H45753   7.817   8.349   6.702 -3.5107  0.4816  2.3945
  332MOL0     H45754   7.943   8.268   6.806 -1.2262 -1.0318 -2.2448
  332MOL0     H45755   7.840   8.438   6.969  0.3014  2.4067 -1.3234
  332MOL0     H45756   7.703   8.451   6.858  1.1678 -0.4001 -0.2789
  332MOL0     H45757   7.828   8.195   6.978  0.4053  1.3138 -0.0790
  332MOL0     H45758   7.679   8.194   6.893 -0.9125  1.0156  0.9097
  332MOL0     H45759   7.727   8.326   7.168 -0.1662 -1.0045  1.5321
  332MOL0     H45760   7.589   8.363   7.062 -0.7790  0.2352  2.0090
  332MOL0     H45761   7.527   8.114   7.083  1.1230 -1.2669  0.5220
  332MOL0     H45762   7.543   8.192   7.239 -2.0247  1.0539 -0.6577
  332MOL0     H45763   7.620   7.977   7.257  1.9461 -1.3400  1.6505
  332MOL0     H45764   7.732   7.989   7.128  0.1352 -0.7485  1.0003
  332MOL0     H45765   7.947   7.965   7.202  0.5676  0.8444 -0.2022
  332MOL0     H45766   8.160   7.950   7.338 -0.2778  0.4940 -0.1213
  332MOL0     H45767   8.111   7.887   7.496 -0.8547  1.3116  1.9649
  332MOL0     H45768   8.205   8.174   7.451  0.6440  0.4859 -0.3139
  332MOL0     H45769   8.182   8.092   7.608 -0.2292  2.7846 -1.1412
  332MOL0     H45770   8.409   8.079   7.576  0.6146  0.6236 -1.3444
  332MOL0     H45771   8.350   7.921   7.507  0.4678  0.0158 -0.5512
  332MOL0     H45772   8.362   8.022   7.297 -0.0619 -2.5119  1.0731
  332MOL0     H45773   8.417   8.180   7.361  1.4964 -0.2081 -1.0690
  332MOL0     H45774   8.584   8.248   7.244 -1.2046  0.1790 -2.0856
  332MOL0     H45775   8.820   8.417   7.077 -2.5217 -0.3733  2.7190
  332MOL0     H45776   8.654   8.382   7.057 -0.6155 -1.4023 -0.1926
  332MOL0     H45777   8.763   8.316   6.935 -1.9628 -1.9938 -0.7849
  332MOL0     H45778   9.226   7.959   6.882  0.5683 -0.2450  0.0020
  332MOL0     H45779   9.459   7.995   6.793 -3.0419 -1.9172 -0.2866
  332MOL0     H45780   9.707   8.191   7.082  0.9849 -0.4844  0.3365
  332MOL0     H45781   9.752   8.048   6.997 -0.1701 -0.1650 -2.2430
  332MOL0     H45782   9.877   8.159   6.847 -1.1271  2.9644 -2.5893
  332MOL0     H45783   9.833   8.324   6.912  0.5587 -0.2350 -2.0562
  332MOL0     H45784   9.996   8.132   7.078  1.3347  0.7604  0.2658
  332MOL0     H45785   9.943   8.292   7.127  1.0303 -1.4663  0.7001
  332MOL0     H45786  10.072   8.393   6.916  0.9555 -1.6028 -1.4705
  332MOL0     H45787  10.117   8.245   6.878  0.7601 -0.1288 -0.0972
  332MOL0     H45788  10.198   8.357   7.155  2.9242 -0.4543  1.4351
  332MOL0     H45789  10.258   8.207   7.086  1.5151  0.3247 -0.0325
  332MOL0     H45790  10.293   8.468   6.936  2.3581  1.4586  0.2632
  332MOL0     H45791  10.370   8.311   6.896 -0.3101  1.4883 -1.3438
  332MOL0     H45792  10.477   8.343   7.145 -0.4575 -0.4712 -0.2099
  332MOL0     H45793  10.413   8.504   7.120  0.8052  0.1366 -0.2855
  332MOL0     H45794  10.554   8.551   6.920  2.3393  1.3935  0.5288
  332MOL0     H45795  10.624   8.392   6.932 -0.2463 -0.2574  0.0318
  332MOL0     H45796   9.501   8.306   7.094  0.5543 -2.4763  1.2328
  332MOL0     H45797   9.254   8.263   7.160 -2.0694 -3.7074  1.2678
  332MOL0     H45798   8.947   7.928   7.184 -0.2299 -0.8149  2.1010
  332MOL0     H45799   8.772   7.877   7.320 -0.3435  0.4783  1.6581
  332MOL0     H45800   8.371   8.702   6.656  1.9024  0.1973 -0.3409
  332MOL0     H45801   8.549   8.736   6.506 -0.6373  1.3471 -0.2344
  332MOL0     H45802   8.821   8.620   6.219  2.3916 -0.8657 -0.3620
  332MOL0     H45803   9.021   8.716   6.156 -0.2593 -1.4725 -0.3309
  332MOL0     H45804   9.225   8.858   6.088 -0.6909  1.3955 -0.3574
  332MOL0     H45805   9.168   8.739   5.961 -0.8628  0.4218 -0.4836
  332MOL0     H45806   9.280   8.990   5.861 -0.7747  0.4637  1.9820
  332MOL0     H45807   9.295   8.825   5.804  3.0915 -0.4528  1.1147
  332MOL0     H45808   9.457   8.909   6.048  0.9942  0.6267  0.9261
  332MOL0     H45809   9.453   8.757   5.965 -0.5743  0.6662 -0.9359
  332MOL0     H45810   9.530   9.014   5.837 -0.2063  1.1522  2.2827
  332MOL0     H45811   9.537   8.848   5.761  0.4742 -2.5140  1.2651
  332MOL0     H45812   9.880   8.856   6.019  1.0236  0.8538 -1.5330
  332MOL0     H45813   8.832   8.970   5.870  1.8609 -2.2234 -0.7520
  332MOL0     H45814   8.497   8.922   5.963 -0.1429 -0.5575 -0.3299
  332MOL0     H45815   8.596   8.940   5.808 -0.2258 -3.1632 -2.5040
  332MOL0     H45816   8.534   8.798   5.836  0.0089  0.3440 -0.4912
  333MOL0     O45817   5.827   0.093   7.359 -0.5729  0.3826 -0.0411
  333MOL0     C45818   5.860   0.189   7.287 -0.5578 -0.4223 -0.1101
  333MOL0     O45819   5.987   0.248   7.282 -0.0575  0.6421  0.6456
  333MOL0     C45820   6.099   0.196   7.341 -0.6001 -0.3463  0.5387
  333MOL0     C45821   6.221   0.234   7.293 -0.9857 -0.1245  0.3473
  333MOL0     C45822   6.340   0.183   7.341 -0.4322  0.2562  0.2158
  333MOL0     C45823   6.340   0.089   7.458  0.6291  0.6433  1.3340
  333MOL0     O45824   6.447   0.028   7.501  0.1679 -1.2720 -0.9320
  333MOL0     C45825   6.573   0.104   7.487  0.2542  0.3937  0.0211
  333MOL0     C45826   6.654   0.069   7.360  0.0561  0.1185 -0.8314
  333MOL0     C45827   6.755   0.175   7.339  0.6445 -0.2452  0.1075
  333MOL0     C45828   6.811   0.194   7.198  0.2093  0.3585 -0.9839
  333MOL0     C45829   6.878   0.067   7.144 -0.0295  0.2112  0.0705
  333MOL0     C45830   6.952   0.077   7.010 -0.0491  0.0567  0.0929
  333MOL0     C45831   6.873   0.141   6.895  0.9913  0.6411 -0.1591
  333MOL0     C45832   6.921   0.095   6.752 -0.6375 -0.0043  0.4561
  333MOL0     N45833   7.053   0.158   6.724  0.1646  0.2578 -0.0799
  333MOL0     C45834   7.177   0.118   6.770 -0.3581 -0.0074  0.7593
  333MOL0     C45835   7.264   0.213   6.724 -0.0898  0.3780 -0.3565
  333MOL0     C45836   7.412   0.208   6.742 -0.8360  0.4281 -0.0315
  333MOL0     C45837   7.478   0.322   6.656 -0.4371 -1.1864  0.0149
  333MOL0     C45838   7.627   0.283   6.653 -0.5114 -0.7601 -0.0878
  333MOL0     C45839   7.720   0.408   6.632 -0.2614  0.1802  0.1433
  333MOL0     O45840   7.841   0.380   6.703  0.0874  0.1042  0.0624
  333MOL0     C45841   7.960   0.359   6.634  0.4226 -0.2284 -0.7542
  333MOL0     C45842   7.976   0.309   6.502  0.3722  0.1399  0.4310
  333MOL0     C45843   8.097   0.289   6.437  0.0928  0.2231 -0.3008
  333MOL0     C45844   8.102   0.251   6.291  0.0928  0.4984  0.3080
  333MOL0     C45845   8.218   0.297   6.510  0.1130  0.1801  0.3954
  333MOL0     C45846   8.348   0.239   6.465 -0.1605  0.1496  0.6171
  333MOL0     O45847   8.456   0.292   6.522  0.1540 -0.1278  0.1253
  333MOL0     C45848   8.576   0.227   6.526  0.4612  0.5046  0.7404
  333MOL0     C45849   8.589   0.084   6.537 -0.0616 -0.1652  0.3245
  333MOL0     C45850   8.712   0.021   6.537  0.5353 -0.1913 -2.0744
  333MOL0     C45851   8.828   0.092   6.533 -0.5914  0.2753 -0.4110
  333MOL0     O45852   8.951   0.027   6.523  0.2863 -0.1704 -0.1336
  333MOL0     C45853   8.963  -0.086   6.612 -0.5338  1.2406 -1.5683
  333MOL0     C45854   9.107  -0.131   6.601  0.2805 -0.1466 -0.6371
  333MOL0     C45855   9.221  -0.041   6.644 -0.5324  1.0431  0.4520
  333MOL0     C45856   9.360  -0.090   6.582 -0.0489 -0.1324 -0.0838
  333MOL0     C45857   9.477  -0.010   6.638  0.1662 -0.3473 -0.0260
  333MOL0     C45858   9.504  -0.062   6.787 -0.3348  0.5517  0.7658
  333MOL0     C45859   9.632   0.001   6.836 -1.0529 -0.5944 -0.8931
  333MOL0     C45860   9.648   0.026   6.987  0.1001 -0.1091  0.3785
  333MOL0    Cl45861   9.820   0.072   7.018 -0.4342 -0.3177 -0.1062
  333MOL0     C45862   8.817   0.236   6.511 -0.8101  0.2286 -0.1752
  333MOL0     C45863   8.691   0.294   6.512 -0.8904 -0.3869  0.5542
  333MOL0     O45864   8.351   0.147   6.387 -0.1699  0.2754  0.8726
  333MOL0     C45865   8.208   0.339   6.644  0.2159 -0.3802  0.1271
  333MOL0     C45866   8.078   0.364   6.704 -0.4897  0.5567  0.7204
  333MOL0     N45867   7.193   0.318   6.665  0.2147  0.3237 -0.3454
  333MOL0     N45868   7.069   0.274   6.655  0.5133 -0.5846 -0.4638
  333MOL0     C45869   6.210   0.042   7.499 -1.6049 -0.1160  0.7092
  333MOL0     C45870   6.095   0.096   7.442 -1.3705 -0.5231  0.3127
  333MOL0     C45871   5.758   0.265   7.217  0.3596  0.2801  0.3388
  333MOL0     C45872   5.772   0.401   7.198 -0.0525 -0.0322 -0.0562
  333MOL0     C45873   5.670   0.487   7.159  0.3683  0.5941  0.3257
  333MOL0     C45874   5.552   0.438   7.113  0.2272  0.1686  0.2510
  333MOL0     O45875   5.451   0.532   7.086 -0.6866  0.5744 -0.3973
  333MOL0     C45876   5.351   0.489   6.986 -0.4434  0.4740 -0.3409
  333MOL0     C45877   5.269   0.605   6.928  0.5715  0.5955 -0.8912
  333MOL0     C45878   5.362   0.703   6.850 -0.4798  0.3791  0.0129
  333MOL0     C45879   5.292   0.837   6.836 -0.2875  0.4244  0.3043
  333MOL0     C45880   5.153   0.834   6.794 -0.2490 -0.2151 -0.2419
  333MOL0     C45881   5.035   0.850   6.765 -0.6838 -1.0850 -0.1386
  333MOL0     C45882   5.543   0.297   7.098 -0.7484  0.4533 -0.3623
  333MOL0     C45883   5.636   0.216   7.164 -0.4244 -0.8850 -0.6698
  333MOL0     C45884   5.601   0.075   7.187 -0.0836  0.5420 -0.0424
  333MOL0     H45885   6.218   0.310   7.215 -2.7063 -1.7459 -1.2593
  333MOL0     H45886   6.433   0.216   7.296 -0.1041 -1.3013 -0.3015
  333MOL0     H45887   6.629   0.080   7.578 -1.8842 -1.5125  0.9421
  333MOL0     H45888   6.548   0.210   7.490 -3.1209 -0.3210  2.0637
  333MOL0     H45889   6.692  -0.033   7.374 -3.1828 -1.0386  0.2537
  333MOL0     H45890   6.579   0.051   7.283 -1.5692  3.3650 -0.1936
  333MOL0     H45891   6.701   0.265   7.369 -1.8671 -1.6370  0.0009
  333MOL0     H45892   6.838   0.156   7.408 -1.2872 -0.1006  2.6021
  333MOL0     H45893   6.726   0.229   7.140 -0.1773  1.7983  0.3906
  333MOL0     H45894   6.881   0.278   7.197  0.6563  0.0902 -4.4531
  333MOL0     H45895   6.796  -0.003   7.124 -1.0296  1.3533  0.1069
  333MOL0     H45896   6.931   0.021   7.228 -0.4679 -1.2727 -0.4297
  333MOL0     H45897   7.041   0.138   7.025  0.1767 -0.4724  0.9293
  333MOL0     H45898   6.979  -0.025   6.982  4.3859  1.1820 -0.4307
  333MOL0     H45899   6.864   0.248   6.917  0.2829 -0.0082  3.3723
  333MOL0     H45900   6.769   0.108   6.905  1.3307 -0.1891  0.8155
  333MOL0     H45901   6.927  -0.013   6.735 -0.0772 -0.0852  1.1260
  333MOL0     H45902   6.846   0.133   6.682 -1.7714 -4.4309 -1.0926
  333MOL0     H45903   7.205   0.023   6.813 -0.4743 -0.6767 -0.6012
  333MOL0     H45904   7.441   0.112   6.697 -1.9650 -0.8456  1.7956
  333MOL0     H45905   7.448   0.211   6.845 -1.2570 -3.5679  0.4199
  333MOL0     H45906   7.434   0.317   6.556 -0.2909 -1.8794 -0.0204
  333MOL0     H45907   7.465   0.419   6.703 -2.4865 -2.5281  2.4749
  333MOL0     H45908   7.663   0.251   6.751 -0.8068 -1.8018 -0.3018
  333MOL0     H45909   7.646   0.204   6.580  2.7860  0.5964 -0.8590
  333MOL0     H45910   7.753   0.414   6.528  1.3160 -0.7384  0.5449
  333MOL0     H45911   7.674   0.504   6.656 -0.5220  0.7738 -2.4205
  333MOL0     H45912   7.893   0.291   6.435  0.9586  0.2575 -0.3401
  333MOL0     H45913   8.180   0.301   6.232 -1.2195  1.1373 -0.9597
  333MOL0     H45914   8.006   0.255   6.239 -0.3880 -1.2409  0.9997
  333MOL0     H45915   8.116   0.142   6.288 -3.1663 -0.1986  3.7108
  333MOL0     H45916   8.501   0.022   6.553  0.8363 -1.0505  2.1322
  333MOL0     H45917   8.702  -0.086   6.543  2.1250 -0.4961 -3.8874
  333MOL0     H45918   8.942  -0.038   6.708 -0.3357  2.5889 -2.1748
  333MOL0     H45919   8.898  -0.171   6.591 -0.8127  1.0501 -0.0341
  333MOL0     H45920   9.102  -0.225   6.657  0.8896 -1.4170 -2.6228
  333MOL0     H45921   9.133  -0.143   6.496  2.5826  0.5319 -0.2021
  333MOL0     H45922   9.214  -0.040   6.754  0.2403 -0.2691  0.5336
  333MOL0     H45923   9.211   0.065   6.622  3.3157  2.0011  2.4127
  333MOL0     H45924   9.362  -0.065   6.475  0.4579  0.3330  0.0265
  333MOL0     H45925   9.374  -0.197   6.597 -1.1060 -0.3375 -0.5134
  333MOL0     H45926   9.567  -0.013   6.577  0.3405 -1.6810  0.2645
  333MOL0     H45927   9.439   0.089   6.665 -1.4253 -1.2049  1.0596
  333MOL0     H45928   9.517  -0.171   6.794 -4.1305 -0.1470 -0.6122
  333MOL0     H45929   9.424  -0.025   6.852 -0.3348 -1.0243  1.7132
  333MOL0     H45930   9.642   0.102   6.796  0.3081 -0.0156  0.7957
  333MOL0     H45931   9.715  -0.062   6.800  1.8191  2.5016 -0.1513
  333MOL0     H45932   9.630  -0.072   7.032  0.9338 -0.6296 -0.3902
  333MOL0     H45933   9.576   0.100   7.023 -1.1646 -0.6834 -0.8940
  333MOL0     H45934   8.905   0.299   6.499 -0.7701  0.6143  1.8341
  333MOL0     H45935   8.678   0.402   6.507 -1.5440 -0.4570  0.6270
  333MOL0     H45936   8.298   0.346   6.704  0.5490  1.9008 -0.5714
  333MOL0     H45937   8.066   0.376   6.811 -1.2317  0.4520  0.6546
  333MOL0     H45938   6.207  -0.033   7.578  2.3728  0.0637  1.2241
  333MOL0     H45939   6.007   0.055   7.492 -0.2876 -0.8713  2.0389
  333MOL0     H45940   5.864   0.437   7.244 -1.8404  0.8126  3.1344
  333MOL0     H45941   5.674   0.595   7.171  0.7631  0.6924 -0.5962
  333MOL0     H45942   5.404   0.431   6.909 -0.7414  0.1827 -0.3298
  333MOL0     H45943   5.285   0.418   7.038 -0.9431 -0.6657 -2.4198
  333MOL0     H45944   5.232   0.649   7.021  2.9604 -1.3335  1.1076
  333MOL0     H45945   5.188   0.573   6.861  0.9979 -0.9399 -0.7148
  333MOL0     H45946   5.453   0.714   6.909 -0.6392 -2.1376  0.8607
  333MOL0     H45947   5.380   0.645   6.759  1.0373 -2.1605  1.8022
  333MOL0     H45948   5.351   0.900   6.769  1.1014  4.3837  4.7330
  333MOL0     H45949   5.296   0.878   6.937 -0.3725 -0.5977  0.7425
  333MOL0     H45950   4.934   0.874   6.736 -0.6333  0.5020  0.8927
  333MOL0     H45951   5.452   0.258   7.053 -1.8046 -1.8197  3.2714
  333MOL0     H45952   5.517   0.031   7.133  0.2733  1.8132 -1.6909
  333MOL0     H45953   5.689   0.020   7.151  0.6162  3.5930 -3.5242
  333MOL0     H45954   5.587   0.046   7.292 -1.3951 -0.6148 -0.5137
  334MOL0     O45955   0.295  11.123   8.672  0.9061 -0.3341  0.9997
  334MOL0     C45956   0.322  11.239   8.629  0.2467 -0.1876 -0.6449
  334MOL0     O45957   0.448  11.287   8.631  0.3790  0.6899  0.2583
  334MOL0     C45958   0.552  11.207   8.675  0.8074  0.3625  0.9343
  334MOL0     C45959   0.651  11.267   8.757  0.5394  0.1328  0.5116
  334MOL0     C45960   0.747  11.186   8.813 -0.5977  0.9441 -0.4710
  334MOL0     C45961   0.772  11.055   8.773  0.0454  0.2217  0.4057
  334MOL0     O45962   0.878  10.988   8.828  0.2849  0.0347 -0.4139
  334MOL0     C45963   0.850  10.899   8.939 -0.5670  0.3803 -0.0945
  334MOL0     C45964   0.976  10.857   9.017  1.0458  0.1861  0.0308
  334MOL0     C45965   1.047  10.977   9.068 -1.4452 -0.4464  0.2849
  334MOL0     C45966   1.147  10.942   9.186 -0.0117 -0.3923  0.2322
  334MOL0     C45967   1.074  10.923   9.316 -0.2315 -0.7118 -0.3878
  334MOL0     C45968   0.998  11.045   9.375 -0.5866  0.1446 -0.7927
  334MOL0     C45969   0.948  11.005   9.518  0.2911  0.8472 -0.4395
  334MOL0     C45970   0.912  11.128   9.593 -0.5288 -0.5566 -0.4448
  334MOL0     N45971   0.841  11.100   9.721  0.5085 -0.4585 -0.5817
  334MOL0     C45972   0.707  11.060   9.713 -0.3228  0.8399  0.5705
  334MOL0     C45973   0.690  11.008   9.838 -0.3703  0.5386 -0.2910
  334MOL0     C45974   0.562  10.937   9.861 -1.1233 -0.3325 -0.6207
  334MOL0     C45975   0.583  10.789   9.864  0.3221  0.4200  0.0416
  334MOL0     C45976   0.598  10.735  10.003 -0.7828  0.3045 -0.1334
  334MOL0     C45977   0.471  10.745  10.085 -0.0015  0.3603  0.4257
  334MOL0     O45978   0.360  10.672  10.020  0.2324 -0.7836 -0.4935
  334MOL0     C45979   0.241  10.666  10.083 -0.2040 -0.5996 -0.0030
  334MOL0     C45980   0.218  10.567  10.176  0.2257 -0.7299 -1.1177
  334MOL0     C45981   0.106  10.577  10.265  0.4399  0.0200 -1.0899
  334MOL0     C45982   0.084  10.464  10.367 -0.1656 -0.7928  0.3760
  334MOL0     C45983   0.016  10.688  10.253  0.5905 -0.8628  0.3839
  334MOL0     C45984  -0.110  10.709  10.338 -0.8015  1.3967  0.3828
  334MOL0     O45985  -0.180  10.603  10.382  0.2984  0.5518 -0.3950
  334MOL0     C45986  -0.281  10.623  10.471 -0.7766 -0.6056  0.0448
  334MOL0     C45987  -0.238  10.642  10.607 -0.1598  0.8062  0.1079
  334MOL0     C45988  -0.343  10.628  10.704 -1.7583 -0.0469  0.2884
  334MOL0     C45989  -0.468  10.588  10.669  0.6358 -0.2507 -0.5534
  334MOL0     O45990  -0.550  10.568  10.774 -0.3192  0.7272 -1.0630
  334MOL0     C45991  -0.692  10.583  10.768 -0.7266  0.6577 -0.0560
  334MOL0     C45992  -0.739  10.500  10.895 -0.2894  0.2956 -0.4029
  334MOL0     C45993  -0.887  10.529  10.919 -0.2233 -0.5658  0.2431
  334MOL0     C45994  -0.949  10.464  11.041  0.0331 -0.1990  0.2434
  334MOL0     C45995  -1.083  10.526  11.087 -0.0827  0.2933  0.1906
  334MOL0     C45996  -1.141  10.447  11.207  0.2356 -1.1340 -0.4427
  334MOL0     C45997  -1.275  10.504  11.266 -0.1857  0.3717 -0.0649
  334MOL0     C45998  -1.333  10.423  11.388  1.9247 -0.3079 -0.8934
  334MOL0    Cl45999  -1.458  10.510  11.489 -0.3656  0.2900  0.1619
  334MOL0     C46000  -0.513  10.583  10.540  0.2044  0.0326  0.5242
  334MOL0     C46001  -0.418  10.597  10.435 -0.0544 -0.8451  0.1072
  334MOL0     O46002  -0.141  10.822  10.365 -0.6208 -0.5171 -0.2977
  334MOL0     C46003   0.037  10.779  10.146 -0.5053  1.1192  0.3281
  334MOL0     C46004   0.144  10.762  10.062 -0.4510  0.2428  1.1381
  334MOL0     N46005   0.804  11.020   9.908 -0.4618 -0.0829  0.3463
  334MOL0     N46006   0.896  11.085   9.838  0.4663 -0.4144 -0.2255
  334MOL0     C46007   0.681  10.999   8.675  0.4297  0.0429 -0.7187
  334MOL0     C46008   0.572  11.077   8.631  0.2238 -0.1448  0.8072
  334MOL0     C46009   0.214  11.344   8.593 -0.6878  1.2445  1.3640
  334MOL0     C46010   0.254  11.478   8.587  0.2596  0.1782  0.5700
  334MOL0     C46011   0.178  11.577   8.534 -0.2845 -0.6621 -0.1009
  334MOL0     C46012   0.045  11.551   8.504 -0.1391 -0.7453  0.5925
  334MOL0     O46013  -0.057  11.641   8.474 -0.8864 -0.6950  0.7532
  334MOL0     C46014  -0.032  11.785   8.476 -0.0467  0.4756  0.6587
  334MOL0     C46015  -0.078  11.840   8.605 -0.1387  0.2244  0.4162
  334MOL0     C46016  -0.020  11.778   8.733 -0.1312 -0.9142  0.8915
  334MOL0     C46017  -0.114  11.804   8.841  1.3728  0.5852 -0.9940
  334MOL0     C46018  -0.140  11.950   8.856  0.1908  0.1160 -0.7888
  334MOL0     C46019  -0.182  12.064   8.865  0.3721  0.7390  0.6233
  334MOL0     C46020   0.000  11.419   8.506 -0.3060  1.3387  0.3085
  334MOL0     C46021   0.084  11.310   8.557  0.0986  0.2484 -0.0864
  334MOL0     C46022   0.033  11.170   8.546 -0.2179  0.7784  0.4774
  334MOL0     H46023   0.645  11.367   8.799  3.3474 -0.1421  1.7496
  334MOL0     H46024   0.829  11.226   8.872  0.0659 -0.0258 -0.7218
  334MOL0     H46025   0.808  10.807   8.897  1.7743 -0.0852 -1.6003
  334MOL0     H46026   0.771  10.940   9.003 -1.3316  0.3796 -1.0085
  334MOL0     H46027   0.941  10.806   9.107  1.1410  0.8970  0.4745
  334MOL0     H46028   1.036  10.783   8.963  0.1331  0.6550 -1.7103
  334MOL0     H46029   1.103  11.014   8.981 -0.0846  2.9304  2.3772
  334MOL0     H46030   0.988  11.064   9.098  1.9205  1.2715  2.6451
  334MOL0     H46031   1.203  10.852   9.160 -0.0127 -1.2664  2.9125
  334MOL0     H46032   1.212  11.027   9.208  0.9962 -1.4941  1.7370
  334MOL0     H46033   1.149  10.909   9.394 -1.1284  0.3613  0.7293
  334MOL0     H46034   1.008  10.837   9.301 -0.5377 -0.5668  0.0773
  334MOL0     H46035   1.056  11.136   9.393 -2.1263  0.9825  0.0906
  334MOL0     H46036   0.920  11.071   9.303  1.6223 -1.2827 -3.9514
  334MOL0     H46037   1.028  10.951   9.568 -1.3609  0.6686  2.2019
  334MOL0     H46038   0.866  10.932   9.512 -0.1144  1.1474  1.1250
  334MOL0     H46039   1.004  11.183   9.612 -0.7284  0.5699 -2.5600
  334MOL0     H46040   0.848  11.194   9.534 -0.4831  2.7159  2.7963
  334MOL0     H46041   0.646  11.063   9.623  0.7650  1.3620 -0.1769
  334MOL0     H46042   0.495  10.949   9.776 -2.4382 -2.8646 -0.0621
  334MOL0     H46043   0.509  10.980   9.947  0.7665  0.5471  0.1500
  334MOL0     H46044   0.501  10.732   9.819 -0.2269  0.1656  1.3020
  334MOL0     H46045   0.675  10.755   9.816  0.0891 -1.1884  0.6728
  334MOL0     H46046   0.632  10.631  10.001 -1.0296  0.2270 -0.3117
  334MOL0     H46047   0.680  10.785  10.056 -0.1981  0.0278 -0.7474
  334MOL0     H46048   0.483  10.703  10.185  0.4707 -2.0392 -0.5715
  334MOL0     H46049   0.434  10.847  10.100 -2.6105 -0.6577  1.5519
  334MOL0     H46050   0.291  10.488  10.191  2.7858  1.6860 -0.0096
  334MOL0     H46051  -0.014  10.418  10.353 -1.6209  2.3324 -0.8120
  334MOL0     H46052   0.086  10.503  10.469 -0.0715  0.8319 -0.2057
  334MOL0     H46053   0.150  10.379  10.353  0.6560 -0.1203  0.0674
  334MOL0     H46054  -0.137  10.679  10.623 -0.8779  2.3372  1.2780
  334MOL0     H46055  -0.312  10.650  10.805  2.1090  0.2607 -0.7987
  334MOL0     H46056  -0.718  10.688  10.780 -0.8670  0.7247 -0.9103
  334MOL0     H46057  -0.730  10.534  10.678  2.4847 -0.4674 -0.9491
  334MOL0     H46058  -0.728  10.394  10.871 -0.0929  0.4768 -1.1209
  334MOL0     H46059  -0.682  10.515  10.987  0.6211 -0.9695 -0.7431
  334MOL0     H46060  -0.942  10.489  10.833 -2.7959  0.4929  1.2903
  334MOL0     H46061  -0.901  10.638  10.925 -3.2106 -0.8804  0.3398
  334MOL0     H46062  -0.878  10.458  11.124 -1.1396 -1.3852  1.2011
  334MOL0     H46063  -0.966  10.362  11.007 -2.6185 -0.0669  0.9691
  334MOL0     H46064  -1.066  10.631  11.112 -2.0006  1.7501 -3.8272
  334MOL0     H46065  -1.156  10.529  11.006  0.8969  0.6310 -0.7132
  334MOL0     H46066  -1.071  10.446  11.291 -0.2775 -2.1882 -0.0093
  334MOL0     H46067  -1.161  10.340  11.189  2.8700 -1.6190 -0.9726
  334MOL0     H46068  -1.344  10.512  11.181 -0.1027  1.3777 -0.0421
  334MOL0     H46069  -1.257  10.608  11.295  0.0365  0.5691 -0.8925
  334MOL0     H46070  -1.252  10.396  11.456  0.1639 -1.8877  0.7038
  334MOL0     H46071  -1.374  10.326  11.360  0.0595 -0.0062  0.6264
  334MOL0     H46072  -0.617  10.555  10.523  0.3174 -0.0495 -0.0646
  334MOL0     H46073  -0.434  10.581  10.329  1.6012 -3.0211  0.0968
  334MOL0     H46074  -0.042  10.847  10.117 -1.5347 -0.7404 -1.5157
  334MOL0     H46075   0.155  10.834   9.982 -1.7862 -0.7461  0.0241
  334MOL0     H46076   0.704  10.897   8.646  0.2405 -0.8318  1.8709
  334MOL0     H46077   0.511  11.021   8.561 -3.4124  0.9299  2.8441
  334MOL0     H46078   0.356  11.504   8.616  0.4482  1.3295 -0.9969
  334MOL0     H46079   0.221  11.676   8.518  0.0970 -0.7958  0.0889
  334MOL0     H46080   0.075  11.804   8.458 -0.1959  0.0879 -0.7466
  334MOL0     H46081  -0.081  11.822   8.385  0.2745  2.2297  1.1651
  334MOL0     H46082  -0.187  11.826   8.603 -0.3628  0.8179 -4.2664
  334MOL0     H46083  -0.053  11.946   8.618  2.5909 -0.5623  2.5013
  334MOL0     H46084  -0.003  11.671   8.721  1.9910 -0.2970 -2.9527
  334MOL0     H46085   0.074  11.829   8.755 -1.4617  0.8363  2.9602
  334MOL0     H46086  -0.081  11.759   8.935  1.3880  0.6859 -0.9510
  334MOL0     H46087  -0.208  11.755   8.815  1.8162 -0.0082 -1.5062
  334MOL0     H46088  -0.219  12.164   8.856  2.2723  1.4742  0.3582
  334MOL0     H46089  -0.104  11.399   8.484  0.4024  0.4964 -2.7530
  334MOL0     H46090  -0.076  11.172   8.550 -0.4367 -3.0048  0.1370
  334MOL0     H46091   0.070  11.122   8.455  0.1267  0.3751  0.8223
  334MOL0     H46092   0.071  11.109   8.629  2.8038 -1.9835 -2.6123
  335MOL0     O46093   1.291   2.765   9.972 -0.6243 -0.0333 -0.5493
  335MOL0     C46094   1.208   2.835  10.022 -0.2881  0.2360  0.3008
  335MOL0     O46095   1.237   2.953  10.087  0.2515  0.5824  0.5943
  335MOL0     C46096   1.362   3.006  10.106  0.7678 -0.5346 -0.3519
  335MOL0     C46097   1.363   3.145  10.107 -0.4678  0.5165 -0.5123
  335MOL0     C46098   1.476   3.220  10.123 -0.9497  0.2259 -0.2174
  335MOL0     C46099   1.601   3.156  10.153  0.7665  0.5589  0.2194
  335MOL0     O46100   1.701   3.247  10.163  0.5835  0.1168 -0.1912
  335MOL0     C46101   1.814   3.204  10.242 -0.6273  0.0096 -0.8578
  335MOL0     C46102   1.855   3.318  10.340 -0.1028  0.2054  0.6457
  335MOL0     C46103   1.963   3.261  10.440 -0.0807 -0.4187 -0.6282
  335MOL0     C46104   1.960   3.349  10.569  0.4277 -0.3706  0.3967
  335MOL0     C46105   2.043   3.300  10.687 -0.0798 -0.2101 -0.4952
  335MOL0     C46106   2.185   3.350  10.690 -0.3129 -0.6042 -0.1301
  335MOL0     C46107   2.197   3.507  10.692  0.2339  0.2636  0.1231
  335MOL0     C46108   2.323   3.550  10.758 -0.6681 -0.5416 -1.1908
  335MOL0     N46109   2.354   3.698  10.757  1.4065 -0.4852 -0.1823
  335MOL0     C46110   2.406   3.773  10.655  0.4736 -0.0127 -0.5763
  335MOL0     C46111   2.395   3.899  10.698  0.4540  0.9157 -0.6048
  335MOL0     C46112   2.432   4.017  10.622 -0.5523 -0.2768  0.3104
  335MOL0     C46113   2.551   4.097  10.673  0.6638  0.5096  0.8929
  335MOL0     C46114   2.524   4.176  10.798  0.1975 -0.6109  0.0096
  335MOL0     C46115   2.637   4.282  10.828 -1.0255  0.4208  0.7700
  335MOL0     O46116   2.670   4.295  10.967  0.2870  0.0250  0.0783
  335MOL0     C46117   2.770   4.388  10.995  0.0881  0.5120  0.7523
  335MOL0     C46118   2.778   4.429  11.132  0.4198  0.0797  0.6514
  335MOL0     C46119   2.879   4.520  11.174  1.1591  0.9678 -0.1399
  335MOL0     C46120   2.879   4.545  11.324  0.1589  0.2375 -0.4774
  335MOL0     C46121   2.966   4.577  11.075  0.3113  0.1735 -0.5334
  335MOL0     C46122   3.067   4.672  11.123  0.4868  0.6357  0.1141
  335MOL0     O46123   3.039   4.764  11.208  0.0687  0.1242  0.1364
  335MOL0     C46124   3.140   4.846  11.238  0.0080 -0.2295 -0.4840
  335MOL0     C46125   3.130   4.976  11.190 -0.1018  0.2491  0.3098
  335MOL0     C46126   3.237   5.059  11.215 -0.9386 -0.2168 -0.2588
  335MOL0     C46127   3.339   5.025  11.307 -0.0749 -0.2012  0.2699
  335MOL0     O46128   3.452   5.089  11.341  0.6286  0.2216  0.3158
  335MOL0     C46129   3.471   5.214  11.286 -0.0071  0.0627  0.3713
  335MOL0     C46130   3.591   5.283  11.354  0.0839  0.6879 -0.2668
  335MOL0     C46131   3.647   5.411  11.279  0.3742 -0.2821 -0.8799
  335MOL0     C46132   3.759   5.480  11.353 -0.9227  0.3327  0.3492
  335MOL0     C46133   3.832   5.588  11.267 -0.2685  0.2068  0.6802
  335MOL0     C46134   3.901   5.685  11.359 -0.4596 -0.2702 -0.5736
  335MOL0     C46135   3.973   5.788  11.277  0.2815  0.3980 -0.1242
  335MOL0     C46136   4.044   5.900  11.355 -0.7143 -1.0019 -0.6604
  335MOL0    Cl46137   4.209   5.846  11.403  0.1111 -0.4176  0.4167
  335MOL0     C46138   3.327   4.902  11.369 -0.8149  0.0114 -0.3963
  335MOL0     C46139   3.225   4.812  11.334  0.4778  1.6006 -0.2395
  335MOL0     O46140   3.176   4.654  11.071  0.3143  0.0591  0.2688
  335MOL0     C46141   2.950   4.542  10.945 -0.2958  0.4674 -0.1791
  335MOL0     C46142   2.856   4.439  10.903  0.1172  0.2919  0.2178
  335MOL0     N46143   2.346   3.904  10.827  0.4522  0.5107 -0.0262
  335MOL0     N46144   2.323   3.780  10.861  0.1211 -0.4700 -0.8472
  335MOL0     C46145   1.601   3.015  10.162  0.1717 -0.3055  0.0328
  335MOL0     C46146   1.481   2.942  10.139 -0.4302  0.2456 -0.4364
  335MOL0     C46147   1.058   2.791  10.010  0.1500  0.0205  0.3550
  335MOL0     C46148   0.976   2.800  10.127  0.3475 -0.1134 -0.4316
  335MOL0     C46149   0.843   2.756  10.121  0.2647 -0.1749 -0.2090
  335MOL0     C46150   0.794   2.699  10.002 -0.2615 -0.3728  0.1247
  335MOL0     O46151   0.664   2.654  10.008  0.3834  0.0439 -0.0690
  335MOL0     C46152   0.571   2.677   9.900 -0.7226 -0.7317  1.1835
  335MOL0     C46153   0.425   2.615   9.930 -0.3238  0.7325  0.1777
  335MOL0     C46154   0.345   2.685  10.037 -0.4947  0.2012  0.0755
  335MOL0     C46155   0.210   2.622  10.057 -0.4159 -0.8664 -0.0153
  335MOL0     C46156   0.158   2.647  10.190  0.1262  0.3779 -1.2174
  335MOL0     C46157   0.105   2.661  10.300  0.7036  0.8072  0.6260
  335MOL0     C46158   0.876   2.682   9.892  0.0570 -0.5058  0.3098
  335MOL0     C46159   1.006   2.736   9.891  0.5811  0.2371  0.7242
  335MOL0     C46160   1.076   2.736   9.755  0.1948 -0.2926 -0.8471
  335MOL0     H46161   1.269   3.196  10.092 -0.9574  0.0837  0.9243
  335MOL0     H46162   1.469   3.329  10.124 -4.5568  0.1611  2.4781
  335MOL0     H46163   1.901   3.173  10.183 -1.1534 -2.0117 -0.6459
  335MOL0     H46164   1.792   3.115  10.302 -0.0715 -0.0559 -0.7442
  335MOL0     H46165   1.896   3.404  10.285 -0.3627  0.9317  1.5583
  335MOL0     H46166   1.761   3.355  10.382  0.9561  2.4669  1.1752
  335MOL0     H46167   1.933   3.158  10.462  0.2814 -0.1107  1.4363
  335MOL0     H46168   2.060   3.274  10.392 -0.0286 -0.0612 -0.4327
  335MOL0     H46169   1.983   3.452  10.540  0.4921  0.1887  2.3111
  335MOL0     H46170   1.856   3.344  10.602  1.1017 -0.6006  2.6325
  335MOL0     H46171   2.046   3.191  10.694 -1.5319 -0.5781 -3.8043
  335MOL0     H46172   1.991   3.335  10.777  0.2577 -1.4316  0.1991
  335MOL0     H46173   2.249   3.315  10.771 -0.6443  1.4670  1.1084
  335MOL0     H46174   2.231   3.326  10.594  0.5580  3.3425 -0.8912
  335MOL0     H46175   2.112   3.540  10.752  0.4065  0.1727  0.4198
  335MOL0     H46176   2.197   3.548  10.591 -1.2033 -0.4086 -0.1629
  335MOL0     H46177   2.328   3.518  10.863  0.7927  1.8075 -0.4721
  335MOL0     H46178   2.405   3.508  10.699 -0.2781 -0.1900 -0.9074
  335MOL0     H46179   2.456   3.728  10.569  0.0153 -5.4299  1.6108
  335MOL0     H46180   2.340   4.077  10.626 -0.3659  0.1188 -0.8793
  335MOL0     H46181   2.447   3.991  10.517 -0.3922 -0.6286  0.4210
  335MOL0     H46182   2.626   4.020  10.689 -1.9646 -2.4756 -0.0995
  335MOL0     H46183   2.593   4.153  10.589  2.6582 -0.2952  1.2949
  335MOL0     H46184   2.431   4.232  10.783 -0.3812 -1.0848  1.6393
  335MOL0     H46185   2.523   4.112  10.887 -1.8737 -1.3000 -0.4522
  335MOL0     H46186   2.730   4.256  10.775 -0.2219  2.5972  1.0067
  335MOL0     H46187   2.609   4.372  10.773 -0.7646  0.4747  0.7235
  335MOL0     H46188   2.714   4.376  11.202 -0.3560 -0.4208 -0.3983
  335MOL0     H46189   2.975   4.525  11.372 -1.5886  0.2872  3.3301
  335MOL0     H46190   2.806   4.478  11.370  2.5779 -1.3148  1.2686
  335MOL0     H46191   2.845   4.648  11.341 -0.2792  0.5719 -2.9579
  335MOL0     H46192   3.044   5.007  11.131  1.2343  0.3740 -1.6265
  335MOL0     H46193   3.232   5.162  11.184  1.3161  0.7103  2.0792
  335MOL0     H46194   3.488   5.212  11.178 -0.7518  2.3748  0.1603
  335MOL0     H46195   3.385   5.279  11.303 -1.6515 -2.0122  0.5136
  335MOL0     H46196   3.580   5.308  11.459 -0.4292  2.1342 -0.6474
  335MOL0     H46197   3.669   5.206  11.352 -1.8385 -1.4057  0.5098
  335MOL0     H46198   3.576   5.492  11.258  0.0776 -0.9943 -2.8468
  335MOL0     H46199   3.682   5.373  11.183 -0.8739 -1.8156 -0.7696
  335MOL0     H46200   3.836   5.411  11.388 -0.7701  1.6562  2.8079
  335MOL0     H46201   3.719   5.526  11.444  0.3883 -0.2918  1.2790
  335MOL0     H46202   3.902   5.541  11.197  0.0749  1.7577 -0.0679
  335MOL0     H46203   3.763   5.634  11.195 -0.0114 -0.4397  0.0098
  335MOL0     H46204   3.985   5.631  11.404  2.3389  1.4971 -3.2621
  335MOL0     H46205   3.836   5.731  11.434 -0.3478 -0.9655 -0.0453
  335MOL0     H46206   3.895   5.834  11.216 -1.0808 -0.9882  0.4938
  335MOL0     H46207   4.046   5.743  11.209  1.7467  1.5383  0.6239
  335MOL0     H46208   3.998   5.922  11.452  2.4741  4.6343  0.0232
  335MOL0     H46209   4.044   5.997  11.303 -1.0270  0.4332  1.8450
  335MOL0     H46210   3.406   4.874  11.438 -0.7298 -0.0392 -0.5149
  335MOL0     H46211   3.206   4.709  11.363 -0.5613  1.5099 -1.1780
  335MOL0     H46212   3.017   4.585  10.872  0.2008  2.9559  1.6266
  335MOL0     H46213   2.842   4.410  10.800  1.5128 -0.4511  0.2078
  335MOL0     H46214   1.694   2.963  10.182 -0.1583 -0.7271  0.5129
  335MOL0     H46215   1.491   2.834  10.134  0.7749  0.1684  2.1933
  335MOL0     H46216   1.018   2.861  10.207 -1.6708  1.0111 -0.1695
  335MOL0     H46217   0.785   2.777  10.210  1.2820  0.2119  0.3768
  335MOL0     H46218   0.570   2.786   9.906  2.5885 -0.4308 -1.1062
  335MOL0     H46219   0.606   2.654   9.799 -0.3930  1.7092  0.6829
  335MOL0     H46220   0.429   2.506   9.946 -0.4436  0.6381 -0.4147
  335MOL0     H46221   0.383   2.623   9.830  1.1288  0.1899 -0.5117
  335MOL0     H46222   0.401   2.702  10.129  0.4243  2.5812 -0.8435
  335MOL0     H46223   0.322   2.786  10.001  3.2159  0.6544 -1.4713
  335MOL0     H46224   0.215   2.513  10.065  0.3095 -0.7148  3.3523
  335MOL0     H46225   0.144   2.659   9.978  0.7369 -0.2922 -0.7385
  335MOL0     H46226   0.028   2.672  10.373  0.5852  1.6044  0.3921
  335MOL0     H46227   0.842   2.636   9.799  1.3505  0.2862 -0.5967
  335MOL0     H46228   1.138   2.826   9.752  2.1106 -1.4242  1.4093
  335MOL0     H46229   1.130   2.641   9.747 -0.9008 -1.0813  0.6218
  335MOL0     H46230   0.996   2.746   9.681 -2.2353  1.3634  1.7788
  336MOL0     O46231   6.344   1.024   8.821 -0.3142  0.2035 -1.0951
  336MOL0     C46232   6.332   0.972   8.713 -0.4249 -0.4297 -0.8986
  336MOL0     O46233   6.432   0.931   8.635 -0.1045  0.1075 -0.9387
  336MOL0     C46234   6.568   0.955   8.653  1.1573 -0.4150  0.2326
  336MOL0     C46235   6.630   0.993   8.778 -0.8947  0.2295 -0.2933
  336MOL0     C46236   6.761   1.030   8.785 -0.9350 -0.1355  0.2765
  336MOL0     C46237   6.851   1.013   8.674  0.6229  0.3657 -0.3694
  336MOL0     O46238   6.982   1.039   8.689 -0.2949 -0.1200  0.6351
  336MOL0     C46239   7.036   1.099   8.803 -0.1597  0.2599 -0.5873
  336MOL0     C46240   7.181   1.116   8.769 -0.1849  0.2376 -0.0885
  336MOL0     C46241   7.214   1.263   8.716  0.2111  0.1382  0.4251
  336MOL0     C46242   7.333   1.252   8.620  0.6899  0.4380 -0.2259
  336MOL0     C46243   7.373   1.397   8.591  0.1344 -0.3459  0.3552
  336MOL0     C46244   7.264   1.476   8.498 -0.3127  0.2102  0.2334
  336MOL0     C46245   7.298   1.619   8.474 -0.1412  0.3150  0.1785
  336MOL0     C46246   7.416   1.627   8.377  0.2452 -0.2610  0.0131
  336MOL0     N46247   7.521   1.715   8.426 -0.2486 -0.4779  0.5339
  336MOL0     C46248   7.528   1.853   8.441  1.2263 -0.5947  0.0794
  336MOL0     C46249   7.652   1.879   8.484 -0.4705 -0.6235 -0.6090
  336MOL0     C46250   7.706   2.026   8.491  0.0680  0.0055  0.2129
  336MOL0     C46251   7.612   2.123   8.574  0.1499 -0.6460 -0.4293
  336MOL0     C46252   7.664   2.267   8.549 -0.4785 -1.0601  0.1704
  336MOL0     C46253   7.613   2.387   8.634  0.0003  0.2705  0.6250
  336MOL0     O46254   7.466   2.388   8.624 -0.4316 -0.8611  0.6327
  336MOL0     C46255   7.403   2.461   8.715 -0.4364 -0.9428 -0.8814
  336MOL0     C46256   7.282   2.417   8.774 -0.2596 -0.4053  0.6604
  336MOL0     C46257   7.205   2.496   8.877  0.6985  0.2771  0.6966
  336MOL0     C46258   7.083   2.421   8.929 -0.2165 -0.3085  0.4104
  336MOL0     C46259   7.254   2.626   8.911 -0.7799 -1.1419  0.3023
  336MOL0     C46260   7.195   2.731   9.000  0.0224 -0.5391  0.6461
  336MOL0     O46261   7.214   2.863   8.972  0.2538 -0.7644 -0.1512
  336MOL0     C46262   7.202   2.948   9.078  0.2082  0.5604 -0.2042
  336MOL0     C46263   7.307   2.963   9.164  0.4278  0.1251 -0.8391
  336MOL0     C46264   7.299   3.049   9.268  0.3603  0.7764  0.4301
  336MOL0     C46265   7.192   3.131   9.285 -0.3693  0.0835 -0.2324
  336MOL0     O46266   7.190   3.203   9.396  0.4962 -0.3075  0.3933
  336MOL0     C46267   7.060   3.245   9.429 -0.0310 -0.4592  1.2464
  336MOL0     C46268   7.051   3.292   9.580  0.0585  0.2619  0.2190
  336MOL0     C46269   7.174   3.368   9.625 -0.0849  0.4508  0.4195
  336MOL0     C46270   7.165   3.383   9.781 -0.1574 -0.1358  0.2052
  336MOL0     C46271   7.270   3.476   9.836 -0.8512  0.6524 -0.1849
  336MOL0     C46272   7.410   3.418   9.820 -0.1872  0.0257 -0.4044
  336MOL0     C46273   7.460   3.331   9.941  0.2410 -0.3947  0.8638
  336MOL0     C46274   7.613   3.317   9.944 -0.9333  0.5175 -0.7136
  336MOL0    Cl46275   7.676   3.272   9.783  0.1022  0.3219  0.3058
  336MOL0     C46276   7.092   3.121   9.186  0.6801 -0.6019  0.4929
  336MOL0     C46277   7.093   3.031   9.089 -0.4273 -0.3052  0.1212
  336MOL0     O46278   7.153   2.680   9.104  0.0122  1.0447 -0.4036
  336MOL0     C46279   7.370   2.676   8.834 -0.2265 -0.3626 -0.0140
  336MOL0     C46280   7.440   2.599   8.742 -0.2268  0.7030 -0.7232
  336MOL0     N46281   7.719   1.751   8.507 -0.3106 -0.0962 -0.2832
  336MOL0     N46282   7.639   1.661   8.467 -0.9351 -0.8197  0.1136
  336MOL0     C46283   6.805   0.955   8.565  0.1454 -0.4852  0.4469
  336MOL0     C46284   6.665   0.943   8.543 -0.3033 -0.9767  0.8239
  336MOL0     C46285   6.194   0.947   8.658  0.1679  0.3779 -0.3305
  336MOL0     C46286   6.180   0.864   8.539  0.4745 -0.8861  0.5325
  336MOL0     C46287   6.056   0.843   8.477  0.2388 -0.3337  0.6380
  336MOL0     C46288   5.945   0.898   8.530  0.1283  0.1925 -0.0004
  336MOL0     O46289   5.836   0.845   8.468 -0.3441 -0.0180  0.2548
  336MOL0     C46290   5.705   0.854   8.536 -0.3662 -0.0805 -0.4665
  336MOL0     C46291   5.599   0.758   8.474 -0.7834  0.0670  0.2756
  336MOL0     C46292   5.648   0.605   8.474  0.7451 -0.5475 -0.0572
  336MOL0     C46293   5.614   0.543   8.611  0.4184  0.5128  0.4972
  336MOL0     C46294   5.472   0.512   8.621 -0.2620 -0.5748 -1.3558
  336MOL0     C46295   5.351   0.480   8.615 -0.2078 -0.4570 -0.8575
  336MOL0     C46296   5.946   0.978   8.641  0.3876 -0.9790  0.4201
  336MOL0     C46297   6.067   0.996   8.715 -0.9382 -0.0642  0.0612
  336MOL0     C46298   6.066   1.090   8.841 -0.3688 -0.5824  0.7587
  336MOL0     H46299   6.577   0.999   8.872  2.7343  0.2426  1.9763
  336MOL0     H46300   6.797   1.056   8.884  1.7405  2.1640 -1.1462
  336MOL0     H46301   7.020   1.038   8.892  2.4148  2.5644  1.6221
  336MOL0     H46302   7.004   1.200   8.830  2.1050  0.3917  1.9609
  336MOL0     H46303   7.239   1.094   8.859  3.0039 -0.0915 -2.1010
  336MOL0     H46304   7.207   1.034   8.702 -0.3272 -0.0592  0.2179
  336MOL0     H46305   7.128   1.300   8.659 -1.7612 -3.1616  0.9478
  336MOL0     H46306   7.237   1.327   8.801  2.1101  1.9526 -1.3467
  336MOL0     H46307   7.420   1.189   8.643  1.4451  1.7063  0.5178
  336MOL0     H46308   7.303   1.207   8.525 -4.9635  0.9633  0.9643
  336MOL0     H46309   7.473   1.390   8.547 -1.1253 -3.5349 -2.4754
  336MOL0     H46310   7.382   1.442   8.690  1.9788  1.5788 -0.6151
  336MOL0     H46311   7.262   1.428   8.400  0.7691 -1.9190  1.1857
  336MOL0     H46312   7.163   1.473   8.540  0.5728  0.1478  2.5177
  336MOL0     H46313   7.322   1.661   8.573  3.2057  0.3243 -0.5315
  336MOL0     H46314   7.225   1.689   8.434  0.9317  1.4508  0.1268
  336MOL0     H46315   7.451   1.524   8.382 -4.3830 -2.0158  0.9922
  336MOL0     H46316   7.389   1.655   8.275  1.0373  1.1119  0.1511
  336MOL0     H46317   7.456   1.931   8.416  0.6692 -0.4558  1.9532
  336MOL0     H46318   7.719   2.058   8.388  1.4781 -0.8812  0.0848
  336MOL0     H46319   7.801   2.033   8.545  1.0982  0.0062 -1.5450
  336MOL0     H46320   7.510   2.096   8.546  0.4313 -2.2247 -0.0739
  336MOL0     H46321   7.615   2.114   8.683 -3.0925 -0.6967 -0.2589
  336MOL0     H46322   7.773   2.274   8.536 -0.7888 -0.6807 -3.4082
  336MOL0     H46323   7.638   2.283   8.443 -0.6690 -1.8878  0.0857
  336MOL0     H46324   7.640   2.374   8.739  0.0766 -1.6672  0.3995
  336MOL0     H46325   7.652   2.482   8.595  0.5310 -0.4854 -0.7819
  336MOL0     H46326   7.250   2.316   8.751 -0.5825  0.1957 -1.8427
  336MOL0     H46327   6.996   2.467   8.880  0.6593  0.4491 -0.4624
  336MOL0     H46328   7.071   2.435   9.037  0.6891 -0.7069  0.5695
  336MOL0     H46329   7.087   2.313   8.914  1.1381 -0.5953  2.4439
  336MOL0     H46330   7.396   2.903   9.152 -0.5835 -2.0713  1.6996
  336MOL0     H46331   7.377   3.052   9.344 -2.8872 -1.3703  4.2808
  336MOL0     H46332   7.045   3.338   9.373  0.6454 -0.5708  0.8671
  336MOL0     H46333   6.980   3.173   9.410 -1.4220  0.9257  1.6711
  336MOL0     H46334   6.961   3.353   9.587 -0.5405 -0.6275  0.4884
  336MOL0     H46335   7.032   3.206   9.646  1.2463  0.6795  1.1530
  336MOL0     H46336   7.177   3.474   9.595 -0.1579  0.5951  0.9174
  336MOL0     H46337   7.268   3.318   9.601  0.0835 -2.1038  5.2792
  336MOL0     H46338   7.193   3.287   9.827  1.8180 -0.4002 -1.4178
  336MOL0     H46339   7.066   3.416   9.813  0.3394  0.0187  1.6771
  336MOL0     H46340   7.270   3.566   9.774 -3.2241  0.3612 -0.6757
  336MOL0     H46341   7.245   3.490   9.941 -0.4621 -3.8280  0.7212
  336MOL0     H46342   7.473   3.508   9.823 -0.7539  0.5066 -1.9607
  336MOL0     H46343   7.426   3.357   9.731 -3.2414  0.7939 -1.5965
  336MOL0     H46344   7.391   3.246   9.943 -2.0968  1.1117 -2.9120
  336MOL0     H46345   7.439   3.386  10.033 -0.4109  0.3298  0.2918
  336MOL0     H46346   7.634   3.236  10.014 -5.0477 -0.1285  0.0009
  336MOL0     H46347   7.664   3.410   9.971  1.5957 -0.3964 -1.9602
  336MOL0     H46348   7.008   3.189   9.190  0.7975 -0.2884 -1.3911
  336MOL0     H46349   7.017   3.018   9.012 -1.3330 -1.0987  1.1113
  336MOL0     H46350   7.403   2.778   8.854 -0.1925  0.0271 -1.9116
  336MOL0     H46351   7.529   2.644   8.701  3.1364 -1.1354  3.7043
  336MOL0     H46352   6.886   0.937   8.495 -0.9694 -3.7019 -0.1970
  336MOL0     H46353   6.621   0.911   8.449 -0.1338 -2.6672  1.2851
  336MOL0     H46354   6.264   0.817   8.487  0.5406  1.7553 -1.9907
  336MOL0     H46355   6.060   0.783   8.387  0.4702  0.0319  0.4044
  336MOL0     H46356   5.714   0.833   8.643  1.6621  0.9422 -0.3903
  336MOL0     H46357   5.663   0.954   8.538 -1.5701 -0.5679 -0.6758
  336MOL0     H46358   5.580   0.777   8.368 -0.7546 -1.0909  0.0487
  336MOL0     H46359   5.503   0.767   8.526 -0.6533  3.2161  0.1899
  336MOL0     H46360   5.597   0.547   8.397 -1.1146  0.7156  0.1428
  336MOL0     H46361   5.755   0.602   8.452  0.9074  0.5977  0.4572
  336MOL0     H46362   5.659   0.584   8.702  0.4674 -0.7744  1.0643
  336MOL0     H46363   5.666   0.447   8.612  1.6702  1.1160 -1.0679
  336MOL0     H46364   5.250   0.450   8.598 -0.5657  0.5445 -0.5640
  336MOL0     H46365   5.857   1.020   8.688  0.8515  4.3140 -2.6252
  336MOL0     H46366   6.100   1.030   8.926 -1.2912 -0.4570  1.2220
  336MOL0     H46367   6.127   1.178   8.822  2.2241 -2.4957 -0.4990
  336MOL0     H46368   5.962   1.120   8.860 -0.4695 -0.7443  0.4723
  337MOL0     O46369   5.292   4.888   4.502  0.2307 -0.6364  0.3572
  337MOL0     C46370   5.219   4.949   4.418  0.3878 -0.2312 -0.0540
  337MOL0     O46371   5.261   5.057   4.350 -0.5906 -1.0321 -0.3315
  337MOL0     C46372   5.393   5.093   4.338 -0.3691 -0.3515 -0.1853
  337MOL0     C46373   5.446   5.164   4.436  0.1218  0.7573  0.2967
  337MOL0     C46374   5.581   5.210   4.420  0.5047  1.0642 -0.0571
  337MOL0     C46375   5.660   5.183   4.309 -0.1431  0.3248  0.3457
  337MOL0     O46376   5.780   5.226   4.270 -0.0703 -0.1391  0.3088
  337MOL0     C46377   5.860   5.269   4.377 -0.2385  0.4904  0.3052
  337MOL0     C46378   5.980   5.333   4.324  0.2410 -0.5927 -0.6593
  337MOL0     C46379   5.950   5.432   4.205 -0.6595  0.7002  0.1473
  337MOL0     C46380   6.069   5.519   4.150 -0.4957 -0.0105 -0.2004
  337MOL0     C46381   6.020   5.619   4.050  0.2663 -0.1492  0.3686
  337MOL0     C46382   6.146   5.677   3.981 -0.0690 -0.2521 -1.2886
  337MOL0     C46383   6.097   5.781   3.878 -0.7775  0.2508  0.3092
  337MOL0     C46384   6.209   5.804   3.771  0.1281 -0.4736  0.2385
  337MOL0     N46385   6.325   5.881   3.821  0.7945 -0.4005  0.6550
  337MOL0     C46386   6.343   6.013   3.801  0.3077  0.3768  0.4186
  337MOL0     C46387   6.449   6.044   3.872  0.0463 -0.6218  0.0617
  337MOL0     C46388   6.512   6.180   3.896  0.8141  0.1302  0.5670
  337MOL0     C46389   6.652   6.185   3.962  0.2636 -0.2561  0.6125
  337MOL0     C46390   6.714   6.323   3.945 -1.3891 -0.0777 -0.8728
  337MOL0     C46391   6.828   6.342   4.031 -0.8959 -0.1535  0.2871
  337MOL0     O46392   6.904   6.454   3.978  0.3512 -0.5335  0.0003
  337MOL0     C46393   7.007   6.513   4.053 -0.0763  0.6186 -0.8660
  337MOL0     C46394   7.021   6.508   4.188  0.1625 -0.2009 -0.0818
  337MOL0     C46395   7.132   6.571   4.257 -0.1341 -0.5550  0.1733
  337MOL0     C46396   7.161   6.522   4.403 -0.9529 -0.2577  0.1538
  337MOL0     C46397   7.220   6.647   4.189  0.5597 -0.1700 -0.3725
  337MOL0     C46398   7.344   6.704   4.251  0.7826 -0.2481  0.9807
  337MOL0     O46399   7.436   6.732   4.152 -0.3119 -0.3449 -0.1448
  337MOL0     C46400   7.566   6.758   4.193 -0.2500 -0.4646  0.4829
  337MOL0     C46401   7.636   6.677   4.279  0.6195 -0.5969  0.1706
  337MOL0     C46402   7.770   6.707   4.316 -0.0521  0.0975 -0.0054
  337MOL0     C46403   7.840   6.816   4.262 -0.2299  0.0353  0.6047
  337MOL0     O46404   7.974   6.844   4.282 -0.2092  0.2182  0.2081
  337MOL0     C46405   8.035   6.778   4.390 -0.5630 -0.6808 -0.2012
  337MOL0     C46406   8.161   6.853   4.432 -0.2581 -0.0503 -0.0696
  337MOL0     C46407   8.256   6.864   4.311 -0.3880 -1.0538 -0.4213
  337MOL0     C46408   8.353   6.741   4.311  0.5436  0.1206  0.6317
  337MOL0     C46409   8.465   6.758   4.202  0.3097  0.2651  0.1356
  337MOL0     C46410   8.548   6.626   4.178 -0.5934  0.7804  0.1530
  337MOL0     C46411   8.636   6.587   4.290 -0.2555 -0.5755 -0.5075
  337MOL0     C46412   8.771   6.664   4.296  0.2651  0.2092  0.2546
  337MOL0    Cl46413   8.861   6.644   4.446  0.1304  0.2711 -0.1483
  337MOL0     C46414   7.772   6.899   4.175 -0.0011 -1.0415 -1.2507
  337MOL0     C46415   7.637   6.869   4.138  0.4675 -0.5223  0.2675
  337MOL0     O46416   7.356   6.719   4.368 -0.0650 -0.6641  0.1479
  337MOL0     C46417   7.206   6.650   4.049  0.8290 -0.5185  0.2928
  337MOL0     C46418   7.105   6.582   3.976 -0.4967 -0.1449 -0.5463
  337MOL0     N46419   6.511   5.925   3.928  0.7867  0.0157  0.2951
  337MOL0     N46420   6.430   5.834   3.894 -0.0334 -0.4107  0.8901
  337MOL0     C46421   5.604   5.098   4.217 -0.2402  0.2273  0.5908
  337MOL0     C46422   5.473   5.060   4.229 -1.2698 -0.3036  0.6222
  337MOL0     C46423   5.086   4.891   4.391  0.1401  0.4900  0.0336
  337MOL0     C46424   4.999   4.858   4.490 -0.5659  0.7091  1.0464
  337MOL0     C46425   4.873   4.797   4.453  0.4421  0.6883 -0.4716
  337MOL0     C46426   4.822   4.784   4.320 -1.0140 -0.6925  0.6850
  337MOL0     O46427   4.697   4.758   4.274 -0.2886 -0.4746 -0.2596
  337MOL0     C46428   4.599   4.777   4.375  0.7079 -0.4314 -0.0036
  337MOL0     C46429   4.590   4.917   4.431 -0.1682  0.3236 -1.0894
  337MOL0     C46430   4.599   5.033   4.334 -0.6573  0.0992  0.2536
  337MOL0     C46431   4.720   5.125   4.351 -0.0912  0.9648 -0.3586
  337MOL0     C46432   4.708   5.235   4.253 -0.3501  0.3514  0.4299
  337MOL0     C46433   4.697   5.325   4.168 -0.3443  0.2623 -0.4065
  337MOL0     C46434   4.917   4.823   4.223 -0.1280  0.3234 -0.4300
  337MOL0     C46435   5.043   4.874   4.256 -0.4310  0.0455  0.4789
  337MOL0     C46436   5.145   4.897   4.143 -0.2775  0.8434 -0.5978
  337MOL0     H46437   5.396   5.192   4.528  2.1204  3.0275  0.7767
  337MOL0     H46438   5.623   5.268   4.502  2.7529 -0.1327 -0.2850
  337MOL0     H46439   5.874   5.181   4.441  0.6039  0.0024 -0.5188
  337MOL0     H46440   5.808   5.347   4.433 -0.0343  0.2789  0.8006
  337MOL0     H46441   6.041   5.376   4.404 -2.0480  3.0452 -0.6643
  337MOL0     H46442   6.031   5.256   4.265  1.0706  0.9432 -2.0443
  337MOL0     H46443   5.917   5.378   4.116  1.3955  0.0687 -0.2878
  337MOL0     H46444   5.875   5.502   4.242 -1.6794 -0.5705  0.5609
  337MOL0     H46445   6.102   5.585   4.231 -0.1368  3.9012 -3.2346
  337MOL0     H46446   6.156   5.465   4.111  1.3579  1.7731  1.1867
  337MOL0     H46447   5.973   5.703   4.102 -1.8703 -0.6008 -0.6907
  337MOL0     H46448   5.953   5.582   3.971  0.3365 -0.2471  0.3551
  337MOL0     H46449   6.218   5.718   4.052 -0.3829  0.2394 -1.2490
  337MOL0     H46450   6.202   5.594   3.935 -1.0524 -1.8562  0.2865
  337MOL0     H46451   6.083   5.876   3.930  0.1558  0.0809  0.8844
  337MOL0     H46452   6.012   5.744   3.820  0.5022 -3.0447  0.3130
  337MOL0     H46453   6.246   5.717   3.717 -0.9203 -0.0786 -1.1655
  337MOL0     H46454   6.166   5.872   3.697  1.7315  1.3696  0.9093
  337MOL0     H46455   6.290   6.086   3.739  2.3928  1.6787  0.0740
  337MOL0     H46456   6.441   6.233   3.960 -0.9023  1.0230 -1.9320
  337MOL0     H46457   6.513   6.235   3.802 -0.2518  1.4693  1.2874
  337MOL0     H46458   6.636   6.160   4.067  2.0311 -3.2532  0.2941
  337MOL0     H46459   6.715   6.102   3.929  1.8395  1.2212 -0.2813
  337MOL0     H46460   6.749   6.328   3.841  0.3275 -2.5279 -0.5016
  337MOL0     H46461   6.639   6.402   3.954 -0.9864  0.1624  0.5508
  337MOL0     H46462   6.794   6.344   4.135  2.6924  2.7148  1.6285
  337MOL0     H46463   6.895   6.258   4.007  1.1353  1.3906  0.2418
  337MOL0     H46464   6.950   6.451   4.248  0.9289 -1.6912 -0.5376
  337MOL0     H46465   7.267   6.509   4.429 -1.8398 -2.7151  3.1017
  337MOL0     H46466   7.121   6.422   4.419 -2.4264 -0.4898 -3.8979
  337MOL0     H46467   7.121   6.602   4.466  1.5771  1.4826 -0.3084
  337MOL0     H46468   7.577   6.596   4.320 -1.4570  0.5426 -0.4107
  337MOL0     H46469   7.818   6.628   4.374  1.9920 -0.5698 -2.4366
  337MOL0     H46470   7.984   6.788   4.486  2.6777  2.3163  1.4687
  337MOL0     H46471   8.067   6.679   4.358 -0.0598 -0.3776 -0.6474
  337MOL0     H46472   8.139   6.954   4.468 -1.0505 -0.2405  0.0058
  337MOL0     H46473   8.211   6.813   4.520  1.1432  2.4226  0.3524
  337MOL0     H46474   8.316   6.954   4.322  0.2397 -1.5869  0.5823
  337MOL0     H46475   8.205   6.875   4.214  1.0961 -4.2896 -1.7164
  337MOL0     H46476   8.291   6.652   4.301 -0.3885  0.5662  2.1308
  337MOL0     H46477   8.401   6.748   4.409 -0.5330  2.9692  1.0408
  337MOL0     H46478   8.412   6.785   4.110 -0.1584 -2.8334 -0.6058
  337MOL0     H46479   8.534   6.842   4.217 -1.0739  2.1039 -2.8309
  337MOL0     H46480   8.616   6.643   4.094 -2.2317  1.8239 -1.0223
  337MOL0     H46481   8.481   6.544   4.149  1.4678 -1.4355  1.2925
  337MOL0     H46482   8.652   6.479   4.287  1.0555 -0.3780 -1.0979
  337MOL0     H46483   8.596   6.619   4.387 -1.4253  1.3278 -1.5644
  337MOL0     H46484   8.767   6.773   4.288  1.3037  0.2606  0.2166
  337MOL0     H46485   8.823   6.627   4.207 -0.5715 -0.3174 -0.0183
  337MOL0     H46486   7.826   6.980   4.127  3.3304 -0.3990  2.9442
  337MOL0     H46487   7.596   6.936   4.064  1.0766 -2.4755 -1.9314
  337MOL0     H46488   7.260   6.714   3.979 -2.3135  1.0679 -0.8849
  337MOL0     H46489   7.101   6.589   3.868  0.5812  1.4877 -0.5195
  337MOL0     H46490   5.659   5.078   4.126 -0.0152  1.2741  0.4864
  337MOL0     H46491   5.426   4.993   4.157 -2.5182  1.5135 -0.3183
  337MOL0     H46492   5.027   4.867   4.594  0.0058 -0.2738  0.9946
  337MOL0     H46493   4.816   4.753   4.534  2.4669  3.2304  2.6023
  337MOL0     H46494   4.509   4.734   4.331 -0.1304  0.4257  0.8318
  337MOL0     H46495   4.618   4.707   4.457  0.4888  0.0355  0.4523
  337MOL0     H46496   4.664   4.934   4.511 -0.4410  1.7332 -1.1075
  337MOL0     H46497   4.494   4.929   4.481 -0.9210  1.1127 -2.6754
  337MOL0     H46498   4.591   5.009   4.227 -0.8320  2.0124 -0.2080
  337MOL0     H46499   4.513   5.099   4.352 -1.4700 -1.4105  2.2908
  337MOL0     H46500   4.810   5.066   4.336 -0.3633  0.9183 -1.9676
  337MOL0     H46501   4.725   5.171   4.450  2.3547 -0.0676  0.0575
  337MOL0     H46502   4.707   5.407   4.099 -1.2804  2.6551  2.1213
  337MOL0     H46503   4.894   4.811   4.118  0.9006  0.3329 -0.6598
  337MOL0     H46504   5.113   4.846   4.052  1.6536  1.3469 -1.6283
  337MOL0     H46505   5.174   5.001   4.127  0.5999  0.6271 -0.4871
  337MOL0     H46506   5.242   4.848   4.159 -1.0943 -0.3621  1.0172
  338MOL0     O46507   9.652  10.139   4.492 -0.3210 -0.1436 -0.3421
  338MOL0     C46508   9.577  10.218   4.435  0.5713  0.0921 -0.3409
  338MOL0     O46509   9.577  10.238   4.300 -0.2847 -0.3397 -0.2026
  338MOL0     C46510   9.689  10.201   4.230  0.1577  0.0094  0.5502
  338MOL0     C46511   9.823  10.210   4.277  0.5511  0.2927  0.2843
  338MOL0     C46512   9.932  10.177   4.201 -0.9252  0.2596  0.7732
  338MOL0     C46513   9.911  10.138   4.065 -0.1087 -0.2775 -0.9292
  338MOL0     O46514  10.012  10.118   3.974  0.2796 -0.2700 -0.0777
  338MOL0     C46515  10.142  10.143   4.021 -0.5328 -1.1199  0.2372
  338MOL0     C46516  10.232  10.113   3.903 -0.4228  0.1247  0.0149
  338MOL0     C46517  10.176  10.187   3.778  0.5295  0.8787 -0.4432
  338MOL0     C46518  10.281  10.172   3.669 -0.1319 -0.4443  0.5071
  338MOL0     C46519  10.317  10.027   3.633  0.3586 -0.2392  0.0383
  338MOL0     C46520  10.426  10.014   3.524 -0.3987  0.1635  0.5461
  338MOL0     C46521  10.578  10.030   3.554  0.9829  0.3285  0.1315
  338MOL0     C46522  10.669  10.046   3.426 -0.3604  0.2170 -0.0431
  338MOL0     N46523  10.710   9.912   3.386 -0.3950  0.3551 -0.6578
  338MOL0     C46524  10.819   9.843   3.425 -0.1112 -0.1312  0.0252
  338MOL0     C46525  10.808   9.730   3.356  0.5370 -0.6560 -1.0653
  338MOL0     C46526  10.894   9.613   3.376  0.4896  0.5978  0.3823
  338MOL0     C46527  11.023   9.620   3.293  1.0792 -0.4248 -0.4259
  338MOL0     C46528  11.119   9.714   3.364 -0.3025  0.6202  0.2457
  338MOL0     C46529  11.253   9.690   3.298 -0.8847 -0.6230 -0.3435
  338MOL0     O46530  11.306   9.549   3.319  0.0760  0.2987  0.2962
  338MOL0     C46531  11.425   9.515   3.266  1.2855 -0.3107  0.0197
  338MOL0     C46532  11.465   9.386   3.287  0.5279 -0.0132  0.9365
  338MOL0     C46533  11.569   9.327   3.234 -0.2470 -1.0404  0.2107
  338MOL0     C46534  11.589   9.183   3.284  0.9720 -0.6070  1.2608
  338MOL0     C46535  11.651   9.396   3.144 -0.6479 -0.5733 -0.2142
  338MOL0     C46536  11.762   9.329   3.079 -0.0077 -0.3004  0.4779
  338MOL0     O46537  11.796   9.206   3.110 -1.0512  0.3516 -0.4494
  338MOL0     C46538  11.886   9.136   3.029  0.2165 -0.3064 -0.4826
  338MOL0     C46539  12.000   9.085   3.100  1.2392  0.7198  0.7662
  338MOL0     C46540  12.112   9.039   3.030  0.2868 -0.4334 -0.8011
  338MOL0     C46541  12.105   9.035   2.887 -0.1631 -0.1688 -0.0625
  338MOL0     O46542  12.205   8.976   2.806  0.0646 -0.4055 -0.1569
  338MOL0     C46543  12.277   8.864   2.855 -0.0339  0.4594 -0.8810
  338MOL0     C46544  12.416   8.851   2.794  0.0123  0.5621 -0.4360
  338MOL0     C46545  12.480   8.720   2.823  0.5505  0.8100  0.7330
  338MOL0     C46546  12.551   8.733   2.958  1.0553  0.6296  0.3971
  338MOL0     C46547  12.618   8.602   2.992 -0.9448 -0.4365  0.7110
  338MOL0     C46548  12.761   8.594   2.938 -0.0194  0.4101  0.1289
  338MOL0     C46549  12.879   8.626   3.027 -0.1583 -0.7933 -0.3074
  338MOL0     C46550  13.001   8.655   2.941  0.2247  0.0386 -0.0465
  338MOL0    Cl46551  12.986   8.824   2.862  0.1982 -0.0683  0.0379
  338MOL0     C46552  11.991   9.085   2.823  0.6167  0.4468  0.0159
  338MOL0     C46553  11.881   9.129   2.893  0.0187 -0.2504  1.0795
  338MOL0     O46554  11.809   9.399   2.990 -0.0825 -0.3002 -0.0492
  338MOL0     C46555  11.621   9.535   3.113  0.2574  0.2127 -0.2757
  338MOL0     C46556  11.514   9.592   3.185  0.2305  0.2704 -0.2093
  338MOL0     N46557  10.687   9.720   3.288  0.4903  0.0386 -0.7002
  338MOL0     N46558  10.628   9.836   3.311  0.9010  0.2918 -0.5507
  338MOL0     C46559   9.781  10.145   4.012 -0.5784 -0.6422  0.3980
  338MOL0     C46560   9.673  10.183   4.092  0.5991  0.0175 -0.0519
  338MOL0     C46561   9.479  10.300   4.513 -0.3428 -0.1816 -0.5572
  338MOL0     C46562   9.499  10.316   4.649  0.6763 -0.0424 -0.6093
  338MOL0     C46563   9.411  10.388   4.728  0.4200 -0.3770 -0.3886
  338MOL0     C46564   9.312  10.471   4.673  0.1152  0.3295  0.3881
  338MOL0     O46565   9.224  10.537   4.745 -0.6084  0.3563 -0.7426
  338MOL0     C46566   9.201  10.505   4.886 -0.3693  0.2096  0.1076
  338MOL0     C46567   9.060  10.545   4.931 -0.1697  0.3960  0.3641
  338MOL0     C46568   8.969  10.444   4.867  0.1950  0.9210 -0.2188
  338MOL0     C46569   8.820  10.477   4.886  0.3113 -0.0329  0.3770
  338MOL0     C46570   8.736  10.358   4.862  1.3031 -0.7020  0.3066
  338MOL0     C46571   8.653  10.270   4.867  0.3272 -0.1924  0.4844
  338MOL0     C46572   9.289  10.459   4.537  0.3466 -0.1558  0.4822
  338MOL0     C46573   9.370  10.372   4.456 -0.1154 -0.4244  0.3636
  338MOL0     C46574   9.330  10.360   4.310  0.2024 -1.2867 -0.1677
  338MOL0     H46575   9.844  10.250   4.376 -1.3215 -0.1413  0.9107
  338MOL0     H46576  10.035  10.187   4.234 -0.0313 -1.0285 -1.3853
  338MOL0     H46577  10.183  10.067   4.088  0.6884 -1.5005 -0.8859
  338MOL0     H46578  10.160  10.245   4.057  1.6639 -0.7014 -1.7400
  338MOL0     H46579  10.334  10.133   3.935  0.0883 -3.8906  1.4984
  338MOL0     H46580  10.222  10.006   3.887 -0.8968 -0.1015  1.6522
  338MOL0     H46581  10.079  10.148   3.747  0.5437  1.3855 -1.1569
  338MOL0     H46582  10.159  10.290   3.810  0.5826  0.2861  1.6011
  338MOL0     H46583  10.242  10.217   3.578  1.6901  0.1886 -0.0137
  338MOL0     H46584  10.382  10.213   3.682  1.2197 -2.9504 -1.0786
  338MOL0     H46585  10.222   9.993   3.592 -1.0072  1.1895  1.8392
  338MOL0     H46586  10.354   9.971   3.720 -1.4193  0.0899  1.0388
  338MOL0     H46587  10.412   9.916   3.476  3.1177  0.3445 -1.1504
  338MOL0     H46588  10.403  10.083   3.442  2.2268 -1.2067 -1.4969
  338MOL0     H46589  10.606   9.944   3.615 -0.4625 -3.8030 -4.3561
  338MOL0     H46590  10.585  10.123   3.611 -0.0867  0.5346 -0.0484
  338MOL0     H46591  10.611  10.101   3.351  0.0364  0.4056 -0.2169
  338MOL0     H46592  10.762  10.100   3.448  0.7676 -0.4827 -2.6771
  338MOL0     H46593  10.889   9.873   3.501  1.6633  0.5244 -1.7670
  338MOL0     H46594  10.835   9.524   3.354  0.5807  0.5326  0.3988
  338MOL0     H46595  10.922   9.606   3.481 -0.6089  1.6930  0.7743
  338MOL0     H46596  11.065   9.520   3.310  3.5766  0.6271 -0.1351
  338MOL0     H46597  11.001   9.643   3.189  1.7407 -1.9271 -0.9245
  338MOL0     H46598  11.089   9.818   3.352  0.5926  0.7124 -1.5187
  338MOL0     H46599  11.115   9.696   3.472  2.2729  1.6279  0.5591
  338MOL0     H46600  11.253   9.705   3.189 -1.4334  2.2046 -0.0322
  338MOL0     H46601  11.316   9.752   3.362 -2.2893 -1.8075  2.3605
  338MOL0     H46602  11.397   9.335   3.353 -0.9365 -0.6490 -0.9880
  338MOL0     H46603  11.691   9.183   3.324  0.5869  0.6837  2.3171
  338MOL0     H46604  11.579   9.110   3.203  2.1421  1.4335 -0.8222
  338MOL0     H46605  11.520   9.147   3.361  0.2219 -2.1758 -0.0695
  338MOL0     H46606  11.984   9.077   3.207  0.7592  0.5406  0.6824
  338MOL0     H46607  12.198   8.999   3.082 -0.9478  1.1864  2.7903
  338MOL0     H46608  12.298   8.859   2.963  0.7460  0.5897 -1.0267
  338MOL0     H46609  12.216   8.778   2.828 -0.9469  1.6098 -2.6841
  338MOL0     H46610  12.400   8.867   2.687 -0.3948 -0.3725 -0.5290
  338MOL0     H46611  12.474   8.936   2.830 -3.1980  2.1522  1.4630
  338MOL0     H46612  12.559   8.698   2.750 -0.7872  0.4771 -0.6608
  338MOL0     H46613  12.404   8.642   2.810  1.5354 -0.5306  2.4750
  338MOL0     H46614  12.479   8.751   3.038  1.8415  0.6865  1.1026
  338MOL0     H46615  12.629   8.810   2.966  0.9260  0.8635 -0.4333
  338MOL0     H46616  12.641   8.596   3.099  2.7940  0.6933  0.1169
  338MOL0     H46617  12.553   8.522   2.957 -0.2982 -0.8414  0.4204
  338MOL0     H46618  12.765   8.671   2.860  0.2842 -0.9629 -1.2689
  338MOL0     H46619  12.770   8.501   2.881 -0.9336 -0.7004  1.7308
  338MOL0     H46620  12.899   8.543   3.095  1.0992  0.2420  0.6474
  338MOL0     H46621  12.858   8.713   3.090  2.0388 -2.0473  2.3609
  338MOL0     H46622  13.011   8.582   2.860  4.1558 -1.8473  1.8776
  338MOL0     H46623  13.090   8.648   3.005 -0.6676 -0.2121  1.2033
  338MOL0     H46624  11.979   9.070   2.716 -4.5532 -3.5328  0.7396
  338MOL0     H46625  11.794   9.153   2.832  1.8225 -0.9770 -2.0414
  338MOL0     H46626  11.687   9.592   3.049 -2.5519  2.2902 -1.5465
  338MOL0     H46627  11.514   9.701   3.181  3.6085  0.3735 -1.1572
  338MOL0     H46628   9.756  10.126   3.908 -0.5982  1.7792 -0.1119
  338MOL0     H46629   9.575  10.176   4.045  0.3490  2.3453  0.0172
  338MOL0     H46630   9.582  10.256   4.684  1.5170  2.1495  1.4778
  338MOL0     H46631   9.432  10.395   4.835 -0.3683  0.8010 -0.2959
  338MOL0     H46632   9.215  10.402   4.920  1.9155  1.2145  2.6062
  338MOL0     H46633   9.275  10.559   4.946 -1.7562 -1.7765  3.8972
  338MOL0     H46634   9.043  10.650   4.904 -0.5042  0.3809  0.5142
  338MOL0     H46635   9.061  10.549   5.040  1.2837  1.1323  0.3572
  338MOL0     H46636   8.987  10.434   4.760 -2.5052 -1.1311 -0.5874
  338MOL0     H46637   8.987  10.347   4.915 -1.3829  0.8192  0.2115
  338MOL0     H46638   8.785  10.550   4.812 -1.5493 -0.6336  0.6203
  338MOL0     H46639   8.797  10.533   4.976 -1.9515  2.3029 -1.4994
  338MOL0     H46640   8.572  10.200   4.865 -0.3788  0.6163 -1.1150
  338MOL0     H46641   9.205  10.519   4.502  0.2327  0.9808  2.4898
  338MOL0     H46642   9.407  10.407   4.249  0.2518  0.7272  1.3344
  338MOL0     H46643   9.321  10.255   4.279 -0.8948 -1.0682 -0.6274
  338MOL0     H46644   9.234  10.406   4.286  0.7327  0.7348  1.3369
  339MOL0     O46645   7.398   0.658   9.453 -0.4069  0.7823  0.5910
  339MOL0     C46646   7.459   0.553   9.445 -0.3054 -0.8021  0.6026
  339MOL0     O46647   7.579   0.533   9.375 -0.3527  0.4004  0.1787
  339MOL0     C46648   7.666   0.634   9.351  0.3467  0.3957 -0.0905
  339MOL0     C46649   7.724   0.638   9.226 -0.1547 -0.1635 -0.9406
  339MOL0     C46650   7.817   0.735   9.194 -0.0770 -0.6076  0.3896
  339MOL0     C46651   7.834   0.844   9.280 -0.0745 -0.3943 -0.0703
  339MOL0     O46652   7.908   0.954   9.249  0.2605 -0.8105 -0.7970
  339MOL0     C46653   7.903   1.003   9.114  0.1301 -0.7101 -1.3700
  339MOL0     C46654   7.958   1.146   9.107 -0.2349 -0.2415 -0.6851
  339MOL0     C46655   7.939   1.227   8.976  0.6704  0.7381 -0.2768
  339MOL0     C46656   7.792   1.257   8.965  0.1782 -0.3930  0.7050
  339MOL0     C46657   7.758   1.378   8.876  0.3032 -0.7739 -0.3158
  339MOL0     C46658   7.804   1.513   8.941  0.2373  0.5194  0.7684
  339MOL0     C46659   7.751   1.633   8.871  0.1818 -0.4851  1.0685
  339MOL0     C46660   7.814   1.762   8.918 -0.5603 -0.1935  0.4683
  339MOL0     N46661   7.955   1.775   8.878 -0.1373  0.6980  0.2045
  339MOL0     C46662   7.992   1.764   8.751 -0.1484  0.5344 -0.0150
  339MOL0     C46663   8.127   1.801   8.754  1.0204  0.6090 -0.5396
  339MOL0     C46664   8.227   1.797   8.640 -0.1959 -1.5386  0.8308
  339MOL0     C46665   8.255   1.659   8.582  0.3884  0.1611 -0.4618
  339MOL0     C46666   8.309   1.658   8.443  0.3042  0.1226  0.4303
  339MOL0     C46667   8.308   1.512   8.392 -0.5051 -0.0382 -0.0825
  339MOL0     O46668   8.416   1.495   8.313 -0.7292  0.5626  0.3131
  339MOL0     C46669   8.488   1.378   8.341 -0.2830 -0.4449 -0.3669
  339MOL0     C46670   8.473   1.264   8.262 -0.2689 -0.6211  0.2793
  339MOL0     C46671   8.518   1.137   8.306 -0.0179  0.3663  0.3244
  339MOL0     C46672   8.488   1.024   8.221 -0.5766  1.0012 -0.0350
  339MOL0     C46673   8.587   1.120   8.433 -0.1137  0.1289 -0.5418
  339MOL0     C46674   8.639   0.989   8.497  0.3329 -0.5625 -0.8084
  339MOL0     O46675   8.706   1.010   8.612  0.2180 -0.5702  0.6536
  339MOL0     C46676   8.747   0.897   8.680 -0.4721 -0.6504 -0.9425
  339MOL0     C46677   8.884   0.874   8.696  0.5390  0.1810  0.1440
  339MOL0     C46678   8.924   0.755   8.761  0.3338  0.7260  0.1999
  339MOL0     C46679   8.833   0.659   8.814 -0.1938 -0.2733 -0.4700
  339MOL0     O46680   8.875   0.535   8.869  0.7059 -0.0055 -0.3148
  339MOL0     C46681   9.002   0.486   8.820 -0.4873  0.1280  1.1272
  339MOL0     C46682   9.001   0.331   8.842  0.3340  0.4947 -0.6328
  339MOL0     C46683   8.944   0.254   8.726  0.1216 -0.0765  0.1849
  339MOL0     C46684   8.943   0.103   8.758 -0.1938  0.3346  0.1647
  339MOL0     C46685   8.904   0.020   8.638  0.1176 -0.1288  0.8310
  339MOL0     C46686   8.748   0.012   8.614  0.1536  0.4923 -0.3732
  339MOL0     C46687   8.694  -0.083   8.502 -0.2463  0.2741  0.0538
  339MOL0     C46688   8.716  -0.059   8.367 -0.2246  0.5710 -0.2984
  339MOL0    Cl46689   8.875  -0.128   8.317  0.3123  0.1674  0.2248
  339MOL0     C46690   8.703   0.693   8.811  0.5644 -0.2392  0.2912
  339MOL0     C46691   8.658   0.807   8.739 -0.1240  0.5627  0.0272
  339MOL0     O46692   8.621   0.876   8.450 -0.1258 -0.6666  0.7212
  339MOL0     C46693   8.603   1.235   8.513  0.2868 -1.0175 -0.2413
  339MOL0     C46694   8.554   1.363   8.472  0.6781  0.1515 -0.1171
  339MOL0     N46695   8.158   1.836   8.886 -0.9808  0.6094 -0.0788
  339MOL0     N46696   8.055   1.823   8.965 -0.0889  0.4475  0.4708
  339MOL0     C46697   7.793   0.831   9.415  0.3240 -0.1820  0.2431
  339MOL0     C46698   7.709   0.722   9.451 -1.1141 -0.1694  0.3574
  339MOL0     C46699   7.394   0.435   9.515 -0.4306 -0.1526 -0.4095
  339MOL0     C46700   7.449   0.302   9.500  0.5660 -0.0011  0.3318
  339MOL0     C46701   7.381   0.197   9.555 -0.9069  0.0455 -0.3958
  339MOL0     C46702   7.263   0.208   9.634 -0.0060 -0.1465  1.2136
  339MOL0     O46703   7.210   0.098   9.682 -0.7743 -0.5104  0.5194
  339MOL0     C46704   7.075   0.093   9.735  0.4216  0.6460  0.4034
  339MOL0     C46705   6.979   0.097   9.613 -0.5963  0.1964  0.1055
  339MOL0     C46706   6.834   0.106   9.668 -0.6297  0.4122  0.0563
  339MOL0     C46707   6.743   0.078   9.552 -0.2721  0.1661 -0.0709
  339MOL0     C46708   6.604   0.094   9.591 -0.1567 -0.2159 -0.2494
  339MOL0     C46709   6.485   0.104   9.614 -0.5322  0.4363  0.3878
  339MOL0     C46710   7.218   0.333   9.660 -0.4508 -0.2125 -0.7993
  339MOL0     C46711   7.284   0.450   9.613 -0.2136  0.3726  1.2005
  339MOL0     C46712   7.210   0.573   9.654 -0.5292 -0.1074  1.0099
  339MOL0     H46713   7.713   0.567   9.144 -4.4459  0.0893 -0.7987
  339MOL0     H46714   7.870   0.748   9.100 -1.3401  3.1402  0.0236
  339MOL0     H46715   7.796   1.009   9.094  0.2163  2.8596 -1.3981
  339MOL0     H46716   7.953   0.937   9.043  0.0146 -1.4716 -0.7544
  339MOL0     H46717   7.925   1.195   9.200  1.1023 -0.8577  0.1439
  339MOL0     H46718   8.065   1.138   9.129 -0.0736 -0.4777 -1.5252
  339MOL0     H46719   7.997   1.320   8.984 -1.8959  2.4108  0.1527
  339MOL0     H46720   7.982   1.161   8.900 -2.1029 -1.4036 -0.1496
  339MOL0     H46721   7.746   1.172   8.912 -3.3438  0.9470  1.3510
  339MOL0     H46722   7.746   1.270   9.063 -1.4753  0.6949 -0.1692
  339MOL0     H46723   7.653   1.397   8.854  0.0491 -0.2145  1.2630
  339MOL0     H46724   7.800   1.365   8.776 -0.4835  1.3397 -0.9647
  339MOL0     H46725   7.780   1.517   9.048 -1.2657  0.7504  0.4390
  339MOL0     H46726   7.913   1.528   8.943  0.6390 -1.2870 -2.0477
  339MOL0     H46727   7.643   1.637   8.887 -0.2277  0.6355 -1.5197
  339MOL0     H46728   7.765   1.617   8.763  1.7267 -1.6867  1.4021
  339MOL0     H46729   7.755   1.836   8.863  1.2254  1.7137  0.9981
  339MOL0     H46730   7.798   1.783   9.024  1.1754 -0.5333  0.8313
  339MOL0     H46731   7.936   1.726   8.667 -0.8961  0.2616  0.5906
  339MOL0     H46732   8.326   1.842   8.648 -0.6178  0.5784 -3.2279
  339MOL0     H46733   8.181   1.865   8.567  1.2656  1.0869  2.1993
  339MOL0     H46734   8.330   1.606   8.640 -0.2447  1.7104  1.9232
  339MOL0     H46735   8.171   1.590   8.595  2.4302 -2.3645  0.0716
  339MOL0     H46736   8.248   1.718   8.375 -2.3906 -3.1458 -0.3135
  339MOL0     H46737   8.410   1.701   8.443  0.6006 -0.5135 -1.2406
  339MOL0     H46738   8.309   1.443   8.477  0.1312  0.9216  0.7172
  339MOL0     H46739   8.209   1.504   8.345 -0.5172  5.2633 -1.5881
  339MOL0     H46740   8.415   1.271   8.171 -1.5482  0.7172  1.1606
  339MOL0     H46741   8.409   0.965   8.270 -1.3457  2.4465  0.5200
  339MOL0     H46742   8.579   0.966   8.207 -1.1927  0.5794 -2.7631
  339MOL0     H46743   8.448   1.061   8.127 -0.7816  0.8275 -0.0194
  339MOL0     H46744   8.965   0.938   8.663 -1.0731  1.6577 -1.1799
  339MOL0     H46745   9.029   0.726   8.765 -0.5590 -3.0296 -0.1569
  339MOL0     H46746   9.007   0.511   8.714  1.6940 -0.2424  1.1070
  339MOL0     H46747   9.074   0.549   8.873  0.3174 -0.5089  0.8078
  339MOL0     H46748   9.105   0.300   8.850 -0.3858 -1.8682  0.3836
  339MOL0     H46749   8.940   0.307   8.930  1.9864 -0.4749  0.2981
  339MOL0     H46750   9.018   0.275   8.648 -1.7749 -1.3375 -2.0847
  339MOL0     H46751   8.846   0.280   8.685 -0.9228 -1.2321  1.8377
  339MOL0     H46752   8.875   0.075   8.839  1.0025 -2.7041  0.2528
  339MOL0     H46753   9.043   0.070   8.790 -0.6585 -4.1194 -2.2502
  339MOL0     H46754   8.954   0.062   8.550 -0.4007 -2.5491 -0.7137
  339MOL0     H46755   8.939  -0.082   8.654  0.8403  0.1323  0.9522
  339MOL0     H46756   8.707   0.113   8.607 -2.0691 -0.3815 -0.8061
  339MOL0     H46757   8.710  -0.023   8.710  0.1119  0.8787 -0.2469
  339MOL0     H46758   8.585  -0.073   8.507 -0.3678  0.6374 -2.2705
  339MOL0     H46759   8.728  -0.179   8.540  4.0944  1.4138 -0.4820
  339MOL0     H46760   8.710   0.048   8.348  0.0344  0.9293  1.5364
  339MOL0     H46761   8.637  -0.106   8.307 -0.7044  1.4225 -0.3404
  339MOL0     H46762   8.629   0.620   8.839  0.8730 -1.5708 -2.0730
  339MOL0     H46763   8.555   0.830   8.715  0.1038 -1.2390 -3.2142
  339MOL0     H46764   8.641   1.237   8.614  0.0258 -0.2057 -0.1535
  339MOL0     H46765   8.561   1.451   8.535 -1.8410  0.5473 -0.3016
  339MOL0     H46766   7.815   0.913   9.484 -0.4620  0.0509  0.2264
  339MOL0     H46767   7.672   0.706   9.552  1.6691  0.5074  1.5737
  339MOL0     H46768   7.536   0.298   9.435 -0.2613  1.9003 -0.9843
  339MOL0     H46769   7.425   0.099   9.539 -0.1729 -0.2871  2.9742
  339MOL0     H46770   7.058   0.005   9.798  3.5056 -0.2968  0.0553
  339MOL0     H46771   7.067   0.179   9.801  0.3227  1.5068 -0.6934
  339MOL0     H46772   6.999   0.005   9.557 -2.4507 -2.1299  2.9600
  339MOL0     H46773   6.998   0.185   9.552  2.0647  0.2808  0.9162
  339MOL0     H46774   6.818   0.041   9.755 -0.3994  1.1100  0.6302
  339MOL0     H46775   6.805   0.205   9.706  0.5976  2.1600 -3.1533
  339MOL0     H46776   6.767  -0.022   9.515 -0.2123 -1.6286  4.2193
  339MOL0     H46777   6.761   0.155   9.477 -2.0416 -0.4859 -1.2353
  339MOL0     H46778   6.380   0.111   9.630 -1.1891  0.2964 -3.0415
  339MOL0     H46779   7.136   0.342   9.730 -0.6708  0.2752 -1.1202
  339MOL0     H46780   7.134   0.566   9.732 -1.6464  2.8291  0.3167
  339MOL0     H46781   7.278   0.648   9.697 -0.0262 -0.3469  0.6456
  339MOL0     H46782   7.170   0.619   9.563  1.5782  2.7051  1.3753
  340MOL0     O46783   4.851   4.635   6.365 -0.1594  0.4356  0.3226
  340MOL0     C46784   4.845   4.714   6.271 -1.0262  0.4077  0.2079
  340MOL0     O46785   4.935   4.825   6.255 -0.0781  0.0197  0.2198
  340MOL0     C46786   5.062   4.831   6.304  0.1052 -0.0585 -0.0127
  340MOL0     C46787   5.129   4.951   6.304 -0.2425 -0.1655 -0.4318
  340MOL0     C46788   5.257   4.970   6.365 -0.1183 -0.8436 -0.7469
  340MOL0     C46789   5.321   4.858   6.423  0.4503 -0.0309  0.0871
  340MOL0     O46790   5.443   4.867   6.480  0.5444  0.1328 -0.0191
  340MOL0     C46791   5.462   4.975   6.566  0.7487  1.0439  0.4636
  340MOL0     C46792   5.590   4.940   6.643  0.4114  0.0274  0.0298
  340MOL0     C46793   5.708   4.971   6.558  0.1734  0.5791  0.0887
  340MOL0     C46794   5.846   4.942   6.624 -0.5289 -0.1105 -0.0917
  340MOL0     C46795   5.958   5.008   6.540  0.4782  0.2935 -0.0956
  340MOL0     C46796   6.083   5.005   6.632 -0.1205  0.5848  0.0223
  340MOL0     C46797   6.149   4.865   6.659 -0.0914  0.9502 -0.4419
  340MOL0     C46798   6.263   4.884   6.758  1.3036  0.3688  0.0796
  340MOL0     N46799   6.386   4.942   6.702 -0.0038 -0.6476 -0.2469
  340MOL0     C46800   6.417   5.079   6.690 -0.1883  0.6421  0.0242
  340MOL0     C46801   6.520   5.070   6.598  0.2735 -0.1661 -0.3829
  340MOL0     C46802   6.588   5.198   6.534 -0.3782  0.2625  0.1101
  340MOL0     C46803   6.741   5.200   6.567  0.0069 -0.3421 -0.3453
  340MOL0     C46804   6.824   5.330   6.543  0.6859  0.2651 -0.5193
  340MOL0     C46805   6.958   5.315   6.609  0.7862 -0.1975  0.6679
  340MOL0     O46806   7.053   5.227   6.540  0.3069 -0.6014  0.4455
  340MOL0     C46807   7.183   5.222   6.587 -0.1399 -0.7200 -0.4340
  340MOL0     C46808   7.224   5.278   6.711 -0.2391  0.0488 -0.6360
  340MOL0     C46809   7.356   5.268   6.753  0.2821  0.7109 -0.1767
  340MOL0     C46810   7.394   5.330   6.881 -0.3724  0.6602 -0.5431
  340MOL0     C46811   7.451   5.208   6.671 -0.0325  0.3567  1.2621
  340MOL0     C46812   7.599   5.211   6.682  0.1036  0.4872  0.2053
  340MOL0     O46813   7.674   5.123   6.610  0.1546 -0.0281  0.5059
  340MOL0     C46814   7.807   5.103   6.634 -0.1378  0.1770 -0.1382
  340MOL0     C46815   7.894   5.209   6.635 -0.2459  0.8251  0.8794
  340MOL0     C46816   8.027   5.180   6.641 -0.5235  0.2448 -1.0696
  340MOL0     C46817   8.077   5.053   6.655  0.5752 -0.3292  0.8237
  340MOL0     O46818   8.204   5.007   6.685 -0.0650 -0.1215  0.3477
  340MOL0     C46819   8.299   5.102   6.637 -0.4863  0.3839  0.0307
  340MOL0     C46820   8.336   5.185   6.758  0.7468  0.1607  0.8863
  340MOL0     C46821   8.411   5.102   6.857 -0.8622  0.9540 -0.2894
  340MOL0     C46822   8.461   5.192   6.962 -0.6157 -0.1751  0.7556
  340MOL0     C46823   8.504   5.103   7.080  0.4664 -0.4586  0.1263
  340MOL0     C46824   8.607   4.999   7.052 -1.1912  0.1697 -0.1144
  340MOL0     C46825   8.732   5.049   6.984 -0.0637 -0.8871  0.4048
  340MOL0     C46826   8.808   5.164   7.051 -0.2088  0.4685  0.5383
  340MOL0    Cl46827   8.846   5.119   7.219 -0.0193  0.1654  0.3412
  340MOL0     C46828   7.984   4.946   6.641  0.6271  0.0630 -0.3551
  340MOL0     C46829   7.844   4.971   6.644 -0.7062 -0.1447  0.4022
  340MOL0     O46830   7.644   5.304   6.753  1.2620  0.5241 -0.8456
  340MOL0     C46831   7.400   5.156   6.549  0.2519 -0.8154 -0.5850
  340MOL0     C46832   7.271   5.155   6.502 -0.8502 -0.4510 -0.3678
  340MOL0     N46833   6.561   4.937   6.583 -0.3516  0.0430  0.5952
  340MOL0     N46834   6.479   4.862   6.644  0.3351 -0.4294 -0.2529
  340MOL0     C46835   5.261   4.729   6.409 -0.0050 -0.4977 -0.1124
  340MOL0     C46836   5.135   4.710   6.343 -0.3070  0.2569 -0.0527
  340MOL0     C46837   4.735   4.696   6.167 -0.7103  0.0623  0.3790
  340MOL0     C46838   4.623   4.612   6.190 -0.4266 -0.9744  0.5837
  340MOL0     C46839   4.528   4.573   6.090  0.3407 -0.0683 -0.8114
  340MOL0     C46840   4.528   4.626   5.967  0.3784 -0.8892 -0.0911
  340MOL0     O46841   4.427   4.587   5.890  0.0701 -0.1509  0.1184
  340MOL0     C46842   4.417   4.640   5.756  0.1330  0.9580 -0.7609
  340MOL0     C46843   4.487   4.538   5.665 -0.2522  1.5998  0.2561
  340MOL0     C46844   4.417   4.398   5.672 -0.2483  0.1177  0.0645
  340MOL0     C46845   4.259   4.390   5.665  0.6601  0.6702  0.1314
  340MOL0     C46846   4.212   4.466   5.554  0.9364 -0.7271  0.0291
  340MOL0     C46847   4.157   4.536   5.469 -0.1277  0.0092  0.4429
  340MOL0     C46848   4.640   4.708   5.942 -0.5436  0.5142  0.9690
  340MOL0     C46849   4.747   4.735   6.033 -0.7922 -0.0298  1.1051
  340MOL0     C46850   4.875   4.781   5.969  0.3036  0.2734 -0.0855
  340MOL0     H46851   5.071   5.035   6.266 -0.0489  0.1175 -0.1086
  340MOL0     H46852   5.307   5.065   6.381  1.2323 -2.0399  3.1069
  340MOL0     H46853   5.373   4.982   6.629 -1.7132 -0.3038 -2.5669
  340MOL0     H46854   5.480   5.073   6.522  2.5065  1.9682  3.0423
  340MOL0     H46855   5.601   4.998   6.735  0.4119 -1.6201  1.1181
  340MOL0     H46856   5.587   4.838   6.684  0.4110 -0.2380 -0.6260
  340MOL0     H46857   5.708   4.909   6.467 -0.7819 -0.8449  1.0164
  340MOL0     H46858   5.712   5.077   6.532 -0.2573  0.2757 -1.3575
  340MOL0     H46859   5.836   4.991   6.722 -1.5669 -1.6882  0.6407
  340MOL0     H46860   5.860   4.834   6.635 -1.0972 -0.2081 -0.2828
  340MOL0     H46861   5.926   5.111   6.523 -0.2074  0.2338  0.7617
  340MOL0     H46862   5.975   4.961   6.443 -0.4121  1.0854 -0.6430
  340MOL0     H46863   6.159   5.076   6.596 -0.9670  1.8997  0.7394
  340MOL0     H46864   6.052   5.045   6.729  1.3752  1.3866  0.2171
  340MOL0     H46865   6.195   4.831   6.566  2.4593 -0.4135  1.2170
  340MOL0     H46866   6.071   4.802   6.703  1.2836 -0.7747 -0.3785
  340MOL0     H46867   6.229   4.959   6.830 -1.6544  0.9850 -1.8085
  340MOL0     H46868   6.278   4.788   6.809 -0.0742  2.0059  4.0123
  340MOL0     H46869   6.367   5.171   6.719 -0.9331 -0.0330  0.9166
  340MOL0     H46870   6.553   5.292   6.576 -1.6242 -0.3780  0.5521
  340MOL0     H46871   6.573   5.193   6.426 -2.6055 -0.7629  0.4153
  340MOL0     H46872   6.756   5.183   6.674 -0.2184  1.8076  0.0784
  340MOL0     H46873   6.791   5.120   6.512 -0.4741  0.1227 -1.4929
  340MOL0     H46874   6.827   5.354   6.436  1.1400 -2.0861 -1.0829
  340MOL0     H46875   6.771   5.408   6.598 -1.5827 -1.2585 -0.4175
  340MOL0     H46876   7.001   5.416   6.620  2.7926 -0.9491  0.1583
  340MOL0     H46877   6.934   5.282   6.710 -0.1595 -2.2050 -0.1744
  340MOL0     H46878   7.150   5.332   6.769 -0.7580 -0.8918 -0.4004
  340MOL0     H46879   7.458   5.416   6.858  2.0219 -1.1679 -1.0774
  340MOL0     H46880   7.451   5.258   6.941 -0.8665  0.5331 -0.2209
  340MOL0     H46881   7.314   5.362   6.948  0.1928 -0.3518  0.6619
  340MOL0     H46882   7.859   5.311   6.631 -1.6354  0.3263 -0.8077
  340MOL0     H46883   8.097   5.262   6.650 -2.0925  1.7230 -1.7345
  340MOL0     H46884   8.384   5.042   6.601 -0.9578 -0.3244  0.0768
  340MOL0     H46885   8.265   5.160   6.550  0.3125 -0.3706 -0.8043
  340MOL0     H46886   8.395   5.273   6.731  2.8860 -0.5024  3.0513
  340MOL0     H46887   8.246   5.229   6.801 -0.4377 -0.2597 -1.0432
  340MOL0     H46888   8.495   5.052   6.809  0.5003  2.5253  0.3423
  340MOL0     H46889   8.347   5.025   6.901 -0.0849  0.2766 -0.3409
  340MOL0     H46890   8.380   5.258   6.994  0.1464  1.3056 -0.2346
  340MOL0     H46891   8.546   5.247   6.920 -1.4252 -1.0917 -2.3919
  340MOL0     H46892   8.546   5.163   7.161  0.5314 -0.2052 -0.0904
  340MOL0     H46893   8.412   5.054   7.112 -2.4787  3.3439 -1.5817
  340MOL0     H46894   8.575   4.911   6.996  3.8132 -4.1163  2.7549
  340MOL0     H46895   8.650   4.951   7.141  1.1352  0.3132 -1.0820
  340MOL0     H46896   8.719   5.072   6.878  0.8881  1.7687  0.7893
  340MOL0     H46897   8.796   4.961   6.972  1.5083  0.4894 -2.2649
  340MOL0     H46898   8.763   5.263   7.034  0.2934  0.4315 -1.2357
  340MOL0     H46899   8.904   5.167   6.999 -0.7348 -3.0988 -0.9810
  340MOL0     H46900   8.021   4.844   6.640 -0.5668 -0.3961  0.8293
  340MOL0     H46901   7.768   4.895   6.660 -0.8087  0.1358  1.3669
  340MOL0     H46902   7.477   5.106   6.491  2.9346  0.8824  1.2364
  340MOL0     H46903   7.254   5.098   6.411  4.3640 -3.3458  0.0814
  340MOL0     H46904   5.315   4.646   6.453  0.1556  0.0702  0.8030
  340MOL0     H46905   5.097   4.610   6.326  1.8240 -0.4360 -0.9578
  340MOL0     H46906   4.603   4.583   6.293 -0.1379  2.1093  1.5861
  340MOL0     H46907   4.448   4.513   6.132 -1.0419  1.9977 -0.3386
  340MOL0     H46908   4.316   4.663   5.723  0.4709  0.2473 -2.3903
  340MOL0     H46909   4.470   4.735   5.748  0.3952  0.8290 -0.5979
  340MOL0     H46910   4.586   4.535   5.710 -0.7391 -0.4615  1.3267
  340MOL0     H46911   4.498   4.569   5.561  2.4961 -2.2406 -0.8090
  340MOL0     H46912   4.458   4.336   5.592 -1.9109  0.7139 -1.3264
  340MOL0     H46913   4.439   4.348   5.766  1.4640 -1.2112 -0.9766
  340MOL0     H46914   4.210   4.437   5.750  0.3221 -0.2757  0.4737
  340MOL0     H46915   4.218   4.289   5.654  1.4897  0.4171 -0.7340
  340MOL0     H46916   4.103   4.590   5.394  0.8409 -0.1511 -0.4004
  340MOL0     H46917   4.651   4.739   5.838 -0.2740 -1.5480  0.3247
  340MOL0     H46918   4.929   4.857   6.025 -1.5108  1.3311  0.3065
  340MOL0     H46919   4.941   4.695   5.979 -0.6927 -0.3899  0.9352
  340MOL0     H46920   4.871   4.813   5.864 -0.2705  0.4831 -0.0027
  341MOL0     O46921   5.576   6.366   0.135  0.3325 -0.4386  0.2589
  341MOL0     C46922   5.546   6.462   0.066 -0.1675  0.6534 -0.0111
  341MOL0     O46923   5.570   6.463  -0.065  0.7051 -0.8535 -0.0384
  341MOL0     C46924   5.627   6.364  -0.132  0.7666  0.8503  0.3115
  341MOL0     C46925   5.602   6.224  -0.115  0.4323  1.2309 -0.0443
  341MOL0     C46926   5.676   6.130  -0.183 -0.0706  0.3788  0.3769
  341MOL0     C46927   5.775   6.158  -0.279  0.5180  0.5368 -0.5532
  341MOL0     O46928   5.854   6.069  -0.339  0.8374  0.0802  0.3018
  341MOL0     C46929   5.841   5.934  -0.313  0.4819  0.8256  0.3998
  341MOL0     C46930   5.938   5.857  -0.391 -0.7800 -0.4532 -0.5144
  341MOL0     C46931   5.942   5.717  -0.333  0.6313 -0.0056  0.7400
  341MOL0     C46932   5.997   5.613  -0.443  0.2303 -0.3217 -0.3684
  341MOL0     C46933   6.141   5.648  -0.491 -0.4199 -0.0430  0.2290
  341MOL0     C46934   6.217   5.544  -0.585 -0.2209  0.6693  0.4574
  341MOL0     C46935   6.345   5.604  -0.645 -0.6299  0.0175  0.0545
  341MOL0     C46936   6.397   5.496  -0.738 -0.4228 -0.0753  0.2701
  341MOL0     N46937   6.518   5.531  -0.819  0.1290  0.3896 -0.4418
  341MOL0     C46938   6.637   5.466  -0.807 -0.3805 -0.7189  0.3749
  341MOL0     C46939   6.723   5.535  -0.881  0.3915 -0.4396 -0.0099
  341MOL0     C46940   6.869   5.513  -0.885 -0.0125  0.6488 -0.6461
  341MOL0     C46941   6.953   5.549  -0.760  0.0379 -0.0444 -0.6048
  341MOL0     C46942   7.102   5.536  -0.785  0.4809 -0.3336  0.1164
  341MOL0     C46943   7.185   5.538  -0.654 -0.1212  0.1351  0.0164
  341MOL0     O46944   7.318   5.486  -0.676  0.3896 -0.0683  0.2011
  341MOL0     C46945   7.402   5.490  -0.570 -0.1998  1.0276 -0.1756
  341MOL0     C46946   7.370   5.473  -0.436 -0.8023 -1.2358 -0.5392
  341MOL0     C46947   7.468   5.502  -0.341  0.3917 -0.6970 -1.3667
  341MOL0     C46948   7.417   5.481  -0.198 -0.4355  0.5170  0.7583
  341MOL0     C46949   7.605   5.533  -0.372 -0.0450 -0.8527  0.3701
  341MOL0     C46950   7.712   5.543  -0.269 -0.4259  0.2684 -0.2550
  341MOL0     O46951   7.805   5.643  -0.277 -0.3268 -0.4797 -0.3880
  341MOL0     C46952   7.920   5.622  -0.192 -0.1234  0.0924  0.4490
  341MOL0     C46953   7.921   5.673  -0.063  0.2414  0.5533  0.2636
  341MOL0     C46954   8.031   5.663   0.019  0.6019  0.2315 -0.3499
  341MOL0     C46955   8.147   5.606  -0.024  0.3786  0.5588 -0.1922
  341MOL0     O46956   8.248   5.616   0.073  0.4363 -0.2275  0.7699
  341MOL0     C46957   8.380   5.642   0.024  0.0983  0.5961  0.4881
  341MOL0     C46958   8.477   5.675   0.137 -0.3851 -0.5116 -0.2130
  341MOL0     C46959   8.602   5.750   0.085 -0.1985  0.0567 -0.5606
  341MOL0     C46960   8.703   5.750   0.199  0.0033  0.2609 -0.3601
  341MOL0     C46961   8.810   5.638   0.206  0.1003  0.9101 -0.4281
  341MOL0     C46962   8.897   5.662   0.328 -0.2995 -0.5659  0.4056
  341MOL0     C46963   9.008   5.568   0.364 -0.6382  0.2558 -0.0350
  341MOL0     C46964   9.089   5.606   0.484 -0.2431  1.7110  0.2479
  341MOL0    Cl46965   9.207   5.472   0.525 -0.3782 -0.3538  0.2480
  341MOL0     C46966   8.160   5.563  -0.152 -0.3083 -0.1429 -0.0642
  341MOL0     C46967   8.040   5.563  -0.232 -0.7701  0.2875 -0.6997
  341MOL0     O46968   7.721   5.449  -0.186  0.1606 -1.1329  0.6218
  341MOL0     C46969   7.635   5.545  -0.509  0.4118 -0.2318  0.5408
  341MOL0     C46970   7.531   5.519  -0.613 -0.0011 -0.0057 -0.6353
  341MOL0     N46971   6.643   5.630  -0.954 -0.0429  0.6635  0.3161
  341MOL0     N46972   6.521   5.627  -0.915 -0.1792  0.0887 -0.6874
  341MOL0     C46973   5.793   6.294  -0.309  1.0643  0.6728 -0.2605
  341MOL0     C46974   5.722   6.399  -0.234  0.3556  1.0029  0.3883
  341MOL0     C46975   5.468   6.568   0.131  0.1032  0.5722  0.5048
  341MOL0     C46976   5.425   6.552   0.263  0.5751  0.4402 -0.5660
  341MOL0     C46977   5.336   6.632   0.325  0.3495 -0.8587  0.8842
  341MOL0     C46978   5.275   6.730   0.260  0.1640 -0.9861  0.6719
  341MOL0     O46979   5.180   6.799   0.329  0.3443 -0.3248  0.5850
  341MOL0     C46980   5.160   6.938   0.293  0.5785  0.4372 -0.2856
  341MOL0     C46981   5.125   7.015   0.423 -0.4724  0.2692  0.5261
  341MOL0     C46982   5.245   7.086   0.473 -0.1999 -1.1305  0.8881
  341MOL0     C46983   5.207   7.197   0.569  0.1378 -0.8363 -1.6358
  341MOL0     C46984   5.127   7.299   0.496 -0.1491  1.4428 -0.0593
  341MOL0     C46985   5.044   7.373   0.453  0.5529  0.5950  0.1751
  341MOL0     C46986   5.309   6.745   0.126  0.8515 -0.5257  0.2471
  341MOL0     C46987   5.412   6.677   0.058  0.3736  0.0778  0.3914
  341MOL0     C46988   5.441   6.714  -0.088 -0.2709 -0.6515 -0.0046
  341MOL0     H46989   5.533   6.179  -0.044  2.9615  1.0661  2.5031
  341MOL0     H46990   5.660   6.027  -0.155  1.0593 -0.4367 -1.7964
  341MOL0     H46991   5.737   5.907  -0.334  0.8133  0.3646 -0.7871
  341MOL0     H46992   5.865   5.918  -0.208 -0.4162 -0.2224  0.4575
  341MOL0     H46993   5.915   5.852  -0.498 -0.0753 -1.3623 -0.6330
  341MOL0     H46994   6.036   5.905  -0.387 -1.3207  0.6032  1.0550
  341MOL0     H46995   5.997   5.725  -0.239  0.3747 -2.2846  1.1365
  341MOL0     H46996   5.844   5.670  -0.315 -1.0039  1.9539 -2.2087
  341MOL0     H46997   5.997   5.510  -0.406 -2.1461 -1.2105 -2.5320
  341MOL0     H46998   5.930   5.612  -0.530 -0.3254  0.4587  0.0414
  341MOL0     H46999   6.203   5.681  -0.407  0.1516 -0.0975 -0.1605
  341MOL0     H47000   6.128   5.736  -0.555 -1.9358 -0.1487  0.3612
  341MOL0     H47001   6.231   5.450  -0.531 -5.2557 -0.2235  0.7039
  341MOL0     H47002   6.146   5.516  -0.664  0.6516  1.7147 -0.7427
  341MOL0     H47003   6.417   5.618  -0.563  0.5535 -1.2445 -0.7210
  341MOL0     H47004   6.327   5.702  -0.690 -0.1247  0.0083 -0.1715
  341MOL0     H47005   6.405   5.401  -0.685  1.2900  0.9107  1.8539
  341MOL0     H47006   6.319   5.484  -0.814 -0.4096 -1.0623  0.3965
  341MOL0     H47007   6.645   5.379  -0.743 -1.9651  0.6602  2.5601
  341MOL0     H47008   6.917   5.576  -0.960 -0.6914 -0.9570 -2.5199
  341MOL0     H47009   6.884   5.407  -0.909 -1.5232 -0.0028  1.0479
  341MOL0     H47010   6.950   5.655  -0.737  2.2377  0.1727 -1.1370
  341MOL0     H47011   6.935   5.486  -0.672 -0.8914  2.2706  0.9499
  341MOL0     H47012   7.126   5.438  -0.826  0.4467 -1.3179  2.3198
  341MOL0     H47013   7.128   5.613  -0.858 -1.3916 -1.2109 -1.5771
  341MOL0     H47014   7.176   5.633  -0.601 -1.9914  0.3177 -0.5470
  341MOL0     H47015   7.144   5.471  -0.577  2.5522 -0.7189  0.8243
  341MOL0     H47016   7.267   5.450  -0.411 -1.1111 -0.4677 -1.0825
  341MOL0     H47017   7.450   5.384  -0.161 -0.8502  0.0893  0.0357
  341MOL0     H47018   7.308   5.468  -0.193 -0.2658 -2.2271 -0.7582
  341MOL0     H47019   7.447   5.567  -0.137 -3.7234  0.0472  3.3033
  341MOL0     H47020   7.841   5.723  -0.010  2.1746  1.9873  1.9679
  341MOL0     H47021   8.019   5.690   0.124  2.1368  0.4410 -0.1964
  341MOL0     H47022   8.414   5.551  -0.027  0.7496  0.3148  1.3950
  341MOL0     H47023   8.373   5.721  -0.051 -1.7445 -0.3154 -0.3686
  341MOL0     H47024   8.421   5.745   0.200 -1.0939  1.9398 -3.3419
  341MOL0     H47025   8.502   5.579   0.183 -2.8720 -0.9387  0.4143
  341MOL0     H47026   8.580   5.851   0.051 -4.4259  0.1176  1.7693
  341MOL0     H47027   8.640   5.686   0.005  0.3080 -1.8393  1.0961
  341MOL0     H47028   8.645   5.745   0.291  1.4548  1.8460  0.7048
  341MOL0     H47029   8.754   5.847   0.201 -2.6850  1.7648  2.3124
  341MOL0     H47030   8.755   5.543   0.206 -3.7637  2.9105 -1.5640
  341MOL0     H47031   8.864   5.644   0.111  0.0770  0.6876 -0.4545
  341MOL0     H47032   8.832   5.670   0.416 -0.9168  0.2139 -0.1031
  341MOL0     H47033   8.937   5.763   0.315 -1.7522  0.5491  3.5689
  341MOL0     H47034   9.073   5.559   0.277  0.3608  1.2238  0.5773
  341MOL0     H47035   8.967   5.469   0.389  0.4627  0.1169  1.3596
  341MOL0     H47036   9.023   5.617   0.570  0.1275 -0.6822  0.9120
  341MOL0     H47037   9.150   5.696   0.474  1.8233  0.2261 -1.6247
  341MOL0     H47038   8.251   5.517  -0.188 -0.7560  0.2816 -1.8356
  341MOL0     H47039   8.036   5.522  -0.333  0.1889  2.2628 -1.6007
  341MOL0     H47040   7.742   5.552  -0.526  0.3581  1.5258  0.7421
  341MOL0     H47041   7.558   5.547  -0.715 -0.0959  1.0496 -0.3883
  341MOL0     H47042   5.865   6.317  -0.386  1.4981 -0.2680 -0.1479
  341MOL0     H47043   5.720   6.504  -0.263  1.4522  1.0579  0.4824
  341MOL0     H47044   5.457   6.467   0.323  3.0931  1.1197 -0.8243
  341MOL0     H47045   5.312   6.621   0.429  0.5694 -2.2663  0.7990
  341MOL0     H47046   5.241   6.997   0.248 -0.9327  2.3994 -0.5389
  341MOL0     H47047   5.078   6.941   0.221 -0.4189 -0.2819  0.7752
  341MOL0     H47048   5.081   6.944   0.493 -2.3482 -1.5140 -2.2133
  341MOL0     H47049   5.045   7.086   0.398  1.3932  3.1170  2.2029
  341MOL0     H47050   5.308   7.007   0.515 -2.4350 -3.4925  0.0434
  341MOL0     H47051   5.298   7.132   0.389 -0.2570 -1.3149  0.7513
  341MOL0     H47052   5.296   7.251   0.602 -0.9303  0.3797 -0.6600
  341MOL0     H47053   5.164   7.153   0.659 -1.4155  1.8044 -0.9837
  341MOL0     H47054   4.991   7.452   0.404 -1.1890 -1.7380 -1.9202
  341MOL0     H47055   5.257   6.818   0.065  1.4063  1.7700  2.3411
  341MOL0     H47056   5.547   6.738  -0.098 -0.7134  1.9738  0.8447
  341MOL0     H47057   5.403   6.630  -0.147 -2.3912 -1.9445  2.9848
  341MOL0     H47058   5.398   6.808  -0.124  0.9486 -0.3716 -0.8029
  342MOL0     O47059   9.055   9.169   0.176 -0.1417 -0.3725  0.7789
  342MOL0     C47060   8.961   9.112   0.241  0.1451  0.2443  0.9357
  342MOL0     O47061   8.972   9.069   0.365  0.3786  0.4878 -0.7472
  342MOL0     C47062   9.097   9.065   0.423 -0.7739 -0.1026 -1.3794
  342MOL0     C47063   9.194   8.976   0.390  0.4846 -0.1102  0.0393
  342MOL0     C47064   9.304   8.948   0.470 -0.0933  1.0747  0.5524
  342MOL0     C47065   9.328   9.023   0.582 -0.1204  0.0042  1.4694
  342MOL0     O47066   9.431   9.009   0.659 -0.4251  0.3355  0.2528
  342MOL0     C47067   9.438   8.879   0.718 -0.6639  0.2680 -0.9770
  342MOL0     C47068   9.336   8.848   0.834 -0.1746 -0.1369 -0.4163
  342MOL0     C47069   9.352   8.949   0.941 -0.7474  0.2391  0.0413
  342MOL0     C47070   9.222   8.957   1.036  0.5833  0.0058 -0.2749
  342MOL0     C47071   9.247   9.065   1.145  0.7990  0.7975  0.8220
  342MOL0     C47072   9.372   9.049   1.235 -0.0367 -0.1780 -0.2079
  342MOL0     C47073   9.362   9.171   1.331 -0.0231  0.8500  0.4353
  342MOL0     C47074   9.480   9.175   1.429 -0.2360  1.3250  0.1125
  342MOL0     N47075   9.610   9.203   1.361 -0.3224 -0.7208 -0.1969
  342MOL0     C47076   9.650   9.322   1.304  0.2377  0.3860  1.0149
  342MOL0     C47077   9.773   9.292   1.262  0.5273 -0.7649 -0.9884
  342MOL0     C47078   9.874   9.391   1.205 -0.1328 -0.4814 -0.4377
  342MOL0     C47079   9.974   9.434   1.313 -0.1057 -1.2552 -0.4185
  342MOL0     C47080  10.013   9.584   1.283 -0.2411  0.1775 -0.3325
  342MOL0     C47081  10.123   9.629   1.367 -1.0629  0.2426 -0.4606
  342MOL0     O47082  10.235   9.536   1.364  0.2068  0.0969 -0.1891
  342MOL0     C47083  10.327   9.559   1.454 -0.2505 -0.5751 -0.7189
  342MOL0     C47084  10.361   9.676   1.523  0.8095 -0.0344 -0.2845
  342MOL0     C47085  10.454   9.677   1.621  0.2783 -0.0752 -0.7503
  342MOL0     C47086  10.488   9.812   1.680  1.0266 -0.0670 -0.2086
  342MOL0     C47087  10.537   9.562   1.640  0.5829  0.1681 -1.1260
  342MOL0     C47088  10.651   9.547   1.732  0.5923 -0.3159 -0.6012
  342MOL0     O47089  10.718   9.428   1.745 -0.7870 -0.3833 -0.1580
  342MOL0     C47090  10.824   9.414   1.828 -0.1255  0.0707 -0.9870
  342MOL0     C47091  10.805   9.338   1.950 -0.5593 -0.4949  0.6685
  342MOL0     C47092  10.916   9.340   2.043  0.3686  0.4757  0.6816
  342MOL0     C47093  11.041   9.395   2.010 -0.4051 -0.9179 -0.4333
  342MOL0     O47094  11.155   9.395   2.090 -0.2012  0.0009 -0.1244
  342MOL0     C47095  11.146   9.387   2.233  0.0987  0.0969  0.0272
  342MOL0     C47096  11.281   9.390   2.300  0.4933  0.2888  0.3213
  342MOL0     C47097  11.378   9.272   2.260 -0.2794 -0.3442 -0.9048
  342MOL0     C47098  11.531   9.287   2.288  0.2379  0.2500 -0.0729
  342MOL0     C47099  11.618   9.192   2.197  0.4016 -0.1138  0.3270
  342MOL0     C47100  11.748   9.260   2.135 -0.1621  0.0417 -1.3505
  342MOL0     C47101  11.820   9.180   2.026 -0.8303  0.6902 -0.4563
  342MOL0     C47102  11.856   9.031   2.053 -0.1913  0.3157  0.5617
  342MOL0    Cl47103  11.992   9.027   2.171 -0.3572 -0.6675  0.3545
  342MOL0     C47104  11.047   9.473   1.898  1.0840 -0.7132  0.2584
  342MOL0     C47105  10.942   9.482   1.805 -0.6612  0.2187 -0.2417
  342MOL0     O47106  10.693   9.649   1.787  0.6017 -0.2294 -0.3554
  342MOL0     C47107  10.507   9.443   1.568  0.7225 -0.3554 -0.5071
  342MOL0     C47108  10.397   9.444   1.477 -0.1318  0.4827 -0.7475
  342MOL0     N47109   9.797   9.158   1.295 -0.2033  0.3418 -0.6931
  342MOL0     N47110   9.697   9.104   1.345 -0.2306 -0.6967  0.1908
  342MOL0     C47111   9.250   9.129   0.603 -0.6572 -0.3718 -0.6797
  342MOL0     C47112   9.128   9.141   0.535  0.4042 -0.2623 -0.0044
  342MOL0     C47113   8.834   9.096   0.158  0.2189 -0.1004 -0.3045
  342MOL0     C47114   8.840   9.107   0.015 -0.7769  0.4240 -0.6175
  342MOL0     C47115   8.723   9.083  -0.068 -0.1044  0.4361  0.4947
  342MOL0     C47116   8.600   9.055  -0.009  0.0696 -0.9427 -0.7803
  342MOL0     O47117   8.486   9.045  -0.079 -0.4082  0.1814  0.2633
  342MOL0     C47118   8.493   9.052  -0.223  0.2379 -0.6939 -0.3523
  342MOL0     C47119   8.351   9.046  -0.284 -0.2581 -0.3511 -0.0326
  342MOL0     C47120   8.306   8.896  -0.308 -0.1571  0.2837  0.1608
  342MOL0     C47121   8.206   8.895  -0.420  0.4199  0.0608  0.0565
  342MOL0     C47122   8.071   8.943  -0.376 -0.2386 -1.0018  0.5937
  342MOL0     C47123   7.964   8.989  -0.339  0.2357  0.1767 -0.1519
  342MOL0     C47124   8.593   9.066   0.135  0.1327 -0.8927  0.6358
  342MOL0     C47125   8.702   9.080   0.218  0.0392 -0.8075 -0.3047
  342MOL0     C47126   8.673   9.087   0.365 -1.2602 -0.3227  0.1709
  342MOL0     H47127   9.183   8.936   0.290 -1.5002  0.1954  0.0916
  342MOL0     H47128   9.353   8.856   0.438 -1.5550  0.5296 -0.2475
  342MOL0     H47129   9.539   8.880   0.760 -0.8041  0.3179 -0.6358
  342MOL0     H47130   9.437   8.789   0.656 -3.5373  0.1048 -0.8185
  342MOL0     H47131   9.233   8.855   0.800 -0.7363  0.4867  1.3053
  342MOL0     H47132   9.357   8.751   0.879 -1.3215 -1.2631 -2.2127
  342MOL0     H47133   9.442   8.929   1.001 -0.4769  2.0213  0.2923
  342MOL0     H47134   9.363   9.047   0.893 -1.7593  0.5985  0.5141
  342MOL0     H47135   9.135   8.962   0.969  0.7293  1.6040 -0.3797
  342MOL0     H47136   9.216   8.865   1.096 -1.1619  0.6942  0.6644
  342MOL0     H47137   9.157   9.068   1.207 -0.0297  3.1596 -0.3485
  342MOL0     H47138   9.252   9.164   1.099  0.6578  0.6971  0.5884
  342MOL0     H47139   9.361   8.952   1.284  1.1752 -0.2295 -0.0133
  342MOL0     H47140   9.467   9.056   1.180 -0.2380 -0.8902 -0.6558
  342MOL0     H47141   9.270   9.150   1.387 -0.8604 -0.0711 -1.2085
  342MOL0     H47142   9.352   9.267   1.281 -0.8590 -0.5603 -2.3248
  342MOL0     H47143   9.465   9.243   1.514  1.0291  2.2106 -0.3425
  342MOL0     H47144   9.480   9.073   1.468 -1.2245  1.5135  0.6428
  342MOL0     H47145   9.607   9.421   1.313 -0.6296  0.2016 -0.6744
  342MOL0     H47146   9.815   9.478   1.175 -4.6520 -2.9663  0.4978
  342MOL0     H47147   9.929   9.358   1.116  0.5416 -0.1010 -0.1699
  342MOL0     H47148   9.920   9.434   1.407 -2.0546  4.9789 -1.0284
  342MOL0     H47149  10.061   9.368   1.309  0.5313 -0.4143 -0.8798
  342MOL0     H47150  10.039   9.594   1.177  2.2972  0.6837  0.2880
  342MOL0     H47151   9.928   9.652   1.301 -0.5270 -0.4870  0.9200
  342MOL0     H47152  10.163   9.723   1.328 -0.4209  0.6695  1.1376
  342MOL0     H47153  10.085   9.656   1.466 -0.6586  0.6500 -0.4107
  342MOL0     H47154  10.298   9.763   1.508 -2.8849 -2.2886  0.8536
  342MOL0     H47155  10.452   9.819   1.783 -0.8054  0.7228 -0.8654
  342MOL0     H47156  10.441   9.888   1.617  0.4828  0.9880  1.4208
  342MOL0     H47157  10.591   9.842   1.662  0.2514  1.8180 -1.9186
  342MOL0     H47158  10.709   9.298   1.983 -0.9143  1.4949  2.2571
  342MOL0     H47159  10.892   9.288   2.135 -0.4395  0.6101  0.5574
  342MOL0     H47160  11.082   9.472   2.259  0.0706  0.1590 -0.2417
  342MOL0     H47161  11.091   9.296   2.260  1.5890 -1.4085 -1.7480
  342MOL0     H47162  11.329   9.485   2.277 -0.9128  1.1019  0.6164
  342MOL0     H47163  11.256   9.382   2.407 -2.4154  0.0338 -0.3032
  342MOL0     H47164  11.371   9.248   2.154 -0.1196  3.0738 -1.8015
  342MOL0     H47165  11.341   9.189   2.322 -0.9929  1.0600  0.6156
  342MOL0     H47166  11.547   9.274   2.395 -3.7544 -0.9211  0.5627
  342MOL0     H47167  11.560   9.391   2.271  0.7492  0.1422  0.1430
  342MOL0     H47168  11.641   9.095   2.243 -0.5662 -1.2690 -1.5048
  342MOL0     H47169  11.565   9.160   2.107  0.8343 -0.3365  0.1487
  342MOL0     H47170  11.816   9.269   2.221 -1.4171  2.3050 -0.5084
  342MOL0     H47171  11.723   9.359   2.096  0.4823  0.1532 -1.4959
  342MOL0     H47172  11.915   9.225   1.998  1.0720 -2.0245  1.1298
  342MOL0     H47173  11.754   9.183   1.939  1.1110 -0.6255 -2.0461
  342MOL0     H47174  11.884   8.990   1.956 -1.8991  1.7935 -0.6153
  342MOL0     H47175  11.769   8.978   2.094 -1.3310  1.3044 -0.4822
  342MOL0     H47176  11.138   9.527   1.874  0.2537  0.7938  0.3726
  342MOL0     H47177  10.952   9.542   1.715  1.5295 -1.3602 -1.1323
  342MOL0     H47178  10.571   9.356   1.579 -0.7619 -1.3829  0.3018
  342MOL0     H47179  10.366   9.353   1.428 -0.8273 -0.2032  0.9025
  342MOL0     H47180   9.281   9.198   0.681 -0.5782 -0.3233 -0.7558
  342MOL0     H47181   9.061   9.221   0.565 -0.9056 -0.9946 -0.8751
  342MOL0     H47182   8.936   9.129  -0.029  0.4947 -3.3863 -0.1157
  342MOL0     H47183   8.740   9.068  -0.174 -1.9382 -2.0186  0.4803
  342MOL0     H47184   8.537   9.145  -0.261  2.0698 -2.2347 -2.2182
  342MOL0     H47185   8.544   8.966  -0.267  0.7579 -1.3118  1.3758
  342MOL0     H47186   8.353   9.100  -0.379 -1.6946 -1.2880 -0.6313
  342MOL0     H47187   8.281   9.092  -0.215 -1.3817  0.5656 -1.7234
  342MOL0     H47188   8.390   8.831  -0.333 -0.3698 -0.1943  0.6589
  342MOL0     H47189   8.273   8.851  -0.214  2.9886  0.0324  1.2386
  342MOL0     H47190   8.195   8.791  -0.453  0.3704 -0.9333  2.8701
  342MOL0     H47191   8.242   8.942  -0.511 -3.7525 -1.5485 -2.7133
  342MOL0     H47192   7.871   9.033  -0.310 -1.9372 -1.0786 -4.4052
  342MOL0     H47193   8.497   9.053   0.184 -0.5664 -1.3223 -0.8065
  342MOL0     H47194   8.568   9.109   0.387 -1.5251  0.4472 -1.6546
  342MOL0     H47195   8.694   8.991   0.413 -2.9248 -0.8279 -0.0370
  342MOL0     H47196   8.729   9.164   0.420  0.7287  0.4370 -2.6907
  343MOL0     O47197   7.774   3.290   1.695 -0.1330 -0.3563  0.3205
  343MOL0     C47198   7.802   3.410   1.678  0.6783 -0.0605 -0.7119
  343MOL0     O47199   7.926   3.452   1.647 -0.0251 -0.0211 -0.5194
  343MOL0     C47200   8.028   3.375   1.589  0.1235  0.7612 -0.2709
  343MOL0     C47201   8.018   3.312   1.469  0.8469 -0.7258  0.1034
  343MOL0     C47202   8.122   3.229   1.423 -0.3143  0.0129  0.4298
  343MOL0     C47203   8.239   3.202   1.487  0.6403 -0.5135  0.1066
  343MOL0     O47204   8.333   3.110   1.438  0.2603  1.2611 -0.5387
  343MOL0     C47205   8.470   3.133   1.453 -0.0831  0.3786  0.3017
  343MOL0     C47206   8.554   3.030   1.373 -0.8891 -0.1765 -0.2098
  343MOL0     C47207   8.695   3.027   1.431  0.2440  0.7701  0.0047
  343MOL0     C47208   8.757   2.907   1.361 -0.1525 -0.4714  0.1564
  343MOL0     C47209   8.901   2.874   1.410 -0.4622 -0.0385 -0.2658
  343MOL0     C47210   8.995   2.999   1.410  0.0154 -0.8194 -0.7214
  343MOL0     C47211   9.139   2.964   1.440  0.2664 -0.7517  0.2663
  343MOL0     C47212   9.169   2.955   1.596  0.2889 -0.3022  0.1978
  343MOL0     N47213   9.316   2.947   1.613  0.1845 -0.4444  1.0751
  343MOL0     C47214   9.384   2.888   1.717 -0.2524  0.6527  0.2074
  343MOL0     C47215   9.518   2.915   1.687 -0.1494  0.3190 -1.5145
  343MOL0     C47216   9.635   2.892   1.779 -0.2133  0.2579  0.1788
  343MOL0     C47217   9.749   2.820   1.704 -0.8632 -0.3841 -0.3352
  343MOL0     C47218   9.869   2.792   1.803  0.1712 -0.7736 -0.1462
  343MOL0     C47219   9.987   2.738   1.720 -0.2312  0.6556 -0.3877
  343MOL0     O47220  10.081   2.699   1.816 -0.1907  0.1650  0.4382
  343MOL0     C47221  10.217   2.714   1.794 -0.6412 -0.2512 -0.7210
  343MOL0     C47222  10.271   2.840   1.824 -0.2908 -0.2987  0.9815
  343MOL0     C47223  10.409   2.855   1.810 -0.5454 -0.5472 -0.6903
  343MOL0     C47224  10.469   2.993   1.847  0.2229  0.7116 -0.0874
  343MOL0     C47225  10.496   2.756   1.755  0.3079  0.5089  0.5980
  343MOL0     C47226  10.643   2.766   1.716  0.6146  0.1271  0.3579
  343MOL0     O47227  10.720   2.646   1.694  0.6292  0.4566  0.5229
  343MOL0     C47228  10.857   2.653   1.695  0.5230 -0.1452 -0.6920
  343MOL0     C47229  10.922   2.561   1.616  0.4701 -0.6014 -0.7390
  343MOL0     C47230  11.066   2.558   1.610  0.3142  0.1645 -0.2404
  343MOL0     C47231  11.148   2.638   1.685  0.0981 -0.4380 -0.3981
  343MOL0     O47232  11.280   2.606   1.696 -0.3440 -0.5283  0.0140
  343MOL0     C47233  11.357   2.707   1.633 -0.5081 -0.4193  0.2875
  343MOL0     C47234  11.412   2.821   1.719 -0.0380 -0.6807 -0.0103
  343MOL0     C47235  11.473   2.777   1.859  0.5820 -0.2277  0.2820
  343MOL0     C47236  11.603   2.708   1.859  0.8660 -0.1055  0.2497
  343MOL0     C47237  11.678   2.694   1.996 -0.0009 -0.0629  1.0413
  343MOL0     C47238  11.613   2.638   2.124  0.0092  0.7240 -0.7112
  343MOL0     C47239  11.719   2.584   2.212  0.3890 -0.6280 -0.0206
  343MOL0     C47240  11.692   2.566   2.360  0.0631  0.1768  0.1665
  343MOL0    Cl47241  11.554   2.454   2.369 -0.0637 -0.1598 -0.4272
  343MOL0     C47242  11.081   2.727   1.778  0.1729  0.5903 -0.3043
  343MOL0     C47243  10.939   2.740   1.771 -0.4183  0.6333 -1.2738
  343MOL0     O47244  10.688   2.882   1.710 -0.2643 -0.0542 -0.7014
  343MOL0     C47245  10.430   2.631   1.720  0.4551  0.5020 -0.1470
  343MOL0     C47246  10.295   2.602   1.744 -0.3824 -0.2890 -0.0889
  343MOL0     N47247   9.524   3.000   1.578  0.5811  0.2266 -0.1201
  343MOL0     N47248   9.404   3.008   1.531 -0.2950  0.0653  1.0490
  343MOL0     C47249   8.247   3.255   1.618  0.1290 -0.1130  0.1525
  343MOL0     C47250   8.150   3.349   1.660 -0.3348 -0.1173 -0.4227
  343MOL0     C47251   7.702   3.511   1.727  0.5122  0.2463 -0.4397
  343MOL0     C47252   7.737   3.648   1.740  0.2953  0.3824  1.1397
  343MOL0     C47253   7.646   3.747   1.767 -0.1672 -0.2520  0.5729
  343MOL0     C47254   7.516   3.726   1.804 -0.2299  0.1264  0.1049
  343MOL0     O47255   7.432   3.836   1.810 -0.6147 -0.1847  0.1628
  343MOL0     C47256   7.343   3.833   1.922  0.7617 -0.4198 -0.9892
  343MOL0     C47257   7.265   3.969   1.926  0.6718  0.7614 -0.0198
  343MOL0     C47258   7.360   4.093   1.944 -0.9589 -0.2818 -0.5129
  343MOL0     C47259   7.446   4.090   2.064  0.6540 -0.6067  0.8210
  343MOL0     C47260   7.358   4.067   2.178  0.9781  0.5470  0.3609
  343MOL0     C47261   7.288   4.059   2.281  0.8878  0.3922  0.3406
  343MOL0     C47262   7.473   3.592   1.791 -0.9342 -0.4449  1.0132
  343MOL0     C47263   7.558   3.490   1.748 -0.7142  0.0396 -0.6590
  343MOL0     C47264   7.504   3.354   1.711  0.6429  1.0469  0.2660
  343MOL0     H47265   7.926   3.325   1.413 -2.2266 -0.2422  4.7035
  343MOL0     H47266   8.105   3.179   1.328  0.2633  0.1645  0.2430
  343MOL0     H47267   8.491   3.127   1.560  1.1349  0.7773  0.1091
  343MOL0     H47268   8.498   3.232   1.415 -0.7685  0.6642  0.5265
  343MOL0     H47269   8.504   2.934   1.383 -1.5460  0.1950  0.1509
  343MOL0     H47270   8.566   3.076   1.275 -0.1106  3.1550  1.3080
  343MOL0     H47271   8.746   3.124   1.426  1.4125  0.1800  0.2135
  343MOL0     H47272   8.689   3.007   1.539 -1.6025 -0.1174 -0.2276
  343MOL0     H47273   8.698   2.817   1.380  0.4614 -1.0338 -0.5731
  343MOL0     H47274   8.765   2.921   1.253  3.3971 -0.6489  0.2956
  343MOL0     H47275   8.947   2.792   1.355  1.8103 -0.6247  2.2711
  343MOL0     H47276   8.892   2.843   1.514 -0.1371 -0.0574 -0.2423
  343MOL0     H47277   8.989   3.061   1.321  0.8919 -0.1562 -0.3241
  343MOL0     H47278   8.958   3.058   1.494 -3.1597 -1.4478 -1.5407
  343MOL0     H47279   9.196   3.050   1.405  0.4897 -0.6126  0.9670
  343MOL0     H47280   9.160   2.874   1.380  1.9938  0.8419 -1.6989
  343MOL0     H47281   9.132   3.041   1.654 -4.1455 -1.3462 -0.7547
  343MOL0     H47282   9.119   2.866   1.635  0.7743 -0.6378  0.0636
  343MOL0     H47283   9.344   2.834   1.803  0.3278  2.9051  1.9688
  343MOL0     H47284   9.616   2.851   1.879  1.7338  0.8918  0.8595
  343MOL0     H47285   9.682   2.988   1.803  0.2788 -0.8381  4.6131
  343MOL0     H47286   9.706   2.731   1.658  0.1273  0.1248 -2.3485
  343MOL0     H47287   9.787   2.893   1.632 -1.6602  0.6226  0.2362
  343MOL0     H47288   9.893   2.872   1.874  0.4116 -2.9373  2.4096
  343MOL0     H47289   9.842   2.708   1.869  2.1160 -2.7971 -1.7604
  343MOL0     H47290   9.955   2.655   1.657 -2.0665 -0.3051  1.6960
  343MOL0     H47291  10.031   2.815   1.656 -1.5426  1.6612 -0.1084
  343MOL0     H47292  10.202   2.917   1.856 -0.4330 -1.0054  2.4317
  343MOL0     H47293  10.541   2.988   1.929  0.3807  5.6501  0.3823
  343MOL0     H47294  10.383   3.052   1.880 -0.3792  0.8172 -1.7405
  343MOL0     H47295  10.508   3.043   1.758 -0.8393 -0.8011 -1.4660
  343MOL0     H47296  10.866   2.486   1.562  0.0602 -1.7474  1.1442
  343MOL0     H47297  11.115   2.486   1.545  0.1899  1.2712 -1.6101
  343MOL0     H47298  11.445   2.655   1.594 -1.4358 -0.8732 -1.2908
  343MOL0     H47299  11.307   2.738   1.541  2.0379 -1.4898 -1.6052
  343MOL0     H47300  11.477   2.889   1.661  0.4427 -1.0509  0.0880
  343MOL0     H47301  11.328   2.881   1.755  0.5029 -1.6676  3.1900
  343MOL0     H47302  11.399   2.717   1.914  0.8550 -1.8461 -1.0507
  343MOL0     H47303  11.491   2.871   1.913  0.3313 -0.9959  1.7431
  343MOL0     H47304  11.664   2.767   1.790 -2.5361 -0.2227 -3.1404
  343MOL0     H47305  11.585   2.610   1.815 -1.0162  0.0822  0.5168
  343MOL0     H47306  11.774   2.646   1.972 -0.6611 -0.7326 -0.4323
  343MOL0     H47307  11.703   2.795   2.028 -1.9214  1.6229 -2.2926
  343MOL0     H47308  11.548   2.554   2.098  0.5889 -0.2941  0.9464
  343MOL0     H47309  11.546   2.708   2.175 -2.5326 -1.7403 -0.4103
  343MOL0     H47310  11.800   2.656   2.200  0.8924 -0.9657  1.1514
  343MOL0     H47311  11.753   2.489   2.170 -0.4663 -0.0385 -2.1297
  343MOL0     H47312  11.652   2.659   2.402  1.0745  1.2513 -1.1286
  343MOL0     H47313  11.776   2.540   2.425  0.5511 -0.1055 -0.5612
  343MOL0     H47314  11.138   2.795   1.841 -1.3889  1.4274  0.2637
  343MOL0     H47315  10.896   2.816   1.836 -0.2112 -1.3460  1.3034
  343MOL0     H47316  10.482   2.554   1.664 -0.6301  1.4976 -2.6802
  343MOL0     H47317  10.250   2.504   1.745 -1.4901  0.2020  0.5924
  343MOL0     H47318   8.341   3.240   1.671  0.3675  2.1639  0.4601
  343MOL0     H47319   8.186   3.387   1.755 -2.8034  1.5278 -0.0334
  343MOL0     H47320   7.838   3.670   1.705  0.1395 -3.2956 -2.3338
  343MOL0     H47321   7.678   3.849   1.753  1.1670 -0.7317 -0.0037
  343MOL0     H47322   7.259   3.763   1.923 -0.5709  1.1259  0.2207
  343MOL0     H47323   7.411   3.827   2.008 -0.4832  1.7832  0.2335
  343MOL0     H47324   7.194   3.973   2.009  2.4561  2.2770  1.5445
  343MOL0     H47325   7.201   3.977   1.838  0.0478 -2.5477  0.0050
  343MOL0     H47326   7.418   4.113   1.853  0.1765  0.5070  0.3591
  343MOL0     H47327   7.290   4.176   1.957 -0.1820 -0.0566  3.5925
  343MOL0     H47328   7.483   4.193   2.073  0.8864 -0.7059  1.0044
  343MOL0     H47329   7.533   4.025   2.055  1.5188  0.7981 -1.7821
  343MOL0     H47330   7.231   4.042   2.369  2.0774 -2.4715  0.6546
  343MOL0     H47331   7.366   3.580   1.802 -1.1982  0.6186 -0.1619
  343MOL0     H47332   7.399   3.362   1.740  0.6655  1.1477  0.3213
  343MOL0     H47333   7.521   3.348   1.603  0.6637  1.4372  0.2433
  343MOL0     H47334   7.557   3.269   1.754 -2.5812 -1.9799 -1.3275
  344MOL0     O47335  11.333   0.465   6.469 -0.1133 -0.0157 -0.3465
  344MOL0     C47336  11.374   0.581   6.437  0.4491  0.6609 -0.1811
  344MOL0     O47337  11.303   0.676   6.365 -0.0576 -0.6968 -0.0302
  344MOL0     C47338  11.175   0.645   6.334 -0.1816 -0.6783 -0.1753
  344MOL0     C47339  11.145   0.605   6.206  0.7047 -0.6061  0.4870
  344MOL0     C47340  11.007   0.592   6.166 -0.2847 -0.2940  0.3451
  344MOL0     C47341  10.898   0.619   6.250  0.5663  0.4165  0.0244
  344MOL0     O47342  10.772   0.591   6.195 -0.5673  0.1765 -0.0255
  344MOL0     C47343  10.664   0.623   6.285 -0.0151  0.6767  0.2582
  344MOL0     C47344  10.522   0.622   6.226 -0.9004 -0.2128  0.3004
  344MOL0     C47345  10.416   0.671   6.325  0.1681  0.5341  0.0919
  344MOL0     C47346  10.278   0.663   6.261 -0.4268  0.2194  0.3591
  344MOL0     C47347  10.171   0.724   6.356  0.4428  0.3860  0.5703
  344MOL0     C47348  10.030   0.710   6.301 -0.0241  0.0149  0.0772
  344MOL0     C47349   9.917   0.768   6.390  0.2432 -0.9850  0.4234
  344MOL0     C47350   9.910   0.720   6.534 -0.3214  0.6374 -0.1303
  344MOL0     N47351   9.813   0.787   6.622 -0.3534 -0.2248  0.5312
  344MOL0     C47352   9.684   0.790   6.598  0.0861  0.9946 -0.0848
  344MOL0     C47353   9.635   0.899   6.657  0.2621  0.1042  0.2725
  344MOL0     C47354   9.486   0.936   6.658 -0.3122  0.3064 -0.1029
  344MOL0     C47355   9.465   1.082   6.664  0.7159  1.0041  0.1545
  344MOL0     C47356   9.330   1.133   6.598 -0.0101  0.1074 -0.6484
  344MOL0     C47357   9.288   1.275   6.645  0.4702  0.4356 -0.0815
  344MOL0     O47358   9.399   1.360   6.611 -0.2256  0.2636 -0.2224
  344MOL0     C47359   9.402   1.408   6.486 -0.5914  0.4426  1.2955
  344MOL0     C47360   9.321   1.369   6.381 -0.3560  0.2326 -0.9688
  344MOL0     C47361   9.347   1.405   6.249 -0.6106 -0.4173  0.0318
  344MOL0     C47362   9.267   1.345   6.139 -0.3853  0.2232 -0.2858
  344MOL0     C47363   9.461   1.487   6.221  0.0122  0.0737 -0.0106
  344MOL0     C47364   9.499   1.527   6.079 -0.2959  0.0711 -0.2430
  344MOL0     O47365   9.411   1.536   5.984  0.6238 -0.3269 -0.4756
  344MOL0     C47366   9.445   1.539   5.849 -0.4533 -0.6785 -0.7700
  344MOL0     C47367   9.359   1.460   5.770 -0.4961 -0.0967 -0.5469
  344MOL0     C47368   9.380   1.468   5.630 -0.8324 -0.1090  0.2277
  344MOL0     C47369   9.479   1.558   5.574  0.3548  0.8060 -0.1870
  344MOL0     O47370   9.492   1.559   5.437 -0.1908 -0.3075 -0.7929
  344MOL0     C47371   9.592   1.470   5.381  0.8448  0.0281  0.9793
  344MOL0     C47372   9.630   1.525   5.238  0.1857  0.7784 -0.5352
  344MOL0     C47373   9.708   1.658   5.253 -0.1028  0.5359  0.4328
  344MOL0     C47374   9.756   1.719   5.122  0.8283 -0.6485 -0.3245
  344MOL0     C47375   9.821   1.848   5.141  0.0891  0.1366 -0.0236
  344MOL0     C47376   9.887   1.903   5.019 -0.9484  0.8249  0.5859
  344MOL0     C47377   9.782   1.951   4.921 -0.5145  0.0622  0.4189
  344MOL0     C47378   9.846   2.014   4.795 -0.1005 -0.1313 -0.1662
  344MOL0    Cl47379   9.728   2.018   4.666 -0.0737  0.0230 -0.4339
  344MOL0     C47380   9.553   1.635   5.654 -0.2256 -0.2658  0.1887
  344MOL0     C47381   9.529   1.630   5.788 -0.3080  0.1947 -0.5830
  344MOL0     O47382   9.616   1.547   6.065 -0.2153  0.0128  0.0473
  344MOL0     C47383   9.541   1.532   6.327 -0.1652 -0.3614 -0.4136
  344MOL0     C47384   9.514   1.485   6.460 -0.1518 -0.1965  0.3969
  344MOL0     N47385   9.737   0.960   6.726 -0.1722 -0.0876  0.1418
  344MOL0     N47386   9.846   0.898   6.696 -0.4564 -0.0237 -1.1001
  344MOL0     C47387  10.932   0.661   6.382 -0.2622 -0.2632 -0.2566
  344MOL0     C47388  11.070   0.685   6.415  0.6009  0.1192  0.2117
  344MOL0     C47389  11.517   0.618   6.460 -1.2062 -0.0239 -0.1134
  344MOL0     C47390  11.618   0.518   6.446  0.8600  0.2230  0.3443
  344MOL0     C47391  11.749   0.553   6.461  0.0291  0.0365  0.1335
  344MOL0     C47392  11.792   0.683   6.490 -0.4175  0.0468  0.2690
  344MOL0     O47393  11.926   0.724   6.498  0.5311  0.3428 -0.1210
  344MOL0     C47394  12.010   0.677   6.606  0.4777  0.2283 -0.1698
  344MOL0     C47395  12.093   0.779   6.684 -0.2883  0.1560  0.9312
  344MOL0     C47396  12.204   0.727   6.775  0.7149  0.4975  0.6475
  344MOL0     C47397  12.311   0.840   6.792  0.1486 -0.3915  0.2326
  344MOL0     C47398  12.256   0.953   6.859 -0.1088  0.2364  0.3311
  344MOL0     C47399  12.186   1.046   6.897 -0.0065 -0.5156 -1.4113
  344MOL0     C47400  11.700   0.777   6.488  1.0052 -0.5658 -0.4712
  344MOL0     C47401  11.561   0.744   6.500 -0.1319 -0.2852  0.2680
  344MOL0     C47402  11.459   0.847   6.531  1.2078 -1.2225 -0.6579
  344MOL0     H47403  11.221   0.594   6.129  0.2688 -0.8113  0.0876
  344MOL0     H47404  11.004   0.556   6.064  2.6415  1.4561 -0.4602
  344MOL0     H47405  10.667   0.726   6.324  0.2150  0.2382  1.4672
  344MOL0     H47406  10.680   0.553   6.367 -0.7845  1.9595  1.5663
  344MOL0     H47407  10.517   0.697   6.146  0.6910  1.3527  1.5762
  344MOL0     H47408  10.502   0.525   6.181 -3.1402  0.0162  0.6771
  344MOL0     H47409  10.423   0.613   6.418  1.6576 -0.8569 -0.8264
  344MOL0     H47410  10.441   0.776   6.344  0.0231  0.7593 -0.9414
  344MOL0     H47411  10.268   0.719   6.168  2.9454 -3.3380 -2.4861
  344MOL0     H47412  10.264   0.557   6.239  2.0756  0.1160 -1.1288
  344MOL0     H47413  10.203   0.827   6.378  0.6674  0.3736  0.3098
  344MOL0     H47414  10.178   0.669   6.450  1.1897 -0.2101  0.1811
  344MOL0     H47415  10.030   0.751   6.199  1.9619 -0.9595 -0.3587
  344MOL0     H47416  10.006   0.605   6.287  0.8533 -0.2900  0.8053
  344MOL0     H47417   9.828   0.729   6.340 -0.3182 -0.8381  1.2766
  344MOL0     H47418   9.919   0.877   6.384  0.8083 -0.9590  1.0309
  344MOL0     H47419   9.881   0.615   6.521 -0.7741  1.0696 -3.4160
  344MOL0     H47420  10.008   0.744   6.578 -1.4116  1.0874  2.2302
  344MOL0     H47421   9.626   0.721   6.537 -0.5626  0.5549  1.0013
  344MOL0     H47422   9.436   0.887   6.743 -1.5244  0.3781 -0.7516
  344MOL0     H47423   9.442   0.893   6.568 -0.3520  0.6929 -0.2704
  344MOL0     H47424   9.472   1.119   6.767 -1.1658  3.2906 -0.4387
  344MOL0     H47425   9.548   1.125   6.607  0.4134  0.8102 -0.4386
  344MOL0     H47426   9.336   1.121   6.490  3.9600  2.7504 -0.9264
  344MOL0     H47427   9.253   1.063   6.633  2.6736 -2.7857 -0.0423
  344MOL0     H47428   9.192   1.289   6.593  1.3198 -0.5315 -1.9757
  344MOL0     H47429   9.280   1.286   6.754 -0.5654 -0.0596 -0.0947
  344MOL0     H47430   9.228   1.317   6.402 -1.2404  0.6724 -3.4323
  344MOL0     H47431   9.206   1.262   6.176  1.4596 -0.6434  0.9812
  344MOL0     H47432   9.324   1.317   6.049  1.3794 -1.3270  1.2148
  344MOL0     H47433   9.184   1.414   6.120 -1.1392 -0.9726 -1.5425
  344MOL0     H47434   9.288   1.394   5.821 -0.8493 -0.2048 -1.1719
  344MOL0     H47435   9.320   1.398   5.574 -0.1921 -2.0438  1.8240
  344MOL0     H47436   9.682   1.469   5.443  2.3296  1.8270 -1.0434
  344MOL0     H47437   9.551   1.368   5.379 -0.6394  0.6098 -0.2479
  344MOL0     H47438   9.700   1.453   5.193  0.2144  0.5166 -0.0740
  344MOL0     H47439   9.544   1.540   5.173  0.2199  0.4893 -0.6494
  344MOL0     H47440   9.792   1.627   5.317 -1.0698 -3.2991  0.1142
  344MOL0     H47441   9.652   1.733   5.309  0.0483  1.1760 -0.2495
  344MOL0     H47442   9.671   1.734   5.055  0.6983  0.3600  0.0440
  344MOL0     H47443   9.815   1.643   5.070  0.0740 -1.0414 -0.6154
  344MOL0     H47444   9.742   1.915   5.178  1.1795  0.5533  1.6289
  344MOL0     H47445   9.893   1.846   5.222 -1.1489 -0.1733  1.1082
  344MOL0     H47446   9.961   1.838   4.972 -0.5391  1.3651  0.4750
  344MOL0     H47447   9.944   1.994   5.040 -0.4213  0.1815  2.0599
  344MOL0     H47448   9.713   2.027   4.960  0.3196  1.8735 -1.4233
  344MOL0     H47449   9.725   1.864   4.889 -0.0455  0.0096 -0.2969
  344MOL0     H47450   9.939   1.968   4.761  0.7876 -0.0179  1.9490
  344MOL0     H47451   9.879   2.113   4.829  1.9520 -1.1743  1.0859
  344MOL0     H47452   9.634   1.695   5.614  0.5803 -3.3642 -3.4931
  344MOL0     H47453   9.587   1.694   5.854  1.3223 -2.9488  1.2794
  344MOL0     H47454   9.631   1.591   6.311 -0.8128  1.3839  1.8221
  344MOL0     H47455   9.589   1.505   6.536  0.0249 -0.4324  0.2850
  344MOL0     H47456  10.855   0.701   6.447  2.7664  2.1812  2.1216
  344MOL0     H47457  11.105   0.715   6.514  0.4335 -1.7993  0.8871
  344MOL0     H47458  11.598   0.417   6.411  0.8464  0.1385  0.5995
  344MOL0     H47459  11.837   0.494   6.438  1.1885  1.5800  0.4497
  344MOL0     H47460  11.945   0.624   6.677 -0.8456 -1.2161 -2.3291
  344MOL0     H47461  12.077   0.598   6.569 -2.0803 -1.4880 -1.4362
  344MOL0     H47462  12.023   0.840   6.743 -0.8413 -0.2452  0.6974
  344MOL0     H47463  12.130   0.846   6.605 -0.2990 -0.4050  0.4461
  344MOL0     H47464  12.174   0.690   6.873  0.7008 -0.1951  0.3932
  344MOL0     H47465  12.249   0.637   6.731  2.0588 -0.5627  3.8669
  344MOL0     H47466  12.347   0.876   6.695  1.3110  2.9333  1.7518
  344MOL0     H47467  12.401   0.808   6.846  1.3648  2.7067  0.2243
  344MOL0     H47468  12.118   1.125   6.924 -1.5080 -1.3544 -2.6057
  344MOL0     H47469  11.733   0.875   6.520 -0.4459  0.0870 -0.8636
  344MOL0     H47470  11.509   0.937   6.568  0.9918 -1.4715  0.2659
  344MOL0     H47471  11.403   0.879   6.444 -0.4007  1.2452  1.1607
  344MOL0     H47472  11.383   0.819   6.605 -0.4512 -0.9571 -2.2178
  345MOL0     O47473   1.487   9.168   4.513 -0.1726  0.1160 -0.7782
  345MOL0     C47474   1.450   9.226   4.620 -0.1851  0.0576  0.3841
  345MOL0     O47475   1.533   9.286   4.713 -0.0216  0.1913 -0.0331
  345MOL0     C47476   1.662   9.318   4.694  0.6468 -0.5630  0.2538
  345MOL0     C47477   1.748   9.234   4.621  0.0051  0.7340 -0.2857
  345MOL0     C47478   1.886   9.259   4.620  0.7005  0.3010 -0.7975
  345MOL0     C47479   1.940   9.372   4.680  0.1194  1.2592  0.1658
  345MOL0     O47480   2.074   9.395   4.704 -0.3099 -0.0566  0.2217
  345MOL0     C47481   2.169   9.293   4.662  0.2828 -0.0830 -0.2628
  345MOL0     C47482   2.313   9.351   4.678 -0.7330 -0.1798 -0.0396
  345MOL0     C47483   2.418   9.244   4.668  0.1598 -0.1314  1.3338
  345MOL0     C47484   2.557   9.271   4.730 -0.0319  0.1525  0.1982
  345MOL0     C47485   2.660   9.153   4.725 -0.3907  0.5425 -0.0647
  345MOL0     C47486   2.783   9.174   4.815  0.3674  0.1564  0.1735
  345MOL0     C47487   2.857   9.043   4.818 -0.6125  0.0021  0.6310
  345MOL0     C47488   2.966   9.032   4.926 -0.2181 -0.3064 -0.3841
  345MOL0     N47489   3.028   8.901   4.934  0.2159 -0.8289 -0.7032
  345MOL0     C47490   3.019   8.815   5.047  0.5274 -1.0945  0.2360
  345MOL0     C47491   3.118   8.725   5.027 -0.2955 -0.4969  0.3472
  345MOL0     C47492   3.151   8.616   5.138 -1.1684 -0.2254  0.3067
  345MOL0     C47493   3.215   8.673   5.261  0.0811 -0.3953 -0.3131
  345MOL0     C47494   3.352   8.744   5.234  1.0745  0.0371 -0.8152
  345MOL0     C47495   3.463   8.670   5.161 -0.2747 -1.0219  0.5730
  345MOL0     O47496   3.496   8.555   5.223  0.1220 -0.1978 -0.4683
  345MOL0     C47497   3.609   8.565   5.303  0.4036  0.0202 -0.8629
  345MOL0     C47498   3.656   8.433   5.348 -0.4869 -0.5645  0.9200
  345MOL0     C47499   3.776   8.415   5.414 -0.4963 -0.8421  0.5638
  345MOL0     C47500   3.809   8.269   5.455 -0.4610  0.1763  0.2786
  345MOL0     C47501   3.858   8.535   5.437  0.1799  0.3585 -0.3100
  345MOL0     C47502   4.002   8.528   5.488  0.5499  0.5790 -1.0647
  345MOL0     O47503   4.063   8.640   5.531  0.7229 -0.0852  0.2653
  345MOL0     C47504   4.197   8.646   5.547  0.4179  0.3765 -0.3302
  345MOL0     C47505   4.250   8.702   5.664  0.0462  0.0940  0.0922
  345MOL0     C47506   4.388   8.689   5.685 -0.7199 -0.3668 -0.4740
  345MOL0     C47507   4.477   8.627   5.600  0.1241 -0.4635  0.0647
  345MOL0     O47508   4.603   8.597   5.632  0.1404 -0.4618 -0.5790
  345MOL0     C47509   4.654   8.473   5.590  0.6345 -0.5039  1.3568
  345MOL0     C47510   4.775   8.422   5.664 -0.3971  0.3092 -0.3195
  345MOL0     C47511   4.876   8.539   5.702 -0.4758 -0.2627 -0.2981
  345MOL0     C47512   5.004   8.482   5.754 -0.1889  0.1271 -0.8499
  345MOL0     C47513   5.102   8.583   5.821 -0.0642 -0.2364  0.1452
  345MOL0     C47514   5.217   8.515   5.896 -1.2726  0.3558  0.3537
  345MOL0     C47515   5.313   8.609   5.967 -1.2199  1.3009 -0.1112
  345MOL0     C47516   5.403   8.523   6.063  1.1178  0.2509 -0.3868
  345MOL0    Cl47517   5.294   8.446   6.180 -0.1443 -0.0156  0.4824
  345MOL0     C47518   4.421   8.584   5.475 -0.8211  0.4222  0.0377
  345MOL0     C47519   4.282   8.601   5.445 -0.2388  0.0687  0.8337
  345MOL0     O47520   4.050   8.416   5.508  0.1069  0.2446  0.0815
  345MOL0     C47521   3.803   8.660   5.416 -0.2656 -1.0715  0.1268
  345MOL0     C47522   3.683   8.674   5.348 -0.4091 -0.6805 -0.4459
  345MOL0     N47523   3.186   8.754   4.910  0.3320  0.4313 -0.5306
  345MOL0     N47524   3.128   8.854   4.857 -0.2385 -0.5109 -0.2015
  345MOL0     C47525   1.856   9.458   4.756 -0.3297  0.3182  0.0872
  345MOL0     C47526   1.717   9.430   4.764  0.2340 -0.5627 -1.2963
  345MOL0     C47527   1.308   9.205   4.662  0.4867  0.3405 -0.6408
  345MOL0     C47528   1.249   9.312   4.737 -0.0080  0.8582  0.0860
  345MOL0     C47529   1.124   9.305   4.781 -0.1371 -0.8169 -0.4095
  345MOL0     C47530   1.038   9.200   4.731 -0.2052  0.0202 -0.5113
  345MOL0     O47531   0.902   9.214   4.757  0.3415 -0.6357 -0.6453
  345MOL0     C47532   0.816   9.098   4.759 -0.1381  0.3922 -0.1319
  345MOL0     C47533   0.693   9.127   4.850  0.1576  0.2245  0.1489
  345MOL0     C47534   0.712   9.075   4.992 -0.5496  0.0580  0.2104
  345MOL0     C47535   0.826   9.147   5.061  0.7500 -0.3004 -0.6027
  345MOL0     C47536   0.820   9.100   5.201  0.3743 -0.4843  0.7222
  345MOL0     C47537   0.795   9.060   5.309  0.5688 -0.1097  0.6131
  345MOL0     C47538   1.088   9.098   4.654  0.4347 -0.7327  0.1123
  345MOL0     C47539   1.224   9.095   4.620 -0.1603 -0.3288  1.2304
  345MOL0     C47540   1.281   8.986   4.538  0.2312 -0.0296 -0.3924
  345MOL0     H47541   1.703   9.149   4.570  0.4215  0.1798  0.2487
  345MOL0     H47542   1.948   9.184   4.571 -1.2501 -0.8840 -1.6043
  345MOL0     H47543   2.140   9.264   4.560 -3.7605 -0.3009  0.7531
  345MOL0     H47544   2.154   9.204   4.723 -1.7607  1.7492  2.1323
  345MOL0     H47545   2.335   9.441   4.620  2.0425  1.5920  3.4095
  345MOL0     H47546   2.317   9.384   4.782  1.0581 -2.6055  0.7566
  345MOL0     H47547   2.384   9.146   4.704  0.5731 -0.2489  1.4083
  345MOL0     H47548   2.426   9.236   4.559 -1.1637  1.5361  1.0720
  345MOL0     H47549   2.599   9.363   4.687 -0.5492 -0.6641 -2.2603
  345MOL0     H47550   2.526   9.282   4.834 -0.3240 -4.6942  0.8625
  345MOL0     H47551   2.686   9.134   4.620 -1.6783 -1.0580 -0.1291
  345MOL0     H47552   2.616   9.059   4.758  1.6648 -0.4560  0.0326
  345MOL0     H47553   2.844   9.257   4.776 -0.3189 -0.1860 -1.7319
  345MOL0     H47554   2.743   9.200   4.914 -0.5956 -4.9969  1.4343
  345MOL0     H47555   2.893   9.028   4.716 -1.7394  2.1871 -0.1693
  345MOL0     H47556   2.779   8.970   4.841 -1.1131  0.0761 -0.7426
  345MOL0     H47557   3.040   9.112   4.919  1.1843 -1.3397  1.7614
  345MOL0     H47558   2.917   9.050   5.022  1.7985  2.1584  0.3124
  345MOL0     H47559   2.947   8.818   5.128 -0.6897  1.3202 -0.8242
  345MOL0     H47560   3.222   8.547   5.090 -1.3299  0.3571 -0.8029
  345MOL0     H47561   3.065   8.559   5.173 -0.8366  0.2304  1.9329
  345MOL0     H47562   3.148   8.749   5.304 -2.3119 -3.0186  0.9562
  345MOL0     H47563   3.227   8.601   5.343 -3.1533  0.0232  0.6805
  345MOL0     H47564   3.322   8.839   5.187  0.3639  1.9059  2.9681
  345MOL0     H47565   3.379   8.769   5.337 -1.1838 -0.4608 -0.0304
  345MOL0     H47566   3.434   8.657   5.056  1.2717 -0.0007 -0.0143
  345MOL0     H47567   3.548   8.738   5.153 -1.4962  0.7582  1.7409
  345MOL0     H47568   3.586   8.351   5.331  0.2474 -1.5158  2.2993
  345MOL0     H47569   3.730   8.196   5.438 -0.7907  0.8690 -1.3809
  345MOL0     H47570   3.842   8.269   5.559  2.3244  1.4147 -0.5113
  345MOL0     H47571   3.899   8.230   5.407 -0.3673  0.1053  0.5143
  345MOL0     H47572   4.181   8.743   5.737  2.7705  1.3970  2.1357
  345MOL0     H47573   4.413   8.725   5.784 -1.4974  2.3731 -1.1887
  345MOL0     H47574   4.577   8.396   5.604  1.0957 -0.8591  2.0084
  345MOL0     H47575   4.667   8.467   5.482 -1.5371  0.2177  1.0014
  345MOL0     H47576   4.742   8.377   5.758  0.9821 -1.2774 -0.5542
  345MOL0     H47577   4.824   8.344   5.606  0.3541 -0.7290  1.6151
  345MOL0     H47578   4.845   8.610   5.779  1.7766  2.1814 -1.4811
  345MOL0     H47579   4.890   8.594   5.608 -1.6776  1.4835  0.4769
  345MOL0     H47580   5.046   8.439   5.663  1.0368 -0.7232  0.0798
  345MOL0     H47581   4.987   8.401   5.826  1.4802 -0.2470 -0.8317
  345MOL0     H47582   5.139   8.650   5.743 -1.7243  3.6823  2.4261
  345MOL0     H47583   5.043   8.638   5.895  0.7468  0.0067  0.6314
  345MOL0     H47584   5.272   8.466   5.814  1.9790 -0.4318  2.7799
  345MOL0     H47585   5.184   8.430   5.956 -0.1453  2.3191  4.0663
  345MOL0     H47586   5.268   8.695   6.017 -2.0710  1.6104 -1.3565
  345MOL0     H47587   5.388   8.641   5.894  0.1152  0.8795  1.0348
  345MOL0     H47588   5.480   8.591   6.101  1.8582 -0.3577 -0.7709
  345MOL0     H47589   5.446   8.439   6.009 -2.0915 -1.8569  0.0709
  345MOL0     H47590   4.477   8.527   5.402 -0.5589  2.3320 -1.3154
  345MOL0     H47591   4.239   8.576   5.348 -0.2011  0.7179  0.6460
  345MOL0     H47592   3.858   8.746   5.451  0.0788 -0.8297 -0.9989
  345MOL0     H47593   3.654   8.779   5.351 -0.4760 -0.6856  2.6558
  345MOL0     H47594   1.890   9.553   4.796 -0.3855  1.7077 -2.8928
  345MOL0     H47595   1.649   9.496   4.817 -5.7549 -5.3052 -1.9435
  345MOL0     H47596   1.307   9.397   4.770  0.3172  0.4805  0.5115
  345MOL0     H47597   1.069   9.375   4.843 -1.2813 -0.5505 -1.6880
  345MOL0     H47598   0.788   9.077   4.655  3.4958 -0.2693 -1.1121
  345MOL0     H47599   0.882   9.017   4.790  0.4443  1.5714  1.8951
  345MOL0     H47600   0.601   9.083   4.811 -0.6004  1.4850  0.4621
  345MOL0     H47601   0.671   9.234   4.845  4.5765  1.2965 -2.1301
  345MOL0     H47602   0.623   9.109   5.047  0.4998  2.8542  0.3057
  345MOL0     H47603   0.728   8.967   5.002  1.6250  0.4040  0.8469
  345MOL0     H47604   0.809   9.255   5.064 -0.8378 -0.5491  0.5604
  345MOL0     H47605   0.926   9.125   5.021 -0.6232 -2.2717 -3.2935
  345MOL0     H47606   0.778   9.035   5.412 -1.6322  1.0789  0.5945
  345MOL0     H47607   1.022   9.019   4.618 -0.9399  0.4866 -0.1370
  345MOL0     H47608   1.307   9.022   4.438 -0.1145 -3.0608 -1.6856
  345MOL0     H47609   1.373   8.941   4.577 -0.0885 -0.0372  0.3650
  345MOL0     H47610   1.216   8.899   4.527 -0.1495  0.3629 -1.4059
  346MOL0     O47611   0.818   6.637  10.165 -0.0097 -0.4702 -0.2770
  346MOL0     C47612   0.837   6.595  10.050 -0.2435 -0.0068  0.0141
  346MOL0     O47613   0.936   6.635   9.970 -0.2947 -0.4728  0.9895
  346MOL0     C47614   1.030   6.721  10.028 -1.0976 -0.2627  0.7134
  346MOL0     C47615   0.994   6.854  10.043  0.1173  0.1753 -0.3413
  346MOL0     C47616   1.095   6.949  10.091  0.3957  0.6278 -0.0941
  346MOL0     C47617   1.228   6.906  10.108  0.3707  0.1405 -1.1312
  346MOL0     O47618   1.323   6.993  10.160 -0.4174  0.0588  0.0157
  346MOL0     C47619   1.311   7.135  10.153  0.1436  0.2024 -0.7135
  346MOL0     C47620   1.447   7.204  10.183  0.4017  0.0459  0.2618
  346MOL0     C47621   1.436   7.352  10.148  0.7663  0.0906 -0.7156
  346MOL0     C47622   1.561   7.407  10.103 -0.3204 -0.2133 -0.2630
  346MOL0     C47623   1.684   7.384  10.184 -0.3134  0.2237  0.1825
  346MOL0     C47624   1.811   7.464  10.135 -0.6052 -0.6655  0.1107
  346MOL0     C47625   1.819   7.609  10.183  0.1942 -1.5201  0.4088
  346MOL0     C47626   1.851   7.617  10.333  0.3922 -0.3723 -0.0207
  346MOL0     N47627   1.981   7.564  10.368  0.1702 -0.4753 -0.3942
  346MOL0     C47628   2.093   7.622  10.319 -0.1954  0.7571  0.4037
  346MOL0     C47629   2.194   7.550  10.374 -0.9945  0.9179 -0.4035
  346MOL0     C47630   2.338   7.580  10.334  0.1191 -0.2203  0.1076
  346MOL0     C47631   2.460   7.515  10.409 -0.3770 -0.1248  0.2210
  346MOL0     C47632   2.438   7.375  10.458  0.4461  0.6234 -0.7888
  346MOL0     C47633   2.560   7.332  10.538  0.3185  0.2125 -0.0852
  346MOL0     O47634   2.679   7.354  10.464 -0.2171  0.0868  0.4214
  346MOL0     C47635   2.712   7.261  10.361  0.6610  0.2360 -0.6315
  346MOL0     C47636   2.829   7.292  10.291 -0.2261  0.1897 -0.0177
  346MOL0     C47637   2.881   7.199  10.199  0.6619  1.0491  0.3026
  346MOL0     C47638   3.016   7.246  10.139 -0.5373  0.0161  0.9593
  346MOL0     C47639   2.816   7.078  10.160 -0.5774  0.4046  0.0041
  346MOL0     C47640   2.869   6.970  10.061 -0.1899 -1.5141  0.2314
  346MOL0     O47641   2.778   6.861  10.049  0.4006 -0.7991  0.4408
  346MOL0     C47642   2.810   6.748   9.979  1.0679 -0.3515  0.1284
  346MOL0     C47643   2.925   6.714   9.899  0.6789 -0.0882 -0.4165
  346MOL0     C47644   2.928   6.593   9.823  0.0418  0.2632  0.0700
  346MOL0     C47645   2.819   6.504   9.834  0.7770  0.1431 -0.3040
  346MOL0     O47646   2.822   6.373   9.790 -0.5420  0.1334  0.5381
  346MOL0     C47647   2.874   6.355   9.649 -0.1761 -1.0364  0.5240
  346MOL0     C47648   2.827   6.220   9.590  0.7317 -0.3596  0.3461
  346MOL0     C47649   2.907   6.103   9.652 -0.2703  0.5203  0.8354
  346MOL0     C47650   3.040   6.079   9.588  0.2213  0.1680 -0.4397
  346MOL0     C47651   3.145   6.010   9.679 -0.4977 -1.0877  0.0348
  346MOL0     C47652   3.287   6.082   9.686 -0.2651  0.8495 -0.1974
  346MOL0     C47653   3.371   6.017   9.798  0.5929 -0.4113  0.0404
  346MOL0     C47654   3.429   5.875   9.770  0.6010 -0.3496  0.1228
  346MOL0    Cl47655   3.557   5.878   9.641  0.3748  0.8019  0.2215
  346MOL0     C47656   2.706   6.538   9.906  0.0770 -0.1131  1.0243
  346MOL0     C47657   2.704   6.664   9.968  0.1993  0.5759  0.0575
  346MOL0     O47658   2.975   6.985  10.001 -0.1405  0.4783  0.1034
  346MOL0     C47659   2.702   7.053  10.223  0.2399 -0.0603 -0.5605
  346MOL0     C47660   2.651   7.139  10.326  0.1538 -0.7154 -0.2995
  346MOL0     N47661   2.139   7.446  10.450 -0.6894  0.3888  0.5404
  346MOL0     N47662   2.016   7.472  10.457  0.8198 -0.1517  0.2797
  346MOL0     C47663   1.260   6.771  10.094 -0.0004 -1.2568 -0.3121
  346MOL0     C47664   1.155   6.680  10.053  0.0809  0.4174  0.7656
  346MOL0     C47665   0.734   6.508   9.994 -0.5429 -0.7089 -0.9540
  346MOL0     C47666   0.606   6.508  10.044 -0.2765  0.4549 -0.2641
  346MOL0     C47667   0.500   6.429   9.993  0.5593  0.7170  0.4937
  346MOL0     C47668   0.532   6.336   9.890 -0.3394 -0.4038  0.2921
  346MOL0     O47669   0.424   6.261   9.844 -0.8589 -0.0915 -0.1103
  346MOL0     C47670   0.398   6.252   9.703 -0.3932 -0.5232 -0.1377
  346MOL0     C47671   0.362   6.381   9.635  0.8077 -0.0738 -0.2363
  346MOL0     C47672   0.239   6.447   9.703 -0.0709  0.3975 -0.9634
  346MOL0     C47673   0.110   6.383   9.645 -0.4497  0.0073 -0.2899
  346MOL0     C47674  -0.004   6.441   9.714  0.3733 -0.3060  0.6556
  346MOL0     C47675  -0.097   6.486   9.784  0.0940 -0.0618  0.0271
  346MOL0     C47676   0.660   6.340   9.831  0.6925  0.1230 -1.2175
  346MOL0     C47677   0.755   6.426   9.886 -0.0012  0.5485  0.0138
  346MOL0     C47678   0.895   6.406   9.821  0.2249 -0.0853 -0.1430
  346MOL0     H47679   0.896   6.895  10.022  1.2217  2.1912 -1.9173
  346MOL0     H47680   1.064   7.050  10.114  0.9234  0.5351  1.1054
  346MOL0     H47681   1.229   7.179  10.211 -0.8666  0.2719 -2.1410
  346MOL0     H47682   1.284   7.160  10.050  1.1986  2.0229 -0.5932
  346MOL0     H47683   1.484   7.193  10.285 -1.9357  2.8942  1.5829
  346MOL0     H47684   1.516   7.164  10.108 -0.1622  0.3397 -0.4364
  346MOL0     H47685   1.370   7.375  10.064  1.2020 -0.9671 -1.3713
  346MOL0     H47686   1.414   7.399  10.244  2.7504 -0.2438 -0.0465
  346MOL0     H47687   1.585   7.368  10.004 -2.6883 -2.9310  0.0933
  346MOL0     H47688   1.533   7.512  10.094  0.1908  0.1641  2.0426
  346MOL0     H47689   1.714   7.279  10.194  2.8206  1.0081  0.1848
  346MOL0     H47690   1.651   7.421  10.282 -2.0400  0.7799 -0.5709
  346MOL0     H47691   1.895   7.406  10.173  0.4960 -0.0758 -1.3173
  346MOL0     H47692   1.816   7.457  10.026  4.8748 -2.4979  0.1849
  346MOL0     H47693   1.722   7.656  10.162  0.6552 -0.3814  0.7296
  346MOL0     H47694   1.891   7.666  10.123 -0.8839  0.6321  1.0368
  346MOL0     H47695   1.850   7.723  10.362 -3.3426 -0.7718  1.9338
  346MOL0     H47696   1.768   7.572  10.388  1.4204 -2.5771 -0.1692
  346MOL0     H47697   2.098   7.696  10.239 -1.0634 -1.8905 -2.2835
  346MOL0     H47698   2.346   7.689  10.338 -2.7709  0.0525  0.6636
  346MOL0     H47699   2.352   7.553  10.228 -1.9260  0.9167 -0.4966
  346MOL0     H47700   2.539   7.517  10.334  1.1759 -0.7045  1.7785
  346MOL0     H47701   2.486   7.568  10.501 -0.3506 -0.0836  0.1895
  346MOL0     H47702   2.352   7.359  10.524  1.6454 -0.2662  0.6261
  346MOL0     H47703   2.455   7.309  10.373 -2.1921 -2.4659  0.8790
  346MOL0     H47704   2.577   7.383  10.633  4.5623  0.5966 -0.8384
  346MOL0     H47705   2.555   7.224  10.559  0.4949  0.2520  0.1698
  346MOL0     H47706   2.886   7.371  10.339  0.6414 -1.4077  1.7001
  346MOL0     H47707   3.010   7.258  10.030  0.1736 -3.4140  0.4479
  346MOL0     H47708   3.085   7.165  10.162 -1.1538 -0.8020  0.0130
  346MOL0     H47709   3.043   7.349  10.165 -1.1568  0.2533  0.7029
  346MOL0     H47710   3.015   6.773   9.893  0.2394  0.4891 -1.6136
  346MOL0     H47711   3.021   6.559   9.778 -0.6014 -1.2118 -0.2302
  346MOL0     H47712   2.853   6.441   9.585 -1.9999  1.1954  3.8483
  346MOL0     H47713   2.983   6.349   9.659  0.3893 -0.6344 -3.6210
  346MOL0     H47714   2.720   6.200   9.603  1.0870 -2.4480  0.3805
  346MOL0     H47715   2.845   6.221   9.482 -3.2525  1.0272 -0.5074
  346MOL0     H47716   2.841   6.016   9.639  0.1458  0.2984  0.1782
  346MOL0     H47717   2.915   6.118   9.760 -1.7436 -2.3919  1.4550
  346MOL0     H47718   3.086   6.171   9.551  2.8880 -0.8946 -0.0255
  346MOL0     H47719   3.025   6.014   9.502 -0.7751 -2.7240  1.7443
  346MOL0     H47720   3.106   5.993   9.780 -3.5700 -1.5527 -1.1145
  346MOL0     H47721   3.167   5.911   9.639 -1.8106 -1.2613 -0.3020
  346MOL0     H47722   3.275   6.188   9.709  1.1943  0.7791  0.9767
  346MOL0     H47723   3.330   6.074   9.586 -0.2305 -0.2941 -0.1030
  346MOL0     H47724   3.307   6.007   9.887  1.6509 -2.8302  0.6360
  346MOL0     H47725   3.450   6.086   9.827  0.9627 -1.2205  1.0268
  346MOL0     H47726   3.342   5.815   9.742 -1.5238  2.5180  0.2008
  346MOL0     H47727   3.479   5.825   9.854  1.4120  1.2698  0.6498
  346MOL0     H47728   2.630   6.462   9.924 -0.2002 -0.2780 -0.6419
  346MOL0     H47729   2.624   6.673  10.041  2.0342  1.0459  2.1340
  346MOL0     H47730   2.645   6.963  10.202 -0.3037  0.5292 -1.6736
  346MOL0     H47731   2.558   7.118  10.380  0.3106 -1.1175 -0.1806
  346MOL0     H47732   1.357   6.729  10.119  0.9005  1.7393  1.7932
  346MOL0     H47733   1.181   6.575  10.045 -4.7007 -0.9998  1.0454
  346MOL0     H47734   0.580   6.566  10.131  0.4758  0.5379 -0.0829
  346MOL0     H47735   0.405   6.432  10.046  0.9840 -1.2174  1.4736
  346MOL0     H47736   0.482   6.224   9.638  0.0150 -0.7600  0.4897
  346MOL0     H47737   0.315   6.184   9.681  0.8039 -1.5167 -1.8776
  346MOL0     H47738   0.345   6.354   9.530  3.1255  0.3404 -0.7681
  346MOL0     H47739   0.448   6.448   9.632  2.8520 -2.2717 -6.6690
  346MOL0     H47740   0.243   6.418   9.809  0.2543 -0.6699 -1.2495
  346MOL0     H47741   0.242   6.556   9.697  2.0434  0.7730  3.1688
  346MOL0     H47742   0.104   6.278   9.675  1.6747 -1.3235 -3.8780
  346MOL0     H47743   0.108   6.396   9.537 -0.0243  0.1308 -0.2852
  346MOL0     H47744  -0.175   6.521   9.850 -1.1590  0.0131 -1.4384
  346MOL0     H47745   0.689   6.267   9.755  0.6887 -0.6866 -0.4608
  346MOL0     H47746   0.970   6.354   9.881  0.1190 -1.2078 -0.9356
  346MOL0     H47747   0.893   6.344   9.731 -1.4892  1.3185 -1.1270
  346MOL0     H47748   0.934   6.499   9.779 -0.2561 -0.1683 -0.7937
  347MOL0     O47749   9.080   3.053   3.544 -0.6895  0.0956  0.4992
  347MOL0     C47750   9.055   3.100   3.651 -0.0453  0.9687 -0.7625
  347MOL0     O47751   8.961   3.190   3.672 -0.2337  0.3523 -0.2462
  347MOL0     C47752   8.866   3.228   3.583 -1.2338  1.0484  0.3379
  347MOL0     C47753   8.768   3.137   3.547  0.4295  0.3043  0.1203
  347MOL0     C47754   8.673   3.172   3.442 -0.1802 -0.1997  0.0724
  347MOL0     C47755   8.690   3.295   3.376  0.1982 -0.8472 -0.5800
  347MOL0     O47756   8.617   3.343   3.270 -0.3468  0.9751 -0.0969
  347MOL0     C47757   8.570   3.234   3.183  0.5594 -0.4666 -0.4982
  347MOL0     C47758   8.561   3.282   3.040 -0.2517 -0.2826 -0.4867
  347MOL0     C47759   8.472   3.405   3.016  0.4917 -0.0820 -0.4378
  347MOL0     C47760   8.332   3.351   3.002  0.5364 -0.2384  0.3202
  347MOL0     C47761   8.231   3.455   2.948  1.8345 -0.0317  0.2678
  347MOL0     C47762   8.088   3.405   2.954 -0.2979 -0.1142  0.6964
  347MOL0     C47763   7.992   3.459   2.840  0.6742  0.2101  0.1848
  347MOL0     C47764   7.941   3.602   2.876 -0.4319 -0.2980 -0.3661
  347MOL0     N47765   7.835   3.646   2.781  0.2988  0.5756 -0.1361
  347MOL0     C47766   7.710   3.588   2.781  1.0145 -0.3633 -0.7218
  347MOL0     C47767   7.639   3.650   2.684 -0.7673  0.7208  0.4659
  347MOL0     C47768   7.488   3.617   2.658 -0.0985  0.2138 -1.5860
  347MOL0     C47769   7.385   3.703   2.728  0.8619  0.6214 -0.1718
  347MOL0     C47770   7.396   3.851   2.666 -0.3856  0.5486 -0.1048
  347MOL0     C47771   7.292   3.949   2.724 -0.5210  0.5510  0.3839
  347MOL0     O47772   7.158   3.916   2.665 -0.0816 -1.2093 -0.2304
  347MOL0     C47773   7.077   4.021   2.677 -0.0092 -0.0724 -0.1277
  347MOL0     C47774   7.049   4.094   2.795 -0.5728 -0.1370  1.1055
  347MOL0     C47775   6.935   4.180   2.804  0.5209  0.5016 -0.4863
  347MOL0     C47776   6.896   4.225   2.942 -0.1291  0.2276 -0.5664
  347MOL0     C47777   6.865   4.212   2.684 -0.2430 -1.2151 -0.8604
  347MOL0     C47778   6.751   4.307   2.679  0.1183  0.7980  0.2455
  347MOL0     O47779   6.698   4.333   2.559 -0.5026 -0.0784 -0.2907
  347MOL0     C47780   6.606   4.433   2.547 -0.0768 -0.2129  0.5965
  347MOL0     C47781   6.644   4.572   2.557  0.6826  0.7882  0.2186
  347MOL0     C47782   6.544   4.664   2.538 -0.5152 -0.3371  1.0692
  347MOL0     C47783   6.409   4.632   2.514  0.3631  0.5974 -0.0117
  347MOL0     O47784   6.311   4.719   2.470 -0.0146 -0.3905 -0.7650
  347MOL0     C47785   6.336   4.856   2.491  0.1375 -0.5899  0.1490
  347MOL0     C47786   6.231   4.947   2.427 -0.1542  0.4400 -0.1381
  347MOL0     C47787   6.215   4.932   2.275 -0.1110  0.8527  0.5120
  347MOL0     C47788   6.332   5.004   2.205  0.2811  0.3295 -0.2265
  347MOL0     C47789   6.330   4.959   2.057 -0.1378 -0.4428  0.4818
  347MOL0     C47790   6.224   5.040   1.968 -0.6009  0.6021 -0.9129
  347MOL0     C47791   6.211   4.966   1.831  0.1261 -0.9944  0.0521
  347MOL0     C47792   6.112   5.031   1.733  0.2265 -0.4339  0.2200
  347MOL0    Cl47793   6.176   5.161   1.635 -0.0816  0.0378 -0.1424
  347MOL0     C47794   6.377   4.491   2.500  0.3478 -0.7644 -0.8243
  347MOL0     C47795   6.477   4.391   2.517  0.2403 -0.0982 -0.0347
  347MOL0     O47796   6.698   4.338   2.787  0.6922 -1.0525  0.0526
  347MOL0     C47797   6.907   4.155   2.568 -0.0060  0.6437  0.4470
  347MOL0     C47798   7.007   4.055   2.565  0.1379 -0.6890 -0.2872
  347MOL0     N47799   7.722   3.738   2.623  0.8677 -0.1797 -0.2096
  347MOL0     N47800   7.842   3.731   2.680 -0.9235  0.1330  0.3928
  347MOL0     C47801   8.790   3.382   3.425  0.1346  0.4455  0.0570
  347MOL0     C47802   8.880   3.354   3.521 -0.1988  0.3992  0.5750
  347MOL0     C47803   9.124   3.049   3.778 -0.4869 -0.0633  0.0632
  347MOL0     C47804   9.063   3.083   3.898  0.7566  0.8885  0.5482
  347MOL0     C47805   9.094   3.015   4.017 -0.4951 -0.8143  0.3147
  347MOL0     C47806   9.200   2.925   4.020  0.8685  1.2117 -0.1327
  347MOL0     O47807   9.246   2.836   4.124 -0.6430 -0.4089  0.4736
  347MOL0     C47808   9.180   2.831   4.253 -0.4354 -0.0574  0.1727
  347MOL0     C47809   9.223   2.709   4.336  0.0876 -0.0095  0.2875
  347MOL0     C47810   9.164   2.713   4.480  0.2430  0.4881  0.2097
  347MOL0     C47811   9.037   2.650   4.494 -0.8057 -0.2546 -0.8647
  347MOL0     C47812   8.983   2.656   4.633  0.2546 -0.2290  0.0630
  347MOL0     C47813   8.944   2.658   4.751  0.5979  0.3926 -0.0916
  347MOL0     C47814   9.269   2.890   3.901  0.2605  0.7211 -0.5284
  347MOL0     C47815   9.229   2.952   3.779 -0.8741 -0.3888 -0.5415
  347MOL0     C47816   9.295   2.898   3.655  0.0107 -0.4088  0.1256
  347MOL0     H47817   8.758   3.037   3.589  1.8211  0.9140  2.0657
  347MOL0     H47818   8.600   3.098   3.412 -1.5736  0.5153  1.5407
  347MOL0     H47819   8.473   3.197   3.218  0.3734  0.9606  0.6023
  347MOL0     H47820   8.635   3.147   3.177 -3.5582 -3.7556 -2.2708
  347MOL0     H47821   8.661   3.324   3.022 -0.0442  0.3704  1.8578
  347MOL0     H47822   8.543   3.195   2.976  0.2448 -1.9494  1.5216
  347MOL0     H47823   8.470   3.476   3.099 -0.3990 -1.4795  0.8023
  347MOL0     H47824   8.503   3.459   2.926 -0.8621  0.8826 -0.3601
  347MOL0     H47825   8.340   3.267   2.932  2.2831  1.2266 -1.3391
  347MOL0     H47826   8.292   3.309   3.095 -1.5183 -0.8010 -0.7754
  347MOL0     H47827   8.251   3.481   2.843 -2.5386 -2.1936 -1.3330
  347MOL0     H47828   8.228   3.544   3.011  0.4368  0.3165 -0.2686
  347MOL0     H47829   8.100   3.298   2.935  1.7260  0.0866  0.6485
  347MOL0     H47830   8.043   3.409   3.054  2.2518  0.2842  1.8982
  347MOL0     H47831   7.899   3.401   2.833 -0.3712  1.9873 -2.1199
  347MOL0     H47832   8.042   3.458   2.743  1.0663 -4.7658  0.1719
  347MOL0     H47833   7.898   3.591   2.976 -0.7523 -0.3429 -0.5079
  347MOL0     H47834   8.027   3.670   2.872  0.7956 -1.6738  1.3602
  347MOL0     H47835   7.672   3.504   2.837  0.1253 -0.8925 -2.0823
  347MOL0     H47836   7.474   3.512   2.686 -1.6151  0.8911  0.4032
  347MOL0     H47837   7.469   3.633   2.552 -4.4544 -0.6473 -1.1095
  347MOL0     H47838   7.289   3.663   2.696  0.6567  2.0269 -1.3980
  347MOL0     H47839   7.396   3.697   2.837  0.1647 -0.3179 -0.1446
  347MOL0     H47840   7.494   3.882   2.705  0.1168  0.8612 -1.5664
  347MOL0     H47841   7.404   3.843   2.557 -1.7259 -0.7530 -0.1386
  347MOL0     H47842   7.297   3.925   2.830 -0.2509 -2.0061 -0.1464
  347MOL0     H47843   7.326   4.052   2.707  1.1882 -0.3268 -2.0280
  347MOL0     H47844   7.101   4.068   2.886  0.1380 -1.6088  0.3089
  347MOL0     H47845   6.978   4.202   3.011 -0.3038  0.2351 -0.3561
  347MOL0     H47846   6.812   4.171   2.986 -1.4806  3.5669  1.2919
  347MOL0     H47847   6.875   4.332   2.948 -2.3073 -0.2334  3.1703
  347MOL0     H47848   6.745   4.603   2.581  1.4911 -1.4080 -0.1582
  347MOL0     H47849   6.563   4.771   2.541 -3.0258  0.4360 -2.9187
  347MOL0     H47850   6.359   4.877   2.596 -0.1777 -1.0102  0.3050
  347MOL0     H47851   6.431   4.882   2.443  1.0788 -0.6377  1.9172
  347MOL0     H47852   6.133   4.938   2.475 -1.5242  2.3409 -2.3454
  347MOL0     H47853   6.260   5.050   2.449  0.0153  0.5037 -0.6659
  347MOL0     H47854   6.114   4.970   2.257 -0.2297  0.1225 -0.4673
  347MOL0     H47855   6.209   4.827   2.244 -1.9685  1.0100  0.2015
  347MOL0     H47856   6.431   4.981   2.246 -1.3918 -4.3728  1.9491
  347MOL0     H47857   6.313   5.112   2.211 -2.6214  0.0265 -2.1507
  347MOL0     H47858   6.431   4.976   2.017 -0.6023  1.2809 -0.0456
  347MOL0     H47859   6.317   4.851   2.052 -2.0817 -0.2578  0.7451
  347MOL0     H47860   6.252   5.142   1.941 -0.6061  1.4830  2.0718
  347MOL0     H47861   6.122   5.030   2.008 -0.6550  1.4156 -0.8135
  347MOL0     H47862   6.194   4.858   1.836 -1.5050 -0.6949  2.7815
  347MOL0     H47863   6.312   4.970   1.789  0.5716  2.3146  1.1839
  347MOL0     H47864   6.029   5.061   1.797  0.5181 -0.9720  0.8641
  347MOL0     H47865   6.076   4.972   1.649 -1.7874  1.5938 -0.4426
  347MOL0     H47866   6.273   4.463   2.486 -0.5812  1.0999  1.5771
  347MOL0     H47867   6.442   4.289   2.506 -2.0310  0.5671  0.3908
  347MOL0     H47868   6.870   4.183   2.469  0.6471  0.6561  0.2032
  347MOL0     H47869   7.026   3.994   2.477  1.2392 -0.5737 -0.1433
  347MOL0     H47870   8.802   3.467   3.359  1.7922 -1.2474 -1.9609
  347MOL0     H47871   8.968   3.414   3.542 -1.4830  2.3601  0.6306
  347MOL0     H47872   8.982   3.155   3.904 -0.4528 -0.2876 -0.8931
  347MOL0     H47873   9.036   3.027   4.107 -0.8064 -0.0375  0.0196
  347MOL0     H47874   9.196   2.924   4.308 -2.3606  2.3588 -2.9771
  347MOL0     H47875   9.074   2.817   4.229 -0.3857 -0.5621  0.2241
  347MOL0     H47876   9.333   2.701   4.337 -0.0494 -2.8111  0.0622
  347MOL0     H47877   9.186   2.623   4.280 -1.5150  2.0780 -2.0544
  347MOL0     H47878   9.235   2.661   4.545 -0.3803  0.3208  0.7704
  347MOL0     H47879   9.152   2.818   4.507 -1.5390  0.6999 -1.2216
  347MOL0     H47880   9.044   2.548   4.455  3.3628 -1.1172  1.4607
  347MOL0     H47881   8.958   2.700   4.437 -0.2989 -0.1206 -1.4671
  347MOL0     H47882   8.918   2.644   4.854  1.2248  0.7303  0.1221
  347MOL0     H47883   9.356   2.825   3.894 -0.6412 -0.4146 -1.6219
  347MOL0     H47884   9.295   2.970   3.573 -0.3263 -1.6864 -1.0414
  347MOL0     H47885   9.390   2.848   3.674 -0.5839 -1.6497 -0.0479
  347MOL0     H47886   9.237   2.815   3.613 -0.7785  1.4165 -2.6462
  348MOL0     O47887   0.527   2.306   5.161 -0.0163  0.1658  0.8608
  348MOL0     C47888   0.555   2.318   5.044 -0.6115  0.0480 -0.2972
  348MOL0     O47889   0.678   2.366   4.989 -0.4215  0.1470 -0.0668
  348MOL0     C47890   0.786   2.372   5.075 -0.8112  0.3601 -0.5013
  348MOL0     C47891   0.880   2.270   5.078 -0.0018 -0.1365  0.0859
  348MOL0     C47892   0.984   2.277   5.171  0.7209 -0.6598  0.1120
  348MOL0     C47893   1.006   2.391   5.248  0.0066 -0.4370  0.2120
  348MOL0     O47894   1.108   2.400   5.330  0.1944  0.2770 -0.1986
  348MOL0     C47895   1.123   2.514   5.414 -0.1670  0.0339 -0.8791
  348MOL0     C47896   1.234   2.478   5.510 -0.0662 -0.3138  0.6094
  348MOL0     C47897   1.208   2.538   5.646 -0.4853 -0.7153 -0.1904
  348MOL0     C47898   1.334   2.532   5.731  0.7269  0.2839 -0.7484
  348MOL0     C47899   1.311   2.567   5.880 -0.1224 -0.1009  0.2695
  348MOL0     C47900   1.418   2.492   5.966  0.9503  0.6305 -1.4845
  348MOL0     C47901   1.447   2.552   6.093  0.0991 -0.2620  0.1825
  348MOL0     C47902   1.537   2.470   6.178 -0.8419  0.0686 -0.2886
  348MOL0     N47903   1.506   2.497   6.318 -0.0540  0.7443  0.9194
  348MOL0     C47904   1.532   2.610   6.387 -0.5265  0.7467  0.2435
  348MOL0     C47905   1.470   2.587   6.502 -0.1496 -0.2773 -0.2238
  348MOL0     C47906   1.454   2.674   6.620  0.5937  0.0929 -0.1126
  348MOL0     C47907   1.589   2.657   6.695 -0.8102 -0.4071 -0.4846
  348MOL0     C47908   1.589   2.531   6.782 -0.2862  0.0851 -0.7403
  348MOL0     C47909   1.719   2.508   6.855  0.1640 -0.2531 -0.0314
  348MOL0     O47910   1.836   2.529   6.776  0.7974  0.6079 -0.2259
  348MOL0     C47911   1.949   2.512   6.846 -0.1093  0.0020 -0.9187
  348MOL0     C47912   1.968   2.491   6.987  0.1428 -0.4071 -0.0605
  348MOL0     C47913   2.100   2.467   7.044  0.0643  0.6587  0.1903
  348MOL0     C47914   2.101   2.448   7.196  0.7694  0.0606 -0.1572
  348MOL0     C47915   2.216   2.448   6.956  0.1710 -0.7781  0.5983
  348MOL0     C47916   2.353   2.432   6.991  0.1324 -0.1031 -0.3164
  348MOL0     O47917   2.439   2.398   6.886 -0.4209 -0.0535  0.5268
  348MOL0     C47918   2.568   2.445   6.891 -0.2266  0.3848 -0.1257
  348MOL0     C47919   2.616   2.553   6.814 -0.5576 -0.1805  0.2300
  348MOL0     C47920   2.747   2.601   6.819 -0.5622  0.6805 -0.4793
  348MOL0     C47921   2.843   2.541   6.901 -0.0982  0.1498  0.4281
  348MOL0     O47922   2.978   2.571   6.890 -0.0798  0.2930  0.2178
  348MOL0     C47923   3.034   2.541   6.763 -0.5185  0.3000 -0.6406
  348MOL0     C47924   3.183   2.505   6.786  0.0414  0.6739 -0.3956
  348MOL0     C47925   3.260   2.447   6.658 -0.3140  0.4529  0.8100
  348MOL0     C47926   3.399   2.400   6.701 -0.3349  0.6454  0.3604
  348MOL0     C47927   3.476   2.358   6.583 -0.3721  0.8971 -0.2147
  348MOL0     C47928   3.440   2.222   6.525  0.1313 -0.1845 -1.0473
  348MOL0     C47929   3.569   2.178   6.455  0.4249  0.0723 -0.2278
  348MOL0     C47930   3.682   2.115   6.530 -0.4339 -0.4858 -0.3653
  348MOL0    Cl47931   3.809   2.063   6.413 -0.2125  0.4065 -0.3837
  348MOL0     C47932   2.799   2.438   6.986 -0.2484 -0.0315  0.8226
  348MOL0     C47933   2.671   2.382   6.967  0.3222 -0.1981  0.2730
  348MOL0     O47934   2.386   2.471   7.103  0.6203  0.4883  0.1885
  348MOL0     C47935   2.181   2.460   6.819  1.4236  0.8808 -0.6834
  348MOL0     C47936   2.060   2.498   6.765  0.2097 -0.1973  0.1802
  348MOL0     N47937   1.409   2.462   6.505  0.2780  0.6247  0.6993
  348MOL0     N47938   1.439   2.408   6.393 -0.6176 -0.5191 -0.7607
  348MOL0     C47939   0.911   2.502   5.233 -0.6438 -0.0050 -0.8800
  348MOL0     C47940   0.799   2.487   5.155 -0.1848  0.8218  0.5477
  348MOL0     C47941   0.457   2.288   4.937  1.0932 -1.0709  0.5054
  348MOL0     C47942   0.444   2.370   4.829  0.1641 -0.3379 -0.0839
  348MOL0     C47943   0.347   2.348   4.727 -0.4268  0.8583  0.6665
  348MOL0     C47944   0.247   2.241   4.745  0.5084 -0.4964 -0.2349
  348MOL0     O47945   0.139   2.223   4.652  0.3778  0.4263 -0.5291
  348MOL0     C47946   0.130   2.310   4.529  0.6808  0.1661  0.0602
  348MOL0     C47947  -0.005   2.306   4.460 -0.2116 -0.2032 -1.1359
  348MOL0     C47948  -0.125   2.373   4.538  0.9043 -0.4129  0.6489
  348MOL0     C47949  -0.251   2.345   4.461  0.1404  0.5195  0.4475
  348MOL0     C47950  -0.271   2.434   4.340 -0.5866 -0.3967  0.2712
  348MOL0     C47951  -0.281   2.513   4.249 -0.1009 -0.3710 -1.4384
  348MOL0     C47952   0.257   2.161   4.860 -0.1065  0.5660 -0.3523
  348MOL0     C47953   0.369   2.182   4.945  0.7666  0.8473  0.3392
  348MOL0     C47954   0.363   2.097   5.068  0.1216  0.1860  0.0505
  348MOL0     H47955   0.865   2.181   5.018  4.1137 -0.9688  0.0097
  348MOL0     H47956   1.047   2.189   5.179  1.8714  0.2413  1.3295
  348MOL0     H47957   1.028   2.521   5.468  1.0661  4.5571  1.1921
  348MOL0     H47958   1.137   2.613   5.369  1.1218  1.4980  2.4300
  348MOL0     H47959   1.239   2.368   5.512 -0.0750 -0.3805 -1.2867
  348MOL0     H47960   1.324   2.526   5.470  1.5736 -2.4263  1.5492
  348MOL0     H47961   1.177   2.641   5.630  2.6744  0.2527 -0.7624
  348MOL0     H47962   1.124   2.482   5.689 -1.9934  0.1920 -1.7948
  348MOL0     H47963   1.375   2.430   5.727  2.6907  0.9227  1.1748
  348MOL0     H47964   1.411   2.593   5.684 -0.1104  2.2478  0.3225
  348MOL0     H47965   1.206   2.544   5.899 -0.5603  0.6421 -1.1253
  348MOL0     H47966   1.331   2.675   5.883  1.0703 -0.2590 -0.9881
  348MOL0     H47967   1.399   2.384   5.963  2.6198  0.2525  0.1031
  348MOL0     H47968   1.516   2.488   5.917  1.3668 -0.3055 -0.6215
  348MOL0     H47969   1.356   2.576   6.149  0.7244  1.7741  0.4032
  348MOL0     H47970   1.476   2.656   6.073 -2.8949  0.8252  0.8786
  348MOL0     H47971   1.530   2.362   6.160  0.3783 -0.5602  2.4275
  348MOL0     H47972   1.640   2.499   6.157 -0.1981 -0.9088  1.3223
  348MOL0     H47973   1.579   2.696   6.341 -1.7584  0.3667 -1.8706
  348MOL0     H47974   1.373   2.635   6.682  0.8254 -1.6920 -0.8674
  348MOL0     H47975   1.441   2.781   6.597 -0.0937 -0.0974 -0.6377
  348MOL0     H47976   1.671   2.654   6.623  0.1333  2.2815  0.3584
  348MOL0     H47977   1.599   2.737   6.769 -2.6067 -2.4538  2.1443
  348MOL0     H47978   1.511   2.546   6.857  2.3794  2.2457  1.8044
  348MOL0     H47979   1.573   2.437   6.728 -1.8043 -1.0309  1.4963
  348MOL0     H47980   1.710   2.568   6.946  0.6010  0.5812 -0.5147
  348MOL0     H47981   1.720   2.407   6.895 -1.6107  0.2662  1.4573
  348MOL0     H47982   1.887   2.495   7.060  2.1319 -1.0307  2.3055
  348MOL0     H47983   2.024   2.375   7.220  1.2375 -0.1397  0.7811
  348MOL0     H47984   2.069   2.538   7.250 -0.6836  0.2879 -1.3224
  348MOL0     H47985   2.191   2.413   7.248  0.5380  1.9500  1.6316
  348MOL0     H47986   2.544   2.609   6.754 -2.6837 -1.7376  1.1795
  348MOL0     H47987   2.774   2.687   6.758 -2.3968  0.6123 -1.4424
  348MOL0     H47988   2.980   2.458   6.717 -0.2793  0.6930 -1.6482
  348MOL0     H47989   3.027   2.626   6.695 -2.2716  1.0068  0.3564
  348MOL0     H47990   3.236   2.599   6.807  1.0887  0.5126 -2.1175
  348MOL0     H47991   3.191   2.435   6.869  1.6299  1.3879  0.1101
  348MOL0     H47992   3.250   2.520   6.577 -1.8571 -1.8106 -1.1807
  348MOL0     H47993   3.210   2.358   6.620  2.1628 -0.2710 -1.0379
  348MOL0     H47994   3.404   2.314   6.767  0.6601 -1.1466 -1.9234
  348MOL0     H47995   3.439   2.484   6.758 -0.5948  0.6983  0.4689
  348MOL0     H47996   3.478   2.434   6.504 -3.0831 -0.8732 -2.1712
  348MOL0     H47997   3.577   2.356   6.624 -0.2841 -0.2204 -0.4566
  348MOL0     H47998   3.359   2.230   6.452 -0.3334  0.5285 -0.4777
  348MOL0     H47999   3.408   2.144   6.594  1.6583  1.5863  1.8833
  348MOL0     H48000   3.611   2.267   6.407 -0.5544  1.4493  1.3778
  348MOL0     H48001   3.529   2.109   6.379  1.4153 -0.3559 -0.3702
  348MOL0     H48002   3.642   2.025   6.579  0.5483 -1.0024 -0.5016
  348MOL0     H48003   3.719   2.185   6.605 -3.5902  0.9175  0.0499
  348MOL0     H48004   2.865   2.379   7.048  2.4148  0.6363 -1.2225
  348MOL0     H48005   2.626   2.304   7.027  1.3348 -0.7461  0.3362
  348MOL0     H48006   2.263   2.437   6.752 -0.4266 -1.7655 -2.2012
  348MOL0     H48007   2.030   2.495   6.661 -0.2349 -1.3809  0.3191
  348MOL0     H48008   0.924   2.593   5.290 -0.2520 -0.9134  0.5458
  348MOL0     H48009   0.725   2.565   5.136 -0.0631  0.9218  0.4802
  348MOL0     H48010   0.508   2.457   4.814 -1.7260  1.2003  0.3477
  348MOL0     H48011   0.330   2.410   4.640 -3.5569  0.4628  0.8533
  348MOL0     H48012   0.149   2.415   4.552 -1.7486  0.4148  1.1551
  348MOL0     H48013   0.209   2.288   4.456 -0.4955  0.5036 -1.3681
  348MOL0     H48014  -0.032   2.210   4.413 -0.2252 -1.3865  1.1808
  348MOL0     H48015   0.011   2.369   4.372  0.5846  0.6204 -0.4173
  348MOL0     H48016  -0.123   2.328   4.638  3.8745 -0.1698  0.8033
  348MOL0     H48017  -0.120   2.482   4.545 -0.9511 -0.3131  0.7498
  348MOL0     H48018  -0.336   2.363   4.528 -1.7631  1.1397 -1.9652
  348MOL0     H48019  -0.252   2.243   4.422 -2.9369  0.6697 -0.1187
  348MOL0     H48020  -0.275   2.584   4.169  0.1097  1.3639  0.0402
  348MOL0     H48021   0.178   2.088   4.873  0.5172 -0.1512 -0.5636
  348MOL0     H48022   0.289   2.130   5.142 -0.5692 -3.0345  0.9506
  348MOL0     H48023   0.330   1.995   5.045 -1.0128  0.3496  0.8496
  348MOL0     H48024   0.463   2.085   5.109  0.8760 -0.5290 -1.8882
  349MOL0     O48025   4.814   4.801   8.997  0.2605 -0.2800  1.0230
  349MOL0     C48026   4.742   4.860   9.077  0.2656  0.0996  0.8250
  349MOL0     O48027   4.789   4.965   9.147 -0.1732 -0.3857 -1.0190
  349MOL0     C48028   4.910   5.022   9.104 -0.5053  0.2335 -0.4177
  349MOL0     C48029   5.032   4.966   9.135  0.7911  0.4611  0.0515
  349MOL0     C48030   5.150   5.029   9.104  1.0309 -0.0453 -0.2305
  349MOL0     C48031   5.146   5.140   9.034 -0.2105 -0.4775  0.4970
  349MOL0     O48032   5.252   5.214   8.985 -0.0161 -1.2412  0.2358
  349MOL0     C48033   5.394   5.166   9.000 -0.8624  0.6782  0.1408
  349MOL0     C48034   5.422   5.060   8.887  0.3609  0.9594  0.0172
  349MOL0     C48035   5.560   5.001   8.894 -0.0176  0.5439 -0.4560
  349MOL0     C48036   5.556   4.859   8.825  0.5325 -0.7405 -0.9566
  349MOL0     C48037   5.682   4.780   8.819  0.3718 -0.0701 -0.8810
  349MOL0     C48038   5.763   4.819   8.701 -0.1693 -0.2411 -1.0754
  349MOL0     C48039   5.893   4.744   8.709 -0.7206  0.5165  0.2202
  349MOL0     C48040   5.989   4.825   8.796  0.4708 -0.3301 -0.8084
  349MOL0     N48041   6.122   4.755   8.799  0.5558  0.6861 -0.3928
  349MOL0     C48042   6.149   4.632   8.859  1.0206  0.7288 -1.3279
  349MOL0     C48043   6.277   4.602   8.825  0.4573 -0.3356 -0.9927
  349MOL0     C48044   6.368   4.495   8.885 -0.1561  0.8673 -0.2335
  349MOL0     C48045   6.365   4.524   9.038  0.1017  1.0890  0.2036
  349MOL0     C48046   6.416   4.411   9.125  0.2595  0.4388  0.6034
  349MOL0     C48047   6.577   4.392   9.124 -0.6391 -0.0917  0.3621
  349MOL0     O48048   6.634   4.517   9.174  0.2501 -0.1062  0.0283
  349MOL0     C48049   6.770   4.527   9.163  0.1741  0.0823  0.4402
  349MOL0     C48050   6.854   4.463   9.073  0.3880 -0.0316  0.4935
  349MOL0     C48051   6.985   4.500   9.055 -1.0816  1.0219  0.2223
  349MOL0     C48052   7.070   4.431   8.962  0.1205  0.6946  0.0388
  349MOL0     C48053   7.041   4.597   9.132  0.0019 -0.3413  1.0708
  349MOL0     C48054   7.183   4.651   9.124 -0.2676 -0.5482 -0.1594
  349MOL0     O48055   7.202   4.760   9.204 -0.7795  0.0282 -0.6656
  349MOL0     C48056   7.335   4.787   9.237  0.5573  0.5369  0.4097
  349MOL0     C48057   7.411   4.695   9.313 -0.8236  0.2751 -0.4424
  349MOL0     C48058   7.546   4.740   9.353  0.4838 -1.0333  0.0118
  349MOL0     C48059   7.602   4.859   9.304  0.2893  0.6854 -0.0942
  349MOL0     O48060   7.721   4.908   9.329 -0.5202  0.2644 -0.3961
  349MOL0     C48061   7.823   4.816   9.381 -0.0320  0.0822 -0.7965
  349MOL0     C48062   7.959   4.865   9.400  0.2699 -0.6830 -0.4379
  349MOL0     C48063   7.967   4.971   9.509 -0.3233  0.3574 -0.3005
  349MOL0     C48064   8.104   5.030   9.514 -0.4328  0.4299  0.3435
  349MOL0     C48065   8.106   5.144   9.615 -1.2324  0.7292  0.1104
  349MOL0     C48066   8.238   5.219   9.637  0.3180 -0.5780  0.3717
  349MOL0     C48067   8.328   5.261   9.514 -0.4834  0.2556 -0.6949
  349MOL0     C48068   8.466   5.310   9.550 -0.2328  0.4382 -0.3423
  349MOL0    Cl48069   8.553   5.176   9.618 -0.1432 -0.0209  0.5389
  349MOL0     C48070   7.519   4.937   9.225  1.1688 -1.2116 -0.3796
  349MOL0     C48071   7.386   4.903   9.191  0.6191 -0.6954 -0.5568
  349MOL0     O48072   7.273   4.590   9.068  0.4666 -1.2182  0.8610
  349MOL0     C48073   6.963   4.652   9.234  0.7128 -0.7226  0.5277
  349MOL0     C48074   6.827   4.627   9.248  0.1986 -0.4551 -0.2102
  349MOL0     N48075   6.320   4.702   8.742  0.2602  0.7107 -0.5442
  349MOL0     N48076   6.234   4.794   8.733 -0.0601 -0.2292 -0.1477
  349MOL0     C48077   5.024   5.197   8.996  0.5441 -0.2900  0.7184
  349MOL0     C48078   4.902   5.141   9.035 -0.3854 -1.0451  0.0068
  349MOL0     C48079   4.605   4.818   9.092  0.6298 -0.6779 -0.4796
  349MOL0     C48080   4.521   4.899   9.174 -0.2849 -1.2657 -0.4993
  349MOL0     C48081   4.382   4.882   9.188 -0.4404  0.6696 -0.1379
  349MOL0     C48082   4.315   4.785   9.106  0.4026 -0.0438  0.4642
  349MOL0     O48083   4.180   4.786   9.120  0.4887  0.2767  0.0099
  349MOL0     C48084   4.099   4.670   9.099 -0.1259  0.7702 -0.2088
  349MOL0     C48085   3.948   4.691   9.147 -0.0621 -0.0972  0.0516
  349MOL0     C48086   3.877   4.805   9.076  1.1270 -0.1455 -0.7496
  349MOL0     C48087   3.720   4.809   9.113  0.7408  0.6075  0.3158
  349MOL0     C48088   3.653   4.697   9.045 -0.2891 -0.7078  0.0350
  349MOL0     C48089   3.611   4.592   9.005  1.0541  0.9243  0.9731
  349MOL0     C48090   4.398   4.703   9.039  0.8525  0.9146  0.3168
  349MOL0     C48091   4.541   4.710   9.032 -0.1444  0.6166  0.0368
  349MOL0     C48092   4.613   4.600   8.960  0.0327  0.5528 -0.2605
  349MOL0     H48093   5.046   4.866   9.175  0.8967  0.4139 -0.1012
  349MOL0     H48094   5.240   4.985   9.147  0.4905 -1.7993 -0.8182
  349MOL0     H48095   5.399   5.118   9.098 -0.9837  0.0962 -0.1345
  349MOL0     H48096   5.457   5.255   8.989 -3.3916  2.5459 -0.3894
  349MOL0     H48097   5.351   4.979   8.907  0.8845  1.0960  2.8291
  349MOL0     H48098   5.420   5.112   8.791  1.4105 -0.6389 -0.9215
  349MOL0     H48099   5.632   5.052   8.830  1.6228 -0.4454  0.5412
  349MOL0     H48100   5.589   4.991   8.999 -1.4052 -0.8613 -0.1680
  349MOL0     H48101   5.488   4.804   8.891 -0.5866  1.1537 -0.4514
  349MOL0     H48102   5.516   4.862   8.723 -1.8889 -1.4098 -0.0990
  349MOL0     H48103   5.651   4.677   8.795  0.0056  0.0403 -0.8968
  349MOL0     H48104   5.739   4.768   8.912  1.2292 -1.8365 -1.5878
  349MOL0     H48105   5.716   4.793   8.606 -0.4338  1.0266 -1.3174
  349MOL0     H48106   5.774   4.927   8.714 -2.7890 -0.0603  0.4176
  349MOL0     H48107   5.926   4.739   8.605 -0.3377 -0.3873  0.3700
  349MOL0     H48108   5.894   4.643   8.752  1.2607  0.9704  1.4089
  349MOL0     H48109   6.005   4.927   8.761  0.9353  0.1325  0.7073
  349MOL0     H48110   5.956   4.824   8.900 -1.7177  4.0267 -1.2510
  349MOL0     H48111   6.083   4.592   8.935  0.7566  2.1423 -0.7705
  349MOL0     H48112   6.472   4.488   8.851  0.1303 -0.8377  0.8477
  349MOL0     H48113   6.322   4.398   8.865 -0.1239  0.2269  2.4514
  349MOL0     H48114   6.418   4.615   9.066  5.2953 -2.0170  1.8333
  349MOL0     H48115   6.259   4.522   9.066 -0.1618  1.1508 -0.7441
  349MOL0     H48116   6.390   4.420   9.230 -1.0317  1.7890  0.2029
  349MOL0     H48117   6.372   4.314   9.100  1.4252 -0.3507  1.4660
  349MOL0     H48118   6.609   4.302   9.177 -0.2083 -0.6443 -0.8164
  349MOL0     H48119   6.600   4.370   9.019  0.5659 -4.4034  1.3284
  349MOL0     H48120   6.810   4.401   8.996 -0.7017  0.6486  0.5490
  349MOL0     H48121   7.016   4.345   8.922  0.7046 -0.7513  2.1861
  349MOL0     H48122   7.154   4.388   9.018 -1.0801  2.7378  3.7674
  349MOL0     H48123   7.090   4.504   8.884 -2.6979  1.7819  0.2298
  349MOL0     H48124   7.372   4.603   9.356  0.1361 -0.4924 -1.1708
  349MOL0     H48125   7.605   4.683   9.424  1.5062  1.8491  1.6591
  349MOL0     H48126   7.786   4.778   9.477  3.4324 -2.6118 -0.3248
  349MOL0     H48127   7.833   4.729   9.316  1.8074 -1.5254  1.4716
  349MOL0     H48128   8.018   4.779   9.433  0.6089 -0.1553  0.3689
  349MOL0     H48129   7.997   4.897   9.303 -1.0146 -2.1216 -1.4552
  349MOL0     H48130   7.936   4.930   9.606 -0.8404  0.4721 -0.4163
  349MOL0     H48131   7.900   5.054   9.486 -0.2018  0.6564  0.4018
  349MOL0     H48132   8.136   5.066   9.416 -0.9079 -3.2964 -1.3585
  349MOL0     H48133   8.170   4.945   9.535 -0.6097 -0.6663 -2.9583
  349MOL0     H48134   8.033   5.221   9.589 -0.2142  2.3334  1.7833
  349MOL0     H48135   8.080   5.105   9.715 -1.3612 -1.2723 -0.6601
  349MOL0     H48136   8.293   5.150   9.702  1.0495  0.1122  0.4963
  349MOL0     H48137   8.209   5.303   9.700 -3.5622  2.3953 -4.5842
  349MOL0     H48138   8.274   5.343   9.465 -2.9768  0.5336  2.1537
  349MOL0     H48139   8.332   5.179   9.442  1.8042 -0.8731  0.6055
  349MOL0     H48140   8.444   5.391   9.620 -4.3150  0.3116 -1.2425
  349MOL0     H48141   8.523   5.349   9.465  0.7330  2.3654  1.1187
  349MOL0     H48142   7.544   5.038   9.194 -0.5115 -0.2988  1.0374
  349MOL0     H48143   7.314   4.970   9.146  0.7057  0.0944  0.4508
  349MOL0     H48144   7.001   4.725   9.305 -0.5223 -1.1789  1.6928
  349MOL0     H48145   6.769   4.673   9.327 -1.9234  2.5675 -3.2588
  349MOL0     H48146   5.029   5.280   8.926  0.1296 -0.8001  0.0731
  349MOL0     H48147   4.809   5.185   9.001 -1.3617 -0.2145  3.4234
  349MOL0     H48148   4.569   4.985   9.219  0.1936 -1.5395 -0.4755
  349MOL0     H48149   4.330   4.953   9.251 -1.3784 -0.0312 -0.1023
  349MOL0     H48150   4.101   4.658   8.990  2.8133 -0.9626 -0.0651
  349MOL0     H48151   4.139   4.576   9.137  0.5092 -0.0411 -2.7153
  349MOL0     H48152   3.952   4.711   9.255 -1.2274  0.7795 -0.0481
  349MOL0     H48153   3.879   4.605   9.141 -1.5866  0.8085  2.5312
  349MOL0     H48154   3.927   4.892   9.118  0.8965 -1.6784  3.1490
  349MOL0     H48155   3.886   4.802   8.967  1.4181  1.6146 -0.8029
  349MOL0     H48156   3.682   4.906   9.079  2.3616  1.0091 -0.4628
  349MOL0     H48157   3.707   4.806   9.221  1.3775  0.2463  0.3893
  349MOL0     H48158   3.561   4.504   8.972  0.3898  1.0227  1.6735
  349MOL0     H48159   4.353   4.615   8.993  0.0529 -0.8617  4.1597
  349MOL0     H48160   4.697   4.554   9.014  0.2722 -0.3583 -1.3816
  349MOL0     H48161   4.547   4.519   8.927  1.7794 -1.8635  1.7538
  349MOL0     H48162   4.656   4.650   8.873  0.3872  0.1341 -0.3272
  350MOL0     O48163   8.394   2.619  10.074  0.6796 -0.5379  0.2820
  350MOL0     C48164   8.426   2.716  10.147 -0.2096 -0.2028  0.2730
  350MOL0     O48165   8.432   2.709  10.282  0.5360  0.1526  0.7865
  350MOL0     C48166   8.377   2.593  10.343 -0.1854  0.6219 -0.1101
  350MOL0     C48167   8.242   2.563  10.316  0.7681 -1.0961  0.2594
  350MOL0     C48168   8.179   2.452  10.379  0.2520  0.1068  0.5682
  350MOL0     C48169   8.254   2.369  10.466 -1.0138  0.4505  1.0251
  350MOL0     O48170   8.179   2.276  10.529 -0.0741  0.8687 -1.0624
  350MOL0     C48171   8.236   2.190  10.636  0.6373 -0.4461 -0.4143
  350MOL0     C48172   8.260   2.271  10.761 -0.0259  0.1632 -0.3461
  350MOL0     C48173   8.356   2.210  10.862 -0.1610  0.4715 -0.1516
  350MOL0     C48174   8.451   2.309  10.926 -0.8427 -0.4194 -0.1150
  350MOL0     C48175   8.578   2.234  10.980 -0.1855  0.8422  0.1165
  350MOL0     C48176   8.673   2.328  11.048 -0.1369  0.0492 -0.8633
  350MOL0     C48177   8.789   2.250  11.126  0.6749 -0.4672 -0.6885
  350MOL0     C48178   8.862   2.355  11.214  0.3199 -0.4430  0.4433
  350MOL0     N48179   8.885   2.479  11.137 -0.2989  0.3777  0.3569
  350MOL0     C48180   9.001   2.519  11.078 -0.5777  0.1499 -0.3392
  350MOL0     C48181   8.989   2.652  11.049 -0.0418  1.1425 -0.6825
  350MOL0     C48182   9.091   2.738  10.987 -0.9679  0.0312  0.3856
  350MOL0     C48183   9.069   2.882  11.042  0.1182 -0.6854  1.0048
  350MOL0     C48184   9.183   2.966  10.999  0.2352 -0.3755 -0.4988
  350MOL0     C48185   9.194   3.089  11.079  0.5111  0.0510 -0.1155
  350MOL0     O48186   9.271   3.191  10.999 -0.0641  0.2787  0.3174
  350MOL0     C48187   9.404   3.218  11.018  0.2710 -0.9344  0.6807
  350MOL0     C48188   9.487   3.122  11.068 -0.3234  0.2259  0.9946
  350MOL0     C48189   9.626   3.142  11.082 -0.4730  1.0040  0.9614
  350MOL0     C48190   9.718   3.023  11.104  0.1305 -0.1850  0.1544
  350MOL0     C48191   9.677   3.273  11.060  0.6453  1.1941  0.0728
  350MOL0     C48192   9.814   3.315  11.072  0.2611 -0.5738 -0.1788
  350MOL0     O48193   9.851   3.443  11.027 -0.1205 -0.0364 -0.0429
  350MOL0     C48194   9.949   3.455  10.930  0.9515 -0.5698  0.0233
  350MOL0     C48195   9.933   3.576  10.859  0.6147 -0.9102 -1.1174
  350MOL0     C48196  10.034   3.608  10.774  0.6160  0.7944 -0.4911
  350MOL0     C48197  10.149   3.525  10.750 -0.1406 -0.7170 -0.1231
  350MOL0     O48198  10.246   3.579  10.669 -0.1188  0.9645  0.9369
  350MOL0     C48199  10.386   3.542  10.697  0.0638 -0.3615 -0.1166
  350MOL0     C48200  10.439   3.612  10.831 -0.4924  0.6788 -0.0743
  350MOL0     C48201  10.585   3.673  10.803 -0.1790 -0.0653  0.0056
  350MOL0     C48202  10.689   3.554  10.822  0.3834 -1.0097 -0.0921
  350MOL0     C48203  10.837   3.599  10.805 -0.7043  0.3063 -0.9947
  350MOL0     C48204  10.892   3.620  10.656 -0.3294 -0.1272  0.1158
  350MOL0     C48205  11.026   3.676  10.646 -0.3368 -0.6144  0.3073
  350MOL0     C48206  11.061   3.677  10.500 -0.5768 -0.1632 -0.1346
  350MOL0    Cl48207  11.112   3.506  10.450 -0.6967  0.7282 -0.0129
  350MOL0     C48208  10.148   3.398  10.804 -0.3456  0.1573 -0.0396
  350MOL0     C48209  10.046   3.359  10.898  0.5745  0.1868 -0.3057
  350MOL0     O48210   9.896   3.241  11.128  0.0098 -0.1638  1.0627
  350MOL0     C48211   9.592   3.368  11.007  0.5081 -0.1860 -0.1696
  350MOL0     C48212   9.458   3.347  10.979  0.3721  0.8019 -0.7487
  350MOL0     N48213   8.861   2.684  11.083 -0.6751  0.3925 -0.2360
  350MOL0     N48214   8.802   2.587  11.128 -0.2895 -0.1331 -0.0374
  350MOL0     C48215   8.387   2.404  10.489 -0.2544 -0.2795  1.0748
  350MOL0     C48216   8.449   2.514  10.430 -0.5036 -0.1384 -0.1620
  350MOL0     C48217   8.443   2.849  10.083  0.7695  0.6822  1.0191
  350MOL0     C48218   8.430   2.965  10.159  0.4965 -0.0561  0.3034
  350MOL0     C48219   8.445   3.093  10.110 -0.1415  0.8199 -0.7755
  350MOL0     C48220   8.479   3.117   9.976 -0.3230  0.9771  0.1596
  350MOL0     O48221   8.491   3.237   9.912  0.3481 -0.6891 -0.1241
  350MOL0     C48222   8.472   3.359   9.979  0.6004 -0.4271  1.0243
  350MOL0     C48223   8.570   3.401  10.086 -0.2591  0.1143 -0.3290
  350MOL0     C48224   8.709   3.444  10.027 -1.1499 -0.3611 -0.0182
  350MOL0     C48225   8.829   3.448  10.126  0.7344 -0.0495  0.4819
  350MOL0     C48226   8.836   3.552  10.231  0.7426  0.6878  0.1559
  350MOL0     C48227   8.832   3.623  10.330  0.8496  0.5775 -0.5318
  350MOL0     C48228   8.489   3.002   9.889 -0.2111  0.0163 -0.0277
  350MOL0     C48229   8.471   2.873   9.941  0.0933 -0.0731 -0.3091
  350MOL0     C48230   8.486   2.757   9.846 -0.6496 -0.2916 -0.6059
  350MOL0     H48231   8.169   2.615  10.255 -1.6373 -1.7737  2.4023
  350MOL0     H48232   8.073   2.442  10.358 -0.1386  2.6639  1.0593
  350MOL0     H48233   8.328   2.140  10.605  0.5571 -1.7352  1.2978
  350MOL0     H48234   8.160   2.114  10.656  0.9422 -0.7126 -0.2572
  350MOL0     H48235   8.296   2.367  10.723  0.9639 -1.0175 -2.5790
  350MOL0     H48236   8.165   2.304  10.805 -1.9238  0.3652 -4.2275
  350MOL0     H48237   8.303   2.171  10.950 -1.9031  2.3301 -0.3114
  350MOL0     H48238   8.422   2.136  10.816 -0.5072 -0.8056  1.2966
  350MOL0     H48239   8.482   2.383  10.850 -2.0077  1.1059  0.8307
  350MOL0     H48240   8.412   2.355  11.017 -0.3868 -0.9979  0.3857
  350MOL0     H48241   8.632   2.180  10.902  1.2276  1.4606  0.6229
  350MOL0     H48242   8.540   2.165  11.055 -2.3560 -0.3154 -1.9447
  350MOL0     H48243   8.718   2.386  10.967  0.4672  0.4527 -0.2545
  350MOL0     H48244   8.615   2.383  11.122  1.6066  0.4823  0.2405
  350MOL0     H48245   8.861   2.213  11.052  0.7309 -1.8798  0.0418
  350MOL0     H48246   8.750   2.161  11.176 -0.1079 -0.2266 -0.8670
  350MOL0     H48247   8.804   2.368  11.306  1.1118 -2.4527  1.2894
  350MOL0     H48248   8.964   2.319  11.232  0.6806  0.3957  0.1027
  350MOL0     H48249   9.094   2.468  11.056 -0.5214  1.3547 -3.3512
  350MOL0     H48250   9.080   2.739  10.878 -0.5009 -1.5082  0.3063
  350MOL0     H48251   9.191   2.701  11.013 -0.5651  1.0648  0.3356
  350MOL0     H48252   8.976   2.929  11.007 -0.4062 -1.4940  1.2739
  350MOL0     H48253   9.064   2.887  11.151  0.5079  1.6204  0.9738
  350MOL0     H48254   9.277   2.917  11.024  0.7299  0.3986 -0.8168
  350MOL0     H48255   9.183   2.989  10.892 -2.7146  3.6529  0.0924
  350MOL0     H48256   9.092   3.128  11.082  0.7843  0.7657  0.2506
  350MOL0     H48257   9.229   3.076  11.182  1.4146 -1.3114 -0.5713
  350MOL0     H48258   9.459   3.020  11.092 -0.5471  0.2365  0.7857
  350MOL0     H48259   9.799   3.033  11.032 -0.8291 -0.1503 -0.9535
  350MOL0     H48260   9.657   2.933  11.089 -2.1696  1.5268 -1.3730
  350MOL0     H48261   9.769   3.035  11.200  0.1539  2.4637 -0.1189
  350MOL0     H48262   9.856   3.651  10.873  0.1158 -1.6925  0.5112
  350MOL0     H48263  10.045   3.702  10.720  1.0416  0.7421 -0.4992
  350MOL0     H48264  10.409   3.436  10.687 -1.1424 -0.4905 -2.2983
  350MOL0     H48265  10.434   3.585  10.608 -1.5541  1.4146 -0.2004
  350MOL0     H48266  10.363   3.686  10.858 -0.4021  1.3996 -1.6895
  350MOL0     H48267  10.454   3.548  10.918  0.1470 -2.2605 -2.1619
  350MOL0     H48268  10.617   3.747  10.877 -1.0529 -0.4442  0.7845
  350MOL0     H48269  10.585   3.718  10.703  0.4133 -1.6724 -0.7532
  350MOL0     H48270  10.653   3.489  10.742 -2.2593  1.4955 -1.1050
  350MOL0     H48271  10.668   3.495  10.911  1.4312 -2.4160 -0.7360
  350MOL0     H48272  10.844   3.684  10.873 -1.9960 -1.6282  1.7360
  350MOL0     H48273  10.899   3.517  10.843  1.3893  1.7128 -1.2183
  350MOL0     H48274  10.828   3.680  10.592  2.1957  0.0397 -2.4411
  350MOL0     H48275  10.892   3.521  10.610  0.3407 -1.3653  2.5752
  350MOL0     H48276  11.096   3.636  10.721 -2.3197  0.6756  3.0382
  350MOL0     H48277  11.003   3.776  10.685 -0.6595 -0.5557 -0.0322
  350MOL0     H48278  11.139   3.754  10.487  0.1123 -0.5256  1.5622
  350MOL0     H48279  10.980   3.717  10.438 -0.2369 -1.5189 -1.5226
  350MOL0     H48280  10.234   3.338  10.776 -0.3758 -0.1048  0.4104
  350MOL0     H48281  10.057   3.274  10.965 -3.0251  0.1307  0.4068
  350MOL0     H48282   9.628   3.469  10.987 -1.2895  0.1857 -1.8341
  350MOL0     H48283   9.393   3.425  10.939 -1.0885  1.1118  1.9408
  350MOL0     H48284   8.450   2.351  10.559  0.8118 -1.1123 -0.4553
  350MOL0     H48285   8.553   2.538  10.451 -1.3913  1.4160  3.1246
  350MOL0     H48286   8.413   2.945  10.265  2.3242 -2.7886  0.2028
  350MOL0     H48287   8.429   3.173  10.181 -1.4571 -0.7269  0.7460
  350MOL0     H48288   8.475   3.439   9.904 -2.5278 -1.2274 -0.0691
  350MOL0     H48289   8.374   3.367  10.026  2.0871 -0.0877  4.3651
  350MOL0     H48290   8.597   3.323  10.158 -1.8547  0.4502  0.6933
  350MOL0     H48291   8.528   3.482  10.147  0.1773  0.9311 -1.0911
  350MOL0     H48292   8.742   3.371   9.952  2.9030  0.7218  0.4563
  350MOL0     H48293   8.693   3.534   9.967 -0.2914 -0.7493 -0.8524
  350MOL0     H48294   8.916   3.478  10.066  0.7191  3.2663  1.8555
  350MOL0     H48295   8.845   3.348  10.167  1.2018  0.2782  1.1242
  350MOL0     H48296   8.807   3.700  10.399  3.0356  0.8999 -0.0471
  350MOL0     H48297   8.505   3.028   9.786  2.0131  1.5292  0.6448
  350MOL0     H48298   8.518   2.793   9.747 -2.7050 -0.1103 -1.2644
  350MOL0     H48299   8.562   2.688   9.880 -1.1262  0.0861  1.3237
  350MOL0     H48300   8.387   2.712   9.832 -2.0628  2.1824  0.7354
  351MOL0     O48301   7.045   2.020   1.332 -0.1493 -0.1170  0.0219
  351MOL0     C48302   7.066   2.140   1.316  0.5844  0.0666 -0.4700
  351MOL0     O48303   6.998   2.238   1.379  0.7156 -0.2769  0.0722
  351MOL0     C48304   6.910   2.202   1.486 -0.0252 -0.5177 -0.0276
  351MOL0     C48305   6.927   2.254   1.614  1.8356  0.0486 -0.9219
  351MOL0     C48306   6.840   2.212   1.717  0.7775 -0.3565  0.0521
  351MOL0     C48307   6.735   2.127   1.694  0.5615  0.3175 -0.3712
  351MOL0     O48308   6.651   2.089   1.794 -0.4612 -0.0380 -0.1221
  351MOL0     C48309   6.565   1.971   1.785 -0.0411 -0.5715 -0.4007
  351MOL0     C48310   6.492   1.949   1.924 -0.9109 -0.1419 -0.8250
  351MOL0     C48311   6.597   1.933   2.038  0.4359 -0.4043  0.0940
  351MOL0     C48312   6.536   1.851   2.149  0.3108  0.0150  0.3784
  351MOL0     C48313   6.634   1.789   2.246  0.5850  0.0296  0.3860
  351MOL0     C48314   6.686   1.654   2.179 -0.1812 -0.0130  0.9251
  351MOL0     C48315   6.774   1.569   2.271  0.8716  0.4454 -0.7179
  351MOL0     C48316   6.875   1.644   2.354 -0.3270  0.1806  0.1239
  351MOL0     N48317   6.986   1.560   2.407  0.6499 -0.0698 -0.4582
  351MOL0     C48318   7.015   1.426   2.410  0.5463  0.1361  0.5883
  351MOL0     C48319   7.114   1.400   2.502 -0.5231  0.4882  0.3001
  351MOL0     C48320   7.168   1.265   2.542  0.1163  0.3427  0.5232
  351MOL0     C48321   7.074   1.217   2.650  0.3038 -1.7230  0.2049
  351MOL0     C48322   7.103   1.097   2.735 -0.4710 -0.2725  0.1649
  351MOL0     C48323   7.234   1.120   2.815 -0.0559 -0.4020 -0.0270
  351MOL0     O48324   7.269   1.006   2.881 -0.5135 -0.0602  0.6919
  351MOL0     C48325   7.348   0.912   2.813  1.2183  0.6825  0.4335
  351MOL0     C48326   7.371   0.902   2.678 -0.4955 -0.3241 -0.1480
  351MOL0     C48327   7.448   0.799   2.622 -0.0470 -0.3001  0.2633
  351MOL0     C48328   7.465   0.816   2.471  0.4062  0.0879  0.2960
  351MOL0     C48329   7.495   0.700   2.706 -0.4730  0.7055 -0.4384
  351MOL0     C48330   7.558   0.577   2.656  0.3948 -0.2114 -0.8085
  351MOL0     O48331   7.538   0.538   2.530  0.0531  0.1895 -0.0024
  351MOL0     C48332   7.610   0.431   2.487  0.3204 -0.7150 -0.2637
  351MOL0     C48333   7.537   0.314   2.481  0.1895  0.3369 -0.0361
  351MOL0     C48334   7.587   0.200   2.436  0.8857 -0.3527 -0.0326
  351MOL0     C48335   7.720   0.198   2.388 -1.1997 -0.7254 -0.4224
  351MOL0     O48336   7.765   0.088   2.328 -0.0047  0.0179 -1.0956
  351MOL0     C48337   7.901   0.057   2.302 -0.5396 -0.1484  0.1596
  351MOL0     C48338   7.990   0.049   2.437  0.5451  0.1445 -0.1432
  351MOL0     C48339   8.135   0.008   2.406 -0.7658  0.0835 -0.1430
  351MOL0     C48340   8.217   0.033   2.536 -0.0707 -0.7155 -0.2535
  351MOL0     C48341   8.357  -0.026   2.538  0.3096  0.6516  0.1368
  351MOL0     C48342   8.421   0.006   2.673 -0.5314 -1.2560 -0.2386
  351MOL0     C48343   8.574  -0.033   2.685  0.9385 -0.0038 -0.9313
  351MOL0     C48344   8.663   0.040   2.586  0.1653 -0.2531 -0.8934
  351MOL0    Cl48345   8.647   0.213   2.607 -0.2587 -0.0216 -0.0705
  351MOL0     C48346   7.795   0.318   2.393 -0.1847  0.5617  0.1140
  351MOL0     C48347   7.740   0.434   2.443  0.4633 -0.3993  0.1875
  351MOL0     O48348   7.639   0.527   2.737  0.0970  0.0513  0.4127
  351MOL0     C48349   7.465   0.704   2.844 -0.5733 -0.4310 -0.2111
  351MOL0     C48350   7.395   0.815   2.898  0.6046 -0.8974  0.3203
  351MOL0     N48351   7.140   1.515   2.573  0.4368 -0.9581  1.0682
  351MOL0     N48352   7.055   1.605   2.515 -0.5146  0.7104  0.5868
  351MOL0     C48353   6.705   2.088   1.564 -0.0908  0.4775  0.4183
  351MOL0     C48354   6.800   2.121   1.461  0.0453  0.1893 -0.1174
  351MOL0     C48355   7.181   2.176   1.237  0.1235  0.6169  0.6611
  351MOL0     C48356   7.218   2.093   1.133 -0.4181 -0.5037  0.1013
  351MOL0     C48357   7.330   2.119   1.056 -0.3447 -0.7100  0.6439
  351MOL0     C48358   7.402   2.234   1.071  0.2884  0.3727  1.3561
  351MOL0     O48359   7.506   2.233   0.990 -0.2335 -0.0333 -0.5477
  351MOL0     C48360   7.581   2.351   0.971 -0.5643  0.0429 -0.4456
  351MOL0     C48361   7.620   2.380   0.829  0.2142  0.6765  0.3249
  351MOL0     C48362   7.703   2.262   0.760  0.2487 -0.8171  0.2621
  351MOL0     C48363   7.761   2.319   0.635  0.3756 -0.2755 -0.2984
  351MOL0     C48364   7.857   2.221   0.576 -0.3579 -0.6148 -0.0463
  351MOL0     C48365   7.935   2.148   0.518 -0.4331  0.2690 -0.0348
  351MOL0     C48366   7.356   2.331   1.159  0.0868  0.1059  0.4205
  351MOL0     C48367   7.253   2.294   1.244  0.1777  0.1603  0.2077
  351MOL0     C48368   7.246   2.388   1.358 -0.3556  0.0170 -0.4857
  351MOL0     H48369   7.011   2.312   1.650  1.1318  0.8721 -0.5636
  351MOL0     H48370   6.856   2.237   1.822  1.9881 -3.1065  0.6015
  351MOL0     H48371   6.620   1.882   1.752 -0.5270 -1.3549  0.8369
  351MOL0     H48372   6.484   1.980   1.711 -0.6808 -2.7980 -0.0507
  351MOL0     H48373   6.421   2.032   1.937 -0.7612 -0.3205  1.7780
  351MOL0     H48374   6.437   1.856   1.912  1.3515 -1.8634  1.0305
  351MOL0     H48375   6.679   1.872   1.998  0.1046 -0.1943 -0.9368
  351MOL0     H48376   6.634   2.032   2.069  0.2755  1.0794 -3.7924
  351MOL0     H48377   6.467   1.917   2.202  0.6894 -0.4443  1.4558
  351MOL0     H48378   6.489   1.761   2.107  2.5241 -1.5983  1.1641
  351MOL0     H48379   6.578   1.769   2.338  2.0225 -1.5979  0.9553
  351MOL0     H48380   6.709   1.864   2.271 -0.6252  1.3058  0.3400
  351MOL0     H48381   6.610   1.590   2.133  1.0028 -0.0715 -1.0720
  351MOL0     H48382   6.754   1.671   2.095  1.0449 -0.3021  1.8204
  351MOL0     H48383   6.828   1.509   2.198  1.2003 -0.1537  0.0053
  351MOL0     H48384   6.714   1.505   2.336 -0.7201 -0.2555 -2.7780
  351MOL0     H48385   6.927   1.715   2.290  1.2631  1.1436  2.3737
  351MOL0     H48386   6.827   1.705   2.431 -0.5654 -0.9335  0.9011
  351MOL0     H48387   6.977   1.341   2.354 -0.4916 -0.2959  1.9037
  351MOL0     H48388   7.275   1.281   2.560  0.0945 -0.4553  1.4138
  351MOL0     H48389   7.169   1.196   2.457  1.6841  1.0500 -0.0826
  351MOL0     H48390   7.061   1.293   2.728 -0.1208 -1.2848 -0.2867
  351MOL0     H48391   6.973   1.211   2.609 -0.6338  0.9966  1.8099
  351MOL0     H48392   7.021   1.086   2.806  0.4910 -2.8801  0.9902
  351MOL0     H48393   7.101   1.013   2.665 -0.5764 -0.9284  0.9555
  351MOL0     H48394   7.319   1.151   2.753 -0.9314 -0.5073 -1.3154
  351MOL0     H48395   7.227   1.200   2.890  3.0070  1.1561 -1.2053
  351MOL0     H48396   7.334   0.985   2.620 -1.1591 -0.2593  0.3592
  351MOL0     H48397   7.569   0.817   2.438 -0.2860 -0.2678 -2.0925
  351MOL0     H48398   7.415   0.911   2.448 -1.1686 -0.3844  1.6179
  351MOL0     H48399   7.428   0.733   2.411  2.3032 -0.2388 -0.5046
  351MOL0     H48400   7.440   0.315   2.531  0.2147  1.3354  0.0205
  351MOL0     H48401   7.522   0.114   2.420 -0.5748  1.1382 -2.8567
  351MOL0     H48402   7.905  -0.045   2.261  0.0226 -0.6507  1.4386
  351MOL0     H48403   7.937   0.130   2.229  0.9563  0.8817  1.8601
  351MOL0     H48404   8.009   0.145   2.485  0.7908  1.6429 -3.0355
  351MOL0     H48405   7.939  -0.023   2.502  1.3601 -1.6105 -1.3855
  351MOL0     H48406   8.178   0.044   2.311 -1.0847 -5.6619 -2.8828
  351MOL0     H48407   8.139  -0.096   2.373  0.2201  0.7948 -2.4970
  351MOL0     H48408   8.165  -0.004   2.625 -3.3495  2.5125 -0.6259
  351MOL0     H48409   8.210   0.140   2.557 -0.7553 -0.6765 -0.6642
  351MOL0     H48410   8.349  -0.135   2.531  0.5693  0.2624  3.6997
  351MOL0     H48411   8.411   0.010   2.450  5.3923 -0.0396  2.5920
  351MOL0     H48412   8.360  -0.031   2.756 -1.2381  1.7154  0.6795
  351MOL0     H48413   8.407   0.115   2.669 -0.6974 -1.0019  3.3208
  351MOL0     H48414   8.576  -0.142   2.679  0.9505  0.0398 -2.0741
  351MOL0     H48415   8.622  -0.007   2.780  1.9769  0.7817 -1.6406
  351MOL0     H48416   8.629   0.023   2.483 -1.2308  1.8803 -0.8452
  351MOL0     H48417   8.768   0.012   2.595  0.5124  0.2955 -2.8019
  351MOL0     H48418   7.901   0.319   2.369  0.4409 -2.4638  2.2689
  351MOL0     H48419   7.789   0.530   2.428  0.4800 -0.6119 -1.2312
  351MOL0     H48420   7.493   0.629   2.918 -0.5183 -2.1042 -1.8425
  351MOL0     H48421   7.370   0.822   3.004 -1.2381 -4.2899  0.2426
  351MOL0     H48422   6.622   2.022   1.540 -0.3083  0.8094  0.2471
  351MOL0     H48423   6.785   2.076   1.363 -2.1754 -1.5844  0.9515
  351MOL0     H48424   7.170   1.999   1.110  0.3825 -0.8766 -0.0738
  351MOL0     H48425   7.336   2.065   0.962 -2.5932  1.1153 -0.6416
  351MOL0     H48426   7.524   2.440   0.999 -1.3606 -1.1690  2.0919
  351MOL0     H48427   7.664   2.339   1.042 -1.4757 -0.8249  0.5230
  351MOL0     H48428   7.675   2.474   0.823  0.1804  0.8145  1.6966
  351MOL0     H48429   7.525   2.393   0.776  0.5752  3.3348  0.1773
  351MOL0     H48430   7.784   2.224   0.823  0.2873 -1.3198 -0.0861
  351MOL0     H48431   7.634   2.180   0.737 -0.1625  0.0484 -1.7674
  351MOL0     H48432   7.824   2.407   0.644  1.0450 -0.8437  0.6913
  351MOL0     H48433   7.680   2.335   0.563  0.0854 -1.7512 -0.3465
  351MOL0     H48434   8.009   2.081   0.479  0.6444  1.2351  0.3078
  351MOL0     H48435   7.414   2.419   1.182 -0.5873  1.0382 -1.2397
  351MOL0     H48436   7.213   2.339   1.450  1.6650 -1.2225 -0.3551
  351MOL0     H48437   7.342   2.438   1.373  0.0889 -0.5852 -1.2082
  351MOL0     H48438   7.177   2.470   1.338  1.4375  1.3549 -1.6372
  352MOL0     O48439   3.282   3.692   3.322  0.1436  0.7048  0.2211
  352MOL0     C48440   3.245   3.764   3.415  1.0807  0.0865 -0.6893
  352MOL0     O48441   3.284   3.889   3.442  0.3948  0.2181  0.1887
  352MOL0     C48442   3.399   3.919   3.392 -0.6142 -0.1050  0.5928
  352MOL0     C48443   3.399   4.009   3.281 -0.6758  0.0224  0.2553
  352MOL0     C48444   3.516   4.054   3.231 -0.7055 -0.3102  0.5401
  352MOL0     C48445   3.638   4.014   3.287  0.0207 -0.4203 -0.4953
  352MOL0     O48446   3.756   4.072   3.232  0.0931 -0.2832 -0.2189
  352MOL0     C48447   3.885   4.026   3.277  0.1504  0.1319 -0.5399
  352MOL0     C48448   3.985   4.113   3.196  0.0455  0.2496 -0.1074
  352MOL0     C48449   4.125   4.071   3.236  0.3978  0.3789 -0.1572
  352MOL0     C48450   4.242   4.157   3.175  0.6905  0.9198  0.2988
  352MOL0     C48451   4.385   4.126   3.210  0.5994 -0.4644 -1.1610
  352MOL0     C48452   4.428   3.990   3.171 -0.1350  0.3299 -0.0497
  352MOL0     C48453   4.573   3.972   3.215 -0.2246 -0.3271 -0.1793
  352MOL0     C48454   4.612   3.827   3.241 -1.2175 -0.4711 -0.1769
  352MOL0     N48455   4.732   3.834   3.328  0.0987 -0.0520  0.0597
  352MOL0     C48456   4.859   3.874   3.282 -0.0281  0.4627 -0.4773
  352MOL0     C48457   4.937   3.889   3.391  0.1534  0.1674  0.0771
  352MOL0     C48458   5.072   3.947   3.394 -0.2003  1.1296 -0.0706
  352MOL0     C48459   5.180   3.898   3.489 -0.1387 -0.2616 -0.1917
  352MOL0     C48460   5.309   3.986   3.478  0.4385 -0.5076  0.2169
  352MOL0     C48461   5.400   3.958   3.594  0.9111 -0.0452 -0.2746
  352MOL0     O48462   5.518   4.030   3.586 -0.3041 -0.1108 -0.4102
  352MOL0     C48463   5.633   3.991   3.659  0.2358 -0.0261 -0.4172
  352MOL0     C48464   5.651   3.914   3.777  0.5215 -0.3714 -1.2468
  352MOL0     C48465   5.769   3.908   3.851  0.3333  0.1124  0.4216
  352MOL0     C48466   5.773   3.822   3.974  0.9404 -0.7599 -0.4372
  352MOL0     C48467   5.871   3.999   3.816 -1.0752  0.2464 -0.2374
  352MOL0     C48468   5.998   4.020   3.889 -0.3797  0.0179  0.3522
  352MOL0     O48469   6.106   4.078   3.829  0.6279  0.1261 -0.3525
  352MOL0     C48470   6.220   4.098   3.907 -0.4049  0.0198  0.1537
  352MOL0     C48471   6.348   4.042   3.862  0.1606 -0.1353 -0.3175
  352MOL0     C48472   6.468   4.075   3.930  0.4116 -0.2376  0.5629
  352MOL0     C48473   6.464   4.145   4.052 -0.0439  0.4277  0.3419
  352MOL0     O48474   6.582   4.165   4.118 -0.7780  0.1463 -0.3305
  352MOL0     C48475   6.645   4.295   4.088 -0.8975  0.3576  0.1289
  352MOL0     C48476   6.790   4.288   4.054 -1.2684  0.3246  0.9976
  352MOL0     C48477   6.806   4.228   3.913 -0.1243 -0.1093 -0.5845
  352MOL0     C48478   6.946   4.240   3.860  0.6365 -0.2929 -0.0282
  352MOL0     C48479   6.965   4.172   3.728 -0.7776  0.4556 -0.3556
  352MOL0     C48480   7.113   4.159   3.691 -0.3064 -0.2683  0.6434
  352MOL0     C48481   7.112   4.063   3.568 -0.5242 -0.2794 -0.0558
  352MOL0     C48482   7.258   4.028   3.538 -0.4566  0.5422 -0.2797
  352MOL0    Cl48483   7.360   4.161   3.465 -0.2769 -0.4599  0.0249
  352MOL0     C48484   6.337   4.210   4.078  0.6839 -0.6699 -0.8219
  352MOL0     C48485   6.226   4.183   4.012 -0.4915  0.5762  0.0659
  352MOL0     O48486   5.992   3.990   4.010 -0.5256 -0.7993  0.2263
  352MOL0     C48487   5.851   4.086   3.707 -0.5585  0.3764 -1.0617
  352MOL0     C48488   5.737   4.078   3.632 -0.5430  0.2492  0.4317
  352MOL0     N48489   4.851   3.857   3.499 -0.2347  0.5399  0.2482
  352MOL0     N48490   4.734   3.818   3.466 -0.3460 -0.3337  0.7512
  352MOL0     C48491   3.641   3.928   3.396  1.2378 -1.1220  0.4593
  352MOL0     C48492   3.523   3.876   3.449  0.8904  0.4203  0.4921
  352MOL0     C48493   3.131   3.701   3.490 -0.4975  0.4192 -0.0707
  352MOL0     C48494   3.049   3.606   3.419 -0.6802  0.0113  0.3884
  352MOL0     C48495   2.944   3.546   3.473  0.4118 -0.3458 -0.1977
  352MOL0     C48496   2.921   3.570   3.616  0.3066  0.0195  1.0041
  352MOL0     O48497   2.816   3.517   3.682  0.4065  0.3558 -0.2822
  352MOL0     C48498   2.755   3.392   3.643 -0.7186 -1.1778  0.4687
  352MOL0     C48499   2.624   3.378   3.717  0.0390  0.0366  0.1874
  352MOL0     C48500   2.639   3.381   3.871  0.5194 -0.0402  0.1887
  352MOL0     C48501   2.499   3.380   3.931  0.5224  0.5682  0.2245
  352MOL0     C48502   2.488   3.307   4.057  0.7924 -0.2446  0.0992
  352MOL0     C48503   2.485   3.235   4.156  0.2093 -0.2972 -0.3804
  352MOL0     C48504   2.998   3.661   3.682 -0.1653 -0.3221 -0.5055
  352MOL0     C48505   3.098   3.732   3.624  0.5385 -0.5657  0.6509
  352MOL0     C48506   3.185   3.815   3.703  0.1086 -0.4529  0.1516
  352MOL0     H48507   3.307   4.055   3.246 -0.3820  1.4501  1.2718
  352MOL0     H48508   3.502   4.143   3.170  1.3573  2.8116  4.1436
  352MOL0     H48509   3.899   3.920   3.254  0.9688 -0.5524  2.6230
  352MOL0     H48510   3.898   4.040   3.385  1.9346 -0.2362 -0.6778
  352MOL0     H48511   3.981   4.113   3.087  0.0182 -1.0364 -0.1226
  352MOL0     H48512   3.962   4.213   3.234 -2.0928 -0.1897 -0.0856
  352MOL0     H48513   4.139   4.093   3.342  2.1331  0.1338 -0.3051
  352MOL0     H48514   4.155   3.969   3.208  3.1088  1.4923 -1.7350
  352MOL0     H48515   4.231   4.164   3.067  0.7327 -0.3943  0.1888
  352MOL0     H48516   4.219   4.256   3.215  1.8689  0.9537  0.9434
  352MOL0     H48517   4.396   4.135   3.318  2.9042  1.3196 -1.4507
  352MOL0     H48518   4.444   4.197   3.150  3.1803 -0.9037  0.7028
  352MOL0     H48519   4.368   3.920   3.229  1.1490 -0.7895 -0.0434
  352MOL0     H48520   4.426   3.968   3.064 -0.0486 -1.9823  0.3870
  352MOL0     H48521   4.585   4.028   3.308 -0.9305  1.2967 -1.0265
  352MOL0     H48522   4.644   4.015   3.145 -1.4006 -0.0229 -1.2233
  352MOL0     H48523   4.532   3.776   3.296 -1.9148  1.0729  0.3171
  352MOL0     H48524   4.638   3.769   3.152  3.0724 -1.8793  1.7533
  352MOL0     H48525   4.900   3.896   3.184  1.6355  1.4092  0.3803
  352MOL0     H48526   5.050   4.054   3.400  0.4339  1.1899  2.9919
  352MOL0     H48527   5.113   3.932   3.294 -0.4295 -2.0511  0.2212
  352MOL0     H48528   5.142   3.899   3.591 -1.5305  1.2443 -0.6838
  352MOL0     H48529   5.213   3.798   3.457  2.1179  1.1209 -2.5699
  352MOL0     H48530   5.367   3.962   3.388  0.6129 -0.1435  0.2303
  352MOL0     H48531   5.281   4.092   3.484 -1.7482 -1.1078  1.2198
  352MOL0     H48532   5.360   3.979   3.693  0.6886  1.5129 -0.6693
  352MOL0     H48533   5.429   3.853   3.585  3.4247  0.6267 -0.9603
  352MOL0     H48534   5.561   3.856   3.796 -0.4544  1.2870 -0.6548
  352MOL0     H48535   5.686   3.755   3.979 -1.2655  1.7502 -2.1905
  352MOL0     H48536   5.769   3.892   4.057  1.6786  0.9832 -1.8045
  352MOL0     H48537   5.862   3.758   3.972  0.5854 -1.2485 -1.7637
  352MOL0     H48538   6.365   3.997   3.764 -0.2285 -2.0771  0.4659
  352MOL0     H48539   6.558   4.028   3.890 -0.8236 -0.3751 -2.2701
  352MOL0     H48540   6.580   4.340   4.011 -3.0501  0.4143  1.8800
  352MOL0     H48541   6.646   4.361   4.175 -1.3878 -0.0306  0.4332
  352MOL0     H48542   6.839   4.384   4.070  0.7443 -1.1041  4.7299
  352MOL0     H48543   6.841   4.212   4.115 -1.6770  0.1689  1.1494
  352MOL0     H48544   6.729   4.273   3.851 -2.8361 -0.7722  2.0217
  352MOL0     H48545   6.763   4.128   3.905  1.3258 -0.9764  1.4233
  352MOL0     H48546   7.007   4.200   3.942 -1.4219  0.4773  2.0202
  352MOL0     H48547   6.985   4.342   3.854 -0.2774 -0.0325 -2.4148
  352MOL0     H48548   6.923   4.071   3.732 -0.1690  0.2429  1.3749
  352MOL0     H48549   6.916   4.230   3.650  0.1203 -0.0690 -1.3516
  352MOL0     H48550   7.161   4.119   3.780 -1.0927  0.4749  1.4259
  352MOL0     H48551   7.158   4.256   3.666 -1.4674  0.0348 -0.3938
  352MOL0     H48552   7.062   4.093   3.475  2.1786 -1.2442 -1.9556
  352MOL0     H48553   7.065   3.969   3.598  2.3899 -0.9279  3.0164
  352MOL0     H48554   7.263   3.944   3.469 -1.2363  1.5014 -1.5478
  352MOL0     H48555   7.304   4.009   3.635  2.6321  2.8887 -1.1212
  352MOL0     H48556   6.321   4.286   4.153 -2.2108  1.7982 -3.6193
  352MOL0     H48557   6.134   4.236   4.036 -1.6527  0.2598 -3.2208
  352MOL0     H48558   5.927   4.162   3.693  1.4441 -0.3338  3.8571
  352MOL0     H48559   5.727   4.157   3.559 -0.5235  1.5894  1.8323
  352MOL0     H48560   3.738   3.890   3.426  2.5224  0.7517 -1.0917
  352MOL0     H48561   3.524   3.794   3.519  0.0790 -0.2463 -0.2496
  352MOL0     H48562   3.064   3.581   3.315  2.3744 -0.4832  0.8336
  352MOL0     H48563   2.883   3.478   3.415 -0.2333  0.5391 -0.5837
  352MOL0     H48564   2.737   3.388   3.535 -0.0439 -1.3976  0.3597
  352MOL0     H48565   2.816   3.305   3.666 -1.3365 -1.7269  0.0917
  352MOL0     H48566   2.589   3.280   3.685  1.8095 -0.8795  0.9186
  352MOL0     H48567   2.561   3.461   3.683  0.6623  2.1517  3.6987
  352MOL0     H48568   2.702   3.302   3.912 -0.3689 -1.7630 -1.5465
  352MOL0     H48569   2.687   3.474   3.902 -0.2886  0.6065 -0.4624
  352MOL0     H48570   2.429   3.325   3.868 -1.4686  2.5634  0.5648
  352MOL0     H48571   2.470   3.484   3.949  2.2797  0.9113  1.3497
  352MOL0     H48572   2.508   3.166   4.234 -0.1645 -1.5001 -1.2916
  352MOL0     H48573   2.975   3.673   3.788 -2.4387  0.5867 -1.0510
  352MOL0     H48574   3.286   3.774   3.703 -0.8999 -3.1487 -0.7575
  352MOL0     H48575   3.189   3.922   3.679  0.6614  0.0373  2.1891
  352MOL0     H48576   3.151   3.814   3.807  0.3311  1.0900  0.2613
  353MOL0     O48577   3.563   0.099   2.608  0.2557  0.6216  0.3345
  353MOL0     C48578   3.521  -0.012   2.643  0.8009 -0.3229 -0.0026
  353MOL0     O48579   3.584  -0.100   2.720 -0.2503 -0.2756 -0.3178
  353MOL0     C48580   3.717  -0.083   2.754  0.5043  0.2373 -0.3250
  353MOL0     C48581   3.824  -0.025   2.673  1.1748  0.2457 -0.8745
  353MOL0     C48582   3.956  -0.009   2.719 -0.9290 -0.2292 -0.2836
  353MOL0     C48583   3.988  -0.059   2.847 -0.4606 -0.2898 -0.8686
  353MOL0     O48584   4.107  -0.058   2.916 -0.0636  0.8134  0.3160
  353MOL0     C48585   4.229  -0.019   2.853 -0.7661  0.7574 -0.0014
  353MOL0     C48586   4.339   0.010   2.953  0.2078 -0.7621 -0.0173
  353MOL0     C48587   4.392  -0.122   3.012  0.0273 -1.2237  0.0202
  353MOL0     C48588   4.537  -0.124   3.059 -0.3100 -0.2850  0.4815
  353MOL0     C48589   4.549  -0.041   3.189 -0.2814  0.3655  0.0520
  353MOL0     C48590   4.690  -0.060   3.250  0.3936  0.1471 -0.2172
  353MOL0     C48591   4.715   0.018   3.373  0.3745  0.4119 -0.5351
  353MOL0     C48592   4.750   0.166   3.350  0.8028  0.1055 -0.6551
  353MOL0     N48593   4.800   0.245   3.469 -0.7173  0.6784 -0.0447
  353MOL0     C48594   4.915   0.310   3.496 -0.0966 -0.1549  0.1799
  353MOL0     C48595   4.900   0.351   3.622  0.4180  0.4069 -1.1692
  353MOL0     C48596   4.989   0.441   3.695 -0.3580  0.2908 -0.2766
  353MOL0     C48597   5.048   0.369   3.819  0.0803 -0.0068 -1.4527
  353MOL0     C48598   5.175   0.443   3.877  0.5513 -0.4242  0.2383
  353MOL0     C48599   5.231   0.358   3.994 -0.6465 -0.1349 -0.0240
  353MOL0     O48600   5.366   0.409   4.014  0.1640  0.3957  0.2505
  353MOL0     C48601   5.400   0.526   4.079  0.2589  0.8810  0.2041
  353MOL0     C48602   5.535   0.548   4.096  0.4188 -0.8155  0.7015
  353MOL0     C48603   5.586   0.649   4.172  0.3662 -0.4863  0.1189
  353MOL0     C48604   5.737   0.663   4.191  0.3172  0.0785  0.1970
  353MOL0     C48605   5.493   0.733   4.249  0.1026 -0.2143  0.7912
  353MOL0     C48606   5.534   0.841   4.352  0.7605 -0.4575  1.0102
  353MOL0     O48607   5.664   0.843   4.388  1.3466  0.0981  0.2796
  353MOL0     C48608   5.715   0.911   4.502 -0.0702 -0.2350  0.0100
  353MOL0     C48609   5.854   0.926   4.515 -0.8868  0.5545 -0.7869
  353MOL0     C48610   5.911   0.982   4.634  0.2038 -0.0304  0.0794
  353MOL0     C48611   5.830   1.041   4.732 -0.1173  0.5403 -0.9483
  353MOL0     O48612   5.900   1.111   4.832 -0.6676 -0.1375 -0.2821
  353MOL0     C48613   5.844   1.210   4.916  0.4422  0.3791 -0.4005
  353MOL0     C48614   5.920   1.279   5.021  0.6795 -0.4025 -0.5619
  353MOL0     C48615   5.976   1.187   5.124 -0.1981  0.1471  0.6334
  353MOL0     C48616   6.095   1.255   5.188 -0.4963 -0.6594 -0.1806
  353MOL0     C48617   6.221   1.229   5.106 -0.5641 -0.3745  0.7035
  353MOL0     C48618   6.340   1.308   5.167 -0.5962 -0.1229 -0.3897
  353MOL0     C48619   6.477   1.275   5.097 -0.0564 -0.3063 -0.4785
  353MOL0     C48620   6.590   1.312   5.190 -0.1076  0.2869 -0.6154
  353MOL0    Cl48621   6.613   1.490   5.207  0.5315 -0.1177 -0.3216
  353MOL0     C48622   5.684   1.023   4.729 -0.6968 -0.2676  0.4724
  353MOL0     C48623   5.634   0.963   4.613  0.8668 -0.7717  0.4538
  353MOL0     O48624   5.451   0.927   4.375  0.1558 -0.4838 -0.1219
  353MOL0     C48625   5.356   0.722   4.223  0.6211 -0.2102  0.1038
  353MOL0     C48626   5.313   0.616   4.138 -0.1807  0.4468  0.0411
  353MOL0     N48627   4.769   0.324   3.656  0.4915 -0.0010  0.6855
  353MOL0     N48628   4.709   0.259   3.565  0.1889  0.2198  0.1835
  353MOL0     C48629   3.887  -0.115   2.931 -0.2983 -0.6690  0.0227
  353MOL0     C48630   3.762  -0.126   2.882 -0.0997  0.4857 -0.6249
  353MOL0     C48631   3.370  -0.042   2.599 -0.0974 -0.4923  0.5099
  353MOL0     C48632   3.316   0.051   2.510  1.1205 -0.2720  0.1294
  353MOL0     C48633   3.197   0.017   2.447  0.2750 -0.6131  0.1704
  353MOL0     C48634   3.113  -0.093   2.484 -0.6282 -0.8267  0.1663
  353MOL0     O48635   2.980  -0.107   2.437 -0.9265 -0.5895 -0.0124
  353MOL0     C48636   2.930  -0.017   2.336  0.1289  0.3529  0.0067
  353MOL0     C48637   2.844   0.097   2.402  0.3446  0.2185  0.3923
  353MOL0     C48638   2.773   0.059   2.540 -0.8287  0.4875  0.3633
  353MOL0     C48639   2.697   0.174   2.607  0.1084 -0.2352 -0.2189
  353MOL0     C48640   2.592   0.234   2.526 -0.2727  0.1863  0.5054
  353MOL0     C48641   2.488   0.254   2.462 -0.9667 -0.1919 -0.0350
  353MOL0     C48642   3.168  -0.175   2.583 -0.7257 -0.1810  0.3186
  353MOL0     C48643   3.295  -0.161   2.629 -0.1540 -0.2897 -0.0383
  353MOL0     C48644   3.345  -0.264   2.715 -0.3253  0.4725  0.4738
  353MOL0     H48645   3.801   0.026   2.580 -0.8785  2.2328  0.6027
  353MOL0     H48646   4.020   0.044   2.649  0.2957 -1.1272  0.1223
  353MOL0     H48647   4.215   0.070   2.791 -1.7768  1.7587  1.5903
  353MOL0     H48648   4.252  -0.097   2.780  0.4886  0.7226  0.3943
  353MOL0     H48649   4.412   0.074   2.903 -2.2463  2.3461  0.0326
  353MOL0     H48650   4.309   0.072   3.037  2.1168  0.5242 -0.2185
  353MOL0     H48651   4.323  -0.153   3.091 -2.0339  2.2564 -0.1898
  353MOL0     H48652   4.392  -0.192   2.928  1.4648 -0.5805 -0.5429
  353MOL0     H48653   4.561  -0.230   3.074 -0.3192  0.0730  3.5411
  353MOL0     H48654   4.601  -0.078   2.983  1.6412 -0.9863  1.6160
  353MOL0     H48655   4.468  -0.055   3.261 -0.3100 -1.2614 -0.2575
  353MOL0     H48656   4.547   0.062   3.152 -1.0537  0.4030  0.1828
  353MOL0     H48657   4.710  -0.166   3.271  2.5911  0.6395  0.5054
  353MOL0     H48658   4.777  -0.046   3.184  1.0443 -2.2178  0.0112
  353MOL0     H48659   4.801  -0.029   3.422 -0.5314 -0.3139  0.4232
  353MOL0     H48660   4.631   0.019   3.443  1.2687  1.5213  0.5622
  353MOL0     H48661   4.800   0.193   3.257  1.4064  4.7847  0.7701
  353MOL0     H48662   4.653   0.215   3.337  0.3872 -0.4382  0.2177
  353MOL0     H48663   5.001   0.334   3.434  1.3263 -0.3100  2.0083
  353MOL0     H48664   4.947   0.535   3.734  2.0073  1.6670 -0.8869
  353MOL0     H48665   5.067   0.466   3.623 -2.6071  0.6656 -2.7257
  353MOL0     H48666   4.968   0.367   3.893  0.2859  4.7063 -0.7796
  353MOL0     H48667   5.089   0.274   3.782  1.8772  0.8448 -1.7753
  353MOL0     H48668   5.247   0.464   3.798  0.3386 -0.8354 -0.0685
  353MOL0     H48669   5.150   0.542   3.917 -1.3213 -0.2008 -1.3439
  353MOL0     H48670   5.182   0.356   4.091  0.3067  0.6206  0.4805
  353MOL0     H48671   5.246   0.253   3.964  0.6776 -0.2963  1.1138
  353MOL0     H48672   5.607   0.485   4.045  0.1648  0.5980 -1.5883
  353MOL0     H48673   5.781   0.763   4.185  1.5289 -0.4932 -4.9539
  353MOL0     H48674   5.774   0.614   4.101  1.7520 -1.2437  1.4431
  353MOL0     H48675   5.775   0.607   4.277  0.7578 -2.0742 -1.3115
  353MOL0     H48676   5.909   0.892   4.428  0.5155  0.1187  0.2380
  353MOL0     H48677   6.019   0.987   4.645  0.4328  0.7542 -2.0585
  353MOL0     H48678   5.795   1.282   4.850 -0.7180 -1.2051 -1.3233
  353MOL0     H48679   5.760   1.166   4.970  1.1557  0.7014  1.0214
  353MOL0     H48680   6.006   1.335   4.984 -0.3497  1.4275 -0.2955
  353MOL0     H48681   5.854   1.358   5.058  1.0354  0.1366 -1.0545
  353MOL0     H48682   6.005   1.092   5.078  1.6239  0.4569  1.0957
  353MOL0     H48683   5.893   1.169   5.193 -1.9304  0.9529 -1.1398
  353MOL0     H48684   6.106   1.227   5.293 -0.7921 -0.0306  0.0289
  353MOL0     H48685   6.091   1.364   5.200  1.1915 -0.6477  0.4885
  353MOL0     H48686   6.246   1.123   5.102 -4.1836 -1.3676 -3.4526
  353MOL0     H48687   6.207   1.266   5.004  1.1077 -1.5252  0.0163
  353MOL0     H48688   6.346   1.298   5.276  4.1860  1.3768 -0.2901
  353MOL0     H48689   6.316   1.413   5.147 -0.6779 -0.3405 -1.4790
  353MOL0     H48690   6.480   1.338   5.008  0.2470  0.2808 -0.0578
  353MOL0     H48691   6.480   1.169   5.069  1.6111 -0.3286 -0.2782
  353MOL0     H48692   6.688   1.274   5.159  0.2364  0.3270  0.3818
  353MOL0     H48693   6.580   1.260   5.286  2.7032 -1.3216 -1.0727
  353MOL0     H48694   5.631   1.068   4.813  2.1782  0.3942  2.0698
  353MOL0     H48695   5.526   0.969   4.601  0.6956 -1.1233  1.6640
  353MOL0     H48696   5.271   0.773   4.265 -0.2585 -0.8914 -0.7951
  353MOL0     H48697   5.206   0.598   4.132 -0.0319 -0.4693 -0.0037
  353MOL0     H48698   3.902  -0.155   3.031  1.5436 -0.2231 -0.0459
  353MOL0     H48699   3.691  -0.179   2.944 -0.0620 -1.2807 -2.0358
  353MOL0     H48700   3.363   0.145   2.484 -0.7885  0.5650 -0.4752
  353MOL0     H48701   3.148   0.094   2.389 -1.2306 -2.6241 -1.3681
  353MOL0     H48702   2.999   0.014   2.258  0.3809 -2.6586 -1.1122
  353MOL0     H48703   2.862  -0.077   2.274 -1.6415  2.5254 -0.2947
  353MOL0     H48704   2.773   0.127   2.325 -1.1427  3.4550  2.8033
  353MOL0     H48705   2.904   0.188   2.407  2.7783 -0.9959 -3.2326
  353MOL0     H48706   2.709  -0.029   2.535  0.5786 -0.5134 -1.2151
  353MOL0     H48707   2.849   0.033   2.614 -1.5486  0.0632  0.9549
  353MOL0     H48708   2.771   0.246   2.643  0.8193 -1.5559  1.0232
  353MOL0     H48709   2.650   0.140   2.699  0.1821  0.6645  0.1688
  353MOL0     H48710   2.396   0.267   2.408  0.3891  0.5576 -2.3275
  353MOL0     H48711   3.096  -0.254   2.603 -3.0822  1.4111 -1.3001
  353MOL0     H48712   3.433  -0.308   2.668 -1.5866 -2.6293  0.8113
  353MOL0     H48713   3.369  -0.217   2.811  1.4694  0.6701 -0.0299
  353MOL0     H48714   3.270  -0.343   2.718 -2.3599  1.9336 -3.5392
  354MOL0     O48715   5.615   1.704  10.378 -0.3501 -0.5240  0.8120
  354MOL0     C48716   5.596   1.616  10.292 -1.0888 -0.4333 -0.1938
  354MOL0     O48717   5.484   1.557  10.262  0.1576  0.4851 -0.1263
  354MOL0     C48718   5.364   1.608  10.307 -0.0569 -0.1526  0.0529
  354MOL0     C48719   5.271   1.513  10.347 -0.4564  0.0658 -0.2492
  354MOL0     C48720   5.140   1.549  10.391  0.1000  0.4387  0.7971
  354MOL0     C48721   5.096   1.678  10.395  0.0020  0.3456 -0.1221
  354MOL0     O48722   4.965   1.715  10.424 -0.3263  0.0548 -0.3400
  354MOL0     C48723   4.929   1.859  10.434 -0.3262 -0.0163 -0.3167
  354MOL0     C48724   4.984   1.895  10.576  0.2171 -0.2420 -0.1028
  354MOL0     C48725   4.993   2.048  10.574 -0.3735 -0.5313 -0.8952
  354MOL0     C48726   5.013   2.102  10.718 -0.0294  0.4152 -0.7663
  354MOL0     C48727   5.047   2.249  10.731 -0.0248 -0.6690  0.5656
  354MOL0     C48728   4.917   2.328  10.721 -0.4684 -0.1285  0.1403
  354MOL0     C48729   4.954   2.481  10.703  0.1731 -0.2857 -0.4615
  354MOL0     C48730   4.809   2.550  10.690  0.2057  0.1017 -1.2918
  354MOL0     N48731   4.831   2.691  10.664  0.0055 -0.0067 -0.5011
  354MOL0     C48732   4.938   2.748  10.594  0.3732  0.3055  0.2237
  354MOL0     C48733   4.931   2.880  10.615 -0.4459 -0.2271  0.5543
  354MOL0     C48734   5.023   2.994  10.589 -0.8044  0.3222  0.1864
  354MOL0     C48735   5.150   2.937  10.513 -0.1403 -0.0546 -0.0211
  354MOL0     C48736   5.261   3.043  10.498  0.4424  0.0286  0.5902
  354MOL0     C48737   5.390   2.974  10.461  0.0776  0.3271  0.4284
  354MOL0     O48738   5.369   2.871  10.363  0.7425 -0.3879  0.1219
  354MOL0     C48739   5.485   2.812  10.324 -0.3979 -0.0956  0.5606
  354MOL0     C48740   5.476   2.704  10.238  0.5398  0.1871 -0.5535
  354MOL0     C48741   5.587   2.626  10.196  0.4125  0.2964  0.1480
  354MOL0     C48742   5.550   2.512  10.101 -0.3596  0.2582 -0.6801
  354MOL0     C48743   5.716   2.640  10.241  0.3364 -0.0609  0.2160
  354MOL0     C48744   5.831   2.549  10.208  0.2500 -0.0388  0.0740
  354MOL0     O48745   5.946   2.609  10.174 -0.3009 -0.0236  0.1456
  354MOL0     C48746   6.046   2.531  10.134 -0.1400  0.2002  0.0088
  354MOL0     C48747   6.141   2.469  10.224 -0.6899 -0.4017 -0.1260
  354MOL0     C48748   6.245   2.391  10.177 -0.0486 -0.7964 -0.1360
  354MOL0     C48749   6.262   2.376  10.039  0.3554 -0.1955 -0.5901
  354MOL0     O48750   6.362   2.300   9.980  0.1536 -0.4479 -0.2131
  354MOL0     C48751   6.477   2.273  10.059 -0.2053  0.8306  0.0695
  354MOL0     C48752   6.573   2.199   9.972  0.2251 -0.3484  0.9538
  354MOL0     C48753   6.512   2.062   9.939 -0.8586  0.5395  0.8896
  354MOL0     C48754   6.575   2.004   9.806 -0.2758 -0.9028 -0.3387
  354MOL0     C48755   6.551   1.850   9.803  0.2412 -0.6400  0.3431
  354MOL0     C48756   6.595   1.777   9.672 -0.8060  0.3640 -0.8306
  354MOL0     C48757   6.517   1.638   9.656 -0.7856 -0.4992  0.4166
  354MOL0     C48758   6.558   1.567   9.530  0.5293  0.7760 -0.0050
  354MOL0    Cl48759   6.476   1.402   9.530  0.1608 -0.0547 -0.1595
  354MOL0     C48760   6.176   2.442   9.953  0.4828 -0.1335  0.0435
  354MOL0     C48761   6.076   2.519   9.999 -0.4366 -0.5107  1.3936
  354MOL0     O48762   5.820   2.430  10.243 -0.0255 -0.3350  0.4227
  354MOL0     C48763   5.731   2.747  10.332  0.1337 -0.1997  0.2231
  354MOL0     C48764   5.621   2.829  10.368  0.5744  0.2202 -0.6098
  354MOL0     N48765   4.807   2.903  10.660 -0.4181 -0.4772  0.5269
  354MOL0     N48766   4.744   2.793  10.690  0.3247 -0.4009 -0.0552
  354MOL0     C48767   5.188   1.777  10.363  0.6699  0.2736  0.5492
  354MOL0     C48768   5.321   1.746  10.317  0.6662 -1.4828  0.1621
  354MOL0     C48769   5.714   1.554  10.231  1.2148  0.1681  0.5205
  354MOL0     C48770   5.706   1.412  10.202  0.2274 -0.0784  0.2210
  354MOL0     C48771   5.812   1.336  10.157  0.6302 -0.1381 -0.2924
  354MOL0     C48772   5.935   1.399  10.137 -0.5590  0.1032  0.6682
  354MOL0     O48773   6.044   1.330  10.084  0.2866 -0.0771  0.2792
  354MOL0     C48774   6.022   1.224   9.986 -0.0234 -0.1322 -0.3007
  354MOL0     C48775   6.160   1.184   9.917  0.1383  0.3924  0.8406
  354MOL0     C48776   6.142   1.069   9.810  0.1113 -0.1075  0.5130
  354MOL0     C48777   6.277   1.001   9.788  0.4502 -0.4607  0.5062
  354MOL0     C48778   6.259   0.873   9.730 -0.1656 -0.4464  0.0313
  354MOL0     C48779   6.243   0.762   9.684 -0.1990  0.9999  0.0930
  354MOL0     C48780   5.953   1.535  10.165 -0.5105 -0.9019 -0.5223
  354MOL0     C48781   5.842   1.615  10.205 -0.6266 -0.7992 -0.2006
  354MOL0     C48782   5.863   1.755  10.247  0.8551  0.7476 -0.4947
  354MOL0     H48783   5.300   1.409  10.340  0.4409  0.3438 -0.8037
  354MOL0     H48784   5.077   1.466  10.422 -0.2210  0.5045  0.3392
  354MOL0     H48785   4.821   1.873  10.432 -0.5079 -1.3304 -0.9897
  354MOL0     H48786   4.967   1.915  10.348 -1.2928 -1.8155 -1.9934
  354MOL0     H48787   4.926   1.858  10.661  0.9504  2.0047  1.4835
  354MOL0     H48788   5.083   1.858  10.601  0.3951  1.4051  1.8779
  354MOL0     H48789   5.075   2.080  10.508  2.9610 -2.4669  1.9303
  354MOL0     H48790   4.904   2.103  10.542  0.2789  2.4185  1.8382
  354MOL0     H48791   4.928   2.086  10.785  1.6270 -0.8643  1.1316
  354MOL0     H48792   5.096   2.049  10.764 -0.1117  0.0674 -1.0113
  354MOL0     H48793   5.120   2.275  10.654 -0.1326 -0.6996  0.4518
  354MOL0     H48794   5.088   2.261  10.832  1.2217 -3.1297  0.4379
  354MOL0     H48795   4.866   2.301  10.628  0.6371  0.7155 -0.7234
  354MOL0     H48796   4.856   2.321  10.812 -0.9892  0.2213 -0.1743
  354MOL0     H48797   5.032   2.499  10.629  0.9075  0.8619  0.5429
  354MOL0     H48798   4.992   2.528  10.795  0.8053  1.5461 -1.6042
  354MOL0     H48799   4.737   2.499  10.625 -0.9330  0.1582 -0.1102
  354MOL0     H48800   4.759   2.552  10.787 -1.1547  1.3298 -1.9854
  354MOL0     H48801   5.023   2.701  10.544  1.1939  0.4456  1.4306
  354MOL0     H48802   5.052   3.041  10.683  1.2696 -3.6350  1.7303
  354MOL0     H48803   4.979   3.070  10.523 -1.0756 -1.3339 -1.6225
  354MOL0     H48804   5.185   2.862  10.585  2.0842  0.5890 -0.3465
  354MOL0     H48805   5.110   2.890  10.422 -3.0251 -3.4737  2.7184
  354MOL0     H48806   5.225   3.095  10.408  2.7716 -2.0991 -1.7432
  354MOL0     H48807   5.271   3.106  10.587 -0.0225  1.3553 -0.2670
  354MOL0     H48808   5.455   3.050  10.416 -1.1257 -0.0338 -2.1311
  354MOL0     H48809   5.432   2.936  10.554 -1.8480 -1.7437  0.5442
  354MOL0     H48810   5.376   2.661  10.231 -0.0569  1.6760 -1.6476
  354MOL0     H48811   5.460   2.543  10.047  0.3123  2.0546 -0.8504
  354MOL0     H48812   5.550   2.418  10.156 -1.2225 -0.3587 -1.6895
  354MOL0     H48813   5.633   2.507  10.029  0.8790 -0.6994  0.7432
  354MOL0     H48814   6.117   2.482  10.329  4.2016 -0.5108  1.2654
  354MOL0     H48815   6.307   2.347  10.254  2.5904  2.0457 -0.4323
  354MOL0     H48816   6.528   2.358  10.105 -1.9358  1.3461  1.1384
  354MOL0     H48817   6.434   2.209  10.137 -1.7096  2.5813  0.7566
  354MOL0     H48818   6.587   2.262   9.884 -0.6151  1.5620  2.1116
  354MOL0     H48819   6.669   2.187  10.021 -0.2025 -0.9756  1.6692
  354MOL0     H48820   6.403   2.067   9.938 -1.1654 -3.0321 -1.3161
  354MOL0     H48821   6.545   2.000  10.023 -1.4180 -2.1925 -0.7814
  354MOL0     H48822   6.683   2.019   9.815  0.1292 -3.7389  0.5931
  354MOL0     H48823   6.527   2.044   9.716 -0.4451 -1.3629 -0.4562
  354MOL0     H48824   6.597   1.806   9.891 -0.3904  0.6725  1.3609
  354MOL0     H48825   6.445   1.828   9.816  0.8477 -4.4304 -0.1513
  354MOL0     H48826   6.701   1.751   9.670 -0.9685 -0.2930 -1.3403
  354MOL0     H48827   6.578   1.834   9.580  0.9734 -0.3418 -1.6532
  354MOL0     H48828   6.410   1.658   9.654 -0.3536  2.8197  2.3127
  354MOL0     H48829   6.540   1.575   9.743 -2.4164 -0.5936  0.8107
  354MOL0     H48830   6.667   1.559   9.529  0.4744 -2.5128  2.6965
  354MOL0     H48831   6.517   1.629   9.449 -1.3348  1.1144  1.1321
  354MOL0     H48832   6.188   2.429   9.846  1.2155 -2.8150  0.3960
  354MOL0     H48833   6.019   2.566   9.919  1.2534 -0.6325  0.0632
  354MOL0     H48834   5.833   2.770  10.363  0.0139  3.0411 -1.2920
  354MOL0     H48835   5.634   2.917  10.431  4.2105 -1.3528  1.1199
  354MOL0     H48836   5.160   1.882  10.360 -3.3749 -0.6387 -0.8435
  354MOL0     H48837   5.389   1.825  10.290 -2.7703  1.5108 -0.4880
  354MOL0     H48838   5.611   1.360  10.202  0.1834 -0.2957 -3.4575
  354MOL0     H48839   5.791   1.233  10.128  0.2998 -0.9927  2.6294
  354MOL0     H48840   5.984   1.137  10.042  2.1784 -0.0672  1.4235
  354MOL0     H48841   5.942   1.250   9.916 -1.4508 -1.1326  0.8879
  354MOL0     H48842   6.240   1.158   9.986  0.7554 -0.0373 -0.0259
  354MOL0     H48843   6.189   1.274   9.861 -2.5423 -0.6620 -2.6194
  354MOL0     H48844   6.064   1.005   9.851 -3.4576  2.2964 -1.8983
  354MOL0     H48845   6.097   1.097   9.715  0.1572 -2.4989 -0.2654
  354MOL0     H48846   6.318   0.985   9.888 -1.6468  0.5696  1.6045
  354MOL0     H48847   6.340   1.067   9.728  1.4021  0.4149  2.3850
  354MOL0     H48848   6.219   0.667   9.640  0.0705  0.7995  0.3674
  354MOL0     H48849   6.052   1.578  10.155 -2.0177  2.5726 -1.7792
  354MOL0     H48850   5.858   1.775  10.355  2.9633  0.4260 -0.3002
  354MOL0     H48851   5.961   1.797  10.222  0.4638  0.9178 -1.7850
  354MOL0     H48852   5.784   1.815  10.203 -1.2323 -1.0671  0.5523
  355MOL0     O48853  10.094   0.248   0.762 -0.1433 -0.1102 -0.4433
  355MOL0     C48854  10.004   0.171   0.731 -0.7488  0.0852 -0.1926
  355MOL0     O48855  10.003   0.099   0.616  0.2045  0.0109  0.8356
  355MOL0     C48856  10.070   0.115   0.499 -0.2256  0.1738 -0.7928
  355MOL0     C48857  10.148   0.226   0.462  0.2156  0.8622 -0.4103
  355MOL0     C48858  10.218   0.227   0.340  0.8279 -0.2645  0.2459
  355MOL0     C48859  10.192   0.127   0.248  0.3144  0.3072  0.4329
  355MOL0     O48860  10.252   0.105   0.122  0.8159 -0.5361 -0.5338
  355MOL0     C48861  10.374   0.166   0.102  0.2067  0.8684  0.6798
  355MOL0     C48862  10.439   0.096  -0.024  0.4227  0.2517  1.0474
  355MOL0     C48863  10.588   0.061   0.018 -0.6042 -0.3046  0.7007
  355MOL0     C48864  10.652  -0.029  -0.092  0.2202 -0.2551 -0.3271
  355MOL0     C48865  10.783  -0.082  -0.033  0.0041  0.8736 -0.2376
  355MOL0     C48866  10.842  -0.150  -0.155  0.4215 -0.4720 -0.2017
  355MOL0     C48867  10.993  -0.186  -0.131 -0.5043  0.2343  0.1636
  355MOL0     C48868  11.076  -0.066  -0.154 -0.6152 -0.9045  0.1043
  355MOL0     N48869  11.092  -0.030  -0.294  0.0649  0.2299  0.0982
  355MOL0     C48870  11.171  -0.096  -0.387 -1.1222 -0.4478 -0.0893
  355MOL0     C48871  11.154  -0.026  -0.503  1.0365 -0.1647  0.2116
  355MOL0     C48872  11.208  -0.067  -0.641 -0.5871  0.3053 -0.3692
  355MOL0     C48873  11.350  -0.024  -0.666 -0.6095  0.2533 -0.3284
  355MOL0     C48874  11.442  -0.131  -0.605 -0.8316 -0.1467  0.4060
  355MOL0     C48875  11.591  -0.130  -0.650 -0.1547  0.2192  0.9763
  355MOL0     O48876  11.654  -0.024  -0.580  0.0957  0.3081 -0.0501
  355MOL0     C48877  11.787  -0.040  -0.543 -0.3872  0.2784 -0.2981
  355MOL0     C48878  11.875  -0.129  -0.596  0.2508  0.8756  0.1596
  355MOL0     C48879  12.017  -0.134  -0.560  0.6967  0.5700 -0.2190
  355MOL0     C48880  12.121  -0.227  -0.631 -0.2223 -0.6864 -0.0802
  355MOL0     C48881  12.061  -0.053  -0.452  0.7017  0.6944  0.9640
  355MOL0     C48882  12.195  -0.041  -0.385 -0.2365 -0.1758  0.6588
  355MOL0     O48883  12.282  -0.152  -0.391 -0.1906 -0.2598 -0.8290
  355MOL0     C48884  12.408  -0.155  -0.337 -0.5889 -0.6246 -0.2720
  355MOL0     C48885  12.488  -0.047  -0.302 -0.1710 -0.0017 -0.7908
  355MOL0     C48886  12.614  -0.060  -0.244  0.4564  0.2856 -0.1886
  355MOL0     C48887  12.674  -0.191  -0.244 -0.8953 -0.0215 -0.6116
  355MOL0     O48888  12.807  -0.202  -0.216  0.2513 -0.2706 -0.4322
  355MOL0     C48889  12.871  -0.327  -0.244  0.8475 -0.1132 -0.9725
  355MOL0     C48890  13.020  -0.319  -0.263  0.0949 -0.9217 -0.3346
  355MOL0     C48891  13.089  -0.258  -0.133 -0.1771  0.0108 -0.1495
  355MOL0     C48892  13.164  -0.124  -0.160 -0.1740  0.5402  0.1032
  355MOL0     C48893  13.071  -0.009  -0.204 -0.5396 -0.2282  0.9103
  355MOL0     C48894  13.141   0.124  -0.216 -0.2970  1.2192 -0.9382
  355MOL0     C48895  13.068   0.231  -0.291  0.2701 -0.4004 -0.3980
  355MOL0     C48896  13.144   0.358  -0.315 -0.1746 -0.9498  0.2172
  355MOL0    Cl48897  13.270   0.319  -0.429 -0.2655  0.2636 -0.3858
  355MOL0     C48898  12.599  -0.304  -0.285  0.4766  0.5140  0.1200
  355MOL0     C48899  12.471  -0.278  -0.320  0.3102 -0.2628  1.0293
  355MOL0     O48900  12.215   0.059  -0.313 -1.1147  0.5747 -0.1139
  355MOL0     C48901  11.960   0.035  -0.403 -0.6596 -0.5216 -0.8465
  355MOL0     C48902  11.830   0.046  -0.440 -0.2779  0.6685  0.0471
  355MOL0     N48903  11.070   0.081  -0.479 -0.1305  0.0083 -0.1223
  355MOL0     N48904  11.029   0.075  -0.355  0.2412 -0.8094  0.3159
  355MOL0     C48905  10.105   0.026   0.273 -0.5229  0.5965  0.1276
  355MOL0     C48906  10.055   0.014   0.409 -0.8486  1.2255 -0.4977
  355MOL0     C48907   9.883   0.160   0.823 -0.2455  0.0334 -0.1410
  355MOL0     C48908   9.812   0.036   0.818  0.1437  0.8905  0.6740
  355MOL0     C48909   9.697   0.017   0.897 -0.2104  0.4034  0.5046
  355MOL0     C48910   9.645   0.119   0.973  0.1897 -0.1672  0.5062
  355MOL0     O48911   9.528   0.096   1.035  0.0642 -0.2086  0.1186
  355MOL0     C48912   9.409   0.169   0.985 -0.2058 -0.2760 -0.2215
  355MOL0     C48913   9.287   0.095   1.039 -0.2224  0.3558 -0.0020
  355MOL0     C48914   9.162   0.183   0.995 -0.2047  0.1289 -0.6030
  355MOL0     C48915   9.031   0.118   1.054  0.1653 -0.6884 -0.6457
  355MOL0     C48916   8.914   0.201   1.011 -0.4870  0.3390  0.1091
  355MOL0     C48917   8.815   0.263   0.987 -0.2396  0.0709 -0.6908
  355MOL0     C48918   9.706   0.242   0.980  0.7938  1.1732 -0.4395
  355MOL0     C48919   9.834   0.262   0.911 -0.5095 -0.3981 -0.7688
  355MOL0     C48920   9.912   0.389   0.930  0.0681 -0.1306 -0.0670
  355MOL0     H48921  10.156   0.303   0.538 -1.3218 -3.1823  4.3613
  355MOL0     H48922  10.281   0.312   0.314 -0.1987 -0.3975 -3.0748
  355MOL0     H48923  10.431   0.138   0.191  1.1617 -1.2936 -0.5566
  355MOL0     H48924  10.365   0.275   0.099  0.9358  0.9160 -0.6922
  355MOL0     H48925  10.375   0.016  -0.062  2.0483  0.1775 -1.8175
  355MOL0     H48926  10.439   0.164  -0.110 -1.0894  0.6211  1.3019
  355MOL0     H48927  10.648   0.152   0.032 -0.0465 -0.6905  0.8236
  355MOL0     H48928  10.601   0.020   0.118 -1.4839 -0.8271  0.6120
  355MOL0     H48929  10.581  -0.111  -0.103 -1.2321  0.8298  0.6397
  355MOL0     H48930  10.661   0.025  -0.187 -1.4502  0.7025  0.0280
  355MOL0     H48931  10.761  -0.158   0.043 -1.1851 -0.6410 -2.0173
  355MOL0     H48932  10.855  -0.008   0.005  0.0807  1.8027 -2.1081
  355MOL0     H48933  10.781  -0.235  -0.187 -0.0272 -0.4937  0.6799
  355MOL0     H48934  10.840  -0.078  -0.237 -2.8216  2.2773  2.0253
  355MOL0     H48935  11.005  -0.276  -0.193  0.5023 -0.0030  0.6735
  355MOL0     H48936  11.013  -0.224  -0.030 -2.4894 -2.8148 -0.4378
  355MOL0     H48937  11.045   0.022  -0.096  1.9542 -0.1369  0.4312
  355MOL0     H48938  11.172  -0.103  -0.117 -0.9907 -2.8387 -0.7333
  355MOL0     H48939  11.239  -0.180  -0.374  0.0775  0.8282  2.4761
  355MOL0     H48940  11.150  -0.010  -0.714 -0.4779 -0.4630 -1.0670
  355MOL0     H48941  11.180  -0.171  -0.662  2.2076 -0.4099 -0.8631
  355MOL0     H48942  11.379  -0.014  -0.771  0.3567 -3.0454 -0.4886
  355MOL0     H48943  11.361   0.072  -0.614 -2.4127  0.0675  0.4647
  355MOL0     H48944  11.435  -0.136  -0.496 -2.3992 -2.8844  0.2935
  355MOL0     H48945  11.404  -0.225  -0.646  1.1612  0.5402 -3.4895
  355MOL0     H48946  11.630  -0.227  -0.621  1.4722  0.5181 -0.0557
  355MOL0     H48947  11.603  -0.138  -0.759  0.5783 -2.6522  1.1895
  355MOL0     H48948  11.839  -0.187  -0.681 -2.7837  0.3211  1.6889
  355MOL0     H48949  12.148  -0.317  -0.575 -1.7188 -1.4818 -0.5911
  355MOL0     H48950  12.213  -0.170  -0.649  0.3783 -1.9511 -1.1573
  355MOL0     H48951  12.081  -0.259  -0.727  2.7111 -2.4078 -0.8433
  355MOL0     H48952  12.452   0.056  -0.294  0.8292  0.3278 -0.4067
  355MOL0     H48953  12.670   0.020  -0.196 -0.8092  0.7811  0.5078
  355MOL0     H48954  12.844  -0.395  -0.163  0.0879  2.6170  1.2568
  355MOL0     H48955  12.837  -0.366  -0.340  1.3823 -0.2233 -1.1224
  355MOL0     H48956  13.069  -0.414  -0.285  1.3106 -0.4854  0.4212
  355MOL0     H48957  13.036  -0.249  -0.345  1.3790 -2.7572 -1.7370
  355MOL0     H48958  13.157  -0.333  -0.093 -0.6664 -1.1362 -1.3866
  355MOL0     H48959  13.015  -0.235  -0.056  0.1845  1.7893 -0.2718
  355MOL0     H48960  13.239  -0.133  -0.239 -0.9560  3.2852 -1.0650
  355MOL0     H48961  13.215  -0.101  -0.066 -0.4636 -1.8993  0.9350
  355MOL0     H48962  13.032  -0.035  -0.303  1.4600 -1.0905  0.3070
  355MOL0     H48963  12.988  -0.001  -0.134 -0.8264  0.8027  0.4743
  355MOL0     H48964  13.237   0.106  -0.267  1.0514 -1.3016  2.1600
  355MOL0     H48965  13.168   0.163  -0.118  0.9445 -0.0516 -0.7471
  355MOL0     H48966  12.980   0.249  -0.228  0.8786 -0.2715  0.4289
  355MOL0     H48967  13.034   0.194  -0.388 -2.9638 -0.7577  0.7626
  355MOL0     H48968  13.187   0.396  -0.222 -4.5394  2.4474  1.2063
  355MOL0     H48969  13.075   0.430  -0.359 -2.5695 -2.1146  1.8175
  355MOL0     H48970  12.631  -0.407  -0.280 -2.9724 -0.6327  2.1718
  355MOL0     H48971  12.415  -0.365  -0.351 -0.2735  0.7180 -0.8684
  355MOL0     H48972  11.984   0.098  -0.317 -0.0731 -0.2521 -1.2026
  355MOL0     H48973  11.771   0.123  -0.393 -1.1122  1.3332 -1.9804
  355MOL0     H48974  10.081  -0.045   0.194  1.2426 -2.1403  1.8474
  355MOL0     H48975   9.972  -0.053   0.429  0.9258 -1.1260 -0.5873
  355MOL0     H48976   9.848  -0.048   0.761 -0.9063 -0.7947  2.3752
  355MOL0     H48977   9.652  -0.081   0.894  4.9239 -2.2811 -1.8946
  355MOL0     H48978   9.412   0.272   1.022 -2.8503 -0.2980  0.2677
  355MOL0     H48979   9.410   0.162   0.876 -2.7105 -1.6168 -0.2425
  355MOL0     H48980   9.288   0.069   1.145 -0.7639  0.7759  0.1097
  355MOL0     H48981   9.292  -0.001   0.986  0.9745  1.0514 -1.2135
  355MOL0     H48982   9.176   0.285   1.034  1.7722 -0.4690  0.4110
  355MOL0     H48983   9.169   0.193   0.886  2.5232  0.7668 -0.4390
  355MOL0     H48984   9.034   0.113   1.163 -1.9466 -1.4173 -0.5814
  355MOL0     H48985   9.030   0.018   1.010 -0.5302 -1.0668  0.2015
  355MOL0     H48986   8.722   0.316   0.981 -1.5544 -1.9245  0.5674
  355MOL0     H48987   9.659   0.309   1.051 -2.7421  0.2248 -1.6958
  355MOL0     H48988   9.924   0.448   0.839 -0.4665 -0.2576 -0.2228
  355MOL0     H48989   9.842   0.457   0.981 -0.1958 -0.9952  0.7528
  355MOL0     H48990  10.002   0.361   0.985 -1.1528 -1.9521  1.1380
  356MOL0     O48991   8.842   9.272   5.805  0.0557  0.0669  0.5518
  356MOL0     C48992   8.795   9.318   5.702 -0.3343  0.8675  0.3648
  356MOL0     O48993   8.820   9.268   5.576 -0.9298  0.0389  0.2508
  356MOL0     C48994   8.925   9.185   5.561 -0.6571 -0.8495 -0.1134
  356MOL0     C48995   8.900   9.048   5.598 -0.1544  0.5757 -0.2054
  356MOL0     C48996   9.010   8.959   5.594 -0.8631  0.2140 -0.7119
  356MOL0     C48997   9.134   8.995   5.548 -0.3984  0.7472 -1.1105
  356MOL0     O48998   9.223   8.897   5.507 -0.9727 -0.1056 -0.2480
  356MOL0     C48999   9.365   8.922   5.469 -0.2637  0.5049  0.2535
  356MOL0     C49000   9.455   8.791   5.458 -0.0573 -0.4846 -0.2279
  356MOL0     C49001   9.611   8.807   5.467 -0.3264 -0.2756  0.2026
  356MOL0     C49002   9.681   8.676   5.501 -0.1914  1.0708  0.7057
  356MOL0     C49003   9.834   8.704   5.500  0.4139 -0.1256  0.2369
  356MOL0     C49004   9.887   8.772   5.618 -0.5286 -0.7325 -0.3903
  356MOL0     C49005  10.038   8.747   5.623  0.0661 -0.1797  0.3075
  356MOL0     C49006  10.095   8.830   5.746  0.1302  0.2557 -0.0004
  356MOL0     N49007  10.242   8.820   5.768  0.4632 -0.0445  0.2905
  356MOL0     C49008  10.324   8.706   5.760 -0.2434  0.1514  0.7910
  356MOL0     C49009  10.452   8.747   5.781  0.6443  0.0413 -0.6828
  356MOL0     C49010  10.568   8.655   5.797  0.2721 -0.3454 -0.7203
  356MOL0     C49011  10.699   8.726   5.831 -0.4733 -0.5287 -0.3793
  356MOL0     C49012  10.797   8.638   5.912  0.1953 -0.3094 -1.0072
  356MOL0     C49013  10.764   8.635   6.067  0.5373  1.0052 -0.2211
  356MOL0     O49014  10.766   8.764   6.126  0.0686  0.1377 -0.2959
  356MOL0     C49015  10.883   8.814   6.169 -0.0115  0.5787 -0.4291
  356MOL0     C49016  10.890   8.936   6.238  0.7922  0.5048  0.5957
  356MOL0     C49017  11.011   9.004   6.261  0.1339 -0.9302  0.0003
  356MOL0     C49018  11.000   9.152   6.316  0.1055  0.0112  0.6631
  356MOL0     C49019  11.136   8.940   6.239  0.5724 -0.6779 -0.2390
  356MOL0     C49020  11.268   9.000   6.252  0.0764 -0.4696  0.1299
  356MOL0     O49021  11.375   8.925   6.223  0.1192  0.1276 -0.2392
  356MOL0     C49022  11.501   8.974   6.192 -0.3046 -1.0248  0.5077
  356MOL0     C49023  11.532   9.109   6.145 -0.1104 -0.3281 -1.0068
  356MOL0     C49024  11.665   9.139   6.123 -0.1815 -0.0821  0.3675
  356MOL0     C49025  11.769   9.044   6.115 -0.1842  0.4537  0.3444
  356MOL0     O49026  11.899   9.076   6.073 -0.0844  0.1037 -0.3120
  356MOL0     C49027  11.963   8.989   5.990 -1.0391  0.7504 -0.2386
  356MOL0     C49028  11.908   8.981   5.849 -0.5691 -0.2731  0.2729
  356MOL0     C49029  11.899   9.118   5.789 -0.4753 -0.5982  0.0995
  356MOL0     C49030  11.863   9.103   5.640 -1.0630 -0.3286  0.5123
  356MOL0     C49031  11.722   9.053   5.601  0.4673  0.1009  0.0819
  356MOL0     C49032  11.701   9.073   5.448  0.2011  0.2973  0.1148
  356MOL0     C49033  11.559   9.019   5.404 -1.1244 -0.0017 -0.0143
  356MOL0     C49034  11.550   9.025   5.252 -0.8458  0.4476 -0.1464
  356MOL0    Cl49035  11.616   9.177   5.185 -0.2487  0.1848 -0.0406
  356MOL0     C49036  11.740   8.913   6.164  0.2289 -0.6619 -0.2204
  356MOL0     C49037  11.606   8.881   6.198 -0.3863 -0.6607 -0.7513
  356MOL0     O49038  11.271   9.117   6.282 -0.5620 -0.0214 -0.0701
  356MOL0     C49039  11.128   8.810   6.190  0.5877 -0.2288  0.7167
  356MOL0     C49040  11.009   8.744   6.154 -0.3051  0.3604 -0.5353
  356MOL0     N49041  10.443   8.890   5.801 -0.0085 -0.5306 -0.1292
  356MOL0     N49042  10.315   8.934   5.786 -1.3010  0.4986 -0.3286
  356MOL0     C49043   9.158   9.132   5.518 -0.4719 -0.6040  0.1888
  356MOL0     C49044   9.055   9.232   5.524  0.5611 -0.2087  0.7351
  356MOL0     C49045   8.693   9.420   5.723 -0.2181  0.2019 -0.1906
  356MOL0     C49046   8.661   9.495   5.603  0.6104 -0.0222 -0.4531
  356MOL0     C49047   8.592   9.613   5.607  0.4858 -0.0854  1.0404
  356MOL0     C49048   8.511   9.648   5.719  0.0376  0.9957  0.3256
  356MOL0     O49049   8.437   9.766   5.724 -0.0650 -0.1133 -0.4458
  356MOL0     C49050   8.331   9.776   5.628 -0.7105  0.1204  0.1859
  356MOL0     C49051   8.207   9.720   5.692  0.2475 -0.4063  0.0397
  356MOL0     C49052   8.152   9.817   5.791  0.6515  0.7485  0.7414
  356MOL0     C49053   8.204   9.794   5.936  0.9401 -0.1174 -0.1481
  356MOL0     C49054   8.155   9.911   6.010  0.1909  1.0824  1.1545
  356MOL0     C49055   8.101   9.997   6.066  0.6553  0.6669 -0.4177
  356MOL0     C49056   8.532   9.567   5.835 -0.3796 -0.3918 -0.4771
  356MOL0     C49057   8.632   9.465   5.842 -0.4274 -0.8921  1.0742
  356MOL0     C49058   8.649   9.394   5.971  0.4037  0.5504 -0.3474
  356MOL0     H49059   8.796   9.025   5.618 -0.0882  1.1467  0.8884
  356MOL0     H49060   9.007   8.857   5.632 -2.4059  0.4722 -0.0684
  356MOL0     H49061   9.409   8.981   5.550  0.0856  2.0281 -0.9944
  356MOL0     H49062   9.375   8.971   5.371 -0.0856 -0.7114 -0.3496
  356MOL0     H49063   9.416   8.721   5.533 -1.4009  0.2382 -0.2202
  356MOL0     H49064   9.427   8.745   5.363 -1.2976 -1.3878  0.5393
  356MOL0     H49065   9.656   8.853   5.379  0.6249 -1.8246 -0.1503
  356MOL0     H49066   9.628   8.865   5.558  0.3911 -2.0970  1.2807
  356MOL0     H49067   9.650   8.637   5.599 -2.2707 -0.7417 -0.5703
  356MOL0     H49068   9.663   8.594   5.430  1.4438  1.3152 -0.0360
  356MOL0     H49069   9.866   8.767   5.417 -0.4264 -0.8702 -0.6871
  356MOL0     H49070   9.875   8.603   5.508 -4.6643 -2.3791  2.8569
  356MOL0     H49071   9.861   8.878   5.620 -0.5199 -0.7287  1.7025
  356MOL0     H49072   9.845   8.733   5.711  1.3104 -0.6333  0.5307
  356MOL0     H49073  10.086   8.780   5.530 -2.4642  1.6820 -0.4283
  356MOL0     H49074  10.054   8.640   5.642 -2.6475 -0.1282  3.8813
  356MOL0     H49075  10.057   8.932   5.740  0.1111  0.2642  0.2525
  356MOL0     H49076  10.055   8.782   5.836  0.2856 -0.0076 -0.0702
  356MOL0     H49077  10.284   8.607   5.738 -0.1050  0.6154 -1.8310
  356MOL0     H49078  10.578   8.590   5.709  1.9989  0.2974 -1.0421
  356MOL0     H49079  10.550   8.594   5.886  0.6311 -0.1784 -0.5292
  356MOL0     H49080  10.751   8.748   5.737  0.2619  1.1380  0.3665
  356MOL0     H49081  10.680   8.820   5.883 -0.6812 -0.9243  0.2756
  356MOL0     H49082  10.808   8.537   5.872 -1.1517  0.3944 -3.3236
  356MOL0     H49083  10.895   8.688   5.911  0.0430  0.1927  1.4751
  356MOL0     H49084  10.669   8.581   6.073  0.4189  0.8044 -2.8006
  356MOL0     H49085  10.827   8.566   6.124  0.6368 -0.0507 -1.5579
  356MOL0     H49086  10.790   8.976   6.249  1.0689  1.9951 -1.7087
  356MOL0     H49087  11.050   9.215   6.242  1.4593 -0.4661  1.1424
  356MOL0     H49088  11.051   9.171   6.411 -0.3748  0.3727  0.8554
  356MOL0     H49089  10.897   9.189   6.324  0.7048  1.4236  2.8202
  356MOL0     H49090  11.446   9.175   6.138 -0.4173 -0.8766 -2.9186
  356MOL0     H49091  11.697   9.236   6.087 -0.7041  1.7585  4.2899
  356MOL0     H49092  12.060   9.035   5.971 -0.4497 -1.2517 -2.4310
  356MOL0     H49093  11.988   8.895   6.041 -2.7377  0.3365 -0.1042
  356MOL0     H49094  11.971   8.914   5.789 -0.7286 -0.4943  0.3479
  356MOL0     H49095  11.811   8.930   5.848 -0.6203 -0.1919  0.6863
  356MOL0     H49096  11.999   9.164   5.796 -0.2727 -1.1915  1.3636
  356MOL0     H49097  11.827   9.185   5.836 -0.6838 -1.6371  1.2821
  356MOL0     H49098  11.932   9.030   5.598  2.3664  1.9914  1.7037
  356MOL0     H49099  11.875   9.203   5.596 -3.4052 -0.6248 -0.9745
  356MOL0     H49100  11.708   8.946   5.618 -1.0331  0.2529 -0.1074
  356MOL0     H49101  11.646   9.101   5.663  1.1696  1.6946 -0.2551
  356MOL0     H49102  11.786   9.033   5.391  2.0918  3.1890  0.6330
  356MOL0     H49103  11.697   9.181   5.432 -0.6278  0.4564  1.3141
  356MOL0     H49104  11.476   9.077   5.446 -1.7779 -1.7832  1.2527
  356MOL0     H49105  11.546   8.916   5.438 -1.0998 -0.0739 -0.2254
  356MOL0     H49106  11.447   9.004   5.222 -0.6238  1.2897 -1.6291
  356MOL0     H49107  11.612   8.946   5.210 -2.8515 -2.1594  1.5398
  356MOL0     H49108  11.821   8.841   6.154  0.5969 -0.4056  0.8446
  356MOL0     H49109  11.597   8.778   6.233 -0.4296 -0.0387  1.1578
  356MOL0     H49110  11.220   8.756   6.173 -0.1519 -0.3812 -3.9399
  356MOL0     H49111  11.026   8.643   6.118  4.3101  0.5323  0.6289
  356MOL0     H49112   9.261   9.147   5.489 -0.2759 -1.9288  0.1428
  356MOL0     H49113   9.065   9.338   5.504 -0.6481  0.0581  1.4476
  356MOL0     H49114   8.708   9.468   5.508 -0.3973  0.4321 -1.0992
  356MOL0     H49115   8.580   9.671   5.516 -1.7458  0.0550  1.3535
  356MOL0     H49116   8.310   9.881   5.607 -1.0306  0.0195 -0.0044
  356MOL0     H49117   8.354   9.719   5.537  0.4795 -0.8214  1.0381
  356MOL0     H49118   8.228   9.623   5.739 -0.3566 -0.4572  0.2023
  356MOL0     H49119   8.130   9.698   5.618  0.1189  1.2033 -0.3346
  356MOL0     H49120   8.179   9.917   5.756  1.3610  0.9365  1.7728
  356MOL0     H49121   8.043   9.812   5.786  0.6140  2.2197 -0.4945
  356MOL0     H49122   8.312   9.808   5.927  0.7858  0.7478 -0.7784
  356MOL0     H49123   8.183   9.699   5.987  1.7460 -1.3619 -2.0381
  356MOL0     H49124   8.077  10.083   6.125 -1.7775  0.5555 -1.1596
  356MOL0     H49125   8.496   9.606   5.930  0.2325  1.7465 -1.0578
  356MOL0     H49126   8.581   9.437   6.045 -0.8523 -0.2721 -0.9800
  356MOL0     H49127   8.623   9.288   5.959  0.6438  0.4872 -0.3043
  356MOL0     H49128   8.749   9.405   6.014 -0.0376  0.0581  0.8617
  357MOL0     O49129   5.014   6.267   4.626 -0.3111  0.0649 -0.0840
  357MOL0     C49130   5.077   6.325   4.710 -0.4012  0.6178 -1.1408
  357MOL0     O49131   5.186   6.268   4.773 -0.0916 -0.0586  0.1734
  357MOL0     C49132   5.216   6.131   4.764  0.6898 -0.4972 -0.0836
  357MOL0     C49133   5.110   6.033   4.771  0.7058 -0.4482 -0.6930
  357MOL0     C49134   5.150   5.903   4.771  0.9999  0.6078 -0.6082
  357MOL0     C49135   5.278   5.859   4.784 -0.6554 -0.2578  0.5428
  357MOL0     O49136   5.315   5.725   4.781  0.2238 -1.0203 -0.0270
  357MOL0     C49137   5.220   5.622   4.748 -0.6643  0.7476 -0.4188
  357MOL0     C49138   5.293   5.491   4.706  1.2635 -0.6750 -0.2003
  357MOL0     C49139   5.191   5.394   4.645  0.4741 -0.0344 -0.2489
  357MOL0     C49140   5.106   5.331   4.757 -0.6986  0.3365  0.5711
  357MOL0     C49141   5.071   5.188   4.727 -0.1682 -0.3023  0.7594
  357MOL0     C49142   5.177   5.083   4.766 -0.9126 -1.0355  0.1438
  357MOL0     C49143   5.186   5.071   4.916 -0.0094 -0.2191 -0.2647
  357MOL0     C49144   5.206   4.930   4.961  0.7067 -0.2629 -0.8359
  357MOL0     N49145   5.341   4.897   4.977 -0.5515 -0.8356 -0.2874
  357MOL0     C49146   5.410   4.846   4.871 -0.1670 -0.4291 -0.5713
  357MOL0     C49147   5.522   4.799   4.923 -0.3098  0.6777  0.0888
  357MOL0     C49148   5.630   4.758   4.830  0.0852 -0.3752 -0.0049
  357MOL0     C49149   5.758   4.734   4.917  0.4130  0.5394 -0.5111
  357MOL0     C49150   5.887   4.740   4.838  0.0619  0.7274 -0.2014
  357MOL0     C49151   6.003   4.736   4.932  0.7195 -1.0095  0.1885
  357MOL0     O49152   6.046   4.863   4.980 -0.2029 -0.5373  0.7974
  357MOL0     C49153   6.171   4.878   5.028 -0.5277 -0.8865 -0.1963
  357MOL0     C49154   6.210   5.014   5.041  0.6129  0.0080  0.2717
  357MOL0     C49155   6.340   5.047   5.071  0.6242  0.4334  0.0743
  357MOL0     C49156   6.362   5.191   5.086 -0.1609  0.0472 -0.3547
  357MOL0     C49157   6.435   4.952   5.114  1.1657  0.9385 -0.3873
  357MOL0     C49158   6.576   4.971   5.152  0.7447  0.1111  0.5484
  357MOL0     O49159   6.634   4.897   5.254 -0.7697 -0.8006 -0.1426
  357MOL0     C49160   6.769   4.892   5.245 -0.7252  0.8275 -0.6304
  357MOL0     C49161   6.835   4.991   5.319 -1.8269 -0.3209 -0.4933
  357MOL0     C49162   6.974   4.982   5.334  0.2910  0.0922  0.2634
  357MOL0     C49163   7.054   4.889   5.253 -0.5546  0.6058 -0.7274
  357MOL0     O49164   7.189   4.888   5.252  0.1414  0.6479 -0.1979
  357MOL0     C49165   7.253   4.947   5.369 -0.1779 -0.3967 -0.1447
  357MOL0     C49166   7.405   4.930   5.372 -0.5382 -0.9512 -0.5348
  357MOL0     C49167   7.461   4.788   5.350  1.3407  0.1685  0.3831
  357MOL0     C49168   7.606   4.780   5.384  0.0504  0.3958  0.2869
  357MOL0     C49169   7.648   4.695   5.502  0.6305 -0.1185  0.0842
  357MOL0     C49170   7.801   4.705   5.530 -0.1826 -0.7183  0.1583
  357MOL0     C49171   7.846   4.604   5.631  0.6473 -0.9524 -0.0191
  357MOL0     C49172   7.984   4.631   5.680  0.3647  0.3247 -0.8492
  357MOL0    Cl49173   7.979   4.794   5.758 -0.4243  0.4673 -0.4818
  357MOL0     C49174   6.985   4.791   5.181  0.3518 -0.1082 -0.4400
  357MOL0     C49175   6.845   4.798   5.180  0.0742 -0.8038  0.1863
  357MOL0     O49176   6.632   5.047   5.075 -0.1978  0.1517  0.3009
  357MOL0     C49177   6.390   4.814   5.104 -0.2244  0.5457  0.1859
  357MOL0     C49178   6.266   4.780   5.057 -0.2667 -0.1062 -0.6457
  357MOL0     N49179   5.529   4.834   5.049  0.5462 -0.1404  0.5811
  357MOL0     N49180   5.420   4.898   5.089 -0.2224  0.1374  0.2357
  357MOL0     C49181   5.381   5.956   4.790 -0.1467  0.9019 -0.0600
  357MOL0     C49182   5.347   6.090   4.776  0.6621 -0.1042 -0.3919
  357MOL0     C49183   5.037   6.462   4.751  0.2913 -0.5658  0.6254
  357MOL0     C49184   5.071   6.503   4.882 -0.2474 -0.7254 -0.0542
  357MOL0     C49185   5.023   6.632   4.926  0.4946  0.0801  0.0916
  357MOL0     C49186   4.961   6.720   4.842 -0.4047  0.5350  0.2292
  357MOL0     O49187   4.931   6.849   4.881 -0.3562  0.4546  0.4522
  357MOL0     C49188   5.048   6.927   4.916  0.2445  0.0856 -0.3080
  357MOL0     C49189   5.033   7.072   4.862  0.7163  0.0805 -0.1897
  357MOL0     C49190   5.160   7.156   4.883  0.4702  0.0363  0.5803
  357MOL0     C49191   5.137   7.294   4.812 -0.2893 -0.7601 -0.2009
  357MOL0     C49192   5.232   7.393   4.863  0.4425 -0.1623  0.2250
  357MOL0     C49193   5.300   7.482   4.894  0.0741 -0.5954  0.1672
  357MOL0     C49194   4.929   6.676   4.712  0.1854  0.4653  0.8092
  357MOL0     C49195   4.964   6.548   4.664 -0.3937 -0.1677  0.0640
  357MOL0     C49196   4.930   6.521   4.522 -0.1742 -0.1225 -0.3019
  357MOL0     H49197   5.004   6.056   4.779  0.2976 -2.7336  3.1794
  357MOL0     H49198   5.073   5.827   4.765  0.6208  1.0226 -1.0741
  357MOL0     H49199   5.171   5.652   4.655 -5.2399  1.2293  1.8301
  357MOL0     H49200   5.154   5.618   4.835 -0.7078  0.2116 -0.4691
  357MOL0     H49201   5.362   5.515   4.625  1.0910 -1.0174 -0.4513
  357MOL0     H49202   5.338   5.443   4.793 -2.3641 -1.5331  1.4103
  357MOL0     H49203   5.120   5.443   4.578 -2.3645 -0.7712  1.9986
  357MOL0     H49204   5.250   5.313   4.600 -2.3945 -3.2915  1.3115
  357MOL0     H49205   5.170   5.333   4.846  0.2004  0.4829 -0.0700
  357MOL0     H49206   5.021   5.394   4.786  0.6532  1.2362  2.9577
  357MOL0     H49207   5.046   5.182   4.620  0.4251  0.6591  0.5553
  357MOL0     H49208   4.977   5.167   4.779 -0.9546 -0.7021 -0.7536
  357MOL0     H49209   5.141   4.991   4.719 -0.6763 -1.4187  0.6964
  357MOL0     H49210   5.277   5.103   4.726 -1.0168 -0.7722  0.0162
  357MOL0     H49211   5.091   5.105   4.957 -1.4828 -3.4824 -0.6786
  357MOL0     H49212   5.269   5.138   4.943  0.0652 -0.2576 -0.3971
  357MOL0     H49213   5.161   4.917   5.060  3.5211  0.8605  0.7030
  357MOL0     H49214   5.156   4.861   4.891  0.6729 -1.3246  0.2060
  357MOL0     H49215   5.376   4.833   4.768  0.0836  0.9313 -0.8473
  357MOL0     H49216   5.648   4.843   4.763  0.3913  0.7447  1.4356
  357MOL0     H49217   5.600   4.672   4.770  2.8257 -1.3126 -0.1762
  357MOL0     H49218   5.768   4.808   4.997  3.3467  1.5684 -1.7061
  357MOL0     H49219   5.744   4.631   4.953  1.4261 -0.0084 -1.6122
  357MOL0     H49220   5.895   4.659   4.764 -2.9097  0.0029  0.1687
  357MOL0     H49221   5.901   4.831   4.779 -3.4754  0.7748 -1.1697
  357MOL0     H49222   5.988   4.661   5.010 -0.5822 -0.9027  0.0589
  357MOL0     H49223   6.081   4.684   4.876 -0.0382  0.4664 -2.4160
  357MOL0     H49224   6.129   5.083   5.020  0.2942  0.9172  3.8622
  357MOL0     H49225   6.441   5.220   5.016  2.0281 -0.2281  1.8465
  357MOL0     H49226   6.385   5.229   5.186 -1.5979  3.4990 -1.2185
  357MOL0     H49227   6.262   5.229   5.066 -1.6233 -1.7723  2.6858
  357MOL0     H49228   6.779   5.074   5.359 -2.6050  1.4565 -4.6740
  357MOL0     H49229   7.020   5.067   5.382 -1.9871  1.7384 -0.2676
  357MOL0     H49230   7.230   5.053   5.379 -2.0144 -0.7752 -0.0474
  357MOL0     H49231   7.215   4.907   5.464 -2.4960  1.2816 -0.2991
  357MOL0     H49232   7.438   5.002   5.297 -0.2727  0.9283  1.2756
  357MOL0     H49233   7.434   4.960   5.473 -1.2948 -0.2382 -0.5209
  357MOL0     H49234   7.451   4.768   5.243 -0.5188  0.7949  0.4053
  357MOL0     H49235   7.394   4.710   5.389 -0.9655  2.2153  0.8105
  357MOL0     H49236   7.656   4.877   5.378  0.8194 -0.0467 -0.9104
  357MOL0     H49237   7.646   4.722   5.300 -1.5124  1.1054 -0.9989
  357MOL0     H49238   7.593   4.734   5.589 -1.1222  5.1323 -2.9036
  357MOL0     H49239   7.625   4.589   5.491  0.6732 -0.0795 -0.4192
  357MOL0     H49240   7.811   4.812   5.549  0.7539 -0.0566 -3.4539
  357MOL0     H49241   7.859   4.686   5.439 -0.7618 -2.5364  0.1177
  357MOL0     H49242   7.838   4.508   5.578  3.3984 -2.4256  2.0233
  357MOL0     H49243   7.776   4.608   5.715 -0.1166 -2.0737 -0.5738
  357MOL0     H49244   8.063   4.635   5.605  0.2356  1.6514 -0.9367
  357MOL0     H49245   8.001   4.553   5.755 -1.1484 -0.5227 -1.3383
  357MOL0     H49246   7.045   4.730   5.115  1.9981  0.3471  0.5729
  357MOL0     H49247   6.794   4.732   5.110 -1.7293 -0.2011  0.8962
  357MOL0     H49248   6.458   4.734   5.131 -1.8854 -0.7085  0.8883
  357MOL0     H49249   6.252   4.676   5.032  1.3773  0.1458 -2.9341
  357MOL0     H49250   5.483   5.922   4.808 -0.3496 -0.6748 -1.5521
  357MOL0     H49251   5.427   6.164   4.779  1.7023 -1.1976  2.6855
  357MOL0     H49252   5.124   6.440   4.953  1.5718  1.2491  0.4694
  357MOL0     H49253   5.050   6.660   5.027  0.0902 -0.5983  0.3952
  357MOL0     H49254   5.065   6.922   5.024  0.8958 -3.4184 -0.4808
  357MOL0     H49255   5.137   6.882   4.871 -0.0013 -1.2404  0.4684
  357MOL0     H49256   4.960   7.128   4.922  1.6963  0.5601  0.5726
  357MOL0     H49257   5.006   7.072   4.756  1.9412  4.0966 -0.6535
  357MOL0     H49258   5.183   7.168   4.989  0.8454 -3.0804  0.9516
  357MOL0     H49259   5.242   7.111   4.827  0.6167 -1.8452  2.2032
  357MOL0     H49260   5.040   7.335   4.840  0.8230  0.0858  2.7865
  357MOL0     H49261   5.136   7.289   4.702 -0.6334 -2.1220 -0.1510
  357MOL0     H49262   5.350   7.576   4.907 -0.9952 -0.0300  0.3333
  357MOL0     H49263   4.884   6.753   4.650 -0.9008  1.1604  2.4038
  357MOL0     H49264   4.849   6.448   4.510 -1.0195  1.0306 -1.9979
  357MOL0     H49265   4.894   6.614   4.477  0.2616  1.4394  2.3733
  357MOL0     H49266   5.022   6.488   4.473 -0.9206 -0.7738 -1.3169
  358MOL0     O49267   9.075   4.106   7.027  0.1788 -0.0930 -1.1907
  358MOL0     C49268   9.080   4.229   7.007 -0.3475  0.1794 -1.0401
  358MOL0     O49269   8.987   4.317   7.058 -0.2900  0.1131 -0.3136
  358MOL0     C49270   8.883   4.270   7.139 -0.4773 -0.3060 -0.2820
  358MOL0     C49271   8.904   4.278   7.276  0.1267  0.5562  0.0926
  358MOL0     C49272   8.796   4.268   7.360 -0.2129  0.3957  0.6275
  358MOL0     C49273   8.667   4.248   7.308 -0.8561 -0.0281  0.0473
  358MOL0     O49274   8.561   4.252   7.392  0.1134 -0.1037 -0.3323
  358MOL0     C49275   8.492   4.375   7.376  0.4642 -0.9028  0.7879
  358MOL0     C49276   8.455   4.422   7.521 -0.2657  0.0156  0.8643
  358MOL0     C49277   8.321   4.376   7.584  0.5441 -0.3407  0.0616
  358MOL0     C49278   8.268   4.480   7.685  0.4890  0.8193  0.5504
  358MOL0     C49279   8.363   4.497   7.803  0.1716  0.9681 -0.7863
  358MOL0     C49280   8.395   4.362   7.882  0.3215  0.0976 -0.7349
  358MOL0     C49281   8.450   4.403   8.023 -0.3890 -0.5752 -0.4961
  358MOL0     C49282   8.480   4.279   8.101 -0.2532 -0.1332  0.6079
  358MOL0     N49283   8.516   4.294   8.246 -0.7919  0.8491  0.5055
  358MOL0     C49284   8.446   4.321   8.359 -0.1062  0.4037 -0.6378
  358MOL0     C49285   8.529   4.310   8.467  0.8050 -0.7665 -0.1583
  358MOL0     C49286   8.467   4.342   8.602 -0.1877 -0.0283  0.6092
  358MOL0     C49287   8.556   4.444   8.675  0.2982 -0.0097  0.4013
  358MOL0     C49288   8.507   4.457   8.818  0.9829  0.7384  0.6433
  358MOL0     C49289   8.581   4.562   8.897 -0.4235  0.6635 -0.3831
  358MOL0     O49290   8.726   4.536   8.896 -0.4919 -0.3001 -0.4599
  358MOL0     C49291   8.815   4.627   8.957  0.2324 -0.0288  0.3343
  358MOL0     C49292   8.769   4.759   8.995 -0.0446  0.5865  0.0787
  358MOL0     C49293   8.861   4.838   9.074  0.3918  0.4928  0.2577
  358MOL0     C49294   8.809   4.969   9.125  0.5434 -0.2504  0.6127
  358MOL0     C49295   8.987   4.793   9.106 -1.0779  1.0356 -0.0869
  358MOL0     C49296   9.093   4.871   9.179 -0.0683 -1.0656  0.3848
  358MOL0     O49297   9.161   4.801   9.274 -0.3509  0.1926  0.8047
  358MOL0     C49298   9.264   4.866   9.344  0.0212 -0.2598 -0.4950
  358MOL0     C49299   9.252   4.878   9.484 -0.8184 -0.1946 -0.3663
  358MOL0     C49300   9.346   4.942   9.568 -0.1721  0.6861 -0.3754
  358MOL0     C49301   9.467   4.991   9.506 -0.3360  0.5892  0.3191
  358MOL0     O49302   9.560   5.063   9.568  0.4848 -0.1023  0.1079
  358MOL0     C49303   9.531   5.118   9.698  1.3278 -0.1007  0.6742
  358MOL0     C49304   9.641   5.209   9.727 -0.5522 -1.2448 -0.2720
  358MOL0     C49305   9.773   5.138   9.747  1.0284 -0.4809 -0.7726
  358MOL0     C49306   9.880   5.230   9.816 -0.3546  0.8771  0.2115
  358MOL0     C49307   9.984   5.151   9.897 -0.4733  0.5562 -0.0683
  358MOL0     C49308  10.071   5.050   9.811 -0.1553  0.1354 -0.1143
  358MOL0     C49309  10.188   5.118   9.741  0.7965 -0.6712 -0.1440
  358MOL0     C49310  10.298   5.026   9.696 -0.5999  0.5569  0.5970
  358MOL0    Cl49311  10.404   4.959   9.828 -0.5327 -0.1369  0.2406
  358MOL0     C49312   9.477   4.974   9.358 -0.7473  0.3288 -2.2011
  358MOL0     C49313   9.377   4.915   9.285  0.5718 -0.1584  0.0049
  358MOL0     O49314   9.107   4.998   9.161 -0.4230  0.6445 -0.4789
  358MOL0     C49315   9.038   4.668   9.054 -0.0451  0.3168 -0.3080
  358MOL0     C49316   8.953   4.594   8.968  0.5385  0.5548 -1.3723
  358MOL0     N49317   8.655   4.297   8.419 -0.3897 -0.9396 -0.4172
  358MOL0     N49318   8.647   4.282   8.292  0.3520  1.0784  0.5454
  358MOL0     C49319   8.644   4.255   7.172 -0.4150  0.1602 -0.1984
  358MOL0     C49320   8.753   4.257   7.086 -0.1635  1.1905  0.2800
  358MOL0     C49321   9.208   4.273   6.939 -0.0602  0.1030  0.7942
  358MOL0     C49322   9.219   4.410   6.896  0.6946  0.2608 -0.6755
  358MOL0     C49323   9.334   4.460   6.833 -0.6177  0.1756 -0.3764
  358MOL0     C49324   9.447   4.386   6.816 -0.3511  0.6762 -0.7082
  358MOL0     O49325   9.541   4.450   6.740  0.3999 -0.2352  0.0110
  358MOL0     C49326   9.669   4.386   6.722  0.1377 -0.1411 -0.3436
  358MOL0     C49327   9.775   4.484   6.674  0.7410 -0.0305  0.0229
  358MOL0     C49328   9.832   4.577   6.787  0.4697  1.0805  0.1559
  358MOL0     C49329   9.949   4.667   6.732 -0.4822  0.1849  0.0865
  358MOL0     C49330  10.075   4.593   6.726 -0.0167  0.1380  0.6981
  358MOL0     C49331  10.182   4.534   6.708 -0.2070  0.0445 -0.3791
  358MOL0     C49332   9.442   4.256   6.862 -0.4216 -0.7331 -0.8114
  358MOL0     C49333   9.323   4.193   6.913  0.6406  0.2470 -0.6512
  358MOL0     C49334   9.328   4.052   6.952  0.5510  0.1037  0.6850
  358MOL0     H49335   9.007   4.296   7.306  0.3073  3.0002 -1.6710
  358MOL0     H49336   8.804   4.276   7.468 -2.5725  0.9573  0.8174
  358MOL0     H49337   8.397   4.369   7.323  0.3990 -0.6603  0.8742
  358MOL0     H49338   8.565   4.449   7.340 -1.2015 -0.2916 -1.5192
  358MOL0     H49339   8.532   4.384   7.588  1.8557 -0.3018 -1.5782
  358MOL0     H49340   8.455   4.531   7.529 -1.2696  0.1136 -0.1323
  358MOL0     H49341   8.255   4.356   7.498  2.5526 -1.0812 -1.3822
  358MOL0     H49342   8.323   4.287   7.648 -0.2007  1.2301  2.3836
  358MOL0     H49343   8.248   4.571   7.627 -1.1068  0.2671  0.1654
  358MOL0     H49344   8.179   4.447   7.739  0.2820 -2.4879 -1.5427
  358MOL0     H49345   8.305   4.564   7.868 -1.3770  0.4569 -1.5701
  358MOL0     H49346   8.455   4.547   7.774 -0.6534  1.8348 -2.0087
  358MOL0     H49347   8.298   4.317   7.902 -0.1323  0.6569 -1.6321
  358MOL0     H49348   8.469   4.301   7.830 -0.4677 -1.1970 -0.3926
  358MOL0     H49349   8.373   4.465   8.069  0.8614  1.1361 -0.6432
  358MOL0     H49350   8.538   4.467   8.023 -0.7634  0.0076  1.3797
  358MOL0     H49351   8.395   4.214   8.077  1.5219 -2.1620 -0.5922
  358MOL0     H49352   8.570   4.239   8.052  1.0134  0.9253  1.9871
  358MOL0     H49353   8.344   4.351   8.339  0.5332  2.0503 -1.6241
  358MOL0     H49354   8.447   4.246   8.650 -1.4118 -0.6479 -1.0633
  358MOL0     H49355   8.367   4.379   8.579 -0.9738 -2.9789 -1.2734
  358MOL0     H49356   8.659   4.409   8.661  0.1408  0.5844 -2.9440
  358MOL0     H49357   8.549   4.542   8.627 -0.4448  0.7851  2.0544
  358MOL0     H49358   8.403   4.489   8.806  1.2091  0.8550 -1.4213
  358MOL0     H49359   8.507   4.359   8.865 -1.8886 -0.6101 -1.7838
  358MOL0     H49360   8.565   4.656   8.843  0.9885  0.5487 -1.0527
  358MOL0     H49361   8.538   4.564   8.997 -2.2578 -0.4350 -1.0939
  358MOL0     H49362   8.673   4.795   8.960 -0.9042 -2.2676 -0.8436
  358MOL0     H49363   8.817   4.967   9.234  1.9719 -0.2751  0.5239
  358MOL0     H49364   8.704   4.979   9.093  1.2244 -0.7376 -2.0703
  358MOL0     H49365   8.860   5.059   9.091  0.9985 -0.1004  1.6805
  358MOL0     H49366   9.161   4.842   9.532 -0.9145 -1.3943 -1.4120
  358MOL0     H49367   9.333   4.945   9.676  0.9438  0.0512 -0.2056
  358MOL0     H49368   9.447   5.184   9.674  1.2400  0.1446  1.6178
  358MOL0     H49369   9.505   5.042   9.773 -3.0835 -0.8720 -1.2857
  358MOL0     H49370   9.673   5.272   9.644  0.4781  0.6983  1.5078
  358MOL0     H49371   9.614   5.271   9.813 -1.1479 -0.7528 -0.7974
  358MOL0     H49372   9.808   5.093   9.654  0.8415  0.2777 -1.2199
  358MOL0     H49373   9.747   5.060   9.820 -0.7265 -0.1888 -1.0523
  358MOL0     H49374   9.845   5.305   9.887  0.1084 -0.3916  1.8490
  358MOL0     H49375   9.934   5.284   9.739 -3.5407  2.3223 -1.1994
  358MOL0     H49376  10.043   5.221   9.957 -2.3705  2.3123 -0.1536
  358MOL0     H49377   9.941   5.092   9.979 -1.0145  2.8152  1.3565
  358MOL0     H49378  10.001   5.001   9.744 -0.0299 -1.8143  1.0978
  358MOL0     H49379  10.119   4.975   9.875 -0.1995 -0.0469 -0.2906
  358MOL0     H49380  10.227   5.201   9.800 -0.3429  0.1757 -0.5288
  358MOL0     H49381  10.141   5.168   9.655  0.3624  0.5862  0.7860
  358MOL0     H49382  10.354   5.082   9.621  0.5302 -0.7969  0.3751
  358MOL0     H49383  10.260   4.939   9.641  1.8938 -0.3235  0.1418
  358MOL0     H49384   9.571   5.011   9.318 -0.4629  3.2999  0.7822
  358MOL0     H49385   9.395   4.903   9.178  2.8552 -0.8036  0.4068
  358MOL0     H49386   9.136   4.631   9.082 -0.9496 -2.0826 -0.0811
  358MOL0     H49387   8.975   4.499   8.921  3.0360  1.2773 -1.8381
  358MOL0     H49388   8.541   4.271   7.141 -1.1655  0.3054  2.1577
  358MOL0     H49389   8.736   4.273   6.979 -1.4258  0.4500  0.3512
  358MOL0     H49390   9.133   4.475   6.905 -0.0039 -0.0193 -3.9693
  358MOL0     H49391   9.347   4.563   6.799  1.5107 -1.1382 -4.1007
  358MOL0     H49392   9.705   4.346   6.817  0.5465 -0.1144 -0.4885
  358MOL0     H49393   9.665   4.303   6.652 -2.3183 -0.6094  0.2521
  358MOL0     H49394   9.740   4.542   6.589  0.7287  0.2189  0.1956
  358MOL0     H49395   9.858   4.421   6.642 -0.5785 -2.4508  1.1052
  358MOL0     H49396   9.743   4.632   6.820  0.4383  2.3539 -1.8613
  358MOL0     H49397   9.873   4.524   6.873  2.7440  2.2650 -0.1334
  358MOL0     H49398   9.973   4.745   6.805 -3.4882 -1.2517  2.8549
  358MOL0     H49399   9.923   4.704   6.633  3.0615 -3.1904 -2.3698
  358MOL0     H49400  10.273   4.487   6.677 -1.0984 -1.1799 -1.2346
  358MOL0     H49401   9.532   4.196   6.851  0.5302  0.6063 -0.5241
  358MOL0     H49402   9.260   3.993   6.890  0.9391 -0.2975  0.6346
  358MOL0     H49403   9.428   4.014   6.928  0.7336  0.8357  0.2378
  358MOL0     H49404   9.307   4.045   7.059 -0.3068  2.9017  0.7869
  359MOL0     O49405   8.881   5.078  11.019 -0.7639 -0.6906  0.4231
  359MOL0     C49406   8.808   5.079  10.924  0.0417 -0.1463 -0.2784
  359MOL0     O49407   8.836   5.142  10.795  0.2145  0.3756 -0.6858
  359MOL0     C49408   8.950   5.213  10.760 -0.1894  0.0751 -0.6922
  359MOL0     C49409   8.986   5.209  10.627  0.1893  0.1128  0.2608
  359MOL0     C49410   9.094   5.277  10.576 -0.2538  0.5371 -0.4483
  359MOL0     C49411   9.182   5.343  10.663  0.7351 -1.2663 -0.2717
  359MOL0     O49412   9.289   5.421  10.630 -0.0089 -0.2450 -0.3070
  359MOL0     C49413   9.313   5.459  10.493  0.7484  0.4754 -0.5317
  359MOL0     C49414   9.430   5.557  10.487  0.7921 -0.5312 -0.8347
  359MOL0     C49415   9.560   5.513  10.557  0.5754  0.4070 -0.1625
  359MOL0     C49416   9.678   5.607  10.522  0.2430 -0.7046 -0.0055
  359MOL0     C49417   9.641   5.756  10.532  0.7954  0.0192 -0.0425
  359MOL0     C49418   9.744   5.866  10.494  0.1399  0.5971 -0.2652
  359MOL0     C49419   9.685   6.003  10.461  0.3237 -0.7884 -0.8168
  359MOL0     C49420   9.778   6.105  10.384  0.4229 -0.1014 -0.7656
  359MOL0     N49421   9.909   6.129  10.428  0.1963 -0.5195 -0.3464
  359MOL0     C49422   9.942   6.179  10.549 -0.5583  0.4114 -0.5025
  359MOL0     C49423  10.081   6.176  10.563  0.1044 -0.2281 -0.2541
  359MOL0     C49424  10.159   6.211  10.685 -0.2309  0.1788 -0.6418
  359MOL0     C49425  10.315   6.180  10.656  0.2113 -0.5547 -0.3139
  359MOL0     C49426  10.415   6.184  10.772  0.2521 -1.4466 -0.5912
  359MOL0     C49427  10.397   6.058  10.867  0.2439  0.6307  1.3209
  359MOL0     O49428  10.410   5.935  10.784 -0.1413 -0.6919 -0.1964
  359MOL0     C49429  10.431   5.819  10.859 -0.0436  0.8144  0.7202
  359MOL0     C49430  10.393   5.796  10.988 -0.0589 -0.4458 -0.1991
  359MOL0     C49431  10.417   5.677  11.060  0.2649 -0.1089  0.5044
  359MOL0     C49432  10.390   5.670  11.206  0.6193 -0.6424  0.6405
  359MOL0     C49433  10.485   5.572  10.993  0.5476 -0.2233  0.8919
  359MOL0     C49434  10.541   5.461  11.054 -0.0272 -0.4883 -0.0905
  359MOL0     O49435  10.516   5.344  10.991 -0.0734  0.0406  0.3511
  359MOL0     C49436  10.623   5.262  10.980 -0.4194  0.0388  0.6302
  359MOL0     C49437  10.754   5.305  10.984 -0.8177  0.7797 -0.1426
  359MOL0     C49438  10.871   5.216  10.985  0.2061  0.0713  0.5919
  359MOL0     C49439  10.847   5.077  10.947 -0.0344 -0.1063 -0.8498
  359MOL0     O49440  10.948   4.985  10.926  0.3508  0.2589 -0.6552
  359MOL0     C49441  11.062   4.986  11.014 -0.3225  0.2028 -0.9872
  359MOL0     C49442  11.129   4.852  11.001 -0.2120  0.1315 -0.9635
  359MOL0     C49443  11.047   4.729  11.058  0.0139 -0.7252  0.2085
  359MOL0     C49444  10.961   4.661  10.945 -0.3709 -0.0963 -0.3177
  359MOL0     C49445  10.852   4.557  10.994  0.7600  0.0929 -0.4615
  359MOL0     C49446  10.752   4.618  11.090 -0.4739 -0.4832 -0.1145
  359MOL0     C49447  10.640   4.511  11.113  0.3350 -0.0570  1.7616
  359MOL0     C49448  10.530   4.541  11.015  0.0010  0.4971  0.1077
  359MOL0    Cl49449  10.436   4.683  11.079 -0.1866  0.1687 -0.0473
  359MOL0     C49450  10.712   5.044  10.930 -0.1593 -0.1960  1.1366
  359MOL0     C49451  10.606   5.134  10.944 -0.2212  0.8640 -0.6728
  359MOL0     O49452  10.604   5.471  11.163  0.4818 -0.7497  0.4295
  359MOL0     C49453  10.508   5.596  10.856  0.4229  0.4509  0.4345
  359MOL0     C49454  10.486   5.716  10.787 -0.8313  0.1177  0.1120
  359MOL0     N49455  10.121   6.118  10.437 -0.5804  0.3872 -0.1532
  359MOL0     N49456  10.017   6.084  10.370 -0.5356  0.5256  0.2924
  359MOL0     C49457   9.154   5.331  10.800  0.2672  0.7345 -0.2476
  359MOL0     C49458   9.039   5.272  10.851  0.0699 -0.3211 -1.1154
  359MOL0     C49459   8.667   5.023  10.940 -0.0163  0.5093 -0.2627
  359MOL0     C49460   8.570   5.032  10.835  0.3408  0.6550  0.4050
  359MOL0     C49461   8.439   4.993  10.852 -0.8423  0.2759 -0.0230
  359MOL0     C49462   8.389   4.925  10.964 -0.6938  0.1966 -0.1227
  359MOL0     O49463   8.258   4.901  10.964  0.1985  0.1009  0.2501
  359MOL0     C49464   8.184   4.848  11.077  0.1579 -0.3946  0.0079
  359MOL0     C49465   8.130   4.972  11.152 -0.3719 -0.2972 -0.0585
  359MOL0     C49466   8.011   5.051  11.078 -0.7657  0.5651  0.4247
  359MOL0     C49467   8.052   5.107  10.940 -0.2282  0.5838  0.5974
  359MOL0     C49468   7.953   5.190  10.884  0.8698  0.7539 -0.0254
  359MOL0     C49469   7.874   5.252  10.829 -0.0514  0.6102  0.0259
  359MOL0     C49470   8.480   4.919  11.067  0.3163  0.2611 -0.2737
  359MOL0     C49471   8.615   4.965  11.064 -0.0333 -0.1300 -0.4373
  359MOL0     C49472   8.701   4.932  11.183 -0.3598 -0.5861  0.1218
  359MOL0     H49473   8.926   5.157  10.553  0.0863  0.9098 -0.2375
  359MOL0     H49474   9.130   5.277  10.473  0.4618 -0.1317 -0.2032
  359MOL0     H49475   9.224   5.509  10.452 -1.2920 -2.0423  0.5213
  359MOL0     H49476   9.331   5.371  10.430  0.1480  0.9092 -1.3196
  359MOL0     H49477   9.460   5.572  10.382 -1.3993 -1.5900 -1.6601
  359MOL0     H49478   9.387   5.652  10.520  1.4330 -1.0005  1.5725
  359MOL0     H49479   9.534   5.511  10.663 -1.4526 -1.9343 -0.6182
  359MOL0     H49480   9.593   5.416  10.520  1.7723  0.9969 -0.7314
  359MOL0     H49481   9.760   5.584  10.592 -1.1247 -0.5906  1.6998
  359MOL0     H49482   9.714   5.586  10.421 -0.6154 -2.0296 -0.0611
  359MOL0     H49483   9.623   5.776  10.638  3.7382 -1.7833  0.9051
  359MOL0     H49484   9.556   5.778  10.466 -2.1036  0.2964  3.4674
  359MOL0     H49485   9.807   5.880  10.583  0.8846  0.4363 -0.7560
  359MOL0     H49486   9.805   5.829  10.411 -2.0124  0.5446 -1.9043
  359MOL0     H49487   9.641   6.038  10.555  1.4494 -2.2417  0.2999
  359MOL0     H49488   9.592   6.000  10.404 -1.5193  2.3424  1.6350
  359MOL0     H49489   9.778   6.072  10.279  2.9463 -0.0093 -0.8451
  359MOL0     H49490   9.729   6.203  10.380  1.8480  0.6196 -1.4097
  359MOL0     H49491   9.873   6.219  10.623 -0.4404  1.1007 -0.7605
  359MOL0     H49492  10.121   6.169  10.778  1.0802 -1.7561 -0.9443
  359MOL0     H49493  10.148   6.318  10.706 -4.8752 -0.2102 -0.0333
  359MOL0     H49494  10.330   6.082  10.610  0.7274 -0.1976 -0.9125
  359MOL0     H49495  10.329   6.249  10.573 -0.3133 -1.1568 -0.9184
  359MOL0     H49496  10.512   6.185  10.721 -0.0762  0.1992 -1.2478
  359MOL0     H49497  10.401   6.277  10.827 -0.4911 -1.1835 -1.2022
  359MOL0     H49498  10.477   6.063  10.941  0.1000  0.0859  1.5216
  359MOL0     H49499  10.296   6.065  10.907  0.2032  0.5898  1.2249
  359MOL0     H49500  10.338   5.869  11.046 -2.4316 -1.7361 -0.7068
  359MOL0     H49501  10.338   5.582  11.244 -3.0447  0.8167 -0.6044
  359MOL0     H49502  10.326   5.754  11.233  0.8702  0.2642 -1.3933
  359MOL0     H49503  10.484   5.677  11.263  1.4190 -2.1658 -0.4398
  359MOL0     H49504  10.779   5.410  10.993  1.5694  0.1254  1.8208
  359MOL0     H49505  10.972   5.247  11.011 -0.1453  1.4717  0.3489
  359MOL0     H49506  11.136   5.063  10.990  1.4641 -1.2068 -0.2808
  359MOL0     H49507  11.039   5.000  11.120 -1.3041  1.5889 -1.3708
  359MOL0     H49508  11.149   4.836  10.895  2.3515 -1.3511 -0.3426
  359MOL0     H49509  11.227   4.851  11.048 -0.5217  2.2461 -0.1501
  359MOL0     H49510  10.985   4.754  11.144 -1.6792 -0.4667 -1.0309
  359MOL0     H49511  11.118   4.654  11.092  0.5924  0.4200  1.5969
  359MOL0     H49512  11.029   4.608  10.878 -0.1696  0.5012 -0.5844
  359MOL0     H49513  10.912   4.731  10.877  1.3728  1.8026  0.3099
  359MOL0     H49514  10.799   4.526  10.903  2.6677 -1.2602 -1.1955
  359MOL0     H49515  10.904   4.467  11.031 -2.9295 -2.1692 -0.2725
  359MOL0     H49516  10.719   4.703  11.030 -0.7737 -1.6112 -1.6107
  359MOL0     H49517  10.802   4.659  11.178  0.3364  2.0996 -1.6709
  359MOL0     H49518  10.594   4.519  11.211 -1.4391  3.1848  0.8212
  359MOL0     H49519  10.677   4.409  11.096  1.0507  0.2033  1.7381
  359MOL0     H49520  10.478   4.445  11.002  0.9129 -0.0073  0.1046
  359MOL0     H49521  10.577   4.577  10.924  1.8064  1.2266  1.2820
  359MOL0     H49522  10.695   4.940  10.906  3.2905 -0.3908 -1.0325
  359MOL0     H49523  10.510   5.087  10.927  1.1067 -2.0415 -0.7946
  359MOL0     H49524  10.568   5.526  10.799  0.1100 -0.8912  1.6816
  359MOL0     H49525  10.515   5.734  10.684  4.0807 -1.0427  1.0578
  359MOL0     H49526   9.229   5.377  10.863 -0.5084 -0.2046  1.4357
  359MOL0     H49527   9.030   5.253  10.958  1.0045 -1.8802 -1.2794
  359MOL0     H49528   8.620   5.056  10.741 -0.7282 -3.2491 -1.3604
  359MOL0     H49529   8.375   4.998  10.764 -1.3974  0.1408  0.3631
  359MOL0     H49530   8.104   4.780  11.047 -0.5954  0.9185 -1.0928
  359MOL0     H49531   8.243   4.782  11.142  0.0771  0.6696  1.2125
  359MOL0     H49532   8.209   5.044  11.176 -1.3637  1.2675 -1.1915
  359MOL0     H49533   8.105   4.930  11.249  0.1447 -4.4547 -1.5226
  359MOL0     H49534   7.935   4.977  11.052  1.5188 -1.7511 -0.1048
  359MOL0     H49535   7.963   5.126  11.142 -2.5364 -0.5158  0.4431
  359MOL0     H49536   8.070   5.026  10.870 -1.7667  0.2627  0.5378
  359MOL0     H49537   8.141   5.171  10.940 -0.3592  0.9806 -3.4829
  359MOL0     H49538   7.806   5.308  10.768 -0.1552  0.3190 -0.1277
  359MOL0     H49539   8.447   4.874  11.160 -0.1914 -1.5794 -1.3007
  359MOL0     H49540   8.639   4.880  11.257 -1.1760 -2.7569 -1.9551
  359MOL0     H49541   8.771   4.857  11.143  0.6088  0.6563 -0.5606
  359MOL0     H49542   8.755   5.019  11.222  2.6283 -0.0256 -4.4737
  360MOL0     O49543   1.329   0.702  10.507 -0.1174 -0.3448 -0.3952
  360MOL0     C49544   1.354   0.806  10.464  0.4946 -0.1690  0.9857
  360MOL0     O49545   1.269   0.903  10.450 -0.2383  0.6295 -0.0643
  360MOL0     C49546   1.147   0.911  10.509  0.4961 -0.8236  0.3156
  360MOL0     C49547   1.078   1.036  10.476 -0.3761  0.2465 -0.7920
  360MOL0     C49548   0.957   1.073  10.543  0.0498 -0.0643 -0.6275
  360MOL0     C49549   0.905   0.986  10.637 -0.4592  0.6255  0.5747
  360MOL0     O49550   0.798   1.040  10.705  0.4915  0.1310  0.2932
  360MOL0     C49551   0.765   0.997  10.843  0.2084  0.3258  0.0545
  360MOL0     C49552   0.652   0.894  10.841 -0.2747  0.6536 -0.6201
  360MOL0     C49553   0.519   0.959  10.817 -0.3801 -0.0404 -0.4241
  360MOL0     C49554   0.409   0.863  10.785 -0.2805  0.0991  0.0554
  360MOL0     C49555   0.267   0.918  10.784  0.0829  0.5483  0.0297
  360MOL0     C49556   0.174   0.828  10.711 -0.4614  0.8232  0.0242
  360MOL0     C49557   0.045   0.892  10.669  1.0458  0.4430  0.7962
  360MOL0     C49558  -0.039   0.937  10.793 -0.4903 -0.3516  0.4977
  360MOL0     N49559  -0.182   0.941  10.764 -0.2940  0.8159 -0.6359
  360MOL0     C49560  -0.270   0.839  10.783  0.4719  0.3395 -0.4809
  360MOL0     C49561  -0.390   0.892  10.752 -0.4813  0.5024  0.4352
  360MOL0     C49562  -0.519   0.811  10.743 -0.1451 -0.0504 -0.3166
  360MOL0     C49563  -0.605   0.820  10.873 -0.6081  1.0509  0.3832
  360MOL0     C49564  -0.588   0.706  10.970 -0.2714 -1.0770 -0.0618
  360MOL0     C49565  -0.647   0.758  11.098  0.6396 -0.0337  0.6601
  360MOL0     O49566  -0.647   0.658  11.197  0.3048 -0.2082 -0.3921
  360MOL0     C49567  -0.534   0.576  11.210  0.4741 -0.1518 -0.8951
  360MOL0     C49568  -0.400   0.612  11.191 -0.2195  0.0455 -0.1171
  360MOL0     C49569  -0.292   0.526  11.208 -0.1986  0.0696  0.7621
  360MOL0     C49570  -0.159   0.590  11.172  0.4092  0.7146  0.2519
  360MOL0     C49571  -0.314   0.390  11.249 -0.0212  1.1725  0.2646
  360MOL0     C49572  -0.205   0.299  11.270  0.5775  0.3510 -0.1386
  360MOL0     O49573  -0.084   0.316  11.207 -0.1035  0.2961 -0.6631
  360MOL0     C49574   0.011   0.225  11.236 -0.1890  0.6375  0.3107
  360MOL0     C49575   0.114   0.250  11.328  0.1373 -0.2990  0.0456
  360MOL0     C49576   0.201   0.148  11.353 -0.0749  0.2403  0.5420
  360MOL0     C49577   0.197   0.021  11.279 -0.0194 -0.4053  0.1180
  360MOL0     O49578   0.316  -0.059  11.293  0.5374 -0.4163 -0.3848
  360MOL0     C49579   0.302  -0.202  11.279 -0.4687  0.1190 -0.2568
  360MOL0     C49580   0.425  -0.278  11.341 -0.1827  0.0950  0.2586
  360MOL0     C49581   0.510  -0.336  11.234 -0.5734  0.6506 -1.2481
  360MOL0     C49582   0.616  -0.427  11.296  0.2009 -1.0308  0.1594
  360MOL0     C49583   0.721  -0.462  11.186 -0.4877  0.3230  0.4012
  360MOL0     C49584   0.824  -0.556  11.237 -0.0061  0.0544 -0.1824
  360MOL0     C49585   0.901  -0.635  11.132 -0.2387  0.1337  0.0427
  360MOL0     C49586   0.989  -0.760  11.184  0.2562 -0.4118  0.1524
  360MOL0    Cl49587   1.097  -0.703  11.327 -0.3165  0.0547  0.3944
  360MOL0     C49588   0.090   0.004  11.189  0.0145 -0.0050  0.5637
  360MOL0     C49589  -0.003   0.103  11.174 -0.2064  0.5997 -0.1559
  360MOL0     O49590  -0.228   0.201  11.348  0.5080 -0.4663  0.6818
  360MOL0     C49591  -0.448   0.344  11.268 -0.0657 -0.1007  0.1907
  360MOL0     C49592  -0.554   0.442  11.257 -0.2771 -0.4485  0.5710
  360MOL0     N49593  -0.376   1.029  10.733  0.4320 -0.9133 -0.1149
  360MOL0     N49594  -0.253   1.051  10.744 -0.1809 -0.1766  0.3967
  360MOL0     C49595   0.967   0.866  10.656  0.0742  0.8632 -0.0676
  360MOL0     C49596   1.082   0.824  10.596 -0.0185 -1.5627  0.3233
  360MOL0     C49597   1.493   0.827  10.437  0.2812 -0.2717  0.3846
  360MOL0     C49598   1.539   0.963  10.447 -0.9476  0.0747 -0.0888
  360MOL0     C49599   1.674   0.992  10.439  0.4141  0.0733 -0.1796
  360MOL0     C49600   1.766   0.891  10.403  0.2072 -0.2530 -0.8307
  360MOL0     O49601   1.900   0.905  10.401  0.2225  0.5695 -0.3618
  360MOL0     C49602   1.943   1.028  10.361  0.2969  0.4798  0.7840
  360MOL0     C49603   2.005   1.115  10.465 -0.2127 -1.5605 -0.2032
  360MOL0     C49604   2.132   1.052  10.525 -0.1395  0.5184 -0.1849
  360MOL0     C49605   2.109   0.944  10.638  0.0827 -0.3362 -0.9628
  360MOL0     C49606   2.024   1.002  10.744 -0.4638  0.8494 -0.6396
  360MOL0     C49607   1.962   1.036  10.844  0.0593  0.9416  0.5278
  360MOL0     C49608   1.717   0.760  10.382 -0.1492 -1.1229 -0.1307
  360MOL0     C49609   1.584   0.722  10.393 -0.3403 -1.2470 -0.0635
  360MOL0     C49610   1.542   0.582  10.355 -0.6243  0.8174  0.5758
  360MOL0     H49611   1.114   1.117  10.413  0.3258  1.3280  0.9454
  360MOL0     H49612   0.910   1.170  10.529  0.8345  0.5658  0.8604
  360MOL0     H49613   0.736   1.084  10.903  1.7774  2.7734 -2.4865
  360MOL0     H49614   0.857   0.953  10.882 -1.2620 -1.9350  1.1974
  360MOL0     H49615   0.678   0.809  10.776 -0.7636  1.8732 -2.4993
  360MOL0     H49616   0.641   0.848  10.939  0.8047  1.4419 -0.0990
  360MOL0     H49617   0.498   1.022  10.904  1.3613 -0.1336  0.0910
  360MOL0     H49618   0.525   1.042  10.746  0.7960  1.3203  1.1821
  360MOL0     H49619   0.434   0.827  10.685 -1.7985  1.4136 -0.8614
  360MOL0     H49620   0.417   0.776  10.850 -4.0948 -1.7941 -1.6828
  360MOL0     H49621   0.270   1.016  10.735  1.4835  0.0465 -0.9207
  360MOL0     H49622   0.232   0.949  10.883 -0.6879  0.8470 -0.3237
  360MOL0     H49623   0.226   0.787  10.624  0.5669 -1.5088  1.6386
  360MOL0     H49624   0.156   0.737  10.769  2.4516  1.7939  2.7040
  360MOL0     H49625  -0.022   0.824  10.617  1.0299  0.5700  0.6511
  360MOL0     H49626   0.088   0.972  10.606  1.2597  2.0587  2.8827
  360MOL0     H49627  -0.004   0.873  10.874  4.5166 -4.6607 -4.2449
  360MOL0     H49628  -0.005   1.038  10.821 -0.7958 -0.2013  0.3385
  360MOL0     H49629  -0.248   0.738  10.815 -1.3542  0.3563  0.9861
  360MOL0     H49630  -0.502   0.705  10.723  1.3198 -0.7469  3.6172
  360MOL0     H49631  -0.578   0.855  10.662 -2.1562 -1.1156  0.4868
  360MOL0     H49632  -0.585   0.914  10.926  2.3243  1.8384 -1.8275
  360MOL0     H49633  -0.709   0.819  10.841 -1.5974 -1.2679  3.2157
  360MOL0     H49634  -0.649   0.620  10.941 -3.3323 -0.5020  3.8127
  360MOL0     H49635  -0.480   0.687  10.978 -0.0099 -1.1908 -2.8241
  360MOL0     H49636  -0.587   0.841  11.137 -0.2498  0.2682  1.4080
  360MOL0     H49637  -0.751   0.790  11.093  0.1327 -1.5117  1.1312
  360MOL0     H49638  -0.386   0.719  11.177  0.8612  0.4335  3.0258
  360MOL0     H49639  -0.122   0.542  11.081 -0.9995 -1.3043  0.6744
  360MOL0     H49640  -0.080   0.556  11.240  1.4405  0.5228 -0.9970
  360MOL0     H49641  -0.167   0.699  11.172 -1.3497  0.7080  3.1464
  360MOL0     H49642   0.129   0.349  11.372  3.4495 -1.6441  2.3361
  360MOL0     H49643   0.286   0.166  11.419 -0.4351 -1.0011  1.3802
  360MOL0     H49644   0.217  -0.240  11.336  1.1214 -1.3333  1.2972
  360MOL0     H49645   0.289  -0.242  11.178 -3.8260  0.5288 -0.0832
  360MOL0     H49646   0.478  -0.206  11.404  0.9203  0.2900 -0.8689
  360MOL0     H49647   0.378  -0.358  11.400 -0.1209  0.9951  1.5772
  360MOL0     H49648   0.554  -0.274  11.155 -0.6338  1.4605 -0.6534
  360MOL0     H49649   0.443  -0.410  11.190 -2.0429  1.5970 -0.6862
  360MOL0     H49650   0.571  -0.513  11.346  2.3468 -1.5120  1.4178
  360MOL0     H49651   0.663  -0.359  11.367 -1.9105  0.4515  0.2055
  360MOL0     H49652   0.668  -0.506  11.102 -1.4974  0.9668  0.6766
  360MOL0     H49653   0.766  -0.375  11.137  0.0058 -0.4626 -0.5697
  360MOL0     H49654   0.780  -0.622  11.312 -1.8991  0.4482 -0.8839
  360MOL0     H49655   0.894  -0.497  11.297  1.0732 -3.4519  2.2722
  360MOL0     H49656   0.966  -0.572  11.071 -0.5039 -0.7726 -1.2158
  360MOL0     H49657   0.834  -0.683  11.060  2.3746  0.9323 -3.1883
  360MOL0     H49658   1.052  -0.801  11.105  2.7588 -0.3504  1.9891
  360MOL0     H49659   0.921  -0.841  11.210 -1.2697  1.0279  0.8638
  360MOL0     H49660   0.083  -0.080  11.122 -0.8905  0.1644  0.4336
  360MOL0     H49661  -0.072   0.093  11.091  0.7755  1.6555 -1.1352
  360MOL0     H49662  -0.467   0.241  11.299  0.2239 -0.4814 -0.8361
  360MOL0     H49663  -0.657   0.416  11.282 -0.6349  0.3959  0.0262
  360MOL0     H49664   0.930   0.790  10.725 -0.8920  1.1125 -0.2903
  360MOL0     H49665   1.131   0.730  10.620 -1.1158 -2.2151  0.0886
  360MOL0     H49666   1.470   1.031  10.495  0.6532  0.0261  2.4634
  360MOL0     H49667   1.701   1.094  10.465 -2.1318  0.9461 -0.7166
  360MOL0     H49668   2.015   1.009  10.281  0.4517 -1.8194  1.4115
  360MOL0     H49669   1.860   1.086  10.321  0.5863 -0.0289 -0.6105
  360MOL0     H49670   1.930   1.132  10.542  1.6678  1.4713  1.1728
  360MOL0     H49671   2.034   1.205  10.410 -1.6407 -0.6724  0.4421
  360MOL0     H49672   2.196   1.018  10.443  2.0288  1.1748  1.1398
  360MOL0     H49673   2.187   1.133  10.574 -1.4371  1.6629 -0.5638
  360MOL0     H49674   2.203   0.929  10.691 -0.6575  1.9400  1.1374
  360MOL0     H49675   2.080   0.845  10.600 -4.8860  0.1576  0.8180
  360MOL0     H49676   1.911   1.057  10.936  0.2599 -0.4336  0.9923
  360MOL0     H49677   1.796   0.693  10.350 -0.2923 -2.0805  1.4200
  360MOL0     H49678   1.623   0.531  10.302 -1.9801  0.0970 -0.9156
  360MOL0     H49679   1.507   0.520  10.438  1.3087 -0.6906  0.3277
  360MOL0     H49680   1.461   0.595  10.282  1.6514  5.4384 -1.4844
  361MOL0     O49681   0.597   2.277  10.059  0.4293  0.1930 -0.1915
  361MOL0     C49682   0.603   2.179   9.993 -0.5256  0.4068  0.2120
  361MOL0     O49683   0.721   2.123   9.954 -0.2549 -0.0989  0.5200
  361MOL0     C49684   0.840   2.179   9.993  0.4138 -0.2319  1.0298
  361MOL0     C49685   0.929   2.100  10.058  0.3512  0.0352  0.3585
  361MOL0     C49686   1.053   2.139  10.096 -1.0980 -0.0330  1.0252
  361MOL0     C49687   1.101   2.270  10.073  0.1690 -0.3692  0.6333
  361MOL0     O49688   1.240   2.299  10.092  0.5738 -0.1098 -0.5521
  361MOL0     C49689   1.286   2.435  10.076  0.2668  0.4619  0.1759
  361MOL0     C49690   1.434   2.442  10.096  0.2621 -0.1632  0.3331
  361MOL0     C49691   1.476   2.381  10.230  0.4532  1.1155  0.5665
  361MOL0     C49692   1.626   2.418  10.255 -0.7918 -0.0363 -0.4830
  361MOL0     C49693   1.659   2.382  10.399  0.1098  0.4638 -0.7585
  361MOL0     C49694   1.651   2.239  10.444 -0.1635  0.5893  0.9959
  361MOL0     C49695   1.753   2.129  10.390 -0.6233 -0.1455  0.3718
  361MOL0     C49696   1.738   1.985  10.436 -1.2506  0.2382  0.4402
  361MOL0     N49697   1.862   1.915  10.407 -0.1128  0.1324 -1.2638
  361MOL0     C49698   1.983   1.960  10.450  0.8267  0.7016 -0.3753
  361MOL0     C49699   2.075   1.902  10.361  0.2085 -0.0980 -0.0229
  361MOL0     C49700   2.223   1.930  10.350 -0.5228  1.2130 -0.1706
  361MOL0     C49701   2.291   1.967  10.475  0.5915  0.6976  0.0704
  361MOL0     C49702   2.439   1.974  10.444  0.1853  0.1043  1.0480
  361MOL0     C49703   2.479   2.081  10.346 -0.3702 -0.4156 -0.2804
  361MOL0     O49704   2.615   2.078  10.344  0.2762  0.5031  0.2666
  361MOL0     C49705   2.671   2.115  10.222  0.3599  0.1902 -0.0358
  361MOL0     C49706   2.616   2.208  10.132  0.0448 -0.6825  0.3307
  361MOL0     C49707   2.686   2.259  10.025 -0.2594 -0.3195  0.9460
  361MOL0     C49708   2.617   2.366   9.938 -0.1904  0.1443  0.6563
  361MOL0     C49709   2.813   2.214   9.998 -0.7261 -1.1906  0.3721
  361MOL0     C49710   2.902   2.276   9.897  0.4003 -0.0470  0.2248
  361MOL0     O49711   2.953   2.192   9.799 -0.2818 -0.5500  0.3919
  361MOL0     C49712   3.007   2.261   9.692  0.0092 -0.0952  0.1284
  361MOL0     C49713   2.944   2.366   9.619  0.8295  0.4575 -0.4763
  361MOL0     C49714   3.011   2.421   9.515 -1.0056 -0.5371 -0.6535
  361MOL0     C49715   3.131   2.373   9.475  0.0775  0.1561 -0.5343
  361MOL0     O49716   3.174   2.436   9.364 -0.3621 -1.0119 -0.0459
  361MOL0     C49717   3.304   2.404   9.318 -1.1097  0.1353  0.4804
  361MOL0     C49718   3.348   2.502   9.212  0.2493  1.2297  0.6220
  361MOL0     C49719   3.487   2.467   9.162  0.6220 -0.9142  0.0947
  361MOL0     C49720   3.529   2.542   9.046  0.3405 -0.2219 -0.0937
  361MOL0     C49721   3.457   2.503   8.917  1.4386 -0.2119  0.1712
  361MOL0     C49722   3.534   2.547   8.793 -1.0189 -0.2085 -0.3442
  361MOL0     C49723   3.576   2.700   8.780  0.3731  0.5020  0.7523
  361MOL0     C49724   3.652   2.724   8.643 -0.5174 -0.6236  0.6191
  361MOL0    Cl49725   3.566   2.656   8.500 -0.6065 -0.1494  0.0135
  361MOL0     C49726   3.185   2.255   9.530  0.6991 -0.3780  0.1332
  361MOL0     C49727   3.128   2.204   9.639  0.1493 -0.2488  0.7640
  361MOL0     O49728   2.935   2.389   9.922 -0.5269 -0.2180 -0.0755
  361MOL0     C49729   2.867   2.113  10.084  0.7091 -0.1598  0.2128
  361MOL0     C49730   2.796   2.062  10.194  0.0667  0.9558  1.0189
  361MOL0     N49731   2.000   1.838  10.267  0.1620 -0.1166  0.0020
  361MOL0     N49732   1.882   1.843  10.298  0.2778 -0.1240 -0.1897
  361MOL0     C49733   1.007   2.359  10.009  1.1275 -0.4950  0.6224
  361MOL0     C49734   0.880   2.310   9.959 -0.1353  0.2539 -0.3246
  361MOL0     C49735   0.477   2.122   9.939 -1.1050 -0.5350 -0.3238
  361MOL0     C49736   0.487   2.048   9.821 -0.7380 -0.9575  0.0402
  361MOL0     C49737   0.373   2.016   9.743  0.8326  0.7402 -0.1701
  361MOL0     C49738   0.242   2.033   9.789 -0.1457 -0.0510 -0.9117
  361MOL0     O49739   0.128   2.004   9.720  0.6421  0.5249 -0.0792
  361MOL0     C49740   0.127   1.957   9.584  0.2259 -1.1867  0.0517
  361MOL0     C49741  -0.014   1.991   9.523 -0.1691 -0.2015  0.0854
  361MOL0     C49742  -0.124   1.918   9.600  0.0196 -0.5167  0.6902
  361MOL0     C49743  -0.262   1.972   9.559  0.4996  0.5829  0.4470
  361MOL0     C49744  -0.371   1.876   9.613 -0.2863 -0.4729  1.2171
  361MOL0     C49745  -0.448   1.797   9.657 -0.2121  0.2302 -0.0152
  361MOL0     C49746   0.235   2.086   9.925  0.7294 -1.0262  0.4727
  361MOL0     C49747   0.348   2.130   9.993  0.0850 -0.3085 -0.4255
  361MOL0     C49748   0.320   2.185  10.126 -0.0800  0.9475 -0.9529
  361MOL0     H49749   0.895   2.001  10.087  0.1781 -0.5090 -1.5457
  361MOL0     H49750   1.115   2.057  10.132 -2.0085 -0.5650  1.4046
  361MOL0     H49751   1.232   2.501  10.144  1.0757  2.4029 -1.0104
  361MOL0     H49752   1.266   2.470   9.975  2.4749  1.5596  0.0556
  361MOL0     H49753   1.476   2.383  10.014  1.9470  0.5415  0.6561
  361MOL0     H49754   1.455   2.549  10.095 -2.6798  0.5844  3.3411
  361MOL0     H49755   1.418   2.432  10.307  0.5573 -1.3743  2.3918
  361MOL0     H49756   1.453   2.274  10.233 -0.4964  1.2769 -0.1219
  361MOL0     H49757   1.688   2.351  10.194  1.8210 -2.1309  3.9379
  361MOL0     H49758   1.643   2.525  10.239 -2.8437  0.2390 -1.0418
  361MOL0     H49759   1.576   2.431  10.450 -2.9658 -1.7366 -3.2917
  361MOL0     H49760   1.755   2.433  10.413  1.3249 -1.4172 -1.7332
  361MOL0     H49761   1.662   2.224  10.552  2.3779  1.4982  0.9384
  361MOL0     H49762   1.550   2.214  10.414  1.2962  0.3510 -4.7683
  361MOL0     H49763   1.849   2.161  10.431  0.0934 -2.0486  0.2834
  361MOL0     H49764   1.757   2.127  10.281 -1.5975 -2.6075  0.3270
  361MOL0     H49765   1.716   1.970  10.542  1.6331 -4.1483  0.6445
  361MOL0     H49766   1.658   1.931  10.384  0.5293 -1.8200 -0.3053
  361MOL0     H49767   2.005   2.022  10.536  0.6056  0.6873 -0.3061
  361MOL0     H49768   2.234   2.000  10.266 -1.8567 -1.3390 -2.6455
  361MOL0     H49769   2.276   1.843  10.312  0.1782  1.9280 -0.8772
  361MOL0     H49770   2.256   2.064  10.510  0.2927  0.7155 -0.2865
  361MOL0     H49771   2.276   1.898  10.559  2.3064  0.7026  0.4268
  361MOL0     H49772   2.494   1.996  10.536  3.5501  2.5415 -1.2689
  361MOL0     H49773   2.470   1.876  10.405 -1.1189 -0.9674  2.5694
  361MOL0     H49774   2.437   2.056  10.248 -1.9476 -0.3805  0.3515
  361MOL0     H49775   2.439   2.182  10.365 -0.3982 -0.3937 -0.4538
  361MOL0     H49776   2.523   2.257  10.160 -0.0213  0.2124 -1.2985
  361MOL0     H49777   2.681   2.395   9.855 -0.5875 -0.1378  0.2481
  361MOL0     H49778   2.595   2.461   9.987  1.8639  0.6566  0.6620
  361MOL0     H49779   2.523   2.318   9.910 -0.9571  2.3882 -0.8898
  361MOL0     H49780   2.852   2.409   9.656  1.1797  0.9743 -0.1952
  361MOL0     H49781   2.972   2.509   9.465  0.7195  0.8335  0.2887
  361MOL0     H49782   3.377   2.417   9.398  2.7743 -0.6044 -2.6635
  361MOL0     H49783   3.307   2.301   9.282  1.2837 -0.1464  1.3010
  361MOL0     H49784   3.264   2.497   9.141  2.9393 -1.9860 -2.7843
  361MOL0     H49785   3.356   2.601   9.258  4.2971  1.2583  0.2544
  361MOL0     H49786   3.494   2.359   9.145 -0.7024 -1.3011  1.7059
  361MOL0     H49787   3.565   2.483   9.237  0.8777 -1.8338  0.0412
  361MOL0     H49788   3.638   2.537   9.041  0.3886  1.5569 -2.5023
  361MOL0     H49789   3.511   2.648   9.069 -0.0967 -0.7545  2.3001
  361MOL0     H49790   3.442   2.395   8.913 -2.4930  0.1343  0.9993
  361MOL0     H49791   3.354   2.541   8.914  1.2607 -0.5245  1.6824
  361MOL0     H49792   3.470   2.516   8.710  0.2732 -1.1538 -1.0144
  361MOL0     H49793   3.626   2.490   8.774  0.1424  2.4811 -3.7633
  361MOL0     H49794   3.645   2.732   8.858  2.6512 -0.3206 -0.8279
  361MOL0     H49795   3.477   2.746   8.793  0.0080 -0.7128  2.7218
  361MOL0     H49796   3.744   2.665   8.649  0.3559  0.5678 -0.4516
  361MOL0     H49797   3.680   2.829   8.632 -0.5045 -0.5279  1.4894
  361MOL0     H49798   3.267   2.202   9.482 -0.3611 -1.4404 -0.5759
  361MOL0     H49799   3.170   2.116   9.687  1.9463 -0.7710 -1.6015
  361MOL0     H49800   2.959   2.061  10.056  1.0419  1.6571 -2.4531
  361MOL0     H49801   2.834   1.975  10.247  2.4188  0.3820 -1.3913
  361MOL0     H49802   1.029   2.464   9.989 -0.8700 -0.5645 -2.6728
  361MOL0     H49803   0.826   2.372   9.889  3.1484  1.2787 -2.1746
  361MOL0     H49804   0.577   2.015   9.769 -0.3896  3.1502 -2.4375
  361MOL0     H49805   0.387   1.974   9.644 -1.5796 -2.9937  0.8476
  361MOL0     H49806   0.212   2.001   9.531 -1.3246  0.2348 -1.3211
  361MOL0     H49807   0.143   1.849   9.569  0.1893 -1.2840  0.6629
  361MOL0     H49808  -0.011   1.965   9.417 -0.7459  1.6082 -0.4123
  361MOL0     H49809  -0.024   2.100   9.524  3.0627  0.2393  2.9965
  361MOL0     H49810  -0.115   1.814   9.569  1.5918 -0.2786  0.2455
  361MOL0     H49811  -0.115   1.930   9.709 -0.1042 -2.6161  0.9724
  361MOL0     H49812  -0.262   1.968   9.450 -0.8293  0.0370  0.4411
  361MOL0     H49813  -0.278   2.072   9.600  1.3279  0.5495  0.8574
  361MOL0     H49814  -0.520   1.725   9.691  1.6252 -0.8902  1.8000
  361MOL0     H49815   0.135   2.090   9.966  0.2404 -2.0252 -0.5405
  361MOL0     H49816   0.393   2.132  10.188 -0.7732  2.5649  1.4222
  361MOL0     H49817   0.340   2.293  10.129  1.8130  0.6055  0.9617
  361MOL0     H49818   0.219   2.177  10.169 -0.4012  3.7872 -0.9659
  362MOL0     O49819   9.419   3.795   0.550  0.1306 -0.5426  1.0046
  362MOL0     C49820   9.393   3.788   0.428 -0.0074  0.3435 -0.0365
  362MOL0     O49821   9.462   3.842   0.321  0.2081 -0.2640  0.0226
  362MOL0     C49822   9.580   3.908   0.352 -0.0073 -0.3538  1.0454
  362MOL0     C49823   9.580   4.023   0.436 -0.6546  0.4726 -0.1951
  362MOL0     C49824   9.698   4.071   0.494  0.1994 -0.0432  0.2995
  362MOL0     C49825   9.812   4.024   0.450  0.5579 -1.5840 -0.3194
  362MOL0     O49826   9.936   4.082   0.477 -0.0900  0.5126  0.6943
  362MOL0     C49827   9.956   4.200   0.550  0.4410 -0.3906  0.0190
  362MOL0     C49828  10.101   4.212   0.598  0.4327  0.3693  0.2432
  362MOL0     C49829  10.205   4.154   0.497 -0.3471  0.8010  0.0705
  362MOL0     C49830  10.197   4.242   0.371  0.5210 -0.3251 -0.1672
  362MOL0     C49831  10.294   4.205   0.262  0.7159  0.9501  0.7849
  362MOL0     C49832  10.262   4.310   0.150  0.4868  0.6120  0.0951
  362MOL0     C49833  10.379   4.311   0.055 -0.2584 -0.1639  0.5706
  362MOL0     C49834  10.342   4.203  -0.057 -0.3680  0.5650  0.1670
  362MOL0     N49835  10.462   4.182  -0.141 -0.1455 -0.6751  0.7739
  362MOL0     C49836  10.459   4.185  -0.281 -0.3818  0.5415 -0.0148
  362MOL0     C49837  10.578   4.126  -0.301 -0.3523 -0.6038 -0.3040
  362MOL0     C49838  10.613   4.067  -0.431 -0.3776 -0.0423 -0.3314
  362MOL0     C49839  10.702   4.174  -0.492 -0.3278 -0.9977  0.0559
  362MOL0     C49840  10.770   4.128  -0.621  0.1843  0.6122 -0.4946
  362MOL0     C49841  10.815   4.243  -0.707  0.2338  0.0604  0.0407
  362MOL0     O49842  10.935   4.307  -0.661  0.1846  0.3951  0.0380
  362MOL0     C49843  11.048   4.271  -0.735  0.9032  0.2091  0.7866
  362MOL0     C49844  11.108   4.148  -0.737  0.2222  0.0968  0.0112
  362MOL0     C49845  11.234   4.128  -0.804  1.3974 -0.8371 -0.0792
  362MOL0     C49846  11.306   3.993  -0.790  0.7622 -0.4198 -0.1996
  362MOL0     C49847  11.284   4.238  -0.881  0.2895 -0.2085  0.3529
  362MOL0     C49848  11.392   4.218  -0.974  0.4032 -0.0134  0.0375
  362MOL0     O49849  11.483   4.321  -0.979  0.3939 -0.3551 -0.3122
  362MOL0     C49850  11.533   4.366  -1.098  0.5097  0.4828 -0.5970
  362MOL0     C49851  11.489   4.341  -1.230 -0.8333 -0.1266 -0.4007
  362MOL0     C49852  11.547   4.418  -1.337  0.8251 -0.0702  0.4280
  362MOL0     C49853  11.651   4.503  -1.316 -0.7467  0.9521  0.5997
  362MOL0     O49854  11.690   4.554  -1.438  0.9477  0.0088  0.3974
  362MOL0     C49855  11.822   4.599  -1.448  0.6425 -0.5507  0.0735
  362MOL0     C49856  11.920   4.488  -1.472 -0.0278 -0.3808  0.2838
  362MOL0     C49857  11.930   4.450  -1.622 -0.4205  0.0997  0.1905
  362MOL0     C49858  12.049   4.360  -1.642  1.2930  0.3712 -0.2938
  362MOL0     C49859  12.059   4.292  -1.779 -0.5862  0.0693 -0.0357
  362MOL0     C49860  12.104   4.381  -1.891 -0.6505  0.5210  0.2207
  362MOL0     C49861  12.104   4.308  -2.027 -0.0008 -0.4261 -0.6650
  362MOL0     C49862  12.135   4.409  -2.140 -0.0596 -1.2088 -0.1911
  362MOL0    Cl49863  12.304   4.467  -2.138  0.4003 -0.3718  0.1341
  362MOL0     C49864  11.711   4.522  -1.186 -0.4543 -0.0969 -0.3108
  362MOL0     C49865  11.645   4.454  -1.080  0.4025 -0.4502  0.1359
  362MOL0     O49866  11.384   4.132  -1.054  0.2730 -0.3272 -0.7058
  362MOL0     C49867  11.230   4.365  -0.870  0.1311 -0.0509  0.3514
  362MOL0     C49868  11.116   4.377  -0.798  0.4516  0.2616  0.2316
  362MOL0     N49869  10.654   4.101  -0.187  0.4920 -0.2574 -0.5959
  362MOL0     N49870  10.580   4.142  -0.088  0.9771  0.0219  0.2221
  362MOL0     C49871   9.817   3.915   0.361  0.1465 -0.1000  0.2217
  362MOL0     C49872   9.705   3.851   0.317 -0.5381  0.9446  0.4960
  362MOL0     C49873   9.294   3.692   0.384  0.5583  0.2923  0.0154
  362MOL0     C49874   9.267   3.582   0.468  0.3875  0.0500 -0.5485
  362MOL0     C49875   9.170   3.490   0.428  0.3563 -0.8782 -0.0188
  362MOL0     C49876   9.096   3.498   0.313  0.6205  0.2079 -0.3058
  362MOL0     O49877   8.999   3.412   0.278 -0.3903  0.4622 -0.8297
  362MOL0     C49878   8.938   3.312   0.366 -0.2825 -0.9405 -0.9626
  362MOL0     C49879   8.807   3.250   0.300 -0.5994 -0.1093 -0.4523
  362MOL0     C49880   8.743   3.131   0.379 -0.4254  0.4514  0.2400
  362MOL0     C49881   8.630   3.063   0.294 -0.2267 -0.1306  0.0503
  362MOL0     C49882   8.515   3.153   0.272 -0.4224  0.3205 -0.0417
  362MOL0     C49883   8.418   3.225   0.271 -0.3361 -0.8517  0.2292
  362MOL0     C49884   9.124   3.608   0.224 -0.2304 -0.5823 -0.2206
  362MOL0     C49885   9.218   3.705   0.260 -0.6563 -0.1398  0.7234
  362MOL0     C49886   9.226   3.824   0.166  0.1247  1.1565 -0.0968
  362MOL0     H49887   9.481   4.051   0.470 -1.4541  1.1048 -2.8072
  362MOL0     H49888   9.690   4.159   0.557  3.0454  0.3701  0.2143
  362MOL0     H49889   9.899   4.188   0.643 -0.2474 -1.0840 -0.4759
  362MOL0     H49890   9.932   4.291   0.495  2.1587 -0.3646 -0.7422
  362MOL0     H49891  10.137   4.309   0.633  0.4923 -0.1188  1.6129
  362MOL0     H49892  10.116   4.147   0.685  1.6502 -1.8962 -1.5507
  362MOL0     H49893  10.309   4.155   0.531 -0.1933 -1.1795 -0.2115
  362MOL0     H49894  10.173   4.053   0.471  0.7631  0.6614 -0.8356
  362MOL0     H49895  10.095   4.242   0.331 -0.2802 -0.6391  1.7345
  362MOL0     H49896  10.207   4.346   0.403  2.1307  0.3940 -2.7348
  362MOL0     H49897  10.276   4.101   0.235  1.2071  1.0106  0.2176
  362MOL0     H49898  10.397   4.222   0.295  2.0324 -0.4138 -2.2722
  362MOL0     H49899  10.169   4.284   0.098 -0.0988  2.0073  0.4114
  362MOL0     H49900  10.251   4.410   0.192 -0.8963 -0.0487  1.4081
  362MOL0     H49901  10.474   4.298   0.108 -0.1373 -0.1417  0.3600
  362MOL0     H49902  10.389   4.404  -0.000  1.0168 -0.0193  1.0165
  362MOL0     H49903  10.324   4.110  -0.002 -1.3540 -0.1047 -1.2337
  362MOL0     H49904  10.251   4.224  -0.113 -0.8988 -0.1225  0.7639
  362MOL0     H49905  10.378   4.214  -0.348 -1.3003 -2.4099 -0.3478
  362MOL0     H49906  10.532   4.051  -0.502  0.2492  0.8161 -1.2690
  362MOL0     H49907  10.663   3.971  -0.415 -3.1859 -1.7651 -1.1993
  362MOL0     H49908  10.634   4.259  -0.509  0.1433 -1.1142 -2.7825
  362MOL0     H49909  10.779   4.205  -0.420  0.1800  0.7818 -1.1820
  362MOL0     H49910  10.852   4.057  -0.608 -1.4753 -1.9649 -2.7902
  362MOL0     H49911  10.691   4.079  -0.680  0.1251 -2.5894  1.9524
  362MOL0     H49912  10.824   4.215  -0.812  4.0259 -0.8888  0.4628
  362MOL0     H49913  10.746   4.328  -0.695 -1.4666 -0.6296 -3.5682
  362MOL0     H49914  11.056   4.071  -0.680 -2.9229  1.6359 -0.5132
  362MOL0     H49915  11.409   4.008  -0.758  0.4298  0.1921  0.5884
  362MOL0     H49916  11.297   3.936  -0.884 -0.9704 -0.2937 -0.1543
  362MOL0     H49917  11.245   3.938  -0.717 -3.5450 -0.8169 -3.6039
  362MOL0     H49918  11.396   4.289  -1.251 -0.5187  0.1916 -2.7998
  362MOL0     H49919  11.507   4.400  -1.436 -1.7025 -3.7442  1.8886
  362MOL0     H49920  11.809   4.668  -1.531 -2.4805  1.3064  1.9142
  362MOL0     H49921  11.853   4.658  -1.361 -2.1683 -1.4294  1.8068
  362MOL0     H49922  12.013   4.534  -1.436 -1.3022  0.8163  2.1980
  362MOL0     H49923  11.892   4.391  -1.429 -0.4227 -0.0591  0.7460
  362MOL0     H49924  11.951   4.540  -1.681  0.7667  1.4829  2.5602
  362MOL0     H49925  11.836   4.406  -1.657 -0.6505  1.8091 -1.5030
  362MOL0     H49926  12.054   4.278  -1.569  0.7591 -0.2543 -0.9446
  362MOL0     H49927  12.137   4.421  -1.622  0.8119  0.7597  0.7064
  362MOL0     H49928  12.134   4.213  -1.764  0.3587  1.0340  0.4654
  362MOL0     H49929  11.968   4.236  -1.804  0.4949 -2.2318  0.8416
  362MOL0     H49930  12.204   4.420  -1.867 -0.5518 -0.9472  2.4844
  362MOL0     H49931  12.034   4.463  -1.906 -2.8953 -1.5336 -1.3326
  362MOL0     H49932  12.011   4.250  -2.032  1.1763 -2.3673 -0.9713
  362MOL0     H49933  12.187   4.237  -2.028 -0.2595 -1.1932  4.5249
  362MOL0     H49934  12.065   4.492  -2.153  1.4691 -0.1717 -2.4890
  362MOL0     H49935  12.126   4.350  -2.232 -0.5593  0.2226 -1.1141
  362MOL0     H49936  11.796   4.586  -1.162 -1.4744  1.9840 -1.8991
  362MOL0     H49937  11.675   4.473  -0.977  0.6620  3.6608 -0.4965
  362MOL0     H49938  11.264   4.449  -0.931  0.5773 -0.4236  0.0858
  362MOL0     H49939  11.069   4.475  -0.796  0.6631  0.3600  0.5412
  362MOL0     H49940   9.910   3.864   0.336  0.2115  0.5389 -0.9508
  362MOL0     H49941   9.725   3.758   0.264  1.5896  2.1329 -0.9794
  362MOL0     H49942   9.317   3.569   0.563  1.6017 -0.9156 -1.2806
  362MOL0     H49943   9.148   3.406   0.493  1.8280 -1.8852 -0.7603
  362MOL0     H49944   9.009   3.231   0.382 -0.8925 -1.4763 -0.9408
  362MOL0     H49945   8.932   3.367   0.461 -1.8342 -2.9338  0.1592
  362MOL0     H49946   8.824   3.225   0.195 -0.0289 -2.9853  0.2551
  362MOL0     H49947   8.723   3.320   0.294 -1.2909 -0.7238  1.3930
  362MOL0     H49948   8.807   3.054   0.423  0.2826  1.1121  0.3828
  362MOL0     H49949   8.708   3.169   0.476  0.6107 -1.6783  1.5339
  362MOL0     H49950   8.603   2.978   0.358  1.4575  0.6724  1.9056
  362MOL0     H49951   8.676   3.022   0.203  2.3648  0.6155  0.9335
  362MOL0     H49952   8.332   3.288   0.279  1.0086  0.8973  1.6581
  362MOL0     H49953   9.063   3.621   0.135 -0.0366 -1.5944 -0.5205
  362MOL0     H49954   9.137   3.849   0.109  1.4719  0.6917 -2.5340
  362MOL0     H49955   9.255   3.905   0.234  2.5341  0.0448  0.3209
  362MOL0     H49956   9.303   3.815   0.089 -0.8915  1.9256 -1.2359
  363MOL0     O49957   2.534  11.356   3.695  0.4425  0.2378  0.6930
  363MOL0     C49958   2.652  11.383   3.677 -0.9315 -0.1123 -0.6715
  363MOL0     O49959   2.760  11.313   3.728 -0.0229  0.4350  0.3231
  363MOL0     C49960   2.748  11.176   3.735 -0.0515 -0.0045 -0.3165
  363MOL0     C49961   2.865  11.117   3.777 -0.6698  0.0320 -0.5077
  363MOL0     C49962   2.883  10.976   3.779  0.1274 -0.1041  0.6898
  363MOL0     C49963   2.778  10.888   3.738  0.2575 -0.1474 -1.0439
  363MOL0     O49964   2.787  10.753   3.744 -0.0768  1.2818 -0.1528
  363MOL0     C49965   2.921  10.690   3.747 -1.1627 -0.4381  0.2400
  363MOL0     C49966   2.941  10.541   3.706  0.3623 -0.4343 -0.6862
  363MOL0     C49967   3.086  10.493   3.700  0.1689  0.5716 -0.2868
  363MOL0     C49968   3.093  10.338   3.690  0.1886  0.3711  0.1361
  363MOL0     C49969   3.043  10.284   3.552 -0.6467 -0.6303  0.8285
  363MOL0     C49970   3.138  10.300   3.429  0.0414  0.4886  0.1687
  363MOL0     C49971   3.267  10.227   3.459 -0.2639 -0.1072 -0.3521
  363MOL0     C49972   3.329  10.168   3.333  0.0381  0.0145 -0.3901
  363MOL0     N49973   3.446  10.073   3.357  0.8115 -0.2314 -0.6932
  363MOL0     C49974   3.432   9.969   3.446 -0.9673  0.6042 -0.0342
  363MOL0     C49975   3.559   9.915   3.449 -0.5084  0.8244  0.2577
  363MOL0     C49976   3.602   9.805   3.534  0.3688  0.2157 -0.8258
  363MOL0     C49977   3.625   9.682   3.441  0.1693  0.1179 -1.0065
  363MOL0     C49978   3.763   9.685   3.388 -1.3941  0.8159  0.7551
  363MOL0     C49979   3.790   9.562   3.297 -0.1939 -0.2986  0.3934
  363MOL0     O49980   3.929   9.562   3.270  0.8832 -0.4879 -0.2950
  363MOL0     C49981   4.002   9.444   3.241  0.1506 -1.0092 -0.8803
  363MOL0     C49982   3.945   9.326   3.178  0.0814  0.9436 -0.8958
  363MOL0     C49983   4.021   9.218   3.134  0.5616  0.3412 -0.7783
  363MOL0     C49984   3.937   9.094   3.098  0.7120 -0.1766  0.0039
  363MOL0     C49985   4.160   9.221   3.140  0.5445  0.4702  0.8140
  363MOL0     C49986   4.251   9.103   3.103  0.0321 -1.3562  0.2476
  363MOL0     O49987   4.381   9.133   3.105 -0.7009  0.0112 -0.9607
  363MOL0     C49988   4.480   9.056   3.067  0.8451 -0.5912  0.5813
  363MOL0     C49989   4.563   9.101   2.963 -0.1490 -0.3434  0.6086
  363MOL0     C49990   4.674   9.028   2.919  0.7789  0.1461  0.5639
  363MOL0     C49991   4.708   8.916   2.988  0.7807 -0.3282 -0.5384
  363MOL0     O49992   4.820   8.850   2.940 -0.6974  0.2747 -0.1346
  363MOL0     C49993   4.851   8.729   3.013 -0.1026  0.4714  0.3104
  363MOL0     C49994   4.997   8.694   2.993 -0.1810  0.1523  0.6253
  363MOL0     C49995   5.033   8.555   3.038 -0.3374 -0.4374  0.0294
  363MOL0     C49996   4.992   8.448   2.930  0.1522 -0.1421  0.5376
  363MOL0     C49997   5.020   8.318   2.997 -0.1586 -0.4415  0.4701
  363MOL0     C49998   4.938   8.205   2.918 -0.4367 -0.9791  0.3412
  363MOL0     C49999   5.017   8.074   2.936  0.3252 -0.7857 -0.3418
  363MOL0     C50000   4.960   7.972   2.834  0.3914 -0.3639 -0.1307
  363MOL0    Cl50001   4.813   7.902   2.891  0.0920 -0.1622 -0.1069
  363MOL0     C50002   4.617   8.865   3.092 -0.4072  0.6048  0.4784
  363MOL0     C50003   4.495   8.933   3.128 -0.3267  0.0210  0.2250
  363MOL0     O50004   4.202   8.987   3.087 -0.0442 -0.2062  0.1378
  363MOL0     C50005   4.217   9.341   3.190 -0.6021  0.1461 -1.0078
  363MOL0     C50006   4.145   9.448   3.250 -0.6817  0.0451  0.1746
  363MOL0     N50007   3.648   9.996   3.377  1.2919  0.6907  0.0063
  363MOL0     N50008   3.575  10.084   3.323  0.1377  0.2437  0.1679
  363MOL0     C50009   2.653  10.952   3.723  0.0145 -1.0042  0.2251
  363MOL0     C50010   2.634  11.090   3.716  0.3563  0.7498 -1.0494
  363MOL0     C50011   2.682  11.526   3.641  0.0001  0.5227 -0.0599
  363MOL0     C50012   2.791  11.587   3.700  0.1349 -0.4550  0.2529
  363MOL0     C50013   2.808  11.725   3.674  0.2951 -0.7405 -0.6852
  363MOL0     C50014   2.707  11.800   3.609 -0.8925 -0.2942  0.3083
  363MOL0     O50015   2.738  11.935   3.600 -0.4200 -0.1183 -0.7346
  363MOL0     C50016   2.638  12.015   3.534  0.0893  0.5865  0.0438
  363MOL0     C50017   2.678  12.160   3.548  0.2251  0.5651  0.6681
  363MOL0     C50018   2.582  12.260   3.482 -0.5807  0.2957  0.1866
  363MOL0     C50019   2.640  12.389   3.460  0.1499  0.9317 -0.3708
  363MOL0     C50020   2.559  12.501   3.408  0.4050 -0.5632 -0.7887
  363MOL0     C50021   2.501  12.601   3.373 -0.6639 -0.0344  0.0479
  363MOL0     C50022   2.608  11.734   3.540  1.4931 -0.0825 -0.1918
  363MOL0     C50023   2.593  11.600   3.559 -0.4389 -1.0712 -0.4550
  363MOL0     C50024   2.489  11.535   3.473 -0.2362  0.8606  0.4656
  363MOL0     H50025   2.944  11.189   3.792 -2.5872  2.5080 -1.4365
  363MOL0     H50026   2.982  10.933   3.794  1.3650  2.3491  0.1009
  363MOL0     H50027   2.955  10.710   3.849 -0.1148  1.2093 -0.3756
  363MOL0     H50028   2.999  10.749   3.696 -2.3205  3.1684  2.2688
  363MOL0     H50029   2.886  10.478   3.777 -0.5791  0.5688 -0.4923
  363MOL0     H50030   2.891  10.529   3.610 -0.3046  2.7758 -0.8430
  363MOL0     H50031   3.127  10.540   3.610  0.2018  0.2296 -0.4554
  363MOL0     H50032   3.156  10.526   3.776  0.2632 -0.6351  0.1751
  363MOL0     H50033   3.196  10.307   3.708  0.2590 -0.5726 -1.6817
  363MOL0     H50034   3.025  10.312   3.772 -0.7346  0.9993 -0.4059
  363MOL0     H50035   2.947  10.330   3.525  0.7500  0.1396 -3.8316
  363MOL0     H50036   3.026  10.177   3.564  0.9226 -0.6965  3.0230
  363MOL0     H50037   3.084  10.258   3.344 -2.1168  1.0337  1.2161
  363MOL0     H50038   3.162  10.404   3.407  2.0754  0.2429  0.9459
  363MOL0     H50039   3.249  10.144   3.528 -3.1873 -0.8780 -1.8798
  363MOL0     H50040   3.345  10.297   3.489  0.2900  1.1608 -4.2181
  363MOL0     H50041   3.255  10.105   3.285  0.7290 -2.1287  1.1854
  363MOL0     H50042   3.363  10.244   3.262  5.2077 -1.7897 -0.2824
  363MOL0     H50043   3.347   9.922   3.494  0.6943 -1.2136  1.3266
  363MOL0     H50044   3.526   9.783   3.610 -0.5476  1.2834 -1.3983
  363MOL0     H50045   3.694   9.828   3.589  0.5857 -1.0460 -0.6287
  363MOL0     H50046   3.611   9.597   3.509  0.9793 -0.4064 -1.4747
  363MOL0     H50047   3.547   9.690   3.366 -0.7838  0.9662  0.0372
  363MOL0     H50048   3.774   9.774   3.325 -0.7798  1.5526  1.8805
  363MOL0     H50049   3.830   9.672   3.473  1.9691 -0.5555 -1.8540
  363MOL0     H50050   3.749   9.471   3.341 -2.3389  1.4155  2.1505
  363MOL0     H50051   3.733   9.568   3.204 -4.4702 -2.1623  2.6597
  363MOL0     H50052   3.837   9.330   3.172  0.1156  0.3273 -2.5592
  363MOL0     H50053   3.929   9.017   3.176  1.3676  0.2113  0.4620
  363MOL0     H50054   3.966   9.047   3.004 -1.9667  0.2908 -1.1594
  363MOL0     H50055   3.832   9.117   3.078  0.8230  0.4290  0.1114
  363MOL0     H50056   4.532   9.193   2.916 -2.7324  0.7687  4.0948
  363MOL0     H50057   4.735   9.055   2.833 -1.8020  0.7655 -1.1810
  363MOL0     H50058   4.832   8.743   3.120 -1.0044  2.4540 -0.0647
  363MOL0     H50059   4.800   8.643   2.968  0.2246  0.2353  0.3859
  363MOL0     H50060   5.026   8.706   2.888 -0.0423  0.1373  0.6611
  363MOL0     H50061   5.062   8.756   3.055 -0.8354  1.9704 -0.4375
  363MOL0     H50062   5.000   8.538   3.141 -0.9627  0.0758 -0.0733
  363MOL0     H50063   5.142   8.563   3.040 -0.4086  3.1841  3.9923
  363MOL0     H50064   5.045   8.463   2.835  0.4421 -0.1816  0.6903
  363MOL0     H50065   4.884   8.452   2.915  0.2339  0.6031  0.1027
  363MOL0     H50066   5.125   8.293   2.983 -0.3303  0.0924 -2.4958
  363MOL0     H50067   4.998   8.319   3.104 -1.7009  1.8904  0.2097
  363MOL0     H50068   4.940   8.233   2.812  1.2101 -0.7811  0.4076
  363MOL0     H50069   4.832   8.202   2.945 -1.1353  0.2884 -2.0262
  363MOL0     H50070   4.998   8.038   3.037 -3.6287  0.6781 -0.3520
  363MOL0     H50071   5.123   8.095   2.919  0.6977 -1.0025  1.5480
  363MOL0     H50072   5.034   7.891   2.838  1.4466  0.5983  0.4612
  363MOL0     H50073   4.941   8.010   2.733 -0.4941  0.6115  0.3850
  363MOL0     H50074   4.642   8.772   3.143 -1.9973  0.5972  1.3205
  363MOL0     H50075   4.433   8.895   3.208  0.4429  1.2795  1.4635
  363MOL0     H50076   4.325   9.351   3.194 -0.5388 -1.0076  1.1528
  363MOL0     H50077   4.197   9.542   3.261  0.0024 -0.1280 -1.2708
  363MOL0     H50078   2.563  10.894   3.702 -0.6775 -0.1950  0.8586
  363MOL0     H50079   2.535  11.125   3.687 -0.9050 -0.1932  1.8159
  363MOL0     H50080   2.871  11.539   3.755  2.1145 -0.6806 -2.5954
  363MOL0     H50081   2.892  11.783   3.711 -0.9680  0.1542  0.8916
  363MOL0     H50082   2.628  11.988   3.429 -1.0245  1.4453 -0.0865
  363MOL0     H50083   2.538  11.990   3.571  1.3322 -2.1584  1.9164
  363MOL0     H50084   2.781  12.163   3.511  0.5643 -2.2872  1.1754
  363MOL0     H50085   2.701  12.182   3.652  3.2205 -1.7256  0.6191
  363MOL0     H50086   2.548  12.228   3.383  3.4908  0.6398 -1.5138
  363MOL0     H50087   2.505  12.278   3.558  0.4373 -0.9733  1.5877
  363MOL0     H50088   2.722  12.383   3.388  0.7941  0.3305  0.3897
  363MOL0     H50089   2.679  12.423   3.557 -2.1536  0.4114  0.8194
  363MOL0     H50090   2.439  12.685   3.347  0.5928  0.5750 -1.0647
  363MOL0     H50091   2.527  11.781   3.485  0.2341 -3.4241 -1.4575
  363MOL0     H50092   2.400  11.507   3.530 -0.8531  1.8062  0.0000
  363MOL0     H50093   2.467  11.601   3.388  1.2994  2.5926  1.3360
  363MOL0     H50094   2.539  11.448   3.429 -1.1202  1.3847 -1.7554
  364MOL0     O50095   7.934   4.628   8.543 -0.4413  0.1141 -0.4127
  364MOL0     C50096   7.990   4.614   8.433  0.8501  0.4539 -0.2822
  364MOL0     O50097   8.115   4.651   8.401  0.5491 -0.4197 -0.1941
  364MOL0     C50098   8.206   4.706   8.494 -0.0110 -0.3698 -0.3476
  364MOL0     C50099   8.215   4.667   8.623  0.1900  0.5616 -0.6987
  364MOL0     C50100   8.311   4.734   8.700 -0.6823  0.7348 -0.7494
  364MOL0     C50101   8.392   4.842   8.658 -1.2335 -0.3626  0.1409
  364MOL0     O50102   8.478   4.893   8.753  0.1515  0.2224 -0.0515
  364MOL0     C50103   8.524   5.024   8.724 -0.1976 -0.5283 -0.1974
  364MOL0     C50104   8.652   5.038   8.641 -0.6951  0.7257 -0.1697
  364MOL0     C50105   8.777   4.996   8.712  0.3710 -0.8942 -0.5106
  364MOL0     C50106   8.898   5.031   8.622  1.2657  0.1284 -0.3420
  364MOL0     C50107   9.015   4.965   8.710 -0.1448 -0.2344 -0.1898
  364MOL0     C50108   9.159   5.011   8.670  0.7825  0.0537  0.8390
  364MOL0     C50109   9.271   4.929   8.731  0.0785  0.3611  0.1634
  364MOL0     C50110   9.270   4.938   8.883 -0.1034 -1.2578 -0.2777
  364MOL0     N50111   9.374   4.860   8.943  0.1706 -0.6520 -0.8378
  364MOL0     C50112   9.503   4.909   8.951  0.4215 -0.5676 -0.2720
  364MOL0     C50113   9.581   4.814   9.007 -0.1422  0.0390 -0.0144
  364MOL0     C50114   9.731   4.805   9.022 -0.2314 -0.4245  0.0340
  364MOL0     C50115   9.766   4.702   9.144 -0.5179 -0.7154  0.0386
  364MOL0     C50116   9.914   4.713   9.177  0.4919 -0.4323  0.1134
  364MOL0     C50117  10.015   4.676   9.056 -0.0402 -0.7222 -0.4063
  364MOL0     O50118   9.983   4.543   9.023 -1.2124 -1.0125  0.1750
  364MOL0     C50119  10.088   4.452   9.035 -0.3574  0.0235  0.5702
  364MOL0     C50120  10.229   4.476   9.026 -1.2883  0.6191  0.1172
  364MOL0     C50121  10.328   4.377   9.050  0.3859  0.3308 -0.6011
  364MOL0     C50122  10.475   4.408   9.027  0.5118 -0.2475  0.1445
  364MOL0     C50123  10.270   4.248   9.095  0.1112 -0.6996 -0.0143
  364MOL0     C50124  10.361   4.139   9.134  0.0070  0.1407 -0.2036
  364MOL0     O50125  10.326   4.009   9.105 -0.8181  0.1452  0.1831
  364MOL0     C50126  10.424   3.912   9.128  0.5821 -0.4568 -0.4165
  364MOL0     C50127  10.386   3.792   9.199 -0.2624  0.1816  1.2217
  364MOL0     C50128  10.476   3.686   9.219  0.7145 -0.6286 -0.4521
  364MOL0     C50129  10.611   3.703   9.173  0.4945  0.8643 -0.3762
  364MOL0     O50130  10.692   3.609   9.220 -0.1877  0.0270  0.0017
  364MOL0     C50131  10.798   3.565   9.134 -0.3361 -0.6879  0.9652
  364MOL0     C50132  10.931   3.591   9.204 -0.1576 -0.7157  0.0580
  364MOL0     C50133  10.967   3.740   9.190 -0.4339 -0.1079  0.1867
  364MOL0     C50134  11.105   3.776   9.257 -0.5532  0.6136 -0.1601
  364MOL0     C50135  11.124   3.925   9.236 -1.0240 -0.4277  0.6742
  364MOL0     C50136  11.269   3.975   9.228  0.8051 -0.4184 -0.1778
  364MOL0     C50137  11.348   3.950   9.355 -0.1156  0.1856  0.2123
  364MOL0     C50138  11.473   4.034   9.358 -0.4417  0.3643  0.3077
  364MOL0    Cl50139  11.580   3.993   9.218 -0.2480 -0.5450 -0.0636
  364MOL0     C50140  10.652   3.818   9.108 -0.2112 -0.0123  0.6932
  364MOL0     C50141  10.555   3.922   9.083  0.6370  1.3077  0.6115
  364MOL0     O50142  10.453   4.176   9.211 -0.5256  0.0047  0.2488
  364MOL0     C50143  10.133   4.215   9.093  0.9522 -0.4258  0.1146
  364MOL0     C50144  10.045   4.324   9.067  0.2982  0.2466 -0.9141
  364MOL0     N50145   9.501   4.702   9.025 -0.0661  0.0811  0.3285
  364MOL0     N50146   9.376   4.729   8.991 -0.0994 -0.4093 -0.6833
  364MOL0     C50147   8.368   4.888   8.527 -0.4525 -0.2973 -0.7137
  364MOL0     C50148   8.280   4.816   8.441 -0.5801 -0.3312 -1.2931
  364MOL0     C50149   7.909   4.549   8.328  1.2037 -1.0311 -0.2653
  364MOL0     C50150   7.974   4.515   8.212 -0.3743 -0.3056 -0.2883
  364MOL0     C50151   7.911   4.441   8.104 -0.1880  1.1142  0.5688
  364MOL0     C50152   7.776   4.402   8.119  0.0678  0.0810 -0.0947
  364MOL0     O50153   7.726   4.322   8.018  0.0897  0.1440  0.1420
  364MOL0     C50154   7.587   4.270   8.022 -0.3282 -0.4443  0.4089
  364MOL0     C50155   7.559   4.154   8.118 -0.4512 -0.0921  0.0619
  364MOL0     C50156   7.638   4.038   8.065  0.6689  0.5234 -0.2583
  364MOL0     C50157   7.600   3.929   8.170  0.6463  0.4972 -0.9102
  364MOL0     C50158   7.664   3.796   8.128 -1.1254 -0.1189  0.6771
  364MOL0     C50159   7.708   3.681   8.104  0.5612 -0.8728 -0.1645
  364MOL0     C50160   7.706   4.450   8.232  0.8305 -0.8341 -0.5071
  364MOL0     C50161   7.772   4.522   8.337  1.1044 -0.5232 -0.4550
  364MOL0     C50162   7.673   4.563   8.450  0.0152 -0.7107  0.2767
  364MOL0     H50163   8.163   4.584   8.667 -0.6014  1.2025 -0.4018
  364MOL0     H50164   8.325   4.693   8.799 -0.1028  1.2084 -0.6306
  364MOL0     H50165   8.546   5.067   8.822  1.5449  0.5737 -1.0356
  364MOL0     H50166   8.442   5.083   8.681  1.0955  1.3912 -0.1258
  364MOL0     H50167   8.641   4.966   8.560  0.0452 -0.3451  0.6521
  364MOL0     H50168   8.664   5.142   8.608 -0.0846  0.1307 -1.9316
  364MOL0     H50169   8.793   5.048   8.807 -2.2644 -1.3176  0.2427
  364MOL0     H50170   8.774   4.888   8.730  0.4387 -1.1350 -1.8181
  364MOL0     H50171   8.885   4.988   8.522 -1.2379  0.7552 -0.3558
  364MOL0     H50172   8.909   5.139   8.608 -0.3900  0.3648  0.0111
  364MOL0     H50173   8.988   4.862   8.683 -2.3963 -0.3009  1.9270
  364MOL0     H50174   8.999   4.982   8.817 -1.5590  0.0112 -0.4254
  364MOL0     H50175   9.172   4.997   8.562  2.9590 -2.0686  1.2723
  364MOL0     H50176   9.175   5.116   8.693 -0.1362  0.7628 -1.4531
  364MOL0     H50177   9.368   4.966   8.695  0.8217  3.7532  4.7834
  364MOL0     H50178   9.244   4.828   8.700 -0.1924 -0.1609  1.9904
  364MOL0     H50179   9.270   5.043   8.913 -2.6077 -0.9019 -1.3018
  364MOL0     H50180   9.175   4.901   8.923 -0.2412  1.4956  2.3007
  364MOL0     H50181   9.535   5.009   8.924 -2.2053  1.0088  1.9537
  364MOL0     H50182   9.778   4.902   9.040  0.9197 -0.5396 -2.0200
  364MOL0     H50183   9.779   4.772   8.930  1.3720 -0.5471  0.8864
  364MOL0     H50184   9.702   4.721   9.230  0.0020  1.4334  0.0147
  364MOL0     H50185   9.747   4.601   9.108 -0.2242 -0.7536 -0.0065
  364MOL0     H50186   9.937   4.815   9.210 -3.3107  1.3084 -1.9366
  364MOL0     H50187   9.935   4.653   9.266 -0.1375 -1.0767 -0.1620
  364MOL0     H50188  10.006   4.742   8.969 -0.5008 -0.8975 -0.4912
  364MOL0     H50189  10.114   4.696   9.098 -1.1585  2.7944  0.8889
  364MOL0     H50190  10.258   4.574   8.991  0.6060 -0.3933 -1.3203
  364MOL0     H50191  10.517   4.491   9.085  2.8416 -1.2179 -0.0564
  364MOL0     H50192  10.492   4.454   8.929 -0.7034  0.2020  0.1172
  364MOL0     H50193  10.541   4.322   9.037  2.3277  0.8714 -1.5372
  364MOL0     H50194  10.288   3.790   9.244 -0.9541 -0.6591 -0.2394
  364MOL0     H50195  10.450   3.596   9.273 -0.0977  0.7986  1.6513
  364MOL0     H50196  10.808   3.456   9.132  3.0231 -0.5078 -0.9812
  364MOL0     H50197  10.791   3.603   9.031 -0.0516  0.1900  1.2615
  364MOL0     H50198  10.925   3.565   9.310  2.7962 -0.8336  0.2720
  364MOL0     H50199  11.010   3.529   9.160  1.7605  0.2587  1.9626
  364MOL0     H50200  10.898   3.796   9.254  0.1197  0.1794  0.5419
  364MOL0     H50201  10.955   3.778   9.088  0.1968  2.0932  0.8677
  364MOL0     H50202  11.179   3.710   9.210 -2.2831 -0.8047 -1.0468
  364MOL0     H50203  11.099   3.756   9.365  0.1700  0.1542 -0.2003
  364MOL0     H50204  11.072   3.955   9.144  2.3492  0.0584 -1.2415
  364MOL0     H50205  11.074   3.984   9.313 -1.3946  0.0703  0.0620
  364MOL0     H50206  11.259   4.081   9.206 -2.6563 -0.6528 -0.2901
  364MOL0     H50207  11.321   3.917   9.151  1.1274 -0.8405  0.3501
  364MOL0     H50208  11.369   3.843   9.355  0.2973  0.2628 -0.0753
  364MOL0     H50209  11.291   3.967   9.447  1.7426  0.4914  1.3766
  364MOL0     H50210  11.528   4.004   9.447 -0.6262  0.9124  0.6139
  364MOL0     H50211  11.453   4.138   9.384 -0.4605  0.7187 -1.0771
  364MOL0     H50212  10.751   3.825   9.062 -0.8433 -1.1497 -0.9193
  364MOL0     H50213  10.575   3.995   9.006  3.2991  0.7952  0.7210
  364MOL0     H50214  10.094   4.119   9.126  0.0832  0.4325  1.6818
  364MOL0     H50215   9.937   4.325   9.078  0.3876  0.5759 -0.0069
  364MOL0     H50216   8.423   4.970   8.481  0.3668 -0.1209  0.5340
  364MOL0     H50217   8.271   4.856   8.340 -3.2603  2.1278 -0.1967
  364MOL0     H50218   8.080   4.538   8.202 -0.2419 -0.6932  0.1905
  364MOL0     H50219   7.967   4.407   8.017 -2.3843  2.1736 -1.3738
  364MOL0     H50220   7.518   4.354   8.036  0.1666  0.3521 -1.4657
  364MOL0     H50221   7.542   4.226   7.932  1.0504  2.2837 -1.7959
  364MOL0     H50222   7.453   4.129   8.116  0.1283 -2.7885 -0.9913
  364MOL0     H50223   7.587   4.176   8.222 -1.9681 -4.2362  1.5486
  364MOL0     H50224   7.601   3.997   7.971  1.3910 -1.1668  0.1595
  364MOL0     H50225   7.746   4.051   8.064  0.7150  0.6062  1.7390
  364MOL0     H50226   7.493   3.912   8.185  0.7992  1.4864  1.7137
  364MOL0     H50227   7.632   3.958   8.270  1.6072  0.1029 -1.0991
  364MOL0     H50228   7.754   3.585   8.090  3.8520  0.5175  0.1993
  364MOL0     H50229   7.598   4.437   8.235  0.8301 -0.6466  0.6636
  364MOL0     H50230   7.713   4.546   8.551 -0.0836 -0.5255  0.3474
  364MOL0     H50231   7.655   4.671   8.453 -4.6295 -1.2379 -0.6784
  364MOL0     H50232   7.575   4.514   8.453 -0.8959  1.0563  1.4396
  365MOL0     O50233  10.677   8.884  10.435 -0.4331  0.2527  0.4105
  365MOL0     C50234  10.666   8.843  10.546 -0.0836  0.8458 -0.5854
  365MOL0     O50235  10.756   8.856  10.641  0.6867  0.3903 -0.6220
  365MOL0     C50236  10.855   8.957  10.640 -0.9004  0.0027  0.1923
  365MOL0     C50237  10.964   8.934  10.554 -0.2308  0.0174 -0.2979
  365MOL0     C50238  11.077   9.012  10.571  0.5858 -0.2321  0.6289
  365MOL0     C50239  11.090   9.105  10.677 -0.4649  0.8586 -1.3890
  365MOL0     O50240  11.214   9.169  10.709 -0.0292  0.0132 -0.3562
  365MOL0     C50241  11.314   9.147  10.617  1.0982  0.2729  1.0535
  365MOL0     C50242  11.424   9.238  10.664  0.1721 -0.4550 -0.7430
  365MOL0     C50243  11.556   9.171  10.610 -0.0871 -0.5222 -0.1846
  365MOL0     C50244  11.679   9.243  10.625  0.1163 -0.3046  0.2461
  365MOL0     C50245  11.796   9.170  10.559 -0.0699 -0.6604 -0.0405
  365MOL0     C50246  11.902   9.268  10.522 -0.1586  0.9049 -0.3145
  365MOL0     C50247  12.017   9.195  10.437 -0.2878 -0.0142 -0.4130
  365MOL0     C50248  12.100   9.099  10.532  0.1472  0.5701  0.6111
  365MOL0     N50249  12.215   9.171  10.592  0.5653  0.2118 -0.3040
  365MOL0     C50250  12.235   9.209  10.719  1.0346 -0.4054  0.1729
  365MOL0     C50251  12.349   9.281  10.721  0.1650 -0.4496  0.4928
  365MOL0     C50252  12.396   9.369  10.847  0.3793  0.1542  0.3784
  365MOL0     C50253  12.546   9.371  10.872 -0.1384  0.9318 -0.7267
  365MOL0     C50254  12.578   9.481  10.970  0.1328  0.1099 -0.2632
  365MOL0     C50255  12.735   9.475  10.987 -0.2493  0.1926 -0.3826
  365MOL0     O50256  12.814   9.487  10.872 -0.4764  0.0046  0.9306
  365MOL0     C50257  12.844   9.619  10.826 -0.2717  0.9917  0.1183
  365MOL0     C50258  12.755   9.703  10.781  0.1587 -0.4328  0.7027
  365MOL0     C50259  12.782   9.835  10.763  0.0928 -0.1533 -0.5823
  365MOL0     C50260  12.668   9.929  10.717  0.9668 -0.4577  0.8891
  365MOL0     C50261  12.905   9.891  10.789 -0.4756  0.4699 -0.0828
  365MOL0     C50262  12.948  10.030  10.775 -0.3452  0.6520 -0.3239
  365MOL0     O50263  13.072  10.052  10.832 -0.2172  0.0011  0.2287
  365MOL0     C50264  13.115  10.181  10.821  0.1214 -0.2353 -0.6350
  365MOL0     C50265  13.110  10.256  10.703  0.1749  0.7130  0.4751
  365MOL0     C50266  13.101  10.396  10.712 -0.1593  0.8000  0.2368
  365MOL0     C50267  13.117  10.464  10.839  0.5936  0.8335  1.1740
  365MOL0     O50268  13.111  10.595  10.832  0.4613 -0.3281 -0.4027
  365MOL0     C50269  13.128  10.671  10.957 -0.4481 -0.1123 -0.0224
  365MOL0     C50270  13.011  10.674  11.056 -0.7634  0.7563 -0.4736
  365MOL0     C50271  12.892  10.751  11.002 -0.2554  0.3457 -0.3643
  365MOL0     C50272  12.783  10.674  10.932 -0.6356 -0.6411 -0.1852
  365MOL0     C50273  12.712  10.773  10.838 -0.3760 -0.3660  0.5362
  365MOL0     C50274  12.576  10.718  10.795  0.8324 -0.2645  0.8106
  365MOL0     C50275  12.494  10.835  10.742 -0.5815  0.3122  0.1452
  365MOL0     C50276  12.351  10.804  10.714 -0.1076 -0.2635 -0.4218
  365MOL0    Cl50277  12.267  10.947  10.667  0.3766 -0.5687  0.3936
  365MOL0     C50278  13.150  10.381  10.952  0.3601  0.4244 -0.2044
  365MOL0     C50279  13.139  10.245  10.941 -1.4900 -0.0546 -0.2259
  365MOL0     O50280  12.873  10.112  10.722 -0.0085  0.4945  0.2909
  365MOL0     C50281  13.001   9.793  10.818 -0.1869  0.6759  0.7860
  365MOL0     C50282  12.973   9.660  10.832  0.1222  0.0775 -0.1829
  365MOL0     N50283  12.398   9.285  10.593 -0.1918  0.7306 -0.1280
  365MOL0     N50284  12.321   9.214  10.520 -0.3898 -0.5062 -0.3480
  365MOL0     C50285  10.981   9.126  10.765 -0.7462 -0.5035 -0.1101
  365MOL0     C50286  10.861   9.056  10.735  0.3474  0.3248 -0.3480
  365MOL0     C50287  10.541   8.759  10.594  0.0257  0.0536 -0.8430
  365MOL0     C50288  10.528   8.744  10.741 -0.6057 -0.0554  0.0099
  365MOL0     C50289  10.415   8.672  10.788 -0.4148  0.1564 -0.0022
  365MOL0     C50290  10.326   8.612  10.696 -0.4710 -0.1640  0.6163
  365MOL0     O50291  10.239   8.528  10.755  0.3979  0.2148  0.3171
  365MOL0     C50292  10.106   8.582  10.761 -0.8441 -0.2444 -0.0176
  365MOL0     C50293  10.049   8.538  10.900 -0.2547  0.6992  0.2881
  365MOL0     C50294   9.897   8.549  10.904  0.2812 -0.0278  0.4842
  365MOL0     C50295   9.846   8.694  10.911 -0.7320  0.3775 -0.2533
  365MOL0     C50296   9.722   8.706  10.985 -0.5684 -0.7868 -0.0825
  365MOL0     C50297   9.611   8.704  11.034 -0.5982  0.7200 -0.1083
  365MOL0     C50298  10.340   8.638  10.559  0.2404  0.4591  0.7417
  365MOL0     C50299  10.442   8.718  10.510 -0.6982 -0.9692  0.8938
  365MOL0     C50300  10.433   8.753  10.362  0.4643  0.8665  0.5793
  365MOL0     H50301  10.978   8.850  10.486  1.5316 -0.2189  0.2933
  365MOL0     H50302  11.153   9.004  10.493 -1.5563 -0.2749 -1.5777
  365MOL0     H50303  11.279   9.183  10.520  1.2746 -2.1751 -0.0016
  365MOL0     H50304  11.349   9.043  10.609  0.5957  0.2459 -1.7687
  365MOL0     H50305  11.409   9.337  10.620 -1.0525 -0.6944 -0.8912
  365MOL0     H50306  11.429   9.254  10.772  1.6932  0.1528 -0.8709
  365MOL0     H50307  11.567   9.080  10.671 -0.9630  0.4080  1.4272
  365MOL0     H50308  11.531   9.138  10.509 -1.3865  2.2385 -0.8591
  365MOL0     H50309  11.661   9.345  10.589  0.7631 -0.1749  0.2796
  365MOL0     H50310  11.705   9.253  10.731 -2.9888  0.1313  1.0464
  365MOL0     H50311  11.772   9.117  10.466 -0.5138  0.8680 -0.8319
  365MOL0     H50312  11.827   9.094  10.630  3.3913 -0.0476 -0.7369
  365MOL0     H50313  11.846   9.339  10.461  0.2371 -0.2448 -2.0805
  365MOL0     H50314  11.935   9.332  10.604  0.1024  1.9186 -1.1827
  365MOL0     H50315  12.081   9.277  10.404  0.0435  0.3472  1.0573
  365MOL0     H50316  11.980   9.140  10.349  0.5271 -2.3702  0.6152
  365MOL0     H50317  12.044   9.045  10.609  0.9745 -0.4962  0.4859
  365MOL0     H50318  12.154   9.029  10.468 -0.7038 -1.2117  1.7593
  365MOL0     H50319  12.171   9.196  10.805 -1.6649  2.7214 -1.1387
  365MOL0     H50320  12.355   9.315  10.933 -0.7580 -0.9098 -0.7779
  365MOL0     H50321  12.368   9.475  10.846  0.0554  0.0952 -2.0993
  365MOL0     H50322  12.579   9.273  10.906  0.9337  1.7252  0.6290
  365MOL0     H50323  12.598   9.391  10.777 -1.1041  0.5429 -1.3488
  365MOL0     H50324  12.543   9.581  10.943 -0.3289  0.3679  1.2265
  365MOL0     H50325  12.538   9.452  11.067  2.2575  1.3748  1.0769
  365MOL0     H50326  12.761   9.557  11.055  4.4792 -0.7033 -0.7814
  365MOL0     H50327  12.763   9.380  11.033  1.9340  0.8551 -0.2468
  365MOL0     H50328  12.651   9.675  10.766 -0.3031  0.8941  1.2695
  365MOL0     H50329  12.659  10.009  10.791  1.5089 -0.4462  0.9458
  365MOL0     H50330  12.571   9.879  10.712 -0.5768  2.2865  1.4542
  365MOL0     H50331  12.686   9.975  10.620  0.2089 -0.1517  0.8886
  365MOL0     H50332  13.100  10.217  10.602  0.1521  1.3084  0.2432
  365MOL0     H50333  13.083  10.459  10.626 -1.0663  2.5362  1.6250
  365MOL0     H50334  13.207  10.626  11.018 -2.2410 -2.4953  0.6925
  365MOL0     H50335  13.155  10.774  10.932  1.4981 -0.3042  1.0462
  365MOL0     H50336  12.977  10.574  11.083  3.0187 -0.5974 -0.2467
  365MOL0     H50337  13.044  10.727  11.146  1.3048 -0.3202 -0.5377
  365MOL0     H50338  12.928  10.828  10.933 -2.5755  1.1932 -0.7312
  365MOL0     H50339  12.842  10.801  11.085 -0.0335 -3.3440  2.2125
  365MOL0     H50340  12.715  10.634  11.008 -0.4210 -0.7862 -0.0654
  365MOL0     H50341  12.826  10.587  10.880  1.6165  0.6886 -0.6851
  365MOL0     H50342  12.700  10.870  10.887 -0.2920  1.7016 -3.1431
  365MOL0     H50343  12.780  10.783  10.753  0.5835  2.1136  1.4915
  365MOL0     H50344  12.510  10.683  10.875 -2.2016 -1.1665 -1.8740
  365MOL0     H50345  12.588  10.640  10.720 -0.8917 -0.6556  0.9017
  365MOL0     H50346  12.546  10.877  10.655 -1.3173  5.1841  1.7597
  365MOL0     H50347  12.506  10.916  10.814  2.3847  0.5377 -0.4795
  365MOL0     H50348  12.307  10.766  10.806 -0.4801 -2.0473 -1.2897
  365MOL0     H50349  12.342  10.717  10.649  0.1474 -0.7222  0.1517
  365MOL0     H50350  13.168  10.420  11.051  0.5134  1.1088 -0.4911
  365MOL0     H50351  13.144  10.180  11.028  0.5444 -1.7041 -1.4984
  365MOL0     H50352  13.100   9.831  10.840 -0.8262  2.1327  1.2170
  365MOL0     H50353  13.055   9.594  10.859 -0.2155 -0.8946 -1.4584
  365MOL0     H50354  10.981   9.195  10.849  0.3151  1.5064 -1.6610
  365MOL0     H50355  10.775   9.096  10.788  0.2481 -1.4747  0.9317
  365MOL0     H50356  10.596   8.786  10.814 -1.5108  1.0909  0.2237
  365MOL0     H50357  10.415   8.639  10.891 -1.4442 -1.7978 -0.5735
  365MOL0     H50358  10.089   8.690  10.758  2.1327  0.2824 -2.5425
  365MOL0     H50359  10.037   8.549  10.683 -0.6141  0.7040 -0.6367
  365MOL0     H50360  10.099   8.599  10.976  1.4033 -2.8299  2.2982
  365MOL0     H50361  10.084   8.437  10.919 -0.8401  0.5654  0.6875
  365MOL0     H50362   9.851   8.495  10.821  1.8840 -1.6327  0.5647
  365MOL0     H50363   9.860   8.492  10.990 -1.6788 -4.0027 -2.6278
  365MOL0     H50364   9.826   8.741  10.814  0.2366 -1.3151 -1.3373
  365MOL0     H50365   9.917   8.758  10.965  1.3697 -1.2277 -0.9448
  365MOL0     H50366   9.515   8.688  11.080 -0.6917 -1.4460 -0.9410
  365MOL0     H50367  10.271   8.585  10.494  0.6506 -1.5834  1.8728
  365MOL0     H50368  10.516   8.709  10.306 -1.7992 -0.3702 -2.0611
  365MOL0     H50369  10.341   8.730  10.307  1.4760  1.2698 -1.3622
  365MOL0     H50370  10.434   8.862  10.352  0.3361  0.9597  1.4988
  366MOL0     O50371   2.981   9.322   7.862  0.6365  0.6572  0.6256
  366MOL0     C50372   3.018   9.213   7.819  0.1597  0.0614  0.2303
  366MOL0     O50373   3.141   9.158   7.837  0.2326 -0.3241  0.1282
  366MOL0     C50374   3.227   9.235   7.917  1.0631  0.4270  1.1550
  366MOL0     C50375   3.305   9.172   8.009 -0.8457  0.2043 -0.0561
  366MOL0     C50376   3.416   9.240   8.073  0.0965 -0.1724  0.5565
  366MOL0     C50377   3.438   9.378   8.053 -0.2648 -0.2241  0.5911
  366MOL0     O50378   3.543   9.437   8.113  0.1988  0.0045  0.3259
  366MOL0     C50379   3.639   9.501   8.024 -0.0614 -0.0396  0.4390
  366MOL0     C50380   3.751   9.565   8.108  0.0274 -0.3938  0.4837
  366MOL0     C50381   3.872   9.603   8.022  0.0083 -0.5350 -0.4511
  366MOL0     C50382   3.990   9.664   8.101  0.7129  0.3645  0.0766
  366MOL0     C50383   4.079   9.741   7.999  0.0434 -0.0006  0.2813
  366MOL0     C50384   4.189   9.820   8.077  0.1679 -0.0756 -0.5372
  366MOL0     C50385   4.269   9.905   7.975 -0.0955 -0.1937 -0.4482
  366MOL0     C50386   4.386   9.973   8.053  1.0012 -0.4496 -0.2404
  366MOL0     N50387   4.509   9.899   8.087  0.9250  0.1203  0.1525
  366MOL0     C50388   4.531   9.851   8.213 -0.0239  0.5906  0.3560
  366MOL0     C50389   4.632   9.757   8.190  0.5608 -0.1665  0.1816
  366MOL0     C50390   4.713   9.697   8.300  1.0135  1.1396  0.3488
  366MOL0     C50391   4.829   9.795   8.322  0.1571  0.1792 -0.2951
  366MOL0     C50392   4.885   9.796   8.463  0.0430  0.1329  0.2776
  366MOL0     C50393   4.796   9.846   8.578 -0.7148 -0.1232 -0.6411
  366MOL0     O50394   4.886   9.844   8.692 -0.6293  0.0713  0.1020
  366MOL0     C50395   4.835   9.865   8.819 -0.4251 -0.0618  0.1716
  366MOL0     C50396   4.700   9.877   8.848 -0.2544 -0.4501 -1.6096
  366MOL0     C50397   4.664   9.890   8.983 -0.1380 -0.0108  0.6447
  366MOL0     C50398   4.513   9.917   9.014  1.3640  0.4191 -0.1967
  366MOL0     C50399   4.759   9.889   9.089  0.4225 -0.1027  0.2428
  366MOL0     C50400   4.731   9.912   9.240  0.3577 -0.3089  0.5104
  366MOL0     O50401   4.841   9.929   9.324 -0.4705 -0.0026 -0.1833
  366MOL0     C50402   4.840   9.998   9.436  0.9370 -0.4247  0.3503
  366MOL0     C50403   4.735  10.087   9.478 -0.1715  0.2030 -0.0079
  366MOL0     C50404   4.750  10.174   9.583 -0.4133  0.2884 -0.3430
  366MOL0     C50405   4.873  10.174   9.653 -0.3701 -0.7194 -1.0158
  366MOL0     O50406   4.911  10.244   9.761  0.1069  0.3155  0.1320
  366MOL0     C50407   4.814  10.338   9.805  0.4374 -0.1052  0.8298
  366MOL0     C50408   4.873  10.443   9.895 -0.8142 -0.0704  0.0724
  366MOL0     C50409   4.921  10.387  10.030 -0.5195 -0.0588  0.3244
  366MOL0     C50410   5.070  10.360  10.021  0.3451  0.4657  0.2812
  366MOL0     C50411   5.125  10.308  10.159  0.1651  0.0478  0.2907
  366MOL0     C50412   5.263  10.237  10.153 -0.1456  0.5337  0.7956
  366MOL0     C50413   5.329  10.198  10.280 -0.4647 -0.6289 -0.1817
  366MOL0     C50414   5.250  10.107  10.370  0.4902  0.6006 -0.6453
  366MOL0    Cl50415   5.335  10.058  10.529 -0.0049 -0.2763 -0.0289
  366MOL0     C50416   4.974  10.084   9.619 -0.6263  0.0212  0.4210
  366MOL0     C50417   4.956   9.999   9.512 -0.2813  0.4849 -0.5604
  366MOL0     O50418   4.609   9.914   9.272 -0.1047 -0.2454 -0.3908
  366MOL0     C50419   4.889   9.879   9.049 -0.1121  0.7826 -0.2476
  366MOL0     C50420   4.933   9.871   8.918 -0.7676  0.1668 -0.5573
  366MOL0     N50421   4.667   9.762   8.058 -0.3916 -0.6520  0.4989
  366MOL0     N50422   4.597   9.846   8.000  0.1296 -0.8406  0.3993
  366MOL0     C50423   3.364   9.444   7.961 -0.7777 -0.3737  0.4680
  366MOL0     C50424   3.267   9.374   7.889  0.0068 -0.1132  1.4750
  366MOL0     C50425   2.920   9.145   7.728  0.1800 -0.1541  0.1824
  366MOL0     C50426   2.812   9.215   7.664  0.0390  0.3387 -0.0296
  366MOL0     C50427   2.714   9.158   7.591 -0.0212 -0.4502  0.0219
  366MOL0     C50428   2.716   9.023   7.559 -0.2122 -0.7533 -1.3099
  366MOL0     O50429   2.600   8.972   7.486 -0.0952  0.2405 -0.4685
  366MOL0     C50430   2.530   8.861   7.550 -0.0500  0.3271 -0.0712
  366MOL0     C50431   2.437   8.823   7.437  0.1729 -0.0455 -0.6946
  366MOL0     C50432   2.352   8.701   7.468  0.4770  0.0815 -0.6901
  366MOL0     C50433   2.219   8.729   7.560 -0.7655  1.4919  0.0473
  366MOL0     C50434   2.101   8.685   7.486  0.1436  0.2008  0.7104
  366MOL0     C50435   2.012   8.633   7.420  0.4716  0.3351 -0.6112
  366MOL0     C50436   2.815   8.944   7.624  0.0971 -0.0643  0.5770
  366MOL0     C50437   2.918   9.007   7.701 -0.6176  0.7689 -0.2559
  366MOL0     C50438   3.020   8.912   7.747  0.4892 -0.0238 -0.1074
  366MOL0     H50439   3.294   9.065   8.023 -1.1040  0.4514  2.0003
  366MOL0     H50440   3.478   9.189   8.147 -0.1791 -1.4240 -0.0577
  366MOL0     H50441   3.587   9.580   7.969 -0.7426 -1.4744 -1.0660
  366MOL0     H50442   3.673   9.419   7.961 -2.2647 -0.2021 -0.6355
  366MOL0     H50443   3.718   9.656   8.159 -1.3312 -0.4816 -0.2048
  366MOL0     H50444   3.773   9.483   8.177 -1.0362 -1.6358 -0.6167
  366MOL0     H50445   3.907   9.515   7.966  1.9185  0.8322 -1.5427
  366MOL0     H50446   3.826   9.673   7.951 -1.0785 -0.3843  0.3828
  366MOL0     H50447   3.946   9.733   8.173 -0.7109  0.1798 -0.5889
  366MOL0     H50448   4.039   9.583   8.155 -3.5924 -1.5960  1.4375
  366MOL0     H50449   4.020   9.800   7.927  1.6939  0.4420 -0.7731
  366MOL0     H50450   4.135   9.681   7.927 -0.7275 -0.3001 -0.0824
  366MOL0     H50451   4.130   9.891   8.136 -0.9975 -1.7292  0.3682
  366MOL0     H50452   4.242   9.754   8.146 -1.4701 -2.8339 -1.7454
  366MOL0     H50453   4.213   9.989   7.934  2.3543  0.5048 -2.6222
  366MOL0     H50454   4.313   9.837   7.902 -0.0485 -3.3366  2.2275
  366MOL0     H50455   4.417  10.058   7.991  1.4082 -0.9394 -0.7139
  366MOL0     H50456   4.352  10.021   8.145  1.5157  1.4239 -0.9815
  366MOL0     H50457   4.482   9.869   8.307  1.1976 -2.1761  1.6364
  366MOL0     H50458   4.748   9.596   8.279  2.9116  1.6538  0.8176
  366MOL0     H50459   4.643   9.693   8.384  0.6246 -1.2236 -0.0136
  366MOL0     H50460   4.903   9.768   8.246  0.7068 -2.0584  0.9334
  366MOL0     H50461   4.798   9.898   8.303  0.3108  0.2741 -0.0371
  366MOL0     H50462   4.921   9.699   8.498 -0.1098  0.4705  1.3960
  366MOL0     H50463   4.973   9.861   8.469 -2.2056  3.2958  1.8732
  366MOL0     H50464   4.754   9.946   8.563  1.2575  0.6844 -1.0744
  366MOL0     H50465   4.715   9.774   8.595  0.3926 -1.5425 -1.1580
  366MOL0     H50466   4.624   9.879   8.770 -6.1827 -0.9113  3.3730
  366MOL0     H50467   4.501  10.017   9.057  1.1985 -0.8419  3.0071
  366MOL0     H50468   4.476   9.847   9.090  1.0684  2.5307  1.7042
  366MOL0     H50469   4.448   9.916   8.926  1.4226  1.9424 -0.2868
  366MOL0     H50470   4.636  10.087   9.433 -0.0400  1.0638 -0.3178
  366MOL0     H50471   4.670  10.243   9.609 -0.3371 -0.4105  1.9056
  366MOL0     H50472   4.760  10.390   9.726  2.4874  2.9370  1.2485
  366MOL0     H50473   4.753  10.283   9.878  2.2363 -0.5188  2.1063
  366MOL0     H50474   4.947  10.491   9.830 -0.9425  0.4354  0.2927
  366MOL0     H50475   4.790  10.514   9.903 -1.7168 -1.1950  1.0420
  366MOL0     H50476   4.871  10.295  10.059 -0.3242 -1.1996 -2.6618
  366MOL0     H50477   4.912  10.469  10.102  3.5694 -0.0752  1.1463
  366MOL0     H50478   5.126  10.448   9.988 -0.2232  1.5266  2.0273
  366MOL0     H50479   5.087  10.284   9.945 -3.7132  1.7514 -2.2718
  366MOL0     H50480   5.124  10.386  10.236  1.2722 -0.8682  1.2693
  366MOL0     H50481   5.054  10.232  10.194 -0.1296 -0.5243 -1.4432
  366MOL0     H50482   5.328  10.295  10.086 -0.7422  0.0896 -0.1960
  366MOL0     H50483   5.234  10.144  10.104 -1.3303  1.4541 -0.3452
  366MOL0     H50484   5.342  10.295  10.329  0.7758  0.8415 -3.1665
  366MOL0     H50485   5.428  10.152  10.273 -0.6834 -1.2884  0.8344
  366MOL0     H50486   5.245  10.014  10.312 -1.4518  0.5897 -0.5330
  366MOL0     H50487   5.146  10.138  10.385 -0.1866  0.2957 -3.8805
  366MOL0     H50488   5.067  10.070   9.674 -1.7546 -3.9175  1.6072
  366MOL0     H50489   5.043   9.944   9.478 -0.5896 -1.3860  1.4842
  366MOL0     H50490   4.973   9.861   9.116 -0.4541  0.1255  0.0199
  366MOL0     H50491   5.040   9.864   8.901 -0.8743  0.4561 -1.3851
  366MOL0     H50492   3.378   9.547   7.929 -2.0924 -0.3371 -0.0351
  366MOL0     H50493   3.231   9.432   7.804  1.8378  0.8286  1.2981
  366MOL0     H50494   2.803   9.322   7.685  2.5122  0.3477  1.3643
  366MOL0     H50495   2.630   9.215   7.552  0.0617  0.7777  1.5072
  366MOL0     H50496   2.591   8.772   7.568 -1.3357 -0.5825 -0.0970
  366MOL0     H50497   2.478   8.904   7.636  1.7050  3.5739 -0.4734
  366MOL0     H50498   2.498   8.787   7.353  1.5465 -1.5420  0.8650
  366MOL0     H50499   2.369   8.906   7.414 -0.2455 -0.0745  0.3751
  366MOL0     H50500   2.334   8.644   7.376  0.8176 -0.7002 -0.2884
  366MOL0     H50501   2.409   8.629   7.528 -0.0359 -0.5405 -0.9351
  366MOL0     H50502   2.215   8.837   7.579  1.0538  1.2447  2.1654
  366MOL0     H50503   2.235   8.685   7.658 -0.5282  1.5597  0.0405
  366MOL0     H50504   1.940   8.595   7.350 -2.4919  1.6398  1.5019
  366MOL0     H50505   2.813   8.837   7.602  4.0472  0.1905 -1.8594
  366MOL0     H50506   3.049   8.910   7.852  2.7677 -0.7492 -0.6831
  366MOL0     H50507   2.990   8.807   7.732 -0.0528  0.1633 -0.3477
  366MOL0     H50508   3.107   8.937   7.686  1.4710 -2.2921  0.2518
  367MOL0     O50509   5.068   3.466   9.623 -0.5728  0.4012  0.4256
  367MOL0     C50510   5.139   3.366   9.617  0.7144 -0.0376 -1.0793
  367MOL0     O50511   5.252   3.344   9.541  0.2016  0.0636  0.4487
  367MOL0     C50512   5.305   3.445   9.464  0.4518 -0.4080 -0.3796
  367MOL0     C50513   5.249   3.501   9.348 -0.1014 -0.3452  0.0438
  367MOL0     C50514   5.323   3.611   9.293 -0.3490 -0.7367 -0.3082
  367MOL0     C50515   5.445   3.656   9.337  0.3660 -0.0912  0.1671
  367MOL0     O50516   5.518   3.756   9.283 -0.3792 -0.0584 -0.5973
  367MOL0     C50517   5.508   3.788   9.141  0.3062 -0.4094  0.0497
  367MOL0     C50518   5.576   3.923   9.121  0.0861 -0.2815 -0.9924
  367MOL0     C50519   5.714   3.936   9.169 -1.2333 -0.1817  0.9639
  367MOL0     C50520   5.812   4.006   9.076 -0.2773 -0.2250  0.3330
  367MOL0     C50521   5.953   3.999   9.126 -0.6094  0.1757 -0.3228
  367MOL0     C50522   5.992   4.076   9.262  0.3494 -0.1965 -0.0291
  367MOL0     C50523   5.951   4.216   9.243  0.7264 -0.0030  0.0403
  367MOL0     C50524   6.019   4.299   9.353  0.3040  0.2689  0.4295
  367MOL0     N50525   5.934   4.277   9.472 -0.8101  0.2326 -0.4644
  367MOL0     C50526   5.954   4.181   9.571 -0.1561  0.0957  0.0836
  367MOL0     C50527   5.868   4.211   9.670 -0.1795  0.3071  0.5359
  367MOL0     C50528   5.832   4.151   9.800  0.7636 -0.2261  0.1478
  367MOL0     C50529   5.696   4.080   9.805 -0.4816 -0.1012 -0.7867
  367MOL0     C50530   5.710   3.960   9.710  0.0721 -0.2985 -0.6509
  367MOL0     C50531   5.573   3.901   9.702 -0.6245 -0.0974  0.4191
  367MOL0     O50532   5.494   4.002   9.638  0.8184 -0.0993  0.0176
  367MOL0     C50533   5.395   3.964   9.546 -0.2021  0.3188 -0.1889
  367MOL0     C50534   5.356   4.058   9.447 -0.9191 -0.0333 -0.0431
  367MOL0     C50535   5.254   4.033   9.365 -0.3153  0.1186 -0.3608
  367MOL0     C50536   5.233   4.154   9.275 -0.3990 -0.2330  1.1236
  367MOL0     C50537   5.177   3.917   9.376 -0.5911 -0.0054 -0.3494
  367MOL0     C50538   5.055   3.895   9.295 -0.1326 -0.5514 -0.2399
  367MOL0     O50539   4.996   3.772   9.310  0.2170  0.4344  0.3246
  367MOL0     C50540   4.866   3.742   9.264  0.1496 -0.6093  0.5731
  367MOL0     C50541   4.757   3.833   9.261  0.6229  0.9518 -0.8554
  367MOL0     C50542   4.622   3.796   9.251 -0.2089  0.6346 -0.8160
  367MOL0     C50543   4.589   3.660   9.257  0.0844 -1.3681 -0.5281
  367MOL0     O50544   4.463   3.611   9.268 -0.2404 -0.4572  0.1707
  367MOL0     C50545   4.357   3.697   9.246 -0.5885 -0.2863  0.2193
  367MOL0     C50546   4.242   3.608   9.216  0.6784  1.2685 -0.3680
  367MOL0     C50547   4.182   3.555   9.345 -0.2452  0.3594 -0.1226
  367MOL0     C50548   4.050   3.479   9.314 -0.0364  0.2362  0.4088
  367MOL0     C50549   4.020   3.365   9.410 -0.7327 -0.1889 -0.4434
  367MOL0     C50550   3.888   3.291   9.395  0.5237  0.0290 -0.5235
  367MOL0     C50551   3.758   3.383   9.388  0.2381  0.2165  0.3107
  367MOL0     C50552   3.736   3.465   9.517 -0.7683  0.5260  0.1561
  367MOL0    Cl50553   3.713   3.371   9.662 -0.1081 -0.7934 -0.0234
  367MOL0     C50554   4.699   3.572   9.266  0.1394 -0.1035 -0.0133
  367MOL0     C50555   4.835   3.608   9.262 -0.1464 -0.4960 -0.2524
  367MOL0     O50556   5.013   3.983   9.217 -0.7067 -0.3630  0.1892
  367MOL0     C50557   5.215   3.823   9.476  0.3615 -0.2971  0.8269
  367MOL0     C50558   5.325   3.851   9.558 -0.0544  0.6217 -0.0695
  367MOL0     N50559   5.787   4.325   9.634 -0.9714  0.3676  0.2167
  367MOL0     N50560   5.832   4.355   9.508  0.9791 -0.7794 -0.3109
  367MOL0     C50561   5.507   3.585   9.439  0.0527 -0.0603 -0.0226
  367MOL0     C50562   5.429   3.487   9.515 -1.4723 -0.7637  0.1520
  367MOL0     C50563   5.107   3.257   9.711  0.1272  0.2479  0.7258
  367MOL0     C50564   5.206   3.208   9.790  0.0416 -0.1400 -0.3040
  367MOL0     C50565   5.183   3.108   9.885  0.2959 -0.0156  0.7301
  367MOL0     C50566   5.059   3.047   9.899  0.1529 -0.3381 -0.4713
  367MOL0     O50567   5.041   2.938   9.983  0.6481 -0.3008  0.3319
  367MOL0     C50568   5.128   2.885  10.078 -0.1600  0.7757  0.6489
  367MOL0     C50569   5.090   2.743  10.102  1.3021  0.3574 -0.4207
  367MOL0     C50570   5.111   2.666   9.969  0.0984 -0.5789  0.3594
  367MOL0     C50571   5.070   2.515   9.955  0.2675 -0.7180 -0.4665
  367MOL0     C50572   4.925   2.481   9.995 -0.5024  0.0417 -0.4694
  367MOL0     C50573   4.803   2.455  10.013 -1.5218  0.3710  0.2084
  367MOL0     C50574   4.956   3.089   9.812 -0.6994 -0.6146 -0.3161
  367MOL0     C50575   4.974   3.193   9.715 -1.1730 -0.0812  1.1726
  367MOL0     C50576   4.862   3.239   9.633  0.6172 -0.4137  0.3471
  367MOL0     H50577   5.159   3.467   9.299  1.9488 -4.4738 -1.3397
  367MOL0     H50578   5.289   3.679   9.216  2.1927 -1.6083 -2.3811
  367MOL0     H50579   5.402   3.806   9.118  1.1742  3.8055 -1.5758
  367MOL0     H50580   5.561   3.712   9.082  1.9514  0.9180 -0.2671
  367MOL0     H50581   5.548   3.964   9.024  2.1551 -0.8951 -1.8977
  367MOL0     H50582   5.527   3.995   9.187 -0.8018  0.7016 -2.6713
  367MOL0     H50583   5.706   3.998   9.259 -0.7986  3.0379 -1.0387
  367MOL0     H50584   5.753   3.838   9.195 -1.0188  0.0052  1.3533
  367MOL0     H50585   5.816   3.947   8.984 -2.1610 -1.2390  0.8593
  367MOL0     H50586   5.777   4.105   9.045 -0.0738  0.1055  1.1408
  367MOL0     H50587   6.013   4.046   9.048 -0.5161  0.8298  0.1395
  367MOL0     H50588   5.998   3.899   9.136 -0.8678  0.2428  1.8875
  367MOL0     H50589   5.933   4.034   9.344 -0.7950  0.0897 -0.6888
  367MOL0     H50590   6.099   4.069   9.284  0.0496 -0.2025  1.5266
  367MOL0     H50591   5.845   4.237   9.228  0.5715 -0.0908  0.9941
  367MOL0     H50592   6.004   4.242   9.150  1.5259 -0.7568  0.2619
  367MOL0     H50593   6.124   4.270   9.366 -0.1657 -1.8728 -0.0657
  367MOL0     H50594   6.010   4.401   9.317  2.0566  0.1390 -0.4535
  367MOL0     H50595   6.010   4.089   9.559 -0.1136  0.3731 -2.6463
  367MOL0     H50596   5.832   4.226   9.880  2.0275 -0.4468  0.3730
  367MOL0     H50597   5.916   4.091   9.837  1.4285 -0.0870 -1.0724
  367MOL0     H50598   5.669   4.053   9.908  1.6800 -0.8433 -0.3721
  367MOL0     H50599   5.622   4.151   9.768 -1.0399  1.0698  2.2753
  367MOL0     H50600   5.774   3.968   9.621  2.1329  2.0351  0.8940
  367MOL0     H50601   5.770   3.886   9.763  0.2092  0.8882  0.9123
  367MOL0     H50602   5.574   3.807   9.646 -0.5058  0.0805  0.1180
  367MOL0     H50603   5.534   3.867   9.798 -2.6656 -1.7427 -0.9273
  367MOL0     H50604   5.405   4.155   9.443 -2.6709  1.0103  1.6509
  367MOL0     H50605   5.253   4.122   9.172  5.1595  2.0711  1.1574
  367MOL0     H50606   5.308   4.231   9.294  1.3391 -0.9491 -2.0433
  367MOL0     H50607   5.130   4.187   9.291 -0.7053 -1.5180  1.9297
  367MOL0     H50608   4.779   3.938   9.278 -0.8630  0.7475  3.5256
  367MOL0     H50609   4.547   3.875   9.258 -1.2087  0.1355 -4.0346
  367MOL0     H50610   4.344   3.769   9.328 -0.1111 -0.2457  0.2603
  367MOL0     H50611   4.383   3.759   9.160 -0.1756 -1.6147 -0.6415
  367MOL0     H50612   4.173   3.672   9.161  1.9953  3.0049 -0.1037
  367MOL0     H50613   4.281   3.529   9.152 -0.8011 -1.7900  2.2409
  367MOL0     H50614   4.160   3.643   9.404 -2.8695  1.0170 -1.9009
  367MOL0     H50615   4.256   3.491   9.395 -2.2362 -2.2434 -0.2984
  367MOL0     H50616   4.045   3.431   9.216 -1.3036  0.4990  0.3334
  367MOL0     H50617   3.967   3.550   9.323  0.8170  1.5426 -1.3898
  367MOL0     H50618   4.108   3.301   9.404 -0.1338 -0.0897  3.8752
  367MOL0     H50619   4.036   3.391   9.515  2.3411  0.7869 -1.0453
  367MOL0     H50620   3.876   3.224   9.480 -0.4458  1.3075  0.3925
  367MOL0     H50621   3.881   3.235   9.301 -1.4807  1.8060 -1.5357
  367MOL0     H50622   3.673   3.318   9.364  2.0126 -2.2018  0.1807
  367MOL0     H50623   3.768   3.456   9.308 -0.8632 -0.0037 -0.0479
  367MOL0     H50624   3.640   3.518   9.512 -1.7116 -0.7987  2.5405
  367MOL0     H50625   3.822   3.531   9.531  0.4066 -0.9556  0.1073
  367MOL0     H50626   4.667   3.469   9.276 -0.6920  0.1503  0.0602
  367MOL0     H50627   4.909   3.529   9.274  0.8306  0.5055  0.5487
  367MOL0     H50628   5.148   3.740   9.494 -1.2702  0.7621 -0.1581
  367MOL0     H50629   5.344   3.776   9.634  0.5184  0.3789 -0.4475
  367MOL0     H50630   5.605   3.609   9.478 -0.8759  1.8304  1.3233
  367MOL0     H50631   5.474   3.425   9.592 -2.4564 -2.1865 -0.3708
  367MOL0     H50632   5.308   3.243   9.776  0.5343 -2.1487 -2.3625
  367MOL0     H50633   5.275   3.084   9.938  1.2614 -2.7978 -1.8902
  367MOL0     H50634   5.234   2.887  10.049 -0.2935  0.0359  0.0902
  367MOL0     H50635   5.107   2.942  10.169  0.6626  1.8309  0.2048
  367MOL0     H50636   4.992   2.734  10.148  1.0668  0.1518 -0.9543
  367MOL0     H50637   5.162   2.703  10.175  2.6318  0.7360 -1.4774
  367MOL0     H50638   5.054   2.709   9.887 -0.8602  1.4581  2.0193
  367MOL0     H50639   5.216   2.672   9.938 -0.3183  0.3858 -0.9339
  367MOL0     H50640   5.134   2.459  10.024 -1.4324  1.0621  2.8217
  367MOL0     H50641   5.084   2.486   9.851  2.0387 -0.4384 -0.3444
  367MOL0     H50642   4.706   2.412  10.011 -0.3167 -2.5406 -1.4189
  367MOL0     H50643   4.859   3.044   9.831 -0.8331 -0.9386 -1.6771
  367MOL0     H50644   4.782   3.165   9.626  2.2380 -2.2181  0.0455
  367MOL0     H50645   4.821   3.325   9.687  3.4582  2.7043 -2.0155
  367MOL0     H50646   4.889   3.268   9.531 -2.0840 -2.2049 -0.9891
  368MOL0     O50647   1.823   3.896  10.148 -0.6126 -1.1532  0.0924
  368MOL0     C50648   1.758   3.801  10.123 -0.2278 -0.1617 -0.2238
  368MOL0     O50649   1.805   3.694  10.040 -0.2087 -0.3047  0.4977
  368MOL0     C50650   1.936   3.671  10.011  1.1063 -0.3213  0.2434
  368MOL0     C50651   2.010   3.773   9.954  0.0300  0.7469 -0.0651
  368MOL0     C50652   2.140   3.756   9.916  0.0636  0.9949  0.9391
  368MOL0     C50653   2.195   3.622   9.928 -1.0532 -0.5493 -0.2052
  368MOL0     O50654   2.327   3.598   9.910 -0.3165  0.0747  0.5006
  368MOL0     C50655   2.427   3.701   9.902  0.8404 -0.1848 -0.0287
  368MOL0     C50656   2.574   3.653   9.883  0.5921 -0.0376 -0.3385
  368MOL0     C50657   2.570   3.559   9.758  0.2773 -1.0233  0.1520
  368MOL0     C50658   2.569   3.420   9.803  0.4900  0.1372 -0.0030
  368MOL0     C50659   2.553   3.316   9.682 -0.5698 -0.8543  0.6981
  368MOL0     C50660   2.542   3.183   9.741 -0.2781  0.8666 -0.4002
  368MOL0     C50661   2.407   3.158   9.805  1.2607 -0.6746  0.2717
  368MOL0     C50662   2.314   3.086   9.715 -1.2975 -0.0061  0.0295
  368MOL0     N50663   2.175   3.112   9.753 -0.3757  0.3154 -1.0416
  368MOL0     C50664   2.097   3.222   9.720 -0.2794 -0.2016  0.0355
  368MOL0     C50665   1.974   3.196   9.777 -0.8174 -0.5030  0.2706
  368MOL0     C50666   1.848   3.278   9.765 -0.0851 -0.6246 -0.4590
  368MOL0     C50667   1.722   3.194   9.799 -0.4007 -0.1777 -0.0649
  368MOL0     C50668   1.603   3.290   9.775 -0.7999 -0.1312  0.2254
  368MOL0     C50669   1.474   3.220   9.744 -0.3462  0.3913 -0.4189
  368MOL0     O50670   1.367   3.309   9.723 -0.7253 -0.6537  0.5319
  368MOL0     C50671   1.258   3.292   9.799 -0.5838 -0.1651 -0.5798
  368MOL0     C50672   1.225   3.390   9.907  0.3841 -0.7377 -0.2994
  368MOL0     C50673   1.113   3.378   9.990  0.6054  0.1754  0.3800
  368MOL0     C50674   1.107   3.469  10.118 -0.0235  0.6726 -0.1332
  368MOL0     C50675   1.028   3.262   9.968 -0.4459 -0.6037  0.0382
  368MOL0     C50676   0.898   3.235  10.039 -0.3617  0.6849  0.2914
  368MOL0     O50677   0.861   3.101  10.039 -1.2963 -0.3415 -0.2560
  368MOL0     C50678   0.748   3.068  10.092  0.7900 -0.5956 -0.7117
  368MOL0     C50679   0.744   3.064  10.229  0.6564  0.3161 -0.5191
  368MOL0     C50680   0.624   3.031  10.292 -0.8374 -1.1222  0.4940
  368MOL0     C50681   0.506   3.025  10.216 -0.5949 -0.1233 -0.0380
  368MOL0     O50682   0.394   2.998  10.285  0.4034  1.2622 -0.1348
  368MOL0     C50683   0.265   3.043  10.227 -0.0610 -0.3587 -0.3616
  368MOL0     C50684   0.153   3.018  10.333  0.0189  0.8921 -0.1942
  368MOL0     C50685   0.013   3.031  10.279 -0.2550 -0.0770 -0.1818
  368MOL0     C50686   0.001   3.175  10.224 -0.0554 -0.5234 -0.0318
  368MOL0     C50687  -0.151   3.209  10.207 -0.3905  0.8825 -0.5038
  368MOL0     C50688  -0.167   3.353  10.178  0.2570 -0.2013 -0.1379
  368MOL0     C50689  -0.315   3.360  10.132 -0.5175 -1.0129 -0.8129
  368MOL0     C50690  -0.345   3.494  10.072  0.1069 -0.1022 -0.1117
  368MOL0    Cl50691  -0.518   3.503  10.023  0.7247 -0.1030  0.4585
  368MOL0     C50692   0.510   3.018  10.076  0.2057 -0.2314  0.9589
  368MOL0     C50693   0.636   3.035  10.017 -0.4421 -0.1505  1.1612
  368MOL0     O50694   0.824   3.334  10.060  0.5181  0.0737  0.0698
  368MOL0     C50695   1.063   3.156   9.875 -0.7122  0.5304 -0.6065
  368MOL0     C50696   1.176   3.185   9.792 -0.3091  0.0702  1.2236
  368MOL0     N50697   1.987   3.088   9.867 -0.0367  0.3566  0.5719
  368MOL0     N50698   2.101   3.028   9.839  0.5194 -0.3288 -0.8394
  368MOL0     C50699   2.115   3.520   9.963 -0.4476 -0.1158  1.1032
  368MOL0     C50700   1.977   3.539  10.000 -0.6187 -0.3217  0.0730
  368MOL0     C50701   1.612   3.793  10.169  0.4886  0.4384 -0.5861
  368MOL0     C50702   1.535   3.680  10.137  0.6465 -1.1866  1.0183
  368MOL0     C50703   1.398   3.678  10.162 -0.6137 -0.2280  0.2247
  368MOL0     C50704   1.331   3.783  10.226  0.0055  0.4373 -0.0836
  368MOL0     O50705   1.194   3.773  10.256 -0.0933 -0.1759  0.2214
  368MOL0     C50706   1.134   3.872  10.344  0.1611 -0.2987 -0.1029
  368MOL0     C50707   0.991   3.829  10.375 -0.7204  0.2595  0.6874
  368MOL0     C50708   0.987   3.715  10.464 -0.7269  0.3570  0.2526
  368MOL0     C50709   0.842   3.659  10.509  0.2819  0.4681 -0.0802
  368MOL0     C50710   0.768   3.621  10.389  0.2852  0.2637 -0.0391
  368MOL0     C50711   0.727   3.558  10.293  0.3562  0.2794  0.1902
  368MOL0     C50712   1.411   3.890  10.264  0.6779 -0.0482 -0.3559
  368MOL0     C50713   1.546   3.901  10.229 -1.1460 -0.0862 -0.6349
  368MOL0     C50714   1.608   4.038  10.269 -0.3767 -0.8099 -0.3314
  368MOL0     H50715   1.959   3.868   9.948  0.1097  0.8656  0.9365
  368MOL0     H50716   2.191   3.848   9.889 -2.4353  2.1765 -0.0554
  368MOL0     H50717   2.417   3.769   9.987 -1.6084 -0.6123  0.0996
  368MOL0     H50718   2.409   3.767   9.817 -0.4164 -0.4173  0.0345
  368MOL0     H50719   2.640   3.739   9.871  1.9211 -0.7911  1.2416
  368MOL0     H50720   2.608   3.597   9.971  1.7473 -0.2526 -0.9029
  368MOL0     H50721   2.484   3.579   9.693  0.6046 -4.0195 -1.4167
  368MOL0     H50722   2.660   3.585   9.703 -0.5589  1.8558  0.0185
  368MOL0     H50723   2.655   3.386   9.861  1.1419  0.2697 -0.8698
  368MOL0     H50724   2.491   3.410   9.880  2.0357 -0.8943  1.4952
  368MOL0     H50725   2.641   3.317   9.617 -1.9232  1.0990 -1.2452
  368MOL0     H50726   2.466   3.349   9.623 -0.4067 -1.9468 -0.1897
  368MOL0     H50727   2.550   3.113   9.656 -1.5271  0.3217 -0.0880
  368MOL0     H50728   2.626   3.161   9.807 -1.9193 -0.6327  1.3144
  368MOL0     H50729   2.367   3.254   9.838  2.1245  0.4188 -1.6682
  368MOL0     H50730   2.429   3.101   9.895 -1.3470 -0.5744  1.0689
  368MOL0     H50731   2.338   3.102   9.610 -1.8781  1.2000  0.0620
  368MOL0     H50732   2.340   2.982   9.733 -0.8941  0.5291  3.0852
  368MOL0     H50733   2.118   3.307   9.656 -1.3340 -0.4108 -0.6138
  368MOL0     H50734   1.839   3.324   9.666  0.2000 -0.3184 -0.3470
  368MOL0     H50735   1.858   3.362   9.835  2.3445 -2.2552  1.3287
  368MOL0     H50736   1.711   3.105   9.735 -1.9406 -1.1685  1.4774
  368MOL0     H50737   1.723   3.156   9.901 -1.6039 -0.5087 -0.1574
  368MOL0     H50738   1.585   3.353   9.862  1.8412 -1.7234  2.0885
  368MOL0     H50739   1.626   3.351   9.687  1.0382  0.4535  1.0606
  368MOL0     H50740   1.492   3.163   9.653 -0.4054 -0.4246  0.0685
  368MOL0     H50741   1.450   3.146   9.821  1.2387  1.1959  0.9343
  368MOL0     H50742   1.282   3.482   9.917 -0.7159 -0.2293  2.1047
  368MOL0     H50743   1.180   3.431  10.190 -0.9031  3.4134  2.4062
  368MOL0     H50744   1.009   3.467  10.167  0.5240  7.3774  2.3229
  368MOL0     H50745   1.126   3.575  10.095  0.3492  0.1687 -2.3819
  368MOL0     H50746   0.830   3.087  10.291 -0.8891  1.6316  1.2460
  368MOL0     H50747   0.637   3.026  10.399 -1.1176 -0.4282  0.5641
  368MOL0     H50748   0.259   3.149  10.200 -2.9471 -0.7884 -1.7549
  368MOL0     H50749   0.241   3.000  10.130  1.2913  0.9022 -1.2915
  368MOL0     H50750   0.169   2.919  10.378  0.4944  0.6469 -0.8853
  368MOL0     H50751   0.162   3.088  10.417  2.6179 -0.3178  0.6473
  368MOL0     H50752  -0.058   3.027  10.362  0.6141  1.5171  0.7076
  368MOL0     H50753  -0.016   2.956  10.205 -1.8659  1.0967 -0.7816
  368MOL0     H50754   0.047   3.189  10.126 -1.9701  0.9243 -0.7998
  368MOL0     H50755   0.042   3.240  10.302 -1.2397  0.9726 -0.5984
  368MOL0     H50756  -0.186   3.139  10.131  2.5008 -1.1432 -0.1407
  368MOL0     H50757  -0.206   3.186  10.299 -1.8171 -0.3667 -1.6201
  368MOL0     H50758  -0.103   3.379  10.093 -1.0893  2.4440 -0.4562
  368MOL0     H50759  -0.146   3.413  10.267 -2.1143 -0.6285  0.7861
  368MOL0     H50760  -0.387   3.340  10.212 -2.5606 -0.8384 -2.5234
  368MOL0     H50761  -0.340   3.276  10.067 -2.2939 -0.8588 -0.3714
  368MOL0     H50762  -0.283   3.498   9.982 -2.4538 -0.9313 -2.0184
  368MOL0     H50763  -0.315   3.571  10.144 -1.2864 -0.0209  0.4159
  368MOL0     H50764   0.424   2.978  10.024  0.0143  1.0430  0.2729
  368MOL0     H50765   0.647   3.019   9.910  3.4031 -0.0877  1.3917
  368MOL0     H50766   1.007   3.065   9.857  1.4932 -0.5557 -2.4750
  368MOL0     H50767   1.198   3.110   9.717  0.6645  0.8734  0.6809
  368MOL0     H50768   2.171   3.427   9.959 -0.7897 -0.3011  0.4536
  368MOL0     H50769   1.915   3.465  10.049 -1.2931 -0.8211 -1.4850
  368MOL0     H50770   1.577   3.588  10.097  0.5808  0.2831 -2.8847
  368MOL0     H50771   1.350   3.583  10.141  3.1245 -2.2019 -0.1342
  368MOL0     H50772   1.191   3.889  10.436 -0.5922 -2.0824  0.7496
  368MOL0     H50773   1.132   3.972  10.301 -1.2499 -0.8997 -1.5430
  368MOL0     H50774   0.933   3.820  10.283  1.3208  0.1420 -0.6518
  368MOL0     H50775   0.948   3.908  10.438 -2.2526 -2.7855  3.8086
  368MOL0     H50776   1.054   3.636  10.426  1.3600  0.5817  3.1353
  368MOL0     H50777   1.037   3.742  10.557 -0.4062 -0.7555  0.4158
  368MOL0     H50778   0.792   3.735  10.570 -0.1388 -2.5831  3.7598
  368MOL0     H50779   0.840   3.575  10.579 -1.6130 -1.4888 -2.2938
  368MOL0     H50780   0.700   3.506  10.203 -0.7322 -0.8327  1.1195
  368MOL0     H50781   1.368   3.977  10.314  0.9346 -0.3847  0.4686
  368MOL0     H50782   1.535   4.087  10.333  0.0696  1.4314 -1.4365
  368MOL0     H50783   1.708   4.037  10.313 -0.2346 -0.4139 -0.6414
  368MOL0     H50784   1.623   4.105  10.184  0.8979 -0.2295  0.3228
  369MOL0     O50785   6.515   8.491   6.667  0.0502 -0.3929  0.1185
  369MOL0     C50786   6.536   8.494   6.547  0.1478  0.3376  0.2659
  369MOL0     O50787   6.667   8.483   6.492  0.5686 -0.1208  0.5876
  369MOL0     C50788   6.788   8.482   6.561  0.9112  0.1351 -0.5179
  369MOL0     C50789   6.795   8.464   6.703  0.8164  0.0338  0.1292
  369MOL0     C50790   6.917   8.472   6.767 -0.1510 -0.2543  0.1116
  369MOL0     C50791   7.037   8.503   6.698  0.0607 -0.7057 -0.1181
  369MOL0     O50792   7.147   8.520   6.776 -0.1818 -0.3436  0.0576
  369MOL0     C50793   7.280   8.517   6.718  0.6254  0.1604  0.3422
  369MOL0     C50794   7.391   8.511   6.828  0.0695 -0.2600 -0.2665
  369MOL0     C50795   7.396   8.639   6.906  0.4241 -0.5475 -0.1920
  369MOL0     C50796   7.497   8.645   7.012  0.0982 -0.5804 -0.7943
  369MOL0     C50797   7.512   8.783   7.077  0.1151 -0.1715  0.5703
  369MOL0     C50798   7.620   8.768   7.192  0.1203 -0.0229 -0.7760
  369MOL0     C50799   7.761   8.750   7.137 -0.0664 -0.1268 -0.0723
  369MOL0     C50800   7.805   8.859   7.040 -0.1327  0.2773  0.8445
  369MOL0     N50801   7.948   8.875   7.047  0.8676  0.1842  0.8457
  369MOL0     C50802   8.016   8.762   7.009  0.2791  0.2959  0.6090
  369MOL0     C50803   8.142   8.810   6.993 -0.0425  0.0235 -0.1713
  369MOL0     C50804   8.259   8.740   6.923  0.0240 -0.9065 -1.0286
  369MOL0     C50805   8.394   8.762   7.002 -0.1954 -0.2166  0.9727
  369MOL0     C50806   8.512   8.702   6.928 -0.5500  0.6441 -0.3412
  369MOL0     C50807   8.640   8.719   7.007 -0.1035 -0.4138 -0.3657
  369MOL0     O50808   8.752   8.656   6.944 -0.2880 -0.0918  0.2002
  369MOL0     C50809   8.880   8.672   7.001  0.4227 -0.2765  0.1144
  369MOL0     C50810   8.993   8.608   6.941  0.1785  0.6272 -0.7557
  369MOL0     C50811   9.125   8.613   6.985 -0.3988 -0.5306  0.8207
  369MOL0     C50812   9.229   8.529   6.910  0.4272 -0.0204 -1.0260
  369MOL0     C50813   9.151   8.690   7.100 -0.2079 -0.7465 -0.5498
  369MOL0     C50814   9.283   8.705   7.160 -0.4676  0.3523 -0.5623
  369MOL0     O50815   9.395   8.691   7.084  0.5447  0.0111  0.4972
  369MOL0     C50816   9.513   8.681   7.150 -0.1419 -0.4849 -0.3438
  369MOL0     C50817   9.607   8.589   7.099  0.1023  0.1784  0.2663
  369MOL0     C50818   9.738   8.584   7.151 -0.0296 -0.8988  0.7809
  369MOL0     C50819   9.784   8.672   7.241 -0.7903  0.0371  0.7259
  369MOL0     O50820   9.912   8.656   7.286  0.4130  0.0228 -0.2219
  369MOL0     C50821   9.965   8.709   7.406  0.3607 -0.1064  0.5650
  369MOL0     C50822  10.112   8.662   7.417  0.4864 -0.3650  0.8163
  369MOL0     C50823  10.161   8.704   7.550 -0.7324 -0.4072 -0.4965
  369MOL0     C50824  10.285   8.627   7.591 -0.1079 -0.1234 -0.2371
  369MOL0     C50825  10.405   8.655   7.501 -0.2527 -0.0777  0.2662
  369MOL0     C50826  10.538   8.655   7.567  1.1191 -0.9126 -0.3364
  369MOL0     C50827  10.562   8.526   7.655 -0.2664  0.9962  0.5126
  369MOL0     C50828  10.709   8.499   7.670 -1.1040 -0.4990  0.0146
  369MOL0    Cl50829  10.759   8.441   7.508  0.0802 -0.1205 -0.1087
  369MOL0     C50830   9.693   8.765   7.290  0.5382 -0.6099 -0.2782
  369MOL0     C50831   9.560   8.768   7.254  0.5591  0.0370  0.7578
  369MOL0     O50832   9.281   8.723   7.283  0.0643  0.9480 -0.0716
  369MOL0     C50833   9.043   8.758   7.160  0.4077 -0.0482 -0.3756
  369MOL0     C50834   8.913   8.746   7.115  0.2015  0.0039 -0.1202
  369MOL0     N50835   8.135   8.945   7.032 -0.2541  0.0935  1.0211
  369MOL0     N50836   8.018   8.987   7.057 -0.1171 -0.4462  0.6226
  369MOL0     C50837   7.022   8.522   6.556 -0.9956 -0.9415 -0.1304
  369MOL0     C50838   6.906   8.510   6.490 -0.3025 -0.3178  0.4237
  369MOL0     C50839   6.419   8.505   6.456  0.0980  0.1435 -0.3616
  369MOL0     C50840   6.446   8.494   6.313  0.3060  0.0646 -0.7735
  369MOL0     C50841   6.339   8.496   6.224 -0.0741  0.0296 -0.2220
  369MOL0     C50842   6.204   8.518   6.270 -0.3801 -0.1737  1.0892
  369MOL0     O50843   6.094   8.534   6.192  0.8716  0.7662  0.6053
  369MOL0     C50844   6.098   8.526   6.052  0.8630  0.2351 -0.0052
  369MOL0     C50845   5.952   8.489   6.000 -0.3080  0.1727 -0.1036
  369MOL0     C50846   5.899   8.350   6.046 -0.6616 -0.8840  0.4062
  369MOL0     C50847   5.833   8.373   6.189 -0.6958  0.1453  0.3874
  369MOL0     C50848   5.742   8.258   6.210 -0.3680  1.1389 -0.4286
  369MOL0     C50849   5.664   8.170   6.210  0.8047  0.2710  0.1840
  369MOL0     C50850   6.184   8.531   6.412  0.2652  1.3485 -0.0885
  369MOL0     C50851   6.287   8.522   6.511 -0.3182  0.1566 -0.0191
  369MOL0     C50852   6.254   8.547   6.654  0.8140 -1.0307 -0.2953
  369MOL0     H50853   6.713   8.437   6.769  1.3875  2.1423  1.8145
  369MOL0     H50854   6.928   8.455   6.873  0.6514 -0.4147  0.0075
  369MOL0     H50855   7.279   8.604   6.651  1.1290  1.2906  1.7308
  369MOL0     H50856   7.293   8.424   6.664  0.8622  1.6138 -2.2453
  369MOL0     H50857   7.377   8.423   6.892  2.6581  1.1083  2.4739
  369MOL0     H50858   7.487   8.502   6.776  0.7691  2.4543  0.3677
  369MOL0     H50859   7.419   8.724   6.840 -1.4694  1.3037  1.3756
  369MOL0     H50860   7.302   8.656   6.961  0.6974  0.5052 -0.0180
  369MOL0     H50861   7.460   8.575   7.087 -0.6342  0.3692 -0.2453
  369MOL0     H50862   7.595   8.612   6.976  1.2324 -1.2923  2.5511
  369MOL0     H50863   7.418   8.810   7.125 -0.8324  0.9834 -1.7880
  369MOL0     H50864   7.529   8.865   7.007 -0.7872 -0.9618 -0.6307
  369MOL0     H50865   7.613   8.856   7.257 -3.2537  1.6097 -3.0976
  369MOL0     H50866   7.597   8.683   7.257 -0.2655  0.0513 -0.8097
  369MOL0     H50867   7.781   8.652   7.092  0.4492  0.4772 -1.2108
  369MOL0     H50868   7.812   8.766   7.232  0.7535 -1.3545 -0.2906
  369MOL0     H50869   7.767   8.830   6.942 -2.3642 -1.2636  2.0566
  369MOL0     H50870   7.755   8.954   7.058  1.1629  1.0914  0.2891
  369MOL0     H50871   7.985   8.660   6.988  1.3850  0.2716 -1.0664
  369MOL0     H50872   8.272   8.777   6.821  1.3573  1.5840 -0.0194
  369MOL0     H50873   8.230   8.635   6.907  0.2745 -1.0686 -0.4461
  369MOL0     H50874   8.404   8.869   7.020 -2.0074  0.1261  0.1796
  369MOL0     H50875   8.378   8.712   7.098 -2.3998  0.7885  1.1762
  369MOL0     H50876   8.493   8.595   6.918 -0.5653  0.6695 -0.6004
  369MOL0     H50877   8.533   8.754   6.834  2.0810  0.3199  0.0169
  369MOL0     H50878   8.671   8.823   7.018  1.2217 -0.7586 -0.6827
  369MOL0     H50879   8.637   8.678   7.108  3.8275  0.0667  0.0957
  369MOL0     H50880   8.967   8.539   6.861  1.0477  1.0957 -1.4624
  369MOL0     H50881   9.174   8.453   6.853 -3.2890  0.4483  1.6323
  369MOL0     H50882   9.292   8.466   6.974 -0.1686 -0.9881 -1.3590
  369MOL0     H50883   9.299   8.592   6.854  0.4548 -0.7475 -1.8454
  369MOL0     H50884   9.571   8.515   7.029 -0.5290  2.4456 -1.9864
  369MOL0     H50885   9.799   8.506   7.106 -1.3997 -3.5304  3.1305
  369MOL0     H50886   9.951   8.818   7.408  0.4012 -0.1033  0.7441
  369MOL0     H50887   9.912   8.664   7.491 -1.1532  0.3167 -0.1285
  369MOL0     H50888  10.120   8.554   7.406  2.9678 -0.0258 -2.2252
  369MOL0     H50889  10.174   8.711   7.341  0.5632 -1.0359  0.4458
  369MOL0     H50890  10.082   8.688   7.624 -0.7070 -3.2703 -0.9771
  369MOL0     H50891  10.192   8.809   7.550  0.6866 -0.7942  0.8550
  369MOL0     H50892  10.258   8.521   7.581 -0.6857  0.1407 -1.7329
  369MOL0     H50893  10.313   8.662   7.690  1.8311  0.9523 -1.0923
  369MOL0     H50894  10.415   8.580   7.423 -1.2348 -0.9191  0.9150
  369MOL0     H50895  10.387   8.755   7.461  0.7705 -0.0400 -0.1319
  369MOL0     H50896  10.543   8.734   7.642 -3.1766 -1.2114  0.5363
  369MOL0     H50897  10.608   8.661   7.483  1.9283  0.1594  0.3942
  369MOL0     H50898  10.504   8.444   7.610 -2.2370  1.7663  1.5010
  369MOL0     H50899  10.501   8.542   7.745 -1.9886  0.8443 -0.5688
  369MOL0     H50900  10.708   8.426   7.752 -0.6759  2.7433  3.1386
  369MOL0     H50901  10.778   8.579   7.699 -2.6929  1.3540 -1.0679
  369MOL0     H50902   9.716   8.839   7.366  2.3963 -1.1561 -0.2668
  369MOL0     H50903   9.484   8.841   7.278  0.9245  0.3867  0.8680
  369MOL0     H50904   9.058   8.814   7.253 -1.6815 -2.1564  1.3466
  369MOL0     H50905   8.828   8.787   7.169 -1.2245 -0.3375 -1.9928
  369MOL0     H50906   7.112   8.558   6.507 -1.5675  2.6276  1.1665
  369MOL0     H50907   6.906   8.517   6.382  1.3204 -2.0917  0.2589
  369MOL0     H50908   6.545   8.482   6.270  0.5883 -0.7592  0.0853
  369MOL0     H50909   6.364   8.484   6.120  2.2064  0.2935  0.2408
  369MOL0     H50910   6.136   8.612   5.997  0.4327 -0.9537 -2.2895
  369MOL0     H50911   6.161   8.440   6.026 -1.9588 -1.9202 -0.2085
  369MOL0     H50912   5.947   8.483   5.891  2.5419  0.1336 -0.3057
  369MOL0     H50913   5.885   8.570   6.028 -0.6108  0.2050 -0.8778
  369MOL0     H50914   5.816   8.310   5.987 -1.9271  0.7068  1.0496
  369MOL0     H50915   5.980   8.277   6.057  2.2102  1.9958 -0.2576
  369MOL0     H50916   5.774   8.465   6.186 -0.4628  0.2990  0.4692
  369MOL0     H50917   5.916   8.384   6.259  2.0942  2.5295 -2.9218
  369MOL0     H50918   5.590   8.093   6.219  1.3922 -0.3021  0.1686
  369MOL0     H50919   6.084   8.543   6.452 -1.0855 -2.3673 -1.9689
  369MOL0     H50920   6.314   8.633   6.686 -0.4153 -0.0573 -0.5364
  369MOL0     H50921   6.149   8.567   6.676  0.7458 -0.9330 -0.6888
  369MOL0     H50922   6.284   8.458   6.709  4.3476 -0.4726 -1.0602
  370MOL0     O50923   0.520   8.897   0.165 -0.4988  0.1786 -0.4027
  370MOL0     C50924   0.477   8.820   0.082 -0.4850  0.2782  0.7626
  370MOL0     O50925   0.532   8.701   0.052 -0.4689 -0.3156  0.3704
  370MOL0     C50926   0.622   8.633   0.127  0.2582 -0.4467 -0.3507
  370MOL0     C50927   0.721   8.564   0.064 -0.3022 -0.2039 -0.1694
  370MOL0     C50928   0.810   8.480   0.128  0.3741  1.1012  0.1434
  370MOL0     C50929   0.810   8.476   0.267 -0.5190  0.1262 -0.3371
  370MOL0     O50930   0.909   8.397   0.324 -0.2989  0.4183  0.0880
  370MOL0     C50931   0.879   8.342   0.452  0.5720 -0.4790  0.0213
  370MOL0     C50932   0.965   8.419   0.560  0.1689 -0.5157  0.1771
  370MOL0     C50933   1.116   8.395   0.535  0.2006 -0.6084 -0.2115
  370MOL0     C50934   1.195   8.376   0.664  0.3189 -0.0811 -1.2184
  370MOL0     C50935   1.219   8.502   0.749  0.2293  0.2518  0.0407
  370MOL0     C50936   1.309   8.610   0.678 -0.2442  0.0818 -0.3316
  370MOL0     C50937   1.426   8.533   0.602  0.2106  0.2257 -0.4285
  370MOL0     C50938   1.537   8.624   0.555  0.0326 -0.1028 -0.1526
  370MOL0     N50939   1.614   8.561   0.448 -0.0891 -0.1017 -1.0097
  370MOL0     C50940   1.729   8.481   0.470  0.3371  0.3472 -0.1175
  370MOL0     C50941   1.785   8.472   0.352  0.3344 -0.0347 -0.2235
  370MOL0     C50942   1.900   8.381   0.316 -1.1113  0.0271  0.5960
  370MOL0     C50943   1.846   8.243   0.254 -0.1197 -0.5522  0.2908
  370MOL0     C50944   1.955   8.151   0.214  0.8588 -0.3393  0.4534
  370MOL0     C50945   2.031   8.090   0.334 -0.5692 -0.0281  0.3691
  370MOL0     O50946   2.124   8.183   0.395  0.2958 -0.3016 -0.5020
  370MOL0     C50947   2.215   8.259   0.325 -0.4452 -0.0378  0.2740
  370MOL0     C50948   2.257   8.382   0.371 -0.9434 -0.0524  0.2588
  370MOL0     C50949   2.350   8.469   0.307  0.4644 -0.1455  0.4199
  370MOL0     C50950   2.363   8.600   0.378  0.2969  0.7374  0.0586
  370MOL0     C50951   2.420   8.415   0.199  1.0522 -0.4360  0.1597
  370MOL0     C50952   2.540   8.475   0.129  0.4965 -0.3433  0.2687
  370MOL0     O50953   2.590   8.414   0.028  0.0396  0.0405  0.0533
  370MOL0     C50954   2.721   8.431  -0.019 -0.3722  0.2352  0.1656
  370MOL0     C50955   2.751   8.376  -0.148 -0.5840  0.0870 -0.4320
  370MOL0     C50956   2.882   8.371  -0.204  0.4471  0.4656 -0.3391
  370MOL0     C50957   2.982   8.407  -0.124 -0.1009  0.0209  0.8503
  370MOL0     O50958   3.115   8.400  -0.168  0.1573 -0.0982  0.0012
  370MOL0     C50959   3.129   8.394  -0.312 -0.1074 -0.0184  0.2211
  370MOL0     C50960   3.258   8.454  -0.355  0.1448  0.1047  0.1146
  370MOL0     C50961   3.386   8.382  -0.315 -0.2040 -0.7154 -0.9580
  370MOL0     C50962   3.435   8.429  -0.176 -0.7702  0.1711 -0.8151
  370MOL0     C50963   3.567   8.364  -0.151  0.2131  0.0929 -0.0343
  370MOL0     C50964   3.641   8.427  -0.028  1.6909 -0.5368  0.0391
  370MOL0     C50965   3.586   8.376   0.105 -0.2273  0.0070 -0.3857
  370MOL0     C50966   3.638   8.233   0.127 -0.9879  0.0123  1.1210
  370MOL0    Cl50967   3.817   8.215   0.112  0.2077  0.0687 -0.0963
  370MOL0     C50968   2.963   8.455   0.007 -0.4155  1.4966 -0.5529
  370MOL0     C50969   2.832   8.469   0.062 -0.3539  0.5036  0.5565
  370MOL0     O50970   2.595   8.567   0.191 -0.2097  0.2085  0.4437
  370MOL0     C50971   2.378   8.294   0.151  0.3815  0.0704 -0.8627
  370MOL0     C50972   2.272   8.223   0.204  0.1100  0.4557 -0.2749
  370MOL0     N50973   1.698   8.535   0.257  1.0473  0.1568  0.4406
  370MOL0     N50974   1.608   8.595   0.317  0.0812  0.3683 -0.0102
  370MOL0     C50975   0.714   8.552   0.333 -0.6374 -0.3082 -1.5076
  370MOL0     C50976   0.619   8.633   0.265  0.0375 -0.1399  0.2217
  370MOL0     C50977   0.354   8.858   0.007  0.6636 -0.4737  0.8598
  370MOL0     C50978   0.287   8.775  -0.090 -1.0493 -0.6322  0.5340
  370MOL0     C50979   0.168   8.809  -0.143 -0.4437  0.2874 -0.2465
  370MOL0     C50980   0.102   8.923  -0.102  0.2726  0.1725 -0.6064
  370MOL0     O50981  -0.027   8.956  -0.148 -0.1227 -0.1455 -0.1360
  370MOL0     C50982  -0.126   8.850  -0.134  0.0051  0.2864 -0.7983
  370MOL0     C50983  -0.255   8.909  -0.086  0.3276 -0.0702 -0.5607
  370MOL0     C50984  -0.355   8.802  -0.062 -0.3893  0.3742 -0.4398
  370MOL0     C50985  -0.478   8.868   0.003  0.4062  0.3095  0.4830
  370MOL0     C50986  -0.574   8.766   0.044 -0.2546  0.5277  0.7220
  370MOL0     C50987  -0.657   8.683   0.071  0.7705 -0.0705  0.3784
  370MOL0     C50988   0.165   9.007  -0.016 -0.1718 -1.0735 -1.0332
  370MOL0     C50989   0.283   8.981   0.044 -0.2696 -1.0289  0.5220
  370MOL0     C50990   0.336   9.098   0.125 -0.3167  0.2503 -0.4782
  370MOL0     H50991   0.717   8.567  -0.044  2.9198  2.0162 -0.3644
  370MOL0     H50992   0.882   8.423   0.070  0.3980 -0.4277  1.6193
  370MOL0     H50993   0.879   8.233   0.459 -0.6294 -0.4319  1.2222
  370MOL0     H50994   0.775   8.364   0.478  1.0997  2.8251 -0.1975
  370MOL0     H50995   0.934   8.523   0.547  0.1255 -0.3538  1.4853
  370MOL0     H50996   0.941   8.388   0.662  0.8373 -0.9970  0.1924
  370MOL0     H50997   1.121   8.302   0.478  3.5044 -0.4957 -0.2570
  370MOL0     H50998   1.159   8.475   0.474 -0.6103  2.1050  2.5107
  370MOL0     H50999   1.134   8.309   0.725  1.2213  0.6666  0.5837
  370MOL0     H51000   1.286   8.318   0.644 -0.1315 -0.8685 -1.0118
  370MOL0     H51001   1.239   8.463   0.850 -0.8630 -1.8205 -0.4996
  370MOL0     H51002   1.126   8.556   0.768 -1.3193 -0.4931 -4.3591
  370MOL0     H51003   1.241   8.653   0.604 -0.4283 -1.4708 -1.1193
  370MOL0     H51004   1.357   8.690   0.735  0.0737  0.0456 -0.5436
  370MOL0     H51005   1.397   8.476   0.513 -1.4180 -1.0763  0.8624
  370MOL0     H51006   1.477   8.465   0.671  3.9086  1.6250 -1.5008
  370MOL0     H51007   1.493   8.717   0.517  2.8558  0.6401 -1.9795
  370MOL0     H51008   1.609   8.648   0.634  1.7092 -1.8181 -1.0784
  370MOL0     H51009   1.773   8.431   0.556 -0.0772 -2.1263 -1.2813
  370MOL0     H51010   1.960   8.361   0.406  2.4243  1.8979 -1.1230
  370MOL0     H51011   1.979   8.426   0.254 -1.1012 -0.6878  0.0805
  370MOL0     H51012   1.793   8.190   0.332 -1.3664  1.4954  0.9187
  370MOL0     H51013   1.785   8.267   0.167 -0.8698 -0.8077  0.7460
  370MOL0     H51014   1.905   8.075   0.154  1.8904 -1.9409  1.5309
  370MOL0     H51015   2.023   8.209   0.150  0.8219 -2.0226 -1.1805
  370MOL0     H51016   1.965   8.044   0.408  0.1980  0.3448  1.2983
  370MOL0     H51017   2.095   8.009   0.299  0.1242  1.3986 -1.9474
  370MOL0     H51018   2.204   8.414   0.460 -3.2236 -1.4510 -0.5095
  370MOL0     H51019   2.289   8.604   0.459 -0.7852 -0.1521 -0.8558
  370MOL0     H51020   2.350   8.677   0.302  1.6959 -0.0095 -0.9674
  370MOL0     H51021   2.462   8.614   0.421 -0.2794  0.9200  1.3755
  370MOL0     H51022   2.660   8.349  -0.201 -0.9650  0.0962  0.2116
  370MOL0     H51023   2.891   8.324  -0.301  0.0141  1.9104 -1.1122
  370MOL0     H51024   3.123   8.289  -0.341  2.5888 -0.2662  0.2977
  370MOL0     H51025   3.045   8.444  -0.362 -0.7738  1.3451  2.5419
  370MOL0     H51026   3.256   8.461  -0.464  1.4765  1.7802  0.1478
  370MOL0     H51027   3.251   8.556  -0.316 -2.1922 -0.1987  0.6492
  370MOL0     H51028   3.457   8.408  -0.393  0.8914  1.4023  0.6533
  370MOL0     H51029   3.381   8.273  -0.310  4.3883 -1.0829  1.0675
  370MOL0     H51030   3.372   8.400  -0.092  2.3070 -4.2335  0.3422
  370MOL0     H51031   3.437   8.538  -0.166 -0.3934 -0.0637  3.5596
  370MOL0     H51032   3.552   8.257  -0.133  0.3074  0.3792  1.9404
  370MOL0     H51033   3.631   8.378  -0.239  0.6367  0.1749  0.2833
  370MOL0     H51034   3.615   8.533  -0.031 -1.2064 -0.9232  4.0080
  370MOL0     H51035   3.748   8.418  -0.045  1.6567  0.0661 -0.5360
  370MOL0     H51036   3.478   8.388   0.108 -0.0970  1.4107 -0.7901
  370MOL0     H51037   3.628   8.445   0.178 -0.3578  0.7941 -1.0451
  370MOL0     H51038   3.596   8.159   0.057 -0.0192  0.4499  0.0570
  370MOL0     H51039   3.608   8.206   0.229 -2.3250 -1.3100  0.4295
  370MOL0     H51040   3.055   8.458   0.065  0.7180 -0.9233 -2.0605
  370MOL0     H51041   2.812   8.512   0.160 -1.7866 -0.1806  0.6049
  370MOL0     H51042   2.423   8.265   0.056  0.2454  0.1566 -0.9536
  370MOL0     H51043   2.241   8.128   0.164  1.9628 -1.1280  1.8103
  370MOL0     H51044   0.696   8.543   0.439 -2.3627 -1.7169 -1.8720
  370MOL0     H51045   0.540   8.686   0.318  0.5647 -0.2069  1.1072
  370MOL0     H51046   0.345   8.693  -0.131  0.5362  1.1805 -1.1162
  370MOL0     H51047   0.131   8.740  -0.218 -2.6472  2.2736 -1.1075
  370MOL0     H51048  -0.141   8.800  -0.230  0.5220 -0.6312 -0.4190
  370MOL0     H51049  -0.092   8.777  -0.060  2.2025  2.4027  0.4428
  370MOL0     H51050  -0.303   8.980  -0.154 -1.6767  0.2502  1.0808
  370MOL0     H51051  -0.236   8.966   0.006  0.1810 -1.2182  0.1984
  370MOL0     H51052  -0.378   8.755  -0.158 -0.8868  0.8159 -0.5443
  370MOL0     H51053  -0.311   8.728   0.005 -1.8076  1.3782  1.7014
  370MOL0     H51054  -0.528   8.943  -0.060 -0.1189  0.5252  1.1365
  370MOL0     H51055  -0.437   8.904   0.098  3.4084 -2.4453  0.4122
  370MOL0     H51056  -0.726   8.604   0.090  2.5730 -1.9214 -0.3128
  370MOL0     H51057   0.112   9.092   0.027  1.6367 -0.5718  0.3035
  370MOL0     H51058   0.437   9.130   0.100 -1.8231  4.0074 -2.4766
  370MOL0     H51059   0.274   9.188   0.129  0.1322  0.5056  0.9811
  370MOL0     H51060   0.344   9.062   0.228  0.5055  0.3956 -0.4889
  371MOL0     O51061   7.699   1.774   0.621  0.0647  0.0497  0.6049
  371MOL0     C51062   7.670   1.774   0.733 -0.6760 -0.1130  0.3142
  371MOL0     O51063   7.754   1.760   0.834  0.0896  0.0550 -0.6448
  371MOL0     C51064   7.891   1.753   0.818 -0.4772 -2.1669 -0.0995
  371MOL0     C51065   7.972   1.667   0.889  0.0451  0.4390 -0.2555
  371MOL0     C51066   8.109   1.679   0.881  0.5942 -0.8813  0.0233
  371MOL0     C51067   8.177   1.771   0.803  0.5708 -0.0038 -0.6689
  371MOL0     O51068   8.316   1.785   0.817  0.0317 -0.0118  0.5113
  371MOL0     C51069   8.385   1.777   0.688  0.3523  0.3290  0.7066
  371MOL0     C51070   8.428   1.918   0.637  0.2321  0.4051 -0.3160
  371MOL0     C51071   8.462   2.019   0.749  0.4134  0.2623  0.5292
  371MOL0     C51072   8.495   2.158   0.695 -0.6313  0.0919 -0.3077
  371MOL0     C51073   8.430   2.284   0.749 -0.3724  0.2709 -0.1039
  371MOL0     C51074   8.281   2.312   0.721  0.5419 -0.3591  0.6150
  371MOL0     C51075   8.199   2.346   0.843 -0.5656 -0.5726 -0.1567
  371MOL0     C51076   8.048   2.370   0.814 -0.1877  0.2544 -0.3522
  371MOL0     N51077   7.977   2.407   0.941  0.1051 -0.1158  0.0820
  371MOL0     C51078   7.954   2.315   1.035 -0.3195  0.9195  0.1940
  371MOL0     C51079   7.905   2.385   1.135  0.2837  0.4166 -0.7113
  371MOL0     C51080   7.859   2.333   1.273 -0.3723  0.5301 -0.5141
  371MOL0     C51081   7.724   2.386   1.330  0.6179  0.1615 -0.7429
  371MOL0     C51082   7.737   2.526   1.391 -0.3033  0.7002  0.3682
  371MOL0     C51083   7.604   2.592   1.454  0.0309  0.9363  0.2857
  371MOL0     O51084   7.591   2.505   1.560 -0.3911 -0.1645 -0.7918
  371MOL0     C51085   7.476   2.501   1.637 -1.1503 -0.0309 -0.9612
  371MOL0     C51086   7.352   2.563   1.611 -0.1282 -0.1638  0.2004
  371MOL0     C51087   7.245   2.538   1.704  0.9706 -0.2842 -0.6845
  371MOL0     C51088   7.117   2.619   1.676  0.1484  0.0951 -0.2559
  371MOL0     C51089   7.255   2.451   1.817 -0.4894 -0.4547  0.3574
  371MOL0     C51090   7.152   2.405   1.909 -1.3751 -0.1795  0.4244
  371MOL0     O51091   7.198   2.350   2.028 -0.0122 -0.2100 -0.6685
  371MOL0     C51092   7.094   2.288   2.100 -0.4155  0.3789 -0.9425
  371MOL0     C51093   7.089   2.323   2.232  0.5724  0.4550  0.1349
  371MOL0     C51094   6.986   2.256   2.305  0.4599  0.7358  0.4585
  371MOL0     C51095   6.901   2.156   2.251  0.2505 -0.3656 -0.3519
  371MOL0     O51096   6.809   2.089   2.326  0.6279 -0.5302 -1.0800
  371MOL0     C51097   6.790   2.123   2.465  0.1376 -0.3287 -0.0727
  371MOL0     C51098   6.694   2.020   2.532 -0.2262  0.8044  0.0609
  371MOL0     C51099   6.666   2.049   2.682  0.5096  1.0038 -0.0266
  371MOL0     C51100   6.694   1.917   2.765 -0.2661 -0.1489  0.3776
  371MOL0     C51101   6.839   1.907   2.812  0.7468 -1.0654 -0.9920
  371MOL0     C51102   6.846   1.782   2.895 -0.1687 -0.1359 -0.0473
  371MOL0     C51103   6.990   1.735   2.877 -0.3422  0.7470  0.1016
  371MOL0     C51104   7.024   1.631   2.979 -0.1102 -0.4188 -0.0420
  371MOL0    Cl51105   6.969   1.460   2.937 -0.5431  0.1835 -0.1618
  371MOL0     C51106   6.907   2.123   2.115 -0.7262  0.4181 -0.2743
  371MOL0     C51107   7.010   2.193   2.041  0.4524 -0.3482 -0.2501
  371MOL0     O51108   7.033   2.421   1.882 -0.1830  0.4338 -0.1679
  371MOL0     C51109   7.376   2.387   1.832 -0.4357 -0.3018  0.4807
  371MOL0     C51110   7.483   2.413   1.743  0.1005 -0.1625  0.1338
  371MOL0     N51111   7.877   2.514   1.090 -0.3654 -0.3235  0.7822
  371MOL0     N51112   7.913   2.524   0.969 -0.2528  0.1722 -0.6855
  371MOL0     C51113   8.094   1.862   0.728 -0.9897  0.2422 -0.1079
  371MOL0     C51114   7.951   1.851   0.733 -0.4305  0.0715 -0.3795
  371MOL0     C51115   7.528   1.810   0.771  0.2203 -0.5912  0.5722
  371MOL0     C51116   7.487   1.785   0.904  0.6277  0.4202  0.4676
  371MOL0     C51117   7.347   1.794   0.934  0.8504  0.5201 -0.0788
  371MOL0     C51118   7.246   1.818   0.844 -0.3539 -0.4891  0.3526
  371MOL0     O51119   7.120   1.817   0.893  0.2793  0.8602  0.4654
  371MOL0     C51120   7.026   1.878   0.802 -0.1857  0.0776  0.1201
  371MOL0     C51121   6.897   1.917   0.870  0.9014  0.2550 -0.0386
  371MOL0     C51122   6.807   1.989   0.768 -0.2971 -0.5721 -0.7503
  371MOL0     C51123   6.691   2.048   0.843 -0.2859 -0.4713 -0.0414
  371MOL0     C51124   6.600   2.128   0.766 -0.4954 -0.6056  0.6871
  371MOL0     C51125   6.523   2.198   0.708 -0.2110 -1.0906  0.6099
  371MOL0     C51126   7.289   1.829   0.704  0.9355  1.1041 -0.3637
  371MOL0     C51127   7.426   1.834   0.669 -0.3456 -0.4879 -0.3183
  371MOL0     C51128   7.443   1.875   0.521 -0.1890 -0.1125 -0.3530
  371MOL0     H51129   7.932   1.599   0.964  2.5212 -1.1479 -0.2810
  371MOL0     H51130   8.164   1.589   0.904 -2.2911 -3.0336 -0.9713
  371MOL0     H51131   8.321   1.726   0.616 -2.3435  3.6077  0.5564
  371MOL0     H51132   8.471   1.710   0.703  0.2054  0.0746  0.4074
  371MOL0     H51133   8.507   1.906   0.563  0.2396 -0.9175 -0.1167
  371MOL0     H51134   8.345   1.954   0.575  1.8571  0.5009 -2.5488
  371MOL0     H51135   8.390   2.032   0.830 -0.6883 -0.3752 -0.3244
  371MOL0     H51136   8.552   1.988   0.803 -0.8704 -0.3926  2.3955
  371MOL0     H51137   8.599   2.168   0.725 -0.8992 -5.7981  4.4659
  371MOL0     H51138   8.471   2.157   0.588 -0.9200 -2.0541 -0.2671
  371MOL0     H51139   8.467   2.378   0.707 -0.4894  0.3284 -0.0783
  371MOL0     H51140   8.449   2.281   0.856 -1.5100  3.2333  0.2629
  371MOL0     H51141   8.269   2.392   0.647  0.0345 -1.5072 -0.5761
  371MOL0     H51142   8.238   2.226   0.668 -1.6800  2.1262 -1.9317
  371MOL0     H51143   8.233   2.437   0.893 -3.5268  1.4258 -1.5106
  371MOL0     H51144   8.211   2.267   0.917 -0.1165  0.6480  1.1237
  371MOL0     H51145   8.040   2.457   0.748  2.9405  0.4425 -0.6485
  371MOL0     H51146   7.997   2.286   0.767 -1.9850  2.0498 -1.7866
  371MOL0     H51147   7.980   2.210   1.041  1.5040  1.4350  2.2053
  371MOL0     H51148   7.934   2.361   1.348  0.0785  2.0751 -1.4917
  371MOL0     H51149   7.864   2.224   1.264  0.6181  0.5544 -0.4160
  371MOL0     H51150   7.651   2.395   1.250 -1.0328  0.6861  0.7618
  371MOL0     H51151   7.678   2.317   1.402 -3.1557  2.7748 -0.3332
  371MOL0     H51152   7.817   2.516   1.465  0.8111 -1.8294 -1.0549
  371MOL0     H51153   7.775   2.589   1.310 -0.5932  0.6679  0.2034
  371MOL0     H51154   7.601   2.696   1.488 -0.2160  1.1153 -0.2666
  371MOL0     H51155   7.525   2.593   1.378  2.0375  1.4127 -1.9409
  371MOL0     H51156   7.339   2.635   1.531  1.5200 -0.9023 -0.7768
  371MOL0     H51157   7.036   2.562   1.630  1.1635 -2.3400  0.7997
  371MOL0     H51158   7.136   2.704   1.611  2.7343  0.7395  1.1748
  371MOL0     H51159   7.076   2.652   1.772 -1.7895  0.3146 -1.1083
  371MOL0     H51160   7.161   2.389   2.278  1.3924 -0.6148  0.4237
  371MOL0     H51161   6.982   2.290   2.408  1.0557  2.3249 -0.0088
  371MOL0     H51162   6.884   2.130   2.521 -0.7901  1.9792  1.3492
  371MOL0     H51163   6.737   2.219   2.460 -0.0192 -0.3357  1.2121
  371MOL0     H51164   6.598   2.025   2.480  1.1655 -1.3615 -3.0107
  371MOL0     H51165   6.729   1.919   2.511  0.2551  0.2117  3.2632
  371MOL0     H51166   6.560   2.077   2.679  0.6303  1.6443  1.2180
  371MOL0     H51167   6.726   2.134   2.714  0.3959  1.6588 -1.4333
  371MOL0     H51168   6.671   1.837   2.694 -2.0685  0.3347  0.3570
  371MOL0     H51169   6.625   1.898   2.849 -1.8261 -4.6295 -1.6124
  371MOL0     H51170   6.905   1.899   2.725  4.4932  0.1500  1.5040
  371MOL0     H51171   6.877   1.989   2.873  1.5299  0.2093 -3.0956
  371MOL0     H51172   6.776   1.705   2.862  1.6447 -2.1870  0.5860
  371MOL0     H51173   6.830   1.808   3.000  0.4185  1.3331 -0.3055
  371MOL0     H51174   7.056   1.819   2.899  0.9651 -0.7284  2.2820
  371MOL0     H51175   7.014   1.698   2.777 -2.9481  0.8032 -0.6294
  371MOL0     H51176   6.990   1.658   3.079 -1.3409 -1.9080 -0.0193
  371MOL0     H51177   7.134   1.632   2.980 -0.0914  1.8862 -0.2578
  371MOL0     H51178   6.860   2.041   2.063  2.0794 -1.9133  0.6155
  371MOL0     H51179   7.010   2.171   1.935 -0.5870 -1.5869 -0.0173
  371MOL0     H51180   7.390   2.312   1.909 -0.2043 -1.4823 -0.6612
  371MOL0     H51181   7.578   2.361   1.742 -0.4442 -1.4868 -4.2745
  371MOL0     H51182   8.137   1.946   0.675  1.6087 -2.0851 -1.9547
  371MOL0     H51183   7.888   1.925   0.685  0.5735  1.3631  0.2344
  371MOL0     H51184   7.552   1.748   0.983 -0.4834  1.9681  2.1902
  371MOL0     H51185   7.320   1.754   1.031  1.2358  0.9902  0.2246
  371MOL0     H51186   7.075   1.962   0.752 -0.2357 -0.0669 -0.1702
  371MOL0     H51187   6.998   1.814   0.719  0.4956  1.6908 -1.4175
  371MOL0     H51188   6.913   1.992   0.948 -2.0632 -0.6716  1.5794
  371MOL0     H51189   6.857   1.826   0.916  1.6625  0.4755  1.1105
  371MOL0     H51190   6.862   2.069   0.719 -1.9909 -0.1867 -2.1484
  371MOL0     H51191   6.770   1.919   0.692 -2.5076  1.0053 -1.2356
  371MOL0     H51192   6.733   2.118   0.917 -2.6914  1.9779 -0.8375
  371MOL0     H51193   6.649   1.962   0.896  2.8839 -0.8525  2.1852
  371MOL0     H51194   6.463   2.264   0.650  2.2387 -0.5147 -1.4506
  371MOL0     H51195   7.219   1.840   0.621 -1.1998 -2.7792  0.6684
  371MOL0     H51196   7.496   1.785   0.487  2.2333  0.4828  1.5603
  371MOL0     H51197   7.348   1.889   0.468  0.4503  0.1375 -1.4635
  371MOL0     H51198   7.509   1.962   0.520 -1.0132  0.8234  4.2268
  372MOL0     O51199   9.563  11.354   2.069 -0.2404  0.2700  0.0316
  372MOL0     C51200   9.530  11.472   2.082 -0.2103 -0.5083  0.1956
  372MOL0     O51201   9.573  11.578   2.003  0.1386 -0.1226 -0.6799
  372MOL0     C51202   9.695  11.564   1.954  0.1135  0.3084 -0.5067
  372MOL0     C51203   9.801  11.620   2.020  0.7642  0.4808 -0.1331
  372MOL0     C51204   9.928  11.612   1.963 -0.7006  0.0609  0.1397
  372MOL0     C51205   9.950  11.557   1.836  0.1857  0.7517  0.4415
  372MOL0     O51206  10.081  11.558   1.787  0.5243  0.3031  0.3990
  372MOL0     C51207  10.100  11.501   1.648  0.2040 -0.6199 -0.9628
  372MOL0     C51208  10.253  11.509   1.636 -0.7055 -0.0548  0.5396
  372MOL0     C51209  10.292  11.433   1.502 -0.4065  1.0493 -0.5354
  372MOL0     C51210  10.450  11.419   1.487  0.2149  0.5366  0.3888
  372MOL0     C51211  10.492  11.362   1.347  0.4241 -0.3359  0.3785
  372MOL0     C51212  10.644  11.370   1.318  0.0009 -1.1319  0.5750
  372MOL0     C51213  10.737  11.281   1.404  0.2350  0.5858  0.7227
  372MOL0     C51214  10.717  11.133   1.371 -0.7576  0.1378 -0.7324
  372MOL0     N51215  10.799  11.053   1.456 -0.3477  0.2261 -0.4280
  372MOL0     C51216  10.920  10.998   1.421  0.4968 -0.6271  0.2999
  372MOL0     C51217  10.958  10.923   1.522  0.1840  0.3546  0.1927
  372MOL0     C51218  11.083  10.826   1.513 -0.0528 -0.3196  0.0584
  372MOL0     C51219  11.187  10.881   1.613  0.3592  0.3146 -0.4351
  372MOL0     C51220  11.328  10.869   1.557  0.5150  0.4133  0.2468
  372MOL0     C51221  11.438  10.891   1.663  0.4119 -0.7851 -0.4091
  372MOL0     O51222  11.460  11.032   1.697  0.2719 -0.4308 -0.0806
  372MOL0     C51223  11.581  11.089   1.669 -0.6125 -1.6777 -0.2636
  372MOL0     C51224  11.690  11.072   1.753  0.6345  0.2222 -0.0666
  372MOL0     C51225  11.813  11.137   1.728 -0.0817 -0.5695 -0.5917
  372MOL0     C51226  11.932  11.111   1.810 -0.9146 -0.0317 -0.2024
  372MOL0     C51227  11.833  11.216   1.607  0.4169  0.1408 -0.6112
  372MOL0     C51228  11.959  11.300   1.579 -0.2066  0.7968  1.0710
  372MOL0     O51229  12.042  11.341   1.680  0.1535  0.0977 -0.0127
  372MOL0     C51230  12.172  11.379   1.644 -0.1019 -0.1536 -0.3554
  372MOL0     C51231  12.266  11.294   1.589  0.0328  0.4361 -0.4017
  372MOL0     C51232  12.394  11.343   1.562 -0.3820  0.6253 -0.5820
  372MOL0     C51233  12.424  11.474   1.595  0.1409 -1.7116 -0.5452
  372MOL0     O51234  12.555  11.501   1.564 -0.0374 -0.9776  0.1294
  372MOL0     C51235  12.623  11.608   1.642 -0.1479 -0.2114  0.8832
  372MOL0     C51236  12.766  11.622   1.594  0.6928 -0.3958 -0.1411
  372MOL0     C51237  12.848  11.487   1.585 -0.3326 -0.4209 -0.6269
  372MOL0     C51238  12.996  11.507   1.556 -0.0491  0.1043  0.1835
  372MOL0     C51239  13.069  11.380   1.575 -0.1056  0.1279 -0.2949
  372MOL0     C51240  13.197  11.376   1.492 -0.1965 -0.7012  0.7130
  372MOL0     C51241  13.292  11.489   1.519 -0.4051 -0.1938  0.4080
  372MOL0     C51242  13.355  11.469   1.657 -0.3587  0.1131 -0.0062
  372MOL0    Cl51243  13.265  11.543   1.782 -0.2366 -0.2012  0.4470
  372MOL0     C51244  12.330  11.567   1.637  0.5099  0.6824  0.4474
  372MOL0     C51245  12.205  11.518   1.674  0.2999  0.3031  1.2214
  372MOL0     O51246  11.963  11.352   1.464 -0.0725  0.1567 -0.6844
  372MOL0     C51247  11.720  11.227   1.520 -0.2588 -0.8817  0.8481
  372MOL0     C51248  11.602  11.165   1.552 -0.5646 -0.3645 -0.0077
  372MOL0     N51249  10.857  10.933   1.612  0.0453  0.3638  0.3196
  372MOL0     N51250  10.765  11.019   1.578  0.3900  0.2470 -0.1993
  372MOL0     C51251   9.838  11.501   1.770  0.5370  0.0330  0.2352
  372MOL0     C51252   9.710  11.502   1.826  0.6116  0.3315 -0.3947
  372MOL0     C51253   9.436  11.523   2.191 -0.1388  0.0889  0.5768
  372MOL0     C51254   9.431  11.658   2.221  0.3109 -0.2203  0.7248
  372MOL0     C51255   9.341  11.694   2.314 -1.6189 -1.2149 -0.0100
  372MOL0     C51256   9.255  11.612   2.373  0.7341  1.0045 -0.6576
  372MOL0     O51257   9.141  11.634   2.448 -0.1994 -0.1532  0.3010
  372MOL0     C51258   9.093  11.764   2.470  0.2347 -0.2627 -0.7262
  372MOL0     C51259   9.006  11.817   2.359 -0.2242  0.3771 -0.1489
  372MOL0     C51260   8.883  11.719   2.327  0.4525 -0.0382 -0.4924
  372MOL0     C51261   8.881  11.656   2.184 -0.4433 -0.7549 -0.5639
  372MOL0     C51262   8.765  11.571   2.176  0.4037 -0.5446  0.4993
  372MOL0     C51263   8.670  11.494   2.181 -0.6088  0.3245 -0.8220
  372MOL0     C51264   9.255  11.478   2.341 -0.5781 -0.2616  0.3782
  372MOL0     C51265   9.343  11.431   2.246 -0.4838 -0.7622  0.3028
  372MOL0     C51266   9.326  11.281   2.208  0.1617 -0.6599  0.5057
  372MOL0     H51267   9.788  11.661   2.120 -1.6572 -0.0972 -0.1651
  372MOL0     H51268  10.014  11.652   2.017  1.6412 -0.5920 -2.8476
  372MOL0     H51269  10.051  11.566   1.575 -3.2268  1.4289  2.7889
  372MOL0     H51270  10.066  11.398   1.628 -2.3225 -0.4911  1.8229
  372MOL0     H51271  10.280  11.615   1.635 -0.1035 -0.2063 -0.5381
  372MOL0     H51272  10.308  11.460   1.717 -0.4155  3.6483  2.8359
  372MOL0     H51273  10.246  11.334   1.506 -0.1399  0.9720  1.4426
  372MOL0     H51274  10.245  11.482   1.416 -1.5278  0.3166 -0.3544
  372MOL0     H51275  10.494  11.516   1.512  2.2811  0.3579 -2.1021
  372MOL0     H51276  10.478  11.340   1.558  0.2679  0.7902  0.6491
  372MOL0     H51277  10.438  11.416   1.269 -0.6362  0.4068  1.5806
  372MOL0     H51278  10.452  11.260   1.351 -1.9610  0.4935  5.5521
  372MOL0     H51279  10.650  11.342   1.212 -2.2639 -2.1700  0.6626
  372MOL0     H51280  10.674  11.474   1.329  0.9503 -1.3346  0.0604
  372MOL0     H51281  10.707  11.290   1.509  2.9945  0.1785  1.6346
  372MOL0     H51282  10.840  11.315   1.395  1.0460 -1.7482  0.5323
  372MOL0     H51283  10.613  11.118   1.402 -1.2481  2.3829 -1.1692
  372MOL0     H51284  10.729  11.103   1.267 -1.6626 -1.1386 -0.4946
  372MOL0     H51285  10.992  11.022   1.345  1.5466  0.2037  1.5079
  372MOL0     H51286  11.123  10.812   1.412  0.5422 -0.1301  0.2625
  372MOL0     H51287  11.049  10.729   1.550 -1.1710  0.5419  1.3927
  372MOL0     H51288  11.165  10.986   1.635  1.9429  0.4315  0.8727
  372MOL0     H51289  11.175  10.831   1.710  0.8471 -0.0313 -0.5446
  372MOL0     H51290  11.330  10.770   1.511 -3.0517  0.2867  0.0551
  372MOL0     H51291  11.328  10.930   1.466 -1.2390  0.6347  0.3541
  372MOL0     H51292  11.402  10.836   1.751 -1.7562  0.2975 -0.5359
  372MOL0     H51293  11.533  10.848   1.631  1.4670  2.1763 -1.6595
  372MOL0     H51294  11.669  10.999   1.830  1.4596 -2.0308 -1.8724
  372MOL0     H51295  12.011  11.066   1.750  0.3682  0.2464  1.2398
  372MOL0     H51296  11.914  11.026   1.876 -1.2701 -0.6724 -1.1009
  372MOL0     H51297  11.966  11.200   1.865 -2.7994 -0.3090  1.5462
  372MOL0     H51298  12.253  11.189   1.564  1.6338 -0.4809  2.2725
  372MOL0     H51299  12.468  11.270   1.531  1.2564  0.4063  3.2601
  372MOL0     H51300  12.577  11.704   1.613  1.4137  1.4717  3.6084
  372MOL0     H51301  12.622  11.582   1.748 -0.2339 -1.2587  0.6315
  372MOL0     H51302  12.756  11.663   1.493 -3.4907 -2.9836 -1.0219
  372MOL0     H51303  12.818  11.693   1.659 -1.3184  1.1814 -0.1675
  372MOL0     H51304  12.809  11.423   1.506  1.7916 -1.5350 -0.8297
  372MOL0     H51305  12.825  11.433   1.678 -0.6605  0.7085 -0.0268
  372MOL0     H51306  13.039  11.576   1.629  2.4138 -2.1309  1.0220
  372MOL0     H51307  13.012  11.537   1.453  0.2487 -2.9611 -0.7712
  372MOL0     H51308  13.085  11.356   1.680  0.6801  2.5430  0.2032
  372MOL0     H51309  13.008  11.299   1.534 -0.5380 -0.6306  1.7713
  372MOL0     H51310  13.167  11.375   1.387 -0.8350  0.8436  0.8488
  372MOL0     H51311  13.258  11.285   1.495  1.9231  0.3273 -3.3934
  372MOL0     H51312  13.255  11.591   1.501 -0.3690  0.0319  1.5580
  372MOL0     H51313  13.372  11.471   1.446 -1.6492 -2.4876 -0.4620
  372MOL0     H51314  13.459  11.504   1.657 -0.1405 -0.5018 -1.0683
  372MOL0     H51315  13.361  11.361   1.669  3.9359  0.0575 -0.9803
  372MOL0     H51316  12.351  11.671   1.661  1.9047  0.1989  1.4164
  372MOL0     H51317  12.138  11.582   1.730  1.2989  2.4825  0.0531
  372MOL0     H51318  11.703  11.292   1.435 -1.2020 -1.7856  0.3102
  372MOL0     H51319  11.510  11.180   1.496 -1.5700 -1.3917  1.3055
  372MOL0     H51320   9.852  11.481   1.665  1.6393 -1.7051  0.6670
  372MOL0     H51321   9.623  11.479   1.766  0.8440 -1.3387 -0.1473
  372MOL0     H51322   9.494  11.731   2.171 -1.3401  0.3895 -0.5717
  372MOL0     H51323   9.347  11.801   2.330 -1.4093 -1.2981  0.5132
  372MOL0     H51324   9.040  11.752   2.565  1.1515 -0.5021 -0.2312
  372MOL0     H51325   9.170  11.838   2.493 -1.0892  1.6296 -2.0696
  372MOL0     H51326   9.076  11.831   2.276 -0.4548  1.9340 -0.0984
  372MOL0     H51327   8.970  11.915   2.390  0.8706  0.4257  1.0693
  372MOL0     H51328   8.883  11.643   2.406  1.4331  0.5354  0.0874
  372MOL0     H51329   8.793  11.779   2.343  0.9441  0.4432  0.5731
  372MOL0     H51330   8.973  11.603   2.158  1.1155  0.1276  2.6813
  372MOL0     H51331   8.861  11.735   2.111  0.5610 -0.9159 -1.0347
  372MOL0     H51332   8.585  11.430   2.180 -2.5380  2.6490  1.0314
  372MOL0     H51333   9.195  11.407   2.396  0.1316 -1.0116  0.2023
  372MOL0     H51334   9.360  11.258   2.107  2.0849  1.0590  0.6944
  372MOL0     H51335   9.393  11.225   2.274 -1.5699 -1.8481  1.3533
  372MOL0     H51336   9.225  11.239   2.213 -1.0980  2.0325 -0.5408
  373MOL0     O51337   0.687   1.795   1.448  0.7205  0.7429 -0.2492
  373MOL0     C51338   0.581   1.855   1.479  0.2651 -0.1968 -0.3982
  373MOL0     O51339   0.561   1.918   1.595 -0.0348 -0.3033 -0.3837
  373MOL0     C51340   0.668   1.928   1.680  0.3239 -0.4825 -0.0430
  373MOL0     C51341   0.716   2.060   1.713  0.6400  0.1678 -0.1666
  373MOL0     C51342   0.821   2.058   1.813 -0.0662 -0.6998  0.1647
  373MOL0     C51343   0.861   1.941   1.881  0.1859  0.5443 -0.5145
  373MOL0     O51344   0.952   1.966   1.971 -0.3256 -0.3247 -1.0414
  373MOL0     C51345   1.028   1.857   2.006 -0.1014  0.3641  0.5398
  373MOL0     C51346   1.150   1.906   2.079 -0.2500  0.3997  0.6097
  373MOL0     C51347   1.255   1.796   2.106 -0.0823  0.7157  0.6736
  373MOL0     C51348   1.375   1.851   2.184 -0.2844 -0.1924 -0.4753
  373MOL0     C51349   1.485   1.745   2.201  0.0271 -0.1109 -0.6435
  373MOL0     C51350   1.563   1.759   2.338  0.4576 -0.1433 -0.2343
  373MOL0     C51351   1.680   1.662   2.352  0.5331  0.0224  0.1339
  373MOL0     C51352   1.652   1.515   2.378  0.1216 -0.4703 -0.2213
  373MOL0     N51353   1.777   1.457   2.420  0.7362  0.1757  0.7609
  373MOL0     C51354   1.864   1.380   2.341 -0.5234  0.3957  0.1469
  373MOL0     C51355   1.961   1.342   2.431 -0.1234 -0.7851  0.2383
  373MOL0     C51356   2.077   1.248   2.416 -0.5967 -0.0397  0.4847
  373MOL0     C51357   2.168   1.282   2.304  0.5421  0.3983 -0.3534
  373MOL0     C51358   2.235   1.415   2.330  0.4086  0.4236  0.9502
  373MOL0     C51359   2.340   1.445   2.226  0.5093  0.0354 -0.2207
  373MOL0     O51360   2.434   1.522   2.301  0.0112  0.0209 -0.4169
  373MOL0     C51361   2.565   1.500   2.262 -0.6379 -0.6175 -1.0232
  373MOL0     C51362   2.664   1.555   2.359  0.4301  0.2897  0.3590
  373MOL0     C51363   2.800   1.537   2.332 -0.1998 -0.4766  1.0840
  373MOL0     C51364   2.901   1.594   2.428  0.3761  0.0913 -0.5047
  373MOL0     C51365   2.848   1.470   2.218  0.1978 -0.0386 -0.4093
  373MOL0     C51366   2.989   1.454   2.183 -1.0799  0.0242 -0.6872
  373MOL0     O51367   3.006   1.448   2.047  0.6770 -0.4302  0.8748
  373MOL0     C51368   3.136   1.437   2.006 -0.6481  0.0028 -0.4885
  373MOL0     C51369   3.218   1.327   1.997  0.1369  0.5320 -0.0650
  373MOL0     C51370   3.341   1.335   1.956  0.3192  0.2670  0.9183
  373MOL0     C51371   3.398   1.451   1.903  1.1711 -0.2419  1.1352
  373MOL0     O51372   3.525   1.475   1.865 -0.1997  0.2677 -0.5003
  373MOL0     C51373   3.551   1.387   1.757 -0.2669  0.0186 -0.3452
  373MOL0     C51374   3.700   1.388   1.730  0.2048  0.3973  0.1274
  373MOL0     C51375   3.763   1.312   1.856 -0.3786  0.4282 -0.2318
  373MOL0     C51376   3.913   1.287   1.846  0.7490  0.3322 -0.3649
  373MOL0     C51377   3.990   1.424   1.834  1.0401  0.4120 -0.0758
  373MOL0     C51378   3.951   1.535   1.938  0.1749  0.3117 -0.8691
  373MOL0     C51379   4.065   1.626   1.961 -1.5180 -0.2499 -0.1672
  373MOL0     C51380   4.024   1.749   2.047  0.1204 -0.4174  0.3099
  373MOL0    Cl51381   4.176   1.844   2.094  0.4939  0.4175  0.2422
  373MOL0     C51382   3.313   1.564   1.907 -0.7077 -0.3335  0.4770
  373MOL0     C51383   3.182   1.556   1.952 -0.6463  0.0157 -0.0251
  373MOL0     O51384   3.084   1.462   2.264  0.3390 -0.2274  0.9069
  373MOL0     C51385   2.751   1.433   2.126  0.0203 -0.0916 -0.3093
  373MOL0     C51386   2.617   1.443   2.138  0.2802  0.5220 -0.0768
  373MOL0     N51387   1.934   1.410   2.552  0.2614  0.1592 -0.3146
  373MOL0     N51388   1.823   1.481   2.545  0.3372 -0.1649 -0.5041
  373MOL0     C51389   0.800   1.816   1.857 -0.4911  0.3435 -0.4619
  373MOL0     C51390   0.723   1.810   1.749  0.5860 -0.2506 -0.0888
  373MOL0     C51391   0.466   1.842   1.385  0.1660  0.7485  0.3623
  373MOL0     C51392   0.338   1.839   1.440 -0.8102 -0.1886  0.0596
  373MOL0     C51393   0.233   1.826   1.353 -0.3905  0.0802  0.2810
  373MOL0     C51394   0.256   1.823   1.217  1.0141 -0.0257 -0.0783
  373MOL0     O51395   0.140   1.807   1.133  0.1752 -0.2290 -0.0036
  373MOL0     C51396   0.047   1.918   1.141  0.0870 -0.5625  0.5024
  373MOL0     C51397   0.008   1.946   1.003  0.5234  0.3196  0.5937
  373MOL0     C51398  -0.105   1.852   0.959  1.0708  0.7319  0.8072
  373MOL0     C51399  -0.242   1.929   0.949  0.7620  0.7243 -0.5554
  373MOL0     C51400  -0.282   1.979   1.084 -0.7542  0.0830  0.0197
  373MOL0     C51401  -0.313   2.019   1.189 -0.3107  0.2299  0.1463
  373MOL0     C51402   0.386   1.834   1.168  0.2971  0.4960 -0.4332
  373MOL0     C51403   0.488   1.852   1.248 -0.4270  0.3396  1.0910
  373MOL0     C51404   0.627   1.885   1.187  0.4963 -0.3371  0.1708
  373MOL0     H51405   0.688   2.161   1.683  2.3127  1.8098  3.2220
  373MOL0     H51406   0.875   2.149   1.837  1.2332 -0.4604 -3.1362
  373MOL0     H51407   1.063   1.806   1.916 -0.3844  3.9268 -1.8226
  373MOL0     H51408   0.971   1.784   2.064  1.2828 -1.6603 -0.5210
  373MOL0     H51409   1.194   1.973   2.004 -0.0124  0.1069  0.4879
  373MOL0     H51410   1.122   1.962   2.168 -0.8583  0.4789  0.3788
  373MOL0     H51411   1.213   1.709   2.157 -1.6570 -0.0165 -1.6656
  373MOL0     H51412   1.283   1.765   2.005  0.0416  1.9003  0.3249
  373MOL0     H51413   1.409   1.944   2.137 -1.6393  1.1545  1.0850
  373MOL0     H51414   1.340   1.877   2.284  2.4180  0.9073  0.2758
  373MOL0     H51415   1.550   1.749   2.113 -0.3952  1.5408 -0.9333
  373MOL0     H51416   1.431   1.651   2.206 -2.6203  1.3551  2.7140
  373MOL0     H51417   1.597   1.863   2.348 -0.7926  0.2030  0.6121
  373MOL0     H51418   1.494   1.758   2.423 -0.1806  1.6985 -0.6783
  373MOL0     H51419   1.736   1.705   2.435  0.2121 -2.2709  1.6380
  373MOL0     H51420   1.755   1.675   2.273  0.3143 -3.3320 -0.7732
  373MOL0     H51421   1.583   1.489   2.459  0.0308 -0.0054 -0.1486
  373MOL0     H51422   1.606   1.464   2.293 -0.3620 -0.4649  0.0294
  373MOL0     H51423   1.858   1.348   2.237 -0.7747  2.8135 -0.6425
  373MOL0     H51424   2.044   1.144   2.410 -1.5465  0.2158  1.1434
  373MOL0     H51425   2.132   1.245   2.511  0.7079  1.1587 -0.1887
  373MOL0     H51426   2.244   1.204   2.294 -0.1524 -0.9579  3.3979
  373MOL0     H51427   2.106   1.281   2.214 -2.0306 -2.6087  1.2429
  373MOL0     H51428   2.165   1.498   2.342  0.9763  1.3993 -1.7623
  373MOL0     H51429   2.288   1.402   2.425 -0.1148  0.3756  1.2391
  373MOL0     H51430   2.386   1.355   2.185  1.5301  1.3124 -2.0187
  373MOL0     H51431   2.290   1.507   2.152 -0.2848  2.9128  2.5028
  373MOL0     H51432   2.641   1.607   2.452 -3.2697 -2.1070  0.9891
  373MOL0     H51433   2.954   1.519   2.488 -0.7090  2.1969  3.4884
  373MOL0     H51434   2.844   1.647   2.505  0.5588 -0.4576  0.0265
  373MOL0     H51435   2.973   1.653   2.371  1.4254 -1.6046 -0.9993
  373MOL0     H51436   3.180   1.234   2.039 -1.0509  0.6516 -0.8453
  373MOL0     H51437   3.398   1.243   1.969 -0.5135 -0.3921  0.0581
  373MOL0     H51438   3.526   1.286   1.789  0.8051 -0.4132 -0.7988
  373MOL0     H51439   3.502   1.416   1.664  0.9712  1.1726 -0.6672
  373MOL0     H51440   3.723   1.343   1.632  1.5329  0.2007  0.5074
  373MOL0     H51441   3.730   1.492   1.720 -1.3883  1.0931  2.0611
  373MOL0     H51442   3.707   1.219   1.869 -0.8950  0.3553 -2.5064
  373MOL0     H51443   3.741   1.367   1.947  0.6966 -0.9345  0.9006
  373MOL0     H51444   3.949   1.229   1.760  0.2995 -1.1311  0.3903
  373MOL0     H51445   3.953   1.227   1.928  0.2397 -0.5101 -0.7081
  373MOL0     H51446   4.095   1.397   1.842  0.8271 -1.1088 -1.6482
  373MOL0     H51447   3.979   1.470   1.735 -3.7003  0.6163  0.2963
  373MOL0     H51448   3.933   1.494   2.038 -0.6727 -0.2710 -1.2430
  373MOL0     H51449   3.860   1.584   1.901  0.2561 -0.0990 -1.6380
  373MOL0     H51450   4.107   1.659   1.865 -1.7051  0.5848  0.0269
  373MOL0     H51451   4.135   1.564   2.017  0.0189  0.5059 -1.1821
  373MOL0     H51452   3.962   1.716   2.131  0.8838  0.8564  1.4119
  373MOL0     H51453   3.959   1.819   1.994  1.1462  0.2931 -0.0517
  373MOL0     H51454   3.362   1.657   1.879 -0.1178 -0.3818  1.2905
  373MOL0     H51455   3.114   1.640   1.956 -3.5512 -2.0780 -1.6103
  373MOL0     H51456   2.777   1.388   2.030  1.6099  2.9692 -1.4389
  373MOL0     H51457   2.548   1.403   2.063  0.0800 -0.3729  0.5634
  373MOL0     H51458   0.835   1.722   1.899  1.1236  1.2504  0.2664
  373MOL0     H51459   0.689   1.707   1.738  1.0276 -0.9173  3.6334
  373MOL0     H51460   0.323   1.838   1.548  0.8277  0.9031  0.3217
  373MOL0     H51461   0.130   1.826   1.385 -0.9236  2.5496 -1.1868
  373MOL0     H51462  -0.041   1.899   1.203 -0.1952  0.5256  0.4586
  373MOL0     H51463   0.094   2.007   1.184 -0.4633 -1.0788  2.2698
  373MOL0     H51464   0.100   1.937   0.945  0.1377 -0.4151  0.0652
  373MOL0     H51465  -0.033   2.047   1.004 -1.3900 -0.4136  0.5198
  373MOL0     H51466  -0.084   1.812   0.859  0.4545  0.6408  0.7096
  373MOL0     H51467  -0.122   1.774   1.034 -1.4538  0.9424  0.5470
  373MOL0     H51468  -0.319   1.862   0.909 -1.9192  2.9859  0.4989
  373MOL0     H51469  -0.237   2.011   0.878  1.0847  1.4792  0.3201
  373MOL0     H51470  -0.337   2.075   1.276 -0.3444 -1.8325  1.5440
  373MOL0     H51471   0.397   1.823   1.060 -1.2350 -0.1437 -0.5588
  373MOL0     H51472   0.694   1.956   1.237  0.9656 -1.4517  1.1910
  373MOL0     H51473   0.681   1.790   1.187 -0.9861 -1.2089  0.9714
  373MOL0     H51474   0.632   1.912   1.082  2.5862 -1.2600 -0.0097
  374MOL0     O51475   3.552   4.395   1.203  0.7263  0.3515  0.1162
  374MOL0     C51476   3.523   4.286   1.239 -0.1773  0.9837 -0.0928
  374MOL0     O51477   3.608   4.180   1.230 -0.5765  0.1415  0.2857
  374MOL0     C51478   3.752   4.192   1.206 -1.4632  0.7862  0.1626
  374MOL0     C51479   3.820   4.177   1.086 -0.2281 -0.2065  0.7383
  374MOL0     C51480   3.958   4.168   1.081  0.8369  0.0021  0.2236
  374MOL0     C51481   4.028   4.185   1.194 -0.4315 -0.9668 -0.2323
  374MOL0     O51482   4.163   4.165   1.212 -0.3633 -0.4176  0.8486
  374MOL0     C51483   4.233   4.096   1.109  0.3450 -0.5489 -0.4673
  374MOL0     C51484   4.367   4.043   1.151  0.5307 -0.5123 -0.2133
  374MOL0     C51485   4.363   3.983   1.295  0.2422  0.2303  0.0972
  374MOL0     C51486   4.271   3.864   1.311 -0.4194 -0.5039 -0.3391
  374MOL0     C51487   4.328   3.782   1.435  0.3637  0.1642 -0.0227
  374MOL0     C51488   4.229   3.676   1.482 -1.3061 -0.1730  0.2447
  374MOL0     C51489   4.157   3.724   1.602  0.3777 -0.2518 -0.6414
  374MOL0     C51490   4.091   3.607   1.680  0.8836 -0.2770  0.1963
  374MOL0     N51491   4.155   3.552   1.801  0.4821  0.3635 -0.3129
  374MOL0     C51492   4.190   3.628   1.910  0.1127  0.3590 -0.9320
  374MOL0     C51493   4.233   3.537   1.998 -0.3106  0.1588 -0.1326
  374MOL0     C51494   4.269   3.576   2.140  0.8883 -0.0119  0.0064
  374MOL0     C51495   4.422   3.599   2.164  0.7936 -0.5262 -0.9653
  374MOL0     C51496   4.473   3.711   2.077  0.2441 -1.0045  0.1794
  374MOL0     C51497   4.618   3.725   2.091  0.1337  0.1318  0.2066
  374MOL0     O51498   4.679   3.699   2.222  0.4761  0.0323 -0.4245
  374MOL0     C51499   4.814   3.706   2.248  0.6517  0.0516  0.0282
  374MOL0     C51500   4.907   3.735   2.152 -0.2439 -0.0436 -0.6839
  374MOL0     C51501   5.042   3.721   2.185 -0.7358  0.8761  0.1807
  374MOL0     C51502   5.142   3.729   2.072 -0.2044 -0.6001 -0.0434
  374MOL0     C51503   5.088   3.683   2.313 -0.4169 -0.5516  0.7093
  374MOL0     C51504   5.234   3.657   2.353  0.1473  0.6303  0.3243
  374MOL0     O51505   5.261   3.559   2.447 -0.0069  0.1786 -0.6922
  374MOL0     C51506   5.383   3.545   2.508 -0.5450  0.6488 -0.5978
  374MOL0     C51507   5.484   3.457   2.459  0.6797  0.1036 -0.3869
  374MOL0     C51508   5.582   3.416   2.540 -0.1244 -0.1234 -0.1377
  374MOL0     C51509   5.596   3.456   2.677 -0.0467  0.4335  0.4189
  374MOL0     O51510   5.698   3.420   2.765  1.0409 -0.0971  0.1800
  374MOL0     C51511   5.808   3.345   2.717 -0.6873 -0.4868 -0.3028
  374MOL0     C51512   5.911   3.325   2.824  0.0717  0.5251 -0.9435
  374MOL0     C51513   6.034   3.250   2.774  0.2138 -0.7185  0.4040
  374MOL0     C51514   6.142   3.260   2.879  0.4537 -0.0504 -0.1037
  374MOL0     C51515   6.278   3.230   2.821  0.8520  0.0331 -1.0767
  374MOL0     C51516   6.385   3.222   2.926 -0.3373  0.2244 -0.2589
  374MOL0     C51517   6.521   3.205   2.856  0.3587  0.5960  0.5731
  374MOL0     C51518   6.644   3.210   2.949 -0.6986  0.6978 -0.8423
  374MOL0    Cl51519   6.679   3.372   3.009 -0.2854  0.0175 -0.0364
  374MOL0     C51520   5.503   3.541   2.723 -0.2023 -0.6757  0.1830
  374MOL0     C51521   5.392   3.586   2.643 -0.2445 -0.0472  0.8087
  374MOL0     O51522   5.323   3.703   2.285 -0.3824 -0.4097  0.1549
  374MOL0     C51523   4.988   3.677   2.414 -0.0589  0.4085  0.3960
  374MOL0     C51524   4.858   3.674   2.379 -0.4423 -0.3093 -1.2657
  374MOL0     N51525   4.221   3.410   1.948 -0.2680 -0.0247  0.2099
  374MOL0     N51526   4.182   3.417   1.826  0.5722  0.0159 -0.4301
  374MOL0     C51527   3.966   4.221   1.315  0.3429 -0.0452 -0.0751
  374MOL0     C51528   3.827   4.225   1.319  0.0768 -0.5261  0.1125
  374MOL0     C51529   3.385   4.258   1.296 -0.3123  0.1865  0.0403
  374MOL0     C51530   3.349   4.117   1.318  0.7152  0.1560  0.2406
  374MOL0     C51531   3.227   4.087   1.361  0.4957  0.1021 -0.3003
  374MOL0     C51532   3.125   4.180   1.385 -0.1566  0.2350  1.3937
  374MOL0     O51533   3.009   4.141   1.453  0.1769  0.0232  0.6891
  374MOL0     C51534   2.883   4.199   1.408 -1.0886 -0.1811 -0.2595
  374MOL0     C51535   2.819   4.100   1.322  1.0166 -0.1498 -0.8912
  374MOL0     C51536   2.808   3.955   1.369  0.0234 -0.0715 -0.8650
  374MOL0     C51537   2.765   3.849   1.265  1.2827  0.3128  0.5215
  374MOL0     C51538   2.619   3.850   1.229 -0.2586 -0.2911  0.3278
  374MOL0     C51539   2.500   3.837   1.209 -0.1817  0.0260 -0.9771
  374MOL0     C51540   3.153   4.311   1.355  0.1359 -0.5771 -0.0966
  374MOL0     C51541   3.282   4.352   1.316 -0.1039 -0.6441  0.3906
  374MOL0     C51542   3.316   4.499   1.320  0.5667 -0.0966 -0.1764
  374MOL0     H51543   3.763   4.176   0.994  1.4188  1.2846 -0.3711
  374MOL0     H51544   3.996   4.116   0.994  1.8520  0.8946  0.1168
  374MOL0     H51545   4.256   4.172   1.034 -2.8316 -0.1998 -1.2222
  374MOL0     H51546   4.175   4.018   1.058 -2.9665  0.5030  1.4083
  374MOL0     H51547   4.423   3.974   1.087 -0.9920 -2.3431  0.3504
  374MOL0     H51548   4.436   4.128   1.161  1.3366 -1.0887 -0.7266
  374MOL0     H51549   4.468   3.957   1.313  0.1022  1.2295  2.9341
  374MOL0     H51550   4.333   4.050   1.376 -1.7750 -0.3657 -0.1073
  374MOL0     H51551   4.168   3.897   1.325  0.2835  2.1575 -0.9375
  374MOL0     H51552   4.282   3.790   1.232 -0.9197 -1.8921  0.8511
  374MOL0     H51553   4.343   3.853   1.516  0.8315 -1.1928  1.1286
  374MOL0     H51554   4.426   3.744   1.405  1.3735  3.6789 -1.7420
  374MOL0     H51555   4.161   3.657   1.398 -2.5218  2.5592  0.5014
  374MOL0     H51556   4.280   3.584   1.511 -0.1837  0.6864  1.0622
  374MOL0     H51557   4.077   3.794   1.575 -1.2035  0.2550  4.2718
  374MOL0     H51558   4.228   3.776   1.668  1.9188 -1.7637 -1.0541
  374MOL0     H51559   3.993   3.645   1.710 -0.0906 -1.2887 -1.5315
  374MOL0     H51560   4.081   3.524   1.610 -1.2169  3.3993 -4.4171
  374MOL0     H51561   4.185   3.736   1.903  1.0539  0.3146 -3.4762
  374MOL0     H51562   4.241   3.497   2.211 -0.6538  0.2182 -0.3011
  374MOL0     H51563   4.208   3.659   2.175  0.5559 -0.5408  0.7120
  374MOL0     H51564   4.432   3.613   2.272  0.2256 -0.2350 -0.9496
  374MOL0     H51565   4.472   3.505   2.139 -1.1403 -2.1716  0.9844
  374MOL0     H51566   4.452   3.704   1.970  2.8658  3.6178 -0.8909
  374MOL0     H51567   4.438   3.810   2.111  2.8252  0.0674 -0.0527
  374MOL0     H51568   4.653   3.647   2.023  4.0121 -0.0994  2.1924
  374MOL0     H51569   4.647   3.825   2.058 -0.1995  0.4081  0.7487
  374MOL0     H51570   4.872   3.757   2.052 -1.1549 -2.9689 -1.0998
  374MOL0     H51571   5.105   3.690   1.976  2.4876  2.8312 -2.7863
  374MOL0     H51572   5.214   3.648   2.083  0.7157 -0.0928 -1.9049
  374MOL0     H51573   5.200   3.821   2.069 -0.6439 -0.1489  2.7951
  374MOL0     H51574   5.472   3.411   2.361 -1.2593 -0.3832  0.0348
  374MOL0     H51575   5.649   3.339   2.504  0.0701 -1.0263  1.9898
  374MOL0     H51576   5.779   3.248   2.675 -0.2007 -1.1007  0.7315
  374MOL0     H51577   5.854   3.403   2.637  1.7404  0.3324  1.5711
  374MOL0     H51578   5.942   3.423   2.862 -0.2774  0.5430 -0.7067
  374MOL0     H51579   5.870   3.262   2.903  1.1962  0.5527 -0.3246
  374MOL0     H51580   6.064   3.301   2.682 -0.3103 -0.0312  0.6032
  374MOL0     H51581   6.019   3.145   2.747  1.5232 -1.1263  1.1983
  374MOL0     H51582   6.105   3.179   2.942 -1.2881 -2.3589 -3.7104
  374MOL0     H51583   6.146   3.354   2.935 -0.4716 -0.5974  0.9157
  374MOL0     H51584   6.280   3.134   2.770 -0.2257 -0.2555 -0.6076
  374MOL0     H51585   6.288   3.316   2.754  0.9093  0.2997 -0.7295
  374MOL0     H51586   6.372   3.142   2.999  2.2834 -1.1544 -1.1705
  374MOL0     H51587   6.374   3.319   2.976 -1.6387  0.8567 -1.7110
  374MOL0     H51588   6.538   3.276   2.774 -2.1639 -0.2936 -0.8753
  374MOL0     H51589   6.523   3.105   2.810  1.1383 -0.5367  2.9427
  374MOL0     H51590   6.734   3.169   2.901 -0.0582 -0.5834  1.3537
  374MOL0     H51591   6.633   3.150   3.039  1.8456 -0.0944 -0.9893
  374MOL0     H51592   5.512   3.588   2.820  1.9661  0.3645 -0.4351
  374MOL0     H51593   5.323   3.652   2.694 -1.8704 -1.9634  1.2118
  374MOL0     H51594   5.024   3.658   2.515  2.4863 -1.5925 -0.7920
  374MOL0     H51595   4.790   3.659   2.462  2.7259 -2.1808  1.2256
  374MOL0     H51596   4.026   4.233   1.405 -3.0197  0.6531  2.2776
  374MOL0     H51597   3.773   4.233   1.412  1.1759 -3.1547  1.0719
  374MOL0     H51598   3.422   4.037   1.308  0.1456 -0.4147  0.6116
  374MOL0     H51599   3.209   3.981   1.378  2.1473  0.0341  1.1879
  374MOL0     H51600   2.828   4.215   1.501  1.3048  2.1039  0.8921
  374MOL0     H51601   2.899   4.286   1.344 -0.0868  1.7758  2.4680
  374MOL0     H51602   2.867   4.101   1.223  0.1946  0.4943 -1.2968
  374MOL0     H51603   2.721   4.145   1.306  1.4821  0.4701 -2.2360
  374MOL0     H51604   2.905   3.925   1.410 -0.6092  0.6068  1.2262
  374MOL0     H51605   2.742   3.947   1.456 -0.5396  2.0934 -1.0364
  374MOL0     H51606   2.782   3.749   1.307 -0.7062 -0.8305 -1.2225
  374MOL0     H51607   2.829   3.860   1.176  0.4127  3.0615  0.1520
  374MOL0     H51608   2.403   3.815   1.170 -1.3737  2.9488  0.0641
  374MOL0     H51609   3.088   4.389   1.392 -0.4965 -1.0132 -0.2713
  374MOL0     H51610   3.355   4.538   1.225  0.0610  3.5007  0.9267
  374MOL0     H51611   3.220   4.542   1.353  1.4126  2.2459 -0.5291
  374MOL0     H51612   3.383   4.531   1.401  3.9805 -2.6111 -1.7586
  375MOL0     O51613   6.354   5.729   0.348 -0.5340  0.1371  0.2968
  375MOL0     C51614   6.318   5.844   0.379 -0.5834 -0.3143 -0.1744
  375MOL0     O51615   6.396   5.959   0.387 -0.2207  0.7820 -0.8516
  375MOL0     C51616   6.531   5.954   0.346  0.3802  0.7730  0.7368
  375MOL0     C51617   6.562   5.994   0.217  0.3607 -0.4893  0.2499
  375MOL0     C51618   6.696   5.997   0.176  0.4715 -0.4380  0.2682
  375MOL0     C51619   6.794   5.935   0.257 -0.3619 -0.2944 -0.0347
  375MOL0     O51620   6.913   5.936   0.193  0.0955 -0.5788  0.2501
  375MOL0     C51621   7.035   5.930   0.268 -1.3596 -0.0532  0.7045
  375MOL0     C51622   7.148   5.973   0.178  0.1149  0.0642 -0.2402
  375MOL0     C51623   7.179   6.119   0.152  0.2901 -1.0631 -0.7211
  375MOL0     C51624   7.295   6.145   0.061  0.7505  0.6018 -0.0789
  375MOL0     C51625   7.302   6.302   0.060 -0.4401 -0.5911  0.1631
  375MOL0     C51626   7.440   6.330   0.006  0.5559 -1.0422 -0.9424
  375MOL0     C51627   7.457   6.481  -0.003 -0.3744  0.5405 -0.8053
  375MOL0     C51628   7.607   6.516  -0.021  0.6365 -0.7248  0.2643
  375MOL0     N51629   7.696   6.498   0.099 -0.2799  0.9251  0.9148
  375MOL0     C51630   7.727   6.599   0.187 -0.1945 -0.0139  0.4008
  375MOL0     C51631   7.811   6.544   0.274  1.1043  0.2739 -0.0205
  375MOL0     C51632   7.881   6.620   0.381 -0.4224 -0.0214  0.3939
  375MOL0     C51633   8.004   6.690   0.340  0.1056 -0.1308  0.6179
  375MOL0     C51634   8.077   6.764   0.452  0.1216  0.7100  0.1035
  375MOL0     C51635   8.210   6.822   0.404  0.6991 -1.1419  0.1468
  375MOL0     O51636   8.257   6.919   0.492  0.1772  0.0053  0.2016
  375MOL0     C51637   8.397   6.934   0.499  0.3638 -0.6278 -0.5488
  375MOL0     C51638   8.437   7.061   0.539  0.0164  0.1017 -0.2734
  375MOL0     C51639   8.574   7.092   0.550  0.2212  1.2373  0.6948
  375MOL0     C51640   8.600   7.234   0.580  0.5776  0.4780  0.3396
  375MOL0     C51641   8.674   7.000   0.532  0.1284  0.2079  0.8351
  375MOL0     C51642   8.819   7.025   0.538  0.5192  0.0479 -0.3627
  375MOL0     O51643   8.894   6.911   0.560 -0.2831 -0.1869  0.7203
  375MOL0     C51644   9.028   6.910   0.538  0.4435  0.2949 -0.6556
  375MOL0     C51645   9.102   6.975   0.433 -0.3779  0.1182  0.4926
  375MOL0     C51646   9.239   6.966   0.415  0.4265 -0.1456  0.5200
  375MOL0     C51647   9.308   6.879   0.502  0.2173  0.1225 -0.3215
  375MOL0     O51648   9.442   6.855   0.504  0.2533 -0.0214 -0.5193
  375MOL0     C51649   9.521   6.950   0.432 -0.2389  1.0608 -0.4418
  375MOL0     C51650   9.666   6.902   0.443 -0.2105 -0.6397  0.4260
  375MOL0     C51651   9.728   6.967   0.569 -0.0196 -0.5724  0.1299
  375MOL0     C51652   9.887   6.972   0.560 -0.1911  0.5653 -0.4245
  375MOL0     C51653   9.944   7.045   0.692 -0.4774  0.3736  0.4971
  375MOL0     C51654  10.089   7.064   0.667 -0.2552  0.1981 -0.4065
  375MOL0     C51655  10.159   7.091   0.799 -0.0229 -0.1753 -0.3429
  375MOL0     C51656  10.311   7.073   0.779 -1.0944 -0.0825 -0.6711
  375MOL0    Cl51657  10.376   7.130   0.933  0.1931 -0.1138 -0.1132
  375MOL0     C51658   9.239   6.792   0.587  0.5522 -0.9570  0.3115
  375MOL0     C51659   9.098   6.812   0.616  0.4855  0.5045 -0.3778
  375MOL0     O51660   8.860   7.137   0.536  0.4650 -0.5039  0.6812
  375MOL0     C51661   8.633   6.870   0.511  0.4446 -0.6165 -0.0637
  375MOL0     C51662   8.493   6.838   0.486  0.0635  0.9392 -0.5792
  375MOL0     N51663   7.841   6.410   0.237 -0.5626 -0.1703  0.0204
  375MOL0     N51664   7.770   6.389   0.133  0.4329 -0.6243 -0.4092
  375MOL0     C51665   6.764   5.886   0.376 -0.1666 -0.1822  1.1644
  375MOL0     C51666   6.631   5.899   0.423  0.7222  0.1671  0.1486
  375MOL0     C51667   6.169   5.865   0.401  0.2912 -0.1759  0.1698
  375MOL0     C51668   6.118   5.993   0.358  0.0812 -0.7926 -0.3400
  375MOL0     C51669   5.993   6.030   0.395  0.5043  0.5444 -0.5782
  375MOL0     C51670   5.904   5.947   0.471  0.3344  0.4227 -0.1180
  375MOL0     O51671   5.776   5.969   0.513 -0.1456 -0.2379 -0.5313
  375MOL0     C51672   5.712   6.080   0.458  0.0637  0.6171  0.3627
  375MOL0     C51673   5.747   6.202   0.538  0.4420 -0.1319 -0.2492
  375MOL0     C51674   5.652   6.313   0.485 -0.2971 -0.1526 -0.1974
  375MOL0     C51675   5.681   6.445   0.560 -0.1836 -0.6465  0.2451
  375MOL0     C51676   5.812   6.498   0.518 -1.4588  0.6430  0.4522
  375MOL0     C51677   5.910   6.544   0.460  0.2379 -0.4143 -0.1361
  375MOL0     C51678   5.958   5.816   0.495  0.3178  0.0857 -0.1895
  375MOL0     C51679   6.081   5.773   0.466 -0.8409 -0.0487  0.7488
  375MOL0     C51680   6.117   5.628   0.495  0.3526 -0.4856 -0.2037
  375MOL0     H51681   6.476   6.032   0.164  0.4476  2.5334  2.0087
  375MOL0     H51682   6.721   6.036   0.078 -0.1484  1.1173  0.6884
  375MOL0     H51683   7.056   5.824   0.285  1.4092  0.3898  0.4398
  375MOL0     H51684   7.024   5.978   0.365 -0.7919  0.9879  0.2719
  375MOL0     H51685   7.234   5.926   0.227 -1.1830  1.3055  3.6218
  375MOL0     H51686   7.121   5.926   0.083  0.0736  0.8805 -0.6394
  375MOL0     H51687   7.093   6.165   0.103  1.3844  1.4373 -0.4742
  375MOL0     H51688   7.197   6.174   0.245 -0.8159 -1.2692 -0.3676
  375MOL0     H51689   7.380   6.098   0.110 -0.0008 -2.7464 -1.7223
  375MOL0     H51690   7.281   6.093  -0.034  2.6697  0.4296 -0.3006
  375MOL0     H51691   7.278   6.357   0.151 -1.6421  2.9133 -2.0563
  375MOL0     H51692   7.224   6.340  -0.007  0.6436  2.3716  0.4406
  375MOL0     H51693   7.515   6.282   0.069 -0.8019 -0.1477  1.4940
  375MOL0     H51694   7.446   6.282  -0.093 -3.0470 -0.7068 -1.4848
  375MOL0     H51695   7.420   6.536   0.084  0.8234  2.0198 -1.1878
  375MOL0     H51696   7.395   6.520  -0.085 -0.1235  1.0746 -0.7486
  375MOL0     H51697   7.642   6.468  -0.112 -1.0448  0.8175 -1.2757
  375MOL0     H51698   7.621   6.621  -0.051  0.0122 -1.1414 -1.5936
  375MOL0     H51699   7.696   6.701   0.166  0.9777  0.1652 -0.5292
  375MOL0     H51700   7.911   6.547   0.457  0.6478 -0.3485 -0.3144
  375MOL0     H51701   7.807   6.688   0.424 -1.7948 -0.7195 -0.7572
  375MOL0     H51702   8.070   6.619   0.290  1.2703  1.0380  0.4583
  375MOL0     H51703   7.985   6.767   0.265  0.5179 -1.5954 -1.0439
  375MOL0     H51704   8.011   6.836   0.500 -2.4970 -0.1769 -1.8783
  375MOL0     H51705   8.109   6.690   0.526  1.0877  1.6682  0.6691
  375MOL0     H51706   8.285   6.744   0.385  0.9624 -1.6332  2.7824
  375MOL0     H51707   8.198   6.863   0.303 -0.6395  0.6026  0.9547
  375MOL0     H51708   8.364   7.141   0.545 -0.5780 -0.5189  2.8665
  375MOL0     H51709   8.642   7.294   0.498 -1.1238  2.0995  0.5917
  375MOL0     H51710   8.657   7.237   0.673 -0.5186 -0.5671  1.0875
  375MOL0     H51711   8.508   7.287   0.606  0.7188  1.9462 -1.9094
  375MOL0     H51712   9.042   7.054   0.390 -2.6559 -1.5896  0.3667
  375MOL0     H51713   9.274   7.028   0.334  1.5819 -2.0567 -0.5032
  375MOL0     H51714   9.488   6.943   0.328 -0.2314 -2.4718 -0.3236
  375MOL0     H51715   9.510   7.048   0.478  2.3042  1.8501 -1.3662
  375MOL0     H51716   9.666   6.792   0.441  0.8846 -0.6418  0.1993
  375MOL0     H51717   9.715   6.928   0.349  0.1667 -2.4745  0.0723
  375MOL0     H51718   9.705   6.909   0.659  1.8002  0.4084  1.2749
  375MOL0     H51719   9.700   7.070   0.590  3.9880  0.6768  0.1465
  375MOL0     H51720   9.922   7.024   0.470 -2.3604  2.0037 -0.4985
  375MOL0     H51721   9.930   6.872   0.560 -0.6390  0.1543  4.6231
  375MOL0     H51722   9.897   7.142   0.712 -1.8107 -0.2853  0.6471
  375MOL0     H51723   9.929   6.983   0.781  1.5994 -0.7207  0.1557
  375MOL0     H51724  10.103   7.142   0.592 -0.0186 -0.7151 -1.3343
  375MOL0     H51725  10.143   6.974   0.637 -2.0535 -1.3566  0.7936
  375MOL0     H51726  10.114   7.030   0.877 -0.2191  0.0624 -0.2707
  375MOL0     H51727  10.141   7.197   0.821 -3.9815 -0.8886  0.5570
  375MOL0     H51728  10.346   7.132   0.695 -1.7634  1.4866  0.1079
  375MOL0     H51729  10.329   6.966   0.766 -1.9701 -0.3883  0.3808
  375MOL0     H51730   9.303   6.726   0.645 -0.3772 -2.3241 -0.1731
  375MOL0     H51731   9.053   6.762   0.701  1.8180 -3.6765 -1.8731
  375MOL0     H51732   8.708   6.791   0.513  1.9095  0.7288  1.5215
  375MOL0     H51733   8.470   6.734   0.463 -3.3398  1.6642 -0.9461
  375MOL0     H51734   6.842   5.835   0.430  0.8278 -1.6510 -1.4782
  375MOL0     H51735   6.601   5.871   0.523  0.6638 -2.6421 -0.5751
  375MOL0     H51736   6.184   6.059   0.302  1.1316 -2.2075 -0.8473
  375MOL0     H51737   5.973   6.125   0.348  3.4978  0.9684 -1.1904
  375MOL0     H51738   5.737   6.101   0.353  0.6255  0.7066  0.5100
  375MOL0     H51739   5.608   6.053   0.475  0.2735 -0.9273 -0.6413
  375MOL0     H51740   5.854   6.222   0.530  0.8699 -2.1295 -0.0897
  375MOL0     H51741   5.731   6.177   0.643  3.4693 -3.2165 -0.3236
  375MOL0     H51742   5.660   6.337   0.379  2.5615  2.2797  0.4116
  375MOL0     H51743   5.552   6.285   0.519  0.8824 -0.9243  3.0118
  375MOL0     H51744   5.673   6.424   0.667 -2.7409 -0.1049  0.2338
  375MOL0     H51745   5.593   6.507   0.540  0.0516 -0.1153  0.8253
  375MOL0     H51746   5.996   6.561   0.398  0.9131 -1.0557  0.6040
  375MOL0     H51747   5.897   5.740   0.542  2.7608 -1.4615  0.6268
  375MOL0     H51748   6.170   5.621   0.591 -2.3923  2.3181  1.6972
  375MOL0     H51749   6.027   5.568   0.509 -0.7879  1.4891  1.5746
  375MOL0     H51750   6.198   5.587   0.433  0.5615  2.0598 -1.7630
  376MOL0     O51751   1.952   0.119   0.231  0.4351  0.3145  0.7019
  376MOL0     C51752   1.966   0.177   0.339 -0.6494  0.0699 -0.2541
  376MOL0     O51753   2.070   0.146   0.419 -0.1232 -0.0784  0.5291
  376MOL0     C51754   2.130   0.024   0.400  0.1438  0.2927  0.1402
  376MOL0     C51755   2.232   0.017   0.310 -0.1634  1.2767  0.3757
  376MOL0     C51756   2.299  -0.105   0.300  0.2931 -1.0422  0.1184
  376MOL0     C51757   2.254  -0.220   0.369 -0.1425 -0.7445  0.4683
  376MOL0     O51758   2.304  -0.351   0.351 -0.6259 -0.3814 -0.0045
  376MOL0     C51759   2.419  -0.366   0.267  0.0204  0.2479  0.7395
  376MOL0     C51760   2.477  -0.511   0.277  0.6810  0.0350  0.1242
  376MOL0     C51761   2.587  -0.537   0.380  0.7106  0.0196  0.7088
  376MOL0     C51762   2.715  -0.444   0.380 -0.4365 -0.2725 -0.8812
  376MOL0     C51763   2.819  -0.482   0.485  0.1609  0.0838 -0.0067
  376MOL0     C51764   2.946  -0.406   0.473 -0.0692 -0.2647 -0.4064
  376MOL0     C51765   3.040  -0.462   0.576  0.4330  0.5484 -0.0821
  376MOL0     C51766   3.180  -0.398   0.560  0.7567  0.3039  0.0927
  376MOL0     N51767   3.285  -0.460   0.637  0.1901  0.5088  0.0689
  376MOL0     C51768   3.373  -0.566   0.613  0.6397  0.0911  0.4204
  376MOL0     C51769   3.460  -0.563   0.717  0.4282 -0.0348  1.0590
  376MOL0     C51770   3.583  -0.648   0.726  0.3400 -0.0328 -0.1712
  376MOL0     C51771   3.710  -0.583   0.769  0.6214  0.3370 -0.0781
  376MOL0     C51772   3.825  -0.668   0.742  0.1916  0.8884  0.8324
  376MOL0     C51773   3.835  -0.793   0.834  0.0215 -0.7203  0.4869
  376MOL0     O51774   3.968  -0.807   0.887 -0.0574  0.4606 -0.4033
  376MOL0     C51775   3.991  -0.925   0.955  0.0194 -0.3280  0.8151
  376MOL0     C51776   4.129  -0.946   0.978 -0.4692  0.5531  0.1738
  376MOL0     C51777   4.174  -1.044   1.080  0.3138 -0.1219  0.7783
  376MOL0     C51778   4.322  -1.040   1.099  0.5224  0.2799  0.8537
  376MOL0     C51779   4.083  -1.139   1.128  1.0057 -0.0752  0.2106
  376MOL0     C51780   4.123  -1.244   1.222  0.7801 -0.5554  0.5093
  376MOL0     O51781   4.248  -1.299   1.211  0.7413  0.3022  0.3756
  376MOL0     C51782   4.305  -1.364   1.313  0.5825  1.4844  0.1575
  376MOL0     C51783   4.439  -1.351   1.347 -0.1288 -0.3604 -0.1559
  376MOL0     C51784   4.495  -1.421   1.453 -0.9328  0.3715 -0.4286
  376MOL0     C51785   4.420  -1.522   1.524 -0.1014  0.0717 -0.1329
  376MOL0     O51786   4.492  -1.606   1.605 -0.6704  0.2378  1.3324
  376MOL0     C51787   4.459  -1.739   1.608 -0.6232  0.2270 -0.0589
  376MOL0     C51788   4.365  -1.777   1.725  0.4684  0.6135 -0.3527
  376MOL0     C51789   4.352  -1.928   1.755 -0.2064 -0.0210  0.4119
  376MOL0     C51790   4.355  -1.958   1.907 -0.4266 -0.0405  0.8290
  376MOL0     C51791   4.434  -2.092   1.930  0.5504 -0.0686 -0.3651
  376MOL0     C51792   4.379  -2.219   1.868  0.3055 -0.5388 -0.0726
  376MOL0     C51793   4.439  -2.338   1.936 -0.0433  0.6691 -0.0826
  376MOL0     C51794   4.463  -2.448   1.833  0.3583  0.1560 -0.1048
  376MOL0    Cl51795   4.623  -2.407   1.763  0.1619  0.0930  0.1322
  376MOL0     C51796   4.288  -1.545   1.483 -0.0520 -0.7875  0.3951
  376MOL0     C51797   4.222  -1.462   1.388 -0.1181  0.5512  0.1273
  376MOL0     O51798   4.038  -1.261   1.310 -0.1391  0.4131  0.2547
  376MOL0     C51799   3.946  -1.124   1.084  0.6382 -0.3567  0.2045
  376MOL0     C51800   3.900  -1.027   0.991 -0.5214  1.2218 -0.4304
  376MOL0     N51801   3.419  -0.462   0.805 -0.2229 -0.4221  0.1608
  376MOL0     N51802   3.320  -0.403   0.753  0.0924  0.2781  0.5330
  376MOL0     C51803   2.146  -0.209   0.458  0.1161  0.6754  0.2750
  376MOL0     C51804   2.090  -0.084   0.475 -0.2946 -0.1889 -0.4714
  376MOL0     C51805   1.888   0.300   0.381  0.4094  0.5871  0.1942
  376MOL0     C51806   1.921   0.380   0.491  0.1308 -0.8623  0.9845
  376MOL0     C51807   1.855   0.499   0.520 -0.2296 -0.4295 -0.1817
  376MOL0     C51808   1.751   0.548   0.449 -0.3773 -0.4875 -0.8371
  376MOL0     O51809   1.717   0.680   0.481 -0.1204 -0.0934 -0.1828
  376MOL0     C51810   1.584   0.726   0.428  0.0029 -0.3751 -0.6681
  376MOL0     C51811   1.468   0.642   0.488  0.3171  0.2310 -0.8147
  376MOL0     C51812   1.343   0.621   0.394 -0.0564 -1.2183 -0.1144
  376MOL0     C51813   1.291   0.749   0.328 -0.5009 -0.0975 -0.0232
  376MOL0     C51814   1.147   0.736   0.296 -0.3698  0.0011  0.1498
  376MOL0     C51815   1.027   0.739   0.270 -1.1614  0.3269  0.0724
  376MOL0     C51816   1.701   0.460   0.355  0.2823 -0.8628  1.3138
  376MOL0     C51817   1.767   0.339   0.316  0.4885 -0.9630  0.2519
  376MOL0     C51818   1.709   0.261   0.198  0.0215  1.0499 -0.2026
  376MOL0     H51819   2.259   0.103   0.249  1.3934 -0.2578 -1.1945
  376MOL0     H51820   2.386  -0.110   0.236  0.4110 -1.3074  0.2934
  376MOL0     H51821   2.485  -0.286   0.303  0.1557  0.1162  0.7844
  376MOL0     H51822   2.396  -0.333   0.165  0.1110  2.1886  1.2988
  376MOL0     H51823   2.389  -0.572   0.302  1.5069 -0.4751  2.0251
  376MOL0     H51824   2.512  -0.537   0.177 -0.2145  1.7282 -0.6669
  376MOL0     H51825   2.556  -0.557   0.483 -0.6325 -2.2808 -0.0695
  376MOL0     H51826   2.622  -0.636   0.350  1.0627  1.0524 -2.6271
  376MOL0     H51827   2.764  -0.456   0.283  0.2209  2.2129 -0.9353
  376MOL0     H51828   2.687  -0.341   0.403  3.5427  0.9631 -0.7509
  376MOL0     H51829   2.843  -0.588   0.486 -1.1486 -0.2313  0.0137
  376MOL0     H51830   2.775  -0.438   0.575 -1.3399  0.3798 -0.8388
  376MOL0     H51831   2.990  -0.401   0.373  2.5606  0.8850  0.7222
  376MOL0     H51832   2.927  -0.304   0.505 -0.2513  0.3044 -2.2211
  376MOL0     H51833   3.050  -0.570   0.568  1.4767  0.5510  0.9867
  376MOL0     H51834   3.002  -0.429   0.673 -0.8626  1.5001 -0.8784
  376MOL0     H51835   3.206  -0.402   0.454 -2.1009 -1.8334 -0.6451
  376MOL0     H51836   3.161  -0.294   0.588 -2.3735 -0.9708  3.6991
  376MOL0     H51837   3.384  -0.632   0.528  0.2216  0.0818  0.3729
  376MOL0     H51838   3.596  -0.681   0.623 -5.1496  0.2383 -1.2596
  376MOL0     H51839   3.567  -0.736   0.788 -0.2702  2.1608  3.0479
  376MOL0     H51840   3.717  -0.486   0.719 -0.6998  0.0388 -0.8925
  376MOL0     H51841   3.707  -0.565   0.877  1.4863  0.6714 -0.1015
  376MOL0     H51842   3.835  -0.679   0.634  2.6690 -2.1774  1.2521
  376MOL0     H51843   3.907  -0.598   0.760  0.4596  1.0767 -0.9376
  376MOL0     H51844   3.764  -0.790   0.917 -0.0423  1.3717  0.4153
  376MOL0     H51845   3.814  -0.881   0.772 -1.6953  0.6540 -0.9805
  376MOL0     H51846   4.191  -0.870   0.931 -0.7063  2.2184  2.3628
  376MOL0     H51847   4.347  -1.038   1.205  2.4838  2.3488  0.4185
  376MOL0     H51848   4.375  -0.951   1.066 -1.7400  1.5667  0.4853
  376MOL0     H51849   4.365  -1.134   1.062  1.1699  0.7872  0.2953
  376MOL0     H51850   4.500  -1.288   1.283  0.9590  0.1811  1.3476
  376MOL0     H51851   4.604  -1.420   1.453 -0.9181  1.3089 -1.8229
  376MOL0     H51852   4.427  -1.780   1.512  1.8649  2.2706 -1.9208
  376MOL0     H51853   4.549  -1.791   1.643 -2.4237 -1.6037  2.1239
  376MOL0     H51854   4.394  -1.714   1.810 -1.6936  1.4037 -0.1355
  376MOL0     H51855   4.263  -1.743   1.704 -0.3123 -0.5539  1.3308
  376MOL0     H51856   4.426  -1.980   1.692 -1.2296 -0.1677 -0.6943
  376MOL0     H51857   4.258  -1.969   1.718  0.9017 -0.7059 -1.8407
  376MOL0     H51858   4.254  -1.965   1.947  0.2161 -2.5582  2.2271
  376MOL0     H51859   4.412  -1.878   1.957 -1.6980  1.6568 -0.3327
  376MOL0     H51860   4.535  -2.074   1.894  1.1943 -1.3456  0.6717
  376MOL0     H51861   4.437  -2.106   2.039 -1.0247 -1.7586 -0.4793
  376MOL0     H51862   4.398  -2.219   1.761  1.5400 -1.8658  0.1143
  376MOL0     H51863   4.272  -2.227   1.886  0.7737 -2.5325  2.4578
  376MOL0     H51864   4.353  -2.370   1.996  0.1371 -1.0625 -0.6839
  376MOL0     H51865   4.524  -2.320   2.001  0.5580  2.3805 -1.2720
  376MOL0     H51866   4.393  -2.459   1.750 -0.2783 -1.1646  0.5659
  376MOL0     H51867   4.458  -2.543   1.888 -2.8870 -0.1532 -0.7156
  376MOL0     H51868   4.229  -1.629   1.519  0.9013 -2.3769 -1.5375
  376MOL0     H51869   4.119  -1.482   1.360 -0.1236  1.1481 -0.3028
  376MOL0     H51870   3.878  -1.195   1.128  0.9459 -0.1595  1.0050
  376MOL0     H51871   3.793  -1.018   0.979 -0.8013 -0.7128  0.3351
  376MOL0     H51872   2.127  -0.293   0.523 -0.4665 -0.2792 -1.0666
  376MOL0     H51873   2.012  -0.071   0.549  3.2030  0.5118  3.4888
  376MOL0     H51874   2.005   0.348   0.552  0.1344 -1.0423  0.8848
  376MOL0     H51875   1.896   0.560   0.600 -0.1142  0.9151 -1.2377
  376MOL0     H51876   1.554   0.825   0.463 -2.6877 -0.9490 -1.1334
  376MOL0     H51877   1.602   0.711   0.322  0.5401 -2.5644 -0.3161
  376MOL0     H51878   1.425   0.701   0.569  1.1174  0.0018 -0.2117
  376MOL0     H51879   1.506   0.553   0.538  3.0387  1.2606 -0.8501
  376MOL0     H51880   1.372   0.557   0.310  3.9057  0.6833 -0.4220
  376MOL0     H51881   1.253   0.588   0.447 -3.0774  3.7059 -1.5752
  376MOL0     H51882   1.355   0.769   0.241 -0.3520  3.5337  0.7499
  376MOL0     H51883   1.306   0.835   0.393 -0.8634 -0.6151  0.7634
  376MOL0     H51884   0.923   0.763   0.271 -1.0659  1.2063 -2.7487
  376MOL0     H51885   1.618   0.489   0.291  0.3213 -1.8463  0.7945
  376MOL0     H51886   1.625   0.314   0.153  0.0677  0.9945 -0.3589
  376MOL0     H51887   1.786   0.255   0.119  1.5989 -0.6016  1.3614
  376MOL0     H51888   1.675   0.164   0.237 -1.3689  0.2766 -3.0411
  377MOL0     O51889   8.428   5.761   0.501 -0.1898  1.0114 -0.0596
  377MOL0     C51890   8.340   5.675   0.508  0.1992 -0.6177 -0.4477
  377MOL0     O51891   8.359   5.545   0.562  0.1253  0.3660 -0.4586
  377MOL0     C51892   8.481   5.491   0.572  0.0861  0.3423 -0.0132
  377MOL0     C51893   8.497   5.395   0.671  0.0361  0.6809 -0.5281
  377MOL0     C51894   8.610   5.322   0.694 -0.4522 -0.0686  0.0094
  377MOL0     C51895   8.718   5.341   0.607 -0.5027  0.0375  0.2975
  377MOL0     O51896   8.841   5.272   0.619  0.4549  0.0322 -0.2881
  377MOL0     C51897   8.850   5.175   0.724  1.0247  0.0039  0.5316
  377MOL0     C51898   8.978   5.101   0.736 -0.6452 -0.1366 -0.6873
  377MOL0     C51899   9.112   5.183   0.713 -0.1315  0.1795 -0.7845
  377MOL0     C51900   9.228   5.084   0.747 -0.3495 -0.4426  0.2944
  377MOL0     C51901   9.375   5.142   0.756 -0.2580 -1.5289 -0.3217
  377MOL0     C51902   9.481   5.028   0.761 -0.0172 -0.5522  0.6117
  377MOL0     C51903   9.621   5.080   0.790 -0.0214  0.5000  0.0950
  377MOL0     C51904   9.721   4.978   0.734 -0.4224  0.2693 -0.4867
  377MOL0     N51905   9.863   5.031   0.756 -0.4155  0.0335 -0.4232
  377MOL0     C51906   9.903   5.144   0.812 -0.6268 -0.3515 -0.4552
  377MOL0     C51907  10.036   5.153   0.789 -0.2253 -0.0054  0.5742
  377MOL0     C51908  10.133   5.255   0.847 -0.6412  0.2435  0.6257
  377MOL0     C51909  10.164   5.379   0.761  0.2457 -0.3532  0.2048
  377MOL0     C51910  10.175   5.351   0.617  0.3553  0.8390  0.2974
  377MOL0     C51911  10.287   5.261   0.574 -0.9998 -1.1140 -0.0877
  377MOL0     O51912  10.407   5.281   0.650  0.7609 -0.3429  0.5310
  377MOL0     C51913  10.528   5.236   0.610  0.3070  0.0673 -0.3852
  377MOL0     C51914  10.551   5.178   0.488 -0.1019 -0.4728 -0.0846
  377MOL0     C51915  10.678   5.141   0.442 -1.0059 -0.1926 -0.2256
  377MOL0     C51916  10.678   5.099   0.296 -0.1247  0.0902 -0.6802
  377MOL0     C51917  10.792   5.142   0.535 -0.9427  0.6924 -0.4032
  377MOL0     C51918  10.923   5.082   0.514  0.0171 -0.7198  0.1383
  377MOL0     O51919  11.012   5.077   0.615 -0.1097  0.1438 -0.1405
  377MOL0     C51920  11.121   4.990   0.603 -0.5995 -0.1955  0.2340
  377MOL0     C51921  11.105   4.847   0.617 -0.0448 -0.6075  0.0112
  377MOL0     C51922  11.218   4.763   0.590 -0.0411  0.0259  0.3582
  377MOL0     C51923  11.350   4.815   0.579  0.1885 -0.8116  0.0118
  377MOL0     O51924  11.472   4.750   0.572 -0.0431  0.0968 -0.0135
  377MOL0     C51925  11.475   4.605   0.588  0.1711  0.3318  0.1449
  377MOL0     C51926  11.628   4.576   0.571 -0.5071 -0.7762 -0.7375
  377MOL0     C51927  11.715   4.628   0.683  0.2132 -0.8841 -0.3935
  377MOL0     C51928  11.866   4.602   0.680  1.1447  0.4891  0.9764
  377MOL0     C51929  11.932   4.702   0.586  0.5243  1.2339  0.5284
  377MOL0     C51930  12.082   4.717   0.610  0.3685 -0.3118 -0.3187
  377MOL0     C51931  12.161   4.586   0.591  0.6764 -0.8232 -0.1116
  377MOL0     C51932  12.307   4.591   0.644 -0.5511 -0.3191  0.6915
  377MOL0    Cl51933  12.422   4.719   0.599  0.1306 -0.1445  0.2228
  377MOL0     C51934  11.360   4.954   0.578 -0.2556 -0.0862  0.2488
  377MOL0     C51935  11.248   5.040   0.577 -0.7719 -0.0448  0.8772
  377MOL0     O51936  10.942   5.046   0.397  0.0389  0.5765  0.1960
  377MOL0     C51937  10.763   5.202   0.654 -0.6880  0.4363 -0.3359
  377MOL0     C51938  10.636   5.237   0.692  0.5022  0.6166 -0.4058
  377MOL0     N51939  10.071   5.039   0.729  0.0761  0.6912 -0.5738
  377MOL0     N51940   9.977   4.965   0.710  0.2650  0.0430 -0.3427
  377MOL0     C51941   8.697   5.426   0.494 -0.3260  0.1775 -0.6945
  377MOL0     C51942   8.584   5.510   0.482 -0.3601 -0.1395 -0.6627
  377MOL0     C51943   8.199   5.717   0.471  0.2409  0.0040  0.0031
  377MOL0     C51944   8.171   5.850   0.466 -1.0044  0.0147  0.8497
  377MOL0     C51945   8.038   5.894   0.465  0.4828 -0.4811  0.5919
  377MOL0     C51946   7.934   5.809   0.467 -0.4833 -1.2285  0.3348
  377MOL0     O51947   7.810   5.866   0.484 -0.0759 -0.0417 -0.5885
  377MOL0     C51948   7.685   5.793   0.465  0.9848 -0.1018  0.6186
  377MOL0     C51949   7.667   5.760   0.316  0.4989 -0.5215  0.3852
  377MOL0     C51950   7.528   5.723   0.282  0.0256  0.7117 -0.6701
  377MOL0     C51951   7.496   5.733   0.135 -0.2829 -0.0799 -0.6093
  377MOL0     C51952   7.353   5.692   0.106  0.1418 -0.3481  0.0354
  377MOL0     C51953   7.242   5.649   0.104  0.2672  0.4415  0.0085
  377MOL0     C51954   7.954   5.675   0.472  0.5599 -0.6608  0.7282
  377MOL0     C51955   8.084   5.629   0.462 -0.1376  0.6610  0.1679
  377MOL0     C51956   8.105   5.478   0.451 -0.1219  0.6108 -0.9064
  377MOL0     H51957   8.404   5.377   0.726 -0.3157  2.6571 -0.3926
  377MOL0     H51958   8.612   5.249   0.775  0.8414  2.3461  2.2993
  377MOL0     H51959   8.779   5.096   0.697  2.4052 -0.4660 -2.0224
  377MOL0     H51960   8.827   5.222   0.820  0.0296  0.5837  0.0262
  377MOL0     H51961   8.975   5.036   0.823 -2.1628 -1.3095 -1.5606
  377MOL0     H51962   8.970   5.028   0.654 -3.6158 -1.4029  0.5812
  377MOL0     H51963   9.115   5.219   0.610 -0.3803  1.3473 -0.4077
  377MOL0     H51964   9.127   5.264   0.785  0.1818 -1.3512  0.9704
  377MOL0     H51965   9.212   5.043   0.847  0.7364  1.3365  1.2389
  377MOL0     H51966   9.223   5.010   0.667 -0.9834  0.5567 -0.6348
  377MOL0     H51967   9.386   5.187   0.855 -1.6538 -2.8682  0.4908
  377MOL0     H51968   9.395   5.217   0.678 -1.5465 -1.8819 -1.0285
  377MOL0     H51969   9.457   4.949   0.833  2.1191 -3.1682 -1.3476
  377MOL0     H51970   9.473   4.968   0.670  0.1888 -0.8015  0.7605
  377MOL0     H51971   9.639   5.076   0.898  3.7409  0.1845 -0.4035
  377MOL0     H51972   9.634   5.181   0.749  4.7050 -0.1659 -0.6763
  377MOL0     H51973   9.712   4.881   0.782  1.8621  0.5232  0.5608
  377MOL0     H51974   9.693   4.967   0.628 -0.2798 -1.3730 -0.3772
  377MOL0     H51975   9.836   5.210   0.867 -0.8568 -1.9282  1.2685
  377MOL0     H51976  10.229   5.207   0.865 -1.1893 -1.3912 -0.6101
  377MOL0     H51977  10.095   5.297   0.941  0.1874  1.3949  0.4659
  377MOL0     H51978  10.078   5.446   0.774  1.6385  1.4903  0.3150
  377MOL0     H51979  10.249   5.432   0.804  0.4180  1.1027 -1.7817
  377MOL0     H51980  10.085   5.307   0.573  0.5378  0.3054  0.4604
  377MOL0     H51981  10.174   5.446   0.561  1.5233 -0.6721 -2.4922
  377MOL0     H51982  10.259   5.159   0.601  0.1046 -0.8555  2.3098
  377MOL0     H51983  10.297   5.274   0.466 -0.1773  0.0128  0.0990
  377MOL0     H51984  10.471   5.141   0.425 -0.4494  0.6680 -0.3528
  377MOL0     H51985  10.763   5.144   0.244  1.5114 -0.5767  1.2846
  377MOL0     H51986  10.587   5.125   0.241  0.3101 -1.9913 -2.5150
  377MOL0     H51987  10.681   4.991   0.281  1.6853 -0.0526  0.3748
  377MOL0     H51988  11.008   4.806   0.645 -1.2949  2.1446  0.0548
  377MOL0     H51989  11.204   4.656   0.599 -0.2545 -0.0743 -0.9548
  377MOL0     H51990  11.439   4.577   0.688 -1.4357  0.9247 -0.2284
  377MOL0     H51991  11.421   4.552   0.510  1.7919 -0.1222 -0.7125
  377MOL0     H51992  11.637   4.467   0.567  0.5007 -0.7833  0.9813
  377MOL0     H51993  11.663   4.616   0.475  2.6594  0.5517  0.8267
  377MOL0     H51994  11.679   4.587   0.778 -0.2418  2.1010  0.8227
  377MOL0     H51995  11.698   4.735   0.697  0.8207 -1.0408  1.8616
  377MOL0     H51996  11.893   4.502   0.643  0.0763  0.8515 -0.9466
  377MOL0     H51997  11.896   4.612   0.784 -1.5177  1.1816  1.7526
  377MOL0     H51998  11.911   4.666   0.485  0.0648 -2.5996  1.8305
  377MOL0     H51999  11.892   4.804   0.591  0.5097  1.2327  0.4479
  377MOL0     H52000  12.090   4.734   0.717 -3.7942 -0.8738  0.2396
  377MOL0     H52001  12.127   4.792   0.544  1.1629 -2.0596 -1.8970
  377MOL0     H52002  12.160   4.563   0.484 -1.2862  0.0058 -0.3183
  377MOL0     H52003  12.111   4.506   0.647 -2.6078  2.4552  2.0585
  377MOL0     H52004  12.347   4.499   0.602 -3.0265 -1.7792  1.3261
  377MOL0     H52005  12.307   4.582   0.753 -0.1222 -0.2101  0.7011
  377MOL0     H52006  11.457   4.990   0.545 -1.3195  1.2879 -1.6267
  377MOL0     H52007  11.268   5.146   0.569  2.9267 -0.7593 -1.9166
  377MOL0     H52008  10.842   5.215   0.727  1.9253 -1.4676 -2.6642
  377MOL0     H52009  10.629   5.277   0.793  1.6148  0.1092 -0.1074
  377MOL0     H52010   8.775   5.426   0.419 -0.4838 -0.6101 -0.8730
  377MOL0     H52011   8.581   5.584   0.403  3.2310  2.5075  1.3662
  377MOL0     H52012   8.250   5.923   0.453 -0.1346 -0.8771  1.0320
  377MOL0     H52013   8.010   5.998   0.473  0.3367 -0.5463  0.9839
  377MOL0     H52014   7.684   5.703   0.527  2.3966  1.1114  2.5304
  377MOL0     H52015   7.605   5.847   0.517 -2.3371 -0.9015 -3.0916
  377MOL0     H52016   7.740   5.680   0.300  0.4158 -1.1416  2.7072
  377MOL0     H52017   7.694   5.839   0.245 -0.7303 -0.1616  0.3048
  377MOL0     H52018   7.514   5.621   0.320  1.1333  1.4185  1.7782
  377MOL0     H52019   7.460   5.789   0.336  0.7112  1.1190 -0.2883
  377MOL0     H52020   7.567   5.688   0.065  0.5303  0.8237 -0.3960
  377MOL0     H52021   7.511   5.839   0.112 -0.4898 -0.2469 -1.5508
  377MOL0     H52022   7.147   5.600   0.114  1.0830 -1.1845  0.1799
  377MOL0     H52023   7.871   5.606   0.481 -0.4126  0.1311 -1.4165
  377MOL0     H52024   8.018   5.430   0.404  0.2962  0.0624 -1.1236
  377MOL0     H52025   8.184   5.456   0.379  1.0247  0.4457  0.3619
  377MOL0     H52026   8.130   5.435   0.548  1.3486 -0.1543 -1.5921
  378MOL0     O52027   5.828   4.923   3.718 -0.4278  0.8116 -0.0168
  378MOL0     C52028   5.757   4.895   3.814  0.0111 -0.2354  0.5916
  378MOL0     O52029   5.798   4.912   3.943  0.2719  0.2643  0.6541
  378MOL0     C52030   5.917   4.979   3.972  0.9032 -0.1365 -0.1223
  378MOL0     C52031   5.998   4.923   4.071 -0.3544  0.0657  0.5093
  378MOL0     C52032   6.114   5.002   4.107  0.2113  0.2435  0.4519
  378MOL0     C52033   6.150   5.123   4.049  0.4328  0.4925 -0.7882
  378MOL0     O52034   6.268   5.180   4.084 -0.8206  0.2089 -0.4577
  378MOL0     C52035   6.386   5.099   4.059  1.1458  0.8299  0.2376
  378MOL0     C52036   6.505   5.201   4.044  0.8399  0.3175 -0.9214
  378MOL0     C52037   6.482   5.284   3.923 -0.2232  0.0323  0.6622
  378MOL0     C52038   6.608   5.385   3.908  0.9449 -0.2306 -0.0335
  378MOL0     C52039   6.599   5.454   3.773 -0.0563 -0.0926 -0.4097
  378MOL0     C52040   6.660   5.590   3.788  0.0652  0.5861  0.9521
  378MOL0     C52041   6.654   5.658   3.654 -0.5990 -0.7934  0.2080
  378MOL0     C52042   6.705   5.813   3.659 -0.5600 -0.4055  0.0436
  378MOL0     N52043   6.830   5.837   3.730 -0.5051 -0.6068  0.4361
  378MOL0     C52044   6.845   5.865   3.868 -0.1508  1.2354  0.0947
  378MOL0     C52045   6.975   5.902   3.875  0.3039 -0.1592  0.7347
  378MOL0     C52046   7.059   5.929   4.000  0.5812 -0.5722 -0.1776
  378MOL0     C52047   7.169   6.036   3.966 -0.3480  0.0642 -0.7036
  378MOL0     C52048   7.176   6.130   4.089 -0.8845 -0.1538 -0.1020
  378MOL0     C52049   7.278   6.246   4.070 -0.0133 -0.7577 -0.6971
  378MOL0     O52050   7.403   6.183   4.038  0.3145 -0.5091  0.6240
  378MOL0     C52051   7.515   6.264   4.032  0.7209  0.2433 -0.0021
  378MOL0     C52052   7.632   6.192   4.024  0.3259 -0.4110 -0.1029
  378MOL0     C52053   7.761   6.256   4.028 -0.0978  1.1729 -0.0096
  378MOL0     C52054   7.889   6.170   4.013 -0.5924 -0.4073 -0.5832
  378MOL0     C52055   7.764   6.394   4.011 -0.7291  0.1820 -0.4343
  378MOL0     C52056   7.881   6.480   4.011  0.4408  0.5002 -0.2344
  378MOL0     O52057   7.866   6.589   3.928  0.2097  0.9576 -0.8064
  378MOL0     C52058   7.964   6.680   3.894  0.7086  0.2131 -0.5753
  378MOL0     C52059   7.942   6.763   3.792  0.5459 -0.2036  0.4343
  378MOL0     C52060   8.036   6.842   3.731  0.1371 -0.5845 -0.8179
  378MOL0     C52061   8.167   6.849   3.779  0.3619  0.0754 -0.0875
  378MOL0     O52062   8.275   6.917   3.724 -0.1287 -0.9874 -0.8947
  378MOL0     C52063   8.255   6.983   3.599 -0.0012 -0.0362  0.0869
  378MOL0     C52064   8.378   7.056   3.553  0.7215 -0.5789  0.1558
  378MOL0     C52065   8.450   7.122   3.664 -0.6641 -0.6753 -0.1982
  378MOL0     C52066   8.536   7.246   3.639  0.1765  0.5529 -0.3376
  378MOL0     C52067   8.645   7.262   3.753  0.5309 -0.1989 -0.1844
  378MOL0     C52068   8.717   7.392   3.733  0.8314  0.5976  0.4633
  378MOL0     C52069   8.818   7.411   3.843 -0.4100 -0.5071  1.0484
  378MOL0     C52070   8.898   7.542   3.821  0.5484  0.0459 -0.2289
  378MOL0    Cl52071   9.012   7.551   3.952  0.4627 -0.0205 -0.4948
  378MOL0     C52072   8.199   6.775   3.891  0.2900 -0.1931 -0.2198
  378MOL0     C52073   8.093   6.692   3.960 -0.3773  0.1838 -0.4175
  378MOL0     O52074   7.979   6.456   4.076  0.3914 -0.4862  0.4416
  378MOL0     C52075   7.644   6.469   4.023  0.6712  0.4609  0.8535
  378MOL0     C52076   7.518   6.403   4.038 -0.9157 -0.5066  0.0122
  378MOL0     N52077   7.028   5.903   3.747 -0.6292 -0.4668  0.2894
  378MOL0     N52078   6.945   5.871   3.659 -0.7871  0.1379 -0.0537
  378MOL0     C52079   6.060   5.174   3.962  0.3178  0.2675  0.6512
  378MOL0     C52080   5.944   5.107   3.921 -0.9802 -0.4816  0.0163
  378MOL0     C52081   5.610   4.859   3.799 -0.1778  0.2001  0.2968
  378MOL0     C52082   5.543   4.896   3.679 -0.1305  0.3861  0.2898
  378MOL0     C52083   5.405   4.858   3.659  0.2525  0.1632  0.6237
  378MOL0     C52084   5.336   4.776   3.755 -0.1343  0.6558 -0.2953
  378MOL0     O52085   5.212   4.737   3.716  0.3849  0.4495 -0.3893
  378MOL0     C52086   5.147   4.638   3.803 -0.2420 -1.1842  0.3744
  378MOL0     C52087   5.011   4.612   3.731 -0.0555 -0.2962 -0.5373
  378MOL0     C52088   4.936   4.743   3.694  0.5538  0.6811 -0.3173
  378MOL0     C52089   4.825   4.701   3.594 -0.2762  0.7085  0.6542
  378MOL0     C52090   4.712   4.624   3.661  0.6253 -0.0794  0.5418
  378MOL0     C52091   4.626   4.549   3.718 -0.0549 -0.3604  0.5082
  378MOL0     C52092   5.406   4.734   3.868  0.3250 -1.0503 -0.3122
  378MOL0     C52093   5.536   4.786   3.891 -0.5850 -0.4313  0.3069
  378MOL0     C52094   5.585   4.731   4.024  0.9523  0.6745  0.3161
  378MOL0     H52095   5.959   4.839   4.127 -0.1773  0.0534  0.6158
  378MOL0     H52096   6.182   4.974   4.187 -1.1519 -0.8096  1.2861
  378MOL0     H52097   6.371   5.036   3.971 -0.0046  0.0481  0.9653
  378MOL0     H52098   6.411   5.037   4.145  2.7967 -0.4750 -1.1250
  378MOL0     H52099   6.518   5.260   4.135  2.6648  0.0926 -1.0133
  378MOL0     H52100   6.594   5.142   4.023  0.0529  0.0415 -3.9496
  378MOL0     H52101   6.470   5.220   3.835  1.0574  1.8676 -0.9571
  378MOL0     H52102   6.391   5.345   3.930  0.2258  0.6629  1.0570
  378MOL0     H52103   6.593   5.452   3.993  0.8031  0.4833 -0.6136
  378MOL0     H52104   6.702   5.330   3.915  1.9971  1.0756 -2.6471
  378MOL0     H52105   6.494   5.470   3.747  0.1751  1.9199 -0.2148
  378MOL0     H52106   6.636   5.391   3.692 -0.9212  0.1612 -1.0141
  378MOL0     H52107   6.591   5.644   3.854  1.0277  3.7257 -0.4208
  378MOL0     H52108   6.765   5.574   3.813 -0.2235 -2.2633  0.6432
  378MOL0     H52109   6.552   5.653   3.616 -0.7252 -3.7736  0.6816
  378MOL0     H52110   6.718   5.607   3.582 -1.4595 -1.1921 -0.2871
  378MOL0     H52111   6.703   5.843   3.554 -2.5997 -1.0678 -0.1684
  378MOL0     H52112   6.629   5.875   3.706 -0.3851 -2.4650  3.4013
  378MOL0     H52113   6.782   5.846   3.954  0.0084 -1.8642 -0.3555
  378MOL0     H52114   7.107   5.835   4.029  1.3330 -0.9009 -2.3005
  378MOL0     H52115   6.989   5.972   4.072  1.7602 -0.7716  1.1251
  378MOL0     H52116   7.266   5.989   3.949  1.6672  2.2889  3.3273
  378MOL0     H52117   7.137   6.109   3.891 -2.5499  3.0121  2.7649
  378MOL0     H52118   7.074   6.165   4.105 -1.4000 -1.2852 -0.7536
  378MOL0     H52119   7.215   6.074   4.174  0.3174  0.3399 -0.3123
  378MOL0     H52120   7.250   6.322   3.997  2.3206  1.7565  0.8253
  378MOL0     H52121   7.275   6.301   4.165  0.0040 -0.3144 -0.9503
  378MOL0     H52122   7.613   6.086   4.022 -0.9549 -0.1997 -1.8507
  378MOL0     H52123   7.940   6.198   3.920 -0.1417  1.7064  0.2384
  378MOL0     H52124   7.878   6.062   4.024 -1.1525 -0.1160  2.8355
  378MOL0     H52125   7.954   6.204   4.095 -2.8551  2.5709  0.1351
  378MOL0     H52126   7.843   6.767   3.749  0.3710  2.1372  0.9293
  378MOL0     H52127   8.005   6.902   3.646  1.4039  1.2138 -0.0609
  378MOL0     H52128   8.225   6.912   3.521  0.4590 -0.4704  0.2963
  378MOL0     H52129   8.170   7.051   3.606 -0.8145 -0.5740 -2.9565
  378MOL0     H52130   8.435   6.988   3.489  0.4646 -0.4918 -0.1700
  378MOL0     H52131   8.349   7.136   3.484  1.3145  1.2383  1.9148
  378MOL0     H52132   8.515   7.045   3.706  0.6782  0.2524 -0.5091
  378MOL0     H52133   8.375   7.149   3.739 -1.6398  0.6860 -1.5957
  378MOL0     H52134   8.468   7.332   3.636  1.6476  1.7751 -0.1869
  378MOL0     H52135   8.585   7.228   3.542 -1.0359  0.5735 -0.9707
  378MOL0     H52136   8.596   7.259   3.851  2.0533  0.7610  0.6322
  378MOL0     H52137   8.710   7.174   3.744 -0.7264 -1.2915  0.8373
  378MOL0     H52138   8.652   7.480   3.736  2.2622  1.6952  0.6364
  378MOL0     H52139   8.774   7.379   3.640 -1.7785  0.0744 -1.1777
  378MOL0     H52140   8.890   7.329   3.844 -0.7847 -0.8529  0.3030
  378MOL0     H52141   8.771   7.426   3.941  1.5347  1.5960  1.7409
  378MOL0     H52142   8.830   7.626   3.810  0.4674 -0.0445 -0.4320
  378MOL0     H52143   8.950   7.535   3.725  3.7036  3.2754  1.0135
  378MOL0     H52144   8.296   6.791   3.938  0.9836  5.8077 -2.8150
  378MOL0     H52145   8.123   6.642   4.051 -1.4915 -0.8833 -0.6063
  378MOL0     H52146   7.639   6.578   4.021 -1.8842  0.4120 -1.2929
  378MOL0     H52147   7.427   6.458   4.057 -1.4468 -1.3203 -0.1065
  378MOL0     H52148   6.079   5.263   3.902  0.1457 -0.6296 -0.7803
  378MOL0     H52149   5.879   5.140   3.840  0.4069 -3.7506 -2.6736
  378MOL0     H52150   5.604   4.937   3.599 -0.7699  0.5243 -0.1372
  378MOL0     H52151   5.336   4.901   3.588  2.0898  2.5385  0.1266
  378MOL0     H52152   5.199   4.542   3.796  2.0911 -0.3001  3.3737
  378MOL0     H52153   5.137   4.658   3.910 -0.4475 -1.2479  0.3679
  378MOL0     H52154   4.951   4.553   3.802 -1.4990  0.6992 -0.8842
  378MOL0     H52155   5.032   4.550   3.644  0.5990  0.7659 -1.1584
  378MOL0     H52156   4.891   4.782   3.786  2.3523  0.5880  0.6401
  378MOL0     H52157   4.997   4.826   3.655 -0.9756  1.6336 -0.7722
  378MOL0     H52158   4.854   4.638   3.509  0.5717  1.9155  0.0161
  378MOL0     H52159   4.785   4.794   3.550 -0.2596  1.6221  2.4894
  378MOL0     H52160   4.571   4.465   3.756 -0.2399 -1.2266 -1.5101
  378MOL0     H52161   5.356   4.674   3.943 -0.4910  1.0231  0.9149
  378MOL0     H52162   5.518   4.651   4.055  0.7173  0.1811 -1.4098
  378MOL0     H52163   5.687   4.694   4.013  0.2443 -1.5164  0.6181
  378MOL0     H52164   5.585   4.798   4.111  3.1940  0.6821  0.3584
  379MOL0     O52165   7.661  10.742   0.509  0.0406 -0.4096 -0.1305
  379MOL0     C52166   7.587  10.642   0.511 -0.5645  0.2335  0.2547
  379MOL0     O52167   7.624  10.519   0.539  0.4016 -0.1475  0.6976
  379MOL0     C52168   7.755  10.501   0.577  0.2105 -0.0039 -0.2055
  379MOL0     C52169   7.867  10.540   0.502  0.1994 -0.1775  0.3781
  379MOL0     C52170   8.003  10.541   0.551  0.1627  0.3962  0.5372
  379MOL0     C52171   8.019  10.484   0.681  0.6614  0.3636 -0.6441
  379MOL0     O52172   8.137  10.461   0.743 -0.7745 -0.1075 -0.4147
  379MOL0     C52173   8.255  10.475   0.660  0.0807  0.0146  0.6908
  379MOL0     C52174   8.380  10.422   0.733  0.5903 -0.1862  0.1934
  379MOL0     C52175   8.505  10.406   0.643  0.8080 -0.7790  0.0901
  379MOL0     C52176   8.621  10.351   0.723  0.6601  0.3418  0.0331
  379MOL0     C52177   8.742  10.340   0.630  0.4013  0.6275  0.3872
  379MOL0     C52178   8.857  10.266   0.692 -0.2779  0.8523  0.6105
  379MOL0     C52179   8.976  10.247   0.593 -0.8024 -1.0464 -0.1621
  379MOL0     C52180   9.039  10.382   0.548 -0.0053  1.4984  0.3231
  379MOL0     N52181   9.167  10.362   0.490  0.2949 -0.4611 -0.3703
  379MOL0     C52182   9.195  10.334   0.360 -0.4192  0.0748  0.3782
  379MOL0     C52183   9.332  10.339   0.349 -0.3794  0.3306 -0.7549
  379MOL0     C52184   9.429  10.322   0.240 -1.0231 -0.2467  0.1344
  379MOL0     C52185   9.538  10.432   0.233  0.8316 -0.6136  0.1067
  379MOL0     C52186   9.606  10.447   0.094 -0.0944 -0.0457 -0.7117
  379MOL0     C52187   9.637  10.317   0.021  0.3785 -0.2446 -0.1285
  379MOL0     O52188   9.685  10.335  -0.108  0.0065 -0.2747 -0.2829
  379MOL0     C52189   9.767  10.238  -0.165  0.2602 -0.0055 -0.8894
  379MOL0     C52190   9.846  10.287  -0.267  0.5620 -0.2484  0.3274
  379MOL0     C52191   9.940  10.203  -0.329 -0.3509  0.6157 -0.2713
  379MOL0     C52192  10.003  10.268  -0.455  0.0720  0.0022 -0.6793
  379MOL0     C52193   9.960  10.066  -0.283 -0.3556 -0.1139  0.1925
  379MOL0     C52194  10.063   9.977  -0.344  0.6347 -0.0754  0.3549
  379MOL0     O52195  10.052   9.842  -0.316 -0.3405  0.6882 -0.0294
  379MOL0     C52196  10.157   9.761  -0.367 -0.2428  0.2436 -1.3436
  379MOL0     C52197  10.129   9.669  -0.464  0.2559 -0.7202  0.9305
  379MOL0     C52198  10.228   9.594  -0.525  0.1796  0.5974  0.1887
  379MOL0     C52199  10.360   9.600  -0.475  0.1499  0.2754 -0.3876
  379MOL0     O52200  10.447   9.517  -0.544 -1.0106  0.6197  0.6864
  379MOL0     C52201  10.583   9.499  -0.502  0.3725  0.8331  0.0169
  379MOL0     C52202  10.669   9.600  -0.561  0.7634 -0.3679 -0.4490
  379MOL0     C52203  10.819   9.574  -0.536  0.2148 -0.2645 -0.8969
  379MOL0     C52204  10.888   9.695  -0.597  0.0700  0.0698  0.1126
  379MOL0     C52205  11.040   9.684  -0.574 -0.2100 -0.1087  0.1089
  379MOL0     C52206  11.103   9.589  -0.677  0.2895 -0.4701  0.1555
  379MOL0     C52207  11.258   9.558  -0.664  0.2441 -0.9517  0.1211
  379MOL0     C52208  11.345   9.678  -0.618  0.4404  0.4449 -0.8812
  379MOL0    Cl52209  11.512   9.638  -0.663 -0.1575  0.3846 -0.0271
  379MOL0     C52210  10.387   9.693  -0.376  0.4380  0.7632  0.2166
  379MOL0     C52211  10.289   9.770  -0.320  0.4273 -0.0352 -0.2711
  379MOL0     O52212  10.158  10.029  -0.391 -0.0992 -0.0512 -0.4062
  379MOL0     C52213   9.869  10.021  -0.186 -0.0687  0.4578  0.6588
  379MOL0     C52214   9.770  10.098  -0.126  0.6907 -0.5035  0.2872
  379MOL0     N52215   9.374  10.371   0.475 -0.1113  0.1404  0.2926
  379MOL0     N52216   9.281  10.365   0.563  0.2247 -0.1863  0.3823
  379MOL0     C52217   7.908  10.422   0.753 -0.8043 -0.0733 -0.2924
  379MOL0     C52218   7.776  10.437   0.700 -0.1190 -0.7545  0.4858
  379MOL0     C52219   7.450  10.667   0.459 -0.6545  0.4619  0.5467
  379MOL0     C52220   7.425  10.772   0.377  0.2885  0.6007  0.9786
  379MOL0     C52221   7.296  10.798   0.332 -0.2998  0.7923  0.2205
  379MOL0     C52222   7.191  10.710   0.353 -0.4424 -0.1345 -0.1168
  379MOL0     O52223   7.067  10.757   0.320  0.6823  0.1406  0.3633
  379MOL0     C52224   6.945  10.688   0.358  0.1762  0.7111 -0.0939
  379MOL0     C52225   6.823  10.765   0.311  0.9502  0.4774  0.6576
  379MOL0     C52226   6.822  10.759   0.153 -1.1283  0.1613  0.7217
  379MOL0     C52227   6.722  10.866   0.098  0.1192  0.1203  0.3006
  379MOL0     C52228   6.587  10.872   0.153  0.3170 -0.4470  0.0418
  379MOL0     C52229   6.479  10.888   0.207 -0.3268 -0.6450 -0.0058
  379MOL0     C52230   7.213  10.600   0.439  0.1121 -0.5231  0.1293
  379MOL0     C52231   7.341  10.587   0.497  0.2513  0.1124  0.0213
  379MOL0     C52232   7.368  10.459   0.582  0.2123  0.5233  0.1949
  379MOL0     H52233   7.841  10.581   0.405  1.9777 -1.4442 -0.7031
  379MOL0     H52234   8.081  10.576   0.484  0.2121  1.5279  1.1451
  379MOL0     H52235   8.271  10.582   0.643 -1.4322  0.7546  3.3636
  379MOL0     H52236   8.232  10.423   0.567  2.8521  1.6733 -1.0522
  379MOL0     H52237   8.404  10.485   0.819 -1.9434 -0.9339  1.5570
  379MOL0     H52238   8.356  10.326   0.779 -0.7590  0.2345  0.4120
  379MOL0     H52239   8.484  10.321   0.578  1.4736 -0.4133 -0.6149
  379MOL0     H52240   8.529  10.499   0.590  0.6793  0.9512  2.8600
  379MOL0     H52241   8.640  10.412   0.812  1.6637 -3.0657  2.3826
  379MOL0     H52242   8.597  10.247   0.750 -0.5474  0.0938 -1.8077
  379MOL0     H52243   8.773  10.440   0.600  2.7377 -0.1105  0.0961
  379MOL0     H52244   8.701  10.277   0.550 -0.3307  0.7400  0.6693
  379MOL0     H52245   8.889  10.325   0.778  2.9744  1.9061 -1.1065
  379MOL0     H52246   8.830  10.163   0.718  0.1949  0.5598 -0.0064
  379MOL0     H52247   8.936  10.190   0.509 -1.2515  1.7331 -1.9786
  379MOL0     H52248   9.056  10.192   0.643 -0.0148  1.0336  1.0241
  379MOL0     H52249   8.968  10.434   0.483  0.7271  1.1079 -0.8142
  379MOL0     H52250   9.055  10.442   0.637 -1.0057  1.9942  0.1847
  379MOL0     H52251   9.130  10.302   0.279 -1.5725 -0.9323  1.6507
  379MOL0     H52252   9.365  10.319   0.150 -0.2298  2.4961 -0.6009
  379MOL0     H52253   9.480  10.226   0.252 -1.1425 -0.6688 -2.1592
  379MOL0     H52254   9.482  10.525   0.251 -1.4370 -1.6467 -1.0962
  379MOL0     H52255   9.617  10.421   0.307  1.2739  2.1284  0.1579
  379MOL0     H52256   9.530  10.490   0.028 -0.3529  1.1529  0.3328
  379MOL0     H52257   9.695  10.509   0.106 -0.6377  0.8392 -1.1857
  379MOL0     H52258   9.702  10.256   0.084 -0.9156 -0.9483  0.5554
  379MOL0     H52259   9.551  10.250   0.017 -0.4277  0.6466  1.2859
  379MOL0     H52260   9.818  10.385  -0.305  2.2218  0.2423  0.2942
  379MOL0     H52261   9.979  10.217  -0.549 -1.3052 -0.8253  0.0743
  379MOL0     H52262  10.111  10.262  -0.441  0.0794 -0.3315 -0.8666
  379MOL0     H52263   9.989  10.376  -0.449  0.9506  0.1331 -0.8660
  379MOL0     H52264  10.038   9.681  -0.523 -1.6764  0.3510  3.9064
  379MOL0     H52265  10.201   9.548  -0.619  0.0041  1.9295 -0.4362
  379MOL0     H52266  10.587   9.498  -0.392  0.7128 -0.3549  0.0086
  379MOL0     H52267  10.610   9.397  -0.529  1.9412  0.0124  3.9461
  379MOL0     H52268  10.629   9.601  -0.663  1.3086  0.1452 -0.6627
  379MOL0     H52269  10.634   9.699  -0.532  2.3690  0.0573  0.1230
  379MOL0     H52270  10.857   9.484  -0.584  1.1721  0.3940 -1.4206
  379MOL0     H52271  10.837   9.566  -0.429 -2.6284  0.5539 -0.2876
  379MOL0     H52272  10.873   9.789  -0.544  0.2034 -0.9650  2.0751
  379MOL0     H52273  10.873   9.699  -0.706  2.3853 -0.2834 -0.2752
  379MOL0     H52274  11.077   9.785  -0.594 -1.1107  0.3713  0.7961
  379MOL0     H52275  11.064   9.655  -0.471  2.8875 -0.3921 -0.5910
  379MOL0     H52276  11.092   9.635  -0.776  0.2771  1.0708  0.8451
  379MOL0     H52277  11.053   9.492  -0.672 -0.2880 -0.3381 -2.0818
  379MOL0     H52278  11.291   9.519  -0.761 -0.5705 -2.6276  0.4939
  379MOL0     H52279  11.276   9.479  -0.591  0.7399 -1.5122 -0.5972
  379MOL0     H52280  11.348   9.682  -0.508  1.2472  2.2836 -0.9341
  379MOL0     H52281  11.306   9.774  -0.653  0.5367  0.1063 -1.9498
  379MOL0     H52282  10.487   9.694  -0.331  0.5370  0.1691  0.0089
  379MOL0     H52283  10.311   9.819  -0.226  2.4886  0.1869 -0.8041
  379MOL0     H52284   9.877   9.916  -0.158 -1.1730  0.1578 -0.0913
  379MOL0     H52285   9.699  10.051  -0.060  1.1959 -0.9197  0.5365
  379MOL0     H52286   7.926  10.370   0.847 -1.6283 -2.0503 -1.1795
  379MOL0     H52287   7.694  10.399   0.759  0.7194 -0.1702  2.0935
  379MOL0     H52288   7.496  10.851   0.353 -1.4246  2.1516  0.7283
  379MOL0     H52289   7.282  10.886   0.270  1.1393  0.8220 -0.1120
  379MOL0     H52290   6.952  10.585   0.323  3.8345  0.9203 -0.4398
  379MOL0     H52291   6.951  10.666   0.465 -1.1291 -0.9551 -0.3292
  379MOL0     H52292   6.813  10.864   0.357 -0.9743  1.0785 -0.9333
  379MOL0     H52293   6.731  10.711   0.334  0.8233  0.6052  0.4451
  379MOL0     H52294   6.919  10.783   0.108  0.8533 -1.7629  3.6814
  379MOL0     H52295   6.797  10.658   0.117  0.9869  0.2549 -1.2288
  379MOL0     H52296   6.713  10.858  -0.011  1.7100  3.0736 -0.1502
  379MOL0     H52297   6.770  10.962   0.119  2.3754 -0.5581 -1.3880
  379MOL0     H52298   6.387  10.914   0.255  0.5626  0.4998  1.1550
  379MOL0     H52299   7.125  10.541   0.462 -3.0497  3.6550 -0.0441
  379MOL0     H52300   7.428  10.481   0.671 -0.2750 -0.4248  0.7727
  379MOL0     H52301   7.271  10.413   0.601 -1.0407  1.4251 -3.3131
  379MOL0     H52302   7.428  10.384   0.528 -0.2006  0.8470 -0.7265
  380MOL0     O52303   1.795   7.215   6.447 -0.3416 -0.5359 -0.1331
  380MOL0     C52304   1.808   7.105   6.503 -0.4310  0.8786  1.2446
  380MOL0     O52305   1.930   7.048   6.541 -0.2355 -0.8441  0.1167
  380MOL0     C52306   2.053   7.095   6.493  0.6049  0.4677  0.2437
  380MOL0     C52307   2.121   7.007   6.419 -0.5755  0.2006  0.3276
  380MOL0     C52308   2.256   7.031   6.377 -1.5557 -0.0863  0.5157
  380MOL0     C52309   2.312   7.155   6.395  0.6534 -0.0197 -0.0566
  380MOL0     O52310   2.419   7.203   6.321  0.1703  0.1524  0.3807
  380MOL0     C52311   2.513   7.109   6.264  0.1958 -0.0377 -0.1231
  380MOL0     C52312   2.624   7.080   6.375  0.1615  0.1927 -1.0186
  380MOL0     C52313   2.768   7.072   6.319  0.5975  0.9844  0.1604
  380MOL0     C52314   2.788   6.935   6.241  0.2802  0.1055  0.3219
  380MOL0     C52315   2.925   6.924   6.177  0.0591 -0.1849  0.0571
  380MOL0     C52316   2.947   6.997   6.038 -0.7928 -0.4644 -0.2783
  380MOL0     C52317   3.094   6.995   5.996  0.7429  0.1859  0.2488
  380MOL0     C52318   3.185   7.075   6.087 -1.2367 -0.4174  0.1450
  380MOL0     N52319   3.325   7.067   6.022 -0.5035  0.7711  0.2403
  380MOL0     C52320   3.362   7.161   5.931  0.1922  0.3045  0.0016
  380MOL0     C52321   3.496   7.130   5.918 -0.0898 -0.1482 -0.9166
  380MOL0     C52322   3.577   7.211   5.809 -0.0447  0.2635 -0.0056
  380MOL0     C52323   3.597   7.124   5.692 -1.2158  0.3849  1.0913
  380MOL0     C52324   3.671   7.192   5.572 -0.6414 -0.2599  0.3040
  380MOL0     C52325   3.816   7.224   5.593  0.2512  0.4214 -0.1211
  380MOL0     O52326   3.876   7.110   5.637 -0.3289  0.6663 -0.2159
  380MOL0     C52327   4.008   7.105   5.669 -0.5985 -0.5866 -0.0230
  380MOL0     C52328   4.090   7.207   5.692 -0.5027 -0.0717  0.0106
  380MOL0     C52329   4.222   7.192   5.703  0.4205  0.3844 -0.2624
  380MOL0     C52330   4.296   7.325   5.726 -0.3091 -0.5449 -0.3039
  380MOL0     C52331   4.285   7.066   5.685  0.5483  0.3536 -0.1233
  380MOL0     C52332   4.425   7.037   5.685 -0.0238 -0.8712 -0.3066
  380MOL0     O52333   4.457   6.912   5.644 -0.6954  0.3503  0.6362
  380MOL0     C52334   4.585   6.871   5.677  0.0775 -0.6922 -0.2989
  380MOL0     C52335   4.601   6.794   5.796 -0.3056 -0.4264  0.4997
  380MOL0     C52336   4.730   6.741   5.822 -0.1575  0.6091 -0.6296
  380MOL0     C52337   4.840   6.764   5.736 -0.2290 -0.1074  0.5266
  380MOL0     O52338   4.965   6.705   5.751 -0.6612  0.2269 -0.1635
  380MOL0     C52339   4.965   6.566   5.790 -0.0001  0.3657 -0.3700
  380MOL0     C52340   4.865   6.479   5.713 -0.0684 -0.2701  0.8178
  380MOL0     C52341   4.897   6.483   5.562 -0.1977  0.6861  0.1633
  380MOL0     C52342   4.804   6.386   5.488 -0.1712  0.5198  0.3287
  380MOL0     C52343   4.848   6.376   5.334  0.2908  1.0722 -0.5072
  380MOL0     C52344   4.756   6.280   5.266  0.9280  0.7668 -0.0859
  380MOL0     C52345   4.758   6.308   5.121  0.5103  0.2726  0.5551
  380MOL0     C52346   4.719   6.182   5.044  0.5104  0.1218  0.3692
  380MOL0    Cl52347   4.850   6.063   5.037  0.0883  0.2810 -0.2456
  380MOL0     C52348   4.819   6.841   5.627 -0.0310  0.0503  0.0370
  380MOL0     C52349   4.699   6.903   5.598 -0.3085 -0.7055 -0.2373
  380MOL0     O52350   4.506   7.124   5.714 -0.5898  0.2621  0.4604
  380MOL0     C52351   4.201   6.959   5.681  0.0853 -0.1257 -0.4582
  380MOL0     C52352   4.065   6.982   5.669  0.0655 -0.2096  1.0821
  380MOL0     N52353   3.529   7.021   5.991 -0.5133  0.3176  0.2769
  380MOL0     N52354   3.424   6.983   6.055 -0.6256 -0.1366 -0.1686
  380MOL0     C52355   2.231   7.248   6.465 -0.1355  1.7409 -0.2141
  380MOL0     C52356   2.108   7.218   6.518 -0.5617 -0.0514  0.3135
  380MOL0     C52357   1.684   7.041   6.541 -0.8350 -0.4249  0.1459
  380MOL0     C52358   1.584   7.050   6.454  0.1746 -1.1254 -0.2534
  380MOL0     C52359   1.467   6.988   6.479 -0.1690  0.4544 -0.0224
  380MOL0     C52360   1.450   6.902   6.590 -0.3874  0.2291 -0.8942
  380MOL0     O52361   1.333   6.832   6.623 -0.2099 -0.0578  0.6069
  380MOL0     C52362   1.213   6.833   6.541 -0.1371 -0.0085  0.7895
  380MOL0     C52363   1.214   6.705   6.454 -0.3433 -0.6681 -0.4589
  380MOL0     C52364   1.261   6.575   6.516 -0.1515 -0.3775  0.3955
  380MOL0     C52365   1.180   6.547   6.641  0.3017 -0.0633  1.4018
  380MOL0     C52366   1.226   6.422   6.700 -0.3274  0.0153  0.7251
  380MOL0     C52367   1.252   6.312   6.734  0.6400  0.5188 -0.2553
  380MOL0     C52368   1.560   6.885   6.672 -0.7422 -0.0933 -0.0407
  380MOL0     C52369   1.670   6.954   6.651  0.4796 -0.1315  0.4005
  380MOL0     C52370   1.781   6.939   6.753  0.2944  0.0930  0.7184
  380MOL0     H52371   2.088   6.908   6.391  0.5979 -0.6476  1.7571
  380MOL0     H52372   2.311   6.957   6.320 -1.5997  1.9887 -2.4381
  380MOL0     H52373   2.554   7.158   6.175  0.0041 -1.4363 -1.0219
  380MOL0     H52374   2.473   7.013   6.229  1.4820 -0.5662 -0.1724
  380MOL0     H52375   2.614   7.174   6.431 -3.4993  1.0208 -2.7359
  380MOL0     H52376   2.602   7.005   6.451  1.2600  2.9539  2.3242
  380MOL0     H52377   2.783   7.155   6.249  0.4069  2.4035  1.7464
  380MOL0     H52378   2.844   7.097   6.394  1.6111 -0.2294 -0.4294
  380MOL0     H52379   2.763   6.852   6.309 -0.9941  0.3475  0.1768
  380MOL0     H52380   2.716   6.922   6.160  0.5777  1.1826 -0.1320
  380MOL0     H52381   2.934   6.817   6.153 -0.3046 -0.3188  0.5002
  380MOL0     H52382   3.010   6.945   6.242  0.6545  3.1420 -1.6059
  380MOL0     H52383   2.890   6.940   5.964  1.0082 -3.0197  0.2038
  380MOL0     H52384   2.909   7.100   6.045  1.4184  0.5131 -1.7952
  380MOL0     H52385   3.098   7.043   5.898  0.3802  0.2746  0.2748
  380MOL0     H52386   3.130   6.891   5.993  4.4433  1.3345  0.2476
  380MOL0     H52387   3.157   7.179   6.107 -0.9553 -0.4281  0.6041
  380MOL0     H52388   3.194   7.027   6.185  1.8095  0.4375  0.3968
  380MOL0     H52389   3.297   7.221   5.867  0.0737 -1.5082 -1.6651
  380MOL0     H52390   3.673   7.247   5.845  0.1944 -0.7604  0.4158
  380MOL0     H52391   3.522   7.299   5.775 -2.5154 -1.5036 -0.8583
  380MOL0     H52392   3.643   7.029   5.722  0.7214  0.6871 -0.7153
  380MOL0     H52393   3.498   7.095   5.655 -1.3628 -0.2603  1.9367
  380MOL0     H52394   3.671   7.128   5.483  0.9717  0.5555 -0.3200
  380MOL0     H52395   3.622   7.288   5.556  0.9629  0.4883 -0.3818
  380MOL0     H52396   3.855   7.245   5.494 -3.1776  0.0938 -1.6954
  380MOL0     H52397   3.813   7.299   5.673 -1.0909  0.6657 -0.3820
  380MOL0     H52398   4.046   7.305   5.677 -0.9808 -0.2880 -0.0141
  380MOL0     H52399   4.321   7.370   5.629  1.1987  0.1127  0.3637
  380MOL0     H52400   4.383   7.312   5.791 -0.8652  1.1010  0.8392
  380MOL0     H52401   4.234   7.390   5.788  0.9643 -0.6354  1.1172
  380MOL0     H52402   4.520   6.760   5.860 -2.0258  0.4676 -1.0644
  380MOL0     H52403   4.744   6.681   5.911 -1.4362  1.2741  0.0406
  380MOL0     H52404   5.067   6.528   5.774 -1.4413 -3.4365 -1.7147
  380MOL0     H52405   4.948   6.550   5.897  0.8595  0.4439 -0.2141
  380MOL0     H52406   4.866   6.385   5.769 -1.1184  0.8673  2.8502
  380MOL0     H52407   4.763   6.519   5.706  1.0888  2.6211 -1.3495
  380MOL0     H52408   4.995   6.443   5.533  0.4728  1.6735  1.0135
  380MOL0     H52409   4.880   6.584   5.523 -0.1632  0.4318 -0.5303
  380MOL0     H52410   4.699   6.420   5.491 -0.3441  0.0694 -0.3591
  380MOL0     H52411   4.808   6.289   5.537  0.9359  0.9402  1.1055
  380MOL0     H52412   4.836   6.472   5.284 -2.7053  0.3111 -1.4161
  380MOL0     H52413   4.951   6.340   5.325  0.7656  0.1654  4.8180
  380MOL0     H52414   4.650   6.290   5.292  1.0922  0.0835  0.9240
  380MOL0     H52415   4.782   6.177   5.291  0.0262  0.9889  1.9532
  380MOL0     H52416   4.862   6.329   5.094  0.5060 -2.2524 -1.8824
  380MOL0     H52417   4.689   6.392   5.104  1.3573  1.5758  3.0459
  380MOL0     H52418   4.686   6.209   4.943 -0.0149  3.0530  1.2333
  380MOL0     H52419   4.632   6.137   5.092  0.2964 -0.4431 -0.5232
  380MOL0     H52420   4.900   6.866   5.559 -0.5250  0.4118 -0.4284
  380MOL0     H52421   4.689   6.963   5.508 -0.4082 -0.6586 -0.1951
  380MOL0     H52422   4.230   6.855   5.692 -1.6426 -0.3950  3.2411
  380MOL0     H52423   3.999   6.898   5.653 -0.7202  0.5623  0.1160
  380MOL0     H52424   2.252   7.355   6.467 -0.8804  2.0364 -3.3134
  380MOL0     H52425   2.046   7.289   6.572 -0.6335  0.2028 -0.0982
  380MOL0     H52426   1.575   7.122   6.373 -0.7091  0.4132  1.1692
  380MOL0     H52427   1.388   7.005   6.406  1.2127  1.9742 -1.2403
  380MOL0     H52428   1.120   6.835   6.598 -0.8083  2.7652 -0.2278
  380MOL0     H52429   1.206   6.923   6.479 -1.1669 -1.7911 -1.8931
  380MOL0     H52430   1.281   6.733   6.372 -1.0820  2.3293 -0.1328
  380MOL0     H52431   1.117   6.677   6.412 -0.4549 -3.1841  1.2782
  380MOL0     H52432   1.239   6.489   6.452  1.6221 -1.7733  1.5526
  380MOL0     H52433   1.367   6.589   6.540 -0.4737  0.3185  1.5122
  380MOL0     H52434   1.077   6.531   6.609  0.9018  0.1450 -0.7964
  380MOL0     H52435   1.194   6.635   6.704 -1.6257  1.8563 -0.6679
  380MOL0     H52436   1.270   6.213   6.773 -3.4221 -0.0602  0.5688
  380MOL0     H52437   1.542   6.831   6.764 -2.9929 -1.4970 -1.2115
  380MOL0     H52438   1.847   6.855   6.728  3.1548  2.5072 -0.4157
  380MOL0     H52439   1.831   7.034   6.773 -2.0548  1.1822  1.8144
  380MOL0     H52440   1.745   6.913   6.852  0.9272  0.2936  1.0061
  381MOL0     O52441   1.601  10.183   3.859 -0.0434 -0.2729 -0.2848
  381MOL0     C52442   1.541  10.143   3.758 -0.3091 -0.1743  0.0967
  381MOL0     O52443   1.602  10.095   3.641  0.1339 -0.3723  0.1941
  381MOL0     C52444   1.740  10.085   3.617  0.5241 -0.4724 -0.8872
  381MOL0     C52445   1.816   9.988   3.672  0.5618 -0.7759  0.2931
  381MOL0     C52446   1.954   9.994   3.656 -0.9059  0.8743  1.2159
  381MOL0     C52447   2.022  10.095   3.596 -0.3826  0.4946  0.1040
  381MOL0     O52448   2.155  10.089   3.577  0.1682 -0.5023  0.3175
  381MOL0     C52449   2.224   9.961   3.572 -0.0565  0.7352  0.2173
  381MOL0     C52450   2.365   9.961   3.520  1.2030 -0.3013 -0.0717
  381MOL0     C52451   2.466  10.046   3.596 -0.7366 -0.1727 -0.7693
  381MOL0     C52452   2.556   9.964   3.698  0.4473  0.2153  0.3427
  381MOL0     C52453   2.698  10.022   3.705  0.4147 -0.0886  0.6382
  381MOL0     C52454   2.772   9.947   3.814 -0.1156 -0.7266  0.1089
  381MOL0     C52455   2.922   9.988   3.812 -0.1752 -0.0977 -0.4118
  381MOL0     C52456   3.011   9.922   3.915 -1.1779  1.3039 -0.7379
  381MOL0     N52457   3.151   9.942   3.893 -0.2079  0.5109  0.1719
  381MOL0     C52458   3.220  10.020   3.801  0.4498  0.1737 -0.0826
  381MOL0     C52459   3.351   9.991   3.829 -0.5835 -0.2393 -0.4350
  381MOL0     C52460   3.473  10.074   3.776  0.2372 -0.4146 -0.3557
  381MOL0     C52461   3.493  10.189   3.883 -1.0465  0.3268 -0.3294
  381MOL0     C52462   3.613  10.290   3.854  0.2343 -0.1457 -0.0380
  381MOL0     C52463   3.732  10.219   3.802  0.5489 -0.4621 -0.4703
  381MOL0     O52464   3.837  10.312   3.781 -0.0643  1.2019  0.7095
  381MOL0     C52465   3.960  10.282   3.832  1.1205  0.3426  0.1288
  381MOL0     C52466   4.006  10.142   3.843 -0.4288  0.0335  0.9320
  381MOL0     C52467   4.141  10.116   3.883 -0.9019 -0.2278  0.5278
  381MOL0     C52468   4.186   9.971   3.883  0.3779  0.0404  0.2803
  381MOL0     C52469   4.213  10.227   3.947  0.4392  0.0490  0.2648
  381MOL0     C52470   4.340  10.208   4.025  0.7405  0.1020 -0.5069
  381MOL0     O52471   4.431  10.319   4.023  0.5023 -0.0073  0.4577
  381MOL0     C52472   4.548  10.313   4.082 -0.1412  0.4052  0.1575
  381MOL0     C52473   4.651  10.382   4.025 -0.9342 -0.7480 -0.5383
  381MOL0     C52474   4.767  10.403   4.087 -0.6783 -0.1779  0.2534
  381MOL0     C52475   4.797  10.347   4.205  0.2954 -0.4893  0.0994
  381MOL0     O52476   4.921  10.375   4.260 -0.4299 -0.1393 -0.0061
  381MOL0     C52477   4.951  10.337   4.400  0.2401 -0.1620  0.5384
  381MOL0     C52478   5.076  10.421   4.434 -0.0973 -0.0528  0.6536
  381MOL0     C52479   5.089  10.447   4.583  0.8458 -0.0761 -0.0597
  381MOL0     C52480   5.184  10.548   4.638 -0.0142 -0.5256  0.9907
  381MOL0     C52481   5.322  10.520   4.577  0.0131  0.8281  1.2665
  381MOL0     C52482   5.415  10.636   4.614 -0.4056 -0.8654  0.1270
  381MOL0     C52483   5.554  10.612   4.546  0.6585 -0.6174  0.2700
  381MOL0     C52484   5.659  10.696   4.613 -0.0235 -0.0650 -0.5240
  381MOL0    Cl52485   5.715  10.629   4.767 -0.0091 -0.2692 -0.2148
  381MOL0     C52486   4.696  10.270   4.271 -0.7463  0.6040  0.5339
  381MOL0     C52487   4.568  10.259   4.215 -0.3758 -0.7530  0.0750
  381MOL0     O52488   4.348  10.106   4.100 -0.3502  0.0389  0.1778
  381MOL0     C52489   4.154  10.353   3.950  0.0852  0.1589 -0.7404
  381MOL0     C52490   4.034  10.380   3.892 -0.5112 -0.3493  0.1362
  381MOL0     N52491   3.359   9.893   3.927 -0.4614  0.3584 -0.0336
  381MOL0     N52492   3.237   9.863   3.961  0.3730 -0.1740 -0.1093
  381MOL0     C52493   1.941  10.190   3.531 -0.1602  0.6519  0.0989
  381MOL0     C52494   1.801  10.190   3.549 -0.0872  1.0053 -0.0317
  381MOL0     C52495   1.386  10.149   3.761  0.4605  0.2913 -1.0394
  381MOL0     C52496   1.330  10.052   3.667  0.8553 -0.5080 -0.4632
  381MOL0     C52497   1.190  10.039   3.656 -0.2276 -0.0681  0.2065
  381MOL0     C52498   1.104  10.124   3.723  0.2364 -0.2734 -0.1193
  381MOL0     O52499   0.965  10.126   3.688 -0.9748 -0.4016 -0.0348
  381MOL0     C52500   0.870  10.174   3.791 -0.0250  1.0159  0.2898
  381MOL0     C52501   0.856  10.331   3.795 -0.1192 -0.6247 -0.1066
  381MOL0     C52502   0.822  10.363   3.942 -0.3995  0.1504 -0.1903
  381MOL0     C52503   0.821  10.520   3.960  0.0932  0.7099  0.0070
  381MOL0     C52504   0.950  10.580   3.960  0.1030 -0.5540 -0.1217
  381MOL0     C52505   1.064  10.612   3.973  0.5026 -0.0792  0.6383
  381MOL0     C52506   1.165  10.207   3.820  0.3237 -0.5275 -0.5037
  381MOL0     C52507   1.301  10.220   3.844  0.7718 -0.7441  0.4493
  381MOL0     C52508   1.360  10.320   3.950  0.1490  0.2799  1.0459
  381MOL0     H52509   1.763   9.919   3.736 -2.3633  1.1030  0.1070
  381MOL0     H52510   2.008   9.915   3.706 -1.6191  1.2323  2.5868
  381MOL0     H52511   2.177   9.903   3.491  0.0996  2.2984 -1.0390
  381MOL0     H52512   2.222   9.913   3.670  0.0808  1.2382  0.4690
  381MOL0     H52513   2.397   9.857   3.518 -3.4386 -1.9761 -0.3557
  381MOL0     H52514   2.369   9.986   3.413 -0.8947  0.1575 -0.0819
  381MOL0     H52515   2.530  10.092   3.521 -0.2028  1.4165  0.6001
  381MOL0     H52516   2.417  10.128   3.649  0.3371  1.6760 -2.5068
  381MOL0     H52517   2.511   9.977   3.796 -0.4845  0.1935 -0.0724
  381MOL0     H52518   2.562   9.860   3.664 -1.7308  0.0001  0.4717
  381MOL0     H52519   2.694  10.128   3.733  0.6352 -0.4426  2.0990
  381MOL0     H52520   2.746  10.003   3.609 -1.8612  1.4667 -0.8885
  381MOL0     H52521   2.718   9.965   3.908 -1.0920  0.2239 -0.6113
  381MOL0     H52522   2.782   9.839   3.800  0.9150 -0.2594 -4.0654
  381MOL0     H52523   2.929  10.095   3.832 -0.8069 -0.2361  0.6088
  381MOL0     H52524   2.964   9.976   3.712  1.4554  3.4713 -0.3101
  381MOL0     H52525   2.987   9.968   4.011 -1.6214  2.8921 -1.5904
  381MOL0     H52526   2.989   9.815   3.921  1.7733  0.4303 -3.0462
  381MOL0     H52527   3.165  10.073   3.724 -2.1168  1.1826  2.2759
  381MOL0     H52528   3.465  10.121   3.678 -0.8244  0.6102  0.1997
  381MOL0     H52529   3.562  10.011   3.770  1.0551  0.7936 -1.3897
  381MOL0     H52530   3.405  10.251   3.903  0.9485  2.9809  0.9243
  381MOL0     H52531   3.523  10.125   3.966 -2.4054 -1.1105 -0.9075
  381MOL0     H52532   3.575  10.364   3.784  0.0773 -2.0319 -2.0450
  381MOL0     H52533   3.634  10.335   3.952 -1.3898  0.1489  0.2116
  381MOL0     H52534   3.754  10.149   3.883  1.2906 -1.2277 -1.3117
  381MOL0     H52535   3.719  10.162   3.710 -0.9789 -2.4995  0.9259
  381MOL0     H52536   3.945  10.063   3.800 -2.1952  2.0426 -0.4478
  381MOL0     H52537   4.210   9.926   3.980  1.8759  1.0220  0.3991
  381MOL0     H52538   4.262   9.956   3.806  0.2281  2.5241 -0.4125
  381MOL0     H52539   4.096   9.915   3.856 -0.8972  1.6795  0.9401
  381MOL0     H52540   4.648  10.420   3.923  3.4067  0.8724 -0.2752
  381MOL0     H52541   4.843  10.470   4.049  0.0374 -1.2893 -0.3482
  381MOL0     H52542   4.862  10.351   4.463  0.4521  1.9370  0.4449
  381MOL0     H52543   4.974  10.230   4.400 -0.2538 -0.2783 -0.6881
  381MOL0     H52544   5.164  10.373   4.390  1.1747  2.5756  0.1186
  381MOL0     H52545   5.078  10.522   4.392  0.5833  0.5464  2.0755
  381MOL0     H52546   5.124  10.357   4.634  1.9673  0.1201 -0.4726
  381MOL0     H52547   4.989  10.467   4.624  0.1018 -1.1554 -1.3047
  381MOL0     H52548   5.196  10.535   4.746  0.7172 -0.7203  0.8967
  381MOL0     H52549   5.152  10.647   4.608 -2.3020 -2.0796 -2.2493
  381MOL0     H52550   5.356  10.425   4.620  1.3226  0.1537 -1.1028
  381MOL0     H52551   5.321  10.516   4.468  2.3364  0.2452  1.2243
  381MOL0     H52552   5.416  10.645   4.723  0.0039 -0.2981  0.0801
  381MOL0     H52553   5.382  10.729   4.568  4.1639  1.0777  0.2625
  381MOL0     H52554   5.556  10.641   4.440 -0.4302 -1.1465  0.0980
  381MOL0     H52555   5.584  10.507   4.544  0.8969 -0.5831 -3.0627
  381MOL0     H52556   5.615  10.795   4.626 -2.8112 -1.3052  0.3279
  381MOL0     H52557   5.740  10.718   4.544 -2.0766  1.1708 -2.6908
  381MOL0     H52558   4.727  10.221   4.363  1.7641 -0.0294 -0.5647
  381MOL0     H52559   4.485  10.224   4.275 -0.7723 -1.4798 -0.8593
  381MOL0     H52560   4.216  10.433   3.991  2.0317 -1.3747 -0.5464
  381MOL0     H52561   4.005  10.485   3.891  0.1474 -0.1681 -0.5866
  381MOL0     H52562   1.991  10.266   3.472  4.3622 -0.9281  1.5521
  381MOL0     H52563   1.730  10.260   3.505 -3.3690 -0.5006  2.3828
  381MOL0     H52564   1.389   9.998   3.593  2.0421  0.5570 -0.3493
  381MOL0     H52565   1.143   9.965   3.591 -2.5485  1.7637 -0.3036
  381MOL0     H52566   0.770  10.135   3.774  0.7277 -0.0724 -2.1734
  381MOL0     H52567   0.902  10.138   3.889 -2.7379 -1.4684  0.4207
  381MOL0     H52568   0.779  10.368   3.726  1.1333  1.7217 -0.3477
  381MOL0     H52569   0.940  10.384   3.751 -0.8074  0.7004  0.1440
  381MOL0     H52570   0.726  10.326   3.981 -2.7755  3.7342 -2.1271
  381MOL0     H52571   0.898  10.327   4.013  1.0915 -0.2685 -1.9313
  381MOL0     H52572   0.776  10.545   4.057  2.8803  0.3095  1.5168
  381MOL0     H52573   0.747  10.554   3.887  1.5236  0.9957 -1.3576
  381MOL0     H52574   1.171  10.622   3.970  0.4734  0.8984  1.9706
  381MOL0     H52575   1.101  10.266   3.885  0.3300 -0.9024 -0.1563
  381MOL0     H52576   1.285  10.367   4.014  1.1362  4.2520 -0.3977
  381MOL0     H52577   1.430  10.266   4.015 -0.0486 -0.1248  0.9308
  381MOL0     H52578   1.411  10.403   3.902  0.0694  0.8924  1.9998
  382MOL0     O52579  10.777   4.717   0.721 -0.3442 -0.4489  0.1623
  382MOL0     C52580  10.697   4.805   0.708  0.6448 -0.2679  0.2742
  382MOL0     O52581  10.623   4.826   0.595  1.0638 -0.0250 -0.2660
  382MOL0     C52582  10.638   4.725   0.505 -0.2808  0.0889  0.2856
  382MOL0     C52583  10.550   4.619   0.500  0.5746  0.4521 -0.4812
  382MOL0     C52584  10.569   4.519   0.405  0.5673  0.6089  0.7387
  382MOL0     C52585  10.675   4.525   0.308  0.0208  0.4918 -0.0619
  382MOL0     O52586  10.664   4.432   0.209  0.3102  0.3553 -0.0488
  382MOL0     C52587  10.733   4.455   0.090  0.4655  0.8771 -0.8292
  382MOL0     C52588  10.879   4.404   0.097 -0.4800  1.1956 -0.3120
  382MOL0     C52589  10.959   4.448  -0.017 -0.1048 -0.0082  0.4227
  382MOL0     C52590  11.099   4.422   0.011  0.4036  0.4144 -0.6917
  382MOL0     C52591  11.194   4.465  -0.105 -0.1603  0.2360 -0.3689
  382MOL0     C52592  11.188   4.371  -0.221  0.1848  1.0665  0.4377
  382MOL0     C52593  11.305   4.383  -0.322  0.2134  0.0332  0.1716
  382MOL0     C52594  11.301   4.273  -0.433 -0.3764  0.2470 -0.2979
  382MOL0     N52595  11.418   4.294  -0.529 -0.0546 -0.8175  0.3457
  382MOL0     C52596  11.520   4.203  -0.554 -0.0909  0.1105 -0.8079
  382MOL0     C52597  11.609   4.273  -0.621  1.0738 -1.6093 -0.5552
  382MOL0     C52598  11.745   4.242  -0.652 -0.2388  0.3101 -0.7519
  382MOL0     C52599  11.772   4.095  -0.651 -0.2096 -0.0603  0.0274
  382MOL0     C52600  11.920   4.064  -0.694 -0.3122  0.3151  0.6518
  382MOL0     C52601  12.013   4.144  -0.597  0.4873 -0.3568  0.1505
  382MOL0     O52602  12.137   4.083  -0.576 -0.4473  0.0837 -0.3686
  382MOL0     C52603  12.245   4.107  -0.662 -0.2960  0.4727 -0.9768
  382MOL0     C52604  12.364   4.058  -0.613  0.2149 -0.2423  0.5579
  382MOL0     C52605  12.483   4.095  -0.680 -0.2515  0.2863  1.2805
  382MOL0     C52606  12.610   4.035  -0.627  0.1816 -0.1590 -0.4967
  382MOL0     C52607  12.477   4.151  -0.813 -0.0427 -0.0816  0.5378
  382MOL0     C52608  12.598   4.196  -0.891 -0.3912  0.5263  0.2414
  382MOL0     O52609  12.721   4.210  -0.820 -0.4860  0.3032  0.8082
  382MOL0     C52610  12.836   4.263  -0.866 -0.0786  0.3980 -0.2866
  382MOL0     C52611  12.851   4.350  -0.976  0.1622  0.4800  0.9529
  382MOL0     C52612  12.977   4.380  -1.027 -1.0144 -0.5261  0.8051
  382MOL0     C52613  13.092   4.332  -0.966 -0.1449  0.3666  0.8097
  382MOL0     O52614  13.220   4.376  -0.985  0.2256 -0.5800  0.5069
  382MOL0     C52615  13.262   4.427  -1.111  0.5249 -1.2578  0.0060
  382MOL0     C52616  13.322   4.327  -1.211 -0.1191 -0.0235 -0.9856
  382MOL0     C52617  13.444   4.245  -1.167 -0.6231  0.6706 -0.1597
  382MOL0     C52618  13.574   4.326  -1.140  0.5557  0.6461  0.0269
  382MOL0     C52619  13.693   4.250  -1.062 -0.9726 -0.2252  0.8746
  382MOL0     C52620  13.826   4.316  -1.065 -0.3122  1.0845 -0.2670
  382MOL0     C52621  13.833   4.454  -1.015  0.2373 -0.3276  0.1985
  382MOL0     C52622  13.979   4.513  -1.011 -0.2142 -0.2192 -0.0609
  382MOL0    Cl52623  14.044   4.498  -1.184  0.0571  0.2004  0.2877
  382MOL0     C52624  13.074   4.254  -0.851 -0.3001 -1.4085 -0.6391
  382MOL0     C52625  12.951   4.212  -0.806  0.7045 -1.0435 -0.9984
  382MOL0     O52626  12.588   4.211  -1.012 -0.3005 -0.5692  0.2295
  382MOL0     C52627  12.347   4.171  -0.866  0.1508 -0.6583 -0.4980
  382MOL0     C52628  12.236   4.151  -0.786  0.0964  0.5445 -0.5052
  382MOL0     N52629  11.566   4.405  -0.645  0.0615  1.9483  0.2816
  382MOL0     N52630  11.453   4.416  -0.586  0.5601  0.1170 -0.1163
  382MOL0     C52631  10.763   4.635   0.309 -0.2201 -0.6479 -0.6088
  382MOL0     C52632  10.751   4.731   0.418  0.8377  0.2019  0.0184
  382MOL0     C52633  10.668   4.894   0.824 -0.7503 -0.7869  0.6959
  382MOL0     C52634  10.775   4.941   0.900  0.1978 -0.3683 -0.1742
  382MOL0     C52635  10.767   5.034   0.999 -0.1010 -0.2981  0.6087
  382MOL0     C52636  10.645   5.092   1.027  0.1400 -1.3374 -0.6259
  382MOL0     O52637  10.636   5.188   1.120 -0.0502  0.3764 -0.2315
  382MOL0     C52638  10.707   5.172   1.238  0.2420  0.3316 -0.4089
  382MOL0     C52639  10.830   5.260   1.244  0.2692  0.1400 -0.4828
  382MOL0     C52640  10.798   5.411   1.252  0.8777 -0.8845 -0.2758
  382MOL0     C52641  10.924   5.489   1.258  0.2151 -0.1403 -0.8727
  382MOL0     C52642  10.982   5.523   1.133 -0.7255  0.0880 -0.5112
  382MOL0     C52643  11.038   5.546   1.028  0.1896  0.3156  0.3036
  382MOL0     C52644  10.532   5.042   0.959  0.5464 -0.5692  0.8516
  382MOL0     C52645  10.541   4.952   0.852 -0.0039  0.4228  0.2340
  382MOL0     C52646  10.413   4.925   0.779 -0.0193  0.9310  0.8001
  382MOL0     H52647  10.467   4.628   0.569  0.9141 -0.1366  0.0106
  382MOL0     H52648  10.497   4.439   0.399  0.1423  1.0491 -0.2123
  382MOL0     H52649  10.724   4.559   0.057 -0.7447  1.1626  0.3454
  382MOL0     H52650  10.691   4.392   0.012 -0.8328 -1.2573  1.4517
  382MOL0     H52651  10.921   4.455   0.185  0.3977 -1.4227  0.8782
  382MOL0     H52652  10.892   4.298   0.120  0.1955  1.5196  0.9527
  382MOL0     H52653  10.930   4.395  -0.107  1.5251 -0.5589  0.1937
  382MOL0     H52654  10.950   4.557  -0.025  1.4235  0.2377  1.5602
  382MOL0     H52655  11.134   4.481   0.096 -1.1394  1.5247 -0.7782
  382MOL0     H52656  11.120   4.316   0.027  2.2531  0.5178 -2.1300
  382MOL0     H52657  11.295   4.462  -0.064 -0.4522 -1.2646  0.3016
  382MOL0     H52658  11.165   4.565  -0.139 -0.2789  0.1617 -0.4905
  382MOL0     H52659  11.186   4.269  -0.182  3.3789 -0.0917 -2.0178
  382MOL0     H52660  11.093   4.397  -0.269 -0.9133 -0.2901  1.8016
  382MOL0     H52661  11.401   4.376  -0.271  1.4206 -2.5589 -2.1886
  382MOL0     H52662  11.284   4.474  -0.380 -1.8015 -1.8368 -2.3121
  382MOL0     H52663  11.305   4.180  -0.375  0.9351  0.4932  0.0459
  382MOL0     H52664  11.202   4.279  -0.479 -0.1867 -0.5404 -0.8418
  382MOL0     H52665  11.534   4.101  -0.519  2.6009  1.1818  1.6559
  382MOL0     H52666  11.799   4.287  -0.569  1.9042 -1.5857 -1.0274
  382MOL0     H52667  11.772   4.296  -0.743 -1.1610  1.7434 -0.2008
  382MOL0     H52668  11.762   4.055  -0.550 -0.3731 -1.1293 -0.4035
  382MOL0     H52669  11.704   4.041  -0.717  0.7241 -1.5331  0.2130
  382MOL0     H52670  11.938   3.957  -0.678 -3.0355 -0.2108  0.5665
  382MOL0     H52671  11.954   4.090  -0.795 -2.1456  1.4956  0.3007
  382MOL0     H52672  12.021   4.253  -0.610 -4.2272 -0.0699 -2.4741
  382MOL0     H52673  11.971   4.132  -0.497 -0.9992  2.2910 -0.0727
  382MOL0     H52674  12.369   4.001  -0.522  0.0579 -0.6000  0.3444
  382MOL0     H52675  12.599   3.978  -0.534  2.9695  1.2100  0.8033
  382MOL0     H52676  12.681   4.112  -0.595 -0.8100 -0.0048  1.4682
  382MOL0     H52677  12.653   3.982  -0.712 -0.6772  1.9760 -2.3826
  382MOL0     H52678  12.756   4.375  -1.023 -0.1006  0.2101  1.3323
  382MOL0     H52679  12.981   4.454  -1.107  0.7697  0.7811  2.0166
  382MOL0     H52680  13.176   4.474  -1.161  0.6563  0.1593  1.0438
  382MOL0     H52681  13.340   4.501  -1.091  0.0373 -0.4750 -0.8869
  382MOL0     H52682  13.246   4.255  -1.244 -0.0552  0.1898 -1.6180
  382MOL0     H52683  13.360   4.378  -1.300  3.4980 -0.6402  0.0563
  382MOL0     H52684  13.477   4.176  -1.245 -1.7691 -0.2321  0.1356
  382MOL0     H52685  13.419   4.188  -1.077 -1.0285  1.6244  0.3540
  382MOL0     H52686  13.555   4.422  -1.092 -0.6337  1.1605 -1.3980
  382MOL0     H52687  13.615   4.351  -1.238 -0.3268 -1.0066 -0.8186
  382MOL0     H52688  13.668   4.230  -0.957  1.8947 -1.0872  1.4627
  382MOL0     H52689  13.701   4.151  -1.106 -0.9058 -1.0518  2.6607
  382MOL0     H52690  13.859   4.324  -1.169 -1.0851  2.7172 -0.4204
  382MOL0     H52691  13.895   4.249  -1.014 -1.8753  0.8681  1.6755
  382MOL0     H52692  13.793   4.473  -0.915 -0.5114  0.3255 -0.2135
  382MOL0     H52693  13.772   4.520  -1.078  0.1770  0.5967  1.1980
  382MOL0     H52694  14.037   4.451  -0.943  0.2308 -0.1971 -0.4094
  382MOL0     H52695  13.978   4.620  -0.986 -1.3356 -0.4595  1.0377
  382MOL0     H52696  13.162   4.209  -0.808  0.9124 -1.2133 -2.7656
  382MOL0     H52697  12.943   4.146  -0.720  0.7009  0.8462  0.5250
  382MOL0     H52698  12.326   4.211  -0.965 -0.2866  1.6493  0.4442
  382MOL0     H52699  12.140   4.172  -0.831  0.5711 -0.6573 -2.1704
  382MOL0     H52700  10.839   4.647   0.233 -0.3892 -0.1045 -0.7009
  382MOL0     H52701  10.818   4.817   0.421 -0.9066  1.6053  0.4024
  382MOL0     H52702  10.870   4.901   0.866  0.6455  0.2115  0.3689
  382MOL0     H52703  10.857   5.070   1.048 -1.4214  1.1784  2.0933
  382MOL0     H52704  10.638   5.205   1.315 -2.4954  2.1748 -3.4031
  382MOL0     H52705  10.726   5.067   1.261 -3.7288 -0.3810  0.3618
  382MOL0     H52706  10.907   5.240   1.169  0.1008  1.3277 -1.0010
  382MOL0     H52707  10.877   5.230   1.339 -4.1389  0.4016  2.0453
  382MOL0     H52708  10.737   5.437   1.165 -0.5270 -1.7456  0.4128
  382MOL0     H52709  10.742   5.444   1.340  1.7942 -0.1692  0.0438
  382MOL0     H52710  10.995   5.461   1.336 -0.7487  1.3252  0.6126
  382MOL0     H52711  10.898   5.590   1.289 -0.9307 -0.3759 -1.0198
  382MOL0     H52712  11.101   5.574   0.946 -0.8460  0.1323 -0.5749
  382MOL0     H52713  10.436   5.092   0.968  0.2155 -0.9329 -0.5138
  382MOL0     H52714  10.401   4.996   0.697  0.2214  1.5536  1.2999
  382MOL0     H52715  10.403   4.823   0.739  0.4907  0.5714  1.5514
  382MOL0     H52716  10.332   4.940   0.851 -0.5874 -1.7998  0.8391
  383MOL0     O52717   0.569   5.520   4.901  1.0406 -0.3738 -0.1268
  383MOL0     C52718   0.470   5.591   4.874  0.4169  0.2244 -0.1109
  383MOL0     O52719   0.466   5.726   4.899 -0.0295  0.7947  0.4435
  383MOL0     C52720   0.571   5.812   4.909  0.0197  0.0887 -0.1610
  383MOL0     C52721   0.706   5.785   4.853 -1.0529 -0.2476  0.0400
  383MOL0     C52722   0.794   5.891   4.835  0.4937 -0.2495 -0.3894
  383MOL0     C52723   0.767   6.017   4.881 -0.3262 -0.2407 -0.7468
  383MOL0     O52724   0.851   6.124   4.876  0.2384 -0.0207 -0.3971
  383MOL0     C52725   0.996   6.104   4.865  0.8743  0.3591 -0.0916
  383MOL0     C52726   1.064   6.232   4.913  0.0689 -0.2467  0.0869
  383MOL0     C52727   1.209   6.211   4.938 -0.3826 -0.5402 -0.9916
  383MOL0     C52728   1.267   6.328   5.021  0.1219 -0.4933  0.0230
  383MOL0     C52729   1.382   6.299   5.113 -0.1679  0.0862 -0.0454
  383MOL0     C52730   1.517   6.263   5.043 -0.3434  0.3953 -0.7708
  383MOL0     C52731   1.582   6.364   4.944 -0.3210 -0.7111 -0.2316
  383MOL0     C52732   1.643   6.501   4.974 -0.4795 -0.3902 -0.8152
  383MOL0     N52733   1.785   6.495   5.031 -0.1974  0.0510 -0.1689
  383MOL0     C52734   1.899   6.563   4.991 -0.3447  0.1602 -0.1838
  383MOL0     C52735   2.001   6.509   5.056 -0.3610  0.3135 -0.0371
  383MOL0     C52736   2.145   6.545   5.040  0.3410  0.2097 -0.0482
  383MOL0     C52737   2.237   6.465   5.126 -0.4703 -0.7150 -0.1119
  383MOL0     C52738   2.380   6.503   5.108 -0.3942 -0.4024  0.0587
  383MOL0     C52739   2.470   6.442   5.211 -0.7979  0.0939  0.3532
  383MOL0     O52740   2.604   6.491   5.192  0.6144  0.5031  0.2395
  383MOL0     C52741   2.713   6.434   5.259  0.4868  0.1992 -0.5995
  383MOL0     C52742   2.845   6.460   5.232 -0.6131  0.1891  0.5066
  383MOL0     C52743   2.951   6.410   5.309 -0.5313 -1.1320 -0.5842
  383MOL0     C52744   3.091   6.451   5.281 -0.3959 -0.6181  0.7891
  383MOL0     C52745   2.924   6.310   5.417 -0.2878  0.4902  0.1003
  383MOL0     C52746   3.031   6.254   5.514 -0.0736 -0.6027 -0.0990
  383MOL0     O52747   2.997   6.228   5.650 -0.1191 -0.2938  0.4348
  383MOL0     C52748   3.086   6.182   5.751  0.2827  0.3937  1.1772
  383MOL0     C52749   3.032   6.094   5.845 -0.2081 -0.4675 -0.0455
  383MOL0     C52750   3.118   6.051   5.952 -0.4111 -0.5287 -0.3519
  383MOL0     C52751   3.249   6.091   5.964 -0.2575  0.8894 -1.1322
  383MOL0     O52752   3.312   6.054   6.081  0.6555 -0.3830 -0.4925
  383MOL0     C52753   3.378   6.161   6.153  0.2897 -0.3764 -0.1534
  383MOL0     C52754   3.379   6.119   6.304  0.8149 -0.2011  0.2205
  383MOL0     C52755   3.505   6.040   6.345 -0.3096  0.8861  1.2330
  383MOL0     C52756   3.488   5.957   6.468 -0.7829 -0.4798 -0.7833
  383MOL0     C52757   3.609   5.873   6.503 -0.0790  0.2426 -0.1211
  383MOL0     C52758   3.577   5.762   6.598  0.4738  0.3543  0.6190
  383MOL0     C52759   3.690   5.663   6.605  0.5001 -0.6405 -0.1404
  383MOL0     C52760   3.805   5.693   6.697 -0.0947  0.3901 -0.3101
  383MOL0    Cl52761   3.751   5.716   6.865 -0.4174 -0.0630 -0.2583
  383MOL0     C52762   3.301   6.184   5.869 -0.1973 -1.2011 -0.6082
  383MOL0     C52763   3.219   6.223   5.766  0.2578 -0.0359  0.6625
  383MOL0     O52764   3.139   6.222   5.461 -0.0594 -0.0409  0.6983
  383MOL0     C52765   2.793   6.298   5.448 -0.3359  0.5340  0.4750
  383MOL0     C52766   2.691   6.358   5.377 -0.0247  0.6986  1.3837
  383MOL0     N52767   1.960   6.399   5.122  0.0021  0.4066 -0.4246
  383MOL0     N52768   1.834   6.395   5.112  0.2917  1.0014  0.2045
  383MOL0     C52769   0.646   6.044   4.938  0.7033 -0.2135  0.2000
  383MOL0     C52770   0.544   5.941   4.957  0.2112  0.4011 -0.3080
  383MOL0     C52771   0.337   5.532   4.818  0.2909 -0.0110 -0.2518
  383MOL0     C52772   0.249   5.626   4.762  0.9803  0.3110  1.0547
  383MOL0     C52773   0.123   5.589   4.714 -0.2070 -0.1991 -0.2923
  383MOL0     C52774   0.086   5.460   4.699  0.4955 -0.1276 -0.2697
  383MOL0     O52775  -0.041   5.436   4.649 -0.0698  0.5604 -0.6455
  383MOL0     C52776  -0.097   5.307   4.683  0.1253  0.0736 -0.0193
  383MOL0     C52777  -0.238   5.327   4.639 -0.1353 -0.2239 -0.0658
  383MOL0     C52778  -0.310   5.203   4.595 -0.0732  0.8732 -0.4053
  383MOL0     C52779  -0.462   5.226   4.598  0.4420  0.4927  0.4865
  383MOL0     C52780  -0.542   5.147   4.507 -0.0735  0.4029 -0.5723
  383MOL0     C52781  -0.612   5.095   4.422  0.5115  0.1980 -0.7258
  383MOL0     C52782   0.170   5.370   4.760  0.4363  1.1127  0.3053
  383MOL0     C52783   0.292   5.399   4.819  1.2791  0.2162  1.0219
  383MOL0     C52784   0.364   5.290   4.884 -0.5143 -0.1836 -0.1709
  383MOL0     H52785   0.748   5.688   4.826  0.9501  0.6564 -0.2931
  383MOL0     H52786   0.900   5.882   4.816  0.9947 -0.0533  1.9756
  383MOL0     H52787   1.031   6.089   4.763  2.0273  0.1951  0.3089
  383MOL0     H52788   1.031   6.019   4.924  0.1440  0.1869  0.1005
  383MOL0     H52789   1.062   6.300   4.828 -2.5909  0.1702  0.3904
  383MOL0     H52790   1.010   6.269   5.001 -0.3504 -0.8457  0.0853
  383MOL0     H52791   1.239   6.118   4.988  0.7335  0.9140  1.2032
  383MOL0     H52792   1.265   6.200   4.844 -1.1818  0.4429 -1.5997
  383MOL0     H52793   1.292   6.409   4.952  2.4753 -1.0426  0.1547
  383MOL0     H52794   1.192   6.367   5.091  0.5345  1.5004 -0.6006
  383MOL0     H52795   1.362   6.216   5.182 -1.9622  0.4485 -0.0807
  383MOL0     H52796   1.399   6.383   5.180 -0.4403 -0.6541  0.9783
  383MOL0     H52797   1.577   6.252   5.133  0.2771  2.3101 -0.9267
  383MOL0     H52798   1.505   6.172   4.982  0.4603 -0.1360 -0.1489
  383MOL0     H52799   1.505   6.386   4.870 -0.0420 -0.1060 -0.3435
  383MOL0     H52800   1.662   6.310   4.894 -0.6071 -2.9860  1.5853
  383MOL0     H52801   1.642   6.560   4.882  0.2742  1.1203  0.1013
  383MOL0     H52802   1.585   6.557   5.048  1.1240  1.8399 -1.1590
  383MOL0     H52803   1.903   6.643   4.918 -0.0632  1.1435  0.8767
  383MOL0     H52804   2.154   6.648   5.075  2.4809  0.3937 -1.0102
  383MOL0     H52805   2.172   6.548   4.934 -0.2601  0.6836 -0.2002
  383MOL0     H52806   2.222   6.460   5.235  1.3927 -0.1384  0.2019
  383MOL0     H52807   2.227   6.363   5.087 -0.8000 -1.2175  1.1914
  383MOL0     H52808   2.415   6.478   5.007  2.7076  1.4938  0.5215
  383MOL0     H52809   2.404   6.610   5.106  2.8563 -1.0231 -0.3036
  383MOL0     H52810   2.440   6.464   5.314  4.7818 -1.8990  2.8165
  383MOL0     H52811   2.464   6.333   5.203  0.3239  0.0819 -0.7554
  383MOL0     H52812   2.872   6.515   5.143 -1.9463  1.5334  0.9065
  383MOL0     H52813   3.140   6.471   5.376 -0.0023 -1.3043  0.7465
  383MOL0     H52814   3.086   6.543   5.222 -3.1148 -1.6232 -0.7230
  383MOL0     H52815   3.144   6.366   5.235 -0.4077 -1.1039  1.6617
  383MOL0     H52816   2.927   6.070   5.857 -0.9329  1.5597 -1.8204
  383MOL0     H52817   3.087   5.976   6.024 -0.0503  0.8579  1.3214
  383MOL0     H52818   3.478   6.170   6.111  0.5329  0.0201  0.5005
  383MOL0     H52819   3.325   6.255   6.140  1.3134 -0.1202 -3.0756
  383MOL0     H52820   3.378   6.214   6.360 -2.3577 -0.4782  0.8523
  383MOL0     H52821   3.283   6.072   6.328 -1.4727  2.4496 -2.8051
  383MOL0     H52822   3.585   6.113   6.358  0.8893  0.3402 -2.0265
  383MOL0     H52823   3.522   5.970   6.263 -0.6374 -1.5518  3.1223
  383MOL0     H52824   3.400   5.892   6.474 -2.3272  1.6570  1.2107
  383MOL0     H52825   3.477   6.031   6.547  0.4013 -1.5183  0.4157
  383MOL0     H52826   3.655   5.815   6.422  3.2121  0.0927  1.6664
  383MOL0     H52827   3.691   5.934   6.543 -0.9441  1.0417  0.4853
  383MOL0     H52828   3.493   5.706   6.554  1.8941 -1.2251 -0.2267
  383MOL0     H52829   3.539   5.801   6.693  0.2657 -2.4985  1.8289
  383MOL0     H52830   3.732   5.635   6.508  2.2501 -1.2511  0.7504
  383MOL0     H52831   3.637   5.572   6.637 -0.4309 -0.1481 -0.2580
  383MOL0     H52832   3.848   5.784   6.654 -2.3544  1.5803 -0.1997
  383MOL0     H52833   3.888   5.622   6.699  2.3006  2.9937  2.6177
  383MOL0     H52834   3.399   6.231   5.869 -1.9261  3.1111  3.0894
  383MOL0     H52835   3.256   6.283   5.684 -1.5076 -1.6811 -1.4536
  383MOL0     H52836   2.762   6.224   5.521 -0.9762 -1.4736 -1.7105
  383MOL0     H52837   2.592   6.352   5.421 -1.0030  2.7664 -0.3636
  383MOL0     H52838   0.628   6.144   4.975  0.8904 -1.0060  2.5998
  383MOL0     H52839   0.453   5.978   5.004  0.2668  2.6007 -1.7820
  383MOL0     H52840   0.270   5.732   4.759  3.0446 -0.0675 -0.2445
  383MOL0     H52841   0.065   5.664   4.662  1.6902  0.2640 -1.8590
  383MOL0     H52842  -0.045   5.227   4.630 -0.7125  0.6088 -1.7296
  383MOL0     H52843  -0.101   5.291   4.791 -2.9382  0.7474  0.0616
  383MOL0     H52844  -0.236   5.393   4.551  1.6874  0.0121  0.1146
  383MOL0     H52845  -0.275   5.383   4.725  1.3001 -2.0422  1.8170
  383MOL0     H52846  -0.282   5.184   4.491 -0.5738 -0.4367 -0.3288
  383MOL0     H52847  -0.283   5.113   4.651  2.6066  1.2319 -0.9867
  383MOL0     H52848  -0.487   5.325   4.558 -1.5235 -0.3342 -0.4774
  383MOL0     H52849  -0.517   5.213   4.692  1.2547  1.4240  1.1152
  383MOL0     H52850  -0.653   5.036   4.343  1.2049 -1.6765  0.2493
  383MOL0     H52851   0.138   5.268   4.743  0.3150  1.3483 -1.0484
  383MOL0     H52852   0.296   5.211   4.918  1.1490 -0.9957  1.4849
  383MOL0     H52853   0.433   5.232   4.822  0.1516  0.1569  0.2376
  383MOL0     H52854   0.421   5.316   4.974  0.2297 -0.8161 -0.4488
  384MOL0     O52855   3.020   0.585   4.611  0.6660  0.0016 -0.5934
  384MOL0     C52856   3.066   0.482   4.569 -0.1142 -0.2903  0.2999
  384MOL0     O52857   3.197   0.430   4.591 -0.1390  0.5059  0.0086
  384MOL0     C52858   3.302   0.497   4.648 -0.5972 -0.5161  0.7049
  384MOL0     C52859   3.419   0.433   4.657 -0.2643  0.2606 -0.3510
  384MOL0     C52860   3.532   0.489   4.716  0.7063 -0.2661  1.0754
  384MOL0     C52861   3.534   0.628   4.746 -0.2525 -0.3508 -1.1852
  384MOL0     O52862   3.647   0.683   4.813  0.3843  0.0086  0.3626
  384MOL0     C52863   3.633   0.807   4.880  1.1067  0.0257 -0.2267
  384MOL0     C52864   3.765   0.855   4.924 -0.0694  0.1253 -0.4863
  384MOL0     C52865   3.877   0.865   4.817  0.5343  0.5316  0.2094
  384MOL0     C52866   4.007   0.889   4.881 -0.3986  0.3064 -0.3938
  384MOL0     C52867   4.099   0.972   4.804  0.3621  0.0369  0.1066
  384MOL0     C52868   4.229   0.988   4.867  0.1415  0.3760  0.2952
  384MOL0     C52869   4.324   1.065   4.774  0.5507 -0.2152  0.1991
  384MOL0     C52870   4.471   1.070   4.821 -0.2480 -0.0902 -0.1549
  384MOL0     N52871   4.559   1.141   4.717 -0.3948 -0.0221  0.2287
  384MOL0     C52872   4.576   1.269   4.729 -0.0092 -0.7596 -0.4586
  384MOL0     C52873   4.640   1.306   4.619  0.2689 -0.4606 -0.5238
  384MOL0     C52874   4.676   1.449   4.583  0.1510 -0.3928 -0.7137
  384MOL0     C52875   4.829   1.484   4.597 -0.3693  0.4380  0.0162
  384MOL0     C52876   4.873   1.627   4.564  0.1821 -0.5075 -0.1484
  384MOL0     C52877   5.007   1.670   4.623  0.3316  0.5538 -0.9298
  384MOL0     O52878   5.116   1.601   4.559  0.1102  0.3390 -0.3155
  384MOL0     C52879   5.247   1.609   4.605  0.5811  0.5811  0.9661
  384MOL0     C52880   5.326   1.510   4.546  0.3685 -0.5996  1.4219
  384MOL0     C52881   5.464   1.520   4.559  0.3038  0.1398 -0.5966
  384MOL0     C52882   5.536   1.402   4.490 -0.3464 -0.1805 -0.4065
  384MOL0     C52883   5.531   1.616   4.644 -0.3007  0.2871  0.4729
  384MOL0     C52884   5.684   1.616   4.673  0.4645 -0.0242  0.1790
  384MOL0     O52885   5.764   1.551   4.583 -0.0198  0.7672 -0.8476
  384MOL0     C52886   5.890   1.521   4.623  0.3741 -0.0412  0.0034
  384MOL0     C52887   5.928   1.394   4.602  0.3781 -0.4133 -0.1284
  384MOL0     C52888   6.062   1.355   4.624 -0.4557 -0.5680  0.8607
  384MOL0     C52889   6.148   1.445   4.686 -0.1465  0.6301  2.0058
  384MOL0     O52890   6.276   1.425   4.723 -0.0239 -0.1786  0.0817
  384MOL0     C52891   6.368   1.379   4.622  0.4011 -1.1880  0.3801
  384MOL0     C52892   6.416   1.497   4.542 -0.0248 -0.0605  0.4092
  384MOL0     C52893   6.516   1.460   4.421 -0.2668 -0.5226 -0.4546
  384MOL0     C52894   6.570   1.582   4.331  0.2636  0.5866 -1.0152
  384MOL0     C52895   6.706   1.629   4.373  0.3162  0.8408 -0.3098
  384MOL0     C52896   6.830   1.557   4.328 -0.9074  0.8305  0.1564
  384MOL0     C52897   6.846   1.417   4.378 -1.1670 -0.5978  0.4289
  384MOL0     C52898   7.001   1.379   4.354 -0.4149  0.0152  1.1038
  384MOL0    Cl52899   7.120   1.480   4.431  0.0736  0.0819  0.1343
  384MOL0     C52900   6.104   1.570   4.704  0.2919 -0.3697 -0.8220
  384MOL0     C52901   5.983   1.617   4.664 -0.5800 -0.3802 -0.1110
  384MOL0     O52902   5.722   1.678   4.771  0.3828  0.3625 -0.4842
  384MOL0     C52903   5.452   1.710   4.706  0.6543  0.1476  1.0142
  384MOL0     C52904   5.307   1.710   4.687  0.8501  0.4083  1.1463
  384MOL0     N52905   4.650   1.193   4.539 -1.1115  0.0545  0.7032
  384MOL0     N52906   4.602   1.090   4.598  0.4225  0.1532  0.5223
  384MOL0     C52907   3.425   0.702   4.708  0.2639 -0.0270  0.3125
  384MOL0     C52908   3.310   0.635   4.667  0.5155  0.3813 -0.4832
  384MOL0     C52909   2.982   0.403   4.477 -0.4744  0.0305 -0.1549
  384MOL0     C52910   2.866   0.460   4.427  0.6138  0.1364  0.1748
  384MOL0     C52911   2.785   0.387   4.330 -0.1140  0.2010  0.7478
  384MOL0     C52912   2.813   0.253   4.297  0.3158 -0.3665 -0.3531
  384MOL0     O52913   2.742   0.189   4.200  0.1995  0.7094  0.2551
  384MOL0     C52914   2.782   0.055   4.152  0.5480 -0.5180  0.4756
  384MOL0     C52915   2.680  -0.013   4.055  0.3507  0.1266  0.2604
  384MOL0     C52916   2.540  -0.008   4.119 -0.8959 -0.0453 -0.3572
  384MOL0     C52917   2.437  -0.073   4.024 -0.0294  0.0631  0.2081
  384MOL0     C52918   2.452  -0.221   4.029 -0.3400 -0.3471  0.1733
  384MOL0     C52919   2.463  -0.339   4.018  0.1654 -0.1963  0.3396
  384MOL0     C52920   2.922   0.194   4.359  0.4242 -0.3970 -0.0114
  384MOL0     C52921   3.012   0.264   4.445 -0.3214 -0.5331  0.4262
  384MOL0     C52922   3.120   0.182   4.511  0.4283 -0.4347  0.2107
  384MOL0     H52923   3.427   0.330   4.624  0.9161  0.2851 -0.1917
  384MOL0     H52924   3.601   0.409   4.743 -0.4436 -1.9461 -0.7746
  384MOL0     H52925   3.563   0.791   4.964 -0.0866 -0.4821 -1.2854
  384MOL0     H52926   3.592   0.889   4.820  1.7369 -1.4850 -2.8487
  384MOL0     H52927   3.754   0.954   4.969  1.6052 -0.2005  0.7406
  384MOL0     H52928   3.797   0.785   5.001 -1.1927 -2.6419 -2.3974
  384MOL0     H52929   3.869   0.766   4.770 -0.7692 -0.2444  1.9364
  384MOL0     H52930   3.858   0.939   4.738  0.1546  0.4725  0.2406
  384MOL0     H52931   3.997   0.931   4.982 -1.9972 -1.7554  0.3780
  384MOL0     H52932   4.046   0.789   4.899 -0.0756  0.2593 -1.3090
  384MOL0     H52933   4.054   1.071   4.789  1.9338  0.9160  1.0227
  384MOL0     H52934   4.104   0.930   4.703 -2.5253  1.7982 -0.8833
  384MOL0     H52935   4.211   1.052   4.955 -1.4944 -0.1591  0.3880
  384MOL0     H52936   4.272   0.894   4.902  0.6965  0.3251 -0.4957
  384MOL0     H52937   4.278   1.165   4.768 -3.7220 -1.7062  3.1801
  384MOL0     H52938   4.308   1.017   4.677 -0.0367  0.2039  0.0810
  384MOL0     H52939   4.478   1.114   4.921 -3.5686  0.3164 -0.0067
  384MOL0     H52940   4.516   0.971   4.828 -0.7923 -0.2287  2.9245
  384MOL0     H52941   4.549   1.337   4.810  0.5918  1.0607 -1.7131
  384MOL0     H52942   4.618   1.515   4.649 -3.2309 -2.7066 -1.1667
  384MOL0     H52943   4.639   1.475   4.483 -2.4333  0.3827  0.3484
  384MOL0     H52944   4.865   1.460   4.697  0.8817 -2.2962 -0.9917
  384MOL0     H52945   4.887   1.404   4.551  0.0174 -0.7985  2.5051
  384MOL0     H52946   4.866   1.645   4.456 -0.3144 -2.2774 -0.4551
  384MOL0     H52947   4.796   1.690   4.609  0.6311 -0.1861  0.1664
  384MOL0     H52948   5.022   1.776   4.603  0.1043  0.7694  0.0114
  384MOL0     H52949   5.000   1.656   4.731 -2.9113  0.9716 -0.9874
  384MOL0     H52950   5.283   1.441   4.474 -1.7534  2.3369 -0.3106
  384MOL0     H52951   5.604   1.436   4.412  0.5429 -0.7919  0.0774
  384MOL0     H52952   5.465   1.328   4.452  2.8016 -3.7295 -0.0139
  384MOL0     H52953   5.599   1.351   4.564  3.6545  3.8035 -0.6841
  384MOL0     H52954   5.850   1.326   4.571 -1.8563  2.1236 -0.4672
  384MOL0     H52955   6.099   1.253   4.620 -4.8146 -2.3925  1.6508
  384MOL0     H52956   6.457   1.335   4.667 -0.0969 -0.4916  2.1330
  384MOL0     H52957   6.319   1.306   4.557  0.7404  0.0831 -1.3829
  384MOL0     H52958   6.338   1.558   4.494  0.9592  3.7210  3.0900
  384MOL0     H52959   6.471   1.566   4.608  1.9765 -0.5568 -0.6488
  384MOL0     H52960   6.468   1.379   4.365 -0.7967  1.0047 -2.2998
  384MOL0     H52961   6.602   1.407   4.462 -0.1882  0.7844  1.2061
  384MOL0     H52962   6.503   1.664   4.360 -0.2470 -0.7405  1.8839
  384MOL0     H52963   6.565   1.561   4.224 -1.6081  0.6250 -0.9651
  384MOL0     H52964   6.714   1.726   4.324 -1.4172  1.0146 -0.3249
  384MOL0     H52965   6.707   1.650   4.481  0.8333  0.3208 -0.2076
  384MOL0     H52966   6.909   1.616   4.374  1.1226 -2.1223  0.7738
  384MOL0     H52967   6.821   1.559   4.218  0.2036  2.5840  0.0677
  384MOL0     H52968   6.769   1.356   4.328 -0.3822 -0.9302 -0.4013
  384MOL0     H52969   6.814   1.416   4.482  3.9167  0.3010  2.2549
  384MOL0     H52970   7.031   1.373   4.249 -1.7730  1.6521  0.5902
  384MOL0     H52971   7.019   1.278   4.393  2.0183  0.8772  2.4427
  384MOL0     H52972   6.169   1.645   4.748 -0.3586 -0.8004  0.9715
  384MOL0     H52973   5.956   1.722   4.670  2.3028  0.5613 -1.7041
  384MOL0     H52974   5.501   1.775   4.777  1.6040  1.7226 -0.9692
  384MOL0     H52975   5.239   1.776   4.739  1.1851 -0.5447  2.8769
  384MOL0     H52976   3.425   0.810   4.721 -3.6222  0.4266 -2.0500
  384MOL0     H52977   3.225   0.698   4.643 -0.3951 -0.0135  1.5143
  384MOL0     H52978   2.843   0.563   4.451 -1.0548 -0.3735  0.9061
  384MOL0     H52979   2.697   0.435   4.289 -0.4522 -0.3131  0.8621
  384MOL0     H52980   2.882   0.052   4.108  0.3821 -5.4226 -0.1523
  384MOL0     H52981   2.785  -0.010   4.241 -0.7990 -0.3865  0.6379
  384MOL0     H52982   2.709  -0.116   4.034  1.5857  0.1341  1.7844
  384MOL0     H52983   2.669   0.043   3.962  0.7630  1.1902  0.8418
  384MOL0     H52984   2.545  -0.065   4.213 -1.0063  0.2005 -0.2002
  384MOL0     H52985   2.509   0.094   4.144  0.1044 -0.1547  1.5494
  384MOL0     H52986   2.456  -0.039   3.922  1.5539 -1.4865 -0.0618
  384MOL0     H52987   2.338  -0.040   4.055 -0.1944 -0.0396 -0.2052
  384MOL0     H52988   2.467  -0.446   4.031  1.3452  0.1544  3.9156
  384MOL0     H52989   2.951   0.093   4.332  1.2156  0.2289 -1.6344
  384MOL0     H52990   3.117   0.081   4.469 -0.4554  0.0077 -0.8376
  384MOL0     H52991   3.221   0.216   4.486  0.2984  2.0008  2.5756
  384MOL0     H52992   3.103   0.167   4.618 -0.0683 -0.4202  0.1355
  385MOL0     O52993   7.408  11.181   8.469  1.2193  0.3260 -0.1828
  385MOL0     C52994   7.303  11.136   8.514  0.1000  0.5510 -0.5842
  385MOL0     O52995   7.270  11.009   8.524  0.5971  0.1581  0.2968
  385MOL0     C52996   7.360  10.922   8.460 -0.7523  0.2426 -0.2700
  385MOL0     C52997   7.472  10.876   8.527 -0.3124 -0.5647 -0.2386
  385MOL0     C52998   7.571  10.810   8.470  0.5901  0.3025  0.0537
  385MOL0     C52999   7.550  10.767   8.341  0.4841 -0.1366 -0.2996
  385MOL0     O53000   7.653  10.694   8.277  0.5791  0.6184  0.3693
  385MOL0     C53001   7.651  10.550   8.279 -0.9465 -0.2302 -0.4839
  385MOL0     C53002   7.778  10.498   8.221 -0.0181 -1.3038  0.2652
  385MOL0     C53003   7.780  10.515   8.075 -0.2715  0.1196 -0.1470
  385MOL0     C53004   7.908  10.457   8.020 -0.2891 -0.0649  0.2174
  385MOL0     C53005   7.941  10.508   7.876  0.2483 -0.3837  0.5863
  385MOL0     C53006   8.076  10.465   7.833  0.1179 -0.7842  0.7808
  385MOL0     C53007   8.108  10.523   7.690 -0.6292  0.5851 -0.0367
  385MOL0     C53008   8.261  10.524   7.675  0.0323  0.3296 -0.3186
  385MOL0     N53009   8.317  10.421   7.588  0.4149 -0.8585 -0.3323
  385MOL0     C53010   8.300  10.293   7.605  0.2643  0.5383 -1.2214
  385MOL0     C53011   8.318  10.229   7.483  0.9127 -0.9536  0.3834
  385MOL0     C53012   8.287  10.086   7.447  0.4829 -0.3636 -0.4477
  385MOL0     C53013   8.197  10.084   7.328  0.6589  0.3768 -0.7529
  385MOL0     C53014   8.186   9.942   7.274  0.8226 -0.5679 -0.6076
  385MOL0     C53015   8.097   9.951   7.147  0.2371  1.1633 -0.1252
  385MOL0     O53016   8.119   9.845   7.059 -0.5969 -0.1293 -0.5058
  385MOL0     C53017   8.235   9.857   6.983  0.0767 -0.6262  0.1017
  385MOL0     C53018   8.265   9.747   6.897 -0.2280  0.1633 -0.2830
  385MOL0     C53019   8.378   9.737   6.824  0.3332 -0.1460 -0.9198
  385MOL0     C53020   8.391   9.609   6.748 -0.0544 -0.4445  0.4428
  385MOL0     C53021   8.462   9.850   6.813  0.1652 -0.7584 -0.7316
  385MOL0     C53022   8.577   9.856   6.720  0.6381 -1.0905 -0.2195
  385MOL0     O53023   8.648   9.970   6.721 -0.0809  0.2330  0.1948
  385MOL0     C53024   8.772   9.960   6.671 -0.5635  0.4015  0.3586
  385MOL0     C53025   8.892   9.980   6.747  0.2094  0.0658  0.0157
  385MOL0     C53026   9.020   9.979   6.686  0.0604 -0.2797 -0.2774
  385MOL0     C53027   9.033   9.957   6.548  0.2352  0.5825 -0.0331
  385MOL0     O53028   9.158   9.962   6.498 -0.5916 -0.4397 -0.3409
  385MOL0     C53029   9.182   9.932   6.357 -0.0878 -0.6327  0.1831
  385MOL0     C53030   9.326   9.964   6.325  0.0956 -0.3296 -0.3571
  385MOL0     C53031   9.344  10.115   6.282 -0.5308 -0.3992 -0.6509
  385MOL0     C53032   9.486  10.142   6.255  0.2680  0.2237 -0.5468
  385MOL0     C53033   9.503  10.292   6.218 -0.5553  0.2485  0.1294
  385MOL0     C53034   9.653  10.335   6.214  0.3155  1.3552 -0.1721
  385MOL0     C53035   9.667  10.494   6.208 -0.4680 -0.2597  0.5501
  385MOL0     C53036   9.812  10.534   6.207 -0.8758 -0.4852 -0.0056
  385MOL0    Cl53037   9.822  10.718   6.203 -0.4580 -0.1480 -0.1522
  385MOL0     C53038   8.918   9.942   6.472  0.3643 -0.0654  0.1432
  385MOL0     C53039   8.794   9.936   6.533  0.7883  0.0049  0.1488
  385MOL0     O53040   8.612   9.753   6.657  0.2601  0.7506 -0.4213
  385MOL0     C53041   8.443   9.967   6.901 -0.3351 -0.9172 -0.2825
  385MOL0     C53042   8.334   9.962   6.984  0.1829  0.3313 -0.1893
  385MOL0     N53043   8.373  10.325   7.403 -0.2736 -0.7643  0.0878
  385MOL0     N53044   8.376  10.441   7.470  0.9541 -0.1305 -0.0870
  385MOL0     C53045   7.437  10.806   8.277 -0.3294  0.4773  1.2311
  385MOL0     C53046   7.343  10.876   8.335  0.3514 -1.0746  0.2410
  385MOL0     C53047   7.196  11.228   8.562  0.0090  0.8799  0.1380
  385MOL0     C53048   7.229  11.354   8.620 -0.2355  0.7919  0.4399
  385MOL0     C53049   7.138  11.453   8.651 -0.1350  0.9716  0.5773
  385MOL0     C53050   7.001  11.429   8.615 -0.5430 -0.9057  0.0406
  385MOL0     O53051   6.898  11.517   8.646  0.2590 -0.6751 -0.0401
  385MOL0     C53052   6.929  11.647   8.713 -0.1620 -0.2277 -0.4724
  385MOL0     C53053   6.812  11.740   8.739  0.2723  0.0581  0.3220
  385MOL0     C53054   6.872  11.886   8.766 -0.3107 -0.1410  0.3563
  385MOL0     C53055   6.775  12.001   8.752  0.1116  0.8329 -0.6395
  385MOL0     C53056   6.638  11.972   8.809  0.6900 -0.7611  0.5297
  385MOL0     C53057   6.527  11.960   8.858 -0.3128 -0.1388 -0.2307
  385MOL0     C53058   6.968  11.311   8.550  0.4596  0.2660 -1.0013
  385MOL0     C53059   7.061  11.211   8.517 -0.3862 -0.0375 -0.0495
  385MOL0     C53060   7.019  11.087   8.438  0.2867 -1.1408  0.3416
  385MOL0     H53061   7.473  10.890   8.635  0.5159 -0.1802 -0.2851
  385MOL0     H53062   7.666  10.788   8.517  1.1170 -0.9243 -1.4994
  385MOL0     H53063   7.568  10.520   8.215 -0.4625  2.8580 -2.7628
  385MOL0     H53064   7.639  10.511   8.381  0.5511  3.9132  1.4970
  385MOL0     H53065   7.870  10.541   8.262  0.1899  0.4237 -1.8230
  385MOL0     H53066   7.778  10.390   8.243  3.9932 -1.0410  2.6558
  385MOL0     H53067   7.687  10.477   8.030  0.2250  0.2114 -1.2962
  385MOL0     H53068   7.784  10.624   8.061  0.4022  0.0902 -0.1877
  385MOL0     H53069   7.984  10.493   8.089  2.6063 -1.6872 -1.8726
  385MOL0     H53070   7.915  10.348   8.021  1.8721  0.0071 -0.8304
  385MOL0     H53071   7.932  10.617   7.880  3.1410 -0.0489  0.1668
  385MOL0     H53072   7.862  10.472   7.811  0.4156 -0.8801  0.6493
  385MOL0     H53073   8.146  10.511   7.904  0.8326  0.3054 -0.5880
  385MOL0     H53074   8.081  10.356   7.826  0.2991 -0.7644  0.5921
  385MOL0     H53075   8.081  10.629   7.689  0.3583  0.8540  0.1541
  385MOL0     H53076   8.058  10.472   7.607  0.5701  0.2003 -0.5508
  385MOL0     H53077   8.296  10.617   7.627  2.4275 -0.3456 -0.0346
  385MOL0     H53078   8.305  10.526   7.775 -2.7158  0.7329  0.9571
  385MOL0     H53079   8.261  10.240   7.691 -0.0054  0.1235 -1.5982
  385MOL0     H53080   8.232  10.032   7.525 -1.1084  1.2459 -0.3959
  385MOL0     H53081   8.383  10.037   7.427 -0.5305 -1.6277 -2.6164
  385MOL0     H53082   8.097  10.124   7.347 -0.5509 -1.8030 -2.1687
  385MOL0     H53083   8.252  10.141   7.253 -1.0058  1.9747 -0.8342
  385MOL0     H53084   8.290   9.909   7.262  0.7441 -1.2861  0.5621
  385MOL0     H53085   8.135   9.881   7.349 -0.5132  2.6929  1.3426
  385MOL0     H53086   7.991   9.961   7.173 -0.2957  0.3068 -1.8321
  385MOL0     H53087   8.117  10.043   7.092 -1.4657  1.3494 -0.4929
  385MOL0     H53088   8.193   9.666   6.894  1.7514 -1.6572 -0.7556
  385MOL0     H53089   8.383   9.645   6.645 -0.2637  1.6159  1.1280
  385MOL0     H53090   8.310   9.536   6.761  1.7018 -2.4744  0.5494
  385MOL0     H53091   8.491   9.566   6.758  0.3720  1.0182  3.6860
  385MOL0     H53092   8.878  10.001   6.852 -1.1632  1.5457 -0.4062
  385MOL0     H53093   9.108   9.984   6.750 -0.9816  1.6961  1.1302
  385MOL0     H53094   9.163   9.824   6.349  0.1523 -0.5902 -1.2552
  385MOL0     H53095   9.124   9.974   6.274  0.8404  0.2861 -0.0133
  385MOL0     H53096   9.383   9.937   6.414  1.7392  3.2807 -0.1572
  385MOL0     H53097   9.360   9.900   6.244  3.7267 -0.3259  1.0076
  385MOL0     H53098   9.316  10.166   6.374  0.6404  2.5445 -1.8051
  385MOL0     H53099   9.275  10.148   6.203  0.4104  2.1773 -0.4987
  385MOL0     H53100   9.533  10.081   6.177  1.1022 -0.0014  0.1098
  385MOL0     H53101   9.543  10.127   6.348 -0.5506 -3.0391 -0.4511
  385MOL0     H53102   9.451  10.325   6.128  0.5763 -0.5748 -0.8526
  385MOL0     H53103   9.458  10.343   6.304 -0.9822 -0.6849  0.4729
  385MOL0     H53104   9.710  10.285   6.136 -1.5168  0.6037 -1.1044
  385MOL0     H53105   9.700  10.298   6.305 -0.5364 -0.1532 -0.3176
  385MOL0     H53106   9.621  10.525   6.302 -1.2236 -2.5667  1.0258
  385MOL0     H53107   9.613  10.554   6.134 -0.4689  3.4725  3.2904
  385MOL0     H53108   9.855  10.489   6.117  1.8445 -2.2725  2.0304
  385MOL0     H53109   9.865  10.490   6.291  2.3733  1.7302 -0.6959
  385MOL0     H53110   8.920   9.934   6.364  0.4061  1.2010  0.0420
  385MOL0     H53111   8.707   9.912   6.474  1.5355 -0.8469 -0.6195
  385MOL0     H53112   8.500  10.058   6.891 -1.4918 -0.3968 -3.3631
  385MOL0     H53113   8.340  10.034   7.066  0.6849 -2.3634  2.3043
  385MOL0     H53114   7.432  10.773   8.174 -0.1912 -0.6574  1.5695
  385MOL0     H53115   7.252  10.907   8.284  0.7072  0.9736  0.7358
  385MOL0     H53116   7.334  11.377   8.638  0.4379 -0.4900 -1.5294
  385MOL0     H53117   7.161  11.542   8.709 -1.4141  1.4205  0.4294
  385MOL0     H53118   6.979  11.629   8.809 -3.1914 -0.5929  1.1434
  385MOL0     H53119   7.001  11.709   8.658 -0.0785  1.5321  1.5218
  385MOL0     H53120   6.764  11.704   8.831 -0.5112  1.4620  0.4837
  385MOL0     H53121   6.733  11.732   8.664 -1.0728  0.9748  1.5816
  385MOL0     H53122   6.912  11.892   8.868  0.7773  2.2338 -0.1558
  385MOL0     H53123   6.953  11.902   8.694 -2.8301  0.5704 -2.5472
  385MOL0     H53124   6.758  12.023   8.646 -1.0181  0.0990 -0.6328
  385MOL0     H53125   6.818  12.082   8.812 -0.0667 -0.3487  1.1686
  385MOL0     H53126   6.430  11.948   8.901  0.0309 -2.3354  0.0642
  385MOL0     H53127   6.861  11.298   8.543  0.2466  0.3497  1.3122
  385MOL0     H53128   7.011  10.996   8.499  2.3522 -1.2377  0.5226
  385MOL0     H53129   6.925  11.121   8.394  0.3326  0.9439  1.7286
  385MOL0     H53130   7.095  11.071   8.362  1.4164  0.2415  1.1525
  386MOL0     O53131   8.724   5.629   8.711 -0.4655 -0.1458 -0.8805
  386MOL0     C53132   8.752   5.737   8.771  0.0396 -0.1958 -0.6177
  386MOL0     O53133   8.659   5.831   8.809  0.3394  0.1392 -0.6861
  386MOL0     C53134   8.526   5.799   8.773 -0.0782 -0.0489  0.3304
  386MOL0     C53135   8.482   5.825   8.644  0.6244  0.5132 -0.2458
  386MOL0     C53136   8.350   5.776   8.605 -0.5504  0.7682 -0.4428
  386MOL0     C53137   8.265   5.715   8.703  0.4913 -0.7818  0.7542
  386MOL0     O53138   8.144   5.660   8.661  1.0426  0.2105 -0.3649
  386MOL0     C53139   8.085   5.562   8.747  0.3963  0.4259  0.4340
  386MOL0     C53140   7.982   5.643   8.826  0.2053  0.9863  0.4570
  386MOL0     C53141   7.952   5.559   8.960  0.2689 -0.0236  1.4913
  386MOL0     C53142   7.840   5.637   9.036 -0.2001  0.4470  0.2274
  386MOL0     C53143   7.788   5.551   9.154 -0.1280  0.1973  0.2911
  386MOL0     C53144   7.823   5.616   9.284  0.4329 -0.8969 -0.2849
  386MOL0     C53145   7.951   5.580   9.352 -0.5645  0.3959  0.0804
  386MOL0     C53146   8.030   5.706   9.397 -0.0133 -0.5383  0.6519
  386MOL0     N53147   8.173   5.662   9.411  0.3341  0.3546  0.3134
  386MOL0     C53148   8.271   5.671   9.315 -0.1774 -0.3717  0.6834
  386MOL0     C53149   8.384   5.634   9.373  0.3328  0.0634 -0.0046
  386MOL0     C53150   8.516   5.613   9.305 -0.0130  0.5380  0.4006
  386MOL0     C53151   8.611   5.739   9.287  0.7398 -0.2601 -0.4235
  386MOL0     C53152   8.723   5.725   9.183 -0.1142  0.4003 -0.3748
  386MOL0     C53153   8.848   5.664   9.246 -0.0537  0.7399  0.5037
  386MOL0     O53154   8.892   5.748   9.356 -0.2341 -0.2681 -0.1850
  386MOL0     C53155   9.012   5.813   9.329  0.0322  0.2523  1.0021
  386MOL0     C53156   9.023   5.947   9.302  0.1391 -0.5694 -1.4415
  386MOL0     C53157   9.152   6.007   9.286 -0.9310  0.4689 -0.3964
  386MOL0     C53158   9.148   6.155   9.295 -0.9237 -0.3040 -0.2257
  386MOL0     C53159   9.271   5.924   9.286  0.0055  0.9410  0.7822
  386MOL0     C53160   9.408   5.965   9.243  0.1357  0.4167 -0.2369
  386MOL0     O53161   9.433   6.082   9.185  0.0559  0.5482 -0.7519
  386MOL0     C53162   9.564   6.116   9.155  0.5271  0.2614  0.0217
  386MOL0     C53163   9.653   6.032   9.086 -0.0656 -0.1127  0.0358
  386MOL0     C53164   9.784   6.073   9.061 -0.3120  0.4369  0.1467
  386MOL0     C53165   9.823   6.197   9.101  0.7669  0.5469 -0.1360
  386MOL0     O53166   9.943   6.254   9.074  1.0178 -0.0524  0.1338
  386MOL0     C53167   9.975   6.275   8.937 -1.2852  1.0369  0.5542
  386MOL0     C53168   9.876   6.363   8.854 -0.3379 -0.3541  0.2455
  386MOL0     C53169   9.925   6.354   8.707 -0.0095 -0.0744  0.2423
  386MOL0     C53170   9.839   6.456   8.624  0.3602  0.3689 -0.6353
  386MOL0     C53171   9.870   6.458   8.474 -0.1960 -0.2398  0.0408
  386MOL0     C53172   9.793   6.577   8.403 -0.6307  0.1542  0.6763
  386MOL0     C53173   9.854   6.576   8.258 -0.2089  0.1722  0.3870
  386MOL0     C53174   9.817   6.705   8.180 -0.1380  0.5735 -0.1997
  386MOL0    Cl53175   9.889   6.847   8.247 -0.3630 -0.0493 -0.5156
  386MOL0     C53176   9.739   6.280   9.166  0.4316 -0.4758  0.1020
  386MOL0     C53177   9.610   6.246   9.190  0.1130 -0.5976  0.2524
  386MOL0     O53178   9.492   5.880   9.256 -0.5068  0.3007  0.8884
  386MOL0     C53179   9.251   5.786   9.298  0.1189 -0.9711 -0.8013
  386MOL0     C53180   9.125   5.733   9.316  0.2044  0.7203 -0.8661
  386MOL0     N53181   8.350   5.607   9.505  0.2090  0.7844 -0.2636
  386MOL0     N53182   8.221   5.612   9.527  0.3499 -0.3016 -0.1548
  386MOL0     C53183   8.306   5.717   8.842 -0.6817 -0.7342 -0.0662
  386MOL0     C53184   8.434   5.762   8.868 -0.0320 -0.2868 -0.2125
  386MOL0     C53185   8.896   5.765   8.793 -0.0352 -0.0232 -0.8843
  386MOL0     C53186   8.928   5.870   8.880  0.4201  0.4912 -0.2217
  386MOL0     C53187   9.056   5.910   8.909  0.7705 -0.0654 -0.3939
  386MOL0     C53188   9.164   5.850   8.848  0.8436  0.3893 -0.0161
  386MOL0     O53189   9.289   5.878   8.882  0.4982 -0.5788  0.7778
  386MOL0     C53190   9.377   5.952   8.796  0.0909 -0.5957 -0.4402
  386MOL0     C53191   9.322   6.096   8.765 -0.1420 -0.0111  0.0472
  386MOL0     C53192   9.339   6.177   8.891 -0.0294  0.6264 -1.1653
  386MOL0     C53193   9.271   6.309   8.900 -1.4405 -0.5058  0.5999
  386MOL0     C53194   9.342   6.411   8.816  0.3476 -0.3877 -0.2550
  386MOL0     C53195   9.388   6.504   8.755 -0.1429 -0.1588 -0.1025
  386MOL0     C53196   9.133   5.739   8.762  0.4143 -0.2063 -0.5175
  386MOL0     C53197   9.004   5.694   8.734  0.1331 -0.6026 -0.9704
  386MOL0     C53198   8.988   5.580   8.631  0.1273  0.4251 -0.2002
  386MOL0     H53199   8.536   5.874   8.563 -1.0736  0.3632 -1.5414
  386MOL0     H53200   8.320   5.764   8.502  0.7103 -0.0727 -0.7422
  386MOL0     H53201   8.156   5.508   8.811 -0.5868  2.1612  3.1388
  386MOL0     H53202   8.040   5.482   8.688  1.0427  0.1469  0.2989
  386MOL0     H53203   8.022   5.739   8.860  0.3988  0.9912  0.2207
  386MOL0     H53204   7.900   5.662   8.756  0.2866 -1.9876 -0.5977
  386MOL0     H53205   7.909   5.463   8.931 -1.2711  1.2987 -0.9839
  386MOL0     H53206   8.045   5.551   9.017  0.8814  0.6198  0.6149
  386MOL0     H53207   7.875   5.738   9.055  0.7026  0.0661  0.6342
  386MOL0     H53208   7.762   5.642   8.959  3.2283 -4.4734 -4.2479
  386MOL0     H53209   7.823   5.447   9.151 -1.6535 -0.4321  2.0545
  386MOL0     H53210   7.680   5.536   9.158 -0.1960  0.3890 -0.7446
  386MOL0     H53211   7.809   5.724   9.274  0.0063 -0.9350 -0.1449
  386MOL0     H53212   7.743   5.590   9.355 -0.7918 -1.0651 -1.6774
  386MOL0     H53213   8.013   5.525   9.280 -1.7228  2.2136 -2.4484
  386MOL0     H53214   7.938   5.505   9.431 -0.7388 -0.1887 -0.4893
  386MOL0     H53215   8.026   5.778   9.314  0.5489  0.0894  1.1610
  386MOL0     H53216   7.973   5.741   9.484  0.1908  2.8373 -0.4358
  386MOL0     H53217   8.264   5.714   9.216 -1.5476 -1.2199  0.3842
  386MOL0     H53218   8.501   5.580   9.202  2.4238 -2.3200  0.8232
  386MOL0     H53219   8.568   5.531   9.354  1.0973 -1.2475 -3.3647
  386MOL0     H53220   8.539   5.813   9.250  0.8340 -0.3668 -0.8323
  386MOL0     H53221   8.646   5.783   9.381 -1.1145  4.4573 -1.6367
  386MOL0     H53222   8.692   5.677   9.090  0.7698  2.2934 -1.7058
  386MOL0     H53223   8.750   5.830   9.167  1.2401  0.2009  0.4679
  386MOL0     H53224   8.828   5.563   9.284 -1.5961 -0.0080 -2.0329
  386MOL0     H53225   8.930   5.660   9.174 -0.9978  3.0127 -0.7925
  386MOL0     H53226   8.937   6.013   9.303 -0.1944 -0.9144  1.3851
  386MOL0     H53227   9.125   6.204   9.200  0.8147 -1.5803 -1.3856
  386MOL0     H53228   9.253   6.174   9.322  0.4305 -3.7340 -2.3291
  386MOL0     H53229   9.072   6.192   9.363  0.8191  3.2300  0.0080
  386MOL0     H53230   9.616   5.941   9.042 -0.0806 -0.3610  0.5552
  386MOL0     H53231   9.848   6.015   8.995 -0.9200 -0.0070 -0.0636
  386MOL0     H53232  10.081   6.301   8.932 -1.2734  1.6097  2.9016
  386MOL0     H53233   9.971   6.172   8.899 -0.5344  0.8719  0.9078
  386MOL0     H53234   9.776   6.318   8.861 -0.4746 -1.0975 -3.8042
  386MOL0     H53235   9.898   6.463   8.891  2.5416  0.9558 -4.1446
  386MOL0     H53236   9.934   6.260   8.652  0.4988  0.7279 -1.0819
  386MOL0     H53237  10.027   6.394   8.713  0.9938 -2.6654  4.2619
  386MOL0     H53238   9.853   6.551   8.676 -1.7607 -0.1775  1.1183
  386MOL0     H53239   9.731   6.436   8.629  0.9599 -3.0401  2.3532
  386MOL0     H53240   9.978   6.465   8.458 -0.5001  2.4425 -1.4286
  386MOL0     H53241   9.842   6.366   8.421 -2.7600  0.5385 -0.0960
  386MOL0     H53242   9.813   6.668   8.459  4.4046 -0.4175  0.2030
  386MOL0     H53243   9.686   6.553   8.406 -0.3143 -2.4059 -2.5232
  386MOL0     H53244   9.794   6.495   8.214 -2.2877  1.9967 -0.3355
  386MOL0     H53245   9.960   6.549   8.262  0.5966  3.1987  2.6866
  386MOL0     H53246   9.708   6.713   8.193 -0.2109 -1.5955  0.9671
  386MOL0     H53247   9.844   6.701   8.075  0.7150  1.1001 -0.0056
  386MOL0     H53248   9.776   6.378   9.193 -0.2320 -1.0566  3.5801
  386MOL0     H53249   9.553   6.322   9.242  3.2520  1.3916  1.0698
  386MOL0     H53250   9.333   5.715   9.297  0.9443 -0.0356 -0.6848
  386MOL0     H53251   9.109   5.626   9.329 -4.5858  0.5973 -4.9140
  386MOL0     H53252   8.239   5.683   8.920 -1.2973 -0.0319 -0.2795
  386MOL0     H53253   8.476   5.751   8.968 -2.4964  1.8500  1.1819
  386MOL0     H53254   8.853   5.930   8.930  0.8268 -1.1824  2.6538
  386MOL0     H53255   9.073   5.990   8.981  0.2125  0.3038 -0.6733
  386MOL0     H53256   9.474   5.964   8.845  0.7942  0.6223 -2.0300
  386MOL0     H53257   9.398   5.896   8.704  0.9445 -0.4490 -0.3388
  386MOL0     H53258   9.218   6.086   8.731 -1.3923  2.7764  2.5862
  386MOL0     H53259   9.376   6.156   8.691  0.4336  0.6850  1.0058
  386MOL0     H53260   9.296   6.122   8.975  3.4799 -1.5024 -0.5545
  386MOL0     H53261   9.446   6.178   8.915 -0.2035 -0.6226 -0.2646
  386MOL0     H53262   9.283   6.348   9.001  0.7006  2.8828 -0.8010
  386MOL0     H53263   9.170   6.316   8.860 -1.4248 -1.1196  0.4401
  386MOL0     H53264   9.441   6.589   8.716  1.4868 -0.6894  0.8525
  386MOL0     H53265   9.209   5.683   8.708  0.8720 -2.1258  1.9257
  386MOL0     H53266   8.911   5.600   8.556  0.3236 -0.2685 -0.5940
  386MOL0     H53267   9.085   5.546   8.593 -0.3561 -1.9074  0.4604
  386MOL0     H53268   8.956   5.491   8.686  3.8052 -1.0193 -0.1186
  387MOL0     O53269   0.083   8.325   5.141 -0.3194  0.7444 -1.1548
  387MOL0     C53270   0.033   8.327   5.031  0.3402  0.3435 -0.4944
  387MOL0     O53271   0.109   8.314   4.921  0.3793 -0.4452 -0.5048
  387MOL0     C53272   0.233   8.264   4.927  0.1346  0.1029 -0.7018
  387MOL0     C53273   0.268   8.150   4.989 -0.3936  0.2563 -0.8416
  387MOL0     C53274   0.400   8.113   4.994 -0.0076  0.8940  0.6630
  387MOL0     C53275   0.500   8.175   4.917  0.1646 -0.4497 -0.0994
  387MOL0     O53276   0.634   8.124   4.914 -0.0894 -0.1257  0.0397
  387MOL0     C53277   0.755   8.191   4.850  0.9171  0.0736 -0.0961
  387MOL0     C53278   0.785   8.112   4.730  0.3106 -0.1502 -0.0595
  387MOL0     C53279   0.914   8.142   4.657  0.4977  0.1494  0.6383
  387MOL0     C53280   0.941   8.027   4.550 -0.9216 -0.1485 -0.6998
  387MOL0     C53281   1.082   8.051   4.489 -0.4729 -0.2067 -0.1831
  387MOL0     C53282   1.105   7.953   4.370 -0.9761  0.2122 -0.1101
  387MOL0     C53283   1.103   7.802   4.416 -0.3736  0.8570  0.0924
  387MOL0     C53284   1.163   7.714   4.305  0.0335 -0.2819 -0.4173
  387MOL0     N53285   1.311   7.698   4.338  0.7449  0.2834  0.0774
  387MOL0     C53286   1.370   7.637   4.442  0.4660 -0.2194  0.9643
  387MOL0     C53287   1.496   7.682   4.420  0.1258 -0.7701 -0.5058
  387MOL0     C53288   1.615   7.652   4.519 -0.1162  0.1473 -0.5976
  387MOL0     C53289   1.700   7.542   4.450 -0.6078  0.3189  0.4861
  387MOL0     C53290   1.827   7.591   4.389  0.4498 -0.2438  0.2100
  387MOL0     C53291   1.949   7.599   4.480  0.3575 -0.3993 -0.6573
  387MOL0     O53292   1.992   7.465   4.510  0.3855  0.4764 -0.2399
  387MOL0     C53293   2.108   7.416   4.444  0.1370 -0.1506  0.2980
  387MOL0     C53294   2.178   7.313   4.509 -0.5417 -0.5113 -0.4653
  387MOL0     C53295   2.305   7.266   4.463  0.7563 -0.0916  0.4701
  387MOL0     C53296   2.368   7.162   4.558 -0.3123  0.4731  0.3177
  387MOL0     C53297   2.359   7.316   4.345  0.8104 -0.0029  0.5344
  387MOL0     C53298   2.493   7.276   4.294 -0.1214 -0.6922 -0.1243
  387MOL0     O53299   2.546   7.366   4.209 -0.3932 -0.0128  0.2615
  387MOL0     C53300   2.679   7.359   4.182 -0.5890 -0.0191 -0.3636
  387MOL0     C53301   2.735   7.300   4.066  1.2301  0.4891  0.5255
  387MOL0     C53302   2.874   7.275   4.042 -0.0271 -0.5425  0.8503
  387MOL0     C53303   2.959   7.318   4.145  0.4010 -0.2953 -0.4203
  387MOL0     O53304   3.094   7.319   4.134  0.7918  0.4142 -0.5885
  387MOL0     C53305   3.153   7.219   4.056 -0.0658  0.3667 -0.5753
  387MOL0     C53306   3.301   7.212   4.067  0.0949  0.9592  0.0366
  387MOL0     C53307   3.355   7.240   4.209  0.7176 -0.6813  0.9568
  387MOL0     C53308   3.500   7.182   4.209 -0.1127  0.5875  0.1430
  387MOL0     C53309   3.607   7.275   4.152  0.2379  0.5900  0.0224
  387MOL0     C53310   3.752   7.230   4.171 -0.0230 -0.5353 -0.9120
  387MOL0     C53311   3.777   7.111   4.096 -0.9302  0.1818 -0.1684
  387MOL0     C53312   3.933   7.079   4.102  0.1385 -0.5045  0.1015
  387MOL0    Cl53313   4.013   7.205   4.006 -0.0498  0.4675  0.0133
  387MOL0     C53314   2.908   7.371   4.261  0.5147  0.1319  0.0660
  387MOL0     C53315   2.773   7.392   4.281 -0.6046 -0.1474 -0.5860
  387MOL0     O53316   2.550   7.175   4.337 -0.4041  0.1800  0.3749
  387MOL0     C53317   2.279   7.412   4.269 -0.5661  0.4041  0.5111
  387MOL0     C53318   2.151   7.464   4.317 -0.3759 -0.1064 -1.1774
  387MOL0     N53319   1.507   7.762   4.317 -0.6592  0.1360  0.6535
  387MOL0     N53320   1.395   7.770   4.262 -0.5043 -0.9408  0.6093
  387MOL0     C53321   0.459   8.292   4.845  0.2709 -0.2100  0.4604
  387MOL0     C53322   0.325   8.338   4.853 -0.1937 -0.4305  1.0828
  387MOL0     C53323  -0.111   8.353   5.007  0.0527 -0.3586  0.3409
  387MOL0     C53324  -0.159   8.306   4.883 -0.1342  0.3680  0.2111
  387MOL0     C53325  -0.285   8.354   4.844 -0.2932 -0.5139  0.3116
  387MOL0     C53326  -0.367   8.420   4.929 -0.3168 -0.1357 -0.0350
  387MOL0     O53327  -0.495   8.453   4.887  0.1104  0.4021 -0.3278
  387MOL0     C53328  -0.600   8.358   4.928  0.0384 -0.6956  0.4281
  387MOL0     C53329  -0.658   8.390   5.066  0.0470  0.0143  0.1923
  387MOL0     C53330  -0.791   8.326   5.117  0.0276  0.3814 -0.2471
  387MOL0     C53331  -0.915   8.403   5.067 -1.2738 -0.3625 -0.5632
  387MOL0     C53332  -1.029   8.342   5.142 -0.0929 -0.1749  0.0760
  387MOL0     C53333  -1.118   8.275   5.193 -0.1622 -0.0871 -0.1222
  387MOL0     C53334  -0.331   8.454   5.053 -0.2502 -0.5807 -0.3656
  387MOL0     C53335  -0.192   8.421   5.096  0.8859 -0.0350  0.7598
  387MOL0     C53336  -0.153   8.464   5.241  0.2320  0.3662 -0.4657
  387MOL0     H53337   0.183   8.095   5.028 -3.4916  1.9579 -4.5242
  387MOL0     H53338   0.423   8.021   5.048 -0.7785 -0.2333 -0.8540
  387MOL0     H53339   0.844   8.182   4.913 -0.5364  1.0314  2.2323
  387MOL0     H53340   0.742   8.296   4.821  0.2100  0.1977  0.6513
  387MOL0     H53341   0.800   8.014   4.776  0.6136  0.4846  1.2607
  387MOL0     H53342   0.702   8.111   4.659 -1.0242  2.9681  1.2970
  387MOL0     H53343   0.895   8.236   4.604 -2.0355  0.0499  1.2312
  387MOL0     H53344   0.994   8.143   4.731  1.8906  2.5772 -0.7699
  387MOL0     H53345   0.931   7.930   4.599 -0.9231 -0.0960 -0.5947
  387MOL0     H53346   0.868   8.021   4.468  0.9708 -1.8598 -2.3913
  387MOL0     H53347   1.161   8.040   4.564 -0.2818  1.2896 -0.1251
  387MOL0     H53348   1.086   8.156   4.456  0.0513  0.7016  2.4688
  387MOL0     H53349   1.026   7.971   4.297 -2.1262 -3.6241 -0.0508
  387MOL0     H53350   1.207   7.970   4.333 -0.3383 -2.3685  0.2535
  387MOL0     H53351   1.000   7.770   4.434  0.3253 -1.2417  0.6460
  387MOL0     H53352   1.155   7.791   4.512 -0.4128  0.2457  0.0490
  387MOL0     H53353   1.098   7.626   4.304  0.1144 -0.3402 -0.5743
  387MOL0     H53354   1.152   7.764   4.208 -0.8420  0.2469 -0.0564
  387MOL0     H53355   1.317   7.590   4.524  1.9283 -2.4059  0.7160
  387MOL0     H53356   1.568   7.609   4.608  0.1269 -2.4870 -1.6399
  387MOL0     H53357   1.671   7.744   4.535  0.7102 -0.0600 -2.1393
  387MOL0     H53358   1.727   7.469   4.527 -2.0162 -0.8478 -0.0730
  387MOL0     H53359   1.640   7.485   4.379 -0.0553 -0.3832  0.5663
  387MOL0     H53360   1.852   7.532   4.300 -0.5664 -2.4299  1.3045
  387MOL0     H53361   1.808   7.695   4.363 -3.4610 -0.3418  1.9425
  387MOL0     H53362   2.033   7.654   4.438  0.2302  0.3788  0.0836
  387MOL0     H53363   1.922   7.638   4.578  1.5333 -1.4922  0.1298
  387MOL0     H53364   2.136   7.287   4.605 -1.0695 -0.1618 -0.6003
  387MOL0     H53365   2.292   7.084   4.557 -1.9876  1.9854 -2.2726
  387MOL0     H53366   2.360   7.192   4.663 -0.5999 -1.8681  1.0275
  387MOL0     H53367   2.462   7.107   4.545 -0.4778 -0.3081  2.0888
  387MOL0     H53368   2.664   7.259   3.995  0.0478  0.0843  1.8947
  387MOL0     H53369   2.907   7.234   3.947 -1.8173 -0.6728  0.2342
  387MOL0     H53370   3.113   7.120   4.077  0.9190  0.1293  0.2585
  387MOL0     H53371   3.121   7.251   3.956 -1.3818  1.9361  0.3073
  387MOL0     H53372   3.323   7.108   4.039 -1.5845  0.1770  1.4167
  387MOL0     H53373   3.354   7.275   3.995 -1.5474  0.7590 -1.4117
  387MOL0     H53374   3.292   7.189   4.283 -3.2815  0.0015 -1.6187
  387MOL0     H53375   3.353   7.346   4.235  0.2494 -0.7402  1.1791
  387MOL0     H53376   3.509   7.083   4.163 -1.1265  0.8145 -0.5870
  387MOL0     H53377   3.522   7.159   4.314 -1.0005 -0.1593  0.1848
  387MOL0     H53378   3.590   7.301   4.048 -0.9977 -0.5545 -0.0988
  387MOL0     H53379   3.591   7.369   4.206 -1.8234  0.8167 -0.8829
  387MOL0     H53380   3.761   7.209   4.277 -0.4431 -0.4534 -0.8559
  387MOL0     H53381   3.815   7.313   4.137 -0.1144  0.0815  0.3527
  387MOL0     H53382   3.755   7.123   3.989 -0.9504 -0.9901 -0.3145
  387MOL0     H53383   3.726   7.024   4.139  0.3309  0.3262  1.7426
  387MOL0     H53384   3.944   6.981   4.055  1.2513 -0.8562  1.0398
  387MOL0     H53385   3.977   7.071   4.202 -0.3003  0.9059  0.4177
  387MOL0     H53386   2.983   7.396   4.335  0.7319  1.2059 -0.5013
  387MOL0     H53387   2.727   7.422   4.374 -0.9788  1.1848 -1.1754
  387MOL0     H53388   2.325   7.453   4.180 -0.8188 -0.4403 -0.0248
  387MOL0     H53389   2.097   7.538   4.260  0.3963  0.0441 -1.7209
  387MOL0     H53390   0.527   8.346   4.780 -1.2627 -0.8719 -1.8450
  387MOL0     H53391   0.290   8.425   4.798 -0.5480 -0.2770  1.5484
  387MOL0     H53392  -0.095   8.241   4.824  0.8037  1.1157  0.3799
  387MOL0     H53393  -0.341   8.327   4.755 -0.7320  2.0160 -0.2639
  387MOL0     H53394  -0.685   8.365   4.859 -0.4968 -1.5113  0.9806
  387MOL0     H53395  -0.553   8.259   4.932  3.2549  0.7316  1.2104
  387MOL0     H53396  -0.650   8.498   5.079 -1.3851  0.3723 -1.5394
  387MOL0     H53397  -0.590   8.358   5.145 -0.3717  0.1572  0.6182
  387MOL0     H53398  -0.795   8.222   5.085 -1.1659  0.1681  0.5331
  387MOL0     H53399  -0.777   8.327   5.226 -0.2878 -1.2601 -0.1737
  387MOL0     H53400  -0.932   8.402   4.959 -0.4788  0.3226 -0.7078
  387MOL0     H53401  -0.907   8.508   5.096 -2.6319 -0.5281  0.5160
  387MOL0     H53402  -1.207   8.226   5.229 -2.5365  1.7031 -3.1184
  387MOL0     H53403  -0.398   8.507   5.120  0.0280 -0.5802 -0.0852
  387MOL0     H53404  -0.239   8.505   5.295  0.7161 -1.3770  1.8152
  387MOL0     H53405  -0.130   8.376   5.302  0.1945  1.3563  1.0151
  387MOL0     H53406  -0.071   8.533   5.258  0.2987  0.1714  0.0297
  388MOL0     O53407   8.408   7.764   1.542 -0.8894 -0.2059  0.7164
  388MOL0     C53408   8.447   7.753   1.657  0.5382 -0.0907 -0.2236
  388MOL0     O53409   8.567   7.795   1.701 -0.1086  0.0599 -0.9129
  388MOL0     C53410   8.649   7.888   1.636 -0.4274 -0.3053 -0.8043
  388MOL0     C53411   8.785   7.883   1.665 -0.0665  0.0614  0.0108
  388MOL0     C53412   8.885   7.963   1.601  0.4095  0.0339  0.3308
  388MOL0     C53413   8.843   8.043   1.496 -0.2195 -0.4777 -0.2790
  388MOL0     O53414   8.932   8.119   1.430 -0.2200  0.5100 -0.8655
  388MOL0     C53415   9.061   8.055   1.410  0.1536 -1.1433 -0.1371
  388MOL0     C53416   9.130   8.114   1.290 -0.6406 -0.6428  0.6330
  388MOL0     C53417   9.284   8.101   1.298 -0.0152  0.5476 -0.1134
  388MOL0     C53418   9.346   8.123   1.164  0.0242  0.3412 -0.1517
  388MOL0     C53419   9.476   8.059   1.143  0.1254 -0.4643 -0.8741
  388MOL0     C53420   9.521   8.092   1.000  0.7536 -0.1983 -0.3967
  388MOL0     C53421   9.661   8.050   0.968  0.0945  0.2540  0.0285
  388MOL0     C53422   9.773   8.125   1.036  0.1166 -0.6240 -0.1648
  388MOL0     N53423   9.896   8.075   0.972  0.6663  1.0434 -0.1746
  388MOL0     C53424   9.940   8.102   0.850  0.5865  0.2994 -0.1936
  388MOL0     C53425  10.066   8.074   0.843  0.3616  0.8337 -0.0194
  388MOL0     C53426  10.167   8.112   0.724  0.3615 -0.9995 -0.5570
  388MOL0     C53427  10.297   8.035   0.739 -0.4042  0.4738 -0.1881
  388MOL0     C53428  10.380   8.073   0.868  0.1727  0.3964  0.5718
  388MOL0     C53429  10.521   8.003   0.872 -0.0430 -0.3881  0.2785
  388MOL0     O53430  10.620   8.104   0.882  0.0957  0.2524 -0.6503
  388MOL0     C53431  10.747   8.079   0.938 -0.1838 -0.7695 -0.9406
  388MOL0     C53432  10.772   7.971   1.021 -0.3466 -0.2686 -0.8275
  388MOL0     C53433  10.905   7.936   1.068  0.0336 -0.6901 -0.1943
  388MOL0     C53434  10.925   7.804   1.140 -0.8957 -0.0651  0.2700
  388MOL0     C53435  11.018   8.026   1.037 -0.1289  0.2147  0.2325
  388MOL0     C53436  11.160   7.998   1.087 -0.4499  0.3904 -0.9245
  388MOL0     O53437  11.188   7.906   1.200  0.0816  0.5148  0.1980
  388MOL0     C53438  11.316   7.881   1.229 -1.5135  0.2613 -0.5950
  388MOL0     C53439  11.390   7.968   1.307 -0.3401 -0.4924 -0.3615
  388MOL0     C53440  11.522   7.929   1.350  0.2319  0.2123 -0.1136
  388MOL0     C53441  11.589   7.813   1.299  0.5914 -0.6559 -0.8274
  388MOL0     O53442  11.720   7.784   1.321  0.4776 -0.3284  0.3729
  388MOL0     C53443  11.809   7.895   1.314  0.4137 -0.4929  0.9153
  388MOL0     C53444  11.952   7.845   1.280 -1.1435  0.0108  0.1650
  388MOL0     C53445  12.059   7.956   1.293  0.9460 -0.3864 -0.3894
  388MOL0     C53446  12.194   7.913   1.234 -0.2655  0.4274 -0.3774
  388MOL0     C53447  12.297   8.021   1.263  0.2957 -0.5088  0.4439
  388MOL0     C53448  12.434   7.968   1.224  0.6880 -0.6231 -1.2650
  388MOL0     C53449  12.536   8.079   1.252  0.4513  0.3663 -0.5706
  388MOL0     C53450  12.669   8.024   1.224 -0.1343 -0.0048 -0.3222
  388MOL0    Cl53451  12.786   8.125   1.306 -0.1571 -0.3559  0.3085
  388MOL0     C53452  11.510   7.729   1.227 -0.2803 -0.0978  0.4956
  388MOL0     C53453  11.380   7.764   1.188 -0.0162 -0.0056  0.3329
  388MOL0     O53454  11.246   8.077   1.038  0.1300 -1.1083 -0.8534
  388MOL0     C53455  10.982   8.144   0.972  0.8972 -0.5247  0.2612
  388MOL0     C53456  10.856   8.161   0.918 -0.1409  0.5331 -0.5321
  388MOL0     N53457  10.086   8.005   0.962 -0.6756  0.0311  0.4919
  388MOL0     N53458   9.981   8.006   1.041 -0.7416  0.8819  0.0132
  388MOL0     C53459   8.710   8.049   1.456 -0.6456 -0.3316 -0.4080
  388MOL0     C53460   8.616   7.982   1.535  0.4041  0.5469  0.1728
  388MOL0     C53461   8.366   7.663   1.742  0.5485 -0.1984 -0.5096
  388MOL0     C53462   8.221   7.658   1.722 -0.6676 -0.9499 -0.5664
  388MOL0     C53463   8.140   7.572   1.794  0.1250 -0.6007  0.3784
  388MOL0     C53464   8.190   7.492   1.893 -0.9226  0.5812 -0.0844
  388MOL0     O53465   8.112   7.416   1.979  0.0421 -0.2789  1.0022
  388MOL0     C53466   7.970   7.424   1.960  0.5858  0.3133  0.1501
  388MOL0     C53467   7.907   7.349   2.074  0.0108 -0.2457 -0.2084
  388MOL0     C53468   7.763   7.401   2.098 -0.2020 -0.3758  0.3609
  388MOL0     C53469   7.678   7.276   2.163  0.8398 -0.2912 -0.8578
  388MOL0     C53470   7.545   7.325   2.205 -0.0283  0.1453  0.2850
  388MOL0     C53471   7.446   7.387   2.240  0.4300 -0.0482 -0.6654
  388MOL0     C53472   8.326   7.492   1.912 -1.0866  0.2000  0.3876
  388MOL0     C53473   8.414   7.566   1.833 -0.4166  0.9460  0.6515
  388MOL0     C53474   8.561   7.552   1.874  0.1826 -0.6574 -0.1133
  388MOL0     H53475   8.818   7.832   1.755 -2.8019  0.1383  1.1516
  388MOL0     H53476   8.988   7.969   1.635  0.7648  3.1355 -0.9792
  388MOL0     H53477   9.050   7.948   1.391  0.4711 -1.6398  2.1769
  388MOL0     H53478   9.119   8.072   1.501 -1.2664  1.7652  0.3553
  388MOL0     H53479   9.091   8.057   1.205  2.9334 -1.6849 -0.4919
  388MOL0     H53480   9.107   8.221   1.283 -1.3061 -0.6951  1.7428
  388MOL0     H53481   9.328   8.168   1.371  0.6953  0.0612 -0.0842
  388MOL0     H53482   9.298   7.998   1.333 -2.0642  1.0038  2.3669
  388MOL0     H53483   9.280   8.093   1.082 -1.0437  0.9670  0.4533
  388MOL0     H53484   9.363   8.230   1.152 -0.1939  0.6145  1.6977
  388MOL0     H53485   9.469   7.952   1.166 -2.9443 -0.0363  0.6744
  388MOL0     H53486   9.544   8.102   1.217 -1.3198  0.6853 -0.1801
  388MOL0     H53487   9.453   8.034   0.937 -1.8379  0.5977  1.4756
  388MOL0     H53488   9.504   8.197   0.973  0.6965 -0.6525 -2.2446
  388MOL0     H53489   9.668   8.067   0.860 -1.2186  0.6030 -0.0212
  388MOL0     H53490   9.683   7.944   0.977 -0.3492  0.0964 -0.6367
  388MOL0     H53491   9.766   8.234   1.025  1.9087 -0.2907  1.4502
  388MOL0     H53492   9.780   8.102   1.143  1.9334  2.3277  0.4672
  388MOL0     H53493   9.879   8.173   0.795 -2.5033 -0.6400  1.7845
  388MOL0     H53494  10.194   8.218   0.724 -2.5790 -0.1267  0.3079
  388MOL0     H53495  10.122   8.101   0.625 -0.8311  1.3670 -0.3572
  388MOL0     H53496  10.265   7.930   0.737 -4.3796  1.4816  1.2666
  388MOL0     H53497  10.351   8.057   0.646  1.9659  0.7652  1.1792
  388MOL0     H53498  10.386   8.182   0.866 -1.5937  0.5183  0.1061
  388MOL0     H53499  10.327   8.047   0.960  1.6771 -1.0187  1.0957
  388MOL0     H53500  10.527   7.943   0.964 -0.6927  2.5401  2.3833
  388MOL0     H53501  10.532   7.935   0.787 -0.3633 -1.9393  1.4239
  388MOL0     H53502  10.688   7.908   1.049  0.2920  0.0505  2.1591
  388MOL0     H53503  11.004   7.741   1.099 -1.6761 -0.0666 -1.3313
  388MOL0     H53504  10.831   7.749   1.148 -0.7359 -0.0925  2.7406
  388MOL0     H53505  10.950   7.832   1.243  0.2777 -0.7700  0.1935
  388MOL0     H53506  11.346   8.063   1.335 -2.3300 -1.6673  0.7612
  388MOL0     H53507  11.596   7.985   1.406  1.2511 -1.2939  0.1101
  388MOL0     H53508  11.764   7.958   1.236 -0.7177 -2.2859  0.0404
  388MOL0     H53509  11.803   7.960   1.401 -2.0182  0.9775 -0.2179
  388MOL0     H53510  11.975   7.755   1.338  0.5252 -0.8096 -1.6483
  388MOL0     H53511  11.952   7.827   1.172 -0.7692  0.0796  0.1512
  388MOL0     H53512  12.068   7.972   1.400 -0.0971 -3.1958  0.2088
  388MOL0     H53513  12.018   8.043   1.241 -2.1566 -0.4056  1.7915
  388MOL0     H53514  12.186   7.870   1.134 -2.6918 -2.4127  0.8711
  388MOL0     H53515  12.232   7.826   1.289 -0.7132 -1.1820 -2.4913
  388MOL0     H53516  12.278   8.110   1.202 -1.7077 -0.5908  0.8940
  388MOL0     H53517  12.284   8.039   1.370 -0.8641  0.6814  0.1287
  388MOL0     H53518  12.443   7.937   1.119  1.1534 -3.0711 -0.5605
  388MOL0     H53519  12.471   7.890   1.291  2.0437  1.5161  0.6314
  388MOL0     H53520  12.534   8.101   1.359  1.5327 -0.8075 -0.2909
  388MOL0     H53521  12.522   8.171   1.193 -0.6183  0.3023 -0.4446
  388MOL0     H53522  12.698   8.015   1.119  1.9769  1.4725  0.0679
  388MOL0     H53523  12.670   7.921   1.260 -3.2588  0.8633  2.7674
  388MOL0     H53524  11.554   7.633   1.201 -0.2009 -0.2433  1.1565
  388MOL0     H53525  11.321   7.697   1.125  0.5336  1.8103 -2.3052
  388MOL0     H53526  11.063   8.216   0.967 -0.4161  1.0591  0.9554
  388MOL0     H53527  10.828   8.254   0.870 -2.0224  0.4864  0.3893
  388MOL0     H53528   8.689   8.122   1.378 -1.0452 -0.5568 -0.5148
  388MOL0     H53529   8.510   8.001   1.522  0.3302 -1.1580 -2.4722
  388MOL0     H53530   8.167   7.713   1.646  1.7309 -1.8290 -3.0728
  388MOL0     H53531   8.035   7.567   1.768  0.0355 -0.3865  0.7015
  388MOL0     H53532   7.931   7.527   1.960  1.2978  0.5984  0.8638
  388MOL0     H53533   7.957   7.375   1.864  3.7814 -1.0423  0.2728
  388MOL0     H53534   7.979   7.356   2.156  1.9089 -3.7285 -1.3938
  388MOL0     H53535   7.904   7.244   2.044  1.8552  0.1946 -2.1750
  388MOL0     H53536   7.762   7.494   2.156  3.9589  0.8112 -1.0903
  388MOL0     H53537   7.717   7.429   2.002  1.1714 -1.1496 -0.5518
  388MOL0     H53538   7.737   7.248   2.251  1.4725 -1.6291 -1.6902
  388MOL0     H53539   7.676   7.198   2.087  0.3652  1.4025 -2.6680
  388MOL0     H53540   7.361   7.434   2.287 -0.0581  1.7612 -3.1647
  388MOL0     H53541   8.366   7.443   2.001 -0.2875  1.0168  0.4874
  388MOL0     H53542   8.616   7.521   1.785  0.8158  1.2028 -0.4178
  388MOL0     H53543   8.598   7.648   1.910 -0.9557 -0.8482  1.7012
  388MOL0     H53544   8.572   7.486   1.961 -0.9146 -1.1375 -0.3131
  389MOL0     O53545   4.476   0.654   2.888 -0.7466  0.3487 -0.2585
  389MOL0     C53546   4.508   0.542   2.919 -0.9118  0.5746  0.0958
  389MOL0     O53547   4.432   0.434   2.889  0.0297  0.1196  0.2497
  389MOL0     C53548   4.305   0.458   2.843  0.0845 -0.2091 -0.6191
  389MOL0     C53549   4.257   0.557   2.746  0.4100  0.3714 -0.2850
  389MOL0     C53550   4.122   0.547   2.698 -1.3384 -0.2416  0.0972
  389MOL0     C53551   4.046   0.445   2.727  0.5378 -0.1407 -0.4979
  389MOL0     O53552   3.929   0.450   2.657  0.1377  0.0628 -0.2968
  389MOL0     C53553   3.820   0.377   2.718  0.5540 -0.4594 -0.2321
  389MOL0     C53554   3.700   0.400   2.630  1.2878 -0.1444  0.3216
  389MOL0     C53555   3.574   0.412   2.720  0.1678  0.5249  0.5185
  389MOL0     C53556   3.450   0.469   2.650 -0.1430 -0.8016  0.6034
  389MOL0     C53557   3.320   0.444   2.722 -0.3888 -0.7014 -0.7518
  389MOL0     C53558   3.311   0.504   2.864 -0.3867 -1.4480 -1.0473
  389MOL0     C53559   3.327   0.657   2.870 -0.5092  0.2092 -0.1510
  389MOL0     C53560   3.304   0.707   3.013 -0.3172  0.3157  0.3809
  389MOL0     N53561   3.357   0.842   3.025  0.2684 -0.1484 -0.4740
  389MOL0     C53562   3.481   0.888   3.048 -0.0863  0.1433  0.4086
  389MOL0     C53563   3.483   1.024   3.037 -0.3154  0.1441 -0.5017
  389MOL0     C53564   3.600   1.112   3.046 -0.0644 -0.8247  0.5669
  389MOL0     C53565   3.570   1.235   3.142  0.1638 -0.4989  0.4925
  389MOL0     C53566   3.685   1.335   3.139  0.2647  0.3332  0.7896
  389MOL0     C53567   3.701   1.408   3.273 -0.3947 -0.6467 -0.1674
  389MOL0     O53568   3.765   1.309   3.358  0.4244  0.1818  0.2081
  389MOL0     C53569   3.835   1.352   3.467  0.0098  0.7449  0.8847
  389MOL0     C53570   3.802   1.472   3.525 -0.7089  0.1204 -0.2113
  389MOL0     C53571   3.888   1.532   3.620  0.2180  0.7036 -0.1961
  389MOL0     C53572   3.850   1.660   3.680  0.2201  0.0991 -0.4324
  389MOL0     C53573   4.006   1.466   3.661  0.4098  0.5637  0.1981
  389MOL0     C53574   4.107   1.525   3.751 -1.0278 -0.1614 -0.6765
  389MOL0     O53575   4.237   1.546   3.702 -0.0985 -0.0347  0.0653
  389MOL0     C53576   4.329   1.598   3.792  0.0367  0.6079  0.2636
  389MOL0     C53577   4.308   1.718   3.869  0.1405  0.1346  0.8527
  389MOL0     C53578   4.405   1.772   3.954  0.9757  0.6146 -0.3137
  389MOL0     C53579   4.524   1.698   3.969  0.4968 -0.7788  0.2576
  389MOL0     O53580   4.629   1.754   4.037  0.3055 -0.8463  0.4558
  389MOL0     C53581   4.585   1.791   4.167 -1.0023  0.1234 -0.0718
  389MOL0     C53582   4.704   1.836   4.252  0.1961 -0.7535  0.6929
  389MOL0     C53583   4.769   1.975   4.207 -0.2565 -0.5049 -0.3066
  389MOL0     C53584   4.908   1.998   4.274 -0.5193  0.2244 -0.0210
  389MOL0     C53585   4.990   2.110   4.213 -0.1605 -0.7233 -0.0325
  389MOL0     C53586   5.127   2.109   4.288 -0.5353  0.1534 -0.8791
  389MOL0     C53587   5.249   2.156   4.205  1.0057  1.1163  0.2986
  389MOL0     C53588   5.371   2.145   4.293 -0.5476 -0.1399  0.7129
  389MOL0    Cl53589   5.364   2.281   4.425 -0.0090  0.3534 -0.1479
  389MOL0     C53590   4.547   1.576   3.898  0.0130  0.2009 -0.4487
  389MOL0     C53591   4.442   1.526   3.815 -0.0941 -0.2171  0.4532
  389MOL0     O53592   4.071   1.550   3.867 -0.6758  0.6475  0.5276
  389MOL0     C53593   4.034   1.337   3.607 -0.3172  0.7866 -0.0609
  389MOL0     C53594   3.949   1.284   3.515  0.1630  0.5676  0.1280
  389MOL0     N53595   3.345   1.060   3.021  0.3178  0.5865  0.9028
  389MOL0     N53596   3.277   0.954   3.023  0.2052 -0.0866 -0.0238
  389MOL0     C53597   4.088   0.350   2.816 -0.7626  0.3551  0.5743
  389MOL0     C53598   4.212   0.367   2.877  0.9509  0.6483  0.2494
  389MOL0     C53599   4.640   0.503   2.976 -0.0216 -0.3085 -0.3204
  389MOL0     C53600   4.675   0.366   2.978  0.0704  0.1996  0.1290
  389MOL0     C53601   4.796   0.313   3.028  0.6031 -0.3966  0.4369
  389MOL0     C53602   4.884   0.398   3.089  0.2194 -0.5363  0.8106
  389MOL0     O53603   4.994   0.342   3.160  0.5802 -0.1174  0.1908
  389MOL0     C53604   5.115   0.411   3.187 -0.4362 -0.1225 -0.7413
  389MOL0     C53605   5.205   0.386   3.064  0.2386  0.1855 -0.0817
  389MOL0     C53606   5.343   0.453   3.082  0.8752  0.7248  0.4798
  389MOL0     C53607   5.376   0.535   2.961  0.6948  0.3006 -0.6507
  389MOL0     C53608   5.274   0.635   2.917  0.3198 -0.4126 -0.5931
  389MOL0     C53609   5.205   0.721   2.870  1.1122 -0.6135 -0.2007
  389MOL0     C53610   4.860   0.539   3.077  0.0833  0.8151  0.4659
  389MOL0     C53611   4.748   0.591   3.018  0.2180  0.1241  0.6548
  389MOL0     C53612   4.744   0.737   3.013  0.4164 -0.5170 -0.2415
  389MOL0     H53613   4.319   0.640   2.716  0.0759  0.0580 -1.9488
  389MOL0     H53614   4.096   0.632   2.635 -0.2126  0.7035  0.8340
  389MOL0     H53615   3.801   0.414   2.819  3.5695 -1.2619  0.7531
  389MOL0     H53616   3.844   0.272   2.736 -0.2735 -0.5335  0.4545
  389MOL0     H53617   3.711   0.494   2.575  1.3946  0.6197  1.6101
  389MOL0     H53618   3.689   0.320   2.556  0.3484  0.1047  0.1862
  389MOL0     H53619   3.541   0.318   2.767 -0.5747  1.4827  2.0134
  389MOL0     H53620   3.584   0.481   2.805 -3.5514 -0.6366  2.1251
  389MOL0     H53621   3.464   0.577   2.635  2.4328 -1.1428  0.1082
  389MOL0     H53622   3.437   0.416   2.555  0.8137  0.4948 -0.2818
  389MOL0     H53623   3.308   0.338   2.747 -0.5437 -0.2003  1.5317
  389MOL0     H53624   3.239   0.473   2.655 -0.1944  2.6660  0.3037
  389MOL0     H53625   3.210   0.486   2.900 -0.9086  0.1179 -1.6543
  389MOL0     H53626   3.385   0.452   2.926 -1.1782 -1.3096  0.0309
  389MOL0     H53627   3.254   0.705   2.805 -0.0971 -1.4275 -1.9203
  389MOL0     H53628   3.429   0.683   2.841  0.4567  0.2091  2.8871
  389MOL0     H53629   3.196   0.712   3.028 -0.3727 -1.0236  0.5072
  389MOL0     H53630   3.352   0.639   3.084  3.0690 -3.4428 -4.7386
  389MOL0     H53631   3.574   0.837   3.071 -1.4457 -3.0006 -0.6311
  389MOL0     H53632   3.618   1.158   2.948  1.5467 -0.8618  0.8103
  389MOL0     H53633   3.681   1.051   3.087 -0.0117  0.4224  2.4296
  389MOL0     H53634   3.485   1.294   3.108 -0.3961 -1.4027  0.2887
  389MOL0     H53635   3.538   1.201   3.240 -2.0674 -0.3463 -0.1326
  389MOL0     H53636   3.778   1.279   3.128 -1.2235 -2.3041  0.7285
  389MOL0     H53637   3.672   1.404   3.055 -0.3674 -2.5225 -1.6350
  389MOL0     H53638   3.766   1.493   3.253  0.3187 -0.8043  1.3253
  389MOL0     H53639   3.605   1.442   3.313  0.7578  0.3991  1.8548
  389MOL0     H53640   3.718   1.527   3.485 -1.2053 -0.3741  0.1471
  389MOL0     H53641   3.861   1.738   3.605 -2.6395 -0.2748 -1.3505
  389MOL0     H53642   3.910   1.684   3.769  0.1008  2.6285 -0.9720
  389MOL0     H53643   3.747   1.658   3.716  0.5324  0.0131  0.5121
  389MOL0     H53644   4.211   1.763   3.853 -0.8126 -2.8572 -3.6531
  389MOL0     H53645   4.372   1.864   4.000 -1.0160 -0.3682  0.3634
  389MOL0     H53646   4.515   1.874   4.161 -1.3642 -0.1239  0.6121
  389MOL0     H53647   4.532   1.710   4.217 -1.0382  0.2770  0.1384
  389MOL0     H53648   4.674   1.835   4.357 -1.3352  0.7862  0.3360
  389MOL0     H53649   4.779   1.758   4.244 -0.8545 -1.7117 -0.1613
  389MOL0     H53650   4.718   2.058   4.258 -0.3196 -0.6720 -0.0976
  389MOL0     H53651   4.762   1.989   4.098 -0.1214  0.7166 -0.1817
  389MOL0     H53652   4.959   1.901   4.267  0.5001  0.5706  1.9233
  389MOL0     H53653   4.901   2.009   4.382 -0.3266 -2.6358  0.3429
  389MOL0     H53654   5.008   2.100   4.105  0.4443 -0.1282  0.0022
  389MOL0     H53655   4.938   2.203   4.237 -1.6477 -1.8166  1.1594
  389MOL0     H53656   5.145   2.007   4.326  0.5071  1.1451  1.4919
  389MOL0     H53657   5.113   2.172   4.377  1.9111  1.5026 -1.3888
  389MOL0     H53658   5.248   2.258   4.165  0.9483  1.5317  1.3274
  389MOL0     H53659   5.258   2.087   4.120  1.9988 -0.1251  1.3612
  389MOL0     H53660   5.462   2.156   4.234  0.3906  2.6896  2.4772
  389MOL0     H53661   5.370   2.045   4.336 -0.8125 -1.7010 -2.6427
  389MOL0     H53662   4.642   1.530   3.925 -1.4405 -1.0739  2.9286
  389MOL0     H53663   4.455   1.430   3.767  1.4421  0.4853 -0.6141
  389MOL0     H53664   4.124   1.283   3.635 -1.2884  0.0282  1.7847
  389MOL0     H53665   3.971   1.191   3.465  0.3153 -1.9107  4.3045
  389MOL0     H53666   4.032   0.260   2.839 -2.4788  0.2377 -3.3015
  389MOL0     H53667   4.243   0.287   2.944 -2.7396  0.0505  1.5163
  389MOL0     H53668   4.604   0.303   2.926 -1.4220  1.6755  0.2884
  389MOL0     H53669   4.827   0.209   3.025 -2.7433 -1.5458 -3.3496
  389MOL0     H53670   5.109   0.515   3.221 -1.2679 -1.5254  4.1949
  389MOL0     H53671   5.158   0.365   3.277 -3.4173 -1.3747  0.1681
  389MOL0     H53672   5.153   0.416   2.972  0.3285 -0.8360 -0.4745
  389MOL0     H53673   5.224   0.279   3.056  0.2652 -0.0398  2.2988
  389MOL0     H53674   5.348   0.507   3.177 -0.5885 -0.1810  1.1051
  389MOL0     H53675   5.420   0.376   3.089 -0.7520 -0.8510  1.8069
  389MOL0     H53676   5.398   0.478   2.871  1.9659  0.0011 -0.1796
  389MOL0     H53677   5.475   0.579   2.981  1.0402 -0.4006 -0.7815
  389MOL0     H53678   5.146   0.807   2.845 -0.6461 -1.7149 -0.0104
  389MOL0     H53679   4.934   0.611   3.111 -3.3360  4.1596  1.6008
  389MOL0     H53680   4.708   0.773   3.110 -2.8216 -4.9376  0.5035
  389MOL0     H53681   4.846   0.761   2.980 -0.3020 -0.9555 -3.0259
  389MOL0     H53682   4.685   0.779   2.930 -0.6137 -2.6077 -0.6447
  390MOL0     O53683   1.142   5.004   7.846 -0.1539 -0.0224  0.5490
  390MOL0     C53684   1.200   5.036   7.955  0.2289 -0.2131 -0.8840
  390MOL0     O53685   1.146   5.034   8.083 -0.6339  0.3143  0.0050
  390MOL0     C53686   1.021   4.991   8.092  0.3051 -0.2639 -0.5062
  390MOL0     C53687   0.917   5.084   8.095 -0.0408  0.1519  0.1228
  390MOL0     C53688   0.786   5.032   8.097 -0.4638  0.9942 -0.1393
  390MOL0     C53689   0.753   4.896   8.096 -1.0861 -0.5485  0.7501
  390MOL0     O53690   0.620   4.865   8.075  0.2107 -0.1063 -0.2712
  390MOL0     C53691   0.562   4.736   8.084 -0.7200  0.0423  0.0770
  390MOL0     C53692   0.560   4.688   8.231  0.9101  1.2723  0.4448
  390MOL0     C53693   0.476   4.773   8.316  0.3467 -0.7408 -0.1909
  390MOL0     C53694   0.453   4.708   8.455  0.6077  0.6242 -0.2905
  390MOL0     C53695   0.380   4.819   8.542 -0.0982  0.2046 -0.3158
  390MOL0     C53696   0.240   4.856   8.502 -0.4774 -0.2520 -0.6344
  390MOL0     C53697   0.163   4.922   8.613 -0.3502  0.1718  0.9186
  390MOL0     C53698   0.111   4.816   8.719 -1.1608 -0.1597  0.7903
  390MOL0     N53699   0.032   4.874   8.819  0.1643 -0.0147 -0.5429
  390MOL0     C53700   0.076   4.949   8.927  0.3878  0.0844  0.3751
  390MOL0     C53701  -0.038   4.974   8.990 -0.1574  0.3234 -0.7005
  390MOL0     C53702  -0.047   5.052   9.121 -0.3304  0.4478  0.2985
  390MOL0     C53703   0.061   5.021   9.224  0.0827 -0.4117 -0.8687
  390MOL0     C53704   0.033   5.091   9.366  0.6464  0.0255 -0.9380
  390MOL0     C53705   0.110   5.023   9.488  0.3405 -0.0046  0.9158
  390MOL0     O53706   0.255   5.019   9.464  0.0144 -0.5158  0.3376
  390MOL0     C53707   0.331   5.133   9.465  0.3777 -0.0373 -0.7786
  390MOL0     C53708   0.466   5.118   9.434  0.3426 -0.0213  0.2886
  390MOL0     C53709   0.556   5.228   9.440  0.2862 -0.2376  0.5142
  390MOL0     C53710   0.699   5.177   9.414 -0.5299  0.0841  0.7871
  390MOL0     C53711   0.514   5.358   9.461  0.7725  0.2898  0.2524
  390MOL0     C53712   0.595   5.470   9.435 -0.0576  0.0185  0.0848
  390MOL0     O53713   0.734   5.474   9.499 -0.0282 -0.4609 -0.0635
  390MOL0     C53714   0.836   5.567   9.480 -0.7628 -0.3886  0.9230
  390MOL0     C53715   0.838   5.669   9.389 -0.1307 -0.5068 -1.1419
  390MOL0     C53716   0.947   5.749   9.370  0.5909 -0.3308 -0.2739
  390MOL0     C53717   1.064   5.726   9.432  0.4122  0.3178 -0.3127
  390MOL0     O53718   1.163   5.820   9.404 -0.5038 -0.2717  0.1778
  390MOL0     C53719   1.287   5.782   9.447 -0.2535 -0.0387  0.1715
  390MOL0     C53720   1.386   5.889   9.392 -0.9279 -0.2162 -0.1863
  390MOL0     C53721   1.535   5.870   9.433 -0.2033  0.3640  0.5100
  390MOL0     C53722   1.631   5.961   9.362 -0.3585  0.2900 -0.2269
  390MOL0     C53723   1.775   5.976   9.427  0.5713 -0.9041 -0.6261
  390MOL0     C53724   1.769   6.042   9.558  0.2058 -0.0510 -1.0773
  390MOL0     C53725   1.902   6.006   9.639  0.8129 -0.8006  0.0387
  390MOL0     C53726   1.970   6.122   9.718  0.8072  0.5553  0.8336
  390MOL0    Cl53727   1.850   6.171   9.840 -0.0152  0.2569 -0.3823
  390MOL0     C53728   1.064   5.623   9.528 -0.0004 -0.4244 -0.0732
  390MOL0     C53729   0.954   5.541   9.554 -0.6902 -1.1000 -0.6714
  390MOL0     O53730   0.540   5.562   9.375  0.5926 -0.2410  0.1381
  390MOL0     C53731   0.376   5.367   9.501  0.0961 -0.5959 -0.3493
  390MOL0     C53732   0.289   5.262   9.501  0.1688 -0.4577 -0.0971
  390MOL0     N53733  -0.150   4.923   8.925  0.3260 -0.3638  0.3215
  390MOL0     N53734  -0.104   4.858   8.822  0.0710 -0.4702  0.6569
  390MOL0     C53735   0.860   4.805   8.083 -0.4103 -0.8741  0.7875
  390MOL0     C53736   0.991   4.856   8.083 -0.7483 -1.0911 -1.0529
  390MOL0     C53737   1.324   5.111   7.930 -0.3245  0.1587  0.2791
  390MOL0     C53738   1.348   5.151   7.795 -0.1269 -0.1145  0.8745
  390MOL0     C53739   1.449   5.242   7.762 -0.0785 -0.2492  0.6162
  390MOL0     C53740   1.551   5.288   7.845 -0.1627  1.2830 -0.6087
  390MOL0     O53741   1.659   5.366   7.801 -0.7214 -0.2350 -0.2985
  390MOL0     C53742   1.758   5.404   7.902 -0.6358 -0.2179  0.1091
  390MOL0     C53743   1.893   5.439   7.831  0.6583 -0.1146  0.2989
  390MOL0     C53744   1.891   5.597   7.816 -0.7455  0.3903 -0.1235
  390MOL0     C53745   2.005   5.643   7.731  0.3139  1.1120 -0.6205
  390MOL0     C53746   2.014   5.788   7.704 -0.3115 -0.2956  0.7653
  390MOL0     C53747   2.037   5.898   7.660  0.2906  1.0626 -0.2279
  390MOL0     C53748   1.532   5.233   7.983 -0.9821  0.7051  0.0838
  390MOL0     C53749   1.419   5.156   8.023 -0.4766 -0.4647  0.3854
  390MOL0     C53750   1.402   5.128   8.178  0.1469 -0.4938  0.4321
  390MOL0     H53751   0.948   5.188   8.101  2.1657 -0.3472 -1.5008
  390MOL0     H53752   0.697   5.093   8.099 -1.4864 -0.4508  1.2939
  390MOL0     H53753   0.624   4.660   8.034 -0.1274 -0.6976  1.8730
  390MOL0     H53754   0.458   4.736   8.050 -0.7355 -0.1136  0.1275
  390MOL0     H53755   0.503   4.595   8.232  2.6073  0.1594 -0.8538
  390MOL0     H53756   0.658   4.672   8.278  0.1425  1.2909  2.1410
  390MOL0     H53757   0.520   4.873   8.316  3.2886 -1.9425  0.4616
  390MOL0     H53758   0.375   4.786   8.275  0.5634  1.1982 -0.1862
  390MOL0     H53759   0.395   4.615   8.451  0.0917  0.7702  2.0807
  390MOL0     H53760   0.554   4.688   8.492  0.0843 -2.0904 -0.1207
  390MOL0     H53761   0.436   4.913   8.542  0.4207 -0.0474  1.7643
  390MOL0     H53762   0.377   4.772   8.641 -0.2783 -1.1417 -0.9328
  390MOL0     H53763   0.247   4.936   8.427  0.8106 -0.0614 -0.3424
  390MOL0     H53764   0.183   4.773   8.462 -0.0418 -0.8883  0.0415
  390MOL0     H53765   0.081   4.990   8.587 -0.5491  0.0690  1.2736
  390MOL0     H53766   0.238   4.983   8.665 -0.4349  0.3514  0.8330
  390MOL0     H53767   0.034   4.768   8.657 -2.4388  2.4562  0.2230
  390MOL0     H53768   0.193   4.749   8.749 -0.3547 -0.0457 -1.0465
  390MOL0     H53769   0.179   4.965   8.958 -0.1995  2.4101  1.3975
  390MOL0     H53770  -0.142   5.027   9.170 -0.4526 -3.2115 -1.4469
  390MOL0     H53771  -0.048   5.158   9.098 -1.8289  0.4979  0.4960
  390MOL0     H53772   0.082   4.914   9.233 -0.5435 -0.5471 -0.9991
  390MOL0     H53773   0.155   5.071   9.196 -0.4095  3.1297  2.8669
  390MOL0     H53774   0.051   5.199   9.366  1.5913 -0.0237  2.1772
  390MOL0     H53775  -0.073   5.085   9.392  0.7356  0.1776 -0.5169
  390MOL0     H53776   0.080   5.079   9.577 -0.3857  1.5991 -0.2814
  390MOL0     H53777   0.073   4.922   9.504  2.9446 -0.9791  1.2549
  390MOL0     H53778   0.501   5.018   9.414 -1.8544 -0.8050  0.0417
  390MOL0     H53779   0.766   5.221   9.489 -0.3668  0.2597  0.5440
  390MOL0     H53780   0.731   5.215   9.316  2.1982 -3.0319  0.3069
  390MOL0     H53781   0.715   5.069   9.419  2.9261  0.3728 -0.7721
  390MOL0     H53782   0.742   5.687   9.341  1.1548  0.9015 -3.3516
  390MOL0     H53783   0.952   5.832   9.301  0.0103 -1.2738 -1.4903
  390MOL0     H53784   1.287   5.786   9.556 -1.2635  1.0668  0.1566
  390MOL0     H53785   1.291   5.681   9.404 -1.9416  0.2477 -0.7505
  390MOL0     H53786   1.364   5.879   9.285 -3.1987 -2.6894  0.4144
  390MOL0     H53787   1.346   5.986   9.424  0.8724 -0.0812  1.8793
  390MOL0     H53788   1.583   5.773   9.416  2.9570  0.8358  4.9872
  390MOL0     H53789   1.540   5.879   9.541  0.6680 -4.9742  1.2130
  390MOL0     H53790   1.580   6.058   9.355 -1.5415 -0.4123 -1.7788
  390MOL0     H53791   1.637   5.934   9.257 -3.5082  1.2909 -0.7529
  390MOL0     H53792   1.811   5.874   9.443  1.1531 -1.0952 -2.7593
  390MOL0     H53793   1.828   6.043   9.358 -3.1307  2.7848 -0.3280
  390MOL0     H53794   1.688   6.009   9.623  0.2975 -2.7495 -2.2080
  390MOL0     H53795   1.761   6.150   9.540  0.9827  0.3639  0.8495
  390MOL0     H53796   1.976   5.980   9.563 -1.0321 -1.2131 -1.7356
  390MOL0     H53797   1.883   5.924   9.708 -0.6268 -0.3936  0.1640
  390MOL0     H53798   1.976   6.202   9.643 -1.1173 -0.2421 -0.2410
  390MOL0     H53799   2.067   6.091   9.757  0.8116 -0.5394 -0.0021
  390MOL0     H53800   1.147   5.596   9.592 -0.6986  0.6642  1.3397
  390MOL0     H53801   0.957   5.466   9.632  0.8910  1.2254  1.6741
  390MOL0     H53802   0.330   5.461   9.528  0.6186 -0.1638 -0.9324
  390MOL0     H53803   0.184   5.280   9.524  0.4453 -0.9425  1.6747
  390MOL0     H53804   0.838   4.702   8.055  3.6503 -1.8684  0.6318
  390MOL0     H53805   1.076   4.789   8.075  1.4732  1.5784 -1.8660
  390MOL0     H53806   1.291   5.133   7.704  1.2355  3.6185 -0.9616
  390MOL0     H53807   1.463   5.270   7.658  0.0934 -3.5939 -0.3980
  390MOL0     H53808   1.722   5.496   7.950 -0.9533  0.3395 -1.1501
  390MOL0     H53809   1.777   5.335   7.985 -1.4951  0.0389  0.5323
  390MOL0     H53810   1.898   5.397   7.730  1.4102  1.3036 -0.2878
  390MOL0     H53811   1.982   5.402   7.882  2.6103 -1.4750 -3.7020
  390MOL0     H53812   1.807   5.638   7.760 -0.0801 -0.9234 -2.1823
  390MOL0     H53813   1.900   5.658   7.907  0.8850  2.1456 -1.3810
  390MOL0     H53814   2.018   5.600   7.632 -1.8987  1.3490 -1.0593
  390MOL0     H53815   2.095   5.614   7.787  1.3568 -2.0405 -3.6386
  390MOL0     H53816   2.065   5.993   7.619  3.2687 -0.2747 -1.6578
  390MOL0     H53817   1.608   5.263   8.054 -1.9985 -0.1619  1.5927
  390MOL0     H53818   1.492   5.150   8.237  0.2968  3.4484 -0.9621
  390MOL0     H53819   1.321   5.185   8.226  0.4884  0.7904 -0.4797
  390MOL0     H53820   1.379   5.021   8.182  2.0977 -1.1043 -2.1695
  391MOL0     O53821   2.642   4.225   2.154  0.0854  0.1830  0.2854
  391MOL0     C53822   2.571   4.136   2.098  1.2644  0.0375  0.0495
  391MOL0     O53823   2.618   4.021   2.041 -0.2909 -0.7744 -0.4484
  391MOL0     C53824   2.747   4.028   2.011 -0.1687  0.1333 -0.2366
  391MOL0     C53825   2.853   3.986   2.097  0.3946 -0.2410 -0.0969
  391MOL0     C53826   2.979   3.980   2.043 -0.8156 -0.3688  0.7034
  391MOL0     C53827   3.014   4.013   1.914 -0.5881  0.0512 -0.0475
  391MOL0     O53828   3.147   4.011   1.884  0.7051  0.3999  0.3690
  391MOL0     C53829   3.205   4.016   1.753  1.4416 -0.0460  0.3912
  391MOL0     C53830   3.357   4.000   1.742 -1.7637  0.3954 -0.0892
  391MOL0     C53831   3.438   4.119   1.813 -0.5464 -1.0131 -0.0901
  391MOL0     C53832   3.488   4.236   1.720  0.8068  0.7492 -0.2614
  391MOL0     C53833   3.513   4.371   1.786  0.6003 -0.3015 -0.2702
  391MOL0     C53834   3.552   4.486   1.686  0.4025 -0.1004  0.0918
  391MOL0     C53835   3.709   4.476   1.665 -0.7812 -1.2231  0.6607
  391MOL0     C53836   3.742   4.556   1.541 -0.0780 -0.6943 -0.4659
  391MOL0     N53837   3.888   4.551   1.513 -0.7205 -0.1624 -0.8640
  391MOL0     C53838   3.967   4.662   1.530  0.0476 -0.1642 -0.7763
  391MOL0     C53839   4.093   4.620   1.534 -0.2529 -0.4250  0.1720
  391MOL0     C53840   4.204   4.725   1.548  0.4419 -0.2511  0.6491
  391MOL0     C53841   4.342   4.666   1.497  0.2169  0.4936 -0.1009
  391MOL0     C53842   4.455   4.779   1.515  0.6741  0.6548 -0.9693
  391MOL0     C53843   4.497   4.810   1.660 -1.1279  0.0744 -0.0218
  391MOL0     O53844   4.582   4.692   1.694  0.7733 -0.1015 -0.2995
  391MOL0     C53845   4.712   4.724   1.727  0.6981 -0.1205 -1.1012
  391MOL0     C53846   4.792   4.830   1.665  0.1990  0.2314 -0.1212
  391MOL0     C53847   4.927   4.858   1.707 -0.2326  0.5280  0.1547
  391MOL0     C53848   4.996   4.964   1.633  0.1560 -0.3084  0.8694
  391MOL0     C53849   4.977   4.788   1.818 -0.8969  0.0375  0.2889
  391MOL0     C53850   5.111   4.803   1.871 -0.0056  0.2298 -0.0743
  391MOL0     O53851   5.117   4.787   2.010 -0.8159  0.1274  0.2050
  391MOL0     C53852   5.242   4.800   2.072  1.4023  0.7826  0.2695
  391MOL0     C53853   5.304   4.683   2.121 -0.5700  0.6968  1.1343
  391MOL0     C53854   5.425   4.688   2.195  0.8710 -0.0857  0.1475
  391MOL0     C53855   5.488   4.810   2.224  0.1181  1.7797  0.6525
  391MOL0     O53856   5.615   4.812   2.286  1.0885 -1.0642 -0.2603
  391MOL0     C53857   5.641   4.723   2.391  0.7425  0.6715  0.5715
  391MOL0     C53858   5.790   4.723   2.421 -0.0698 -0.7440  0.3496
  391MOL0     C53859   5.886   4.730   2.300 -0.3200  1.0038 -0.2068
  391MOL0     C53860   5.854   4.627   2.189  0.0845  0.0351  0.1110
  391MOL0     C53861   5.953   4.640   2.080 -0.6844 -0.5518  0.0715
  391MOL0     C53862   5.923   4.534   1.967  0.7396  0.5294  0.3595
  391MOL0     C53863   5.951   4.396   2.017  0.1494  0.9258  0.0348
  391MOL0     C53864   5.848   4.301   2.046  0.3122  0.3648 -1.0994
  391MOL0    Cl53865   5.740   4.273   1.899  0.1276 -0.2273 -0.2622
  391MOL0     C53866   5.431   4.927   2.168  0.2129  0.1820 -0.9629
  391MOL0     C53867   5.310   4.920   2.092  0.3111  0.2366  0.2627
  391MOL0     O53868   5.207   4.833   1.799 -0.3783 -0.0155  0.4839
  391MOL0     C53869   4.904   4.679   1.874  0.5297 -0.1555  0.3765
  391MOL0     C53870   4.774   4.657   1.832 -0.6334  1.0683 -0.6132
  391MOL0     N53871   4.098   4.483   1.528  0.2339  0.3955 -0.1868
  391MOL0     N53872   3.970   4.445   1.542  0.1508 -0.8089  0.0081
  391MOL0     C53873   2.906   4.055   1.832 -0.3942  0.2154 -0.2669
  391MOL0     C53874   2.775   4.065   1.881 -0.3253  0.5939 -0.5139
  391MOL0     C53875   2.433   4.167   2.096 -0.4815 -0.0995  0.5669
  391MOL0     C53876   2.385   4.247   2.200  0.1226  0.3018  0.2581
  391MOL0     C53877   2.254   4.298   2.210 -0.5770 -0.0531  0.5401
  391MOL0     C53878   2.166   4.252   2.110  0.1031  0.7730  0.2111
  391MOL0     O53879   2.034   4.281   2.100  0.0351 -0.7122  0.1068
  391MOL0     C53880   1.953   4.268   2.212  1.2413  0.3669  0.5620
  391MOL0     C53881   1.805   4.266   2.163  0.1113  0.2174 -0.7617
  391MOL0     C53882   1.708   4.238   2.279  0.1454 -0.8847 -0.0861
  391MOL0     C53883   1.563   4.234   2.242  0.1150 -0.7705 -0.8836
  391MOL0     C53884   1.534   4.125   2.153 -0.8329  0.4860 -0.3557
  391MOL0     C53885   1.516   4.043   2.066 -0.4248  0.1061 -0.7300
  391MOL0     C53886   2.209   4.154   2.017 -0.1390 -0.2369  0.0873
  391MOL0     C53887   2.342   4.120   2.000  0.2164 -0.6814  0.2076
  391MOL0     C53888   2.371   4.015   1.898 -1.1099  0.6495 -0.0651
  391MOL0     H53889   2.828   3.947   2.194  0.6823  1.6061  0.7686
  391MOL0     H53890   3.055   3.939   2.109 -0.3537  0.5161  0.7409
  391MOL0     H53891   3.175   4.104   1.697  2.4162 -0.6715 -1.1655
  391MOL0     H53892   3.158   3.938   1.693  0.8390  1.7106 -1.5183
  391MOL0     H53893   3.383   3.911   1.800 -0.7679  1.2455  0.8294
  391MOL0     H53894   3.392   3.989   1.639  1.4337 -0.1071  0.9554
  391MOL0     H53895   3.384   4.150   1.903  0.5271 -2.1338  0.9827
  391MOL0     H53896   3.529   4.087   1.863 -0.4532  3.8753  3.5927
  391MOL0     H53897   3.584   4.200   1.681 -0.4363 -1.6081 -1.3672
  391MOL0     H53898   3.420   4.249   1.635  1.9697 -2.7337 -1.9275
  391MOL0     H53899   3.582   4.363   1.870 -1.9246  0.1738  2.0059
  391MOL0     H53900   3.422   4.403   1.838  2.7485  0.0135  3.6196
  391MOL0     H53901   3.496   4.471   1.594  1.1507  1.4653 -0.6511
  391MOL0     H53902   3.535   4.583   1.732 -1.5988 -0.9894  1.3510
  391MOL0     H53903   3.739   4.372   1.649 -1.1654 -1.5213  1.7763
  391MOL0     H53904   3.762   4.521   1.749 -3.8290  1.6277  1.2610
  391MOL0     H53905   3.697   4.500   1.458  0.0662 -2.6243  0.7093
  391MOL0     H53906   3.709   4.660   1.543  0.9385 -0.3796  1.3489
  391MOL0     H53907   3.939   4.766   1.543  1.6447  0.2762 -0.6837
  391MOL0     H53908   4.219   4.772   1.645 -0.7292  0.6047  0.4371
  391MOL0     H53909   4.165   4.807   1.487 -3.0297 -0.6352  2.1376
  391MOL0     H53910   4.363   4.581   1.562  0.2621 -0.4474 -1.3189
  391MOL0     H53911   4.336   4.626   1.395  1.4314  2.9724 -1.2425
  391MOL0     H53912   4.544   4.742   1.464  1.5768  0.7089  0.5255
  391MOL0     H53913   4.417   4.872   1.471 -0.2707 -0.3371 -2.3432
  391MOL0     H53914   4.555   4.903   1.652  1.2518 -1.4290 -1.4593
  391MOL0     H53915   4.418   4.825   1.734 -0.9885  0.0529  0.1309
  391MOL0     H53916   4.760   4.882   1.575  4.1492  0.4938 -1.5403
  391MOL0     H53917   5.066   4.937   1.554  0.7082  3.0508  0.0220
  391MOL0     H53918   5.047   5.039   1.695  0.9791  2.0450 -2.3827
  391MOL0     H53919   4.928   5.025   1.572  2.1852  0.1547 -1.0825
  391MOL0     H53920   5.258   4.585   2.112 -1.0359  0.8018  2.2239
  391MOL0     H53921   5.460   4.593   2.235  1.6246  0.2262  0.2368
  391MOL0     H53922   5.578   4.751   2.476 -1.2355 -0.6260 -0.3697
  391MOL0     H53923   5.619   4.621   2.358  2.6269  0.7221 -0.9875
  391MOL0     H53924   5.809   4.813   2.480 -1.5214  1.1511 -1.8308
  391MOL0     H53925   5.810   4.637   2.485  0.3058  0.7023  2.2723
  391MOL0     H53926   5.987   4.702   2.331 -0.4559  0.6895 -0.0453
  391MOL0     H53927   5.897   4.830   2.257  1.5629  0.2929 -1.5088
  391MOL0     H53928   5.750   4.636   2.155  0.4988  0.2150 -1.1331
  391MOL0     H53929   5.863   4.528   2.235  0.0274 -0.0600 -0.0807
  391MOL0     H53930   5.953   4.742   2.040  1.1500 -0.3814  0.3964
  391MOL0     H53931   6.058   4.619   2.103  0.5582  1.3407 -3.1422
  391MOL0     H53932   5.974   4.549   1.871 -2.5467  2.5068 -1.2853
  391MOL0     H53933   5.816   4.549   1.947  0.1488 -1.5114  1.7191
  391MOL0     H53934   6.022   4.394   2.100 -0.0941 -5.3937  0.5391
  391MOL0     H53935   6.005   4.338   1.942  4.0545  3.6109  0.4806
  391MOL0     H53936   5.783   4.334   2.128  0.1392  1.8073 -1.7815
  391MOL0     H53937   5.895   4.204   2.063  1.4870  0.9867 -0.7482
  391MOL0     H53938   5.475   5.023   2.193 -2.8067  1.7556 -1.1949
  391MOL0     H53939   5.280   5.016   2.050 -1.0096 -0.4662 -0.4767
  391MOL0     H53940   4.947   4.606   1.942 -3.5167 -2.5065  0.7381
  391MOL0     H53941   4.730   4.579   1.893  0.4499 -0.1608 -1.3659
  391MOL0     H53942   2.925   4.089   1.731  0.2116 -2.2504 -1.0330
  391MOL0     H53943   2.695   4.093   1.813 -0.8920 -0.4028 -0.2709
  391MOL0     H53944   2.450   4.287   2.277  0.7348  2.3640 -1.2287
  391MOL0     H53945   2.228   4.374   2.283  0.2007  1.8093 -1.0234
  391MOL0     H53946   1.971   4.179   2.272 -1.1270 -1.4953 -1.2668
  391MOL0     H53947   1.967   4.360   2.270  3.7242  1.3578 -1.4065
  391MOL0     H53948   1.789   4.181   2.097  1.6608  0.2952 -1.2702
  391MOL0     H53949   1.783   4.352   2.099  0.0211 -1.1596 -2.6348
  391MOL0     H53950   1.733   4.146   2.332 -1.9586 -1.5594 -0.1750
  391MOL0     H53951   1.723   4.319   2.351 -2.6771 -0.6700  0.3750
  391MOL0     H53952   1.529   4.333   2.209 -0.9376 -1.9447 -3.6060
  391MOL0     H53953   1.503   4.226   2.333  1.5490  3.4743  0.6873
  391MOL0     H53954   1.499   3.967   1.993  0.3171  0.9485 -1.8209
  391MOL0     H53955   2.125   4.118   1.959  2.0998 -1.5336 -2.5986
  391MOL0     H53956   2.289   3.975   1.837  1.1041  0.0086 -2.8303
  391MOL0     H53957   2.429   4.057   1.815 -1.4745 -2.3687 -2.0487
  391MOL0     H53958   2.410   3.931   1.956  0.8179  1.9572  0.6026
  392MOL0     O53959   5.415   0.293   6.463 -0.3200 -0.2062 -0.2065
  392MOL0     C53960   5.369   0.376   6.545 -0.3015  0.0327  0.2932
  392MOL0     O53961   5.446   0.424   6.655  0.1662  0.2844  0.3979
  392MOL0     C53962   5.558   0.344   6.687 -0.1926 -0.3623  0.1867
  392MOL0     C53963   5.551   0.208   6.700 -0.4030  0.1127 -0.1329
  392MOL0     C53964   5.666   0.137   6.750 -0.9244  0.8903 -0.4387
  392MOL0     C53965   5.784   0.199   6.797  0.0920  0.4226 -0.3047
  392MOL0     O53966   5.893   0.132   6.848 -0.2876  0.9200  0.2229
  392MOL0     C53967   5.884   0.003   6.905 -1.1825  0.1794  0.6623
  392MOL0     C53968   5.982   0.005   7.017  0.2901  1.0732 -0.3031
  392MOL0     C53969   6.119  -0.044   6.971  0.5073  1.3579 -0.4490
  392MOL0     C53970   6.210  -0.070   7.093  0.3843  0.4693  0.0359
  392MOL0     C53971   6.359  -0.067   7.083  0.1881  0.5257 -0.8408
  392MOL0     C53972   6.418  -0.189   7.006  0.0943  0.1621  0.2478
  392MOL0     C53973   6.570  -0.181   7.006  0.4317 -0.7147  0.2352
  392MOL0     C53974   6.618  -0.286   6.899 -0.3299  0.8706  0.2285
  392MOL0     N53975   6.765  -0.288   6.891  0.1664  0.3333  0.5674
  392MOL0     C53976   6.850  -0.358   6.971 -0.5238  0.6277  0.1274
  392MOL0     C53977   6.976  -0.349   6.914 -0.0153 -0.1906  0.0746
  392MOL0     C53978   7.101  -0.409   6.970  0.0761  0.0748  0.3728
  392MOL0     C53979   7.170  -0.325   7.074  0.0842  0.7852 -0.0766
  392MOL0     C53980   7.241  -0.201   7.016 -0.4907  0.4172 -0.1419
  392MOL0     C53981   7.369  -0.256   6.955 -0.3046  0.8293 -0.3534
  392MOL0     O53982   7.414  -0.145   6.882  0.0489  0.5901  0.4005
  392MOL0     C53983   7.529  -0.094   6.941 -0.8186 -0.4364  0.3083
  392MOL0     C53984   7.631  -0.065   6.850  0.5708  0.2309  0.0861
  392MOL0     C53985   7.759  -0.021   6.886 -0.0811  0.2510  0.4962
  392MOL0     C53986   7.858  -0.016   6.774 -1.3344  0.3746  0.0942
  392MOL0     C53987   7.789  -0.003   7.021  0.2836  0.1966 -0.2781
  392MOL0     C53988   7.911   0.064   7.062 -0.5800  0.0025  0.7859
  392MOL0     O53989   7.993   0.128   6.971  0.5951  0.9708  0.3447
  392MOL0     C53990   8.130   0.149   6.991 -0.1947 -0.0922 -0.2200
  392MOL0     C53991   8.221   0.111   6.897 -0.2850 -0.2353 -0.3410
  392MOL0     C53992   8.357   0.157   6.902  0.4444 -0.3957 -0.2188
  392MOL0     C53993   8.404   0.221   7.021  0.9239 -0.4729 -0.4601
  392MOL0     O53994   8.536   0.253   7.048  0.3204 -0.1073 -0.9298
  392MOL0     C53995   8.631   0.236   6.942 -0.0584  0.4734  0.1341
  392MOL0     C53996   8.776   0.273   6.965  0.5242  0.1298 -0.5090
  392MOL0     C53997   8.829   0.234   7.102  0.0643  0.2646 -0.2285
  392MOL0     C53998   8.981   0.230   7.084 -0.1095 -1.2436 -0.1575
  392MOL0     C53999   9.029   0.212   7.223 -0.4210 -0.1115 -0.5465
  392MOL0     C54000   9.177   0.196   7.235  0.6230  0.1319  0.6510
  392MOL0     C54001   9.232   0.167   7.375  0.1972 -0.3680 -0.5102
  392MOL0     C54002   9.384   0.152   7.350 -0.1507  0.3734 -0.4435
  392MOL0    Cl54003   9.435  -0.002   7.277 -0.0033 -0.2089 -0.0736
  392MOL0     C54004   8.306   0.262   7.115  0.7076 -0.1236 -0.4169
  392MOL0     C54005   8.173   0.230   7.094  0.4662 -0.7694  0.2011
  392MOL0     O54006   7.936   0.058   7.184  0.9615 -0.0991 -0.0106
  392MOL0     C54007   7.681  -0.020   7.111  0.1300  0.4539  0.2687
  392MOL0     C54008   7.558  -0.066   7.077  0.5368  0.5808  0.4246
  392MOL0     N54009   6.961  -0.275   6.799 -0.1810  0.4052  0.3663
  392MOL0     N54010   6.836  -0.236   6.787  0.0456  0.2736 -0.3237
  392MOL0     C54011   5.789   0.334   6.777  0.0767 -0.1177 -0.2194
  392MOL0     C54012   5.674   0.404   6.721  0.2124  0.2148  0.0837
  392MOL0     C54013   5.252   0.458   6.517  0.6076 -0.2834  0.8228
  392MOL0     C54014   5.270   0.592   6.494 -0.1656  0.3348 -0.4228
  392MOL0     C54015   5.175   0.687   6.461  0.4229 -0.5350  0.5325
  392MOL0     C54016   5.042   0.649   6.446 -0.9195  0.5036 -0.4897
  392MOL0     O54017   4.951   0.750   6.413  0.0469  0.2740 -0.1383
  392MOL0     C54018   4.809   0.728   6.414  0.6124  0.2337 -0.6766
  392MOL0     C54019   4.749   0.703   6.560  0.0889  0.1566 -0.2644
  392MOL0     C54020   4.604   0.655   6.551 -0.6979  0.0151 -0.3526
  392MOL0     C54021   4.523   0.678   6.673  0.3963  0.2728  0.8823
  392MOL0     C54022   4.592   0.639   6.795 -0.7053  0.4717  0.0392
  392MOL0     C54023   4.649   0.620   6.899  0.6801  0.3912 -0.1492
  392MOL0     C54024   5.020   0.512   6.458  0.4610  0.5834  0.3030
  392MOL0     C54025   5.119   0.419   6.492  0.2880 -0.4787  0.4082
  392MOL0     C54026   5.071   0.276   6.498 -0.1195  1.1408  0.7020
  392MOL0     H54027   5.459   0.153   6.679  0.4960 -1.4541 -0.1571
  392MOL0     H54028   5.673   0.029   6.744  1.5999  1.0463 -1.2098
  392MOL0     H54029   5.917  -0.079   6.840 -1.8730  1.2345 -1.0891
  392MOL0     H54030   5.779  -0.011   6.935 -1.8166  0.5196 -1.2451
  392MOL0     H54031   5.993   0.108   7.053  0.5726  1.1036 -0.4769
  392MOL0     H54032   5.956  -0.064   7.098  3.1690  1.6797  1.2484
  392MOL0     H54033   6.120  -0.138   6.916  2.8545  0.1147  1.4619
  392MOL0     H54034   6.161   0.031   6.904  0.8457  1.3174 -0.2860
  392MOL0     H54035   6.173   0.008   7.161 -1.4494 -0.1269 -0.2122
  392MOL0     H54036   6.195  -0.172   7.128  0.6075  0.1553 -0.7697
  392MOL0     H54037   6.393  -0.068   7.187  0.8450 -0.1447 -1.0551
  392MOL0     H54038   6.381   0.022   7.023  2.6191 -1.4734 -3.1389
  392MOL0     H54039   6.379  -0.278   7.058 -0.8289  1.2119  1.4074
  392MOL0     H54040   6.383  -0.195   6.903  1.8164  0.3357 -0.3663
  392MOL0     H54041   6.608  -0.202   7.107 -1.3599 -1.1594  0.8511
  392MOL0     H54042   6.606  -0.085   6.969 -1.9400  1.4156  2.9870
  392MOL0     H54043   6.586  -0.387   6.927  3.7272 -1.1116 -1.5196
  392MOL0     H54044   6.576  -0.253   6.804  0.1014 -0.2595 -0.3686
  392MOL0     H54045   6.828  -0.409   7.064 -0.1514 -1.6433 -0.9434
  392MOL0     H54046   7.162  -0.432   6.882 -1.2488 -0.6689 -0.3812
  392MOL0     H54047   7.065  -0.502   7.016 -2.1740 -1.0811 -3.2613
  392MOL0     H54048   7.090  -0.300   7.144 -0.3373 -2.6305  0.8031
  392MOL0     H54049   7.228  -0.393   7.137  0.2799  2.7616  2.0134
  392MOL0     H54050   7.177  -0.151   6.942 -1.8260  0.4267  0.9865
  392MOL0     H54051   7.268  -0.132   7.096  3.5361 -0.6007 -0.3922
  392MOL0     H54052   7.432  -0.290   7.038 -1.8136 -3.1062 -0.5629
  392MOL0     H54053   7.363  -0.346   6.892  2.3432  0.5683 -0.3630
  392MOL0     H54054   7.606  -0.082   6.746 -3.4240 -0.3575  0.9989
  392MOL0     H54055   7.951  -0.065   6.803 -2.4602 -1.4512  0.7411
  392MOL0     H54056   7.878   0.089   6.748  0.8444  1.2237  4.2930
  392MOL0     H54057   7.818  -0.073   6.690  0.0916 -3.1836  1.6389
  392MOL0     H54058   8.179   0.051   6.816 -0.5411  0.6316 -0.8583
  392MOL0     H54059   8.432   0.132   6.827  1.3758  3.1349 -0.6073
  392MOL0     H54060   8.638   0.128   6.926  2.0513  0.0273  3.2000
  392MOL0     H54061   8.600   0.294   6.855 -1.0332  0.2061  0.2960
  392MOL0     H54062   8.841   0.230   6.888  1.1777 -3.6489  1.8799
  392MOL0     H54063   8.786   0.382   6.954 -2.5345  0.3976 -1.7166
  392MOL0     H54064   8.786   0.134   7.118 -4.5155  1.2427 -4.2055
  392MOL0     H54065   8.808   0.313   7.175  1.1633 -0.6069  1.0972
  392MOL0     H54066   9.016   0.323   7.037 -4.2074 -0.7166 -2.6605
  392MOL0     H54067   9.013   0.143   7.025  1.2530 -0.5970 -0.4204
  392MOL0     H54068   9.006   0.297   7.288 -0.2926 -0.5764  0.1144
  392MOL0     H54069   8.977   0.130   7.273 -3.2936  2.4286  0.9952
  392MOL0     H54070   9.225   0.286   7.199  1.5951 -0.7042 -0.1853
  392MOL0     H54071   9.210   0.116   7.168 -0.2951  0.8324 -0.6955
  392MOL0     H54072   9.185   0.075   7.411 -1.9682  0.6827 -0.4903
  392MOL0     H54073   9.215   0.244   7.451  1.3243 -0.4017 -0.2036
  392MOL0     H54074   9.428   0.158   7.450  0.0272  0.3352 -0.5181
  392MOL0     H54075   9.435   0.227   7.289 -1.6264  1.1737 -0.7229
  392MOL0     H54076   8.330   0.318   7.205  0.1937 -0.0108 -0.3429
  392MOL0     H54077   8.095   0.286   7.145  0.3944  0.3310 -1.0790
  392MOL0     H54078   7.694  -0.015   7.219  0.9540 -2.8494  0.4252
  392MOL0     H54079   7.494  -0.091   7.161  2.4345 -3.0104  0.9947
  392MOL0     H54080   5.877   0.383   6.817  0.0791  0.1239 -0.5140
  392MOL0     H54081   5.681   0.510   6.700 -4.0304  0.1171 -3.0240
  392MOL0     H54082   5.372   0.629   6.500 -0.4913  1.0350  3.0844
  392MOL0     H54083   5.216   0.787   6.455  0.0396 -0.4080 -5.6254
  392MOL0     H54084   4.770   0.819   6.368 -0.9250  0.3329  0.7373
  392MOL0     H54085   4.786   0.640   6.354 -0.3194  0.9952 -1.4489
  392MOL0     H54086   4.743   0.801   6.607 -2.1145  0.8094 -1.7248
  392MOL0     H54087   4.816   0.631   6.607 -0.0275 -0.5689 -1.1800
  392MOL0     H54088   4.553   0.706   6.469 -2.8119  0.0622  0.9180
  392MOL0     H54089   4.605   0.548   6.528 -3.4453 -0.2604  0.4947
  392MOL0     H54090   4.429   0.626   6.652  1.1311  0.2858 -3.4396
  392MOL0     H54091   4.498   0.785   6.672  1.4460  0.5276  1.0017
  392MOL0     H54092   4.728   0.618   6.972  0.8003  0.2391 -0.2825
  392MOL0     H54093   4.916   0.479   6.457 -1.2212  5.1482 -0.7004
  392MOL0     H54094   5.146   0.205   6.534 -2.0688 -1.4457 -0.1075
  392MOL0     H54095   4.986   0.268   6.566 -0.0969  1.5886  0.7911
  392MOL0     H54096   5.054   0.242   6.396  1.6331  3.4556 -0.4648
  393MOL0     O54097  11.391   6.445   2.090  0.1957  0.9453 -0.6706
  393MOL0     C54098  11.365   6.341   2.154 -0.3568  0.0067  0.0906
  393MOL0     O54099  11.424   6.298   2.270  0.1319 -0.1696 -0.6243
  393MOL0     C54100  11.547   6.350   2.304  0.2728  0.8705 -0.1627
  393MOL0     C54101  11.565   6.362   2.446  1.1337 -0.2996  1.1680
  393MOL0     C54102  11.694   6.401   2.490  0.2110 -0.5869 -0.1180
  393MOL0     C54103  11.796   6.430   2.398  0.3524  0.4202  0.3274
  393MOL0     O54104  11.920   6.469   2.438 -1.0712 -0.0209 -0.5276
  393MOL0     C54105  11.983   6.584   2.371  0.1278  0.3443 -0.1627
  393MOL0     C54106  12.034   6.682   2.476  0.4303 -0.3853 -0.5500
  393MOL0     C54107  12.171   6.734   2.440 -0.5636 -1.0077  0.6130
  393MOL0     C54108  12.219   6.838   2.545 -0.4688  0.2802 -0.0212
  393MOL0     C54109  12.357   6.878   2.494  0.4180 -0.3436  0.0433
  393MOL0     C54110  12.390   7.016   2.538 -0.0019 -0.8089 -0.9488
  393MOL0     C54111  12.522   7.081   2.505 -0.2376 -0.0778 -0.3199
  393MOL0     C54112  12.573   7.060   2.364 -0.3397 -1.1447  0.0401
  393MOL0     N54113  12.686   7.145   2.323  0.4817 -0.2519  0.2776
  393MOL0     C54114  12.816   7.122   2.356  0.3374 -0.3994 -0.1008
  393MOL0     C54115  12.886   7.207   2.281  0.3237 -0.5959  0.3657
  393MOL0     C54116  13.030   7.230   2.290  1.0436 -0.7452  0.3261
  393MOL0     C54117  13.104   7.199   2.152 -0.3745  0.1489  0.8265
  393MOL0     C54118  13.104   7.053   2.105 -0.0053  0.6636  0.2698
  393MOL0     C54119  13.191   7.039   1.981 -1.0766 -0.4446 -0.6388
  393MOL0     O54120  13.322   7.095   1.995 -0.3945 -0.2981 -0.2359
  393MOL0     C54121  13.425   7.035   2.052  0.2717 -0.4396  0.2165
  393MOL0     C54122  13.407   6.902   2.112 -0.1400  0.0659  0.3630
  393MOL0     C54123  13.515   6.834   2.175 -0.4190  1.1347  0.3199
  393MOL0     C54124  13.491   6.700   2.246 -0.1769  1.1104 -0.7968
  393MOL0     C54125  13.642   6.893   2.171 -0.6765  0.1681  0.2322
  393MOL0     C54126  13.772   6.828   2.216  0.6100 -0.0190 -0.3649
  393MOL0     O54127  13.886   6.857   2.158 -0.3583 -1.0954  0.2058
  393MOL0     C54128  14.003   6.807   2.220 -0.3291  0.6175  0.6363
  393MOL0     C54129  14.030   6.798   2.354  0.2838 -0.2219 -0.1254
  393MOL0     C54130  14.156   6.748   2.392 -0.8169  0.5159  0.2363
  393MOL0     C54131  14.259   6.705   2.306 -0.2329  0.4838  0.0876
  393MOL0     O54132  14.371   6.647   2.360  1.5336 -0.2642 -0.4026
  393MOL0     C54133  14.442   6.550   2.277 -0.9791 -0.9199 -0.6560
  393MOL0     C54134  14.559   6.474   2.354  0.1926 -0.2143  0.1902
  393MOL0     C54135  14.637   6.575   2.436  0.3159  0.6187  0.6402
  393MOL0     C54136  14.749   6.491   2.491 -0.0850 -0.1260 -0.1433
  393MOL0     C54137  14.843   6.582   2.566  0.3627  0.3821  0.6028
  393MOL0     C54138  14.930   6.492   2.661  0.3669 -0.3136 -0.3456
  393MOL0     C54139  15.029   6.553   2.770  0.8571 -0.2227  0.8262
  393MOL0     C54140  14.964   6.641   2.875 -0.3603 -0.2864  0.0568
  393MOL0    Cl54141  15.082   6.676   3.003  0.1957 -0.3005  0.1212
  393MOL0     C54142  14.227   6.732   2.168  0.4429  0.6208  0.1993
  393MOL0     C54143  14.105   6.784   2.124  0.0916 -0.3353  0.8356
  393MOL0     O54144  13.759   6.746   2.306 -0.2084  0.2109  0.7856
  393MOL0     C54145  13.658   7.023   2.109 -0.1178  0.2334  0.0218
  393MOL0     C54146  13.553   7.094   2.055 -0.0002 -0.9139  0.5376
  393MOL0     N54147  12.799   7.286   2.206 -0.2493  0.4740 -0.9541
  393MOL0     N54148  12.674   7.246   2.237  0.5635 -0.5786  0.2924
  393MOL0     C54149  11.774   6.404   2.262  0.5092 -0.6609 -0.0162
  393MOL0     C54150  11.653   6.356   2.213 -0.5533  0.0222 -0.3472
  393MOL0     C54151  11.250   6.264   2.117  0.3107  0.8561 -0.9172
  393MOL0     C54152  11.268   6.120   2.119  0.5934  0.1092  0.3266
  393MOL0     C54153  11.166   6.029   2.087  0.1960  0.2811 -0.8243
  393MOL0     C54154  11.043   6.081   2.036 -1.2274 -0.2729 -0.2255
  393MOL0     O54155  10.941   6.014   1.990 -0.2991 -0.1131 -0.9429
  393MOL0     C54156  10.932   5.872   2.009  0.1027  0.6068  0.2797
  393MOL0     C54157  10.799   5.828   1.954  0.5910  0.2645  0.0242
  393MOL0     C54158  10.687   5.843   2.060 -0.4272 -0.2270 -0.3131
  393MOL0     C54159  10.554   5.868   1.991 -0.3567  0.1841  0.1820
  393MOL0     C54160  10.443   5.874   2.091 -0.5074 -0.5012 -0.4592
  393MOL0     C54161  10.362   5.905   2.174 -0.3913  0.9033  0.6813
  393MOL0     C54162  11.027   6.223   2.024  0.3704 -0.6468  0.6553
  393MOL0     C54163  11.129   6.314   2.078  0.2623 -0.6777 -0.1208
  393MOL0     C54164  11.096   6.460   2.075 -0.3375 -0.5244 -0.1278
  393MOL0     H54165  11.492   6.344   2.524  0.0739 -1.2235  0.0084
  393MOL0     H54166  11.714   6.412   2.596  1.1707 -1.5587 -0.1829
  393MOL0     H54167  11.910   6.634   2.307 -1.0373 -1.6698 -0.5101
  393MOL0     H54168  12.064   6.531   2.319  0.9690  2.0922 -0.6995
  393MOL0     H54169  11.963   6.761   2.499 -1.5552 -2.4018  0.6841
  393MOL0     H54170  12.061   6.631   2.569 -1.6560  1.5038  1.2044
  393MOL0     H54171  12.247   6.654   2.436  2.6669  1.8659 -0.5918
  393MOL0     H54172  12.168   6.784   2.343 -2.1786  0.2376  1.2671
  393MOL0     H54173  12.148   6.918   2.569 -1.8213 -0.8336 -0.1808
  393MOL0     H54174  12.234   6.780   2.637 -0.0327 -3.5886 -2.2964
  393MOL0     H54175  12.345   6.884   2.385  0.3159 -1.0696  0.0120
  393MOL0     H54176  12.431   6.805   2.525  0.9586  0.4838  0.7373
  393MOL0     H54177  12.310   7.087   2.517 -0.8820 -1.3565  0.4128
  393MOL0     H54178  12.387   7.019   2.648  0.3042  0.9250 -0.9546
  393MOL0     H54179  12.606   7.054   2.569  1.7074  2.3650 -1.6560
  393MOL0     H54180  12.506   7.188   2.520  1.0997  0.0975 -0.0095
  393MOL0     H54181  12.611   6.960   2.342  0.2954 -0.6537 -1.1661
  393MOL0     H54182  12.495   7.086   2.292  0.9936  0.7959 -0.7659
  393MOL0     H54183  12.861   7.042   2.415  2.3042 -2.0066 -3.4451
  393MOL0     H54184  13.064   7.177   2.380  2.3425 -0.4227  0.0391
  393MOL0     H54185  13.050   7.336   2.307  1.9939 -0.8252 -0.2417
  393MOL0     H54186  13.070   7.272   2.079  2.1869  0.5448 -0.0764
  393MOL0     H54187  13.211   7.219   2.158 -0.3232  0.1841 -0.0715
  393MOL0     H54188  13.137   6.995   2.192 -0.1446 -0.0019 -0.1183
  393MOL0     H54189  13.001   7.022   2.085 -0.1593  0.5143  1.2380
  393MOL0     H54190  13.211   6.938   1.943 -0.0371 -0.8158  0.8191
  393MOL0     H54191  13.135   7.093   1.903 -1.0478  1.2346  0.4627
  393MOL0     H54192  13.308   6.865   2.136 -0.2975  0.8111  0.9140
  393MOL0     H54193  13.388   6.664   2.253  0.6926 -1.4063 -0.1486
  393MOL0     H54194  13.520   6.715   2.350 -0.0656  0.7999 -0.7845
  393MOL0     H54195  13.551   6.617   2.207 -0.6499  0.8502 -0.9771
  393MOL0     H54196  13.951   6.826   2.423  0.5408  2.2619 -0.7370
  393MOL0     H54197  14.171   6.764   2.499 -1.2961  3.1679 -0.0068
  393MOL0     H54198  14.379   6.474   2.229 -0.1407 -1.4100 -0.9963
  393MOL0     H54199  14.484   6.612   2.198 -2.8790  0.6461 -0.5280
  393MOL0     H54200  14.512   6.413   2.431  0.2946  3.7044  3.7430
  393MOL0     H54201  14.612   6.410   2.283  1.0832  0.2100  0.4522
  393MOL0     H54202  14.572   6.601   2.519 -2.0604 -1.0020 -0.6168
  393MOL0     H54203  14.672   6.664   2.382  3.5134 -0.3724  0.8656
  393MOL0     H54204  14.807   6.442   2.413 -1.5226  0.8150 -1.8818
  393MOL0     H54205  14.702   6.422   2.563  1.7021  0.8307  2.0582
  393MOL0     H54206  14.897   6.654   2.504  3.1285 -0.3237  2.0293
  393MOL0     H54207  14.786   6.643   2.635 -3.8538 -1.2489 -1.1024
  393MOL0     H54208  14.993   6.453   2.581 -1.5045 -0.9558 -1.5899
  393MOL0     H54209  14.874   6.409   2.704  0.6767 -1.4955 -2.1273
  393MOL0     H54210  15.107   6.620   2.732  1.4102 -0.7313  1.0483
  393MOL0     H54211  15.077   6.465   2.813  1.0889 -1.5555 -1.9406
  393MOL0     H54212  14.879   6.599   2.930 -1.1506 -1.7960 -2.1916
  393MOL0     H54213  14.934   6.736   2.830 -0.0684 -0.7122 -1.0758
  393MOL0     H54214  14.305   6.704   2.098  0.8320 -2.0878  1.5534
  393MOL0     H54215  14.094   6.802   2.018  2.1031  0.8160  0.7834
  393MOL0     H54216  13.758   7.063   2.109 -0.4520  1.3590  3.1382
  393MOL0     H54217  13.565   7.193   2.012  0.8653 -1.9114 -1.7169
  393MOL0     H54218  11.863   6.414   2.200  0.4992  1.3596  0.2162
  393MOL0     H54219  11.647   6.342   2.106  2.3368  0.9057 -0.7260
  393MOL0     H54220  11.363   6.078   2.150  1.9973  0.9808 -2.4242
  393MOL0     H54221  11.172   5.921   2.101  0.9980 -0.0073 -3.0186
  393MOL0     H54222  11.014   5.820   1.958  0.6730  1.0205  0.7641
  393MOL0     H54223  10.948   5.846   2.114 -0.7056 -0.4899  0.1563
  393MOL0     H54224  10.808   5.720   1.935 -0.1801  0.2110 -0.0895
  393MOL0     H54225  10.775   5.875   1.858 -0.6026 -0.6966 -0.1818
  393MOL0     H54226  10.670   5.761   2.130  0.2593  1.3881  1.8443
  393MOL0     H54227  10.699   5.933   2.121  0.2873 -1.0124  0.7328
  393MOL0     H54228  10.531   5.787   1.920  1.0871  0.2341 -0.3812
  393MOL0     H54229  10.572   5.957   1.929  1.6034 -0.7647 -0.6754
  393MOL0     H54230  10.285   5.932   2.244 -1.3221  1.3768 -0.4896
  393MOL0     H54231  10.929   6.266   2.006  0.2942  0.3142  3.0974
  393MOL0     H54232  11.090   6.502   2.176  2.1326  0.7483 -0.4540
  393MOL0     H54233  11.167   6.522   2.020  2.4678  0.7777  4.4535
  393MOL0     H54234  10.993   6.476   2.042 -0.3911 -0.0383  0.2593
  394MOL0     O54235   9.221  10.708   5.982 -0.0323 -0.1426  0.0381
  394MOL0     C54236   9.295  10.724   6.075  0.6607 -0.3653 -0.5989
  394MOL0     O54237   9.413  10.783   6.072 -0.1912 -0.2629  0.2492
  394MOL0     C54238   9.463  10.857   5.967  0.0776  0.3145  0.3262
  394MOL0     C54239   9.605  10.848   5.955 -0.0918 -0.6092  0.0484
  394MOL0     C54240   9.671  10.954   5.879 -1.4411  1.0340  0.5634
  394MOL0     C54241   9.601  11.029   5.778  0.9686  0.6872  0.4734
  394MOL0     O54242   9.672  11.100   5.680  0.2739 -0.1860  0.3711
  394MOL0     C54243   9.812  11.072   5.652 -0.0517  0.7165  0.6221
  394MOL0     C54244   9.881  11.153   5.552 -0.5611  0.0303  0.0519
  394MOL0     C54245   9.814  11.154   5.413 -0.1098 -0.1135 -0.2094
  394MOL0     C54246   9.812  11.011   5.353  0.4313  0.2867  0.1373
  394MOL0     C54247   9.752  11.007   5.216 -0.2781  0.2297  0.7583
  394MOL0     C54248   9.850  11.058   5.104 -0.3459 -0.2665 -0.4308
  394MOL0     C54249   9.772  11.039   4.969 -0.1703 -0.1867  0.1092
  394MOL0     C54250   9.853  11.056   4.839  0.0182  1.0658 -0.6060
  394MOL0     N54251   9.930  10.936   4.823 -0.5135  0.9906 -0.5371
  394MOL0     C54252  10.049  10.898   4.882 -0.0801 -0.7340  0.5964
  394MOL0     C54253  10.100  10.794   4.810 -0.1207  0.0755  0.5488
  394MOL0     C54254  10.228  10.719   4.834  0.8485 -0.0629 -0.5035
  394MOL0     C54255  10.306  10.688   4.694 -0.0979  0.5979 -0.8530
  394MOL0     C54256  10.447  10.637   4.717  0.4896  0.5247 -0.4059
  394MOL0     C54257  10.461  10.496   4.789 -0.1151 -0.5055 -0.3217
  394MOL0     O54258  10.587  10.439   4.759 -0.3106 -0.0896 -0.0564
  394MOL0     C54259  10.702  10.480   4.824  0.3902  0.0580 -0.2436
  394MOL0     C54260  10.805  10.393   4.809  0.7302 -0.0138 -0.3394
  394MOL0     C54261  10.942  10.426   4.850  0.0690  0.9543  0.2786
  394MOL0     C54262  11.043  10.338   4.791 -0.9310 -0.3778 -0.1938
  394MOL0     C54263  10.969  10.539   4.924 -0.2923  0.5729 -0.4563
  394MOL0     C54264  11.104  10.575   4.978 -0.0522  0.0867  0.1941
  394MOL0     O54265  11.130  10.710   5.008 -0.1056  0.5170  0.1858
  394MOL0     C54266  11.255  10.742   5.054  0.6143  0.1708 -1.1215
  394MOL0     C54267  11.377  10.691   5.013 -0.6341  0.5328 -0.1040
  394MOL0     C54268  11.494  10.733   5.066  0.4107 -0.2816  0.7935
  394MOL0     C54269  11.499  10.832   5.163 -0.4529  0.4836 -0.5861
  394MOL0     O54270  11.616  10.892   5.205 -1.0467 -0.6288  0.1209
  394MOL0     C54271  11.733  10.878   5.128 -0.1429  0.6995 -0.3508
  394MOL0     C54272  11.851  10.931   5.201  0.7780  0.0388 -0.0546
  394MOL0     C54273  11.960  10.974   5.109  1.1625 -0.3452 -0.3184
  394MOL0     C54274  12.088  11.029   5.168 -0.3288  0.4643 -0.3323
  394MOL0     C54275  12.197  11.058   5.065  0.1083 -0.4065 -1.0132
  394MOL0     C54276  12.325  11.130   5.116 -0.2932  0.2817 -0.5389
  394MOL0     C54277  12.374  11.077   5.246  0.0957 -0.2709 -0.3964
  394MOL0     C54278  12.500  11.158   5.304  1.0082  1.1289  0.2467
  394MOL0    Cl54279  12.632  11.164   5.176 -0.4401  0.0229  0.0307
  394MOL0     C54280  11.374  10.884   5.205 -0.4719  0.0437  0.3352
  394MOL0     C54281  11.258  10.842   5.146  0.7043  0.4926 -0.2850
  394MOL0     O54282  11.183  10.481   4.990  0.5634 -0.2688 -0.2070
  394MOL0     C54283  10.857  10.623   4.954 -1.1323 -0.1617 -0.6859
  394MOL0     C54284  10.725  10.594   4.909  0.3629 -1.1935  0.2708
  394MOL0     N54285  10.011  10.765   4.704 -0.1323  0.5185 -0.4331
  394MOL0     N54286   9.927  10.858   4.717  0.1354  0.8488 -0.2269
  394MOL0     C54287   9.454  11.032   5.789 -0.5253 -0.5826 -0.4042
  394MOL0     C54288   9.391  10.950   5.885  0.1130  0.4703  0.2178
  394MOL0     C54289   9.249  10.652   6.198 -0.0025  0.5791 -0.1937
  394MOL0     C54290   9.184  10.524   6.184 -0.1911  0.9681 -0.0862
  394MOL0     C54291   9.127  10.451   6.291 -0.2824 -0.4922  0.2837
  394MOL0     C54292   9.153  10.492   6.421 -0.4225  0.1575 -0.3941
  394MOL0     O54293   9.118  10.434   6.538  0.9747 -0.1948  0.4247
  394MOL0     C54294   9.038  10.312   6.541 -0.8122  0.2450 -0.8558
  394MOL0     C54295   8.911  10.323   6.631  0.4622 -0.2970  0.3632
  394MOL0     C54296   8.951  10.322   6.783 -0.2547 -0.2216 -0.7429
  394MOL0     C54297   8.827  10.307   6.880 -0.9289  0.2739 -0.7281
  394MOL0     C54298   8.729  10.415   6.868  0.4119  0.7489  0.7029
  394MOL0     C54299   8.657  10.510   6.866 -0.3847  0.0086 -0.0397
  394MOL0     C54300   9.241  10.600   6.439  0.6690  0.7689  0.7267
  394MOL0     C54301   9.286  10.675   6.327 -0.0797  0.1947 -0.1115
  394MOL0     C54302   9.378  10.789   6.360 -0.8682 -0.3521 -0.2824
  394MOL0     H54303   9.664  10.772   6.004  3.6437  2.1906  0.3229
  394MOL0     H54304   9.779  10.958   5.889 -1.3108 -1.6599  0.7728
  394MOL0     H54305   9.820  10.967   5.621  3.8286  0.8197  0.7581
  394MOL0     H54306   9.871  11.076   5.745 -0.5694  0.5429  0.9624
  394MOL0     H54307   9.899  11.255   5.588 -1.3601  0.9863 -2.0982
  394MOL0     H54308   9.979  11.108   5.536 -0.4493  0.7445 -1.4651
  394MOL0     H54309   9.720  11.210   5.411 -0.3141 -0.4103  0.8977
  394MOL0     H54310   9.881  11.214   5.351 -0.3936  0.4499  0.0193
  394MOL0     H54311   9.903  10.951   5.344 -0.1258 -0.2265 -4.6214
  394MOL0     H54312   9.739  10.957   5.414  0.0956  0.2263 -0.3130
  394MOL0     H54313   9.662  11.069   5.219 -1.0208 -0.8337  1.2615
  394MOL0     H54314   9.714  10.907   5.195 -0.0654  0.6403 -1.8620
  394MOL0     H54315   9.893  11.158   5.114  0.1232 -0.5303  0.2778
  394MOL0     H54316   9.937  10.992   5.097 -0.4084 -0.4468  0.3460
  394MOL0     H54317   9.692  11.113   4.958 -1.5287 -2.0117 -4.7270
  394MOL0     H54318   9.730  10.940   4.948  0.1768 -0.2154 -0.4700
  394MOL0     H54319   9.793  11.084   4.752 -0.8865  0.1583 -0.2932
  394MOL0     H54320   9.929  11.134   4.855  0.3055  0.3991  1.7709
  394MOL0     H54321  10.103  10.960   4.953  4.5222 -2.0308 -1.4202
  394MOL0     H54322  10.212  10.625   4.888  0.1554  0.2646 -0.1255
  394MOL0     H54323  10.292  10.780   4.898 -1.4083  1.1488  0.7605
  394MOL0     H54324  10.244  10.622   4.633 -1.9686 -0.8981  2.3930
  394MOL0     H54325  10.302  10.782   4.637 -2.8413 -0.1788 -2.1213
  394MOL0     H54326  10.501  10.635   4.622  0.2903 -0.9638 -0.5272
  394MOL0     H54327  10.491  10.718   4.775 -0.0352  0.0648  0.6668
  394MOL0     H54328  10.440  10.506   4.896  1.6735  3.2728 -0.1607
  394MOL0     H54329  10.385  10.431   4.743  3.0427 -3.6293 -1.5612
  394MOL0     H54330  10.772  10.310   4.747  0.8789  0.0987 -0.5726
  394MOL0     H54331  11.105  10.393   4.719 -0.4561 -3.1121 -2.0204
  394MOL0     H54332  11.002  10.262   4.724  0.3130 -0.7746 -0.5437
  394MOL0     H54333  11.109  10.289   4.863  0.1449 -0.8415 -1.4462
  394MOL0     H54334  11.375  10.621   4.930 -0.7741  2.6841 -2.0354
  394MOL0     H54335  11.585  10.692   5.024  1.1968 -0.1709  2.2854
  394MOL0     H54336  11.754  10.774   5.100 -2.3838 -0.1207  0.7688
  394MOL0     H54337  11.716  10.946   5.045 -1.7413  0.7672  0.0153
  394MOL0     H54338  11.827  11.017   5.263 -1.5662 -1.0488  0.6462
  394MOL0     H54339  11.880  10.846   5.263 -1.7721 -1.9360 -1.3520
  394MOL0     H54340  11.915  11.034   5.029  0.6953 -0.3317 -0.0502
  394MOL0     H54341  12.000  10.889   5.054  0.6918  0.2107 -1.5569
  394MOL0     H54342  12.119  10.953   5.240 -0.2299  1.2441  0.4629
  394MOL0     H54343  12.063  11.118   5.226  3.0775  1.5978 -0.3444
  394MOL0     H54344  12.231  10.964   5.020  3.1756 -0.2881  0.7708
  394MOL0     H54345  12.159  11.126   4.988  2.1430  1.1368 -0.7591
  394MOL0     H54346  12.308  11.237   5.130 -1.2447  0.0856 -0.1712
  394MOL0     H54347  12.394  11.106   5.034 -1.1516 -0.2084 -1.1351
  394MOL0     H54348  12.400  10.971   5.232  1.6036  0.0546 -0.2353
  394MOL0     H54349  12.292  11.093   5.316  0.5126  1.9234 -0.3445
  394MOL0     H54350  12.537  11.101   5.389 -1.3057 -0.5033  0.2522
  394MOL0     H54351  12.470  11.257   5.339 -0.5035  0.4071  1.0952
  394MOL0     H54352  11.353  10.970   5.269 -1.6341  1.3660 -1.7075
  394MOL0     H54353  11.174  10.902   5.179  0.1933  0.3550 -1.2899
  394MOL0     H54354  10.877  10.708   5.018 -2.1049  0.0328 -0.6325
  394MOL0     H54355  10.649  10.666   4.939 -0.1137 -0.4251 -2.4206
  394MOL0     H54356   9.397  11.081   5.710 -0.1226  0.6692  0.0547
  394MOL0     H54357   9.284  10.967   5.896  0.3029  1.3956  0.7517
  394MOL0     H54358   9.177  10.485   6.083  3.7218  2.2330 -1.0132
  394MOL0     H54359   9.060  10.370   6.265 -1.3962 -0.0760  1.7364
  394MOL0     H54360   9.007  10.276   6.442 -0.2099  2.5504 -1.9435
  394MOL0     H54361   9.094  10.234   6.593 -0.4863  0.5506 -0.7413
  394MOL0     H54362   8.834  10.249   6.608  0.5264  0.2741 -2.0740
  394MOL0     H54363   8.862  10.413   6.592  1.5719 -0.4421 -1.5324
  394MOL0     H54364   9.010  10.232   6.805 -2.3265 -0.8822  3.2208
  394MOL0     H54365   9.010  10.406   6.821 -0.5289 -0.9651  1.5240
  394MOL0     H54366   8.854  10.280   6.982 -0.6348 -2.0783 -1.3602
  394MOL0     H54367   8.782  10.212   6.849  1.3495 -0.0504 -3.4744
  394MOL0     H54368   8.589  10.593   6.868 -0.5506 -0.1403  1.7712
  394MOL0     H54369   9.258  10.628   6.542 -0.7838  0.3799  1.0938
  394MOL0     H54370   9.400  10.803   6.467  0.7192  0.5338 -0.6884
  394MOL0     H54371   9.474  10.769   6.310 -1.1085 -3.8251  0.4113
  394MOL0     H54372   9.340  10.885   6.324  1.3094 -0.1692 -2.3344
  395MOL0     O54373   9.807   2.135  10.068 -0.2342 -0.0339 -0.7819
  395MOL0     C54374   9.711   2.137  10.139  0.0812  0.3714 -0.9300
  395MOL0     O54375   9.719   2.161  10.276 -0.2638 -0.3135  0.6395
  395MOL0     C54376   9.843   2.198  10.325 -0.9154  0.1135  0.4359
  395MOL0     C54377   9.896   2.321  10.301 -0.2105  0.0690  0.0341
  395MOL0     C54378  10.032   2.349  10.340  0.6753 -0.2096  0.5747
  395MOL0     C54379  10.107   2.262  10.422  0.6269 -0.2562 -0.4488
  395MOL0     O54380  10.237   2.276  10.465  0.8702 -0.5621 -0.0185
  395MOL0     C54381  10.276   2.406  10.498  0.3598 -0.1013 -0.9597
  395MOL0     C54382  10.416   2.408  10.560  0.3095  0.2455 -0.1531
  395MOL0     C54383  10.519   2.441  10.449  0.9996  0.3567  0.4839
  395MOL0     C54384  10.651   2.450  10.511 -0.1294 -0.5491 -0.2238
  395MOL0     C54385  10.753   2.504  10.400  0.3662  0.0257  1.1541
  395MOL0     C54386  10.901   2.517  10.440  0.6165 -0.3140 -0.6878
  395MOL0     C54387  10.984   2.551  10.323 -0.3661 -0.6630  0.1461
  395MOL0     C54388  11.131   2.531  10.353  0.2714 -0.3302  0.1076
  395MOL0     N54389  11.188   2.603  10.466 -0.4051  0.0993  0.6000
  395MOL0     C54390  11.231   2.737  10.480  0.7338  0.2969  0.4356
  395MOL0     C54391  11.291   2.740  10.595  0.8791 -0.0582 -0.1885
  395MOL0     C54392  11.360   2.849  10.653 -1.4778 -0.1311  0.5904
  395MOL0     C54393  11.480   2.799  10.741  0.2215  0.2527 -0.2521
  395MOL0     C54394  11.618   2.791  10.670  1.2536 -0.3281  0.0228
  395MOL0     C54395  11.729   2.840  10.764  0.0800  0.9327  0.3957
  395MOL0     O54396  11.741   2.977  10.744 -0.2044 -0.3372 -0.2163
  395MOL0     C54397  11.866   3.038  10.754  0.7503 -0.0984  0.0932
  395MOL0     C54398  11.899   3.127  10.660 -0.1540  0.6783  1.6267
  395MOL0     C54399  12.026   3.191  10.656  0.2964  0.5271 -0.1729
  395MOL0     C54400  12.055   3.287  10.534 -0.2436  0.1715  0.1868
  395MOL0     C54401  12.121   3.158  10.752  0.5782  0.1291  0.1679
  395MOL0     C54402  12.269   3.196  10.750  0.6043  0.2936 -0.5221
  395MOL0     O54403  12.318   3.287  10.659  0.3371 -0.0181 -0.1833
  395MOL0     C54404  12.449   3.338  10.660 -0.4715  0.3437  0.1415
  395MOL0     C54405  12.501   3.343  10.530 -1.3430  0.2498 -0.1250
  395MOL0     C54406  12.634   3.377  10.504  0.9211  0.0308 -0.4937
  395MOL0     C54407  12.715   3.422  10.613 -0.4829 -0.3499  0.2088
  395MOL0     O54408  12.853   3.465  10.610 -0.0359  0.3883  0.1203
  395MOL0     C54409  12.925   3.490  10.484  0.6175 -0.5144  0.2667
  395MOL0     C54410  13.062   3.550  10.525  0.3507 -0.3050  0.0778
  395MOL0     C54411  13.054   3.692  10.586  0.6047 -0.0425  0.1531
  395MOL0     C54412  13.192   3.748  10.623 -1.2286 -0.4255 -0.3357
  395MOL0     C54413  13.274   3.790  10.505 -0.0806  0.0588  0.8026
  395MOL0     C54414  13.400   3.861  10.557  0.5580  0.3364  0.6308
  395MOL0     C54415  13.494   3.909  10.444 -0.0002 -0.1479  0.2041
  395MOL0     C54416  13.572   3.789  10.376 -0.4158 -0.6404  0.0073
  395MOL0    Cl54417  13.673   3.836  10.232 -0.2801  0.3262 -0.2008
  395MOL0     C54418  12.658   3.423  10.745  0.7579 -0.6628 -0.2884
  395MOL0     C54419  12.528   3.383  10.769 -0.0350  1.7989 -0.0037
  395MOL0     O54420  12.337   3.139  10.836  1.0228  0.3568  0.2083
  395MOL0     C54421  12.081   3.070  10.860 -1.0054 -0.7981  0.4357
  395MOL0     C54422  11.953   3.015  10.851 -0.2745  0.8220  0.2405
  395MOL0     N54423  11.263   2.624  10.668  0.1063 -1.2194 -0.3623
  395MOL0     N54424  11.196   2.550  10.587 -0.5077 -0.5184  0.3257
  395MOL0     C54425  10.051   2.131  10.438 -0.4579 -0.3359 -0.5544
  395MOL0     C54426   9.922   2.099  10.394 -0.6135  0.7019 -0.0904
  395MOL0     C54427   9.580   2.102  10.088  0.0828 -0.6659  0.0374
  395MOL0     C54428   9.468   2.127  10.171 -1.5516  0.9492 -0.5584
  395MOL0     C54429   9.337   2.087  10.126  0.5862 -1.1247 -0.2403
  395MOL0     C54430   9.321   2.024  10.003  0.2518 -0.4448  0.3704
  395MOL0     O54431   9.194   2.001   9.968  0.6158  0.7322  0.2255
  395MOL0     C54432   9.149   2.042   9.833  0.0670  0.1396  0.2132
  395MOL0     C54433   9.106   1.925   9.739 -0.1853 -0.5831 -0.1477
  395MOL0     C54434   8.976   1.856   9.775  0.1683 -0.0899  0.1654
  395MOL0     C54435   8.863   1.963   9.791  0.7306 -0.0206 -0.7144
  395MOL0     C54436   8.732   1.909   9.755 -0.9609 -0.2187  0.1681
  395MOL0     C54437   8.634   1.856   9.711 -0.0052  0.7131 -0.4787
  395MOL0     C54438   9.430   2.003   9.920 -0.3804 -0.1410 -1.1385
  395MOL0     C54439   9.556   2.041   9.961 -0.2761 -0.2076 -0.4677
  395MOL0     C54440   9.669   1.989   9.869  0.8380  0.6650  0.3886
  395MOL0     H54441   9.848   2.391  10.233 -0.3704 -0.0847 -0.0112
  395MOL0     H54442  10.066   2.451  10.324 -3.3187  0.9404 -2.4845
  395MOL0     H54443  10.202   2.437  10.573  1.8443  0.9806  0.1070
  395MOL0     H54444  10.287   2.473  10.413  3.0082 -1.3630 -1.7182
  395MOL0     H54445  10.421   2.483  10.639 -3.2520  0.0404  0.4243
  395MOL0     H54446  10.442   2.309  10.599  0.3797  0.1218 -0.5141
  395MOL0     H54447  10.521   2.363  10.373  1.4365  1.8286 -1.0602
  395MOL0     H54448  10.493   2.540  10.412 -2.7408  0.0963  1.9097
  395MOL0     H54449  10.652   2.512  10.601 -0.0598  1.0898 -1.3030
  395MOL0     H54450  10.670   2.346  10.538 -5.4755 -1.4471  1.0472
  395MOL0     H54451  10.718   2.602  10.368  1.7054 -0.2212 -1.3682
  395MOL0     H54452  10.748   2.431  10.319 -1.2309 -1.0435  2.1717
  395MOL0     H54453  10.910   2.597  10.514  0.7683 -0.7618 -0.2091
  395MOL0     H54454  10.921   2.419  10.485 -0.2692 -0.3471 -0.3324
  395MOL0     H54455  10.967   2.654  10.291 -0.5864 -1.6447 -3.1993
  395MOL0     H54456  10.955   2.490  10.237 -0.4072  1.0674 -1.1172
  395MOL0     H54457  11.129   2.423  10.373 -1.1008 -0.1330  1.1523
  395MOL0     H54458  11.188   2.562  10.264  1.1081  1.8446  1.3324
  395MOL0     H54459  11.229   2.819  10.409 -1.7443  1.6781  1.9942
  395MOL0     H54460  11.298   2.916  10.713  1.3850  1.8422  1.5342
  395MOL0     H54461  11.389   2.914  10.570  0.0432  0.4051  1.5035
  395MOL0     H54462  11.492   2.875  10.820  3.6377  0.7621 -1.1053
  395MOL0     H54463  11.449   2.714  10.802  0.4375  0.5316  0.2554
  395MOL0     H54464  11.631   2.685  10.644  0.1640 -0.3899 -0.3006
  395MOL0     H54465  11.607   2.846  10.576 -1.1234  0.7292  0.8700
  395MOL0     H54466  11.710   2.811  10.868 -0.1279  2.1178  0.7093
  395MOL0     H54467  11.825   2.804  10.728  0.3296  3.5156 -1.8924
  395MOL0     H54468  11.821   3.145  10.587  2.5202 -0.1790 -1.7237
  395MOL0     H54469  11.964   3.294  10.473 -0.8483 -2.6870  0.5920
  395MOL0     H54470  12.134   3.249  10.468 -0.9622 -0.5261 -0.2955
  395MOL0     H54471  12.076   3.388  10.570  0.0004  0.7935 -1.5956
  395MOL0     H54472  12.436   3.315  10.448 -3.4206  1.7183  0.9093
  395MOL0     H54473  12.666   3.381  10.400  0.2221  0.2163 -0.7035
  395MOL0     H54474  12.932   3.396  10.428  0.9101 -0.8383  0.8458
  395MOL0     H54475  12.871   3.557  10.417  0.9792 -1.8071 -1.4003
  395MOL0     H54476  13.107   3.479  10.595  0.5970 -1.0961 -0.8508
  395MOL0     H54477  13.128   3.555  10.438 -1.3256 -0.5853 -1.2493
  395MOL0     H54478  12.988   3.682  10.673  2.4552  0.9368  1.7576
  395MOL0     H54479  13.008   3.760  10.514  0.6337  0.6334  0.7569
  395MOL0     H54480  13.253   3.674  10.676 -1.2850  1.1677  2.1543
  395MOL0     H54481  13.186   3.839  10.685  3.1841 -0.6231  0.7219
  395MOL0     H54482  13.297   3.703  10.442  4.2939  2.0563 -0.7632
  395MOL0     H54483  13.221   3.857  10.437 -1.9024 -0.6674  1.4502
  395MOL0     H54484  13.458   3.804  10.629  2.2466 -0.3162 -1.1803
  395MOL0     H54485  13.349   3.941  10.613 -3.9208 -0.7413 -1.4290
  395MOL0     H54486  13.566   3.980  10.486 -0.0433  0.1478 -0.2076
  395MOL0     H54487  13.431   3.952  10.366  0.1828 -1.0125 -0.4304
  395MOL0     H54488  13.492   3.727  10.335  1.1205 -1.5411 -1.8178
  395MOL0     H54489  13.633   3.728  10.444 -0.8994 -1.3029 -0.1487
  395MOL0     H54490  12.720   3.448  10.830 -0.5988 -1.4827  1.0002
  395MOL0     H54491  12.495   3.379  10.872  1.3948  3.2070  0.5595
  395MOL0     H54492  12.142   3.037  10.944 -0.1773  0.5519  0.4012
  395MOL0     H54493  11.924   2.953  10.935  0.7265  2.5373  1.9141
  395MOL0     H54494  10.109   2.057  10.493  2.0943  1.1005 -1.1208
  395MOL0     H54495   9.888   1.997  10.406 -1.1590  0.6635 -1.6844
  395MOL0     H54496   9.481   2.163  10.273 -1.2933 -1.5805  0.3836
  395MOL0     H54497   9.247   2.102  10.186  1.3677 -0.7923  0.8731
  395MOL0     H54498   9.070   2.117   9.842 -1.0357 -0.9117 -0.3980
  395MOL0     H54499   9.221   2.100   9.776  0.0512 -0.2374 -0.1891
  395MOL0     H54500   9.192   1.858   9.736  0.8327  0.6946 -1.2080
  395MOL0     H54501   9.096   1.964   9.637 -0.5988 -2.5636 -0.9061
  395MOL0     H54502   8.957   1.776   9.704  1.6393 -3.3185  3.1069
  395MOL0     H54503   8.992   1.809   9.873  2.5980  2.8813  1.3612
  395MOL0     H54504   8.892   2.047   9.728  3.1686 -0.2819 -0.0546
  395MOL0     H54505   8.854   2.005   9.892 -1.6791 -1.3502 -0.2884
  395MOL0     H54506   8.544   1.810   9.677  0.2130  0.4897 -0.7549
  395MOL0     H54507   9.412   1.951   9.827 -1.5767 -2.4074  0.2685
  395MOL0     H54508   9.740   1.928   9.926  1.3483  2.8206  2.1728
  395MOL0     H54509   9.623   1.944   9.781  0.1454  2.0212  0.0408
  395MOL0     H54510   9.719   2.079   9.835  0.0580  1.0578  0.2631
  396MOL0     O54511  10.921   1.282  11.351  0.2488 -0.0350  0.3125
  396MOL0     C54512  10.861   1.180  11.339 -0.1545  0.9027 -1.4362
  396MOL0     O54513  10.918   1.056  11.343  0.4597 -0.5743  0.5592
  396MOL0     C54514  11.052   1.032  11.323 -0.1343 -0.7119  0.9133
  396MOL0     C54515  11.139   1.003  11.426 -0.1029 -1.1423  0.1508
  396MOL0     C54516  11.272   0.977  11.410 -0.1628 -0.5384 -0.3612
  396MOL0     C54517  11.325   0.967  11.279 -0.4383  0.1036 -0.1460
  396MOL0     O54518  11.453   0.942  11.245 -0.2521 -0.4439 -0.3607
  396MOL0     C54519  11.553   0.898  11.336 -0.5066  0.0050  0.2069
  396MOL0     C54520  11.687   0.914  11.264  0.1932 -0.4403  0.1710
  396MOL0     C54521  11.722   0.807  11.162 -0.3799  0.1813 -0.3451
  396MOL0     C54522  11.771   0.688  11.237  0.1070  0.3139 -0.2130
  396MOL0     C54523  11.830   0.578  11.149 -0.3204 -0.9267  0.2049
  396MOL0     C54524  11.735   0.462  11.113 -0.1452  0.6563 -0.2210
  396MOL0     C54525  11.624   0.506  11.016 -0.6678 -0.3019 -0.0585
  396MOL0     C54526  11.568   0.386  10.937 -0.1323 -0.1273  0.4800
  396MOL0     N54527  11.470   0.440  10.842 -0.4286  0.2533 -0.6891
  396MOL0     C54528  11.340   0.415  10.838  0.7702 -0.2833  0.4738
  396MOL0     C54529  11.305   0.449  10.708  0.1400 -0.3426  0.1296
  396MOL0     C54530  11.160   0.449  10.665 -0.5653 -0.2213 -0.1547
  396MOL0     C54531  11.122   0.318  10.593 -0.5178  0.2628  1.0705
  396MOL0     C54532  10.976   0.315  10.533 -0.3364 -0.2517  0.2652
  396MOL0     C54533  10.918   0.175  10.555  0.3243  1.1831 -0.3695
  396MOL0     O54534  10.776   0.171  10.536 -0.7395 -0.2624 -0.4970
  396MOL0     C54535  10.690   0.201  10.640  0.2481 -0.1019 -0.8070
  396MOL0     C54536  10.738   0.237  10.767  1.0787  0.2553  0.3648
  396MOL0     C54537  10.646   0.263  10.874 -0.0161 -0.2109 -0.8461
  396MOL0     C54538  10.707   0.304  11.005 -0.0747  0.2899 -0.9038
  396MOL0     C54539  10.500   0.257  10.848  0.3955  0.1563  0.0058
  396MOL0     C54540  10.396   0.295  10.949 -0.3233 -0.2892  0.0811
  396MOL0     O54541  10.261   0.266  10.931 -0.4418 -0.6523  0.5310
  396MOL0     C54542  10.180   0.311  11.032 -0.3603  0.1203 -0.0716
  396MOL0     C54543  10.121   0.429  11.017 -0.0162  0.0273  0.7909
  396MOL0     C54544  10.040   0.485  11.120  0.0679  0.4167  0.1130
  396MOL0     C54545  10.028   0.412  11.244  0.6397  0.6170  1.0432
  396MOL0     O54546   9.937   0.452  11.336 -0.4195 -0.0845 -0.1647
  396MOL0     C54547   9.957   0.397  11.473  0.5341 -0.7952  0.3144
  396MOL0     C54548   9.847   0.448  11.562 -0.6044  1.0491 -0.2359
  396MOL0     C54549   9.860   0.401  11.705 -0.4149 -0.6169 -0.2384
  396MOL0     C54550   9.749   0.437  11.796 -0.3338 -0.4000  0.3734
  396MOL0     C54551   9.741   0.356  11.931  0.6034  0.4179 -0.0340
  396MOL0     C54552   9.591   0.315  11.963 -0.3658  0.4594  0.1928
  396MOL0     C54553   9.549   0.201  11.875 -0.2323  1.1678  0.2767
  396MOL0     C54554   9.425   0.129  11.911  0.6736 -0.5065  0.5383
  396MOL0    Cl54555   9.402  -0.020  11.814  0.2175 -0.1608  0.4897
  396MOL0     C54556  10.103   0.296  11.254 -0.0732  1.1170 -0.6467
  396MOL0     C54557  10.177   0.241  11.152 -1.6241  0.0457 -0.2707
  396MOL0     O54558  10.436   0.366  11.036  0.0534 -0.2421  0.3001
  396MOL0     C54559  10.460   0.232  10.717 -0.1820 -0.0002  0.5458
  396MOL0     C54560  10.552   0.194  10.621  0.0269  0.4657  0.0243
  396MOL0     N54561  11.415   0.483  10.640  0.8113 -0.1652  0.5049
  396MOL0     N54562  11.506   0.486  10.725 -0.5883 -0.0772  0.4756
  396MOL0     C54563  11.247   0.987  11.170  0.7144 -0.1569 -0.0985
  396MOL0     C54564  11.108   1.030  11.190 -0.2989  0.3970 -0.0223
  396MOL0     C54565  10.709   1.179  11.326 -0.0447 -0.2207  0.1114
  396MOL0     C54566  10.641   1.056  11.309  0.2711 -0.8497 -0.0280
  396MOL0     C54567  10.503   1.053  11.286 -0.2491 -0.2386  0.5876
  396MOL0     C54568  10.424   1.168  11.278 -0.8978  0.0369 -0.6768
  396MOL0     O54569  10.286   1.177  11.269  0.0611  0.8095 -0.0112
  396MOL0     C54570  10.216   1.048  11.250  0.0221  0.0591  0.6393
  396MOL0     C54571  10.245   0.991  11.112  0.3892 -0.2278  0.5020
  396MOL0     C54572  10.147   0.871  11.081 -0.2219 -0.3757 -0.3035
  396MOL0     C54573  10.180   0.801  10.950  0.6256 -0.3474  0.5931
  396MOL0     C54574  10.313   0.742  10.943 -0.0536 -0.2628 -0.3638
  396MOL0     C54575  10.417   0.682  10.933 -1.0468  0.5756  0.1817
  396MOL0     C54576  10.500   1.289  11.301  0.0950  0.4568 -1.3451
  396MOL0     C54577  10.636   1.301  11.320 -0.3004 -0.1273  0.8137
  396MOL0     C54578  10.690   1.438  11.340  0.4531  0.5481 -0.2984
  396MOL0     H54579  11.090   1.008  11.523 -0.8422  2.7596 -0.2703
  396MOL0     H54580  11.337   0.960  11.495 -0.9287 -1.7726  0.0044
  396MOL0     H54581  11.536   0.793  11.362  2.6192 -0.4742  0.6519
  396MOL0     H54582  11.561   0.966  11.421  0.2688 -0.5602  0.5981
  396MOL0     H54583  11.684   1.005  11.203 -3.4498 -0.2739  0.3401
  396MOL0     H54584  11.769   0.919  11.336 -0.8321 -1.2369  1.4545
  396MOL0     H54585  11.641   0.776  11.094 -0.0093  0.7297 -1.0473
  396MOL0     H54586  11.800   0.855  11.102 -0.4599 -1.6739 -2.0494
  396MOL0     H54587  11.840   0.709  11.320  0.5494 -0.8293 -0.2826
  396MOL0     H54588  11.684   0.641  11.282  0.5758 -1.5156 -1.1384
  396MOL0     H54589  11.909   0.530  11.207 -0.1608 -0.8853  0.0227
  396MOL0     H54590  11.874   0.621  11.058 -2.2326  1.8189  0.4582
  396MOL0     H54591  11.783   0.369  11.083 -1.5680  0.3365 -1.6777
  396MOL0     H54592  11.671   0.433  11.197 -1.3806 -1.2919 -1.7386
  396MOL0     H54593  11.666   0.584  10.952 -1.3543 -1.2024 -1.6638
  396MOL0     H54594  11.546   0.557  11.073 -0.8566  1.7521 -2.0105
  396MOL0     H54595  11.657   0.343  10.890  1.7031  2.9542  0.8379
  396MOL0     H54596  11.510   0.312  10.993 -1.5420 -0.1179 -0.8931
  396MOL0     H54597  11.286   0.373  10.922 -0.2329 -1.0151 -0.5057
  396MOL0     H54598  11.141   0.528  10.591  2.4863  0.6049 -0.1611
  396MOL0     H54599  11.091   0.455  10.749 -0.5157 -1.9410  0.0500
  396MOL0     H54600  11.189   0.294  10.511 -1.3457 -2.0122  1.0023
  396MOL0     H54601  11.144   0.237  10.664  1.4007 -1.3534 -1.2309
  396MOL0     H54602  10.915   0.382  10.594  0.2093  0.8495 -0.3650
  396MOL0     H54603  10.980   0.341  10.427  2.3233 -2.8829 -0.4126
  396MOL0     H54604  10.957   0.095  10.491 -0.4855 -0.2939  0.9335
  396MOL0     H54605  10.948   0.136  10.652  1.5888  0.5663 -0.9795
  396MOL0     H54606  10.846   0.241  10.781  0.9913  2.1242  0.8467
  396MOL0     H54607  10.662   0.254  11.090 -0.5601 -0.4925 -1.6075
  396MOL0     H54608  10.698   0.412  11.019 -0.7151  0.2128 -0.7116
  396MOL0     H54609  10.813   0.274  11.005 -0.2179 -0.2858 -2.0825
  396MOL0     H54610  10.127   0.470  10.917 -3.0659 -0.4758  0.2815
  396MOL0     H54611   9.985   0.578  11.109  0.7405  1.2062  2.7994
  396MOL0     H54612   9.964   0.289  11.485  0.3041 -0.8936 -0.3814
  396MOL0     H54613  10.050   0.446  11.503 -0.8363  3.2334 -1.2854
  396MOL0     H54614   9.854   0.556  11.579  3.0499  1.0539 -0.8463
  396MOL0     H54615   9.749   0.438  11.516 -1.3892  1.6259  1.2416
  396MOL0     H54616   9.955   0.439  11.744 -0.2860 -1.8801  0.7156
  396MOL0     H54617   9.874   0.294  11.692 -0.0426 -0.3184 -2.7688
  396MOL0     H54618   9.664   0.403  11.735 -1.6725 -0.3400  2.1378
  396MOL0     H54619   9.748   0.545  11.812  1.7617  0.4424 -3.8268
  396MOL0     H54620   9.807   0.268  11.930  2.1220  1.5138  0.5050
  396MOL0     H54621   9.782   0.425  12.006 -0.0959  0.2550  0.5067
  396MOL0     H54622   9.525   0.398  11.937 -1.0793 -0.7397 -2.0479
  396MOL0     H54623   9.579   0.294  12.070  2.3242  2.2129  0.9437
  396MOL0     H54624   9.621   0.119  11.874 -1.4787 -0.0387 -3.2025
  396MOL0     H54625   9.539   0.238  11.773  0.9302 -0.5760 -0.5151
  396MOL0     H54626   9.344   0.200  11.892  0.3154  0.4634  4.6556
  396MOL0     H54627   9.422   0.112  12.019 -2.2836  1.7738  0.9547
  396MOL0     H54628  10.102   0.249  11.351  0.1793  0.1765 -1.0883
  396MOL0     H54629  10.239   0.153  11.163 -1.2386  0.1663 -1.4030
  396MOL0     H54630  10.356   0.216  10.688 -0.2216  2.7605 -1.2740
  396MOL0     H54631  10.509   0.170  10.524 -1.2908 -2.6202  1.2169
  396MOL0     H54632  11.284   0.984  11.068 -0.2390  0.1421 -0.4675
  396MOL0     H54633  11.044   1.043  11.104  2.3076  1.5492 -1.9344
  396MOL0     H54634  10.698   0.964  11.306  0.4754 -0.7077 -0.7953
  396MOL0     H54635  10.453   0.957  11.280 -1.9732  0.5764  1.1605
  396MOL0     H54636  10.233   0.964  11.318  2.6624 -0.1684 -0.2004
  396MOL0     H54637  10.108   1.069  11.255  0.3337  2.6680 -1.2448
  396MOL0     H54638  10.352   0.967  11.109  0.6117  0.1121  3.2292
  396MOL0     H54639  10.222   1.068  11.037 -4.3632 -2.7415 -1.0477
  396MOL0     H54640  10.151   0.800  11.164 -2.2432  0.4851  0.5902
  396MOL0     H54641  10.043   0.902  11.072  0.1191  0.3726 -1.9505
  396MOL0     H54642  10.169   0.877  10.872  0.3006  1.5012  2.3420
  396MOL0     H54643  10.110   0.719  10.937  2.0606 -1.4725 -0.2073
  396MOL0     H54644  10.512   0.634  10.923 -2.6188 -3.3163  1.9784
  396MOL0     H54645  10.441   1.379  11.312  0.9477  0.7400  4.6800
  396MOL0     H54646  10.770   1.474  11.275  4.4400 -1.2145  3.1432
  396MOL0     H54647  10.603   1.504  11.335 -1.1892 -1.5354 -1.0564
  396MOL0     H54648  10.722   1.456  11.443 -0.5695  1.9308 -0.1969
  397MOL0     O54649   1.956   4.710   7.201  0.6950  0.2524  0.0061
  397MOL0     C54650   1.922   4.772   7.102 -0.2644  0.6286 -0.5285
  397MOL0     O54651   2.006   4.858   7.032  0.0096 -0.2096  0.6334
  397MOL0     C54652   2.141   4.878   7.070 -0.9473  0.1023  0.1879
  397MOL0     C54653   2.164   4.973   7.173 -0.0208  0.6054 -0.1150
  397MOL0     C54654   2.297   4.996   7.220  0.1996 -0.0935  0.0814
  397MOL0     C54655   2.405   4.940   7.153 -0.4184 -0.4594  0.5555
  397MOL0     O54656   2.531   4.981   7.200  0.3014  0.2944 -0.6015
  397MOL0     C54657   2.654   4.969   7.131 -0.8477  0.2771 -0.3407
  397MOL0     C54658   2.663   5.075   7.020 -0.7750  0.0885 -0.3840
  397MOL0     C54659   2.802   5.098   6.959  0.4671  0.2206 -0.1365
  397MOL0     C54660   2.899   5.178   7.053 -0.3831 -0.2927  0.6435
  397MOL0     C54661   3.027   5.208   6.986  0.0391  0.1078  0.2684
  397MOL0     C54662   3.139   5.280   7.068  0.3668  0.2628 -0.2576
  397MOL0     C54663   3.104   5.430   7.083  0.0124 -0.8829 -0.4909
  397MOL0     C54664   3.182   5.493   7.200  0.2905 -0.5048  0.1331
  397MOL0     N54665   3.327   5.442   7.214 -0.5374 -0.6223 -0.0901
  397MOL0     C54666   3.438   5.495   7.143  0.5374  1.5850  0.5821
  397MOL0     C54667   3.543   5.455   7.220 -0.2008 -0.3072  0.6793
  397MOL0     C54668   3.683   5.463   7.168 -0.8040 -0.1214 -0.0273
  397MOL0     C54669   3.768   5.554   7.264 -0.5087 -0.2330  1.1869
  397MOL0     C54670   3.722   5.703   7.254  1.0677  0.4855  0.5237
  397MOL0     C54671   3.812   5.800   7.317 -0.4050 -0.4551  0.5711
  397MOL0     O54672   3.942   5.804   7.243  0.2109  0.0168  0.6653
  397MOL0     C54673   4.036   5.897   7.284  0.1175  0.0710  0.6972
  397MOL0     C54674   4.013   6.032   7.320 -0.8378  0.2393 -0.0815
  397MOL0     C54675   4.117   6.113   7.365 -0.4474 -0.1467  0.2647
  397MOL0     C54676   4.065   6.249   7.405 -0.0944 -0.3735 -0.0658
  397MOL0     C54677   4.253   6.069   7.359 -0.4443 -0.5013 -0.1626
  397MOL0     C54678   4.369   6.145   7.423  0.6786 -0.2036  0.7667
  397MOL0     O54679   4.459   6.074   7.490 -0.0359 -0.2743  0.2965
  397MOL0     C54680   4.579   6.135   7.512  1.0228 -0.3417  0.5728
  397MOL0     C54681   4.625   6.149   7.644  0.1975  0.1121 -0.1463
  397MOL0     C54682   4.762   6.198   7.656 -0.3879  0.5196 -0.7989
  397MOL0     C54683   4.845   6.236   7.545  0.5245 -0.5989  0.4039
  397MOL0     O54684   4.972   6.286   7.545 -0.1946 -0.3061  0.3116
  397MOL0     C54685   5.038   6.297   7.673  0.1433  0.9902  0.2319
  397MOL0     C54686   5.184   6.350   7.638 -0.2606  0.0675  0.1454
  397MOL0     C54687   5.253   6.239   7.557 -0.0683  0.6276 -0.2396
  397MOL0     C54688   5.402   6.293   7.532 -0.2605  0.0455 -0.2482
  397MOL0     C54689   5.501   6.213   7.455 -0.1135 -0.1540 -0.0343
  397MOL0     C54690   5.478   6.181   7.307 -0.0241  0.0158  0.3354
  397MOL0     C54691   5.508   6.304   7.212 -0.8290 -0.4418 -0.1006
  397MOL0     C54692   5.506   6.255   7.069  0.7330 -0.6103  0.2476
  397MOL0    Cl54693   5.658   6.165   7.046  0.4052  0.2635  0.3520
  397MOL0     C54694   4.788   6.206   7.417  0.5286  0.4981  0.4008
  397MOL0     C54695   4.659   6.161   7.401 -0.3181 -0.0466 -0.1928
  397MOL0     O54696   4.383   6.259   7.369 -0.2455  0.6453  0.1533
  397MOL0     C54697   4.272   5.944   7.308 -1.2085  0.0571  0.1847
  397MOL0     C54698   4.169   5.861   7.269 -0.4780 -0.2257 -0.1659
  397MOL0     N54699   3.495   5.377   7.330 -0.1132  0.2023 -0.3694
  397MOL0     N54700   3.361   5.368   7.322 -0.8420 -0.4923 -0.2292
  397MOL0     C54701   2.382   4.837   7.057 -0.0462  0.9937 -0.4703
  397MOL0     C54702   2.248   4.805   7.018  0.2937 -0.1425  0.1656
  397MOL0     C54703   1.785   4.736   7.052 -0.1132  0.7229  0.0704
  397MOL0     C54704   1.661   4.760   7.120 -0.4298  0.1207 -0.4150
  397MOL0     C54705   1.534   4.740   7.067  0.0094  0.4308 -0.4034
  397MOL0     C54706   1.522   4.694   6.937  0.4685 -1.3617 -0.3510
  397MOL0     O54707   1.410   4.643   6.880  0.1340 -0.5224 -0.4253
  397MOL0     C54708   1.299   4.727   6.898 -0.3658  0.5645 -0.2345
  397MOL0     C54709   1.195   4.727   6.785  0.0710 -0.9087 -0.3620
  397MOL0     C54710   1.081   4.636   6.822  1.0752  0.4384  0.3068
  397MOL0     C54711   0.996   4.628   6.701  0.4835 -0.3708  0.1755
  397MOL0     C54712   0.903   4.511   6.705 -0.0120 -0.0487 -1.0359
  397MOL0     C54713   0.835   4.412   6.719 -0.1313  0.5445  0.0260
  397MOL0     C54714   1.641   4.660   6.866 -0.1626 -0.0079 -0.1513
  397MOL0     C54715   1.770   4.687   6.917 -0.9361 -0.5618  0.3065
  397MOL0     C54716   1.890   4.653   6.826 -0.2705  0.2349 -0.0799
  397MOL0     H54717   2.075   5.004   7.228 -0.3154  0.0264 -0.2633
  397MOL0     H54718   2.312   5.061   7.306 -4.0754 -1.3296  2.0050
  397MOL0     H54719   2.662   4.875   7.076  0.7192 -0.1218  0.4844
  397MOL0     H54720   2.730   4.970   7.210 -1.0178  1.0826 -0.1774
  397MOL0     H54721   2.589   5.048   6.944 -2.5986  1.8485  0.6532
  397MOL0     H54722   2.627   5.173   7.052 -1.5406 -0.3226  0.0366
  397MOL0     H54723   2.844   5.000   6.933 -0.9830  0.1358 -2.4715
  397MOL0     H54724   2.798   5.157   6.867  0.4180  0.3752 -0.0347
  397MOL0     H54725   2.855   5.276   7.074  2.9801  1.4061  0.4690
  397MOL0     H54726   2.911   5.128   7.149 -1.1502 -0.0790  0.8595
  397MOL0     H54727   3.003   5.270   6.899  1.0113 -1.3026 -1.0469
  397MOL0     H54728   3.066   5.113   6.948 -3.5944 -2.3122  1.9480
  397MOL0     H54729   3.147   5.229   7.164 -2.4791 -1.8960 -1.0461
  397MOL0     H54730   3.232   5.271   7.010  0.0919  1.2882 -0.8821
  397MOL0     H54731   2.998   5.434   7.106  0.2284  1.7599  0.4200
  397MOL0     H54732   3.112   5.491   6.992  0.7897  0.0121  0.1596
  397MOL0     H54733   3.188   5.602   7.206  1.7559 -0.6489  2.9673
  397MOL0     H54734   3.120   5.474   7.288 -2.6053 -0.4712 -1.7954
  397MOL0     H54735   3.436   5.546   7.048  2.5990  0.1705 -0.3060
  397MOL0     H54736   3.679   5.500   7.065  2.2009 -2.0746 -0.9991
  397MOL0     H54737   3.720   5.360   7.164  0.7541  0.3275  1.5573
  397MOL0     H54738   3.761   5.505   7.362 -1.3635 -2.4542  0.0944
  397MOL0     H54739   3.871   5.552   7.227 -0.7626  2.3687  0.1777
  397MOL0     H54740   3.709   5.733   7.149  1.4537  1.2576  0.6861
  397MOL0     H54741   3.623   5.702   7.300 -1.0002  0.0333 -3.4257
  397MOL0     H54742   3.760   5.895   7.308  3.5475  1.8162 -0.8237
  397MOL0     H54743   3.826   5.784   7.425  1.4473  2.4710  0.8679
  397MOL0     H54744   3.908   6.060   7.316 -0.6879  0.6859 -2.8708
  397MOL0     H54745   4.138   6.306   7.463 -1.3246 -1.3566  2.6349
  397MOL0     H54746   3.990   6.233   7.483  1.7233 -0.8519  1.6569
  397MOL0     H54747   4.022   6.305   7.321  2.1034 -0.3494 -1.2397
  397MOL0     H54748   4.567   6.114   7.728  0.5829  0.4551  0.2683
  397MOL0     H54749   4.801   6.202   7.757  0.6356 -0.8499 -1.1121
  397MOL0     H54750   4.983   6.363   7.740  0.2886 -0.7987  2.2152
  397MOL0     H54751   5.045   6.203   7.728 -0.9519 -0.0929 -1.4015
  397MOL0     H54752   5.177   6.446   7.584 -0.1849 -1.3990 -2.6803
  397MOL0     H54753   5.234   6.357   7.735  0.0093  0.1713  0.0017
  397MOL0     H54754   5.199   6.217   7.465 -1.1014  0.6734  0.3488
  397MOL0     H54755   5.260   6.146   7.614  0.7767 -1.8331 -3.9717
  397MOL0     H54756   5.452   6.294   7.629 -1.2954 -0.3919  0.3033
  397MOL0     H54757   5.406   6.388   7.478 -2.5892  0.0282 -0.5336
  397MOL0     H54758   5.606   6.237   7.470  0.2939 -1.2759 -0.9265
  397MOL0     H54759   5.492   6.117   7.506 -2.1088  0.6223  1.1799
  397MOL0     H54760   5.374   6.148   7.303  0.4552 -1.6120  0.4221
  397MOL0     H54761   5.543   6.097   7.280  2.3842  1.5039  1.1380
  397MOL0     H54762   5.599   6.358   7.240 -1.3497  0.3469  0.1064
  397MOL0     H54763   5.434   6.384   7.218  0.2458  0.6187 -0.5709
  397MOL0     H54764   5.487   6.333   6.995  1.5330 -1.3599 -0.7640
  397MOL0     H54765   5.424   6.183   7.058  0.7290 -0.2461 -3.2159
  397MOL0     H54766   4.844   6.227   7.326 -0.7903  1.1070 -0.2846
  397MOL0     H54767   4.636   6.132   7.299  0.6093  1.6729 -0.9312
  397MOL0     H54768   4.375   5.911   7.292 -1.2450 -0.3806  0.8266
  397MOL0     H54769   4.181   5.767   7.216  0.0150  1.3019 -2.9827
  397MOL0     H54770   2.459   4.780   7.007 -1.3820 -1.3378  0.0147
  397MOL0     H54771   2.226   4.723   6.950  0.5243 -0.9871  1.0868
  397MOL0     H54772   1.657   4.799   7.221  1.7036 -0.9905  0.1543
  397MOL0     H54773   1.451   4.764   7.133 -0.1679  3.1816 -1.5056
  397MOL0     H54774   1.261   4.710   6.999  1.1686 -2.0287  0.0194
  397MOL0     H54775   1.333   4.831   6.902 -3.4096  1.7290 -1.7401
  397MOL0     H54776   1.248   4.680   6.702 -0.4326 -0.7314 -0.7849
  397MOL0     H54777   1.160   4.828   6.760  0.7488 -0.8302 -1.0274
  397MOL0     H54778   1.129   4.541   6.848 -1.6009 -1.4897 -1.3052
  397MOL0     H54779   1.024   4.679   6.905  0.9789 -1.3419  1.2324
  397MOL0     H54780   1.064   4.622   6.615  2.4863 -0.2348  1.6864
  397MOL0     H54781   0.931   4.716   6.702 -1.8505 -1.9815 -1.0727
  397MOL0     H54782   0.774   4.324   6.711  1.1400 -0.4005  0.4509
  397MOL0     H54783   1.627   4.625   6.765  0.5206 -1.7550  0.3288
  397MOL0     H54784   1.883   4.719   6.739  0.3064  0.0494 -0.2707
  397MOL0     H54785   1.995   4.663   6.858  0.5995 -1.2617 -2.2699
  397MOL0     H54786   1.881   4.548   6.797 -2.1400  0.2431  0.3229
  398MOL0     O54787   2.407   2.165   4.195  0.5065  0.1499 -0.4142
  398MOL0     C54788   2.481   2.111   4.109  0.2612 -0.4772  0.2570
  398MOL0     O54789   2.519   2.165   3.984 -0.1431  0.5348  0.0046
  398MOL0     C54790   2.464   2.275   3.932  0.4719  0.3970 -0.4634
  398MOL0     C54791   2.323   2.282   3.901 -0.1456  0.4244 -0.5119
  398MOL0     C54792   2.273   2.398   3.844  0.1168 -0.2530  0.5458
  398MOL0     C54793   2.359   2.509   3.804 -0.0904  0.8301 -0.1317
  398MOL0     O54794   2.327   2.618   3.727 -0.2845 -0.6151 -0.2390
  398MOL0     C54795   2.205   2.615   3.652 -0.3494 -0.1519  0.8048
  398MOL0     C54796   2.212   2.731   3.550  0.3837  0.1575  0.2365
  398MOL0     C54797   2.087   2.729   3.459  0.2830  0.7396 -0.6769
  398MOL0     C54798   2.078   2.859   3.376 -0.2691 -0.1018 -0.5881
  398MOL0     C54799   2.195   2.884   3.284  0.7789  0.5081 -0.8962
  398MOL0     C54800   2.243   2.761   3.207  0.0874  0.3588 -0.5854
  398MOL0     C54801   2.360   2.780   3.122  0.7646  0.2328 -0.2620
  398MOL0     C54802   2.479   2.819   3.202  0.3272  0.0911 -0.7710
  398MOL0     N54803   2.598   2.822   3.124  0.2672 -0.6659 -0.2236
  398MOL0     C54804   2.637   2.923   3.041  0.1022 -0.1877 -0.4056
  398MOL0     C54805   2.751   2.877   2.975 -0.3238 -0.3184 -0.5125
  398MOL0     C54806   2.839   2.961   2.879  0.2909  0.0382  0.5865
  398MOL0     C54807   2.775   2.958   2.738  0.5975  0.3793 -0.7495
  398MOL0     C54808   2.864   3.045   2.652 -0.6605 -0.1735 -0.1872
  398MOL0     C54809   3.015   2.994   2.637 -0.0989  0.5298 -0.3982
  398MOL0     O54810   3.015   2.849   2.639  0.5947  0.6292 -0.0526
  398MOL0     C54811   3.010   2.805   2.513  0.5108  0.4388  0.9690
  398MOL0     C54812   3.129   2.824   2.436  0.8176  0.1300  0.0242
  398MOL0     C54813   3.138   2.744   2.316  0.0826 -0.6592  0.5888
  398MOL0     C54814   3.265   2.773   2.239 -0.8861 -0.4793  0.7626
  398MOL0     C54815   3.038   2.649   2.284 -0.0083  0.8567  0.3323
  398MOL0     C54816   3.068   2.549   2.169 -0.1320  0.1068  0.5811
  398MOL0     O54817   2.970   2.519   2.080 -0.2905  0.5347 -0.7184
  398MOL0     C54818   3.003   2.458   1.960 -0.1542  0.8864 -0.2046
  398MOL0     C54819   2.986   2.537   1.848  0.8972  1.2612 -0.4014
  398MOL0     C54820   3.026   2.478   1.729  0.0818 -0.0662  1.0883
  398MOL0     C54821   3.080   2.350   1.719  0.2672  0.0243  0.2980
  398MOL0     O54822   3.125   2.286   1.613  0.6039  0.5246  0.2912
  398MOL0     C54823   3.110   2.343   1.483  0.2791  1.2965 -0.5703
  398MOL0     C54824   3.171   2.250   1.378  0.1844 -0.6353 -0.7611
  398MOL0     C54825   3.320   2.243   1.393 -0.0836 -0.2737 -0.1250
  398MOL0     C54826   3.382   2.145   1.294 -0.2821  0.0466  0.9488
  398MOL0     C54827   3.531   2.121   1.333  0.5491 -0.1370  0.8203
  398MOL0     C54828   3.620   2.041   1.237  0.8928 -0.1001 -1.1904
  398MOL0     C54829   3.667   2.124   1.119 -0.3064  0.0906  0.0673
  398MOL0     C54830   3.665   2.062   0.980  0.1877  0.4901 -0.4875
  398MOL0    Cl54831   3.505   2.071   0.907  0.4131  0.2016  0.0131
  398MOL0     C54832   3.091   2.277   1.837 -0.0834 -0.3275 -0.7208
  398MOL0     C54833   3.066   2.335   1.964 -0.2882  0.4287 -0.8974
  398MOL0     O54834   3.179   2.501   2.170  0.4165 -0.2796 -0.0998
  398MOL0     C54835   2.918   2.639   2.368  0.2500 -0.1872 -0.3909
  398MOL0     C54836   2.909   2.721   2.479  0.0373 -0.2788 -0.5481
  398MOL0     N54837   2.778   2.750   3.020 -0.7646  0.8477 -0.3417
  398MOL0     N54838   2.686   2.722   3.113 -0.7247  0.5671 -0.1961
  398MOL0     C54839   2.495   2.501   3.852 -0.0084 -0.6644 -0.9851
  398MOL0     C54840   2.539   2.387   3.915  0.1437 -1.4178 -0.0051
  398MOL0     C54841   2.532   1.969   4.134 -0.7583 -0.4186  0.6722
  398MOL0     C54842   2.644   1.923   4.066 -0.6766 -0.3600 -0.4086
  398MOL0     C54843   2.715   1.805   4.098 -0.5662 -0.6513  0.2906
  398MOL0     C54844   2.663   1.716   4.186  0.5034  0.6452 -0.1956
  398MOL0     O54845   2.734   1.600   4.196  0.2660  0.2986 -0.4566
  398MOL0     C54846   2.718   1.520   4.317 -0.9820 -0.4062  0.4528
  398MOL0     C54847   2.855   1.465   4.345 -0.3076 -0.1646 -0.2671
  398MOL0     C54848   2.853   1.368   4.463 -0.2565 -0.8113  0.3209
  398MOL0     C54849   2.980   1.305   4.496 -0.1040 -0.1836 -0.8914
  398MOL0     C54850   3.064   1.393   4.573 -0.3101  0.2534 -0.3769
  398MOL0     C54851   3.121   1.468   4.644 -0.1587 -0.0315 -0.6709
  398MOL0     C54852   2.545   1.757   4.256 -0.3543 -0.1867  0.3384
  398MOL0     C54853   2.485   1.881   4.240  0.7052 -0.1869  0.5162
  398MOL0     C54854   2.370   1.918   4.332 -0.3534  0.2818  0.0980
  398MOL0     H54855   2.269   2.189   3.916 -0.3554  0.6548  0.2178
  398MOL0     H54856   2.166   2.399   3.825  0.4139 -1.4766 -1.3967
  398MOL0     H54857   2.120   2.637   3.717  1.3542  3.5296  2.0644
  398MOL0     H54858   2.210   2.523   3.594  2.9205 -0.2925  1.1315
  398MOL0     H54859   2.210   2.819   3.614  1.9271 -0.6285  1.4342
  398MOL0     H54860   2.306   2.725   3.495 -0.7645  0.9600 -1.9441
  398MOL0     H54861   2.088   2.648   3.386  0.2444 -0.9856  1.1640
  398MOL0     H54862   1.992   2.718   3.512 -2.0486 -1.3829 -4.8326
  398MOL0     H54863   1.983   2.870   3.325 -0.6215 -0.8519 -0.1121
  398MOL0     H54864   2.070   2.947   3.441  1.2268 -2.3207  2.8903
  398MOL0     H54865   2.283   2.920   3.339 -0.7415  1.7735  0.8419
  398MOL0     H54866   2.164   2.950   3.203 -0.6897  0.5448 -0.3388
  398MOL0     H54867   2.258   2.680   3.280 -3.7184 -1.5384 -1.6678
  398MOL0     H54868   2.161   2.719   3.148 -1.1942 -1.2370  2.1058
  398MOL0     H54869   2.336   2.849   3.041 -2.6458  2.4944  2.3718
  398MOL0     H54870   2.381   2.678   3.089  2.5883 -0.3153  2.2803
  398MOL0     H54871   2.471   2.917   3.251  2.9698  0.7467 -1.4507
  398MOL0     H54872   2.497   2.762   3.294  4.3658  3.3450  0.8497
  398MOL0     H54873   2.592   3.022   3.031  0.3129 -0.1544 -1.0441
  398MOL0     H54874   2.931   2.903   2.893 -0.4129 -0.9271  1.4317
  398MOL0     H54875   2.849   3.060   2.925 -2.3859  1.4131 -1.5075
  398MOL0     H54876   2.763   2.859   2.692 -0.0474  0.4497 -0.7468
  398MOL0     H54877   2.673   2.998   2.739  0.0489 -0.9300 -1.3644
  398MOL0     H54878   2.827   3.057   2.550  0.5924 -3.4118 -1.1477
  398MOL0     H54879   2.864   3.148   2.689  0.8758 -0.9174  2.1481
  398MOL0     H54880   3.061   3.044   2.551  1.3354 -0.2676 -0.1264
  398MOL0     H54881   3.062   3.025   2.731 -1.1189  2.2728 -0.4122
  398MOL0     H54882   3.207   2.892   2.469 -0.5736  1.9108 -0.1584
  398MOL0     H54883   3.243   2.755   2.133 -1.4730  0.3883  0.7273
  398MOL0     H54884   3.346   2.701   2.249 -1.4789 -1.6846 -2.0306
  398MOL0     H54885   3.292   2.877   2.258 -1.1454 -0.6707  2.2892
  398MOL0     H54886   2.926   2.628   1.854 -1.5683 -0.3833  2.8115
  398MOL0     H54887   3.011   2.544   1.644  1.0845  0.3582  1.2319
  398MOL0     H54888   3.007   2.357   1.450  0.2092  0.2397 -0.8330
  398MOL0     H54889   3.171   2.434   1.477  0.5573  1.2586  1.2838
  398MOL0     H54890   3.122   2.155   1.400 -1.3431  0.4367  0.7703
  398MOL0     H54891   3.139   2.276   1.277 -0.4211 -0.7835 -0.6105
  398MOL0     H54892   3.339   2.211   1.496  1.5384 -0.2787 -0.3991
  398MOL0     H54893   3.358   2.345   1.379 -0.4409 -0.2539 -0.9795
  398MOL0     H54894   3.376   2.170   1.187  1.4132 -1.4966  0.4404
  398MOL0     H54895   3.320   2.055   1.299  0.9903 -0.7661  3.1653
  398MOL0     H54896   3.579   2.219   1.345 -2.5562  1.5733  0.4821
  398MOL0     H54897   3.528   2.066   1.427 -2.4864  1.5100  1.7998
  398MOL0     H54898   3.559   1.953   1.219  0.5693 -0.0440 -0.3947
  398MOL0     H54899   3.712   2.010   1.288  0.1684  1.3990  1.1880
  398MOL0     H54900   3.773   2.147   1.130  0.4598 -2.4508 -1.2362
  398MOL0     H54901   3.610   2.217   1.119 -0.1076  0.2185  0.8976
  398MOL0     H54902   3.689   1.955   0.991  1.1063  0.8000  0.6639
  398MOL0     H54903   3.734   2.109   0.910 -1.8699  1.2607 -2.1054
  398MOL0     H54904   3.118   2.172   1.826 -0.4196 -0.3661 -1.2327
  398MOL0     H54905   3.092   2.274   2.050  2.1005  0.4240 -1.5402
  398MOL0     H54906   2.840   2.571   2.336  1.0659 -0.5299 -1.7401
  398MOL0     H54907   2.821   2.708   2.541  2.3722 -2.0598  2.6887
  398MOL0     H54908   2.558   2.589   3.840 -1.1383  0.2272 -0.5082
  398MOL0     H54909   2.642   2.384   3.950 -0.7105  1.9568  3.4785
  398MOL0     H54910   2.681   1.989   3.988  1.8675  0.4856  1.4021
  398MOL0     H54911   2.794   1.772   4.033 -2.0496 -0.6948 -1.5655
  398MOL0     H54912   2.690   1.591   4.396  0.3819  0.5633  0.0977
  398MOL0     H54913   2.643   1.441   4.304 -2.6006  1.3469 -1.6117
  398MOL0     H54914   2.926   1.545   4.370  1.0553 -1.6735  0.9233
  398MOL0     H54915   2.899   1.411   4.260 -1.6939 -1.9361  0.0855
  398MOL0     H54916   2.803   1.418   4.547 -2.7440 -0.5982 -1.1652
  398MOL0     H54917   2.787   1.284   4.439 -4.0768  1.3807  2.1945
  398MOL0     H54918   3.047   1.285   4.412  0.0410 -2.6694 -0.2695
  398MOL0     H54919   2.982   1.201   4.533  2.5516 -0.9381 -2.8169
  398MOL0     H54920   3.173   1.537   4.707 -1.4803  0.3938 -0.0080
  398MOL0     H54921   2.495   1.685   4.321 -3.1493  1.2108 -0.1120
  398MOL0     H54922   2.319   1.831   4.374 -3.1588  1.2708 -1.0154
  398MOL0     H54923   2.404   1.986   4.410 -2.0649  0.3695  0.8127
  398MOL0     H54924   2.290   1.979   4.288  1.1113  1.9350 -0.3827
  399MOL0     O54925   2.445   6.809   8.646 -0.1600 -0.6500 -0.3246
  399MOL0     C54926   2.424   6.901   8.560 -0.1710  0.0711  0.2183
  399MOL0     O54927   2.528   6.973   8.502 -0.3539  0.2828 -0.3302
  399MOL0     C54928   2.654   6.946   8.542 -0.1785  0.5940 -0.1572
  399MOL0     C54929   2.742   6.863   8.470  0.1595 -0.5124  0.3063
  399MOL0     C54930   2.875   6.850   8.500  0.6176 -0.3172 -0.0639
  399MOL0     C54931   2.927   6.900   8.620  0.0186  0.8419  0.3845
  399MOL0     O54932   3.058   6.889   8.664 -0.7081  0.0501  0.2003
  399MOL0     C54933   3.135   6.774   8.617 -0.3130 -0.2538 -0.1515
  399MOL0     C54934   3.272   6.762   8.692 -0.6688 -0.1060  0.1747
  399MOL0     C54935   3.252   6.700   8.825  0.1978 -0.5870 -0.0327
  399MOL0     C54936   3.385   6.698   8.899 -0.2743 -0.6799 -0.3673
  399MOL0     C54937   3.378   6.616   9.024 -1.2467 -0.1328  0.6392
  399MOL0     C54938   3.509   6.564   9.067 -0.5153  0.2662 -0.0120
  399MOL0     C54939   3.603   6.673   9.092  0.6374 -0.7974 -0.0836
  399MOL0     C54940   3.747   6.618   9.133  0.4099 -0.6429 -1.1128
  399MOL0     N54941   3.756   6.528   9.244  0.6974  0.0536  0.2296
  399MOL0     C54942   3.758   6.390   9.225 -0.6711 -0.4324 -0.2984
  399MOL0     C54943   3.751   6.350   9.351 -0.9225 -0.2527  0.3747
  399MOL0     C54944   3.740   6.201   9.392  0.3921 -0.2947  1.1074
  399MOL0     C54945   3.660   6.123   9.294  0.3424  0.3512  0.3708
  399MOL0     C54946   3.512   6.177   9.286  0.0096  0.5547  0.2515
  399MOL0     C54947   3.419   6.061   9.246 -0.8334 -0.0935 -0.0711
  399MOL0     O54948   3.431   6.025   9.110 -0.1615  0.2741  0.4056
  399MOL0     C54949   3.389   6.116   9.014  0.6561 -0.6629 -0.8363
  399MOL0     C54950   3.461   6.141   8.900 -0.3430  0.0894 -0.4979
  399MOL0     C54951   3.409   6.209   8.799  0.0052 -0.1038  0.5732
  399MOL0     C54952   3.499   6.240   8.673 -0.1567 -0.0438 -0.5569
  399MOL0     C54953   3.279   6.262   8.807  0.1202 -0.5080 -0.2773
  399MOL0     C54954   3.219   6.344   8.690 -0.4842  0.6057  0.1487
  399MOL0     O54955   3.093   6.314   8.669  0.9273 -0.9134 -0.3914
  399MOL0     C54956   3.032   6.365   8.552 -0.6737  0.6077  0.4381
  399MOL0     C54957   3.082   6.321   8.424  0.5899  0.0627 -0.6677
  399MOL0     C54958   3.017   6.354   8.301 -0.1286  0.2923 -0.7682
  399MOL0     C54959   2.901   6.431   8.292 -0.5698  0.5212 -1.1664
  399MOL0     O54960   2.830   6.437   8.178  0.0110  0.0023  0.4844
  399MOL0     C54961   2.693   6.474   8.173  0.2075  0.0819  0.4903
  399MOL0     C54962   2.664   6.486   8.019  0.3089  0.2491  0.9223
  399MOL0     C54963   2.634   6.343   7.968 -0.5201  0.7712 -0.0276
  399MOL0     C54964   2.772   6.287   7.904  0.1410  0.0473 -1.0122
  399MOL0     C54965   2.775   6.132   7.900 -0.2306 -0.6249 -0.0631
  399MOL0     C54966   2.922   6.097   7.877 -0.8955  1.1139  0.2756
  399MOL0     C54967   2.946   5.951   7.839  0.3066  0.4265 -0.2436
  399MOL0     C54968   2.926   5.844   7.949 -0.8052 -0.1832  0.5212
  399MOL0    Cl54969   2.954   5.682   7.875 -0.1526 -0.5392  0.0813
  399MOL0     C54970   2.859   6.472   8.422 -0.0419 -0.3832 -0.1130
  399MOL0     C54971   2.919   6.442   8.539 -1.1931 -0.4462  0.4151
  399MOL0     O54972   3.284   6.436   8.642 -0.2812  0.3031 -0.3822
  399MOL0     C54973   3.198   6.237   8.919 -0.9984  0.4775 -0.2360
  399MOL0     C54974   3.258   6.164   9.018 -0.3062  0.4328  0.3408
  399MOL0     N54975   3.750   6.448   9.443  0.2566 -0.3992  0.4784
  399MOL0     N54976   3.727   6.558   9.374  0.6538 -0.2720 -0.6379
  399MOL0     C54977   2.843   6.978   8.693  0.2999 -0.3413 -0.6814
  399MOL0     C54978   2.711   7.005   8.654  0.6619  0.5113  0.0430
  399MOL0     C54979   2.281   6.927   8.508 -0.3086  0.7012 -0.8809
  399MOL0     C54980   2.274   6.967   8.374  0.2786 -0.0411  0.0699
  399MOL0     C54981   2.150   7.003   8.315 -0.5280  0.3207  0.3724
  399MOL0     C54982   2.031   7.000   8.392 -0.0162 -0.1080  0.2683
  399MOL0     O54983   1.917   7.038   8.340 -0.3065 -0.2093 -0.0767
  399MOL0     C54984   1.884   7.033   8.202 -0.8444  0.2425  0.1077
  399MOL0     C54985   1.732   7.023   8.185 -0.1826 -0.7225 -0.0061
  399MOL0     C54986   1.682   6.890   8.258  1.2490  0.1640  0.1688
  399MOL0     C54987   1.522   6.901   8.265 -0.3968  0.3000  0.3693
  399MOL0     C54988   1.484   6.789   8.352  0.0681  0.1767  0.5002
  399MOL0     C54989   1.445   6.699   8.422  0.6548  0.7201 -0.4390
  399MOL0     C54990   2.035   6.950   8.517  0.6134  0.0057 -0.3396
  399MOL0     C54991   2.154   6.900   8.574 -0.2950 -0.6480  1.0974
  399MOL0     C54992   2.139   6.829   8.698 -0.2637  0.6861 -0.5417
  399MOL0     H54993   2.707   6.816   8.379  1.4477 -1.2145  0.1439
  399MOL0     H54994   2.943   6.808   8.427  1.8359  0.8768  0.3353
  399MOL0     H54995   3.147   6.780   8.509 -0.9777 -2.0598 -0.3655
  399MOL0     H54996   3.085   6.678   8.630  1.1982 -1.2834 -1.5284
  399MOL0     H54997   3.345   6.706   8.632 -1.2785 -1.0045  0.2420
  399MOL0     H54998   3.305   6.865   8.702 -0.6801 -0.0539 -0.2972
  399MOL0     H54999   3.176   6.757   8.879  0.4021  3.7473 -3.7476
  399MOL0     H55000   3.221   6.598   8.798 -0.4515 -0.4505  0.1847
  399MOL0     H55001   3.454   6.646   8.832  0.2599 -4.6842  2.8989
  399MOL0     H55002   3.419   6.801   8.910 -1.1069 -0.5214  0.9151
  399MOL0     H55003   3.319   6.529   8.994 -0.0085  0.1450 -3.1292
  399MOL0     H55004   3.335   6.667   9.111 -0.0884  0.4968  0.8676
  399MOL0     H55005   3.491   6.507   9.159 -0.5192 -2.5444 -1.6602
  399MOL0     H55006   3.550   6.490   8.998  0.7957  2.4324 -1.6795
  399MOL0     H55007   3.565   6.751   9.158 -0.2952 -0.2792 -1.1988
  399MOL0     H55008   3.607   6.728   8.997  3.7413 -0.5451  0.1008
  399MOL0     H55009   3.801   6.570   9.051  0.6911 -1.1162 -0.6545
  399MOL0     H55010   3.811   6.701   9.164 -0.4011  0.1522 -1.5422
  399MOL0     H55011   3.750   6.331   9.134  2.2407  2.0777 -2.3773
  399MOL0     H55012   3.695   6.194   9.492  2.5300  1.3416  2.2967
  399MOL0     H55013   3.843   6.162   9.396  0.4841 -1.4680 -4.5681
  399MOL0     H55014   3.705   6.121   9.195  1.2724  2.0495  0.7319
  399MOL0     H55015   3.667   6.019   9.330  1.5473  0.0792 -0.6006
  399MOL0     H55016   3.498   6.219   9.386  3.0225  1.7805  0.2626
  399MOL0     H55017   3.510   6.260   9.216  1.4641  2.3007  2.1599
  399MOL0     H55018   3.431   5.974   9.311 -1.5157 -0.2201 -0.1069
  399MOL0     H55019   3.318   6.098   9.265 -0.8077 -1.1658  2.5618
  399MOL0     H55020   3.566   6.113   8.913  0.4893  2.1501 -2.1780
  399MOL0     H55021   3.503   6.346   8.648 -3.4563  0.1714 -0.5847
  399MOL0     H55022   3.459   6.190   8.584 -0.2546  0.1609 -0.6269
  399MOL0     H55023   3.600   6.203   8.695 -0.4028 -0.4257 -0.0339
  399MOL0     H55024   3.161   6.246   8.432 -0.2328 -0.6049  3.3786
  399MOL0     H55025   3.045   6.302   8.210 -2.8954  0.0808 -1.6074
  399MOL0     H55026   2.625   6.396   8.209 -1.1919  1.0169 -0.0009
  399MOL0     H55027   2.663   6.564   8.228 -1.4554 -1.0871  1.5791
  399MOL0     H55028   2.573   6.540   7.989 -1.0295 -1.7211  1.2061
  399MOL0     H55029   2.745   6.527   7.959 -1.5599 -1.3600 -3.1189
  399MOL0     H55030   2.552   6.343   7.895 -0.3656 -2.1427 -0.3303
  399MOL0     H55031   2.609   6.271   8.046  1.2415  1.4211  1.1925
  399MOL0     H55032   2.849   6.323   7.974 -0.6532  0.8498 -0.5243
  399MOL0     H55033   2.795   6.343   7.813  2.3482  1.3102  0.2241
  399MOL0     H55034   2.740   6.087   7.994 -0.6419  1.4856  0.8615
  399MOL0     H55035   2.711   6.093   7.821  0.2134 -0.1371 -0.6632
  399MOL0     H55036   2.979   6.106   7.970  0.4957 -0.5778 -0.3653
  399MOL0     H55037   2.961   6.166   7.801 -1.0386 -1.5293 -2.3647
  399MOL0     H55038   3.046   5.939   7.796  0.6921  2.1008  0.1448
  399MOL0     H55039   2.870   5.918   7.767 -0.2520 -0.1685  0.5946
  399MOL0     H55040   2.825   5.856   7.989 -1.6246  2.0982 -1.9615
  399MOL0     H55041   2.991   5.860   8.036 -1.6107 -2.4709  1.6445
  399MOL0     H55042   2.762   6.520   8.432  1.5575  2.8016  1.8119
  399MOL0     H55043   2.867   6.471   8.630 -3.7069  0.2943 -1.1496
  399MOL0     H55044   3.097   6.277   8.927 -0.5881  1.3461  0.7260
  399MOL0     H55045   3.191   6.135   9.099  1.4907  0.7429  2.0143
  399MOL0     H55046   2.887   7.025   8.780  0.8966 -1.7483 -0.1866
  399MOL0     H55047   2.652   7.069   8.719  0.8875  0.8645 -0.1022
  399MOL0     H55048   2.365   6.989   8.319  0.4896 -0.3664  0.2826
  399MOL0     H55049   2.148   7.062   8.224 -3.9230  0.3666  0.3516
  399MOL0     H55050   1.931   7.120   8.155  0.2768 -0.7819 -0.7180
  399MOL0     H55051   1.923   6.946   8.148 -0.5413  0.9146 -0.7711
  399MOL0     H55052   1.708   7.037   8.080 -1.2126  4.3698  0.6499
  399MOL0     H55053   1.693   7.112   8.235  0.0793 -1.2739  1.2248
  399MOL0     H55054   1.727   6.804   8.208  2.3176  0.1926  1.0534
  399MOL0     H55055   1.722   6.884   8.359 -0.0645  2.9533  0.9471
  399MOL0     H55056   1.473   6.894   8.167  0.5183 -0.7242 -0.0358
  399MOL0     H55057   1.493   6.994   8.315 -0.5916  0.7158 -0.4906
  399MOL0     H55058   1.397   6.633   8.491 -0.8629  1.2593 -0.9367
  399MOL0     H55059   1.941   6.932   8.569  1.0930 -1.3094  0.1094
  399MOL0     H55060   2.049   6.860   8.751  0.4204  1.1762  0.3585
  399MOL0     H55061   2.157   6.722   8.685 -0.0832  0.8767 -2.0521
  399MOL0     H55062   2.215   6.854   8.772 -2.6168  1.0064  1.8989
  400MOL0     O55063   4.934   7.570   5.844 -0.6879  0.7687  0.6420
  400MOL0     C55064   4.848   7.622   5.918 -0.8334 -0.0138  0.1240
  400MOL0     O55065   4.869   7.662   6.039 -0.0414  0.5773  0.0768
  400MOL0     C55066   4.990   7.642   6.094  0.0039  0.1907 -0.4367
  400MOL0     C55067   5.024   7.524   6.167 -0.9839 -0.2242 -0.2496
  400MOL0     C55068   5.154   7.497   6.220 -1.1116 -0.1305  0.5847
  400MOL0     C55069   5.247   7.602   6.204  0.6986 -0.0633  0.1592
  400MOL0     O55070   5.370   7.579   6.263 -0.5497  0.2176 -0.5356
  400MOL0     C55071   5.455   7.691   6.277  0.0485 -0.5215  0.1006
  400MOL0     C55072   5.588   7.669   6.345  0.2570  0.3215  0.3432
  400MOL0     C55073   5.695   7.766   6.292 -0.5508 -0.1354 -0.6347
  400MOL0     C55074   5.796   7.820   6.398  0.1936  0.3783  0.9145
  400MOL0     C55075   5.866   7.708   6.484 -0.5650 -0.7225  0.4068
  400MOL0     C55076   5.963   7.627   6.397 -0.1630  0.4081  0.7481
  400MOL0     C55077   6.028   7.519   6.493 -0.0254  0.2405  0.7446
  400MOL0     C55078   6.107   7.569   6.613 -0.2522  0.4462  0.3118
  400MOL0     N55079   6.241   7.606   6.556 -0.1490  0.2919 -0.5749
  400MOL0     C55080   6.348   7.519   6.536  0.1424 -0.1729  0.1574
  400MOL0     C55081   6.453   7.607   6.509  0.0972 -0.0843  0.5765
  400MOL0     C55082   6.597   7.566   6.465 -0.1171 -0.5506 -0.3158
  400MOL0     C55083   6.670   7.512   6.588 -0.4342  0.2886  0.5715
  400MOL0     C55084   6.817   7.486   6.561 -0.4044 -0.4794  0.4226
  400MOL0     C55085   6.889   7.471   6.701  0.2498  0.4475  0.4356
  400MOL0     O55086   6.855   7.348   6.757 -0.0777  0.5573 -0.2988
  400MOL0     C55087   6.867   7.336   6.888  0.1168  0.3168 -0.3897
  400MOL0     C55088   6.946   7.412   6.976 -0.3405 -0.6264  0.7268
  400MOL0     C55089   6.977   7.367   7.106  0.4416  0.0989 -0.6839
  400MOL0     C55090   7.074   7.439   7.183  0.2114  0.3308 -0.1065
  400MOL0     C55091   6.908   7.258   7.165 -0.5063  0.1177  0.5099
  400MOL0     C55092   6.924   7.211   7.300  0.2296 -0.0261  0.3682
  400MOL0     O55093   6.944   7.074   7.324 -0.2685  0.2833 -0.2688
  400MOL0     C55094   7.008   6.999   7.232 -0.6589  0.5743 -0.2639
  400MOL0     C55095   7.136   7.026   7.182 -0.7719 -0.4151  0.2326
  400MOL0     C55096   7.196   6.942   7.092  0.1991  0.7820 -0.4899
  400MOL0     C55097   7.142   6.812   7.068  0.3920  0.0152  0.9949
  400MOL0     O55098   7.209   6.732   6.975  0.1046 -0.4181  0.1263
  400MOL0     C55099   7.250   6.607   7.021  0.1034  0.6711  0.1854
  400MOL0     C55100   7.393   6.579   6.991 -0.4472  0.2245  0.6089
  400MOL0     C55101   7.502   6.667   7.056  0.7216  0.1311 -0.0719
  400MOL0     C55102   7.513   6.623   7.202 -0.1616  0.1683  0.2470
  400MOL0     C55103   7.633   6.687   7.279  0.4023 -0.1204 -0.5208
  400MOL0     C55104   7.632   6.835   7.302 -0.4979  0.1409  0.1424
  400MOL0     C55105   7.744   6.875   7.397  0.2020 -1.4132  0.6109
  400MOL0     C55106   7.884   6.857   7.357 -0.4228 -0.2324  0.4579
  400MOL0    Cl55107   7.992   6.977   7.449  0.1296 -0.3545 -0.2803
  400MOL0     C55108   7.015   6.775   7.121  0.1017  0.3302 -0.0711
  400MOL0     C55109   6.954   6.871   7.200 -0.1231 -0.8233 -0.8913
  400MOL0     O55110   6.868   7.288   7.378  0.5864  0.0054 -0.0257
  400MOL0     C55111   6.818   7.189   7.074 -0.7434  0.3285  0.5298
  400MOL0     C55112   6.800   7.228   6.939 -1.3598  0.0029 -1.0198
  400MOL0     N55113   6.408   7.731   6.499  0.3561 -0.8207  0.3367
  400MOL0     N55114   6.287   7.736   6.540 -0.3359 -0.3813 -0.5482
  400MOL0     C55115   5.213   7.719   6.121  0.6336  0.6419 -0.8550
  400MOL0     C55116   5.084   7.739   6.081 -0.2636  0.2796  0.9060
  400MOL0     C55117   4.712   7.639   5.857 -0.1911 -0.3535  0.4379
  400MOL0     C55118   4.680   7.564   5.743  0.5049 -0.4766 -0.0598
  400MOL0     C55119   4.568   7.594   5.663  0.2072  0.3486  1.5464
  400MOL0     C55120   4.463   7.675   5.712 -0.7567 -0.0481 -0.1668
  400MOL0     O55121   4.341   7.678   5.658 -0.0370 -0.1017 -0.7295
  400MOL0     C55122   4.221   7.732   5.718 -0.0050  0.3721  0.3832
  400MOL0     C55123   4.108   7.704   5.631  0.0072 -0.5903  0.4061
  400MOL0     C55124   4.127   7.742   5.486 -0.1844  0.2535 -0.2114
  400MOL0     C55125   4.110   7.890   5.458  0.7349 -0.9712  0.0074
  400MOL0     C55126   3.984   7.925   5.385 -0.1497 -0.1165 -0.1222
  400MOL0     C55127   3.872   7.958   5.347  0.0267  0.5944  0.2417
  400MOL0     C55128   4.485   7.740   5.833 -0.5108  0.6440 -0.1525
  400MOL0     C55129   4.606   7.728   5.907  0.0612 -0.1760 -0.1268
  400MOL0     C55130   4.621   7.814   6.034  0.4052  1.4773 -0.3039
  400MOL0     H55131   4.947   7.448   6.178  1.3071 -2.3899  2.2379
  400MOL0     H55132   5.182   7.409   6.277  0.9801 -1.0389 -1.7116
  400MOL0     H55133   5.405   7.776   6.326  1.2438 -0.6493  1.5930
  400MOL0     H55134   5.475   7.722   6.174  2.8878  1.7187  1.2175
  400MOL0     H55135   5.576   7.692   6.452  1.4097  1.5319  0.2344
  400MOL0     H55136   5.607   7.562   6.329 -0.5652  0.1109  0.7156
  400MOL0     H55137   5.758   7.712   6.221 -0.7326 -2.5550  0.9404
  400MOL0     H55138   5.635   7.842   6.241  0.8729  0.7411 -1.0483
  400MOL0     H55139   5.879   7.867   6.344  1.4127 -1.8328  0.7293
  400MOL0     H55140   5.744   7.887   6.466  2.2038  3.3381 -0.2661
  400MOL0     H55141   5.793   7.637   6.524 -0.7201 -1.4100 -1.0321
  400MOL0     H55142   5.918   7.764   6.562  2.1300 -0.1179 -1.6563
  400MOL0     H55143   5.907   7.560   6.332  1.1383  0.2481 -0.2567
  400MOL0     H55144   6.034   7.686   6.338 -1.0206  1.1462  0.4308
  400MOL0     H55145   6.091   7.458   6.426 -1.8141  3.3815 -4.4191
  400MOL0     H55146   5.956   7.456   6.545  2.9389 -1.9643  2.4842
  400MOL0     H55147   6.070   7.656   6.668  3.5321  1.3578  1.7382
  400MOL0     H55148   6.120   7.487   6.686  1.2518  1.5037  1.2958
  400MOL0     H55149   6.355   7.411   6.546 -3.0697 -0.4774  0.0971
  400MOL0     H55150   6.645   7.646   6.408 -0.1405 -2.1234 -2.6712
  400MOL0     H55151   6.596   7.479   6.400  1.0477 -0.0852 -0.9824
  400MOL0     H55152   6.651   7.577   6.674 -0.8979  0.0375  0.6618
  400MOL0     H55153   6.616   7.420   6.611 -1.5326  0.6005 -0.6151
  400MOL0     H55154   6.841   7.405   6.492 -1.2909 -0.7623  0.4335
  400MOL0     H55155   6.857   7.577   6.515  2.5099 -1.7000  0.3701
  400MOL0     H55156   6.997   7.478   6.685  0.2862 -1.4577 -0.4717
  400MOL0     H55157   6.859   7.558   6.760 -1.1972  1.2191 -1.3258
  400MOL0     H55158   7.006   7.494   6.939 -3.7174  1.1701 -1.3293
  400MOL0     H55159   7.107   7.396   7.278  2.2064 -1.7277 -1.6153
  400MOL0     H55160   7.031   7.538   7.199 -0.5130 -0.3297  2.5213
  400MOL0     H55161   7.168   7.447   7.126  0.5345 -0.8766  0.2213
  400MOL0     H55162   7.195   7.113   7.206  1.0465 -1.8570  1.2872
  400MOL0     H55163   7.294   6.974   7.056  0.8367  0.4715  0.8861
  400MOL0     H55164   7.260   6.599   7.130  0.7232  2.5643  0.3058
  400MOL0     H55165   7.195   6.521   6.982  4.0691 -0.7187 -3.0734
  400MOL0     H55166   7.415   6.474   7.016  3.1469  0.6804 -0.0284
  400MOL0     H55167   7.414   6.580   6.883  3.0140  0.4845  1.1567
  400MOL0     H55168   7.486   6.775   7.045  0.9419  0.1530 -0.1919
  400MOL0     H55169   7.595   6.657   6.999  0.0186  1.4192 -1.5133
  400MOL0     H55170   7.524   6.515   7.214  2.8468  0.5188  1.4208
  400MOL0     H55171   7.424   6.647   7.261 -1.9690 -0.7297 -1.9608
  400MOL0     H55172   7.646   6.636   7.375  0.0347 -0.8857 -0.8647
  400MOL0     H55173   7.721   6.664   7.218  1.0381  0.0199  0.3242
  400MOL0     H55174   7.541   6.875   7.348 -0.7650 -2.1705  1.8558
  400MOL0     H55175   7.651   6.895   7.213  1.4943 -3.2461 -1.9566
  400MOL0     H55176   7.723   6.823   7.490  3.1396  1.0745  2.8572
  400MOL0     H55177   7.728   6.983   7.404  2.8868 -0.7229 -1.7822
  400MOL0     H55178   7.890   6.867   7.248 -0.1210  1.6333  0.6067
  400MOL0     H55179   7.920   6.755   7.374  2.3232 -0.6714 -5.6300
  400MOL0     H55180   6.978   6.677   7.095  2.4635 -1.4952  2.7597
  400MOL0     H55181   6.860   6.845   7.247  0.5421  0.3413  1.2088
  400MOL0     H55182   6.753   7.118   7.122 -0.4470 -1.1274 -1.1380
  400MOL0     H55183   6.738   7.171   6.871 -1.0770 -0.8186 -0.6064
  400MOL0     H55184   5.286   7.794   6.096  0.0037  1.3401 -0.6217
  400MOL0     H55185   5.078   7.842   6.049  1.1843  0.5393  1.3869
  400MOL0     H55186   4.743   7.490   5.695  0.7190  1.3000 -2.7440
  400MOL0     H55187   4.553   7.548   5.566  2.3937 -2.8728  2.5784
  400MOL0     H55188   4.200   7.693   5.818 -1.7344 -0.5285 -0.2957
  400MOL0     H55189   4.219   7.841   5.728  1.2917  0.5116 -0.6973
  400MOL0     H55190   4.015   7.752   5.661 -3.6573 -5.7972 -1.2188
  400MOL0     H55191   4.075   7.600   5.639 -0.7726 -0.5897 -1.9965
  400MOL0     H55192   4.223   7.715   5.443 -1.0801 -0.1666 -2.0382
  400MOL0     H55193   4.054   7.681   5.432 -0.5384 -1.9729  2.5329
  400MOL0     H55194   4.190   7.927   5.392  2.2911  0.5390  2.5712
  400MOL0     H55195   4.112   7.954   5.547  1.8503  3.1066 -2.6801
  400MOL0     H55196   3.780   7.993   5.305  0.1453 -2.0704 -2.6396
  400MOL0     H55197   4.410   7.802   5.882  0.0296 -0.2271  1.8908
  400MOL0     H55198   4.604   7.753   6.123  2.4947  0.7989 -0.3174
  400MOL0     H55199   4.715   7.870   6.037 -0.1437  2.3829  0.5244
  400MOL0     H55200   4.542   7.890   6.032 -0.9046  0.1925  0.3712
  401MOL0     O55201   7.584  11.138   3.133 -0.1933  0.7372  0.1578
  401MOL0     C55202   7.516  11.051   3.077 -0.0128 -0.6984 -0.1958
  401MOL0     O55203   7.554  10.928   3.052  0.2122  0.7868 -0.0449
  401MOL0     C55204   7.678  10.879   3.093 -0.1962 -0.4687  0.9995
  401MOL0     C55205   7.711  10.887   3.228  0.0417 -0.0511  0.1523
  401MOL0     C55206   7.835  10.851   3.276  1.0034 -1.2052  0.2456
  401MOL0     C55207   7.925  10.794   3.187 -0.5541 -0.8739  0.2865
  401MOL0     O55208   8.046  10.744   3.242  0.5381  0.5704  0.4800
  401MOL0     C55209   8.099  10.802   3.359 -0.0671 -0.1249  0.1402
  401MOL0     C55210   8.253  10.815   3.359  0.4828 -0.2280 -0.6844
  401MOL0     C55211   8.313  10.921   3.254 -0.1352 -0.3956 -0.2559
  401MOL0     C55212   8.352  10.842   3.125  0.2959  0.0532 -0.8137
  401MOL0     C55213   8.416  10.926   3.008  0.4350  0.4549 -0.9506
  401MOL0     C55214   8.322  11.009   2.917  0.1754  0.6354 -0.6717
  401MOL0     C55215   8.400  11.059   2.785  0.1479 -0.0248  0.8848
  401MOL0     C55216   8.431  10.945   2.679  0.1089 -0.2822 -0.8438
  401MOL0     N55217   8.472  10.999   2.554 -0.8720 -0.0214 -0.2105
  401MOL0     C55218   8.387  11.008   2.448 -0.8588  0.0442  0.5308
  401MOL0     C55219   8.465  11.061   2.357 -0.7661 -0.1349 -0.3030
  401MOL0     C55220   8.438  11.084   2.214  0.2617 -0.2635 -0.3711
  401MOL0     C55221   8.565  11.089   2.119  0.2725 -0.0282 -0.0406
  401MOL0     C55222   8.497  11.079   1.974 -0.7843  0.9155 -0.6669
  401MOL0     C55223   8.587  11.112   1.857 -0.1232 -0.4019  0.0870
  401MOL0     O55224   8.549  11.237   1.791 -0.0215  0.0745 -0.5754
  401MOL0     C55225   8.631  11.277   1.698  0.0095 -0.3055 -0.6908
  401MOL0     C55226   8.715  11.189   1.618  0.1953 -0.0430 -0.2801
  401MOL0     C55227   8.828  11.225   1.544  0.4293 -0.4582 -0.6105
  401MOL0     C55228   8.923  11.117   1.489  0.4543  0.3997  0.1878
  401MOL0     C55229   8.836  11.366   1.533 -0.6014 -0.2463 -0.1487
  401MOL0     C55230   8.946  11.434   1.460 -0.9458  0.4147 -0.2216
  401MOL0     O55231   8.957  11.572   1.487 -0.0823 -0.1258 -0.2544
  401MOL0     C55232   9.043  11.654   1.417  0.2339 -0.3171  0.1391
  401MOL0     C55233   8.991  11.763   1.344  0.0360  0.0984  0.3006
  401MOL0     C55234   9.082  11.855   1.284 -0.2251 -1.1651 -0.3410
  401MOL0     C55235   9.222  11.830   1.305 -0.5123  0.0239  0.1994
  401MOL0     O55236   9.294  11.938   1.265 -0.8848 -0.3272 -0.4549
  401MOL0     C55237   9.420  11.906   1.213 -0.1023 -0.1471  1.0019
  401MOL0     C55238   9.524  12.014   1.234  0.1861  0.7000 -0.6870
  401MOL0     C55239   9.568  12.036   1.385  0.4843 -0.2157  1.2970
  401MOL0     C55240   9.699  12.108   1.401  0.6697 -0.2827  0.1089
  401MOL0     C55241   9.692  12.261   1.382 -0.1403  0.0972  0.6493
  401MOL0     C55242   9.837  12.303   1.373  0.6290 -0.2698 -0.0553
  401MOL0     C55243   9.853  12.464   1.343  0.0037  0.3188 -0.1822
  401MOL0     C55244   9.994  12.519   1.337 -0.4360  0.2021  0.1106
  401MOL0    Cl55245   9.995  12.698   1.302 -0.4373 -0.5460  0.0346
  401MOL0     C55246   9.272  11.732   1.384  0.3034 -0.1637  0.2774
  401MOL0     C55247   9.182  11.637   1.437  0.8240 -0.6391  0.6154
  401MOL0     O55248   9.010  11.376   1.372 -0.1874  0.2852 -0.1667
  401MOL0     C55249   8.745  11.456   1.593  0.8908  0.0459 -0.9706
  401MOL0     C55250   8.644  11.415   1.688 -0.6488  0.0374 -0.3436
  401MOL0     N55251   8.593  11.090   2.404  0.1114 -0.1608 -0.7640
  401MOL0     N55252   8.599  11.049   2.525  0.8089  0.6881 -0.2522
  401MOL0     C55253   7.894  10.791   3.048  0.0356 -0.2505 -0.5525
  401MOL0     C55254   7.770  10.839   3.001 -0.0746  0.1868 -0.2154
  401MOL0     C55255   7.387  11.097   3.032 -0.0581  0.0397 -0.3732
  401MOL0     C55256   7.303  10.994   2.980 -0.3710  0.2086 -0.4054
  401MOL0     C55257   7.172  11.027   2.946 -0.0319  0.9556  0.1427
  401MOL0     C55258   7.132  11.155   2.943  0.4332  0.2868 -0.7590
  401MOL0     O55259   7.003  11.165   2.888  0.2890  0.0663 -0.2663
  401MOL0     C55260   6.944  11.293   2.838  0.5290  0.2757 -0.5805
  401MOL0     C55261   6.790  11.289   2.817 -0.3295 -0.2866  1.2962
  401MOL0     C55262   6.743  11.157   2.732 -1.1698 -0.6716  0.0570
  401MOL0     C55263   6.812  11.142   2.598  0.1094 -0.1828 -0.2546
  401MOL0     C55264   6.797  11.264   2.511  0.8090  0.1845  0.6450
  401MOL0     C55265   6.786  11.367   2.442 -0.2285 -0.4887 -0.1090
  401MOL0     C55266   7.214  11.256   2.980 -0.4529 -0.7671  0.9010
  401MOL0     C55267   7.336  11.230   3.035  0.4895  0.3122 -1.0003
  401MOL0     C55268   7.418  11.353   3.073 -0.3056 -0.9069 -0.2237
  401MOL0     H55269   7.640  10.929   3.299  0.1973 -2.2301  1.7178
  401MOL0     H55270   7.860  10.870   3.379  3.2276  0.3232 -0.4989
  401MOL0     H55271   8.064  10.748   3.447 -0.3901 -1.5171 -0.8257
  401MOL0     H55272   8.070  10.908   3.364  0.2766  0.0058 -0.5471
  401MOL0     H55273   8.278  10.846   3.461 -1.2956  0.3247 -0.3809
  401MOL0     H55274   8.303  10.718   3.351 -0.0805 -0.4196 -2.2980
  401MOL0     H55275   8.236  10.994   3.224 -0.5132 -0.1020  1.3421
  401MOL0     H55276   8.392  10.987   3.290 -2.0358  1.7288  0.2845
  401MOL0     H55277   8.410  10.752   3.149 -1.2353  0.0332  3.5885
  401MOL0     H55278   8.256  10.803   3.090 -0.8415  1.4696  0.5952
  401MOL0     H55279   8.467  10.844   2.956 -2.1077 -2.8016  1.3345
  401MOL0     H55280   8.495  10.984   3.057  0.4316  0.5487 -1.0550
  401MOL0     H55281   8.226  10.960   2.898  1.2587 -3.2920  2.6484
  401MOL0     H55282   8.294  11.100   2.972 -1.0886 -0.7084  1.0377
  401MOL0     H55283   8.496  11.106   2.809 -0.1584  1.1156 -0.0246
  401MOL0     H55284   8.339  11.132   2.732  0.0398 -2.2610 -2.3410
  401MOL0     H55285   8.509  10.880   2.718 -1.0301  1.0078  4.2761
  401MOL0     H55286   8.339  10.894   2.648 -0.3233  0.5249 -0.9388
  401MOL0     H55287   8.287  10.969   2.432 -0.4807 -0.9159  0.4962
  401MOL0     H55288   8.380  11.176   2.201 -0.3372 -0.3983  1.1144
  401MOL0     H55289   8.370  11.002   2.188 -2.6094  1.7338  0.3452
  401MOL0     H55290   8.627  11.177   2.138  0.4390 -0.4537  1.5764
  401MOL0     H55291   8.627  11.000   2.135 -0.5471 -0.3210  1.8157
  401MOL0     H55292   8.456  10.978   1.969  0.9091 -0.1165  2.8966
  401MOL0     H55293   8.412  11.147   1.964 -0.3252  1.6175  0.0381
  401MOL0     H55294   8.687  11.135   1.895  0.0447  0.4415 -0.8128
  401MOL0     H55295   8.592  11.033   1.782  2.9307  0.2492 -0.5407
  401MOL0     H55296   8.701  11.081   1.620  0.3512 -0.0604 -0.0243
  401MOL0     H55297   9.025  11.155   1.477  0.3012  0.1098 -2.6607
  401MOL0     H55298   8.890  11.095   1.387 -2.6308  2.2965  0.6750
  401MOL0     H55299   8.917  11.031   1.557  1.8962 -0.6647 -0.9634
  401MOL0     H55300   8.884  11.774   1.332 -0.4488 -4.4447 -1.4851
  401MOL0     H55301   9.046  11.936   1.223 -0.2388  1.5399  2.9756
  401MOL0     H55302   9.446  11.801   1.229  0.8410 -0.1797 -0.5637
  401MOL0     H55303   9.391  11.905   1.107 -1.6757 -1.0437  1.4089
  401MOL0     H55304   9.606  11.995   1.164 -1.3000 -1.8754 -1.8960
  401MOL0     H55305   9.473  12.103   1.196 -0.1654  0.6035 -0.4504
  401MOL0     H55306   9.585  11.937   1.430  0.5507 -3.5620 -4.9037
  401MOL0     H55307   9.485  12.082   1.439 -1.4753 -0.6096 -1.1631
  401MOL0     H55308   9.769  12.065   1.328 -0.3850  2.0022 -2.4057
  401MOL0     H55309   9.736  12.090   1.502 -0.2990  1.7992  0.8988
  401MOL0     H55310   9.641  12.287   1.289  1.2427  0.5120 -0.0241
  401MOL0     H55311   9.652  12.311   1.470 -0.0450  1.2782  0.0443
  401MOL0     H55312   9.888  12.238   1.302 -1.6538 -0.1953 -1.8926
  401MOL0     H55313   9.884  12.285   1.469  1.3729  2.5717  0.2152
  401MOL0     H55314   9.804  12.519   1.425 -1.6803 -1.0671 -0.2135
  401MOL0     H55315   9.809  12.481   1.245  2.8741  1.7636 -1.3326
  401MOL0     H55316  10.053  12.476   1.256 -1.3092  0.8317 -0.8855
  401MOL0     H55317  10.033  12.501   1.437 -1.5745 -1.0504  0.3592
  401MOL0     H55318   9.375  11.726   1.419  1.4573 -0.1503 -2.7711
  401MOL0     H55319   9.201  11.545   1.491  0.0667 -0.6971  0.7956
  401MOL0     H55320   8.746  11.564   1.580  0.2037  0.1466 -0.2621
  401MOL0     H55321   8.581  11.480   1.748 -1.8334  0.2873 -1.7962
  401MOL0     H55322   7.970  10.766   2.976 -0.5024 -0.2194 -1.1336
  401MOL0     H55323   7.752  10.838   2.894 -2.0679  1.6569  0.0476
  401MOL0     H55324   7.331  10.890   2.972 -2.5595 -0.3215 -2.2892
  401MOL0     H55325   7.098  10.951   2.922  1.7065  0.1084 -3.1721
  401MOL0     H55326   6.961  11.383   2.898 -1.6079  1.3571 -1.4908
  401MOL0     H55327   6.980  11.320   2.738 -2.6030 -0.5321 -2.0656
  401MOL0     H55328   6.751  11.374   2.760 -1.2211 -1.6802 -0.2595
  401MOL0     H55329   6.743  11.291   2.916  1.0494 -0.5870  1.9782
  401MOL0     H55330   6.763  11.074   2.800 -0.9048  1.2278  2.4412
  401MOL0     H55331   6.634  11.168   2.725 -1.1141 -0.3827 -0.4438
  401MOL0     H55332   6.777  11.058   2.538  1.1278 -0.6705 -0.1979
  401MOL0     H55333   6.916  11.122   2.626  0.1713  1.5516  0.9583
  401MOL0     H55334   6.799  11.462   2.395  2.5214  0.1704  1.7104
  401MOL0     H55335   7.187  11.360   2.964  2.5248 -0.0687 -0.1736
  401MOL0     H55336   7.367  11.450   3.077  2.0721  0.3641  1.6495
  401MOL0     H55337   7.439  11.337   3.179 -0.9872 -2.0317 -0.2358
  401MOL0     H55338   7.515  11.350   3.023 -0.1835  0.6104 -0.1230
  402MOL0     O55339   6.308   5.588   2.036  0.4880 -0.3007  0.7644
  402MOL0     C55340   6.288   5.469   2.036  0.0866  0.4781 -0.6917
  402MOL0     O55341   6.384   5.373   2.065 -0.2952 -0.7318 -0.5279
  402MOL0     C55342   6.520   5.412   2.074 -0.4355 -0.4185 -0.8459
  402MOL0     C55343   6.590   5.468   1.968 -0.8846 -0.9117  0.1603
  402MOL0     C55344   6.725   5.507   1.985 -0.1187  0.1009  0.3829
  402MOL0     C55345   6.795   5.490   2.100  0.2122  0.4036 -0.7322
  402MOL0     O55346   6.914   5.557   2.100 -0.1913 -0.0075  0.3224
  402MOL0     C55347   6.998   5.540   2.204 -0.7858  0.8517  0.1582
  402MOL0     C55348   7.111   5.640   2.173 -0.1657  0.6356  0.1562
  402MOL0     C55349   7.205   5.637   2.290  0.0408  0.1739 -1.5613
  402MOL0     C55350   7.334   5.690   2.253 -0.9731  0.0896  1.0912
  402MOL0     C55351   7.444   5.619   2.315 -0.3810  0.0964  0.5800
  402MOL0     C55352   7.573   5.658   2.250 -0.3910 -0.6502  0.3527
  402MOL0     C55353   7.700   5.578   2.288  0.1884  0.4383 -0.0568
  402MOL0     C55354   7.730   5.607   2.441 -0.4310  0.8437  0.2255
  402MOL0     N55355   7.845   5.523   2.487 -0.0582 -0.0688 -0.1075
  402MOL0     C55356   7.835   5.400   2.541  0.3916  0.2367 -0.0030
  402MOL0     C55357   7.954   5.375   2.597 -0.0559  1.0595  0.7282
  402MOL0     C55358   8.001   5.247   2.662 -0.4287  0.6734 -0.2787
  402MOL0     C55359   8.148   5.217   2.643 -0.3627 -0.5138  0.4817
  402MOL0     C55360   8.202   5.084   2.693  0.3879  0.4281  0.2703
  402MOL0     C55361   8.315   5.031   2.615 -0.0785 -0.9087  0.6197
  402MOL0     O55362   8.373   4.910   2.672 -0.7247  0.1802  0.1931
  402MOL0     C55363   8.491   4.873   2.611 -0.3598  0.3363 -0.8596
  402MOL0     C55364   8.564   4.765   2.666  0.1876  0.6766 -0.1459
  402MOL0     C55365   8.694   4.730   2.630 -1.0734  0.3390 -1.0765
  402MOL0     C55366   8.760   4.601   2.679 -0.1552 -0.6170  0.4209
  402MOL0     C55367   8.760   4.811   2.531 -1.1615 -0.4484  0.0896
  402MOL0     C55368   8.897   4.785   2.476  0.1430  0.7904 -0.0003
  402MOL0     O55369   8.915   4.820   2.347 -0.9109 -0.1703 -0.9468
  402MOL0     C55370   9.044   4.821   2.290 -0.0190 -0.0124 -0.4443
  402MOL0     C55371   9.164   4.845   2.356 -0.0966 -0.5386 -0.1851
  402MOL0     C55372   9.284   4.837   2.288 -0.0502 -0.1616  0.3462
  402MOL0     C55373   9.291   4.816   2.150 -0.9769 -0.0505 -0.3327
  402MOL0     O55374   9.408   4.821   2.076  0.6141 -0.7715 -0.8711
  402MOL0     C55375   9.526   4.762   2.134 -0.3596  0.1237 -0.8399
  402MOL0     C55376   9.641   4.830   2.064  0.6602 -0.7565 -0.2627
  402MOL0     C55377   9.766   4.799   2.119  0.1036  0.1614 -0.6112
  402MOL0     C55378   9.874   4.869   2.034 -0.6632  0.2100  0.5970
  402MOL0     C55379  10.022   4.816   2.084  0.8648 -0.3834  0.5861
  402MOL0     C55380  10.135   4.888   2.007 -0.7328  0.7340  0.9425
  402MOL0     C55381  10.157   4.852   1.858 -0.6960 -0.0851 -0.2101
  402MOL0     C55382  10.250   4.952   1.789  0.3501  0.2759 -0.0569
  402MOL0    Cl55383  10.426   4.928   1.818 -0.4275 -0.2164  0.0269
  402MOL0     C55384   9.167   4.804   2.090  0.4177 -0.5886  0.1005
  402MOL0     C55385   9.047   4.805   2.158 -0.3296 -0.6144 -0.0463
  402MOL0     O55386   8.984   4.741   2.555  0.4988 -0.3126  0.1207
  402MOL0     C55387   8.691   4.918   2.471 -0.5366  1.0560  0.0151
  402MOL0     C55388   8.559   4.945   2.512 -0.1357 -0.0242  0.6241
  402MOL0     N55389   8.036   5.482   2.569 -0.4652  0.7785 -0.1769
  402MOL0     N55390   7.970   5.572   2.513  0.3226 -0.1361  0.5291
  402MOL0     C55391   6.728   5.426   2.205 -0.1099 -0.3487 -0.7711
  402MOL0     C55392   6.592   5.389   2.194  0.4614 -0.2732  0.0261
  402MOL0     C55393   6.151   5.430   2.032  0.8599  0.3413 -0.0674
  402MOL0     C55394   6.103   5.384   2.153 -0.3137  0.5129  0.0781
  402MOL0     C55395   5.979   5.328   2.163  0.6029 -0.1253  0.6976
  402MOL0     C55396   5.897   5.297   2.055 -0.5947 -0.7704  0.0404
  402MOL0     O55397   5.780   5.236   2.077  0.7103 -0.8321  0.3520
  402MOL0     C55398   5.784   5.098   2.112  0.6214  0.2867 -0.2305
  402MOL0     C55399   5.772   4.999   1.995 -0.7196 -0.3552 -0.6283
  402MOL0     C55400   5.663   5.031   1.896 -0.7568 -0.7361 -0.3241
  402MOL0     C55401   5.610   4.901   1.831  0.6619  0.3914  0.4400
  402MOL0     C55402   5.710   4.833   1.748  0.3743 -0.1739 -0.7770
  402MOL0     C55403   5.793   4.786   1.677  0.3499 -1.0062  0.2881
  402MOL0     C55404   5.937   5.355   1.936  0.8681  0.2584  0.4046
  402MOL0     C55405   6.058   5.432   1.919 -0.1789  0.6464  0.6832
  402MOL0     C55406   6.071   5.510   1.792 -0.5621  0.2203 -0.9972
  402MOL0     H55407   6.547   5.492   1.871  3.3672  3.8058 -0.9635
  402MOL0     H55408   6.761   5.563   1.899 -2.9298 -0.2411 -1.1274
  402MOL0     H55409   7.032   5.435   2.203  2.8290  1.7761 -3.7415
  402MOL0     H55410   6.936   5.557   2.292 -1.2128  0.2518 -0.0171
  402MOL0     H55411   7.159   5.603   2.082 -0.1381  1.2041 -0.0663
  402MOL0     H55412   7.071   5.739   2.146  0.0564 -0.2983 -4.3149
  402MOL0     H55413   7.166   5.693   2.376  2.2303  0.1737 -0.4829
  402MOL0     H55414   7.221   5.534   2.323  2.1191  1.2855  1.3824
  402MOL0     H55415   7.347   5.684   2.144  2.5812 -0.4800  1.4158
  402MOL0     H55416   7.329   5.795   2.281 -1.6091  0.2943  0.2314
  402MOL0     H55417   7.424   5.511   2.320  0.2064  0.0185  1.5818
  402MOL0     H55418   7.453   5.653   2.419  1.0737  2.3634 -0.2213
  402MOL0     H55419   7.561   5.642   2.143 -2.0179 -2.3108  0.7271
  402MOL0     H55420   7.586   5.763   2.277 -1.2833 -0.4589  0.0520
  402MOL0     H55421   7.784   5.598   2.221  0.1379  1.7214  0.2406
  402MOL0     H55422   7.675   5.473   2.271  1.8539  0.0330 -0.1861
  402MOL0     H55423   7.758   5.712   2.451 -1.2548  1.0748  0.2428
  402MOL0     H55424   7.643   5.579   2.501  0.4858 -2.3011  0.2423
  402MOL0     H55425   7.753   5.331   2.524  1.8730 -1.1190 -2.1227
  402MOL0     H55426   7.953   5.162   2.613  0.7450  0.1170 -0.5155
  402MOL0     H55427   7.983   5.244   2.770  2.9321 -1.5430  0.3901
  402MOL0     H55428   8.177   5.232   2.539  1.1645 -1.6558  0.7082
  402MOL0     H55429   8.202   5.296   2.695  0.4399  0.1497 -1.3071
  402MOL0     H55430   8.226   5.089   2.799 -0.1146 -4.2157  0.8452
  402MOL0     H55431   8.115   5.019   2.679 -0.4054  1.6457 -0.6669
  402MOL0     H55432   8.278   5.013   2.513 -4.7502 -0.3426  1.9764
  402MOL0     H55433   8.383   5.117   2.617 -1.5794  0.3279  0.3234
  402MOL0     H55434   8.508   4.708   2.740  2.4546 -0.2454  0.9318
  402MOL0     H55435   8.825   4.614   2.766  1.8327  0.7029 -1.1774
  402MOL0     H55436   8.813   4.555   2.595 -0.7268  0.0616 -0.3215
  402MOL0     H55437   8.677   4.545   2.724 -0.3769  2.8667  5.1960
  402MOL0     H55438   9.160   4.866   2.463  1.9664  1.7369 -0.4584
  402MOL0     H55439   9.371   4.882   2.336  1.4807 -1.5742 -0.9504
  402MOL0     H55440   9.527   4.766   2.243  0.1780  0.4497 -0.8511
  402MOL0     H55441   9.533   4.654   2.116  0.9988 -0.0812  0.6071
  402MOL0     H55442   9.640   4.793   1.961 -0.0932 -0.5065 -0.3538
  402MOL0     H55443   9.637   4.940   2.067 -0.8701 -0.8005  0.2183
  402MOL0     H55444   9.780   4.693   2.098 -1.8379  0.3030 -2.8978
  402MOL0     H55445   9.766   4.827   2.225 -0.3083  4.2996 -1.5195
  402MOL0     H55446   9.870   4.977   2.024 -0.1635  0.0272 -2.3676
  402MOL0     H55447   9.873   4.817   1.938  1.0978  0.6578  0.3089
  402MOL0     H55448  10.033   4.824   2.193  1.3035  2.4708  0.3961
  402MOL0     H55449  10.037   4.709   2.068 -0.2490 -0.5814  0.8010
  402MOL0     H55450  10.231   4.859   2.051 -1.1739 -2.3713  0.0820
  402MOL0     H55451  10.111   4.994   2.022 -0.7301  0.8287  0.2752
  402MOL0     H55452  10.063   4.846   1.802 -1.4182 -0.0769  0.9749
  402MOL0     H55453  10.197   4.751   1.853  3.3020  1.2817  0.4620
  402MOL0     H55454  10.213   5.051   1.816 -0.4076  1.2284 -3.8902
  402MOL0     H55455  10.252   4.941   1.680  1.7419 -0.8692  0.0543
  402MOL0     H55456   9.169   4.813   1.982  0.6801 -2.1849 -0.0409
  402MOL0     H55457   8.959   4.793   2.096 -0.6190  0.2031  0.1949
  402MOL0     H55458   8.736   4.977   2.392 -1.7242  3.8251  1.2522
  402MOL0     H55459   8.520   5.030   2.457  1.2959  0.8447  0.8807
  402MOL0     H55460   6.765   5.404   2.305 -0.2608 -1.9687 -1.0387
  402MOL0     H55461   6.543   5.343   2.280  0.0821 -0.1989 -0.1509
  402MOL0     H55462   6.153   5.408   2.246  3.2306  0.2078 -1.6006
  402MOL0     H55463   5.946   5.289   2.258  0.1221  1.3373  1.1701
  402MOL0     H55464   5.867   5.061   2.174  0.5757  2.9649  1.5887
  402MOL0     H55465   5.700   5.092   2.181 -1.0130  3.2081 -1.7437
  402MOL0     H55466   5.761   4.900   2.041  1.4918 -1.1806 -1.7401
  402MOL0     H55467   5.870   4.995   1.947 -0.1845 -1.8151  0.5079
  402MOL0     H55468   5.574   5.086   1.928  0.1901  1.8446 -1.8239
  402MOL0     H55469   5.712   5.092   1.820  3.2132 -1.6650  1.2531
  402MOL0     H55470   5.519   4.922   1.776  0.1469 -2.6714 -0.0750
  402MOL0     H55471   5.576   4.834   1.911 -1.1594 -0.3181 -0.8704
  402MOL0     H55472   5.865   4.732   1.618 -0.8052  0.8160 -3.0453
  402MOL0     H55473   5.864   5.353   1.855 -2.6386  1.3781  3.2974
  402MOL0     H55474   6.155   5.580   1.790 -0.8033  0.7208  1.8755
  402MOL0     H55475   6.061   5.449   1.701 -2.4376  1.6489 -1.8249
  402MOL0     H55476   5.977   5.565   1.784 -1.5408 -1.3236 -0.5773
  403MOL0     O55477  10.508   4.915  10.711  0.1560 -0.3313 -0.4148
  403MOL0     C55478  10.520   5.030  10.667  0.5058  0.6869 -0.2670
  403MOL0     O55479  10.629   5.068  10.592  0.0806  0.3404  0.1572
  403MOL0     C55480  10.731   4.989  10.547  0.2702 -0.5496  0.4455
  403MOL0     C55481  10.787   5.025  10.420  0.8364 -0.0216 -0.2658
  403MOL0     C55482  10.893   4.953  10.360  0.7538  0.6440  0.3386
  403MOL0     C55483  10.956   4.856  10.444 -1.1172  0.1786  0.0377
  403MOL0     O55484  11.071   4.800  10.408  0.2839  0.8488  0.0795
  403MOL0     C55485  11.191   4.878  10.453  0.0602  0.2035  0.0427
  403MOL0     C55486  11.313   4.808  10.400  0.7712 -0.1320 -1.0804
  403MOL0     C55487  11.312   4.758  10.258 -0.5250  0.2361  0.4304
  403MOL0     C55488  11.263   4.857  10.158  0.0583  0.0541 -0.2794
  403MOL0     C55489  11.262   4.810  10.008  0.4280 -0.2513  0.1821
  403MOL0     C55490  11.399   4.780   9.954  0.1253 -0.1141 -1.0137
  403MOL0     C55491  11.506   4.885   9.959 -0.4698 -0.4512  0.1430
  403MOL0     C55492  11.476   4.992   9.853  0.3051 -0.1819 -0.0650
  403MOL0     N55493  11.571   5.103   9.872  0.4276 -0.0539  0.4161
  403MOL0     C55494  11.704   5.107   9.839  1.0620  0.1534  0.2163
  403MOL0     C55495  11.737   5.234   9.844 -0.9350  0.5060  0.3019
  403MOL0     C55496  11.876   5.305   9.850 -0.7954  0.1919  0.1653
  403MOL0     C55497  11.930   5.276   9.990 -1.1853  0.2108  0.3008
  403MOL0     C55498  12.049   5.368  10.018  0.9687 -0.1772  0.0617
  403MOL0     C55499  12.168   5.316   9.949  0.3764  0.2694  0.5299
  403MOL0     O55500  12.264   5.414   9.980  0.2220 -0.8415 -0.2914
  403MOL0     C55501  12.382   5.412   9.910 -0.0676  0.2535  0.9977
  403MOL0     C55502  12.429   5.306   9.830 -1.1378  0.8591 -0.2558
  403MOL0     C55503  12.557   5.301   9.776  0.3550  0.0536 -0.2088
  403MOL0     C55504  12.597   5.180   9.682  0.1395 -0.3290  0.1213
  403MOL0     C55505  12.641   5.409   9.797 -0.4338 -0.5548 -0.2266
  403MOL0     C55506  12.775   5.412   9.731 -0.1265 -0.0230  0.9344
  403MOL0     O55507  12.827   5.537   9.716 -1.8168 -0.5934 -0.0450
  403MOL0     C55508  12.950   5.545   9.654 -0.1052 -0.0299  0.2383
  403MOL0     C55509  13.005   5.459   9.552  0.8263 -0.1549 -0.6837
  403MOL0     C55510  13.130   5.481   9.496  1.0499  0.1934  0.1590
  403MOL0     C55511  13.214   5.575   9.552  0.7180  0.2941 -0.1729
  403MOL0     O55512  13.345   5.607   9.509  0.0617 -0.8104  0.0044
  403MOL0     C55513  13.402   5.517   9.412  0.6279  0.2408 -0.1589
  403MOL0     C55514  13.554   5.541   9.395 -0.7106 -0.2290 -0.4688
  403MOL0     C55515  13.583   5.678   9.327  0.1565  0.1088 -0.4072
  403MOL0     C55516  13.645   5.782   9.424  0.2722  0.5441 -0.3478
  403MOL0     C55517  13.662   5.924   9.376  0.5410  0.8874  0.9154
  403MOL0     C55518  13.710   6.013   9.488 -0.0608  0.0290  0.2262
  403MOL0     C55519  13.696   6.161   9.448  0.5300  0.0270 -0.6049
  403MOL0     C55520  13.755   6.258   9.546 -0.0090 -0.1611 -0.2226
  403MOL0    Cl55521  13.712   6.241   9.719  0.1107 -0.0936  0.0056
  403MOL0     C55522  13.159   5.656   9.661  0.0766 -0.0321  0.0342
  403MOL0     C55523  13.033   5.640   9.715  0.4339  0.1750  0.6696
  403MOL0     O55524  12.829   5.305   9.708  0.2785  0.5352  0.1758
  403MOL0     C55525  12.595   5.522   9.873 -0.0561 -0.6747  0.0732
  403MOL0     C55526  12.470   5.522   9.931  0.7423  0.6398 -0.7100
  403MOL0     N55527  11.633   5.314   9.867 -0.2207  0.9526 -0.0289
  403MOL0     N55528  11.527   5.237   9.887 -0.4526  0.5270  0.0844
  403MOL0     C55529  10.907   4.825  10.565 -0.0133 -0.8616 -0.6908
  403MOL0     C55530  10.790   4.881  10.611  0.0480 -0.8015 -0.2128
  403MOL0     C55531  10.412   5.135  10.686 -0.7486  0.3699 -0.6086
  403MOL0     C55532  10.433   5.263  10.634 -0.2288  0.4903  0.8784
  403MOL0     C55533  10.348   5.371  10.647 -0.3977  0.4819 -0.5753
  403MOL0     C55534  10.233   5.351  10.731 -0.9449 -0.0125  1.1258
  403MOL0     O55535  10.147   5.451  10.758 -0.0962  0.2912  0.1957
  403MOL0     C55536  10.145   5.571  10.688 -0.7958 -0.0041  0.4506
  403MOL0     C55537  10.023   5.656  10.704  0.3336  0.4586  0.3569
  403MOL0     C55538   9.972   5.649  10.844  0.1895 -0.3060 -0.7979
  403MOL0     C55539  10.053   5.706  10.950 -0.0893 -0.4165 -0.8659
  403MOL0     C55540  10.030   5.849  10.968  0.4332 -0.1900 -0.6797
  403MOL0     C55541  10.021   5.970  10.986  0.3468  0.6754 -0.0594
  403MOL0     C55542  10.210   5.219  10.782  0.2106 -0.5307 -0.1246
  403MOL0     C55543  10.292   5.114  10.756 -0.1718  0.2116  1.1898
  403MOL0     C55544  10.255   4.980  10.812 -0.3149  0.6456 -0.3016
  403MOL0     H55545  10.739   5.099  10.358  0.3547 -1.3513 -1.5250
  403MOL0     H55546  10.939   4.989  10.269 -0.3028 -0.3491 -0.6260
  403MOL0     H55547  11.194   4.885  10.562  1.7408  2.3833 -0.0744
  403MOL0     H55548  11.185   4.975  10.401  0.2036  0.5489  0.6641
  403MOL0     H55549  11.397   4.874  10.425  1.1045 -0.8669 -0.1681
  403MOL0     H55550  11.331   4.720  10.462  0.0753  1.9274  2.2850
  403MOL0     H55551  11.415   4.754  10.220 -1.3712  2.7659 -2.5718
  403MOL0     H55552  11.264   4.660  10.257 -1.3956  0.6504  0.8375
  403MOL0     H55553  11.162   4.890  10.182 -0.3120 -0.9848 -0.3780
  403MOL0     H55554  11.329   4.944  10.173  3.3754 -2.2448 -0.5135
  403MOL0     H55555  11.212   4.881   9.942 -0.6721 -2.2134 -1.1966
  403MOL0     H55556  11.200   4.721   9.996 -2.5754  1.5693  1.0905
  403MOL0     H55557  11.441   4.697  10.012  0.4883  0.8280  0.1239
  403MOL0     H55558  11.396   4.758   9.847  0.3246  0.8737 -1.2354
  403MOL0     H55559  11.600   4.836   9.931  0.5706  0.4812  1.8948
  403MOL0     H55560  11.514   4.925  10.060 -1.6865  1.5734 -0.4903
  403MOL0     H55561  11.491   4.953   9.752 -2.3622  0.3209 -0.7324
  403MOL0     H55562  11.375   5.029   9.871 -0.3687 -0.8130 -2.1599
  403MOL0     H55563  11.768   5.027   9.803  0.9398  0.2908 -0.3200
  403MOL0     H55564  11.875   5.411   9.824  0.5316  0.1864  0.0106
  403MOL0     H55565  11.929   5.244   9.776 -0.8354 -1.2962  1.3026
  403MOL0     H55566  11.853   5.316  10.057 -1.7888 -0.8171  0.2316
  403MOL0     H55567  11.942   5.169  10.012  2.7806  0.0194 -1.8652
  403MOL0     H55568  12.026   5.468   9.982  0.7496 -0.7532 -1.4698
  403MOL0     H55569  12.065   5.381  10.125  0.0122 -0.6824  0.2771
  403MOL0     H55570  12.177   5.211   9.978 -4.1382  0.1183  2.2214
  403MOL0     H55571  12.153   5.308   9.841 -1.1250 -1.3868  0.7943
  403MOL0     H55572  12.360   5.222   9.828 -0.6208  0.4027  0.5664
  403MOL0     H55573  12.594   5.210   9.577 -1.0686 -2.3583 -0.5038
  403MOL0     H55574  12.519   5.103   9.692  0.8085 -0.9638  0.5338
  403MOL0     H55575  12.683   5.118   9.709 -0.0055  0.3708  2.4015
  403MOL0     H55576  12.936   5.386   9.512  0.1015 -1.4987  2.6857
  403MOL0     H55577  13.168   5.424   9.412  2.1530  2.0841 -0.6941
  403MOL0     H55578  13.393   5.421   9.465  2.9514  0.7988  1.4335
  403MOL0     H55579  13.364   5.522   9.310  1.9828  0.1594 -0.6838
  403MOL0     H55580  13.618   5.538   9.484  1.7429 -0.0654 -2.1187
  403MOL0     H55581  13.608   5.459   9.346  0.1744 -1.4510  2.3685
  403MOL0     H55582  13.492   5.726   9.288  0.2960  2.2494  1.6609
  403MOL0     H55583  13.658   5.656   9.251  1.8230  0.9285  0.9190
  403MOL0     H55584  13.742   5.745   9.457  0.8974  3.6989  1.7333
  403MOL0     H55585  13.570   5.778   9.503  0.5747 -2.3142 -0.1258
  403MOL0     H55586  13.732   5.927   9.292 -0.2250 -0.2581  0.2170
  403MOL0     H55587  13.574   5.963   9.325  2.7136 -1.2665 -5.4399
  403MOL0     H55588  13.815   5.991   9.508  1.2261  2.9856 -2.3447
  403MOL0     H55589  13.655   6.001   9.581 -0.0375 -1.4562  0.0630
  403MOL0     H55590  13.589   6.180   9.440  0.4323 -0.3893 -0.2867
  403MOL0     H55591  13.750   6.184   9.356  2.2847 -3.9683 -0.7682
  403MOL0     H55592  13.727   6.362   9.523 -0.5044  0.4854  2.8968
  403MOL0     H55593  13.863   6.243   9.544 -0.0224 -0.3307  0.1777
  403MOL0     H55594  13.219   5.735   9.704  0.5593 -0.3798  0.0107
  403MOL0     H55595  13.000   5.696   9.802 -1.7934 -1.9984  1.3268
  403MOL0     H55596  12.658   5.609   9.889  1.5506 -1.7575 -0.1219
  403MOL0     H55597  12.427   5.599   9.995  1.4547  0.9077 -0.5407
  403MOL0     H55598  10.961   4.759  10.631 -2.1603 -0.2480  1.8320
  403MOL0     H55599  10.752   4.843  10.705 -1.0104 -1.3076 -0.8334
  403MOL0     H55600  10.523   5.290  10.579 -0.0780  1.2347  1.4771
  403MOL0     H55601  10.369   5.464  10.595  1.4088 -0.6098 -1.9302
  403MOL0     H55602  10.229   5.634  10.719 -0.3838 -0.3166 -0.0004
  403MOL0     H55603  10.158   5.545  10.582 -1.2983 -2.6683  0.9615
  403MOL0     H55604   9.949   5.615  10.635 -0.5738  2.4128  0.1105
  403MOL0     H55605  10.031   5.760  10.671 -0.8162 -0.5464 -3.5800
  403MOL0     H55606   9.877   5.703  10.847  0.0080 -0.6499  0.6361
  403MOL0     H55607   9.947   5.544  10.866  0.8380 -1.0349 -3.2111
  403MOL0     H55608  10.157   5.682  10.925  0.2782  0.2985 -0.0511
  403MOL0     H55609  10.045   5.655  11.047 -0.2341  0.6431 -0.3135
  403MOL0     H55610  10.021   6.075  11.008 -1.9380  0.1004  3.3912
  403MOL0     H55611  10.115   5.195  10.830  0.0574  1.1738  0.4937
  403MOL0     H55612  10.241   4.893  10.747 -1.3812  0.4891  0.1297
  403MOL0     H55613  10.304   4.959  10.908  3.0274  2.1133 -1.5467
  403MOL0     H55614  10.149   4.987  10.835 -0.2012  0.2504  0.3625
  404MOL0     O55615   6.955   2.426   2.625  0.6452  0.2055 -0.0297
  404MOL0     C55616   6.867   2.486   2.565  0.0434 -0.2132 -0.0733
  404MOL0     O55617   6.883   2.592   2.478 -0.5500 -0.3932  0.5490
  404MOL0     C55618   7.009   2.637   2.431 -0.0993  0.6046  0.2884
  404MOL0     C55619   7.019   2.687   2.301 -0.2603  0.2070 -0.0708
  404MOL0     C55620   7.143   2.712   2.239 -0.5895  0.0915  0.8554
  404MOL0     C55621   7.266   2.684   2.307 -0.1362  0.7882  0.5743
  404MOL0     O55622   7.384   2.705   2.242 -0.8937  0.4054  0.2081
  404MOL0     C55623   7.445   2.596   2.167  0.7269 -0.1744 -0.0430
  404MOL0     C55624   7.552   2.650   2.078 -0.0394  0.2428 -0.9604
  404MOL0     C55625   7.637   2.770   2.138  0.3887  0.0360 -0.3510
  404MOL0     C55626   7.765   2.800   2.063 -0.2962  0.3059  0.1219
  404MOL0     C55627   7.848   2.922   2.113  0.3029  0.1030 -0.4755
  404MOL0     C55628   7.924   2.895   2.249 -0.4210  0.1658 -0.4987
  404MOL0     C55629   8.043   2.805   2.244 -0.1505  0.3777  0.1634
  404MOL0     C55630   8.155   2.823   2.135  0.4965 -0.2017  0.3193
  404MOL0     N55631   8.246   2.936   2.160  0.1472  0.1244  0.5803
  404MOL0     C55632   8.214   3.062   2.121  0.5113  0.1330 -0.1229
  404MOL0     C55633   8.317   3.142   2.168  0.0652 -0.0884  0.2153
  404MOL0     C55634   8.352   3.280   2.126 -0.1679 -0.7274 -0.3359
  404MOL0     C55635   8.464   3.272   2.010  0.2071  0.4916 -0.3490
  404MOL0     C55636   8.512   3.403   1.961  0.2808 -0.1956 -0.0566
  404MOL0     C55637   8.604   3.466   2.051 -0.6586 -0.8799 -0.0527
  404MOL0     O55638   8.724   3.392   2.084  0.8627  0.1030  0.2782
  404MOL0     C55639   8.806   3.459   2.162 -0.6347  0.3535  0.5124
  404MOL0     C55640   8.793   3.585   2.232 -0.2491 -0.5622  1.1291
  404MOL0     C55641   8.896   3.643   2.310 -0.0370 -0.0631  0.1861
  404MOL0     C55642   8.871   3.779   2.374 -0.9639  0.0746  0.3767
  404MOL0     C55643   9.018   3.575   2.310 -0.7776 -0.0815 -1.0356
  404MOL0     C55644   9.133   3.636   2.374 -0.6314 -0.1884  0.1606
  404MOL0     O55645   9.120   3.642   2.509  0.2822 -0.7240 -0.2906
  404MOL0     C55646   9.227   3.703   2.585 -0.0907  0.3050  0.6665
  404MOL0     C55647   9.361   3.665   2.579 -1.0985  0.3831 -0.4434
  404MOL0     C55648   9.462   3.733   2.653  0.1537  1.1321  0.0494
  404MOL0     C55649   9.417   3.834   2.733  0.5196  0.5754 -0.3095
  404MOL0     O55650   9.521   3.896   2.797 -0.1934 -0.1887  0.3305
  404MOL0     C55651   9.500   4.007   2.883  0.0473 -0.6893 -0.2977
  404MOL0     C55652   9.626   4.048   2.965 -0.3841 -0.1712  0.1012
  404MOL0     C55653   9.734   4.098   2.875  0.2500 -0.2749 -0.8403
  404MOL0     C55654   9.847   3.996   2.847 -0.1907  0.9307 -1.0499
  404MOL0     C55655   9.938   4.042   2.736 -0.1129  0.1302 -0.2632
  404MOL0     C55656   9.870   4.047   2.594 -0.2992  0.3037 -0.0061
  404MOL0     C55657   9.816   3.919   2.534  0.0179 -0.5462  0.1566
  404MOL0     C55658   9.928   3.826   2.480  0.4695 -0.4504  0.4890
  404MOL0    Cl55659  10.014   3.909   2.343 -0.2262  0.2388  0.1965
  404MOL0     C55660   9.283   3.865   2.742  0.3297  0.6805 -0.9632
  404MOL0     C55661   9.185   3.802   2.670 -0.4271  0.7481  0.1614
  404MOL0     O55662   9.235   3.655   2.308  0.5608  0.3472  0.2434
  404MOL0     C55663   9.036   3.459   2.243 -0.1235  0.7109 -0.2649
  404MOL0     C55664   8.929   3.394   2.171  0.0362 -0.0275  0.4711
  404MOL0     N55665   8.409   3.059   2.227  1.0865 -0.4225 -0.9480
  404MOL0     N55666   8.371   2.937   2.216  0.3951 -0.0111 -0.2890
  404MOL0     C55667   7.252   2.647   2.440  0.1184  0.8924 -0.3690
  404MOL0     C55668   7.135   2.614   2.495  0.4943 -0.0762 -0.6060
  404MOL0     C55669   6.724   2.452   2.604 -0.5364 -0.1741 -0.1366
  404MOL0     C55670   6.617   2.486   2.519  0.4085  0.6892  0.7635
  404MOL0     C55671   6.483   2.458   2.555  0.0779  0.3706 -0.1185
  404MOL0     C55672   6.456   2.392   2.677 -0.1881  0.2097  0.2720
  404MOL0     O55673   6.334   2.350   2.723  0.5149 -0.6598 -0.0745
  404MOL0     C55674   6.228   2.331   2.623 -0.4594 -0.3439 -0.1797
  404MOL0     C55675   6.111   2.423   2.672 -0.7222 -0.2262 -0.2417
  404MOL0     C55676   6.017   2.440   2.557  0.3138 -0.0552 -0.8265
  404MOL0     C55677   5.964   2.314   2.489  0.3170 -0.5618 -0.8994
  404MOL0     C55678   5.870   2.249   2.581 -0.5213 -0.4587  0.2138
  404MOL0     C55679   5.795   2.187   2.650  0.1653 -0.6249  1.0804
  404MOL0     C55680   6.563   2.363   2.767 -0.0306 -0.0321  0.3851
  404MOL0     C55681   6.695   2.391   2.733 -0.7879 -0.7880 -0.8028
  404MOL0     C55682   6.807   2.356   2.846 -0.1932 -0.0248  0.5619
  404MOL0     H55683   6.922   2.704   2.254 -0.9013  0.3301  1.2299
  404MOL0     H55684   7.143   2.749   2.137 -2.0136 -0.4267  0.6499
  404MOL0     H55685   7.373   2.537   2.110 -1.0063  2.7887 -1.1558
  404MOL0     H55686   7.490   2.528   2.240  1.6647  1.7233  1.2415
  404MOL0     H55687   7.619   2.567   2.053 -1.3741 -0.2186 -3.2866
  404MOL0     H55688   7.508   2.685   1.984  0.3336 -0.8515 -1.5616
  404MOL0     H55689   7.576   2.860   2.149  1.0848  0.4507  0.2948
  404MOL0     H55690   7.668   2.745   2.240  2.0446  6.4517  1.2327
  404MOL0     H55691   7.825   2.709   2.060 -0.9507 -0.2089  1.8200
  404MOL0     H55692   7.755   2.822   1.956 -0.3942  1.3428  0.3268
  404MOL0     H55693   7.769   2.997   2.124 -1.7212 -2.1785  1.9553
  404MOL0     H55694   7.918   2.968   2.042 -1.5022  1.1382 -1.6833
  404MOL0     H55695   7.952   2.994   2.285 -0.5662 -0.5196  1.6525
  404MOL0     H55696   7.852   2.855   2.321  1.4147 -1.5222  0.4993
  404MOL0     H55697   7.997   2.707   2.229 -0.9163  0.0769  3.7174
  404MOL0     H55698   8.105   2.802   2.334 -0.9146 -3.1791  0.7204
  404MOL0     H55699   8.206   2.726   2.140  0.7394 -0.4270 -3.6398
  404MOL0     H55700   8.111   2.837   2.036  0.5361 -3.0812 -0.1926
  404MOL0     H55701   8.124   3.083   2.065 -0.4319  0.6458  1.5385
  404MOL0     H55702   8.386   3.336   2.214 -1.6632 -1.7794  0.9657
  404MOL0     H55703   8.267   3.331   2.081 -0.5904  0.7480  1.9723
  404MOL0     H55704   8.549   3.213   2.046 -0.1314  0.1055 -0.1726
  404MOL0     H55705   8.431   3.208   1.928  0.1039 -3.1393  2.2601
  404MOL0     H55706   8.550   3.400   1.858 -2.1755 -1.3603 -1.0238
  404MOL0     H55707   8.429   3.470   1.937 -0.0133 -1.1400 -1.9438
  404MOL0     H55708   8.633   3.560   2.004  1.0609 -2.0075 -1.3421
  404MOL0     H55709   8.554   3.484   2.147  0.5021 -0.6653  0.5178
  404MOL0     H55710   8.698   3.637   2.241 -0.6683 -0.8317 -1.0317
  404MOL0     H55711   8.947   3.802   2.450  1.2526  2.9337 -2.4079
  404MOL0     H55712   8.772   3.788   2.419 -0.7988  0.6440  0.6406
  404MOL0     H55713   8.871   3.853   2.293  0.5559  0.8325  1.0179
  404MOL0     H55714   9.386   3.580   2.516 -3.0281 -0.6078  0.0415
  404MOL0     H55715   9.562   3.691   2.652 -0.6975 -1.1902  2.4516
  404MOL0     H55716   9.480   4.088   2.813 -0.9030  1.0743  1.8697
  404MOL0     H55717   9.417   4.001   2.954 -1.5267  1.0943 -1.8940
  404MOL0     H55718   9.610   4.140   3.022  0.2842  2.1824 -3.2242
  404MOL0     H55719   9.649   3.964   3.031  3.0248  0.9582  0.5657
  404MOL0     H55720   9.775   4.183   2.929 -1.7128  0.3517 -0.2757
  404MOL0     H55721   9.685   4.139   2.786 -2.0612 -1.1092 -0.0443
  404MOL0     H55722   9.798   3.902   2.820  1.4275 -0.2888  0.0387
  404MOL0     H55723   9.905   3.975   2.937 -2.0862 -0.2070 -0.0339
  404MOL0     H55724   9.981   4.140   2.758  0.9267 -0.3987  0.1138
  404MOL0     H55725  10.019   3.971   2.719  0.6464  0.7231  0.7742
  404MOL0     H55726   9.936   4.101   2.526  0.1323  0.5475  0.5958
  404MOL0     H55727   9.788   4.120   2.595  0.5009  1.2815 -1.3932
  404MOL0     H55728   9.736   3.940   2.463 -0.6061  0.7365  1.2084
  404MOL0     H55729   9.758   3.861   2.606  0.5750 -1.0062  0.2442
  404MOL0     H55730   9.868   3.742   2.444  0.2864 -0.6722  1.2878
  404MOL0     H55731  10.002   3.804   2.558  1.8084  1.3392 -0.2049
  404MOL0     H55732   9.240   3.934   2.813  1.2409  0.4262 -0.1515
  404MOL0     H55733   9.079   3.823   2.678 -1.2457 -2.6092 -0.4940
  404MOL0     H55734   9.133   3.411   2.230 -0.3988  0.4589 -1.6317
  404MOL0     H55735   8.937   3.302   2.114 -1.0877 -0.3586  0.8222
  404MOL0     H55736   7.338   2.624   2.503 -0.1370  3.0278  0.8509
  404MOL0     H55737   7.134   2.578   2.597 -0.6417 -0.0859 -0.6068
  404MOL0     H55738   6.636   2.550   2.433  1.1456  1.6489  1.6175
  404MOL0     H55739   6.399   2.493   2.496 -0.0510  0.2618  0.0014
  404MOL0     H55740   6.250   2.358   2.520 -3.9309 -1.0004 -1.2199
  404MOL0     H55741   6.195   2.227   2.625 -1.3184 -0.0979 -0.8168
  404MOL0     H55742   6.149   2.521   2.700 -0.0544 -0.3899 -0.5640
  404MOL0     H55743   6.061   2.373   2.756  0.1659 -2.1781 -0.8189
  404MOL0     H55744   5.932   2.500   2.591  1.0718  0.9176 -0.5959
  404MOL0     H55745   6.069   2.512   2.494  1.1430  0.3567  0.2851
  404MOL0     H55746   6.048   2.250   2.459  1.1772 -0.9572  1.9832
  404MOL0     H55747   5.909   2.354   2.404 -2.1822  0.1555  0.9485
  404MOL0     H55748   5.716   2.138   2.703 -0.5127  0.8833  1.5275
  404MOL0     H55749   6.542   2.312   2.860 -0.3968 -1.5003 -0.4684
  404MOL0     H55750   6.763   2.347   2.946  1.4227  0.9542  1.4048
  404MOL0     H55751   6.853   2.262   2.814 -0.5625  0.0415 -0.1637
  404MOL0     H55752   6.877   2.434   2.877  0.4073 -0.6661  0.8369
  405MOL0     O55753   2.415   8.100  10.841  0.2540 -0.2978  0.3167
  405MOL0     C55754   2.427   8.221  10.850 -1.0502 -0.5441  0.2571
  405MOL0     O55755   2.545   8.288  10.878 -0.3461 -0.0367  0.0536
  405MOL0     C55756   2.668   8.227  10.880 -0.6789 -0.5520 -0.1208
  405MOL0     C55757   2.781   8.314  10.842  0.4250 -0.4602  0.7829
  405MOL0     C55758   2.913   8.273  10.868  0.3390 -1.0379 -0.8770
  405MOL0     C55759   2.938   8.143  10.911  0.5565 -0.0255 -0.4282
  405MOL0     O55760   3.061   8.089  10.934 -0.3405  0.3050 -0.7462
  405MOL0     C55761   3.170   8.129  10.850  0.4604 -0.0030 -0.5684
  405MOL0     C55762   3.302   8.071  10.901 -0.2157 -0.1413  0.9554
  405MOL0     C55763   3.427   8.119  10.824 -0.5409  0.0870  0.6999
  405MOL0     C55764   3.557   8.068  10.866 -0.3679  0.2848  0.8003
  405MOL0     C55765   3.650   8.183  10.908 -0.3637 -0.0904 -0.5110
  405MOL0     C55766   3.782   8.139  10.974 -0.2135  0.6278  0.4026
  405MOL0     C55767   3.867   8.254  11.002  0.0902  0.0173 -0.0376
  405MOL0     C55768   3.961   8.229  11.116  0.7227 -0.6108 -0.3346
  405MOL0     N55769   4.037   8.096  11.098  0.2493 -0.9411  0.0952
  405MOL0     C55770   4.050   7.999  11.189 -0.6768  0.4222 -0.3686
  405MOL0     C55771   4.103   7.893  11.123 -0.4271  0.5881  0.5793
  405MOL0     C55772   4.135   7.759  11.179  0.8764  0.5124 -0.3879
  405MOL0     C55773   4.287   7.726  11.175 -0.4830 -0.3149  0.7918
  405MOL0     C55774   4.363   7.774  11.302  0.0540 -0.1744 -1.1675
  405MOL0     C55775   4.511   7.802  11.284  0.0986 -0.0360  1.1766
  405MOL0     O55776   4.587   7.774  11.405 -0.0198 -0.5034  0.5964
  405MOL0     C55777   4.712   7.815  11.393  0.0086 -0.3036  0.5261
  405MOL0     C55778   4.762   7.944  11.372  0.0848  0.2496 -0.2505
  405MOL0     C55779   4.900   7.974  11.365 -0.1740  0.4936 -0.6611
  405MOL0     C55780   4.933   8.111  11.325  0.2822 -0.1518 -1.1102
  405MOL0     C55781   4.994   7.872  11.397 -1.0261 -0.1108  0.0187
  405MOL0     C55782   5.135   7.889  11.393  0.4849  0.4477 -1.0641
  405MOL0     O55783   5.205   7.816  11.479 -0.5852  0.0230 -0.9308
  405MOL0     C55784   5.342   7.824  11.472 -0.0841  0.2001  0.2268
  405MOL0     C55785   5.415   7.703  11.443 -0.3671 -0.5963 -0.6114
  405MOL0     C55786   5.554   7.713  11.414  0.1200 -0.1008 -0.2344
  405MOL0     C55787   5.621   7.837  11.400 -1.0034 -0.2249  0.3969
  405MOL0     O55788   5.752   7.856  11.363 -0.0078 -1.2165 -0.1296
  405MOL0     C55789   5.839   7.743  11.357  0.3809 -0.3926  0.3462
  405MOL0     C55790   5.971   7.789  11.296 -0.2729  0.4187  0.8165
  405MOL0     C55791   6.045   7.895  11.380  0.2580 -0.3580 -0.1185
  405MOL0     C55792   6.191   7.888  11.333  0.3780  0.1829 -0.1550
  405MOL0     C55793   6.272   8.009  11.370  0.1729  0.0872  0.1132
  405MOL0     C55794   6.293   8.032  11.520  0.3364  0.5563 -0.7721
  405MOL0     C55795   6.416   8.129  11.524  0.3754 -0.0161 -0.2848
  405MOL0     C55796   6.455   8.175  11.662  0.5626 -0.2548 -0.4004
  405MOL0    Cl55797   6.586   8.301  11.646  0.4798  0.0754  0.0866
  405MOL0     C55798   5.551   7.946  11.446  0.0695  0.2020  0.6875
  405MOL0     C55799   5.418   7.942  11.490  1.0114  0.0250  0.4563
  405MOL0     O55800   5.186   7.955  11.305 -0.0454 -0.4473  0.2496
  405MOL0     C55801   4.942   7.748  11.440  0.5303 -0.2479  0.0404
  405MOL0     C55802   4.806   7.727  11.447 -0.2251  0.4164  0.1295
  405MOL0     N55803   4.121   7.929  10.990 -0.3802  0.4648  0.4010
  405MOL0     N55804   4.095   8.059  10.986  0.4552  0.2557  0.3139
  405MOL0     C55805   2.831   8.065  10.950 -0.4803 -0.8998 -0.4273
  405MOL0     C55806   2.697   8.101  10.934 -0.0300  1.6128  0.1304
  405MOL0     C55807   2.311   8.300  10.821  0.9350  1.0760 -0.3779
  405MOL0     C55808   2.198   8.299  10.902 -0.0424  0.3243  0.1066
  405MOL0     C55809   2.094   8.387  10.877  0.2871  0.1572 -0.3901
  405MOL0     C55810   2.093   8.475  10.770 -0.5366  0.0264 -0.0172
  405MOL0     O55811   1.983   8.555  10.757  0.4991  0.1199 -0.1350
  405MOL0     C55812   1.977   8.668  10.669  0.0297  0.7146  1.3199
  405MOL0     C55813   1.917   8.793  10.739  0.0794 -0.3767 -0.4245
  405MOL0     C55814   1.923   8.909  10.635  0.0084  0.4224  0.0893
  405MOL0     C55815   1.789   8.936  10.552 -0.0047  0.1415 -0.0795
  405MOL0     C55816   1.761   8.831  10.464  0.9653 -0.1563 -0.3133
  405MOL0     C55817   1.714   8.744  10.392  0.6659  0.5548  0.7500
  405MOL0     C55818   2.200   8.460  10.675  0.0858  0.6001  0.5961
  405MOL0     C55819   2.307   8.365  10.695 -0.3182 -0.2441 -0.2956
  405MOL0     C55820   2.425   8.359  10.594  0.3411  0.2642 -0.0107
  405MOL0     H55821   2.755   8.409  10.796 -2.5776 -1.7568 -0.4182
  405MOL0     H55822   2.981   8.353  10.844  0.4956 -1.4398 -1.8014
  405MOL0     H55823   3.181   8.237  10.861  1.1748 -0.0031 -1.2066
  405MOL0     H55824   3.160   8.112  10.742  0.0219 -1.4654 -0.3135
  405MOL0     H55825   3.314   8.089  11.008 -0.6394 -0.2776  1.0293
  405MOL0     H55826   3.305   7.962  10.886  1.5214 -0.2360  1.7505
  405MOL0     H55827   3.418   8.101  10.717 -2.3103  0.2274  0.7921
  405MOL0     H55828   3.425   8.228  10.830  1.7285  0.3475 -1.7213
  405MOL0     H55829   3.547   7.993  10.945  1.2525 -1.6697 -0.7356
  405MOL0     H55830   3.600   8.002  10.789  0.4322  0.6834  0.8959
  405MOL0     H55831   3.595   8.251  10.974  0.2589  1.2313 -1.3169
  405MOL0     H55832   3.675   8.241  10.819 -1.3464 -0.8488 -1.2990
  405MOL0     H55833   3.761   8.082  11.064  0.8740 -2.9368 -1.4173
  405MOL0     H55834   3.845   8.079  10.908  2.0557  0.9122  2.1966
  405MOL0     H55835   3.801   8.339  11.024  0.4635  0.2452  0.2139
  405MOL0     H55836   3.921   8.280  10.910 -2.2025 -0.1023 -1.5089
  405MOL0     H55837   4.037   8.308  11.112  1.0196 -0.9474 -1.8113
  405MOL0     H55838   3.899   8.233  11.205  1.7314 -2.5572  0.4975
  405MOL0     H55839   4.021   7.989  11.293  1.9343  0.5363  0.4436
  405MOL0     H55840   4.069   7.683  11.135  1.6188  0.5727 -1.6581
  405MOL0     H55841   4.100   7.772  11.282 -0.0364  2.6112 -0.9124
  405MOL0     H55842   4.287   7.617  11.173 -2.0376 -0.3592  1.3861
  405MOL0     H55843   4.334   7.767  11.085  1.5354  0.1278  1.9743
  405MOL0     H55844   4.312   7.865  11.331  0.1308  0.0106 -1.5971
  405MOL0     H55845   4.356   7.708  11.389  0.9350  1.0297 -0.1577
  405MOL0     H55846   4.551   7.743  11.201  1.1892 -0.6857  2.1146
  405MOL0     H55847   4.522   7.907  11.259  2.5873 -0.2893  0.9033
  405MOL0     H55848   4.693   8.024  11.348 -0.5338 -0.3188 -0.3875
  405MOL0     H55849   4.981   8.114  11.227  3.0044  0.6986  0.1493
  405MOL0     H55850   5.011   8.151  11.391 -0.9872  2.3803 -1.0211
  405MOL0     H55851   4.851   8.183  11.331  1.1566  0.7664  1.4862
  405MOL0     H55852   5.369   7.605  11.429  0.3857 -0.6730 -2.9343
  405MOL0     H55853   5.597   7.618  11.380  0.6577  0.6611 -1.7941
  405MOL0     H55854   5.858   7.726  11.464  0.0940 -1.2988  0.2613
  405MOL0     H55855   5.790   7.654  11.316 -0.7348 -0.6145  2.0231
  405MOL0     H55856   6.043   7.706  11.290  0.4241  0.9691  1.3282
  405MOL0     H55857   5.954   7.815  11.191 -1.4869  0.0911  0.9274
  405MOL0     H55858   6.035   7.871  11.487 -3.3427  2.6707  0.4366
  405MOL0     H55859   5.995   7.991  11.364  1.8945  0.8414  1.4386
  405MOL0     H55860   6.197   7.873  11.225  0.7729  1.9735 -0.4137
  405MOL0     H55861   6.237   7.805  11.387  0.0445  0.6761  0.9265
  405MOL0     H55862   6.368   7.993  11.320  0.2545  2.1458 -0.4715
  405MOL0     H55863   6.224   8.088  11.312 -2.1530  1.1088  3.2134
  405MOL0     H55864   6.330   7.941  11.568 -0.5939  0.3667 -0.4099
  405MOL0     H55865   6.197   8.058  11.564 -0.3319 -1.6697 -0.8451
  405MOL0     H55866   6.377   8.214  11.467  1.6092  1.7660  1.4224
  405MOL0     H55867   6.504   8.086  11.475  0.6398 -3.2532  2.6440
  405MOL0     H55868   6.496   8.092  11.720  0.1516 -0.3909 -0.3022
  405MOL0     H55869   6.359   8.209  11.702  0.8288  2.3051 -1.7577
  405MOL0     H55870   5.616   8.032  11.439 -1.0209  0.9816 -0.2058
  405MOL0     H55871   5.367   8.024  11.538 -3.0967 -0.5929 -2.3694
  405MOL0     H55872   5.007   7.674  11.486  1.8792  2.0530  2.0908
  405MOL0     H55873   4.776   7.630  11.486 -3.1222  1.1929 -0.0125
  405MOL0     H55874   2.845   7.964  10.988 -3.3858 -0.2103  2.9431
  405MOL0     H55875   2.623   8.035  10.979  0.2536  0.8755 -0.4788
  405MOL0     H55876   2.200   8.237  10.990  3.5398  1.9409  1.3925
  405MOL0     H55877   1.999   8.369  10.925 -0.4193  0.4675 -1.6127
  405MOL0     H55878   2.077   8.688  10.629 -0.2231 -0.4626  0.0071
  405MOL0     H55879   1.909   8.640  10.589  1.8439  0.0923 -0.0663
  405MOL0     H55880   1.972   8.808  10.832  0.8800  0.8590 -1.0755
  405MOL0     H55881   1.814   8.771  10.770  0.9036  0.4040  3.2860
  405MOL0     H55882   1.942   9.008  10.678 -3.8633  2.7345 -2.7903
  405MOL0     H55883   2.007   8.895  10.566 -1.6485  0.7394 -2.1291
  405MOL0     H55884   1.791   9.033  10.502 -0.3862  0.2290  0.0694
  405MOL0     H55885   1.709   8.941  10.627 -1.2389  0.4898 -1.3824
  405MOL0     H55886   1.683   8.679  10.313  0.2502  2.0465 -0.3690
  405MOL0     H55887   2.220   8.516  10.584  4.6103  1.4778  1.9125
  405MOL0     H55888   2.396   8.406  10.500  0.8131 -0.6092 -0.6138
  405MOL0     H55889   2.509   8.414  10.638 -0.2381 -1.3097  3.3601
  405MOL0     H55890   2.452   8.255  10.573  0.1365  0.0544  0.7252
  406MOL0     O55891   4.402   8.178   2.884 -0.3296  0.0123 -0.1971
  406MOL0     C55892   4.299   8.177   2.810 -0.8116  0.3098  0.4785
  406MOL0     O55893   4.288   8.213   2.670 -0.2013  0.4086 -0.9181
  406MOL0     C55894   4.395   8.213   2.581  1.5877  0.1254  0.1749
  406MOL0     C55895   4.519   8.162   2.600 -0.4425 -0.6435 -0.1343
  406MOL0     C55896   4.610   8.148   2.497  0.4638  0.4563  1.1418
  406MOL0     C55897   4.577   8.178   2.363 -0.0599 -0.5759 -1.3511
  406MOL0     O55898   4.664   8.160   2.263 -0.9790  0.2105  0.4029
  406MOL0     C55899   4.696   8.267   2.178  0.5699 -0.7977  0.7469
  406MOL0     C55900   4.609   8.261   2.043 -0.1305  0.0174 -0.0226
  406MOL0     C55901   4.621   8.122   1.973  0.4975 -0.6919  0.7041
  406MOL0     C55902   4.524   8.132   1.858 -0.1632  1.1760 -0.3007
  406MOL0     C55903   4.548   8.013   1.772  0.6876  1.2011 -0.4509
  406MOL0     C55904   4.663   8.027   1.682 -0.4507 -0.1753 -0.1501
  406MOL0     C55905   4.660   7.933   1.560 -1.0266 -0.2670  0.3628
  406MOL0     C55906   4.713   7.794   1.595 -0.1481  0.0998  0.8642
  406MOL0     N55907   4.721   7.708   1.468 -0.5063 -0.3787  0.4533
  406MOL0     C55908   4.649   7.721   1.349  0.7051 -0.3149 -0.1115
  406MOL0     C55909   4.687   7.623   1.277 -0.2480 -0.1856 -1.2003
  406MOL0     C55910   4.633   7.607   1.137 -0.2788  0.4265  0.3233
  406MOL0     C55911   4.739   7.565   1.035  0.0083 -0.0796 -0.3668
  406MOL0     C55912   4.822   7.687   1.004 -0.0242 -1.1893  0.1096
  406MOL0     C55913   4.937   7.636   0.908  0.2146  0.7166 -0.7648
  406MOL0     O55914   5.022   7.537   0.982  0.2386 -0.2023 -0.2068
  406MOL0     C55915   5.158   7.518   0.940  0.3807 -0.1883  0.8728
  406MOL0     C55916   5.225   7.408   0.997  0.5277 -0.9897 -0.1103
  406MOL0     C55917   5.358   7.369   0.965 -0.6213 -0.0308 -0.6575
  406MOL0     C55918   5.421   7.265   1.049  0.8699 -0.7562  0.1339
  406MOL0     C55919   5.426   7.444   0.868  0.0956 -0.1896  0.4185
  406MOL0     C55920   5.571   7.434   0.820 -0.2412  0.4392  0.7870
  406MOL0     O55921   5.649   7.358   0.900 -0.2371  0.9329  0.3106
  406MOL0     C55922   5.785   7.349   0.881 -0.2890  0.0006 -0.4450
  406MOL0     C55923   5.837   7.246   0.803 -0.2310  0.2400  0.1392
  406MOL0     C55924   5.974   7.231   0.769  0.8096 -0.0827 -0.4188
  406MOL0     C55925   6.058   7.325   0.827 -1.2674  1.0151  0.6847
  406MOL0     O55926   6.193   7.307   0.802  1.0605 -0.0453 -0.4065
  406MOL0     C55927   6.258   7.422   0.742  0.7647  0.4897 -0.5710
  406MOL0     C55928   6.406   7.392   0.745  0.0500 -0.3807 -0.5062
  406MOL0     C55929   6.457   7.329   0.614 -0.3314  0.6822  0.3848
  406MOL0     C55930   6.606   7.319   0.612 -0.5646 -0.6622 -0.7541
  406MOL0     C55931   6.666   7.280   0.469 -0.2673  0.0886 -0.2392
  406MOL0     C55932   6.818   7.311   0.488 -0.1547  1.2319 -0.2946
  406MOL0     C55933   6.903   7.248   0.367 -0.2580 -0.2450 -0.1633
  406MOL0     C55934   7.041   7.321   0.359  0.6659  0.9843  0.3055
  406MOL0    Cl55935   7.124   7.275   0.505 -0.2174 -0.3829  0.1317
  406MOL0     C55936   6.013   7.428   0.909  0.9078  0.0712  1.0992
  406MOL0     C55937   5.882   7.439   0.942  0.3500  1.1675 -0.3647
  406MOL0     O55938   5.608   7.500   0.724  0.0793 -0.3095  0.5194
  406MOL0     C55939   5.363   7.562   0.815  0.4814 -0.0362  0.0795
  406MOL0     C55940   5.223   7.581   0.833  0.4733 -0.3182  0.1705
  406MOL0     N55941   4.775   7.547   1.358 -0.5025 -0.2539  0.2683
  406MOL0     N55942   4.806   7.600   1.465 -0.3193  0.1874 -0.5614
  406MOL0     C55943   4.452   8.241   2.344  0.7577 -1.1347  0.4833
  406MOL0     C55944   4.363   8.255   2.452 -0.0352 -0.7840  0.0577
  406MOL0     C55945   4.177   8.144   2.884  0.4440  0.6915  0.1367
  406MOL0     C55946   4.153   8.200   3.015 -0.4018 -0.5311  0.4398
  406MOL0     C55947   4.033   8.160   3.079 -0.7839 -0.9353  0.3240
  406MOL0     C55948   3.944   8.067   3.027 -0.6684 -0.0285 -0.7161
  406MOL0     O55949   3.834   8.024   3.092  0.1446  0.3415 -0.5892
  406MOL0     C55950   3.757   8.126   3.157 -0.7115  0.1934 -0.7031
  406MOL0     C55951   3.624   8.076   3.218 -0.4158 -0.3697 -0.9623
  406MOL0     C55952   3.516   8.186   3.232  0.4730  0.0052  0.0933
  406MOL0     C55953   3.414   8.179   3.118  0.6958 -0.0006  0.0425
  406MOL0     C55954   3.476   8.162   2.984  0.2626 -0.6455 -0.6187
  406MOL0     C55955   3.528   8.140   2.880  0.1895  0.5689  0.4407
  406MOL0     C55956   3.981   8.016   2.906  0.7941  0.1748 -0.5844
  406MOL0     C55957   4.089   8.048   2.835  0.3233  1.2093 -0.6973
  406MOL0     C55958   4.117   7.975   2.705  0.5838 -0.4481  0.4823
  406MOL0     H55959   4.539   8.120   2.698 -4.6364  0.4804  1.4029
  406MOL0     H55960   4.707   8.103   2.511  0.1729  0.3235  2.9249
  406MOL0     H55961   4.800   8.262   2.145  0.7754  2.8725  0.4381
  406MOL0     H55962   4.678   8.366   2.223 -0.7828 -0.0901 -1.2189
  406MOL0     H55963   4.503   8.278   2.061 -0.3809 -1.3031 -0.1774
  406MOL0     H55964   4.638   8.356   1.997  0.5203  1.2268  2.6495
  406MOL0     H55965   4.723   8.105   1.937 -0.3493  0.0657 -2.3119
  406MOL0     H55966   4.591   8.038   2.036 -1.3377 -1.2752 -0.8515
  406MOL0     H55967   4.422   8.133   1.897  0.0694 -3.0445  0.8661
  406MOL0     H55968   4.544   8.214   1.788  0.3032 -0.5409 -2.2623
  406MOL0     H55969   4.468   8.013   1.698  1.7029 -0.0560 -1.6093
  406MOL0     H55970   4.538   7.914   1.819 -3.8590  1.5004 -0.3238
  406MOL0     H55971   4.657   8.127   1.638 -0.9125 -0.8283 -1.6181
  406MOL0     H55972   4.756   8.014   1.739 -0.5471 -0.7956 -0.1235
  406MOL0     H55973   4.720   7.977   1.480 -2.5378  0.3546 -0.4664
  406MOL0     H55974   4.557   7.925   1.526 -1.8598  2.6599  1.8591
  406MOL0     H55975   4.812   7.792   1.641 -0.2402  0.9242  1.1257
  406MOL0     H55976   4.639   7.755   1.666 -1.5103 -0.8362 -0.9776
  406MOL0     H55977   4.581   7.803   1.329  1.3920  0.7000  1.4247
  406MOL0     H55978   4.587   7.703   1.111 -0.3969  0.0521 -0.8844
  406MOL0     H55979   4.551   7.535   1.145  0.6092 -0.4412  2.4754
  406MOL0     H55980   4.805   7.488   1.077  1.4179 -0.1146 -2.4266
  406MOL0     H55981   4.681   7.526   0.950  0.4203 -0.1776 -0.6101
  406MOL0     H55982   4.758   7.762   0.955 -0.1254 -0.8483  0.7525
  406MOL0     H55983   4.848   7.743   1.094 -3.5594  1.6857 -0.4043
  406MOL0     H55984   4.895   7.585   0.820  0.2761  1.2081 -1.0834
  406MOL0     H55985   4.993   7.724   0.878  2.3438 -0.6154 -0.9144
  406MOL0     H55986   5.160   7.355   1.065  1.0745 -0.2463  1.0178
  406MOL0     H55987   5.345   7.212   1.107 -0.2051  0.5384 -0.0663
  406MOL0     H55988   5.490   7.317   1.117  0.4681 -2.0120  1.5528
  406MOL0     H55989   5.482   7.186   1.003  0.7302 -1.2695  0.8119
  406MOL0     H55990   5.767   7.173   0.764 -1.7098 -0.0657  3.0598
  406MOL0     H55991   6.006   7.150   0.705  1.2468  1.4672 -2.2419
  406MOL0     H55992   6.228   7.447   0.640  0.6460  4.5404  0.2885
  406MOL0     H55993   6.245   7.510   0.806 -1.2860  0.6081 -1.0942
  406MOL0     H55994   6.459   7.486   0.761  0.0912  0.1187 -3.1420
  406MOL0     H55995   6.434   7.326   0.827 -0.5784 -0.7238 -0.5550
  406MOL0     H55996   6.425   7.386   0.526  0.7253 -0.8566 -1.0715
  406MOL0     H55997   6.407   7.232   0.605  0.5088  0.2605  0.1482
  406MOL0     H55998   6.642   7.252   0.691  2.2234  3.4648  1.9196
  406MOL0     H55999   6.640   7.419   0.644  1.6761 -2.2275  2.3095
  406MOL0     H56000   6.640   7.176   0.448 -1.8328  0.6196 -1.0859
  406MOL0     H56001   6.632   7.334   0.380  0.7078 -1.2178 -1.4524
  406MOL0     H56002   6.846   7.263   0.582  1.7381  0.8273 -1.0222
  406MOL0     H56003   6.826   7.420   0.481 -1.0529  1.1909 -3.8749
  406MOL0     H56004   6.855   7.261   0.269 -1.2590  0.0504  0.3573
  406MOL0     H56005   6.924   7.141   0.375  0.1039 -0.2051 -0.5089
  406MOL0     H56006   7.032   7.429   0.369 -0.7354  0.9064  0.1657
  406MOL0     H56007   7.083   7.281   0.266 -0.3189 -2.3190  1.1403
  406MOL0     H56008   6.076   7.504   0.954  0.1852  1.0359  0.5278
  406MOL0     H56009   5.862   7.527   1.003 -2.5917  1.7882 -2.0325
  406MOL0     H56010   5.406   7.631   0.742 -1.3332  1.5590  0.4397
  406MOL0     H56011   5.171   7.656   0.774  1.6256  0.5265  0.1857
  406MOL0     H56012   4.442   8.276   2.242  1.1156  2.3174  1.5008
  406MOL0     H56013   4.267   8.299   2.427 -0.1960 -0.7843  0.6585
  406MOL0     H56014   4.224   8.261   3.070 -3.7767  2.8780  1.4168
  406MOL0     H56015   4.029   8.178   3.186  2.1448 -0.6958  0.4919
  406MOL0     H56016   3.805   8.162   3.248 -0.8238 -0.2519 -0.4668
  406MOL0     H56017   3.743   8.200   3.078 -1.6601 -1.0911 -1.7878
  406MOL0     H56018   3.647   8.026   3.312 -0.9059  1.2293  0.0484
  406MOL0     H56019   3.590   7.991   3.158  0.6224 -0.9111 -0.8001
  406MOL0     H56020   3.464   8.161   3.325  0.7402 -1.6599 -0.1706
  406MOL0     H56021   3.559   8.287   3.237 -1.0286  0.6346  1.6580
  406MOL0     H56022   3.359   8.273   3.117 -0.9837 -0.9004  1.4487
  406MOL0     H56023   3.335   8.107   3.140 -0.0753  1.2708  1.6306
  406MOL0     H56024   3.576   8.109   2.790 -2.2840  1.5694 -1.3211
  406MOL0     H56025   3.927   7.931   2.865  0.4668 -0.4957  1.1447
  406MOL0     H56026   4.073   8.047   2.636 -2.0780 -1.3458  1.1361
  406MOL0     H56027   4.220   7.948   2.679  1.0569  3.1872 -2.2526
  406MOL0     H56028   4.067   7.878   2.700 -0.7471  0.2845 -1.9270
  407MOL0     O56029   7.266   8.958   2.239  0.1876  0.5160  0.2413
  407MOL0     C56030   7.235   8.884   2.142 -0.0476 -0.5496  0.8444
  407MOL0     O56031   7.325   8.843   2.053  0.7126 -0.1019  1.0320
  407MOL0     C56032   7.462   8.841   2.086  0.8493  0.2262  0.7615
  407MOL0     C56033   7.537   8.841   1.962 -0.4502 -0.0425 -1.0335
  407MOL0     C56034   7.678   8.829   1.959 -0.7243  0.2176 -0.4969
  407MOL0     C56035   7.751   8.817   2.083  0.5354  0.0929  0.3223
  407MOL0     O56036   7.886   8.812   2.065  0.4789  0.3811 -0.3139
  407MOL0     C56037   7.956   8.739   2.170  0.9148  0.0768 -0.2418
  407MOL0     C56038   8.104   8.732   2.124  0.0757  0.1781 -0.3500
  407MOL0     C56039   8.175   8.867   2.148  0.6344  0.1837  0.6749
  407MOL0     C56040   8.322   8.876   2.108  0.4732  0.1754  0.0729
  407MOL0     C56041   8.385   9.005   2.152 -0.7146 -0.3593 -0.1560
  407MOL0     C56042   8.324   9.137   2.096  0.1635  0.6730  0.1710
  407MOL0     C56043   8.393   9.257   2.152 -0.0761  0.3499 -0.4378
  407MOL0     C56044   8.313   9.391   2.166  0.1874  0.1565 -0.4952
  407MOL0     N56045   8.279   9.447   2.035 -0.1746 -0.3815  0.0608
  407MOL0     C56046   8.192   9.387   1.946 -0.2788  0.5283 -0.1518
  407MOL0     C56047   8.197   9.464   1.839 -0.8841  0.0811  0.4099
  407MOL0     C56048   8.142   9.429   1.705 -0.0750  0.0100  0.1030
  407MOL0     C56049   7.988   9.421   1.696 -0.0166  0.2091  0.3668
  407MOL0     C56050   7.923   9.559   1.715  0.0544 -0.5275  0.2850
  407MOL0     C56051   7.771   9.554   1.691 -0.7719 -0.1805  0.7005
  407MOL0     O56052   7.724   9.693   1.682 -0.4503 -0.1705  0.1627
  407MOL0     C56053   7.592   9.723   1.671 -0.1878 -1.1935 -0.0131
  407MOL0     C56054   7.500   9.620   1.673  0.1499 -0.6898  0.2764
  407MOL0     C56055   7.367   9.659   1.675 -0.2736 -0.1668 -0.3707
  407MOL0     C56056   7.270   9.543   1.711 -0.1788  0.1222  0.5280
  407MOL0     C56057   7.325   9.798   1.658  0.0786  0.4961 -0.6198
  407MOL0     C56058   7.189   9.856   1.671  0.6397 -0.8939 -0.3745
  407MOL0     O56059   7.163   9.985   1.648  0.1282 -0.1422 -0.0001
  407MOL0     C56060   7.048  10.004   1.577  0.4303  0.8536 -0.1734
  407MOL0     C56061   6.931  10.027   1.645  0.5633 -0.0727 -0.1533
  407MOL0     C56062   6.813  10.023   1.566  0.4865 -0.0329  0.1124
  407MOL0     C56063   6.816  10.027   1.434  0.9161  0.2069  0.5647
  407MOL0     O56064   6.694  10.036   1.378  0.1043  0.0998 -0.4222
  407MOL0     C56065   6.677   9.907   1.325  0.2140 -0.8969  0.1684
  407MOL0     C56066   6.544   9.907   1.238  0.5494  0.4860 -0.6555
  407MOL0     C56067   6.520   9.767   1.173 -0.0341  0.4292 -1.1296
  407MOL0     C56068   6.616   9.729   1.072 -0.5333 -0.1914  0.0500
  407MOL0     C56069   6.564   9.626   0.979 -0.6314 -0.2331  1.2722
  407MOL0     C56070   6.660   9.567   0.874 -0.4832  0.0766 -0.6934
  407MOL0     C56071   6.587   9.468   0.772 -0.5610  0.1380 -0.3724
  407MOL0     C56072   6.570   9.330   0.843 -0.2378  0.3131  0.7192
  407MOL0    Cl56073   6.512   9.215   0.727  0.0253 -0.0121 -0.0777
  407MOL0     C56074   6.937  10.027   1.363 -0.3165  0.1397 -0.3623
  407MOL0     C56075   7.054  10.013   1.435  0.0150 -0.0637  0.0738
  407MOL0     O56076   7.101   9.779   1.711  0.4934 -0.0657 -0.1723
  407MOL0     C56077   7.421   9.896   1.651 -1.2179  0.6185  0.7172
  407MOL0     C56078   7.559   9.859   1.660  0.0415 -0.2522  0.2798
  407MOL0     N56079   8.271   9.575   1.864 -0.6480  0.3527 -0.4378
  407MOL0     N56080   8.316   9.573   1.988 -0.7313  0.6285  0.2447
  407MOL0     C56081   7.674   8.830   2.201 -0.7927 -0.1174 -0.4806
  407MOL0     C56082   7.533   8.834   2.207 -0.4999  0.1723  0.0681
  407MOL0     C56083   7.086   8.874   2.116  0.3325 -0.5305  0.4851
  407MOL0     C56084   7.041   8.891   1.983  0.0572  1.4612 -0.0649
  407MOL0     C56085   6.904   8.915   1.958 -0.0894  0.5527  1.3332
  407MOL0     C56086   6.804   8.917   2.059  0.2994  0.1308 -0.3877
  407MOL0     O56087   6.676   8.949   2.022 -0.0064  0.1656  0.2653
  407MOL0     C56088   6.563   8.890   2.102 -0.1754 -0.2421  0.0079
  407MOL0     C56089   6.423   8.914   2.036 -0.6328 -0.1401 -0.3051
  407MOL0     C56090   6.321   8.887   2.140 -0.4928  0.2932  0.4188
  407MOL0     C56091   6.313   8.743   2.201 -0.0488  0.0410 -0.8795
  407MOL0     C56092   6.302   8.630   2.105  0.6721 -0.1341  0.7388
  407MOL0     C56093   6.293   8.559   2.008 -0.2404 -0.9566  0.5985
  407MOL0     C56094   6.849   8.896   2.190  0.4069 -0.1925 -0.5737
  407MOL0     C56095   6.989   8.875   2.218 -0.9137  0.0353 -0.0107
  407MOL0     C56096   7.032   8.845   2.359 -0.6616  0.3464 -0.3386
  407MOL0     H56097   7.479   8.846   1.870 -0.9160 -0.5211 -0.7688
  407MOL0     H56098   7.733   8.840   1.866 -0.6942  2.1156 -0.2960
  407MOL0     H56099   7.910   8.641   2.180 -4.0457  2.0867 -0.6466
  407MOL0     H56100   7.952   8.793   2.265  0.7989 -0.2532 -0.0606
  407MOL0     H56101   8.149   8.644   2.172 -0.9584  0.3030  0.8983
  407MOL0     H56102   8.095   8.711   2.017 -2.3032 -0.0063 -0.1713
  407MOL0     H56103   8.121   8.943   2.092 -0.0202 -0.0489  0.9864
  407MOL0     H56104   8.153   8.901   2.249 -2.1098  1.7532 -0.3583
  407MOL0     H56105   8.379   8.792   2.147 -0.4987 -0.1906  0.7412
  407MOL0     H56106   8.329   8.872   1.999 -0.1001 -0.1670  0.0470
  407MOL0     H56107   8.485   9.001   2.108 -1.4614 -1.6711 -1.8866
  407MOL0     H56108   8.396   9.009   2.261  0.6624  0.1532 -0.2987
  407MOL0     H56109   8.327   9.144   1.987 -0.9953 -0.4555  0.0479
  407MOL0     H56110   8.223   9.137   2.137 -0.0758  1.0057 -0.4075
  407MOL0     H56111   8.491   9.254   2.102  1.1066 -2.7279  1.7427
  407MOL0     H56112   8.420   9.217   2.250 -4.0185  0.0302  0.6572
  407MOL0     H56113   8.220   9.364   2.216  0.2368  1.6635  0.4685
  407MOL0     H56114   8.360   9.466   2.230  0.7265  0.5811 -1.3644
  407MOL0     H56115   8.119   9.311   1.971 -0.2925  0.8741  0.9388
  407MOL0     H56116   8.170   9.325   1.684 -4.5584 -1.0800 -1.5707
  407MOL0     H56117   8.176   9.503   1.632 -2.1772 -1.6823 -2.8059
  407MOL0     H56118   7.960   9.391   1.594  2.0092  1.4140 -0.6205
  407MOL0     H56119   7.951   9.365   1.782  0.6983 -1.5273 -0.3980
  407MOL0     H56120   7.949   9.602   1.812  0.1082 -2.3347  1.1169
  407MOL0     H56121   7.954   9.626   1.634 -2.5242  0.1330 -0.2158
  407MOL0     H56122   7.729   9.492   1.612  0.5996 -1.3297  0.8206
  407MOL0     H56123   7.729   9.510   1.782 -1.8247 -0.6389  0.0134
  407MOL0     H56124   7.508   9.514   1.696 -4.7422 -1.2977  0.1295
  407MOL0     H56125   7.214   9.526   1.619 -0.0094 -1.7403  0.7391
  407MOL0     H56126   7.194   9.561   1.788 -0.1296 -2.2110  1.2001
  407MOL0     H56127   7.327   9.452   1.730  0.6620  0.0897 -1.8434
  407MOL0     H56128   6.917  10.019   1.752  3.0201 -0.6068  0.1895
  407MOL0     H56129   6.726  10.019   1.632  0.9890 -2.1011  0.7319
  407MOL0     H56130   6.763   9.876   1.265 -0.4427 -0.6051 -0.9579
  407MOL0     H56131   6.647   9.837   1.403 -3.5216 -2.0982 -2.0729
  407MOL0     H56132   6.460   9.929   1.304  0.2765 -1.1942 -0.3833
  407MOL0     H56133   6.540   9.988   1.164  0.1596  1.5757  0.5276
  407MOL0     H56134   6.428   9.790   1.118 -1.8127 -0.2105  1.3660
  407MOL0     H56135   6.512   9.691   1.252  3.8229 -3.2571 -3.8491
  407MOL0     H56136   6.705   9.693   1.124 -0.3571  1.3920  0.9308
  407MOL0     H56137   6.645   9.815   1.010  2.3736  0.4243  2.0432
  407MOL0     H56138   6.524   9.551   1.049  1.9052 -1.0449  1.9670
  407MOL0     H56139   6.491   9.676   0.916 -1.7151 -0.4609  2.3030
  407MOL0     H56140   6.751   9.524   0.916 -0.9926 -0.3912 -0.0611
  407MOL0     H56141   6.700   9.650   0.814  2.2186 -1.8586 -1.7986
  407MOL0     H56142   6.662   9.451   0.694 -1.3101  0.1465 -1.1048
  407MOL0     H56143   6.494   9.499   0.724 -1.7897  0.1946  1.9154
  407MOL0     H56144   6.493   9.327   0.920  1.7780  1.2518  2.9231
  407MOL0     H56145   6.663   9.301   0.894 -0.7467  1.7060  2.5269
  407MOL0     H56146   6.945  10.017   1.255 -1.3247  1.0006 -0.5337
  407MOL0     H56147   7.155  10.004   1.394  0.7982 -1.5217  2.1488
  407MOL0     H56148   7.400  10.003   1.648  1.0715  1.1153  0.3472
  407MOL0     H56149   7.644   9.927   1.656  0.2459 -0.5586 -2.2533
  407MOL0     H56150   7.729   8.834   2.295 -0.8665  2.5180 -0.4605
  407MOL0     H56151   7.496   8.841   2.309  1.6256 -1.8603  1.0916
  407MOL0     H56152   7.109   8.877   1.900  2.2089  0.0359  1.8347
  407MOL0     H56153   6.865   8.937   1.859 -0.7936 -0.7943  1.2989
  407MOL0     H56154   6.578   8.785   2.129 -1.3796 -0.5986 -0.6013
  407MOL0     H56155   6.561   8.953   2.192  0.1141  1.8132 -1.3694
  407MOL0     H56156   6.429   8.857   1.943  2.4424  0.4947 -0.6035
  407MOL0     H56157   6.409   9.019   2.008 -0.5395  0.0523  0.3529
  407MOL0     H56158   6.323   8.962   2.220  2.3162  2.3385 -1.3788
  407MOL0     H56159   6.221   8.899   2.098 -1.3804 -0.9955  2.0481
  407MOL0     H56160   6.224   8.726   2.262 -0.0589  0.1808 -0.8552
  407MOL0     H56161   6.398   8.718   2.265 -1.1305 -1.1453  0.1554
  407MOL0     H56162   6.298   8.496   1.921  1.2394  0.8639 -0.7086
  407MOL0     H56163   6.783   8.909   2.275  0.3263  1.6049 -0.8661
  407MOL0     H56164   6.949   8.812   2.423  0.9985  3.4380  3.9094
  407MOL0     H56165   7.110   8.769   2.366  0.2970  1.2230 -1.2301
  407MOL0     H56166   7.072   8.937   2.404  1.1767 -1.3880  1.8379
  408MOL0     O56167   4.640  10.654   6.102  1.2401  0.2908  0.0702
  408MOL0     C56168   4.571  10.668   6.201  0.8241  0.0341  0.3695
  408MOL0     O56169   4.445  10.627   6.218 -0.3204  0.9681  0.8376
  408MOL0     C56170   4.371  10.559   6.123  0.2793  0.3160  0.2152
  408MOL0     C56171   4.266  10.469   6.164  0.4031 -0.1878 -1.4329
  408MOL0     C56172   4.178  10.401   6.071 -0.2156 -1.6024  0.7926
  408MOL0     C56173   4.201  10.426   5.936  0.1985 -0.5995 -0.4483
  408MOL0     O56174   4.123  10.386   5.835  0.7711 -0.0118  0.3432
  408MOL0     C56175   4.083  10.248   5.813 -1.2497 -0.0123  0.0666
  408MOL0     C56176   4.186  10.172   5.721  0.9720  0.7371  0.0105
  408MOL0     C56177   4.335  10.181   5.768 -0.0856 -0.0808  0.1417
  408MOL0     C56178   4.435  10.101   5.682  0.2205 -0.0670  0.3290
  408MOL0     C56179   4.579  10.140   5.727 -0.3127  0.5303 -0.4318
  408MOL0     C56180   4.691  10.107   5.634 -0.4092 -0.5912 -0.1053
  408MOL0     C56181   4.695   9.953   5.606 -0.1058 -0.6001  0.8227
  408MOL0     C56182   4.711   9.862   5.735 -0.6439 -0.2137  0.2095
  408MOL0     N56183   4.755   9.727   5.705  0.3848 -0.3096 -0.4901
  408MOL0     C56184   4.694   9.643   5.613  0.2622  0.1251 -0.6307
  408MOL0     C56185   4.750   9.524   5.631  0.2951  0.5908  1.0037
  408MOL0     C56186   4.722   9.393   5.559  0.2251 -0.6884  0.1449
  408MOL0     C56187   4.861   9.329   5.518  0.5515 -0.6490  0.6876
  408MOL0     C56188   4.863   9.318   5.368  0.6753 -0.8194  0.7786
  408MOL0     C56189   4.986   9.241   5.309 -0.2702  0.3629  0.0529
  408MOL0     O56190   5.104   9.282   5.370  0.4181 -1.2453 -0.1685
  408MOL0     C56191   5.216   9.226   5.323 -0.1262  0.4096 -0.8675
  408MOL0     C56192   5.227   9.132   5.221  0.8176  0.0232 -0.1959
  408MOL0     C56193   5.352   9.070   5.189  0.3045 -0.0692  1.1615
  408MOL0     C56194   5.358   8.983   5.062 -0.3464  1.0412 -0.0084
  408MOL0     C56195   5.461   9.100   5.264  0.3326 -0.4366 -0.1879
  408MOL0     C56196   5.597   9.041   5.245 -0.9914 -0.1467 -1.0719
  408MOL0     O56197   5.705   9.108   5.308  1.0175  0.3107  0.0491
  408MOL0     C56198   5.834   9.064   5.273  0.0102  0.2608 -0.5827
  408MOL0     C56199   5.918   9.150   5.203 -0.2724  0.4062  0.6908
  408MOL0     C56200   6.054   9.109   5.182  0.3767  0.4145 -0.5190
  408MOL0     C56201   6.107   8.995   5.250 -0.1879  0.0693  0.2342
  408MOL0     O56202   6.236   8.952   5.228 -0.2766 -0.6680 -0.4203
  408MOL0     C56203   6.328   9.058   5.199 -0.0867  0.6922  0.2272
  408MOL0     C56204   6.465   9.004   5.208  0.3076 -0.1520  0.2543
  408MOL0     C56205   6.564   9.105   5.154 -0.4162  0.9777  0.4984
  408MOL0     C56206   6.705   9.038   5.166  0.1547  0.4111 -0.4154
  408MOL0     C56207   6.748   9.040   5.319  0.4482 -0.3875  0.2911
  408MOL0     C56208   6.895   9.009   5.343  0.0591  0.6211  0.0322
  408MOL0     C56209   6.936   8.874   5.269  0.8040 -0.4464  0.2216
  408MOL0     C56210   7.069   8.821   5.317 -0.8226 -0.2470  0.2358
  408MOL0    Cl56211   7.049   8.717   5.474  0.1087  0.4202  0.3439
  408MOL0     C56212   6.023   8.923   5.332 -0.4565  0.1815  0.6383
  408MOL0     C56213   5.879   8.948   5.331  0.4139  0.4026 -0.5317
  408MOL0     O56214   5.611   8.941   5.181  0.1833  0.0845 -0.0639
  408MOL0     C56215   5.449   9.198   5.360  0.1917  0.1926 -1.2332
  408MOL0     C56216   5.333   9.258   5.398  0.4193 -0.0676 -0.4942
  408MOL0     N56217   4.838   9.536   5.733 -0.1714 -0.2453 -1.2605
  408MOL0     N56218   4.836   9.656   5.786 -0.7095 -0.6821 -0.0180
  408MOL0     C56219   4.308  10.506   5.894  0.3097 -0.4812  1.1471
  408MOL0     C56220   4.396  10.558   5.982 -0.0709  0.0456 -0.0617
  408MOL0     C56221   4.630  10.746   6.311  0.0962 -0.4619  0.2530
  408MOL0     C56222   4.544  10.829   6.391  0.4154 -0.2866  0.5311
  408MOL0     C56223   4.588  10.911   6.499 -0.1175 -0.1578 -0.0146
  408MOL0     C56224   4.723  10.919   6.528 -0.0442  0.1859  0.6087
  408MOL0     O56225   4.754  10.992   6.638 -0.5547  0.3098  0.8166
  408MOL0     C56226   4.882  11.056   6.644 -0.3215 -0.4173 -0.2473
  408MOL0     C56227   4.865  11.204   6.688  0.7964 -0.9234  0.3627
  408MOL0     C56228   4.984  11.267   6.758 -0.1075  0.1687  0.1524
  408MOL0     C56229   4.971  11.414   6.778  0.7861  0.3957  0.0480
  408MOL0     C56230   5.095  11.472   6.841  0.2877  0.5464  1.0397
  408MOL0     C56231   5.197  11.522   6.883  0.4265 -0.0255 -0.8684
  408MOL0     C56232   4.815  10.847   6.451 -0.1916 -0.1529  0.8599
  408MOL0     C56233   4.774  10.752   6.343  0.9266  0.2644 -0.3219
  408MOL0     C56234   4.881  10.682   6.274  0.1744 -0.0691 -0.5050
  408MOL0     H56235   4.224  10.469   6.264  0.4008 -0.2729 -1.4336
  408MOL0     H56236   4.099  10.337   6.109  1.1363 -1.5296  3.9975
  408MOL0     H56237   3.985  10.261   5.767 -1.6121  0.0626  0.8453
  408MOL0     H56238   4.077  10.202   5.912  0.4873 -2.4647 -0.8758
  408MOL0     H56239   4.142  10.072   5.714  2.9068 -0.3393  1.8731
  408MOL0     H56240   4.174  10.213   5.620 -0.5494  2.1714  0.7300
  408MOL0     H56241   4.360  10.287   5.781 -0.5898  0.0611  0.0012
  408MOL0     H56242   4.334  10.147   5.872  1.9898  2.1886  1.0105
  408MOL0     H56243   4.412   9.996   5.702 -0.7748  0.2186  0.7542
  408MOL0     H56244   4.415  10.109   5.574 -0.8539  0.0622  0.5210
  408MOL0     H56245   4.601  10.109   5.829 -0.3951  1.3974 -0.1467
  408MOL0     H56246   4.578  10.249   5.726 -0.3534  0.6023  1.9023
  408MOL0     H56247   4.674  10.167   5.544 -2.1824  0.2174  0.7209
  408MOL0     H56248   4.780  10.150   5.680 -1.1889 -1.5590  2.4737
  408MOL0     H56249   4.762   9.935   5.521  2.7355  0.5957  2.6403
  408MOL0     H56250   4.603   9.915   5.561  0.1125  0.8440 -0.9655
  408MOL0     H56251   4.782   9.915   5.800  2.3868 -1.8903 -1.5200
  408MOL0     H56252   4.619   9.859   5.794  0.0209 -1.5793  1.2169
  408MOL0     H56253   4.619   9.660   5.537 -1.4604 -0.1249  0.9517
  408MOL0     H56254   4.657   9.418   5.475 -0.3241  1.2697  1.0992
  408MOL0     H56255   4.674   9.334   5.638 -4.0071  1.3042 -0.6474
  408MOL0     H56256   4.947   9.385   5.557  0.3034 -0.7129  1.3336
  408MOL0     H56257   4.864   9.228   5.560 -0.2633  0.4711  3.7151
  408MOL0     H56258   4.771   9.269   5.336  0.4179  0.5230 -0.6602
  408MOL0     H56259   4.854   9.420   5.331 -0.9539 -1.3766 -0.5030
  408MOL0     H56260   4.969   9.134   5.319  0.0857  0.2010 -0.9585
  408MOL0     H56261   4.987   9.253   5.200  2.6377 -0.4148 -0.1111
  408MOL0     H56262   5.141   9.109   5.159 -0.9808  0.4269  2.0122
  408MOL0     H56263   5.433   8.903   5.067 -0.0456  1.3818  1.3981
  408MOL0     H56264   5.369   9.040   4.969  1.5426  1.4250  0.4045
  408MOL0     H56265   5.264   8.927   5.058 -1.3451  2.4560  1.8486
  408MOL0     H56266   5.894   9.250   5.169 -0.8733  1.4037  3.7154
  408MOL0     H56267   6.124   9.177   5.135  0.3936 -1.1883 -2.9957
  408MOL0     H56268   6.310   9.100   5.099 -1.1946  0.8745  0.4967
  408MOL0     H56269   6.321   9.143   5.268  0.1284  0.3447  0.6844
  408MOL0     H56270   6.486   8.983   5.313  0.7629 -1.0377 -0.0021
  408MOL0     H56271   6.485   8.908   5.160  0.4736  1.0279 -2.1544
  408MOL0     H56272   6.564   9.191   5.222  3.7912  1.0141  0.7157
  408MOL0     H56273   6.545   9.133   5.050  0.1432  0.4195  0.2397
  408MOL0     H56274   6.785   9.101   5.126  2.1627 -0.9059  1.3420
  408MOL0     H56275   6.713   8.938   5.124  1.3651 -0.8182  2.4799
  408MOL0     H56276   6.738   9.143   5.354  1.5141  0.5020 -1.8865
  408MOL0     H56277   6.697   8.971   5.388 -0.8158  2.4422  2.3738
  408MOL0     H56278   6.911   9.003   5.451  0.8667  1.5368 -0.0254
  408MOL0     H56279   6.960   9.091   5.314  0.4433  0.3846  0.2140
  408MOL0     H56280   6.945   8.885   5.160  1.0687  0.2088  0.3062
  408MOL0     H56281   6.854   8.802   5.280  1.6254 -1.3831  0.3514
  408MOL0     H56282   7.147   8.896   5.334  0.3509 -1.6727  1.3792
  408MOL0     H56283   7.101   8.764   5.229  0.6337 -1.4680  1.5059
  408MOL0     H56284   6.068   8.834   5.377 -2.5027 -1.2681 -0.0379
  408MOL0     H56285   5.812   8.885   5.388  0.7519  0.2581 -0.2934
  408MOL0     H56286   5.525   9.238   5.427  0.6385  0.0074 -1.6259
  408MOL0     H56287   5.334   9.329   5.480  0.9481  1.1570 -1.5203
  408MOL0     H56288   4.325  10.525   5.789 -2.3790 -1.4358  0.4556
  408MOL0     H56289   4.475  10.618   5.939 -1.3260  0.4891 -1.8806
  408MOL0     H56290   4.436  10.826   6.379 -0.0657  1.8667  3.3909
  408MOL0     H56291   4.521  10.970   6.560 -0.5310  2.1548 -2.5164
  408MOL0     H56292   4.952  11.010   6.714  1.2420  0.5042 -1.1458
  408MOL0     H56293   4.926  11.059   6.544 -3.6004  0.3191 -1.8287
  408MOL0     H56294   4.772  11.221   6.742  2.0539  3.4117  1.6188
  408MOL0     H56295   4.858  11.264   6.596  0.2026 -0.9671  0.3793
  408MOL0     H56296   4.988  11.210   6.851 -1.2328 -1.1325 -0.5550
  408MOL0     H56297   5.072  11.230   6.704  0.0235  0.6391  0.0426
  408MOL0     H56298   4.893  11.426   6.853 -0.9630  0.4777 -1.7223
  408MOL0     H56299   4.936  11.462   6.686  0.7185  0.8475  0.3071
  408MOL0     H56300   5.276  11.571   6.936 -0.3545 -1.3378  1.6948
  408MOL0     H56301   4.921  10.854   6.472  0.0622 -0.8990 -0.1232
  408MOL0     H56302   4.957  10.632   6.334  0.1175  1.0211  0.5241
  408MOL0     H56303   4.848  10.603   6.207  0.1294 -0.5189  0.0418
  408MOL0     H56304   4.938  10.753   6.213 -0.4739  0.9320  0.0280
  409MOL0     O56305   9.368   9.850   5.110 -0.5878  0.2051 -0.3762
  409MOL0     C56306   9.419   9.898   5.010 -0.9173 -0.6699 -0.3084
  409MOL0     O56307   9.555   9.903   4.988 -0.3652 -0.5145 -0.2651
  409MOL0     C56308   9.634   9.824   5.071 -0.0074 -0.5120 -0.1858
  409MOL0     C56309   9.690   9.714   5.020  0.3324  0.5377 -0.0186
  409MOL0     C56310   9.764   9.626   5.086 -0.4053  0.0878  0.8265
  409MOL0     C56311   9.791   9.638   5.226 -0.3010  0.1236 -0.1288
  409MOL0     O56312   9.868   9.541   5.293  0.7633  0.6735  0.5766
  409MOL0     C56313   9.931   9.573   5.415 -0.1608 -1.3898 -0.4925
  409MOL0     C56314  10.054   9.661   5.394 -0.3076 -0.2600  0.5365
  409MOL0     C56315  10.153   9.605   5.285  0.4277 -0.2436 -0.1761
  409MOL0     C56316  10.282   9.677   5.288 -0.4908  0.8326  0.0809
  409MOL0     C56317  10.375   9.664   5.166  0.2228 -0.6396 -0.2491
  409MOL0     C56318  10.470   9.785   5.158 -0.2921  1.1142 -0.3305
  409MOL0     C56319  10.534   9.790   5.017 -0.3473  0.2067  0.1968
  409MOL0     C56320  10.614   9.665   4.959 -0.0483 -0.2113 -0.3228
  409MOL0     N56321  10.761   9.692   4.970  0.7781 -0.8666  0.2618
  409MOL0     C56322  10.835   9.653   5.081 -0.1795  0.1458  0.8231
  409MOL0     C56323  10.960   9.692   5.064  0.1237  0.0225  0.1942
  409MOL0     C56324  11.077   9.684   5.162 -0.2936  0.4330 -0.2178
  409MOL0     C56325  11.159   9.815   5.165  0.4640 -0.3048 -0.3641
  409MOL0     C56326  11.080   9.949   5.200  0.3570  0.2408  0.4148
  409MOL0     C56327  11.163  10.070   5.154  0.6758  0.4660  1.0568
  409MOL0     O56328  11.277  10.078   5.224 -0.7056 -0.4284 -1.2311
  409MOL0     C56329  11.391  10.154   5.198  0.2467  0.2313 -0.0812
  409MOL0     C56330  11.480  10.154   5.301  0.1059 -0.1237 -0.2388
  409MOL0     C56331  11.587  10.242   5.315 -0.8410 -1.4540  1.0740
  409MOL0     C56332  11.678  10.226   5.434 -0.2043  0.6838 -0.8646
  409MOL0     C56333  11.607  10.328   5.201 -0.3148  0.2139  0.0504
  409MOL0     C56334  11.725  10.417   5.186 -0.0909 -0.1038  0.9483
  409MOL0     O56335  11.823  10.418   5.282 -1.3644 -0.5272 -0.1378
  409MOL0     C56336  11.953  10.471   5.254  0.6097  0.9054 -0.4549
  409MOL0     C56337  12.031  10.450   5.139  0.2485 -0.7352  0.0939
  409MOL0     C56338  12.158  10.499   5.122 -0.3152 -0.8654 -0.6690
  409MOL0     C56339  12.223  10.563   5.230 -0.1449 -0.4263  0.5163
  409MOL0     O56340  12.354  10.610   5.227  0.0565  0.5837  0.2232
  409MOL0     C56341  12.419  10.619   5.098 -0.2651  0.3044  0.3338
  409MOL0     C56342  12.575  10.628   5.107 -0.3391  1.7247  0.0806
  409MOL0     C56343  12.628  10.760   5.174  0.0417  0.1451  0.1905
  409MOL0     C56344  12.767  10.744   5.234 -0.6822  0.4241 -0.3287
  409MOL0     C56345  12.806  10.882   5.285  0.0392 -0.5620 -0.2812
  409MOL0     C56346  12.922  10.879   5.385  0.4113 -0.4304  0.1948
  409MOL0     C56347  12.980  11.021   5.413  0.2069 -0.4753 -0.7161
  409MOL0     C56348  12.866  11.122   5.465  0.0244 -0.6566  0.0436
  409MOL0    Cl56349  12.764  11.056   5.595 -0.4623  0.0094 -0.0633
  409MOL0     C56350  12.157  10.575   5.352  0.3932  0.4082  1.5095
  409MOL0     C56351  12.030  10.519   5.366  0.5350 -0.8314 -0.0140
  409MOL0     O56352  11.731  10.480   5.082 -0.9428 -0.2547 -0.1701
  409MOL0     C56353  11.513  10.333   5.095  0.6220 -0.5987  0.0433
  409MOL0     C56354  11.408  10.235   5.086  0.4971 -0.7792 -0.0150
  409MOL0     N56355  10.972   9.727   4.930  0.1054  0.0504  0.2889
  409MOL0     N56356  10.847   9.728   4.876 -0.3117  0.3044 -0.2887
  409MOL0     C56357   9.746   9.763   5.279  0.1933  0.3722 -0.9052
  409MOL0     C56358   9.670   9.855   5.200 -0.1837  0.2810 -0.1744
  409MOL0     C56359   9.334   9.976   4.921  0.1065 -0.6579  0.2017
  409MOL0     C56360   9.375   9.988   4.784 -0.3551 -0.0904 -0.1891
  409MOL0     C56361   9.289  10.054   4.690 -0.2413 -0.6532  0.2052
  409MOL0     C56362   9.163  10.100   4.718  0.2739 -0.0168 -0.6681
  409MOL0     O56363   9.078  10.144   4.615  0.2964  0.5754 -0.2295
  409MOL0     C56364   8.932  10.147   4.637 -0.0000 -0.4603  0.6086
  409MOL0     C56365   8.874  10.123   4.497  0.5183 -0.6508  0.3903
  409MOL0     C56366   8.919  10.219   4.387  1.1723  0.1533 -0.3216
  409MOL0     C56367   8.931  10.370   4.426  0.1519 -0.1243  0.3532
  409MOL0     C56368   8.947  10.450   4.308  0.0062 -0.1156  0.1913
  409MOL0     C56369   8.970  10.522   4.217 -0.1802  0.2548  0.5460
  409MOL0     C56370   9.124  10.075   4.852 -0.1836 -0.3454  0.0478
  409MOL0     C56371   9.201  10.023   4.953 -1.0308 -0.9848 -0.2235
  409MOL0     C56372   9.145  10.026   5.092  1.1300  0.4303  0.2036
  409MOL0     H56373   9.679   9.686   4.916  0.7482 -1.0732  0.3416
  409MOL0     H56374   9.810   9.548   5.025  0.2644 -0.0657  1.5181
  409MOL0     H56375   9.964   9.483   5.469  4.6004  0.2554 -0.1502
  409MOL0     H56376   9.865   9.640   5.471  0.4104  0.4066 -1.8684
  409MOL0     H56377  10.038   9.762   5.355  2.8647 -0.5722 -1.9892
  409MOL0     H56378  10.105   9.669   5.490 -0.5506  3.4022  0.4860
  409MOL0     H56379  10.171   9.499   5.302 -0.6454 -0.4587 -0.3286
  409MOL0     H56380  10.107   9.614   5.186 -0.2007  2.2125  0.2688
  409MOL0     H56381  10.269   9.782   5.315  1.5841  0.8690  1.1948
  409MOL0     H56382  10.340   9.637   5.373  1.1144  1.8756 -0.4701
  409MOL0     H56383  10.314   9.669   5.076 -0.1990  1.5681  0.0914
  409MOL0     H56384  10.430   9.570   5.162 -1.5463 -1.7179 -0.2047
  409MOL0     H56385  10.419   9.881   5.167  1.9975  2.4898 -1.3558
  409MOL0     H56386  10.539   9.778   5.242 -1.8891  0.0371  0.9572
  409MOL0     H56387  10.604   9.875   5.008 -0.9305  0.6823  0.1094
  409MOL0     H56388  10.458   9.817   4.944  1.7167 -0.7396 -2.4757
  409MOL0     H56389  10.597   9.575   5.018  2.8604 -0.2547  0.5680
  409MOL0     H56390  10.593   9.642   4.854  0.7536 -1.6466 -0.1802
  409MOL0     H56391  10.813   9.611   5.179  2.0021 -1.7736  0.5815
  409MOL0     H56392  11.144   9.601   5.139  1.0448  1.1498  0.9413
  409MOL0     H56393  11.049   9.675   5.267  0.8747 -0.6746  0.0094
  409MOL0     H56394  11.242   9.807   5.236 -0.3829  0.1029  0.6879
  409MOL0     H56395  11.200   9.827   5.064  0.2868  2.1899 -0.2047
  409MOL0     H56396  10.982   9.961   5.155  1.3890  5.1237 -1.1510
  409MOL0     H56397  11.070   9.953   5.309  2.1842 -1.1421  0.6836
  409MOL0     H56398  11.183  10.050   5.048  1.6215 -0.8703  1.4486
  409MOL0     H56399  11.114  10.167   5.164  1.2148  0.6223  2.4357
  409MOL0     H56400  11.474  10.082   5.382  2.1539 -0.0129  0.0561
  409MOL0     H56401  11.694  10.323   5.484  0.6316 -0.2812  0.8388
  409MOL0     H56402  11.774  10.190   5.397 -1.0933 -2.5525 -0.2628
  409MOL0     H56403  11.650  10.146   5.504 -0.5509  0.6539 -1.0392
  409MOL0     H56404  11.977  10.387   5.069  0.8920  0.1070 -1.1957
  409MOL0     H56405  12.207  10.483   5.026 -0.4980 -1.5452 -0.6515
  409MOL0     H56406  12.404  10.532   5.035  3.1259 -0.0628 -0.1496
  409MOL0     H56407  12.396  10.715   5.050 -0.8062 -0.0403 -0.0988
  409MOL0     H56408  12.609  10.541   5.164  0.0972 -1.2231 -4.1806
  409MOL0     H56409  12.615  10.623   5.005  2.8693 -1.4623  1.3065
  409MOL0     H56410  12.561  10.803   5.249  0.9764  2.7612 -0.3639
  409MOL0     H56411  12.631  10.837   5.096 -0.2238 -0.1309 -0.0947
  409MOL0     H56412  12.838  10.712   5.158 -2.0747 -1.7039 -0.8149
  409MOL0     H56413  12.768  10.673   5.318  1.4533  0.0550 -0.6009
  409MOL0     H56414  12.830  10.950   5.203  0.4835  1.2530  1.2703
  409MOL0     H56415  12.717  10.923   5.334  1.8790  2.3891  0.8903
  409MOL0     H56416  12.994  10.817   5.332  1.2558  0.2590  0.5264
  409MOL0     H56417  12.880  10.831   5.474 -0.1592  0.8367  0.6374
  409MOL0     H56418  13.027  11.056   5.320  0.6065 -0.9743 -0.7050
  409MOL0     H56419  13.059  11.018   5.489 -0.7925 -0.5375  0.3399
  409MOL0     H56420  12.805  11.161   5.383  2.2104  0.4757 -1.0979
  409MOL0     H56421  12.915  11.212   5.504 -0.8034 -0.7861  1.4899
  409MOL0     H56422  12.205  10.606   5.445  0.1173  4.0849  0.5717
  409MOL0     H56423  11.987  10.525   5.466  0.4162 -1.3439 -0.0333
  409MOL0     H56424  11.510  10.415   5.023  0.9999  0.1162  0.8367
  409MOL0     H56425  11.335  10.233   5.005  1.8277 -3.2982 -1.2856
  409MOL0     H56426   9.767   9.801   5.378 -0.6743 -0.7240 -0.2896
  409MOL0     H56427   9.653   9.958   5.229 -1.6483  0.2598 -0.8314
  409MOL0     H56428   9.467   9.941   4.754  1.6061  3.5516 -0.5012
  409MOL0     H56429   9.316  10.063   4.585 -0.0135  0.6330  0.3590
  409MOL0     H56430   8.905  10.073   4.712  3.5859 -2.0404  0.5075
  409MOL0     H56431   8.913  10.245   4.681 -0.2288  0.0743 -0.6240
  409MOL0     H56432   8.765  10.120   4.503  0.2173  0.1105 -2.8189
  409MOL0     H56433   8.899  10.022   4.465  2.0572  0.1987 -1.2840
  409MOL0     H56434   9.016  10.177   4.358 -0.7491 -3.6617 -1.9954
  409MOL0     H56435   8.852  10.213   4.301 -1.6605 -0.6701  1.7956
  409MOL0     H56436   9.013  10.375   4.499  1.3463 -4.2812 -0.4088
  409MOL0     H56437   8.837  10.405   4.470 -0.9043 -2.5495  0.2138
  409MOL0     H56438   9.001  10.597   4.147 -0.0899  2.0445  2.3877
  409MOL0     H56439   9.027  10.108   4.886  0.2586  1.8480 -0.6383
  409MOL0     H56440   9.112   9.930   5.132 -2.1740  2.0482  1.7134
  409MOL0     H56441   9.216  10.067   5.165  2.2360 -0.4254 -0.3620
  409MOL0     H56442   9.055  10.088   5.096 -0.5938 -1.9928  1.6130
  410MOL0     O56443  11.106   3.037   6.182  0.3034 -0.1197  0.6639
  410MOL0     C56444  11.044   3.088   6.276 -1.0475  0.9148  0.6265
  410MOL0     O56445  11.100   3.106   6.398 -0.5227 -0.4547 -0.0400
  410MOL0     C56446  11.227   3.058   6.438 -0.0861 -0.1703 -0.4428
  410MOL0     C56447  11.235   2.997   6.559  0.1014  0.4014 -0.0407
  410MOL0     C56448  11.340   2.913   6.597 -0.5139  0.6133  0.0975
  410MOL0     C56449  11.459   2.907   6.518 -0.3122 -0.1994 -0.5422
  410MOL0     O56450  11.573   2.847   6.546 -0.5115  0.1090 -0.1483
  410MOL0     C56451  11.593   2.813   6.683  0.6191 -0.6679  0.1223
  410MOL0     C56452  11.740   2.815   6.709 -0.6894 -0.1310 -0.1553
  410MOL0     C56453  11.792   2.949   6.749  1.1691  0.4579  0.7314
  410MOL0     C56454  11.938   2.946   6.792  0.6326 -0.2544  0.3072
  410MOL0     C56455  11.962   3.033   6.915  0.9760  0.3891 -0.7956
  410MOL0     C56456  12.107   3.040   6.962  0.5337 -0.2026 -1.1180
  410MOL0     C56457  12.218   3.005   6.861  0.2008  0.1073 -0.2129
  410MOL0     C56458  12.358   2.988   6.928 -0.3582  0.1384  0.1735
  410MOL0     N56459  12.403   3.105   6.998  0.1235  0.2455 -0.2741
  410MOL0     C56460  12.430   3.226   6.950  0.1285  0.3027  0.4839
  410MOL0     C56461  12.436   3.309   7.058 -0.2277 -0.2895 -0.4251
  410MOL0     C56462  12.479   3.453   7.068 -0.0066  0.4019 -0.0721
  410MOL0     C56463  12.595   3.476   6.985  0.4463 -0.4496 -1.1180
  410MOL0     C56464  12.658   3.611   7.013 -0.3584 -0.8709 -0.1945
  410MOL0     C56465  12.792   3.625   6.943 -0.7119  1.0398 -0.5782
  410MOL0     O56466  12.899   3.559   7.001 -0.0447  0.8308 -0.4260
  410MOL0     C56467  13.006   3.509   6.925 -0.6320 -0.0815 -0.1057
  410MOL0     C56468  13.112   3.439   6.985 -0.1064 -0.5315 -0.4201
  410MOL0     C56469  13.230   3.390   6.915  0.3791  0.3613  0.1580
  410MOL0     C56470  13.329   3.318   6.989 -0.5996  0.6341  0.3499
  410MOL0     C56471  13.247   3.419   6.774 -0.2472  1.4191  0.0314
  410MOL0     C56472  13.355   3.379   6.673  0.3581  0.3655 -0.6209
  410MOL0     O56473  13.321   3.399   6.546 -0.5284 -0.6531  0.4633
  410MOL0     C56474  13.414   3.392   6.450 -0.2676  0.1039 -0.2463
  410MOL0     C56475  13.448   3.513   6.396  0.7758  0.4256  0.2226
  410MOL0     C56476  13.541   3.523   6.294  0.4774 -0.7531  0.8627
  410MOL0     C56477  13.605   3.402   6.245 -0.6333  0.0400  0.2607
  410MOL0     O56478  13.703   3.414   6.142 -0.0619 -1.1919 -0.2703
  410MOL0     C56479  13.797   3.513   6.158 -0.9814 -0.1605  1.0154
  410MOL0     C56480  13.934   3.463   6.109 -0.1575  0.6339 -1.0628
  410MOL0     C56481  14.052   3.550   6.138  0.4557  0.1808 -0.3432
  410MOL0     C56482  14.068   3.560   6.289 -0.6317 -0.0014  0.0689
  410MOL0     C56483  14.208   3.609   6.320 -0.0385  0.7508 -0.0176
  410MOL0     C56484  14.301   3.491   6.296 -0.5374  0.0692  0.2648
  410MOL0     C56485  14.449   3.532   6.316  0.1996  0.5716  0.6943
  410MOL0     C56486  14.527   3.417   6.376  0.1698  0.0387  0.4577
  410MOL0    Cl56487  14.469   3.376   6.547 -0.3513 -0.0010 -0.2895
  410MOL0     C56488  13.580   3.277   6.308 -0.7893 -0.8736  0.0443
  410MOL0     C56489  13.490   3.279   6.418  0.3392 -1.0554  0.4209
  410MOL0     O56490  13.458   3.328   6.714 -0.1277 -0.3997 -0.2786
  410MOL0     C56491  13.136   3.489   6.716 -0.6991 -0.0591 -0.7126
  410MOL0     C56492  13.023   3.530   6.788 -0.5724  0.2188 -0.3294
  410MOL0     N56493  12.415   3.229   7.168 -0.0161  0.2484 -1.1823
  410MOL0     N56494  12.389   3.111   7.131  0.0595 -0.5525  0.1184
  410MOL0     C56495  11.452   2.961   6.394 -0.4070 -0.5064  0.5242
  410MOL0     C56496  11.345   3.035   6.357 -0.9257  0.3121 -0.7625
  410MOL0     C56497  10.896   3.110   6.263 -0.1590  0.4494  0.3898
  410MOL0     C56498  10.831   3.158   6.376 -0.4977 -0.0309  0.6216
  410MOL0     C56499  10.709   3.216   6.371  0.0559  0.5185  0.3420
  410MOL0     C56500  10.638   3.219   6.255 -0.0241  0.4190  1.4287
  410MOL0     O56501  10.511   3.271   6.257  0.8339  0.5298  0.7701
  410MOL0     C56502  10.419   3.251   6.142  0.3623 -0.9636  0.0686
  410MOL0     C56503  10.415   3.373   6.052 -0.0970  0.3943 -0.2511
  410MOL0     C56504  10.368   3.497   6.134 -0.1798  0.2839 -0.3782
  410MOL0     C56505  10.343   3.629   6.061 -0.1339  0.4213  0.1530
  410MOL0     C56506  10.386   3.743   6.139 -0.0327  0.4440  1.6380
  410MOL0     C56507  10.414   3.826   6.216 -0.2265  0.3621 -0.4078
  410MOL0     C56508  10.697   3.163   6.144 -0.2784  0.1534  0.3370
  410MOL0     C56509  10.829   3.103   6.137 -0.3411 -0.1622 -0.3220
  410MOL0     C56510  10.881   3.038   6.014 -0.3979  0.0532 -0.3175
  410MOL0     H56511  11.142   2.996   6.616  0.0692  1.5758 -0.0375
  410MOL0     H56512  11.343   2.864   6.693  2.2632  0.9626  0.2683
  410MOL0     H56513  11.553   2.711   6.693 -2.3903  0.5021  1.1342
  410MOL0     H56514  11.541   2.876   6.756  0.9255  0.3717 -0.5448
  410MOL0     H56515  11.751   2.758   6.802 -3.2614  0.5664  0.6786
  410MOL0     H56516  11.791   2.763   6.628  0.7412 -0.6387  1.0131
  410MOL0     H56517  11.782   3.023   6.669  0.8862  1.3660  1.5856
  410MOL0     H56518  11.736   2.983   6.836  1.4726  1.5243  0.5225
  410MOL0     H56519  11.946   2.838   6.808 -2.0165 -0.4079  1.0726
  410MOL0     H56520  11.993   2.976   6.702 -2.0963  0.5858 -1.1812
  410MOL0     H56521  11.896   3.000   6.996  0.6960  1.1434 -0.7123
  410MOL0     H56522  11.919   3.132   6.900  0.0798 -0.0261 -1.0550
  410MOL0     H56523  12.128   3.139   7.003  1.2550 -0.3735 -1.0517
  410MOL0     H56524  12.114   2.976   7.051 -1.5504  1.0370  0.0286
  410MOL0     H56525  12.225   3.074   6.776  0.4795 -3.9108 -3.7562
  410MOL0     H56526  12.192   2.904   6.829 -1.6472  0.4030  0.2134
  410MOL0     H56527  12.349   2.901   6.993 -1.0978  2.6475  3.7435
  410MOL0     H56528  12.434   2.963   6.853  0.1805  1.1749  0.3591
  410MOL0     H56529  12.438   3.251   6.845 -0.7499  1.0905  0.5877
  410MOL0     H56530  12.500   3.476   7.173  0.4429  1.2989 -0.3491
  410MOL0     H56531  12.399   3.515   7.027  3.0221  2.8203 -2.8780
  410MOL0     H56532  12.672   3.398   6.990  1.2383  0.3713  0.0264
  410MOL0     H56533  12.547   3.485   6.888  0.6769 -0.5705 -1.2442
  410MOL0     H56534  12.585   3.684   6.979 -0.5853 -0.7036  0.6337
  410MOL0     H56535  12.678   3.631   7.119  1.2663  2.6378 -1.0247
  410MOL0     H56536  12.777   3.588   6.841 -0.1484  0.9794 -0.6470
  410MOL0     H56537  12.819   3.731   6.931 -1.3151  0.9857 -3.0480
  410MOL0     H56538  13.105   3.437   7.094 -2.3757 -0.2669 -0.5111
  410MOL0     H56539  13.324   3.215   6.956  4.3554  0.3562 -0.2968
  410MOL0     H56540  13.307   3.294   7.094  1.6162 -1.8006  0.3452
  410MOL0     H56541  13.426   3.366   6.971 -0.9319  1.5823  0.9743
  410MOL0     H56542  13.392   3.598   6.432 -2.3304 -0.8330 -1.2583
  410MOL0     H56543  13.556   3.621   6.250  0.5706 -1.4993 -0.8796
  410MOL0     H56544  13.765   3.598   6.098  1.0506 -1.2684 -1.8765
  410MOL0     H56545  13.826   3.543   6.259  2.3176  3.3181 -0.6922
  410MOL0     H56546  13.947   3.368   6.162 -2.5163  1.4527  1.1738
  410MOL0     H56547  13.941   3.454   6.000  0.9322  0.1104 -0.9661
  410MOL0     H56548  14.047   3.650   6.092 -2.8805 -0.5943 -1.9489
  410MOL0     H56549  14.143   3.505   6.096  0.9280  0.8613 -0.0709
  410MOL0     H56550  14.053   3.462   6.335  0.6616 -1.7347 -2.8866
  410MOL0     H56551  13.999   3.637   6.326 -0.4815 -0.4453  1.2994
  410MOL0     H56552  14.234   3.697   6.261  2.3180 -0.5599 -1.0697
  410MOL0     H56553  14.201   3.638   6.425 -0.4715 -0.5486  0.3291
  410MOL0     H56554  14.296   3.445   6.197  0.6991  1.2388 -0.3718
  410MOL0     H56555  14.273   3.420   6.375  0.6487  1.1891  1.7509
  410MOL0     H56556  14.457   3.626   6.372 -0.8530  1.7651 -1.0541
  410MOL0     H56557  14.489   3.557   6.217 -1.8495  1.3511  0.0012
  410MOL0     H56558  14.635   3.434   6.383  0.5382 -1.9335  0.2132
  410MOL0     H56559  14.524   3.327   6.314  2.2790 -1.2038  2.0083
  410MOL0     H56560  13.641   3.189   6.290 -1.1553 -0.9376 -0.9671
  410MOL0     H56561  13.487   3.190   6.480  0.3987 -0.3584  1.4425
  410MOL0     H56562  13.131   3.503   6.608 -0.2414  2.6909 -0.4358
  410MOL0     H56563  12.940   3.558   6.725 -0.2940  1.5727 -0.1286
  410MOL0     H56564  11.535   2.951   6.325  0.1474  2.1560  0.6940
  410MOL0     H56565  11.351   3.075   6.257  1.0715  0.3630 -0.6678
  410MOL0     H56566  10.879   3.158   6.474  0.9058 -1.2288 -0.0140
  410MOL0     H56567  10.654   3.235   6.463 -0.4682 -0.0578  0.1569
  410MOL0     H56568  10.442   3.164   6.080  0.3928 -2.2186  1.7778
  410MOL0     H56569  10.316   3.225   6.171 -0.1615 -0.7677 -1.5299
  410MOL0     H56570  10.355   3.368   5.961 -0.1433  0.7832 -0.2439
  410MOL0     H56571  10.520   3.393   6.030  0.3953  0.4138  1.8652
  410MOL0     H56572  10.279   3.483   6.198 -0.4069  0.1332 -0.7255
  410MOL0     H56573  10.446   3.506   6.210  1.3586 -1.9200 -1.5792
  410MOL0     H56574  10.239   3.652   6.036 -0.0795 -1.7422 -2.3912
  410MOL0     H56575  10.405   3.634   5.971  0.1103 -0.6497  0.2517
  410MOL0     H56576  10.456   3.908   6.271 -2.5190  2.2603 -1.2988
  410MOL0     H56577  10.646   3.173   6.049  1.6669  0.2612 -0.7454
  410MOL0     H56578  10.802   3.031   5.939 -0.1145  0.2513 -0.6341
  410MOL0     H56579  10.951   3.108   5.969 -1.1889  1.6059  0.7895
  410MOL0     H56580  10.920   2.938   6.038 -0.4637 -0.8966 -3.6284
  411MOL0     O56581   9.122   8.538   1.668  0.3274 -0.0639  0.6424
  411MOL0     C56582   9.104   8.430   1.720 -0.0665  0.4814  0.2415
  411MOL0     O56583   9.203   8.351   1.774  0.2656  0.5618  1.2232
  411MOL0     C56584   9.328   8.388   1.795 -0.0830  0.2444 -0.6204
  411MOL0     C56585   9.427   8.305   1.752  0.3125 -0.1197 -0.4019
  411MOL0     C56586   9.557   8.342   1.752 -1.4662 -0.3743 -0.2217
  411MOL0     C56587   9.598   8.468   1.810 -0.4700 -0.0005  0.3223
  411MOL0     O56588   9.726   8.517   1.811  0.5001  0.3927 -0.2643
  411MOL0     C56589   9.820   8.433   1.747  0.2580 -0.0421  0.7574
  411MOL0     C56590   9.977   8.468   1.760  0.4064 -0.4574  0.3954
  411MOL0     C56591  10.053   8.364   1.690 -0.5726  0.0945  0.0675
  411MOL0     C56592  10.152   8.291   1.791 -0.2054 -0.4962  0.5024
  411MOL0     C56593  10.225   8.184   1.716  0.6132 -0.4974 -0.2122
  411MOL0     C56594  10.300   8.095   1.816  0.4787  0.0645 -0.1029
  411MOL0     C56595  10.332   7.958   1.745  0.2900  0.0607  0.2578
  411MOL0     C56596  10.436   7.873   1.828  0.7120  0.5586 -0.2893
  411MOL0     N56597  10.575   7.920   1.830 -0.3434 -0.5392  0.7274
  411MOL0     C56598  10.670   7.910   1.729 -0.2017  0.8966  0.0755
  411MOL0     C56599  10.777   7.984   1.771  0.2978  0.1927  0.0408
  411MOL0     C56600  10.905   8.024   1.691 -0.8031  0.6422  0.2676
  411MOL0     C56601  11.036   8.001   1.766 -0.6194  0.5793  0.9540
  411MOL0     C56602  11.157   8.057   1.674  0.8193  0.8237 -0.7931
  411MOL0     C56603  11.294   8.016   1.733  0.1093 -0.4188 -0.9079
  411MOL0     O56604  11.374   8.099   1.657 -1.0128  0.3885 -0.3695
  411MOL0     C56605  11.513   8.086   1.676  0.3141  0.2454 -0.1260
  411MOL0     C56606  11.595   8.174   1.609 -0.2254 -0.4610  0.2181
  411MOL0     C56607  11.735   8.180   1.616  0.5232 -0.1498  0.7401
  411MOL0     C56608  11.804   8.293   1.536 -0.0618 -0.1867 -0.3357
  411MOL0     C56609  11.798   8.081   1.689 -0.2120 -0.0805 -0.3727
  411MOL0     C56610  11.950   8.046   1.704  0.3942 -0.4784  0.1417
  411MOL0     O56611  11.985   7.955   1.802  0.8105 -0.2582  0.0688
  411MOL0     C56612  12.109   7.893   1.796  0.0100 -0.1272 -0.2499
  411MOL0     C56613  12.194   7.876   1.680  0.0089 -0.3641  0.2944
  411MOL0     C56614  12.316   7.828   1.696  0.2783  1.1544 -0.0439
  411MOL0     C56615  12.367   7.794   1.825 -0.3834 -0.0315  0.1957
  411MOL0     O56616  12.505   7.764   1.838  0.1019  0.3765  0.3076
  411MOL0     C56617  12.539   7.650   1.922 -0.1020 -0.6943 -0.6136
  411MOL0     C56618  12.517   7.519   1.846 -1.1554  0.1601  0.3905
  411MOL0     C56619  12.542   7.403   1.935 -0.2258  0.0740  0.9145
  411MOL0     C56620  12.560   7.267   1.869  0.0056 -0.4768  0.0084
  411MOL0     C56621  12.707   7.262   1.824  0.2730  0.5456 -0.6520
  411MOL0     C56622  12.738   7.160   1.726 -0.1517 -0.0597  0.2086
  411MOL0     C56623  12.881   7.114   1.750 -0.4432  0.0193  0.9840
  411MOL0     C56624  12.926   7.028   1.630  0.8891 -0.1530 -0.2405
  411MOL0    Cl56625  13.088   6.957   1.622  0.3135 -0.4465  0.1017
  411MOL0     C56626  12.286   7.819   1.936  1.3589 -0.1715  0.3340
  411MOL0     C56627  12.151   7.853   1.923 -0.0397 -0.9171  1.5962
  411MOL0     O56628  12.026   8.111   1.629 -0.2802  0.6293 -0.6026
  411MOL0     C56629  11.714   7.984   1.753  0.7880  1.0310 -0.4176
  411MOL0     C56630  11.574   7.994   1.750 -0.1871  0.0574 -0.3004
  411MOL0     N56631  10.760   8.018   1.900 -0.1991 -0.5561 -0.1747
  411MOL0     N56632  10.644   7.976   1.934  0.3234  0.5343 -0.0690
  411MOL0     C56633   9.503   8.548   1.867 -0.1612  0.4065 -0.3139
  411MOL0     C56634   9.367   8.509   1.865 -0.0386  0.5161  1.3723
  411MOL0     C56635   8.961   8.387   1.735  0.3822  0.6630  0.0636
  411MOL0     C56636   8.933   8.305   1.851  0.1916 -0.0086  0.6158
  411MOL0     C56637   8.812   8.262   1.877  0.4987  0.8974  0.7099
  411MOL0     C56638   8.703   8.287   1.788 -0.0252  0.4413  0.7309
  411MOL0     O56639   8.580   8.248   1.826  0.7056  0.1635  0.4738
  411MOL0     C56640   8.575   8.125   1.898  0.8816 -0.1821 -0.6930
  411MOL0     C56641   8.435   8.057   1.924  0.1722  0.2011  0.1495
  411MOL0     C56642   8.346   8.057   1.809  0.3683  0.0367  0.6265
  411MOL0     C56643   8.199   8.034   1.833 -0.0597  0.5716  0.0406
  411MOL0     C56644   8.145   8.115   1.940 -0.6862 -0.8681 -0.4856
  411MOL0     C56645   8.105   8.185   2.027  0.5273  0.6279 -0.1206
  411MOL0     C56646   8.727   8.369   1.674  0.1830 -0.5715  0.5703
  411MOL0     C56647   8.853   8.419   1.643  0.0694 -0.5000 -0.7542
  411MOL0     C56648   8.864   8.494   1.513 -0.3226 -0.9145  0.5204
  411MOL0     H56649   9.391   8.208   1.722 -0.5035  0.1298 -0.2639
  411MOL0     H56650   9.629   8.278   1.703  1.4799  4.4595 -2.8697
  411MOL0     H56651   9.788   8.429   1.643  1.0341 -0.9641  0.5411
  411MOL0     H56652   9.818   8.336   1.797  1.2737 -0.7672 -0.5552
  411MOL0     H56653  10.003   8.563   1.714  0.3135 -1.0577 -0.9295
  411MOL0     H56654  10.001   8.466   1.867 -2.6281  2.2784  1.2892
  411MOL0     H56655   9.986   8.304   1.629 -0.4393  0.8267 -0.8275
  411MOL0     H56656  10.132   8.401   1.623 -1.0089 -3.3306 -2.6070
  411MOL0     H56657  10.218   8.368   1.831 -0.2911 -0.0576 -0.1915
  411MOL0     H56658  10.089   8.250   1.870 -1.9559 -0.1622 -0.6674
  411MOL0     H56659  10.304   8.223   1.651  1.6550 -2.2502 -0.0790
  411MOL0     H56660  10.156   8.120   1.661  0.4650 -0.3061 -0.2473
  411MOL0     H56661  10.385   8.150   1.858  1.6532 -1.4388 -0.4225
  411MOL0     H56662  10.227   8.076   1.894  1.0461 -2.0399 -0.0444
  411MOL0     H56663  10.372   7.963   1.644  3.2247 -4.0358  0.9574
  411MOL0     H56664  10.237   7.905   1.736  1.2692 -1.3773 -3.3957
  411MOL0     H56665  10.393   7.856   1.927  0.8333  3.1676  0.3017
  411MOL0     H56666  10.441   7.771   1.790 -0.0048 -0.4813  2.2197
  411MOL0     H56667  10.667   7.863   1.632  1.0413 -1.9819  1.3233
  411MOL0     H56668  10.898   8.132   1.674 -1.3022  1.2016  3.3949
  411MOL0     H56669  10.910   7.968   1.598  1.7643  1.9512 -0.4895
  411MOL0     H56670  11.023   8.059   1.858 -1.6167 -0.3493  1.4138
  411MOL0     H56671  11.044   7.894   1.785 -2.3774  0.3920  0.8000
  411MOL0     H56672  11.154   8.015   1.573  0.7095 -0.1658 -0.3945
  411MOL0     H56673  11.150   8.166   1.665 -0.2110  0.7119 -1.4142
  411MOL0     H56674  11.301   8.044   1.839  0.1634  1.1253 -1.2988
  411MOL0     H56675  11.310   7.910   1.713 -1.2977 -0.4872 -1.8121
  411MOL0     H56676  11.539   8.248   1.552  1.8200  0.4952 -0.6230
  411MOL0     H56677  11.875   8.347   1.599  0.4579  0.0661 -1.1261
  411MOL0     H56678  11.734   8.365   1.494  1.0914  0.2484 -1.5808
  411MOL0     H56679  11.872   8.255   1.458  1.1941  0.8636  0.2058
  411MOL0     H56680  12.175   7.907   1.578  1.9914 -4.7944 -1.6949
  411MOL0     H56681  12.383   7.812   1.612 -2.5169 -0.6255 -2.1136
  411MOL0     H56682  12.643   7.657   1.954 -1.3497 -1.2380  4.3559
  411MOL0     H56683  12.482   7.649   2.015  2.0847  2.6318  0.9494
  411MOL0     H56684  12.413   7.516   1.812 -1.1649  2.4915  0.0016
  411MOL0     H56685  12.582   7.516   1.758  1.2928  1.4100  2.0354
  411MOL0     H56686  12.465   7.393   2.013 -0.8775 -0.3802  0.2260
  411MOL0     H56687  12.628   7.423   2.000  1.3275  2.0706 -1.6172
  411MOL0     H56688  12.482   7.253   1.793 -2.5153 -0.9121  2.5334
  411MOL0     H56689  12.550   7.194   1.949  1.4935 -0.0581  0.6081
  411MOL0     H56690  12.719   7.365   1.790  2.3467  0.4701 -0.2444
  411MOL0     H56691  12.768   7.245   1.913  0.9635 -0.8009 -1.3517
  411MOL0     H56692  12.739   7.199   1.624  0.1334 -2.3621 -0.7205
  411MOL0     H56693  12.676   7.070   1.731 -0.1022 -0.2485 -1.7879
  411MOL0     H56694  12.875   7.064   1.847  0.3582 -1.7171  0.1932
  411MOL0     H56695  12.952   7.197   1.751  1.8688 -1.7758 -0.6712
  411MOL0     H56696  12.903   7.080   1.537 -1.0984 -0.4264  0.0488
  411MOL0     H56697  12.856   6.945   1.625 -0.6320  1.1398 -1.1590
  411MOL0     H56698  12.324   7.818   2.038 -0.1712 -0.3937  0.9371
  411MOL0     H56699  12.081   7.858   2.006 -0.3179 -0.9409  1.3634
  411MOL0     H56700  11.754   7.905   1.816  4.8152  1.9486 -1.5502
  411MOL0     H56701  11.518   7.918   1.803  1.0712 -0.6138  0.1108
  411MOL0     H56702   9.526   8.644   1.911 -3.6808  0.3801  2.0794
  411MOL0     H56703   9.289   8.577   1.899 -2.6231  1.0762 -4.4552
  411MOL0     H56704   9.015   8.280   1.918  0.0453 -0.8923  0.4819
  411MOL0     H56705   8.804   8.204   1.968 -1.3512 -1.5981 -0.9073
  411MOL0     H56706   8.632   8.044   1.852 -2.1314 -2.6831 -0.3931
  411MOL0     H56707   8.607   8.143   2.002 -0.3157 -0.8740 -0.1854
  411MOL0     H56708   8.388   8.107   2.009  0.1082  0.5312 -0.0789
  411MOL0     H56709   8.446   7.951   1.949  0.0906 -0.0993 -1.0156
  411MOL0     H56710   8.352   8.151   1.753 -0.1120 -0.4831 -0.3273
  411MOL0     H56711   8.382   7.993   1.728  1.5693  1.1289  0.2544
  411MOL0     H56712   8.193   7.929   1.862  1.9532  1.0151  2.4124
  411MOL0     H56713   8.138   8.058   1.745 -1.3604 -1.3788  0.3628
  411MOL0     H56714   8.053   8.237   2.105 -2.4638  1.1770 -2.3196
  411MOL0     H56715   8.647   8.392   1.604  0.2230 -2.5740 -0.1910
  411MOL0     H56716   8.936   8.572   1.541  1.7465 -0.7904 -4.1961
  411MOL0     H56717   8.907   8.431   1.435 -0.9913 -2.3374  1.2685
  411MOL0     H56718   8.772   8.537   1.473  0.5364 -1.3178 -2.0903
  412MOL0     O56719   6.946   4.390   8.542 -0.2115  0.4257  0.1814
  412MOL0     C56720   6.885   4.419   8.444 -1.0131 -0.2766 -0.7526
  412MOL0     O56721   6.851   4.338   8.342 -0.1419  0.1891  0.2629
  412MOL0     C56722   6.875   4.203   8.365 -0.0919  0.3276 -0.2500
  412MOL0     C56723   6.792   4.130   8.451  0.2542 -0.3527 -0.2836
  412MOL0     C56724   6.815   3.992   8.468 -0.0186  0.8724 -0.3936
  412MOL0     C56725   6.915   3.931   8.391 -0.1901 -0.0257 -0.6724
  412MOL0     O56726   6.961   3.803   8.401  0.0211 -0.0351 -0.1816
  412MOL0     C56727   6.896   3.710   8.483  0.7546  0.7790 -0.4712
  412MOL0     C56728   6.939   3.560   8.470 -0.8149 -0.1943  0.2680
  412MOL0     C56729   6.901   3.494   8.334  0.1141 -0.7346 -0.7683
  412MOL0     C56730   6.947   3.345   8.320  0.3502 -0.4356  0.0802
  412MOL0     C56731   6.983   3.305   8.174  0.2110 -0.3376 -0.0217
  412MOL0     C56732   6.851   3.304   8.088  0.6858 -0.5774  0.1574
  412MOL0     C56733   6.752   3.190   8.121 -0.1252  0.6897  0.1939
  412MOL0     C56734   6.651   3.177   8.013 -0.7989  0.8013  0.5997
  412MOL0     N56735   6.719   3.114   7.897 -0.2609  0.4882 -0.1888
  412MOL0     C56736   6.791   3.185   7.797 -0.2996 -0.3056 -0.1030
  412MOL0     C56737   6.867   3.085   7.738  0.8883  0.2391 -0.7315
  412MOL0     C56738   6.992   3.098   7.652 -0.2594 -1.0765 -0.7364
  412MOL0     C56739   7.007   2.993   7.546  0.6324  0.4607  0.6132
  412MOL0     C56740   7.152   2.989   7.502 -0.1873  0.1653  0.8867
  412MOL0     C56741   7.206   2.873   7.416 -0.0520  0.7353 -0.0816
  412MOL0     O56742   7.262   2.769   7.492  0.0853  0.1473 -0.3931
  412MOL0     C56743   7.387   2.727   7.468  0.2961 -0.4392  0.1604
  412MOL0     C56744   7.487   2.824   7.462 -0.9433  0.7239  0.4179
  412MOL0     C56745   7.622   2.781   7.450 -0.1279 -0.2408 -0.7034
  412MOL0     C56746   7.731   2.892   7.433 -0.1533  0.0558 -0.1754
  412MOL0     C56747   7.661   2.641   7.449  0.3158 -0.6589 -0.0863
  412MOL0     C56748   7.796   2.584   7.425 -0.3107  0.4248 -0.9468
  412MOL0     O56749   7.904   2.656   7.375  0.5115 -0.4586 -0.0616
  412MOL0     C56750   8.028   2.596   7.359 -0.7392  0.3838  0.3960
  412MOL0     C56751   8.068   2.565   7.228  0.3596 -0.2664  0.0546
  412MOL0     C56752   8.189   2.498   7.212  0.0867  0.9347  0.3996
  412MOL0     C56753   8.266   2.459   7.323 -0.1679  0.6138 -0.9585
  412MOL0     O56754   8.388   2.393   7.326  0.2440  0.4531  0.6499
  412MOL0     C56755   8.449   2.389   7.197  0.6500  0.1723  0.8632
  412MOL0     C56756   8.562   2.289   7.207  0.2185 -0.8635 -0.3567
  412MOL0     C56757   8.652   2.308   7.085  0.3522  0.2182  0.1631
  412MOL0     C56758   8.767   2.206   7.082  0.1543 -0.9649  0.5289
  412MOL0     C56759   8.840   2.233   6.949 -0.0127 -0.2808  0.4294
  412MOL0     C56760   8.984   2.166   6.940 -0.5871 -0.5990  0.0317
  412MOL0     C56761   9.045   2.146   6.797  0.4615 -0.2458  0.2288
  412MOL0     C56762   9.144   2.022   6.788  0.0482  0.7385 -0.5859
  412MOL0    Cl56763   9.284   2.045   6.900 -0.2070  0.2620 -0.4860
  412MOL0     C56764   8.226   2.501   7.453 -0.0691 -0.0873 -0.0133
  412MOL0     C56765   8.111   2.568   7.475  0.3634  0.4880  0.2553
  412MOL0     O56766   7.797   2.467   7.444 -0.5931  0.2178 -0.2056
  412MOL0     C56767   7.552   2.549   7.467  0.1503 -0.2270 -0.6642
  412MOL0     C56768   7.415   2.591   7.469 -0.3450 -0.0813 -0.1938
  412MOL0     N56769   6.829   2.960   7.793 -0.1523  0.7456  0.3732
  412MOL0     N56770   6.742   2.974   7.895 -0.9259  0.5718 -0.4530
  412MOL0     C56771   6.998   4.012   8.309  0.4097  0.2850  0.2201
  412MOL0     C56772   6.976   4.146   8.286 -0.1033  0.5131  0.0335
  412MOL0     C56773   6.853   4.570   8.433 -0.1068  0.2202 -0.0278
  412MOL0     C56774   6.841   4.646   8.549  0.8479  0.3052  0.2909
  412MOL0     C56775   6.805   4.785   8.542  0.3398  0.4051  0.1175
  412MOL0     C56776   6.777   4.849   8.423 -0.0151 -0.2209  0.9880
  412MOL0     O56777   6.738   4.979   8.404 -0.7680  0.3394  0.0016
  412MOL0     C56778   6.725   5.081   8.508 -0.2179  0.2413  0.4301
  412MOL0     C56779   6.588   5.082   8.582 -0.5465  0.1589 -0.1900
  412MOL0     C56780   6.461   5.078   8.484 -0.4794 -0.5726  0.5697
  412MOL0     C56781   6.330   5.074   8.569  0.3315 -0.3154 -0.3551
  412MOL0     C56782   6.313   5.211   8.624 -0.2916  0.1187  0.5618
  412MOL0     C56783   6.319   5.329   8.665  1.2133  0.8803  0.8159
  412MOL0     C56784   6.802   4.776   8.308 -0.2121  0.1776  0.0116
  412MOL0     C56785   6.836   4.640   8.310 -0.3994 -0.5992 -0.7484
  412MOL0     C56786   6.850   4.574   8.175 -0.2723 -0.2283 -0.2538
  412MOL0     H56787   6.724   4.179   8.520  4.2764  2.4147  2.1468
  412MOL0     H56788   6.749   3.936   8.534  0.1973 -1.5105 -2.0711
  412MOL0     H56789   6.789   3.721   8.466  0.7798  1.4966 -0.1897
  412MOL0     H56790   6.912   3.725   8.590  1.4122 -2.7305  0.0577
  412MOL0     H56791   7.046   3.555   8.490 -0.4385 -0.8572 -1.6688
  412MOL0     H56792   6.881   3.500   8.541 -0.2480  0.5701  1.3882
  412MOL0     H56793   6.794   3.507   8.316 -0.0006  2.1599  1.3311
  412MOL0     H56794   6.944   3.547   8.249 -0.2962  2.1651  0.7361
  412MOL0     H56795   7.035   3.334   8.385  0.6387 -0.9053 -0.3801
  412MOL0     H56796   6.876   3.274   8.362  0.8089 -0.2336  1.2270
  412MOL0     H56797   7.035   3.209   8.178 -2.0642 -1.6058  1.0900
  412MOL0     H56798   7.050   3.381   8.133 -2.0082  2.2357  0.8127
  412MOL0     H56799   6.797   3.397   8.111 -1.1286 -1.5151 -0.1251
  412MOL0     H56800   6.883   3.307   7.984  0.3900  0.5505  0.0823
  412MOL0     H56801   6.694   3.201   8.214 -1.7064  0.3597 -0.7211
  412MOL0     H56802   6.806   3.096   8.136 -2.3574 -0.4370  1.8191
  412MOL0     H56803   6.567   3.115   8.046 -0.0410  1.0102  3.1174
  412MOL0     H56804   6.621   3.282   8.002 -3.0264  0.2892  1.3567
  412MOL0     H56805   6.792   3.292   7.779  2.5424 -0.2399  0.0067
  412MOL0     H56806   7.077   3.101   7.721  0.5850  2.6923 -1.7240
  412MOL0     H56807   6.986   3.196   7.604 -0.6723 -1.5947 -1.7713
  412MOL0     H56808   6.980   2.891   7.578  0.5040  0.5621  0.8314
  412MOL0     H56809   6.936   3.005   7.464 -0.6591  1.2061  1.8003
  412MOL0     H56810   7.171   3.080   7.444  3.7260  0.1134  1.8578
  412MOL0     H56811   7.218   2.991   7.589  0.5399 -0.0169  0.3456
  412MOL0     H56812   7.123   2.830   7.358  1.2948  0.8369 -2.1888
  412MOL0     H56813   7.277   2.911   7.342 -2.2606 -0.6289 -3.1592
  412MOL0     H56814   7.465   2.930   7.464  0.8462  1.1151  1.0070
  412MOL0     H56815   7.825   2.864   7.483  1.6430  1.4611 -2.5225
  412MOL0     H56816   7.703   2.985   7.483 -2.6353 -1.0948  0.7107
  412MOL0     H56817   7.762   2.909   7.329 -1.3608 -2.7824 -1.1035
  412MOL0     H56818   8.008   2.579   7.138 -1.1833 -1.4844  0.8296
  412MOL0     H56819   8.212   2.463   7.112 -0.9269 -0.1145  0.5079
  412MOL0     H56820   8.376   2.350   7.125  1.5885 -0.1183  0.0484
  412MOL0     H56821   8.479   2.489   7.166 -1.8019  1.5357  2.5457
  412MOL0     H56822   8.619   2.301   7.299  0.5298 -0.1168 -0.6367
  412MOL0     H56823   8.521   2.188   7.202  1.5750 -1.4115 -0.7866
  412MOL0     H56824   8.704   2.403   7.099  1.0355 -0.0567 -0.4303
  412MOL0     H56825   8.597   2.297   6.991  2.6133 -0.6764 -1.1599
  412MOL0     H56826   8.733   2.103   7.098 -0.2597 -0.7469  1.1172
  412MOL0     H56827   8.838   2.235   7.159  0.7179  2.7862 -1.1781
  412MOL0     H56828   8.778   2.202   6.864 -0.5884 -2.1420  1.4880
  412MOL0     H56829   8.858   2.340   6.938  0.7752 -0.4233  0.3221
  412MOL0     H56830   8.979   2.071   6.994  0.5197  1.1728  3.6228
  412MOL0     H56831   9.060   2.215   7.003  0.8815 -3.2176  0.4386
  412MOL0     H56832   9.103   2.236   6.777 -0.3087 -0.0748 -1.3969
  412MOL0     H56833   8.965   2.133   6.723 -1.2509  2.8825  1.3439
  412MOL0     H56834   9.188   1.998   6.691  0.4728 -0.7119 -0.0634
  412MOL0     H56835   9.079   1.940   6.819 -0.4148  1.6517  0.9788
  412MOL0     H56836   8.295   2.477   7.534  0.3816  2.1930  0.3379
  412MOL0     H56837   8.087   2.581   7.580  0.6242 -2.5400  0.7895
  412MOL0     H56838   7.568   2.442   7.472  0.4311 -0.1427  0.4810
  412MOL0     H56839   7.330   2.526   7.483 -0.4728 -0.3843 -2.1672
  412MOL0     H56840   7.080   3.969   8.252 -0.5428 -1.4697  0.1030
  412MOL0     H56841   7.034   4.203   8.213  1.4853  0.1216  0.9416
  412MOL0     H56842   6.862   4.602   8.647  2.4158  0.6944  0.1500
  412MOL0     H56843   6.789   4.838   8.635  1.2262  0.6975  0.1152
  412MOL0     H56844   6.813   5.060   8.569  0.8851 -1.5856 -1.6436
  412MOL0     H56845   6.747   5.175   8.457  0.2381 -0.0531  0.0834
  412MOL0     H56846   6.572   5.150   8.667 -2.5240 -0.0958 -0.3095
  412MOL0     H56847   6.597   4.987   8.636 -1.2479  0.1039 -0.1649
  412MOL0     H56848   6.445   5.170   8.428  1.1576 -0.0219  0.9682
  412MOL0     H56849   6.468   4.997   8.411  0.7703 -0.2922  0.3573
  412MOL0     H56850   6.334   4.993   8.642  4.4197 -2.5678 -2.6802
  412MOL0     H56851   6.237   5.059   8.513  0.7711 -1.9277 -0.7073
  412MOL0     H56852   6.313   5.435   8.681 -3.2384  0.7423  1.2245
  412MOL0     H56853   6.787   4.827   8.214 -1.6563 -0.8015 -0.3208
  412MOL0     H56854   6.945   4.519   8.182 -1.5113 -2.3832  0.6036
  412MOL0     H56855   6.770   4.499   8.168  0.1979 -0.7196 -0.4894
  412MOL0     H56856   6.864   4.641   8.090 -0.5170 -0.6189 -0.6086
  413MOL0     O56857   8.653   6.882   4.708 -0.2226 -0.0392  0.0200
  413MOL0     C56858   8.666   6.978   4.786  0.1522  0.0189  0.1621
  413MOL0     O56859   8.764   7.073   4.781  0.3402 -0.2312 -0.3479
  413MOL0     C56860   8.862   7.042   4.697  0.0826  0.3030 -0.8407
  413MOL0     C56861   8.986   7.008   4.742 -0.1041 -0.2721 -0.6098
  413MOL0     C56862   9.088   6.974   4.657  0.1792  0.0737 -0.3961
  413MOL0     C56863   9.074   6.964   4.518 -0.6018 -0.1740 -0.0166
  413MOL0     O56864   9.173   6.934   4.437 -0.1311 -0.1986 -0.8040
  413MOL0     C56865   9.189   6.792   4.427  1.2797 -0.0996 -0.5246
  413MOL0     C56866   9.321   6.771   4.367  0.5740  0.8320 -0.0833
  413MOL0     C56867   9.333   6.828   4.222  0.3546 -0.1498  0.2521
  413MOL0     C56868   9.474   6.870   4.190 -0.3766  0.2213 -0.0069
  413MOL0     C56869   9.488   6.892   4.036  0.4419  0.4446  0.4224
  413MOL0     C56870   9.615   6.965   4.000  0.8054  0.0528  0.2328
  413MOL0     C56871   9.750   6.897   4.046  0.1226 -0.2504 -0.1914
  413MOL0     C56872   9.869   6.981   3.995 -0.2028 -0.6164 -1.2674
  413MOL0     N56873  10.005   6.956   4.066  0.3848 -0.8032  0.6990
  413MOL0     C56874  10.083   6.837   4.075 -0.1885 -0.2214  0.1961
  413MOL0     C56875  10.186   6.873   4.143 -0.8079  0.5225  0.1040
  413MOL0     C56876  10.307   6.788   4.168 -0.2064 -0.5168  1.2090
  413MOL0     C56877  10.415   6.801   4.045  0.5277 -0.3379  0.0943
  413MOL0     C56878  10.459   6.942   4.014  0.9312  0.3720  0.3050
  413MOL0     C56879  10.557   7.004   4.111  0.1719 -0.5409 -0.1277
  413MOL0     O56880  10.674   6.939   4.082  0.2478 -0.1803  0.4838
  413MOL0     C56881  10.795   6.980   4.130 -0.5774 -0.5542 -1.1900
  413MOL0     C56882  10.829   7.112   4.161  0.5950 -0.6937 -0.3913
  413MOL0     C56883  10.962   7.135   4.205  0.2895 -0.0794  0.0582
  413MOL0     C56884  11.000   7.283   4.180  0.9047  0.5998 -0.1286
  413MOL0     C56885  11.049   7.023   4.227  0.7020 -0.6409 -0.1858
  413MOL0     C56886  11.197   7.048   4.276  0.0800 -0.4439  0.4282
  413MOL0     O56887  11.273   6.935   4.310 -0.3893 -0.4292 -0.0372
  413MOL0     C56888  11.397   6.943   4.368 -0.4884 -0.8064  0.8832
  413MOL0     C56889  11.458   7.054   4.437 -0.4694  0.3765  0.1670
  413MOL0     C56890  11.588   7.038   4.476  0.2294  0.2808  0.0470
  413MOL0     C56891  11.672   6.931   4.453  0.7514 -0.6598 -0.2766
  413MOL0     O56892  11.797   6.941   4.509 -0.1667 -0.9985 -0.2633
  413MOL0     C56893  11.851   6.826   4.577 -0.2056  0.2473 -0.2226
  413MOL0     C56894  11.954   6.858   4.676  0.4692 -0.4900  0.4979
  413MOL0     C56895  11.884   6.934   4.797 -0.5833 -0.2468 -0.0543
  413MOL0     C56896  11.993   7.005   4.884  0.3092  1.0789  0.4570
  413MOL0     C56897  12.061   6.895   4.970 -0.3034 -0.1572  0.2458
  413MOL0     C56898  12.199   6.949   5.018  0.7914  0.1019 -0.2476
  413MOL0     C56899  12.228   6.879   5.150 -0.1594 -0.4894 -0.4093
  413MOL0     C56900  12.245   6.728   5.141  1.8632 -0.4620  0.2839
  413MOL0    Cl56901  12.290   6.646   5.289 -0.0484 -0.2991 -0.3980
  413MOL0     C56902  11.609   6.822   4.398 -0.4319 -0.5680  0.0639
  413MOL0     C56903  11.476   6.827   4.350  0.4287  0.1884 -0.3810
  413MOL0     O56904  11.232   7.163   4.286 -0.2067 -0.5879  0.3555
  413MOL0     C56905  11.002   6.892   4.227  0.8871 -0.1168  0.3829
  413MOL0     C56906  10.882   6.876   4.159  1.2469 -0.5109  0.6129
  413MOL0     N56907  10.184   7.000   4.193  0.3692 -0.5606 -0.5971
  413MOL0     N56908  10.077   7.052   4.140 -0.6991  0.0311 -0.4236
  413MOL0     C56909   8.950   6.996   4.467  0.5704 -0.7477  0.1761
  413MOL0     C56910   8.842   7.042   4.556 -0.4807 -0.4922 -0.7884
  413MOL0     C56911   8.567   6.987   4.899 -0.0598  0.1239  0.4318
  413MOL0     C56912   8.588   7.087   5.004 -0.3566  0.7306  0.3143
  413MOL0     C56913   8.496   7.113   5.105  0.3943  0.0401  0.2923
  413MOL0     C56914   8.380   7.038   5.117 -0.1373 -0.0034 -0.0662
  413MOL0     O56915   8.295   7.070   5.218 -0.2851 -0.5545 -0.3545
  413MOL0     C56916   8.167   7.006   5.243 -0.2436  0.2716 -0.0293
  413MOL0     C56917   8.059   7.082   5.159  0.3116 -0.7837 -0.6745
  413MOL0     C56918   7.930   7.018   5.173  0.0311 -0.1606 -0.5292
  413MOL0     C56919   7.831   7.079   5.072  0.5607  0.0045  0.4929
  413MOL0     C56920   7.817   7.220   5.104 -0.4273 -0.2250  0.5951
  413MOL0     C56921   7.807   7.335   5.133  0.1668  0.2224  0.0539
  413MOL0     C56922   8.363   6.933   5.027  0.3728  0.5620  0.4243
  413MOL0     C56923   8.447   6.906   4.913  0.1264 -0.4566 -0.4899
  413MOL0     C56924   8.403   6.805   4.811 -0.1206 -0.0123 -0.5073
  413MOL0     H56925   8.999   7.017   4.850  0.0278 -2.3355 -0.4136
  413MOL0     H56926   9.187   6.960   4.700  0.2328  0.4377 -0.3957
  413MOL0     H56927   9.105   6.749   4.371  1.6777  0.7850 -1.8551
  413MOL0     H56928   9.194   6.747   4.527 -2.3528 -0.5156 -0.3973
  413MOL0     H56929   9.383   6.830   4.435 -0.5754  1.5274  0.3861
  413MOL0     H56930   9.353   6.666   4.371  0.1020  0.6414 -1.0289
  413MOL0     H56931   9.306   6.741   4.161  2.6055 -1.6801  1.2898
  413MOL0     H56932   9.267   6.914   4.211  0.6384  0.5657  3.2675
  413MOL0     H56933   9.499   6.961   4.245  1.0922  1.8083 -3.0134
  413MOL0     H56934   9.533   6.785   4.226  1.8419  1.6213 -0.1268
  413MOL0     H56935   9.398   6.945   4.003 -1.7973 -3.2276  0.0585
  413MOL0     H56936   9.488   6.800   3.977  0.1568 -1.5815  3.3574
  413MOL0     H56937   9.609   6.994   3.895 -0.3281 -0.9648 -0.0059
  413MOL0     H56938   9.626   7.064   4.045 -2.9546  2.7745 -3.9779
  413MOL0     H56939   9.756   6.797   4.003 -0.4709 -2.0460  3.5216
  413MOL0     H56940   9.755   6.884   4.154 -4.0199  2.7014  0.6176
  413MOL0     H56941   9.870   6.962   3.887  1.6365 -1.3188 -1.1585
  413MOL0     H56942   9.847   7.084   4.024 -0.0590 -0.5866 -1.2667
  413MOL0     H56943  10.068   6.750   4.010 -3.3654  2.1236 -2.5665
  413MOL0     H56944  10.268   6.687   4.183  0.1450 -0.6111  1.4896
  413MOL0     H56945  10.361   6.828   4.254 -0.0766  1.5936  0.2038
  413MOL0     H56946  10.500   6.733   4.057 -0.6682 -1.6090  2.0227
  413MOL0     H56947  10.373   6.764   3.951  2.0933 -0.3625 -0.6321
  413MOL0     H56948  10.510   6.931   3.919  4.2470  0.7287  1.9040
  413MOL0     H56949  10.369   7.004   4.020 -1.5110 -2.7497 -0.7745
  413MOL0     H56950  10.559   7.111   4.089 -1.1598 -0.9144 -2.3815
  413MOL0     H56951  10.528   7.001   4.217  0.4092  2.3060  0.1163
  413MOL0     H56952  10.756   7.191   4.146  1.7279  0.8535  1.7491
  413MOL0     H56953  11.079   7.290   4.106  1.6506 -1.5986  0.3780
  413MOL0     H56954  11.029   7.330   4.275  1.1025  1.1577 -0.4640
  413MOL0     H56955  10.914   7.333   4.134 -1.0630 -2.7282 -0.3844
  413MOL0     H56956  11.405   7.148   4.453  0.3652  0.8437  0.2592
  413MOL0     H56957  11.628   7.118   4.537 -0.2420 -0.5655  1.5075
  413MOL0     H56958  11.765   6.774   4.621 -1.9811  1.6551 -1.8825
  413MOL0     H56959  11.897   6.767   4.497 -1.2837 -0.8423 -0.0732
  413MOL0     H56960  12.011   6.769   4.704  0.4282 -0.1667  1.6457
  413MOL0     H56961  12.021   6.917   4.614 -0.3876  1.0359  0.9794
  413MOL0     H56962  11.826   6.869   4.862 -1.2591  2.5101  2.3170
  413MOL0     H56963  11.819   7.016   4.764 -0.0243 -0.2317 -1.1845
  413MOL0     H56964  11.953   7.077   4.956 -0.5689  0.5083  0.5551
  413MOL0     H56965  12.062   7.063   4.822 -1.1723  0.3873 -1.9592
  413MOL0     H56966  11.997   6.862   5.052  1.2323 -0.2255  1.4618
  413MOL0     H56967  12.088   6.814   4.902  2.1905  0.5836  0.2542
  413MOL0     H56968  12.190   7.053   5.049 -0.7809  0.1746 -0.8349
  413MOL0     H56969  12.270   6.938   4.936 -0.0034 -0.4652 -0.8808
  413MOL0     H56970  12.160   6.918   5.226 -0.1910 -1.5329  0.1092
  413MOL0     H56971  12.325   6.923   5.177  0.4529  0.3468 -3.4820
  413MOL0     H56972  12.312   6.711   5.056  4.0455  4.3165  0.7336
  413MOL0     H56973  12.149   6.678   5.122  1.5623  0.8308 -2.0441
  413MOL0     H56974  11.668   6.732   4.382 -0.8549 -0.5946 -1.4901
  413MOL0     H56975  11.416   6.752   4.299 -1.2913 -1.5671  3.7703
  413MOL0     H56976  11.067   6.817   4.270  0.3737  0.2091  1.7937
  413MOL0     H56977  10.847   6.779   4.124  1.9589 -0.3273 -0.6602
  413MOL0     H56978   8.938   7.001   4.360  2.9641 -0.1721 -0.1300
  413MOL0     H56979   8.752   7.083   4.512  0.4307  3.1369  0.3902
  413MOL0     H56980   8.667   7.161   4.993 -2.9316  3.2977 -2.6596
  413MOL0     H56981   8.507   7.201   5.167  2.0094  1.9452 -2.4867
  413MOL0     H56982   8.169   6.899   5.220  1.6892  0.5123 -1.2585
  413MOL0     H56983   8.151   7.019   5.350  4.8086 -2.8953  1.4661
  413MOL0     H56984   8.094   7.104   5.057  0.6594 -0.2082 -0.4380
  413MOL0     H56985   8.056   7.184   5.199  3.8708 -0.8974  0.1754
  413MOL0     H56986   7.946   6.915   5.142 -1.7745 -0.7183  0.2518
  413MOL0     H56987   7.888   7.025   5.274  1.3232 -3.1638  0.3089
  413MOL0     H56988   7.734   7.028   5.065  0.7082 -0.0173 -3.9286
  413MOL0     H56989   7.867   7.069   4.969  0.6898  1.0826  0.4292
  413MOL0     H56990   7.793   7.438   5.160 -1.6975 -0.4085  1.7251
  413MOL0     H56991   8.280   6.864   5.038 -0.2486  1.4298  1.4953
  413MOL0     H56992   8.376   6.845   4.713  0.1503 -0.9065 -0.9589
  413MOL0     H56993   8.482   6.729   4.803  0.7571  0.7684  0.5725
  413MOL0     H56994   8.310   6.758   4.844  0.7426  0.5505  3.0757
  414MOL0     O56995   3.278  10.274   7.895  0.0366  0.1596 -0.1135
  414MOL0     C56996   3.254  10.380   7.835  0.6267  0.0401  0.8341
  414MOL0     O56997   3.308  10.492   7.863 -0.2371 -0.3832  1.1069
  414MOL0     C56998   3.405  10.510   7.954 -1.1939 -0.5445 -0.0065
  414MOL0     C56999   3.406  10.451   8.077 -0.3748  0.2711 -0.1834
  414MOL0     C57000   3.504  10.474   8.171 -0.1891 -0.4055 -0.3998
  414MOL0     C57001   3.595  10.582   8.160 -0.1449 -0.3000  0.0455
  414MOL0     O57002   3.682  10.609   8.269  0.2784  0.2938  0.6996
  414MOL0     C57003   3.770  10.719   8.267 -0.3466  0.1927  0.2236
  414MOL0     C57004   3.840  10.764   8.394 -0.7314 -0.1254  0.7334
  414MOL0     C57005   3.974  10.686   8.398  0.0607  1.0877  0.3625
  414MOL0     C57006   4.054  10.726   8.524 -0.2597  0.0486  0.2532
  414MOL0     C57007   4.179  10.639   8.515 -0.6114  0.3224 -0.2155
  414MOL0     C57008   4.256  10.638   8.655 -0.2936 -0.5203  0.1041
  414MOL0     C57009   4.394  10.560   8.647  0.4199 -0.6531 -0.6217
  414MOL0     C57010   4.510  10.660   8.611  0.0853  0.5014 -0.6964
  414MOL0     N57011   4.632  10.587   8.577 -0.1160  0.2285 -0.3817
  414MOL0     C57012   4.693  10.475   8.638 -0.1302  0.3800 -0.4647
  414MOL0     C57013   4.783  10.432   8.549  0.1294 -0.8926  0.1667
  414MOL0     C57014   4.879  10.318   8.556 -0.0051  0.5674  0.4401
  414MOL0     C57015   4.935  10.313   8.696 -0.4504  0.6957 -0.3246
  414MOL0     C57016   5.040  10.199   8.709  1.1848 -0.7789 -0.2688
  414MOL0     C57017   5.091  10.188   8.853  0.1134 -0.0735  0.3218
  414MOL0     O57018   5.185  10.090   8.865 -0.0789  0.0538 -0.5515
  414MOL0     C57019   5.244  10.056   8.983  0.7069 -0.5319  0.2523
  414MOL0     C57020   5.227  10.125   9.096  0.0910  0.2726  0.2614
  414MOL0     C57021   5.274  10.077   9.222 -0.8302 -1.0758  0.2518
  414MOL0     C57022   5.246  10.155   9.340  0.3768  0.1851 -0.7481
  414MOL0     C57023   5.351   9.957   9.220 -0.4029  0.4938  0.8926
  414MOL0     C57024   5.400   9.877   9.338  0.1259 -0.2832 -0.2552
  414MOL0     O57025   5.468   9.758   9.312  0.2105 -0.5534 -0.5805
  414MOL0     C57026   5.528   9.712   9.423 -0.5800  0.0058 -0.0871
  414MOL0     C57027   5.663   9.733   9.433  0.6469 -0.0192  0.2377
  414MOL0     C57028   5.732   9.685   9.541 -0.0936  0.2336 -1.1531
  414MOL0     C57029   5.666   9.603   9.639 -0.1096  0.4885 -0.5915
  414MOL0     O57030   5.757   9.539   9.724  0.1428  0.0378 -0.2336
  414MOL0     C57031   5.712   9.429   9.800  0.2263 -0.6962 -0.4835
  414MOL0     C57032   5.828   9.377   9.876 -0.6087  0.6823  0.1925
  414MOL0     C57033   5.963   9.345   9.805 -0.2444  0.0007  0.0748
  414MOL0     C57034   6.056   9.255   9.879  0.6986 -0.2200  0.0222
  414MOL0     C57035   6.112   9.332  10.000  0.6904  0.3627 -0.4576
  414MOL0     C57036   6.248   9.275  10.053  0.6091 -0.1342 -0.3290
  414MOL0     C57037   6.310   9.373  10.156 -0.9215  0.3490 -0.3189
  414MOL0     C57038   6.454   9.326  10.188  0.6459 -0.0473  0.0961
  414MOL0    Cl57039   6.524   9.419  10.335 -0.1929  0.2317  0.1129
  414MOL0     C57040   5.531   9.581   9.627  0.3662 -0.0087  0.4641
  414MOL0     C57041   5.458   9.632   9.518 -1.3832 -0.7460  0.0852
  414MOL0     O57042   5.388   9.932   9.450 -0.7331  0.4224  0.0730
  414MOL0     C57043   5.364   9.885   9.096 -0.3988 -0.4901  0.3725
  414MOL0     C57044   5.315   9.935   8.981  0.4465 -0.3729  0.5405
  414MOL0     N57045   4.775  10.529   8.443  0.1428  1.0445 -0.9460
  414MOL0     N57046   4.689  10.615   8.457 -0.0615  0.1451 -0.0051
  414MOL0     C57047   3.597  10.643   8.031  0.4942 -0.5688  0.2060
  414MOL0     C57048   3.508  10.608   7.930 -0.1852 -0.3338 -0.5038
  414MOL0     C57049   3.151  10.373   7.725 -0.4576 -0.0035  0.1880
  414MOL0     C57050   3.062  10.267   7.715 -0.7462 -0.3012  0.7712
  414MOL0     C57051   2.951  10.277   7.624 -0.3549 -0.0966  0.3085
  414MOL0     C57052   2.944  10.379   7.534 -0.1656  0.0137 -0.1116
  414MOL0     O57053   2.837  10.388   7.453 -0.1974 -0.2858 -0.7665
  414MOL0     C57054   2.809  10.514   7.393 -0.4651  0.3414 -0.2012
  414MOL0     C57055   2.867  10.531   7.258  0.0768 -0.1531 -0.6139
  414MOL0     C57056   2.779  10.466   7.155 -0.0632  0.7249  0.2037
  414MOL0     C57057   2.831  10.497   7.016  0.7309 -0.2495 -0.3514
  414MOL0     C57058   2.740  10.426   6.924 -0.4219 -0.4320  0.2036
  414MOL0     C57059   2.663  10.372   6.845  0.3917 -0.1150  0.4785
  414MOL0     C57060   3.044  10.475   7.534  0.0164 -1.2835 -0.3439
  414MOL0     C57061   3.151  10.469   7.620  0.8750  1.1486 -0.9333
  414MOL0     C57062   3.256  10.583   7.588  0.4801  0.4731 -0.3149
  414MOL0     H57063   3.329  10.377   8.100 -3.3572  3.3798  0.7097
  414MOL0     H57064   3.513  10.400   8.250 -3.2774 -1.1637 -0.6367
  414MOL0     H57065   3.702  10.800   8.241  0.7081  0.5718 -1.4737
  414MOL0     H57066   3.835  10.696   8.183 -2.0409 -4.9788 -0.0795
  414MOL0     H57067   3.862  10.871   8.403 -0.9111 -0.2260  3.1910
  414MOL0     H57068   3.770  10.724   8.468 -0.2651 -4.0269 -0.7236
  414MOL0     H57069   3.949  10.580   8.410  0.6093  0.7161 -1.5517
  414MOL0     H57070   4.038  10.709   8.313  0.7339  3.3426  1.4193
  414MOL0     H57071   4.081  10.832   8.511 -2.8844  0.8779  0.9406
  414MOL0     H57072   3.988  10.725   8.612 -2.2010  2.2615 -1.0517
  414MOL0     H57073   4.250  10.673   8.438 -1.0045 -1.4627 -1.4219
  414MOL0     H57074   4.159  10.534   8.490 -3.6525  1.1381 -1.5707
  414MOL0     H57075   4.271  10.737   8.700 -4.4244  0.2719  0.0666
  414MOL0     H57076   4.195  10.596   8.735  2.2247 -0.7054  2.0789
  414MOL0     H57077   4.393  10.492   8.561 -0.7099  1.8353 -2.7170
  414MOL0     H57078   4.415  10.500   8.736 -1.1723  1.6230  1.3912
  414MOL0     H57079   4.474  10.731   8.537 -4.0907 -0.2406  0.3461
  414MOL0     H57080   4.537  10.724   8.695 -0.6448 -1.4354  1.1232
  414MOL0     H57081   4.670  10.426   8.733  1.7456 -0.1557 -0.2574
  414MOL0     H57082   4.961  10.351   8.491  1.3748 -0.6008  1.5361
  414MOL0     H57083   4.837  10.224   8.519  0.4550  0.5635 -0.0857
  414MOL0     H57084   4.994  10.405   8.703  0.5048 -0.0317  2.6242
  414MOL0     H57085   4.857  10.310   8.772 -1.2977 -1.6326 -1.1968
  414MOL0     H57086   5.001  10.104   8.674  2.5355 -0.9922 -1.3033
  414MOL0     H57087   5.128  10.218   8.647 -0.1023  2.6931 -1.2742
  414MOL0     H57088   5.142  10.280   8.884  0.2028 -0.0821  0.2005
  414MOL0     H57089   5.020  10.155   8.930  2.1425 -5.5535  0.2944
  414MOL0     H57090   5.159  10.210   9.100  1.1370  1.1649 -0.4613
  414MOL0     H57091   5.215  10.091   9.423  2.2122 -1.2903 -1.1324
  414MOL0     H57092   5.172  10.232   9.315  0.9887  0.6998 -1.0186
  414MOL0     H57093   5.334  10.207   9.379  2.1553 -1.9220 -1.7439
  414MOL0     H57094   5.713   9.782   9.351  1.4331 -3.7425 -1.7122
  414MOL0     H57095   5.840   9.701   9.549 -0.0662 -0.3776 -0.1679
  414MOL0     H57096   5.632   9.465   9.865 -1.2021 -3.4607 -0.5460
  414MOL0     H57097   5.663   9.353   9.738  0.6459 -0.4903 -1.0736
  414MOL0     H57098   5.851   9.445   9.958 -1.2409  0.8172  0.2613
  414MOL0     H57099   5.793   9.286   9.925 -2.9569  1.3118 -0.2012
  414MOL0     H57100   6.022   9.433   9.776  1.3392 -1.4216 -1.1956
  414MOL0     H57101   5.933   9.292   9.714 -1.6373  2.5459 -1.0475
  414MOL0     H57102   6.138   9.227   9.812 -0.0625  0.2213 -1.1416
  414MOL0     H57103   6.010   9.159   9.904  1.4348 -0.3576  0.8968
  414MOL0     H57104   6.121   9.438   9.977 -3.0623  0.6141 -1.5064
  414MOL0     H57105   6.047   9.312  10.086  1.1971  1.0478  0.0989
  414MOL0     H57106   6.312   9.256   9.967  0.1057 -0.3490 -0.6578
  414MOL0     H57107   6.236   9.183  10.112  1.8008  0.3500  0.7072
  414MOL0     H57108   6.245   9.378  10.244  0.4499  0.1170  0.7410
  414MOL0     H57109   6.318   9.465  10.098 -0.0865  0.0051 -0.7708
  414MOL0     H57110   6.517   9.341  10.100  0.5347 -1.4713 -0.2380
  414MOL0     H57111   6.456   9.220  10.214  1.0868  0.1721  1.0061
  414MOL0     H57112   5.475   9.519   9.697 -0.9325  1.0781  0.4230
  414MOL0     H57113   5.355   9.609   9.493 -0.8352  0.2798 -3.5924
  414MOL0     H57114   5.442   9.810   9.085  1.9730  1.7849  0.8242
  414MOL0     H57115   5.347   9.893   8.886 -0.2828 -0.5911  0.3903
  414MOL0     H57116   3.684  10.698   7.999  2.5452 -3.9819 -0.6613
  414MOL0     H57117   3.520  10.636   7.825 -1.0584 -3.3663 -1.5023
  414MOL0     H57118   3.079  10.172   7.765 -0.9636 -1.5768 -1.3981
  414MOL0     H57119   2.899  10.182   7.629 -0.7063  0.1432  3.6847
  414MOL0     H57120   2.701  10.529   7.389 -0.5915 -0.7197 -1.0029
  414MOL0     H57121   2.840  10.604   7.447 -1.8699  2.0772 -2.1225
  414MOL0     H57122   2.967  10.488   7.257  0.8157  1.2741  2.1438
  414MOL0     H57123   2.873  10.638   7.236 -1.0612  0.3946  1.4442
  414MOL0     H57124   2.786  10.359   7.172  3.7325  0.7014 -0.5881
  414MOL0     H57125   2.677  10.505   7.167  0.1592  1.3038  0.2818
  414MOL0     H57126   2.934  10.465   6.995  1.0871  1.1418 -0.8449
  414MOL0     H57127   2.820  10.605   7.007  0.4909 -0.1798  0.6536
  414MOL0     H57128   2.584  10.330   6.785  0.5981  0.7663 -0.4313
  414MOL0     H57129   3.034  10.565   7.475 -2.4112 -0.4240  1.2657
  414MOL0     H57130   3.359  10.547   7.581  0.9272  1.4126  1.1164
  414MOL0     H57131   3.240  10.630   7.490  0.0628  2.3512  0.6080
  414MOL0     H57132   3.246  10.664   7.661 -2.0511 -0.7074  0.7520
  415MOL0     O57133   3.260   5.572   9.086  0.5977  0.8415 -0.6329
  415MOL0     C57134   3.227   5.687   9.110 -0.3819 -1.4803 -0.2796
  415MOL0     O57135   3.265   5.768   9.219 -1.1338 -0.1496 -0.8932
  415MOL0     C57136   3.360   5.705   9.293  0.1268 -0.4717  0.4390
  415MOL0     C57137   3.495   5.677   9.246  0.2218  0.3839 -0.4639
  415MOL0     C57138   3.582   5.608   9.330 -0.1585 -0.3506 -0.1134
  415MOL0     C57139   3.539   5.557   9.458 -0.7416  0.0169 -0.2461
  415MOL0     O57140   3.636   5.503   9.537  0.3962  0.9306  0.2266
  415MOL0     C57141   3.611   5.467   9.669  0.7069 -0.7096 -0.1923
  415MOL0     C57142   3.733   5.402   9.734  0.8261  0.3108 -0.2107
  415MOL0     C57143   3.833   5.506   9.756 -0.0942 -0.3764  0.5663
  415MOL0     C57144   3.967   5.444   9.797 -1.5659  0.3865 -0.3196
  415MOL0     C57145   4.063   5.554   9.853  0.1353  0.4392  0.0124
  415MOL0     C57146   4.022   5.594   9.994  0.2073  0.1265  1.1820
  415MOL0     C57147   4.138   5.661  10.056 -1.2602 -0.5265 -0.6621
  415MOL0     C57148   4.105   5.676  10.213  0.0384  0.4814  0.3944
  415MOL0     N57149   4.216   5.744  10.291 -0.4505 -0.0223 -0.2794
  415MOL0     C57150   4.301   5.683  10.383  0.2247 -0.1655  0.3307
  415MOL0     C57151   4.372   5.778  10.439  0.7500 -0.2445 -0.7380
  415MOL0     C57152   4.489   5.772  10.532 -0.0782  0.7463  1.0442
  415MOL0     C57153   4.440   5.740  10.673  0.2020  0.4132 -0.3223
  415MOL0     C57154   4.353   5.856  10.726 -0.1603 -0.1727 -0.0630
  415MOL0     C57155   4.410   6.000  10.725 -0.1273 -0.1573  0.8226
  415MOL0     O57156   4.525   6.009  10.820  0.7098 -0.3359 -0.4085
  415MOL0     C57157   4.613   6.118  10.813 -0.0092  0.2198 -0.1410
  415MOL0     C57158   4.744   6.093  10.784 -0.2565  0.0871  0.0898
  415MOL0     C57159   4.832   6.199  10.784 -0.1244  0.1366  0.0468
  415MOL0     C57160   4.977   6.158  10.745  0.6433  0.0350 -1.1825
  415MOL0     C57161   4.782   6.329  10.825 -0.3575  0.0663 -0.2928
  415MOL0     C57162   4.879   6.435  10.835 -0.0820 -0.1201  0.3141
  415MOL0     O57163   5.019   6.418  10.845  0.6142 -0.1603  0.1474
  415MOL0     C57164   5.110   6.526  10.868 -0.2922  0.6633  0.1998
  415MOL0     C57165   5.214   6.487  10.946 -0.9807  1.0722 -0.2619
  415MOL0     C57166   5.308   6.580  11.002 -0.1160 -0.0617 -0.3888
  415MOL0     C57167   5.307   6.714  10.953 -0.2120 -0.4033  1.8529
  415MOL0     O57168   5.394   6.807  11.008  0.1402  0.7775  0.6207
  415MOL0     C57169   5.419   6.923  10.924  0.0384  0.0099  0.9089
  415MOL0     C57170   5.528   7.004  11.003 -0.1169 -0.3802 -0.3136
  415MOL0     C57171   5.668   6.928  11.000  0.7748  0.1914 -0.6197
  415MOL0     C57172   5.729   6.930  10.864 -0.3022  0.2450  0.2351
  415MOL0     C57173   5.878   6.898  10.865 -0.1780  0.3539  0.0606
  415MOL0     C57174   5.917   6.759  10.938 -0.0577 -0.0534  0.3192
  415MOL0     C57175   6.072   6.758  10.963 -0.5782  0.0307  0.2878
  415MOL0     C57176   6.124   6.630  11.033  0.0885 -0.2257 -0.1591
  415MOL0    Cl57177   6.296   6.630  11.037 -0.2726  0.0309 -0.2261
  415MOL0     C57178   5.198   6.743  10.861  0.3348  0.5447 -0.3589
  415MOL0     C57179   5.105   6.657  10.815  0.2961  1.0415  0.6292
  415MOL0     O57180   4.826   6.549  10.836 -0.7016  0.2043 -0.6677
  415MOL0     C57181   4.655   6.350  10.863 -0.1791  0.3643  0.1329
  415MOL0     C57182   4.567   6.245  10.850 -0.0795  0.7080  0.5256
  415MOL0     N57183   4.326   5.899  10.386 -0.1203  0.1376  0.0534
  415MOL0     N57184   4.236   5.872  10.296  0.4767  0.5446 -0.1413
  415MOL0     C57185   3.409   5.575   9.499  0.3853 -0.7931 -0.1991
  415MOL0     C57186   3.319   5.652   9.419 -0.1478  0.4113  0.7292
  415MOL0     C57187   3.133   5.764   9.015  0.3515 -0.5486 -0.9633
  415MOL0     C57188   3.067   5.882   9.059  0.0135  0.1840  0.8802
  415MOL0     C57189   2.991   5.958   8.966  0.4099  1.4841 -0.6086
  415MOL0     C57190   2.958   5.911   8.835 -0.5903 -0.3447  0.9531
  415MOL0     O57191   2.873   5.972   8.738 -0.8980  1.2117 -0.5955
  415MOL0     C57192   2.847   6.112   8.755  0.2151 -0.0047  0.3843
  415MOL0     C57193   2.714   6.147   8.818 -0.7308 -0.2682  0.2481
  415MOL0     C57194   2.591   6.117   8.726 -0.2182  0.3876 -0.8733
  415MOL0     C57195   2.569   6.221   8.619 -0.0906  0.2814 -0.2280
  415MOL0     C57196   2.537   6.356   8.665  0.3173  0.1849 -0.1501
  415MOL0     C57197   2.509   6.467   8.703 -0.1754 -1.1191 -0.0458
  415MOL0     C57198   3.013   5.782   8.799 -0.1396 -0.2279 -0.2486
  415MOL0     C57199   3.110   5.718   8.881 -0.7069 -0.7909 -0.3824
  415MOL0     C57200   3.197   5.603   8.819  0.7727 -0.4152  0.5064
  415MOL0     H57201   3.534   5.705   9.148  2.1687  1.0148  0.4283
  415MOL0     H57202   3.683   5.573   9.308  0.5637  0.2266  1.9716
  415MOL0     H57203   3.541   5.384   9.677  1.4362 -1.3416 -0.2094
  415MOL0     H57204   3.569   5.543   9.735 -0.0324 -1.0571 -0.2580
  415MOL0     H57205   3.709   5.358   9.831 -1.6346 -1.9504 -1.7009
  415MOL0     H57206   3.772   5.317   9.677  3.5746  0.8059  0.7562
  415MOL0     H57207   3.847   5.561   9.662  0.7410 -0.6609  0.5186
  415MOL0     H57208   3.799   5.574   9.834  0.2411 -1.0867  1.3367
  415MOL0     H57209   3.946   5.372   9.877 -0.8549  0.0232 -0.4560
  415MOL0     H57210   4.013   5.396   9.710 -2.9812  1.0337 -1.4699
  415MOL0     H57211   4.065   5.643   9.789  1.1922  0.2434 -0.2573
  415MOL0     H57212   4.161   5.504   9.851 -0.6570 -1.2422 -3.1376
  415MOL0     H57213   3.936   5.663   9.998  2.5696  3.6759 -1.8035
  415MOL0     H57214   4.009   5.503  10.053 -0.5371 -0.9868 -0.6017
  415MOL0     H57215   4.142   5.764  10.019 -1.3306 -1.1799 -2.5681
  415MOL0     H57216   4.233   5.610  10.046 -0.4237  0.0184  2.8839
  415MOL0     H57217   4.022   5.746  10.223  0.8462  2.3357 -3.6336
  415MOL0     H57218   4.071   5.579  10.251 -2.3329  1.3297  0.6011
  415MOL0     H57219   4.319   5.577  10.398  1.3414 -0.0655 -0.2346
  415MOL0     H57220   4.532   5.872  10.526 -1.0466  1.1042 -1.3244
  415MOL0     H57221   4.566   5.698  10.507  0.6423  1.6539  0.4863
  415MOL0     H57222   4.380   5.649  10.671 -2.4283  2.0233  0.6017
  415MOL0     H57223   4.528   5.728  10.738 -0.6262 -0.5411  0.6550
  415MOL0     H57224   4.257   5.870  10.676  1.3284 -1.0506 -3.4623
  415MOL0     H57225   4.343   5.834  10.833  4.1855  2.3808  1.0868
  415MOL0     H57226   4.442   6.024  10.623  1.7116 -1.2886  1.0864
  415MOL0     H57227   4.331   6.070  10.754 -0.4106  1.0833 -2.5350
  415MOL0     H57228   4.774   5.990  10.768  1.4502  0.7326 -1.3419
  415MOL0     H57229   5.049   6.181  10.824  0.4328 -1.3657 -0.5473
  415MOL0     H57230   5.003   6.215  10.655  2.3056  0.6373 -0.3588
  415MOL0     H57231   4.983   6.050  10.728  1.2791 -0.1200 -0.0792
  415MOL0     H57232   5.222   6.381  10.966 -0.3820  1.1849  0.1489
  415MOL0     H57233   5.397   6.560  11.062 -2.2706 -0.4728  2.9728
  415MOL0     H57234   5.453   6.890  10.826 -1.3711 -1.6556  0.9314
  415MOL0     H57235   5.327   6.978  10.901 -3.0715 -3.4634  3.7152
  415MOL0     H57236   5.544   7.104  10.961  0.7198  0.1129  1.1131
  415MOL0     H57237   5.495   7.027  11.105  2.7674  0.0404  0.6100
  415MOL0     H57238   5.647   6.825  11.031 -0.3910  1.1248  1.9498
  415MOL0     H57239   5.732   6.970  11.078  2.2196 -1.3715 -0.9150
  415MOL0     H57240   5.720   7.027  10.813  2.1401 -0.1321 -1.0784
  415MOL0     H57241   5.673   6.857  10.804  1.5080  1.6441 -3.5271
  415MOL0     H57242   5.920   6.882  10.765  1.7201 -0.0603  0.8848
  415MOL0     H57243   5.933   6.982  10.908  0.1779  0.1646 -0.0215
  415MOL0     H57244   5.877   6.673  10.884 -1.9459  0.1834  1.2445
  415MOL0     H57245   5.867   6.764  11.036  1.7380 -2.5709  1.4862
  415MOL0     H57246   6.109   6.845  11.017 -1.4344 -0.1148  1.1385
  415MOL0     H57247   6.114   6.760  10.862  3.1753 -0.5550  1.6959
  415MOL0     H57248   6.085   6.543  10.978 -0.5777  0.1783 -0.3485
  415MOL0     H57249   6.093   6.631  11.138  1.2312 -2.0286  0.2469
  415MOL0     H57250   5.185   6.848  10.836  0.8537  0.7707  0.2888
  415MOL0     H57251   5.027   6.695  10.750  1.3907 -0.7149 -1.8997
  415MOL0     H57252   4.634   6.451  10.897  0.8484  0.8128 -0.4988
  415MOL0     H57253   4.466   6.254  10.886  0.0594 -0.1532  1.1513
  415MOL0     H57254   3.379   5.539   9.597  1.3116  1.2892  0.9028
  415MOL0     H57255   3.215   5.679   9.437 -0.9169  1.4537 -3.8674
  415MOL0     H57256   3.087   5.922   9.158 -0.1552 -0.5138  1.2000
  415MOL0     H57257   2.962   6.055   9.006  2.1165  1.9138 -0.3452
  415MOL0     H57258   2.920   6.161   8.820 -0.7459 -0.3177  1.7634
  415MOL0     H57259   2.859   6.159   8.657 -3.3117 -3.3729 -1.9533
  415MOL0     H57260   2.716   6.255   8.836 -0.3426  0.1430 -1.9636
  415MOL0     H57261   2.696   6.082   8.904  0.6584 -2.1466 -0.8036
  415MOL0     H57262   2.602   6.017   8.682 -5.2517 -0.6924 -0.3252
  415MOL0     H57263   2.501   6.113   8.789 -1.3495  2.0574 -2.3081
  415MOL0     H57264   2.476   6.196   8.567 -0.0815 -0.0854 -0.0702
  415MOL0     H57265   2.646   6.224   8.541  0.9098  1.9621  0.7775
  415MOL0     H57266   2.490   6.568   8.734 -2.9648 -2.1702  2.1221
  415MOL0     H57267   2.977   5.732   8.710 -0.9199 -1.2918  0.6339
  415MOL0     H57268   3.183   5.600   8.710  2.5102  0.2902  0.2323
  415MOL0     H57269   3.303   5.624   8.828  0.8747 -1.3984  1.8731
  415MOL0     H57270   3.173   5.505   8.863  1.5600 -0.4296  0.9114
  416MOL0     O57271   5.144   5.088   6.754 -0.5216 -0.0454  0.4932
  416MOL0     C57272   5.045   5.115   6.817  0.8403 -0.4209 -0.9481
  416MOL0     O57273   5.033   5.226   6.917 -0.5397  0.2691  0.6068
  416MOL0     C57274   5.158   5.252   6.966  0.3682 -0.5266  0.5692
  416MOL0     C57275   5.213   5.381   6.950 -0.2814  0.6084  1.0912
  416MOL0     C57276   5.336   5.422   7.007  0.3097 -0.5557 -0.1606
  416MOL0     C57277   5.418   5.325   7.069  0.1344 -0.0962  0.4700
  416MOL0     O57278   5.543   5.339   7.115 -0.1116 -0.4885 -0.2396
  416MOL0     C57279   5.590   5.477   7.107 -0.4607 -0.0228 -0.5318
  416MOL0     C57280   5.709   5.491   7.198 -0.3253  0.1570  0.0559
  416MOL0     C57281   5.811   5.387   7.165  0.0152 -0.0102 -0.2714
  416MOL0     C57282   5.932   5.382   7.266 -0.8753 -0.2783 -0.9183
  416MOL0     C57283   6.034   5.499   7.252  0.3172  0.9526  0.1658
  416MOL0     C57284   6.169   5.478   7.317  0.7971 -0.7114  0.1661
  416MOL0     C57285   6.274   5.585   7.275  0.4669 -0.0453  0.3738
  416MOL0     C57286   6.391   5.579   7.359 -0.5943 -0.6759 -0.2892
  416MOL0     N57287   6.481   5.683   7.308  0.3332  0.7125 -0.0284
  416MOL0     C57288   6.449   5.812   7.281 -0.6301 -0.2189  0.0391
  416MOL0     C57289   6.571   5.857   7.236  0.0761 -0.2581 -0.0298
  416MOL0     C57290   6.602   5.996   7.197  0.5174 -0.9802 -0.0925
  416MOL0     C57291   6.754   6.023   7.207  0.0908 -0.0638 -1.4699
  416MOL0     C57292   6.786   6.169   7.237  0.9649  0.3276 -0.5738
  416MOL0     C57293   6.931   6.208   7.269  0.5418 -0.6690 -0.7790
  416MOL0     O57294   7.001   6.222   7.144  0.2794 -0.2597 -0.7230
  416MOL0     C57295   7.140   6.220   7.162  0.1539  0.6323 -0.1632
  416MOL0     C57296   7.207   6.253   7.282  0.2108 -0.3561  0.2677
  416MOL0     C57297   7.349   6.269   7.286 -0.6901 -1.0356 -0.5458
  416MOL0     C57298   7.407   6.310   7.423 -0.5079 -0.2987 -0.0084
  416MOL0     C57299   7.435   6.243   7.174 -0.0259 -1.1324 -0.8322
  416MOL0     C57300   7.582   6.249   7.177 -0.2019  0.5707  0.0371
  416MOL0     O57301   7.644   6.303   7.290  0.0853  0.7879 -0.7764
  416MOL0     C57302   7.756   6.368   7.295 -1.1419 -0.1022  1.3265
  416MOL0     C57303   7.825   6.430   7.181 -0.2383 -0.3602 -0.6985
  416MOL0     C57304   7.938   6.505   7.185  0.1997 -0.8622  0.4677
  416MOL0     C57305   8.007   6.513   7.302  0.0368 -0.5788  0.2364
  416MOL0     O57306   8.118   6.595   7.300 -0.5203  0.1675  0.3962
  416MOL0     C57307   8.221   6.587   7.399  0.6126  0.6272  0.1841
  416MOL0     C57308   8.257   6.718   7.474  0.8486 -0.2180 -0.2184
  416MOL0     C57309   8.299   6.833   7.391  0.3511 -1.0228  0.4056
  416MOL0     C57310   8.440   6.827   7.348 -0.6866 -0.6542  0.9445
  416MOL0     C57311   8.479   6.943   7.264  0.2381 -0.1956  0.1143
  416MOL0     C57312   8.450   7.080   7.333  0.7365 -1.4181  0.2260
  416MOL0     C57313   8.511   7.199   7.260  0.3002 -0.3742  0.3777
  416MOL0     C57314   8.521   7.326   7.335 -0.4069 -0.6271 -0.4042
  416MOL0    Cl57315   8.620   7.302   7.493 -0.2597 -0.2842 -0.1368
  416MOL0     C57316   7.956   6.449   7.418 -0.5473  0.6777 -0.6895
  416MOL0     C57317   7.836   6.383   7.408 -0.4253  0.5402  0.3599
  416MOL0     O57318   7.638   6.188   7.077 -0.4844 -0.0436  0.4951
  416MOL0     C57319   7.357   6.210   7.063 -0.2351 -0.3000  0.8737
  416MOL0     C57320   7.225   6.195   7.056  1.1610  0.7888  0.2866
  416MOL0     N57321   6.671   5.758   7.249  0.1448 -0.4903 -0.1807
  416MOL0     N57322   6.612   5.651   7.283  1.1431 -0.3068 -0.7543
  416MOL0     C57323   5.369   5.199   7.066 -0.1935 -0.5566  0.3508
  416MOL0     C57324   5.238   5.163   7.026 -0.5027  0.2623  0.0298
  416MOL0     C57325   4.920   5.029   6.812 -0.9206  1.0135  0.0278
  416MOL0     C57326   4.801   5.068   6.864  0.2319 -0.4797 -0.5937
  416MOL0     C57327   4.688   4.983   6.867 -0.3773 -0.3159 -0.1103
  416MOL0     C57328   4.680   4.861   6.805 -0.3920 -0.4093 -0.1901
  416MOL0     O57329   4.564   4.784   6.797 -0.8110  0.4483 -0.3610
  416MOL0     C57330   4.568   4.649   6.757 -0.0533  0.3435 -0.0006
  416MOL0     C57331   4.431   4.589   6.782 -0.0968 -0.8156 -0.6702
  416MOL0     C57332   4.428   4.440   6.735 -0.4673 -1.2194  0.0627
  416MOL0     C57333   4.290   4.383   6.768 -0.5771 -0.1619  0.4253
  416MOL0     C57334   4.282   4.334   6.910  0.2110  0.4292  0.4003
  416MOL0     C57335   4.301   4.297   7.020 -0.7729 -0.3472  0.0953
  416MOL0     C57336   4.802   4.816   6.753 -0.0048 -0.1908 -0.7947
  416MOL0     C57337   4.918   4.895   6.758  0.4537 -0.0511 -0.3127
  416MOL0     C57338   5.035   4.824   6.698  0.0421  0.1996  0.5733
  416MOL0     H57339   5.148   5.450   6.898  0.3196  1.1711  1.0864
  416MOL0     H57340   5.361   5.525   6.982  0.5803 -0.1150  1.7649
  416MOL0     H57341   5.521   5.549   7.149  0.4891 -0.3130  1.6591
  416MOL0     H57342   5.621   5.497   7.004 -1.7523 -3.2972 -1.6797
  416MOL0     H57343   5.762   5.583   7.173  2.1641 -1.0590  0.5930
  416MOL0     H57344   5.667   5.486   7.299 -1.3249  1.7926 -0.2366
  416MOL0     H57345   5.755   5.293   7.176 -1.8677  1.0355 -0.6122
  416MOL0     H57346   5.853   5.407   7.066  1.9985  1.2270  0.7639
  416MOL0     H57347   5.901   5.377   7.371  1.8033 -2.0821 -0.0832
  416MOL0     H57348   5.971   5.280   7.251 -1.7949 -1.1378  1.8573
  416MOL0     H57349   6.000   5.597   7.286 -0.4440  0.8320 -0.2289
  416MOL0     H57350   6.049   5.497   7.144 -2.4227 -3.5278 -0.3885
  416MOL0     H57351   6.156   5.513   7.420  1.0388 -0.3285  0.0685
  416MOL0     H57352   6.200   5.373   7.314 -6.7669 -3.6044  0.4942
  416MOL0     H57353   6.222   5.681   7.283 -0.1859  0.2254 -4.3499
  416MOL0     H57354   6.292   5.577   7.167 -0.3886  1.8107  0.0579
  416MOL0     H57355   6.360   5.592   7.463 -1.3576  2.0767 -0.7536
  416MOL0     H57356   6.438   5.481   7.350 -0.3482 -0.6085  0.2083
  416MOL0     H57357   6.363   5.878   7.292 -0.5832  0.2029 -1.7727
  416MOL0     H57358   6.533   6.063   7.250  1.5544 -0.5964  0.8004
  416MOL0     H57359   6.577   6.004   7.091  0.4212 -1.0379 -0.0747
  416MOL0     H57360   6.785   5.972   7.299 -1.4890  0.6078 -0.5255
  416MOL0     H57361   6.811   5.980   7.124  0.7966 -1.0231 -0.5154
  416MOL0     H57362   6.754   6.229   7.151  1.6735  3.7460  1.3777
  416MOL0     H57363   6.716   6.203   7.314 -2.1753 -2.2644 -2.0111
  416MOL0     H57364   6.926   6.298   7.330  1.1145 -2.0749  1.4571
  416MOL0     H57365   6.983   6.127   7.321  1.9148  1.8774  2.1069
  416MOL0     H57366   7.144   6.275   7.367 -0.2873 -2.1651  0.4235
  416MOL0     H57367   7.467   6.234   7.475 -0.5484 -0.8697 -0.7870
  416MOL0     H57368   7.318   6.329   7.484 -0.5866  1.7814 -0.6951
  416MOL0     H57369   7.465   6.403   7.413 -0.1112 -0.5947 -0.4670
  416MOL0     H57370   7.773   6.421   7.086  1.9866 -1.2457 -1.9083
  416MOL0     H57371   7.963   6.555   7.092  1.9396  0.6771  1.6720
  416MOL0     H57372   8.203   6.512   7.477  1.2549  0.3798  0.0981
  416MOL0     H57373   8.311   6.565   7.340 -0.2223  1.1895 -1.3454
  416MOL0     H57374   8.177   6.740   7.546  2.9727  1.0633  1.8875
  416MOL0     H57375   8.344   6.691   7.533 -0.5063 -2.3884  0.9111
  416MOL0     H57376   8.302   6.925   7.449  1.9444 -0.9641  0.2584
  416MOL0     H57377   8.243   6.845   7.297 -0.5563  1.0983  1.1510
  416MOL0     H57378   8.456   6.734   7.293  1.4525 -0.7689  1.6498
  416MOL0     H57379   8.503   6.830   7.438  0.6265  0.5075  0.0397
  416MOL0     H57380   8.585   6.937   7.235 -0.3067 -0.6585 -1.8733
  416MOL0     H57381   8.428   6.945   7.168  3.0962  0.5102 -1.5195
  416MOL0     H57382   8.479   7.079   7.439  5.2205 -1.0797 -0.8047
  416MOL0     H57383   8.342   7.097   7.336  0.7737 -0.4403 -2.0291
  416MOL0     H57384   8.453   7.215   7.169  0.7719  0.1990  0.1680
  416MOL0     H57385   8.612   7.175   7.226  0.3203  0.4831 -0.1921
  416MOL0     H57386   8.423   7.366   7.362 -0.1936 -1.4176  1.7267
  416MOL0     H57387   8.571   7.389   7.261 -1.8795  1.4908  0.3219
  416MOL0     H57388   8.005   6.451   7.515 -0.8167 -1.0276 -0.4898
  416MOL0     H57389   7.801   6.331   7.496 -3.3227 -0.0327 -0.9982
  416MOL0     H57390   7.402   6.190   6.966  2.7691 -0.1630  2.1053
  416MOL0     H57391   7.179   6.180   6.958  0.4250  0.0865  0.7284
  416MOL0     H57392   5.430   5.113   7.094 -1.4567 -2.0076 -1.1079
  416MOL0     H57393   5.211   5.059   7.040  4.3132 -1.0305  1.8668
  416MOL0     H57394   4.806   5.167   6.907  0.6076 -1.8148  2.7317
  416MOL0     H57395   4.598   5.023   6.913  1.0957  0.8316  1.9545
  416MOL0     H57396   4.581   4.646   6.649  0.6697 -1.4720  0.0998
  416MOL0     H57397   4.649   4.596   6.808  0.4730 -0.8423 -1.9517
  416MOL0     H57398   4.353   4.639   6.723  1.3167  1.3863 -0.7942
  416MOL0     H57399   4.393   4.591   6.884 -1.6316  0.0863 -1.2199
  416MOL0     H57400   4.441   4.436   6.627 -1.7055 -0.2681 -0.1331
  416MOL0     H57401   4.509   4.399   6.797 -1.6697  0.7560  3.2252
  416MOL0     H57402   4.274   4.303   6.695  0.4881  0.9026 -1.0281
  416MOL0     H57403   4.213   4.459   6.750 -2.1192 -1.8189 -0.3017
  416MOL0     H57404   4.293   4.250   7.115 -3.0354  0.0925  0.1889
  416MOL0     H57405   4.805   4.726   6.692 -1.9204  0.5482 -2.0778
  416MOL0     H57406   5.079   4.877   6.613  2.1694  2.6443  2.9970
  416MOL0     H57407   5.118   4.815   6.769  0.4834  3.3513  0.6047
  416MOL0     H57408   5.014   4.721   6.668 -0.1262  0.5781 -0.6267
  417MOL0     O57409   8.288   2.634   1.572  0.2049  0.3268  0.4346
  417MOL0     C57410   8.252   2.748   1.599  0.7647  0.6435 -0.5075
  417MOL0     O57411   8.321   2.838   1.674  0.0517  0.5037  0.0936
  417MOL0     C57412   8.443   2.811   1.724 -1.0081  0.4467  0.1193
  417MOL0     C57413   8.470   2.849   1.856  0.2797 -1.0753  0.0273
  417MOL0     C57414   8.595   2.864   1.907 -0.4519 -0.0859 -0.3470
  417MOL0     C57415   8.703   2.823   1.827 -0.6617  0.1269 -0.4285
  417MOL0     O57416   8.838   2.835   1.861  0.0499 -0.3312 -0.2364
  417MOL0     C57417   8.878   2.915   1.971  1.1938  0.5987 -0.1029
  417MOL0     C57418   9.023   2.928   1.968  0.1536 -0.3220  0.6798
  417MOL0     C57419   9.085   3.045   2.054  0.2030  0.4706 -0.0594
  417MOL0     C57420   9.231   3.059   2.026 -0.3938  0.1999 -0.3522
  417MOL0     C57421   9.298   3.146   2.121 -0.2593 -0.3735  0.4594
  417MOL0     C57422   9.450   3.151   2.105 -0.1380  0.2840 -0.2245
  417MOL0     C57423   9.486   3.208   1.964 -0.7519  0.6610  0.1253
  417MOL0     C57424   9.638   3.220   1.942 -0.4255 -0.4049  0.2157
  417MOL0     N57425   9.703   3.331   2.010 -0.1625  0.4514  0.7352
  417MOL0     C57426   9.655   3.457   1.999  0.0407  0.7572 -0.1488
  417MOL0     C57427   9.748   3.537   2.051  0.1743  0.4564  0.2881
  417MOL0     C57428   9.743   3.682   2.082 -0.0242  0.2841  0.2380
  417MOL0     C57429   9.626   3.715   2.176  0.0461  0.0971 -0.1999
  417MOL0     C57430   9.614   3.868   2.195  1.2489 -0.2500 -0.6463
  417MOL0     C57431   9.477   3.902   2.253 -0.6125  0.0510 -0.5402
  417MOL0     O57432   9.450   4.037   2.260 -0.2953 -0.1482 -0.2346
  417MOL0     C57433   9.316   4.074   2.254 -0.0887  0.2109 -0.4063
  417MOL0     C57434   9.296   4.210   2.216  0.1518  0.9554  0.7529
  417MOL0     C57435   9.170   4.271   2.211  0.2182 -0.2727  0.0587
  417MOL0     C57436   9.146   4.404   2.148 -0.1008  0.0566 -0.3636
  417MOL0     C57437   9.058   4.195   2.251 -0.9135  0.6673  0.4532
  417MOL0     C57438   8.915   4.244   2.246  0.1352 -0.4832 -0.0097
  417MOL0     O57439   8.897   4.369   2.291  0.1179 -0.0908 -0.0334
  417MOL0     C57440   8.770   4.429   2.303 -0.2525 -0.4951 -0.0088
  417MOL0     C57441   8.662   4.362   2.351 -0.8950  0.2076  0.4762
  417MOL0     C57442   8.539   4.424   2.371  0.1182 -0.0936 -0.0961
  417MOL0     C57443   8.522   4.563   2.347  0.1089 -0.4091 -0.0498
  417MOL0     O57444   8.409   4.637   2.350  0.0820  0.5569  0.5362
  417MOL0     C57445   8.279   4.569   2.378 -0.7403  0.2171  0.2893
  417MOL0     C57446   8.164   4.652   2.324  0.8640  0.5831  0.3370
  417MOL0     C57447   8.133   4.786   2.386 -0.7966 -0.4511 -0.2326
  417MOL0     C57448   8.003   4.840   2.324 -0.1360 -0.4052 -0.1759
  417MOL0     C57449   7.976   4.983   2.384  1.1239  0.2762 -0.3107
  417MOL0     C57450   7.865   5.075   2.329  0.3360 -0.0620 -0.7205
  417MOL0     C57451   7.745   4.996   2.273  0.7022  0.1768  0.9855
  417MOL0     C57452   7.624   5.085   2.263 -0.0866 -0.4454  0.5864
  417MOL0    Cl57453   7.655   5.206   2.142  0.6670 -0.3177  0.5042
  417MOL0     C57454   8.634   4.630   2.292  0.7080 -0.0983 -0.2817
  417MOL0     C57455   8.752   4.564   2.279 -0.0835  0.4954 -0.4201
  417MOL0     O57456   8.821   4.174   2.205  0.0964 -0.2720  0.2375
  417MOL0     C57457   9.082   4.062   2.299 -0.0562 -0.3566  0.2701
  417MOL0     C57458   9.211   4.004   2.297  0.2886  0.6193 -0.0247
  417MOL0     N57459   9.853   3.455   2.097  0.5917 -0.4602 -0.6227
  417MOL0     N57460   9.813   3.335   2.079 -0.1900  0.1892 -0.9385
  417MOL0     C57461   8.671   2.762   1.704  0.0948 -0.7613  0.3360
  417MOL0     C57462   8.542   2.759   1.647  0.1911 -0.0473 -0.3170
  417MOL0     C57463   8.113   2.782   1.548  0.4662 -0.2204  0.1682
  417MOL0     C57464   8.047   2.891   1.617 -0.2050  1.1101  0.3759
  417MOL0     C57465   7.926   2.939   1.581  1.3466  0.1620  0.0584
  417MOL0     C57466   7.861   2.894   1.466 -0.4619  0.4161 -0.1362
  417MOL0     O57467   7.748   2.938   1.414 -0.2519 -0.3220 -0.3290
  417MOL0     C57468   7.686   3.058   1.469  0.2485 -0.7044 -0.5182
  417MOL0     C57469   7.557   3.082   1.371 -0.0665  0.7437 -0.4105
  417MOL0     C57470   7.466   2.960   1.372 -0.7158  0.9021 -0.8686
  417MOL0     C57471   7.389   2.963   1.506  0.1929  0.3599 -1.4630
  417MOL0     C57472   7.281   3.066   1.515 -0.7725  0.1148  0.6493
  417MOL0     C57473   7.202   3.154   1.521 -0.2341  0.9409  0.3667
  417MOL0     C57474   7.920   2.795   1.394  0.3049  0.0245 -0.2124
  417MOL0     C57475   8.047   2.732   1.435 -0.5508  0.8171  1.0725
  417MOL0     C57476   8.111   2.621   1.354  0.7997  0.1472  0.3129
  417MOL0     H57477   8.383   2.890   1.907 -0.3659  0.0768 -1.8727
  417MOL0     H57478   8.606   2.926   1.995 -0.4306  1.5412 -1.4399
  417MOL0     H57479   8.854   2.865   2.065  1.4695  1.7601  0.5978
  417MOL0     H57480   8.834   3.015   1.969  1.6321  0.8112  0.6874
  417MOL0     H57481   9.077   2.836   1.994  1.7440  0.3092 -0.2990
  417MOL0     H57482   9.042   2.954   1.864 -0.1804 -0.9808  0.4443
  417MOL0     H57483   9.032   3.138   2.030 -1.3537 -0.4086 -0.1384
  417MOL0     H57484   9.066   3.015   2.158  0.7220 -1.4458 -0.4851
  417MOL0     H57485   9.280   2.965   2.000 -1.9927 -0.0822 -2.6861
  417MOL0     H57486   9.230   3.115   1.931 -1.3669  0.2878 -0.3016
  417MOL0     H57487   9.268   3.106   2.219 -0.3543 -2.1604 -0.2569
  417MOL0     H57488   9.263   3.249   2.119 -3.3821 -1.3235  0.6478
  417MOL0     H57489   9.489   3.218   2.183 -1.8038 -1.3719  2.1536
  417MOL0     H57490   9.502   3.056   2.115  0.7941  0.7462 -0.5739
  417MOL0     H57491   9.434   3.305   1.961 -2.2197 -0.0144  1.7979
  417MOL0     H57492   9.440   3.138   1.894  1.1062 -1.4711  0.9313
  417MOL0     H57493   9.694   3.128   1.962 -0.0610 -0.8409 -2.3731
  417MOL0     H57494   9.644   3.230   1.833  0.2607  2.4287  0.4277
  417MOL0     H57495   9.568   3.489   1.942 -1.9473  2.4034  3.4437
  417MOL0     H57496   9.734   3.731   1.985  0.6880 -0.4974 -0.2372
  417MOL0     H57497   9.838   3.701   2.134  0.9410  0.4620 -1.5112
  417MOL0     H57498   9.538   3.671   2.129  0.0329  0.5697 -0.6227
  417MOL0     H57499   9.648   3.666   2.271 -4.1332  0.9366  1.4001
  417MOL0     H57500   9.700   3.904   2.252  0.5979  1.6388 -0.8007
  417MOL0     H57501   9.628   3.911   2.095  1.5999 -1.8809 -1.3407
  417MOL0     H57502   9.408   3.854   2.182 -1.4894 -1.0988  1.0389
  417MOL0     H57503   9.479   3.858   2.353  0.8659 -0.5924 -0.8331
  417MOL0     H57504   9.387   4.253   2.178  0.0770 -1.5801 -2.8319
  417MOL0     H57505   9.075   4.393   2.066 -0.4734  1.6475 -0.2826
  417MOL0     H57506   9.240   4.454   2.122 -0.9643  1.1883 -1.4204
  417MOL0     H57507   9.094   4.457   2.228  0.3368  1.8260 -1.2036
  417MOL0     H57508   8.669   4.261   2.391 -2.9542  1.1045  3.4068
  417MOL0     H57509   8.455   4.366   2.406 -0.5979  0.3506 -1.0250
  417MOL0     H57510   8.278   4.478   2.316 -0.1526  1.0929 -1.0586
  417MOL0     H57511   8.272   4.551   2.486 -2.9342  2.0046  0.5215
  417MOL0     H57512   8.182   4.667   2.217 -4.5089 -0.3016 -0.9822
  417MOL0     H57513   8.075   4.588   2.326  0.5248  1.0174  3.3346
  417MOL0     H57514   8.220   4.852   2.384  0.7696 -2.4128 -0.2076
  417MOL0     H57515   8.120   4.767   2.493  1.7735  1.8668  0.6107
  417MOL0     H57516   7.919   4.778   2.356 -1.2167  0.8656 -0.4301
  417MOL0     H57517   8.002   4.837   2.215  1.6221 -1.3297 -0.1982
  417MOL0     H57518   7.968   4.971   2.492 -0.6354  1.0439 -0.3206
  417MOL0     H57519   8.070   5.034   2.360  1.0728  0.4956 -0.0474
  417MOL0     H57520   7.904   5.125   2.240  0.8679 -1.3231 -1.2253
  417MOL0     H57521   7.838   5.145   2.408  0.3893 -0.0763 -0.6901
  417MOL0     H57522   7.714   4.930   2.354 -1.2632 -0.8510 -0.5077
  417MOL0     H57523   7.762   4.938   2.182  1.4119  1.3984  0.3052
  417MOL0     H57524   7.596   5.138   2.354 -1.3919  1.7746 -0.9777
  417MOL0     H57525   7.539   5.031   2.222  1.5915 -3.1002  0.3372
  417MOL0     H57526   8.635   4.736   2.270 -1.5697 -0.2690 -1.5146
  417MOL0     H57527   8.839   4.611   2.235  0.2500  0.3233  0.0411
  417MOL0     H57528   8.989   4.019   2.334 -1.1499  0.3270 -1.6498
  417MOL0     H57529   9.219   3.905   2.341  0.7036 -0.3091 -2.0891
  417MOL0     H57530   8.756   2.730   1.644  1.9603  2.0761  1.3100
  417MOL0     H57531   8.520   2.724   1.547 -1.7724  0.8839 -0.2422
  417MOL0     H57532   8.103   2.934   1.700 -2.0242  2.8414  0.7935
  417MOL0     H57533   7.887   3.024   1.636  2.8284  1.1140 -0.3102
  417MOL0     H57534   7.658   3.038   1.573  0.8680 -2.1713 -0.5969
  417MOL0     H57535   7.756   3.142   1.469  4.2594 -3.6810 -1.5946
  417MOL0     H57536   7.582   3.114   1.269 -0.5681 -0.6895 -1.0035
  417MOL0     H57537   7.504   3.166   1.416  0.2933 -0.3075  2.1325
  417MOL0     H57538   7.395   2.968   1.289 -1.1172  3.2983 -0.3614
  417MOL0     H57539   7.519   2.866   1.350  0.3718  1.1081  0.7508
  417MOL0     H57540   7.445   2.968   1.600 -2.6088 -2.4854  0.5804
  417MOL0     H57541   7.338   2.867   1.517 -2.2399  1.6829 -0.2556
  417MOL0     H57542   7.124   3.226   1.503 -2.0015 -1.3613 -1.9486
  417MOL0     H57543   7.878   2.759   1.301  1.4689 -4.1260  0.6374
  417MOL0     H57544   8.033   2.586   1.286  2.4320 -2.2381 -0.4648
  417MOL0     H57545   8.179   2.662   1.278  0.9135 -0.4265  0.1025
  417MOL0     H57546   8.139   2.532   1.411 -0.6810 -1.9130 -1.9733
  418MOL0     O57547   5.092  11.372   5.030 -0.4219 -0.2252  0.3058
  418MOL0     C57548   5.036  11.427   4.931 -0.5350  0.2481 -0.2547
  418MOL0     O57549   5.052  11.553   4.881  0.4951  0.5935 -0.2575
  418MOL0     C57550   5.155  11.634   4.923  0.7010  0.2500 -0.0421
  418MOL0     C57551   5.290  11.597   4.921 -0.7970 -0.0163  0.1088
  418MOL0     C57552   5.389  11.693   4.956  0.3318 -0.9398  0.0078
  418MOL0     C57553   5.349  11.819   5.014  0.7563  0.1365  0.2179
  418MOL0     O57554   5.435  11.908   5.065 -0.2871  0.0849  0.0798
  418MOL0     C57555   5.561  11.863   5.130  0.6391 -0.1636 -0.5614
  418MOL0     C57556   5.610  11.986   5.200 -0.2306 -0.6273  0.1917
  418MOL0     C57557   5.754  11.968   5.239 -0.3114  0.5045  0.0607
  418MOL0     C57558   5.794  12.092   5.330  0.1652 -0.7818 -0.0182
  418MOL0     C57559   5.934  12.078   5.367  0.0401 -0.5362 -0.5505
  418MOL0     C57560   5.978  12.225   5.428  0.2240 -0.1118  1.0039
  418MOL0     C57561   6.132  12.237   5.431 -0.3179 -0.4211  0.1763
  418MOL0     C57562   6.184  12.373   5.482  0.1960 -0.6639 -0.3096
  418MOL0     N57563   6.329  12.379   5.458  0.8544  0.6077 -0.1212
  418MOL0     C57564   6.426  12.342   5.550 -0.7409 -0.3941 -0.1638
  418MOL0     C57565   6.542  12.397   5.506 -1.2708  0.2732 -0.0193
  418MOL0     C57566   6.676  12.384   5.574  0.0869 -0.3812 -0.2965
  418MOL0     C57567   6.670  12.449   5.718 -0.1614  0.1609 -0.0471
  418MOL0     C57568   6.811  12.454   5.782  0.9271  0.1318  1.6219
  418MOL0     C57569   6.811  12.529   5.907  0.5320  0.9852  0.3322
  418MOL0     O57570   6.939  12.555   5.962 -0.3855  0.3869 -0.0064
  418MOL0     C57571   7.036  12.631   5.901  0.5445 -0.1411  0.5219
  418MOL0     C57572   7.164  12.639   5.964 -0.6128  0.6386  0.0806
  418MOL0     C57573   7.258  12.723   5.919 -0.8402  0.3761  0.2489
  418MOL0     C57574   7.402  12.690   5.972 -0.4000  0.5330  1.1251
  418MOL0     C57575   7.231  12.822   5.829 -0.0944 -0.5720  0.9786
  418MOL0     C57576   7.323  12.940   5.791 -0.2157 -0.4234  0.6461
  418MOL0     O57577   7.286  13.027   5.691  0.4823  0.0155 -0.0337
  418MOL0     C57578   7.378  13.128   5.663  0.1934  0.3372 -0.4169
  418MOL0     C57579   7.480  13.099   5.570 -0.4942  0.3010  0.2848
  418MOL0     C57580   7.579  13.202   5.551  0.1895  0.0828  0.3821
  418MOL0     C57581   7.593  13.314   5.629  0.0365  0.0166  0.0711
  418MOL0     O57582   7.702  13.402   5.604 -0.1666  0.1130 -0.5234
  418MOL0     C57583   7.717  13.517   5.691 -0.2714  0.1970 -0.9642
  418MOL0     C57584   7.841  13.601   5.661  0.1337 -0.6313  0.2387
  418MOL0     C57585   7.831  13.654   5.507 -1.1657 -0.7402 -1.2736
  418MOL0     C57586   7.954  13.738   5.474 -0.0481 -0.3348  0.2956
  418MOL0     C57587   7.930  13.809   5.338  0.1273 -0.2099 -0.1721
  418MOL0     C57588   8.047  13.904   5.301  0.4985 -0.0476  0.1291
  418MOL0     C57589   8.024  13.945   5.149 -0.3379 -0.1671 -0.1422
  418MOL0     C57590   8.146  13.980   5.070 -0.2997  0.0358 -0.2118
  418MOL0    Cl57591   8.098  13.953   4.908  0.2197 -0.6989 -0.4527
  418MOL0     C57592   7.492  13.335   5.724  0.6345  0.2168  0.1779
  418MOL0     C57593   7.386  13.243   5.736  0.1908  0.2264  0.1517
  418MOL0     O57594   7.418  12.956   5.871  0.1064 -0.4852 -0.1884
  418MOL0     C57595   7.102  12.829   5.777  1.0839 -0.7976 -0.7404
  418MOL0     C57596   7.004  12.740   5.811 -0.7173  0.0206  0.6681
  418MOL0     N57597   6.506  12.485   5.403  0.6035  0.2287  0.0407
  418MOL0     N57598   6.385  12.458   5.362  1.6389 -0.4326  0.2009
  418MOL0     C57599   5.216  11.846   5.015 -0.1212 -0.2916  1.4306
  418MOL0     C57600   5.119  11.756   4.963 -1.1618  0.0528 -0.2001
  418MOL0     C57601   4.924  11.344   4.881  0.1216 -0.3729 -0.1277
  418MOL0     C57602   4.819  11.316   4.969 -0.9669  0.7979  0.8033
  418MOL0     C57603   4.714  11.237   4.933  0.5355 -0.3440  0.1801
  418MOL0     C57604   4.709  11.193   4.804  0.4160  0.3232  0.4146
  418MOL0     O57605   4.616  11.107   4.751  0.6657  0.5024 -0.8793
  418MOL0     C57606   4.514  11.060   4.842 -0.4457 -0.8531 -0.1416
  418MOL0     C57607   4.423  10.966   4.768  0.4534  0.4811  0.3190
  418MOL0     C57608   4.345  11.037   4.666  0.0793  0.1821 -0.6397
  418MOL0     C57609   4.254  10.932   4.623 -0.0847  0.9178  1.0829
  418MOL0     C57610   4.166  10.969   4.512 -0.6282 -0.2615 -0.2464
  418MOL0     C57611   4.101  11.018   4.424  0.0567  0.7772 -0.5400
  418MOL0     C57612   4.801  11.224   4.708  0.0783 -0.6208  0.0521
  418MOL0     C57613   4.913  11.299   4.747  0.0059  0.5480 -0.6624
  418MOL0     C57614   5.020  11.318   4.647 -0.2138  0.6774 -0.8478
  418MOL0     H57615   5.327  11.500   4.890  0.7833 -0.3552  2.7496
  418MOL0     H57616   5.493  11.665   4.945  0.5295  0.0345 -0.6435
  418MOL0     H57617   5.624  11.843   5.042  0.6038  0.3012 -0.6947
  418MOL0     H57618   5.548  11.769   5.184  1.8361 -1.8634 -3.0193
  418MOL0     H57619   5.599  12.076   5.138  1.2057 -0.4296  0.1888
  418MOL0     H57620   5.536  12.001   5.280 -1.4050  1.2654 -1.1718
  418MOL0     H57621   5.766  11.875   5.294  0.5648 -0.5470 -1.7921
  418MOL0     H57622   5.811  11.954   5.147 -0.9488  0.5333 -0.3491
  418MOL0     H57623   5.785  12.177   5.262  0.7371  1.4174  2.5201
  418MOL0     H57624   5.731  12.112   5.417  0.0557  1.3985 -0.5604
  418MOL0     H57625   5.995  12.057   5.279 -1.5455  2.0854 -2.4023
  418MOL0     H57626   5.950  11.994   5.435  0.2832 -0.4528 -0.5061
  418MOL0     H57627   5.939  12.309   5.370 -0.0395 -0.1966  1.0582
  418MOL0     H57628   5.949  12.243   5.532  3.2518  1.0913  1.7713
  418MOL0     H57629   6.163  12.244   5.326 -2.8916  0.9199 -0.5861
  418MOL0     H57630   6.191  12.160   5.482 -1.9405 -1.6790  0.2660
  418MOL0     H57631   6.133  12.454   5.429 -1.7586  0.8039  3.4574
  418MOL0     H57632   6.153  12.389   5.585 -0.7029 -0.5742 -0.5886
  418MOL0     H57633   6.427  12.277   5.636 -0.6815  0.2888  0.3617
  418MOL0     H57634   6.755  12.435   5.517  2.3344  0.9032  3.5664
  418MOL0     H57635   6.696  12.277   5.574 -2.7439 -0.9954 -1.4155
  418MOL0     H57636   6.630  12.550   5.709  1.7837  1.1777  1.8291
  418MOL0     H57637   6.599  12.389   5.775 -0.3030  0.0637 -0.3205
  418MOL0     H57638   6.841  12.351   5.807  0.2246 -2.1313 -4.8531
  418MOL0     H57639   6.883  12.505   5.717 -1.3812  2.8748  1.0331
  418MOL0     H57640   6.765  12.626   5.884 -1.4628 -0.3566 -1.8103
  418MOL0     H57641   6.743  12.475   5.973  0.4977  1.2789  0.5397
  418MOL0     H57642   7.193  12.573   6.045 -1.7569 -1.5512 -1.1876
  418MOL0     H57643   7.430  12.752   6.057  0.8377  2.2712 -0.4640
  418MOL0     H57644   7.475  12.725   5.899 -2.4403  4.0870  0.5682
  418MOL0     H57645   7.422  12.585   5.996 -1.0699  0.7429  2.6778
  418MOL0     H57646   7.473  13.010   5.509  0.9942 -0.1153  0.6567
  418MOL0     H57647   7.657  13.176   5.480 -0.3949 -2.1324  0.4839
  418MOL0     H57648   7.627  13.578   5.690 -0.5404 -0.0339  1.5207
  418MOL0     H57649   7.728  13.474   5.791 -0.1294 -2.3730 -2.0070
  418MOL0     H57650   7.849  13.684   5.732 -2.4339  1.2335 -1.4511
  418MOL0     H57651   7.933  13.543   5.669  0.4427 -0.2416 -0.3965
  418MOL0     H57652   7.743  13.718   5.500  0.8316  2.0591 -2.7151
  418MOL0     H57653   7.831  13.571   5.435  1.1808 -0.6827 -1.4323
  418MOL0     H57654   8.044  13.677   5.470 -0.7313 -1.5880  2.3881
  418MOL0     H57655   7.950  13.817   5.550 -3.1254 -0.0454 -0.0235
  418MOL0     H57656   7.928  13.729   5.263  2.3556 -0.4961 -0.0038
  418MOL0     H57657   7.833  13.859   5.340  0.7051  1.1660 -2.5653
  418MOL0     H57658   8.143  13.854   5.311 -0.1481 -2.0165 -2.4090
  418MOL0     H57659   8.047  13.990   5.369 -0.6583 -0.2434  0.4060
  418MOL0     H57660   7.959  14.031   5.131 -0.6462 -0.7987 -2.3110
  418MOL0     H57661   7.975  13.859   5.103 -2.8608  0.3183  1.4379
  418MOL0     H57662   8.228  13.915   5.102 -0.9141 -0.8574 -0.4027
  418MOL0     H57663   8.182  14.078   5.103 -0.7169 -0.0575  0.5561
  418MOL0     H57664   7.492  13.427   5.782 -0.3197  0.3162  0.0284
  418MOL0     H57665   7.311  13.265   5.812 -1.0824  0.2694 -1.0790
  418MOL0     H57666   7.080  12.909   5.707  1.8500 -0.5773 -0.7405
  418MOL0     H57667   6.912  12.763   5.757  0.9877  0.7199 -2.1499
  418MOL0     H57668   5.191  11.945   5.052  1.4445  1.5821 -2.0154
  418MOL0     H57669   5.020  11.793   4.940 -0.3115  2.7540  0.2131
  418MOL0     H57670   4.835  11.355   5.069  2.3663  2.8523 -0.3896
  418MOL0     H57671   4.653  11.187   5.007  0.3044 -1.5690 -0.8010
  418MOL0     H57672   4.579  11.018   4.919  3.0929  2.6992 -0.8789
  418MOL0     H57673   4.448  11.141   4.875 -2.3818 -2.0000 -1.0265
  418MOL0     H57674   4.361  10.911   4.840 -0.5403  0.4636 -0.5147
  418MOL0     H57675   4.487  10.892   4.719  1.5816  1.9271 -0.4629
  418MOL0     H57676   4.292  11.120   4.713  2.5966  0.1520  2.6647
  418MOL0     H57677   4.406  11.075   4.583  0.8504  0.4027  0.0149
  418MOL0     H57678   4.190  10.902   4.706 -0.6368  1.6389  0.9281
  418MOL0     H57679   4.310  10.842   4.595 -1.7359 -0.1110  0.9615
  418MOL0     H57680   4.036  11.066   4.353 -0.1550 -0.6386 -1.3500
  418MOL0     H57681   4.790  11.191   4.605  0.6371  3.1209 -1.3675
  418MOL0     H57682   5.120  11.306   4.690 -1.0351  1.2098  1.3687
  418MOL0     H57683   5.008  11.251   4.562 -1.3135 -1.1150  0.6405
  418MOL0     H57684   5.016  11.421   4.611 -2.6771  0.0271 -2.7999
  419MOL0     O57685  11.270  11.188   5.548 -0.0256  0.2355  0.6980
  419MOL0     C57686  11.255  11.074   5.590 -0.5862 -0.8694  0.2798
  419MOL0     O57687  11.354  10.983   5.630  0.1140 -0.1041  0.0631
  419MOL0     C57688  11.481  11.034   5.638  0.3310  0.0839 -0.5616
  419MOL0     C57689  11.535  11.078   5.756  0.2546 -1.4709  0.9761
  419MOL0     C57690  11.678  11.097   5.765  0.1088  0.4060 -0.5762
  419MOL0     C57691  11.756  11.076   5.653  0.5796  1.6711 -0.2237
  419MOL0     O57692  11.890  11.080   5.656 -0.0148 -0.3137 -0.7461
  419MOL0     C57693  11.967  10.952   5.655  0.2888  0.1511 -0.5400
  419MOL0     C57694  12.108  10.965   5.591  0.8718  0.0903  0.0595
  419MOL0     C57695  12.198  11.074   5.650  0.8458  0.3840 -0.3680
  419MOL0     C57696  12.261  11.031   5.785 -0.5650 -0.2241  0.6411
  419MOL0     C57697  12.372  11.125   5.820  0.7489  0.5899  0.1284
  419MOL0     C57698  12.431  11.087   5.956 -0.2661  0.7605 -0.1376
  419MOL0     C57699  12.566  11.159   5.984 -0.0865  0.1695  0.1993
  419MOL0     C57700  12.634  11.139   6.111 -0.2622 -0.2851 -0.5678
  419MOL0     N57701  12.700  11.013   6.147  0.2544  0.7662  0.8461
  419MOL0     C57702  12.702  10.967   6.273 -0.1189  0.2981 -0.0355
  419MOL0     C57703  12.742  10.832   6.258  0.0917 -0.0559  0.1509
  419MOL0     C57704  12.780  10.736   6.369 -0.0507 -0.1511  0.4428
  419MOL0     C57705  12.808  10.807   6.506  0.5987  0.1745 -0.2749
  419MOL0     C57706  12.900  10.719   6.597 -1.0914  0.1642 -0.7008
  419MOL0     C57707  13.052  10.724   6.556 -0.8628  0.2198  0.5901
  419MOL0     O57708  13.132  10.659   6.658 -0.1875 -0.4948 -0.4185
  419MOL0     C57709  13.264  10.631   6.634 -0.3378  0.2499 -0.0200
  419MOL0     C57710  13.339  10.567   6.740 -0.8154 -0.1280 -0.5204
  419MOL0     C57711  13.476  10.539   6.726 -0.9439  0.4106 -0.3046
  419MOL0     C57712  13.548  10.462   6.835 -0.3960  0.3322  0.6010
  419MOL0     C57713  13.548  10.579   6.604  1.0322  0.4001  0.2908
  419MOL0     C57714  13.682  10.553   6.562 -0.2698  0.9716  0.3762
  419MOL0     O57715  13.718  10.601   6.441 -0.0513 -0.8546  0.5982
  419MOL0     C57716  13.844  10.596   6.390 -0.0270 -0.2781  0.1521
  419MOL0     C57717  13.891  10.711   6.324  0.2020 -0.6973  0.3404
  419MOL0     C57718  14.016  10.707   6.257 -0.3215  0.5199 -0.8953
  419MOL0     C57719  14.105  10.597   6.278  0.2711  0.1592  0.3137
  419MOL0     O57720  14.216  10.588   6.205 -0.8083 -0.3001  0.2496
  419MOL0     C57721  14.347  10.573   6.274 -0.2575  1.0158 -0.1161
  419MOL0     C57722  14.432  10.695   6.241  0.2205  0.4148  0.6523
  419MOL0     C57723  14.576  10.691   6.290 -0.1403 -0.2379 -0.1466
  419MOL0     C57724  14.643  10.556   6.267  1.2761  0.5914 -0.3790
  419MOL0     C57725  14.791  10.571   6.272 -0.9248 -0.8352 -0.5630
  419MOL0     C57726  14.879  10.446   6.299  0.6456  0.6882  0.1808
  419MOL0     C57727  15.027  10.478   6.300  0.7528  0.0155  0.9242
  419MOL0     C57728  15.108  10.352   6.333 -0.0236 -0.0387 -1.0493
  419MOL0    Cl57729  15.281  10.382   6.276  0.3130 -0.1418  0.3963
  419MOL0     C57730  14.059  10.489   6.357 -0.5051  0.0461  0.3779
  419MOL0     C57731  13.925  10.485   6.405 -0.2266  0.0372  0.5857
  419MOL0     O57732  13.763  10.502   6.642 -0.2373 -0.2761 -0.3240
  419MOL0     C57733  13.471  10.650   6.508  0.1085  0.6474  0.2875
  419MOL0     C57734  13.333  10.677   6.528  0.7745  0.2418 -0.5324
  419MOL0     N57735  12.767  10.809   6.116 -0.0434 -0.8150  0.0301
  419MOL0     N57736  12.733  10.916   6.051 -0.2749 -1.3357  0.0221
  419MOL0     C57737  11.694  11.047   5.531  0.2341  0.4023 -0.4223
  419MOL0     C57738  11.555  11.029   5.517 -0.3325 -0.2898 -0.4509
  419MOL0     C57739  11.117  11.023   5.591  0.8389 -0.2758  0.5354
  419MOL0     C57740  11.081  10.945   5.697 -0.0556 -0.0536  0.1952
  419MOL0     C57741  10.950  10.912   5.714 -0.1128  0.3727  0.8396
  419MOL0     C57742  10.856  10.938   5.615  0.1482 -0.2573 -0.8784
  419MOL0     O57743  10.737  10.878   5.643  0.0865 -0.1433  0.6118
  419MOL0     C57744  10.618  10.889   5.563  0.7910  0.3007  0.6753
  419MOL0     C57745  10.537  10.766   5.614 -0.1975  0.7009  0.0090
  419MOL0     C57746  10.590  10.636   5.551 -0.1298  0.1024  0.4671
  419MOL0     C57747  10.583  10.514   5.648 -0.5143  0.0646 -0.4926
  419MOL0     C57748  10.446  10.490   5.685  0.8377  0.5637 -0.4910
  419MOL0     C57749  10.335  10.449   5.720 -0.4728 -0.0825  0.3484
  419MOL0     C57750  10.888  11.005   5.499 -0.0486 -0.3556  0.3434
  419MOL0     C57751  11.022  11.048   5.492 -0.4923  0.2520 -0.8567
  419MOL0     C57752  11.051  11.154   5.389  0.5610 -0.2606 -0.5252
  419MOL0     H57753  11.464  11.087   5.838 -3.2427  2.7157 -2.0911
  419MOL0     H57754  11.735  11.118   5.855  0.7280  0.9883 -1.0984
  419MOL0     H57755  11.910  10.868   5.612 -1.3600  1.3508 -0.7975
  419MOL0     H57756  11.992  10.928   5.758 -0.8441  1.3878  0.0481
  419MOL0     H57757  12.159  10.869   5.597 -0.1157 -0.4689 -0.2276
  419MOL0     H57758  12.107  10.979   5.483  0.9246  1.1315  0.1746
  419MOL0     H57759  12.278  11.091   5.578  0.6732 -0.6728 -0.8319
  419MOL0     H57760  12.136  11.163   5.664 -1.4322 -1.0260 -1.0146
  419MOL0     H57761  12.175  11.024   5.853 -1.4022 -1.7278 -0.5157
  419MOL0     H57762  12.301  10.930   5.775 -1.9622 -0.7019 -0.6220
  419MOL0     H57763  12.334  11.227   5.826 -0.3418  0.1286  1.6170
  419MOL0     H57764  12.455  11.108   5.752  0.5496 -1.8136  0.4044
  419MOL0     H57765  12.368  11.108   6.043 -0.4597 -1.3577  0.3013
  419MOL0     H57766  12.436  10.978   5.949 -0.8481  0.7947 -1.4977
  419MOL0     H57767  12.544  11.266   5.977  1.1878  0.3632 -1.5394
  419MOL0     H57768  12.645  11.139   5.910  0.1644  3.2343 -0.4921
  419MOL0     H57769  12.712  11.216   6.120  1.1274 -1.3584 -2.5564
  419MOL0     H57770  12.551  11.155   6.180 -0.5642  0.0501 -1.0078
  419MOL0     H57771  12.675  11.027   6.359 -1.9640 -1.5164  0.7328
  419MOL0     H57772  12.876  10.696   6.337 -0.0626  0.2575 -0.1165
  419MOL0     H57773  12.708  10.655   6.386  2.0130 -2.2010 -0.0651
  419MOL0     H57774  12.854  10.904   6.486  2.1304  0.0954  2.3873
  419MOL0     H57775  12.714  10.826   6.559  1.2032 -0.0041  0.9168
  419MOL0     H57776  12.883  10.763   6.696 -1.0193  1.9087 -1.4148
  419MOL0     H57777  12.879  10.612   6.598  1.6725 -0.4715 -1.4974
  419MOL0     H57778  13.065  10.666   6.464  0.2870  2.3192 -0.6500
  419MOL0     H57779  13.095  10.823   6.540 -0.0081 -0.3284 -0.6788
  419MOL0     H57780  13.292  10.536   6.833  2.6686 -1.2118  1.0546
  419MOL0     H57781  13.486  10.416   6.913 -0.0548  1.7193  1.7332
  419MOL0     H57782  13.623  10.527   6.882 -2.1036  2.4130  0.6157
  419MOL0     H57783  13.603  10.382   6.785 -1.6386  0.4985 -1.1039
  419MOL0     H57784  13.815  10.786   6.304  2.5268  1.5348 -0.6174
  419MOL0     H57785  14.051  10.789   6.195 -3.5449  1.9392 -1.0573
  419MOL0     H57786  14.335  10.554   6.381  1.1339  0.5918 -0.0169
  419MOL0     H57787  14.392  10.481   6.238 -1.9403 -0.3071  0.9932
  419MOL0     H57788  14.428  10.695   6.131  3.1550  1.4912  0.4598
  419MOL0     H57789  14.375  10.782   6.274  0.9671  1.2430 -0.1669
  419MOL0     H57790  14.567  10.700   6.399 -0.6602 -1.8362 -0.0319
  419MOL0     H57791  14.631  10.770   6.239  1.1863 -1.5436 -0.7804
  419MOL0     H57792  14.630  10.509   6.169 -2.3926  1.0988 -0.2796
  419MOL0     H57793  14.610  10.478   6.336  2.0733  0.6102  0.0324
  419MOL0     H57794  14.818  10.624   6.180  2.5461  2.0453  1.8541
  419MOL0     H57795  14.812  10.641   6.353 -1.9621  1.1706 -1.9319
  419MOL0     H57796  14.855  10.390   6.209  1.4827  0.2410  0.2240
  419MOL0     H57797  14.843  10.395   6.388 -0.3996 -1.2766 -1.2968
  419MOL0     H57798  15.044  10.564   6.366  2.2918 -0.1193  0.7471
  419MOL0     H57799  15.054  10.517   6.201  3.7059 -0.4152  1.4706
  419MOL0     H57800  15.076  10.265   6.275 -4.1406 -0.1100  0.9955
  419MOL0     H57801  15.095  10.329   6.439 -1.1049  0.7986 -0.9873
  419MOL0     H57802  14.119  10.403   6.381 -0.5657  0.3993  1.8914
  419MOL0     H57803  13.877  10.396   6.443  0.1916 -0.1684  0.6378
  419MOL0     H57804  13.508  10.697   6.417  1.9531  1.2971  1.3103
  419MOL0     H57805  13.270  10.716   6.448  1.6533  1.5672 -0.5996
  419MOL0     H57806  11.759  11.047   5.444  0.3193  2.9050 -0.4463
  419MOL0     H57807  11.518  11.014   5.416  0.0828 -1.7553 -0.4044
  419MOL0     H57808  11.143  10.918   5.781 -1.4866 -0.7248  1.0683
  419MOL0     H57809  10.909  10.874   5.807 -0.7301 -3.3769 -0.7805
  419MOL0     H57810  10.568  10.985   5.582 -2.3789 -0.8031 -1.2285
  419MOL0     H57811  10.622  10.878   5.454  0.0040 -0.1214  0.6800
  419MOL0     H57812  10.436  10.765   5.572 -1.0269 -0.3259  1.8854
  419MOL0     H57813  10.525  10.757   5.722  0.8632  2.3626  0.2952
  419MOL0     H57814  10.550  10.614   5.452  1.8405 -2.8970  0.2133
  419MOL0     H57815  10.699  10.638   5.541 -0.2163 -1.2357 -1.0590
  419MOL0     H57816  10.635  10.551   5.737 -1.4036  2.8002 -0.9905
  419MOL0     H57817  10.625  10.421   5.608 -0.5460  0.1277 -0.6735
  419MOL0     H57818  10.236  10.417   5.746  0.2762 -3.6483 -0.5745
  419MOL0     H57819  10.808  11.013   5.427  1.1310  1.0618 -0.8747
  419MOL0     H57820  10.965  11.187   5.329  0.8583 -0.4527 -1.0715
  419MOL0     H57821  11.067  11.248   5.441 -1.6805  0.7693 -1.5446
  419MOL0     H57822  11.129  11.114   5.323  1.3317 -0.5798  0.5637
  420MOL0     O57823   6.212   1.010  10.878 -0.0196  0.6725 -0.2160
  420MOL0     C57824   6.264   0.973  10.986  0.4043 -0.5265  0.4893
  420MOL0     O57825   6.195   0.939  11.105 -0.1145  0.2180  0.1935
  420MOL0     C57826   6.071   0.996  11.126 -0.9419  1.1490 -0.8601
  420MOL0     C57827   6.013   1.105  11.068  0.5988 -0.2787  1.2154
  420MOL0     C57828   5.887   1.134  11.114 -0.6033  0.0873  0.9387
  420MOL0     C57829   5.819   1.074  11.219  0.0352  0.4655 -0.0145
  420MOL0     O57830   5.709   1.146  11.261  0.7886 -0.5473  0.0903
  420MOL0     C57831   5.663   1.128  11.396 -0.0202  0.4679 -0.6556
  420MOL0     C57832   5.526   1.205  11.404  0.8715  0.2711  0.3045
  420MOL0     C57833   5.489   1.227  11.555 -0.8470 -0.3125 -0.0580
  420MOL0     C57834   5.382   1.339  11.555 -0.2398 -0.3955  0.0242
  420MOL0     C57835   5.322   1.365  11.687 -0.1779  0.0649  0.1389
  420MOL0     C57836   5.217   1.482  11.668  0.0629  0.2178  0.0943
  420MOL0     C57837   5.145   1.527  11.799  0.3744 -0.0795 -0.4644
  420MOL0     C57838   5.029   1.439  11.825  0.1062  0.0158  0.2759
  420MOL0     N57839   4.940   1.527  11.897 -0.1718  0.1999  0.4125
  420MOL0     C57840   4.810   1.563  11.858  0.3866 -1.0820  0.1330
  420MOL0     C57841   4.758   1.636  11.956 -0.1372 -0.3428 -0.2181
  420MOL0     C57842   4.619   1.687  11.959  0.8529 -1.0743 -0.4195
  420MOL0     C57843   4.529   1.603  12.055  0.4485 -1.0035  0.0651
  420MOL0     C57844   4.558   1.613  12.205 -0.3085  0.7089  0.0812
  420MOL0     C57845   4.463   1.537  12.296  0.4069 -0.3090  0.1648
  420MOL0     O57846   4.336   1.595  12.263  0.0348  0.7420  0.4936
  420MOL0     C57847   4.293   1.708  12.332 -0.5078 -0.0626 -0.5623
  420MOL0     C57848   4.177   1.763  12.291 -0.4085 -0.3707 -0.0747
  420MOL0     C57849   4.120   1.884  12.351  0.2976 -1.1299  0.8683
  420MOL0     C57850   3.988   1.922  12.281  0.3192  0.8411 -0.1522
  420MOL0     C57851   4.184   1.951  12.457 -0.5788  0.0203 -0.1159
  420MOL0     C57852   4.133   2.073  12.521 -0.9076 -1.5237  0.4655
  420MOL0     O57853   4.219   2.122  12.618 -0.7192  0.0479 -0.2928
  420MOL0     C57854   4.173   2.227  12.702  0.1594  0.3766  1.2125
  420MOL0     C57855   4.270   2.317  12.733 -0.4799 -0.8486  0.6034
  420MOL0     C57856   4.236   2.421  12.819 -0.1291 -0.3172 -0.5126
  420MOL0     C57857   4.109   2.428  12.885 -0.5220 -0.8966 -0.4027
  420MOL0     O57858   4.098   2.530  12.971  0.1203 -0.9599 -1.0562
  420MOL0     C57859   3.974   2.555  13.043  0.2136  0.1481 -0.0016
  420MOL0     C57860   3.996   2.675  13.150 -0.2774  0.6638 -0.2741
  420MOL0     C57861   4.025   2.807  13.070  0.3101 -0.1250  0.0581
  420MOL0     C57862   3.983   2.933  13.156  0.2713  0.3847 -0.7039
  420MOL0     C57863   3.961   3.059  13.069 -0.1752  0.0029  0.3486
  420MOL0     C57864   3.906   3.172  13.150  0.4416 -0.9527 -1.3839
  420MOL0     C57865   3.846   3.285  13.064  0.0527 -0.2987  0.4231
  420MOL0     C57866   3.817   3.412  13.156 -0.3644 -0.4418  0.3102
  420MOL0    Cl57867   3.760   3.546  13.053  0.0609  0.0022 -0.1013
  420MOL0     C57868   4.009   2.340  12.845 -0.6514  0.5508  0.2228
  420MOL0     C57869   4.043   2.236  12.753 -0.7752 -0.0950  0.4740
  420MOL0     O57870   4.028   2.129  12.488  0.4702 -0.3714 -0.5609
  420MOL0     C57871   4.300   1.889  12.509 -0.7558 -0.0666 -0.0746
  420MOL0     C57872   4.361   1.782  12.431  0.1118 -0.6038 -0.4458
  420MOL0     N57873   4.855   1.644  12.056  0.3758 -0.8640  0.2555
  420MOL0     N57874   4.956   1.574  12.019  0.2380 -0.4319  0.2477
  420MOL0     C57875   5.871   0.959  11.262  0.7045 -0.1831 -0.4021
  420MOL0     C57876   5.999   0.917  11.219 -0.2539  0.0917  0.4154
  420MOL0     C57877   6.405   0.936  10.973 -0.7190 -0.3759 -0.0421
  420MOL0     C57878   6.462   0.851  11.068  0.2340  0.1740  1.4845
  420MOL0     C57879   6.593   0.818  11.065 -1.0932  0.6208 -0.1391
  420MOL0     C57880   6.692   0.882  10.990 -0.3488 -0.5624  0.5159
  420MOL0     O57881   6.830   0.857  11.026 -0.4438 -0.3566  0.7273
  420MOL0     C57882   6.926   0.930  10.938 -0.0694 -0.3480 -0.2714
  420MOL0     C57883   7.059   0.911  11.004 -0.7550 -0.4842  0.2169
  420MOL0     C57884   7.168   0.954  10.904 -0.2039 -0.6919  0.8174
  420MOL0     C57885   7.302   0.970  10.976 -0.0630  0.4512 -0.4815
  420MOL0     C57886   7.325   0.856  11.068 -0.4105  0.3038 -0.8132
  420MOL0     C57887   7.328   0.770  11.158  0.0566 -0.5069  0.5714
  420MOL0     C57888   6.641   0.972  10.897  0.6870 -1.0024 -0.1630
  420MOL0     C57889   6.503   0.999  10.884 -0.2452 -0.0434  0.0046
  420MOL0     C57890   6.474   1.096  10.780 -0.2866  0.3333  0.5411
  420MOL0     H57891   6.077   1.170  11.010  0.0097  3.0772  3.9516
  420MOL0     H57892   5.854   1.232  11.079 -0.1039  0.4358  1.4306
  420MOL0     H57893   5.737   1.174  11.461 -2.0464  0.1945  2.0303
  420MOL0     H57894   5.656   1.020  11.415  2.4475  0.3573 -0.1101
  420MOL0     H57895   5.533   1.303  11.356  0.1394 -0.5109 -1.5207
  420MOL0     H57896   5.451   1.141  11.356  1.7661 -1.3874  1.0359
  420MOL0     H57897   5.454   1.137  11.606 -1.7428 -0.4357 -0.8518
  420MOL0     H57898   5.563   1.267  11.625 -2.1007  2.5802 -0.2355
  420MOL0     H57899   5.423   1.431  11.512 -2.0610 -0.3772 -1.8067
  420MOL0     H57900   5.299   1.310  11.490 -0.7350 -0.8677  0.8549
  420MOL0     H57901   5.394   1.398  11.762 -0.2593 -0.2484  0.3568
  420MOL0     H57902   5.267   1.279  11.727  0.2867  0.4394  1.6415
  420MOL0     H57903   5.266   1.574  11.637 -1.8978  0.9745 -0.9669
  420MOL0     H57904   5.143   1.453  11.592  0.7344  1.2310 -0.9672
  420MOL0     H57905   5.111   1.631  11.802 -0.6070 -0.3720 -0.8304
  420MOL0     H57906   5.217   1.534  11.880 -1.9669  1.6226  1.6018
  420MOL0     H57907   4.985   1.412  11.728 -2.1252 -1.1010  1.5217
  420MOL0     H57908   5.059   1.356  11.890 -0.9719  0.2188  1.0617
  420MOL0     H57909   4.753   1.531  11.772 -1.1234 -0.9626  1.0518
  420MOL0     H57910   4.577   1.678  11.859 -1.1452 -2.5758  0.4977
  420MOL0     H57911   4.618   1.786  12.007 -3.7010 -2.3050  2.6834
  420MOL0     H57912   4.434   1.654  12.036 -0.2635 -2.1416  0.4975
  420MOL0     H57913   4.518   1.502  12.015  0.0242 -1.9903  2.4886
  420MOL0     H57914   4.656   1.567  12.217 -0.0490  0.5747 -2.0429
  420MOL0     H57915   4.581   1.718  12.228  2.3868  0.4873 -1.1400
  420MOL0     H57916   4.456   1.434  12.262  0.4092 -0.9890  2.1111
  420MOL0     H57917   4.494   1.527  12.400  0.5639  2.0839  0.4171
  420MOL0     H57918   4.123   1.707  12.216 -0.0206 -3.8269  1.9716
  420MOL0     H57919   3.943   1.832  12.237 -3.7765  2.5453  0.1090
  420MOL0     H57920   4.009   2.000  12.207  4.5967  1.4060  1.4001
  420MOL0     H57921   3.907   1.946  12.350  0.0590  0.2178 -0.2312
  420MOL0     H57922   4.369   2.309  12.688 -2.1919 -2.5287 -3.3578
  420MOL0     H57923   4.314   2.493  12.841 -1.1378  1.1564 -1.5834
  420MOL0     H57924   3.900   2.595  12.972  1.4965  0.7720 -1.0316
  420MOL0     H57925   3.928   2.466  13.085 -0.6679  1.5448  2.1711
  420MOL0     H57926   3.902   2.693  13.202 -0.7533 -1.1734 -0.4254
  420MOL0     H57927   4.081   2.642  13.210  0.2964 -2.3107 -2.4513
  420MOL0     H57928   3.956   2.812  12.985 -2.0369  0.0325  1.8561
  420MOL0     H57929   4.129   2.823  13.042  0.2359 -1.0282 -0.7808
  420MOL0     H57930   4.066   2.950  13.225 -1.0740 -1.5369  1.5722
  420MOL0     H57931   3.894   2.911  13.217  0.3100 -1.2911 -1.1979
  420MOL0     H57932   4.058   3.088  13.027  0.0072  1.4938  1.7107
  420MOL0     H57933   3.887   3.032  12.993 -3.3763  2.1287  2.4980
  420MOL0     H57934   3.982   3.199  13.224  1.8190 -4.2175 -1.4538
  420MOL0     H57935   3.821   3.123  13.199 -0.4878 -1.0008 -2.9755
  420MOL0     H57936   3.757   3.245  13.015  1.2768 -2.2687 -0.3342
  420MOL0     H57937   3.921   3.309  12.988 -0.5267 -1.7056 -0.6387
  420MOL0     H57938   3.911   3.445  13.200 -1.3048 -0.2500  2.2796
  420MOL0     H57939   3.739   3.392  13.230 -1.5303  0.1451 -0.7175
  420MOL0     H57940   3.903   2.339  12.870 -0.0516 -0.7700  3.0574
  420MOL0     H57941   3.978   2.155  12.722  0.1589 -1.4907  2.0411
  420MOL0     H57942   4.352   1.935  12.592  0.4706 -1.1394 -0.2054
  420MOL0     H57943   4.454   1.746  12.474 -1.2024  0.4046  3.6153
  420MOL0     H57944   5.823   0.903  11.342  2.0516 -0.7593  0.0318
  420MOL0     H57945   6.035   0.820  11.254 -0.0681  0.3240  0.8766
  420MOL0     H57946   6.398   0.800  11.139 -0.8171 -0.3015  0.2547
  420MOL0     H57947   6.632   0.736  11.123  2.5165  0.3215 -2.6841
  420MOL0     H57948   6.933   0.871  10.846  2.1459 -1.0975  0.3081
  420MOL0     H57949   6.907   1.036  10.917 -0.0313 -0.0606  1.0557
  420MOL0     H57950   7.057   0.803  11.025 -3.8162 -0.6912 -0.5860
  420MOL0     H57951   7.075   0.963  11.099 -3.5556  0.3040  0.3633
  420MOL0     H57952   7.180   0.879  10.826 -0.4676 -1.3938  1.4395
  420MOL0     H57953   7.153   1.053  10.859  2.8153  0.3310  1.8660
  420MOL0     H57954   7.306   1.059  11.039  0.1667 -0.2130  0.4555
  420MOL0     H57955   7.394   0.978  10.917  1.0298  0.6414  1.1981
  420MOL0     H57956   7.312   0.710  11.245  1.6478  1.4263  2.3230
  420MOL0     H57957   6.712   1.030  10.838  0.4903  1.4957  1.8701
  420MOL0     H57958   6.563   1.136  10.731  2.2517 -2.5786  2.3593
  420MOL0     H57959   6.416   1.036  10.711 -1.0590  0.8591  0.7225
  420MOL0     H57960   6.399   1.169  10.812 -2.7687  0.0465 -3.8533
  421MOL0     O57961  10.168   3.346   6.957  0.3292  0.3408  1.1548
  421MOL0     C57962  10.165   3.227   6.956  0.2809 -0.4589 -0.0739
  421MOL0     O57963  10.256   3.159   6.885 -0.1732 -0.1098 -0.3253
  421MOL0     C57964  10.376   3.215   6.855 -0.3546  0.4674 -0.1352
  421MOL0     C57965  10.385   3.320   6.762 -0.3042  0.8563  0.3738
  421MOL0     C57966  10.507   3.372   6.719 -0.6900 -0.1759 -0.2758
  421MOL0     C57967  10.625   3.330   6.771  0.4761  0.2916  0.1241
  421MOL0     O57968  10.732   3.405   6.738  0.0363  0.1161 -0.1396
  421MOL0     C57969  10.857   3.362   6.776 -0.2197  0.2686 -0.0249
  421MOL0     C57970  10.964   3.467   6.755  1.0482  0.5197 -0.2544
  421MOL0     C57971  11.099   3.428   6.818 -0.2094  0.3059  0.2921
  421MOL0     C57972  11.196   3.376   6.711  0.3630  0.5853 -0.0113
  421MOL0     C57973  11.320   3.325   6.783  0.7681  0.5471 -0.2236
  421MOL0     C57974  11.422   3.299   6.673 -0.6044  0.4309  0.4374
  421MOL0     C57975  11.555   3.314   6.725  0.1076 -0.2618  0.1256
  421MOL0     C57976  11.653   3.326   6.616  0.0433 -0.1846  0.1535
  421MOL0     N57977  11.799   3.316   6.645  0.5356 -0.2188  0.0452
  421MOL0     C57978  11.867   3.388   6.742 -0.7420  1.5664 -0.5197
  421MOL0     C57979  11.998   3.362   6.716  0.7333  0.2734  0.8765
  421MOL0     C57980  12.106   3.406   6.797 -0.1566  0.6186 -0.3385
  421MOL0     C57981  12.095   3.547   6.842 -0.3025  0.0243 -0.0953
  421MOL0     C57982  12.126   3.640   6.727  0.9085  0.1247  0.8639
  421MOL0     C57983  12.058   3.773   6.740  0.8537 -0.5248 -0.3394
  421MOL0     O57984  11.916   3.758   6.728  0.0710  0.4037  0.9291
  421MOL0     C57985  11.868   3.754   6.603 -0.1359  0.2611  0.1404
  421MOL0     C57986  11.730   3.738   6.592 -0.9738  0.1583 -0.8086
  421MOL0     C57987  11.661   3.738   6.474  0.3306 -0.1688 -0.2921
  421MOL0     C57988  11.516   3.698   6.495 -0.8306 -0.1855 -0.1255
  421MOL0     C57989  11.732   3.752   6.353  0.2497  0.3143 -0.1683
  421MOL0     C57990  11.649   3.760   6.226 -0.6824 -0.4219  0.3756
  421MOL0     O57991  11.512   3.786   6.233  0.4727 -0.1036 -0.4049
  421MOL0     C57992  11.457   3.806   6.108 -0.5642 -0.6175 -0.0869
  421MOL0     C57993  11.419   3.691   6.037  0.7448  0.4694 -0.3466
  421MOL0     C57994  11.330   3.694   5.931 -0.6182 -0.2531 -0.2521
  421MOL0     C57995  11.311   3.815   5.873  0.1956 -0.1325  0.5164
  421MOL0     O57996  11.241   3.829   5.756  0.6915 -1.1646  0.1693
  421MOL0     C57997  11.179   3.710   5.696  0.8172  0.5862  0.3014
  421MOL0     C57998  11.082   3.771   5.588  0.0734  0.0735 -0.1778
  421MOL0     C57999  10.997   3.662   5.512  0.5673  0.1064 -0.3928
  421MOL0     C58000  11.086   3.568   5.433 -0.6958 -0.2865  0.4738
  421MOL0     C58001  10.995   3.475   5.344  0.5134  0.4644 -0.7020
  421MOL0     C58002  10.891   3.543   5.256  0.0463  0.1067  0.3075
  421MOL0     C58003  10.822   3.459   5.153 -0.5299  0.1581 -0.5526
  421MOL0     C58004  10.830   3.530   5.019 -1.2619  0.0989  0.8292
  421MOL0    Cl58005  10.743   3.436   4.902  0.0056  0.3222  0.0570
  421MOL0     C58006  11.358   3.933   5.925  0.1127 -0.2098 -0.6531
  421MOL0     C58007  11.421   3.931   6.051  0.7906  0.7442 -0.7094
  421MOL0     O58008  11.712   3.773   6.124  0.1318 -0.6215 -0.5720
  421MOL0     C58009  11.874   3.769   6.357  0.1323 -0.1969 -0.7548
  421MOL0     C58010  11.942   3.770   6.481 -0.3383  0.2485 -0.4257
  421MOL0     N58011  12.007   3.282   6.602 -0.9936  0.0945 -0.9932
  421MOL0     N58012  11.893   3.251   6.567 -0.4689 -0.7136  0.4737
  421MOL0     C58013  10.624   3.223   6.868 -0.4321 -0.1016 -0.3347
  421MOL0     C58014  10.504   3.169   6.906  0.6642  0.8466 -0.7676
  421MOL0     C58015  10.056   3.155   7.023  0.0245  0.9459  0.2473
  421MOL0     C58016   9.934   3.216   7.052 -1.2771  0.5395  0.9700
  421MOL0     C58017   9.826   3.147   7.096 -0.3241  0.4980 -0.7035
  421MOL0     C58018   9.828   3.008   7.109  0.2442  0.8357  0.5517
  421MOL0     O58019   9.727   2.935   7.169  0.9509 -0.3901  0.7445
  421MOL0     C58020   9.599   3.007   7.196 -0.6972 -0.0304 -0.2143
  421MOL0     C58021   9.499   2.906   7.251  0.3891 -0.4612  0.1590
  421MOL0     C58022   9.553   2.826   7.365 -0.3154  0.4772 -0.0331
  421MOL0     C58023   9.549   2.897   7.497 -0.4364 -0.3172 -0.0150
  421MOL0     C58024   9.418   2.944   7.541  0.1635 -0.4519  0.5661
  421MOL0     C58025   9.295   2.942   7.575 -0.1766 -0.6932 -0.6397
  421MOL0     C58026   9.948   2.944   7.079 -0.1457  0.4339  0.2072
  421MOL0     C58027  10.064   3.015   7.052 -0.8748  0.3251  0.5566
  421MOL0     C58028  10.187   2.930   7.038  0.2726 -0.2836  0.0532
  421MOL0     H58029  10.295   3.338   6.704  0.5563 -1.0818 -1.7563
  421MOL0     H58030  10.510   3.449   6.642  0.4899  0.9200  0.8158
  421MOL0     H58031  10.876   3.268   6.722 -1.8883 -0.0059 -0.2003
  421MOL0     H58032  10.852   3.341   6.883  0.5115  1.2092  0.2002
  421MOL0     H58033  10.971   3.491   6.648 -1.9184 -0.6866 -0.8171
  421MOL0     H58034  10.936   3.561   6.802  0.4596  0.6096 -0.7681
  421MOL0     H58035  11.145   3.521   6.851 -0.5645  1.0343 -1.2011
  421MOL0     H58036  11.079   3.358   6.900  0.2787 -2.0809 -1.5285
  421MOL0     H58037  11.142   3.296   6.660  1.5895  0.0711 -0.5297
  421MOL0     H58038  11.224   3.462   6.648  2.5858 -0.4816 -0.5932
  421MOL0     H58039  11.298   3.231   6.836 -0.1602 -0.5277 -2.4122
  421MOL0     H58040  11.357   3.402   6.851 -1.8015  2.5146 -0.8680
  421MOL0     H58041  11.414   3.197   6.634 -0.5309  0.6318 -0.1084
  421MOL0     H58042  11.401   3.368   6.591  0.5109 -1.5954 -1.6529
  421MOL0     H58043  11.575   3.234   6.796  0.8470  0.7919  1.1406
  421MOL0     H58044  11.575   3.396   6.794 -1.3448 -1.6045  2.2649
  421MOL0     H58045  11.627   3.242   6.551  0.0938  0.7419 -1.1042
  421MOL0     H58046  11.641   3.407   6.544  2.8817  0.9133  0.7884
  421MOL0     H58047  11.820   3.441   6.824 -0.6208 -0.7183  1.1475
  421MOL0     H58048  12.201   3.400   6.741 -1.6392  1.4648 -3.1295
  421MOL0     H58049  12.103   3.347   6.889 -0.4255  2.5616  0.9408
  421MOL0     H58050  12.004   3.578   6.895 -0.5012 -0.9599  0.1564
  421MOL0     H58051  12.170   3.537   6.920 -0.7752 -2.4714  0.1222
  421MOL0     H58052  12.234   3.650   6.725  1.0897 -1.1681 -2.2176
  421MOL0     H58053  12.107   3.601   6.626  3.6766  0.6749  0.0603
  421MOL0     H58054  12.073   3.813   6.840 -4.7156  1.1977  0.1609
  421MOL0     H58055  12.104   3.838   6.665  0.1397 -1.0595 -1.2724
  421MOL0     H58056  11.676   3.742   6.687 -1.6209  2.0662 -1.2130
  421MOL0     H58057  11.455   3.788   6.483  0.8022  1.2192  1.4068
  421MOL0     H58058  11.497   3.654   6.593 -1.6972 -0.8418 -0.5777
  421MOL0     H58059  11.485   3.616   6.430 -1.4482 -2.0200  2.3250
  421MOL0     H58060  11.450   3.594   6.074  1.5170  1.5844  2.1973
  421MOL0     H58061  11.287   3.602   5.891 -1.9102  0.6633 -1.0231
  421MOL0     H58062  11.254   3.642   5.655  0.9692  1.5630 -1.0714
  421MOL0     H58063  11.125   3.658   5.776  1.9250  1.6420  1.7950
  421MOL0     H58064  11.015   3.840   5.640  0.0032  1.1271 -1.5880
  421MOL0     H58065  11.144   3.830   5.519  1.7849 -0.7186  0.6122
  421MOL0     H58066  10.920   3.712   5.451 -0.7546 -2.6256 -1.1075
  421MOL0     H58067  10.953   3.592   5.584  2.7561  0.8855  1.8514
  421MOL0     H58068  11.151   3.513   5.501  0.0993 -0.6986 -0.5994
  421MOL0     H58069  11.139   3.635   5.365  1.8536 -0.7689  1.8997
  421MOL0     H58070  11.052   3.406   5.281  0.0022  1.2314 -2.0421
  421MOL0     H58071  10.943   3.417   5.421 -0.1014 -0.6338 -1.8813
  421MOL0     H58072  10.940   3.629   5.209 -0.1181  1.5776  2.6482
  421MOL0     H58073  10.813   3.587   5.319 -2.3608 -1.5006 -1.3889
  421MOL0     H58074  10.719   3.436   5.184 -0.2247 -0.7211 -0.1391
  421MOL0     H58075  10.872   3.362   5.157  0.8160  0.8771  0.9465
  421MOL0     H58076  10.930   3.549   4.979 -1.5533 -1.0025 -0.5086
  421MOL0     H58077  10.784   3.627   5.039  2.3463  1.8794  1.4248
  421MOL0     H58078  11.341   4.029   5.879  1.2386  1.1023  1.4934
  421MOL0     H58079  11.451   4.018   6.108  1.7038  0.5147 -0.8189
  421MOL0     H58080  11.924   3.785   6.262 -3.2373 -1.9447 -3.0675
  421MOL0     H58081  12.050   3.781   6.480  0.1601 -2.8832  1.5741
  421MOL0     H58082  10.713   3.186   6.919 -2.8475 -2.0201  2.8481
  421MOL0     H58083  10.508   3.098   6.988  1.6573 -0.8964 -2.2709
  421MOL0     H58084   9.934   3.324   7.042  0.1935  0.4859  0.1292
  421MOL0     H58085   9.738   3.201   7.126 -2.6973 -2.2022 -2.2852
  421MOL0     H58086   9.616   3.081   7.274 -0.1818 -1.0970  0.7128
  421MOL0     H58087   9.558   3.046   7.102 -1.9057  0.2762  0.4215
  421MOL0     H58088   9.458   2.848   7.168 -2.9450  1.7058  0.1087
  421MOL0     H58089   9.419   2.969   7.292  0.8511  0.8510 -0.8801
  421MOL0     H58090   9.498   2.732   7.381 -1.6360  1.3105  0.5146
  421MOL0     H58091   9.656   2.795   7.344  0.1445  2.9601 -1.7699
  421MOL0     H58092   9.621   2.979   7.494 -1.1526  0.3127 -0.6506
  421MOL0     H58093   9.583   2.832   7.578  2.1108  3.1227  1.9396
  421MOL0     H58094   9.192   2.941   7.603 -0.2488  2.3766 -0.4223
  421MOL0     H58095   9.947   2.840   7.109 -2.0969  0.0153 -1.0623
  421MOL0     H58096  10.170   2.859   7.119 -3.8630  1.7640  1.3047
  421MOL0     H58097  10.197   2.893   6.935 -0.7843 -1.2128  0.2581
  421MOL0     H58098  10.271   2.996   7.062 -0.7581  0.6463  1.2364
  422MOL0     O58099   1.626   5.070   4.093  0.0286 -0.1515 -0.4583
  422MOL0     C58100   1.587   5.139   4.001 -0.3377 -0.5132  0.2892
  422MOL0     O58101   1.674   5.188   3.905  0.4055 -0.9208  0.1670
  422MOL0     C58102   1.808   5.165   3.912  0.5819  0.1297  0.2527
  422MOL0     C58103   1.902   5.263   3.895  0.2816  0.1424 -0.0309
  422MOL0     C58104   2.032   5.241   3.887  0.0259  0.0325 -0.2179
  422MOL0     C58105   2.081   5.108   3.900 -0.3594  0.3726  0.1766
  422MOL0     O58106   2.211   5.082   3.898 -0.5285 -0.2626  0.5874
  422MOL0     C58107   2.291   5.162   3.992  0.2093  0.3089 -0.3070
  422MOL0     C58108   2.262   5.127   4.133 -0.4937 -0.3813 -0.2431
  422MOL0     C58109   2.266   4.980   4.156  0.0780  0.9492  0.7586
  422MOL0     C58110   2.257   4.943   4.312  0.7728 -0.3397 -0.7428
  422MOL0     C58111   2.184   4.805   4.352 -0.1416  0.3837 -1.0486
  422MOL0     C58112   2.269   4.677   4.317 -0.2843 -0.1356 -0.3308
  422MOL0     C58113   2.208   4.548   4.344  0.7962 -0.0907  0.0791
  422MOL0     C58114   2.292   4.428   4.309 -0.3048 -0.5881  0.7775
  422MOL0     N58115   2.398   4.382   4.410  0.0665 -0.2752 -0.4267
  422MOL0     C58116   2.395   4.401   4.546  0.2378 -0.3495  0.0666
  422MOL0     C58117   2.512   4.351   4.587 -0.2028  0.8730  0.8173
  422MOL0     C58118   2.547   4.338   4.726 -0.4916 -0.3612  0.8795
  422MOL0     C58119   2.688   4.270   4.745 -1.5404 -0.7902 -0.5800
  422MOL0     C58120   2.687   4.125   4.767 -0.1126  0.0062  0.6340
  422MOL0     C58121   2.822   4.047   4.732 -0.4275  0.0555  0.4573
  422MOL0     O58122   2.923   4.091   4.826  0.1004 -0.1815  0.9458
  422MOL0     C58123   3.050   4.034   4.804  0.4123  0.0795 -1.3249
  422MOL0     C58124   3.165   4.104   4.825  0.2075 -0.2796  0.1271
  422MOL0     C58125   3.291   4.055   4.806  0.1789  1.3795  0.3183
  422MOL0     C58126   3.397   4.154   4.849  0.0176  0.2443  0.2199
  422MOL0     C58127   3.301   3.923   4.759  0.1629 -0.1186  0.3384
  422MOL0     C58128   3.431   3.868   4.722 -0.0968  0.8607 -0.9261
  422MOL0     O58129   3.540   3.922   4.782  0.7914 -0.2579 -0.2226
  422MOL0     C58130   3.660   3.861   4.790 -0.2460 -0.5614  0.7006
  422MOL0     C58131   3.727   3.791   4.686 -0.0727  0.0865  0.1040
  422MOL0     C58132   3.856   3.741   4.709  0.8784 -0.1013  1.0163
  422MOL0     C58133   3.922   3.754   4.825 -0.2681  0.6473 -0.2331
  422MOL0     O58134   4.057   3.715   4.843  0.7433 -0.7104 -0.2304
  422MOL0     C58135   4.124   3.663   4.718  0.4974 -0.5474 -0.4414
  422MOL0     C58136   4.270   3.610   4.750 -0.6427  0.7736 -0.1215
  422MOL0     C58137   4.349   3.722   4.819 -0.7156 -0.4611 -0.1735
  422MOL0     C58138   4.502   3.691   4.804 -0.0061  0.2764  1.1199
  422MOL0     C58139   4.590   3.722   4.920  0.4061 -0.2583 -0.2238
  422MOL0     C58140   4.605   3.875   4.943  0.8028 -0.6396  0.0898
  422MOL0     C58141   4.694   3.905   5.058 -0.3180 -0.6018 -0.0322
  422MOL0     C58142   4.625   3.879   5.199  0.9360 -0.9477  0.6289
  422MOL0    Cl58143   4.462   3.959   5.196  0.4675 -0.2646  0.0122
  422MOL0     C58144   3.869   3.833   4.927 -0.8158  0.1079  0.0223
  422MOL0     C58145   3.742   3.878   4.904  0.3692  0.1389 -0.6441
  422MOL0     O58146   3.437   3.766   4.658  0.5613 -0.3488 -0.5245
  422MOL0     C58147   3.184   3.838   4.744 -0.4327 -0.2476  0.4621
  422MOL0     C58148   3.059   3.896   4.782 -0.4688 -0.1138 -0.3169
  422MOL0     N58149   2.571   4.291   4.476  0.3010  0.4511 -0.2619
  422MOL0     N58150   2.508   4.324   4.365 -0.1240 -0.4643 -0.5661
  422MOL0     C58151   1.994   5.000   3.895 -0.2690  0.9492 -0.7316
  422MOL0     C58152   1.852   5.028   3.907 -1.2270 -0.3425 -0.6013
  422MOL0     C58153   1.446   5.181   3.996 -0.6812  0.4790  0.0254
  422MOL0     C58154   1.413   5.273   3.900  0.0591 -0.2551  0.1765
  422MOL0     C58155   1.285   5.313   3.867  0.4463 -0.4224 -0.2541
  422MOL0     C58156   1.176   5.258   3.934  0.2483  0.5587  0.2194
  422MOL0     O58157   1.042   5.273   3.918 -0.0637  0.1476 -0.1639
  422MOL0     C58158   0.990   5.396   3.864  0.3626  1.0032 -0.3788
  422MOL0     C58159   0.951   5.494   3.975 -0.1044 -0.0037 -0.0388
  422MOL0     C58160   0.866   5.601   3.907  0.0157 -0.4680 -0.1767
  422MOL0     C58161   0.823   5.699   4.019  0.4197  0.5924 -0.7711
  422MOL0     C58162   0.771   5.823   3.962 -1.0322  0.5743  0.3614
  422MOL0     C58163   0.723   5.911   3.900 -0.2362 -0.4601 -0.3943
  422MOL0     C58164   1.198   5.159   4.030  0.6157  0.5582  0.3301
  422MOL0     C58165   1.330   5.115   4.062  0.4670 -0.2359  1.0103
  422MOL0     C58166   1.347   4.997   4.163  0.7804  0.0981  0.2122
  422MOL0     H58167   1.862   5.364   3.889  1.5882  0.9961  3.3866
  422MOL0     H58168   2.100   5.325   3.883 -0.6351  0.7870  2.4477
  422MOL0     H58169   2.289   5.270   3.971 -2.8922  0.0910 -1.6819
  422MOL0     H58170   2.396   5.143   3.971  0.3621  1.2532 -0.4601
  422MOL0     H58171   2.337   5.177   4.194  1.9923  1.3102 -4.3096
  422MOL0     H58172   2.164   5.167   4.159  0.4900  1.6009  0.6049
  422MOL0     H58173   2.174   4.940   4.112  0.3042  0.3237  0.8454
  422MOL0     H58174   2.357   4.934   4.114  0.0966  2.0084 -0.4345
  422MOL0     H58175   2.356   4.951   4.358 -0.4484  0.8970  1.8819
  422MOL0     H58176   2.211   5.034   4.350  3.7620  1.4100 -1.0115
  422MOL0     H58177   2.087   4.792   4.303  0.1618 -1.8804 -1.1558
  422MOL0     H58178   2.181   4.791   4.461 -1.9884  0.3565 -1.0788
  422MOL0     H58179   2.299   4.676   4.211  1.7409 -0.3292  0.1977
  422MOL0     H58180   2.363   4.677   4.373  0.2075  1.1146 -1.1088
  422MOL0     H58181   2.115   4.556   4.288  1.3339  1.1747 -0.6823
  422MOL0     H58182   2.188   4.557   4.451 -0.6717  0.1505 -0.1969
  422MOL0     H58183   2.227   4.340   4.301  0.4193 -1.1419  0.8210
  422MOL0     H58184   2.342   4.443   4.213  1.5411 -1.4806  1.5653
  422MOL0     H58185   2.318   4.440   4.610 -0.6744 -2.4565  0.3220
  422MOL0     H58186   2.468   4.281   4.774 -1.0584  0.2259  0.6622
  422MOL0     H58187   2.543   4.436   4.775  0.1416 -0.1529  0.5272
  422MOL0     H58188   2.748   4.301   4.659  0.2654  4.3383  2.1082
  422MOL0     H58189   2.742   4.320   4.826 -4.4812  1.9216 -0.0846
  422MOL0     H58190   2.672   4.103   4.873  2.2943 -0.7158  0.8824
  422MOL0     H58191   2.605   4.083   4.708 -1.6235  2.2030  1.0474
  422MOL0     H58192   2.796   3.946   4.765  0.7790  0.2948  2.2954
  422MOL0     H58193   2.852   4.069   4.629 -1.0235 -0.9939  0.0465
  422MOL0     H58194   3.151   4.208   4.852 -0.1528 -1.3097  4.7273
  422MOL0     H58195   3.480   4.159   4.777 -0.0632  0.7597  0.1600
  422MOL0     H58196   3.444   4.123   4.943 -0.8551 -1.2076  0.2195
  422MOL0     H58197   3.348   4.250   4.865  0.1792  0.5868 -1.1777
  422MOL0     H58198   3.679   3.785   4.589  0.1641  1.5732 -0.1318
  422MOL0     H58199   3.901   3.691   4.624  2.8855 -0.6486  2.3327
  422MOL0     H58200   4.064   3.579   4.682 -0.5737 -0.3531  0.8106
  422MOL0     H58201   4.130   3.748   4.650 -1.5541  0.1654  0.1760
  422MOL0     H58202   4.276   3.517   4.807  4.4380 -0.8031 -2.6710
  422MOL0     H58203   4.328   3.583   4.661 -1.8332 -2.9594  0.0523
  422MOL0     H58204   4.323   3.723   4.926  0.0662 -1.3475  0.0387
  422MOL0     H58205   4.320   3.815   4.770  3.3431 -0.1389 -2.3932
  422MOL0     H58206   4.533   3.757   4.723 -2.5563  0.9762  0.6302
  422MOL0     H58207   4.515   3.586   4.776 -2.0845  0.4376 -0.7158
  422MOL0     H58208   4.543   3.678   5.009  2.0794 -0.8183  0.4070
  422MOL0     H58209   4.688   3.675   4.916  1.3644  1.5883  0.5054
  422MOL0     H58210   4.507   3.924   4.949  0.5824 -0.6300 -2.4659
  422MOL0     H58211   4.654   3.905   4.850  1.8628 -2.1401  0.1306
  422MOL0     H58212   4.704   4.014   5.050  2.3075 -0.5222  2.6153
  422MOL0     H58213   4.799   3.874   5.050 -0.7360 -2.6653  1.7281
  422MOL0     H58214   4.685   3.914   5.283  1.1288 -0.0430  0.1266
  422MOL0     H58215   4.605   3.774   5.220 -0.4520 -0.7353  0.4602
  422MOL0     H58216   3.932   3.856   5.012  0.3715  1.2538 -1.1321
  422MOL0     H58217   3.694   3.938   4.980  0.3738 -1.9412  1.1121
  422MOL0     H58218   3.200   3.737   4.708 -1.1256 -0.2112  0.0379
  422MOL0     H58219   2.979   3.824   4.765  1.7458 -3.0287  0.8679
  422MOL0     H58220   2.027   4.897   3.885 -0.8765  0.7722 -0.9486
  422MOL0     H58221   1.775   4.952   3.904 -0.5272 -1.0334 -1.6200
  422MOL0     H58222   1.498   5.317   3.849 -0.8685  2.1890  0.6091
  422MOL0     H58223   1.268   5.396   3.799  2.3781  0.6334  0.4804
  422MOL0     H58224   1.068   5.447   3.808  1.7115 -0.2407  0.2804
  422MOL0     H58225   0.901   5.377   3.803 -1.0051  0.4733  1.6793
  422MOL0     H58226   1.041   5.523   4.029  0.1732 -0.2694 -0.3591
  422MOL0     H58227   0.886   5.440   4.045  1.7735  0.7646  2.4217
  422MOL0     H58228   0.919   5.655   3.828 -0.6349 -0.0603 -0.3405
  422MOL0     H58229   0.779   5.552   3.864  1.2649 -3.2967  0.2848
  422MOL0     H58230   0.913   5.727   4.074 -0.3407  1.8777 -0.1346
  422MOL0     H58231   0.756   5.653   4.092  2.8245 -0.7800  0.6923
  422MOL0     H58232   0.664   5.983   3.847 -2.6761 -0.5367  1.9605
  422MOL0     H58233   1.120   5.097   4.073  0.2438  1.9035  1.6742
  422MOL0     H58234   1.426   5.006   4.238 -1.1151  1.4938  2.1427
  422MOL0     H58235   1.255   4.969   4.214  1.1795 -3.5457 -0.7472
  422MOL0     H58236   1.373   4.914   4.096  0.1064 -3.4152  3.9497
  423MOL0     O58237   9.233   0.392   8.120 -0.3407 -0.3972 -0.0157
  423MOL0     C58238   9.176   0.460   8.204  1.1457  0.2086  0.2962
  423MOL0     O58239   9.221   0.580   8.238  0.1333  0.1335 -0.8388
  423MOL0     C58240   9.352   0.600   8.267 -0.1597 -0.0995  0.1666
  423MOL0     C58241   9.444   0.506   8.300  0.1402 -0.4393 -0.1798
  423MOL0     C58242   9.572   0.527   8.345 -0.3629 -0.2871  0.5814
  423MOL0     C58243   9.623   0.657   8.352  0.3530 -0.7729  0.0684
  423MOL0     O58244   9.736   0.686   8.408  0.2981  0.6217  0.1449
  423MOL0     C58245   9.853   0.674   8.315  0.6727 -0.6031  0.6727
  423MOL0     C58246   9.957   0.786   8.333  0.5199 -0.6830 -0.7002
  423MOL0     C58247  10.059   0.776   8.216 -0.1840  1.0416  0.4343
  423MOL0     C58248  10.169   0.667   8.242 -0.2614  0.4971  1.1461
  423MOL0     C58249  10.267   0.668   8.118 -0.2100 -0.0614 -0.2597
  423MOL0     C58250  10.362   0.546   8.112 -0.2693 -0.1197 -0.0271
  423MOL0     C58251  10.454   0.539   8.234  0.1836  0.4063  0.2916
  423MOL0     C58252  10.531   0.409   8.237 -0.4538  0.4999  0.0067
  423MOL0     N58253  10.441   0.289   8.250  0.0674 -0.4573  0.4637
  423MOL0     C58254  10.351   0.253   8.357  0.2613  0.1887 -0.2213
  423MOL0     C58255  10.322   0.125   8.325  0.9708 -1.2214 -0.6556
  423MOL0     C58256  10.236   0.042   8.417  0.8956 -0.2403  0.6118
  423MOL0     C58257  10.105   0.008   8.345  0.0757  0.1533 -0.0746
  423MOL0     C58258  10.122  -0.128   8.267  0.0589 -0.2056 -0.0306
  423MOL0     C58259  10.145  -0.253   8.362 -0.0202  0.3313 -0.2600
  423MOL0     O58260  10.150  -0.380   8.287  0.4883 -0.9815 -0.3519
  423MOL0     C58261  10.260  -0.400   8.205 -0.5512  0.3032  0.5352
  423MOL0     C58262  10.378  -0.312   8.202  0.0384  0.3828 -0.4447
  423MOL0     C58263  10.481  -0.330   8.109  0.2441  0.4673 -0.4293
  423MOL0     C58264  10.595  -0.236   8.113  0.4891  0.1305  0.2374
  423MOL0     C58265  10.482  -0.443   8.031 -0.4615 -0.5555 -0.0350
  423MOL0     C58266  10.587  -0.462   7.935 -0.2807 -0.2554 -0.5677
  423MOL0     O58267  10.625  -0.355   7.852 -0.2190 -0.2837 -0.1602
  423MOL0     C58268  10.756  -0.357   7.791  0.7048  0.3258  0.2191
  423MOL0     C58269  10.768  -0.276   7.667 -0.3053  0.0198  0.3905
  423MOL0     C58270  10.894  -0.262   7.614  0.2387  0.0529 -0.4514
  423MOL0     C58271  11.004  -0.327   7.663  0.1264 -0.9182 -0.7503
  423MOL0     O58272  11.134  -0.303   7.611  0.5629  0.1612 -0.0450
  423MOL0     C58273  11.235  -0.400   7.630 -0.5808 -0.0193  0.3425
  423MOL0     C58274  11.355  -0.348   7.543  0.2147  0.0873  0.0058
  423MOL0     C58275  11.416  -0.221   7.601 -0.6621  0.8968  0.1005
  423MOL0     C58276  11.491  -0.257   7.727 -1.0432 -0.6052  0.3710
  423MOL0     C58277  11.566  -0.126   7.778  0.4220  0.4524  1.0574
  423MOL0     C58278  11.704  -0.122   7.715 -0.2353 -0.0363  0.5599
  423MOL0     C58279  11.802  -0.043   7.805  0.1461  0.4196  0.4598
  423MOL0     C58280  11.917   0.004   7.707  0.4082 -0.6613 -0.2057
  423MOL0    Cl58281  12.003  -0.138   7.649 -0.4186 -0.2692 -0.1477
  423MOL0     C58282  10.984  -0.411   7.774 -0.1184 -0.1120 -0.0049
  423MOL0     C58283  10.866  -0.432   7.835  0.1516  0.6221  0.3988
  423MOL0     O58284  10.630  -0.578   7.928  0.8848  0.7519 -0.2946
  423MOL0     C58285  10.367  -0.528   8.028  0.1581  0.1541  0.2767
  423MOL0     C58286  10.254  -0.505   8.110 -0.5494 -0.2943  0.0098
  423MOL0     N58287  10.396   0.076   8.226  0.5962 -0.2869  0.4521
  423MOL0     N58288  10.455   0.177   8.180 -0.6103 -0.0313  0.2723
  423MOL0     C58289   9.538   0.756   8.320  0.4447 -0.3111 -1.0230
  423MOL0     C58290   9.405   0.735   8.275  0.2768  0.5421  0.1707
  423MOL0     C58291   9.037   0.428   8.246  0.0300 -1.0933 -1.4492
  423MOL0     C58292   8.953   0.536   8.295 -0.3520 -1.1164  0.2628
  423MOL0     C58293   8.821   0.502   8.321 -0.0891  0.0393  1.0846
  423MOL0     C58294   8.773   0.372   8.304 -0.0560 -0.2345  0.1409
  423MOL0     O58295   8.646   0.329   8.335 -0.2849  0.6629 -0.4134
  423MOL0     C58296   8.544   0.426   8.381 -0.7225 -0.6145 -0.5132
  423MOL0     C58297   8.568   0.453   8.533  0.1034 -0.3357 -0.3088
  423MOL0     C58298   8.511   0.345   8.625  0.3732 -0.4821  0.1609
  423MOL0     C58299   8.564   0.368   8.767  0.0909  0.6970 -0.2459
  423MOL0     C58300   8.589   0.245   8.844  0.2207  0.0739  0.3580
  423MOL0     C58301   8.605   0.147   8.914 -0.8494 -0.1930 -0.8366
  423MOL0     C58302   8.854   0.272   8.261  0.1602 -0.6407  0.8931
  423MOL0     C58303   8.984   0.301   8.227  0.8037 -0.0261  0.4450
  423MOL0     C58304   9.066   0.181   8.205 -0.1762 -0.0791  0.1715
  423MOL0     H58305   9.428   0.399   8.294  2.7123 -0.8802 -0.2821
  423MOL0     H58306   9.631   0.440   8.369  1.3064  0.6324 -0.0355
  423MOL0     H58307   9.820   0.691   8.212 -1.3724  0.1205  1.3836
  423MOL0     H58308   9.892   0.572   8.320 -0.6540 -1.1031  1.3930
  423MOL0     H58309   9.907   0.883   8.328  2.2369  0.1917 -1.9363
  423MOL0     H58310   9.995   0.774   8.435 -3.0028 -1.2183  0.6871
  423MOL0     H58311   9.998   0.766   8.126 -0.0518  2.1292  0.2091
  423MOL0     H58312  10.112   0.870   8.201 -0.0431  0.9273  0.2222
  423MOL0     H58313  10.215   0.703   8.335 -1.0598  3.2094  0.5718
  423MOL0     H58314  10.139   0.561   8.248  1.5890 -0.3932 -2.4920
  423MOL0     H58315  10.321   0.763   8.123 -1.1301  0.4682 -0.0594
  423MOL0     H58316  10.201   0.667   8.031 -0.4752  2.2107 -0.1464
  423MOL0     H58317  10.306   0.452   8.111  0.5320 -0.6065 -0.1417
  423MOL0     H58318  10.417   0.562   8.020 -1.9197 -0.6815 -1.1572
  423MOL0     H58319  10.387   0.542   8.320 -1.3140  2.0990 -0.8510
  423MOL0     H58320  10.527   0.620   8.227  0.1648  0.2940 -1.8516
  423MOL0     H58321  10.581   0.393   8.141 -0.7155  0.0094 -0.0493
  423MOL0     H58322  10.602   0.420   8.320 -0.4119  1.4638 -0.1454
  423MOL0     H58323  10.323   0.306   8.448  1.7518  1.0192 -0.2069
  423MOL0     H58324  10.217   0.102   8.507  1.5331  1.8182 -0.5531
  423MOL0     H58325  10.293  -0.041   8.459 -0.4751 -1.6206 -0.1622
  423MOL0     H58326  10.031  -0.014   8.421  0.9930  0.0482  0.8083
  423MOL0     H58327  10.071   0.082   8.271  0.2506 -0.7131 -1.0412
  423MOL0     H58328  10.037  -0.157   8.205 -1.7917  0.0897  2.2197
  423MOL0     H58329  10.202  -0.101   8.198  1.7150 -3.9219  0.1902
  423MOL0     H58330  10.240  -0.240   8.415  1.5883  0.0110 -2.8809
  423MOL0     H58331  10.057  -0.259   8.427 -0.9474 -3.0503 -1.6425
  423MOL0     H58332  10.377  -0.215   8.249 -2.5040  0.3562 -0.3070
  423MOL0     H58333  10.601  -0.181   8.208  0.4043  1.2858 -0.4046
  423MOL0     H58334  10.562  -0.156   8.046  2.8975  1.9007  0.9987
  423MOL0     H58335  10.692  -0.277   8.083  0.0504 -0.7623  0.0143
  423MOL0     H58336  10.688  -0.212   7.630  1.5485  0.3840 -3.5015
  423MOL0     H58337  10.918  -0.193   7.534  0.8361 -2.7312 -2.8033
  423MOL0     H58338  11.267  -0.417   7.733  0.7015 -0.3257 -0.0930
  423MOL0     H58339  11.203  -0.497   7.592  1.4573 -0.9665  0.9442
  423MOL0     H58340  11.439  -0.417   7.531  1.1959  1.6936 -4.1392
  423MOL0     H58341  11.319  -0.330   7.441 -0.1627 -1.8877 -0.2442
  423MOL0     H58342  11.335  -0.151   7.623 -3.2678 -1.0238 -2.6782
  423MOL0     H58343  11.494  -0.178   7.537 -0.2560  1.3937  0.9178
  423MOL0     H58344  11.557  -0.343   7.712 -0.8511 -0.0200 -2.6426
  423MOL0     H58345  11.417  -0.282   7.804 -1.9350  1.8972  0.4075
  423MOL0     H58346  11.520  -0.038   7.733 -0.9336 -1.1960 -0.9607
  423MOL0     H58347  11.577  -0.138   7.886  2.3517 -1.7738  0.6974
  423MOL0     H58348  11.701  -0.080   7.614 -2.8255 -1.3800 -0.0041
  423MOL0     H58349  11.745  -0.222   7.697 -0.8997 -0.1940 -0.0910
  423MOL0     H58350  11.854  -0.109   7.876  2.3841 -1.5719 -2.7340
  423MOL0     H58351  11.756   0.039   7.861 -1.8329  1.2545 -2.1976
  423MOL0     H58352  11.978   0.071   7.768  0.0397  0.9503 -1.5259
  423MOL0     H58353  11.872   0.071   7.633 -0.9477  0.9023  1.9271
  423MOL0     H58354  11.070  -0.459   7.820 -1.0327  0.8368  2.9146
  423MOL0     H58355  10.856  -0.489   7.927 -0.4207 -0.7513 -0.4973
  423MOL0     H58356  10.366  -0.616   7.965  1.7703  0.8658 -0.8043
  423MOL0     H58357  10.165  -0.568   8.112 -0.2115 -0.7673  0.9240
  423MOL0     H58358   9.567   0.860   8.315  0.7151 -0.3374 -0.1140
  423MOL0     H58359   9.334   0.815   8.257 -0.5792 -0.3894 -0.7361
  423MOL0     H58360   9.001   0.633   8.300 -0.6488 -0.8288 -1.6303
  423MOL0     H58361   8.754   0.582   8.351 -1.8351 -1.3841  1.1746
  423MOL0     H58362   8.553   0.514   8.316  1.1261  0.9339  1.6924
  423MOL0     H58363   8.455   0.362   8.373 -2.4962  1.8841 -2.2936
  423MOL0     H58364   8.534   0.551   8.567  1.0882  0.5723 -1.8894
  423MOL0     H58365   8.676   0.460   8.542  0.0570  1.0418 -0.6112
  423MOL0     H58366   8.401   0.347   8.626  0.1250 -0.6679 -4.5920
  423MOL0     H58367   8.539   0.247   8.586  1.7091  0.6272 -1.8394
  423MOL0     H58368   8.494   0.431   8.822 -1.3123  0.2695 -1.4996
  423MOL0     H58369   8.660   0.420   8.758  0.4250  0.3281  0.9574
  423MOL0     H58370   8.619   0.067   8.984 -0.7312  0.1368 -0.4729
  423MOL0     H58371   8.813   0.172   8.274 -1.3052 -0.0612  0.8846
  423MOL0     H58372   9.073   0.164   8.097 -0.8494  1.4239 -0.1445
  423MOL0     H58373   9.166   0.187   8.250 -0.1652  1.4490 -0.0121
  423MOL0     H58374   9.018   0.094   8.251  1.3591 -2.4456 -2.3401
  424MOL0     O58375   4.946   3.766   2.911 -0.6063 -0.0958 -0.3347
  424MOL0     C58376   4.965   3.888   2.923  0.3992  0.0238 -0.4482
  424MOL0     O58377   5.072   3.935   2.984  0.4253  0.6789 -0.3716
  424MOL0     C58378   5.186   3.861   3.009 -0.4537  0.0926  0.0880
  424MOL0     C58379   5.307   3.932   2.998  0.1935  0.2020  1.1925
  424MOL0     C58380   5.423   3.876   3.019  0.1471 -0.4074 -0.1006
  424MOL0     C58381   5.428   3.744   3.062  0.1590  0.4586 -0.0423
  424MOL0     O58382   5.555   3.683   3.075 -0.6463  1.0904 -0.3065
  424MOL0     C58383   5.575   3.594   3.190 -0.8660  0.2099 -0.2413
  424MOL0     C58384   5.725   3.578   3.208 -0.7699 -0.2186 -0.1631
  424MOL0     C58385   5.813   3.711   3.229 -0.8287 -0.6634 -0.1370
  424MOL0     C58386   5.964   3.671   3.251 -0.3294 -0.1649 -0.0358
  424MOL0     C58387   6.049   3.800   3.275  0.2478  0.1617  0.2121
  424MOL0     C58388   6.179   3.773   3.348 -0.2806 -0.4831  0.2378
  424MOL0     C58389   6.211   3.889   3.431  0.0085  0.5480  0.1280
  424MOL0     C58390   6.221   4.020   3.348 -0.2329 -0.1448 -0.6358
  424MOL0     N58391   6.266   4.127   3.436 -0.5502  0.0308 -0.2618
  424MOL0     C58392   6.189   4.216   3.508 -0.2664 -0.0393  0.7359
  424MOL0     C58393   6.279   4.282   3.591 -0.7605  0.5232 -0.6392
  424MOL0     C58394   6.236   4.380   3.694 -0.2847 -0.5369 -0.8518
  424MOL0     C58395   6.355   4.415   3.777 -0.5130 -0.0168  0.7297
  424MOL0     C58396   6.318   4.525   3.876  0.5948 -0.2957 -0.5797
  424MOL0     C58397   6.408   4.659   3.878  1.1335  0.2415 -0.0486
  424MOL0     O58398   6.534   4.617   3.933  0.1163  0.0748  0.1964
  424MOL0     C58399   6.640   4.706   3.926  0.3631 -0.0283  0.7164
  424MOL0     C58400   6.647   4.835   3.858 -0.1701  0.3568  0.4747
  424MOL0     C58401   6.766   4.909   3.844 -0.1055 -0.6173  0.1375
  424MOL0     C58402   6.763   5.029   3.753 -0.4342 -0.1805 -0.5860
  424MOL0     C58403   6.880   4.868   3.919  0.4096 -0.2926 -0.3476
  424MOL0     C58404   7.008   4.950   3.930  0.4837 -0.0878 -0.6923
  424MOL0     O58405   7.086   4.920   4.042 -0.0503  0.4211  0.3197
  424MOL0     C58406   7.218   4.971   4.062 -0.5709  0.6284 -0.8659
  424MOL0     C58407   7.317   4.873   4.067 -0.1842  0.9326 -0.1203
  424MOL0     C58408   7.454   4.912   4.070  0.2835  0.9491 -0.3403
  424MOL0     C58409   7.493   5.043   4.053 -0.2125 -0.7606 -0.3596
  424MOL0     O58410   7.624   5.064   4.041 -0.3270  0.1891  0.5183
  424MOL0     C58411   7.657   5.189   3.988 -0.5284 -0.7270 -0.1740
  424MOL0     C58412   7.806   5.180   3.968 -0.3787 -0.4781 -0.2470
  424MOL0     C58413   7.870   5.310   3.923 -1.0128  0.2273  0.1059
  424MOL0     C58414   8.016   5.332   3.976 -0.4896 -0.3668 -0.2526
  424MOL0     C58415   8.079   5.457   3.909  0.8965 -0.0287  0.1297
  424MOL0     C58416   8.221   5.467   3.946  0.1917 -0.6540  0.3949
  424MOL0     C58417   8.295   5.569   3.853 -0.3129  0.6112  0.2976
  424MOL0     C58418   8.446   5.561   3.871  0.8272  0.1216 -0.1537
  424MOL0    Cl58419   8.530   5.699   3.816  0.1856  0.2695  0.2250
  424MOL0     C58420   7.397   5.141   4.059  0.9272 -0.4599  0.2654
  424MOL0     C58421   7.259   5.104   4.053  0.3565  0.4352  0.2600
  424MOL0     O58422   7.042   5.019   3.835 -0.1583  0.0914  0.0845
  424MOL0     C58423   6.864   4.747   3.999 -0.1952  0.4511  1.1544
  424MOL0     C58424   6.747   4.671   4.000 -0.1536  0.2760  0.0856
  424MOL0     N58425   6.403   4.237   3.543  0.4583 -0.2253 -1.0118
  424MOL0     N58426   6.396   4.164   3.442  0.6129 -0.1907 -0.2549
  424MOL0     C58427   5.306   3.674   3.096  0.2277  0.5880  0.2826
  424MOL0     C58428   5.183   3.737   3.073  0.7146  0.6276 -0.1077
  424MOL0     C58429   4.863   3.982   2.910 -0.1540  0.2296 -1.1413
  424MOL0     C58430   4.858   4.100   2.990 -0.5440  0.7463 -0.3306
  424MOL0     C58431   4.752   4.192   2.984  0.7077  0.3757 -0.0489
  424MOL0     C58432   4.644   4.172   2.896 -0.4851  0.4986 -0.3680
  424MOL0     O58433   4.553   4.274   2.884 -0.0494 -0.9701  0.0877
  424MOL0     C58434   4.427   4.246   2.841  0.4715 -0.7055  0.4780
  424MOL0     C58435   4.346   4.377   2.871  0.0529 -0.7369 -0.1103
  424MOL0     C58436   4.194   4.382   2.845  0.1492 -0.8229  0.1522
  424MOL0     C58437   4.177   4.412   2.699  0.3915 -0.7282  1.4817
  424MOL0     C58438   4.037   4.389   2.665  0.4382  0.7848 -0.2290
  424MOL0     C58439   3.915   4.378   2.640  0.6025  0.0848 -0.6024
  424MOL0     C58440   4.642   4.055   2.821  1.0710 -0.4667 -0.2211
  424MOL0     C58441   4.749   3.965   2.824  0.3832 -0.2659 -0.7076
  424MOL0     C58442   4.726   3.838   2.755  0.1683 -0.6322 -0.0641
  424MOL0     H58443   5.294   4.031   2.955 -4.4692 -0.0671  1.3914
  424MOL0     H58444   5.512   3.937   3.021 -0.1734  0.1867 -1.9946
  424MOL0     H58445   5.531   3.495   3.178 -0.3972  0.1566 -1.6340
  424MOL0     H58446   5.548   3.634   3.288  1.2762 -1.6978  1.2403
  424MOL0     H58447   5.734   3.503   3.287 -3.2915  0.1646  0.5627
  424MOL0     H58448   5.768   3.524   3.124 -1.6592 -2.2065  0.6016
  424MOL0     H58449   5.806   3.768   3.136  0.2884 -2.1328 -1.1870
  424MOL0     H58450   5.781   3.760   3.321  2.5775 -1.1063  1.4613
  424MOL0     H58451   5.965   3.629   3.352 -1.0625  3.2065  1.5361
  424MOL0     H58452   6.002   3.604   3.174 -0.2054  2.5969 -2.5341
  424MOL0     H58453   5.992   3.888   3.306  2.5459  1.9927 -0.4596
  424MOL0     H58454   6.077   3.830   3.173 -0.3653  1.5359  0.4297
  424MOL0     H58455   6.164   3.689   3.417 -2.4581  0.1741  0.6288
  424MOL0     H58456   6.262   3.741   3.284 -1.2924  1.6009 -2.3141
  424MOL0     H58457   6.312   3.876   3.470  1.5284  3.8068 -2.2722
  424MOL0     H58458   6.139   3.898   3.513  0.8492 -0.5491  1.0227
  424MOL0     H58459   6.293   4.004   3.267 -2.3530 -2.2411 -2.2374
  424MOL0     H58460   6.125   4.046   3.302  0.8279  0.8047 -2.4151
  424MOL0     H58461   6.081   4.219   3.518 -0.4136  0.0886 -0.6598
  424MOL0     H58462   6.151   4.341   3.751  0.5528  1.4790  1.9830
  424MOL0     H58463   6.185   4.455   3.633 -0.8074 -1.5072 -1.6360
  424MOL0     H58464   6.389   4.325   3.829  1.8862  0.4276  0.0759
  424MOL0     H58465   6.440   4.445   3.715 -1.3887 -0.3914 -0.6927
  424MOL0     H58466   6.217   4.559   3.849 -1.0514 -2.7475  1.9431
  424MOL0     H58467   6.309   4.493   3.980 -1.2483 -0.8417 -0.8791
  424MOL0     H58468   6.420   4.694   3.776  1.3974 -1.2128 -0.5417
  424MOL0     H58469   6.364   4.747   3.926 -1.4557 -0.0122 -1.7363
  424MOL0     H58470   6.554   4.866   3.812  0.5771  1.0950 -0.5815
  424MOL0     H58471   6.844   5.046   3.682 -0.5825  0.9278 -0.5043
  424MOL0     H58472   6.772   5.122   3.810  2.5103 -0.8222  0.2141
  424MOL0     H58473   6.668   5.027   3.700 -0.8593 -1.3550  0.1951
  424MOL0     H58474   7.287   4.769   4.071  1.7808  0.3720  0.9273
  424MOL0     H58475   7.534   4.840   4.080 -2.1704 -1.8378  0.4660
  424MOL0     H58476   7.602   5.214   3.896 -1.4244 -1.2864  0.1897
  424MOL0     H58477   7.632   5.273   4.053  0.0195 -0.3192 -0.4826
  424MOL0     H58478   7.856   5.151   4.061  0.9093  1.0937 -0.4169
  424MOL0     H58479   7.828   5.103   3.893  1.2392 -2.2863  1.9305
  424MOL0     H58480   7.808   5.394   3.958  1.4102  2.0112  0.3781
  424MOL0     H58481   7.883   5.309   3.814  3.1122  1.2649  0.4138
  424MOL0     H58482   8.073   5.241   3.955 -1.8934 -1.3604  0.0938
  424MOL0     H58483   8.012   5.339   4.085 -0.9730  1.0274 -0.3385
  424MOL0     H58484   8.059   5.448   3.801  3.5444  1.9630 -0.6451
  424MOL0     H58485   8.031   5.547   3.948  0.3261 -0.2521 -0.0507
  424MOL0     H58486   8.262   5.366   3.938 -0.0877 -0.8284  1.0265
  424MOL0     H58487   8.229   5.509   4.047 -0.1036 -1.1699  0.6366
  424MOL0     H58488   8.264   5.671   3.880  1.9747  1.8670 -1.5069
  424MOL0     H58489   8.284   5.557   3.745 -2.5949  4.1966 -0.0534
  424MOL0     H58490   8.490   5.469   3.829 -1.2062 -0.0015 -2.2229
  424MOL0     H58491   8.472   5.567   3.977  1.0743  1.7854 -0.2813
  424MOL0     H58492   7.422   5.246   4.048  0.2938 -0.4166 -1.0185
  424MOL0     H58493   7.181   5.178   4.042  0.3290  0.2215 -1.0991
  424MOL0     H58494   6.954   4.708   4.045  1.5770  2.3251 -0.4934
  424MOL0     H58495   6.744   4.572   4.044 -0.3875  1.7280  3.6750
  424MOL0     H58496   5.318   3.578   3.146  0.7229  0.2190 -0.5319
  424MOL0     H58497   5.089   3.702   3.113 -0.0490  2.7333  0.0916
  424MOL0     H58498   4.935   4.132   3.060 -0.6281  2.7354 -1.0843
  424MOL0     H58499   4.760   4.289   3.031  1.5720  0.8243 -1.0885
  424MOL0     H58500   4.419   4.224   2.734 -1.4618 -3.0260  1.0138
  424MOL0     H58501   4.387   4.158   2.892 -0.9187 -0.0960  0.4814
  424MOL0     H58502   4.393   4.455   2.810 -0.7028  0.1211  0.3803
  424MOL0     H58503   4.351   4.390   2.980 -0.7596 -2.0764  0.1102
  424MOL0     H58504   4.149   4.289   2.881 -2.7085  0.8040  1.0925
  424MOL0     H58505   4.156   4.464   2.906 -3.0653 -1.7412 -0.4079
  424MOL0     H58506   4.235   4.351   2.629 -1.3542  0.3262 -1.0478
  424MOL0     H58507   4.189   4.520   2.682 -1.1087 -0.2994  2.8813
  424MOL0     H58508   3.812   4.353   2.623  0.9418 -1.1017 -1.0223
  424MOL0     H58509   4.557   4.045   2.755  0.0374  1.5901  0.7242
  424MOL0     H58510   4.632   3.840   2.699 -1.4706  0.5320  2.5210
  424MOL0     H58511   4.799   3.816   2.676  0.9256  0.9338  0.1587
  424MOL0     H58512   4.717   3.755   2.826 -0.8756  0.6665  1.3791
  425MOL0     O58513  10.573   8.781   0.618 -0.3155  0.0642  0.2971
  425MOL0     C58514  10.548   8.803   0.498 -0.4364 -0.1324 -0.4519
  425MOL0     O58515  10.643   8.807   0.400 -0.2229 -0.0605 -0.3816
  425MOL0     C58516  10.778   8.813   0.432  0.8103 -0.2873  0.8306
  425MOL0     C58517  10.849   8.718   0.509  0.0277 -0.0701 -0.9355
  425MOL0     C58518  10.986   8.732   0.533  0.2369  0.1405  0.0856
  425MOL0     C58519  11.067   8.837   0.486 -0.5400  0.1580 -0.3008
  425MOL0     O58520  11.201   8.822   0.513  0.0629  0.1776 -1.1934
  425MOL0     C58521  11.295   8.903   0.448 -0.0777  0.2225  0.1170
  425MOL0     C58522  11.338   8.847   0.303  0.3240  0.6906 -0.7793
  425MOL0     C58523  11.416   8.718   0.320  0.1954  0.2634 -0.6631
  425MOL0     C58524  11.567   8.728   0.368  0.3031 -0.2034 -0.1838
  425MOL0     C58525  11.637   8.596   0.368  0.1223  0.2075 -0.5150
  425MOL0     C58526  11.627   8.506   0.242 -0.2169  0.6278 -0.1626
  425MOL0     C58527  11.739   8.396   0.249 -0.3477 -0.6226 -0.4839
  425MOL0     C58528  11.761   8.338   0.111  0.4484  0.3826 -0.9216
  425MOL0     N58529  11.866   8.236   0.112  0.7141  0.1579  0.5194
  425MOL0     C58530  11.952   8.216   0.216 -0.8726  0.5920 -0.3703
  425MOL0     C58531  12.013   8.101   0.191 -0.0778  0.3687 -0.2673
  425MOL0     C58532  12.095   8.031   0.283  0.0309  0.5689 -0.5824
  425MOL0     C58533  12.239   8.056   0.238 -0.2814  0.6362  0.7173
  425MOL0     C58534  12.325   7.964   0.329  0.0523 -0.4592 -0.0830
  425MOL0     C58535  12.474   7.970   0.296 -0.3786  0.3187 -0.6888
  425MOL0     O58536  12.528   7.859   0.370 -0.4329 -0.0193 -0.3443
  425MOL0     C58537  12.658   7.861   0.399 -0.7537 -0.5585  0.1582
  425MOL0     C58538  12.744   7.974   0.373 -0.4450  0.0133  0.8608
  425MOL0     C58539  12.880   7.982   0.402 -1.2303 -0.1765 -0.2631
  425MOL0     C58540  12.948   8.121   0.391  0.2894  0.3653  0.4816
  425MOL0     C58541  12.946   7.874   0.463  0.1195  0.2902  0.3837
  425MOL0     C58542  13.092   7.854   0.485  0.5512 -0.7289  0.3040
  425MOL0     O58543  13.135   7.751   0.555  0.3754 -0.1751  0.2312
  425MOL0     C58544  13.255   7.752   0.624  0.6117 -0.8240 -0.6126
  425MOL0     C58545  13.295   7.876   0.671 -0.3278  0.0826 -0.0171
  425MOL0     C58546  13.414   7.884   0.728 -0.5345 -0.2279 -0.1424
  425MOL0     C58547  13.493   7.766   0.746  0.0960 -0.7290  0.3503
  425MOL0     O58548  13.626   7.786   0.787 -0.0590  0.0512 -0.4558
  425MOL0     C58549  13.711   7.892   0.739 -0.9463  0.3314 -0.2588
  425MOL0     C58550  13.745   7.881   0.589 -0.0172 -0.0435  0.4076
  425MOL0     C58551  13.886   7.933   0.562  0.9594 -0.5646 -0.9651
  425MOL0     C58552  13.915   7.926   0.413 -0.5712 -0.2691  0.7177
  425MOL0     C58553  14.048   7.993   0.364  0.1833 -0.4989 -1.0265
  425MOL0     C58554  14.047   8.145   0.374 -0.9020  0.1142 -0.6610
  425MOL0     C58555  14.160   8.222   0.319 -0.4792  0.0132 -0.1406
  425MOL0     C58556  14.294   8.179   0.380 -0.7850  0.3276 -0.1701
  425MOL0    Cl58557  14.434   8.274   0.338  0.6465  0.2150 -0.6565
  425MOL0     C58558  13.455   7.637   0.714  0.0937  0.0367 -0.3859
  425MOL0     C58559  13.331   7.628   0.645  0.7487 -0.6890 -0.4849
  425MOL0     O58560  13.166   7.930   0.421 -0.2113  0.5177 -0.6811
  425MOL0     C58561  12.856   7.762   0.498 -0.0525  0.9733 -0.6344
  425MOL0     C58562  12.723   7.747   0.462  0.2511 -0.0780  0.0724
  425MOL0     N58563  11.960   8.051   0.076 -0.6774  0.1943  0.5016
  425MOL0     N58564  11.880   8.131   0.022 -0.0887  0.5916 -0.0032
  425MOL0     C58565  11.002   8.929   0.400 -0.4360 -0.1237 -0.0474
  425MOL0     C58566  10.860   8.918   0.380 -0.2712 -0.5552 -0.3380
  425MOL0     C58567  10.406   8.794   0.454 -0.8238 -0.4207  0.1035
  425MOL0     C58568  10.314   8.831   0.557  1.0797 -0.5741  0.5613
  425MOL0     C58569  10.178   8.821   0.533 -0.0952  1.1037  0.0033
  425MOL0     C58570  10.131   8.780   0.404 -0.0751 -0.0306 -0.2088
  425MOL0     O58571  10.004   8.783   0.352  0.4272 -0.0506 -0.2951
  425MOL0     C58572   9.902   8.853   0.433  0.7262 -0.0624  1.0440
  425MOL0     C58573   9.767   8.862   0.350  0.0644  0.2325  0.5662
  425MOL0     C58574   9.667   8.741   0.359  1.0348 -0.4329 -0.4359
  425MOL0     C58575   9.558   8.768   0.255  0.0717 -0.7498 -0.0712
  425MOL0     C58576   9.457   8.662   0.254  0.4462 -1.5597 -1.2072
  425MOL0     C58577   9.361   8.586   0.257 -0.1019 -0.4452  0.1079
  425MOL0     C58578  10.228   8.757   0.307  0.6299 -0.0632  1.3547
  425MOL0     C58579  10.364   8.756   0.328 -0.0067  0.7530  0.1723
  425MOL0     C58580  10.448   8.705   0.216  0.9973  0.6740  0.6152
  425MOL0     H58581  10.792   8.636   0.550  0.2078 -0.3404 -1.2242
  425MOL0     H58582  11.043   8.656   0.586  2.0929 -0.1048 -2.1021
  425MOL0     H58583  11.387   8.922   0.505 -0.4013  1.0137  0.3941
  425MOL0     H58584  11.248   8.999   0.425  2.2525  1.4573  0.1511
  425MOL0     H58585  11.247   8.841   0.243 -0.2870  1.7795 -0.0058
  425MOL0     H58586  11.394   8.926   0.251 -0.6344  1.2684 -0.9764
  425MOL0     H58587  11.363   8.651   0.388  0.2188  0.7171 -0.1960
  425MOL0     H58588  11.413   8.668   0.222  1.4056 -1.1144 -0.0494
  425MOL0     H58589  11.626   8.795   0.305  1.4201 -1.0127 -0.0280
  425MOL0     H58590  11.573   8.768   0.470  0.3386 -0.3909 -0.1114
  425MOL0     H58591  11.592   8.542   0.451  0.1928  3.2615  1.6497
  425MOL0     H58592  11.741   8.616   0.394 -0.4285  0.8409  1.2988
  425MOL0     H58593  11.526   8.466   0.228 -0.0421  0.9936 -3.1284
  425MOL0     H58594  11.647   8.576   0.160  0.5443  3.2067  2.0862
  425MOL0     H58595  11.707   8.317   0.318 -1.0931 -0.3184 -0.4754
  425MOL0     H58596  11.825   8.451   0.288 -1.3696  1.0038 -0.4043
  425MOL0     H58597  11.669   8.296   0.068  1.4721  0.0877 -2.9230
  425MOL0     H58598  11.798   8.416   0.045  2.1195  0.1607 -0.2930
  425MOL0     H58599  11.955   8.266   0.312 -0.9836  0.0829 -0.0954
  425MOL0     H58600  12.071   7.926   0.269  1.3833  0.1918 -0.2121
  425MOL0     H58601  12.074   8.040   0.390 -1.1556 -2.1319 -0.5099
  425MOL0     H58602  12.252   8.013   0.139 -1.0865  0.9708  0.4602
  425MOL0     H58603  12.273   8.159   0.247  3.6575 -0.5295  1.0961
  425MOL0     H58604  12.321   7.986   0.436  0.2809 -0.5237 -0.0598
  425MOL0     H58605  12.291   7.862   0.310  2.0274 -1.0541 -0.6920
  425MOL0     H58606  12.497   7.951   0.191  2.5430 -1.7496  0.2092
  425MOL0     H58607  12.504   8.067   0.338 -2.3159  2.2359 -3.3353
  425MOL0     H58608  12.704   8.064   0.328  1.7607  0.3284 -0.5986
  425MOL0     H58609  13.038   8.127   0.454  1.1204 -4.0519  0.0557
  425MOL0     H58610  12.883   8.205   0.417  0.7492  0.5185  1.1805
  425MOL0     H58611  12.975   8.139   0.287  0.4578 -1.6535  0.1370
  425MOL0     H58612  13.232   7.963   0.658  0.2334  0.1342 -3.1917
  425MOL0     H58613  13.455   7.982   0.750 -1.0600 -0.4518  2.0301
  425MOL0     H58614  13.669   7.991   0.762 -1.2758  0.2536 -0.5171
  425MOL0     H58615  13.807   7.906   0.790 -0.8075 -1.8424  0.1810
  425MOL0     H58616  13.738   7.781   0.545  2.4950  0.7983 -2.2270
  425MOL0     H58617  13.671   7.938   0.532  0.6734  1.7137  1.2115
  425MOL0     H58618  13.960   7.876   0.619  0.3611 -0.0573  0.3847
  425MOL0     H58619  13.901   8.033   0.602  1.2834 -0.6853 -0.7859
  425MOL0     H58620  13.838   7.975   0.353  2.3494  1.4860 -1.9313
  425MOL0     H58621  13.917   7.819   0.390 -0.1263 -0.6149  2.2270
  425MOL0     H58622  14.134   7.952   0.417  0.1813  0.2183 -0.4433
  425MOL0     H58623  14.064   7.978   0.257  2.2064 -0.7819 -0.7266
  425MOL0     H58624  14.050   8.168   0.481  3.6026  1.3425 -0.8666
  425MOL0     H58625  13.953   8.190   0.341 -1.0779  0.9492  0.8533
  425MOL0     H58626  14.152   8.326   0.352 -1.3309 -0.2321  0.4560
  425MOL0     H58627  14.162   8.208   0.211 -3.5861  2.9598 -0.7705
  425MOL0     H58628  14.312   8.074   0.358  0.7718  0.8541 -1.6205
  425MOL0     H58629  14.285   8.190   0.489 -0.6203  3.8349 -0.3856
  425MOL0     H58630  13.521   7.553   0.732 -0.6259 -0.0379  2.3227
  425MOL0     H58631  13.283   7.532   0.627  1.4077 -0.8123 -1.6441
  425MOL0     H58632  12.898   7.679   0.554  0.5536  1.4769 -0.3288
  425MOL0     H58633  12.670   7.654   0.482  0.4765 -0.0867  0.6603
  425MOL0     H58634  11.055   9.012   0.356  1.1395 -1.2166 -0.2778
  425MOL0     H58635  10.818   8.989   0.310  0.8364 -2.2632 -2.9252
  425MOL0     H58636  10.346   8.865   0.656  2.0299  1.8827 -0.5011
  425MOL0     H58637  10.108   8.850   0.610  0.8761  1.6920  0.6794
  425MOL0     H58638   9.879   8.804   0.528  3.1631  1.6122  2.5902
  425MOL0     H58639   9.938   8.954   0.453  1.3892  0.4150 -2.0778
  425MOL0     H58640   9.789   8.901   0.250 -3.0379  2.1362  0.5023
  425MOL0     H58641   9.709   8.948   0.385 -2.7835 -0.7595 -1.3739
  425MOL0     H58642   9.724   8.659   0.315  1.3572 -0.3204 -0.2285
  425MOL0     H58643   9.625   8.731   0.459  0.7004  1.2358 -0.3705
  425MOL0     H58644   9.600   8.788   0.156 -0.1355 -1.2414 -0.2665
  425MOL0     H58645   9.511   8.863   0.279 -1.1787 -0.8843 -1.7787
  425MOL0     H58646   9.282   8.513   0.252  0.5056 -1.0539 -0.9810
  425MOL0     H58647  10.189   8.744   0.207  0.6512  0.2790  1.3002
  425MOL0     H58648  10.399   8.698   0.119  2.0975 -3.6023  0.1350
  425MOL0     H58649  10.532   8.771   0.195  1.3210  0.5259  1.4026
  425MOL0     H58650  10.469   8.602   0.247 -3.3441 -0.3757  0.6928
  426MOL0     O58651   1.852   6.474   5.545  0.6192  0.5314  0.8954
  426MOL0     C58652   1.805   6.448   5.656 -0.4958  0.1693 -0.4141
  426MOL0     O58653   1.888   6.431   5.764 -0.2521  0.1328 -0.0354
  426MOL0     C58654   2.019   6.394   5.766  0.0934  0.0896 -0.0559
  426MOL0     C58655   2.054   6.313   5.877 -0.2737 -0.7065  0.3332
  426MOL0     C58656   2.187   6.271   5.897 -0.5354 -0.1919 -1.0716
  426MOL0     C58657   2.286   6.305   5.804  0.2999 -0.1060 -0.3868
  426MOL0     O58658   2.410   6.257   5.832  0.4435 -0.9455  0.1824
  426MOL0     C58659   2.512   6.250   5.729  0.2558  0.1375  0.0732
  426MOL0     C58660   2.647   6.201   5.787  0.0601  0.1276 -0.0698
  426MOL0     C58661   2.693   6.281   5.914  0.8215 -0.9885 -0.2716
  426MOL0     C58662   2.739   6.421   5.884 -0.0579 -0.4891 -0.4784
  426MOL0     C58663   2.800   6.505   5.994 -0.2475  0.4207 -0.5439
  426MOL0     C58664   2.910   6.427   6.073  0.1796 -0.6724  1.0186
  426MOL0     C58665   2.960   6.521   6.181 -0.3909  0.9178 -0.1914
  426MOL0     C58666   3.061   6.446   6.269  0.4490 -0.6203 -0.4253
  426MOL0     N58667   3.129   6.552   6.354 -0.1635  1.3331 -0.3773
  426MOL0     C58668   3.219   6.637   6.312 -0.2562  0.5260  0.1493
  426MOL0     C58669   3.269   6.708   6.417 -0.1492 -1.3475 -0.1060
  426MOL0     C58670   3.346   6.843   6.411 -0.1096  0.0092 -0.1825
  426MOL0     C58671   3.462   6.832   6.512 -0.7822 -0.6166 -0.5270
  426MOL0     C58672   3.560   6.939   6.508 -0.6596 -1.2891 -0.5056
  426MOL0     C58673   3.638   6.951   6.377 -0.3516 -0.1357 -0.5820
  426MOL0     O58674   3.700   6.833   6.324 -0.6309 -0.9293  0.6298
  426MOL0     C58675   3.827   6.858   6.273 -0.2532  0.4926  0.0922
  426MOL0     C58676   3.845   6.953   6.173 -0.2970 -0.9396  0.5723
  426MOL0     C58677   3.975   6.995   6.137  0.1420 -0.1204 -0.6096
  426MOL0     C58678   3.993   7.110   6.042  0.4494  0.0312  0.7309
  426MOL0     C58679   4.084   6.916   6.183 -0.6095 -0.6083  1.2165
  426MOL0     C58680   4.223   6.936   6.140  0.6964  0.3774  0.8862
  426MOL0     O58681   4.271   7.066   6.153  0.5856  0.1554 -0.6604
  426MOL0     C58682   4.394   7.101   6.122 -0.2668  0.6358  0.5983
  426MOL0     C58683   4.424   7.227   6.081  0.1580  0.1017  0.3976
  426MOL0     C58684   4.555   7.264   6.045  0.6261 -0.6220 -0.7598
  426MOL0     C58685   4.653   7.178   6.059 -0.2247 -0.3284 -0.6159
  426MOL0     O58686   4.787   7.209   6.026 -0.0022  0.0884 -0.0092
  426MOL0     C58687   4.827   7.142   5.895  0.1331 -0.9645 -0.3580
  426MOL0     C58688   4.959   7.183   5.847  0.5998  0.3883  0.6045
  426MOL0     C58689   5.083   7.122   5.910 -0.3889  0.5792 -0.0067
  426MOL0     C58690   5.102   6.969   5.871  0.8174 -0.4068  0.3481
  426MOL0     C58691   5.239   6.912   5.909 -0.7042  0.4833  0.5596
  426MOL0     C58692   5.247   6.767   5.847  0.2236 -0.4195 -0.6292
  426MOL0     C58693   5.375   6.697   5.901 -0.1330  0.2917  0.2397
  426MOL0     C58694   5.365   6.547   5.885 -0.3226  0.3554 -0.0406
  426MOL0    Cl58695   5.320   6.489   5.718 -0.1540 -0.0994 -0.2042
  426MOL0     C58696   4.630   7.058   6.117 -0.8923 -0.3708 -0.2477
  426MOL0     C58697   4.498   7.012   6.153  0.1450  0.3212  0.0296
  426MOL0     O58698   4.278   6.836   6.092 -0.3585 -0.3152  0.5692
  426MOL0     C58699   4.061   6.813   6.277 -0.4161  0.4196  0.1523
  426MOL0     C58700   3.933   6.775   6.316  0.1869  0.0080  0.3259
  426MOL0     N58701   3.212   6.656   6.529  0.4366  0.5098  0.1791
  426MOL0     N58702   3.138   6.557   6.488 -0.3960  0.1784 -0.2482
  426MOL0     C58703   2.248   6.381   5.692  0.3591 -1.0221  0.3252
  426MOL0     C58704   2.118   6.430   5.674 -0.7018  0.3103 -0.3300
  426MOL0     C58705   1.662   6.440   5.674  0.8951 -0.2879  0.3873
  426MOL0     C58706   1.585   6.432   5.554 -0.4000 -0.0243  0.0367
  426MOL0     C58707   1.449   6.397   5.554  0.2157 -0.5005 -0.8845
  426MOL0     C58708   1.388   6.391   5.681 -1.1788  0.5890  0.8187
  426MOL0     O58709   1.257   6.361   5.687  0.8084 -0.1747 -0.6190
  426MOL0     C58710   1.207   6.264   5.592 -0.7265  0.8542  0.5575
  426MOL0     C58711   1.065   6.206   5.619  0.1951 -0.8340  1.1242
  426MOL0     C58712   0.943   6.286   5.555 -0.3727  0.0739 -0.0194
  426MOL0     C58713   0.929   6.242   5.404  0.3024  0.4935 -0.0287
  426MOL0     C58714   0.812   6.290   5.335  0.1901 -0.6090  0.8018
  426MOL0     C58715   0.713   6.339   5.280 -0.0340 -0.7765  0.4243
  426MOL0     C58716   1.454   6.424   5.788 -0.3749  0.1030  0.2202
  426MOL0     C58717   1.589   6.438   5.792 -0.2226  0.3602 -0.8752
  426MOL0     C58718   1.650   6.471   5.927 -1.3004 -0.0963 -0.4354
  426MOL0     H58719   1.987   6.271   5.951 -0.3758  2.5204  2.2554
  426MOL0     H58720   2.220   6.216   5.984 -0.7525 -0.7764 -1.3484
  426MOL0     H58721   2.535   6.348   5.684 -1.4098  0.3075 -0.4630
  426MOL0     H58722   2.481   6.179   5.652 -1.3947  0.8059  0.0945
  426MOL0     H58723   2.619   6.103   5.826 -2.4856  1.2981  1.2873
  426MOL0     H58724   2.722   6.197   5.707  0.5724 -2.2984  0.4681
  426MOL0     H58725   2.610   6.284   5.985  0.4562 -1.7043 -0.6611
  426MOL0     H58726   2.780   6.230   5.958 -0.2808 -0.5373  2.6645
  426MOL0     H58727   2.806   6.423   5.798 -0.2725 -0.7437 -0.6557
  426MOL0     H58728   2.651   6.484   5.868  0.5351  0.2205 -0.9733
  426MOL0     H58729   2.719   6.527   6.064  0.8405 -2.5142  1.8745
  426MOL0     H58730   2.848   6.600   5.967  0.4184  0.3646  0.3597
  426MOL0     H58731   2.861   6.340   6.118  1.5822 -2.6660 -1.0958
  426MOL0     H58732   2.987   6.390   6.006 -0.4591 -1.8816  0.9259
  426MOL0     H58733   2.879   6.542   6.251  1.0374 -0.8775  2.1423
  426MOL0     H58734   3.005   6.616   6.150 -0.9949  1.1934 -0.2237
  426MOL0     H58735   3.014   6.380   6.343  0.0066  0.6573  0.4886
  426MOL0     H58736   3.141   6.394   6.216  1.7878  1.2446 -0.3212
  426MOL0     H58737   3.246   6.647   6.207 -3.4721  0.4572 -0.7750
  426MOL0     H58738   3.289   6.934   6.431 -1.6160 -0.9476  0.0250
  426MOL0     H58739   3.377   6.847   6.306  1.7937  0.0267  0.3403
  426MOL0     H58740   3.422   6.844   6.614 -1.9217 -0.4553 -0.9798
  426MOL0     H58741   3.501   6.731   6.499 -0.1922 -0.7318  1.6479
  426MOL0     H58742   3.502   7.031   6.517  1.2425 -0.1506  0.6401
  426MOL0     H58743   3.632   6.933   6.590  0.1415 -0.0091 -1.0957
  426MOL0     H58744   3.566   6.991   6.306 -0.9783  1.7870  1.0365
  426MOL0     H58745   3.702   7.039   6.387  1.7775 -1.4845 -1.6398
  426MOL0     H58746   3.752   6.998   6.141 -1.1135 -0.4754  3.3319
  426MOL0     H58747   4.052   7.188   6.091 -0.1344  0.2025  1.1717
  426MOL0     H58748   3.896   7.157   6.021  0.3693  1.1404  3.2419
  426MOL0     H58749   4.043   7.084   5.948 -1.9447 -1.9833 -0.1036
  426MOL0     H58750   4.339   7.295   6.077  2.2154  2.9163  1.6142
  426MOL0     H58751   4.562   7.368   6.015 -3.9725 -0.0121 -0.4397
  426MOL0     H58752   4.830   7.033   5.899  1.2932 -0.9749 -1.1489
  426MOL0     H58753   4.751   7.166   5.819 -2.9797 -1.3019  2.3970
  426MOL0     H58754   4.960   7.167   5.739  2.1340  2.0034  0.3301
  426MOL0     H58755   4.963   7.292   5.846  1.5877  0.4243 -2.4090
  426MOL0     H58756   5.079   7.137   6.018 -1.4435  2.6963 -0.2875
  426MOL0     H58757   5.180   7.167   5.884  0.3592 -0.1853  1.3613
  426MOL0     H58758   5.088   6.949   5.765  0.3984 -0.3742  0.3977
  426MOL0     H58759   5.035   6.908   5.931 -0.7487  2.0170  1.2138
  426MOL0     H58760   5.322   6.969   5.866  0.4103 -2.5763 -1.7205
  426MOL0     H58761   5.258   6.919   6.016  2.0986  0.8377  0.1057
  426MOL0     H58762   5.239   6.777   5.739 -1.5863  2.4015 -0.3551
  426MOL0     H58763   5.158   6.712   5.879  0.2635 -0.5842 -0.7978
  426MOL0     H58764   5.374   6.720   6.008 -1.2843  1.2602  0.0503
  426MOL0     H58765   5.462   6.744   5.854 -0.9924  1.0641 -0.6228
  426MOL0     H58766   5.284   6.510   5.949  0.3687  0.2265  0.7651
  426MOL0     H58767   5.462   6.504   5.907  1.2472  2.1448 -2.8492
  426MOL0     H58768   4.713   6.989   6.134 -0.3743  0.0108 -1.1509
  426MOL0     H58769   4.492   6.915   6.200 -0.2991  0.9646  1.3631
  426MOL0     H58770   4.130   6.738   6.312 -0.1933  0.6010  0.1077
  426MOL0     H58771   3.911   6.698   6.390 -0.2988  1.4510  1.7503
  426MOL0     H58772   2.315   6.402   5.610 -0.1187  2.2899  0.6275
  426MOL0     H58773   2.104   6.502   5.594  0.7878 -1.0458 -1.8883
  426MOL0     H58774   1.637   6.425   5.459  1.7388  0.8447  1.0709
  426MOL0     H58775   1.406   6.394   5.454  0.1625  2.3520 -1.0079
  426MOL0     H58776   1.213   6.295   5.488 -2.3934 -0.0121  0.1672
  426MOL0     H58777   1.277   6.179   5.596 -1.3312  0.3673  0.9861
  426MOL0     H58778   1.049   6.205   5.727 -3.3102  4.1333  0.9829
  426MOL0     H58779   1.063   6.107   5.571 -1.6414 -0.2320 -0.1510
  426MOL0     H58780   0.849   6.268   5.609 -0.5022  0.1902 -0.2016
  426MOL0     H58781   0.955   6.395   5.562  0.8451 -0.1600  3.3933
  426MOL0     H58782   0.931   6.133   5.390 -0.8932 -0.1332  3.5584
  426MOL0     H58783   1.009   6.287   5.344 -1.3504  0.5696 -2.3079
  426MOL0     H58784   0.647   6.391   5.214 -1.7179 -0.3814  2.3229
  426MOL0     H58785   1.406   6.426   5.885 -0.7395 -1.0125  0.0865
  426MOL0     H58786   1.725   6.550   5.923  1.4936 -2.5046  0.4586
  426MOL0     H58787   1.570   6.494   5.999  0.6084 -0.6136  1.9982
  426MOL0     H58788   1.700   6.383   5.969 -0.0931 -1.4261 -4.2119
  427MOL0     O58789   9.259   6.946   9.770 -0.2432 -0.9474 -0.1788
  427MOL0     C58790   9.194   7.055   9.767 -0.6913  0.4321 -0.4866
  427MOL0     O58791   9.245   7.183   9.735 -0.6702  0.2526  0.0945
  427MOL0     C58792   9.380   7.191   9.712  0.5653 -0.7866  0.2685
  427MOL0     C58793   9.445   7.112   9.610  0.6943 -0.6272 -0.2937
  427MOL0     C58794   9.575   7.134   9.579 -0.3487 -0.1886 -0.0250
  427MOL0     C58795   9.661   7.224   9.649 -0.5122 -0.0896 -0.9229
  427MOL0     O58796   9.790   7.243   9.614 -0.2644 -0.3555 -0.2339
  427MOL0     C58797   9.846   7.194   9.489  0.1500  0.0756 -0.8749
  427MOL0     C58798  10.001   7.212   9.524 -0.9498  0.7472  0.5395
  427MOL0     C58799  10.094   7.158   9.408 -0.3281 -0.5139 -0.8028
  427MOL0     C58800  10.227   7.103   9.467 -0.2095 -0.0147  0.1398
  427MOL0     C58801  10.320   7.061   9.357 -0.4765 -0.0601  0.0931
  427MOL0     C58802  10.455   7.032   9.405  0.1837  0.9587  0.5164
  427MOL0     C58803  10.551   7.032   9.283  0.0403 -0.4504 -0.1036
  427MOL0     C58804  10.690   7.007   9.339  0.5781 -0.4026 -0.3014
  427MOL0     N58805  10.789   6.995   9.228  0.3459 -0.0074  0.6222
  427MOL0     C58806  10.813   6.883   9.153  0.2565 -0.8869  0.4576
  427MOL0     C58807  10.915   6.912   9.069  0.0586  0.6451  0.5631
  427MOL0     C58808  10.977   6.810   8.970  0.2825  0.1178  0.4023
  427MOL0     C58809  11.128   6.778   8.994  0.2183  0.1033 -0.5498
  427MOL0     C58810  11.226   6.897   8.947 -0.8598  0.4105 -0.4581
  427MOL0     C58811  11.382   6.874   8.974 -0.4593 -0.9114  0.8431
  427MOL0     O58812  11.446   6.945   8.870 -0.1181  0.4378 -0.1078
  427MOL0     C58813  11.576   6.984   8.895  0.4190 -0.3538 -0.4870
  427MOL0     C58814  11.632   7.065   8.799  0.3282  1.0416 -0.3872
  427MOL0     C58815  11.759   7.117   8.806  0.1814  0.5950  0.5253
  427MOL0     C58816  11.814   7.191   8.682 -0.3943  0.1951  0.0244
  427MOL0     C58817  11.836   7.094   8.918  0.0180 -0.0474 -1.1546
  427MOL0     C58818  11.964   7.151   8.943 -0.5742  0.9126 -0.0543
  427MOL0     O58819  11.999   7.260   8.875 -0.0448 -0.4050 -0.0016
  427MOL0     C58820  12.129   7.288   8.866 -0.2059  1.0352  0.0744
  427MOL0     C58821  12.212   7.212   8.777 -0.7269 -0.2080 -0.2921
  427MOL0     C58822  12.345   7.227   8.757 -0.3983  0.6676  0.1128
  427MOL0     C58823  12.413   7.320   8.833 -0.6939 -0.1452  0.1003
  427MOL0     O58824  12.549   7.328   8.810 -0.2166  0.3982 -0.9635
  427MOL0     C58825  12.632   7.395   8.912 -0.2182 -0.2028 -0.6159
  427MOL0     C58826  12.771   7.405   8.853 -0.2399 -0.3784 -0.3045
  427MOL0     C58827  12.859   7.454   8.975  0.1378 -0.7949  0.6035
  427MOL0     C58828  13.002   7.468   8.932  0.7322  0.0732  1.0121
  427MOL0     C58829  13.094   7.530   9.036  0.6950  0.2263  1.3178
  427MOL0     C58830  13.090   7.459   9.177 -1.4259  0.0633  0.3880
  427MOL0     C58831  13.174   7.333   9.163 -0.2795 -0.0213 -0.3659
  427MOL0     C58832  13.200   7.274   9.303 -0.1563  0.3616  1.1404
  427MOL0    Cl58833  13.302   7.359   9.417 -0.3443  0.0203  0.4293
  427MOL0     C58834  12.339   7.397   8.928 -0.5125 -0.7613  0.0382
  427MOL0     C58835  12.197   7.390   8.938  0.4328  0.8624  0.0826
  427MOL0     O58836  12.037   7.086   9.023  0.0799  0.1115 -0.3431
  427MOL0     C58837  11.785   7.002   9.009  0.2696 -0.2425  0.0348
  427MOL0     C58838  11.662   6.940   8.997 -0.5495 -0.7253 -0.2953
  427MOL0     N58839  10.953   7.045   9.082  0.7629 -0.0157  0.3467
  427MOL0     N58840  10.875   7.086   9.173  0.2988 -1.1507 -0.8727
  427MOL0     C58841   9.602   7.295   9.758  0.5589  0.1673 -0.4228
  427MOL0     C58842   9.459   7.283   9.778 -0.3040 -0.1689  0.6844
  427MOL0     C58843   9.054   7.054   9.816  1.0111  0.2626  0.9617
  427MOL0     C58844   8.996   7.169   9.862 -0.4112  0.6733 -0.5747
  427MOL0     C58845   8.868   7.176   9.918 -1.3123  0.1618  0.1206
  427MOL0     C58846   8.788   7.062   9.928  0.7852  0.2956 -0.6371
  427MOL0     O58847   8.676   7.080  10.001  0.3819  0.1322 -0.3081
  427MOL0     C58848   8.615   6.962  10.051 -0.0971  0.9023 -0.2270
  427MOL0     C58849   8.554   6.988  10.187  0.1574 -1.0657 -0.7251
  427MOL0     C58850   8.454   6.870  10.238  0.4149 -0.4187  0.1072
  427MOL0     C58851   8.422   6.874  10.397  0.0549 -0.3407 -0.2522
  427MOL0     C58852   8.305   6.799  10.427  0.1492 -0.2032 -0.0698
  427MOL0     C58853   8.206   6.723  10.440 -0.0388 -0.0253  0.4021
  427MOL0     C58854   8.850   6.945   9.867  0.2407  0.4983 -0.3216
  427MOL0     C58855   8.978   6.939   9.821  0.6931  0.1678  0.2344
  427MOL0     C58856   9.023   6.803   9.773  0.3848  0.3115 -0.6790
  427MOL0     H58857   9.399   7.035   9.548  1.6504 -0.4533 -1.2503
  427MOL0     H58858   9.605   7.084   9.488 -0.1594 -0.1340  0.0079
  427MOL0     H58859   9.807   7.245   9.400  1.2796 -1.7683 -2.5298
  427MOL0     H58860   9.808   7.092   9.477  1.6888 -0.7227  0.5960
  427MOL0     H58861  10.011   7.318   9.551 -1.1949  0.1989  2.9898
  427MOL0     H58862  10.025   7.164   9.619  0.1823 -0.2357 -0.2123
  427MOL0     H58863  10.045   7.074   9.357 -0.2452 -0.2180 -1.3825
  427MOL0     H58864  10.119   7.238   9.338 -1.7512 -1.6692 -2.7665
  427MOL0     H58865  10.258   7.188   9.529 -1.5823  1.1494 -0.7015
  427MOL0     H58866  10.202   7.029   9.544  0.5768  1.7372  2.1913
  427MOL0     H58867  10.324   7.128   9.271  3.9648 -1.0742 -0.7417
  427MOL0     H58868  10.279   6.970   9.313 -0.9537  0.3702 -0.3611
  427MOL0     H58869  10.489   7.107   9.478  0.4395  1.2218  0.1335
  427MOL0     H58870  10.449   6.930   9.444 -1.7223  0.9813  0.3680
  427MOL0     H58871  10.548   7.124   9.225 -5.1914 -1.7860 -2.5544
  427MOL0     H58872  10.527   6.959   9.205 -0.2155  0.7688 -1.1985
  427MOL0     H58873  10.716   7.087   9.410  3.2068 -1.6304  0.2107
  427MOL0     H58874  10.693   6.918   9.402 -0.7409 -2.3298 -2.7907
  427MOL0     H58875  10.760   6.790   9.170 -1.4802  0.4298  2.9810
  427MOL0     H58876  10.961   6.836   8.865  1.6368 -1.3485 -0.1997
  427MOL0     H58877  10.942   6.708   8.986  0.9644 -0.0645  0.7389
  427MOL0     H58878  11.135   6.763   9.103  0.1776  5.7081  0.5206
  427MOL0     H58879  11.151   6.685   8.942  1.0219  0.4913 -0.9008
  427MOL0     H58880  11.212   6.920   8.841 -0.2695 -2.2774 -1.1861
  427MOL0     H58881  11.200   6.992   8.995 -2.5459  1.0478 -2.4680
  427MOL0     H58882  11.421   6.906   9.071  1.3526  2.1762 -0.7417
  427MOL0     H58883  11.406   6.768   8.964 -1.4644 -0.9734 -1.6237
  427MOL0     H58884  11.579   7.074   8.705  2.3226 -2.0699 -1.9676
  427MOL0     H58885  11.914   7.156   8.653  0.2142 -0.7612  2.9332
  427MOL0     H58886  11.825   7.297   8.702 -1.3261  0.1728  0.7526
  427MOL0     H58887  11.749   7.187   8.594 -1.3037  2.5306  0.5265
  427MOL0     H58888  12.168   7.142   8.706  2.8348 -0.7360 -2.2875
  427MOL0     H58889  12.406   7.163   8.694  2.6297  2.3642  1.1139
  427MOL0     H58890  12.611   7.500   8.932  1.7987 -0.0268  0.8331
  427MOL0     H58891  12.633   7.337   9.005  0.1187  1.8321  0.7026
  427MOL0     H58892  12.797   7.302   8.827 -0.1062 -1.1790  2.6459
  427MOL0     H58893  12.792   7.469   8.767  0.5548 -2.3027 -1.5958
  427MOL0     H58894  12.833   7.397   9.065 -0.0724  0.9234  1.6723
  427MOL0     H58895  12.841   7.561   8.993  3.0866  0.2242 -1.6955
  427MOL0     H58896  13.001   7.532   8.843  0.8824  1.1655  1.7654
  427MOL0     H58897  13.041   7.374   8.891  1.9820  0.9848  0.0239
  427MOL0     H58898  13.196   7.546   9.000  0.2110  0.5909  0.0644
  427MOL0     H58899  13.053   7.630   9.052  1.0943  0.5704  0.2576
  427MOL0     H58900  12.989   7.429   9.206 -1.6512  1.4680  1.1266
  427MOL0     H58901  13.144   7.524   9.245  0.8976 -0.4220 -0.8964
  427MOL0     H58902  13.273   7.358   9.124  0.0693  0.1430  0.5983
  427MOL0     H58903  13.129   7.257   9.099 -3.1042  0.3782  0.9956
  427MOL0     H58904  13.244   7.176   9.280  0.9439  1.2703 -0.7938
  427MOL0     H58905  13.110   7.255   9.362  0.5340  0.0840  2.1365
  427MOL0     H58906  12.388   7.473   8.988  1.4211 -1.9692  0.0762
  427MOL0     H58907  12.138   7.451   9.006 -1.3688  1.9975 -2.3271
  427MOL0     H58908  11.838   6.979   9.101  0.1173 -0.8148 -0.0205
  427MOL0     H58909  11.634   6.862   9.067 -0.6886 -2.7654 -2.4930
  427MOL0     H58910   9.653   7.374   9.811 -1.9556 -0.4749  3.2921
  427MOL0     H58911   9.415   7.351   9.850  1.2729  1.4555  0.1675
  427MOL0     H58912   9.070   7.245   9.886  0.6377 -1.0681  2.2532
  427MOL0     H58913   8.831   7.274   9.947  0.9092  1.8535 -2.3413
  427MOL0     H58914   8.535   6.940   9.981 -0.2810 -0.7600  0.4707
  427MOL0     H58915   8.684   6.878  10.061  0.5098  1.5329  1.2115
  427MOL0     H58916   8.501   7.083  10.181  0.1488 -1.0889 -0.9881
  427MOL0     H58917   8.644   7.001  10.248  1.6240 -0.8054 -2.8277
  427MOL0     H58918   8.357   6.875  10.188 -0.0629  0.7246  1.1113
  427MOL0     H58919   8.499   6.779  10.197  2.0948  1.0439 -1.5029
  427MOL0     H58920   8.398   6.973  10.437  0.5587  0.1542 -1.1402
  427MOL0     H58921   8.506   6.838  10.457  1.5723  1.5986 -1.0962
  427MOL0     H58922   8.133   6.646  10.451  2.7872 -2.7174  1.9243
  427MOL0     H58923   8.786   6.858   9.867 -1.5056  1.7165  0.7877
  427MOL0     H58924   9.081   6.805   9.680  2.1323  1.8974  0.3590
  427MOL0     H58925   9.090   6.762   9.850 -0.4659 -1.3236 -0.7795
  427MOL0     H58926   8.938   6.736   9.779 -0.1831  1.1314  3.7220
  428MOL0     O58927   5.430   5.783   2.159 -0.3756  0.3265 -0.6804
  428MOL0     C58928   5.447   5.663   2.163 -0.0383 -0.4727 -0.2872
  428MOL0     O58929   5.564   5.604   2.171 -0.4477  0.2783  0.6726
  428MOL0     C58930   5.680   5.674   2.188  0.8932 -0.0615  0.2058
  428MOL0     C58931   5.691   5.771   2.286  0.6042 -0.7609 -0.5059
  428MOL0     C58932   5.805   5.839   2.306  0.7855 -0.7539  0.0015
  428MOL0     C58933   5.922   5.824   2.231  0.5163 -0.0675 -0.0903
  428MOL0     O58934   6.034   5.909   2.243  0.6105  0.4269  0.1763
  428MOL0     C58935   6.030   6.035   2.304 -0.7153 -0.7200 -0.0859
  428MOL0     C58936   6.179   6.088   2.310 -0.2477  0.2570 -0.4118
  428MOL0     C58937   6.259   6.005   2.400  0.2228 -0.2103 -0.8313
  428MOL0     C58938   6.404   6.051   2.415 -0.8288 -0.2675  0.1217
  428MOL0     C58939   6.501   5.935   2.380 -0.3590 -0.3372  0.7823
  428MOL0     C58940   6.491   5.895   2.236 -0.0794  0.5938  0.1476
  428MOL0     C58941   6.612   5.806   2.184  0.1184 -0.1063 -0.4216
  428MOL0     C58942   6.735   5.878   2.151 -0.2786  0.3730 -0.4071
  428MOL0     N58943   6.822   5.916   2.263 -0.2751  0.1505  1.0306
  428MOL0     C58944   6.904   6.028   2.259  0.5219  0.1812  0.4759
  428MOL0     C58945   6.978   6.026   2.372  0.8946 -0.2622 -0.2999
  428MOL0     C58946   7.081   6.129   2.421 -0.2142  0.1759 -0.4807
  428MOL0     C58947   7.221   6.113   2.356 -0.1833 -0.1598  0.9975
  428MOL0     C58948   7.312   6.219   2.408 -0.7139  0.7381 -0.0286
  428MOL0     C58949   7.436   6.232   2.316  0.3225  0.5728  1.3632
  428MOL0     O58950   7.532   6.136   2.353  0.0872 -0.3255  0.0098
  428MOL0     C58951   7.659   6.166   2.311  0.4573  0.0166  0.8934
  428MOL0     C58952   7.756   6.080   2.353  0.6801 -0.1545  0.8909
  428MOL0     C58953   7.885   6.087   2.307 -0.3155 -0.4583  0.5315
  428MOL0     C58954   7.977   5.983   2.363  0.2970 -0.5200 -0.3309
  428MOL0     C58955   7.919   6.183   2.205 -0.3425 -0.9186 -0.1313
  428MOL0     C58956   8.061   6.206   2.159 -0.4426  0.4394 -0.0379
  428MOL0     O58957   8.165   6.130   2.206  0.2053  1.0621 -0.1260
  428MOL0     C58958   8.298   6.171   2.207  0.5366 -0.8830 -0.2183
  428MOL0     C58959   8.332   6.300   2.253  0.1757 -0.5409  0.1100
  428MOL0     C58960   8.463   6.340   2.266 -0.3669 -0.5915  0.1981
  428MOL0     C58961   8.566   6.247   2.251  0.9638  0.0420  0.3412
  428MOL0     O58962   8.696   6.280   2.255  0.3592 -0.6984  0.7139
  428MOL0     C58963   8.788   6.182   2.308 -0.5625 -0.2579  0.1846
  428MOL0     C58964   8.863   6.243   2.430 -0.0024 -0.0142  0.1314
  428MOL0     C58965   8.936   6.132   2.507 -0.0288 -0.0015  0.0518
  428MOL0     C58966   9.005   6.199   2.630  0.3248 -0.5602 -0.0622
  428MOL0     C58967   9.100   6.089   2.696 -0.1107 -1.2066 -0.3142
  428MOL0     C58968   9.027   5.967   2.755  0.3967  0.8432  0.1906
  428MOL0     C58969   9.122   5.854   2.771  0.1565 -0.1813  0.0742
  428MOL0     C58970   9.082   5.738   2.684  0.8939  0.4132  0.4062
  428MOL0    Cl58971   9.079   5.781   2.509  0.1191 -0.3541 -0.0667
  428MOL0     C58972   8.524   6.115   2.214 -1.1954 -0.7836 -0.2781
  428MOL0     C58973   8.397   6.078   2.200  0.0134  0.8813  0.1254
  428MOL0     O58974   8.076   6.293   2.082 -0.2846 -0.1543  0.2334
  428MOL0     C58975   7.815   6.267   2.154 -0.6866  1.0789  0.0230
  428MOL0     C58976   7.693   6.273   2.225  0.1173  0.7695  0.2589
  428MOL0     N58977   6.921   5.930   2.451  0.3547  0.4921  0.2168
  428MOL0     N58978   6.829   5.863   2.386 -0.3238  0.6014  0.2162
  428MOL0     C58979   5.914   5.733   2.123  0.1691  0.0518  1.0516
  428MOL0     C58980   5.792   5.654   2.100  0.3797  0.6682 -0.8444
  428MOL0     C58981   5.328   5.570   2.143 -0.1101 -0.0678  0.3170
  428MOL0     C58982   5.197   5.629   2.134 -0.2905 -0.2331  0.9161
  428MOL0     C58983   5.083   5.552   2.100 -0.3585  0.2535  1.1577
  428MOL0     C58984   5.088   5.416   2.087 -0.1962  0.5955  0.3078
  428MOL0     O58985   4.972   5.356   2.050  0.3708  0.5871 -0.0806
  428MOL0     C58986   4.942   5.217   2.040  0.2477  0.8412 -0.9087
  428MOL0     C58987   4.791   5.216   2.036 -0.0903 -0.4244  0.3107
  428MOL0     C58988   4.759   5.064   2.024  0.0011  0.8232 -0.6542
  428MOL0     C58989   4.636   5.038   1.924 -0.3944 -0.4092  0.0607
  428MOL0     C58990   4.502   5.072   1.974 -0.3818  0.0274  0.6833
  428MOL0     C58991   4.391   5.098   2.006 -0.6380  0.8004  0.2700
  428MOL0     C58992   5.213   5.353   2.103  0.3658  0.0751 -0.9764
  428MOL0     C58993   5.335   5.424   2.133  0.0672  0.1484  0.1274
  428MOL0     C58994   5.468   5.349   2.152 -0.7947 -0.8339 -0.4146
  428MOL0     H58995   5.612   5.792   2.358  1.5161 -1.6267  0.7977
  428MOL0     H58996   5.804   5.905   2.392  0.5837 -0.9703  0.1655
  428MOL0     H58997   5.997   6.028   2.408  2.2549 -1.6679  0.9105
  428MOL0     H58998   5.976   6.102   2.237  1.0590  0.4165 -0.4523
  428MOL0     H58999   6.234   6.085   2.215  1.6376 -0.0729  0.6596
  428MOL0     H59000   6.194   6.192   2.341 -0.1430  0.5809 -1.4951
  428MOL0     H59001   6.221   6.019   2.502  0.7978 -0.9568 -0.5023
  428MOL0     H59002   6.259   5.898   2.376 -2.5148  0.2615 -3.4784
  428MOL0     H59003   6.433   6.135   2.352  1.1179 -1.3543 -0.5036
  428MOL0     H59004   6.416   6.088   2.517  0.7817 -1.4081  0.3892
  428MOL0     H59005   6.497   5.852   2.451  1.6482 -1.7296 -0.6447
  428MOL0     H59006   6.601   5.976   2.391 -0.0296 -0.3724 -1.6598
  428MOL0     H59007   6.404   5.829   2.226  1.0234 -0.8000 -0.6164
  428MOL0     H59008   6.480   5.978   2.166 -0.1505 -0.2492 -0.8685
  428MOL0     H59009   6.569   5.754   2.098  1.8578 -1.9266 -0.2650
  428MOL0     H59010   6.638   5.726   2.254 -2.4276  0.5088  1.3591
  428MOL0     H59011   6.800   5.814   2.090 -1.5003  0.4241 -1.8052
  428MOL0     H59012   6.716   5.973   2.102 -2.4801  1.3629  2.1182
  428MOL0     H59013   6.910   6.090   2.169 -2.1734  0.5096  0.4459
  428MOL0     H59014   7.091   6.104   2.527  0.1707  1.6301 -0.1563
  428MOL0     H59015   7.046   6.232   2.410  0.3442  0.5352  0.8799
  428MOL0     H59016   7.250   6.009   2.375 -1.8629 -1.2389 -1.7429
  428MOL0     H59017   7.215   6.128   2.248 -1.8918  1.8192  1.3037
  428MOL0     H59018   7.270   6.317   2.428 -0.3714  0.6125  1.4464
  428MOL0     H59019   7.335   6.185   2.510 -0.4603 -2.4164 -1.0376
  428MOL0     H59020   7.420   6.218   2.209  0.4167  1.4147  1.2295
  428MOL0     H59021   7.461   6.337   2.332 -0.8099  1.1633 -0.3733
  428MOL0     H59022   7.727   6.000   2.419  1.0550  0.8829  2.3564
  428MOL0     H59023   7.920   5.902   2.408 -0.9108  0.9718  0.9405
  428MOL0     H59024   8.050   6.024   2.433 -1.5812 -0.2234  1.5464
  428MOL0     H59025   8.030   5.949   2.273 -2.6969  1.5109 -3.0713
  428MOL0     H59026   8.256   6.373   2.277  0.1899  0.5639 -2.8170
  428MOL0     H59027   8.485   6.443   2.296  1.6087 -0.9349  0.0250
  428MOL0     H59028   8.737   6.090   2.340 -1.3832  0.3397  0.6340
  428MOL0     H59029   8.864   6.166   2.231  0.2968  3.7342 -0.0117
  428MOL0     H59030   8.938   6.317   2.402 -0.9596  1.8451  2.2063
  428MOL0     H59031   8.786   6.294   2.488 -1.9907  1.2404 -3.2746
  428MOL0     H59032   9.004   6.076   2.442 -0.6171 -0.8365  0.1291
  428MOL0     H59033   8.864   6.055   2.539  0.7230 -0.6786  0.1629
  428MOL0     H59034   8.941   6.248   2.703  0.9979 -1.4472  1.1594
  428MOL0     H59035   9.067   6.277   2.585  0.2007 -0.1983  0.3944
  428MOL0     H59036   9.183   6.055   2.633  0.6867 -2.6147  1.4139
  428MOL0     H59037   9.152   6.144   2.775  0.0819  2.1165 -2.5704
  428MOL0     H59038   8.941   5.929   2.698 -0.5269  0.0360  2.0293
  428MOL0     H59039   8.979   5.997   2.849  0.0130 -1.7515  0.9220
  428MOL0     H59040   9.110   5.824   2.875 -0.5756 -0.0273  0.0394
  428MOL0     H59041   9.228   5.873   2.750  0.7320 -2.0042  1.1181
  428MOL0     H59042   8.978   5.716   2.711  1.0929  1.5915  2.3252
  428MOL0     H59043   9.140   5.647   2.702  1.3414  1.1641  3.1315
  428MOL0     H59044   8.597   6.035   2.200 -0.7679 -0.1427 -1.8934
  428MOL0     H59045   8.355   5.979   2.180 -3.6184  2.3745 -0.4491
  428MOL0     H59046   7.844   6.345   2.085 -0.3687  1.1070  0.1873
  428MOL0     H59047   7.616   6.346   2.202 -1.5715 -1.0612 -0.1774
  428MOL0     H59048   6.004   5.717   2.065  0.9747 -1.2715  2.5721
  428MOL0     H59049   5.787   5.586   2.016  2.7848 -0.6674 -0.0025
  428MOL0     H59050   5.179   5.736   2.139 -1.2283 -0.4133  1.9143
  428MOL0     H59051   4.998   5.616   2.077  1.0246  1.2074 -1.7970
  428MOL0     H59052   4.991   5.184   1.947 -0.4490  1.9452 -1.6851
  428MOL0     H59053   4.976   5.167   2.131  0.4230  0.6667 -1.0684
  428MOL0     H59054   4.759   5.266   1.944  0.6434 -0.2549  0.1470
  428MOL0     H59055   4.738   5.255   2.122  0.5404  0.6383  0.2260
  428MOL0     H59056   4.843   5.006   1.984  1.3877  0.7224  2.1565
  428MOL0     H59057   4.736   5.027   2.124  1.1457  1.0939 -0.2725
  428MOL0     H59058   4.641   4.931   1.905 -2.2656 -0.7761  1.3574
  428MOL0     H59059   4.647   5.093   1.830 -0.0368  0.2533  0.4775
  428MOL0     H59060   4.285   5.106   2.024 -1.3468  0.4187 -3.0008
  428MOL0     H59061   5.201   5.245   2.107 -1.9522  0.3203  0.8257
  428MOL0     H59062   5.526   5.379   2.239  2.9220 -1.1309 -2.5952
  428MOL0     H59063   5.450   5.241   2.144 -2.7735 -0.7071  1.4151
  428MOL0     H59064   5.530   5.377   2.067  1.2951  0.7185  1.5136
  429MOL0     O59065   1.633   6.898   9.777  0.3046  0.0669  0.0700
  429MOL0     C59066   1.559   6.997   9.778  0.0793 -0.2808 -0.6108
  429MOL0     O59067   1.619   7.122   9.772 -0.0585 -0.1947  0.3983
  429MOL0     C59068   1.736   7.140   9.837  0.5392 -0.9088  0.2455
  429MOL0     C59069   1.764   7.092   9.962  0.1584  0.0166  0.3526
  429MOL0     C59070   1.890   7.122  10.028  0.2667  1.2121  0.1206
  429MOL0     C59071   1.976   7.211   9.982  0.3067 -0.0857  0.1407
  429MOL0     O59072   2.091   7.234  10.055 -0.6968 -0.3895  0.4380
  429MOL0     C59073   2.204   7.283   9.976  0.0126  0.4395 -0.5445
  429MOL0     C59074   2.322   7.307  10.070 -0.5283  0.2896  0.2092
  429MOL0     C59075   2.445   7.382  10.001 -0.3062  0.2583 -0.4275
  429MOL0     C59076   2.505   7.286   9.899  0.3485  0.3892  0.5846
  429MOL0     C59077   2.617   7.346   9.818 -1.2471 -0.2194  0.0402
  429MOL0     C59078   2.749   7.284   9.849  0.8545  0.2042 -0.5794
  429MOL0     C59079   2.861   7.320   9.749 -0.0704 -1.5692 -0.3681
  429MOL0     C59080   2.939   7.454   9.796  0.0580  0.3427 -0.5382
  429MOL0     N59081   3.039   7.481   9.699 -0.6240  0.9620  0.4346
  429MOL0     C59082   3.028   7.458   9.567  0.6527 -0.4892 -0.3981
  429MOL0     C59083   3.153   7.486   9.512  0.0310  0.4249 -0.1112
  429MOL0     C59084   3.194   7.482   9.371  0.8564  0.1495 -0.5633
  429MOL0     C59085   3.321   7.556   9.350 -0.2408 -0.9800  0.0146
  429MOL0     C59086   3.373   7.525   9.208 -0.5923 -0.4377 -0.2303
  429MOL0     C59087   3.471   7.640   9.165 -0.1045 -0.4462 -0.1796
  429MOL0     O59088   3.548   7.582   9.061  0.6002 -0.7119  0.6257
  429MOL0     C59089   3.679   7.556   9.080  0.1888 -0.2629  0.1090
  429MOL0     C59090   3.746   7.548   8.961 -0.8996  0.9743 -0.0177
  429MOL0     C59091   3.890   7.540   8.950 -0.1191 -0.2347  0.5560
  429MOL0     C59092   3.954   7.543   8.811  0.2739  0.5704  1.0702
  429MOL0     C59093   3.955   7.527   9.076  0.2402  0.3184 -0.2355
  429MOL0     C59094   4.101   7.507   9.093 -0.3096  1.6648  0.5671
  429MOL0     O59095   4.149   7.460   9.209  0.7611 -0.0774  0.8983
  429MOL0     C59096   4.285   7.431   9.223  0.3285 -0.7708 -0.0880
  429MOL0     C59097   4.350   7.481   9.334 -0.9759 -0.0832  0.2093
  429MOL0     C59098   4.482   7.447   9.359 -0.0534  0.7350 -0.6377
  429MOL0     C59099   4.556   7.371   9.271 -0.4776 -0.1512  0.2172
  429MOL0     O59100   4.695   7.357   9.292  0.4118  0.1761  0.0320
  429MOL0     C59101   4.778   7.323   9.183 -0.1238 -0.2271 -0.1709
  429MOL0     C59102   4.921   7.321   9.241  0.2419  0.0406  0.6674
  429MOL0     C59103   5.026   7.288   9.135 -0.5826  0.0546 -0.6712
  429MOL0     C59104   5.156   7.269   9.204 -0.0649 -0.5258  0.1476
  429MOL0     C59105   5.272   7.275   9.105 -0.0670  0.2852 -0.1806
  429MOL0     C59106   5.385   7.189   9.143  0.3404  0.0306 -0.3374
  429MOL0     C59107   5.512   7.225   9.074 -0.4699 -0.0097 -0.0676
  429MOL0     C59108   5.525   7.174   8.926 -0.0691  0.3029 -0.2244
  429MOL0    Cl59109   5.456   7.019   8.885 -0.1682  0.5175  0.5721
  429MOL0     C59110   4.482   7.308   9.161  0.3496  2.3956 -0.0930
  429MOL0     C59111   4.349   7.335   9.142 -0.5055  0.0502  0.4427
  429MOL0     O59112   4.175   7.537   8.996  0.4749 -0.8069 -0.3792
  429MOL0     C59113   3.879   7.521   9.198 -0.9368 -0.0623  0.3323
  429MOL0     C59114   3.745   7.546   9.198 -0.3130 -0.2349 -0.2429
  429MOL0     N59115   3.238   7.515   9.615  1.5027 -0.1550 -0.9765
  429MOL0     N59116   3.169   7.522   9.725  0.2502 -0.2979  0.5276
  429MOL0     C59117   1.950   7.269   9.852 -0.3881 -0.6338 -0.0888
  429MOL0     C59118   1.837   7.223   9.783 -0.3668 -0.0112 -0.1436
  429MOL0     C59119   1.416   6.991   9.757  0.7472 -0.3882  0.1769
  429MOL0     C59120   1.343   7.117   9.774  0.6043  0.6541  0.5167
  429MOL0     C59121   1.196   7.121   9.752  0.0990 -0.4333  0.0617
  429MOL0     C59122   1.122   7.014   9.711  0.0480 -0.2020  0.6049
  429MOL0     O59123   0.988   7.025   9.688 -0.5013 -0.2793 -0.0562
  429MOL0     C59124   0.908   6.924   9.629  0.6823 -0.1838 -0.1873
  429MOL0     C59125   0.866   6.812   9.724 -0.1835 -0.1376  0.5408
  429MOL0     C59126   0.767   6.722   9.659 -0.2003 -0.7464 -0.2203
  429MOL0     C59127   0.627   6.792   9.613 -0.7503  0.5932  0.8147
  429MOL0     C59128   0.535   6.812   9.720  0.9305 -0.0988  0.2623
  429MOL0     C59129   0.466   6.813   9.815 -0.1242 -0.1363 -0.3907
  429MOL0     C59130   1.196   6.893   9.693  0.2542  0.1376  0.8379
  429MOL0     C59131   1.335   6.872   9.728  0.4803 -0.6881  0.6952
  429MOL0     C59132   1.393   6.736   9.709 -0.0142  0.7484  0.8231
  429MOL0     H59133   1.688   7.037  10.017 -1.4594  1.9690  0.2022
  429MOL0     H59134   1.917   7.068  10.118 -2.8667 -1.2218 -0.2227
  429MOL0     H59135   2.180   7.381   9.933  3.7490  1.1942 -1.3132
  429MOL0     H59136   2.223   7.212   9.895 -3.1412  0.3331 -1.2953
  429MOL0     H59137   2.279   7.377  10.143 -0.2560  0.6788  0.0021
  429MOL0     H59138   2.345   7.214  10.121 -0.5097  0.7351  1.0361
  429MOL0     H59139   2.418   7.475   9.951 -3.0920  1.8178  3.4481
  429MOL0     H59140   2.519   7.394  10.081  0.9838 -0.5537 -1.4510
  429MOL0     H59141   2.537   7.200   9.958 -0.6503  0.7616  1.7021
  429MOL0     H59142   2.419   7.252   9.841  0.4625  0.1529  0.5535
  429MOL0     H59143   2.621   7.451   9.850 -0.8055 -0.5835  1.2720
  429MOL0     H59144   2.596   7.358   9.712  0.4520  1.1304 -0.2022
  429MOL0     H59145   2.776   7.309   9.953 -1.2586 -0.0913  0.0748
  429MOL0     H59146   2.722   7.179   9.843  0.0868  0.3943 -0.4805
  429MOL0     H59147   2.822   7.320   9.647  1.1535  0.1233 -0.8726
  429MOL0     H59148   2.936   7.240   9.747 -0.5655 -2.2496  2.9233
  429MOL0     H59149   2.871   7.539   9.797 -2.1555 -1.3293 -0.5919
  429MOL0     H59150   2.983   7.439   9.894 -1.5637 -1.3267 -0.0009
  429MOL0     H59151   2.935   7.461   9.511  0.3319  0.7062  0.1604
  429MOL0     H59152   3.119   7.531   9.308 -1.6929  0.7235  2.6894
  429MOL0     H59153   3.203   7.376   9.348 -2.3709 -0.8385  1.9823
  429MOL0     H59154   3.304   7.664   9.353 -2.3905 -1.2612 -0.8460
  429MOL0     H59155   3.402   7.543   9.423  0.2637  3.8316  0.6518
  429MOL0     H59156   3.429   7.431   9.210 -0.4618 -0.3435  0.7824
  429MOL0     H59157   3.299   7.505   9.129  0.7066 -1.6569 -1.1864
  429MOL0     H59158   3.417   7.730   9.136 -0.9809  0.1777  2.9450
  429MOL0     H59159   3.530   7.682   9.248 -0.6941  1.0051 -0.4559
  429MOL0     H59160   3.687   7.533   8.872  1.4051  1.1515 -1.6696
  429MOL0     H59161   4.009   7.450   8.797 -0.2893  0.4903 -0.8634
  429MOL0     H59162   4.026   7.626   8.802 -1.6466  2.0590 -3.3607
  429MOL0     H59163   3.880   7.546   8.731  2.3676 -5.4123 -1.6481
  429MOL0     H59164   4.297   7.554   9.395  0.0710  1.2027 -0.3554
  429MOL0     H59165   4.525   7.505   9.440  3.7560 -1.4252 -0.8663
  429MOL0     H59166   4.758   7.227   9.135 -1.2118 -0.2803  0.3449
  429MOL0     H59167   4.770   7.408   9.114 -0.1926 -0.0056  0.1093
  429MOL0     H59168   4.930   7.426   9.271 -2.1029  0.4557  0.1165
  429MOL0     H59169   4.924   7.244   9.318 -2.6912 -2.5786 -1.5834
  429MOL0     H59170   5.028   7.373   9.066  0.0333 -1.4350 -2.5773
  429MOL0     H59171   4.997   7.199   9.079 -1.2682  1.0146 -1.8701
  429MOL0     H59172   5.143   7.168   9.246 -4.3842  0.3372  1.3338
  429MOL0     H59173   5.173   7.338   9.287 -0.6854 -1.0802  0.7423
  429MOL0     H59174   5.236   7.243   9.007  1.1997  0.6484 -0.7917
  429MOL0     H59175   5.302   7.380   9.104 -0.1461  0.3210 -1.9798
  429MOL0     H59176   5.367   7.084   9.120  1.3384 -0.7695  2.1603
  429MOL0     H59177   5.396   7.208   9.251  1.9308 -0.3686 -0.3990
  429MOL0     H59178   5.599   7.182   9.126  0.3487  0.7130 -0.8092
  429MOL0     H59179   5.532   7.332   9.083 -0.8606  0.0572 -0.0158
  429MOL0     H59180   5.624   7.169   8.880 -0.7317 -0.0466 -1.6543
  429MOL0     H59181   5.470   7.249   8.868  2.8091  2.4238 -0.4345
  429MOL0     H59182   4.535   7.236   9.100 -2.3006  1.2552 -1.1648
  429MOL0     H59183   4.304   7.290   9.054  0.9023 -1.3182  0.3682
  429MOL0     H59184   3.924   7.521   9.296 -0.5759  1.8115  0.1945
  429MOL0     H59185   3.687   7.541   9.290  1.0711  0.3183  0.6763
  429MOL0     H59186   2.019   7.336   9.802 -0.4065 -1.2219 -0.9279
  429MOL0     H59187   1.820   7.260   9.682  0.3292  1.3736  0.2234
  429MOL0     H59188   1.398   7.209   9.789 -0.3995  1.6064 -1.3239
  429MOL0     H59189   1.135   7.210   9.754  1.3422  0.5432 -2.2376
  429MOL0     H59190   0.820   6.965   9.579  1.7789 -0.8409 -2.8587
  429MOL0     H59191   0.960   6.877   9.545 -2.4914 -3.3649 -0.5928
  429MOL0     H59192   0.855   6.854   9.824  2.5738  1.7521  0.1599
  429MOL0     H59193   0.957   6.752   9.737  0.0857 -0.5368 -2.3880
  429MOL0     H59194   0.817   6.674   9.575 -1.7345  1.0762 -2.2879
  429MOL0     H59195   0.745   6.641   9.729  0.7434  0.1683  1.1823
  429MOL0     H59196   0.581   6.716   9.548  0.2087 -1.6176  2.5714
  429MOL0     H59197   0.646   6.886   9.561  3.5327  0.4529  1.7460
  429MOL0     H59198   0.408   6.814   9.905 -1.0453 -0.2063 -0.9792
  429MOL0     H59199   1.145   6.808   9.647 -0.3516  2.1320 -2.5179
  429MOL0     H59200   1.439   6.699   9.801  0.4784 -0.2830  0.1822
  429MOL0     H59201   1.325   6.662   9.666  1.7079 -0.6175  0.3291
  429MOL0     H59202   1.474   6.750   9.637 -0.7323 -1.5670 -0.5252
  430MOL0     O59203   6.453   7.563   4.304  0.7143  0.3928  0.1753
  430MOL0     C59204   6.344   7.556   4.358  0.2378  0.4617  0.5303
  430MOL0     O59205   6.318   7.542   4.492  0.1615 -0.2323  0.5515
  430MOL0     C59206   6.426   7.517   4.573  0.6241 -1.0120 -0.5896
  430MOL0     C59207   6.532   7.612   4.578  0.1922 -0.6392 -0.0140
  430MOL0     C59208   6.630   7.602   4.672 -0.7433  0.7290 -0.8349
  430MOL0     C59209   6.628   7.504   4.771  0.2098  0.6661 -0.2044
  430MOL0     O59210   6.710   7.504   4.884 -0.0665 -0.1087 -0.9735
  430MOL0     C59211   6.798   7.617   4.897 -0.2586  0.4743 -0.2953
  430MOL0     C59212   6.882   7.599   5.018 -0.0942 -0.0683 -0.3602
  430MOL0     C59213   6.973   7.474   5.021  0.2110 -0.1877  0.0914
  430MOL0     C59214   7.084   7.496   4.915 -0.6601  0.3965  0.1683
  430MOL0     C59215   7.190   7.384   4.920  0.0500 -0.2933  0.2487
  430MOL0     C59216   7.261   7.367   4.790 -0.3832 -0.7547  0.8417
  430MOL0     C59217   7.180   7.343   4.663  0.5378 -0.8985 -0.6728
  430MOL0     C59218   7.168   7.468   4.580  0.8325  0.3412 -0.0765
  430MOL0     N59219   7.074   7.443   4.476  0.8506 -0.5948 -0.4279
  430MOL0     C59220   6.941   7.435   4.498  0.1530  0.5477  0.1704
  430MOL0     C59221   6.880   7.400   4.382 -0.2816  0.2907  0.1241
  430MOL0     C59222   6.736   7.368   4.341 -0.6696  0.0837 -0.0759
  430MOL0     C59223   6.687   7.239   4.402  0.0817 -0.9067  0.0417
  430MOL0     C59224   6.542   7.211   4.368  0.4661 -0.4011 -0.5717
  430MOL0     C59225   6.503   7.088   4.458 -0.2505 -0.8480  0.0919
  430MOL0     O59226   6.373   7.023   4.429 -0.0963  0.0411  0.8731
  430MOL0     C59227   6.263   7.095   4.458 -0.2765  0.7598 -0.6507
  430MOL0     C59228   6.195   7.092   4.579 -0.3842 -0.3415 -0.0650
  430MOL0     C59229   6.068   7.153   4.586 -0.4477  0.2030  0.0366
  430MOL0     C59230   5.995   7.138   4.720  1.1300 -0.9185  1.0357
  430MOL0     C59231   6.019   7.218   4.472 -0.1992  0.5340 -0.2550
  430MOL0     C59232   5.904   7.310   4.482 -0.2798 -0.6006  0.6388
  430MOL0     O59233   5.779   7.257   4.447 -0.2845 -0.7532  0.0325
  430MOL0     C59234   5.676   7.346   4.433  0.7099 -0.7815  0.2150
  430MOL0     C59235   5.591   7.343   4.546 -0.4140 -0.3392  0.5013
  430MOL0     C59236   5.460   7.387   4.548  0.2634 -1.3542  0.0080
  430MOL0     C59237   5.412   7.459   4.440  0.2690 -0.5083 -0.0754
  430MOL0     O59238   5.285   7.506   4.448  0.3370  0.4576  0.3134
  430MOL0     C59239   5.195   7.449   4.355 -0.0455  0.6034  0.2755
  430MOL0     C59240   5.057   7.522   4.358  0.2481  0.3551  0.1831
  430MOL0     C59241   4.977   7.438   4.261  0.9859 -0.0669 -0.1299
  430MOL0     C59242   4.835   7.476   4.229  0.8567  0.2136  0.2969
  430MOL0     C59243   4.818   7.512   4.086 -0.1459  0.2048 -0.6432
  430MOL0     C59244   4.885   7.653   4.063 -0.6306  0.2770  0.7127
  430MOL0     C59245   4.917   7.670   3.910  0.2215 -0.9559  0.0327
  430MOL0     C59246   4.974   7.809   3.887 -0.1218 -0.0255 -0.2148
  430MOL0    Cl59247   5.015   7.827   3.710  0.0905 -0.2397  0.2921
  430MOL0     C59248   5.496   7.479   4.330 -0.3131 -0.3757 -0.0516
  430MOL0     C59249   5.626   7.404   4.321 -0.5277 -0.6792  0.0124
  430MOL0     O59250   5.933   7.425   4.508  0.0193 -0.2374  0.3247
  430MOL0     C59251   6.090   7.223   4.348 -0.1530  0.0088  0.2366
  430MOL0     C59252   6.214   7.166   4.349 -0.2374  0.4065 -0.2974
  430MOL0     N59253   6.973   7.393   4.289  0.5370  0.9339 -0.0497
  430MOL0     N59254   7.095   7.415   4.343 -0.2401 -0.0106 -0.6833
  430MOL0     C59255   6.527   7.404   4.761 -0.9464 -0.7629 -0.0993
  430MOL0     C59256   6.430   7.417   4.669 -0.1998  1.0548 -0.2398
  430MOL0     C59257   6.226   7.574   4.269 -0.3895 -0.1255  0.0919
  430MOL0     C59258   6.112   7.642   4.325 -0.0510 -0.1673 -1.2012
  430MOL0     C59259   5.995   7.662   4.252  0.3646 -0.5513 -0.1604
  430MOL0     C59260   5.996   7.631   4.115 -0.1853 -0.2561 -0.1765
  430MOL0     O59261   5.896   7.680   4.025 -0.6599 -0.1479  0.5958
  430MOL0     C59262   5.796   7.761   4.080  0.0965 -0.8578 -0.2162
  430MOL0     C59263   5.701   7.812   3.967 -1.0709  0.2374 -0.3339
  430MOL0     C59264   5.675   7.705   3.856  0.2842 -0.0560 -0.3279
  430MOL0     C59265   5.626   7.567   3.901 -0.4867  0.3404  0.5511
  430MOL0     C59266   5.494   7.595   3.963 -0.6069  0.0434 -0.2889
  430MOL0     C59267   5.390   7.623   4.011  1.1689  1.1618  0.0814
  430MOL0     C59268   6.110   7.584   4.052 -0.0735 -0.2707 -1.1051
  430MOL0     C59269   6.223   7.549   4.125  0.8082 -0.1609  0.5738
  430MOL0     C59270   6.338   7.486   4.052  0.1609 -0.1405 -0.0060
  430MOL0     H59271   6.521   7.694   4.508 -1.3701  0.5338  1.5356
  430MOL0     H59272   6.711   7.674   4.666 -0.2029  0.0986 -1.2957
  430MOL0     H59273   6.738   7.707   4.915  2.0779  2.1817 -0.5392
  430MOL0     H59274   6.852   7.636   4.803 -2.0216 -2.9732 -2.1947
  430MOL0     H59275   6.939   7.690   5.042 -0.0099 -0.2562  0.1847
  430MOL0     H59276   6.809   7.587   5.099 -0.4294  2.5054 -0.1860
  430MOL0     H59277   7.022   7.481   5.118 -2.5477  0.8515  1.5189
  430MOL0     H59278   6.927   7.376   5.008 -0.2245  0.0147  0.0730
  430MOL0     H59279   7.031   7.498   4.819  2.6728 -0.0155 -1.8289
  430MOL0     H59280   7.131   7.591   4.939  2.2666 -1.3122  1.8558
  430MOL0     H59281   7.141   7.291   4.952 -4.0494  1.8497  0.8553
  430MOL0     H59282   7.265   7.413   4.995  1.3310 -0.0696 -1.0803
  430MOL0     H59283   7.316   7.459   4.771 -1.7890  0.0761  0.6379
  430MOL0     H59284   7.327   7.280   4.791 -1.4540 -1.6276 -0.4929
  430MOL0     H59285   7.082   7.297   4.683 -0.8951  1.8297 -0.9364
  430MOL0     H59286   7.232   7.288   4.584  2.0985  0.4638 -0.6389
  430MOL0     H59287   7.147   7.558   4.638  3.6057  0.4088  0.9936
  430MOL0     H59288   7.264   7.484   4.531  0.4918  1.9268 -0.2599
  430MOL0     H59289   6.885   7.458   4.588 -1.0761 -0.8634 -0.1921
  430MOL0     H59290   6.726   7.358   4.233  0.2001  0.0774 -0.1624
  430MOL0     H59291   6.675   7.454   4.372 -1.1744  0.2926 -1.5622
  430MOL0     H59292   6.749   7.153   4.375  0.5526 -0.7990  0.7443
  430MOL0     H59293   6.686   7.262   4.509  0.9568  1.1470 -0.3489
  430MOL0     H59294   6.488   7.302   4.396 -1.9862 -2.1157  0.7876
  430MOL0     H59295   6.521   7.195   4.262 -2.3259  0.3337 -0.2158
  430MOL0     H59296   6.585   7.016   4.459  2.2346  1.7389 -1.9917
  430MOL0     H59297   6.492   7.133   4.557  4.2844  1.1514 -0.0994
  430MOL0     H59298   6.242   7.035   4.659  2.2845 -3.0285 -3.2567
  430MOL0     H59299   5.901   7.194   4.724  2.4853  1.9795 -2.4645
  430MOL0     H59300   6.051   7.187   4.800  0.9800  2.6071 -0.8096
  430MOL0     H59301   5.983   7.034   4.752 -2.2652 -0.7915  0.6158
  430MOL0     H59302   5.628   7.299   4.638  0.3643 -0.3531  0.1827
  430MOL0     H59303   5.387   7.366   4.626  2.1407  0.3587  2.3943
  430MOL0     H59304   5.230   7.450   4.252 -2.5136  2.7389 -0.6608
  430MOL0     H59305   5.178   7.343   4.374 -2.7684  0.4801 -2.1160
  430MOL0     H59306   5.020   7.522   4.461  0.0790 -3.1381  0.2158
  430MOL0     H59307   5.072   7.626   4.328  1.2555  0.6950  1.7675
  430MOL0     H59308   4.966   7.337   4.301  1.2258 -0.2056 -0.4127
  430MOL0     H59309   5.037   7.439   4.169  4.2283  0.0309  1.8553
  430MOL0     H59310   4.788   7.552   4.292 -2.1882 -1.5065  0.3341
  430MOL0     H59311   4.764   7.392   4.233  1.4911 -0.2978  0.9596
  430MOL0     H59312   4.865   7.433   4.026 -0.3454  0.6048 -1.3335
  430MOL0     H59313   4.716   7.525   4.050 -1.1323 -0.0967  1.8833
  430MOL0     H59314   4.980   7.669   4.116  0.2877 -0.3040 -0.6839
  430MOL0     H59315   4.814   7.729   4.095 -0.7996 -0.3804  1.9893
  430MOL0     H59316   4.826   7.663   3.850  1.0295  2.1570 -1.7665
  430MOL0     H59317   4.985   7.587   3.886 -1.1512 -2.1271  0.0224
  430MOL0     H59318   5.064   7.818   3.949 -0.9582  0.4487  0.9481
  430MOL0     H59319   4.908   7.891   3.916 -0.6036 -0.1140 -1.0420
  430MOL0     H59320   5.468   7.540   4.245 -0.0688 -0.3937 -0.1471
  430MOL0     H59321   5.677   7.398   4.225 -0.4606 -0.0038  0.0034
  430MOL0     H59322   6.055   7.275   4.259 -0.1314  0.0416  0.2472
  430MOL0     H59323   6.275   7.160   4.259 -1.5617 -1.8981 -1.1253
  430MOL0     H59324   6.521   7.318   4.828 -0.2576 -0.4325  0.3989
  430MOL0     H59325   6.361   7.333   4.662 -0.9246  1.2010  3.2760
  430MOL0     H59326   6.116   7.687   4.424  1.6724 -4.6046  0.9918
  430MOL0     H59327   5.906   7.708   4.294 -0.2676 -1.2344 -0.7146
  430MOL0     H59328   5.743   7.703   4.155  0.7700 -0.3453  0.6730
  430MOL0     H59329   5.842   7.851   4.123 -0.3176  0.1742 -1.8362
  430MOL0     H59330   5.748   7.903   3.927 -0.0517 -0.0232  0.2460
  430MOL0     H59331   5.609   7.841   4.019 -0.9451 -2.0271  1.3034
  430MOL0     H59332   5.608   7.742   3.777  1.8084  1.5078 -0.9416
  430MOL0     H59333   5.773   7.680   3.814  1.7051  0.8413  2.2554
  430MOL0     H59334   5.697   7.518   3.968 -2.2550 -1.2192  1.3732
  430MOL0     H59335   5.609   7.504   3.813  0.6127  1.3004 -0.3781
  430MOL0     H59336   5.298   7.648   4.060 -1.0441 -1.3241 -2.4709
  430MOL0     H59337   6.108   7.577   3.944 -3.6617 -1.1257 -1.0894
  430MOL0     H59338   6.303   7.431   3.964  0.2845  1.0709 -0.8407
  430MOL0     H59339   6.414   7.554   4.014  0.3499 -0.3596 -0.0176
  430MOL0     H59340   6.394   7.412   4.110 -1.6105  0.2500  2.3605
  431MOL0     O59341   3.869   0.372   1.703  0.5018 -0.4799  0.2177
  431MOL0     C59342   3.888   0.432   1.602  0.6983 -0.8552  0.8125
  431MOL0     O59343   4.015   0.462   1.551  0.1559 -0.3184 -0.0563
  431MOL0     C59344   4.126   0.442   1.628 -1.1710  0.2340 -0.3649
  431MOL0     C59345   4.165   0.525   1.733 -0.0130 -0.7181  0.0014
  431MOL0     C59346   4.283   0.514   1.806 -0.4134  0.6289 -0.3225
  431MOL0     C59347   4.372   0.416   1.769  0.5433  0.1914 -0.5440
  431MOL0     O59348   4.495   0.418   1.836 -0.6767  0.0899  0.3571
  431MOL0     C59349   4.501   0.295   1.910 -0.6360  0.6359 -0.4633
  431MOL0     C59350   4.612   0.316   2.012 -0.5040 -0.1235  0.6170
  431MOL0     C59351   4.760   0.292   1.956  0.8312  0.8200  0.8988
  431MOL0     C59352   4.853   0.338   2.068  0.4718  0.4017 -0.0647
  431MOL0     C59353   4.994   0.365   2.019 -0.0639  0.1346  0.8969
  431MOL0     C59354   5.086   0.404   2.135 -0.5980  0.8753 -1.0300
  431MOL0     C59355   5.233   0.413   2.080  0.2437  0.7674  0.1977
  431MOL0     C59356   5.306   0.274   2.100 -0.8893  0.4243 -0.6935
  431MOL0     N59357   5.451   0.274   2.074 -0.3325  0.5768 -0.1041
  431MOL0     C59358   5.517   0.230   1.964  0.5060  0.1375  0.6501
  431MOL0     C59359   5.647   0.236   1.995 -0.0766  0.1366 -0.9702
  431MOL0     C59360   5.765   0.216   1.909  0.0299  0.7125 -0.2390
  431MOL0     C59361   5.821   0.077   1.935 -0.1939 -0.6384 -0.3057
  431MOL0     C59362   5.915   0.026   1.816  0.7052  0.4282 -1.3175
  431MOL0     C59363   5.956  -0.115   1.822 -0.1555  0.5213  0.4247
  431MOL0     O59364   6.045  -0.123   1.937  0.1455  0.5863  0.0718
  431MOL0     C59365   6.138  -0.226   1.957 -0.0638 -0.7936 -0.6993
  431MOL0     C59366   6.126  -0.358   1.907 -0.0290 -0.7202  0.4012
  431MOL0     C59367   6.213  -0.459   1.931 -0.6740  0.3499 -0.1504
  431MOL0     C59368   6.197  -0.597   1.860  0.5975 -0.2450  0.1868
  431MOL0     C59369   6.335  -0.431   1.992  1.2543 -0.3906 -0.3515
  431MOL0     C59370   6.438  -0.534   2.031 -0.3016 -0.4593 -0.0393
  431MOL0     O59371   6.488  -0.620   1.940 -0.2204 -0.5143  0.2174
  431MOL0     C59372   6.589  -0.705   1.978 -0.8346 -0.1157 -1.1521
  431MOL0     C59373   6.729  -0.678   1.965  0.7773  0.5123  0.2102
  431MOL0     C59374   6.820  -0.773   1.996  0.1055  0.1950 -0.1583
  431MOL0     C59375   6.788  -0.903   2.041 -0.5825 -0.0994 -0.0378
  431MOL0     O59376   6.886  -0.989   2.065 -0.4838  0.8295  0.2420
  431MOL0     C59377   6.861  -1.131   2.042 -0.0088 -0.7186 -0.0866
  431MOL0     C59378   6.988  -1.217   2.080  0.8943  0.0197  0.7613
  431MOL0     C59379   6.953  -1.372   2.075  0.9504  0.4562 -0.9613
  431MOL0     C59380   7.066  -1.457   2.004 -0.6459 -0.5401 -0.1737
  431MOL0     C59381   7.195  -1.463   2.084  0.2878 -0.4591  0.8913
  431MOL0     C59382   7.283  -1.551   2.007 -0.3969  0.5701 -0.1450
  431MOL0     C59383   7.394  -1.617   2.090 -0.5470  0.3498  0.0030
  431MOL0     C59384   7.480  -1.700   2.002  0.3725  0.3917  0.1202
  431MOL0    Cl59385   7.603  -1.784   2.105 -0.4227  0.2942  0.4109
  431MOL0     C59386   6.655  -0.936   2.048  0.7532 -0.2006 -0.1194
  431MOL0     C59387   6.557  -0.837   2.022 -0.2037 -0.8611  0.1635
  431MOL0     O59388   6.483  -0.522   2.148 -0.4363  0.1900 -0.6243
  431MOL0     C59389   6.348  -0.301   2.051 -0.2471 -0.6073  0.4357
  431MOL0     C59390   6.253  -0.194   2.030 -0.6774 -0.4810  0.1707
  431MOL0     N59391   5.660   0.273   2.126 -0.1536  0.0760 -0.0089
  431MOL0     N59392   5.534   0.303   2.173  0.7036 -0.0583 -0.7463
  431MOL0     C59393   4.340   0.331   1.659  0.0383  0.4705  0.3382
  431MOL0     C59394   4.221   0.352   1.579  0.9430 -0.4180 -0.4671
  431MOL0     C59395   3.772   0.477   1.515 -0.5197  0.8745 -0.0671
  431MOL0     C59396   3.795   0.503   1.381 -0.3131  0.2767 -0.5242
  431MOL0     C59397   3.696   0.536   1.297  0.0427 -0.5504  0.1513
  431MOL0     C59398   3.558   0.534   1.322  0.1205 -0.6320  0.7773
  431MOL0     O59399   3.458   0.543   1.231  0.2074 -0.3820 -1.0787
  431MOL0     C59400   3.398   0.419   1.190  0.6475  0.1535 -0.3119
  431MOL0     C59401   3.249   0.439   1.220 -0.7393  0.0882 -0.0287
  431MOL0     C59402   3.182   0.307   1.194 -0.4458 -0.1403 -0.9249
  431MOL0     C59403   3.248   0.189   1.265 -0.5975  0.3186 -0.0716
  431MOL0     C59404   3.283   0.202   1.405 -0.6449 -0.0198 -0.7706
  431MOL0     C59405   3.286   0.218   1.528 -0.3160 -1.0412  0.0887
  431MOL0     C59406   3.532   0.495   1.454  0.0755  0.5952  0.1384
  431MOL0     C59407   3.634   0.466   1.547  0.1179 -0.0142 -1.1213
  431MOL0     C59408   3.586   0.402   1.684 -0.0677  0.0763 -0.2034
  431MOL0     H59409   4.095   0.595   1.779  0.4559 -0.8479  0.9377
  431MOL0     H59410   4.304   0.581   1.889 -2.4902 -1.0237  1.6993
  431MOL0     H59411   4.513   0.204   1.851  5.4427 -0.4685  1.7782
  431MOL0     H59412   4.409   0.277   1.967 -1.8997 -0.0262 -2.5901
  431MOL0     H59413   4.606   0.422   2.036  1.3589  1.0323 -3.1849
  431MOL0     H59414   4.584   0.257   2.100 -0.2015 -3.7465 -1.5126
  431MOL0     H59415   4.776   0.187   1.932 -0.4714  0.8238 -0.0435
  431MOL0     H59416   4.770   0.356   1.868 -0.9805 -2.3109 -1.7497
  431MOL0     H59417   4.819   0.430   2.118 -0.2514  0.9395 -1.5077
  431MOL0     H59418   4.852   0.257   2.142 -1.8746 -0.0390 -0.5166
  431MOL0     H59419   4.996   0.441   1.940  0.2205  0.5279  1.2822
  431MOL0     H59420   5.028   0.272   1.972 -1.1345  0.2471 -0.1521
  431MOL0     H59421   5.052   0.501   2.171 -0.7369  0.9433 -1.3475
  431MOL0     H59422   5.077   0.320   2.205  1.3132 -0.0766 -1.8240
  431MOL0     H59423   5.296   0.479   2.141 -0.5834  2.8934 -1.1295
  431MOL0     H59424   5.235   0.452   1.978 -0.4786 -2.9662 -1.4015
  431MOL0     H59425   5.291   0.241   2.203 -0.3756 -3.5185 -1.6895
  431MOL0     H59426   5.265   0.196   2.036  0.4070 -0.9034  0.0261
  431MOL0     H59427   5.479   0.199   1.868 -1.7687  1.7511  0.9671
  431MOL0     H59428   5.831   0.297   1.940  0.0492 -0.3069  2.7063
  431MOL0     H59429   5.733   0.228   1.805  1.8604 -0.5381 -1.0001
  431MOL0     H59430   5.891   0.080   2.020  2.4871 -1.4750 -2.3271
  431MOL0     H59431   5.741   0.009   1.963 -1.1547 -0.7227 -2.9473
  431MOL0     H59432   5.850   0.052   1.731 -0.7319 -0.3753 -0.5037
  431MOL0     H59433   6.003   0.091   1.815  2.4210 -1.7242  0.5199
  431MOL0     H59434   5.872  -0.183   1.834 -0.5964  1.4108  3.1630
  431MOL0     H59435   6.006  -0.137   1.728 -0.2393 -1.6527  0.8383
  431MOL0     H59436   6.032  -0.374   1.856 -0.2335 -0.2986  0.6463
  431MOL0     H59437   6.248  -0.678   1.912 -3.5981 -1.9551  2.0837
  431MOL0     H59438   6.226  -0.587   1.755 -1.1800  1.1856 -0.2178
  431MOL0     H59439   6.094  -0.632   1.860  1.0690 -1.6915  0.3707
  431MOL0     H59440   6.775  -0.585   1.931  0.3317  0.9047  0.6593
  431MOL0     H59441   6.928  -0.761   1.997  0.3924 -1.9495  1.2636
  431MOL0     H59442   6.773  -1.159   2.100  0.5136 -0.8775  0.6463
  431MOL0     H59443   6.845  -1.155   1.936 -0.3240 -1.1546  0.0551
  431MOL0     H59444   7.076  -1.199   2.018  0.2373  0.8029  0.0202
  431MOL0     H59445   7.021  -1.192   2.181  1.7668  2.3463 -0.0256
  431MOL0     H59446   6.856  -1.395   2.030  0.1721 -0.4216  1.0384
  431MOL0     H59447   6.950  -1.405   2.179 -1.5961  0.7272 -0.8939
  431MOL0     H59448   7.100  -1.406   1.914 -0.3182  0.3695  0.4472
  431MOL0     H59449   7.022  -1.554   1.979 -1.4910 -0.1065 -0.4229
  431MOL0     H59450   7.235  -1.362   2.081 -0.6809  0.0366  2.9690
  431MOL0     H59451   7.200  -1.493   2.189  0.4246  0.0993  1.0449
  431MOL0     H59452   7.335  -1.506   1.922 -0.0818 -0.0319 -0.2782
  431MOL0     H59453   7.228  -1.643   1.982 -0.4295 -0.0133  1.8572
  431MOL0     H59454   7.341  -1.675   2.166 -4.7521  1.5628 -1.7037
  431MOL0     H59455   7.459  -1.540   2.133  0.1260 -0.8995  1.3163
  431MOL0     H59456   7.534  -1.647   1.923  0.4870  1.3891  0.8489
  431MOL0     H59457   7.426  -1.781   1.952  1.5575 -0.7680  0.6377
  431MOL0     H59458   6.610  -1.023   2.097  2.0292  1.3176  4.1254
  431MOL0     H59459   6.455  -0.874   2.030  0.1442 -1.7928  0.3977
  431MOL0     H59460   6.445  -0.285   2.097 -0.8574 -0.9074  1.8856
  431MOL0     H59461   6.281  -0.094   2.059  2.0314 -0.3985 -2.2862
  431MOL0     H59462   4.404   0.247   1.634  1.0329  1.3042  0.0060
  431MOL0     H59463   4.186   0.289   1.498  0.2424 -1.9368  0.9590
  431MOL0     H59464   3.894   0.494   1.338  0.1427  0.1919  0.5164
  431MOL0     H59465   3.732   0.546   1.195  1.9505 -1.8440  0.6486
  431MOL0     H59466   3.412   0.404   1.082 -0.5229 -0.0643 -0.4469
  431MOL0     H59467   3.455   0.338   1.237  1.6062  0.9576 -0.0647
  431MOL0     H59468   3.207   0.516   1.154 -1.0112  0.2779  0.3626
  431MOL0     H59469   3.232   0.467   1.324  1.9386  0.8538  0.2937
  431MOL0     H59470   3.077   0.318   1.223 -0.3064 -1.7801  0.3412
  431MOL0     H59471   3.188   0.277   1.089  3.0562  0.0182 -0.9031
  431MOL0     H59472   3.337   0.161   1.208  1.1055  3.1147  1.0005
  431MOL0     H59473   3.174   0.109   1.264 -1.9534  1.4828  1.6752
  431MOL0     H59474   3.293   0.228   1.634 -0.2910  1.1048 -0.0695
  431MOL0     H59475   3.433   0.493   1.498  0.0168 -2.0957 -0.0024
  431MOL0     H59476   3.609   0.295   1.686 -0.1105  0.0377 -1.3195
  431MOL0     H59477   3.641   0.452   1.764 -0.2853 -0.2254  0.1375
  431MOL0     H59478   3.481   0.424   1.708 -0.5742 -2.0027 -0.3143
  432MOL0     O59479   7.152   2.007   3.332 -0.2378  0.0548 -0.3263
  432MOL0     C59480   7.056   1.936   3.368  0.3263  0.2311  0.5897
  432MOL0     O59481   7.066   1.842   3.482  0.0775 -0.3420  0.2962
  432MOL0     C59482   7.180   1.800   3.541  0.3338 -0.3445  0.3890
  432MOL0     C59483   7.174   1.736   3.667 -0.5984  0.2295 -0.1609
  432MOL0     C59484   7.291   1.705   3.735  0.0596  0.5091 -0.2078
  432MOL0     C59485   7.419   1.726   3.679  0.5767 -0.2248 -0.0156
  432MOL0     O59486   7.544   1.702   3.727 -0.1777  0.1470 -0.5322
  432MOL0     C59487   7.563   1.683   3.863  0.1994 -0.7533 -0.0767
  432MOL0     C59488   7.592   1.829   3.923 -0.3927  1.0609 -0.5316
  432MOL0     C59489   7.677   1.934   3.837  0.3956  0.5611  0.2348
  432MOL0     C59490   7.825   1.898   3.819 -0.6462  0.1580 -0.7378
  432MOL0     C59491   7.904   2.014   3.755  0.0482 -0.8651  0.4120
  432MOL0     C59492   8.025   1.960   3.665  1.8501 -0.3590  0.3676
  432MOL0     C59493   8.133   1.876   3.735 -0.8926  0.4556  0.5861
  432MOL0     C59494   8.240   1.825   3.636 -0.1903 -0.2976 -0.1484
  432MOL0     N59495   8.306   1.928   3.550 -0.4342 -0.6512 -0.2365
  432MOL0     C59496   8.418   2.004   3.583 -0.8528  0.3800 -0.4902
  432MOL0     C59497   8.450   2.065   3.460 -0.1297  0.0773 -0.3448
  432MOL0     C59498   8.554   2.167   3.471 -0.6691 -0.2436  0.2649
  432MOL0     C59499   8.553   2.226   3.334 -0.5666 -0.1152 -0.3030
  432MOL0     C59500   8.635   2.356   3.312  0.5990 -0.9302  0.7257
  432MOL0     C59501   8.794   2.349   3.314  0.7738 -1.0952 -0.3211
  432MOL0     O59502   8.841   2.267   3.214  0.6532  0.4380  0.1751
  432MOL0     C59503   8.979   2.278   3.189 -0.5488 -0.1931 -0.4882
  432MOL0     C59504   9.080   2.357   3.261 -0.1398  0.2436  0.4954
  432MOL0     C59505   9.219   2.369   3.234  0.4216 -0.7314 -0.7393
  432MOL0     C59506   9.313   2.456   3.321  0.2183 -0.3858 -0.2178
  432MOL0     C59507   9.273   2.286   3.128 -0.4712 -0.5337  0.1686
  432MOL0     C59508   9.416   2.280   3.097  0.3318 -1.3173 -0.8221
  432MOL0     O59509   9.479   2.398   3.087  0.0678  0.5059  0.4471
  432MOL0     C59510   9.609   2.388   3.051 -0.0694  0.3217 -0.4103
  432MOL0     C59511   9.720   2.380   3.133  0.1712 -0.2808  0.7990
  432MOL0     C59512   9.846   2.400   3.080 -0.0810  0.3808 -1.2574
  432MOL0     C59513   9.868   2.426   2.942  0.1235  0.6056  0.7048
  432MOL0     O59514   9.993   2.415   2.878 -0.1848  0.0750 -0.3169
  432MOL0     C59515  10.080   2.501   2.945 -0.5941 -0.5398 -0.4150
  432MOL0     C59516  10.204   2.529   2.849  0.7586 -0.3177 -0.2889
  432MOL0     C59517  10.291   2.410   2.822  0.7773 -0.2109 -0.8256
  432MOL0     C59518  10.412   2.410   2.916  0.3255  0.2596 -0.2302
  432MOL0     C59519  10.507   2.295   2.888 -0.0301 -0.2963  0.4916
  432MOL0     C59520  10.645   2.316   2.948  0.0544  0.0832 -0.5307
  432MOL0     C59521  10.710   2.184   2.938 -0.1960  1.1892 -0.1193
  432MOL0     C59522  10.849   2.193   3.008  0.0666 -1.1392 -0.4534
  432MOL0    Cl59523  10.940   2.339   2.967  0.1459 -0.1171  0.1325
  432MOL0     C59524   9.759   2.417   2.859  0.3598 -0.0131 -0.0821
  432MOL0     C59525   9.630   2.401   2.913 -0.4042  0.4504 -0.3626
  432MOL0     O59526   9.464   2.174   3.078 -0.2959  0.0244  0.3579
  432MOL0     C59527   9.182   2.209   3.050 -0.0133  0.4855 -0.4698
  432MOL0     C59528   9.038   2.217   3.079  0.3044  0.7318  0.6383
  432MOL0     N59529   8.359   2.031   3.360 -1.0709  0.3681  0.0509
  432MOL0     N59530   8.275   1.954   3.419  0.3243  0.0750  0.3022
  432MOL0     C59531   7.420   1.778   3.549 -0.6571  0.2732 -0.3147
  432MOL0     C59532   7.306   1.809   3.479  0.2243  0.0056  0.1900
  432MOL0     C59533   6.923   1.951   3.302 -0.4468 -0.4952  0.0501
  432MOL0     C59534   6.816   1.859   3.336 -0.3450  0.2633 -0.4257
  432MOL0     C59535   6.687   1.865   3.282 -0.1220 -0.2940 -0.1309
  432MOL0     C59536   6.667   1.954   3.178 -0.1708 -0.7151 -0.0094
  432MOL0     O59537   6.554   1.964   3.097  0.1297  0.2068 -0.8098
  432MOL0     C59538   6.436   1.893   3.130  0.3195 -0.4259 -0.0114
  432MOL0     C59539   6.344   1.914   3.013 -0.0926  0.1816  0.5080
  432MOL0     C59540   6.213   1.835   3.044 -0.4208 -0.3115  1.1472
  432MOL0     C59541   6.091   1.920   3.020 -0.0738  0.3303 -0.5341
  432MOL0     C59542   6.064   1.967   2.884  0.6949 -0.2649  0.1128
  432MOL0     C59543   6.044   2.000   2.770 -0.3009 -0.5081  0.0549
  432MOL0     C59544   6.776   2.038   3.143  0.6820 -0.0410  0.1196
  432MOL0     C59545   6.904   2.032   3.191 -0.4191 -0.1466  0.4263
  432MOL0     C59546   6.998   2.119   3.124  0.0018 -0.5708  1.0052
  432MOL0     H59547   7.076   1.712   3.705 -0.2807 -1.3655 -0.2823
  432MOL0     H59548   7.287   1.651   3.829 -1.5229  0.0665 -0.5050
  432MOL0     H59549   7.652   1.621   3.878 -0.0087 -0.6791  1.6658
  432MOL0     H59550   7.480   1.644   3.922  2.3440  1.8223  5.3464
  432MOL0     H59551   7.491   1.867   3.940 -1.0846 -0.7689 -0.2461
  432MOL0     H59552   7.639   1.813   4.020  0.2293 -2.7190 -1.2779
  432MOL0     H59553   7.626   1.953   3.742  0.8645 -3.0300 -0.8982
  432MOL0     H59554   7.684   2.023   3.900 -1.5649 -1.5133  3.7216
  432MOL0     H59555   7.876   1.875   3.913 -1.9718  0.5255  0.0999
  432MOL0     H59556   7.838   1.809   3.757  0.0235  0.3937 -0.9451
  432MOL0     H59557   7.937   2.093   3.823 -0.6529  1.0709 -1.4205
  432MOL0     H59558   7.832   2.066   3.692 -0.8598 -1.6046  0.8130
  432MOL0     H59559   7.981   1.891   3.592 -1.7260  0.2650  1.6979
  432MOL0     H59560   8.079   2.036   3.607  1.5603 -0.0668  0.4774
  432MOL0     H59561   8.087   1.795   3.793  0.6957 -0.0725  1.1385
  432MOL0     H59562   8.174   1.932   3.819  1.5220  2.2362 -1.6236
  432MOL0     H59563   8.307   1.777   3.709 -2.7654 -1.8786  1.3313
  432MOL0     H59564   8.190   1.755   3.568  2.9663 -0.6539 -2.3257
  432MOL0     H59565   8.455   2.020   3.684  1.1198 -4.1330 -0.2836
  432MOL0     H59566   8.650   2.123   3.500 -0.1472 -1.7059 -3.1861
  432MOL0     H59567   8.516   2.240   3.543 -2.0198 -1.3975  0.7722
  432MOL0     H59568   8.577   2.146   3.263  0.4594 -0.9709  0.9451
  432MOL0     H59569   8.449   2.255   3.317 -1.0229 -1.4904  0.0153
  432MOL0     H59570   8.605   2.388   3.212  0.0637 -2.5229  0.3385
  432MOL0     H59571   8.601   2.428   3.386 -1.3468 -1.5757  0.5198
  432MOL0     H59572   8.825   2.454   3.305  0.7305 -1.0831 -0.3331
  432MOL0     H59573   8.829   2.325   3.415 -1.3747 -0.8929  0.5346
  432MOL0     H59574   9.042   2.411   3.347  0.2155 -0.6798  1.2437
  432MOL0     H59575   9.258   2.494   3.407 -1.4762  0.4235 -1.5911
  432MOL0     H59576   9.330   2.545   3.260 -2.2397  0.3373  0.0515
  432MOL0     H59577   9.404   2.410   3.362 -0.5519 -1.0674  0.7808
  432MOL0     H59578   9.709   2.362   3.239 -0.0205  2.9899  1.4544
  432MOL0     H59579   9.930   2.394   3.149  0.0665  1.7927 -1.2689
  432MOL0     H59580  10.046   2.594   2.991  0.6534 -0.7806  1.0645
  432MOL0     H59581  10.118   2.445   3.031 -1.4425  0.0784  0.3805
  432MOL0     H59582  10.175   2.578   2.756  2.2208 -1.6675 -1.5193
  432MOL0     H59583  10.263   2.607   2.900 -2.2688  2.9100 -1.3060
  432MOL0     H59584  10.331   2.424   2.721  1.7390  0.7053 -0.3468
  432MOL0     H59585  10.231   2.319   2.824 -1.3044  1.0503 -2.0933
  432MOL0     H59586  10.373   2.415   3.018  1.2821 -1.1817  0.2364
  432MOL0     H59587  10.460   2.506   2.897 -0.6538  0.7558 -0.2752
  432MOL0     H59588  10.457   2.210   2.936  2.1136 -1.9089  0.0393
  432MOL0     H59589  10.525   2.280   2.782 -0.5021 -0.9784  0.4980
  432MOL0     H59590  10.642   2.360   3.047  1.5287  1.9516 -1.2671
  432MOL0     H59591  10.698   2.391   2.888 -1.1289  1.0335 -0.4127
  432MOL0     H59592  10.723   2.166   2.831  1.4271 -0.8310  0.3352
  432MOL0     H59593  10.657   2.101   2.986  2.3714 -0.4987  0.0366
  432MOL0     H59594  10.895   2.096   2.986  0.7911 -1.1526  1.0209
  432MOL0     H59595  10.833   2.199   3.116  0.4827 -0.4729 -0.4195
  432MOL0     H59596   9.768   2.434   2.752  0.9551  2.5492  0.2991
  432MOL0     H59597   9.550   2.384   2.842 -1.2051 -3.5941  1.2802
  432MOL0     H59598   9.222   2.153   2.966  2.2457  0.2069  0.7191
  432MOL0     H59599   8.976   2.157   3.014 -0.2532 -0.4382  2.2009
  432MOL0     H59600   7.504   1.803   3.484 -1.9058 -0.5685 -2.3547
  432MOL0     H59601   7.319   1.829   3.373  1.5783  0.9031  0.4964
  432MOL0     H59602   6.834   1.800   3.425 -0.4174 -0.5802 -0.9572
  432MOL0     H59603   6.610   1.793   3.309 -1.4050  0.6319 -1.1989
  432MOL0     H59604   6.445   1.786   3.152 -0.0592 -0.7055 -1.1755
  432MOL0     H59605   6.382   1.936   3.215 -3.3876 -1.6597 -1.5044
  432MOL0     H59606   6.384   1.887   2.915 -1.2170 -1.9682  0.5933
  432MOL0     H59607   6.322   2.022   3.011 -0.0577  0.1791 -0.1258
  432MOL0     H59608   6.210   1.752   2.973 -0.4493  1.4721 -1.0267
  432MOL0     H59609   6.217   1.786   3.142  0.1432 -1.2571  0.6714
  432MOL0     H59610   6.081   2.013   3.077 -0.9940  1.6432 -2.7160
  432MOL0     H59611   6.009   1.852   3.044  3.2053 -3.5911  0.8220
  432MOL0     H59612   6.016   2.026   2.670 -0.1574  0.8666  0.3515
  432MOL0     H59613   6.757   2.116   3.071  2.4367 -1.6491 -2.2581
  432MOL0     H59614   7.016   2.212   3.178  2.4719 -0.8144  0.7147
  432MOL0     H59615   7.099   2.077   3.120  0.7405  1.2485 -1.6862
  432MOL0     H59616   6.955   2.135   3.025 -2.7847 -0.9600  2.0531
  433MOL0     O59617   7.770   2.705  10.739  0.2447 -0.4298  0.0970
  433MOL0     C59618   7.870   2.641  10.753  0.9032  0.3239  0.1237
  433MOL0     O59619   7.958   2.607  10.652 -0.7147  0.3289  0.1892
  433MOL0     C59620   7.924   2.667  10.534  0.0878  0.6363 -0.1048
  433MOL0     C59621   7.819   2.613  10.466 -0.0312  0.5785 -0.2375
  433MOL0     C59622   7.775   2.678  10.350 -0.0185 -0.3130  0.5781
  433MOL0     C59623   7.845   2.786  10.293 -0.2963  0.3495  1.0993
  433MOL0     O59624   7.802   2.835  10.170  0.0437  0.5959 -0.3769
  433MOL0     C59625   7.871   2.936  10.098 -0.9647  0.5567 -0.2126
  433MOL0     C59626   7.977   2.882  10.005  0.3107  0.6362  0.5725
  433MOL0     C59627   8.087   2.983   9.967  0.0649  1.2000  0.2200
  433MOL0     C59628   8.023   3.095   9.881 -1.6242  0.2948  0.4224
  433MOL0     C59629   8.117   3.187   9.817 -0.3373 -0.5065  0.4237
  433MOL0     C59630   8.046   3.288   9.725  0.6153  0.4854 -1.1652
  433MOL0     C59631   8.129   3.369   9.628 -0.3343 -0.0585  0.2303
  433MOL0     C59632   8.260   3.420   9.678  0.3553 -0.1307 -0.0372
  433MOL0     N59633   8.245   3.535   9.768  0.1666 -0.3425 -0.7690
  433MOL0     C59634   8.331   3.643   9.768 -0.7574  1.1449 -0.5052
  433MOL0     C59635   8.313   3.707   9.889 -0.0120  0.9809 -1.1976
  433MOL0     C59636   8.376   3.833   9.948  0.1614  0.6498  0.1633
  433MOL0     C59637   8.492   3.796  10.039  0.2639 -0.5153 -0.3716
  433MOL0     C59638   8.546   3.928  10.092 -0.5552  0.0026 -0.7509
  433MOL0     C59639   8.672   3.899  10.175  0.1029 -0.2001 -0.4646
  433MOL0     O59640   8.777   3.933  10.091 -0.0493 -0.4130  0.0076
  433MOL0     C59641   8.909   3.905  10.137  0.2047 -0.0722 -0.6149
  433MOL0     C59642   8.942   3.930  10.274  0.0820 -0.9502 -0.3493
  433MOL0     C59643   9.063   3.895  10.330 -0.4147  0.1929  0.8699
  433MOL0     C59644   9.085   3.964  10.462  0.4736  0.2719 -0.7538
  433MOL0     C59645   9.166   3.850  10.250 -0.9835 -0.3948 -1.0500
  433MOL0     C59646   9.308   3.838  10.291 -0.0182  0.4151 -0.3818
  433MOL0     O59647   9.400   3.817  10.196  0.2662 -0.7186  0.2843
  433MOL0     C59648   9.517   3.762  10.224 -0.5744 -0.3713 -0.2317
  433MOL0     C59649   9.642   3.842  10.210 -0.0492  0.3337 -1.1039
  433MOL0     C59650   9.767   3.790  10.235 -0.9948  0.1212 -0.0003
  433MOL0     C59651   9.775   3.655  10.282  0.7618 -0.0067 -0.3029
  433MOL0     O59652   9.891   3.589  10.287 -0.0738  0.3420  0.2604
  433MOL0     C59653  10.018   3.656  10.302 -0.4464  0.2541  0.2136
  433MOL0     C59654  10.134   3.561  10.282 -0.4764 -0.0347  0.5073
  433MOL0     C59655  10.267   3.620  10.292  0.6331  0.1893  0.1873
  433MOL0     C59656  10.376   3.513  10.290  0.0039  0.2974 -0.4952
  433MOL0     C59657  10.507   3.578  10.315 -0.4146 -0.4172  0.3529
  433MOL0     C59658  10.615   3.472  10.312  0.5702  0.1702  0.4204
  433MOL0     C59659  10.621   3.371  10.431 -0.1302 -0.0114  0.5974
  433MOL0     C59660  10.659   3.232  10.391  0.0003  0.1693 -0.2387
  433MOL0    Cl59661  10.536   3.160  10.284  0.1188  0.2941 -0.3675
  433MOL0     C59662   9.664   3.578  10.285  1.0665 -0.0209  0.1221
  433MOL0     C59663   9.533   3.629  10.267 -0.1054  1.2547  0.3645
  433MOL0     O59664   9.334   3.829  10.408  0.0109 -0.7243 -0.2556
  433MOL0     C59665   9.132   3.821  10.117  0.4787  0.5036 -0.0595
  433MOL0     C59666   9.010   3.848  10.067 -0.1706 -1.0532  0.5541
  433MOL0     N59667   8.228   3.635   9.962  0.0588 -0.4383 -0.3704
  433MOL0     N59668   8.190   3.535   9.893 -0.1588 -0.1088  0.3547
  433MOL0     C59669   7.953   2.838  10.366 -0.1792 -0.2836  0.1897
  433MOL0     C59670   7.995   2.776  10.483 -0.3994 -0.3724 -0.3010
  433MOL0     C59671   7.912   2.603  10.891 -0.7558  0.1405  0.0371
  433MOL0     C59672   8.049   2.587  10.927  0.6784  0.3360  0.1964
  433MOL0     C59673   8.088   2.533  11.045  0.7556 -0.1269 -0.0180
  433MOL0     C59674   7.999   2.516  11.146  0.2893 -0.3346  0.3219
  433MOL0     O59675   8.035   2.468  11.272  0.0597 -0.1916  0.2455
  433MOL0     C59676   8.175   2.428  11.309  0.0072 -0.8382  0.3165
  433MOL0     C59677   8.213   2.293  11.243 -0.3180 -0.8449  1.3505
  433MOL0     C59678   8.132   2.178  11.300  0.1198 -0.0252  0.0012
  433MOL0     C59679   8.188   2.044  11.244 -0.3924  0.3660  0.6128
  433MOL0     C59680   8.145   1.920  11.315 -0.6846 -0.5418  0.0554
  433MOL0     C59681   8.102   1.819  11.367 -0.7641 -0.0209 -0.9675
  433MOL0     C59682   7.864   2.554  11.131  0.0992  0.2182  0.6404
  433MOL0     C59683   7.815   2.579  10.999  0.9005  0.9209 -0.7052
  433MOL0     C59684   7.667   2.575  10.975  0.0242  0.2815  0.0770
  433MOL0     H59685   7.778   2.525  10.514  1.8337 -0.0751  0.2397
  433MOL0     H59686   7.688   2.638  10.299 -0.8375 -0.9492  2.3806
  433MOL0     H59687   7.916   2.998  10.176  1.5631 -1.0201 -0.3224
  433MOL0     H59688   7.797   2.992  10.040 -1.1894 -1.8547 -2.4204
  433MOL0     H59689   8.030   2.797  10.050  4.2550  1.3920 -2.1980
  433MOL0     H59690   7.927   2.855   9.912 -3.5802  4.0208  1.3800
  433MOL0     H59691   8.148   3.018  10.051  1.0039 -2.9757  1.5047
  433MOL0     H59692   8.155   2.919   9.910  0.2018  0.0134  1.6483
  433MOL0     H59693   7.970   3.043   9.801 -1.2230  1.3288 -0.5456
  433MOL0     H59694   7.950   3.160   9.931 -1.0616  1.2262  0.0623
  433MOL0     H59695   8.186   3.126   9.758  0.2669  1.8598 -1.4481
  433MOL0     H59696   8.185   3.246   9.880 -2.4321  1.9423  0.5629
  433MOL0     H59697   7.972   3.226   9.673  0.3171 -3.0616  2.9636
  433MOL0     H59698   7.989   3.360   9.784  0.0229  0.3766 -1.5916
  433MOL0     H59699   8.086   3.466   9.601  0.2915  0.3713  0.7138
  433MOL0     H59700   8.143   3.307   9.540 -2.3778  0.2421 -0.3576
  433MOL0     H59701   8.306   3.344   9.742 -1.8381  1.9668  4.4774
  433MOL0     H59702   8.327   3.453   9.598  1.4483  0.2895  1.0192
  433MOL0     H59703   8.391   3.668   9.681  0.0865  1.1551  0.0757
  433MOL0     H59704   8.303   3.894  10.002 -3.4343 -2.7101 -0.4508
  433MOL0     H59705   8.411   3.886   9.859 -4.0901  0.5571 -1.8251
  433MOL0     H59706   8.451   3.744  10.126 -1.0501  2.4975  0.9506
  433MOL0     H59707   8.566   3.743   9.979  2.0000  0.8116  0.5347
  433MOL0     H59708   8.563   3.994  10.007  0.7335  1.7914  0.8126
  433MOL0     H59709   8.471   3.985  10.150  0.1827  0.6188 -0.3805
  433MOL0     H59710   8.661   3.949  10.272 -2.5255 -0.4697 -0.5558
  433MOL0     H59711   8.676   3.794  10.203 -0.8535  0.3715  2.1039
  433MOL0     H59712   8.868   3.983  10.332  0.8039 -0.0246 -0.2408
  433MOL0     H59713   9.123   3.900  10.542  0.2022 -0.8824 -1.5313
  433MOL0     H59714   8.994   4.008  10.504  0.3511 -0.7604  0.1083
  433MOL0     H59715   9.144   4.056  10.455  0.9114  0.0094 -0.5791
  433MOL0     H59716   9.628   3.944  10.176  0.1202  1.5469  2.1415
  433MOL0     H59717   9.860   3.843  10.217 -0.2112 -1.2917 -0.2968
  433MOL0     H59718  10.035   3.737  10.231  0.6339  1.2274  1.5270
  433MOL0     H59719  10.036   3.690  10.405  0.5994 -0.0932  0.1614
  433MOL0     H59720  10.121   3.478  10.352 -1.3392  0.5773  1.0888
  433MOL0     H59721  10.126   3.521  10.180 -1.3667  2.1680 -0.3440
  433MOL0     H59722  10.270   3.663  10.392  0.4109  0.6993 -0.0210
  433MOL0     H59723  10.286   3.690  10.209 -1.0860 -3.1424 -3.3335
  433MOL0     H59724  10.374   3.459  10.194  0.3056  0.2761 -0.4930
  433MOL0     H59725  10.365   3.431  10.362  0.7648 -0.4217 -1.1605
  433MOL0     H59726  10.525   3.654  10.238 -1.8619 -2.3080 -1.9870
  433MOL0     H59727  10.499   3.636  10.408 -0.4197  1.8192 -0.9810
  433MOL0     H59728  10.711   3.525  10.311 -0.1757  1.5604 -1.4800
  433MOL0     H59729  10.608   3.417  10.218 -4.7753  0.9002  0.1377
  433MOL0     H59730  10.523   3.369  10.479 -0.8507  1.5816 -0.6834
  433MOL0     H59731  10.690   3.420  10.501  0.1009 -0.5440  0.7406
  433MOL0     H59732  10.660   3.167  10.479  2.5985 -1.6676 -1.5050
  433MOL0     H59733  10.756   3.234  10.341 -1.2517 -2.0305 -3.0115
  433MOL0     H59734   9.688   3.472  10.295 -0.6504 -0.6956 -2.1373
  433MOL0     H59735   9.443   3.569  10.272  0.2537  0.6499 -0.2566
  433MOL0     H59736   9.207   3.784  10.049 -1.0877 -0.8106 -1.1460
  433MOL0     H59737   8.983   3.824   9.965  0.4316 -1.1140  0.4067
  433MOL0     H59738   8.007   2.927  10.336 -1.5640  1.1036  1.6251
  433MOL0     H59739   8.081   2.816  10.536 -0.6635  0.7363 -0.6943
  433MOL0     H59740   8.135   2.615  10.868  3.2531 -2.8213  2.0909
  433MOL0     H59741   8.196   2.529  11.057  0.5507 -0.1279  2.0836
  433MOL0     H59742   8.247   2.507  11.290  1.2273 -1.1800  3.0983
  433MOL0     H59743   8.174   2.407  11.416 -2.9136 -0.6470  0.4280
  433MOL0     H59744   8.321   2.278  11.240 -0.3189 -0.8063 -1.1368
  433MOL0     H59745   8.182   2.297  11.138 -0.1504 -2.3700  1.2224
  433MOL0     H59746   8.136   2.176  11.410  3.2606  3.0413  0.0843
  433MOL0     H59747   8.024   2.184  11.281  0.0208 -1.0548  0.1640
  433MOL0     H59748   8.295   2.038  11.263 -0.0965  0.9947 -0.7162
  433MOL0     H59749   8.164   2.029  11.138  0.2749  1.6867  0.2627
  433MOL0     H59750   8.062   1.737  11.423  0.0725  0.8180  0.9647
  433MOL0     H59751   7.795   2.540  11.214  0.4440 -2.9664  0.5065
  433MOL0     H59752   7.621   2.634  10.895 -0.1967  2.1276  1.4921
  433MOL0     H59753   7.642   2.469  10.967  1.4351 -0.1105  0.5906
  433MOL0     H59754   7.615   2.609  11.065 -1.7898  2.8337 -1.7772
  434MOL0     O59755   6.745   5.354  10.968 -0.1265 -0.1103 -0.0238
  434MOL0     C59756   6.640   5.405  10.996 -0.0937  0.8402 -0.3198
  434MOL0     O59757   6.629   5.537  11.029  0.3147 -0.1302 -0.2516
  434MOL0     C59758   6.749   5.615  11.030  0.2004  0.2204 -0.2651
  434MOL0     C59759   6.837   5.607  11.143  0.3146 -0.0648  0.7191
  434MOL0     C59760   6.961   5.671  11.140  0.3908 -0.0160 -0.1316
  434MOL0     C59761   6.987   5.757  11.031  0.2629 -0.4470  0.3169
  434MOL0     O59762   7.103   5.842  11.032 -0.0772  0.0669  0.4143
  434MOL0     C59763   7.091   5.967  11.102  1.2491  0.2793  0.0650
  434MOL0     C59764   7.228   6.034  11.096  0.0597 -0.2108 -0.5685
  434MOL0     C59765   7.340   5.938  11.148 -0.1703  0.4498  1.1013
  434MOL0     C59766   7.475   6.005  11.164  0.2008 -0.2415 -0.2381
  434MOL0     C59767   7.587   5.927  11.234  0.1035 -0.6098  0.5937
  434MOL0     C59768   7.717   5.995  11.243  0.5741  0.7357  0.4695
  434MOL0     C59769   7.721   6.136  11.311 -0.0040 -0.4899  1.0169
  434MOL0     C59770   7.854   6.208  11.280  0.4231  0.4151  0.4753
  434MOL0     N59771   7.976   6.144  11.330 -0.3174  0.2953 -0.3754
  434MOL0     C59772   8.008   6.132  11.460 -0.5498 -0.8732 -0.0694
  434MOL0     C59773   8.120   6.056  11.465  0.4873 -0.5130 -0.0018
  434MOL0     C59774   8.180   6.011  11.588  0.6692  0.6129  0.3045
  434MOL0     C59775   8.264   6.129  11.666 -0.7033  0.5242 -0.5634
  434MOL0     C59776   8.410   6.146  11.614  0.8315 -0.2110  0.4298
  434MOL0     C59777   8.509   6.092  11.712  0.5827  0.0690 -0.6712
  434MOL0     O59778   8.640   6.121  11.670  0.0586  0.0986 -0.8916
  434MOL0     C59779   8.749   6.095  11.759 -0.4972 -1.4836 -0.2301
  434MOL0     C59780   8.754   6.008  11.861 -0.8075  0.8147  1.0882
  434MOL0     C59781   8.872   5.977  11.938  0.0501 -0.2650 -0.6627
  434MOL0     C59782   8.844   5.892  12.070  0.3875 -0.1601  0.8411
  434MOL0     C59783   8.995   6.041  11.904  0.4720 -0.6797 -0.8017
  434MOL0     C59784   9.131   6.023  11.971 -0.6539 -0.8904 -0.1650
  434MOL0     O59785   9.213   6.135  11.955  0.5800  0.1844  0.9843
  434MOL0     C59786   9.307   6.178  12.055  0.2875 -0.3300  0.0336
  434MOL0     C59787   9.277   6.288  12.132  0.1201  0.3202  0.7803
  434MOL0     C59788   9.368   6.324  12.236  0.1868  0.4964  0.9080
  434MOL0     C59789   9.482   6.248  12.257 -0.7835 -0.6154  0.6893
  434MOL0     O59790   9.578   6.284  12.355  0.3633  0.6125  0.3476
  434MOL0     C59791   9.543   6.369  12.461  0.0011 -0.9575  0.1792
  434MOL0     C59792   9.654   6.390  12.571  1.1130  0.0644 -0.1915
  434MOL0     C59793   9.787   6.413  12.509 -0.8754 -0.8432 -0.3196
  434MOL0     C59794   9.907   6.364  12.595  0.3486 -0.4456  0.2072
  434MOL0     C59795  10.043   6.375  12.512 -0.5574  0.6358 -0.2605
  434MOL0     C59796  10.161   6.306  12.567 -0.2226 -0.1641  0.1742
  434MOL0     C59797  10.145   6.153  12.576  0.5126 -0.6156  0.7159
  434MOL0     C59798  10.282   6.088  12.579 -0.0194  0.2361 -0.4236
  434MOL0    Cl59799  10.354   6.071  12.737 -0.0877 -0.3666 -0.4401
  434MOL0     C59800   9.504   6.129  12.193 -0.0289 -0.3959 -0.3697
  434MOL0     C59801   9.417   6.091  12.090  0.0319 -0.5163  0.4000
  434MOL0     O59802   9.160   5.920  12.033  0.5005  0.1573  0.0095
  434MOL0     C59803   8.986   6.130  11.793 -0.5595  0.3218 -0.0317
  434MOL0     C59804   8.871   6.158  11.723 -0.7879  1.4160  0.3893
  434MOL0     N59805   8.157   6.034  11.335 -0.5470  0.1921  0.4326
  434MOL0     N59806   8.077   6.084  11.250  0.7738  0.3264  0.4807
  434MOL0     C59807   6.893   5.782  10.937 -0.3317 -0.0150 -0.1543
  434MOL0     C59808   6.776   5.707  10.930 -0.0839 -0.7714 -0.0069
  434MOL0     C59809   6.521   5.316  11.018  0.1327  0.2318  0.2654
  434MOL0     C59810   6.418   5.380  11.090  0.3682 -0.2558  0.1271
  434MOL0     C59811   6.293   5.325  11.111  0.5554 -0.2435  0.6793
  434MOL0     C59812   6.265   5.198  11.067  0.5759  0.3748 -0.0898
  434MOL0     O59813   6.140   5.152  11.107 -0.2730  0.2003 -0.2829
  434MOL0     C59814   6.113   5.018  11.069 -0.5245  0.2790 -0.0758
  434MOL0     C59815   5.965   4.993  11.116 -0.6683 -0.1685  0.0006
  434MOL0     C59816   5.963   4.985  11.266 -0.7801  0.4235 -1.1625
  434MOL0     C59817   5.832   4.910  11.307 -0.7263 -0.6823 -0.3247
  434MOL0     C59818   5.712   4.991  11.301  0.0801 -0.1491 -0.2425
  434MOL0     C59819   5.610   5.061  11.285 -0.0535 -0.5285  0.5616
  434MOL0     C59820   6.363   5.129  10.997  0.4471 -0.3386  0.6335
  434MOL0     C59821   6.489   5.187  10.964  0.6179  1.1799  0.0860
  434MOL0     C59822   6.572   5.099  10.878  0.4014 -0.6641 -0.2662
  434MOL0     H59823   6.807   5.531  11.215  0.3858  0.2378  1.0714
  434MOL0     H59824   7.038   5.672  11.217  1.2751  3.8608 -0.8293
  434MOL0     H59825   7.049   5.948  11.201 -0.4231  2.4777 -0.1406
  434MOL0     H59826   7.014   6.030  11.056  0.2470 -0.0400  1.2501
  434MOL0     H59827   7.258   6.062  10.995  2.0656  0.4810  0.1667
  434MOL0     H59828   7.230   6.125  11.156 -0.7278 -1.1623  0.9780
  434MOL0     H59829   7.309   5.908  11.248 -1.9440  0.2194  0.5197
  434MOL0     H59830   7.353   5.849  11.086 -1.1422  1.4408 -0.6054
  434MOL0     H59831   7.503   6.013  11.059 -2.5853  1.0651 -0.9652
  434MOL0     H59832   7.464   6.110  11.191 -2.2885  0.0410 -2.0671
  434MOL0     H59833   7.596   5.832  11.182 -0.7095  0.7658 -2.2767
  434MOL0     H59834   7.558   5.921  11.340  1.7059  0.0954  1.0980
  434MOL0     H59835   7.783   5.922  11.291  0.3504 -0.2556 -0.6607
  434MOL0     H59836   7.758   6.012  11.142 -2.3991  1.8874 -0.6644
  434MOL0     H59837   7.701   6.131  11.418 -1.3733  1.9151  0.9623
  434MOL0     H59838   7.645   6.200  11.264  0.2673  0.8114  2.2621
  434MOL0     H59839   7.880   6.214  11.174 -2.4982 -1.5683 -0.4653
  434MOL0     H59840   7.843   6.301  11.336 -2.0448 -1.1147  2.7453
  434MOL0     H59841   7.953   6.171  11.545  0.8527 -0.0706  0.5023
  434MOL0     H59842   8.241   5.925  11.560 -1.1576 -0.4988 -0.4185
  434MOL0     H59843   8.104   5.965  11.651 -0.7942  0.2529 -1.6674
  434MOL0     H59844   8.222   6.230  11.664 -1.6095  0.1653 -0.3285
  434MOL0     H59845   8.267   6.100  11.772 -0.8477 -0.0881 -0.7207
  434MOL0     H59846   8.421   6.093  11.519  1.0045  0.0993  0.2721
  434MOL0     H59847   8.432   6.253  11.600  1.9225 -0.3683  0.8254
  434MOL0     H59848   8.490   6.148  11.804 -1.3802  0.2085 -1.1110
  434MOL0     H59849   8.492   5.986  11.730 -1.3175  0.6387  1.4301
  434MOL0     H59850   8.664   5.953  11.886 -1.0810  0.2595 -0.9033
  434MOL0     H59851   8.761   5.942  12.121  0.1898  0.5292 -0.1254
  434MOL0     H59852   8.932   5.887  12.134  1.3560  1.0638 -0.3509
  434MOL0     H59853   8.811   5.793  12.035  1.5695 -1.5419  3.3723
  434MOL0     H59854   9.190   6.348  12.107  0.3414  0.6582  0.8140
  434MOL0     H59855   9.356   6.408  12.305 -0.4619  0.2920  1.0465
  434MOL0     H59856   9.525   6.469  12.420  0.3534 -1.1638 -0.4953
  434MOL0     H59857   9.451   6.347  12.515 -0.9965  1.0175 -0.6212
  434MOL0     H59858   9.625   6.473  12.636 -3.2784  0.0325 -1.7516
  434MOL0     H59859   9.655   6.300  12.634 -1.2467  1.4408  2.0219
  434MOL0     H59860   9.787   6.522  12.510  3.3567 -0.6807  1.0147
  434MOL0     H59861   9.798   6.383  12.404 -1.0844 -1.2437 -0.2278
  434MOL0     H59862   9.887   6.259  12.621 -1.7430 -0.1616 -0.0898
  434MOL0     H59863   9.925   6.424  12.685  2.1974  1.5806 -1.4286
  434MOL0     H59864  10.019   6.321  12.420 -1.1514 -0.4512  0.5085
  434MOL0     H59865  10.070   6.478  12.486 -3.2546  1.7535  0.9934
  434MOL0     H59866  10.172   6.335  12.672 -1.1677 -2.4082  0.9645
  434MOL0     H59867  10.257   6.334  12.521  0.3778 -1.1579  0.7690
  434MOL0     H59868  10.079   6.125  12.494  0.0786 -1.2176  1.2628
  434MOL0     H59869  10.087   6.117  12.662 -1.0800  2.8148  1.2571
  434MOL0     H59870  10.350   6.127  12.502  3.2053 -2.6903  0.6756
  434MOL0     H59871  10.263   5.988  12.540  0.9668 -0.4414  0.7538
  434MOL0     H59872   9.589   6.071  12.227  0.9999  0.8427 -0.7157
  434MOL0     H59873   9.437   5.999  12.037  3.1476 -3.3892  5.6384
  434MOL0     H59874   9.080   6.178  11.770  0.4644 -1.8622 -0.6734
  434MOL0     H59875   8.862   6.224  11.637  0.3925  0.6963 -0.3211
  434MOL0     H59876   6.927   5.852  10.862  0.1960 -0.8087 -0.6725
  434MOL0     H59877   6.712   5.719  10.844  0.3044  0.4165 -0.1435
  434MOL0     H59878   6.420   5.485  11.119 -1.3180  0.0286 -0.6555
  434MOL0     H59879   6.223   5.390  11.162 -0.4269  0.0682 -1.0140
  434MOL0     H59880   6.122   4.997  10.962  4.2462 -1.6953  0.4570
  434MOL0     H59881   6.187   4.947  11.107  0.0420 -0.7125 -2.8116
  434MOL0     H59882   5.936   4.897  11.073  1.0700 -0.8902  0.3896
  434MOL0     H59883   5.902   5.079  11.089 -0.8424 -0.1050  0.5919
  434MOL0     H59884   6.047   4.916  11.281 -3.4244 -3.2622 -1.9537
  434MOL0     H59885   5.983   5.076  11.324 -0.5173  1.0360 -2.1984
  434MOL0     H59886   5.843   4.883  11.412 -3.2491 -0.5681  0.0195
  434MOL0     H59887   5.823   4.817  11.250 -3.3816 -0.9291  0.4050
  434MOL0     H59888   5.516   5.110  11.266 -0.5383 -1.2834  0.9633
  434MOL0     H59889   6.336   5.029  10.963  0.0709  0.6424 -2.1892
  434MOL0     H59890   6.633   5.033  10.941 -0.0190 -0.6507  0.1549
  434MOL0     H59891   6.499   5.050  10.814 -0.7472 -1.2544  1.4125
  434MOL0     H59892   6.642   5.163  10.824 -0.0983  0.5776  0.5193
  435MOL0     O59893   6.066   9.780  11.256 -0.6653 -0.1194  0.1070
  435MOL0     C59894   6.146   9.756  11.168  0.5711  0.2141 -0.4565
  435MOL0     O59895   6.116   9.670  11.061 -0.3063  0.3443  0.5199
  435MOL0     C59896   6.002   9.599  11.052 -0.1964  0.0756 -0.4171
  435MOL0     C59897   5.887   9.657  10.996 -0.6613  0.0514 -0.2891
  435MOL0     C59898   5.779   9.576  10.983  0.3890  0.0155  1.2856
  435MOL0     C59899   5.776   9.444  11.028  0.4113 -0.7198 -0.0636
  435MOL0     O59900   5.669   9.363  11.018 -0.1878 -0.2381  0.1205
  435MOL0     C59901   5.589   9.379  10.891 -0.2429 -0.7536  0.1812
  435MOL0     C59902   5.485   9.268  10.885 -0.6831  0.0427 -0.1201
  435MOL0     C59903   5.406   9.265  10.749  1.1760 -0.3824  0.6660
  435MOL0     C59904   5.307   9.150  10.753  0.9380  0.7053 -0.2477
  435MOL0     C59905   5.209   9.133  10.632  0.3154  0.5675  0.5001
  435MOL0     C59906   5.136   8.997  10.642  0.0489 -0.1617  0.1245
  435MOL0     C59907   5.068   8.952  10.511  0.1682  0.5992 -0.0510
  435MOL0     C59908   4.972   9.052  10.438  0.3999  0.8927 -0.6802
  435MOL0     N59909   4.882   8.994  10.337 -0.0299 -0.4704  0.2107
  435MOL0     C59910   4.766   8.915  10.365 -0.3243 -0.0256  1.1175
  435MOL0     C59911   4.732   8.862  10.245  0.4362 -0.0641 -0.5826
  435MOL0     C59912   4.630   8.758  10.224  0.0498 -0.8057 -0.0459
  435MOL0     C59913   4.496   8.782  10.300  0.5623  0.7823  0.1207
  435MOL0     C59914   4.492   8.706  10.437 -0.3423 -0.2571  0.6554
  435MOL0     C59915   4.427   8.795  10.546  0.7422  0.0530 -0.5957
  435MOL0     O59916   4.509   8.904  10.576 -0.3241  0.0524  0.6475
  435MOL0     C59917   4.594   8.905  10.681  0.0316  0.3744 -0.9011
  435MOL0     C59918   4.628   9.033  10.727  0.6723  0.1253  0.1029
  435MOL0     C59919   4.735   9.057  10.817 -0.4558 -0.0736  0.7015
  435MOL0     C59920   4.773   9.198  10.851  0.5090  1.1414  0.1007
  435MOL0     C59921   4.797   8.938  10.872 -0.5602  1.0661 -0.5095
  435MOL0     C59922   4.897   8.948  10.980  0.5355 -1.2654  0.7261
  435MOL0     O59923   4.879   9.027  11.085 -0.1002  0.9712  0.5683
  435MOL0     C59924   4.975   9.026  11.178 -0.9553 -0.4072  0.5900
  435MOL0     C59925   5.107   9.078  11.160  0.9904 -0.2675 -0.4334
  435MOL0     C59926   5.189   9.083  11.274 -0.2404 -0.6747  0.4010
  435MOL0     C59927   5.168   9.011  11.392 -0.2479  0.4869 -0.8406
  435MOL0     O59928   5.268   9.006  11.483 -0.5126  0.4399  0.0018
  435MOL0     C59929   5.269   8.883  11.564 -0.0242 -0.1516 -0.3620
  435MOL0     C59930   5.403   8.847  11.627  0.5176 -0.9868  0.2091
  435MOL0     C59931   5.522   8.893  11.542 -0.3174 -0.1057  0.2688
  435MOL0     C59932   5.652   8.858  11.607 -0.8291 -0.0162 -0.2854
  435MOL0     C59933   5.761   8.880  11.508 -0.6499 -0.5874  0.0215
  435MOL0     C59934   5.908   8.861  11.566  0.3544 -0.6049  0.3310
  435MOL0     C59935   5.950   8.713  11.551  0.3954  0.3719  0.1945
  435MOL0     C59936   6.095   8.692  11.597 -0.7939 -1.0562 -0.5782
  435MOL0    Cl59937   6.150   8.532  11.641  0.1229  0.1675  0.0715
  435MOL0     C59938   5.040   8.947  11.405 -0.1991  0.1821  0.5197
  435MOL0     C59939   4.951   8.957  11.294 -0.2159  0.1913 -1.0662
  435MOL0     O59940   4.990   8.871  10.966 -0.4386 -0.2810 -0.0450
  435MOL0     C59941   4.761   8.810  10.827 -0.3735 -0.2797 -0.3884
  435MOL0     C59942   4.654   8.790  10.736 -0.5897 -1.1732  0.5661
  435MOL0     N59943   4.795   8.938  10.149 -0.8779  0.4634  0.4007
  435MOL0     N59944   4.892   9.008  10.205 -0.2169 -0.0681  0.2562
  435MOL0     C59945   5.893   9.393  11.094  0.0355  0.3647  0.7834
  435MOL0     C59946   6.013   9.465  11.110  0.2473  0.6565  0.0323
  435MOL0     C59947   6.289   9.809  11.159  0.8694  0.0292 -0.2482
  435MOL0     C59948   6.344   9.826  11.027  0.6249  0.6758  0.0513
  435MOL0     C59949   6.479   9.871  11.019  0.0922  0.4133  0.1533
  435MOL0     C59950   6.554   9.902  11.132 -0.1462  0.8344  0.3724
  435MOL0     O59951   6.685   9.937  11.135  0.5705 -0.3633  0.6223
  435MOL0     C59952   6.768   9.872  11.035  0.7056 -0.2477 -0.2835
  435MOL0     C59953   6.876   9.960  10.998 -0.2119 -0.8108 -0.1268
  435MOL0     C59954   6.971  10.035  11.102  0.5574 -0.8193 -0.2986
  435MOL0     C59955   7.030   9.929  11.201 -0.3952 -0.1634 -0.0197
  435MOL0     C59956   7.126   9.841  11.129  0.1389 -0.9053  0.8506
  435MOL0     C59957   7.198   9.757  11.081 -0.5148  0.1450 -0.0616
  435MOL0     C59958   6.494   9.896  11.253 -0.1230 -0.3731  0.4639
  435MOL0     C59959   6.358   9.860  11.272 -0.0178 -0.7599 -0.3923
  435MOL0     C59960   6.305   9.855  11.405  0.1493  0.0510 -0.5200
  435MOL0     H59961   5.885   9.761  10.965  0.4331  0.5012  1.0728
  435MOL0     H59962   5.699   9.629  10.932  0.0073 -4.1654 -3.1684
  435MOL0     H59963   5.648   9.365  10.799 -0.0249  0.6212  0.0963
  435MOL0     H59964   5.543   9.477  10.886  0.5197 -0.3833  0.2490
  435MOL0     H59965   5.532   9.173  10.912 -0.3652 -0.9338 -3.5962
  435MOL0     H59966   5.418   9.295  10.968  0.1948  1.8770  0.0357
  435MOL0     H59967   5.350   9.359  10.740 -0.1825 -1.2543 -0.6154
  435MOL0     H59968   5.476   9.249  10.667  1.3845  3.3768 -0.0886
  435MOL0     H59969   5.368   9.060  10.760  1.4774  1.1690  1.9700
  435MOL0     H59970   5.252   9.154  10.848  3.2710 -3.5287  1.5894
  435MOL0     H59971   5.274   9.122  10.544 -0.8642 -0.2757 -0.3090
  435MOL0     H59972   5.133   9.210  10.620 -0.4205 -0.1432  0.4532
  435MOL0     H59973   5.212   8.920  10.661  1.2849  1.4552  2.0190
  435MOL0     H59974   5.064   8.995  10.724  0.2659 -1.5032  0.3056
  435MOL0     H59975   5.018   8.857  10.532  0.1572  0.8925  1.3576
  435MOL0     H59976   5.147   8.926  10.441  0.1910  1.0504 -0.1952
  435MOL0     H59977   4.913   9.103  10.515  3.4177  2.9408  0.4745
  435MOL0     H59978   5.035   9.125  10.385 -0.5834  0.9711 -1.7815
  435MOL0     H59979   4.723   8.892  10.462 -1.3003 -2.3823  0.2011
  435MOL0     H59980   4.670   8.661  10.252  1.6400 -0.3795 -0.7426
  435MOL0     H59981   4.612   8.756  10.116 -2.9790 -2.6301  0.3836
  435MOL0     H59982   4.473   8.889  10.305  0.2538  0.9246 -2.7277
  435MOL0     H59983   4.411   8.734  10.251 -0.3936  1.1422  1.3770
  435MOL0     H59984   4.461   8.603  10.418  1.5507 -0.7620  0.0211
  435MOL0     H59985   4.596   8.698  10.470 -0.1765 -0.5918  0.0684
  435MOL0     H59986   4.326   8.826  10.521  1.3110  3.5436  0.8923
  435MOL0     H59987   4.415   8.733  10.636  3.3872 -0.2905 -0.3864
  435MOL0     H59988   4.572   9.117  10.690 -3.0013 -1.9014  0.5974
  435MOL0     H59989   4.716   9.261  10.782 -0.9318  0.9424  1.0582
  435MOL0     H59990   4.878   9.227  10.855  2.0476 -3.6209  0.6600
  435MOL0     H59991   4.729   9.217  10.950 -1.1804  2.2385 -0.8020
  435MOL0     H59992   5.143   9.124  11.069 -0.0082  0.2130 -0.6057
  435MOL0     H59993   5.285   9.134  11.263 -0.2241 -1.1764 -3.1172
  435MOL0     H59994   5.197   8.904  11.644  2.3501  0.9869  1.6182
  435MOL0     H59995   5.249   8.799  11.497 -1.4563 -1.0167  1.0565
  435MOL0     H59996   5.394   8.890  11.728 -1.6616 -2.2878  0.6396
  435MOL0     H59997   5.396   8.740  11.647  1.7332 -1.0404  0.4228
  435MOL0     H59998   5.516   8.999  11.515  1.3068 -0.0351  0.0904
  435MOL0     H59999   5.514   8.843  11.445  0.2853 -1.4630  0.8953
  435MOL0     H60000   5.643   8.755  11.643  2.1686 -0.1275  0.4284
  435MOL0     H60001   5.657   8.914  11.701  0.0911 -1.9162  0.8526
  435MOL0     H60002   5.746   8.815  11.422  0.1378 -0.6052 -0.1060
  435MOL0     H60003   5.752   8.985  11.479 -1.2110 -0.5643  0.2648
  435MOL0     H60004   5.911   8.890  11.671 -0.7204  0.2595  0.1542
  435MOL0     H60005   5.985   8.926  11.524  1.7531 -0.2630  3.1987
  435MOL0     H60006   5.954   8.683  11.445  0.5257  0.5788  0.1409
  435MOL0     H60007   5.880   8.657  11.613 -0.1847  0.9182  0.0490
  435MOL0     H60008   6.114   8.750  11.688  1.8778 -2.6453 -0.0138
  435MOL0     H60009   6.164   8.729  11.521 -1.8522  2.8063  0.1322
  435MOL0     H60010   5.006   8.894  11.493  1.4709  2.3261  2.5881
  435MOL0     H60011   4.861   8.897  11.283  0.4490 -0.7767 -1.3872
  435MOL0     H60012   4.815   8.721  10.858 -0.6805 -0.3950 -0.1803
  435MOL0     H60013   4.636   8.688  10.704  4.3362 -1.9458 -0.5821
  435MOL0     H60014   5.878   9.292  11.132 -1.4452  0.3003  0.0967
  435MOL0     H60015   6.104   9.428  11.156 -0.1266 -0.5486 -0.1629
  435MOL0     H60016   6.282   9.804  10.941 -0.7340 -0.2299  1.2221
  435MOL0     H60017   6.534   9.881  10.926 -0.3223 -2.7967 -0.5775
  435MOL0     H60018   6.799   9.783  11.091  0.1414  0.7432  1.7168
  435MOL0     H60019   6.727   9.826  10.945  0.4673 -0.1526 -0.2235
  435MOL0     H60020   6.827  10.045  10.950 -2.1196 -0.5491  2.0955
  435MOL0     H60021   6.936   9.907  10.923  0.9748 -0.8207  0.8012
  435MOL0     H60022   7.052  10.089  11.051 -0.4230  0.4675 -0.5510
  435MOL0     H60023   6.921  10.110  11.164  2.1767 -1.4790  1.9280
  435MOL0     H60024   6.954   9.876  11.258  0.0017  0.9759  1.6281
  435MOL0     H60025   7.093   9.979  11.275  1.0516 -0.8603 -0.7361
  435MOL0     H60026   7.256   9.676  11.043  0.1887  0.5385  0.1657
  435MOL0     H60027   6.547   9.945  11.335 -2.0721  2.1774  0.3377
  435MOL0     H60028   6.377   9.869  11.486  0.5275 -0.4108 -0.7715
  435MOL0     H60029   6.243   9.945  11.410  0.6067  0.3186  3.6623
  435MOL0     H60030   6.239   9.770  11.426 -0.9764  0.3032 -2.7007
  436MOL0     O60031   5.810   1.446  10.921  1.1044  0.4896 -0.3356
  436MOL0     C60032   5.745   1.468  10.819 -0.5566 -1.0826  0.1305
  436MOL0     O60033   5.795   1.471  10.695  0.1804  0.0955 -0.5615
  436MOL0     C60034   5.910   1.409  10.653 -0.0986 -0.3320  0.2663
  436MOL0     C60035   5.953   1.446  10.521 -1.0109 -0.1161  0.0841
  436MOL0     C60036   6.065   1.379  10.464  0.2770  0.3465 -0.4815
  436MOL0     C60037   6.139   1.288  10.543  0.6563  0.2693 -0.2414
  436MOL0     O60038   6.250   1.216  10.493  0.8652  0.8916 -0.3586
  436MOL0     C60039   6.271   1.206  10.350  0.6329  0.5728 -0.6598
  436MOL0     C60040   6.348   1.066  10.334 -0.0978 -0.0165 -0.8548
  436MOL0     C60041   6.244   0.951  10.360 -0.7522 -0.3734  0.0008
  436MOL0     C60042   6.315   0.824  10.310 -0.5349  0.5480  1.1777
  436MOL0     C60043   6.245   0.702  10.350  0.8839  0.1480  0.0558
  436MOL0     C60044   6.271   0.564  10.272 -0.2591 -0.1335 -0.5303
  436MOL0     C60045   6.207   0.587  10.133  0.1321  0.2306 -0.3395
  436MOL0     C60046   6.227   0.465  10.047 -0.3572 -0.1800  0.0687
  436MOL0     N60047   6.170   0.490   9.916  0.5941 -0.4223  0.1301
  436MOL0     C60048   6.215   0.428   9.793 -0.1436 -0.4691  0.3125
  436MOL0     C60049   6.104   0.432   9.713  0.0454  1.1323 -0.2308
  436MOL0     C60050   6.090   0.356   9.578 -0.2539 -0.0801 -0.6249
  436MOL0     C60051   6.214   0.353   9.483 -0.5048 -0.5162  0.4957
  436MOL0     C60052   6.231   0.472   9.383 -0.2586 -0.7819  0.5752
  436MOL0     C60053   6.354   0.452   9.298  0.4170  0.1376  0.1132
  436MOL0     O60054   6.348   0.311   9.242 -0.1823 -0.2461 -0.4681
  436MOL0     C60055   6.470   0.247   9.223  0.4907  0.9968 -0.2843
  436MOL0     C60056   6.467   0.115   9.239 -0.4274  0.3247 -0.9172
  436MOL0     C60057   6.578   0.032   9.223 -0.4672 -0.2254 -0.2891
  436MOL0     C60058   6.564  -0.118   9.249 -0.1910 -0.2200  0.2996
  436MOL0     C60059   6.699   0.100   9.190  0.5807  0.4264 -0.4157
  436MOL0     C60060   6.832   0.033   9.182 -0.5260  0.5191 -0.2586
  436MOL0     O60061   6.939   0.114   9.191 -0.4696 -0.0453  0.7220
  436MOL0     C60062   7.059   0.060   9.156 -0.2725 -0.1859 -0.2032
  436MOL0     C60063   7.091   0.020   9.026  0.5501 -0.3395  0.2076
  436MOL0     C60064   7.214  -0.040   8.996  0.4513 -0.7652  0.7387
  436MOL0     C60065   7.295  -0.069   9.103 -0.8133 -1.0882  0.0841
  436MOL0     O60066   7.401  -0.142   9.054  0.4011  0.6077 -0.0415
  436MOL0     C60067   7.508  -0.164   9.142 -0.5847 -0.1017  0.5764
  436MOL0     C60068   7.618  -0.233   9.062  0.1181  0.0601  0.3238
  436MOL0     C60069   7.751  -0.224   9.139  0.1841 -0.5084 -0.0360
  436MOL0     C60070   7.879  -0.272   9.067 -0.8751 -0.3849 -0.9414
  436MOL0     C60071   8.004  -0.216   9.132 -0.1755  0.8277  0.6815
  436MOL0     C60072   8.131  -0.289   9.087  0.4438 -0.0407 -0.2350
  436MOL0     C60073   8.137  -0.298   8.939 -0.6034  0.4878  1.0024
  436MOL0     C60074   8.271  -0.363   8.888  0.1361  0.4378 -0.8168
  436MOL0    Cl60075   8.417  -0.266   8.889 -0.1076 -0.3542 -0.1037
  436MOL0     C60076   7.272  -0.031   9.234  0.2135 -0.1019  0.4035
  436MOL0     C60077   7.150   0.034   9.259  0.2364 -0.4352  0.4587
  436MOL0     O60078   6.831  -0.089   9.160 -0.5766 -0.2491 -0.2742
  436MOL0     C60079   6.691   0.238   9.163 -0.0689 -0.4665  0.6617
  436MOL0     C60080   6.579   0.312   9.186 -0.8432 -0.5099 -0.3915
  436MOL0     N60081   5.999   0.501   9.784 -0.6901 -0.4692  0.1169
  436MOL0     N60082   6.042   0.538   9.900  0.7196  0.9790  0.3828
  436MOL0     C60083   6.099   1.263  10.671  0.4209  0.5654  0.5819
  436MOL0     C60084   5.990   1.310  10.731  0.3371  0.5520  0.2230
  436MOL0     C60085   5.597   1.489  10.840 -0.7934 -0.2084  0.3869
  436MOL0     C60086   5.514   1.500  10.722  0.0380 -0.5046 -0.8447
  436MOL0     C60087   5.378   1.522  10.728 -0.5329  0.3139 -0.7744
  436MOL0     C60088   5.309   1.530  10.846 -0.0090 -0.1528  0.1893
  436MOL0     O60089   5.176   1.549  10.864 -0.2082 -0.2687  0.5797
  436MOL0     C60090   5.089   1.576  10.750 -0.0942  0.2055 -1.0700
  436MOL0     C60091   4.949   1.600  10.800 -0.2375  0.3545 -1.0480
  436MOL0     C60092   4.884   1.472  10.845  0.3923 -0.2492  0.2914
  436MOL0     C60093   4.738   1.512  10.867  0.0061  0.0670 -0.4471
  436MOL0     C60094   4.684   1.402  10.949 -0.3755  0.3556  0.7022
  436MOL0     C60095   4.643   1.309  11.020  0.2710 -0.5536  0.0421
  436MOL0     C60096   5.384   1.511  10.967 -1.0523 -0.2884  0.1262
  436MOL0     C60097   5.530   1.503  10.964 -0.2078 -0.2767  0.6660
  436MOL0     C60098   5.599   1.488  11.089 -0.6019 -0.3821  0.5986
  436MOL0     H60099   5.904   1.522  10.461  0.9410  1.3453  0.2683
  436MOL0     H60100   6.097   1.412  10.365  2.4300  3.0285  0.9628
  436MOL0     H60101   6.323   1.291  10.306  0.1298  2.5651  2.2972
  436MOL0     H60102   6.179   1.194  10.292  1.5893  0.3700 -2.1933
  436MOL0     H60103   6.390   1.056  10.233  1.5009 -1.5166 -0.0837
  436MOL0     H60104   6.426   1.062  10.410 -3.4145 -3.6792  2.8715
  436MOL0     H60105   6.229   0.944  10.468 -0.7369  2.5867  0.2793
  436MOL0     H60106   6.146   0.974  10.317  0.4660 -0.0512 -2.7875
  436MOL0     H60107   6.309   0.837  10.201  3.4835  2.0783  0.9735
  436MOL0     H60108   6.420   0.822  10.340 -1.0932 -1.6003  3.2807
  436MOL0     H60109   6.137   0.718  10.360  1.0236  1.8467 -0.8577
  436MOL0     H60110   6.264   0.672  10.453 -1.0277 -0.2518  0.3328
  436MOL0     H60111   6.378   0.546  10.257  0.2839  3.2140 -1.5912
  436MOL0     H60112   6.221   0.483  10.326 -1.5146 -1.4117 -3.4052
  436MOL0     H60113   6.248   0.675  10.082  1.8647 -1.6526 -2.4097
  436MOL0     H60114   6.098   0.592  10.144 -0.0121 -1.5179 -0.7536
  436MOL0     H60115   6.334   0.442  10.037  0.0393 -0.0656  3.2196
  436MOL0     H60116   6.160   0.393  10.095 -2.3240  1.1644 -0.5364
  436MOL0     H60117   6.316   0.390   9.779 -0.2424 -0.1757 -1.5551
  436MOL0     H60118   6.010   0.404   9.520 -0.9291 -0.3767  0.0369
  436MOL0     H60119   6.064   0.251   9.592  1.5578 -0.7947 -2.1758
  436MOL0     H60120   6.305   0.362   9.544 -0.1992  1.9917 -0.2214
  436MOL0     H60121   6.210   0.261   9.425 -2.8415  1.1001 -2.1913
  436MOL0     H60122   6.143   0.474   9.319  1.0424 -4.2973 -1.6489
  436MOL0     H60123   6.245   0.568   9.434  0.0800 -1.3926  1.6847
  436MOL0     H60124   6.355   0.532   9.223 -1.6356  2.7212  2.6290
  436MOL0     H60125   6.446   0.468   9.355  1.1712 -1.1504 -0.6716
  436MOL0     H60126   6.373   0.074   9.275 -0.6349  1.1073 -0.5490
  436MOL0     H60127   6.590  -0.172   9.158 -3.3874  1.8291 -2.0192
  436MOL0     H60128   6.462  -0.135   9.283 -1.2584  2.2206 -1.3649
  436MOL0     H60129   6.638  -0.147   9.325  0.3487  3.0365  1.1755
  436MOL0     H60130   7.016   0.022   8.947  0.0454 -2.2919  0.5849
  436MOL0     H60131   7.225  -0.068   8.892 -4.5740  1.0103 -0.5811
  436MOL0     H60132   7.546  -0.065   9.170  0.0408  0.3053 -1.5730
  436MOL0     H60133   7.482  -0.237   9.219  1.3569 -3.0832 -1.3969
  436MOL0     H60134   7.579  -0.333   9.041  1.0196 -0.4207  0.8667
  436MOL0     H60135   7.635  -0.172   8.973  3.9768  1.7658  1.9933
  436MOL0     H60136   7.745  -0.277   9.234  0.6271 -3.1421 -1.3732
  436MOL0     H60137   7.771  -0.119   9.162 -3.0031  0.0890  0.4090
  436MOL0     H60138   7.876  -0.254   8.959  2.0317 -0.9454 -1.1886
  436MOL0     H60139   7.895  -0.380   9.076  0.0697 -0.3115 -1.5835
  436MOL0     H60140   8.012  -0.109   9.115  0.1854  0.6881 -0.0637
  436MOL0     H60141   8.000  -0.240   9.239  2.6118  2.4007  1.2198
  436MOL0     H60142   8.128  -0.390   9.127 -0.3983 -0.2283 -0.7424
  436MOL0     H60143   8.218  -0.240   9.132 -1.4717 -0.0013  3.8200
  436MOL0     H60144   8.118  -0.202   8.889 -0.7830 -0.2219 -0.3283
  436MOL0     H60145   8.064  -0.370   8.902  2.2147 -2.2674  0.4548
  436MOL0     H60146   8.249  -0.391   8.785 -2.4194 -2.3303  0.3155
  436MOL0     H60147   8.279  -0.459   8.940 -2.4840 -0.0554 -1.1702
  436MOL0     H60148   7.341  -0.053   9.315 -2.7149  0.0981  3.1344
  436MOL0     H60149   7.119   0.058   9.360 -1.9897  0.1069 -0.2998
  436MOL0     H60150   6.789   0.278   9.138  0.7415 -2.4905  0.4157
  436MOL0     H60151   6.580   0.420   9.175  1.2424 -0.1243  2.5486
  436MOL0     H60152   6.157   1.192  10.728  0.4504 -2.2990 -2.6895
  436MOL0     H60153   5.966   1.267  10.827  0.9691  0.5990  0.4083
  436MOL0     H60154   5.560   1.489  10.625 -3.7940  0.2083 -2.9252
  436MOL0     H60155   5.326   1.541  10.634 -0.0083 -4.1417 -2.1654
  436MOL0     H60156   5.136   1.663  10.705  1.7237 -1.0027 -1.6214
  436MOL0     H60157   5.089   1.492  10.680 -2.0864 -0.7333 -0.0457
  436MOL0     H60158   4.889   1.649  10.722 -1.2155  1.3131  0.2758
  436MOL0     H60159   4.960   1.676  10.877  0.9789 -2.3819  1.6663
  436MOL0     H60160   4.893   1.398  10.765 -1.3461  1.4962 -1.6392
  436MOL0     H60161   4.925   1.433  10.939 -1.8076  0.9274  1.8489
  436MOL0     H60162   4.677   1.540  10.781 -1.0247  2.8251  1.0593
  436MOL0     H60163   4.729   1.605  10.923 -1.3895 -0.0432 -0.4592
  436MOL0     H60164   4.616   1.240  11.098  2.0302  1.9089  3.0438
  436MOL0     H60165   5.337   1.505  11.065  0.6985 -1.4325  0.9335
  436MOL0     H60166   5.533   1.490  11.176 -0.6638  0.6391  0.5417
  436MOL0     H60167   5.645   1.389  11.089 -1.2344 -0.7216 -1.5740
  436MOL0     H60168   5.670   1.571  11.092  0.9792 -1.5455 -1.8593
  437MOL0     O60169   8.128   9.944   0.406 -0.4276 -0.6994 -0.2548
  437MOL0     C60170   8.040   9.874   0.352  0.6605 -0.9546 -0.1513
  437MOL0     O60171   8.066   9.776   0.257  0.3082  0.4573  0.2260
  437MOL0     C60172   8.198   9.752   0.219  0.2465  0.1756  0.3309
  437MOL0     C60173   8.310   9.743   0.303 -0.6386 -0.9795  0.1754
  437MOL0     C60174   8.443   9.721   0.262 -0.7795 -0.4606 -0.5039
  437MOL0     C60175   8.473   9.729   0.122  0.4243  1.1103  0.0317
  437MOL0     O60176   8.598   9.721   0.060 -0.6915 -0.2593 -0.4359
  437MOL0     C60177   8.711   9.670   0.125 -0.0179  0.8678 -0.3126
  437MOL0     C60178   8.706   9.528   0.169 -0.6224 -0.2596  0.5526
  437MOL0     C60179   8.796   9.496   0.288 -0.6085  0.1144 -0.1365
  437MOL0     C60180   8.941   9.481   0.242 -0.1804  0.8230 -0.0443
  437MOL0     C60181   9.028   9.420   0.354  0.3755  0.0665  0.1073
  437MOL0     C60182   9.079   9.527   0.455  0.1214  0.4304 -0.1922
  437MOL0     C60183   9.156   9.637   0.393  0.8931 -0.5737 -0.1137
  437MOL0     C60184   9.267   9.582   0.295 -0.3778  0.5771 -0.1050
  437MOL0     N60185   9.372   9.508   0.372  0.7160  0.3455  0.4719
  437MOL0     C60186   9.413   9.377   0.341  0.5437 -0.9453  0.0866
  437MOL0     C60187   9.508   9.346   0.431 -0.2062 -0.0059 -0.2835
  437MOL0     C60188   9.590   9.219   0.455 -0.2789  0.2670  0.0738
  437MOL0     C60189   9.742   9.246   0.444 -0.2765  0.6667 -0.0401
  437MOL0     C60190   9.781   9.252   0.301  0.3329  0.2022 -0.4723
  437MOL0     C60191   9.930   9.270   0.292  0.1124 -0.6362  0.1313
  437MOL0     O60192  10.006   9.147   0.312  0.6690 -0.0137 -0.4088
  437MOL0     C60193  10.135   9.176   0.345 -0.2505 -0.6286  0.5358
  437MOL0     C60194  10.239   9.129   0.258  0.3624  0.2185 -0.1105
  437MOL0     C60195  10.372   9.146   0.287 -1.0860  0.4658  0.3209
  437MOL0     C60196  10.477   9.085   0.190 -0.0258 -0.6389 -0.2644
  437MOL0     C60197  10.408   9.215   0.404 -0.6392 -0.0248 -0.1562
  437MOL0     C60198  10.552   9.225   0.452  0.1103 -0.0929 -0.0848
  437MOL0     O60199  10.583   9.216   0.585  0.5597 -0.2234  0.0569
  437MOL0     C60200  10.711   9.228   0.636  0.0646  0.2549 -0.6382
  437MOL0     C60201  10.800   9.117   0.647  0.9867 -0.6202  0.0156
  437MOL0     C60202  10.928   9.128   0.705 -0.8827  0.2791  0.9801
  437MOL0     C60203  10.975   9.250   0.754  0.1193 -0.7321  0.3714
  437MOL0     O60204  11.092   9.266   0.828  0.1351 -0.2241 -0.4559
  437MOL0     C60205  11.197   9.173   0.792 -0.0904 -0.1194  0.1963
  437MOL0     C60206  11.324   9.227   0.870  1.0707 -0.6475  0.3436
  437MOL0     C60207  11.452   9.173   0.813  0.1389 -0.5605  0.3679
  437MOL0     C60208  11.476   9.022   0.814 -0.3631 -0.0434 -0.0600
  437MOL0     C60209  11.611   8.974   0.747 -0.4353  0.6115  0.2811
  437MOL0     C60210  11.632   8.819   0.756 -0.7286 -0.3816 -0.7179
  437MOL0     C60211  11.760   8.785   0.691 -0.8611 -0.8836 -0.0864
  437MOL0     C60212  11.891   8.834   0.755 -0.2398 -0.2695 -0.2046
  437MOL0    Cl60213  12.015   8.734   0.665 -0.1936 -0.1124 -0.0496
  437MOL0     C60214  10.886   9.360   0.741 -0.8676 -0.4335  0.8121
  437MOL0     C60215  10.755   9.347   0.687  0.7706  0.5553  1.4543
  437MOL0     O60216  10.636   9.255   0.372 -0.3701 -0.4746 -0.0222
  437MOL0     C60217  10.309   9.260   0.491 -0.0307 -0.4664 -0.4205
  437MOL0     C60218  10.174   9.239   0.467  0.7177  0.1846  0.3231
  437MOL0     N60219   9.498   9.447   0.528  0.3203  0.5444  0.3995
  437MOL0     N60220   9.413   9.534   0.495  0.3638 -0.4456 -0.4198
  437MOL0     C60221   8.366   9.766   0.039 -0.6834  0.2237 -0.1904
  437MOL0     C60222   8.233   9.762   0.086  0.6039  0.3597 -0.4032
  437MOL0     C60223   7.892   9.895   0.378  0.4432 -0.7673  0.3046
  437MOL0     C60224   7.802   9.812   0.300  0.1699  0.5457 -0.5364
  437MOL0     C60225   7.666   9.812   0.328  0.4563 -0.3431  0.1934
  437MOL0     C60226   7.614   9.898   0.424  0.1175  0.0339 -0.6928
  437MOL0     O60227   7.484   9.895   0.450  0.0949  0.4355 -0.5606
  437MOL0     C60228   7.404   9.934   0.335  0.9506 -0.5785  0.5181
  437MOL0     C60229   7.260   9.975   0.382  0.0399  0.4147 -0.9279
  437MOL0     C60230   7.278  10.081   0.493 -0.0921 -0.0056  0.6087
  437MOL0     C60231   7.154  10.123   0.571 -0.2241 -0.1266  0.2191
  437MOL0     C60232   7.065  10.192   0.493 -0.1766  0.2198  0.0978
  437MOL0     C60233   6.996  10.268   0.427 -0.5952  0.4647 -0.8307
  437MOL0     C60234   7.695   9.979   0.493  0.2873 -1.3154 -0.3307
  437MOL0     C60235   7.833   9.978   0.475  0.1620  0.3748  0.0375
  437MOL0     C60236   7.914  10.084   0.532 -0.0265  0.3054  0.4956
  437MOL0     H60237   8.282   9.752   0.408 -1.8454  3.1354 -0.3294
  437MOL0     H60238   8.524   9.712   0.334  0.6765  1.4854 -1.8064
  437MOL0     H60239   8.728   9.726   0.217 -0.7862  0.7197 -0.0681
  437MOL0     H60240   8.792   9.685   0.054  0.1068  2.9311  0.2087
  437MOL0     H60241   8.601   9.510   0.195 -0.7189  0.1044  0.4319
  437MOL0     H60242   8.726   9.457   0.089 -1.3320  1.6098 -1.4009
  437MOL0     H60243   8.781   9.574   0.363 -1.0804  0.0883 -0.1986
  437MOL0     H60244   8.760   9.403   0.332 -2.7190  0.0387 -1.8344
  437MOL0     H60245   8.939   9.417   0.153 -0.6248  1.2669 -0.3640
  437MOL0     H60246   8.978   9.576   0.203  1.7715 -0.1456 -0.6842
  437MOL0     H60247   9.110   9.360   0.313 -0.6101 -0.6955 -0.7989
  437MOL0     H60248   8.963   9.347   0.401 -0.5523  1.5748  1.2558
  437MOL0     H60249   8.999   9.572   0.514 -1.9137  1.1529 -3.2303
  437MOL0     H60250   9.140   9.468   0.523  0.4615 -1.4875 -2.0348
  437MOL0     H60251   9.206   9.677   0.482  2.3596 -3.6977  0.6115
  437MOL0     H60252   9.090   9.711   0.347  2.2884  0.3500 -0.7189
  437MOL0     H60253   9.235   9.518   0.212 -0.1029 -1.0713  0.9995
  437MOL0     H60254   9.300   9.671   0.242 -0.3999 -0.0155 -1.1374
  437MOL0     H60255   9.380   9.312   0.260  3.3704 -1.2220 -0.9750
  437MOL0     H60256   9.553   9.143   0.385 -1.7604 -1.9770  3.0882
  437MOL0     H60257   9.585   9.180   0.557 -1.1203  2.9832  1.1347
  437MOL0     H60258   9.757   9.341   0.496  0.8903  0.3606  0.2130
  437MOL0     H60259   9.803   9.169   0.491  1.2506  2.3987  0.9664
  437MOL0     H60260   9.757   9.162   0.244  0.8898 -0.5362  0.4343
  437MOL0     H60261   9.729   9.340   0.261  0.2598  1.5802  2.3865
  437MOL0     H60262   9.958   9.303   0.192  0.3124 -0.6188  0.1913
  437MOL0     H60263   9.956   9.347   0.366 -0.3298 -0.6898  0.3468
  437MOL0     H60264  10.215   9.083   0.162  1.0793  1.2922 -0.8332
  437MOL0     H60265  10.534   9.160   0.133 -2.9044  0.7442 -1.5738
  437MOL0     H60266  10.426   9.034   0.107 -2.0371  2.2572 -0.9655
  437MOL0     H60267  10.539   9.011   0.240  0.1366 -1.7080 -1.9633
  437MOL0     H60268  10.765   9.019   0.617 -0.9450  0.1503 -0.3537
  437MOL0     H60269  10.976   9.031   0.718 -0.5641  0.5308  1.6980
  437MOL0     H60270  11.174   9.072   0.828  3.4130 -0.0044  3.3817
  437MOL0     H60271  11.213   9.168   0.684 -3.3146 -1.9208 -0.3094
  437MOL0     H60272  11.327   9.337   0.867  0.3003 -0.6307 -0.2952
  437MOL0     H60273  11.306   9.200   0.974  0.2578  2.2942  1.0851
  437MOL0     H60274  11.536   9.223   0.862  0.4945  1.3285 -1.9669
  437MOL0     H60275  11.447   9.201   0.707 -1.8968 -1.6542  0.1320
  437MOL0     H60276  11.390   8.971   0.768 -0.3811 -1.5478  1.5316
  437MOL0     H60277  11.482   8.982   0.916 -1.7663 -3.0433 -1.0338
  437MOL0     H60278  11.605   9.009   0.643 -0.2248  1.3812  0.5203
  437MOL0     H60279  11.702   9.021   0.786  0.7816 -0.5246 -1.0609
  437MOL0     H60280  11.544   8.770   0.711 -2.5735 -0.3277  2.4870
  437MOL0     H60281  11.636   8.783   0.859  2.5320 -3.3135 -1.6872
  437MOL0     H60282  11.769   8.831   0.593  1.1175  2.2121  1.3813
  437MOL0     H60283  11.768   8.676   0.686 -1.5562 -0.9899  0.6895
  437MOL0     H60284  11.905   8.835   0.863  0.8500  0.1396 -0.3316
  437MOL0     H60285  11.918   8.933   0.718  2.4863 -2.1518 -4.0070
  437MOL0     H60286  10.917   9.452   0.789  0.2508 -1.7159  2.7204
  437MOL0     H60287  10.686   9.429   0.672 -0.8212 -1.2741 -3.4131
  437MOL0     H60288  10.341   9.317   0.578  0.3366 -1.2671 -0.0227
  437MOL0     H60289  10.096   9.263   0.539 -2.1436 -0.9215 -2.1751
  437MOL0     H60290   8.382   9.764  -0.068  1.5523  0.0998  0.0949
  437MOL0     H60291   8.153   9.786   0.016  1.1994  1.3378 -0.7684
  437MOL0     H60292   7.827   9.736   0.227  0.7627 -1.6572  1.8010
  437MOL0     H60293   7.602   9.743   0.273  0.0496  0.8548 -0.8860
  437MOL0     H60294   7.441  10.018   0.275 -0.0628 -0.9092 -0.6099
  437MOL0     H60295   7.376   9.854   0.267  0.6362 -0.8731  0.9920
  437MOL0     H60296   7.214   9.885   0.424  1.7700  0.4985  1.2951
  437MOL0     H60297   7.206  10.008   0.292 -2.0715  1.0398  0.4923
  437MOL0     H60298   7.354  10.044   0.562  0.6670 -0.1310 -0.2728
  437MOL0     H60299   7.316  10.174   0.449 -0.9513  0.0490 -0.0421
  437MOL0     H60300   7.182  10.186   0.657 -1.3069 -1.2949  1.4854
  437MOL0     H60301   7.104  10.033   0.607 -1.3240  0.5246  0.3678
  437MOL0     H60302   6.934  10.334   0.368 -2.8131 -0.1882  0.6420
  437MOL0     H60303   7.653  10.052   0.560  0.0540 -0.6524 -1.1774
  437MOL0     H60304   7.982  10.024   0.594  0.2167  1.0744  0.9899
  437MOL0     H60305   7.975  10.129   0.453 -2.3310 -1.0926 -2.2727
  437MOL0     H60306   7.865  10.165   0.586 -1.5195  2.1394 -3.2638
  438MOL0     O60307   2.345   3.352   3.488  0.3139 -0.3934  0.3675
  438MOL0     C60308   2.302   3.451   3.546 -0.6162  0.3031 -0.2284
  438MOL0     O60309   2.331   3.577   3.510  0.4850  0.5005 -0.1786
  438MOL0     C60310   2.434   3.612   3.427  0.3049 -0.4333  0.6534
  438MOL0     C60311   2.531   3.693   3.470 -0.5505  0.4413 -0.4137
  438MOL0     C60312   2.632   3.736   3.389 -0.2056  0.4691 -0.3447
  438MOL0     C60313   2.633   3.710   3.249  0.1690 -0.9221  0.4156
  438MOL0     O60314   2.746   3.749   3.176  0.6176 -0.4680  0.0074
  438MOL0     C60315   2.747   3.724   3.040 -0.5393 -1.0637  0.0818
  438MOL0     C60316   2.861   3.790   2.967 -0.4449 -0.0951  0.7734
  438MOL0     C60317   3.001   3.749   2.990 -1.1064 -0.1209  0.4978
  438MOL0     C60318   3.092   3.862   2.970  0.2720 -0.3341  0.2690
  438MOL0     C60319   3.247   3.822   2.967 -0.0951 -0.6433  0.2007
  438MOL0     C60320   3.312   3.830   2.834  0.2584  0.4999 -0.3887
  438MOL0     C60321   3.459   3.797   2.835 -0.0859 -0.5787 -1.0663
  438MOL0     C60322   3.544   3.912   2.884 -0.0610 -0.1615  0.2569
  438MOL0     N60323   3.694   3.909   2.880  0.2888  0.8000 -0.2809
  438MOL0     C60324   3.773   3.799   2.882  0.0437 -0.3883 -0.5909
  438MOL0     C60325   3.902   3.837   2.846 -0.0969  0.3242  0.8264
  438MOL0     C60326   4.027   3.758   2.809  0.1948  0.1690 -0.1214
  438MOL0     C60327   4.162   3.813   2.796  0.4985  0.1475  0.2074
  438MOL0     C60328   4.198   3.957   2.742  0.2440 -0.5193  0.6419
  438MOL0     C60329   4.143   3.973   2.591  0.2992  0.2276  0.1538
  438MOL0     O60330   4.222   3.899   2.502  0.2260  0.5128 -0.4397
  438MOL0     C60331   4.338   3.960   2.465 -0.0610  0.5674  0.3914
  438MOL0     C60332   4.340   4.094   2.419  0.1542  0.8521 -0.5312
  438MOL0     C60333   4.461   4.152   2.389 -0.9474 -0.4174  0.3618
  438MOL0     C60334   4.442   4.294   2.347  0.0250  0.2711  0.3512
  438MOL0     C60335   4.580   4.079   2.413 -0.0039 -0.0242  0.6671
  438MOL0     C60336   4.717   4.133   2.389 -0.5826 -0.5002  0.4180
  438MOL0     O60337   4.816   4.041   2.389  0.4559  0.3697  0.2392
  438MOL0     C60338   4.931   4.064   2.451  0.0282 -0.1944 -0.1107
  438MOL0     C60339   4.940   4.096   2.584  0.3796 -0.3832 -0.1655
  438MOL0     C60340   5.061   4.100   2.655  0.5152 -0.6811 -0.3463
  438MOL0     C60341   5.177   4.050   2.598 -0.2942  0.0729  0.0737
  438MOL0     O60342   5.294   4.024   2.662  0.3241  0.2134  0.4602
  438MOL0     C60343   5.369   3.911   2.639 -0.3391  1.0951  1.2372
  438MOL0     C60344   5.489   3.934   2.546 -0.3476  0.7984  0.3302
  438MOL0     C60345   5.621   3.965   2.631  0.7168  0.8256  0.5188
  438MOL0     C60346   5.677   3.844   2.719 -0.0268  0.4307  0.6298
  438MOL0     C60347   5.821   3.878   2.759 -0.4822 -0.2688  0.2356
  438MOL0     C60348   5.892   3.759   2.825 -1.1112  0.5731 -0.9743
  438MOL0     C60349   6.045   3.786   2.831  0.1441 -0.1822  0.2457
  438MOL0     C60350   6.123   3.667   2.875  0.1795 -0.2154  0.7623
  438MOL0    Cl60351   6.296   3.688   2.906  0.0787  0.1613  0.0590
  438MOL0     C60352   5.167   4.026   2.458  0.1804  0.1837 -0.7680
  438MOL0     C60353   5.047   4.035   2.391 -1.0897 -0.4212  1.2997
  438MOL0     O60354   4.735   4.257   2.393 -0.2691 -0.7458 -0.2393
  438MOL0     C60355   4.571   3.943   2.450  0.6239  0.0657  0.0431
  438MOL0     C60356   4.448   3.881   2.465  0.0424 -0.6226  0.3833
  438MOL0     N60357   3.888   3.978   2.832 -0.6856 -0.3575 -0.0726
  438MOL0     N60358   3.768   4.013   2.851  0.4887 -0.5539 -0.3510
  438MOL0     C60359   2.532   3.628   3.201 -0.4952 -0.0332  0.3907
  438MOL0     C60360   2.434   3.591   3.294  0.0741  1.0261  0.1668
  438MOL0     C60361   2.239   3.443   3.680  0.1101 -0.8102 -0.1013
  438MOL0     C60362   2.214   3.559   3.759 -0.3472  0.1959  0.5794
  438MOL0     C60363   2.175   3.554   3.891 -0.4398  0.1210  0.0719
  438MOL0     C60364   2.138   3.430   3.943 -0.3775 -1.4021  0.5168
  438MOL0     O60365   2.100   3.438   4.076  0.5526  0.1005  0.3560
  438MOL0     C60366   2.068   3.314   4.149  0.0924  1.0357  0.2306
  438MOL0     C60367   2.002   3.342   4.282 -0.2255  0.2456  0.0500
  438MOL0     C60368   2.076   3.444   4.371  0.1731  0.2813  0.3168
  438MOL0     C60369   2.047   3.435   4.530  0.6588  0.7168  0.5073
  438MOL0     C60370   1.925   3.357   4.559 -0.0724 -0.1488  0.0962
  438MOL0     C60371   1.819   3.299   4.587 -0.4724 -0.3070  0.1941
  438MOL0     C60372   2.150   3.319   3.872  0.3230 -0.3140  0.4511
  438MOL0     C60373   2.196   3.322   3.744  0.3123  0.5281 -0.6003
  438MOL0     C60374   2.212   3.185   3.675  0.0156 -0.4824 -0.4346
  438MOL0     H60375   2.542   3.720   3.575  2.6014 -0.0374 -0.5445
  438MOL0     H60376   2.715   3.786   3.439 -1.5287 -1.0150  3.7814
  438MOL0     H60377   2.659   3.768   2.991  0.2743 -2.3990 -2.7877
  438MOL0     H60378   2.745   3.617   3.019 -0.0936 -1.1872  0.6644
  438MOL0     H60379   2.852   3.779   2.859  2.7011  0.3877  0.3678
  438MOL0     H60380   2.849   3.898   2.978  0.7830  0.0254  1.1445
  438MOL0     H60381   3.018   3.700   3.087 -0.0321 -0.7585  0.0163
  438MOL0     H60382   3.023   3.664   2.924  0.7241  1.8666 -1.6045
  438MOL0     H60383   3.069   3.916   2.878  1.4852 -0.6561 -0.2483
  438MOL0     H60384   3.076   3.931   3.052  0.9270 -0.2597  0.3336
  438MOL0     H60385   3.266   3.734   3.029  3.6894 -1.6769 -2.0697
  438MOL0     H60386   3.300   3.906   3.012 -1.8450  0.3643  0.4477
  438MOL0     H60387   3.265   3.763   2.761 -0.5214  0.5352  0.0689
  438MOL0     H60388   3.305   3.928   2.786  1.7747  0.2789 -1.1202
  438MOL0     H60389   3.505   3.756   2.744  1.5762 -0.9445 -0.1106
  438MOL0     H60390   3.475   3.716   2.908 -0.8276  1.3476  1.3720
  438MOL0     H60391   3.515   3.996   2.821  0.0898 -1.0096 -0.9817
  438MOL0     H60392   3.516   3.922   2.989  1.6908 -0.8138  0.8368
  438MOL0     H60393   3.745   3.695   2.897 -1.1326  0.1771  1.5528
  438MOL0     H60394   4.009   3.715   2.710 -0.5125 -0.2187  0.1639
  438MOL0     H60395   4.040   3.671   2.875 -2.8928 -0.3564 -0.0421
  438MOL0     H60396   4.207   3.805   2.895  1.2690 -0.5048 -0.1777
  438MOL0     H60397   4.216   3.738   2.736 -1.2446  0.2535 -1.5905
  438MOL0     H60398   4.153   4.032   2.807  1.4437 -1.9263  3.2599
  438MOL0     H60399   4.307   3.964   2.747  0.1840  2.9067 -0.5462
  438MOL0     H60400   4.044   3.927   2.583  0.7447 -0.5311 -1.4489
  438MOL0     H60401   4.144   4.081   2.576 -0.9785  1.2558  5.5437
  438MOL0     H60402   4.247   4.140   2.388 -0.0474 -0.5110 -2.0398
  438MOL0     H60403   4.348   4.315   2.295  0.9805 -1.6921 -2.4739
  438MOL0     H60404   4.519   4.306   2.270  0.6874 -0.4827  0.8857
  438MOL0     H60405   4.451   4.371   2.424  3.8567  3.3159 -2.7459
  438MOL0     H60406   4.845   4.118   2.631 -1.8633 -2.1858 -3.4838
  438MOL0     H60407   5.063   4.119   2.762  0.0826  1.9556 -0.7248
  438MOL0     H60408   5.394   3.853   2.728  1.0146 -1.5570 -0.7137
  438MOL0     H60409   5.299   3.843   2.588 -1.1629  3.2734 -0.7017
  438MOL0     H60410   5.495   3.844   2.484  1.0967  1.0049  0.1280
  438MOL0     H60411   5.467   4.022   2.485  2.1454 -0.1297 -2.1468
  438MOL0     H60412   5.609   4.048   2.701  3.8994 -0.7169  3.0988
  438MOL0     H60413   5.691   3.999   2.554  0.1136 -0.7878 -0.8104
  438MOL0     H60414   5.685   3.750   2.663  1.7881  1.4626 -0.9508
  438MOL0     H60415   5.623   3.828   2.813 -0.8385  2.5458  0.5816
  438MOL0     H60416   5.879   3.917   2.675  1.9909 -1.2531  1.3773
  438MOL0     H60417   5.810   3.963   2.827  1.0204  2.1143 -2.2936
  438MOL0     H60418   5.877   3.664   2.773 -0.7563 -1.1297  1.8124
  438MOL0     H60419   5.841   3.756   2.922 -0.7219 -0.9477 -0.7903
  438MOL0     H60420   6.068   3.869   2.898 -3.6441 -0.0865  1.6923
  438MOL0     H60421   6.079   3.816   2.731  2.3547 -1.5868  0.5172
  438MOL0     H60422   6.114   3.584   2.804  0.8463 -0.7188  1.2597
  438MOL0     H60423   6.081   3.632   2.970  1.5148  0.2729  1.5487
  438MOL0     H60424   5.253   3.985   2.405 -0.0296  0.5022 -1.3721
  438MOL0     H60425   5.044   4.008   2.286 -1.1168  1.0564  0.9063
  438MOL0     H60426   4.658   3.882   2.470  0.0768 -0.0593  2.3458
  438MOL0     H60427   4.444   3.778   2.499  2.2749 -0.4652  1.2358
  438MOL0     H60428   2.534   3.588   3.101  3.9992 -0.4491  0.4575
  438MOL0     H60429   2.359   3.526   3.251  1.4744 -0.5609  0.0360
  438MOL0     H60430   2.244   3.655   3.719  1.1539 -1.0402 -1.5095
  438MOL0     H60431   2.161   3.637   3.960  1.9135  2.3515 -1.9352
  438MOL0     H60432   1.999   3.256   4.086  1.5529 -0.9250  0.3349
  438MOL0     H60433   2.159   3.261   4.177 -0.7884 -1.0256 -0.5713
  438MOL0     H60434   1.989   3.243   4.327  2.4855  0.1868  0.8516
  438MOL0     H60435   1.901   3.380   4.266 -0.6983 -1.0428 -0.1478
  438MOL0     H60436   2.182   3.415   4.370 -0.0648 -0.7214 -1.2811
  438MOL0     H60437   2.054   3.543   4.330 -0.0901 -0.1269 -0.5567
  438MOL0     H60438   2.038   3.533   4.577 -1.0749  0.6735  0.3192
  438MOL0     H60439   2.137   3.389   4.574  0.4589 -0.8397 -0.6088
  438MOL0     H60440   1.725   3.257   4.616 -1.5339  2.4123  1.0127
  438MOL0     H60441   2.134   3.224   3.921 -1.2564  0.3453  1.2830
  438MOL0     H60442   2.200   3.195   3.567 -1.7122  1.8084 -0.1122
  438MOL0     H60443   2.312   3.150   3.702 -1.1280 -3.5269  0.2299
  438MOL0     H60444   2.134   3.118   3.711 -0.7601  0.4071 -0.4258
  439MOL0     O60445   8.414   7.683   9.693  0.0003  0.5866 -0.5725
  439MOL0     C60446   8.382   7.590   9.616 -0.0198  0.6848  0.5508
  439MOL0     O60447   8.463   7.503   9.558  0.6738 -0.3997 -0.5298
  439MOL0     C60448   8.593   7.513   9.576  0.1531 -1.1466 -0.0566
  439MOL0     C60449   8.671   7.409   9.635  0.0439 -0.0917  0.1323
  439MOL0     C60450   8.817   7.412   9.630 -0.3224  0.9123  0.0841
  439MOL0     C60451   8.883   7.523   9.571  0.6038  0.7549 -0.1793
  439MOL0     O60452   9.017   7.521   9.565 -0.2213  0.0369  1.0028
  439MOL0     C60453   9.083   7.649   9.592  0.7162 -0.1744  0.6495
  439MOL0     C60454   9.191   7.619   9.690 -0.0010 -0.0869 -0.1247
  439MOL0     C60455   9.330   7.589   9.614 -0.4414 -0.8727 -0.4426
  439MOL0     C60456   9.380   7.695   9.521 -0.1579 -0.1777  0.2632
  439MOL0     C60457   9.517   7.667   9.469  0.4817 -0.0698 -0.1427
  439MOL0     C60458   9.637   7.626   9.560  0.6957  0.4256  1.0664
  439MOL0     C60459   9.775   7.662   9.496  0.4206 -0.1688 -0.0138
  439MOL0     C60460   9.801   7.593   9.363 -0.2839 -0.2606  0.7615
  439MOL0     N60461   9.932   7.624   9.319 -0.0135  0.4449 -0.3442
  439MOL0     C60462   9.985   7.743   9.277  0.6033  0.1648 -0.2494
  439MOL0     C60463  10.115   7.728   9.260 -0.4295  0.1326 -0.2139
  439MOL0     C60464  10.216   7.830   9.209  0.5764 -0.1650  1.0090
  439MOL0     C60465  10.261   7.805   9.066  0.0228  1.0154  0.8447
  439MOL0     C60466  10.382   7.715   9.059 -0.6949  0.3469 -0.0607
  439MOL0     C60467  10.500   7.816   9.068 -1.0490 -0.1680 -0.1548
  439MOL0     O60468  10.625   7.748   9.053 -0.3744  0.2540  0.5067
  439MOL0     C60469  10.697   7.779   8.940 -0.1409 -0.2075  0.1817
  439MOL0     C60470  10.648   7.808   8.812 -0.1276  0.3154  0.3237
  439MOL0     C60471  10.743   7.829   8.709 -0.6871  0.7031  0.4599
  439MOL0     C60472  10.687   7.859   8.575  0.0440 -0.4972 -0.3172
  439MOL0     C60473  10.880   7.814   8.727 -0.1409  0.6193 -0.2739
  439MOL0     C60474  10.989   7.815   8.628 -0.0807  0.3930  0.0619
  439MOL0     O60475  11.115   7.825   8.678 -0.0177  0.2760  0.0939
  439MOL0     C60476  11.220   7.822   8.589  0.5710 -0.3813  0.6747
  439MOL0     C60477  11.262   7.940   8.526 -0.5887 -0.1781 -0.4768
  439MOL0     C60478  11.367   7.948   8.435 -0.4623  0.0692 -0.2068
  439MOL0     C60479  11.435   7.824   8.413 -1.3705 -0.0740  0.6734
  439MOL0     O60480  11.532   7.820   8.312  0.9273  0.2771  0.1398
  439MOL0     C60481  11.604   7.939   8.276  0.1940 -0.0368 -0.1806
  439MOL0     C60482  11.699   7.912   8.160 -0.4535 -0.7999 -1.3904
  439MOL0     C60483  11.785   8.042   8.122  0.1945 -0.0582 -0.1459
  439MOL0     C60484  11.885   8.011   8.010 -0.2368  0.0827 -0.3876
  439MOL0     C60485  11.968   7.885   8.024  0.0396  0.1782  0.0428
  439MOL0     C60486  12.065   7.885   7.911  0.0651  0.2647 -0.3930
  439MOL0     C60487  12.177   7.789   7.937 -0.6860  0.1052  0.2264
  439MOL0     C60488  12.291   7.799   7.839  0.4055 -0.1279  0.2339
  439MOL0    Cl60489  12.407   7.944   7.850  0.4247  0.2461 -0.2337
  439MOL0     C60490  11.399   7.708   8.476  0.1752 -0.4755 -0.1579
  439MOL0     C60491  11.288   7.702   8.566 -0.4071  0.3602 -0.5875
  439MOL0     O60492  10.967   7.782   8.511  0.4433  0.2809  0.2470
  439MOL0     C60493  10.914   7.774   8.855 -0.1711 -0.7427 -0.5001
  439MOL0     C60494  10.825   7.748   8.962  0.1922 -1.3221 -0.7839
  439MOL0     N60495  10.145   7.598   9.284 -0.0618 -0.5691 -1.2534
  439MOL0     N60496  10.029   7.531   9.320  0.3444  0.2650 -0.4253
  439MOL0     C60497   8.798   7.633   9.518  0.7517  0.1338 -0.8140
  439MOL0     C60498   8.665   7.627   9.527  0.3558 -0.1292  0.5715
  439MOL0     C60499   8.231   7.550   9.609 -0.4116  0.1349 -0.2670
  439MOL0     C60500   8.197   7.416   9.594  0.3296 -0.3928 -0.0052
  439MOL0     C60501   8.057   7.387   9.583 -0.7415 -0.6518  0.7252
  439MOL0     C60502   7.960   7.486   9.609 -0.4246  1.0871  0.5265
  439MOL0     O60503   7.823   7.458   9.588 -1.0999  0.1047 -1.1172
  439MOL0     C60504   7.738   7.464   9.705 -0.0841 -0.4971  0.7449
  439MOL0     C60505   7.604   7.427   9.644  0.4812 -0.0217 -0.0183
  439MOL0     C60506   7.480   7.472   9.731  0.1926  0.3435  0.7927
  439MOL0     C60507   7.470   7.389   9.859  0.3292 -0.2985 -0.4241
  439MOL0     C60508   7.556   7.434   9.973 -0.2478  0.8051  0.4859
  439MOL0     C60509   7.634   7.453  10.064  0.2011  0.0531  0.3115
  439MOL0     C60510   7.989   7.618   9.623 -0.1433 -0.1717  0.4541
  439MOL0     C60511   8.126   7.649   9.622 -0.6054  0.0636  0.0938
  439MOL0     C60512   8.158   7.789   9.640 -0.2928  0.1051 -0.0336
  439MOL0     H60513   8.612   7.328   9.677 -0.5672 -0.9187 -2.1518
  439MOL0     H60514   8.868   7.330   9.678 -1.6097 -0.3843 -0.6903
  439MOL0     H60515   9.002   7.706   9.638 -1.3314 -2.9398  0.7046
  439MOL0     H60516   9.128   7.697   9.504  3.9197 -0.5960  1.9048
  439MOL0     H60517   9.208   7.704   9.756 -2.3495  1.1066 -0.9530
  439MOL0     H60518   9.156   7.538   9.755 -0.2521  0.1988  0.0959
  439MOL0     H60519   9.409   7.584   9.689  0.5306  3.4804 -0.8724
  439MOL0     H60520   9.341   7.493   9.563  1.0566 -0.1604 -1.5215
  439MOL0     H60521   9.323   7.701   9.428 -1.1436 -1.2211  0.7809
  439MOL0     H60522   9.387   7.793   9.569 -0.4498  0.5831 -1.1852
  439MOL0     H60523   9.536   7.765   9.423 -3.1655  0.9384  0.2229
  439MOL0     H60524   9.498   7.597   9.388 -0.6212 -2.6748  2.2196
  439MOL0     H60525   9.626   7.664   9.662 -0.2209  2.5915  0.2220
  439MOL0     H60526   9.630   7.517   9.563  1.0994  0.3548 -0.0927
  439MOL0     H60527   9.849   7.624   9.567  1.7937  0.5773 -1.0220
  439MOL0     H60528   9.798   7.769   9.491  2.6300 -0.5919  0.1411
  439MOL0     H60529   9.779   7.487   9.377  0.6223 -0.8283 -1.6398
  439MOL0     H60530   9.732   7.628   9.285 -0.4368 -0.5958  0.7420
  439MOL0     H60531   9.927   7.835   9.269 -1.7996 -0.9571  2.6384
  439MOL0     H60532  10.304   7.837   9.274  3.1638  0.6034 -2.3403
  439MOL0     H60533  10.166   7.927   9.211 -0.2473 -0.5865  2.3102
  439MOL0     H60534  10.177   7.754   9.017 -0.8906  2.5364  0.7738
  439MOL0     H60535  10.269   7.904   9.020  1.2265  0.5397 -0.0317
  439MOL0     H60536  10.384   7.640   9.138 -0.7342 -2.4523 -2.5423
  439MOL0     H60537  10.392   7.657   8.967 -1.3695 -0.6269  0.4637
  439MOL0     H60538  10.488   7.900   8.998  1.8063  1.9202  1.6307
  439MOL0     H60539  10.491   7.857   9.169 -0.5333  0.5229 -0.3812
  439MOL0     H60540  10.542   7.819   8.790 -0.5303 -1.3233  1.2361
  439MOL0     H60541  10.654   7.767   8.527 -0.1571 -0.9083  0.6029
  439MOL0     H60542  10.768   7.896   8.511 -1.1117 -2.4977 -3.1502
  439MOL0     H60543  10.602   7.929   8.577 -0.9622 -1.7063  0.2125
  439MOL0     H60544  11.211   8.032   8.552 -0.3932 -0.4936  1.1473
  439MOL0     H60545  11.383   8.040   8.380 -2.2449 -0.1650 -1.2017
  439MOL0     H60546  11.539   8.021   8.241 -2.6188 -1.9561  0.2093
  439MOL0     H60547  11.652   7.954   8.373 -0.1142  1.3314 -0.2160
  439MOL0     H60548  11.755   7.822   8.188 -0.3695 -0.8985 -1.8611
  439MOL0     H60549  11.644   7.875   8.073 -0.7108 -3.0026 -0.3716
  439MOL0     H60550  11.845   8.087   8.203  1.3168 -2.9386  0.7716
  439MOL0     H60551  11.722   8.123   8.086 -0.1571  0.0876  0.7663
  439MOL0     H60552  11.950   8.099   8.002  0.0366  0.0638  1.2139
  439MOL0     H60553  11.842   8.000   7.911  1.6132  0.5875 -1.2930
  439MOL0     H60554  12.020   7.895   8.119  0.8843 -1.3504 -0.2221
  439MOL0     H60555  11.913   7.790   8.017  0.6785 -0.1200 -1.4968
  439MOL0     H60556  12.112   7.981   7.888  2.0490  0.0687  2.3905
  439MOL0     H60557  12.015   7.848   7.821 -0.6232  0.9933 -0.3182
  439MOL0     H60558  12.140   7.688   7.918  0.7284 -0.3352 -0.2511
  439MOL0     H60559  12.220   7.795   8.037  3.0729  0.8360 -1.2595
  439MOL0     H60560  12.260   7.802   7.734 -1.9152 -2.4477  0.7647
  439MOL0     H60561  12.349   7.706   7.842  0.3415 -0.2699 -1.6228
  439MOL0     H60562  11.444   7.612   8.458 -1.2438 -1.2173  0.0698
  439MOL0     H60563  11.251   7.623   8.630  0.4232  1.1953  0.9852
  439MOL0     H60564  11.020   7.762   8.874  0.2513  1.4354 -1.2452
  439MOL0     H60565  10.869   7.713   9.055 -1.5677  0.7795  0.9570
  439MOL0     H60566   8.848   7.723   9.484  0.7090  2.9499  5.2335
  439MOL0     H60567   8.611   7.715   9.491 -2.3807 -1.9562 -0.1084
  439MOL0     H60568   8.279   7.350   9.571 -0.2844 -1.2529  0.2356
  439MOL0     H60569   8.026   7.289   9.547  2.8154 -2.5096  2.1697
  439MOL0     H60570   7.774   7.405   9.790  0.8140  0.1159  0.8012
  439MOL0     H60571   7.730   7.568   9.737 -2.5836 -0.6900  0.8927
  439MOL0     H60572   7.594   7.320   9.622 -3.8896 -0.3421  2.2818
  439MOL0     H60573   7.605   7.486   9.551  0.5629  2.5540  1.5228
  439MOL0     H60574   7.466   7.578   9.753 -0.7230  0.6795 -1.2351
  439MOL0     H60575   7.389   7.441   9.679 -0.2844  0.2653  1.6463
  439MOL0     H60576   7.475   7.281   9.844 -1.0022 -0.4124 -0.1986
  439MOL0     H60577   7.366   7.399   9.891 -0.3738 -0.4001 -2.5259
  439MOL0     H60578   7.710   7.466  10.139  0.3809 -0.9440  0.3118
  439MOL0     H60579   7.910   7.687   9.651 -1.8865 -2.2556  0.8924
  439MOL0     H60580   8.252   7.828   9.599 -1.2381  1.5206 -0.9363
  439MOL0     H60581   8.078   7.855   9.605  0.0521  1.2523  1.2361
  439MOL0     H60582   8.167   7.801   9.749 -0.4299 -3.7377  0.5516
  440MOL0     O60583   0.721  10.021   4.062  0.0311  0.4152 -0.2020
  440MOL0     C60584   0.723   9.993   4.183  0.6464  0.5620  0.2309
  440MOL0     O60585   0.815   9.907   4.233  0.0219  0.3712  0.3296
  440MOL0     C60586   0.944   9.900   4.167  0.4552  0.6136 -0.8053
  440MOL0     C60587   0.999   9.776   4.147  0.3231  0.6454 -0.2440
  440MOL0     C60588   1.120   9.759   4.091 -0.6350 -0.0008 -0.5454
  440MOL0     C60589   1.200   9.873   4.063  1.0114  0.4570 -0.7939
  440MOL0     O60590   1.317   9.871   3.994  0.1843 -0.5054 -0.2463
  440MOL0     C60591   1.422   9.835   4.086  0.7721 -0.0741  0.4063
  440MOL0     C60592   1.549   9.868   4.015  0.8842 -0.1163 -0.2996
  440MOL0     C60593   1.666   9.819   4.085 -0.0706  0.0164 -0.5793
  440MOL0     C60594   1.793   9.866   4.020 -0.6042 -0.2896  0.1038
  440MOL0     C60595   1.920   9.878   4.115  0.2838 -0.2903  0.8250
  440MOL0     C60596   2.043   9.926   4.035 -0.6750  0.2759  0.3691
  440MOL0     C60597   2.169   9.922   4.128  0.4793 -0.1219  1.0764
  440MOL0     C60598   2.303   9.949   4.055 -0.3565 -0.4564  0.3718
  440MOL0     N60599   2.417  10.030   4.118  0.2799  0.1669  0.1635
  440MOL0     C60600   2.408  10.161   4.160  0.2176  0.1181 -0.1135
  440MOL0     C60601   2.532  10.184   4.199 -0.4760  0.4299  1.3519
  440MOL0     C60602   2.573  10.323   4.244 -1.1705 -0.1879  0.6966
  440MOL0     C60603   2.587  10.419   4.123  0.3771 -0.7798  0.0293
  440MOL0     C60604   2.669  10.369   4.008 -0.1981 -0.7016 -0.5922
  440MOL0     C60605   2.819  10.330   4.040  0.3452 -0.3846 -0.5925
  440MOL0     O60606   2.882  10.453   4.080 -0.5692  0.2865  0.2779
  440MOL0     C60607   3.012  10.454   4.114 -0.5264  0.2651  0.0597
  440MOL0     C60608   3.084  10.336   4.132 -0.2258  0.1210  0.8490
  440MOL0     C60609   3.230  10.328   4.158  0.7710 -0.4658  0.2138
  440MOL0     C60610   3.280  10.186   4.186 -0.0839  0.3896 -0.3406
  440MOL0     C60611   3.294  10.450   4.151  0.3417  0.8707 -0.4461
  440MOL0     C60612   3.439  10.461   4.182  0.0424 -0.2650  1.0748
  440MOL0     O60613   3.484  10.577   4.230  0.1919  0.9523 -0.6332
  440MOL0     C60614   3.621  10.596   4.259  0.1631  0.4428 -0.1849
  440MOL0     C60615   3.724  10.549   4.182 -0.4548 -0.5222  0.0654
  440MOL0     C60616   3.855  10.581   4.210  1.2289 -0.1590 -0.0608
  440MOL0     C60617   3.888  10.673   4.312  0.2758  0.0124 -0.5071
  440MOL0     O60618   4.006  10.732   4.345 -0.3711 -0.7055  0.7299
  440MOL0     C60619   4.094  10.632   4.391  0.4427 -0.4218  0.4241
  440MOL0     C60620   4.206  10.611   4.299  0.2693  0.3255  0.4518
  440MOL0     C60621   4.268  10.743   4.262 -0.2556  0.4043  0.0284
  440MOL0     C60622   4.389  10.702   4.164  0.4233  0.1366  0.1619
  440MOL0     C60623   4.449  10.823   4.110 -0.1571  0.6861 -0.4635
  440MOL0     C60624   4.577  10.802   4.022  0.0341 -0.2489 -0.4766
  440MOL0     C60625   4.548  10.724   3.887 -0.0764 -0.8913  0.1453
  440MOL0     C60626   4.663  10.720   3.786  0.2120  0.4035 -0.1991
  440MOL0    Cl60627   4.804  10.639   3.875  0.2055 -0.0048 -0.0249
  440MOL0     C60628   3.783  10.714   4.396 -0.2593  0.2244  0.6550
  440MOL0     C60629   3.652  10.669   4.369 -0.1846  0.2584 -0.0459
  440MOL0     O60630   3.505  10.363   4.153 -0.0509  0.0438  0.1284
  440MOL0     C60631   3.222  10.564   4.135  1.0466  0.0664  0.2101
  440MOL0     C60632   3.082  10.570   4.121 -0.6740  0.3202  0.0275
  440MOL0     N60633   2.618  10.076   4.180  0.1969  0.1847 -0.7349
  440MOL0     N60634   2.549   9.986   4.131  0.9096  1.2855  0.4594
  440MOL0     C60635   1.156  10.001   4.086  0.1830 -0.0558 -0.4021
  440MOL0     C60636   1.024  10.017   4.133 -0.0473 -0.3446 -0.4666
  440MOL0     C60637   0.612  10.034   4.282 -0.4948 -0.6447 -0.6619
  440MOL0     C60638   0.651  10.017   4.417  0.6546 -0.3101  0.0877
  440MOL0     C60639   0.553  10.036   4.517  0.1516  0.6589  0.1259
  440MOL0     C60640   0.422  10.090   4.486  0.1438 -0.6486 -0.6740
  440MOL0     O60641   0.350  10.113   4.604 -0.5520  0.0646  0.3664
  440MOL0     C60642   0.223  10.167   4.607  0.2629  0.5738 -0.2369
  440MOL0     C60643   0.230  10.312   4.640  0.4749  0.7338 -0.5259
  440MOL0     C60644   0.095  10.368   4.688  0.1126  0.0107 -0.2443
  440MOL0     C60645  -0.029  10.333   4.591 -0.5921  0.7043 -0.5779
  440MOL0     C60646  -0.001  10.385   4.459  0.0477 -0.9839 -0.3923
  440MOL0     C60647   0.008  10.432   4.349  0.3834 -0.4221  0.5635
  440MOL0     C60648   0.394  10.122   4.355  0.4863 -0.2602  0.6079
  440MOL0     C60649   0.487  10.088   4.248  0.0206 -0.7775 -0.5551
  440MOL0     C60650   0.438  10.103   4.107 -0.1866 -0.5655 -0.1236
  440MOL0     H60651   0.939   9.691   4.180  1.2721  0.7620  1.9331
  440MOL0     H60652   1.155   9.658   4.072 -0.5834 -0.2178  0.6343
  440MOL0     H60653   1.423   9.726   4.095  4.2135 -0.2250 -0.5525
  440MOL0     H60654   1.417   9.884   4.184 -0.3533  1.1879 -0.2500
  440MOL0     H60655   1.560   9.829   3.914 -0.5350 -2.2543  0.2843
  440MOL0     H60656   1.561   9.976   4.021 -0.3136  0.0126 -0.0007
  440MOL0     H60657   1.664   9.856   4.188  1.3075 -0.2510 -0.4365
  440MOL0     H60658   1.665   9.710   4.093 -0.2580  0.0779  0.3673
  440MOL0     H60659   1.821   9.804   3.934  1.8053  0.7537  0.0469
  440MOL0     H60660   1.770   9.965   3.981  0.6577 -0.0758 -0.1488
  440MOL0     H60661   1.928   9.775   4.150 -3.5363 -0.6301  1.1403
  440MOL0     H60662   1.894   9.947   4.196 -0.9900  2.2635 -1.5946
  440MOL0     H60663   2.064   9.844   3.966  0.9720 -0.3504  1.5496
  440MOL0     H60664   2.032  10.027   3.995 -2.9519  0.4179  1.1456
  440MOL0     H60665   2.175   9.826   4.180 -0.0608 -0.1480  1.0910
  440MOL0     H60666   2.160  10.000   4.204  1.9297  2.6544 -1.3916
  440MOL0     H60667   2.355   9.855   4.032  1.5922 -0.1918  3.2059
  440MOL0     H60668   2.277  10.004   3.964  1.9341  3.3727  1.7904
  440MOL0     H60669   2.323  10.226   4.145  0.0679 -0.4205 -1.7023
  440MOL0     H60670   2.670  10.303   4.290 -0.1441  0.6000 -1.0339
  440MOL0     H60671   2.506  10.345   4.327  1.6052  0.0378  3.0390
  440MOL0     H60672   2.485  10.444   4.093  0.1680  1.0995  2.0418
  440MOL0     H60673   2.618  10.521   4.147 -0.4997 -0.5437  0.2216
  440MOL0     H60674   2.622  10.278   3.970 -1.0812  0.6050 -2.8716
  440MOL0     H60675   2.675  10.437   3.922  2.0505 -0.1178 -0.0504
  440MOL0     H60676   2.815  10.253   4.118 -1.8164 -1.6302 -1.8487
  440MOL0     H60677   2.871  10.291   3.952 -0.3699 -0.3665 -1.0253
  440MOL0     H60678   3.031  10.242   4.117  1.9694 -0.7388 -2.6055
  440MOL0     H60679   3.212  10.103   4.164  1.3735 -1.4091  1.5670
  440MOL0     H60680   3.316  10.188   4.290 -1.6742  0.5610  0.2432
  440MOL0     H60681   3.362  10.156   4.121 -2.2671  0.8585 -3.5485
  440MOL0     H60682   3.701  10.493   4.092  0.5323 -1.5261  0.4166
  440MOL0     H60683   3.926  10.541   4.139 -0.6184  1.7870 -3.3220
  440MOL0     H60684   4.131  10.659   4.490  2.4993  2.1586 -0.8942
  440MOL0     H60685   4.036  10.542   4.413 -1.9124  0.9107 -0.0107
  440MOL0     H60686   4.283  10.545   4.340 -0.0613 -1.7282 -1.9800
  440MOL0     H60687   4.166  10.563   4.209 -0.6119 -0.7352  1.3765
  440MOL0     H60688   4.307  10.799   4.347  1.4937 -1.9161  0.8565
  440MOL0     H60689   4.200  10.809   4.208 -0.1331 -0.2973 -1.0163
  440MOL0     H60690   4.346  10.641   4.084  2.2265 -1.8139  0.5777
  440MOL0     H60691   4.469  10.651   4.219  2.7851  2.5502 -0.8793
  440MOL0     H60692   4.380  10.872   4.040  0.7876  1.2880 -0.9918
  440MOL0     H60693   4.473  10.894   4.190 -0.8237  0.7702 -0.3315
  440MOL0     H60694   4.641  10.734   4.079 -0.3123 -1.3085 -1.3230
  440MOL0     H60695   4.631  10.896   4.012 -0.7543  0.5780  2.2388
  440MOL0     H60696   4.470  10.778   3.833 -1.7510 -3.1638  0.1219
  440MOL0     H60697   4.507  10.625   3.912 -0.5050 -0.4783  1.1102
  440MOL0     H60698   4.683  10.823   3.757  1.0239  0.6169  1.0439
  440MOL0     H60699   4.635  10.659   3.699  1.4377 -1.5759  0.7227
  440MOL0     H60700   3.816  10.787   4.469  2.3871  1.5361 -1.6933
  440MOL0     H60701   3.578  10.711   4.437  1.2243  2.0192  0.4967
  440MOL0     H60702   3.268  10.662   4.132  1.6275 -0.0612  2.4224
  440MOL0     H60703   3.030  10.664   4.102 -0.5769  0.0808 -1.5064
  440MOL0     H60704   1.225  10.082   4.064  0.1904 -0.3720 -1.5934
  440MOL0     H60705   0.984  10.118   4.141  4.2177  1.4648  3.1543
  440MOL0     H60706   0.747   9.975   4.445 -0.7996 -2.4135  2.4722
  440MOL0     H60707   0.583  10.012   4.619  1.0070 -3.8671 -0.9798
  440MOL0     H60708   0.173  10.164   4.510 -1.0889  1.1980  0.4225
  440MOL0     H60709   0.154  10.109   4.670 -0.1595  0.3589 -0.8903
  440MOL0     H60710   0.265  10.369   4.554 -0.4846  1.5989 -0.3573
  440MOL0     H60711   0.310  10.321   4.714  0.4651  0.8395 -0.5292
  440MOL0     H60712   0.075  10.320   4.784  1.6906  1.5103  0.9068
  440MOL0     H60713   0.099  10.476   4.707 -1.7891  0.3321 -1.3917
  440MOL0     H60714  -0.125  10.372   4.627 -0.9633 -1.5164  1.0315
  440MOL0     H60715  -0.042  10.225   4.584 -0.5816  0.7026 -0.5690
  440MOL0     H60716   0.025  10.472   4.251 -1.4923 -2.6253 -0.7874
  440MOL0     H60717   0.299  10.171   4.343  1.0560  0.3882 -1.6727
  440MOL0     H60718   0.477  10.198   4.070 -2.1338  0.7275  0.9512
  440MOL0     H60719   0.470  10.012   4.055  0.1861  0.4969 -1.8163
  440MOL0     H60720   0.329  10.098   4.111 -0.1233 -1.8746  1.5214
  441MOL0     O60721   7.249   3.096   4.478 -0.8333  0.1608  0.4778
  441MOL0     C60722   7.207   3.074   4.369  0.3265  0.3517  0.2187
  441MOL0     O60723   7.273   3.086   4.248 -0.2719  0.1777  0.0559
  441MOL0     C60724   7.387   3.162   4.240 -0.0611 -0.5321 -0.0000
  441MOL0     C60725   7.450   3.250   4.332  0.5150 -0.4862 -0.0207
  441MOL0     C60726   7.572   3.323   4.299 -0.1968 -0.3413  0.2090
  441MOL0     C60727   7.625   3.314   4.171 -0.9188 -0.3890 -0.1072
  441MOL0     O60728   7.742   3.373   4.136  0.4069 -0.6404  0.1946
  441MOL0     C60729   7.818   3.442   4.237 -0.1723 -0.4035  0.2057
  441MOL0     C60730   7.938   3.499   4.172  0.9131 -0.0752 -0.5755
  441MOL0     C60731   8.019   3.401   4.088  0.4336 -0.0140 -0.7205
  441MOL0     C60732   8.103   3.463   3.981  0.5491 -0.2661  0.2693
  441MOL0     C60733   8.169   3.354   3.899 -0.1969 -0.7746  0.4607
  441MOL0     C60734   8.265   3.252   3.980  0.2379 -0.3030 -0.2499
  441MOL0     C60735   8.385   3.320   4.058  0.4457  0.2892  0.2075
  441MOL0     C60736   8.458   3.223   4.147 -0.2425  0.6921  0.2424
  441MOL0     N60737   8.540   3.129   4.068  0.7960  0.2774  0.3359
  441MOL0     C60738   8.502   2.992   4.036 -0.1933  0.3930  0.5627
  441MOL0     C60739   8.581   2.960   3.939  0.4753  0.2979 -0.2244
  441MOL0     C60740   8.575   2.821   3.875 -0.7141 -0.1429 -0.3056
  441MOL0     C60741   8.434   2.780   3.837 -0.2325 -0.2724 -0.1121
  441MOL0     C60742   8.431   2.644   3.773 -0.1889  0.5513  1.1741
  441MOL0     C60743   8.482   2.527   3.865 -0.1868 -0.4268  0.0346
  441MOL0     O60744   8.457   2.561   4.002  0.1175  0.2931 -0.4288
  441MOL0     C60745   8.335   2.543   4.057 -0.3977  0.1663 -0.5873
  441MOL0     C60746   8.331   2.569   4.196  0.0640 -0.0935  0.2572
  441MOL0     C60747   8.221   2.539   4.278  0.1786 -0.4835  0.0250
  441MOL0     C60748   8.243   2.586   4.420  0.4274  0.1244 -0.7057
  441MOL0     C60749   8.105   2.485   4.227 -1.2470 -0.2393 -0.2290
  441MOL0     C60750   7.981   2.464   4.301 -0.2716 -0.9867  0.2252
  441MOL0     O60751   7.975   2.491   4.431 -0.0512  0.7709 -0.0981
  441MOL0     C60752   7.854   2.474   4.504  0.2160  0.0313  0.3438
  441MOL0     C60753   7.720   2.501   4.460 -0.1413 -0.3399  0.4444
  441MOL0     C60754   7.616   2.467   4.538 -0.0313 -0.4582 -0.2756
  441MOL0     C60755   7.626   2.429   4.669  0.6612  0.0850 -0.7222
  441MOL0     O60756   7.515   2.445   4.750 -0.3269 -0.0157 -0.0058
  441MOL0     C60757   7.474   2.325   4.821 -0.5998  0.3419 -0.8410
  441MOL0     C60758   7.388   2.219   4.742  0.3786  0.0808 -0.3105
  441MOL0     C60759   7.269   2.276   4.679 -0.1964 -0.2379 -0.7179
  441MOL0     C60760   7.161   2.315   4.779  0.2604 -0.4448 -1.0613
  441MOL0     C60761   7.035   2.373   4.714 -0.2957 -1.1167 -0.2134
  441MOL0     C60762   6.932   2.407   4.824 -0.1000 -0.5101 -0.3475
  441MOL0     C60763   6.787   2.428   4.771 -0.1172  0.3471 -0.2122
  441MOL0     C60764   6.758   2.545   4.676  0.2927 -0.4194 -1.2057
  441MOL0    Cl60765   6.788   2.512   4.512 -0.0109  0.1744  0.1723
  441MOL0     C60766   7.752   2.394   4.720 -0.7691  0.1125 -0.1936
  441MOL0     C60767   7.862   2.420   4.634 -1.2800 -0.2175  0.4749
  441MOL0     O60768   7.887   2.418   4.247  0.5480 -0.2155 -0.2676
  441MOL0     C60769   8.115   2.463   4.084  0.0663 -0.0018 -0.7893
  441MOL0     C60770   8.226   2.477   4.003  0.0857 -1.3103  0.2287
  441MOL0     N60771   8.667   3.064   3.911  0.1173 -0.1189 -0.6015
  441MOL0     N60772   8.648   3.163   3.989 -0.2507 -0.2848 -0.1183
  441MOL0     C60773   7.565   3.224   4.081  0.3790  0.2166 -0.0805
  441MOL0     C60774   7.450   3.152   4.117  0.6948 -0.0421 -0.2359
  441MOL0     C60775   7.067   3.014   4.370  0.2138 -0.2992  0.0121
  441MOL0     C60776   7.023   2.938   4.258  0.4179  0.0003  0.6945
  441MOL0     C60777   6.904   2.869   4.249 -0.1562 -0.2934  0.5165
  441MOL0     C60778   6.812   2.890   4.351 -0.2774 -0.3382  0.1183
  441MOL0     O60779   6.680   2.853   4.349 -1.0998  0.0725  0.1015
  441MOL0     C60780   6.612   2.812   4.221 -0.6419  0.2328  0.6670
  441MOL0     C60781   6.604   2.657   4.221  1.4695 -0.1221  0.0845
  441MOL0     C60782   6.529   2.597   4.332  1.0991  0.5826 -0.3876
  441MOL0     C60783   6.374   2.602   4.300  0.2523  0.2662  0.4110
  441MOL0     C60784   6.302   2.535   4.405  1.0359 -0.2216 -0.1624
  441MOL0     C60785   6.240   2.478   4.490 -0.0712 -0.0072 -0.3031
  441MOL0     C60786   6.849   2.971   4.460 -0.0006 -0.1591 -1.0465
  441MOL0     C60787   6.974   3.025   4.479 -0.6063 -0.5881  1.5308
  441MOL0     C60788   6.997   3.112   4.602 -0.1614  0.1187  0.3552
  441MOL0     H60789   7.413   3.256   4.434  2.2212 -2.2035  0.7624
  441MOL0     H60790   7.621   3.376   4.380 -0.7181  0.6929 -0.1418
  441MOL0     H60791   7.836   3.370   4.318 -0.3930  0.1853  0.7839
  441MOL0     H60792   7.761   3.527   4.276 -0.9803 -0.4661 -0.7848
  441MOL0     H60793   7.894   3.579   4.111 -1.5468  0.7549  2.0920
  441MOL0     H60794   8.002   3.547   4.247  1.0442 -0.3699 -0.5003
  441MOL0     H60795   8.090   3.352   4.156  0.0183 -1.0860 -1.0300
  441MOL0     H60796   7.960   3.327   4.032 -1.1174  0.7770 -0.1879
  441MOL0     H60797   8.036   3.523   3.919  0.7774  0.4316  0.6894
  441MOL0     H60798   8.175   3.534   4.022  0.7197 -1.6172  2.4253
  441MOL0     H60799   8.228   3.389   3.814  2.6648 -2.0435  1.8132
  441MOL0     H60800   8.085   3.299   3.855 -1.0007  0.3228  0.5677
  441MOL0     H60801   8.220   3.191   4.058  2.5422 -1.7848  0.0262
  441MOL0     H60802   8.298   3.185   3.899 -2.8134 -0.1067 -1.8101
  441MOL0     H60803   8.334   3.381   4.134  1.8046 -0.2170  1.5834
  441MOL0     H60804   8.443   3.386   3.993  0.2275 -0.9478 -1.2944
  441MOL0     H60805   8.523   3.273   4.219  0.7209 -0.2696  0.0825
  441MOL0     H60806   8.387   3.167   4.208 -0.6360  0.1000 -0.7262
  441MOL0     H60807   8.414   2.936   4.067  1.7655 -2.7926  0.7861
  441MOL0     H60808   8.624   2.751   3.942 -0.1824  1.4059  0.9872
  441MOL0     H60809   8.625   2.832   3.778 -1.7617  2.5924 -0.6255
  441MOL0     H60810   8.358   2.774   3.916 -0.5901  1.4297 -0.3025
  441MOL0     H60811   8.405   2.853   3.761  5.4036 -1.6584 -4.2026
  441MOL0     H60812   8.324   2.635   3.752  0.0802 -1.3250  0.4108
  441MOL0     H60813   8.487   2.639   3.679  1.2814  2.1668  1.9004
  441MOL0     H60814   8.437   2.437   3.823 -0.8803  0.6227 -1.5457
  441MOL0     H60815   8.587   2.505   3.846 -0.2934 -0.2724 -0.7484
  441MOL0     H60816   8.418   2.612   4.245  0.4229 -2.2100  1.6021
  441MOL0     H60817   8.227   2.499   4.486  0.9250  1.2210  0.9233
  441MOL0     H60818   8.168   2.663   4.439  1.4991  2.2093 -4.2132
  441MOL0     H60819   8.331   2.647   4.440 -0.8942  1.9470 -0.1256
  441MOL0     H60820   7.690   2.526   4.359 -4.3779 -0.2734  1.5582
  441MOL0     H60821   7.517   2.482   4.494 -0.3672  0.4565  0.7415
  441MOL0     H60822   7.562   2.271   4.859 -1.0542  0.5207  0.5169
  441MOL0     H60823   7.436   2.364   4.916  0.0932  3.0483 -1.5875
  441MOL0     H60824   7.452   2.191   4.658  0.4238  1.4923 -0.7684
  441MOL0     H60825   7.371   2.130   4.804  0.0145 -0.7496 -1.5593
  441MOL0     H60826   7.221   2.214   4.603  0.1474 -1.0354 -0.3004
  441MOL0     H60827   7.299   2.368   4.628 -0.0105  0.5612  0.7534
  441MOL0     H60828   7.181   2.385   4.860 -2.7330  0.7122 -1.1699
  441MOL0     H60829   7.130   2.224   4.831  0.8707 -1.4352 -2.3783
  441MOL0     H60830   7.063   2.470   4.671 -0.6226 -0.8821  0.0980
  441MOL0     H60831   6.996   2.312   4.632  1.8693  0.8281 -2.8864
  441MOL0     H60832   6.959   2.502   4.872  0.4896  0.2211 -2.0362
  441MOL0     H60833   6.925   2.329   4.900 -1.0222 -0.8714 -0.7933
  441MOL0     H60834   6.723   2.421   4.859 -0.4620  1.4103 -0.3667
  441MOL0     H60835   6.764   2.341   4.709 -1.8848  0.9423 -0.4255
  441MOL0     H60836   6.814   2.638   4.691 -1.1482  0.0307  2.1540
  441MOL0     H60837   6.654   2.574   4.690  1.2173  4.1647 -2.2957
  441MOL0     H60838   7.760   2.364   4.824 -1.2745  2.2385  0.5132
  441MOL0     H60839   7.957   2.385   4.675 -1.2098 -1.0105 -0.3569
  441MOL0     H60840   8.018   2.427   4.051 -2.2467  0.8731  4.1536
  441MOL0     H60841   8.226   2.443   3.900 -2.9011 -1.6701  0.2334
  441MOL0     H60842   7.606   3.195   3.985 -1.7869 -2.1938 -0.3924
  441MOL0     H60843   7.407   3.078   4.050  0.7095 -1.2265  1.0100
  441MOL0     H60844   7.093   2.932   4.176 -1.3048  2.4768 -1.1076
  441MOL0     H60845   6.876   2.804   4.167 -2.2497 -0.9449  1.6843
  441MOL0     H60846   6.509   2.847   4.209 -0.7120 -0.1978 -0.0826
  441MOL0     H60847   6.658   2.852   4.130 -1.5116 -2.1393 -0.9029
  441MOL0     H60848   6.705   2.615   4.224  2.1289  1.1456 -2.1760
  441MOL0     H60849   6.556   2.629   4.127  0.3178 -1.6826  1.0800
  441MOL0     H60850   6.552   2.491   4.345 -2.2722 -0.1879  0.4227
  441MOL0     H60851   6.537   2.639   4.433 -0.7976 -1.4939  0.7115
  441MOL0     H60852   6.346   2.558   4.203 -0.9079  1.1923  0.3153
  441MOL0     H60853   6.364   2.710   4.293  0.9929  0.4526  1.8830
  441MOL0     H60854   6.179   2.435   4.567  0.9799 -1.7332 -0.3930
  441MOL0     H60855   6.779   2.982   4.542  0.6741  1.8994 -0.6803
  441MOL0     H60856   6.907   3.116   4.663  0.3559  1.4330  1.0782
  441MOL0     H60857   7.074   3.062   4.661 -1.7028 -1.2888  1.2480
  441MOL0     H60858   7.027   3.213   4.571  0.2952  0.0523  0.5692
  442MOL0     O60859   0.379   7.335   4.273  0.6683 -0.1213 -0.3995
  442MOL0     C60860   0.338   7.452   4.262 -0.5766  1.2716  0.5236
  442MOL0     O60861   0.418   7.550   4.215 -0.3850  0.1419  0.0653
  442MOL0     C60862   0.554   7.527   4.189  0.4254 -0.7658 -0.1924
  442MOL0     C60863   0.653   7.555   4.280  0.1674  1.2746  0.4579
  442MOL0     C60864   0.787   7.564   4.237 -0.0109  0.1761  0.5965
  442MOL0     C60865   0.829   7.546   4.101  0.6556  0.4368 -0.5749
  442MOL0     O60866   0.960   7.577   4.063 -0.5631  0.1071 -0.0109
  442MOL0     C60867   0.995   7.535   3.926  0.0039 -0.3304  0.4299
  442MOL0     C60868   1.025   7.390   3.913 -0.6051 -0.1979  0.1926
  442MOL0     C60869   1.152   7.344   3.994 -0.1206  0.5044  0.2176
  442MOL0     C60870   1.282   7.404   3.933  0.7759 -0.9546 -1.0050
  442MOL0     C60871   1.407   7.354   3.991 -0.7260 -0.1483  0.1633
  442MOL0     C60872   1.434   7.209   3.950  0.3680 -0.0991  0.0295
  442MOL0     C60873   1.578   7.174   3.971 -0.3968 -0.5507  0.8204
  442MOL0     C60874   1.636   7.192   4.113  0.4795  0.3417 -0.1950
  442MOL0     N60875   1.764   7.133   4.143 -0.1445 -1.4586  0.5012
  442MOL0     C60876   1.788   7.004   4.181  0.6792 -0.8303 -0.1601
  442MOL0     C60877   1.924   6.996   4.199  0.7769 -0.4818 -0.4571
  442MOL0     C60878   1.992   6.871   4.250 -0.7525 -0.4479  0.0020
  442MOL0     C60879   2.135   6.900   4.306  0.6792 -1.2308 -0.0009
  442MOL0     C60880   2.206   6.776   4.355 -0.2886  0.2669  0.4177
  442MOL0     C60881   2.350   6.808   4.392  0.2493  0.4622  0.0864
  442MOL0     O60882   2.415   6.685   4.407 -0.6179  0.3058 -1.3357
  442MOL0     C60883   2.542   6.675   4.465 -0.7519  0.1302  0.1672
  442MOL0     C60884   2.621   6.789   4.496 -0.4388  0.1335 -0.0143
  442MOL0     C60885   2.746   6.770   4.554 -0.1591 -0.3262  0.5455
  442MOL0     C60886   2.836   6.885   4.571  0.5582 -0.1153 -0.9016
  442MOL0     C60887   2.794   6.638   4.572  0.3228  0.6056 -0.2302
  442MOL0     C60888   2.935   6.608   4.629  0.2732 -0.1837  0.2955
  442MOL0     O60889   2.991   6.700   4.709  0.5845  0.1149 -0.4789
  442MOL0     C60890   3.113   6.662   4.768  0.2588 -0.1676  0.0650
  442MOL0     C60891   3.199   6.764   4.795  0.6282 -0.4663 -0.5207
  442MOL0     C60892   3.317   6.731   4.864  0.0068 -0.4061  0.4208
  442MOL0     C60893   3.356   6.607   4.898 -0.1066  0.1095  0.6711
  442MOL0     O60894   3.471   6.606   4.971  0.2280  0.5916  0.0478
  442MOL0     C60895   3.485   6.523   5.082 -0.6310  0.4461 -0.1571
  442MOL0     C60896   3.620   6.540   5.147 -0.7424  0.7362 -0.9555
  442MOL0     C60897   3.729   6.495   5.055 -0.6054  0.3187  0.8471
  442MOL0     C60898   3.861   6.470   5.125 -0.7930  0.0871  1.8348
  442MOL0     C60899   3.966   6.405   5.029 -0.2352 -0.7293  0.3740
  442MOL0     C60900   4.054   6.508   4.957  0.2160 -0.2845  0.0061
  442MOL0     C60901   4.006   6.604   4.852 -0.7236  0.1199  0.2462
  442MOL0     C60902   4.122   6.693   4.803 -0.4213 -0.6252 -0.4708
  442MOL0    Cl60903   4.160   6.812   4.922 -0.3243 -0.1444  0.6070
  442MOL0     C60904   3.261   6.507   4.882  0.4012 -0.3779  0.3357
  442MOL0     C60905   3.141   6.532   4.819  0.3414  0.1136 -0.7508
  442MOL0     O60906   2.988   6.508   4.579  0.3487 -0.2969 -0.1534
  442MOL0     C60907   2.714   6.521   4.548 -0.5564  0.3272  0.1957
  442MOL0     C60908   2.592   6.545   4.487  0.0159  0.3568  0.0641
  442MOL0     N60909   1.977   7.124   4.187 -0.5307 -0.8938  0.0458
  442MOL0     N60910   1.883   7.209   4.150 -0.1040  0.0545  0.4991
  442MOL0     C60911   0.715   7.521   4.014  0.0719  0.2991  0.4970
  442MOL0     C60912   0.587   7.507   4.053  0.3592 -0.0041 -0.5097
  442MOL0     C60913   0.196   7.486   4.268 -0.2271  0.8502 -0.2918
  442MOL0     C60914   0.156   7.612   4.327 -0.0142 -0.4368  0.2950
  442MOL0     C60915   0.017   7.641   4.345 -0.9813 -0.1346  0.0802
  442MOL0     C60916  -0.080   7.559   4.279  1.1207 -0.0612  0.2199
  442MOL0     O60917  -0.218   7.590   4.273 -0.3958 -0.2841  0.1142
  442MOL0     C60918  -0.269   7.708   4.349  0.1006 -0.4145  0.0656
  442MOL0     C60919  -0.420   7.717   4.333  0.0246 -0.4450 -0.3282
  442MOL0     C60920  -0.462   7.752   4.193 -0.5189 -0.8121  0.3797
  442MOL0     C60921  -0.614   7.780   4.196 -0.4341 -0.1870 -0.1156
  442MOL0     C60922  -0.650   7.823   4.059  0.6379  0.9340 -0.6825
  442MOL0     C60923  -0.703   7.845   3.953 -0.0324 -0.1296  0.1744
  442MOL0     C60924  -0.037   7.439   4.225  0.2217 -0.0466  0.5200
  442MOL0     C60925   0.096   7.399   4.217 -1.1361  0.6152 -0.6475
  442MOL0     C60926   0.122   7.264   4.156 -0.4575 -0.3751 -0.3150
  442MOL0     H60927   0.635   7.584   4.383 -0.5683  2.9232 -0.0988
  442MOL0     H60928   0.873   7.582   4.301 -0.8692  0.4841  1.7014
  442MOL0     H60929   1.082   7.592   3.893 -0.7952 -0.4265 -2.0506
  442MOL0     H60930   0.921   7.564   3.850 -0.1179 -1.5645  0.0597
  442MOL0     H60931   0.935   7.336   3.946  1.1041 -0.8383  4.4153
  442MOL0     H60932   1.053   7.354   3.813 -0.8502  1.1491 -0.3896
  442MOL0     H60933   1.144   7.377   4.098 -2.2689 -0.0213  0.2606
  442MOL0     H60934   1.138   7.236   3.991 -2.4061  0.7453  0.5952
  442MOL0     H60935   1.288   7.403   3.823 -1.5577  2.7754 -1.3616
  442MOL0     H60936   1.282   7.511   3.958  2.1877 -0.6140 -2.2773
  442MOL0     H60937   1.409   7.357   4.100  3.4511 -1.1551  0.2750
  442MOL0     H60938   1.482   7.428   3.962 -0.8031  0.2740  1.0203
  442MOL0     H60939   1.366   7.152   4.013 -1.0903 -1.3007 -2.4614
  442MOL0     H60940   1.409   7.198   3.844  1.7592 -0.3965 -0.2849
  442MOL0     H60941   1.641   7.235   3.906 -2.6581  3.5955  2.1291
  442MOL0     H60942   1.588   7.071   3.938 -0.4533  0.5265 -3.0516
  442MOL0     H60943   1.633   7.300   4.128 -1.6884  0.0310  2.1655
  442MOL0     H60944   1.562   7.150   4.181 -0.3112 -3.2432 -2.9081
  442MOL0     H60945   1.720   6.920   4.192 -1.4119  0.7977 -0.0424
  442MOL0     H60946   2.014   6.817   4.157  1.7644 -1.1685  0.9522
  442MOL0     H60947   1.921   6.819   4.314 -0.8329 -0.4007 -0.0472
  442MOL0     H60948   2.182   6.958   4.226 -0.8611 -0.5424 -0.4506
  442MOL0     H60949   2.125   6.953   4.401  1.5105  1.4462 -1.3182
  442MOL0     H60950   2.154   6.744   4.446  2.4136  0.5310  2.1482
  442MOL0     H60951   2.211   6.692   4.284  1.2919  2.0716 -1.7449
  442MOL0     H60952   2.400   6.863   4.312 -0.6735  3.6127  1.5251
  442MOL0     H60953   2.345   6.873   4.479 -5.0910  2.2425 -1.1887
  442MOL0     H60954   2.583   6.889   4.476  0.0021  0.2492 -0.2845
  442MOL0     H60955   2.837   6.913   4.677 -1.3517  3.2645 -1.6620
  442MOL0     H60956   2.808   6.970   4.509 -0.9258  0.1864  0.1271
  442MOL0     H60957   2.931   6.849   4.529 -0.1756 -1.4014 -1.5386
  442MOL0     H60958   3.171   6.868   4.781  1.2793 -0.3116 -0.7148
  442MOL0     H60959   3.385   6.814   4.876 -0.0778  0.2116 -2.4957
  442MOL0     H60960   3.409   6.535   5.160 -0.3406  1.3970 -0.0066
  442MOL0     H60961   3.476   6.417   5.055 -0.7804 -0.1454  2.0117
  442MOL0     H60962   3.629   6.646   5.177  2.5321 -0.4067  3.1588
  442MOL0     H60963   3.621   6.480   5.238  0.3076 -1.0745 -2.1174
  442MOL0     H60964   3.738   6.577   4.984 -1.5209  0.6695  1.1232
  442MOL0     H60965   3.708   6.413   4.986  2.6601 -0.3928  0.5321
  442MOL0     H60966   3.853   6.402   5.211  0.6535 -0.2668  1.7113
  442MOL0     H60967   3.901   6.567   5.156  3.5950 -0.5641 -0.9391
  442MOL0     H60968   4.038   6.349   5.088  0.1799  0.5928  1.1697
  442MOL0     H60969   3.916   6.345   4.953 -0.2813  0.9223 -0.9749
  442MOL0     H60970   4.133   6.451   4.907  0.5772 -0.1191  0.3813
  442MOL0     H60971   4.094   6.577   5.032 -2.3565  1.2731  0.0415
  442MOL0     H60972   3.930   6.670   4.896 -0.6168  0.4075  0.0032
  442MOL0     H60973   3.969   6.573   4.754  0.8781  1.5759 -0.8989
  442MOL0     H60974   4.089   6.750   4.716  0.3533  1.1079  0.3277
  442MOL0     H60975   4.205   6.632   4.765 -1.5511 -0.2676 -3.8036
  442MOL0     H60976   3.272   6.404   4.915  0.7935  0.2823  2.3791
  442MOL0     H60977   3.072   6.449   4.806  1.8702 -2.2230  3.8370
  442MOL0     H60978   2.754   6.424   4.577  0.1134  1.0150  1.6364
  442MOL0     H60979   2.519   6.466   4.474  0.3269  0.4136 -2.7457
  442MOL0     H60980   0.732   7.501   3.908 -3.7741 -1.6498  0.0621
  442MOL0     H60981   0.509   7.504   3.977 -0.6916  2.2970  0.4157
  442MOL0     H60982   0.226   7.678   4.377  1.9818 -3.5946  2.0133
  442MOL0     H60983  -0.013   7.730   4.398  2.3029  0.9207  0.3901
  442MOL0     H60984  -0.242   7.692   4.453 -4.0557 -2.8947  1.0265
  442MOL0     H60985  -0.217   7.798   4.315  3.6276 -2.6879 -1.0038
  442MOL0     H60986  -0.456   7.805   4.388  1.5768  1.5727 -2.3378
  442MOL0     H60987  -0.466   7.625   4.369  1.1426 -0.8063  0.2323
  442MOL0     H60988  -0.403   7.838   4.158  0.4364 -0.7690  1.9996
  442MOL0     H60989  -0.453   7.673   4.118 -0.4456  0.4187 -0.9661
  442MOL0     H60990  -0.645   7.859   4.264 -2.6823 -0.8777 -0.2525
  442MOL0     H60991  -0.673   7.691   4.221 -0.2827  0.1932  1.7291
  442MOL0     H60992  -0.741   7.855   3.853 -0.5604 -3.1207 -0.0240
  442MOL0     H60993  -0.115   7.374   4.188 -0.2452  1.0253 -0.4644
  442MOL0     H60994   0.172   7.279   4.060 -1.7250 -1.9114 -1.2654
  442MOL0     H60995   0.180   7.202   4.225  2.0309  2.1400  0.0440
  442MOL0     H60996   0.033   7.202   4.140  0.7503 -2.4148  0.4988
  443MOL0     O60997   5.814  10.991  10.745 -0.1364  0.4044 -0.2154
  443MOL0     C60998   5.868  10.926  10.662  0.7651  0.4584  0.8903
  443MOL0     O60999   5.800  10.838  10.586  1.2399 -0.5155  0.0763
  443MOL0     C61000   5.659  10.847  10.590 -0.3738  0.9512  0.3355
  443MOL0     C61001   5.592  10.913  10.489 -1.1515 -0.4545 -0.2124
  443MOL0     C61002   5.454  10.941  10.492  0.0074 -0.2568 -0.4314
  443MOL0     C61003   5.380  10.905  10.605 -0.1761  0.5140 -0.5173
  443MOL0     O61004   5.251  10.938  10.633  0.2325  0.2924 -0.2861
  443MOL0     C61005   5.196  11.057  10.573 -0.3494 -0.0205 -0.6278
  443MOL0     C61006   5.055  11.031  10.515 -0.1838 -0.3585  0.0661
  443MOL0     C61007   5.019  11.141  10.421  0.2601  0.5457 -0.0067
  443MOL0     C61008   5.083  11.143  10.280  0.4383 -0.2880  0.1684
  443MOL0     C61009   5.020  11.253  10.197  0.1966  0.6462 -0.1574
  443MOL0     C61010   5.079  11.287  10.067  0.6185  0.1363  0.2962
  443MOL0     C61011   5.006  11.410  10.011  0.4916  0.0700 -0.2298
  443MOL0     C61012   5.054  11.456   9.878  0.4164 -0.3022  0.2838
  443MOL0     N61013   5.171  11.542   9.889 -0.0753 -0.6349 -0.0781
  443MOL0     C61014   5.297  11.496   9.921  0.6018  1.1225 -0.2347
  443MOL0     C61015   5.348  11.602   9.981 -0.3756  0.3908  0.3575
  443MOL0     C61016   5.474  11.586  10.063 -0.0664  0.3080  0.0396
  443MOL0     C61017   5.431  11.525  10.203  0.5348  0.3698  0.3774
  443MOL0     C61018   5.557  11.499  10.286 -1.2189 -0.0763 -0.0986
  443MOL0     C61019   5.523  11.404  10.402  0.1054 -0.8640 -0.0851
  443MOL0     O61020   5.475  11.280  10.351  0.4550 -0.2115  0.5614
  443MOL0     C61021   5.561  11.201  10.280 -0.3034  0.1644 -0.9328
  443MOL0     C61022   5.701  11.208  10.291 -1.0328 -0.0721 -0.4063
  443MOL0     C61023   5.786  11.118  10.221  0.2319 -0.2348 -0.0921
  443MOL0     C61024   5.930  11.130  10.242  0.9238 -0.0428 -0.0748
  443MOL0     C61025   5.719  11.016  10.141  0.8069 -1.3342 -0.0199
  443MOL0     C61026   5.799  10.928  10.062 -0.2837  0.2394  0.1232
  443MOL0     O61027   5.933  10.917  10.080  0.6241 -0.1668  0.4576
  443MOL0     C61028   5.997  10.824  10.010  0.2729  0.8651  0.0482
  443MOL0     C61029   5.978  10.691  10.044 -0.0228 -0.2016  0.6959
  443MOL0     C61030   6.023  10.582   9.977 -0.3766 -0.0204 -0.2273
  443MOL0     C61031   6.087  10.603   9.858 -0.7122 -0.0119  0.2110
  443MOL0     O61032   6.143  10.496   9.792 -0.1061  0.0147 -0.2198
  443MOL0     C61033   6.088  10.365   9.809  0.2910 -0.7000  0.1130
  443MOL0     C61034   5.953  10.359   9.741  0.6628  0.3472 -0.6172
  443MOL0     C61035   5.878  10.223   9.743  0.3729 -0.0603 -0.4849
  443MOL0     C61036   5.828  10.179   9.888  0.2830 -0.2630  0.3750
  443MOL0     C61037   5.726  10.062   9.890 -0.2879  0.4970 -0.2004
  443MOL0     C61038   5.576  10.091   9.875 -0.5915 -0.1612 -0.5082
  443MOL0     C61039   5.518  10.085   9.728  0.7374  0.2484  0.1903
  443MOL0     C61040   5.359  10.096   9.734 -1.0967  0.1671 -0.5024
  443MOL0    Cl61041   5.275   9.961   9.815  0.0524  0.2403  0.1796
  443MOL0     C61042   6.108  10.735   9.808 -0.0084 -0.3687  0.3992
  443MOL0     C61043   6.062  10.842   9.887 -0.0411 -0.2429 -0.2548
  443MOL0     O61044   5.737  10.886   9.961 -0.1534 -0.5299  0.2066
  443MOL0     C61045   5.583  11.021  10.131  0.6872 -0.7257  0.3296
  443MOL0     C61046   5.502  11.102  10.196  0.0665 -0.8754  0.5469
  443MOL0     N61047   5.267  11.716   9.983 -0.2435  0.7166 -0.1159
  443MOL0     N61048   5.159  11.676   9.919  0.6484 -0.4492 -0.3481
  443MOL0     C61049   5.448  10.830  10.699 -0.8452  0.0944  0.1762
  443MOL0     C61050   5.583  10.798  10.698  0.2264 -0.3219  0.8007
  443MOL0     C61051   6.008  10.926  10.632  0.6303  0.3139 -0.1891
  443MOL0     C61052   6.057  10.858  10.520 -0.0790  0.9499 -0.3623
  443MOL0     C61053   6.188  10.850  10.482  0.2644  0.1481  0.5681
  443MOL0     C61054   6.278  10.903  10.566 -0.6725  0.2676 -0.3068
  443MOL0     O61055   6.409  10.886  10.525 -0.4851 -0.5178 -0.0248
  443MOL0     C61056   6.515  10.928  10.614 -0.0408 -0.0346 -0.2263
  443MOL0     C61057   6.642  10.886  10.542 -0.2445  0.1865 -0.4381
  443MOL0     C61058   6.654  10.929  10.399 -0.2188  0.3444 -0.1034
  443MOL0     C61059   6.793  10.896  10.330 -1.0801  0.1124  0.0412
  443MOL0     C61060   6.808  10.747  10.321  0.9228 -0.1323 -0.3143
  443MOL0     C61061   6.803  10.628  10.294 -0.1716 -0.6685 -0.0199
  443MOL0     C61062   6.244  10.973  10.681  0.6618 -0.9756 -0.4866
  443MOL0     C61063   6.110  10.991  10.714 -0.2056  0.3712 -0.0834
  443MOL0     C61064   6.090  11.071  10.841  0.1591  0.5947  1.3863
  443MOL0     H61065   5.648  10.958  10.407 -1.7748 -2.5668 -1.8829
  443MOL0     H61066   5.411  10.989  10.404 -2.4282 -2.1844 -0.4161
  443MOL0     H61067   5.254  11.089  10.486  2.6379  0.4161  1.3876
  443MOL0     H61068   5.191  11.142  10.642  1.7453 -1.4451  1.4210
  443MOL0     H61069   5.051  10.942  10.450 -1.5041 -0.5677  0.4141
  443MOL0     H61070   4.987  11.004  10.596 -0.1818 -3.2572 -0.7591
  443MOL0     H61071   4.911  11.134  10.409  0.4432 -2.7273 -0.5963
  443MOL0     H61072   5.037  11.230  10.483  2.6679  0.0607  0.1274
  443MOL0     H61073   5.189  11.157  10.300  0.6209 -2.6229  1.2708
  443MOL0     H61074   5.063  11.048  10.230  0.2540  1.4191 -3.2318
  443MOL0     H61075   5.000  11.343  10.256 -1.1376  0.7254 -0.7004
  443MOL0     H61076   4.917  11.224  10.176  1.1278 -1.2350 -2.5944
  443MOL0     H61077   5.184  11.308  10.091  1.5341 -3.5760  0.1121
  443MOL0     H61078   5.082  11.199  10.002  1.1305 -2.3620  3.4699
  443MOL0     H61079   5.032  11.487  10.085  1.0088  0.0857 -0.4277
  443MOL0     H61080   4.900  11.385  10.005  0.3681 -0.3337  2.5263
  443MOL0     H61081   5.082  11.373   9.812  2.2217  0.2755  0.2780
  443MOL0     H61082   4.973  11.508   9.825  0.3023 -0.8676 -0.1164
  443MOL0     H61083   5.348  11.400   9.923  1.5058  1.5117 -1.8812
  443MOL0     H61084   5.521  11.683  10.080 -1.1114  0.8909 -0.3292
  443MOL0     H61085   5.541  11.524  10.001 -0.3782 -0.1208  0.1257
  443MOL0     H61086   5.369  11.593  10.261  0.8178  0.6572  0.3460
  443MOL0     H61087   5.372  11.433  10.190 -0.0856  0.8738 -0.4877
  443MOL0     H61088   5.629  11.449  10.220 -3.6978 -2.6679 -1.0738
  443MOL0     H61089   5.599  11.589  10.331  0.7428  0.4223 -2.7077
  443MOL0     H61090   5.608  11.393  10.471 -0.9810  2.2815  1.9581
  443MOL0     H61091   5.442  11.451  10.458  0.1750  1.1192 -1.5485
  443MOL0     H61092   5.753  11.285  10.347 -0.5646 -0.2468 -0.5984
  443MOL0     H61093   5.963  11.214  10.304  2.4680 -0.1841 -0.6445
  443MOL0     H61094   5.972  11.149  10.143  0.4656  1.6194  0.0281
  443MOL0     H61095   5.968  11.039  10.290 -0.6064  0.1485  1.6025
  443MOL0     H61096   5.928  10.688  10.141 -0.1523  2.0379  0.7553
  443MOL0     H61097   6.003  10.482  10.014 -0.4214 -0.3373 -1.0811
  443MOL0     H61098   6.143  10.289   9.752  1.4692 -0.0023  0.2904
  443MOL0     H61099   6.083  10.332   9.913  0.9086 -1.5296 -0.1070
  443MOL0     H61100   5.896  10.444   9.779  3.4922  1.4726  1.5143
  443MOL0     H61101   5.963  10.382   9.635  0.7950  1.5983 -0.3467
  443MOL0     H61102   5.940  10.147   9.694 -0.6786 -0.0966 -1.8194
  443MOL0     H61103   5.791  10.236   9.678  0.4272  0.9899 -0.3578
  443MOL0     H61104   5.776  10.269   9.923  2.3014  1.0938  0.0605
  443MOL0     H61105   5.909  10.157   9.958 -0.8578 -0.2055  1.7667
  443MOL0     H61106   5.755   9.992   9.811 -0.3401  0.6790 -0.3806
  443MOL0     H61107   5.738  10.010   9.985 -1.6922  0.9760  0.2686
  443MOL0     H61108   5.552  10.185   9.925 -0.0241 -1.1349  1.7490
  443MOL0     H61109   5.519  10.017   9.933  0.0642  0.4075  0.8881
  443MOL0     H61110   5.549   9.989   9.687 -1.2777 -1.8287  3.1235
  443MOL0     H61111   5.555  10.170   9.671 -0.7435  1.2719  0.6873
  443MOL0     H61112   5.317  10.099   9.633 -3.5886 -1.5110  0.3834
  443MOL0     H61113   5.344  10.184   9.798 -0.3568  0.8909 -1.2992
  443MOL0     H61114   6.159  10.756   9.715 -1.4728  0.8128 -0.1739
  443MOL0     H61115   6.080  10.943   9.853  2.5502 -0.0508  1.4018
  443MOL0     H61116   5.537  10.953  10.059 -1.4552 -1.2420  2.0775
  443MOL0     H61117   5.397  11.103  10.168  0.0702  1.3530  0.4761
  443MOL0     H61118   5.385  10.803  10.783 -2.1867 -1.1759 -1.1833
  443MOL0     H61119   5.639  10.749  10.776 -0.5733 -0.2962  1.4027
  443MOL0     H61120   5.983  10.809  10.458  1.2516 -0.4697 -0.9058
  443MOL0     H61121   6.213  10.800  10.389  0.4991  0.4205  0.4841
  443MOL0     H61122   6.511  11.037  10.622 -1.4358  0.0640 -1.8585
  443MOL0     H61123   6.502  10.880  10.711  2.4726 -2.3145 -0.8863
  443MOL0     H61124   6.638  10.777  10.548  1.3459  0.1478  0.5111
  443MOL0     H61125   6.733  10.920  10.592 -0.4688  3.6036 -2.0431
  443MOL0     H61126   6.580  10.870  10.345 -1.5864  1.7361  0.1918
  443MOL0     H61127   6.634  11.036  10.391 -0.1352  0.2096 -3.2053
  443MOL0     H61128   6.882  10.949  10.365 -0.7493  0.1263 -0.8093
  443MOL0     H61129   6.788  10.920  10.224  1.2279 -0.4370 -0.2470
  443MOL0     H61130   6.792  10.523  10.278  0.9372 -0.3186 -4.5755
  443MOL0     H61131   6.319  11.017  10.746 -1.4831  0.0659  1.3986
  443MOL0     H61132   6.063  11.008  10.926 -4.3995 -3.0809 -2.2268
  443MOL0     H61133   6.168  11.145  10.862 -1.1760  3.2624 -2.0543
  443MOL0     H61134   6.007  11.136  10.813 -1.1817 -1.2514  0.9033
  444MOL0     O61135   5.864   8.887   7.201 -0.5865  0.5595 -0.1212
  444MOL0     C61136   5.853   8.987   7.262 -0.2925 -1.5507 -0.3402
  444MOL0     O61137   5.960   9.050   7.308  1.1391  0.3845 -1.1916
  444MOL0     C61138   6.079   8.998   7.331 -0.7474  0.5307 -0.7845
  444MOL0     C61139   6.181   9.086   7.366  0.1646 -0.2692  0.0583
  444MOL0     C61140   6.305   9.045   7.410 -0.9814 -0.6784  0.1005
  444MOL0     C61141   6.334   8.909   7.424  0.2362 -0.3474 -0.4329
  444MOL0     O61142   6.452   8.868   7.490 -0.3065  0.2926  0.6004
  444MOL0     C61143   6.537   8.946   7.570 -0.2204  0.2014  0.0716
  444MOL0     C61144   6.468   8.973   7.703  0.0367 -0.8108  1.5078
  444MOL0     C61145   6.418   8.854   7.770  0.3766  0.1572 -1.0118
  444MOL0     C61146   6.403   8.879   7.928  0.1757  0.0137  0.1284
  444MOL0     C61147   6.372   8.744   8.003  0.4476 -0.1934 -0.4461
  444MOL0     C61148   6.344   8.765   8.152  0.4588 -0.3282  0.1593
  444MOL0     C61149   6.357   8.643   8.245 -0.3450 -1.0763  0.6681
  444MOL0     C61150   6.307   8.673   8.390 -0.6226  0.7353 -0.0286
  444MOL0     N61151   6.412   8.737   8.470 -0.6641  0.3788 -0.4412
  444MOL0     C61152   6.536   8.672   8.493 -0.3046  0.1417 -0.3385
  444MOL0     C61153   6.598   8.750   8.583 -1.0114  0.3299  0.4558
  444MOL0     C61154   6.745   8.716   8.632 -0.4008 -0.8162  0.6283
  444MOL0     C61155   6.778   8.566   8.649  0.4934 -0.9135  0.0740
  444MOL0     C61156   6.918   8.544   8.715  0.4961 -0.3167  0.0394
  444MOL0     C61157   7.035   8.595   8.628 -0.3552 -0.1752 -0.5793
  444MOL0     O61158   7.152   8.525   8.660 -0.5211 -0.1179 -0.4482
  444MOL0     C61159   7.237   8.579   8.756  0.4870  0.0263 -0.2931
  444MOL0     C61160   7.324   8.679   8.714 -0.3555  0.1813 -0.2101
  444MOL0     C61161   7.416   8.735   8.805 -0.2422  0.4225  0.6100
  444MOL0     C61162   7.508   8.842   8.761  1.1041 -0.1651 -0.4260
  444MOL0     C61163   7.403   8.703   8.944 -0.2471  0.5599 -0.4329
  444MOL0     C61164   7.473   8.772   9.049  0.0676  0.2100  0.0960
  444MOL0     O61165   7.493   8.697   9.158 -0.4766  0.5685  0.2619
  444MOL0     C61166   7.570   8.741   9.263  0.1036  0.1800  0.0831
  444MOL0     C61167   7.513   8.754   9.392 -0.4987 -0.2167 -0.2358
  444MOL0     C61168   7.595   8.757   9.513 -0.0337 -0.2211 -0.8130
  444MOL0     C61169   7.731   8.780   9.497 -1.4428  0.7691 -0.2768
  444MOL0     O61170   7.822   8.801   9.602  0.4267 -0.2413  0.2011
  444MOL0     C61171   7.773   8.834   9.737 -0.2153 -0.2627 -0.8434
  444MOL0     C61172   7.890   8.893   9.812 -0.1115  0.2309 -0.0009
  444MOL0     C61173   7.862   8.952   9.940  0.0138 -0.5807 -1.0320
  444MOL0     C61174   7.774   9.081   9.932  0.2333  0.1837  0.0437
  444MOL0     C61175   7.697   9.086  10.067  0.0513 -0.4915  0.1633
  444MOL0     C61176   7.666   9.229  10.123  0.1788  1.0207  0.0596
  444MOL0     C61177   7.600   9.325  10.023 -0.4725 -1.1176 -0.9714
  444MOL0     C61178   7.454   9.308   9.979 -0.1409  0.3705  0.6281
  444MOL0    Cl61179   7.450   9.165   9.854 -0.3033 -0.1790  0.1302
  444MOL0     C61180   7.784   8.772   9.368 -0.4858 -0.1073 -0.1329
  444MOL0     C61181   7.702   8.747   9.255  0.5755 -0.3963 -0.0360
  444MOL0     O61182   7.497   8.888   9.043  0.3614  0.5230  0.2824
  444MOL0     C61183   7.325   8.592   8.978 -0.0194  1.4427  0.8894
  444MOL0     C61184   7.238   8.534   8.881  0.4276  0.0401 -0.4433
  444MOL0     N61185   6.531   8.870   8.601  0.2789  0.2002 -0.3476
  444MOL0     N61186   6.421   8.862   8.525 -0.5576  0.6068 -0.4672
  444MOL0     C61187   6.240   8.814   7.384  0.0569 -0.2330  0.0833
  444MOL0     C61188   6.111   8.858   7.339 -0.1629  0.7675  0.0472
  444MOL0     C61189   5.727   9.063   7.269 -0.2421  0.0944 -0.0496
  444MOL0     C61190   5.645   9.043   7.152 -0.2269  0.2166 -0.4851
  444MOL0     C61191   5.516   9.105   7.140 -0.3052 -0.0536 -0.0329
  444MOL0     C61192   5.477   9.189   7.250 -0.2421  0.9593  0.4576
  444MOL0     O61193   5.364   9.265   7.258 -0.0635 -0.8199  0.6845
  444MOL0     C61194   5.267   9.238   7.157 -0.0492  1.4190  0.0736
  444MOL0     C61195   5.131   9.306   7.195 -1.0216  0.1853  0.1533
  444MOL0     C61196   5.036   9.328   7.079  0.0000 -0.0443  0.4225
  444MOL0     C61197   4.899   9.373   7.125  0.2605 -0.7831 -1.3574
  444MOL0     C61198   4.801   9.376   7.022 -0.3198 -0.0529 -0.3737
  444MOL0     C61199   4.706   9.385   6.951  0.6934  0.3217  0.6656
  444MOL0     C61200   5.561   9.211   7.356  0.4154 -0.5490 -0.1612
  444MOL0     C61201   5.680   9.146   7.372 -0.1341  0.1705  0.1956
  444MOL0     C61202   5.764   9.162   7.497 -0.6329 -0.0230  0.6621
  444MOL0     H61203   6.167   9.192   7.344 -2.6245 -0.6046 -0.1585
  444MOL0     H61204   6.374   9.121   7.445 -0.4624 -1.7826  1.5852
  444MOL0     H61205   6.565   9.040   7.520 -0.9966 -0.4022 -1.5716
  444MOL0     H61206   6.629   8.889   7.583 -0.5898 -0.3162  0.4359
  444MOL0     H61207   6.539   9.026   7.767  0.9252 -1.1113  0.7860
  444MOL0     H61208   6.379   9.030   7.677 -1.1953 -2.2472  2.3442
  444MOL0     H61209   6.319   8.835   7.727 -0.7565  0.8146  1.1231
  444MOL0     H61210   6.489   8.773   7.750  0.4125  0.7083 -3.3836
  444MOL0     H61211   6.493   8.925   7.970  1.7445 -1.5511 -1.3385
  444MOL0     H61212   6.320   8.949   7.946  0.8874  1.3189 -1.3753
  444MOL0     H61213   6.466   8.688   8.009 -0.3202 -1.4365  0.7515
  444MOL0     H61214   6.307   8.679   7.944 -1.0961 -1.2514  2.2378
  444MOL0     H61215   6.403   8.845   8.198 -0.5773 -0.0270  1.0342
  444MOL0     H61216   6.240   8.797   8.169  1.3390  2.8158  0.3644
  444MOL0     H61217   6.457   8.599   8.246  0.0120 -0.3733 -0.8015
  444MOL0     H61218   6.304   8.564   8.190 -1.0415 -1.4617  1.8640
  444MOL0     H61219   6.216   8.733   8.391 -1.6204 -0.7211  0.3156
  444MOL0     H61220   6.292   8.575   8.436 -0.9597  0.6094 -0.3992
  444MOL0     H61221   6.566   8.577   8.449 -1.3979  1.2440 -3.7839
  444MOL0     H61222   6.760   8.772   8.725 -0.7106  0.4341 -0.0574
  444MOL0     H61223   6.810   8.754   8.554 -0.8098 -1.9891 -0.3151
  444MOL0     H61224   6.700   8.542   8.722  3.3590 -2.9579  2.7162
  444MOL0     H61225   6.765   8.513   8.554 -1.7766 -1.5428  0.6672
  444MOL0     H61226   6.919   8.603   8.807 -1.7180 -1.3693  0.8192
  444MOL0     H61227   6.917   8.436   8.732 -0.5381 -0.4012 -0.4776
  444MOL0     H61228   7.026   8.599   8.519  2.4005  0.3168 -0.8837
  444MOL0     H61229   7.047   8.701   8.653 -1.2219 -0.4371  1.0903
  444MOL0     H61230   7.318   8.721   8.615 -1.1434 -1.1604 -0.7620
  444MOL0     H61231   7.602   8.821   8.812  1.0056 -1.8598 -0.8794
  444MOL0     H61232   7.464   8.940   8.780 -0.3768 -1.1187  1.4622
  444MOL0     H61233   7.524   8.840   8.653 -0.6043  2.6345 -0.8431
  444MOL0     H61234   7.408   8.729   9.392 -0.7570  0.3895 -3.4209
  444MOL0     H61235   7.545   8.751   9.609 -2.8873  1.2394 -2.0972
  444MOL0     H61236   7.689   8.903   9.738 -1.2842 -1.4425  2.3895
  444MOL0     H61237   7.747   8.737   9.781  4.9366 -0.9445  1.4033
  444MOL0     H61238   7.971   8.820   9.819 -0.4020 -0.0863  0.0592
  444MOL0     H61239   7.936   8.973   9.753  0.9396  0.8930  1.6525
  444MOL0     H61240   7.957   8.978   9.988 -0.8814  1.7554 -0.3611
  444MOL0     H61241   7.811   8.877  10.001  1.4040  0.1970  1.2392
  444MOL0     H61242   7.710   9.076   9.844  0.1047  1.6455  0.0210
  444MOL0     H61243   7.839   9.169   9.920 -0.1156  0.6548  1.3636
  444MOL0     H61244   7.603   9.032  10.053  1.3677 -2.3201 -2.5971
  444MOL0     H61245   7.756   9.034  10.144  1.5624  0.5434 -0.2437
  444MOL0     H61246   7.761   9.271  10.158 -0.5538  1.2424  1.8672
  444MOL0     H61247   7.604   9.209  10.211  1.9237  0.2633  1.1674
  444MOL0     H61248   7.663   9.320   9.934  2.7895 -0.8817  1.1469
  444MOL0     H61249   7.602   9.426  10.065 -4.3846 -2.0896  2.2197
  444MOL0     H61250   7.419   9.393   9.920 -0.0192 -0.3873 -0.5846
  444MOL0     H61251   7.391   9.292  10.066 -0.3907 -5.2519 -0.2271
  444MOL0     H61252   7.889   8.782   9.345 -0.4763  2.1145  0.6641
  444MOL0     H61253   7.751   8.743   9.158  0.5157  1.2069 -0.1479
  444MOL0     H61254   7.315   8.534   9.069 -2.8051  0.6805  0.1855
  444MOL0     H61255   7.183   8.443   8.903 -0.9279  0.5246 -1.6678
  444MOL0     H61256   6.262   8.708   7.389 -1.6216 -0.6917 -1.3233
  444MOL0     H61257   6.037   8.784   7.312 -0.1923  0.3743  1.1579
  444MOL0     H61258   5.675   8.982   7.068  0.7985 -0.8298  0.6067
  444MOL0     H61259   5.447   9.087   7.058 -3.2737  1.3081  1.9908
  444MOL0     H61260   5.296   9.278   7.059  1.5921 -0.9903 -0.5162
  444MOL0     H61261   5.255   9.131   7.139 -1.8762  1.9512 -2.3820
  444MOL0     H61262   5.160   9.406   7.229  3.2484 -0.1908 -1.7763
  444MOL0     H61263   5.083   9.247   7.274 -0.8846 -2.5206 -1.6722
  444MOL0     H61264   5.074   9.408   7.015 -1.1298 -0.1593 -0.4365
  444MOL0     H61265   5.029   9.231   7.030  4.4851  0.9331 -2.7637
  444MOL0     H61266   4.901   9.478   7.159 -4.4682 -0.8128 -0.2879
  444MOL0     H61267   4.867   9.307   7.206 -1.6339  3.4383  1.7381
  444MOL0     H61268   4.614   9.415   6.905  1.2567  2.9029  1.0744
  444MOL0     H61269   5.544   9.278   7.439  0.5747 -0.5355 -0.1395
  444MOL0     H61270   5.848   9.226   7.469  0.1724 -1.0719  0.6347
  444MOL0     H61271   5.714   9.206   7.583  1.0372  2.5437  0.4019
  444MOL0     H61272   5.803   9.062   7.520 -1.8376 -1.0807 -1.5094
  445MOL0     O61273   9.120   3.815   1.789 -0.8174 -0.0734 -0.4479
  445MOL0     C61274   9.017   3.827   1.722 -0.3358 -0.7595  0.7310
  445MOL0     O61275   9.012   3.809   1.583  0.4776  0.0060 -0.8746
  445MOL0     C61276   9.131   3.798   1.521 -0.8287  0.4858 -0.4076
  445MOL0     C61277   9.165   3.681   1.452  0.0996 -0.8543  0.4205
  445MOL0     C61278   9.279   3.667   1.384 -0.1644 -0.0793  0.1795
  445MOL0     C61279   9.371   3.775   1.372  0.4049  0.3288 -0.0060
  445MOL0     O61280   9.493   3.768   1.305 -0.2592  0.2212 -0.9736
  445MOL0     C61281   9.529   3.638   1.247  0.0285  0.1982 -0.3495
  445MOL0     C61282   9.625   3.656   1.132 -0.2679  0.5091  0.9753
  445MOL0     C61283   9.728   3.545   1.122  0.4020 -0.1559 -0.5853
  445MOL0     C61284   9.829   3.575   1.014 -0.1492 -0.2430  1.2235
  445MOL0     C61285   9.972   3.563   1.075 -0.7823 -0.4960  1.1200
  445MOL0     C61286  10.089   3.592   0.969  0.6476 -0.8264  0.1039
  445MOL0     C61287  10.219   3.617   1.045 -0.8843  0.6875 -0.1279
  445MOL0     C61288  10.280   3.491   1.117 -0.6501  0.7592  0.3969
  445MOL0     N61289  10.267   3.362   1.045 -0.1630  0.1947 -0.0389
  445MOL0     C61290  10.178   3.262   1.069  0.4926  0.7831  0.1707
  445MOL0     C61291  10.204   3.154   0.987  0.1204 -1.2877  0.4028
  445MOL0     C61292  10.144   3.011   0.975 -0.0463  0.5668 -0.1939
  445MOL0     C61293  10.024   3.020   0.886  0.0535  0.6905  0.2844
  445MOL0     C61294  10.067   3.027   0.734 -0.1487  0.7807  0.0758
  445MOL0     C61295  10.113   2.887   0.680 -0.5326 -0.3724 -0.5383
  445MOL0     O61296  10.147   2.893   0.545  0.0936 -0.1745  0.7147
  445MOL0     C61297  10.268   2.924   0.503 -0.7823 -0.3420  1.0408
  445MOL0     C61298  10.284   2.925   0.365 -1.1154  0.3962 -0.7695
  445MOL0     C61299  10.413   2.939   0.304  0.5151 -0.1620  0.3035
  445MOL0     C61300  10.412   2.961   0.156  0.5542 -1.0450  0.5417
  445MOL0     C61301  10.520   2.958   0.382  0.5218 -1.0669 -0.5950
  445MOL0     C61302  10.654   2.974   0.329 -0.5713 -0.1657 -0.4500
  445MOL0     O61303  10.735   3.058   0.402 -0.1845  0.0111 -0.3257
  445MOL0     C61304  10.860   3.073   0.360 -0.2795 -0.1999  0.1044
  445MOL0     C61305  10.959   3.030   0.441  0.2954  0.8441 -1.2156
  445MOL0     C61306  11.096   3.037   0.397  0.5460 -0.0175 -0.3738
  445MOL0     C61307  11.131   3.089   0.269 -0.7426 -0.1044 -0.2392
  445MOL0     O61308  11.268   3.107   0.237 -0.0551  0.8648  0.0293
  445MOL0     C61309  11.299   3.231   0.172 -0.1618  0.2460  0.5549
  445MOL0     C61310  11.446   3.228   0.130  0.5534 -0.0052 -0.1148
  445MOL0     C61311  11.518   3.248   0.262 -0.1356 -0.4483 -0.4276
  445MOL0     C61312  11.670   3.232   0.240  0.0991 -0.2356 -0.0833
  445MOL0     C61313  11.745   3.213   0.371  0.3750  0.3516 -0.7162
  445MOL0     C61314  11.880   3.273   0.350  0.2023 -0.1506 -0.0084
  445MOL0     C61315  11.969   3.196   0.251 -0.8164 -0.5735 -0.6635
  445MOL0     C61316  12.082   3.106   0.313 -1.2714  0.0462  0.8655
  445MOL0    Cl61317  12.175   3.195   0.442  0.1287  0.0874  0.3279
  445MOL0     C61318  11.024   3.137   0.193  0.1456  0.7954  0.0946
  445MOL0     C61319  10.889   3.124   0.234  0.3520  0.0158  0.1872
  445MOL0     O61320  10.684   2.915   0.222 -0.6988 -0.3608 -0.4146
  445MOL0     C61321  10.500   2.958   0.519 -1.0434  0.3162  0.0766
  445MOL0     C61322  10.387   2.934   0.579 -0.4266 -0.0733  0.7659
  445MOL0     N61323  10.311   3.194   0.918 -1.0538 -0.7467 -0.4600
  445MOL0     N61324  10.352   3.314   0.951 -0.0120  0.3772  0.0522
  445MOL0     C61325   9.333   3.904   1.425  0.1874  0.3410 -0.0408
  445MOL0     C61326   9.215   3.911   1.510  0.5555 -0.1593  0.4095
  445MOL0     C61327   8.884   3.859   1.781  0.0017  0.4221  1.0724
  445MOL0     C61328   8.878   3.853   1.918  0.3557 -0.0103  0.0830
  445MOL0     C61329   8.765   3.871   1.994 -0.0901 -0.0459  0.1693
  445MOL0     C61330   8.644   3.894   1.930 -0.4532  0.4073 -0.0359
  445MOL0     O61331   8.539   3.914   2.018 -0.5197 -0.4766 -0.4424
  445MOL0     C61332   8.409   3.941   1.960  0.9605  0.8906  0.4478
  445MOL0     C61333   8.408   4.089   1.906  0.8522  0.5092 -0.4833
  445MOL0     C61334   8.277   4.123   1.849  0.2477 -0.4362  0.4796
  445MOL0     C61335   8.259   4.278   1.827 -0.5539  0.7068 -0.1723
  445MOL0     C61336   8.335   4.340   1.714 -0.3226  0.4714  0.2600
  445MOL0     C61337   8.406   4.371   1.624 -0.4175 -0.8356 -0.1208
  445MOL0     C61338   8.648   3.905   1.785  0.2749  0.1632  0.1653
  445MOL0     C61339   8.761   3.893   1.707 -0.3566 -0.8344  0.4821
  445MOL0     C61340   8.758   3.909   1.556 -0.4393 -0.1745 -0.2029
  445MOL0     H61341   9.102   3.594   1.465 -0.0007 -0.8029  0.2918
  445MOL0     H61342   9.293   3.568   1.342  0.4497  0.3564 -0.6846
  445MOL0     H61343   9.441   3.586   1.206  1.1476 -2.0634 -0.0077
  445MOL0     H61344   9.576   3.578   1.324  0.4484  2.3797  1.1910
  445MOL0     H61345   9.564   3.676   1.044 -0.8753  0.4241  1.3702
  445MOL0     H61346   9.678   3.747   1.158 -0.2721  0.5185  0.9505
  445MOL0     H61347   9.777   3.554   1.220 -1.5552 -0.2302  0.4696
  445MOL0     H61348   9.686   3.444   1.111  1.3742 -0.5725 -0.5844
  445MOL0     H61349   9.823   3.500   0.935  2.2000 -0.4875  1.2077
  445MOL0     H61350   9.813   3.675   0.972 -1.2757 -1.1790 -0.7196
  445MOL0     H61351   9.998   3.472   1.130 -0.0577 -0.4350  0.8842
  445MOL0     H61352   9.968   3.649   1.143 -2.4460 -0.2127  0.7170
  445MOL0     H61353  10.115   3.520   0.891 -0.7713  1.5707 -2.7808
  445MOL0     H61354  10.070   3.680   0.908  1.2596 -1.9173 -1.7397
  445MOL0     H61355  10.207   3.689   1.126  0.7602 -0.7620  1.4817
  445MOL0     H61356  10.290   3.643   0.965 -3.7499  0.6614 -2.8703
  445MOL0     H61357  10.387   3.493   1.136 -0.5499 -2.9334  1.0485
  445MOL0     H61358  10.238   3.475   1.217 -1.0934  3.8384  0.7853
  445MOL0     H61359  10.096   3.263   1.140  0.0670 -1.6720 -0.2223
  445MOL0     H61360  10.108   2.966   1.068  0.8894  3.0307  1.4449
  445MOL0     H61361  10.211   2.936   0.931 -0.1811  0.4503 -0.2035
  445MOL0     H61362   9.950   2.941   0.893  0.2474  0.3087 -1.4273
  445MOL0     H61363   9.967   3.104   0.926  0.2856 -0.0280  2.2058
  445MOL0     H61364   9.980   3.048   0.672 -0.4589 -2.5671 -0.8513
  445MOL0     H61365  10.152   3.095   0.722  1.3095 -1.0159 -0.4135
  445MOL0     H61366  10.188   2.847   0.749  0.0619 -0.4581 -1.2196
  445MOL0     H61367  10.024   2.824   0.666  1.4486 -3.5725  0.1543
  445MOL0     H61368  10.208   2.904   0.291  0.8398 -1.9663 -2.2514
  445MOL0     H61369  10.318   3.005   0.123  0.2065 -1.4031  1.0394
  445MOL0     H61370  10.439   2.871   0.100 -0.8289 -1.6906  0.8751
  445MOL0     H61371  10.484   3.039   0.128  0.5257 -0.8150  1.0985
  445MOL0     H61372  10.937   2.985   0.537  0.3820  0.0710 -1.5412
  445MOL0     H61373  11.180   3.004   0.456  2.7803  0.8011 -2.8743
  445MOL0     H61374  11.236   3.250   0.085 -0.4732 -0.4695  0.6213
  445MOL0     H61375  11.272   3.315   0.238 -2.6454 -2.5453  3.4222
  445MOL0     H61376  11.464   3.136   0.075 -4.0645 -0.9662 -0.4328
  445MOL0     H61377  11.458   3.318   0.069 -2.2709  0.0617 -0.6947
  445MOL0     H61378  11.477   3.169   0.325 -0.8422 -0.4051 -0.8218
  445MOL0     H61379  11.496   3.346   0.306 -1.4356 -0.7231 -0.4393
  445MOL0     H61380  11.700   3.320   0.183  2.8926  0.9894  2.9302
  445MOL0     H61381  11.690   3.147   0.176  0.2365  1.6946 -2.7704
  445MOL0     H61382  11.693   3.268   0.450 -0.1868  0.2578 -1.0232
  445MOL0     H61383  11.755   3.108   0.400 -1.4324  0.1899 -0.6080
  445MOL0     H61384  11.923   3.286   0.450 -4.0471 -0.5942  2.0833
  445MOL0     H61385  11.866   3.377   0.320 -0.8748 -0.6561 -1.3170
  445MOL0     H61386  12.005   3.267   0.176  2.8221 -1.6715 -0.1313
  445MOL0     H61387  11.909   3.131   0.187  3.0107 -0.5402 -4.7361
  445MOL0     H61388  12.150   3.073   0.234 -0.1704  3.8544  0.0161
  445MOL0     H61389  12.029   3.016   0.345  1.6434 -1.6623  1.3207
  445MOL0     H61390  11.041   3.173   0.092 -0.6986  2.4048  0.4786
  445MOL0     H61391  10.803   3.167   0.183  0.1329 -1.0351 -0.3549
  445MOL0     H61392  10.589   2.966   0.580  0.1921  1.1478 -1.7509
  445MOL0     H61393  10.384   2.914   0.686  2.1517 -0.3406  0.8465
  445MOL0     H61394   9.390   3.995   1.409 -0.5273  1.2228  2.0535
  445MOL0     H61395   9.188   4.002   1.563 -1.2642 -0.6819  0.4298
  445MOL0     H61396   8.965   3.848   1.982 -0.6315  0.0043  1.4598
  445MOL0     H61397   8.757   3.878   2.102 -0.5522  1.1681  0.0673
  445MOL0     H61398   8.388   3.878   1.874 -0.9968  0.2256  1.3584
  445MOL0     H61399   8.326   3.917   2.026  1.2155 -3.1905 -0.4368
  445MOL0     H61400   8.483   4.100   1.827  0.0138 -1.6997 -1.6651
  445MOL0     H61401   8.439   4.149   1.991 -1.8686 -0.4001  1.2717
  445MOL0     H61402   8.264   4.064   1.758 -0.0389  2.1285 -1.2230
  445MOL0     H61403   8.189   4.107   1.913 -0.5127 -0.3694 -0.5169
  445MOL0     H61404   8.288   4.334   1.917 -0.7105  2.4259 -1.1449
  445MOL0     H61405   8.155   4.310   1.813  0.6092  4.0701 -2.5307
  445MOL0     H61406   8.471   4.411   1.549 -0.1555  2.1875  1.5487
  445MOL0     H61407   8.558   3.927   1.728  0.7866 -2.3771 -1.8297
  445MOL0     H61408   8.771   3.812   1.508 -1.2324 -1.5554  2.1884
  445MOL0     H61409   8.669   3.963   1.523  0.6830  1.9897  0.1526
  445MOL0     H61410   8.843   3.970   1.526 -0.2189 -0.5746 -0.3905
  446MOL0     O61411   2.965   9.972   7.867 -0.3947 -0.3974 -0.1018
  446MOL0     C61412   2.973   9.850   7.839  0.2101 -0.8192 -0.2758
  446MOL0     O61413   3.091   9.781   7.817  0.5982 -0.0021 -0.1049
  446MOL0     C61414   3.209   9.829   7.864 -0.1046 -0.0671 -0.2370
  446MOL0     C61415   3.318   9.779   7.793 -0.4728  0.4343  0.1420
  446MOL0     C61416   3.448   9.788   7.850  0.8163 -0.2228  0.2313
  446MOL0     C61417   3.468   9.866   7.968  0.0484  0.3758  0.3735
  446MOL0     O61418   3.603   9.873   8.000 -0.5539  0.4352  0.0337
  446MOL0     C61419   3.657   9.982   8.077 -0.7088 -0.3139 -0.2239
  446MOL0     C61420   3.787  10.045   8.018 -0.8362 -0.6481  0.1079
  446MOL0     C61421   3.836  10.137   8.127 -0.9729  0.1950  0.6989
  446MOL0     C61422   3.977  10.195   8.070  0.4754  0.7108 -0.1695
  446MOL0     C61423   4.045  10.275   8.177  0.4699  0.3786  0.4173
  446MOL0     C61424   4.192  10.297   8.143  0.6411  0.0503  0.9734
  446MOL0     C61425   4.269  10.299   8.271  0.5337  0.4317  0.1276
  446MOL0     C61426   4.408  10.371   8.254  0.6204 -0.2200  0.3819
  446MOL0     N61427   4.525  10.283   8.246 -0.3257 -0.3661  0.3374
  446MOL0     C61428   4.618  10.294   8.151  0.3960  0.1433  0.5777
  446MOL0     C61429   4.717  10.212   8.170 -0.3175 -0.4289 -1.2549
  446MOL0     C61430   4.845  10.198   8.086  0.6187  0.3901  0.3344
  446MOL0     C61431   4.974  10.235   8.170 -0.5865 -0.4319 -0.0663
  446MOL0     C61432   5.038  10.105   8.217 -0.0988  0.8840  0.2844
  446MOL0     C61433   5.148  10.109   8.322 -0.1638  1.2852 -0.1323
  446MOL0     O61434   5.215   9.981   8.341 -0.4604  0.9162  0.3223
  446MOL0     C61435   5.323   9.958   8.426  0.2945 -0.0210 -1.0588
  446MOL0     C61436   5.366  10.058   8.512  0.2311 -0.0284 -0.6687
  446MOL0     C61437   5.457  10.033   8.611 -0.3695  0.1914  0.2519
  446MOL0     C61438   5.497  10.149   8.696 -0.4576  0.0078  0.5251
  446MOL0     C61439   5.528   9.906   8.614  0.9937  0.5203  0.6455
  446MOL0     C61440   5.632   9.860   8.711  0.2261  0.1773  0.0371
  446MOL0     O61441   5.752   9.813   8.665 -0.0488 -0.4814 -0.9035
  446MOL0     C61442   5.856   9.767   8.742 -0.4306 -0.1912  0.1005
  446MOL0     C61443   5.866   9.763   8.883  0.1360  0.6454  0.1038
  446MOL0     C61444   5.988   9.732   8.942 -0.6712 -0.6848  0.6325
  446MOL0     C61445   6.099   9.708   8.856  0.4861  0.3284 -0.1288
  446MOL0     O61446   6.228   9.678   8.893  0.8757 -0.0635  0.0912
  446MOL0     C61447   6.264   9.707   9.032  0.4667 -0.4388  0.8903
  446MOL0     C61448   6.395   9.641   9.047 -0.6758  0.7347 -0.3478
  446MOL0     C61449   6.467   9.664   9.182 -0.2145  0.0700 -0.3852
  446MOL0     C61450   6.423   9.559   9.290  0.7690 -0.5503  0.4843
  446MOL0     C61451   6.497   9.606   9.414  0.3887  0.1235 -0.5731
  446MOL0     C61452   6.445   9.515   9.528 -0.0391 -0.0503  0.5140
  446MOL0     C61453   6.501   9.574   9.658  0.5791 -0.1532 -0.1802
  446MOL0     C61454   6.433   9.497   9.778 -0.8109 -0.0750 -0.0586
  446MOL0    Cl61455   6.522   9.559   9.925 -0.0806  0.5553  0.3170
  446MOL0     C61456   6.084   9.702   8.716 -0.5188 -0.0886 -0.2603
  446MOL0     C61457   5.962   9.737   8.656  0.3323 -0.4053  0.8200
  446MOL0     O61458   5.604   9.879   8.830  0.6132  0.3815  0.4543
  446MOL0     C61459   5.477   9.801   8.525  0.1017 -0.9765 -0.3438
  446MOL0     C61460   5.370   9.830   8.436  0.2126 -0.4758 -0.3898
  446MOL0     N61461   4.680  10.147   8.290 -0.0247 -0.2490 -0.7024
  446MOL0     N61462   4.565  10.190   8.328  0.1103  0.0909 -0.1942
  446MOL0     C61463   3.362   9.922   8.028  0.8317  0.2003  0.0215
  446MOL0     C61464   3.235   9.905   7.972 -0.2111 -0.2406 -0.6835
  446MOL0     C61465   2.845   9.770   7.848 -0.7441  0.2593 -0.2439
  446MOL0     C61466   2.851   9.635   7.876 -0.6944  0.1735 -0.7772
  446MOL0     C61467   2.741   9.554   7.876 -0.3617  1.2028  0.5972
  446MOL0     C61468   2.613   9.607   7.868 -0.0958  0.2262 -0.3500
  446MOL0     O61469   2.495   9.536   7.867 -0.4340  0.2165  0.6244
  446MOL0     C61470   2.433   9.535   7.738 -0.2811 -0.0788 -0.2847
  446MOL0     C61471   2.320   9.426   7.746 -0.4845  0.0302  0.2951
  446MOL0     C61472   2.366   9.276   7.767  0.6252 -0.4466 -0.1813
  446MOL0     C61473   2.276   9.179   7.688  0.3826 -0.8481 -0.5516
  446MOL0     C61474   2.147   9.157   7.765 -0.0172  0.1865  0.0806
  446MOL0     C61475   2.040   9.163   7.821 -1.0188 -0.7178  0.0599
  446MOL0     C61476   2.604   9.741   7.853  0.3612 -0.5432  1.2188
  446MOL0     C61477   2.715   9.820   7.837  0.3107 -0.7207 -0.2377
  446MOL0     C61478   2.675   9.968   7.800 -0.2475 -0.1726  0.6891
  446MOL0     H61479   3.304   9.727   7.699  0.0416 -0.0444  0.3261
  446MOL0     H61480   3.530   9.745   7.794  0.4337 -2.2151  1.1134
  446MOL0     H61481   3.691   9.942   8.174 -1.2686  0.1455  0.1719
  446MOL0     H61482   3.581  10.060   8.088 -2.1269 -1.3235 -2.2597
  446MOL0     H61483   3.864   9.968   8.009 -0.1555 -0.0774  0.8104
  446MOL0     H61484   3.763  10.097   7.925 -1.6049  0.3667  0.8562
  446MOL0     H61485   3.767  10.219   8.153 -0.9988  0.1123  0.8934
  446MOL0     H61486   3.855  10.073   8.213 -1.2521  0.3835  0.9042
  446MOL0     H61487   4.045  10.113   8.044 -0.3793  0.1518 -0.6892
  446MOL0     H61488   3.956  10.248   7.977  2.5449  1.6668 -0.1390
  446MOL0     H61489   4.045  10.219   8.271  1.0013  1.1034  0.8627
  446MOL0     H61490   3.995  10.372   8.184 -1.5922 -0.6633  0.9030
  446MOL0     H61491   4.238  10.226   8.074  1.2776  0.9307  0.4742
  446MOL0     H61492   4.200  10.389   8.085  0.3050 -1.1983 -1.1365
  446MOL0     H61493   4.283  10.196   8.306  0.0755 -0.3813 -1.9659
  446MOL0     H61494   4.214  10.350   8.351  0.2657 -2.4997  1.9651
  446MOL0     H61495   4.417  10.421   8.157 -1.0776  0.0561  0.3384
  446MOL0     H61496   4.422  10.445   8.334 -1.6490 -1.9740  2.5408
  446MOL0     H61497   4.612  10.367   8.070  0.2622  1.3953  1.6899
  446MOL0     H61498   4.836  10.265   8.001  0.9924  3.3553  2.4611
  446MOL0     H61499   4.848  10.096   8.046 -2.7342  0.5071 -0.4700
  446MOL0     H61500   5.040  10.286   8.100 -0.3858 -1.9221 -1.0052
  446MOL0     H61501   4.949  10.293   8.260 -0.3568 -1.1462  0.4597
  446MOL0     H61502   4.954  10.040   8.244  0.5139 -0.6209 -1.2765
  446MOL0     H61503   5.083  10.061   8.128 -1.4488 -0.1712  0.1005
  446MOL0     H61504   5.227  10.179   8.295 -0.8049  2.1073  0.1002
  446MOL0     H61505   5.105  10.135   8.419 -0.0178  2.4838 -0.3747
  446MOL0     H61506   5.326  10.159   8.510  0.4882  0.3054  3.1099
  446MOL0     H61507   5.494  10.112   8.799 -1.8320 -1.2913  0.0578
  446MOL0     H61508   5.430  10.233   8.674 -0.2475 -0.2630 -1.2798
  446MOL0     H61509   5.603  10.163   8.673 -0.6264 -0.3508 -0.5394
  446MOL0     H61510   5.781   9.789   8.945 -0.7970  0.9345 -1.2486
  446MOL0     H61511   5.996   9.728   9.050 -1.2962 -2.8751  0.6382
  446MOL0     H61512   6.272   9.815   9.042 -2.7391  0.3698 -3.0686
  446MOL0     H61513   6.182   9.674   9.097 -2.3335  3.9085 -0.0704
  446MOL0     H61514   6.383   9.535   9.026  1.4432  0.1195  1.2251
  446MOL0     H61515   6.458   9.675   8.964 -1.1368 -0.4972 -1.2396
  446MOL0     H61516   6.458   9.770   9.209 -1.8874  1.0789 -4.2309
  446MOL0     H61517   6.575   9.647   9.178  0.3753  2.3880  2.6212
  446MOL0     H61518   6.463   9.465   9.252  1.8723  1.4756 -4.0393
  446MOL0     H61519   6.314   9.553   9.296  0.6681 -0.0381 -0.6710
  446MOL0     H61520   6.603   9.584   9.400  0.8451  0.5973  1.6859
  446MOL0     H61521   6.458   9.704   9.443 -0.8647 -0.4581 -0.2096
  446MOL0     H61522   6.478   9.412   9.509  1.7407 -0.3049  3.9989
  446MOL0     H61523   6.337   9.515   9.544 -0.5289  4.4191 -1.5247
  446MOL0     H61524   6.463   9.677   9.652 -0.5579 -0.6245 -2.0280
  446MOL0     H61525   6.610   9.582   9.653  0.5400 -0.1018 -1.3159
  446MOL0     H61526   6.441   9.389   9.758 -2.6112 -0.4414  0.9923
  446MOL0     H61527   6.327   9.524   9.776 -0.3477  2.1076  1.3795
  446MOL0     H61528   6.174   9.674   8.662  1.0261 -0.1339  2.1825
  446MOL0     H61529   5.952   9.743   8.548 -2.9612  0.0280  1.0465
  446MOL0     H61530   5.534   9.709   8.514  0.7220 -0.4312 -2.1744
  446MOL0     H61531   5.334   9.746   8.378  2.9889 -2.1689  0.1673
  446MOL0     H61532   3.377   9.964   8.127 -0.7064 -1.2454  0.9284
  446MOL0     H61533   3.150   9.944   8.026 -2.0634 -1.8922 -2.2453
  446MOL0     H61534   2.951   9.595   7.891 -0.7417  0.8669  1.8284
  446MOL0     H61535   2.756   9.447   7.887  0.3623  0.8394 -2.8644
  446MOL0     H61536   2.380   9.630   7.729  1.1579  0.7038 -0.9414
  446MOL0     H61537   2.503   9.516   7.655  2.2210 -0.3456  1.7388
  446MOL0     H61538   2.263   9.425   7.652 -1.6440  1.4582  0.9519
  446MOL0     H61539   2.254   9.450   7.829 -0.6543 -2.3072  0.8987
  446MOL0     H61540   2.470   9.256   7.740  0.0898  0.6829 -3.6476
  446MOL0     H61541   2.361   9.245   7.872  1.0765  0.5558  0.1550
  446MOL0     H61542   2.330   9.084   7.687  0.2679 -1.0495  2.7717
  446MOL0     H61543   2.269   9.216   7.585  0.3523 -0.8402 -0.5470
  446MOL0     H61544   1.946   9.162   7.872 -1.0078 -0.4979  0.0865
  446MOL0     H61545   2.507   9.786   7.839  1.1739  0.3124 -2.8524
  446MOL0     H61546   2.585   9.973   7.738  0.9573  1.3331 -1.0492
  446MOL0     H61547   2.661  10.023   7.894  1.3370  1.2514  0.1519
  446MOL0     H61548   2.752  10.029   7.752 -1.7665  0.3081 -1.2874
  447MOL0     O61549   4.744   2.845   7.708  0.2992  0.2240  0.6559
  447MOL0     C61550   4.729   2.880   7.825 -0.0758  0.6065 -0.0967
  447MOL0     O61551   4.827   2.877   7.920  0.0743  0.2665 -0.3700
  447MOL0     C61552   4.953   2.879   7.878 -0.7753 -0.3933  0.7624
  447MOL0     C61553   5.034   2.766   7.860  0.0086 -0.5471  0.5690
  447MOL0     C61554   5.166   2.777   7.798  0.3929  0.0548  0.2627
  447MOL0     C61555   5.225   2.893   7.786  0.7281 -0.7622 -1.2218
  447MOL0     O61556   5.348   2.892   7.735  0.0458  0.4028 -0.1320
  447MOL0     C61557   5.398   3.004   7.660 -0.7821  0.3332 -0.3639
  447MOL0     C61558   5.344   3.019   7.519  0.2554  0.6794 -0.0670
  447MOL0     C61559   5.413   2.918   7.421 -0.7399  0.6565  0.0219
  447MOL0     C61560   5.563   2.955   7.395  0.3491 -0.2811 -0.3012
  447MOL0     C61561   5.605   2.880   7.277  0.2305  0.1914 -0.7796
  447MOL0     C61562   5.758   2.891   7.256  0.1489 -0.7703 -0.0482
  447MOL0     C61563   5.787   3.025   7.186 -0.4498  0.1214 -0.2775
  447MOL0     C61564   5.943   3.038   7.171  0.8512  0.4003  0.1120
  447MOL0     N61565   6.004   2.930   7.091 -0.2958 -0.0298  0.3064
  447MOL0     C61566   5.967   2.898   6.962 -0.1268  0.7643  0.6503
  447MOL0     C61567   6.062   2.804   6.928  0.8921 -0.2165  0.1543
  447MOL0     C61568   6.062   2.722   6.796 -0.9284 -0.1793 -0.3815
  447MOL0     C61569   6.085   2.803   6.667  0.7715 -0.0971 -0.2022
  447MOL0     C61570   6.034   2.713   6.551 -0.6331 -0.4098  0.2339
  447MOL0     C61571   6.078   2.761   6.411 -0.2299  0.3916  0.2391
  447MOL0     O61572   6.020   2.890   6.385  0.0434  0.1328 -0.0652
  447MOL0     C61573   5.918   2.895   6.295 -1.0967  0.5515  0.3014
  447MOL0     C61574   5.945   2.910   6.158  0.1352 -0.0709 -0.9948
  447MOL0     C61575   5.837   2.937   6.071  0.3238  0.6276  0.7679
  447MOL0     C61576   5.870   2.991   5.925 -0.5393  0.6978 -0.1012
  447MOL0     C61577   5.702   2.931   6.119  1.1791 -0.2505  0.2012
  447MOL0     C61578   5.587   2.944   6.021  0.4740 -0.0532  0.0577
  447MOL0     O61579   5.595   2.885   5.897 -0.3328  0.5139  0.4118
  447MOL0     C61580   5.504   2.922   5.800 -0.4943 -0.2878 -0.5357
  447MOL0     C61581   5.537   3.021   5.706  0.1871 -0.3504 -0.3955
  447MOL0     C61582   5.457   3.048   5.595 -0.6988 -0.0526 -1.0834
  447MOL0     C61583   5.340   2.979   5.580 -0.8344  0.0432  0.0729
  447MOL0     O61584   5.260   3.013   5.480 -0.0027 -0.0730  0.6868
  447MOL0     C61585   5.112   3.012   5.495 -0.1880  0.0603 -0.3705
  447MOL0     C61586   5.054   2.894   5.421 -0.2160  1.0739  0.1418
  447MOL0     C61587   4.910   2.863   5.464  0.3228 -0.6460  1.1634
  447MOL0     C61588   4.834   2.756   5.380 -0.6202  0.8892  0.6002
  447MOL0     C61589   4.877   2.615   5.428  0.4446 -0.2282  0.4619
  447MOL0     C61590   4.796   2.508   5.358  0.1174  0.5303 -0.1877
  447MOL0     C61591   4.825   2.492   5.205  1.0443  0.1950  0.6139
  447MOL0     C61592   4.742   2.377   5.149 -0.1258  0.3438 -0.1665
  447MOL0    Cl61593   4.844   2.234   5.193  0.0094 -0.0811 -0.1390
  447MOL0     C61594   5.303   2.878   5.674  0.0674 -0.5888 -0.0874
  447MOL0     C61595   5.387   2.851   5.778  0.7332 -0.1734 -0.4994
  447MOL0     O61596   5.495   3.010   6.065  0.2929  0.1048 -0.1539
  447MOL0     C61597   5.678   2.919   6.259 -0.8290 -0.3708 -0.6772
  447MOL0     C61598   5.790   2.904   6.349  0.0782  0.1999  0.3400
  447MOL0     N61599   6.139   2.769   7.034 -0.5411 -0.3518  0.0509
  447MOL0     N61600   6.102   2.843   7.134 -0.3183  0.2115 -0.8824
  447MOL0     C61601   5.149   3.011   7.825 -0.1588 -0.8120 -0.4341
  447MOL0     C61602   5.019   3.002   7.865  0.4679 -0.0286 -0.4935
  447MOL0     C61603   4.588   2.896   7.870  0.5413  0.2597  0.3114
  447MOL0     C61604   4.567   2.872   8.004  0.6741  0.2633  0.2539
  447MOL0     C61605   4.444   2.903   8.067 -0.5272 -0.0581 -0.3712
  447MOL0     C61606   4.337   2.958   7.982 -0.5898  1.1528 -0.8463
  447MOL0     O61607   4.213   3.000   8.030 -0.3601  0.0603 -0.7133
  447MOL0     C61608   4.202   3.011   8.175 -0.0915 -0.2170 -0.7503
  447MOL0     C61609   4.282   3.143   8.210 -1.3536 -0.2768  0.4593
  447MOL0     C61610   4.232   3.193   8.345  0.2689  0.1647 -0.1799
  447MOL0     C61611   4.268   3.337   8.378  0.2512 -0.0125  0.2756
  447MOL0     C61612   4.416   3.332   8.407  0.3922 -0.1465 -0.0137
  447MOL0     C61613   4.534   3.321   8.438 -0.3267  0.2993  0.0176
  447MOL0     C61614   4.362   2.975   7.846 -0.1001  0.5804  0.0560
  447MOL0     C61615   4.480   2.942   7.787 -0.4290  0.9118 -0.4904
  447MOL0     C61616   4.491   2.981   7.645  0.2185  0.2164  0.3727
  447MOL0     H61617   4.985   2.671   7.879  1.4992 -1.3654  0.4993
  447MOL0     H61618   5.213   2.683   7.773 -1.8590 -0.9491 -0.5007
  447MOL0     H61619   5.506   2.985   7.664 -1.1958 -2.1318  1.6367
  447MOL0     H61620   5.380   3.102   7.705  1.4905  0.0379  1.3706
  447MOL0     H61621   5.237   3.000   7.524  0.4773 -0.6555 -0.1434
  447MOL0     H61622   5.362   3.123   7.491  1.4862  0.0209 -1.9231
  447MOL0     H61623   5.406   2.818   7.464 -1.7483  1.4675  1.8632
  447MOL0     H61624   5.368   2.920   7.321  1.0572 -0.3989 -0.8455
  447MOL0     H61625   5.565   3.065   7.388 -1.0639 -0.3169 -2.0015
  447MOL0     H61626   5.629   2.928   7.478  3.2261  1.6963 -1.7826
  447MOL0     H61627   5.568   2.921   7.182 -0.3555 -4.9569 -3.1173
  447MOL0     H61628   5.578   2.774   7.276  1.5442 -0.2135  1.1310
  447MOL0     H61629   5.799   2.876   7.356 -3.7290 -0.5408  1.7901
  447MOL0     H61630   5.794   2.804   7.201  1.2396 -1.1028  1.1629
  447MOL0     H61631   5.752   3.110   7.246  0.3788  1.1755 -1.2426
  447MOL0     H61632   5.743   3.020   7.086 -1.5757  0.3878  0.1953
  447MOL0     H61633   5.959   3.137   7.127 -2.2967  0.9251 -0.0396
  447MOL0     H61634   5.981   3.052   7.273 -2.4852  2.6228  1.2421
  447MOL0     H61635   5.892   2.941   6.896  0.4009 -1.0373 -1.2472
  447MOL0     H61636   5.971   2.661   6.792 -0.6731 -0.5157 -3.0767
  447MOL0     H61637   6.150   2.657   6.802 -0.1489  0.9648  4.5984
  447MOL0     H61638   6.028   2.895   6.673  1.5479  0.6623 -3.0591
  447MOL0     H61639   6.183   2.847   6.646  1.2213  0.4530  2.6012
  447MOL0     H61640   6.071   2.611   6.557 -0.5692 -0.3443  0.9493
  447MOL0     H61641   5.926   2.703   6.569 -1.1018  0.5378 -1.6484
  447MOL0     H61642   6.186   2.778   6.400 -0.7800  3.2294 -1.4885
  447MOL0     H61643   6.038   2.684   6.344  0.3318 -1.2320  1.6894
  447MOL0     H61644   6.044   2.898   6.115 -0.3573 -1.8067 -1.7657
  447MOL0     H61645   5.800   3.075   5.912  0.2855  0.9985 -3.5668
  447MOL0     H61646   5.865   2.912   5.850 -1.0911  1.7613 -1.2127
  447MOL0     H61647   5.968   3.039   5.914 -1.3802  2.2546 -1.1760
  447MOL0     H61648   5.630   3.077   5.713  0.8886 -1.2617 -2.0462
  447MOL0     H61649   5.480   3.126   5.524  0.2821 -0.0238 -0.7537
  447MOL0     H61650   5.098   3.023   5.603  1.4216  1.4846 -0.2690
  447MOL0     H61651   5.076   3.100   5.441  3.2768  1.5317 -0.5416
  447MOL0     H61652   5.065   2.908   5.313  2.6875 -6.3468 -1.0729
  447MOL0     H61653   5.130   2.819   5.443 -1.4480  0.1016  1.1929
  447MOL0     H61654   4.856   2.956   5.445 -1.1928 -2.0089 -1.9078
  447MOL0     H61655   4.892   2.841   5.570  0.3311  3.1463  2.0837
  447MOL0     H61656   4.865   2.770   5.276 -0.6327  0.6767  0.5671
  447MOL0     H61657   4.725   2.750   5.387 -0.6270  0.4371  0.1419
  447MOL0     H61658   4.984   2.594   5.421  0.6314  0.4502  1.1457
  447MOL0     H61659   4.850   2.612   5.534  0.8938  1.3194  0.6366
  447MOL0     H61660   4.692   2.522   5.389  1.2051  2.2043  3.2175
  447MOL0     H61661   4.831   2.413   5.399  0.1548 -0.7894 -3.0770
  447MOL0     H61662   4.931   2.469   5.192  0.5502 -1.7836 -0.1279
  447MOL0     H61663   4.799   2.587   5.157 -0.3587 -1.7522 -2.7838
  447MOL0     H61664   4.732   2.377   5.040 -1.6148 -0.4938 -0.0676
  447MOL0     H61665   4.641   2.368   5.190  0.3910 -3.1082  0.6752
  447MOL0     H61666   5.207   2.828   5.664 -1.8255  2.7351 -0.0776
  447MOL0     H61667   5.368   2.760   5.834 -1.2631 -0.5859 -1.7545
  447MOL0     H61668   5.576   2.908   6.294 -0.0235 -1.4575  1.5139
  447MOL0     H61669   5.777   2.896   6.456 -2.1447 -0.9421  0.0325
  447MOL0     H61670   5.188   3.112   7.827 -0.7911 -0.5600 -0.6403
  447MOL0     H61671   4.953   3.088   7.867 -1.3991 -1.4123 -0.4265
  447MOL0     H61672   4.643   2.834   8.072  1.8267  0.9739 -0.5821
  447MOL0     H61673   4.426   2.890   8.173  0.2769  0.9812 -0.0931
  447MOL0     H61674   4.100   3.046   8.191  0.6706  1.5720  0.5787
  447MOL0     H61675   4.229   2.924   8.234  0.7695  1.2737  1.1396
  447MOL0     H61676   4.262   3.221   8.136 -1.8461 -1.6292 -0.8922
  447MOL0     H61677   4.390   3.128   8.210 -1.0905  1.2414  2.0216
  447MOL0     H61678   4.123   3.199   8.345  0.3155  1.2265  0.4653
  447MOL0     H61679   4.278   3.132   8.423 -0.0951 -1.8876 -1.4974
  447MOL0     H61680   4.211   3.372   8.465 -0.4382 -0.8327  0.1696
  447MOL0     H61681   4.264   3.409   8.296  3.5360  2.8485  2.3479
  447MOL0     H61682   4.634   3.309   8.474  0.3675  0.5753 -1.7417
  447MOL0     H61683   4.280   3.005   7.782 -2.1547 -5.7736 -0.9803
  447MOL0     H61684   4.569   2.935   7.584 -0.5204 -1.2554  0.5211
  447MOL0     H61685   4.403   2.945   7.592 -0.1440 -1.7030  2.1717
  447MOL0     H61686   4.503   3.089   7.631  1.7116  0.5047  3.1839
  448MOL0     O61687   0.797   7.355   3.675  0.1236  0.0672 -0.8468
  448MOL0     C61688   0.746   7.448   3.618  0.3787 -0.0494  0.7849
  448MOL0     O61689   0.810   7.530   3.542 -0.6893  0.1006  0.0355
  448MOL0     C61690   0.942   7.506   3.520 -0.6506  0.2245 -0.5130
  448MOL0     C61691   0.987   7.393   3.452 -0.0494  0.8432  0.3688
  448MOL0     C61692   1.127   7.366   3.431  0.4253 -0.2252  0.8360
  448MOL0     C61693   1.221   7.456   3.496  0.1522 -0.0562  0.3048
  448MOL0     O61694   1.356   7.434   3.489 -0.4173 -0.6266 -0.1874
  448MOL0     C61695   1.400   7.299   3.487  0.3224 -0.1864 -0.6450
  448MOL0     C61696   1.555   7.306   3.453 -0.0143 -0.0116 -1.0577
  448MOL0     C61697   1.634   7.349   3.593  0.2619 -0.6643  0.1232
  448MOL0     C61698   1.782   7.356   3.561 -0.1048 -0.3205  0.2776
  448MOL0     C61699   1.868   7.402   3.686  0.3785 -0.4706  0.1092
  448MOL0     C61700   2.014   7.410   3.662 -0.1464  0.0607  0.6275
  448MOL0     C61701   2.103   7.413   3.792  0.0201 -0.2635  0.9264
  448MOL0     C61702   2.087   7.301   3.899  0.1580  0.4512 -0.4132
  448MOL0     N61703   2.166   7.180   3.867 -0.0972  0.3421  0.1675
  448MOL0     C61704   2.227   7.111   3.963  0.2347  0.3722 -0.5526
  448MOL0     C61705   2.281   7.010   3.899 -0.0137  0.6810 -0.0900
  448MOL0     C61706   2.370   6.901   3.965  0.1039  0.0255  0.2406
  448MOL0     C61707   2.488   6.968   4.045  0.3471  0.2024 -0.0223
  448MOL0     C61708   2.590   6.867   4.078 -0.4327  0.1048 -0.7679
  448MOL0     C61709   2.719   6.921   4.140  0.8199 -0.6982 -0.4492
  448MOL0     O61710   2.807   6.812   4.146 -0.4684  0.2975 -0.2140
  448MOL0     C61711   2.927   6.829   4.210 -0.4908  0.5379  0.3371
  448MOL0     C61712   3.002   6.707   4.225 -0.0659  0.2750 -1.0078
  448MOL0     C61713   3.116   6.697   4.301 -0.4601  0.9915  0.7684
  448MOL0     C61714   3.189   6.563   4.305  0.0821 -0.5964 -0.1453
  448MOL0     C61715   3.176   6.815   4.351  0.5538 -0.4985  0.2108
  448MOL0     C61716   3.300   6.817   4.428 -0.2703 -0.2662  0.3242
  448MOL0     O61717   3.404   6.732   4.399 -1.2687  0.5315 -0.0971
  448MOL0     C61718   3.524   6.759   4.468  0.1475  0.2133  0.2866
  448MOL0     C61719   3.618   6.837   4.409 -0.2669 -0.7990  0.3139
  448MOL0     C61720   3.738   6.861   4.479  0.1383  0.0406  0.6793
  448MOL0     C61721   3.756   6.827   4.611 -0.1524  0.5491 -0.0259
  448MOL0     O61722   3.872   6.852   4.685 -0.3672 -0.2029  0.3784
  448MOL0     C61723   3.895   6.991   4.711  0.6013 -0.0852 -0.5757
  448MOL0     C61724   3.803   7.039   4.827 -0.0579 -0.2578 -0.0577
  448MOL0     C61725   3.839   6.963   4.954  0.2179  0.4184 -0.5225
  448MOL0     C61726   3.803   7.041   5.082  0.2374 -0.7798 -0.4688
  448MOL0     C61727   3.820   6.954   5.199 -0.1544 -0.1351  0.4325
  448MOL0     C61728   3.959   6.916   5.228  0.0983  0.4396 -0.1405
  448MOL0     C61729   3.943   6.819   5.342  0.0755 -0.1808 -0.6183
  448MOL0     C61730   4.084   6.762   5.369  0.5983  0.6073  1.0547
  448MOL0    Cl61731   4.075   6.642   5.501 -0.2392  0.0744  0.5567
  448MOL0     C61732   3.665   6.743   4.673  0.1746 -0.1320  0.2872
  448MOL0     C61733   3.546   6.722   4.599  0.0599  0.3794  0.7872
  448MOL0     O61734   3.313   6.922   4.495  0.2115 -0.0252 -0.0332
  448MOL0     C61735   3.099   6.939   4.335  0.3375 -0.4861  0.4125
  448MOL0     C61736   2.981   6.951   4.256  0.3801  0.2104 -0.2454
  448MOL0     N61737   2.253   7.016   3.765 -0.9997 -0.0299  0.3741
  448MOL0     N61738   2.183   7.123   3.742 -0.0376  1.0958  0.5307
  448MOL0     C61739   1.176   7.566   3.570 -0.5317 -0.9759 -0.1539
  448MOL0     C61740   1.037   7.588   3.580  0.2733  0.1148  0.0644
  448MOL0     C61741   0.605   7.468   3.640  0.2563  0.7103 -0.1174
  448MOL0     C61742   0.522   7.353   3.685 -1.0314 -0.5620 -0.7006
  448MOL0     C61743   0.389   7.365   3.715  1.1099  0.4184  0.1185
  448MOL0     C61744   0.325   7.488   3.677  0.1420  0.4946 -0.2386
  448MOL0     O61745   0.193   7.503   3.705  0.2490 -0.4809 -0.3933
  448MOL0     C61746   0.125   7.627   3.711 -0.7672 -0.2536  0.2422
  448MOL0     C61747  -0.016   7.631   3.788 -0.4025  0.3239  0.6335
  448MOL0     C61748   0.005   7.625   3.939 -0.5920  0.1061 -0.2628
  448MOL0     C61749   0.027   7.765   4.003  0.0581  0.0744 -0.8908
  448MOL0     C61750   0.164   7.803   3.998 -0.4985  0.3461  0.0006
  448MOL0     C61751   0.277   7.852   3.998 -0.2755  0.2042  0.2566
  448MOL0     C61752   0.399   7.594   3.625 -0.1222 -0.0639 -0.5598
  448MOL0     C61753   0.543   7.587   3.623  0.3647 -0.5587 -0.2993
  448MOL0     C61754   0.611   7.723   3.603 -0.0438 -0.1008  0.0263
  448MOL0     H61755   0.908   7.333   3.408 -0.9408  1.8168  0.6226
  448MOL0     H61756   1.146   7.283   3.363  1.1027  1.4243 -1.0823
  448MOL0     H61757   1.358   7.235   3.410  0.5163 -0.0370 -0.8785
  448MOL0     H61758   1.386   7.254   3.586 -1.7316  1.0961 -0.2955
  448MOL0     H61759   1.602   7.215   3.415  0.5333 -0.1352 -0.1007
  448MOL0     H61760   1.571   7.386   3.379  0.0249  0.5848 -0.4175
  448MOL0     H61761   1.597   7.443   3.635 -0.7158 -0.8233 -0.3475
  448MOL0     H61762   1.616   7.272   3.668  1.4798 -0.2547  0.8587
  448MOL0     H61763   1.817   7.259   3.525 -0.1519  0.5887 -2.4872
  448MOL0     H61764   1.798   7.429   3.481 -1.6228 -0.4356 -0.1723
  448MOL0     H61765   1.837   7.349   3.777 -3.4908  2.2636  0.6305
  448MOL0     H61766   1.844   7.509   3.690  0.0893 -0.5691  1.6594
  448MOL0     H61767   2.049   7.331   3.594 -3.0179  0.9243 -2.1262
  448MOL0     H61768   2.025   7.499   3.599 -2.5523 -0.5542 -0.8222
  448MOL0     H61769   2.064   7.500   3.845  0.4324 -0.6349  1.8704
  448MOL0     H61770   2.209   7.429   3.768 -0.3585 -0.7131 -1.3076
  448MOL0     H61771   2.125   7.350   3.989  0.5797 -2.7826  1.3072
  448MOL0     H61772   1.984   7.271   3.919  0.5515  0.0578  1.1831
  448MOL0     H61773   2.240   7.136   4.068 -2.9607 -4.3568  1.3169
  448MOL0     H61774   2.398   6.830   3.887  0.6626 -0.2041  0.6464
  448MOL0     H61775   2.306   6.851   4.038 -2.4723  1.8745 -0.6104
  448MOL0     H61776   2.521   7.055   3.988  2.2585 -1.4782 -1.6083
  448MOL0     H61777   2.448   7.000   4.141  0.7809  1.7511 -0.3354
  448MOL0     H61778   2.547   6.787   4.139  2.3656 -0.4761  0.5941
  448MOL0     H61779   2.614   6.812   3.987 -1.4370  1.3213 -1.8073
  448MOL0     H61780   2.762   6.997   4.074  1.1358  0.3848  0.9470
  448MOL0     H61781   2.694   6.965   4.237 -2.0439  1.0429 -1.8201
  448MOL0     H61782   2.964   6.623   4.167  2.9324 -0.5627 -1.9423
  448MOL0     H61783   3.281   6.565   4.246  0.2555 -1.3309  0.0821
  448MOL0     H61784   3.129   6.483   4.261 -1.5595  0.8155 -0.5746
  448MOL0     H61785   3.207   6.544   4.412 -0.3986  0.7914  0.1989
  448MOL0     H61786   3.602   6.874   4.308 -2.3314 -0.0465  0.8595
  448MOL0     H61787   3.811   6.919   4.423 -1.7336  1.1061 -0.7616
  448MOL0     H61788   3.996   7.011   4.747  1.5205  0.3601 -3.2063
  448MOL0     H61789   3.887   7.060   4.627  0.5839  0.0658 -0.4512
  448MOL0     H61790   3.831   7.145   4.836  0.3595 -0.3341 -0.4413
  448MOL0     H61791   3.694   7.034   4.813 -0.4903  2.1616  1.7740
  448MOL0     H61792   3.948   6.949   4.961  0.5562  3.1746  1.9308
  448MOL0     H61793   3.783   6.870   4.942 -1.5409  1.4466 -0.5092
  448MOL0     H61794   3.697   7.066   5.093  0.4987 -0.6764  2.7560
  448MOL0     H61795   3.856   7.135   5.098 -0.4939 -0.5632  0.8587
  448MOL0     H61796   3.787   7.013   5.285  3.1650  0.7804  1.2318
  448MOL0     H61797   3.756   6.866   5.191 -0.6722  0.2472  0.3613
  448MOL0     H61798   4.016   7.006   5.252  1.9490 -0.2302 -1.7220
  448MOL0     H61799   4.007   6.871   5.141 -0.1202  0.2497 -0.1650
  448MOL0     H61800   3.881   6.732   5.318 -0.8966 -0.0364  1.1785
  448MOL0     H61801   3.902   6.864   5.433  1.0678  0.0884 -0.2919
  448MOL0     H61802   4.157   6.838   5.396 -0.2433  2.0243 -0.4987
  448MOL0     H61803   4.121   6.706   5.283 -0.8832  0.1867  0.6640
  448MOL0     H61804   3.681   6.704   4.773 -1.3496 -0.2645  0.5026
  448MOL0     H61805   3.465   6.659   4.634 -0.1154 -0.3770 -0.8583
  448MOL0     H61806   3.134   7.032   4.379  1.0468 -0.4026 -0.3112
  448MOL0     H61807   2.924   7.043   4.248  3.6036  2.4252  0.6458
  448MOL0     H61808   1.248   7.623   3.627  1.4056 -3.2337 -0.2125
  448MOL0     H61809   1.006   7.679   3.629  0.0968  0.3276 -0.4304
  448MOL0     H61810   0.572   7.257   3.693 -0.4496 -0.2305 -0.3033
  448MOL0     H61811   0.329   7.278   3.741 -1.1335  2.3503  1.8481
  448MOL0     H61812   0.198   7.696   3.754 -0.4331 -1.7644  2.2547
  448MOL0     H61813   0.107   7.674   3.614  1.6327  1.2546  0.4508
  448MOL0     H61814  -0.079   7.547   3.759 -1.3288  0.3651  2.3468
  448MOL0     H61815  -0.080   7.712   3.750 -2.2793 -1.9915 -1.4296
  448MOL0     H61816  -0.085   7.586   3.987  0.2074 -0.4656  0.8270
  448MOL0     H61817   0.094   7.564   3.956  1.1694  1.4570 -3.7100
  448MOL0     H61818  -0.001   7.764   4.109 -0.1136  2.7659 -0.8391
  448MOL0     H61819  -0.024   7.851   3.958 -1.7085 -0.8807 -0.7971
  448MOL0     H61820   0.372   7.901   3.999 -0.9922  1.6280  1.4370
  448MOL0     H61821   0.351   7.686   3.593 -1.6645  0.1077  1.9845
  448MOL0     H61822   0.713   7.714   3.640  0.2726 -0.7124 -0.9677
  448MOL0     H61823   0.613   7.750   3.497 -2.0125 -0.0596 -0.0456
  448MOL0     H61824   0.565   7.794   3.673 -0.6848  1.4710 -1.8890
  449MOL0     O61825   7.342   2.355   3.778  0.2873 -0.0812  0.1259
  449MOL0     C61826   7.225   2.409   3.759  0.4925 -0.1483 -0.1148
  449MOL0     O61827   7.196   2.541   3.770 -0.2326  0.7639  0.8208
  449MOL0     C61828   7.299   2.616   3.821  0.1249 -0.2962 -1.1907
  449MOL0     C61829   7.289   2.669   3.954 -0.2766  0.0265 -0.5386
  449MOL0     C61830   7.382   2.772   4.004  0.0443  0.6763  0.9693
  449MOL0     C61831   7.485   2.797   3.923 -0.5815  1.0981  0.1432
  449MOL0     O61832   7.592   2.875   3.980  0.0506  0.5546 -0.2127
  449MOL0     C61833   7.633   2.857   4.116 -0.3095 -0.9359  0.0743
  449MOL0     C61834   7.789   2.859   4.133 -0.4532 -0.1203 -0.3778
  449MOL0     C61835   7.844   3.000   4.106  0.1134  0.2984 -0.6836
  449MOL0     C61836   7.994   3.015   4.110 -0.4634  0.1004 -0.2165
  449MOL0     C61837   8.069   2.949   4.231 -0.2423 -0.0178 -0.1787
  449MOL0     C61838   8.036   3.013   4.366  0.0784 -0.0310 -0.3886
  449MOL0     C61839   8.095   3.150   4.370 -0.1574  0.0549  0.2081
  449MOL0     C61840   8.124   3.189   4.518  0.4656  0.6401  0.2736
  449MOL0     N61841   8.185   3.323   4.530 -0.0335  0.8031 -0.9801
  449MOL0     C61842   8.321   3.334   4.546 -0.6674 -0.1423  1.0035
  449MOL0     C61843   8.347   3.469   4.540  0.0586 -0.0660  0.1092
  449MOL0     C61844   8.478   3.546   4.538 -0.0709  0.1426  0.0383
  449MOL0     C61845   8.540   3.551   4.677 -0.5135  0.7164  0.9597
  449MOL0     C61846   8.585   3.415   4.737 -0.1197  0.0621 -0.5580
  449MOL0     C61847   8.688   3.420   4.844 -0.1908  0.6753 -1.1868
  449MOL0     O61848   8.815   3.471   4.803  0.1467 -0.9170  0.4696
  449MOL0     C61849   8.913   3.520   4.890 -0.2768  0.0835 -0.0182
  449MOL0     C61850   8.934   3.483   5.018 -0.4575 -0.1972 -0.2387
  449MOL0     C61851   9.037   3.520   5.095 -0.5341 -0.4020  0.1970
  449MOL0     C61852   9.045   3.464   5.238  0.1212 -0.6156 -0.5282
  449MOL0     C61853   9.126   3.615   5.039  0.3279 -0.5591 -0.4564
  449MOL0     C61854   9.225   3.690   5.113 -0.7702  0.0588 -0.5260
  449MOL0     O61855   9.322   3.731   5.042 -0.1494 -1.2256 -0.4912
  449MOL0     C61856   9.417   3.824   5.099  0.5477 -0.8804  0.5733
  449MOL0     C61857   9.554   3.818   5.063  0.2726 -0.4753 -0.2915
  449MOL0     C61858   9.649   3.900   5.121  0.0835  0.1156 -0.2404
  449MOL0     C61859   9.610   4.002   5.205  0.5114  0.6637  0.9580
  449MOL0     O61860   9.700   4.072   5.272 -0.4748 -0.5270 -0.3556
  449MOL0     C61861   9.836   4.015   5.306  0.4431 -0.6091  0.6545
  449MOL0     C61862   9.893   4.082   5.426 -0.6659 -0.3601  0.0384
  449MOL0     C61863  10.019   4.007   5.477  0.1223  0.0714 -0.3521
  449MOL0     C61864  10.080   4.067   5.606  0.8055  0.2728 -0.2939
  449MOL0     C61865  10.231   4.065   5.609 -0.5755 -0.1097 -0.3875
  449MOL0     C61866  10.284   4.134   5.735 -0.0403 -0.9922 -0.0310
  449MOL0     C61867  10.328   4.281   5.715 -1.0256 -0.4933  0.1468
  449MOL0     C61868  10.374   4.347   5.843  0.5362 -0.1800 -0.3725
  449MOL0    Cl61869  10.531   4.265   5.884 -0.1749 -0.0700  0.6393
  449MOL0     C61870   9.479   4.023   5.235 -0.9532 -0.8969  0.0371
  449MOL0     C61871   9.380   3.940   5.175  0.0643  0.5801  0.1269
  449MOL0     O61872   9.208   3.712   5.238  0.6499  0.2696 -0.0144
  449MOL0     C61873   9.121   3.647   4.900 -0.3928  0.2754 -0.0384
  449MOL0     C61874   9.009   3.603   4.825  0.4823  0.3663 -0.1586
  449MOL0     N61875   8.225   3.525   4.506  0.5860 -0.2542 -0.2375
  449MOL0     N61876   8.131   3.438   4.495 -0.0185  1.1518  0.0198
  449MOL0     C61877   7.502   2.743   3.794 -0.8679  0.3022  0.0128
  449MOL0     C61878   7.403   2.660   3.739 -0.1631 -0.1601 -0.0871
  449MOL0     C61879   7.105   2.314   3.751  0.1662  0.0014  0.1205
  449MOL0     C61880   6.979   2.381   3.735  0.1267  0.4877  0.0066
  449MOL0     C61881   6.860   2.308   3.716 -0.1926 -0.0165 -0.0761
  449MOL0     C61882   6.859   2.172   3.735 -0.1566  0.4009  0.2527
  449MOL0     O61883   6.748   2.086   3.717  0.4240 -0.6285  0.4294
  449MOL0     C61884   6.628   2.147   3.650 -0.2238  0.7466 -0.0581
  449MOL0     C61885   6.533   2.031   3.631 -0.2892 -0.2850 -0.8260
  449MOL0     C61886   6.433   2.068   3.526  0.2593 -0.0274  0.5026
  449MOL0     C61887   6.350   1.934   3.500 -0.2808  0.6574  0.3872
  449MOL0     C61888   6.225   1.976   3.433  0.1335 -0.4924 -0.4088
  449MOL0     C61889   6.124   2.012   3.388 -1.1692  0.0634  0.8047
  449MOL0     C61890   6.982   2.108   3.761 -0.1626 -0.7246  0.0288
  449MOL0     C61891   7.102   2.175   3.772 -0.3555 -0.0322  0.3019
  449MOL0     C61892   7.225   2.095   3.794 -0.2158 -0.7233 -0.0010
  449MOL0     H61893   7.203   2.645   4.016 -1.1871  1.1874 -1.3001
  449MOL0     H61894   7.370   2.829   4.096 -1.1773  2.2766 -0.1292
  449MOL0     H61895   7.597   2.758   4.149  1.1005 -1.9330 -1.2283
  449MOL0     H61896   7.584   2.938   4.171 -0.2482 -0.7392 -0.1633
  449MOL0     H61897   7.815   2.824   4.233 -1.4871 -2.7636 -0.9575
  449MOL0     H61898   7.845   2.788   4.072  3.6130 -0.3646  3.1238
  449MOL0     H61899   7.798   3.037   4.014 -0.3640  1.0847 -0.1457
  449MOL0     H61900   7.804   3.071   4.180  0.2350  0.6251 -0.9327
  449MOL0     H61901   8.038   2.980   4.016  4.2445  1.1095  1.3393
  449MOL0     H61902   8.005   3.124   4.117 -0.1207  0.0154  0.6773
  449MOL0     H61903   8.177   2.962   4.218 -0.2128 -1.4589 -1.7742
  449MOL0     H61904   8.036   2.845   4.225 -2.8042  0.4159  3.2561
  449MOL0     H61905   7.928   3.015   4.382  0.5339 -0.3266  4.1100
  449MOL0     H61906   8.085   2.950   4.442  1.8171  1.9887  0.2593
  449MOL0     H61907   8.029   3.221   4.318 -0.2628  1.5317  2.2333
  449MOL0     H61908   8.196   3.154   4.330 -0.3519  0.4183 -0.2588
  449MOL0     H61909   8.033   3.174   4.576  1.8746 -1.7299  2.0442
  449MOL0     H61910   8.191   3.112   4.558 -0.2889 -0.2692 -0.1896
  449MOL0     H61911   8.401   3.265   4.569  1.7073  1.7128 -1.0106
  449MOL0     H61912   8.468   3.652   4.511 -2.1047  0.4508  1.8049
  449MOL0     H61913   8.548   3.492   4.473  0.6120 -2.4798  2.7539
  449MOL0     H61914   8.618   3.627   4.676 -2.2222  2.5764  0.8482
  449MOL0     H61915   8.476   3.590   4.758 -3.0915 -3.5440  1.3004
  449MOL0     H61916   8.497   3.364   4.777 -0.1058 -0.0643 -0.6868
  449MOL0     H61917   8.619   3.348   4.657  2.4179  1.9244 -1.1480
  449MOL0     H61918   8.653   3.485   4.925  0.2739 -1.3124  0.7023
  449MOL0     H61919   8.692   3.318   4.883 -2.0466  1.6414  1.9719
  449MOL0     H61920   8.866   3.412   5.064  0.4803 -2.2669 -1.8945
  449MOL0     H61921   9.105   3.373   5.235  0.6302 -0.2559 -3.2187
  449MOL0     H61922   8.941   3.451   5.272  1.1866 -1.4285  2.8077
  449MOL0     H61923   9.082   3.537   5.312 -0.9306  2.6120 -2.9298
  449MOL0     H61924   9.605   3.743   5.003  3.1932  0.2032  1.1392
  449MOL0     H61925   9.756   3.883   5.109  0.6252 -0.3487  3.9022
  449MOL0     H61926   9.823   3.907   5.323 -0.4710 -0.5754  0.2454
  449MOL0     H61927   9.895   4.035   5.217 -2.3709 -0.9640 -1.4201
  449MOL0     H61928   9.925   4.184   5.405  1.9038 -1.2746 -0.8533
  449MOL0     H61929   9.821   4.087   5.508  2.5456 -2.3469  3.2477
  449MOL0     H61930  10.098   4.003   5.401 -0.6997  0.0527 -1.2205
  449MOL0     H61931  10.003   3.902   5.500 -2.8622  1.0801  3.0580
  449MOL0     H61932  10.032   4.018   5.691 -0.3784  1.7153 -0.0984
  449MOL0     H61933  10.043   4.170   5.600  0.4145  0.0614 -2.5053
  449MOL0     H61934  10.266   3.962   5.600 -0.0983  0.1176 -1.2094
  449MOL0     H61935  10.273   4.114   5.521 -0.9348 -0.9075 -1.0155
  449MOL0     H61936  10.369   4.070   5.763 -0.2642 -0.9990  0.6429
  449MOL0     H61937  10.219   4.124   5.822 -0.8645  2.1088 -0.1678
  449MOL0     H61938  10.238   4.332   5.681 -0.1537  1.5189  0.6864
  449MOL0     H61939  10.402   4.295   5.635 -2.5603 -3.7269 -2.0862
  449MOL0     H61940  10.292   4.313   5.906  2.6012 -2.9181  1.0148
  449MOL0     H61941  10.376   4.457   5.846 -2.1846 -0.0186  3.7184
  449MOL0     H61942   9.463   4.105   5.304 -3.2291  0.8387 -2.3317
  449MOL0     H61943   9.276   3.967   5.188 -1.3280 -3.0719 -2.0065
  449MOL0     H61944   9.194   3.706   4.846 -0.4386  1.1289  0.8119
  449MOL0     H61945   8.989   3.638   4.724 -0.8316  0.7821  0.2288
  449MOL0     H61946   7.573   2.784   3.722 -1.5644  1.5141 -0.0147
  449MOL0     H61947   7.407   2.617   3.640 -1.2120  0.1443 -0.2680
  449MOL0     H61948   6.974   2.483   3.698  1.5066  1.0504  1.2863
  449MOL0     H61949   6.778   2.374   3.690 -0.3857  1.1307  3.0341
  449MOL0     H61950   6.573   2.223   3.705 -2.3208  0.0404 -1.0628
  449MOL0     H61951   6.656   2.195   3.556  0.1923  1.3476  0.3703
  449MOL0     H61952   6.493   2.012   3.732  1.8149  2.6482  0.6889
  449MOL0     H61953   6.579   1.940   3.593 -0.1602 -0.3184 -0.5898
  449MOL0     H61954   6.374   2.150   3.568 -1.3704 -0.0476 -1.5964
  449MOL0     H61955   6.473   2.097   3.428  2.4743  0.1222  1.3903
  449MOL0     H61956   6.337   1.886   3.597 -3.8028 -1.0676 -0.7907
  449MOL0     H61957   6.407   1.868   3.434 -1.9877 -0.1427 -0.3310
  449MOL0     H61958   6.034   2.040   3.338 -0.1141  0.3284 -1.0257
  449MOL0     H61959   6.989   2.000   3.769  2.8635 -0.7182 -1.2914
  449MOL0     H61960   7.260   2.114   3.896 -1.3005 -0.4881  0.3299
  449MOL0     H61961   7.209   1.989   3.772 -1.4748 -0.7412  0.9235
  449MOL0     H61962   7.296   2.130   3.718 -0.4487  1.3795  0.6989
  450MOL0     O61963   0.309   7.287   9.234  0.0232 -0.0914  0.5708
  450MOL0     C61964   0.299   7.204   9.320 -1.4208  0.7814 -0.7383
  450MOL0     O61965   0.396   7.169   9.407  0.3040 -0.1702  0.1008
  450MOL0     C61966   0.529   7.210   9.406 -0.3377  0.9597  0.6823
  450MOL0     C61967   0.599   7.184   9.519  0.2803 -0.7327 -0.4381
  450MOL0     C61968   0.731   7.229   9.537 -0.0524  0.1055  0.1822
  450MOL0     C61969   0.808   7.266   9.425 -0.4101  0.3610  1.4077
  450MOL0     O61970   0.940   7.286   9.429  0.1048 -0.0892  0.0169
  450MOL0     C61971   1.030   7.259   9.318 -0.8206 -0.3477 -0.0019
  450MOL0     C61972   1.145   7.156   9.363  0.2390 -1.1486  0.0553
  450MOL0     C61973   1.245   7.140   9.245 -0.6118  0.2956 -0.0014
  450MOL0     C61974   1.342   7.032   9.288  0.0874 -0.7195 -0.2840
  450MOL0     C61975   1.446   7.009   9.175  1.0338 -0.5495  0.2580
  450MOL0     C61976   1.578   6.941   9.221 -0.1411 -0.3132  0.0550
  450MOL0     C61977   1.564   6.829   9.328  0.3889  0.7191  0.3470
  450MOL0     C61978   1.695   6.748   9.334 -0.5217 -0.0993 -0.0748
  450MOL0     N61979   1.810   6.838   9.341  0.2191 -0.7803  0.0631
  450MOL0     C61980   1.840   6.909   9.451 -0.3072 -0.5296 -0.3396
  450MOL0     C61981   1.952   6.972   9.417 -0.6860 -0.0960 -0.1159
  450MOL0     C61982   2.035   7.054   9.515 -0.7448 -0.3637  0.7173
  450MOL0     C61983   2.175   7.070   9.459 -0.3917  0.3174  0.3277
  450MOL0     C61984   2.254   7.166   9.547 -0.3426  0.7717 -0.3229
  450MOL0     C61985   2.203   7.306   9.532  0.3137 -0.3118  0.3290
  450MOL0     O61986   2.293   7.406   9.585 -0.2336  0.4674  0.7832
  450MOL0     C61987   2.410   7.437   9.519  0.2330 -0.2479 -0.2571
  450MOL0     C61988   2.483   7.547   9.571  0.7056 -0.1056 -0.8578
  450MOL0     C61989   2.595   7.605   9.500 -0.4046 -0.5394  0.0319
  450MOL0     C61990   2.665   7.717   9.569  0.0431  0.0290  0.5413
  450MOL0     C61991   2.640   7.558   9.378 -0.0871  0.2664 -0.1863
  450MOL0     C61992   2.770   7.594   9.308 -0.0832  0.0562 -0.0592
  450MOL0     O61993   2.778   7.716   9.257  0.3436 -0.0730  0.0705
  450MOL0     C61994   2.890   7.759   9.194  0.5197 -0.1857  0.2124
  450MOL0     C61995   2.875   7.785   9.055 -0.3863 -0.3414  0.6566
  450MOL0     C61996   2.989   7.837   8.985  0.0877 -0.5478 -0.1072
  450MOL0     C61997   3.118   7.852   9.042 -0.4176 -0.1585  0.8373
  450MOL0     O61998   3.230   7.872   8.972 -0.1643  0.1645  0.1794
  450MOL0     C61999   3.231   7.847   8.829  0.0318 -0.4952 -0.1207
  450MOL0     C62000   3.373   7.798   8.794 -0.6593 -1.2618  0.3296
  450MOL0     C62001   3.477   7.906   8.823  0.8274 -0.3308  0.1194
  450MOL0     C62002   3.625   7.865   8.798  0.0220 -0.1681 -0.3271
  450MOL0     C62003   3.726   7.982   8.828 -0.5533  0.7524 -0.2402
  450MOL0     C62004   3.860   7.941   8.764 -0.7992  1.0580 -0.4006
  450MOL0     C62005   3.977   8.041   8.791  0.3075  0.5008 -0.6247
  450MOL0     C62006   4.114   7.975   8.761  0.2932 -0.0233  1.1878
  450MOL0    Cl62007   4.125   7.987   8.583 -0.2957 -0.2602 -0.2720
  450MOL0     C62008   3.128   7.830   9.181 -0.3010  0.2522  0.6936
  450MOL0     C62009   3.010   7.788   9.256  0.1340 -1.1893  0.0804
  450MOL0     O62010   2.861   7.511   9.282 -0.3809 -0.0362  0.4869
  450MOL0     C62011   2.567   7.447   9.321  0.2131  0.1448 -0.2721
  450MOL0     C62012   2.448   7.399   9.390 -1.0766 -0.4133  0.1909
  450MOL0     N62013   1.994   6.940   9.288  0.6600  0.3402 -0.0748
  450MOL0     N62014   1.905   6.857   9.241  0.3512  0.6720  0.0802
  450MOL0     C62015   0.737   7.293   9.304 -0.4352 -0.1831 -0.8075
  450MOL0     C62016   0.598   7.264   9.293 -1.1946 -0.2489  0.3625
  450MOL0     C62017   0.172   7.154   9.355  0.2771  0.1722 -0.6103
  450MOL0     C62018   0.161   7.053   9.453  0.1928 -0.4879  0.5956
  450MOL0     C62019   0.041   6.993   9.496  0.4556 -0.4615 -0.0051
  450MOL0     C62020  -0.079   7.022   9.445  0.1253 -0.4315  0.4362
  450MOL0     O62021  -0.184   6.937   9.499 -0.0947 -0.5222  0.3715
  450MOL0     C62022  -0.313   6.949   9.435 -0.2260  0.5730  0.0750
  450MOL0     C62023  -0.417   6.860   9.513 -0.6872 -0.3040  0.0079
  450MOL0     C62024  -0.392   6.714   9.513 -0.4809 -0.1551 -0.3354
  450MOL0     C62025  -0.485   6.627   9.601 -0.3832  0.9386  0.3969
  450MOL0     C62026  -0.450   6.659   9.734 -0.1751 -0.4730  0.0526
  450MOL0     C62027  -0.416   6.672   9.851 -0.8121  0.6093 -0.9935
  450MOL0     C62028  -0.085   7.133   9.349  0.2041 -1.1551 -0.1717
  450MOL0     C62029   0.037   7.193   9.300 -0.5236  0.8395 -0.9841
  450MOL0     C62030   0.021   7.309   9.208  0.6932 -0.2807 -0.2004
  450MOL0     H62031   0.545   7.140   9.603  0.4843 -2.0043 -0.9607
  450MOL0     H62032   0.783   7.210   9.630  1.4963 -1.0688 -0.8817
  450MOL0     H62033   1.084   7.340   9.267  2.2122 -2.4097 -0.3165
  450MOL0     H62034   0.979   7.207   9.236  0.8774 -1.0110 -0.6724
  450MOL0     H62035   1.194   7.191   9.454 -1.4973 -0.0606  0.6240
  450MOL0     H62036   1.101   7.063   9.397 -0.9941  0.3794  3.0011
  450MOL0     H62037   1.186   7.113   9.157 -3.3812 -1.4816  2.2238
  450MOL0     H62038   1.305   7.230   9.231  1.0774 -0.8823 -0.6632
  450MOL0     H62039   1.394   7.047   9.383 -0.0737  0.7364 -0.4010
  450MOL0     H62040   1.293   6.939   9.317  0.9048 -0.3640  2.5909
  450MOL0     H62041   1.473   7.095   9.113  2.2623 -1.4807 -0.5416
  450MOL0     H62042   1.398   6.938   9.108 -1.5329 -0.1111  1.4830
  450MOL0     H62043   1.616   6.885   9.134  2.1573 -0.3594  1.0053
  450MOL0     H62044   1.649   7.023   9.238 -2.7208  2.1925 -0.5369
  450MOL0     H62045   1.471   6.780   9.295 -0.0693  2.0703 -0.4347
  450MOL0     H62046   1.542   6.878   9.424  1.3737  0.1593  0.8730
  450MOL0     H62047   1.691   6.678   9.418 -2.2910 -0.6595 -0.5738
  450MOL0     H62048   1.698   6.688   9.242 -1.6844  2.4162 -1.8590
  450MOL0     H62049   1.778   6.925   9.539 -1.5690  2.7964 -1.6630
  450MOL0     H62050   2.041   6.998   9.608  0.8132 -2.8011 -0.7339
  450MOL0     H62051   1.990   7.154   9.522  1.9350  0.8789  1.2778
  450MOL0     H62052   2.222   6.971   9.458  0.3770  0.6693  0.9444
  450MOL0     H62053   2.166   7.107   9.356  0.0209 -3.5977 -1.3026
  450MOL0     H62054   2.235   7.135   9.650  0.9050 -0.5163 -0.4512
  450MOL0     H62055   2.362   7.162   9.532  0.0335  2.3619  1.6170
  450MOL0     H62056   2.188   7.322   9.424  3.8632  1.9440  0.0023
  450MOL0     H62057   2.104   7.314   9.577 -1.2711  0.3818 -2.9481
  450MOL0     H62058   2.450   7.575   9.670 -3.3826 -2.0920 -1.4483
  450MOL0     H62059   2.712   7.682   9.662  1.4926 -0.5206 -0.3590
  450MOL0     H62060   2.582   7.782   9.599 -2.1175 -1.8223 -1.0966
  450MOL0     H62061   2.735   7.768   9.502 -0.9898 -2.2408 -2.4775
  450MOL0     H62062   2.779   7.777   9.005 -0.9127 -1.5691  1.7829
  450MOL0     H62063   2.975   7.867   8.881  0.1547 -1.7306 -0.4733
  450MOL0     H62064   3.154   7.773   8.806  0.0438 -0.5957  0.1651
  450MOL0     H62065   3.207   7.933   8.765 -1.9032 -1.1234 -0.3224
  450MOL0     H62066   3.393   7.708   8.853 -0.8066 -0.6343  1.3459
  450MOL0     H62067   3.375   7.780   8.686  1.3196  1.2542 -0.1395
  450MOL0     H62068   3.469   7.936   8.928  0.0198  3.6413 -0.9376
  450MOL0     H62069   3.453   7.998   8.770 -3.7843  1.1358  4.0257
  450MOL0     H62070   3.632   7.836   8.693 -0.6752  2.2273 -1.0892
  450MOL0     H62071   3.652   7.774   8.854  2.0633  0.6910  0.1602
  450MOL0     H62072   3.692   8.077   8.786  0.4978  0.0277 -2.9703
  450MOL0     H62073   3.731   7.989   8.937  1.7502 -2.1270 -0.0349
  450MOL0     H62074   3.855   7.920   8.657  4.7237 -1.4340 -0.5461
  450MOL0     H62075   3.878   7.843   8.810  0.9060  1.0897 -0.9335
  450MOL0     H62076   3.973   8.076   8.895  1.1829  0.4449 -0.5638
  450MOL0     H62077   3.965   8.130   8.728 -0.1785  0.2976 -0.8202
  450MOL0     H62078   4.111   7.872   8.796  1.5719 -0.4369  0.1835
  450MOL0     H62079   4.190   8.042   8.802  2.4246 -1.6304  0.0951
  450MOL0     H62080   3.223   7.846   9.231  0.3740  2.4307 -1.0982
  450MOL0     H62081   3.012   7.765   9.362  1.2382 -1.4327  0.0107
  450MOL0     H62082   2.598   7.406   9.225 -0.6647 -0.7980 -0.1724
  450MOL0     H62083   2.377   7.338   9.336 -2.6457  0.0296  1.6531
  450MOL0     H62084   0.792   7.343   9.225  0.2229 -0.6763 -0.6734
  450MOL0     H62085   0.560   7.293   9.196 -1.0354  1.9369  0.8982
  450MOL0     H62086   0.250   7.012   9.500  0.6297 -0.2912 -0.0576
  450MOL0     H62087   0.034   6.930   9.585 -0.1981  2.2281  1.9916
  450MOL0     H62088  -0.344   7.053   9.420  2.7909  1.2760 -2.3139
  450MOL0     H62089  -0.307   6.906   9.334 -0.1627  1.4879 -0.3259
  450MOL0     H62090  -0.513   6.884   9.467 -0.1664  0.2171 -0.8344
  450MOL0     H62091  -0.432   6.894   9.615 -3.6545  1.6546 -0.9469
  450MOL0     H62092  -0.401   6.678   9.410 -2.3018  2.5650 -1.2309
  450MOL0     H62093  -0.288   6.698   9.545 -0.6821 -0.9699 -0.0646
  450MOL0     H62094  -0.477   6.522   9.573 -2.6749 -0.4567  4.2708
  450MOL0     H62095  -0.594   6.637   9.596 -0.5658 -1.2086 -2.1792
  450MOL0     H62096  -0.388   6.677   9.955 -3.3502 -0.4924 -0.1860
  450MOL0     H62097  -0.174   7.181   9.311  1.8958  1.7298 -0.7949
  450MOL0     H62098   0.078   7.277   9.120  2.5903 -0.2510  0.9668
  450MOL0     H62099  -0.083   7.321   9.175 -0.5140 -2.8209  2.2263
  450MOL0     H62100   0.056   7.406   9.245  1.6488 -1.9599  3.7798
  451MOL0     O62101   6.023   0.725   0.557  0.2492  0.7086  0.2064
  451MOL0     C62102   5.932   0.638   0.560 -0.4819  0.3111  0.6078
  451MOL0     O62103   5.888   0.569   0.457 -0.9563  0.9017  0.8474
  451MOL0     C62104   5.973   0.567   0.348  0.0297  1.3114 -0.0076
  451MOL0     C62105   5.970   0.662   0.248 -0.1705 -0.4729 -0.4895
  451MOL0     C62106   6.065   0.670   0.155  0.2549 -0.5057 -0.1651
  451MOL0     C62107   6.161   0.577   0.144  0.2463  0.3941  0.3895
  451MOL0     O62108   6.254   0.600   0.042  0.6767  0.5612 -0.3310
  451MOL0     C62109   6.339   0.490   0.014  0.6756 -0.1407 -0.9450
  451MOL0     C62110   6.412   0.530  -0.108  0.7053 -0.0583 -0.3397
  451MOL0     C62111   6.505   0.413  -0.150  0.3627 -0.6165 -0.1954
  451MOL0     C62112   6.604   0.468  -0.257 -0.0989 -0.4962 -0.6196
  451MOL0     C62113   6.710   0.368  -0.301  0.3202 -0.3744 -0.3615
  451MOL0     C62114   6.801   0.448  -0.398 -0.9149 -0.2779  0.5859
  451MOL0     C62115   6.915   0.354  -0.443  0.3431  0.8723 -0.7281
  451MOL0     C62116   7.029   0.448  -0.493  0.0120  0.1320  0.5678
  451MOL0     N62117   7.030   0.492  -0.630  0.2186 -0.0152  0.5705
  451MOL0     C62118   7.015   0.421  -0.743 -0.3082 -0.3761  0.1595
  451MOL0     C62119   7.012   0.507  -0.845 -0.1715  0.6653  0.5214
  451MOL0     C62120   6.984   0.466  -0.986  0.4236  0.5973 -0.7725
  451MOL0     C62121   7.098   0.513  -1.075 -0.3774 -0.1086  0.3610
  451MOL0     C62122   7.085   0.466  -1.216  0.5237  0.4605  0.3840
  451MOL0     C62123   7.215   0.466  -1.297 -0.4759  0.6824  0.2674
  451MOL0     O62124   7.326   0.436  -1.217  0.2084  0.4079 -0.2135
  451MOL0     C62125   7.448   0.442  -1.287  0.3886  0.2584 -0.4882
  451MOL0     C62126   7.471   0.483  -1.426  0.9569  0.2985 -0.9732
  451MOL0     C62127   7.602   0.482  -1.481  0.1855 -0.2005 -0.5845
  451MOL0     C62128   7.611   0.520  -1.625  0.4600 -1.5661  0.4271
  451MOL0     C62129   7.715   0.434  -1.406  0.7365 -0.3775  0.6197
  451MOL0     C62130   7.847   0.421  -1.455 -0.3857 -0.4630  0.1931
  451MOL0     O62131   7.864   0.406  -1.592  0.2399 -0.1078 -0.0079
  451MOL0     C62132   7.988   0.377  -1.641  0.5169  0.0809 -0.0297
  451MOL0     C62133   8.047   0.259  -1.592  0.0287  0.3855  0.2385
  451MOL0     C62134   8.161   0.211  -1.639  0.2704 -0.0349 -0.2508
  451MOL0     C62135   8.237   0.286  -1.734 -0.2364  0.0633 -0.3006
  451MOL0     O62136   8.359   0.252  -1.790  0.1221  0.2561 -0.1225
  451MOL0     C62137   8.378   0.113  -1.792 -0.1706 -0.7501  0.4722
  451MOL0     C62138   8.493   0.068  -1.885 -0.0084 -0.0553  1.2179
  451MOL0     C62139   8.450   0.091  -2.033 -0.5063  0.3576  0.5793
  451MOL0     C62140   8.572   0.111  -2.132 -0.2030  0.2612  0.0115
  451MOL0     C62141   8.680   0.216  -2.097  0.1277 -0.0395  0.1933
  451MOL0     C62142   8.820   0.173  -2.069 -0.3410 -0.2545 -0.2025
  451MOL0     C62143   8.877   0.084  -2.176 -0.6930 -0.0148 -0.3534
  451MOL0     C62144   9.027   0.093  -2.162 -0.5876  0.0359 -0.1914
  451MOL0    Cl62145   9.092   0.256  -2.210  0.5129  0.3940 -0.1111
  451MOL0     C62146   8.181   0.403  -1.780 -0.5880 -0.5715 -1.0367
  451MOL0     C62147   8.052   0.443  -1.740  0.1368  0.3320  0.6406
  451MOL0     O62148   7.939   0.423  -1.375 -0.2185  0.0263  0.2126
  451MOL0     C62149   7.680   0.396  -1.274 -0.1121 -0.1891 -0.6093
  451MOL0     C62150   7.554   0.402  -1.212 -0.2137  0.6024 -0.3617
  451MOL0     N62151   7.027   0.636  -0.793  0.0579 -0.3273 -0.5625
  451MOL0     N62152   7.024   0.622  -0.668  0.5250  0.5823 -0.2619
  451MOL0     C62153   6.162   0.474   0.241 -0.5759 -0.0143  0.9210
  451MOL0     C62154   6.070   0.464   0.339  0.1746 -0.5910  0.0971
  451MOL0     C62155   5.875   0.631   0.697  0.0059 -0.6607  0.0649
  451MOL0     C62156   5.959   0.637   0.808 -0.8550  1.0992  0.6884
  451MOL0     C62157   5.914   0.619   0.939  0.0811 -0.4447 -0.1224
  451MOL0     C62158   5.777   0.613   0.966  0.1179  0.4204  0.4809
  451MOL0     O62159   5.729   0.583   1.090  0.1485 -0.9920  0.0590
  451MOL0     C62160   5.615   0.656   1.127  0.6616  0.5747 -0.2224
  451MOL0     C62161   5.509   0.563   1.165  0.1209  0.4008 -0.4569
  451MOL0     C62162   5.380   0.613   1.226  0.4812  0.7756 -0.1771
  451MOL0     C62163   5.274   0.494   1.222 -0.3619  1.2148  0.5116
  451MOL0     C62164   5.187   0.510   1.340 -0.1353  0.4633 -0.3472
  451MOL0     C62165   5.103   0.534   1.430  1.6239 -0.2352  0.3289
  451MOL0     C62166   5.691   0.615   0.853  0.1208  1.1730  0.8214
  451MOL0     C62167   5.736   0.634   0.718 -0.8357  0.0624 -0.5637
  451MOL0     C62168   5.631   0.642   0.610  0.0616  1.0726  0.3603
  451MOL0     H62169   5.901   0.746   0.256 -1.4428 -1.5089 -0.1609
  451MOL0     H62170   6.071   0.756   0.090  1.5097  1.0953  1.9297
  451MOL0     H62171   6.283   0.396   0.001  0.6852 -0.1996 -0.5519
  451MOL0     H62172   6.402   0.474   0.101  0.6942  3.1964 -0.2418
  451MOL0     H62173   6.343   0.555  -0.189 -1.3235 -0.4228  1.2050
  451MOL0     H62174   6.474   0.619  -0.095 -0.2570  0.7461 -1.0365
  451MOL0     H62175   6.566   0.374  -0.068  0.1369 -3.5394 -1.2770
  451MOL0     H62176   6.444   0.333  -0.194 -0.7945  0.4322 -0.5413
  451MOL0     H62177   6.547   0.490  -0.347 -1.0074  0.7743  0.2318
  451MOL0     H62178   6.658   0.550  -0.209 -0.7714 -1.0801  1.2455
  451MOL0     H62179   6.670   0.279  -0.351 -0.3298 -2.1256  3.0112
  451MOL0     H62180   6.770   0.335  -0.216  1.7706  0.6376 -0.9393
  451MOL0     H62181   6.743   0.475  -0.486 -0.7192 -1.8515 -0.0494
  451MOL0     H62182   6.835   0.545  -0.360 -1.3577  0.0466  0.1502
  451MOL0     H62183   6.889   0.281  -0.521 -0.6852  0.0953  0.3132
  451MOL0     H62184   6.950   0.299  -0.356  0.0646 -0.7375 -1.6037
  451MOL0     H62185   7.055   0.529  -0.425 -1.7258  1.4559 -0.2846
  451MOL0     H62186   7.115   0.381  -0.482 -0.3054 -0.6874 -1.4613
  451MOL0     H62187   7.002   0.314  -0.749 -2.3883 -0.0782 -1.6597
  451MOL0     H62188   6.887   0.506  -1.018  1.0815  1.1643 -2.1637
  451MOL0     H62189   6.974   0.359  -1.004  0.1392  1.0363 -3.7186
  451MOL0     H62190   7.109   0.622  -1.074  1.9076 -0.2557  2.3836
  451MOL0     H62191   7.197   0.490  -1.035 -0.8741 -3.2733  0.0394
  451MOL0     H62192   7.052   0.362  -1.212  2.9916 -0.3634  1.2750
  451MOL0     H62193   7.005   0.522  -1.265 -0.3024 -0.6060  0.4567
  451MOL0     H62194   7.212   0.412  -1.392 -2.4904 -1.0918  1.2511
  451MOL0     H62195   7.223   0.572  -1.322 -2.2390  0.3320 -2.1221
  451MOL0     H62196   7.385   0.517  -1.482  0.0170  2.5538  1.6049
  451MOL0     H62197   7.634   0.432  -1.685  0.7562 -2.6528  2.0731
  451MOL0     H62198   7.691   0.594  -1.641 -0.3459 -0.9435 -0.9615
  451MOL0     H62199   7.522   0.576  -1.655  2.1913  1.0293 -0.2830
  451MOL0     H62200   7.987   0.204  -1.519  0.2888 -0.6135 -0.2762
  451MOL0     H62201   8.206   0.120  -1.600  1.0062 -0.1740 -1.3881
  451MOL0     H62202   8.410   0.077  -1.694  2.0239  3.0529  1.3829
  451MOL0     H62203   8.285   0.063  -1.818  0.6870 -1.8848 -0.4923
  451MOL0     H62204   8.580   0.130  -1.859  1.3449 -0.7526 -1.3226
  451MOL0     H62205   8.516  -0.039  -1.876  1.6929  0.2805  1.2360
  451MOL0     H62206   8.386   0.178  -2.054  2.3566  2.3850 -0.3849
  451MOL0     H62207   8.399  -0.001  -2.062 -1.1074  0.5289  1.0637
  451MOL0     H62208   8.525   0.134  -2.229 -1.4651  2.9535  1.1432
  451MOL0     H62209   8.628   0.018  -2.142  0.5475  0.5995  0.8968
  451MOL0     H62210   8.687   0.283  -2.184  0.8691 -0.8286 -0.3746
  451MOL0     H62211   8.647   0.287  -2.021 -2.3333  0.0603 -0.8590
  451MOL0     H62212   8.817   0.115  -1.975  0.4238 -1.2020 -0.7411
  451MOL0     H62213   8.882   0.262  -2.055  0.4722 -1.3034  5.0410
  451MOL0     H62214   8.854   0.116  -2.278 -0.8338  1.8915  0.2362
  451MOL0     H62215   8.854  -0.021  -2.160 -3.3293  0.6749  0.8954
  451MOL0     H62216   9.087   0.021  -2.219 -1.6485 -1.4108  0.4595
  451MOL0     H62217   9.051   0.067  -2.059  0.6020 -0.8797 -0.6714
  451MOL0     H62218   8.248   0.459  -1.844 -1.1915 -0.8633 -1.9416
  451MOL0     H62219   8.004   0.529  -1.784  0.6529 -0.1785 -0.9920
  451MOL0     H62220   7.762   0.375  -1.206 -0.2038  1.6739  0.1444
  451MOL0     H62221   7.557   0.388  -1.105  5.5891  2.9272  0.1028
  451MOL0     H62222   6.242   0.401   0.239  0.5918  1.2317  0.4071
  451MOL0     H62223   6.085   0.394   0.420 -0.3144  1.5014  2.1286
  451MOL0     H62224   6.062   0.608   0.794 -1.5221 -1.9165  1.1315
  451MOL0     H62225   5.984   0.609   1.021  1.6535  2.0204 -1.0412
  451MOL0     H62226   5.630   0.707   1.223 -0.2066 -1.8375  1.2737
  451MOL0     H62227   5.579   0.721   1.046  1.0985 -3.7148 -4.2898
  451MOL0     H62228   5.536   0.502   1.251 -2.4196 -0.8203 -0.4408
  451MOL0     H62229   5.493   0.482   1.094  2.6984 -0.0968 -0.5644
  451MOL0     H62230   5.405   0.638   1.329  1.3632 -2.2972  0.4610
  451MOL0     H62231   5.334   0.696   1.171 -2.0137 -1.8932 -2.4409
  451MOL0     H62232   5.318   0.394   1.231 -1.0969  0.7318 -1.0149
  451MOL0     H62233   5.218   0.518   1.132 -1.4426  0.6829  1.0183
  451MOL0     H62234   5.030   0.541   1.509  0.3379  0.7530 -0.8946
  451MOL0     H62235   5.586   0.594   0.872  0.4718 -1.5756  0.1660
  451MOL0     H62236   5.631   0.550   0.550  0.1173  0.3120  1.4944
  451MOL0     H62237   5.529   0.664   0.643 -0.2054  1.1277 -0.4886
  451MOL0     H62238   5.653   0.727   0.545  1.9550  1.1745  1.0819
  452MOL0     O62239   4.855   2.832   0.319 -0.2134  0.0303  0.7073
  452MOL0     C62240   4.851   2.954   0.292  1.0568  0.7926 -0.4079
  452MOL0     O62241   4.914   3.017   0.184  0.4791  0.0901 -0.4942
  452MOL0     C62242   4.999   2.944   0.107  0.5127  0.1120  1.1583
  452MOL0     C62243   5.105   2.888   0.170 -0.1553  0.2185  0.8295
  452MOL0     C62244   5.205   2.814   0.095 -0.5040  0.1684  0.0134
  452MOL0     C62245   5.201   2.817  -0.048  0.2344  0.0632  0.0678
  452MOL0     O62246   5.308   2.743  -0.101  0.1183 -0.2399 -0.7452
  452MOL0     C62247   5.334   2.747  -0.235 -0.1304  0.2704 -0.0816
  452MOL0     C62248   5.410   2.625  -0.268  0.1128  0.3891  0.0775
  452MOL0     C62249   5.533   2.604  -0.172 -0.3707 -0.0601 -0.7448
  452MOL0     C62250   5.631   2.494  -0.219  0.4246  0.1722  0.6464
  452MOL0     C62251   5.731   2.429  -0.128  0.2577 -0.4022  0.8992
  452MOL0     C62252   5.841   2.528  -0.081 -0.5806 -0.0761 -0.0415
  452MOL0     C62253   5.942   2.465   0.014  0.5975 -0.0288 -0.2768
  452MOL0     C62254   6.084   2.530  -0.015  0.8492  0.3597 -0.0392
  452MOL0     N62255   6.190   2.488   0.087  0.4540 -0.2490 -0.5899
  452MOL0     C62256   6.246   2.363   0.103  0.6596 -0.3358  0.4233
  452MOL0     C62257   6.318   2.374   0.209 -0.2335  1.0863 -0.2892
  452MOL0     C62258   6.405   2.258   0.260 -0.3940  0.5927 -0.1626
  452MOL0     C62259   6.525   2.305   0.347 -0.0447  0.5806  0.4287
  452MOL0     C62260   6.617   2.186   0.391  0.5859 -0.8555 -0.1447
  452MOL0     C62261   6.753   2.241   0.420  0.8923 -0.3171 -0.0006
  452MOL0     O62262   6.821   2.290   0.301  0.8042  0.6692 -0.9219
  452MOL0     C62263   6.910   2.215   0.227  0.3621 -0.1702 -0.1201
  452MOL0     C62264   7.003   2.127   0.284 -0.0770  0.2517 -0.4438
  452MOL0     C62265   7.090   2.059   0.193  0.0369 -0.1909  1.0224
  452MOL0     C62266   7.171   1.942   0.250 -0.6590 -0.4152  0.4854
  452MOL0     C62267   7.085   2.082   0.055 -0.4500  0.9743 -0.2058
  452MOL0     C62268   7.164   2.022  -0.048  0.5754  0.2351  0.8627
  452MOL0     O62269   7.099   2.001  -0.168  0.0082 -0.5296  0.2049
  452MOL0     C62270   7.161   1.924  -0.265 -0.8812 -0.5785 -0.5063
  452MOL0     C62271   7.256   1.983  -0.356 -0.6682 -0.1857 -0.6746
  452MOL0     C62272   7.314   1.909  -0.453 -0.4936  0.4086  0.1830
  452MOL0     C62273   7.271   1.777  -0.482 -0.8481  0.1651  0.1155
  452MOL0     O62274   7.308   1.697  -0.586  0.1745 -0.5296  0.6136
  452MOL0     C62275   7.275   1.739  -0.721 -0.0113 -0.0872 -0.6640
  452MOL0     C62276   7.372   1.691  -0.816 -0.0509  0.5947 -0.5748
  452MOL0     C62277   7.519   1.713  -0.776  0.3784  0.2918  0.1569
  452MOL0     C62278   7.598   1.697  -0.901 -0.1605  0.0778  0.3780
  452MOL0     C62279   7.746   1.701  -0.872 -0.4834  0.0732 -0.3123
  452MOL0     C62280   7.836   1.673  -0.996 -0.0673  0.3063 -0.3268
  452MOL0     C62281   7.985   1.705  -0.969 -0.3463 -0.1446 -0.4313
  452MOL0     C62282   8.044   1.612  -0.852 -0.3004  0.0715 -0.1274
  452MOL0    Cl62283   8.045   1.436  -0.886 -0.5001  0.0921  0.2992
  452MOL0     C62284   7.171   1.720  -0.404  0.2491 -0.3079 -0.4340
  452MOL0     C62285   7.119   1.794  -0.296  0.5006  0.6848  0.4693
  452MOL0     O62286   7.283   1.997  -0.020  0.5161  0.3942  0.3173
  452MOL0     C62287   6.999   2.185   0.008  0.7953 -0.2639 -0.5651
  452MOL0     C62288   6.911   2.249   0.096  0.2018  0.2312  0.1024
  452MOL0     N62289   6.302   2.498   0.272  0.0595  0.5953  0.2931
  452MOL0     N62290   6.211   2.563   0.204  0.0689  0.4764  0.3643
  452MOL0     C62291   5.091   2.886  -0.114  0.6272  0.5526  0.3858
  452MOL0     C62292   4.998   2.948  -0.032  1.0810  0.1479 -0.7052
  452MOL0     C62293   4.781   3.030   0.394  1.8652  0.7041 -0.9197
  452MOL0     C62294   4.682   2.962   0.473 -0.0244  0.2601 -0.1431
  452MOL0     C62295   4.611   3.025   0.571  0.5097  0.2466  0.6342
  452MOL0     C62296   4.624   3.166   0.591 -0.3140  0.9466 -1.3763
  452MOL0     O62297   4.559   3.238   0.691  0.9666  0.4427 -0.3036
  452MOL0     C62298   4.482   3.165   0.794 -0.1434 -0.1260  0.6824
  452MOL0     C62299   4.333   3.159   0.757  0.3519  0.8363  0.4429
  452MOL0     C62300   4.240   3.116   0.873  0.1069  0.0160 -0.8755
  452MOL0     C62301   4.099   3.105   0.821  0.3878 -0.7401  0.4861
  452MOL0     C62302   4.037   3.233   0.794 -0.6643  0.0258  0.1937
  452MOL0     C62303   4.001   3.347   0.781 -0.0893 -0.6384  0.3185
  452MOL0     C62304   4.713   3.237   0.506 -0.4157 -0.7500 -0.0681
  452MOL0     C62305   4.783   3.175   0.405 -0.4785 -0.3617 -1.0208
  452MOL0     C62306   4.851   3.273   0.313 -0.5706  0.2740 -0.3075
  452MOL0     H62307   5.112   2.894   0.279 -0.5425  3.1820  0.7782
  452MOL0     H62308   5.285   2.763   0.148 -0.7662  0.0694  0.3128
  452MOL0     H62309   5.385   2.840  -0.262 -1.1039  1.2848  1.4538
  452MOL0     H62310   5.237   2.743  -0.286 -0.5087  1.4880  0.5153
  452MOL0     H62311   5.343   2.541  -0.249 -1.3607  1.9326  2.3009
  452MOL0     H62312   5.444   2.637  -0.371 -0.6308  2.0270 -0.0100
  452MOL0     H62313   5.583   2.701  -0.172 -0.2631 -0.1138 -0.4210
  452MOL0     H62314   5.499   2.583  -0.070  0.1062 -0.5646 -0.6867
  452MOL0     H62315   5.573   2.411  -0.262 -0.0629  1.2362 -0.8559
  452MOL0     H62316   5.692   2.537  -0.299 -2.2591  3.1814  0.0299
  452MOL0     H62317   5.769   2.347  -0.188 -1.6245 -1.4989  1.1202
  452MOL0     H62318   5.676   2.381  -0.046 -1.9802 -1.6641 -1.2168
  452MOL0     H62319   5.883   2.579  -0.168  0.3062  0.2699  0.5660
  452MOL0     H62320   5.790   2.603  -0.019  1.0508  1.7036 -0.7282
  452MOL0     H62321   5.949   2.357  -0.001  0.1351 -0.0570 -0.3034
  452MOL0     H62322   5.903   2.488   0.114 -1.4899  2.3332 -1.5112
  452MOL0     H62323   6.121   2.504  -0.115 -1.4849 -0.4485 -0.7597
  452MOL0     H62324   6.071   2.638  -0.019 -4.7673 -0.0165 -4.3004
  452MOL0     H62325   6.230   2.282   0.032  0.2174  1.0224 -1.1080
  452MOL0     H62326   6.445   2.201   0.175  0.3889  0.2947  0.3929
  452MOL0     H62327   6.350   2.175   0.307  2.5287 -0.8276  1.0540
  452MOL0     H62328   6.591   2.373   0.292  1.8112 -1.7451 -0.3942
  452MOL0     H62329   6.476   2.348   0.435 -1.7573 -0.3565 -0.0153
  452MOL0     H62330   6.564   2.130   0.469 -1.2176  1.0896  0.1104
  452MOL0     H62331   6.629   2.110   0.313 -0.2611 -0.2629 -0.8720
  452MOL0     H62332   6.733   2.329   0.481  1.7412  1.3131 -1.9596
  452MOL0     H62333   6.822   2.178   0.477  0.5067  0.2412  1.0975
  452MOL0     H62334   6.993   2.100   0.389 -4.0796 -0.0511 -0.7557
  452MOL0     H62335   7.120   1.897   0.336 -2.0310  2.2560  1.1932
  452MOL0     H62336   7.273   1.975   0.272 -1.2025  1.7293  0.0025
  452MOL0     H62337   7.176   1.862   0.176 -0.2279  1.7434 -1.9494
  452MOL0     H62338   7.289   2.086  -0.352  0.6173 -0.4791 -2.3007
  452MOL0     H62339   7.381   1.964  -0.517 -0.1069 -0.0463  0.1943
  452MOL0     H62340   7.178   1.698  -0.751  1.1919 -2.8846 -1.0607
  452MOL0     H62341   7.276   1.848  -0.715 -1.6110 -0.0823  0.2030
  452MOL0     H62342   7.364   1.582  -0.825  1.0008  0.2915  1.4960
  452MOL0     H62343   7.350   1.728  -0.917  3.2570 -1.0102 -2.0324
  452MOL0     H62344   7.567   1.650  -0.701  1.4061  0.3438 -0.4348
  452MOL0     H62345   7.526   1.817  -0.745  1.8794 -0.0739  1.1522
  452MOL0     H62346   7.587   1.779  -0.973  1.4461  1.9611  2.1373
  452MOL0     H62347   7.582   1.594  -0.936 -1.2040  0.1654  0.5672
  452MOL0     H62348   7.772   1.796  -0.825 -0.0400 -0.6701  0.9994
  452MOL0     H62349   7.769   1.622  -0.799 -0.1719 -1.7480 -2.2879
  452MOL0     H62350   7.804   1.724  -1.087 -0.0834  5.7537  2.3664
  452MOL0     H62351   7.828   1.565  -1.015  0.7988  0.0362  0.7294
  452MOL0     H62352   7.984   1.805  -0.923  1.3218 -0.7168  0.9386
  452MOL0     H62353   8.046   1.691  -1.058  0.8324  1.2164  0.1104
  452MOL0     H62354   7.991   1.628  -0.757  1.0338 -0.7958  0.7954
  452MOL0     H62355   8.148   1.636  -0.828  0.3498 -3.0036  0.5335
  452MOL0     H62356   7.114   1.632  -0.431 -1.9825  0.8903  0.1475
  452MOL0     H62357   7.032   1.755  -0.245  0.2077 -3.0967 -2.4788
  452MOL0     H62358   6.979   2.192  -0.098 -1.3474 -3.3539 -0.4906
  452MOL0     H62359   6.846   2.325   0.056  0.2210  1.5520  2.4251
  452MOL0     H62360   5.094   2.897  -0.222  2.8346 -0.0591  0.3414
  452MOL0     H62361   4.921   3.007  -0.080  0.2673 -0.1669  0.1801
  452MOL0     H62362   4.646   2.862   0.452 -1.6136  1.0800 -1.5945
  452MOL0     H62363   4.533   2.976   0.629 -0.0070 -0.9158 -0.9555
  452MOL0     H62364   4.521   3.064   0.809  0.1615 -0.4795 -1.9975
  452MOL0     H62365   4.489   3.217   0.890 -1.4298 -2.4963  2.1655
  452MOL0     H62366   4.326   3.088   0.673 -2.4103  0.6560  0.7356
  452MOL0     H62367   4.305   3.262   0.734  0.6930  1.1515  1.4140
  452MOL0     H62368   4.280   3.021   0.910  1.3083  0.5231 -0.8138
  452MOL0     H62369   4.234   3.178   0.963 -3.6862 -0.9808 -0.2692
  452MOL0     H62370   4.043   3.057   0.902  2.2819 -1.5276  1.4179
  452MOL0     H62371   4.086   3.051   0.727 -0.4183 -0.8191  0.6388
  452MOL0     H62372   3.974   3.451   0.772 -1.2951 -0.7270  2.2314
  452MOL0     H62373   4.710   3.345   0.511  0.0692 -0.6353 -1.7765
  452MOL0     H62374   4.958   3.252   0.303 -0.6396  0.3278 -1.1965
  452MOL0     H62375   4.810   3.270   0.212 -0.6027 -2.6382 -0.2846
  452MOL0     H62376   4.844   3.378   0.344  0.2569  0.3594 -0.3946
  453MOL0     O62377  10.825   8.267   8.085 -0.1797 -0.7030  0.0856
  453MOL0     C62378  10.827   8.143   8.109  0.5165 -0.4081  0.5852
  453MOL0     O62379  10.937   8.053   8.098 -0.4671  0.0336 -0.4908
  453MOL0     C62380  11.059   8.094   8.058 -1.1287  0.3884 -0.9981
  453MOL0     C62381  11.079   8.191   7.959 -0.3708 -0.4225  0.9861
  453MOL0     C62382  11.207   8.233   7.908  0.0708  0.2288  0.9934
  453MOL0     C62383  11.318   8.165   7.962 -0.1564  0.2734 -0.2779
  453MOL0     O62384  11.447   8.189   7.925  0.3855 -0.1451  0.3604
  453MOL0     C62385  11.482   8.137   7.789 -0.1985  0.2613 -0.1181
  453MOL0     C62386  11.508   8.250   7.683  0.2823  0.5872  0.3277
  453MOL0     C62387  11.631   8.329   7.723  0.0604  0.2824  0.4605
  453MOL0     C62388  11.765   8.274   7.694  0.2559  0.4216 -0.3498
  453MOL0     C62389  11.885   8.358   7.743 -0.4173  0.8377  0.6822
  453MOL0     C62390  12.009   8.284   7.698  0.7361 -0.2027  0.6932
  453MOL0     C62391  12.126   8.361   7.746 -0.4778  1.0865 -0.7389
  453MOL0     C62392  12.259   8.280   7.722  0.5286  0.7071  1.0082
  453MOL0     N62393  12.278   8.265   7.573  0.0508 -0.7573  0.1644
  453MOL0     C62394  12.327   8.363   7.494 -0.0389  0.8871  0.1846
  453MOL0     C62395  12.362   8.306   7.375  0.5808 -0.5221  0.4750
  453MOL0     C62396  12.439   8.376   7.259 -0.3501 -0.1739 -0.0629
  453MOL0     C62397  12.477   8.278   7.142  0.2668 -0.4363  0.8608
  453MOL0     C62398  12.581   8.334   7.050 -0.5093  0.8889 -0.0171
  453MOL0     C62399  12.613   8.234   6.943  0.1726  0.1394 -0.5021
  453MOL0     O62400  12.707   8.299   6.852  0.5826 -0.1351  0.3886
  453MOL0     C62401  12.842   8.274   6.865 -1.3311 -0.1326 -0.1170
  453MOL0     C62402  12.927   8.309   6.758 -0.4622  0.2379  0.0810
  453MOL0     C62403  13.062   8.301   6.767 -0.1599  0.0470  0.5667
  453MOL0     C62404  13.133   8.361   6.651 -0.4165 -0.6719 -0.0237
  453MOL0     C62405  13.123   8.260   6.894 -0.2814  0.1993  0.5852
  453MOL0     C62406  13.273   8.256   6.916 -0.0803 -0.2296 -0.6461
  453MOL0     O62407  13.314   8.178   7.024  0.0362  0.1029  0.1635
  453MOL0     C62408  13.433   8.215   7.083  0.4409 -0.2602  0.3710
  453MOL0     C62409  13.538   8.120   7.092  0.2599 -0.1986 -0.3134
  453MOL0     C62410  13.661   8.148   7.147 -0.3999 -0.7199 -0.4479
  453MOL0     C62411  13.692   8.278   7.185  0.1887  0.7750  0.3464
  453MOL0     O62412  13.817   8.288   7.239 -0.3790 -0.3002  0.8797
  453MOL0     C62413  13.873   8.419   7.268  0.2556  0.4305  0.3009
  453MOL0     C62414  14.025   8.404   7.248  0.0194 -0.3208 -0.8216
  453MOL0     C62415  14.100   8.528   7.253 -0.1377 -0.0110 -0.2378
  453MOL0     C62416  14.247   8.513   7.205 -0.9397 -0.8999  0.3200
  453MOL0     C62417  14.310   8.644   7.148 -0.0087  0.5355  0.4272
  453MOL0     C62418  14.331   8.745   7.258 -0.3652  0.2047 -0.8016
  453MOL0     C62419  14.403   8.874   7.213  0.3855  0.8525  0.2946
  453MOL0     C62420  14.480   8.950   7.314 -0.0381 -0.4766  0.4539
  453MOL0    Cl62421  14.644   8.864   7.343  0.5132 -0.5405  0.1979
  453MOL0     C62422  13.594   8.373   7.176 -0.0517  0.3106  0.1000
  453MOL0     C62423  13.466   8.344   7.133  0.6758 -0.1788  0.2135
  453MOL0     O62424  13.340   8.336   6.853 -0.1916  0.1292  0.0658
  453MOL0     C62425  13.036   8.222   6.995  0.3530 -0.3150 -0.1774
  453MOL0     C62426  12.900   8.231   6.977 -1.5905 -0.4099 -0.5687
  453MOL0     N62427  12.337   8.172   7.389  0.1046  0.1210 -0.6211
  453MOL0     N62428  12.291   8.145   7.509  0.6218  0.0318 -0.1972
  453MOL0     C62429  11.294   8.068   8.063  0.6752  1.0312  0.8763
  453MOL0     C62430  11.171   8.027   8.108  0.1435 -0.1953 -0.3116
  453MOL0     C62431  10.700   8.082   8.158  0.2779  0.0868  0.5461
  453MOL0     C62432  10.679   7.940   8.160 -0.4048 -0.2426  0.0849
  453MOL0     C62433  10.581   7.872   8.228 -0.2165  0.4370  0.6882
  453MOL0     C62434  10.472   7.940   8.282 -0.5554  0.0788  0.6240
  453MOL0     O62435  10.368   7.860   8.325  1.2018  0.2147  0.1072
  453MOL0     C62436  10.252   7.921   8.385 -0.3340  0.7195  0.2799
  453MOL0     C62437  10.293   7.960   8.525  0.3215  0.3853 -0.4850
  453MOL0     C62438  10.178   8.019   8.605  0.4582  0.5771  0.5530
  453MOL0     C62439  10.118   8.140   8.520  0.0084 -0.0816 -0.6965
  453MOL0     C62440  10.048   8.220   8.625 -0.1981  0.7031 -0.3862
  453MOL0     C62441   9.976   8.294   8.690  0.0706 -0.5042 -1.4089
  453MOL0     C62442  10.485   8.081   8.286 -0.3891 -0.1076 -0.3762
  453MOL0     C62443  10.593   8.156   8.219  0.1508  0.1581 -0.0587
  453MOL0     C62444  10.583   8.312   8.224 -0.3873  0.3324 -0.1424
  453MOL0     H62445  10.994   8.229   7.903  0.0906 -0.9982 -0.1346
  453MOL0     H62446  11.233   8.303   7.828 -2.6314  0.2357  0.0384
  453MOL0     H62447  11.409   8.066   7.752 -0.9229 -0.3358  2.2845
  453MOL0     H62448  11.575   8.081   7.805  1.0128  1.5751 -2.1920
  453MOL0     H62449  11.529   8.194   7.591 -3.4895 -2.9672  1.3103
  453MOL0     H62450  11.421   8.314   7.664 -2.1460 -2.7349 -0.9402
  453MOL0     H62451  11.626   8.419   7.661 -2.6317  0.1662  0.3853
  453MOL0     H62452  11.622   8.353   7.829 -0.9755 -0.0757  0.4637
  453MOL0     H62453  11.784   8.176   7.739  4.2471  1.3895  0.4662
  453MOL0     H62454  11.766   8.264   7.585  2.3177 -0.1711 -0.3066
  453MOL0     H62455  11.882   8.363   7.853 -0.4290 -0.9793  0.7925
  453MOL0     H62456  11.894   8.462   7.710  2.2680  0.5373  0.2106
  453MOL0     H62457  12.018   8.191   7.755  3.4348  0.9807  2.4303
  453MOL0     H62458  12.008   8.265   7.590  0.8833 -1.2534  0.8612
  453MOL0     H62459  12.127   8.369   7.855  1.2285 -0.1950 -0.6179
  453MOL0     H62460  12.121   8.464   7.710  0.6046  2.0649  1.6829
  453MOL0     H62461  12.336   8.331   7.780  0.7325  0.0555  1.3304
  453MOL0     H62462  12.244   8.182   7.769 -3.3127  0.0955 -1.0791
  453MOL0     H62463  12.338   8.467   7.521  1.0528  1.4775 -2.2141
  453MOL0     H62464  12.534   8.405   7.306 -1.9489  0.6493  2.9708
  453MOL0     H62465  12.382   8.461   7.220  0.0604  1.0389  1.7905
  453MOL0     H62466  12.506   8.180   7.183 -0.9011 -1.3187 -0.3285
  453MOL0     H62467  12.387   8.255   7.084  0.9506 -0.1195 -0.3559
  453MOL0     H62468  12.542   8.420   6.995 -1.9971  0.3643  0.1738
  453MOL0     H62469  12.672   8.354   7.107 -1.0692  0.8811  0.9092
  453MOL0     H62470  12.650   8.142   6.987 -1.8259 -0.4483  0.0803
  453MOL0     H62471  12.519   8.201   6.897 -1.1491  1.7194  0.9237
  453MOL0     H62472  12.878   8.363   6.679 -0.0455  2.1225  1.0568
  453MOL0     H62473  13.061   8.395   6.576 -1.5144  0.7462  1.5882
  453MOL0     H62474  13.212   8.295   6.613 -1.0771  0.6206 -4.2226
  453MOL0     H62475  13.184   8.449   6.693  1.1165 -2.3717  1.8815
  453MOL0     H62476  13.511   8.023   7.051 -2.5804  0.1277  0.5464
  453MOL0     H62477  13.744   8.078   7.146 -0.3169 -0.6518  0.7992
  453MOL0     H62478  13.825   8.501   7.215 -1.1716  1.0276  2.3885
  453MOL0     H62479  13.846   8.442   7.372  0.6672  4.9561 -0.3943
  453MOL0     H62480  14.071   8.338   7.322  0.0244  1.1203  0.5138
  453MOL0     H62481  14.035   8.357   7.150 -2.2789 -1.5152 -0.5473
  453MOL0     H62482  14.093   8.562   7.357 -0.3778 -0.1585 -0.2047
  453MOL0     H62483  14.043   8.599   7.193  0.1038  0.4200  0.0374
  453MOL0     H62484  14.243   8.440   7.124  0.2457  1.2925 -1.8682
  453MOL0     H62485  14.318   8.473   7.277  0.7387  1.3026 -0.0096
  453MOL0     H62486  14.403   8.622   7.095 -3.1276 -2.4759 -4.7220
  453MOL0     H62487  14.242   8.687   7.074 -0.2264  0.5837  0.6525
  453MOL0     H62488  14.415   8.703   7.314 -0.1550  1.4680 -0.1513
  453MOL0     H62489  14.247   8.764   7.325  1.1870 -0.9327  1.6072
  453MOL0     H62490  14.322   8.922   7.157 -1.2844 -3.1652 -1.1471
  453MOL0     H62491  14.468   8.838   7.132 -1.9024 -1.2395 -0.7786
  453MOL0     H62492  14.428   8.965   7.409 -1.6612  3.9711 -0.8350
  453MOL0     H62493  14.494   9.045   7.261 -3.1534 -2.4691 -4.6639
  453MOL0     H62494  13.611   8.474   7.211 -0.8535 -0.7815  4.2143
  453MOL0     H62495  13.397   8.425   7.112  1.2979  0.6391  1.2508
  453MOL0     H62496  13.065   8.187   7.094 -2.0566  0.5159  0.8812
  453MOL0     H62497  12.837   8.198   7.059 -2.1299 -0.4707 -1.0042
  453MOL0     H62498  11.381   8.012   8.096 -0.6787 -2.8712 -1.5040
  453MOL0     H62499  11.171   7.943   8.177  0.5141 -0.3001 -0.4404
  453MOL0     H62500  10.753   7.879   8.110 -0.4931  0.0579 -0.4257
  453MOL0     H62501  10.577   7.764   8.219 -0.9861  0.3960  1.4111
  453MOL0     H62502  10.220   8.006   8.324  0.2861  1.2546  0.6796
  453MOL0     H62503  10.167   7.853   8.383 -0.3980  0.8109 -0.4370
  453MOL0     H62504  10.364   8.042   8.513  2.1937 -0.8978  1.1973
  453MOL0     H62505  10.338   7.874   8.576 -0.3247 -0.5086 -1.3610
  453MOL0     H62506  10.094   7.951   8.615 -0.4661  1.0190 -2.7245
  453MOL0     H62507  10.202   8.045   8.708  1.3501 -0.6338  0.6664
  453MOL0     H62508  10.046   8.110   8.443 -3.0493 -1.1718  2.3489
  453MOL0     H62509  10.187   8.220   8.491 -0.7223  1.3632  1.3248
  453MOL0     H62510   9.935   8.380   8.738 -0.2767 -1.6173  0.3864
  453MOL0     H62511  10.404   8.141   8.325 -0.8787 -0.7806 -0.3208
  453MOL0     H62512  10.561   8.345   8.123 -2.8236  2.8772  1.0868
  453MOL0     H62513  10.498   8.347   8.283  0.2257 -2.2519  2.5434
  453MOL0     H62514  10.676   8.349   8.268  0.7616 -0.3460 -1.9196
  454MOL0     O62515   3.585   9.565  10.928  0.4666  0.4908  0.1624
  454MOL0     C62516   3.596   9.524  11.037 -0.0930  0.6226 -0.1697
  454MOL0     O62517   3.714   9.503  11.103  0.0740 -0.5399  0.3699
  454MOL0     C62518   3.821   9.584  11.080 -0.8392 -0.9015 -0.1247
  454MOL0     C62519   3.806   9.715  11.023  0.1234 -0.8854 -0.0908
  454MOL0     C62520   3.916   9.800  11.001  0.4553  0.1935  0.0702
  454MOL0     C62521   4.044   9.759  11.028  0.0067 -0.2332 -0.3507
  454MOL0     O62522   4.148   9.833  10.972  0.6554 -0.5156 -0.2575
  454MOL0     C62523   4.281   9.826  11.031  0.5625 -0.0986 -0.3289
  454MOL0     C62524   4.285   9.880  11.183 -0.4757  0.7029  0.1412
  454MOL0     C62525   4.407   9.815  11.260 -0.4417 -0.2731  0.1476
  454MOL0     C62526   4.422   9.877  11.406  0.5349  0.3598  0.2684
  454MOL0     C62527   4.538   9.818  11.484 -0.7998 -0.3069 -0.3676
  454MOL0     C62528   4.668   9.841  11.403  1.0303  0.2275 -0.1042
  454MOL0     C62529   4.733   9.980  11.376  0.2282  0.0979 -0.6410
  454MOL0     C62530   4.876   9.982  11.324  0.4276 -0.2010 -0.1103
  454MOL0     N62531   4.961   9.970  11.441  0.5323 -0.4193  0.2857
  454MOL0     C62532   4.986  10.070  11.533  0.2489 -0.4654  0.1629
  454MOL0     C62533   5.058   9.996  11.624  0.2492  0.9714 -0.2701
  454MOL0     C62534   5.087  10.056  11.760 -0.2045  0.2271  0.7729
  454MOL0     C62535   5.237  10.108  11.749 -0.2491 -0.1795 -1.0056
  454MOL0     C62536   5.285  10.152  11.884  0.1630 -0.5651  0.7527
  454MOL0     C62537   5.430  10.193  11.887  0.5475 -0.2699  0.2492
  454MOL0     O62538   5.472  10.218  12.021 -0.3568  0.0684  0.3073
  454MOL0     C62539   5.600  10.183  12.065 -0.1838 -0.4076 -0.0349
  454MOL0     C62540   5.716  10.160  11.983  0.3637 -0.6288 -0.0918
  454MOL0     C62541   5.847  10.148  12.041  0.2116  1.5757  0.0655
  454MOL0     C62542   5.956  10.125  11.939  0.9417 -0.2429 -0.4471
  454MOL0     C62543   5.863  10.143  12.182 -0.4765  0.4354  0.3573
  454MOL0     C62544   5.993  10.117  12.251 -0.3672  0.0539  0.4700
  454MOL0     O62545   6.101  10.156  12.184 -0.8335  0.2955 -0.1913
  454MOL0     C62546   6.225  10.152  12.244  0.8602 -0.7932  0.5111
  454MOL0     C62547   6.295  10.024  12.245  0.5214 -0.2330 -0.0460
  454MOL0     C62548   6.415  10.018  12.303 -0.3953  0.7514 -0.0997
  454MOL0     C62549   6.476  10.132  12.347  0.2210 -0.0019  0.4783
  454MOL0     O62550   6.601  10.120  12.404 -0.1282 -0.2262  1.0399
  454MOL0     C62551   6.674  10.239  12.432  0.0837  0.2005  0.1720
  454MOL0     C62552   6.816  10.198  12.472  1.2012 -0.3110 -0.4777
  454MOL0     C62553   6.885  10.108  12.367 -0.6410 -0.3061  0.4229
  454MOL0     C62554   6.912   9.958  12.415 -0.6973 -0.4388 -0.0095
  454MOL0     C62555   6.983   9.883  12.299  0.7930  0.1315 -0.2681
  454MOL0     C62556   7.000   9.725  12.319  0.8681 -1.1691  0.5893
  454MOL0     C62557   7.027   9.660  12.183  1.3301  0.7242 -0.0940
  454MOL0     C62558   7.073   9.519  12.186  0.4261 -0.3184  0.0690
  454MOL0    Cl62559   6.958   9.401  12.257  0.2434 -0.1725  0.0440
  454MOL0     C62560   6.406  10.251  12.357 -0.9535  0.7482 -0.4518
  454MOL0     C62561   6.281  10.262  12.304 -0.0866  0.3078  0.5737
  454MOL0     O62562   5.995  10.077  12.367  0.5844 -0.0710  0.5533
  454MOL0     C62563   5.752  10.173  12.265  0.2876  0.8169 -0.2748
  454MOL0     C62564   5.619  10.192  12.203  0.3086  0.1739  0.3126
  454MOL0     N62565   5.082   9.865  11.582  0.6306 -0.8012 -0.1502
  454MOL0     N62566   5.022   9.852  11.473 -0.1785  0.0919 -0.4924
  454MOL0     C62567   4.064   9.633  11.103 -0.5367  0.5467 -0.0287
  454MOL0     C62568   3.954   9.547  11.122 -0.5934  0.5274 -1.6471
  454MOL0     C62569   3.478   9.465  11.111 -0.5718  0.3787 -0.7468
  454MOL0     C62570   3.496   9.392  11.232 -0.5576  0.2071 -0.2705
  454MOL0     C62571   3.389   9.343  11.312  0.7816  0.4465 -0.0720
  454MOL0     C62572   3.260   9.348  11.260  0.7414  0.0508 -0.6115
  454MOL0     O62573   3.156   9.302  11.343  0.0204  0.8045  0.5071
  454MOL0     C62574   3.031   9.250  11.285 -0.8752 -0.4790  0.0442
  454MOL0     C62575   3.018   9.101  11.305 -0.5513 -0.1357 -0.0076
  454MOL0     C62576   3.038   9.054  11.450 -0.1883  0.0093  1.0287
  454MOL0     C62577   2.974   8.913  11.459 -0.1494 -0.6859  0.7474
  454MOL0     C62578   3.038   8.822  11.363 -0.4364 -0.5895 -0.5886
  454MOL0     C62579   3.088   8.746  11.286  0.0183  0.9207  0.0228
  454MOL0     C62580   3.248   9.404  11.137 -0.5540 -0.0464 -0.1067
  454MOL0     C62581   3.347   9.472  11.062  0.2734  0.2086 -0.2770
  454MOL0     C62582   3.311   9.528  10.925  0.6594 -0.6629 -1.2190
  454MOL0     H62583   3.704   9.749  11.009  0.4319  0.6376  1.0529
  454MOL0     H62584   3.898   9.893  10.949 -2.6725 -0.3426 -0.0626
  454MOL0     H62585   4.353   9.893  10.984  0.7873  0.7370  1.1363
  454MOL0     H62586   4.313   9.722  11.019 -0.5433 -0.6328  1.0364
  454MOL0     H62587   4.286   9.989  11.187  0.4171  0.6675  1.9201
  454MOL0     H62588   4.197   9.842  11.235 -3.4567  0.6902 -4.3563
  454MOL0     H62589   4.408   9.706  11.261  0.7778 -0.2863 -0.3236
  454MOL0     H62590   4.488   9.851  11.195 -0.7066  0.6182  0.2962
  454MOL0     H62591   4.438   9.984  11.388 -2.5048  1.0541  1.0404
  454MOL0     H62592   4.327   9.868  11.459 -1.0733  1.6948 -2.2088
  454MOL0     H62593   4.527   9.710  11.496 -0.0010 -0.4644 -0.9863
  454MOL0     H62594   4.541   9.856  11.587  0.1024 -1.2388 -0.0370
  454MOL0     H62595   4.745   9.795  11.465  1.0336 -1.7348 -1.4611
  454MOL0     H62596   4.658   9.780  11.312  0.2799 -1.5667  1.1154
  454MOL0     H62597   4.730  10.032  11.472  2.9633 -1.9602  0.6900
  454MOL0     H62598   4.669  10.040  11.310  0.1147  0.4278 -0.2380
  454MOL0     H62599   4.901   9.909  11.247 -0.3151  1.2650 -1.8110
  454MOL0     H62600   4.888  10.078  11.274 -0.3433 -0.4478 -0.7946
  454MOL0     H62601   4.941  10.169  11.535 -2.8473 -1.7439 -0.5589
  454MOL0     H62602   5.081   9.981  11.839  0.9873 -0.6965  0.0212
  454MOL0     H62603   5.009  10.131  11.777  0.2794  0.8896  0.1607
  454MOL0     H62604   5.307  10.034  11.712  2.3455  0.4572  2.1312
  454MOL0     H62605   5.252  10.198  11.688  2.7792  0.9239  1.1309
  454MOL0     H62606   5.227  10.239  11.914  1.9431  1.4316 -1.2825
  454MOL0     H62607   5.270  10.069  11.955  0.2521 -1.2693 -0.0315
  454MOL0     H62608   5.487  10.110  11.843 -3.9852 -3.7593  0.1594
  454MOL0     H62609   5.445  10.286  11.831  0.3775  1.0500  2.3144
  454MOL0     H62610   5.701  10.170  11.876 -2.5477  2.0967  0.4369
  454MOL0     H62611   6.018  10.215  11.930  0.6621  0.0963  0.8204
  454MOL0     H62612   5.905  10.111  11.843  3.4531 -3.9744 -1.4848
  454MOL0     H62613   6.016  10.037  11.966  0.7842 -0.0167  0.6974
  454MOL0     H62614   6.251   9.937  12.197 -0.0479  1.0054 -1.8905
  454MOL0     H62615   6.459   9.920  12.317 -3.3988 -0.4699  1.8404
  454MOL0     H62616   6.676  10.318  12.356  1.8815 -0.0515 -0.0886
  454MOL0     H62617   6.632  10.277  12.526  2.1711  1.6939  0.6020
  454MOL0     H62618   6.874  10.289  12.489  0.8201 -0.3859  1.4987
  454MOL0     H62619   6.815  10.133  12.560 -1.4972 -0.1820 -0.3327
  454MOL0     H62620   6.981  10.158  12.351 -0.5305 -0.0793  1.6460
  454MOL0     H62621   6.829  10.110  12.273 -0.0936 -1.5958  0.0380
  454MOL0     H62622   6.812   9.920  12.438 -0.3521 -0.4370  1.5713
  454MOL0     H62623   6.984   9.952  12.497 -0.6000  0.4816 -0.0185
  454MOL0     H62624   6.916   9.891  12.213  0.3324  0.5319  0.1231
  454MOL0     H62625   7.081   9.923  12.271  1.0507 -0.0699  0.3282
  454MOL0     H62626   6.913   9.682  12.370 -2.1117  3.9893  0.5960
  454MOL0     H62627   7.084   9.724  12.389  1.3561  0.6013  0.0711
  454MOL0     H62628   7.090   9.712  12.110  0.4225  1.2164 -0.5342
  454MOL0     H62629   6.929   9.656  12.136  2.5689  0.3860 -2.8569
  454MOL0     H62630   7.162   9.518  12.250  1.0573  3.1709 -0.5121
  454MOL0     H62631   7.104   9.491  12.085 -0.8498  1.7266 -0.9526
  454MOL0     H62632   6.458  10.336  12.401  0.2275  0.5072 -1.3125
  454MOL0     H62633   6.228  10.356  12.319  1.4732  1.0542  1.8009
  454MOL0     H62634   5.766  10.167  12.372 -2.0738 -0.0108  0.0484
  454MOL0     H62635   5.541  10.220  12.274  1.1258 -0.5251  1.5383
  454MOL0     H62636   4.169   9.618  11.125 -1.3750 -3.2574  2.2202
  454MOL0     H62637   3.970   9.453  11.174  0.3607  0.9663 -1.1316
  454MOL0     H62638   3.598   9.374  11.267 -0.7236  0.3611  0.3103
  454MOL0     H62639   3.408   9.284  11.401 -2.2960 -0.9262 -0.1959
  454MOL0     H62640   2.941   9.294  11.328 -2.9961 -0.5059 -3.8473
  454MOL0     H62641   3.023   9.283  11.180 -0.7113  0.6305  0.3620
  454MOL0     H62642   3.087   9.037  11.250 -2.0744 -1.7867 -0.0809
  454MOL0     H62643   2.919   9.069  11.269  1.0882 -4.2849 -1.4687
  454MOL0     H62644   3.145   9.058  11.473  0.2109 -0.8404 -0.5534
  454MOL0     H62645   2.981   9.121  11.515  0.4425  1.1146  0.4841
  454MOL0     H62646   2.867   8.921  11.435  0.0166 -0.7046 -0.0337
  454MOL0     H62647   2.995   8.853  11.548  3.8052  0.2033  0.6006
  454MOL0     H62648   3.124   8.666  11.225 -0.5693  0.3994  0.3512
  454MOL0     H62649   3.157   9.395  11.078 -0.3782  0.0642 -0.3968
  454MOL0     H62650   3.368   9.495  10.838  2.0737  1.5855 -1.2193
  454MOL0     H62651   3.207   9.508  10.899 -0.9482  1.0328  3.0560
  454MOL0     H62652   3.327   9.636  10.933 -2.3206 -0.1606 -0.9238
  455MOL0     O62653   8.016   1.669   5.270  0.1495  0.4142  0.7785
  455MOL0     C62654   7.921   1.749   5.270  0.0016 -0.1897 -0.0201
  455MOL0     O62655   7.933   1.879   5.305 -0.4960  0.4977  0.0962
  455MOL0     C62656   8.053   1.927   5.341  0.0580  0.4737 -0.5564
  455MOL0     C62657   8.089   1.911   5.475  0.0637 -1.4592 -0.3868
  455MOL0     C62658   8.211   1.962   5.523  0.0442  0.1782  0.6379
  455MOL0     C62659   8.289   2.038   5.428  0.1203  0.0829 -0.4169
  455MOL0     O62660   8.403   2.103   5.466 -0.0172 -0.5881 -0.4066
  455MOL0     C62661   8.504   2.147   5.378  0.7050  0.7512  0.2739
  455MOL0     C62662   8.623   2.190   5.460  0.2821  0.0085 -0.3182
  455MOL0     C62663   8.744   2.215   5.374 -0.5388  0.5744 -0.7404
  455MOL0     C62664   8.829   2.087   5.344  1.2138  0.0792 -0.1925
  455MOL0     C62665   8.930   2.099   5.236 -0.1765  0.1387 -0.2426
  455MOL0     C62666   8.988   1.957   5.196 -0.6175  0.4621  0.6113
  455MOL0     C62667   9.094   1.965   5.080  0.0138  1.1733  1.5328
  455MOL0     C62668   9.033   1.933   4.942 -0.6148  0.3340 -0.1708
  455MOL0     N62669   9.095   2.004   4.836  0.5426  0.1988 -0.0003
  455MOL0     C62670   9.230   2.010   4.823 -0.5866  0.5409  0.1612
  455MOL0     C62671   9.250   2.117   4.735 -0.6770  0.3353 -0.3083
  455MOL0     C62672   9.383   2.149   4.684 -0.7568 -0.0028  0.1087
  455MOL0     C62673   9.381   2.208   4.541 -0.5777 -0.6456  0.4935
  455MOL0     C62674   9.349   2.360   4.542 -0.2902 -0.6096 -0.4317
  455MOL0     C62675   9.467   2.460   4.555 -0.1200  0.1643  0.3172
  455MOL0     O62676   9.546   2.425   4.441  0.3937 -0.3548 -0.0874
  455MOL0     C62677   9.671   2.473   4.437 -0.6245 -0.1224  0.0567
  455MOL0     C62678   9.779   2.384   4.449 -0.1778  1.0172  0.5520
  455MOL0     C62679   9.911   2.418   4.431  0.6052  0.2218  0.9535
  455MOL0     C62680  10.017   2.309   4.455  0.9461 -0.1311  0.3382
  455MOL0     C62681   9.945   2.558   4.405  0.7022 -0.0271  0.0146
  455MOL0     C62682  10.078   2.620   4.382  0.1942  0.1044 -1.4223
  455MOL0     O62683  10.083   2.755   4.334  0.1466  0.6805 -1.2181
  455MOL0     C62684  10.199   2.822   4.308 -0.1283  0.0573  0.6544
  455MOL0     C62685  10.218   2.954   4.353  1.0795 -0.8920 -0.3928
  455MOL0     C62686  10.330   3.026   4.304  0.9596 -0.0049  0.4121
  455MOL0     C62687  10.417   2.968   4.213 -0.7683  0.9355 -0.2140
  455MOL0     O62688  10.533   3.047   4.187  0.8690  0.7616 -0.1440
  455MOL0     C62689  10.614   3.006   4.080  0.7552 -0.4618 -0.1036
  455MOL0     C62690  10.748   3.088   4.073  1.1858  1.1306 -0.9575
  455MOL0     C62691  10.867   3.034   3.996 -0.5165  0.1919  0.3176
  455MOL0     C62692  10.890   2.883   3.995 -0.1348 -0.1118 -0.3113
  455MOL0     C62693  11.026   2.839   3.951 -0.7980 -0.1347 -0.2119
  455MOL0     C62694  11.063   2.866   3.805  0.1576 -0.1356 -0.1456
  455MOL0     C62695  11.195   2.792   3.776  0.4951 -0.7732 -0.7859
  455MOL0     C62696  11.231   2.798   3.625  0.5366  0.0150 -0.0019
  455MOL0    Cl62697  11.280   2.967   3.585 -0.0028  0.0680 -0.0524
  455MOL0     C62698  10.392   2.840   4.163  0.0968 -0.0749 -0.4138
  455MOL0     C62699  10.284   2.766   4.214 -0.1460 -0.2808 -0.7250
  455MOL0     O62700  10.180   2.552   4.400 -0.3087 -0.1430  0.2728
  455MOL0     C62701   9.840   2.653   4.397  0.0793  1.0141 -0.8100
  455MOL0     C62702   9.710   2.604   4.414  0.0993  0.5074  0.1425
  455MOL0     N62703   9.127   2.175   4.706 -0.0317  0.3397  0.0480
  455MOL0     N62704   9.035   2.106   4.767  0.0233  0.3216 -0.4443
  455MOL0     C62705   8.262   2.044   5.295  0.2878  0.0654 -0.2874
  455MOL0     C62706   8.140   1.987   5.249 -0.5896  0.9036  0.0214
  455MOL0     C62707   7.785   1.696   5.241  0.0499 -0.2465  0.5817
  455MOL0     C62708   7.785   1.561   5.211 -0.5703 -0.3852 -0.5545
  455MOL0     C62709   7.667   1.496   5.188 -0.1444 -0.5198  0.4725
  455MOL0     C62710   7.542   1.567   5.189  0.3199 -0.0147  0.2021
  455MOL0     O62711   7.431   1.493   5.151  0.3644  0.1051 -0.0088
  455MOL0     C62712   7.327   1.557   5.074  0.4660  0.0866 -0.6256
  455MOL0     C62713   7.218   1.580   5.171  0.3094 -0.5073  0.0736
  455MOL0     C62714   7.171   1.458   5.245 -1.4570  0.4690 -0.4760
  455MOL0     C62715   7.073   1.494   5.355 -0.1971  0.1562 -0.4047
  455MOL0     C62716   7.024   1.365   5.417 -0.2223  0.4789  0.2982
  455MOL0     C62717   6.987   1.268   5.479  0.8486 -0.6684  0.2616
  455MOL0     C62718   7.542   1.705   5.207 -0.4872 -0.1089 -0.4604
  455MOL0     C62719   7.662   1.770   5.234 -0.2031  0.4981  0.2039
  455MOL0     C62720   7.658   1.925   5.238 -0.1080  0.2606 -0.5691
  455MOL0     H62721   8.026   1.863   5.550 -0.6270  0.4939  0.3442
  455MOL0     H62722   8.248   1.949   5.624  1.2155 -2.7877 -0.0770
  455MOL0     H62723   8.467   2.222   5.307 -2.4967 -1.0147 -0.1173
  455MOL0     H62724   8.527   2.057   5.320  0.2122  0.0151  1.1996
  455MOL0     H62725   8.603   2.283   5.515  0.5463  1.3088 -2.3082
  455MOL0     H62726   8.642   2.115   5.536  0.5658 -0.0745 -0.4683
  455MOL0     H62727   8.715   2.256   5.277 -1.7090 -2.4681 -1.7958
  455MOL0     H62728   8.812   2.274   5.436 -3.3487  0.5239  2.7284
  455MOL0     H62729   8.867   2.038   5.434  1.4296 -2.0684 -1.3996
  455MOL0     H62730   8.754   2.015   5.311 -0.3738 -0.2867  3.6995
  455MOL0     H62731   9.018   2.151   5.275 -1.0571  2.9961 -1.7778
  455MOL0     H62732   8.892   2.141   5.142 -1.0330 -0.2482 -0.0707
  455MOL0     H62733   9.040   1.912   5.281  1.4642  0.2129 -0.7373
  455MOL0     H62734   8.903   1.891   5.179 -0.4470  0.4819 -0.3417
  455MOL0     H62735   9.178   1.896   5.093  0.9916  1.7318 -1.0881
  455MOL0     H62736   9.140   2.065   5.085  1.2224  0.6227  1.9519
  455MOL0     H62737   9.049   1.826   4.925  2.4666  0.9007 -1.4370
  455MOL0     H62738   8.927   1.960   4.943 -0.1472  2.3127 -0.2112
  455MOL0     H62739   9.296   1.944   4.879 -1.1825 -0.8062 -0.6850
  455MOL0     H62740   9.459   2.071   4.694 -0.8852 -0.3315 -1.3143
  455MOL0     H62741   9.420   2.228   4.751 -0.2746  1.1997 -1.5005
  455MOL0     H62742   9.483   2.199   4.504  0.9757 -1.8509  4.5283
  455MOL0     H62743   9.310   2.153   4.479  1.5315 -0.0823 -2.6271
  455MOL0     H62744   9.312   2.383   4.442  2.5242 -1.3359 -1.7220
  455MOL0     H62745   9.276   2.383   4.621  0.7227 -4.6772  2.0080
  455MOL0     H62746   9.440   2.566   4.559  0.9023  0.4447  0.2466
  455MOL0     H62747   9.527   2.430   4.641 -0.4856 -0.0875  0.4813
  455MOL0     H62748   9.749   2.285   4.484 -1.9582  1.2674 -0.1605
  455MOL0     H62749  10.097   2.313   4.382 -0.0944 -2.1296 -0.9896
  455MOL0     H62750   9.976   2.208   4.452  0.8227 -0.1319  1.5233
  455MOL0     H62751  10.055   2.314   4.558 -2.0061  0.2417  1.5417
  455MOL0     H62752  10.153   3.001   4.426 -0.8515 -1.1045 -1.8985
  455MOL0     H62753  10.331   3.125   4.348  0.9174  0.5795 -0.8773
  455MOL0     H62754  10.637   2.899   4.083  2.0577 -0.1978  0.1120
  455MOL0     H62755  10.570   3.018   3.981  2.8235  0.1863 -1.0068
  455MOL0     H62756  10.726   3.192   4.047 -3.1127  0.9171  1.0599
  455MOL0     H62757  10.792   3.085   4.174  1.2814  0.1812 -1.0129
  455MOL0     H62758  10.956   3.092   4.025 -1.2318  0.6788  1.6163
  455MOL0     H62759  10.843   3.062   3.893 -0.0761  1.0848  0.4440
  455MOL0     H62760  10.809   2.843   3.934  2.1524 -0.8597 -3.0836
  455MOL0     H62761  10.880   2.862   4.102 -3.5586  1.4730 -0.1879
  455MOL0     H62762  11.105   2.890   4.007  1.9939 -2.4164 -1.7609
  455MOL0     H62763  11.039   2.731   3.964  1.0195  0.0530 -0.1808
  455MOL0     H62764  11.076   2.974   3.791 -0.2107 -0.0975 -0.2104
  455MOL0     H62765  10.985   2.837   3.733 -0.1246 -3.5463  1.3558
  455MOL0     H62766  11.178   2.688   3.806 -1.5040 -0.9518 -2.2815
  455MOL0     H62767  11.274   2.830   3.841 -0.4000 -2.3230  1.3264
  455MOL0     H62768  11.150   2.743   3.576  0.7520  0.4190 -0.8243
  455MOL0     H62769  11.320   2.735   3.613  2.2517  2.1969  0.6157
  455MOL0     H62770  10.457   2.793   4.090  0.2562  0.9684 -0.9728
  455MOL0     H62771  10.271   2.665   4.177 -2.3646  0.8097 -3.3176
  455MOL0     H62772   9.854   2.758   4.377  1.0774  1.6153  2.4155
  455MOL0     H62773   9.627   2.672   4.395  0.2335  1.0825  1.5414
  455MOL0     H62774   8.312   2.092   5.211  1.2678 -2.0822 -1.0213
  455MOL0     H62775   8.119   1.993   5.143  2.0457  2.5967 -0.4899
  455MOL0     H62776   7.876   1.504   5.204 -0.3424 -0.5740  2.5533
  455MOL0     H62777   7.679   1.389   5.170  0.0693 -0.3758 -0.2508
  455MOL0     H62778   7.356   1.654   5.033 -1.5013  1.5274  1.2020
  455MOL0     H62779   7.293   1.492   4.993  0.1796  1.3772 -1.5734
  455MOL0     H62780   7.133   1.620   5.115  1.6734  0.5361 -1.3218
  455MOL0     H62781   7.243   1.665   5.235  0.3213 -0.8332  0.5148
  455MOL0     H62782   7.139   1.377   5.180  0.7327  1.1412 -2.5161
  455MOL0     H62783   7.255   1.416   5.301 -2.5232  0.1429  0.9429
  455MOL0     H62784   6.981   1.549   5.330 -1.1488 -0.2687  1.8841
  455MOL0     H62785   7.127   1.562   5.422 -1.0700  0.1366  0.3408
  455MOL0     H62786   6.956   1.179   5.530  1.4635 -1.3842 -0.5758
  455MOL0     H62787   7.453   1.767   5.203 -2.4883 -2.8198 -1.4209
  455MOL0     H62788   7.752   1.974   5.213 -0.4847  0.6659 -1.1975
  455MOL0     H62789   7.581   1.968   5.174 -0.1356 -0.6144 -1.1466
  455MOL0     H62790   7.621   1.953   5.338 -3.3150  0.7841 -1.7767
  456MOL0     O62791  10.610   8.874   1.175  0.1877  0.0604  0.2594
  456MOL0     C62792  10.635   8.975   1.106  0.0451  0.8554 -0.4203
  456MOL0     O62793  10.545   9.024   1.014  0.3344 -0.2560  0.3686
  456MOL0     C62794  10.412   8.987   0.994  0.3992 -0.4813 -0.5006
  456MOL0     C62795  10.355   9.052   0.886 -0.4321 -0.3703 -0.5956
  456MOL0     C62796  10.224   9.035   0.848 -0.0767  0.0016  0.3321
  456MOL0     C62797  10.147   8.955   0.925  0.5282 -1.0761 -0.0015
  456MOL0     O62798  10.020   8.939   0.890 -0.8953  0.0808  0.8410
  456MOL0     C62799   9.932   9.050   0.926  0.5301  1.0035  0.3513
  456MOL0     C62800   9.781   9.019   0.882 -0.3255 -0.2680 -0.5347
  456MOL0     C62801   9.696   9.129   0.840 -0.5600 -0.4470 -0.0915
  456MOL0     C62802   9.669   9.219   0.954  0.2356 -0.4457 -1.4466
  456MOL0     C62803   9.602   9.352   0.921 -0.5847 -0.0135  0.3666
  456MOL0     C62804   9.446   9.352   0.910 -0.1706  0.2032  0.4414
  456MOL0     C62805   9.388   9.481   0.855  0.1254  1.0619 -0.2768
  456MOL0     C62806   9.240   9.453   0.824  0.5636 -0.6060  0.2693
  456MOL0     N62807   9.160   9.571   0.845 -1.3182  0.2225  0.1171
  456MOL0     C62808   9.119   9.624   0.967  0.6448 -0.2375 -0.2231
  456MOL0     C62809   9.073   9.746   0.926 -0.0283 -0.2484  0.5031
  456MOL0     C62810   9.035   9.858   1.019 -0.4008  0.2106  0.6137
  456MOL0     C62811   8.885   9.901   1.022  0.0259  1.0362 -0.2812
  456MOL0     C62812   8.863  10.032   1.089  0.4972 -0.1789 -1.2774
  456MOL0     C62813   8.719  10.066   1.122 -0.9747  0.1721  0.2431
  456MOL0     O62814   8.659  10.136   1.012 -0.2280  0.3199  0.8445
  456MOL0     C62815   8.547  10.205   1.037  0.6732 -0.0914  0.3697
  456MOL0     C62816   8.541  10.328   1.094 -0.9538  1.1299  0.7726
  456MOL0     C62817   8.415  10.391   1.111  0.1219  0.2716  0.2635
  456MOL0     C62818   8.436  10.531   1.143 -0.1615  0.3961 -0.1536
  456MOL0     C62819   8.294  10.330   1.095 -0.0458  0.6030  0.2154
  456MOL0     C62820   8.164  10.392   1.126 -0.4453  0.0977  1.4028
  456MOL0     O62821   8.166  10.512   1.188  0.0463 -0.4162 -0.7822
  456MOL0     C62822   8.051  10.556   1.233  0.3377 -0.6014  0.7052
  456MOL0     C62823   7.948  10.593   1.139 -0.2283 -0.6587 -0.5558
  456MOL0     C62824   7.820  10.632   1.186 -0.2787  0.4673 -0.6555
  456MOL0     C62825   7.794  10.645   1.322 -0.6862  0.5306 -0.2375
  456MOL0     O62826   7.665  10.664   1.356 -0.7936 -0.4833  0.4337
  456MOL0     C62827   7.637  10.788   1.411  0.2738  0.1497 -0.4106
  456MOL0     C62828   7.491  10.785   1.467 -0.6490 -1.4562  0.4798
  456MOL0     C62829   7.471  10.697   1.583  0.4289  0.7238  0.0606
  456MOL0     C62830   7.512  10.764   1.723 -0.3658  0.9214  0.3167
  456MOL0     C62831   7.656  10.757   1.771 -0.7496  0.2519 -0.3291
  456MOL0     C62832   7.706  10.610   1.782  0.4178  0.4268 -0.4793
  456MOL0     C62833   7.849  10.602   1.835 -0.1405 -0.3372 -0.8243
  456MOL0     C62834   7.911  10.470   1.809  0.4750 -1.0815 -0.0047
  456MOL0    Cl62835   8.061  10.464   1.910 -0.2200  0.0960  0.3934
  456MOL0     C62836   7.893  10.620   1.416 -0.1482  0.4380  0.5343
  456MOL0     C62837   8.021  10.577   1.370  0.5925  0.2363  0.0958
  456MOL0     O62838   8.061  10.330   1.093  0.2736 -0.0379  0.6018
  456MOL0     C62839   8.298  10.200   1.044  0.6108  0.4661 -1.3141
  456MOL0     C62840   8.420  10.146   1.012  0.0894 -0.0922  0.3925
  456MOL0     N62841   9.099   9.758   0.792  0.7404 -0.0982 -0.8794
  456MOL0     N62842   9.155   9.649   0.747 -0.5317  0.6709  0.0523
  456MOL0     C62843  10.191   8.887   1.046 -0.9679  0.3049 -0.3146
  456MOL0     C62844  10.329   8.905   1.072 -0.4522 -0.4873 -0.4420
  456MOL0     C62845  10.764   9.052   1.122 -0.8320 -0.0376 -0.1634
  456MOL0     C62846  10.771   9.183   1.082 -0.7547 -0.4851 -0.2904
  456MOL0     C62847  10.891   9.252   1.079 -0.5728  0.1765  0.0470
  456MOL0     C62848  11.003   9.206   1.140 -0.1747 -0.4764  0.0137
  456MOL0     O62849  11.124   9.269   1.138 -0.1723  0.1962 -0.4097
  456MOL0     C62850  11.134   9.408   1.110 -0.4410  0.1243 -0.4708
  456MOL0     C62851  11.276   9.448   1.152 -0.3060 -0.2193  0.3659
  456MOL0     C62852  11.312   9.598   1.137 -0.1885 -0.5392 -0.1301
  456MOL0     C62853  11.451   9.625   1.194  0.4166 -1.0713  0.2840
  456MOL0     C62854  11.557   9.575   1.101 -0.2413 -0.0165 -1.1047
  456MOL0     C62855  11.646   9.542   1.025  0.3032  0.7822 -0.0440
  456MOL0     C62856  10.998   9.081   1.199 -0.5195 -0.3970 -0.0890
  456MOL0     C62857  10.878   9.009   1.198  0.1955 -0.2288 -0.2983
  456MOL0     C62858  10.884   8.878   1.274 -0.6713 -0.0866 -0.7632
  456MOL0     H62859  10.417   9.121   0.831 -1.8759  1.6195  0.1769
  456MOL0     H62860  10.188   9.097   0.767  0.0319  0.9886  1.0134
  456MOL0     H62861   9.965   9.149   0.893 -0.1804  1.4728  1.0160
  456MOL0     H62862   9.926   9.052   1.035  0.1541  1.8950  0.3269
  456MOL0     H62863   9.792   8.970   0.785 -2.4025  1.9035 -1.9716
  456MOL0     H62864   9.736   8.950   0.953 -2.2655 -1.0321 -2.4127
  456MOL0     H62865   9.741   9.178   0.753 -1.4247 -1.5945 -1.2418
  456MOL0     H62866   9.601   9.089   0.802 -1.4475 -0.0984  1.6728
  456MOL0     H62867   9.603   9.167   1.024 -0.0654 -0.5238 -1.7833
  456MOL0     H62868   9.772   9.237   0.986  0.2587 -2.2202 -0.3460
  456MOL0     H62869   9.644   9.395   0.829  1.6346 -1.5951  0.5668
  456MOL0     H62870   9.630   9.416   1.005  2.2078 -1.1864  0.4272
  456MOL0     H62871   9.424   9.275   0.836 -0.3344  0.7470 -0.0774
  456MOL0     H62872   9.407   9.336   1.011  2.3562 -0.6333  1.3774
  456MOL0     H62873   9.438   9.510   0.762  1.6219 -1.6309 -0.4218
  456MOL0     H62874   9.401   9.559   0.930 -0.7140  0.0293  0.9827
  456MOL0     H62875   9.227   9.413   0.723 -2.3836 -3.4107  1.5958
  456MOL0     H62876   9.196   9.378   0.890 -3.2629 -0.3825 -1.7988
  456MOL0     H62877   9.132   9.583   1.067  0.3972 -1.7317 -0.7706
  456MOL0     H62878   9.093   9.948   0.996  2.6797 -1.9035 -0.4293
  456MOL0     H62879   9.053   9.838   1.125 -2.0429 -0.5466  0.7915
  456MOL0     H62880   8.846   9.911   0.920 -2.8520 -2.4884  0.2350
  456MOL0     H62881   8.831   9.823   1.078  1.0345 -0.8648 -1.8539
  456MOL0     H62882   8.922  10.035   1.181 -3.7424  0.1071  1.7479
  456MOL0     H62883   8.902  10.116   1.030  4.7248 -1.9377 -1.2744
  456MOL0     H62884   8.672   9.974   1.158  2.1336 -2.0057 -0.8389
  456MOL0     H62885   8.726  10.136   1.205 -0.1347  1.2630 -0.7129
  456MOL0     H62886   8.635  10.378   1.114 -0.3478  0.0840  0.5764
  456MOL0     H62887   8.371  10.592   1.081  0.7365  0.8807 -0.6375
  456MOL0     H62888   8.537  10.560   1.112  0.5612 -0.5214  1.2300
  456MOL0     H62889   8.438  10.549   1.251 -0.1613 -2.3298  0.3735
  456MOL0     H62890   7.973  10.586   1.034  2.2469  3.9682 -0.5403
  456MOL0     H62891   7.730  10.658   1.132  0.4057  2.3443 -0.9687
  456MOL0     H62892   7.697  10.807   1.501  0.8408  1.9310 -1.1214
  456MOL0     H62893   7.638  10.870   1.339 -3.0673 -0.0857 -0.8908
  456MOL0     H62894   7.446  10.882   1.493 -3.9518 -2.7170  0.0013
  456MOL0     H62895   7.437  10.746   1.380 -3.1101  0.9117  0.8148
  456MOL0     H62896   7.525  10.602   1.575  1.2219  1.2277 -0.8014
  456MOL0     H62897   7.365  10.670   1.590 -0.4962  1.8835 -5.3132
  456MOL0     H62898   7.453  10.701   1.790  0.5637 -0.2263  0.0882
  456MOL0     H62899   7.466  10.862   1.744 -0.0352  0.6261  2.6643
  456MOL0     H62900   7.728  10.812   1.710  0.7415  0.1992  1.2705
  456MOL0     H62901   7.660  10.803   1.871 -0.2121 -0.2396 -0.1184
  456MOL0     H62902   7.719  10.552   1.690 -0.0966 -2.9362  1.3835
  456MOL0     H62903   7.636  10.557   1.848 -1.4645 -0.0453 -2.7486
  456MOL0     H62904   7.858  10.623   1.942  0.7192  1.8734 -1.2728
  456MOL0     H62905   7.915  10.675   1.786  0.4224  1.7168  2.6816
  456MOL0     H62906   7.930  10.463   1.702 -0.8464  0.5130 -0.3724
  456MOL0     H62907   7.838  10.396   1.841 -0.4194 -0.0195  0.4931
  456MOL0     H62908   7.873  10.622   1.523  1.0119 -1.7022  0.8344
  456MOL0     H62909   8.104  10.589   1.439  3.6001  0.6258 -3.2843
  456MOL0     H62910   8.206  10.141   1.049  0.5854  0.6150  0.7567
  456MOL0     H62911   8.422  10.043   0.976 -0.1887  0.0098  0.0805
  456MOL0     H62912  10.122   8.830   1.107  0.9892 -0.7686  0.9801
  456MOL0     H62913  10.356   8.840   1.154 -0.3703 -0.2246 -0.2598
  456MOL0     H62914  10.697   9.249   1.039  0.7178  0.2804 -1.7519
  456MOL0     H62915  10.884   9.351   1.035 -0.2362  1.5779  2.9043
  456MOL0     H62916  11.119   9.444   1.008  0.9906 -0.6783 -0.9872
  456MOL0     H62917  11.061   9.468   1.165 -1.0188 -0.8585 -0.1445
  456MOL0     H62918  11.339   9.395   1.080  0.5068  0.5961  0.4535
  456MOL0     H62919  11.307   9.422   1.254 -0.2345  0.6326  0.5705
  456MOL0     H62920  11.306   9.641   1.036 -3.5815  0.8125  0.4967
  456MOL0     H62921  11.237   9.650   1.197 -0.1592 -0.6920  0.0379
  456MOL0     H62922  11.455   9.583   1.295  1.5970 -1.3727  0.1256
  456MOL0     H62923  11.471   9.731   1.206  1.3998 -1.3791  1.5857
  456MOL0     H62924  11.728   9.522   0.959  1.4557  1.2362  1.2099
  456MOL0     H62925  11.087   9.044   1.250  0.4541  0.2731 -1.2454
  456MOL0     H62926  10.963   8.886   1.349 -0.1014 -0.8938 -1.2606
  456MOL0     H62927  10.787   8.858   1.320 -1.2888 -0.7979 -2.2919
  456MOL0     H62928  10.891   8.784   1.218 -3.0461 -0.8451  0.1238
  457MOL0     O62929   8.000   0.075   4.675 -0.9724 -0.6509 -0.0710
  457MOL0     C62930   8.082   0.000   4.625  0.4011  0.1096  0.4718
  457MOL0     O62931   8.042  -0.128   4.576  0.3784  0.4241 -0.0040
  457MOL0     C62932   7.910  -0.169   4.597 -0.1931 -0.3387 -0.2302
  457MOL0     C62933   7.832  -0.214   4.491 -0.2508 -0.1140 -0.0305
  457MOL0     C62934   7.701  -0.262   4.505 -0.1868  0.8322 -1.2649
  457MOL0     C62935   7.638  -0.257   4.628  0.8706 -0.2169 -0.3073
  457MOL0     O62936   7.504  -0.289   4.653 -0.7162  0.4282  0.8834
  457MOL0     C62937   7.417  -0.313   4.545 -0.6333 -0.2533 -0.1927
  457MOL0     C62938   7.292  -0.314   4.623  0.1485  0.4266 -0.4163
  457MOL0     C62939   7.254  -0.194   4.711 -0.1366  0.5610 -0.8243
  457MOL0     C62940   7.147  -0.244   4.812  0.2261  0.1915  0.6069
  457MOL0     C62941   7.062  -0.127   4.867  0.0369 -0.2706 -0.1720
  457MOL0     C62942   7.142  -0.031   4.951  0.3616 -0.4686 -0.0204
  457MOL0     C62943   7.055   0.099   4.985 -0.3832  0.5225 -0.4295
  457MOL0     C62944   7.006   0.096   5.136  0.0993  0.1536 -0.3712
  457MOL0     N62945   7.114   0.065   5.227 -0.2361 -0.0183  0.2214
  457MOL0     C62946   7.213   0.157   5.255  0.4700 -0.9901  0.0983
  457MOL0     C62947   7.288   0.102   5.347  0.1290  1.0513  0.1097
  457MOL0     C62948   7.421   0.167   5.410  0.3969  0.8738 -0.5671
  457MOL0     C62949   7.527   0.199   5.312  0.8599  0.8706  0.4415
  457MOL0     C62950   7.580   0.075   5.223 -0.4772 -0.0002 -1.0515
  457MOL0     C62951   7.632  -0.038   5.316 -0.5064 -0.6323  0.0205
  457MOL0     O62952   7.714  -0.137   5.238  0.1736 -0.0983 -0.1861
  457MOL0     C62953   7.842  -0.106   5.204 -0.6907 -0.9897  0.1455
  457MOL0     C62954   7.903  -0.192   5.111  0.7041  0.5647  0.2389
  457MOL0     C62955   8.039  -0.174   5.070  0.0743  2.0900 -0.4229
  457MOL0     C62956   8.105  -0.275   4.979 -0.3004 -0.5337  0.3908
  457MOL0     C62957   8.118  -0.070   5.123  0.6774 -0.6440  0.5610
  457MOL0     C62958   8.266  -0.039   5.100  0.8503  0.3707  0.0270
  457MOL0     O62959   8.320   0.071   5.167 -0.1744 -0.0371  0.0070
  457MOL0     C62960   8.451   0.110   5.144 -0.5387 -1.2278 -0.2659
  457MOL0     C62961   8.525   0.107   5.025  1.0088  0.0988  0.3393
  457MOL0     C62962   8.659   0.149   5.017 -0.7849  1.0792 -0.6181
  457MOL0     C62963   8.715   0.205   5.135 -0.6513 -0.3016 -1.2580
  457MOL0     O62964   8.834   0.265   5.139  0.5648  0.0475  0.7797
  457MOL0     C62965   8.877   0.335   5.012  0.2560  0.3257  0.5492
  457MOL0     C62966   9.010   0.403   5.033 -0.6588  0.2754 -0.6204
  457MOL0     C62967   9.069   0.455   4.900  0.0480 -1.0481 -0.6013
  457MOL0     C62968   9.165   0.363   4.820 -0.7637  0.1049 -0.1367
  457MOL0     C62969   9.212   0.428   4.687  1.2231  0.1527  0.3365
  457MOL0     C62970   9.326   0.528   4.714 -0.1849  0.2289 -0.3549
  457MOL0     C62971   9.342   0.626   4.599 -0.1261  0.1018 -0.3196
  457MOL0     C62972   9.360   0.778   4.637 -0.3847  0.0528 -0.3609
  457MOL0    Cl62973   9.361   0.874   4.488 -0.0624  0.6436  0.4424
  457MOL0     C62974   8.644   0.201   5.245 -0.1550 -0.4857 -0.3849
  457MOL0     C62975   8.512   0.168   5.256  0.6068  0.8691 -0.0090
  457MOL0     O62976   8.332  -0.117   5.030  0.4555 -0.0631 -0.1611
  457MOL0     C62977   8.048   0.020   5.205 -0.0526  0.5596 -0.0728
  457MOL0     C62978   7.915   0.004   5.247  0.0202  1.3526 -1.2558
  457MOL0     N62979   7.241  -0.023   5.372 -0.7753  0.2724 -0.2436
  457MOL0     N62980   7.132  -0.047   5.307  0.1550  0.2933  0.2706
  457MOL0     C62981   7.713  -0.209   4.738  0.5009 -0.2823 -0.1781
  457MOL0     C62982   7.853  -0.174   4.726  0.1045  1.0144  0.4280
  457MOL0     C62983   8.228   0.027   4.628 -0.1333  1.1338 -0.1872
  457MOL0     C62984   8.309  -0.091   4.649  0.1862 -0.0700 -0.5185
  457MOL0     C62985   8.453  -0.082   4.656  0.8322  1.0350  0.1956
  457MOL0     C62986   8.513   0.037   4.646 -0.3969 -0.1625  0.0599
  457MOL0     O62987   8.647   0.040   4.658 -0.1588 -0.0242 -0.2784
  457MOL0     C62988   8.719   0.156   4.634  0.9353 -0.2014  0.1463
  457MOL0     C62989   8.870   0.130   4.623 -0.1164  0.5748 -1.2848
  457MOL0     C62990   8.914   0.042   4.507  0.9111  1.2070  1.0651
  457MOL0     C62991   9.059   0.031   4.498 -0.2239 -0.0608  0.6490
  457MOL0     C62992   9.105  -0.046   4.380  0.7453 -0.1962 -0.4693
  457MOL0     C62993   9.152  -0.107   4.281 -0.1159  0.0256 -0.6274
  457MOL0     C62994   8.436   0.152   4.641  0.4312 -0.1983 -0.4846
  457MOL0     C62995   8.292   0.146   4.638 -1.0264  0.2539 -0.2765
  457MOL0     C62996   8.214   0.279   4.617 -0.4704  0.5644  0.3922
  457MOL0     H62997   7.874  -0.218   4.391 -0.7589 -3.4069 -0.2361
  457MOL0     H62998   7.641  -0.312   4.430 -1.0057  1.3730 -0.9883
  457MOL0     H62999   7.432  -0.410   4.496  3.4917 -0.1399  0.4715
  457MOL0     H63000   7.432  -0.233   4.472 -1.2836  1.0511  1.0684
  457MOL0     H63001   7.214  -0.324   4.548  0.0005  1.5672 -0.4335
  457MOL0     H63002   7.295  -0.405   4.685 -0.5959  1.8128  1.7865
  457MOL0     H63003   7.340  -0.158   4.768 -0.4606 -2.1790  1.6003
  457MOL0     H63004   7.217  -0.110   4.651  2.0796  2.0825 -0.2035
  457MOL0     H63005   7.073  -0.311   4.768 -1.6766  2.5390  0.0275
  457MOL0     H63006   7.195  -0.302   4.892 -0.3829 -3.2505 -1.2910
  457MOL0     H63007   6.986  -0.166   4.936 -2.3568  2.7948 -0.8247
  457MOL0     H63008   7.006  -0.082   4.784  4.0306  1.9639 -1.9478
  457MOL0     H63009   7.191  -0.083   5.034 -0.9890 -1.6355  0.0930
  457MOL0     H63010   7.220   0.013   4.887  1.8990 -1.9386  0.7583
  457MOL0     H63011   6.976   0.104   4.910 -1.2007 -1.2153  0.2497
  457MOL0     H63012   7.113   0.192   4.983 -1.0089  1.0594  2.1805
  457MOL0     H63013   6.968   0.195   5.163  0.0646 -0.6121  2.7677
  457MOL0     H63014   6.923   0.028   5.156  0.2540  0.0234 -0.1730
  457MOL0     H63015   7.220   0.248   5.197 -2.2586 -1.6964 -1.5459
  457MOL0     H63016   7.458   0.102   5.489 -0.1182  0.5010 -0.6264
  457MOL0     H63017   7.386   0.254   5.465 -2.9596 -2.1175  2.5128
  457MOL0     H63018   7.471   0.274   5.256 -1.6122 -0.8149  0.4802
  457MOL0     H63019   7.611   0.236   5.371  1.8973 -3.6099  2.1782
  457MOL0     H63020   7.495   0.048   5.160 -1.1189  1.6840 -0.9598
  457MOL0     H63021   7.661   0.105   5.156  1.1386 -1.1241  0.3350
  457MOL0     H63022   7.686   0.017   5.394 -0.0519  0.8632 -1.2737
  457MOL0     H63023   7.558  -0.101   5.365  0.6929 -1.8871  0.2864
  457MOL0     H63024   7.845  -0.276   5.075 -0.6628  1.6915 -0.2917
  457MOL0     H63025   8.038  -0.354   4.944 -0.2417 -0.4720  0.1386
  457MOL0     H63026   8.189  -0.329   5.023 -0.6303 -0.5418  1.0240
  457MOL0     H63027   8.129  -0.221   4.887  0.8152  2.5112  2.2844
  457MOL0     H63028   8.475   0.074   4.934 -0.2990  0.2603  0.9632
  457MOL0     H63029   8.719   0.136   4.928 -1.3035  1.8270 -1.0824
  457MOL0     H63030   8.894   0.272   4.924  0.5828 -0.2274  0.9988
  457MOL0     H63031   8.797   0.408   4.992 -0.1440  0.5116  2.5909
  457MOL0     H63032   8.988   0.494   5.090 -0.8767  0.1814 -0.5519
  457MOL0     H63033   9.071   0.329   5.085 -2.7477 -0.4377  0.9477
  457MOL0     H63034   9.119   0.551   4.916 -1.8270 -0.0162 -0.6898
  457MOL0     H63035   8.984   0.484   4.837  0.3959 -0.0157 -0.6274
  457MOL0     H63036   9.120   0.265   4.806 -0.5295 -0.1405  0.8060
  457MOL0     H63037   9.256   0.353   4.880 -1.5046  0.3749  1.0596
  457MOL0     H63038   9.244   0.350   4.617 -0.4598  0.9655 -1.4490
  457MOL0     H63039   9.127   0.480   4.643  0.9089 -2.5879 -2.6366
  457MOL0     H63040   9.419   0.474   4.735 -0.6685 -0.8068 -0.8224
  457MOL0     H63041   9.304   0.594   4.799  0.6201 -0.4125  0.3742
  457MOL0     H63042   9.253   0.621   4.536  1.0481  0.5120 -2.1118
  457MOL0     H63043   9.424   0.599   4.532 -1.0788  1.6746 -2.2105
  457MOL0     H63044   9.453   0.788   4.694 -0.2492 -1.7514 -0.1916
  457MOL0     H63045   9.285   0.812   4.710  1.8814  2.7345  0.9114
  457MOL0     H63046   8.690   0.253   5.329  0.5529 -0.2284 -0.9209
  457MOL0     H63047   8.467   0.180   5.354 -1.1980  3.1089 -1.0090
  457MOL0     H63048   8.107   0.103   5.243 -0.8783  0.8421  0.6510
  457MOL0     H63049   7.873   0.079   5.313  0.1310 -0.7159  1.3568
  457MOL0     H63050   7.655  -0.197   4.829  1.8682  0.3633  0.6512
  457MOL0     H63051   7.901  -0.135   4.814 -0.7016 -0.4311  1.5552
  457MOL0     H63052   8.264  -0.188   4.667  2.9029 -1.3482 -0.1774
  457MOL0     H63053   8.511  -0.171   4.681 -2.5405 -1.5371 -0.3484
  457MOL0     H63054   8.681   0.198   4.540 -0.5666 -0.4110  0.6238
  457MOL0     H63055   8.711   0.226   4.717 -0.2643 -0.4239  0.2390
  457MOL0     H63056   8.908   0.082   4.714 -1.1397 -0.5195 -1.4169
  457MOL0     H63057   8.925   0.224   4.615 -0.0194  0.6128 -0.3451
  457MOL0     H63058   8.865  -0.055   4.513 -3.1161  2.9682  0.0010
  457MOL0     H63059   8.872   0.084   4.415 -2.1922 -3.3800  0.0634
  457MOL0     H63060   9.101  -0.021   4.585  0.5811  1.3173  1.1294
  457MOL0     H63061   9.092   0.136   4.497 -2.3416  0.7259  2.8406
  457MOL0     H63062   9.189  -0.159   4.195 -0.5535  2.5164 -2.4231
  457MOL0     H63063   8.477   0.253   4.638  0.9966 -0.3747  0.6655
  457MOL0     H63064   8.121   0.264   4.561  1.5559  2.3537 -3.8786
  457MOL0     H63065   8.202   0.304   4.723  4.4157  0.8053  1.0925
  457MOL0     H63066   8.264   0.364   4.571  1.3446 -0.8491 -0.3854
  458MOL0     O63067   9.853   0.655   5.561  0.0727 -0.2112 -0.7183
  458MOL0     C63068   9.900   0.685   5.676 -0.6682 -0.7702  0.4711
  458MOL0     O63069  10.009   0.757   5.700 -1.1113  0.0549 -0.0730
  458MOL0     C63070  10.112   0.752   5.610 -0.4749 -0.2213  0.7466
  458MOL0     C63071  10.094   0.786   5.475  0.3504  0.0109 -0.3181
  458MOL0     C63072  10.194   0.782   5.384 -0.7369 -0.0408  0.4874
  458MOL0     C63073  10.324   0.744   5.421 -0.2071  0.0888  0.4303
  458MOL0     O63074  10.411   0.732   5.311  0.0672 -0.5931 -0.0140
  458MOL0     C63075  10.558   0.743   5.322  0.8197 -0.8173 -0.5622
  458MOL0     C63076  10.593   0.891   5.293  0.3591  0.1420 -1.1098
  458MOL0     C63077  10.736   0.897   5.246 -0.7560  0.2797 -0.1225
  458MOL0     C63078  10.838   0.935   5.362 -0.9217  0.5575 -0.1804
  458MOL0     C63079  10.977   0.960   5.301  0.4632  0.1795 -0.2742
  458MOL0     C63080  11.095   0.993   5.399 -0.3675 -0.0365  0.0020
  458MOL0     C63081  11.229   1.017   5.319  0.5491  0.2659 -0.2345
  458MOL0     C63082  11.352   1.061   5.408  0.6625 -0.0307 -0.0300
  458MOL0     N63083  11.328   0.990   5.541 -0.3198 -0.5845  0.3575
  458MOL0     C63084  11.337   0.858   5.571  0.4473  0.8355 -0.2307
  458MOL0     C63085  11.313   0.844   5.707 -0.1072  0.0356 -0.6664
  458MOL0     C63086  11.314   0.721   5.797 -0.6943  0.1058 -0.3258
  458MOL0     C63087  11.448   0.715   5.881 -0.1410 -0.9179 -0.3220
  458MOL0     C63088  11.421   0.792   6.011  0.3326  0.2899 -0.3853
  458MOL0     C63089  11.528   0.763   6.116 -0.3239 -0.4328 -0.4517
  458MOL0     O63090  11.665   0.791   6.070  0.0954  0.8059  0.5750
  458MOL0     C63091  11.768   0.698   6.101  0.1490 -0.0502  0.2843
  458MOL0     C63092  11.898   0.738   6.123  0.4406  0.5520 -0.1000
  458MOL0     C63093  11.991   0.642   6.172  0.6447  0.0626 -0.3277
  458MOL0     C63094  12.123   0.696   6.210 -0.2250 -0.5692 -0.0164
  458MOL0     C63095  11.954   0.506   6.181  0.1344 -0.4234  0.5420
  458MOL0     C63096  12.031   0.395   6.243 -0.2837  0.5293  0.2603
  458MOL0     O63097  11.950   0.308   6.311 -0.0431 -0.1264  0.5486
  458MOL0     C63098  12.008   0.212   6.393 -0.3725 -0.0956 -0.2795
  458MOL0     C63099  12.105   0.248   6.494 -1.0070 -0.0465  0.0824
  458MOL0     C63100  12.169   0.159   6.575 -0.6304  0.1838 -0.2313
  458MOL0     C63101  12.135   0.023   6.571 -0.3980 -0.3993 -0.0931
  458MOL0     O63102  12.196  -0.073   6.658 -0.6137 -0.3575 -0.6923
  458MOL0     C63103  12.182  -0.023   6.794 -0.0305  0.4458  0.0436
  458MOL0     C63104  12.266  -0.118   6.897 -0.7933 -0.2775 -0.2378
  458MOL0     C63105  12.411  -0.120   6.863  0.9396 -0.8652  0.5868
  458MOL0     C63106  12.469   0.011   6.900  0.5006  0.5294  0.8198
  458MOL0     C63107  12.618   0.020   6.863  0.0473 -0.2237 -0.0635
  458MOL0     C63108  12.644   0.041   6.714 -0.0598 -0.1582  0.4550
  458MOL0     C63109  12.791   0.023   6.684 -0.2059  0.6027  0.0363
  458MOL0     C63110  12.804   0.051   6.534  0.5201  0.7857  0.5251
  458MOL0    Cl63111  12.787  -0.105   6.443 -0.0471  0.0112 -0.3243
  458MOL0     C63112  12.038  -0.019   6.481  0.0513 -0.3083  0.3645
  458MOL0     C63113  11.969   0.076   6.392  0.4321  0.2704  0.3008
  458MOL0     O63114  12.156   0.398   6.247 -0.3612  0.1828 -0.7304
  458MOL0     C63115  11.821   0.475   6.139 -0.0734  0.1932 -0.4411
  458MOL0     C63116  11.731   0.561   6.096  0.3015 -0.6332 -0.2647
  458MOL0     N63117  11.301   0.975   5.761  0.4902  0.4110 -0.6391
  458MOL0     N63118  11.300   1.053   5.660  1.1037  0.0764 -0.5223
  458MOL0     C63119  10.356   0.723   5.557  0.2186  0.1455  0.3377
  458MOL0     C63120  10.245   0.733   5.647 -0.4494  0.2013  1.1804
  458MOL0     C63121   9.820   0.637   5.787  1.3786 -0.6293 -0.3917
  458MOL0     C63122   9.845   0.688   5.920  0.1694  0.1496  0.3533
  458MOL0     C63123   9.775   0.649   6.038 -0.4876  0.8515  0.1418
  458MOL0     C63124   9.652   0.584   6.023  0.0089  0.0309 -0.0817
  458MOL0     O63125   9.578   0.558   6.136 -0.1074 -0.1915 -0.1319
  458MOL0     C63126   9.452   0.501   6.116 -0.1760  0.2132 -0.3386
  458MOL0     C63127   9.425   0.433   6.258  0.1649  0.2489 -0.2145
  458MOL0     C63128   9.323   0.318   6.247  0.2091  0.2273 -0.6130
  458MOL0     C63129   9.359   0.193   6.335 -0.3056  0.2159  0.4132
  458MOL0     C63130   9.485   0.132   6.315  0.9460  0.6233  0.6864
  458MOL0     C63131   9.592   0.091   6.325 -0.4581 -0.0179  0.2299
  458MOL0     C63132   9.615   0.547   5.890 -0.5044  0.1318  0.3613
  458MOL0     C63133   9.705   0.550   5.778  0.4886 -0.1010 -0.0665
  458MOL0     C63134   9.662   0.474   5.650 -0.6555  0.5046  0.0906
  458MOL0     H63135   9.995   0.809   5.437  0.3245 -1.4530 -1.2514
  458MOL0     H63136  10.175   0.815   5.282  3.3827 -0.3388 -0.5496
  458MOL0     H63137  10.607   0.674   5.253  0.3632 -0.8001 -0.9151
  458MOL0     H63138  10.579   0.706   5.422 -2.3064 -0.5181  0.3067
  458MOL0     H63139  10.536   0.932   5.209  0.0568  4.9068  1.1018
  458MOL0     H63140  10.579   0.952   5.383  1.1141 -2.6712  1.0594
  458MOL0     H63141  10.769   0.806   5.194 -1.9384  1.2418 -2.7493
  458MOL0     H63142  10.726   0.969   5.164 -1.7878 -1.3742 -1.5264
  458MOL0     H63143  10.805   1.022   5.419  1.4174  0.7384  0.9932
  458MOL0     H63144  10.858   0.849   5.427 -0.5554  0.8867  0.1423
  458MOL0     H63145  10.959   1.044   5.233 -1.4991 -0.1514 -0.2333
  458MOL0     H63146  11.010   0.876   5.239  2.0444  1.4044 -1.1656
  458MOL0     H63147  11.063   1.079   5.458 -2.5470  0.2102 -1.4290
  458MOL0     H63148  11.104   0.903   5.460 -1.0732 -0.6430 -0.7721
  458MOL0     H63149  11.216   1.079   5.230 -3.7321  1.7392  1.1746
  458MOL0     H63150  11.261   0.915   5.297  0.3587  0.0536  0.4478
  458MOL0     H63151  11.448   1.035   5.363  0.7245  1.4358 -0.7815
  458MOL0     H63152  11.349   1.170   5.406  2.1002  0.0135 -1.5894
  458MOL0     H63153  11.337   0.780   5.495 -3.1321 -0.6144  1.0419
  458MOL0     H63154  11.307   0.638   5.726  0.5577  0.2125 -0.6011
  458MOL0     H63155  11.233   0.732   5.869 -0.4161  1.3570 -0.1785
  458MOL0     H63156  11.470   0.613   5.911 -0.5105 -1.0936 -0.6352
  458MOL0     H63157  11.534   0.753   5.826 -1.7163 -0.1363 -2.4011
  458MOL0     H63158  11.416   0.896   5.978 -0.0919 -0.1648 -1.8112
  458MOL0     H63159  11.330   0.764   6.065  0.5264  2.2808  1.1141
  458MOL0     H63160  11.507   0.829   6.201  0.7136 -0.5865 -0.0565
  458MOL0     H63161  11.530   0.665   6.164  0.8548  0.4285  1.3834
  458MOL0     H63162  11.934   0.838   6.101  3.5632 -0.6313 -0.9241
  458MOL0     H63163  12.144   0.791   6.160 -2.1970  0.4355  0.9357
  458MOL0     H63164  12.209   0.634   6.184  0.9226  2.0146 -3.0402
  458MOL0     H63165  12.140   0.712   6.317 -1.6767  0.7910  0.0539
  458MOL0     H63166  12.139   0.349   6.512  0.6463  0.0647 -2.9507
  458MOL0     H63167  12.245   0.205   6.638 -0.3282  1.6610 -1.6135
  458MOL0     H63168  12.212   0.081   6.809 -2.1289  1.0940  0.0245
  458MOL0     H63169  12.078  -0.030   6.827  0.4625 -1.7955  1.3532
  458MOL0     H63170  12.253  -0.081   6.999 -0.2413  0.4076 -0.4022
  458MOL0     H63171  12.228  -0.220   6.901 -1.9954  0.0726 -1.6721
  458MOL0     H63172  12.436  -0.159   6.764  0.5132 -0.7440  0.4297
  458MOL0     H63173  12.460  -0.192   6.928  0.3177 -1.9404 -0.1114
  458MOL0     H63174  12.454   0.020   7.008 -2.2147  0.7435  0.5039
  458MOL0     H63175  12.426   0.095   6.845 -0.5605  0.9981  2.2953
  458MOL0     H63176  12.655   0.106   6.919  0.2580 -0.5771  0.3502
  458MOL0     H63177  12.676  -0.065   6.902  1.0642  0.3274 -0.3410
  458MOL0     H63178  12.602   0.136   6.680 -3.2622 -1.0013  1.6789
  458MOL0     H63179  12.594  -0.036   6.655 -1.3147  0.0887  1.1330
  458MOL0     H63180  12.818  -0.083   6.696 -0.3675  0.2571 -2.2070
  458MOL0     H63181  12.855   0.085   6.747  0.3034 -1.2576  1.4173
  458MOL0     H63182  12.896   0.102   6.504 -0.6879  3.4899  1.0723
  458MOL0     H63183  12.726   0.116   6.493 -2.7918 -2.4467  1.1922
  458MOL0     H63184  12.010  -0.124   6.479 -2.6703  0.3675 -0.6238
  458MOL0     H63185  11.879   0.041   6.342  2.5737 -0.0534 -3.7219
  458MOL0     H63186  11.782   0.374   6.144 -1.4585  0.7284 -0.1143
  458MOL0     H63187  11.640   0.515   6.060  1.8772 -3.2011 -1.2693
  458MOL0     H63188  10.450   0.720   5.611  0.7743  0.4887 -0.6003
  458MOL0     H63189  10.263   0.722   5.753 -0.3101  3.5917  1.6249
  458MOL0     H63190   9.941   0.737   5.934 -0.9376  1.8308  2.5557
  458MOL0     H63191   9.812   0.684   6.134 -1.2376 -0.3630  0.8966
  458MOL0     H63192   9.377   0.575   6.088  0.0995  0.4849 -0.3752
  458MOL0     H63193   9.462   0.414   6.049 -2.2631 -1.7134  1.6713
  458MOL0     H63194   9.392   0.510   6.329 -0.3611 -0.4004  0.2615
  458MOL0     H63195   9.525   0.397   6.284  1.9711  2.2604 -3.6991
  458MOL0     H63196   9.225   0.350   6.285 -0.3336  1.8246 -3.1069
  458MOL0     H63197   9.306   0.273   6.149 -1.7779  0.3513 -0.3816
  458MOL0     H63198   9.275   0.123   6.337 -0.3745  0.1850 -1.5366
  458MOL0     H63199   9.367   0.225   6.439  0.1755  0.3667  0.3306
  458MOL0     H63200   9.690   0.050   6.339  0.3157  1.1648 -1.4636
  458MOL0     H63201   9.524   0.492   5.870  0.3787 -0.3731 -2.7853
  458MOL0     H63202   9.734   0.396   5.625 -0.7636  0.0938  1.0269
  458MOL0     H63203   9.571   0.428   5.687 -0.1484  1.3095  2.5527
  458MOL0     H63204   9.653   0.533   5.558  1.0357  0.1029 -0.3778
  459MOL0     O63205   6.635   6.790   1.632 -0.3084 -0.1723  0.1731
  459MOL0     C63206   6.538   6.861   1.670 -0.6065 -0.2189 -0.0014
  459MOL0     O63207   6.533   6.929   1.787  0.2563 -0.0744  0.1297
  459MOL0     C63208   6.648   6.938   1.861 -0.2853  0.1105  0.1337
  459MOL0     C63209   6.736   7.047   1.844 -0.3265 -0.4532 -0.0018
  459MOL0     C63210   6.864   7.049   1.901 -0.5220  0.1926 -0.5421
  459MOL0     C63211   6.889   6.969   2.009 -0.2234  0.5666  0.0784
  459MOL0     O63212   7.011   6.985   2.061 -0.8523  0.0981  0.3044
  459MOL0     C63213   7.018   7.065   2.178  0.5642 -0.7151  0.0815
  459MOL0     C63214   7.159   7.096   2.210 -0.1737 -0.5243  0.0716
  459MOL0     C63215   7.235   7.151   2.086 -0.0194 -0.2559 -0.6537
  459MOL0     C63216   7.350   7.058   2.045  0.2750  0.2982  0.0702
  459MOL0     C63217   7.399   7.104   1.908  1.4846  0.6086  0.6257
  459MOL0     C63218   7.479   7.004   1.818  0.1278  0.5473  1.5814
  459MOL0     C63219   7.565   6.909   1.907 -1.0125 -0.6187  0.0561
  459MOL0     C63220   7.645   6.820   1.805 -0.2938 -1.1301 -1.2048
  459MOL0     N63221   7.761   6.892   1.748 -0.5323 -0.4568 -0.5662
  459MOL0     C63222   7.887   6.886   1.801 -0.3731  1.4256 -0.1298
  459MOL0     C63223   7.951   6.986   1.736 -0.5091  0.2982 -0.3370
  459MOL0     C63224   8.082   7.041   1.767 -0.9042 -0.0001  0.1766
  459MOL0     C63225   8.176   7.082   1.648 -0.2360 -0.0940 -1.2122
  459MOL0     C63226   8.303   7.156   1.701 -0.9882 -0.6785 -0.0621
  459MOL0     C63227   8.428   7.081   1.655 -0.0121  0.1833 -0.6678
  459MOL0     O63228   8.536   7.163   1.693 -0.2399  0.3297  0.1201
  459MOL0     C63229   8.632   7.110   1.780  0.0020  0.4975 -0.4642
  459MOL0     C63230   8.670   6.976   1.777 -0.4637 -0.7286 -0.5389
  459MOL0     C63231   8.789   6.930   1.839 -0.1807  0.0249  0.0919
  459MOL0     C63232   8.820   6.783   1.815  1.0452 -0.6207 -0.5463
  459MOL0     C63233   8.861   7.020   1.920 -0.4551  0.3707  0.7217
  459MOL0     C63234   8.980   6.988   1.995  0.0966 -0.0115 -0.4308
  459MOL0     O63235   9.021   7.082   2.089 -0.4830  1.0343 -0.5837
  459MOL0     C63236   9.134   7.056   2.166  0.4831  0.1938  0.0333
  459MOL0     C63237   9.131   7.050   2.306  1.3510  0.2010  0.0777
  459MOL0     C63238   9.245   7.033   2.389 -0.1905 -0.3382  0.7685
  459MOL0     C63239   9.370   7.024   2.322 -0.0317  0.2153 -0.7938
  459MOL0     O63240   9.477   6.990   2.397 -0.4260 -0.7497  0.0618
  459MOL0     C63241   9.588   6.921   2.333  0.4392 -0.5574  0.3992
  459MOL0     C63242   9.702   6.904   2.437 -0.5061  0.8873  0.4406
  459MOL0     C63243   9.813   6.808   2.389 -0.0025  1.4739  0.5310
  459MOL0     C63244   9.871   6.715   2.496 -0.1168 -0.3592  0.8494
  459MOL0     C63245   9.994   6.641   2.438 -0.0502  0.3715 -0.1681
  459MOL0     C63246  10.063   6.555   2.538  0.1486 -0.0424 -0.2417
  459MOL0     C63247   9.991   6.424   2.563  0.7570  0.8327 -0.5497
  459MOL0     C63248  10.053   6.337   2.668  0.0593  0.1464  1.1488
  459MOL0    Cl63249  10.051   6.411   2.826  0.2166 -0.1591  0.0596
  459MOL0     C63250   9.376   7.049   2.184 -0.5092 -0.0909 -0.3161
  459MOL0     C63251   9.259   7.058   2.105  0.2299 -0.6683  0.2384
  459MOL0     O63252   9.046   6.891   1.961  0.4972  0.1632 -0.5314
  459MOL0     C63253   8.809   7.149   1.942  0.5154  0.3465 -0.4167
  459MOL0     C63254   8.703   7.192   1.862 -0.2371  0.4998 -0.1401
  459MOL0     N63255   7.872   7.048   1.643 -0.5546 -0.6680 -0.3837
  459MOL0     N63256   7.758   6.979   1.643 -0.1815 -0.7478 -0.2909
  459MOL0     C63257   6.798   6.868   2.042 -0.8758 -0.1479 -0.1113
  459MOL0     C63258   6.688   6.843   1.962  0.4522 -1.2406 -0.5830
  459MOL0     C63259   6.423   6.899   1.587 -0.2312  0.3005  0.2150
  459MOL0     C63260   6.452   6.936   1.453  0.5329  0.8581  0.0262
  459MOL0     C63261   6.356   6.976   1.359  0.0016  0.5228 -0.3167
  459MOL0     C63262   6.227   6.987   1.411 -0.0587 -0.8664  0.7555
  459MOL0     O63263   6.136   7.008   1.307  0.1312 -0.2784 -0.4411
  459MOL0     C63264   6.035   6.905   1.297  0.3128  0.3228  0.8493
  459MOL0     C63265   6.104   6.780   1.264  0.1571  0.8672 -0.0212
  459MOL0     C63266   6.012   6.654   1.273 -0.1845 -0.7247 -0.1909
  459MOL0     C63267   6.075   6.527   1.207 -0.5558 -0.0788 -1.3266
  459MOL0     C63268   6.194   6.478   1.285  0.1000  0.2144  0.4929
  459MOL0     C63269   6.289   6.462   1.354  0.4819  0.0012 -0.8191
  459MOL0     C63270   6.195   6.945   1.543 -0.4637 -0.8493  0.1393
  459MOL0     C63271   6.291   6.900   1.632 -0.3913  0.2724  0.2553
  459MOL0     C63272   6.246   6.878   1.769  0.1561  0.3584 -0.4848
  459MOL0     H63273   6.710   7.130   1.778 -0.1544 -0.2943  0.1258
  459MOL0     H63274   6.929   7.126   1.861 -3.5392  2.1848 -1.9317
  459MOL0     H63275   6.963   7.026   2.264 -1.4364  0.5104 -0.5666
  459MOL0     H63276   6.969   7.160   2.156  1.8820 -0.0615 -0.1282
  459MOL0     H63277   7.150   7.179   2.281  0.2273  0.8748 -1.4525
  459MOL0     H63278   7.195   7.007   2.262 -2.4576 -2.4767 -1.5006
  459MOL0     H63279   7.167   7.164   2.002  0.3553 -1.5995 -1.1841
  459MOL0     H63280   7.272   7.252   2.104 -0.9795 -0.2256  1.3927
  459MOL0     H63281   7.433   7.057   2.117  0.5103 -4.4108  0.0297
  459MOL0     H63282   7.309   6.957   2.040  0.7195  0.0129  1.6120
  459MOL0     H63283   7.461   7.193   1.926 -0.5929  2.1543  0.5765
  459MOL0     H63284   7.318   7.124   1.837  2.0216 -0.4019 -0.2942
  459MOL0     H63285   7.419   6.930   1.765  0.8343  2.8600 -2.9662
  459MOL0     H63286   7.538   7.065   1.749  1.6797 -2.1865  0.3091
  459MOL0     H63287   7.508   6.855   1.983 -0.2645 -2.9331 -0.9608
  459MOL0     H63288   7.629   6.962   1.977 -0.6984  0.6872 -1.1732
  459MOL0     H63289   7.679   6.727   1.853  1.5916 -0.8511 -1.9194
  459MOL0     H63290   7.579   6.794   1.722 -0.5591 -1.4533 -0.8997
  459MOL0     H63291   7.914   6.822   1.885 -1.4549 -1.0530 -1.5630
  459MOL0     H63292   8.141   6.983   1.839  0.9180  0.5257 -0.8215
  459MOL0     H63293   8.052   7.134   1.818 -0.5471 -0.8894  2.1227
  459MOL0     H63294   8.217   6.990   1.604  0.3091 -1.0869  1.2019
  459MOL0     H63295   8.119   7.145   1.578 -0.7099  0.1953 -0.5671
  459MOL0     H63296   8.301   7.257   1.660  0.7769 -0.8776 -0.7098
  459MOL0     H63297   8.301   7.172   1.809 -0.1137  0.5809 -0.2079
  459MOL0     H63298   8.434   6.986   1.708  1.5013  0.2805 -0.6353
  459MOL0     H63299   8.425   7.055   1.549  0.0817  1.5648 -1.0334
  459MOL0     H63300   8.615   6.905   1.715  2.1630 -2.4950 -1.0271
  459MOL0     H63301   8.894   6.770   1.736 -0.7495 -0.8973 -2.2461
  459MOL0     H63302   8.725   6.742   1.779 -0.5106  2.2511 -0.0139
  459MOL0     H63303   8.857   6.725   1.900 -1.8552 -0.0980  1.2136
  459MOL0     H63304   9.035   7.039   2.356  0.6853 -2.1173 -1.5345
  459MOL0     H63305   9.239   7.007   2.494 -0.5039 -1.4326  0.4927
  459MOL0     H63306   9.547   6.822   2.308 -1.4761  0.5661 -1.2069
  459MOL0     H63307   9.636   6.963   2.244  1.1133  1.7740  1.7904
  459MOL0     H63308   9.747   7.004   2.448 -0.8817  1.0741  0.3010
  459MOL0     H63309   9.675   6.876   2.539  0.8698 -2.1406  0.0714
  459MOL0     H63310   9.898   6.867   2.353  1.3105 -0.6873 -0.0828
  459MOL0     H63311   9.772   6.748   2.307  1.1545  0.9769  0.2959
  459MOL0     H63312   9.799   6.636   2.520  0.4616 -1.2711 -0.2833
  459MOL0     H63313   9.898   6.769   2.587 -1.0415  1.5236  0.0594
  459MOL0     H63314   9.975   6.585   2.346 -2.7460 -0.7631  0.9652
  459MOL0     H63315  10.069   6.718   2.416  1.2393 -0.3530  1.4355
  459MOL0     H63316  10.078   6.620   2.624 -2.1459  0.0855  0.1172
  459MOL0     H63317  10.164   6.527   2.508 -0.2095  0.2645 -1.8432
  459MOL0     H63318   9.990   6.359   2.476  2.7544  1.3637 -1.0180
  459MOL0     H63319   9.885   6.431   2.589  0.0651 -1.7214 -2.2887
  459MOL0     H63320  10.158   6.310   2.655  0.2949  1.1365  0.8422
  459MOL0     H63321  10.000   6.242   2.656 -0.8753  0.9885 -3.0043
  459MOL0     H63322   9.475   7.063   2.143 -1.4864  0.2354 -2.7152
  459MOL0     H63323   9.266   7.077   1.998  1.6366  0.4657  0.5091
  459MOL0     H63324   8.865   7.215   2.007  2.1561 -2.0342  0.7746
  459MOL0     H63325   8.662   7.292   1.864 -0.5783  0.4594 -2.4900
  459MOL0     H63326   6.816   6.803   2.127  2.9918  0.4177 -0.2956
  459MOL0     H63327   6.619   6.766   1.994 -0.3176 -1.5146 -2.7302
  459MOL0     H63328   6.553   6.924   1.417 -0.1957 -1.4848 -1.4777
  459MOL0     H63329   6.388   7.011   1.261 -0.3470  3.1441  0.4121
  459MOL0     H63330   5.964   6.908   1.380 -2.0045 -0.1535 -1.0113
  459MOL0     H63331   5.966   6.924   1.215  2.3625 -1.5561 -1.4827
  459MOL0     H63332   6.193   6.765   1.327 -0.6391  3.3036  1.8081
  459MOL0     H63333   6.138   6.790   1.160  0.0255 -1.1046 -0.2904
  459MOL0     H63334   5.991   6.631   1.378  0.8392  2.8553  0.9233
  459MOL0     H63335   5.922   6.682   1.217  0.4279  0.3131 -0.6745
  459MOL0     H63336   6.098   6.541   1.101  0.9487  1.9833 -0.7719
  459MOL0     H63337   5.998   6.449   1.210 -0.4948 -0.3377 -3.7966
  459MOL0     H63338   6.388   6.452   1.394  0.1901 -4.3756 -0.6614
  459MOL0     H63339   6.089   6.955   1.567 -1.3723  2.2649 -4.0604
  459MOL0     H63340   6.308   6.811   1.830  0.1144 -0.1485 -0.9961
  459MOL0     H63341   6.235   6.976   1.815  2.7629  0.5915 -0.2049
  459MOL0     H63342   6.150   6.828   1.783  1.2003 -1.7523 -0.5171
  460MOL0     O63343   4.659   8.073   6.439 -0.2255  0.0737 -0.8883
  460MOL0     C63344   4.579   8.134   6.512  0.5276  0.3756  0.8617
  460MOL0     O63345   4.596   8.262   6.563  0.4417 -0.0413 -0.5299
  460MOL0     C63346   4.714   8.322   6.568 -0.2763 -0.1888 -0.1327
  460MOL0     C63347   4.744   8.381   6.697  0.6826  0.5409  0.4137
  460MOL0     C63348   4.849   8.461   6.712  0.1006  0.2921 -0.0122
  460MOL0     C63349   4.943   8.473   6.608  0.2050  0.0202  0.0992
  460MOL0     O63350   5.047   8.560   6.626 -0.6442  0.0041  0.0840
  460MOL0     C63351   5.147   8.581   6.528  0.7518  0.0128  0.0821
  460MOL0     C63352   5.248   8.677   6.589 -0.5681  0.4331  0.4420
  460MOL0     C63353   5.371   8.685   6.500  0.0549 -0.3310  1.1492
  460MOL0     C63354   5.490   8.609   6.552  0.0610  0.5978  1.0516
  460MOL0     C63355   5.597   8.609   6.440 -0.3335  0.6835 -0.5772
  460MOL0     C63356   5.684   8.744   6.448 -0.0688  0.0226 -0.5131
  460MOL0     C63357   5.795   8.754   6.329 -0.6947  0.9346  0.7093
  460MOL0     C63358   5.887   8.869   6.363 -0.2036  0.8907 -0.0523
  460MOL0     N63359   6.031   8.844   6.331  0.6214  0.2641  0.4839
  460MOL0     C63360   6.138   8.867   6.415 -0.5116  0.1110 -0.1337
  460MOL0     C63361   6.241   8.871   6.330 -0.8051 -0.2928  0.4690
  460MOL0     C63362   6.380   8.910   6.354 -0.0503 -0.3263 -0.1507
  460MOL0     C63363   6.430   8.870   6.490 -1.1767 -0.0838 -0.2495
  460MOL0     C63364   6.445   8.983   6.595  0.3583 -0.2684 -0.7189
  460MOL0     C63365   6.528   8.928   6.711 -1.2343  0.5426 -0.4941
  460MOL0     O63366   6.672   8.914   6.670 -0.5831 -0.3921 -0.0305
  460MOL0     C63367   6.750   9.022   6.683 -0.0338  0.0955  0.7823
  460MOL0     C63368   6.787   9.064   6.810  0.1516  0.4157  0.3448
  460MOL0     C63369   6.870   9.174   6.836 -0.5151  0.6696  0.6478
  460MOL0     C63370   6.913   9.194   6.978  0.1430  0.2617 -0.3220
  460MOL0     C63371   6.913   9.264   6.727 -0.1675 -0.0613  0.4496
  460MOL0     C63372   6.976   9.394   6.744 -0.9489  0.2571 -0.0285
  460MOL0     O63373   7.001   9.465   6.628  0.2683  0.1851  0.6394
  460MOL0     C63374   7.057   9.587   6.640  0.6577  0.0673 -0.1506
  460MOL0     C63375   7.195   9.613   6.667 -0.4178 -0.4454  0.8134
  460MOL0     C63376   7.242   9.749   6.663  0.5342 -0.1777 -1.2149
  460MOL0     C63377   7.142   9.849   6.637  0.3120 -1.0977 -0.6684
  460MOL0     O63378   7.181   9.976   6.616  0.6156  0.0085 -0.1267
  460MOL0     C63379   7.131  10.078   6.703 -0.1969  0.7986 -0.1024
  460MOL0     C63380   7.226  10.200   6.672  0.0018 -0.0364  0.5816
  460MOL0     C63381   7.196  10.241   6.527 -0.1890  0.1931  0.0707
  460MOL0     C63382   7.287  10.355   6.483  1.2171 -0.1812  0.0792
  460MOL0     C63383   7.289  10.375   6.327  0.0440 -0.3137 -1.0102
  460MOL0     C63384   7.347  10.508   6.289  0.8807 -0.8842  0.1767
  460MOL0     C63385   7.365  10.502   6.133 -0.1524 -0.1813 -0.8492
  460MOL0     C63386   7.374  10.643   6.079 -0.5982 -0.1811  0.1433
  460MOL0    Cl63387   7.390  10.644   5.901  0.3449 -0.1931  0.0041
  460MOL0     C63388   7.007   9.827   6.614  0.4906  0.0047 -0.9745
  460MOL0     C63389   6.961   9.695   6.611  0.0258  0.2595 -0.1236
  460MOL0     O63390   7.023   9.418   6.860 -0.2521 -0.4058  0.3390
  460MOL0     C63391   6.877   9.220   6.593 -0.0223  0.5597  0.1418
  460MOL0     C63392   6.801   9.102   6.579  0.3664 -1.3073  0.4522
  460MOL0     N63393   6.188   8.860   6.200 -0.1811 -0.2781  0.6134
  460MOL0     N63394   6.066   8.839   6.206 -0.5517  0.2948  0.5742
  460MOL0     C63395   4.907   8.433   6.477  0.2716  0.3324 -0.3602
  460MOL0     C63396   4.802   8.347   6.458  0.3878  0.0198  0.3948
  460MOL0     C63397   4.444   8.063   6.523  0.2103  0.1521  0.2512
  460MOL0     C63398   4.428   7.945   6.448  0.1606 -0.9453 -0.1149
  460MOL0     C63399   4.307   7.885   6.447  1.0117  0.3645  0.0136
  460MOL0     C63400   4.196   7.930   6.524  0.9287  0.2716  0.1024
  460MOL0     O63401   4.072   7.870   6.542  0.1353 -0.6539  0.2169
  460MOL0     C63402   4.049   7.751   6.461 -0.5065 -0.2243  0.0706
  460MOL0     C63403   3.906   7.705   6.495  0.7272 -0.3610  0.1616
  460MOL0     C63404   3.807   7.772   6.390 -0.2067 -0.1160  0.0185
  460MOL0     C63405   3.658   7.756   6.437  0.4257  0.2329 -0.1480
  460MOL0     C63406   3.587   7.872   6.491 -0.2077 -0.2119 -0.2265
  460MOL0     C63407   3.532   7.962   6.542  0.6004 -0.7646  0.9009
  460MOL0     C63408   4.208   8.042   6.605 -0.5966  0.2448 -0.2134
  460MOL0     C63409   4.338   8.108   6.604  0.4911  0.3084 -0.3278
  460MOL0     C63410   4.350   8.227   6.701  0.6748 -0.3093  0.6317
  460MOL0     H63411   4.681   8.372   6.785 -1.2885 -0.9634 -1.0607
  460MOL0     H63412   4.873   8.507   6.807 -1.5667  3.1677 -0.8854
  460MOL0     H63413   5.095   8.624   6.442 -4.0114  2.7021  3.7588
  460MOL0     H63414   5.199   8.485   6.521 -0.2136 -0.4778 -0.6161
  460MOL0     H63415   5.204   8.777   6.590 -0.7426  0.4127 -1.4651
  460MOL0     H63416   5.261   8.652   6.694 -0.9013  2.4176  1.0036
  460MOL0     H63417   5.358   8.663   6.394  3.4373  0.4663  0.4308
  460MOL0     H63418   5.410   8.788   6.503  0.5797 -0.5136  0.8495
  460MOL0     H63419   5.526   8.647   6.648  1.8454  2.4762 -0.2651
  460MOL0     H63420   5.443   8.510   6.552 -3.0291  1.9211 -0.6816
  460MOL0     H63421   5.537   8.591   6.350 -1.7966 -1.5017  0.7288
  460MOL0     H63422   5.659   8.521   6.458 -4.6045 -2.2831  1.4063
  460MOL0     H63423   5.615   8.829   6.445  0.7723  0.7440 -0.1075
  460MOL0     H63424   5.739   8.743   6.542  0.4496  0.0066 -0.8077
  460MOL0     H63425   5.767   8.769   6.224  1.0936 -1.2776 -0.1864
  460MOL0     H63426   5.846   8.657   6.322  0.7114  1.6824  0.2102
  460MOL0     H63427   5.861   8.956   6.301 -0.9557 -1.2094 -2.9026
  460MOL0     H63428   5.880   8.896   6.469  0.4452 -1.6416  0.6844
  460MOL0     H63429   6.143   8.882   6.522  1.4032 -2.0619  0.1603
  460MOL0     H63430   6.380   9.020   6.352 -0.8151 -0.3260 -0.2038
  460MOL0     H63431   6.433   8.877   6.264 -1.1339 -2.2198 -0.1416
  460MOL0     H63432   6.376   8.784   6.532 -0.5007  0.1437  1.1536
  460MOL0     H63433   6.532   8.839   6.469 -1.2960  0.1947 -1.2797
  460MOL0     H63434   6.501   9.069   6.558 -0.8368  1.2137  0.7738
  460MOL0     H63435   6.352   9.028   6.631  1.6387  1.9044  0.0561
  460MOL0     H63436   6.523   8.990   6.801  0.2712 -0.6934  0.4945
  460MOL0     H63437   6.485   8.837   6.754 -2.1039  0.5695 -1.2589
  460MOL0     H63438   6.740   9.000   6.883 -1.5044  3.1534  1.8387
  460MOL0     H63439   6.903   9.297   7.013  1.4285 -0.7129  3.4275
  460MOL0     H63440   7.017   9.160   6.979 -0.7065 -2.7610  2.0663
  460MOL0     H63441   6.854   9.138   7.051 -0.3562  2.0033  0.6704
  460MOL0     H63442   7.251   9.521   6.679  0.3805 -0.0118  0.4776
  460MOL0     H63443   7.345   9.778   6.679  0.9165 -3.2619  3.6661
  460MOL0     H63444   7.031  10.108   6.672  0.0406  1.9399  0.1912
  460MOL0     H63445   7.141  10.059   6.810  0.0771 -0.5538 -0.3518
  460MOL0     H63446   7.213  10.283   6.741 -1.9741 -0.0260  0.2758
  460MOL0     H63447   7.331  10.170   6.666  0.2425  0.8774  0.1140
  460MOL0     H63448   7.092  10.271   6.505 -0.0791 -0.0479 -0.8316
  460MOL0     H63449   7.203  10.158   6.456  1.7701 -1.5090  2.1313
  460MOL0     H63450   7.389  10.325   6.510  0.8283 -0.8377  0.8533
  460MOL0     H63451   7.262  10.442   6.544  4.2246  0.8912 -0.0379
  460MOL0     H63452   7.337  10.292   6.275  1.4748  0.1377 -0.4476
  460MOL0     H63453   7.188  10.373   6.283 -0.7056 -0.3512  0.6412
  460MOL0     H63454   7.447  10.528   6.329  2.4608 -0.4299 -3.5822
  460MOL0     H63455   7.283  10.590   6.324  0.4313  0.6073 -3.6652
  460MOL0     H63456   7.278  10.451   6.090 -1.1122  0.1200  0.6750
  460MOL0     H63457   7.459  10.451   6.108 -1.3808 -3.4737  0.6766
  460MOL0     H63458   7.461  10.694   6.122  0.4569 -0.3821 -1.6407
  460MOL0     H63459   7.287  10.706   6.101 -1.3398 -2.2678  3.8850
  460MOL0     H63460   6.939   9.907   6.586 -1.3621 -1.8782 -2.1846
  460MOL0     H63461   6.861   9.672   6.578  0.4821 -1.4660 -0.4180
  460MOL0     H63462   6.902   9.279   6.506  0.0046  0.0174 -0.2272
  460MOL0     H63463   6.748   9.092   6.485 -2.7966  0.9683  1.8235
  460MOL0     H63464   4.973   8.449   6.393 -0.8693  0.7689 -1.1976
  460MOL0     H63465   4.788   8.310   6.357 -1.4202  3.1246 -0.6166
  460MOL0     H63466   4.505   7.902   6.384 -0.5230  2.2316 -3.4377
  460MOL0     H63467   4.287   7.797   6.386  1.6932 -0.7573  1.3467
  460MOL0     H63468   4.063   7.761   6.353 -2.5778  2.2682 -0.0669
  460MOL0     H63469   4.120   7.675   6.495  0.9046 -0.2839 -2.7252
  460MOL0     H63470   3.883   7.725   6.600 -2.5508 -1.7053 -0.2101
  460MOL0     H63471   3.893   7.597   6.496 -0.3700 -0.2485 -0.2412
  460MOL0     H63472   3.827   7.878   6.373 -1.4551 -0.0118 -0.9873
  460MOL0     H63473   3.829   7.733   6.290  3.3269  1.7790 -0.0775
  460MOL0     H63474   3.669   7.680   6.515  1.2519  0.6932  0.1965
  460MOL0     H63475   3.598   7.706   6.361  0.7913 -1.2436  0.4956
  460MOL0     H63476   3.459   8.035   6.570  0.3945 -0.9783  0.9212
  460MOL0     H63477   4.131   8.071   6.675 -0.5587 -0.0770 -0.0331
  460MOL0     H63478   4.412   8.208   6.789  0.9961 -0.6719  0.3322
  460MOL0     H63479   4.396   8.309   6.645  1.2986 -0.7958  0.4173
  460MOL0     H63480   4.249   8.250   6.737 -0.7755 -2.0197 -1.9834
  461MOL0     O63481   1.336  10.687   4.264  0.7355  0.3311  0.3184
  461MOL0     C63482   1.254  10.769   4.293  0.9029 -0.3600  0.8091
  461MOL0     O63483   1.280  10.906   4.313 -0.0995  0.7164  0.9430
  461MOL0     C63484   1.414  10.942   4.301 -0.1240  0.4174  0.3910
  461MOL0     C63485   1.439  11.042   4.201 -0.0319  0.1504  0.1237
  461MOL0     C63486   1.563  11.099   4.185 -0.3149 -0.2452  0.2683
  461MOL0     C63487   1.671  11.062   4.261  0.0611  0.5955 -0.0448
  461MOL0     O63488   1.795  11.114   4.266 -0.6654  0.0803 -0.1721
  461MOL0     C63489   1.816  11.254   4.253  0.4810 -0.0302  0.3219
  461MOL0     C63490   1.945  11.279   4.172  0.3565  0.3345 -1.2432
  461MOL0     C63491   2.072  11.248   4.259  0.3542 -0.2839  0.1462
  461MOL0     C63492   2.091  11.354   4.380 -0.0929  0.8411 -0.7489
  461MOL0     C63493   2.241  11.355   4.422 -0.4503  0.3697 -0.1439
  461MOL0     C63494   2.287  11.496   4.464 -0.4400 -0.0146  0.2112
  461MOL0     C63495   2.437  11.477   4.490  0.1240  0.4340  0.1871
  461MOL0     C63496   2.516  11.612   4.495  0.9153 -0.1086  0.0548
  461MOL0     N63497   2.454  11.722   4.567 -0.2752  0.3312 -0.5627
  461MOL0     C63498   2.470  11.743   4.704 -0.1932  0.3073  0.1407
  461MOL0     C63499   2.439  11.876   4.725 -0.2136  0.1503 -0.6302
  461MOL0     C63500   2.427  11.950   4.850  0.4900  0.6408  0.0269
  461MOL0     C63501   2.552  12.020   4.890  0.4188  0.2227 -0.4471
  461MOL0     C63502   2.527  12.079   5.025  0.5388 -0.5238 -0.4102
  461MOL0     C63503   2.641  12.158   5.081 -0.1207 -0.7414  0.3945
  461MOL0     O63504   2.640  12.181   5.221  0.2649 -0.5793  0.4632
  461MOL0     C63505   2.743  12.240   5.288 -1.0181  0.0955 -0.1551
  461MOL0     C63506   2.757  12.222   5.426 -0.1995 -0.2330  0.1107
  461MOL0     C63507   2.876  12.267   5.487  0.0824 -0.4351 -0.5481
  461MOL0     C63508   2.879  12.260   5.643 -0.0396  0.1300 -0.9243
  461MOL0     C63509   2.980  12.338   5.415  0.6362 -1.2042  0.5377
  461MOL0     C63510   3.103  12.398   5.477 -0.1031 -0.2020  0.1639
  461MOL0     O63511   3.136  12.519   5.404  0.0744 -0.1914 -0.4102
  461MOL0     C63512   3.258  12.565   5.413 -0.3138 -0.8421  0.2782
  461MOL0     C63513   3.378  12.492   5.399 -0.2855 -0.1063  0.5065
  461MOL0     C63514   3.501  12.560   5.411 -1.0347  0.6288  0.4785
  461MOL0     C63515   3.514  12.696   5.439  0.8298 -0.1597  0.1970
  461MOL0     O63516   3.647  12.746   5.438  0.1512 -0.7762 -0.7663
  461MOL0     C63517   3.676  12.839   5.546  0.3095  0.5453 -0.4651
  461MOL0     C63518   3.814  12.909   5.520  0.0866 -0.2645 -0.7174
  461MOL0     C63519   3.838  13.001   5.629 -0.8931 -0.1392 -0.0362
  461MOL0     C63520   3.943  13.103   5.586  0.3036  0.1565  0.3315
  461MOL0     C63521   4.074  13.060   5.518 -0.1211 -0.1994 -0.0205
  461MOL0     C63522   4.170  13.175   5.485  0.5988  0.1761 -0.3400
  461MOL0     C63523   4.233  13.221   5.612 -0.0365 -0.1620 -0.0034
  461MOL0     C63524   4.368  13.287   5.591 -0.6608 -0.1189  0.1981
  461MOL0    Cl63525   4.375  13.430   5.484  0.0314  0.3612 -0.0481
  461MOL0     C63526   3.395  12.775   5.456 -0.2883  0.3133 -0.7262
  461MOL0     C63527   3.270  12.710   5.450  0.2006  0.1204 -0.5885
  461MOL0     O63528   3.175  12.342   5.557 -0.2830  0.0876  0.0002
  461MOL0     C63529   2.956  12.359   5.276  0.8499 -0.0279 -0.4391
  461MOL0     C63530   2.839  12.314   5.219  0.6891 -0.7398  0.4823
  461MOL0     N63531   2.379  11.918   4.607 -0.1879  0.0158  0.3801
  461MOL0     N63532   2.396  11.829   4.511  0.1383  0.0800  0.0223
  461MOL0     C63533   1.649  10.952   4.348 -0.0102  0.2655 -0.1207
  461MOL0     C63534   1.525  10.891   4.371  0.5772 -0.1390 -0.7650
  461MOL0     C63535   1.120  10.718   4.318  0.1938  0.4249  0.5401
  461MOL0     C63536   1.097  10.584   4.295 -0.3310  0.1661  0.2119
  461MOL0     C63537   0.980  10.518   4.313 -0.0709  0.1264  0.2150
  461MOL0     C63538   0.861  10.590   4.335 -1.1736 -0.4965  0.2851
  461MOL0     O63539   0.759  10.504   4.345 -0.3395  0.0517 -0.1038
  461MOL0     C63540   0.620  10.558   4.336 -0.6559  0.1511  0.3123
  461MOL0     C63541   0.534  10.436   4.307 -0.2319 -0.5355 -0.0098
  461MOL0     C63542   0.377  10.457   4.272 -0.1047 -0.2609 -0.1787
  461MOL0     C63543   0.349  10.574   4.171  0.7618 -1.3688  1.3737
  461MOL0     C63544   0.416  10.546   4.044 -0.9707  0.1927 -0.4176
  461MOL0     C63545   0.478  10.505   3.943 -0.5590 -0.2221 -0.1472
  461MOL0     C63546   0.872  10.724   4.354  0.4085  0.5407 -0.4182
  461MOL0     C63547   0.998  10.792   4.354 -0.1666  0.8170 -0.6839
  461MOL0     C63548   1.001  10.939   4.376  0.3343  0.3862 -0.4981
  461MOL0     H63549   1.359  11.070   4.134  0.1712  0.1447 -0.1224
  461MOL0     H63550   1.576  11.169   4.104  0.5902 -1.1652 -0.4110
  461MOL0     H63551   1.833  11.294   4.353  3.5792 -1.1627  0.3461
  461MOL0     H63552   1.730  11.303   4.207  1.4912 -0.2281 -1.9033
  461MOL0     H63553   1.937  11.212   4.086  0.1818 -0.8930 -0.3019
  461MOL0     H63554   1.939  11.382   4.138 -0.7947  0.4292 -0.7982
  461MOL0     H63555   2.088  11.142   4.282  3.6022  0.4366  1.8915
  461MOL0     H63556   2.157  11.275   4.196 -1.2470  1.2496 -1.4611
  461MOL0     H63557   2.056  11.450   4.341 -1.7283  1.3978  1.8368
  461MOL0     H63558   2.025  11.331   4.464  0.2761 -3.1252 -1.3637
  461MOL0     H63559   2.302  11.329   4.335  1.0060 -0.3846  1.0524
  461MOL0     H63560   2.261  11.289   4.507 -0.4901  2.1588  1.3191
  461MOL0     H63561   2.263  11.571   4.387  0.2057 -0.6196 -0.5979
  461MOL0     H63562   2.227  11.531   4.549 -1.3353 -0.3869 -0.2524
  461MOL0     H63563   2.465  11.418   4.403 -2.5263 -2.3727  1.0603
  461MOL0     H63564   2.452  11.422   4.584 -3.9728  1.7154  1.8128
  461MOL0     H63565   2.619  11.604   4.532  0.3930  0.0515  1.6065
  461MOL0     H63566   2.529  11.651   4.393 -2.2843  1.2062  0.0350
  461MOL0     H63567   2.486  11.663   4.776 -0.3022 -0.0817 -0.2627
  461MOL0     H63568   2.397  11.880   4.929 -0.4280  0.2412 -0.6492
  461MOL0     H63569   2.342  12.017   4.834  1.0012  0.7015 -3.1515
  461MOL0     H63570   2.620  11.935   4.890 -2.6968 -2.5702 -3.1611
  461MOL0     H63571   2.577  12.099   4.818 -1.9679 -0.0434 -1.6809
  461MOL0     H63572   2.442  12.147   5.034  1.8667  1.2040 -0.4759
  461MOL0     H63573   2.512  12.001   5.101  0.2348 -0.6008 -0.5470
  461MOL0     H63574   2.736  12.117   5.046  0.1612  0.8669 -0.8540
  461MOL0     H63575   2.633  12.258   5.036  0.1448 -0.9519 -0.1286
  461MOL0     H63576   2.686  12.183   5.497 -0.0171 -0.6410  0.0710
  461MOL0     H63577   2.907  12.164   5.688  1.1397  0.6100 -0.5941
  461MOL0     H63578   2.776  12.263   5.678  0.2947  1.7114  0.0244
  461MOL0     H63579   2.937  12.339   5.692 -1.0862 -0.4141  1.3152
  461MOL0     H63580   3.371  12.390   5.362  0.5588 -1.1705  3.0626
  461MOL0     H63581   3.584  12.493   5.393 -2.3893 -1.1496  0.5927
  461MOL0     H63582   3.596  12.911   5.566 -1.8647 -2.1164  1.1807
  461MOL0     H63583   3.691  12.778   5.636  0.3692  0.1307 -0.7481
  461MOL0     H63584   3.892  12.833   5.514  3.5266  2.6836  2.4623
  461MOL0     H63585   3.801  12.958   5.423 -2.0556 -0.6071 -0.6725
  461MOL0     H63586   3.864  12.943   5.717  3.7281 -0.5788 -1.4434
  461MOL0     H63587   3.746  13.058   5.650 -1.5146 -1.4917  1.0548
  461MOL0     H63588   3.952  13.173   5.669 -2.3007  2.4351 -1.1416
  461MOL0     H63589   3.893  13.162   5.509  2.1527 -0.2836 -1.3014
  461MOL0     H63590   4.121  12.998   5.596  0.1336 -0.1496 -0.1325
  461MOL0     H63591   4.056  12.998   5.429  3.2779 -0.8317 -0.4047
  461MOL0     H63592   4.100  13.248   5.444 -1.0830 -1.1871 -0.0188
  461MOL0     H63593   4.233  13.146   5.400 -0.9301 -2.2934 -0.7538
  461MOL0     H63594   4.258  13.137   5.677  0.9796 -0.2478 -0.4816
  461MOL0     H63595   4.159  13.288   5.656 -0.2254 -1.1313  1.2015
  461MOL0     H63596   4.438  13.217   5.545  0.5229  0.2875  1.3212
  461MOL0     H63597   4.423  13.304   5.684 -0.3706 -2.2599  0.4712
  461MOL0     H63598   3.397  12.882   5.473  0.9568  0.1628  0.2231
  461MOL0     H63599   3.177  12.761   5.471  1.7780  3.9972 -2.1900
  461MOL0     H63600   3.017  12.424   5.215 -0.3713  0.5550 -1.0658
  461MOL0     H63601   2.844  12.329   5.111 -0.0644  2.9138  0.8439
  461MOL0     H63602   1.731  10.917   4.410 -0.3530 -1.0900 -0.3923
  461MOL0     H63603   1.511  10.818   4.450  1.9836  1.3385  0.9568
  461MOL0     H63604   1.178  10.520   4.262 -1.4112  0.0441 -2.4420
  461MOL0     H63605   0.978  10.409   4.307  2.9220 -0.3775  4.1168
  461MOL0     H63606   0.597  10.599   4.435  0.4558  0.3519  0.4991
  461MOL0     H63607   0.615  10.629   4.253 -0.5364 -1.3226 -1.0143
  461MOL0     H63608   0.528  10.390   4.407  1.7848  0.0383  0.4270
  461MOL0     H63609   0.578  10.376   4.227  0.0430  2.3432 -2.1695
  461MOL0     H63610   0.339  10.374   4.210  1.7740 -2.3016  1.2757
  461MOL0     H63611   0.321  10.460   4.366  1.0612  0.3462  0.5246
  461MOL0     H63612   0.350  10.677   4.210  1.0629 -0.8675  0.0737
  461MOL0     H63613   0.243  10.567   4.143  1.5012 -1.4229 -1.7700
  461MOL0     H63614   0.520  10.469   3.851 -1.3274 -0.1851 -0.5231
  461MOL0     H63615   0.785  10.779   4.387  0.3041 -0.6177  1.3224
  461MOL0     H63616   1.056  10.979   4.462 -2.3330 -1.5831  2.3741
  461MOL0     H63617   1.043  10.988   4.288 -1.9428  2.2885 -0.6482
  461MOL0     H63618   0.899  10.979   4.388  0.1776  0.3321 -1.5785
  462MOL0     O63619   6.179   5.331   5.963 -0.4827  0.4854  0.0724
  462MOL0     C63620   6.134   5.275   6.068 -0.4232  0.5275  0.1786
  462MOL0     O63621   6.187   5.281   6.187 -0.7537 -0.6988 -0.3817
  462MOL0     C63622   6.301   5.348   6.214 -0.4614  0.4103  0.4088
  462MOL0     C63623   6.311   5.408   6.345 -0.6298 -0.0106 -0.8163
  462MOL0     C63624   6.413   5.500   6.377 -0.1571 -0.6693  0.5377
  462MOL0     C63625   6.518   5.526   6.287  0.1582 -0.6677  0.2435
  462MOL0     O63626   6.621   5.604   6.326  0.9183  0.0265  0.8941
  462MOL0     C63627   6.756   5.598   6.263  0.3389 -0.0941 -0.4716
  462MOL0     C63628   6.761   5.732   6.186  0.1644  0.4381  0.4905
  462MOL0     C63629   6.907   5.778   6.156 -0.1058 -1.1521 -0.2759
  462MOL0     C63630   7.002   5.676   6.097 -0.0522  0.2708  0.2721
  462MOL0     C63631   7.142   5.738   6.069 -1.1205  0.5374  0.7790
  462MOL0     C63632   7.224   5.616   6.015  0.7369  0.4237  0.1735
  462MOL0     C63633   7.366   5.660   5.991 -0.9688 -0.6457 -0.0992
  462MOL0     C63634   7.425   5.592   5.860  0.4914 -0.9567 -0.5535
  462MOL0     N63635   7.550   5.669   5.817  0.6127  0.0927 -0.7256
  462MOL0     C63636   7.651   5.693   5.903 -0.1065 -0.1804 -0.2746
  462MOL0     C63637   7.739   5.761   5.831 -0.0078 -0.0378 -0.5945
  462MOL0     C63638   7.877   5.805   5.876 -0.0242  0.3953  0.2086
  462MOL0     C63639   7.986   5.786   5.773  0.5535  0.3024  0.3009
  462MOL0     C63640   8.125   5.833   5.819 -0.5245  0.7237  0.3857
  462MOL0     C63641   8.217   5.824   5.704 -0.7962 -0.5344  0.4228
  462MOL0     O63642   8.351   5.854   5.747 -1.1477  0.5998  0.1099
  462MOL0     C63643   8.446   5.849   5.655 -0.4548  0.1878  0.2763
  462MOL0     C63644   8.567   5.797   5.708 -0.9391 -0.2472  0.5264
  462MOL0     C63645   8.679   5.796   5.633 -0.0733  0.0208 -0.0790
  462MOL0     C63646   8.801   5.730   5.702 -0.7515 -0.8356  0.7718
  462MOL0     C63647   8.678   5.853   5.499  0.0572  0.1406 -0.5211
  462MOL0     C63648   8.797   5.866   5.406 -0.0459 -0.0272 -0.4986
  462MOL0     O63649   8.769   5.916   5.285  0.4600  0.0984 -0.2631
  462MOL0     C63650   8.873   5.914   5.194  0.4333  0.2296 -0.1212
  462MOL0     C63651   8.947   5.798   5.159  0.7842  0.4130 -0.7679
  462MOL0     C63652   9.047   5.809   5.069 -0.0022  0.5027  0.7166
  462MOL0     C63653   9.066   5.928   4.997 -0.1134 -0.0299  0.1230
  462MOL0     O63654   9.166   5.918   4.900  0.3910  0.1839 -0.2490
  462MOL0     C63655   9.222   6.047   4.853  0.5587  0.4690 -0.5544
  462MOL0     C63656   9.356   6.033   4.768  1.0309 -0.2168  0.5998
  462MOL0     C63657   9.408   6.174   4.739  0.0536 -0.1625 -0.3895
  462MOL0     C63658   9.507   6.156   4.624 -0.6923  0.7006  0.0060
  462MOL0     C63659   9.604   6.029   4.647 -0.0949 -0.1290  0.5204
  462MOL0     C63660   9.707   6.024   4.528 -0.1812 -0.1637  0.2834
  462MOL0     C63661   9.639   5.996   4.399 -0.2654 -0.2245  1.0339
  462MOL0     C63662   9.729   5.940   4.287  0.0959  0.6145  0.5162
  462MOL0    Cl63663   9.617   5.858   4.168  0.1479 -0.5112  0.4508
  462MOL0     C63664   8.984   6.035   5.021  0.5479  0.0282  0.6182
  462MOL0     C63665   8.891   6.032   5.133 -0.0543  0.4590 -0.5657
  462MOL0     O63666   8.903   5.817   5.441  0.4518 -0.3528 -0.6432
  462MOL0     C63667   8.552   5.897   5.442 -0.1575 -0.3313 -0.9010
  462MOL0     C63668   8.444   5.900   5.526 -0.4234  0.4667 -0.3959
  462MOL0     N63669   7.694   5.762   5.703  0.2287 -0.7798 -0.3769
  462MOL0     N63670   7.574   5.712   5.693 -0.1423  0.4854 -0.4373
  462MOL0     C63671   6.516   5.469   6.167  0.4456 -0.1553  0.0962
  462MOL0     C63672   6.414   5.373   6.123  0.4270 -0.1769 -0.4851
  462MOL0     C63673   6.015   5.179   6.061 -0.2133 -0.9461 -0.0336
  462MOL0     C63674   5.953   5.146   6.179  0.0508  0.2676 -0.1729
  462MOL0     C63675   5.843   5.058   6.185  0.9996 -0.4298  0.7199
  462MOL0     C63676   5.800   4.995   6.064  0.1922 -0.0225 -0.0892
  462MOL0     O63677   5.688   4.914   6.059 -1.3802  0.4388  0.2101
  462MOL0     C63678   5.618   4.866   6.171  0.0837 -0.2805 -0.0830
  462MOL0     C63679   5.517   4.760   6.120  0.6123 -0.4399 -0.0449
  462MOL0     C63680   5.405   4.803   6.022 -0.3047  0.3920 -0.6357
  462MOL0     C63681   5.303   4.698   5.986  0.0256  0.2453 -0.3631
  462MOL0     C63682   5.235   4.729   5.861  0.4443  0.4519  1.2289
  462MOL0     C63683   5.183   4.752   5.749 -0.0736 -1.1598  0.3901
  462MOL0     C63684   5.861   5.032   5.949 -0.0257  0.4839  0.1161
  462MOL0     C63685   5.965   5.121   5.943  0.1392  0.2117  0.3178
  462MOL0     C63686   6.012   5.152   5.804 -0.2044  0.3996  0.9190
  462MOL0     H63687   6.227   5.404   6.415 -0.1905 -1.5306 -0.3370
  462MOL0     H63688   6.403   5.564   6.463 -1.5461  0.7193 -0.5790
  462MOL0     H63689   6.779   5.516   6.194 -2.5424 -2.1978  0.8971
  462MOL0     H63690   6.838   5.594   6.335 -0.5464 -3.4298  0.5271
  462MOL0     H63691   6.700   5.726   6.096  0.1598  0.6120  0.4817
  462MOL0     H63692   6.713   5.807   6.249 -1.9065  0.2796 -0.7996
  462MOL0     H63693   6.905   5.860   6.084 -0.9416 -0.6288  0.3182
  462MOL0     H63694   6.947   5.808   6.254 -0.8163  0.5932 -0.4845
  462MOL0     H63695   7.003   5.590   6.165 -2.1866 -2.7931 -3.2092
  462MOL0     H63696   6.954   5.645   6.004 -0.8029 -1.5313  1.2286
  462MOL0     H63697   7.199   5.766   6.158 -0.8370  0.3141  0.6669
  462MOL0     H63698   7.123   5.814   5.992 -3.0620 -1.4853 -0.8841
  462MOL0     H63699   7.228   5.531   6.083  0.0771  0.0130 -0.2826
  462MOL0     H63700   7.188   5.588   5.915  1.2512 -0.9985  0.3572
  462MOL0     H63701   7.426   5.647   6.081 -1.1374  0.3728  0.1750
  462MOL0     H63702   7.369   5.765   5.960  3.6329 -0.9575 -1.4428
  462MOL0     H63703   7.449   5.488   5.884 -0.0641 -0.4320  2.7332
  462MOL0     H63704   7.352   5.593   5.778 -0.2884  1.6912  0.0698
  462MOL0     H63705   7.657   5.675   6.009 -1.8176  1.2276  0.0977
  462MOL0     H63706   7.907   5.748   5.964  0.4456  0.2701 -0.0324
  462MOL0     H63707   7.878   5.912   5.899 -0.4739  0.9146 -1.9148
  462MOL0     H63708   7.983   5.677   5.766 -1.4667  0.3404 -0.0179
  462MOL0     H63709   7.951   5.825   5.677 -0.2937  0.4353  0.6578
  462MOL0     H63710   8.129   5.939   5.846  1.1463  1.2723 -1.7435
  462MOL0     H63711   8.157   5.762   5.896  0.7504 -1.4106 -1.9293
  462MOL0     H63712   8.227   5.727   5.654  0.9874  0.8747 -2.1801
  462MOL0     H63713   8.182   5.891   5.626 -0.1064 -1.2257 -0.5088
  462MOL0     H63714   8.572   5.764   5.811  2.1032 -2.4799 -0.1933
  462MOL0     H63715   8.785   5.696   5.805  2.9628  2.3533  2.6549
  462MOL0     H63716   8.883   5.800   5.722 -1.0110 -0.6323  1.1547
  462MOL0     H63717   8.825   5.636   5.652 -3.4388 -0.8960 -0.5905
  462MOL0     H63718   8.925   5.709   5.217  2.3304  1.2650  1.2528
  462MOL0     H63719   9.116   5.730   5.041  2.1774  2.9971 -1.4185
  462MOL0     H63720   9.146   6.108   4.802 -0.3532 -1.1970 -1.2397
  462MOL0     H63721   9.251   6.102   4.943  0.5976  1.2559 -1.0354
  462MOL0     H63722   9.435   5.983   4.825  1.0693 -0.3596  0.4235
  462MOL0     H63723   9.326   5.977   4.679 -0.0125  0.9780  0.1741
  462MOL0     H63724   9.455   6.213   4.829 -0.9215 -0.4338  0.2523
  462MOL0     H63725   9.335   6.247   4.702  1.7555  0.7850 -2.0965
  462MOL0     H63726   9.570   6.246   4.621  2.7308 -1.5111 -0.1751
  462MOL0     H63727   9.455   6.132   4.530 -3.1446 -0.2388  1.5134
  462MOL0     H63728   9.662   6.044   4.738  1.5148 -0.9327 -0.3384
  462MOL0     H63729   9.549   5.935   4.656  0.7392 -0.6968 -0.1940
  462MOL0     H63730   9.783   5.947   4.542 -0.3165 -0.4399 -0.4647
  462MOL0     H63731   9.767   6.114   4.517 -0.8286  0.0566 -1.8820
  462MOL0     H63732   9.593   6.087   4.361  0.7182 -0.6297 -1.3283
  462MOL0     H63733   9.552   5.931   4.414 -0.5416  0.1496  1.0528
  462MOL0     H63734   9.796   5.864   4.328  3.6419  2.5113 -1.3112
  462MOL0     H63735   9.789   6.010   4.228 -1.0157 -0.0691 -1.5147
  462MOL0     H63736   8.988   6.127   4.963 -0.6556 -0.0784  0.3263
  462MOL0     H63737   8.840   6.119   5.174 -1.9531  0.0134 -1.9010
  462MOL0     H63738   8.551   5.952   5.348  1.8716  4.3583  1.4910
  462MOL0     H63739   8.349   5.946   5.501 -0.1320  0.5588 -1.3921
  462MOL0     H63740   6.588   5.501   6.092 -0.2557  0.9478 -0.1256
  462MOL0     H63741   6.413   5.341   6.020 -1.2438  0.2230 -0.6232
  462MOL0     H63742   5.986   5.188   6.273 -1.3766  0.7897  0.1217
  462MOL0     H63743   5.799   5.035   6.282  2.7018  0.3366  1.7318
  462MOL0     H63744   5.682   4.813   6.242  1.9846 -1.8780 -2.7999
  462MOL0     H63745   5.560   4.946   6.217  2.3493  2.5587 -1.8580
  462MOL0     H63746   5.471   4.716   6.209  0.1516 -0.7193 -0.4178
  462MOL0     H63747   5.583   4.696   6.061  0.2093 -0.1227 -0.8533
  462MOL0     H63748   5.350   4.888   6.064  0.2321  2.1250 -3.1949
  462MOL0     H63749   5.464   4.825   5.932 -1.9166  1.4034 -1.4928
  462MOL0     H63750   5.227   4.697   6.065  0.0464 -1.0775 -0.3436
  462MOL0     H63751   5.345   4.597   5.982  0.6808  0.4913  0.1994
  462MOL0     H63752   5.133   4.780   5.658  0.9894  1.2024  0.4797
  462MOL0     H63753   5.824   4.991   5.855  0.7203  1.6138 -0.6927
  462MOL0     H63754   5.953   5.232   5.760  0.7641 -0.4236 -2.0822
  462MOL0     H63755   6.119   5.177   5.803 -0.2417  0.5280 -0.3111
  462MOL0     H63756   6.014   5.054   5.756 -0.0948 -0.1261  1.9667
  463MOL0     O63757   0.205   5.578  10.576 -0.5155 -0.0762  0.2443
  463MOL0     C63758   0.234   5.498  10.660 -0.1440  0.6250 -0.3183
  463MOL0     O63759   0.172   5.487  10.781  0.4617  0.4116 -0.2799
  463MOL0     C63760   0.057   5.542  10.832  0.6702 -0.4199  0.6680
  463MOL0     C63761  -0.007   5.485  10.941  0.7927  0.9479  0.3426
  463MOL0     C63762  -0.137   5.511  10.965 -0.8307 -0.5563  0.0528
  463MOL0     C63763  -0.205   5.622  10.914  0.8199 -0.0989  1.0226
  463MOL0     O63764  -0.337   5.645  10.960  0.6330  0.4414  0.1675
  463MOL0     C63765  -0.403   5.768  10.926 -0.5946 -0.2284 -0.7277
  463MOL0     C63766  -0.546   5.785  10.997 -0.5851  0.5130  0.2876
  463MOL0     C63767  -0.527   5.837  11.147 -0.4377 -0.6159  0.1632
  463MOL0     C63768  -0.575   5.738  11.249  0.8690  0.2806  0.7597
  463MOL0     C63769  -0.562   5.794  11.393  0.0239 -0.6755 -0.0114
  463MOL0     C63770  -0.697   5.875  11.430 -0.0276  0.2726 -0.9284
  463MOL0     C63771  -0.675   5.958  11.555  0.2729  0.7863  0.3405
  463MOL0     C63772  -0.784   6.060  11.583 -0.1148 -0.1312  0.0821
  463MOL0     N63773  -0.748   6.144  11.696  0.5434 -0.2949 -0.4550
  463MOL0     C63774  -0.647   6.228  11.708  0.1303 -0.5462  0.9698
  463MOL0     C63775  -0.677   6.301  11.823  0.3486 -0.4008 -0.1769
  463MOL0     C63776  -0.620   6.427  11.874 -0.2218  0.0903 -0.2107
  463MOL0     C63777  -0.551   6.516  11.763 -0.4413  0.2818  0.4755
  463MOL0     C63778  -0.453   6.626  11.821  0.0185  0.3395  0.1849
  463MOL0     C63779  -0.321   6.623  11.737 -0.6014 -0.5038  0.3334
  463MOL0     O63780  -0.260   6.502  11.760 -0.6674  0.5628  0.3304
  463MOL0     C63781  -0.141   6.476  11.695 -0.2052  0.0693 -0.3830
  463MOL0     C63782  -0.082   6.348  11.702 -0.7521 -0.1061 -0.7041
  463MOL0     C63783   0.043   6.316  11.639  1.0259 -0.4701  0.1929
  463MOL0     C63784   0.074   6.167  11.659  0.3360 -0.3441  0.0778
  463MOL0     C63785   0.110   6.410  11.558 -1.0559 -0.4475 -0.1484
  463MOL0     C63786   0.235   6.377  11.478  0.6701  0.2173  0.3515
  463MOL0     O63787   0.237   6.256  11.401 -0.3938  0.2275 -0.1159
  463MOL0     C63788   0.343   6.230  11.317 -0.4607  0.9761  0.3989
  463MOL0     C63789   0.478   6.220  11.359  0.5050 -0.1949  0.0057
  463MOL0     C63790   0.579   6.193  11.266  0.1077 -0.2861  0.0106
  463MOL0     C63791   0.552   6.180  11.129 -0.3109  0.6172 -0.6816
  463MOL0     O63792   0.650   6.155  11.046 -0.6310 -0.0048 -0.2916
  463MOL0     C63793   0.663   6.234  10.927 -0.1841 -0.2519  0.1633
  463MOL0     C63794   0.813   6.210  10.886  0.0433 -0.4169  0.7785
  463MOL0     C63795   0.899   6.254  11.002  0.0978  0.5820  0.3885
  463MOL0     C63796   1.042   6.263  10.954  0.2587 -0.0064 -0.7147
  463MOL0     C63797   1.126   6.343  11.056  0.4292  1.1980  0.7308
  463MOL0     C63798   1.267   6.314  11.012  0.4632  0.3443 -0.7367
  463MOL0     C63799   1.333   6.200  11.094  0.5234  0.2555  1.1337
  463MOL0     C63800   1.484   6.205  11.089  0.2626 -1.1468  0.3383
  463MOL0    Cl63801   1.547   6.181  10.924  0.0762  0.3807 -0.0038
  463MOL0     C63802   0.422   6.195  11.086  1.0824 -1.0556 -0.3924
  463MOL0     C63803   0.315   6.215  11.181  0.7648  0.4551 -0.5115
  463MOL0     O63804   0.316   6.466  11.466 -0.4216 -0.7739  0.8596
  463MOL0     C63805   0.055   6.542  11.545 -0.5360  0.1329 -0.1539
  463MOL0     C63806  -0.070   6.574  11.614 -0.3980  0.4850  0.4423
  463MOL0     N63807  -0.788   6.243  11.884  0.0946 -1.0009 -0.0417
  463MOL0     N63808  -0.824   6.154  11.806 -0.2861  0.6053 -0.0871
  463MOL0     C63809  -0.146   5.688  10.806 -0.3687 -0.0600  0.3043
  463MOL0     C63810  -0.017   5.641  10.760 -0.0132 -0.1700 -0.5656
  463MOL0     C63811   0.346   5.406  10.627 -0.1096 -0.2459  1.2478
  463MOL0     C63812   0.426   5.446  10.513 -0.0219 -0.1056 -0.2807
  463MOL0     C63813   0.525   5.369  10.466  0.5084  0.3257  0.2336
  463MOL0     C63814   0.555   5.246  10.519 -0.3045  0.2131 -0.1550
  463MOL0     O63815   0.664   5.175  10.482 -0.1144  0.9612  1.1142
  463MOL0     C63816   0.770   5.236  10.401  1.8384  0.2490 -0.0509
  463MOL0     C63817   0.890   5.159  10.426 -0.0463 -0.2449  0.0230
  463MOL0     C63818   0.977   5.127  10.296  0.5965 -0.3704  0.0425
  463MOL0     C63819   1.052   5.246  10.235  0.1254  0.2838  0.2337
  463MOL0     C63820   1.168   5.202  10.140  0.3907  0.0564 -1.0154
  463MOL0     C63821   1.247   5.168  10.057 -0.2909 -0.2742 -0.0704
  463MOL0     C63822   0.484   5.205  10.639 -0.7332  0.0658  0.6064
  463MOL0     C63823   0.375   5.277  10.689  0.1092 -0.0127 -0.4896
  463MOL0     C63824   0.303   5.224  10.804  0.5976 -0.6528 -1.4765
  463MOL0     H63825   0.038   5.395  10.984  0.9686 -0.8685 -3.2867
  463MOL0     H63826  -0.190   5.449  11.037 -1.2545 -2.0705 -1.4953
  463MOL0     H63827  -0.422   5.764  10.818 -1.0919 -0.4995 -0.6309
  463MOL0     H63828  -0.344   5.859  10.940 -0.5849  0.0348 -2.3434
  463MOL0     H63829  -0.613   5.845  10.935  0.8813 -0.3194 -2.2489
  463MOL0     H63830  -0.599   5.690  10.986  0.5674 -0.1593  0.3394
  463MOL0     H63831  -0.423   5.864  11.169 -0.3289 -0.2987 -0.6739
  463MOL0     H63832  -0.588   5.927  11.154  2.8411  1.6922  1.3514
  463MOL0     H63833  -0.677   5.708  11.226  0.7434 -0.1358  1.8181
  463MOL0     H63834  -0.518   5.644  11.243 -1.3430 -1.1579  0.8579
  463MOL0     H63835  -0.471   5.851  11.411 -1.3632  1.3161  1.1509
  463MOL0     H63836  -0.553   5.712  11.464  0.1835 -1.9251 -1.4252
  463MOL0     H63837  -0.740   5.932  11.347 -1.2664  0.2309 -0.3308
  463MOL0     H63838  -0.772   5.805  11.465 -0.8128  1.5560  0.0385
  463MOL0     H63839  -0.575   6.002  11.553 -0.7656  3.3030 -1.7530
  463MOL0     H63840  -0.683   5.894  11.644  1.9539 -0.5613 -0.4063
  463MOL0     H63841  -0.782   6.125  11.495 -0.2643 -1.3337 -0.8265
  463MOL0     H63842  -0.878   6.005  11.586  1.4248 -2.8937  1.2999
  463MOL0     H63843  -0.563   6.232  11.640 -2.2693  2.0983 -2.1760
  463MOL0     H63844  -0.556   6.393  11.957 -1.6979 -2.3756  0.0270
  463MOL0     H63845  -0.698   6.488  11.920  0.8787  1.3623  0.0549
  463MOL0     H63846  -0.501   6.439  11.703 -0.0946 -0.8135  2.1211
  463MOL0     H63847  -0.621   6.564  11.693  0.2787 -0.9407 -1.1387
  463MOL0     H63848  -0.506   6.722  11.815 -2.4418 -0.9275  0.2838
  463MOL0     H63849  -0.430   6.602  11.925  3.1846  1.4459 -0.1438
  463MOL0     H63850  -0.338   6.630  11.629 -0.9383 -0.0871  0.4087
  463MOL0     H63851  -0.266   6.712  11.769 -2.2713  0.0333  1.9464
  463MOL0     H63852  -0.140   6.273  11.755  1.0325 -2.0038 -1.3275
  463MOL0     H63853   0.129   6.156  11.753  1.9379 -3.0929 -1.0672
  463MOL0     H63854   0.140   6.114  11.590  2.1075  3.2329 -1.1896
  463MOL0     H63855  -0.018   6.109  11.668  0.0214  0.0903 -0.2793
  463MOL0     H63856   0.496   6.233  11.465  0.1412  0.6509 -0.0254
  463MOL0     H63857   0.680   6.178  11.301  0.2389 -1.5952 -0.8491
  463MOL0     H63858   0.595   6.195  10.851  0.7949  1.3173 -1.6290
  463MOL0     H63859   0.632   6.338  10.946  3.1190  0.2625  4.0220
  463MOL0     H63860   0.835   6.107  10.858  0.2949 -0.1321 -0.0904
  463MOL0     H63861   0.821   6.281  10.803 -2.5166 -0.4813  0.3811
  463MOL0     H63862   0.892   6.175  11.077  2.9238 -0.3989 -0.2496
  463MOL0     H63863   0.865   6.352  11.037 -1.2735 -0.5359  2.3991
  463MOL0     H63864   1.035   6.328  10.867 -3.0810  3.7457  1.9898
  463MOL0     H63865   1.092   6.166  10.939  1.2205  0.0166  1.8443
  463MOL0     H63866   1.094   6.447  11.055  0.2786  1.1627  1.4907
  463MOL0     H63867   1.107   6.311  11.159 -2.3079  0.9243  0.2218
  463MOL0     H63868   1.323   6.407  11.030 -1.1975  1.5047 -1.3315
  463MOL0     H63869   1.272   6.288  10.906 -0.2115 -2.6933 -0.1245
  463MOL0     H63870   1.306   6.103  11.052  1.8285  1.2015 -2.1285
  463MOL0     H63871   1.300   6.213  11.198 -2.4325 -0.7585  0.4214
  463MOL0     H63872   1.510   6.118  11.150  2.0637 -1.2094 -0.4567
  463MOL0     H63873   1.530   6.292  11.137  1.3227 -2.0397  0.9813
  463MOL0     H63874   0.409   6.203  10.978  0.9601  3.3420 -0.2211
  463MOL0     H63875   0.210   6.224  11.154  0.7127  0.9821 -0.1351
  463MOL0     H63876   0.110   6.614  11.485  0.7999 -0.2398  0.5813
  463MOL0     H63877  -0.111   6.672  11.591 -1.0466  0.2349  0.5122
  463MOL0     H63878  -0.202   5.765  10.754  0.5710  0.8059  0.5514
  463MOL0     H63879   0.022   5.685  10.669  3.3146 -0.3444  0.6400
  463MOL0     H63880   0.415   5.544  10.466  1.8827  1.1909  1.7660
  463MOL0     H63881   0.567   5.395  10.369  0.6421  0.9708  0.4581
  463MOL0     H63882   0.728   5.219  10.302 -3.4735  0.9211  1.7315
  463MOL0     H63883   0.794   5.339  10.428 -0.8876  0.6169  1.3300
  463MOL0     H63884   0.868   5.061  10.468  1.4197 -0.6411 -0.0907
  463MOL0     H63885   0.955   5.214  10.494  0.3312 -0.1627 -0.4029
  463MOL0     H63886   1.054   5.058  10.332  0.1038  0.3526  2.6449
  463MOL0     H63887   0.918   5.073  10.222  0.8663  0.4694 -0.8045
  463MOL0     H63888   1.085   5.307  10.319  0.7177 -1.8406  1.5972
  463MOL0     H63889   0.980   5.307  10.178 -2.0239 -0.9314  1.5214
  463MOL0     H63890   1.321   5.127   9.991 -0.8121 -1.2008 -0.1032
  463MOL0     H63891   0.505   5.104  10.674 -2.5452 -0.4148  0.4317
  463MOL0     H63892   0.211   5.171  10.778  1.3188 -2.4362 -0.5218
  463MOL0     H63893   0.367   5.151  10.854 -0.1540  0.0468  0.6508
  463MOL0     H63894   0.280   5.303  10.877 -0.0052 -1.0947 -1.1779
  464MOL0     O63895   9.278   0.909   3.054  0.3190  0.5636 -0.0287
  464MOL0     C63896   9.262   0.941   3.168 -0.0543  0.0772  0.0343
  464MOL0     O63897   9.368   0.974   3.247 -0.0795  0.1855  0.0484
  464MOL0     C63898   9.495   0.975   3.193 -0.3864 -0.2771  0.5105
  464MOL0     C63899   9.603   0.895   3.227  0.2368  0.4257 -0.5842
  464MOL0     C63900   9.733   0.910   3.188 -0.2094  0.2855  0.0261
  464MOL0     C63901   9.760   1.009   3.094 -0.0715 -0.1045  0.0505
  464MOL0     O63902   9.894   1.022   3.054  0.1287  0.1011  0.1678
  464MOL0     C63903   9.941   1.157   3.038  0.4489 -0.2380 -0.1061
  464MOL0     C63904  10.084   1.175   3.090  0.4635  0.5584 -0.0822
  464MOL0     C63905  10.180   1.099   2.997 -0.2871  0.2595  0.0027
  464MOL0     C63906  10.316   1.116   3.067  0.8190  0.8164  0.3953
  464MOL0     C63907  10.419   1.080   2.962  0.3522  0.0423 -0.8395
  464MOL0     C63908  10.568   1.093   3.017  0.4355 -0.7778  0.3621
  464MOL0     C63909  10.670   1.022   2.940 -0.6644  0.6439  0.3101
  464MOL0     C63910  10.672   0.876   2.980  0.6755 -0.0523 -0.2852
  464MOL0     N63911  10.753   0.796   2.885 -0.4099  0.8829  0.1078
  464MOL0     C63912  10.706   0.703   2.788  0.3357  0.0387  0.1137
  464MOL0     C63913  10.814   0.652   2.725  0.4144  0.7166  0.0592
  464MOL0     C63914  10.813   0.549   2.618 -0.9773 -1.1064 -0.0465
  464MOL0     C63915  10.904   0.588   2.495 -0.2174 -0.1201  0.6371
  464MOL0     C63916  11.053   0.596   2.521 -0.2919 -0.2746 -0.2179
  464MOL0     C63917  11.135   0.634   2.401 -0.4434 -0.1558  0.8081
  464MOL0     O63918  11.127   0.528   2.301 -0.4057 -0.4852 -0.3665
  464MOL0     C63919  11.155   0.552   2.172 -0.8853  0.2200  0.2152
  464MOL0     C63920  11.118   0.452   2.081 -0.1850  0.1031 -0.1251
  464MOL0     C63921  11.146   0.461   1.941  0.4361 -0.0540 -0.7035
  464MOL0     C63922  11.098   0.353   1.853  0.1668  0.9703 -0.3834
  464MOL0     C63923  11.230   0.566   1.898  0.0837 -0.9517 -1.0925
  464MOL0     C63924  11.273   0.573   1.758  0.1276 -0.7627 -0.6570
  464MOL0     O63925  11.325   0.460   1.706  0.3367  0.3471  0.1251
  464MOL0     C63926  11.400   0.464   1.589  0.4835 -0.9628 -0.9160
  464MOL0     C63927  11.348   0.504   1.463 -0.0087  0.2148 -0.9763
  464MOL0     C63928  11.429   0.519   1.353 -0.2048 -0.4377 -0.3101
  464MOL0     C63929  11.559   0.515   1.355  0.4174  0.4056 -1.3363
  464MOL0     O63930  11.615   0.526   1.233  0.0076  0.7356  0.1414
  464MOL0     C63931  11.759   0.504   1.225 -0.5472  0.4994 -0.8169
  464MOL0     C63932  11.806   0.359   1.250 -0.0788  0.5238 -0.5193
  464MOL0     C63933  11.954   0.368   1.287 -0.2194 -0.1005 -0.4350
  464MOL0     C63934  12.020   0.232   1.291 -0.4397  0.4619  0.8407
  464MOL0     C63935  12.153   0.237   1.357 -1.1263 -0.3159  0.4382
  464MOL0     C63936  12.251   0.333   1.288  0.0276 -0.0440  0.9512
  464MOL0     C63937  12.391   0.321   1.340  0.9619 -0.6821 -0.5276
  464MOL0     C63938  12.487   0.398   1.250 -0.7543  0.1746 -0.5075
  464MOL0    Cl63939  12.671   0.378   1.291 -0.2122  0.0029  0.1004
  464MOL0     C63940  11.616   0.482   1.479 -0.5656  0.2996 -0.5488
  464MOL0     C63941  11.535   0.458   1.597 -0.2580 -0.4296 -0.2542
  464MOL0     O63942  11.248   0.677   1.693 -0.0282 -0.8631 -0.3711
  464MOL0     C63943  11.260   0.671   1.990 -0.0139  0.5444 -0.2651
  464MOL0     C63944  11.220   0.669   2.129 -0.4507 -0.7511  0.3315
  464MOL0     N63945  10.925   0.705   2.787  0.2657  0.3621  0.1045
  464MOL0     N63946  10.893   0.786   2.891  0.0183 -0.5098  0.2711
  464MOL0     C63947   9.658   1.093   3.043 -0.2747 -0.0703 -0.5891
  464MOL0     C63948   9.529   1.071   3.086  1.4944 -0.8444  1.0200
  464MOL0     C63949   9.118   0.946   3.216  0.5568 -0.1051 -0.0543
  464MOL0     C63950   9.023   0.935   3.118 -1.1557  0.2116 -0.0232
  464MOL0     C63951   8.891   0.918   3.159 -0.0427  0.2117  0.7959
  464MOL0     C63952   8.849   0.922   3.290  0.1282  0.2164 -0.2630
  464MOL0     O63953   8.712   0.912   3.303 -0.9327 -0.8061  0.2132
  464MOL0     C63954   8.675   0.813   3.394  0.2243  0.6588 -0.0915
  464MOL0     C63955   8.530   0.781   3.366  0.2497  0.7803 -1.0667
  464MOL0     C63956   8.430   0.866   3.444 -0.9363  0.6909  0.0626
  464MOL0     C63957   8.280   0.831   3.408 -0.7800  0.3043  0.2138
  464MOL0     C63958   8.179   0.902   3.488 -0.5459 -0.2981  0.2557
  464MOL0     C63959   8.091   0.972   3.535 -0.7504  0.3819 -0.4131
  464MOL0     C63960   8.949   0.939   3.390 -0.0027  0.0154 -0.3052
  464MOL0     C63961   9.085   0.946   3.355  0.1763  0.0917  0.0978
  464MOL0     C63962   9.187   0.961   3.461 -0.7532 -0.2492 -0.3706
  464MOL0     H63963   9.578   0.821   3.303 -1.3601  0.5228 -0.9813
  464MOL0     H63964   9.808   0.848   3.235 -0.9472 -1.8979 -1.5413
  464MOL0     H63965   9.879   1.226   3.096 -0.6327 -0.8358 -0.5278
  464MOL0     H63966   9.946   1.178   2.931  1.9616 -0.6917 -0.1481
  464MOL0     H63967  10.101   1.283   3.092 -2.1241  1.0505  2.6300
  464MOL0     H63968  10.090   1.135   3.191 -2.4037 -3.5875 -1.2700
  464MOL0     H63969  10.157   0.992   2.989 -3.7174  0.7030  1.8763
  464MOL0     H63970  10.176   1.130   2.892  0.7159  0.7352  0.0913
  464MOL0     H63971  10.316   1.223   3.091 -1.0943  0.2903  3.1318
  464MOL0     H63972  10.318   1.057   3.159 -3.8097 -0.8398 -0.3142
  464MOL0     H63973  10.402   1.131   2.866  2.0480  0.5555 -0.9072
  464MOL0     H63974  10.408   0.972   2.946 -1.6366  0.1113 -0.1339
  464MOL0     H63975  10.594   1.198   3.034  0.2458 -0.9597  1.8985
  464MOL0     H63976  10.570   1.035   3.109  3.0582 -1.3924 -0.0071
  464MOL0     H63977  10.775   1.050   2.957  0.6814 -1.2826 -3.5760
  464MOL0     H63978  10.661   1.035   2.832  2.1031  0.2342 -0.0402
  464MOL0     H63979  10.716   0.860   3.079 -1.1810  0.4420  0.6839
  464MOL0     H63980  10.571   0.833   2.978 -0.2479  2.0244 -0.7195
  464MOL0     H63981  10.601   0.686   2.765  0.5479  1.3294 -2.2263
  464MOL0     H63982  10.709   0.535   2.586 -1.0777 -2.2091  0.7371
  464MOL0     H63983  10.834   0.450   2.657  0.7024 -0.6232  0.3238
  464MOL0     H63984  10.890   0.506   2.424  2.3119 -0.6899  0.6973
  464MOL0     H63985  10.864   0.676   2.443 -2.1087 -0.9114  0.7042
  464MOL0     H63986  11.053   0.684   2.586 -1.6206  0.3280 -0.9930
  464MOL0     H63987  11.092   0.506   2.570  2.2593  0.2124 -1.1871
  464MOL0     H63988  11.083   0.717   2.353  0.5728 -0.9229 -1.8156
  464MOL0     H63989  11.240   0.659   2.420  0.2780 -0.7292 -2.0383
  464MOL0     H63990  11.056   0.371   2.118 -2.3591  1.7576  0.0455
  464MOL0     H63991  11.178   0.297   1.803  0.8265  1.0850  0.5232
  464MOL0     H63992  11.029   0.393   1.778 -0.3373 -2.1668 -1.7680
  464MOL0     H63993  11.033   0.280   1.902  1.1265 -0.6837 -1.4625
  464MOL0     H63994  11.241   0.506   1.447  0.1296 -2.1208 -2.8861
  464MOL0     H63995  11.372   0.535   1.262 -0.7511  2.0038  0.3776
  464MOL0     H63996  11.791   0.535   1.125  1.2988  1.4292  0.0248
  464MOL0     H63997  11.813   0.565   1.297  1.2442 -0.2865 -1.4428
  464MOL0     H63998  11.748   0.312   1.330  0.6235  1.5365  0.6060
  464MOL0     H63999  11.801   0.304   1.155  2.3657  1.5023 -1.2896
  464MOL0     H64000  11.974   0.421   1.380 -0.5797 -0.8109  0.0592
  464MOL0     H64001  12.015   0.415   1.209  0.3397  1.4040  0.8561
  464MOL0     H64002  12.032   0.184   1.194 -1.9034 -1.6409  1.6268
  464MOL0     H64003  11.960   0.164   1.352 -0.9496  0.8411  0.7703
  464MOL0     H64004  12.142   0.260   1.463 -1.3695  1.2366  0.0884
  464MOL0     H64005  12.201   0.139   1.341 -0.2856  0.3948 -1.8261
  464MOL0     H64006  12.214   0.435   1.299 -3.2995 -1.2333  2.2933
  464MOL0     H64007  12.258   0.298   1.185 -3.8674 -1.8964  1.1145
  464MOL0     H64008  12.419   0.216   1.349  2.4159 -0.3397 -0.7471
  464MOL0     H64009  12.399   0.374   1.435  2.0876 -0.1946 -0.8806
  464MOL0     H64010  12.452   0.502   1.247 -0.3894  0.3435  0.7470
  464MOL0     H64011  12.477   0.362   1.147  0.6872  2.0732 -1.3610
  464MOL0     H64012  11.724   0.485   1.478 -0.5303  1.3887  1.4045
  464MOL0     H64013  11.568   0.443   1.700 -2.6097  2.7124  1.1071
  464MOL0     H64014  11.314   0.754   1.944  0.0793  0.2187 -0.7515
  464MOL0     H64015  11.247   0.745   2.202 -1.3556 -1.0469  0.9963
  464MOL0     H64016   9.681   1.168   2.968  0.5984  2.4245  2.0408
  464MOL0     H64017   9.440   1.124   3.054 -0.0534 -2.0328  3.0572
  464MOL0     H64018   9.032   0.947   3.011  0.1970 -3.2779 -0.4342
  464MOL0     H64019   8.804   0.922   3.093 -1.9026  0.4650  3.1310
  464MOL0     H64020   8.731   0.720   3.381 -1.3244 -0.2390 -0.6227
  464MOL0     H64021   8.683   0.843   3.499  1.8933  0.6744 -0.1845
  464MOL0     H64022   8.508   0.674   3.378  1.0098  0.8214  0.9760
  464MOL0     H64023   8.504   0.806   3.262  0.6039 -1.1495 -1.6646
  464MOL0     H64024   8.440   0.846   3.551  0.7838  2.0001  0.2069
  464MOL0     H64025   8.452   0.971   3.423  0.1594  0.0284 -2.5511
  464MOL0     H64026   8.282   0.721   3.409  1.6114  0.2833 -0.2419
  464MOL0     H64027   8.263   0.861   3.304 -1.1337 -2.3369 -0.5787
  464MOL0     H64028   8.007   1.015   3.586 -2.4074 -0.1432 -2.5450
  464MOL0     H64029   8.927   0.940   3.496  1.1616 -0.1033 -0.0495
  464MOL0     H64030   9.143   0.956   3.562 -2.6826  1.4392 -1.0641
  464MOL0     H64031   9.257   0.877   3.456 -1.8807 -1.1258 -2.0636
  464MOL0     H64032   9.238   1.057   3.468  0.1791 -0.6690 -1.2883
  465MOL0     O64033   1.109   0.341   7.924  0.4715  0.3232 -0.1939
  465MOL0     C64034   1.069   0.411   8.019 -0.6066 -0.0003  0.1672
  465MOL0     O64035   1.128   0.523   8.056  0.3514 -0.2613 -0.2153
  465MOL0     C64036   1.228   0.587   7.976  0.0495 -0.2708 -0.1417
  465MOL0     C64037   1.356   0.542   7.971  0.7526 -0.2345 -0.0527
  465MOL0     C64038   1.462   0.605   7.910 -0.4390 -0.3271  0.1604
  465MOL0     C64039   1.437   0.726   7.840  0.0162  0.4031  0.3476
  465MOL0     O64040   1.545   0.801   7.785  0.7264  1.0267 -1.0703
  465MOL0     C64041   1.593   0.742   7.666  0.3835 -0.3956  0.1608
  465MOL0     C64042   1.502   0.795   7.549  0.2274  0.0090 -0.2575
  465MOL0     C64043   1.522   0.939   7.523 -0.1976  0.0924 -0.2175
  465MOL0     C64044   1.454   0.981   7.394 -0.0723  0.1150  0.3892
  465MOL0     C64045   1.430   1.129   7.401  0.8940 -0.2123 -0.2427
  465MOL0     C64046   1.399   1.185   7.262  0.1929  0.5140 -0.1824
  465MOL0     C64047   1.360   1.336   7.262  1.2290 -0.8928 -0.2643
  465MOL0     C64048   1.417   1.419   7.142  0.3969  0.2728  0.1652
  465MOL0     N64049   1.403   1.560   7.157 -0.3014 -0.5291  0.1157
  465MOL0     C64050   1.506   1.642   7.210  0.6454 -0.3450  0.1399
  465MOL0     C64051   1.455   1.765   7.220  0.2768  0.1724 -0.6224
  465MOL0     C64052   1.538   1.885   7.270  0.2587  0.3760 -0.8468
  465MOL0     C64053   1.591   1.849   7.412  0.5248 -0.1045  0.0617
  465MOL0     C64054   1.657   1.981   7.461 -0.9314 -0.3037  0.1710
  465MOL0     C64055   1.564   2.087   7.522  0.1074 -0.1255  0.0328
  465MOL0     O64056   1.651   2.190   7.562 -0.0656  0.4601 -1.2367
  465MOL0     C64057   1.692   2.194   7.693  0.1004 -0.3518  0.6066
  465MOL0     C64058   1.683   2.093   7.794  0.0533 -0.3096 -0.0698
  465MOL0     C64059   1.742   2.107   7.914  0.2107 -0.3337 -0.7919
  465MOL0     C64060   1.725   1.986   8.006  0.7432 -0.0602  0.1358
  465MOL0     C64061   1.806   2.229   7.943 -0.1375 -0.3116 -0.8860
  465MOL0     C64062   1.851   2.255   8.086  0.5842 -0.3108 -0.0020
  465MOL0     O64063   1.807   2.185   8.202  0.2057  0.8090  0.2814
  465MOL0     C64064   1.850   2.230   8.323 -0.2087 -0.0179  0.1666
  465MOL0     C64065   1.766   2.303   8.404 -0.5302  0.0835  0.6825
  465MOL0     C64066   1.825   2.372   8.511 -0.2917 -0.2538 -1.2247
  465MOL0     C64067   1.956   2.344   8.559 -0.1656 -0.4563  0.7562
  465MOL0     O64068   2.004   2.381   8.681  0.1567 -0.6592 -0.2193
  465MOL0     C64069   1.910   2.466   8.753 -0.1121  0.4505  0.2499
  465MOL0     C64070   1.984   2.514   8.873  0.6833  0.0425  0.0030
  465MOL0     C64071   1.895   2.566   8.984  0.0575  0.0948  0.6440
  465MOL0     C64072   1.984   2.605   9.091  0.4864 -0.5859 -0.3233
  465MOL0     C64073   1.905   2.648   9.211  0.3227 -0.0522  0.7164
  465MOL0     C64074   1.994   2.670   9.331 -0.1694 -0.6814 -0.1609
  465MOL0     C64075   2.100   2.777   9.310 -0.0563  0.0710  1.2904
  465MOL0     C64076   2.168   2.808   9.449  0.5046  0.1317  0.0457
  465MOL0    Cl64077   2.055   2.915   9.527 -0.3075  0.1181 -0.1184
  465MOL0     C64078   2.036   2.272   8.468 -0.3341 -0.4479 -0.5820
  465MOL0     C64079   1.984   2.219   8.352  0.0071  0.1521  0.3633
  465MOL0     O64080   1.939   2.342   8.091  0.7437  0.6782 -0.3247
  465MOL0     C64081   1.821   2.327   7.852 -0.3503 -0.4496  0.1892
  465MOL0     C64082   1.762   2.311   7.727  1.7309  0.8273  0.2546
  465MOL0     N64083   1.323   1.766   7.166  0.1320 -0.8077 -0.4614
  465MOL0     N64084   1.298   1.638   7.124  0.0075  0.1819 -0.2934
  465MOL0     C64085   1.310   0.779   7.845 -0.1316  1.0508 -0.3042
  465MOL0     C64086   1.211   0.707   7.910  0.5118 -0.3272  0.4153
  465MOL0     C64087   0.945   0.347   8.086  0.7473 -0.7584  0.5097
  465MOL0     C64088   0.849   0.298   8.004  0.6730  0.4853 -0.2001
  465MOL0     C64089   0.731   0.241   8.053 -0.2625  0.8952 -0.0704
  465MOL0     C64090   0.724   0.211   8.189  0.1473 -0.1234 -0.3102
  465MOL0     O64091   0.617   0.145   8.244 -0.4625 -0.4904 -0.0704
  465MOL0     C64092   0.523   0.105   8.151  0.1890  0.2117 -0.2438
  465MOL0     C64093   0.415   0.026   8.239 -0.5483  0.8347  1.2126
  465MOL0     C64094   0.272   0.039   8.189  0.2228 -0.8729 -0.0478
  465MOL0     C64095   0.210   0.184   8.176  0.0169  0.7351  0.4166
  465MOL0     C64096   0.061   0.162   8.165 -0.1361 -0.3214 -0.0597
  465MOL0     C64097  -0.058   0.150   8.143  0.1084 -0.3395  0.1701
  465MOL0     C64098   0.818   0.268   8.275 -0.6283  0.0702 -0.0578
  465MOL0     C64099   0.931   0.333   8.226  0.5304 -0.2528  0.3670
  465MOL0     C64100   1.026   0.395   8.324 -0.1321 -1.1258  0.0207
  465MOL0     H64101   1.378   0.448   8.021  0.2112 -0.3499 -0.0303
  465MOL0     H64102   1.563   0.566   7.917 -0.2729  0.1979  0.8527
  465MOL0     H64103   1.595   0.633   7.677 -0.1546 -0.3331  0.9390
  465MOL0     H64104   1.695   0.773   7.642 -0.1370  1.6910  0.4691
  465MOL0     H64105   1.509   0.733   7.459 -0.3579  1.6711 -1.5201
  465MOL0     H64106   1.397   0.774   7.569 -0.0188  0.9040 -0.5455
  465MOL0     H64107   1.483   0.995   7.608 -0.0479 -2.7505  1.8736
  465MOL0     H64108   1.628   0.959   7.504 -0.3205  0.3207 -0.6923
  465MOL0     H64109   1.527   0.959   7.316  0.0533  0.2980  0.4543
  465MOL0     H64110   1.352   0.953   7.365 -0.8725  1.8945  1.3367
  465MOL0     H64111   1.518   1.178   7.443 -0.7144  2.0815  0.6140
  465MOL0     H64112   1.339   1.148   7.458  1.4183  1.2311  0.1442
  465MOL0     H64113   1.492   1.167   7.207 -0.5298 -0.3764 -1.1542
  465MOL0     H64114   1.310   1.138   7.219  0.4899 -2.3672  2.0610
  465MOL0     H64115   1.400   1.383   7.353 -0.7754  0.3509  0.0246
  465MOL0     H64116   1.254   1.356   7.276  1.6223  0.5115  1.0157
  465MOL0     H64117   1.525   1.402   7.131  0.0433  0.0085 -5.3591
  465MOL0     H64118   1.374   1.385   7.048 -1.8575 -1.2565  1.6377
  465MOL0     H64119   1.606   1.617   7.243  0.7237  1.4372  1.3781
  465MOL0     H64120   1.466   1.967   7.272 -1.9194 -1.4756  0.3865
  465MOL0     H64121   1.627   1.905   7.209  1.3197  2.2855  1.1657
  465MOL0     H64122   1.511   1.833   7.485  2.8691  1.7458  3.3153
  465MOL0     H64123   1.655   1.762   7.404  1.6663  0.2659  3.5602
  465MOL0     H64124   1.733   1.955   7.535 -2.7926  0.9887  2.6654
  465MOL0     H64125   1.715   2.026   7.379 -0.3962  0.1742  0.8008
  465MOL0     H64126   1.490   2.117   7.447 -1.3992 -1.6110  0.8452
  465MOL0     H64127   1.506   2.052   7.608  0.5466  0.1559  0.4397
  465MOL0     H64128   1.632   1.999   7.779 -2.5871  0.9563  0.3768
  465MOL0     H64129   1.639   2.007   8.069  1.0936  1.9097  0.0152
  465MOL0     H64130   1.802   1.984   8.083  0.2683  0.0545  0.6163
  465MOL0     H64131   1.727   1.884   7.964 -1.9403  0.0604 -0.4622
  465MOL0     H64132   1.666   2.323   8.366 -1.2191 -2.2024  1.1501
  465MOL0     H64133   1.759   2.446   8.553  0.5861  0.9577 -1.9008
  465MOL0     H64134   1.882   2.559   8.703  1.9644  1.8316  1.5650
  465MOL0     H64135   1.821   2.411   8.785  0.3143  0.2583  1.1153
  465MOL0     H64136   2.036   2.423   8.905  0.3645 -0.2811 -0.3843
  465MOL0     H64137   2.056   2.590   8.841 -0.6534  1.2370 -0.2526
  465MOL0     H64138   1.835   2.481   9.018  0.1991 -0.7248 -1.0567
  465MOL0     H64139   1.828   2.647   8.956 -1.5265 -2.2235 -3.0129
  465MOL0     H64140   2.051   2.682   9.053 -3.6229  3.1504 -0.7594
  465MOL0     H64141   2.041   2.522   9.134  2.0033  0.9001  0.5883
  465MOL0     H64142   1.866   2.743   9.175  2.9230  1.2300  0.9915
  465MOL0     H64143   1.824   2.580   9.237 -0.4111 -0.4073 -2.1380
  465MOL0     H64144   2.046   2.576   9.354 -0.4140 -1.1399 -1.4123
  465MOL0     H64145   1.924   2.700   9.410 -1.8687 -1.1227 -1.4501
  465MOL0     H64146   2.043   2.856   9.259  0.3146 -0.6258 -0.2631
  465MOL0     H64147   2.167   2.738   9.233  0.8190  1.9913  1.0075
  465MOL0     H64148   2.266   2.854   9.440  2.7853 -3.4116  3.5166
  465MOL0     H64149   2.189   2.715   9.503  4.0945  1.4831  1.2278
  465MOL0     H64150   2.136   2.263   8.509 -0.6063  3.0852  1.2508
  465MOL0     H64151   2.043   2.169   8.276 -1.0076  0.6140 -0.7603
  465MOL0     H64152   1.873   2.421   7.868  1.9864 -2.0923  3.1583
  465MOL0     H64153   1.760   2.399   7.664 -0.4884 -0.7110 -1.9947
  465MOL0     H64154   1.286   0.873   7.796 -1.5705  1.6938  1.5254
  465MOL0     H64155   1.109   0.742   7.912 -0.2804 -2.3446 -1.2655
  465MOL0     H64156   0.850   0.326   7.899 -1.1794  2.2696  0.1817
  465MOL0     H64157   0.647   0.214   7.990 -0.3340 -2.6761  1.2991
  465MOL0     H64158   0.481   0.192   8.100  0.3163 -1.7210 -3.9622
  465MOL0     H64159   0.562   0.047   8.067  2.2946  3.4229 -1.7116
  465MOL0     H64160   0.416   0.047   8.347  0.1239  0.8196  1.2093
  465MOL0     H64161   0.436  -0.080   8.224  1.5903  0.9948  2.5629
  465MOL0     H64162   0.263  -0.001   8.088  0.0574  0.4839 -0.6024
  465MOL0     H64163   0.210  -0.028   8.249 -0.8888 -2.3110 -2.6623
  465MOL0     H64164   0.255   0.235   8.091  1.9675 -0.8402  0.4137
  465MOL0     H64165   0.217   0.251   8.261 -1.5157  1.6539 -0.1388
  465MOL0     H64166  -0.164   0.146   8.134  0.0630 -0.4760  0.7180
  465MOL0     H64167   0.826   0.251   8.382  4.0138  2.2061  0.1839
  465MOL0     H64168   1.007   0.502   8.324  2.1250 -0.5203  3.9950
  465MOL0     H64169   1.013   0.352   8.424 -3.4496  1.8199  1.0591
  465MOL0     H64170   1.128   0.378   8.290 -0.3159 -0.0247 -1.1374
  466MOL0     O64171   5.191   1.166   1.818 -0.1675  0.8291 -0.2568
  466MOL0     C64172   5.070   1.150   1.795 -0.4013  0.7353  0.2785
  466MOL0     O64173   5.018   1.042   1.735 -0.2366  0.7129 -0.1112
  466MOL0     C64174   5.107   0.934   1.713  0.0164 -0.7596 -0.0895
  466MOL0     C64175   5.166   0.905   1.587 -0.1066 -0.1511  0.2925
  466MOL0     C64176   5.252   0.798   1.575 -1.2561  0.2630  0.2389
  466MOL0     C64177   5.280   0.716   1.682  0.4367  1.0443 -0.0912
  466MOL0     O64178   5.383   0.623   1.650 -0.4524  0.2809 -0.5724
  466MOL0     C64179   5.382   0.502   1.728 -0.3720  0.5028 -0.0259
  466MOL0     C64180   5.466   0.403   1.637  0.8219 -0.0087 -0.6966
  466MOL0     C64181   5.607   0.454   1.613 -0.6442 -0.1003 -0.2834
  466MOL0     C64182   5.691   0.368   1.527 -0.3444  0.1142  0.4237
  466MOL0     C64183   5.836   0.415   1.509 -0.1351 -0.6222  0.0774
  466MOL0     C64184   5.868   0.560   1.466 -0.2461 -0.2926 -1.2075
  466MOL0     C64185   6.006   0.602   1.444 -1.1922 -0.1195 -1.2180
  466MOL0     C64186   6.089   0.619   1.574 -0.7979  0.0497  0.5980
  466MOL0     N64187   6.237   0.620   1.562 -0.6650 -0.1515  0.3068
  466MOL0     C64188   6.315   0.694   1.476 -0.0402  0.8631 -0.1511
  466MOL0     C64189   6.440   0.650   1.497  0.0536 -1.1011 -0.2860
  466MOL0     C64190   6.571   0.726   1.463  0.1096  0.4630  0.1304
  466MOL0     C64191   6.593   0.720   1.313 -0.9116  0.1324 -0.2822
  466MOL0     C64192   6.684   0.596   1.280  0.5779  0.0634  0.0075
  466MOL0     C64193   6.603   0.470   1.270 -0.9593  0.0515 -0.1223
  466MOL0     O64194   6.498   0.489   1.171  0.3431 -0.0232  0.0362
  466MOL0     C64195   6.374   0.429   1.190  0.0109  0.2338 -0.3148
  466MOL0     C64196   6.344   0.343   1.295  0.3910 -0.3258  1.3657
  466MOL0     C64197   6.217   0.283   1.312  0.7581  0.7086  0.3655
  466MOL0     C64198   6.193   0.212   1.438 -0.4828 -0.3050 -0.0359
  466MOL0     C64199   6.119   0.305   1.211  0.7178  0.3135 -0.0882
  466MOL0     C64200   5.991   0.238   1.201 -0.0975  0.7745 -1.0168
  466MOL0     O64201   5.888   0.308   1.155 -0.6154  0.4928  0.2531
  466MOL0     C64202   5.759   0.253   1.155  0.9007 -0.6932  0.2944
  466MOL0     C64203   5.677   0.288   1.044 -0.6478  0.3939 -0.3082
  466MOL0     C64204   5.550   0.235   1.039 -0.4633 -0.0224  0.2163
  466MOL0     C64205   5.492   0.160   1.143 -0.1940  0.1660 -0.0470
  466MOL0     O64206   5.358   0.117   1.138  0.1942 -0.3162 -1.0513
  466MOL0     C64207   5.313  -0.004   1.203 -0.1317 -0.4363 -0.3905
  466MOL0     C64208   5.242   0.037   1.330  0.5447  0.5819  0.7492
  466MOL0     C64209   5.114   0.116   1.319 -0.5675  0.1481  0.4518
  466MOL0     C64210   5.020   0.093   1.195  0.4407 -0.7398 -0.4062
  466MOL0     C64211   4.927   0.217   1.190  0.2208 -0.7634  0.0162
  466MOL0     C64212   4.822   0.205   1.299  0.0991  0.1555 -0.2546
  466MOL0     C64213   4.735   0.337   1.325 -0.4594  0.6676 -0.4845
  466MOL0     C64214   4.635   0.335   1.438  0.1965  0.1404  0.5369
  466MOL0    Cl64215   4.699   0.293   1.604 -0.0746 -0.3194 -0.1203
  466MOL0     C64216   5.568   0.129   1.257 -0.4161  0.0488 -0.5896
  466MOL0     C64217   5.704   0.179   1.258  0.1686 -0.0271 -1.0073
  466MOL0     O64218   5.999   0.113   1.226 -0.1612 -0.1326  0.2391
  466MOL0     C64219   6.155   0.380   1.098 -0.4105 -0.6128 -0.3203
  466MOL0     C64220   6.289   0.438   1.086 -0.1020  0.3952  0.1432
  466MOL0     N64221   6.440   0.539   1.579  0.0735  0.4855 -0.0615
  466MOL0     N64222   6.314   0.522   1.616 -0.0432  0.0307 -0.0159
  466MOL0     C64223   5.225   0.749   1.812 -0.2407 -0.2301 -0.2731
  466MOL0     C64224   5.131   0.851   1.819  0.6133 -0.1348 -0.6922
  466MOL0     C64225   4.974   1.259   1.843  0.1147 -1.4899 -0.7354
  466MOL0     C64226   5.024   1.371   1.915  0.1581  0.1050 -0.5251
  466MOL0     C64227   4.938   1.462   1.966 -0.0452 -1.3812 -0.4835
  466MOL0     C64228   4.801   1.461   1.962 -0.2392  0.5141 -0.4442
  466MOL0     O64229   4.730   1.545   2.042 -0.0895  0.3875 -0.3515
  466MOL0     C64230   4.595   1.565   2.020  0.3809  0.1477 -0.7975
  466MOL0     C64231   4.572   1.716   2.057  0.0691 -0.2248  0.5902
  466MOL0     C64232   4.640   1.809   1.954 -0.3093  0.4889 -0.2655
  466MOL0     C64233   4.581   1.948   1.962 -0.0191  0.0293 -0.1590
  466MOL0     C64234   4.635   2.034   1.863  0.4030  0.4662  0.7080
  466MOL0     C64235   4.669   2.098   1.770  0.2126 -0.9451 -0.1339
  466MOL0     C64236   4.747   1.361   1.885 -0.0381  0.2176 -0.9988
  466MOL0     C64237   4.830   1.260   1.831 -0.6653  0.1309 -0.0708
  466MOL0     C64238   4.753   1.147   1.762  0.8457  0.4545  0.6282
  466MOL0     H64239   5.138   0.977   1.510 -1.3481  1.2595  1.9630
  466MOL0     H64240   5.307   0.776   1.484 -0.2089  1.3630  0.5843
  466MOL0     H64241   5.280   0.463   1.729 -0.3214  0.3813  0.9796
  466MOL0     H64242   5.418   0.504   1.831  0.9845  2.9731 -0.4754
  466MOL0     H64243   5.487   0.307   1.684  2.7386  1.6111  1.9948
  466MOL0     H64244   5.426   0.390   1.536  2.3026  1.3199 -1.4969
  466MOL0     H64245   5.589   0.546   1.557 -0.9539 -0.2532 -0.4349
  466MOL0     H64246   5.650   0.469   1.713 -3.8740 -2.9686  1.7649
  466MOL0     H64247   5.701   0.263   1.557  0.6137 -0.0245 -0.3143
  466MOL0     H64248   5.641   0.372   1.430 -0.3820  1.0782  0.4791
  466MOL0     H64249   5.885   0.351   1.435  1.1258  0.0695  0.2902
  466MOL0     H64250   5.888   0.400   1.604 -1.0685 -2.5139  0.3443
  466MOL0     H64251   5.800   0.578   1.382 -1.8401 -2.4918 -0.4984
  466MOL0     H64252   5.831   0.627   1.545  1.3100  0.0590 -0.7518
  466MOL0     H64253   6.013   0.696   1.389 -1.1962  0.1915 -0.6908
  466MOL0     H64254   6.052   0.526   1.380 -0.3711 -2.4857  1.9724
  466MOL0     H64255   6.050   0.713   1.613  0.5309  0.0057  2.1355
  466MOL0     H64256   6.061   0.541   1.645  2.4572 -1.5989  0.2548
  466MOL0     H64257   6.288   0.779   1.414  0.1680  0.6518 -0.5399
  466MOL0     H64258   6.648   0.684   1.528  0.7350  0.3364 -0.6816
  466MOL0     H64259   6.560   0.829   1.498 -0.2693  0.4954 -0.0704
  466MOL0     H64260   6.504   0.728   1.249 -0.0485  4.1744 -1.2252
  466MOL0     H64261   6.648   0.810   1.285 -0.9071  0.0596 -0.5105
  466MOL0     H64262   6.725   0.621   1.181 -0.8451 -0.3891 -0.7318
  466MOL0     H64263   6.764   0.585   1.354 -1.1655  0.5441  2.0498
  466MOL0     H64264   6.656   0.381   1.233 -1.5079  0.2255 -1.3461
  466MOL0     H64265   6.576   0.429   1.368 -0.2207 -1.2484 -0.4315
  466MOL0     H64266   6.420   0.322   1.369  0.3013  0.8130  1.8030
  466MOL0     H64267   6.243   0.271   1.516  0.7492 -1.2255 -0.0996
  466MOL0     H64268   6.245   0.116   1.433 -2.5428 -1.5708  1.1306
  466MOL0     H64269   6.093   0.187   1.474 -0.0505  2.1564  3.4336
  466MOL0     H64270   5.715   0.353   0.966 -0.2810  2.3342  1.4137
  466MOL0     H64271   5.495   0.257   0.948 -4.0146 -2.7431  1.4620
  466MOL0     H64272   5.242  -0.063   1.144 -1.9951 -1.9585  3.0241
  466MOL0     H64273   5.393  -0.077   1.216 -4.0687 -5.4356 -1.1032
  466MOL0     H64274   5.214  -0.061   1.371 -1.4604 -0.4671 -2.6997
  466MOL0     H64275   5.314   0.074   1.403  1.3442 -2.0760  1.4362
  466MOL0     H64276   5.136   0.223   1.329  1.1411 -0.0138 -1.0236
  466MOL0     H64277   5.055   0.099   1.410 -1.8908  0.7888 -0.2483
  466MOL0     H64278   4.956   0.004   1.197  3.4134 -3.0456 -1.0462
  466MOL0     H64279   5.071   0.090   1.099 -1.2940 -0.6265 -1.3712
  466MOL0     H64280   4.992   0.305   1.187  1.1413 -1.4440 -1.7799
  466MOL0     H64281   4.874   0.219   1.094  0.0564  1.1736  0.1116
  466MOL0     H64282   4.873   0.199   1.396 -2.4598  0.4988  1.2143
  466MOL0     H64283   4.759   0.119   1.276  1.4116 -0.5920 -1.1693
  466MOL0     H64284   4.681   0.346   1.230  0.1584  0.3154 -0.8773
  466MOL0     H64285   4.803   0.420   1.345 -0.6990  1.1200 -1.4619
  466MOL0     H64286   4.567   0.254   1.409 -0.2879  0.7567 -0.0639
  466MOL0     H64287   4.586   0.431   1.452 -0.2747 -0.0698  0.3380
  466MOL0     H64288   5.535   0.063   1.337 -1.1574 -0.0265 -0.9510
  466MOL0     H64289   5.764   0.147   1.343 -1.9441  1.0509  1.0118
  466MOL0     H64290   6.086   0.392   1.015  1.8345  1.3971 -2.0188
  466MOL0     H64291   6.327   0.487   0.997  0.9992 -0.1147  0.3137
  466MOL0     H64292   5.242   0.684   1.898  2.2764  1.1391  0.3524
  466MOL0     H64293   5.077   0.857   1.913 -1.7347 -0.7205 -1.9460
  466MOL0     H64294   5.130   1.383   1.936 -0.6168  1.8105  3.1222
  466MOL0     H64295   4.968   1.551   2.020 -0.1051 -0.5272 -1.8176
  466MOL0     H64296   4.554   1.558   1.919 -0.5832  0.2878 -0.4310
  466MOL0     H64297   4.538   1.505   2.091  0.4868  1.0752  0.0893
  466MOL0     H64298   4.629   1.735   2.148  0.8263 -1.8180  0.4782
  466MOL0     H64299   4.468   1.749   2.068  0.1761 -0.0124  0.9918
  466MOL0     H64300   4.747   1.819   1.976 -0.7273  1.9598  1.3070
  466MOL0     H64301   4.626   1.768   1.853  0.4396  2.2050 -1.1019
  466MOL0     H64302   4.618   1.978   2.061  0.0245  1.3161 -0.5510
  466MOL0     H64303   4.472   1.941   1.956  0.0945 -0.6414 -1.9595
  466MOL0     H64304   4.695   2.154   1.682  1.3104  0.8760  1.2898
  466MOL0     H64305   4.639   1.368   1.874 -0.2876  1.4482  1.4068
  466MOL0     H64306   4.803   1.050   1.754 -0.0579  0.0991 -1.1458
  466MOL0     H64307   4.657   1.137   1.813 -0.6284  3.2606 -1.3252
  466MOL0     H64308   4.732   1.175   1.658  0.4683 -1.3422  0.1884
  467MOL0     O64309   7.782   0.901   6.467 -0.7418 -0.1951 -0.3649
  467MOL0     C64310   7.721   0.857   6.567 -0.5097  0.1452 -0.1870
  467MOL0     O64311   7.780   0.829   6.696  0.6493  0.4142  0.7082
  467MOL0     C64312   7.916   0.826   6.694 -0.2138  0.5185  0.7490
  467MOL0     C64313   7.983   0.935   6.752 -0.1890  0.5319  0.4388
  467MOL0     C64314   8.123   0.949   6.727 -0.7304 -0.4176  0.4992
  467MOL0     C64315   8.193   0.849   6.661 -0.0102  0.2354 -0.5288
  467MOL0     O64316   8.333   0.875   6.655  0.3461 -0.2317  0.0313
  467MOL0     C64317   8.404   0.790   6.570  0.5004 -0.0834 -0.3739
  467MOL0     C64318   8.549   0.840   6.570  0.4471 -0.1840  0.0485
  467MOL0     C64319   8.635   0.759   6.465 -0.0347 -0.6304 -0.9510
  467MOL0     C64320   8.762   0.837   6.424  0.1166 -0.2073 -0.8619
  467MOL0     C64321   8.840   0.746   6.327 -0.7889 -1.8010  0.2801
  467MOL0     C64322   8.965   0.826   6.289 -0.2411  0.1192  0.1743
  467MOL0     C64323   9.065   0.757   6.182 -0.2340 -0.3619 -0.3169
  467MOL0     C64324   8.992   0.752   6.047 -0.1572  1.2869 -0.5486
  467MOL0     N64325   9.086   0.690   5.950 -0.4793 -0.2697  0.7050
  467MOL0     C64326   9.102   0.558   5.943 -0.0852  0.2523  0.4353
  467MOL0     C64327   9.152   0.542   5.811 -0.2931  0.5345  0.0454
  467MOL0     C64328   9.207   0.419   5.754 -0.0117 -0.8238  0.0003
  467MOL0     C64329   9.254   0.438   5.606  0.3106 -0.8441 -0.6849
  467MOL0     C64330   9.319   0.306   5.554 -0.2263 -0.6679  0.1126
  467MOL0     C64331   9.377   0.338   5.416  0.0682 -0.0956  0.3832
  467MOL0     O64332   9.433   0.205   5.370  0.0296 -0.3900  0.1026
  467MOL0     C64333   9.510   0.211   5.256 -0.5138  1.1419  0.3287
  467MOL0     C64334   9.603   0.101   5.236  0.4421 -0.0696 -0.1140
  467MOL0     C64335   9.684   0.090   5.117  0.0031  0.6841  0.4756
  467MOL0     C64336   9.748  -0.045   5.094  0.4270  0.3054  1.1513
  467MOL0     C64337   9.675   0.192   5.017  0.0886 -0.0103  0.7280
  467MOL0     C64338   9.756   0.194   4.886 -0.2232  0.0326  0.3881
  467MOL0     O64339   9.766   0.310   4.804 -0.5349  0.1826 -0.3749
  467MOL0     C64340   9.864   0.331   4.712  0.0885  0.8157  0.3719
  467MOL0     C64341   9.829   0.383   4.590  0.2314  0.2806  0.1392
  467MOL0     C64342   9.914   0.400   4.490  0.4486  0.1819 -0.3330
  467MOL0     C64343  10.049   0.359   4.511  0.2673 -0.2849  0.6162
  467MOL0     O64344  10.149   0.379   4.423 -0.0930  0.0298  0.5799
  467MOL0     C64345  10.120   0.417   4.290  0.1102 -0.4953  0.3893
  467MOL0     C64346  10.248   0.448   4.220  0.2564  0.4607  0.1168
  467MOL0     C64347  10.354   0.332   4.221 -0.0087  0.2281  0.7324
  467MOL0     C64348  10.464   0.363   4.115 -0.0812 -0.9728  0.2665
  467MOL0     C64349  10.565   0.249   4.120  0.4099 -0.0578 -0.0373
  467MOL0     C64350  10.687   0.270   4.025  0.9655 -0.0308  0.8465
  467MOL0     C64351  10.772   0.151   4.050  0.2720  0.0407 -0.5142
  467MOL0     C64352  10.911   0.161   3.992 -0.8793  0.4758  0.9079
  467MOL0    Cl64353  10.914   0.176   3.820  0.0276 -0.1469 -0.3790
  467MOL0     C64354  10.087   0.304   4.635 -0.3144 -0.0262  0.4144
  467MOL0     C64355   9.999   0.294   4.740  0.6248 -0.7179  0.0261
  467MOL0     O64356   9.775   0.084   4.833  0.5788 -0.8247  0.4265
  467MOL0     C64357   9.589   0.301   5.043  1.0077  0.3038 -0.2476
  467MOL0     C64358   9.508   0.309   5.156 -0.5166 -0.4060  0.6712
  467MOL0     N64359   9.180   0.661   5.754  1.0273 -0.2901  0.4118
  467MOL0     N64360   9.139   0.755   5.837 -0.4906 -0.4476  0.4911
  467MOL0     C64361   8.128   0.734   6.604 -0.5273  0.2909 -0.5931
  467MOL0     C64362   7.989   0.721   6.629  0.2428 -0.4636 -0.4394
  467MOL0     C64363   7.567   0.849   6.565  0.7976 -0.1325 -0.1460
  467MOL0     C64364   7.509   0.768   6.666  0.3739 -0.1775  0.1749
  467MOL0     C64365   7.368   0.739   6.660  0.4354 -0.8537 -1.0615
  467MOL0     C64366   7.291   0.787   6.547 -0.7209 -0.5180 -0.2304
  467MOL0     O64367   7.158   0.764   6.524 -0.3870 -0.3217 -0.7003
  467MOL0     C64368   7.078   0.697   6.622  0.0965 -0.0881  0.6784
  467MOL0     C64369   6.937   0.738   6.587  0.4482  1.0379 -0.2325
  467MOL0     C64370   6.902   0.867   6.651  0.2155  0.2763 -0.1369
  467MOL0     C64371   6.772   0.934   6.604 -0.7967  0.2842 -0.1202
  467MOL0     C64372   6.648   0.859   6.635  0.4343  0.7529  1.2454
  467MOL0     C64373   6.540   0.811   6.648 -0.3327  0.1230 -0.5001
  467MOL0     C64374   7.348   0.873   6.456 -1.0899 -0.9214  0.5185
  467MOL0     C64375   7.487   0.916   6.464 -0.6616  1.4152  0.0898
  467MOL0     C64376   7.541   1.011   6.359  0.1700  0.2139  0.1926
  467MOL0     H64377   7.932   1.017   6.801  2.1776  0.6628  2.9252
  467MOL0     H64378   8.178   1.036   6.761 -0.9465 -0.0275 -0.1438
  467MOL0     H64379   8.359   0.800   6.471 -1.6516 -1.2570  0.4194
  467MOL0     H64380   8.395   0.685   6.598  2.2113 -0.1041  0.1834
  467MOL0     H64381   8.547   0.947   6.545 -2.5204 -0.1351  0.0962
  467MOL0     H64382   8.580   0.833   6.675 -0.5222  0.2860  0.3856
  467MOL0     H64383   8.658   0.663   6.513 -0.2584 -0.8502 -1.2865
  467MOL0     H64384   8.577   0.746   6.374 -4.3778  4.9963  0.4599
  467MOL0     H64385   8.731   0.927   6.370  4.1147  0.3151 -2.6089
  467MOL0     H64386   8.823   0.862   6.511  0.2404  0.7547 -1.2102
  467MOL0     H64387   8.775   0.721   6.243  2.1939 -2.6600 -1.9253
  467MOL0     H64388   8.878   0.658   6.380 -0.5435  0.8647  5.1414
  467MOL0     H64389   8.937   0.925   6.251  4.2049  1.7841  0.5943
  467MOL0     H64390   9.009   0.852   6.386 -0.8972  0.6249  0.3491
  467MOL0     H64391   9.098   0.657   6.210  1.2014 -0.1672 -1.1648
  467MOL0     H64392   9.154   0.822   6.177 -1.0715  1.0312  1.4836
  467MOL0     H64393   8.894   0.703   6.050 -0.8338  2.6203  1.7906
  467MOL0     H64394   8.985   0.857   6.020  1.3462  1.4947 -0.2527
  467MOL0     H64395   9.074   0.478   6.012 -1.8448 -2.4230 -3.0524
  467MOL0     H64396   9.123   0.348   5.756 -0.3559 -0.4194  0.0674
  467MOL0     H64397   9.291   0.388   5.816  0.0281  1.2980  1.0737
  467MOL0     H64398   9.167   0.472   5.550  1.6395  0.8349 -1.8342
  467MOL0     H64399   9.327   0.520   5.605 -1.6910  1.0342 -0.3458
  467MOL0     H64400   9.393   0.273   5.627  0.0899 -3.2879 -1.2632
  467MOL0     H64401   9.245   0.225   5.553  0.0899 -0.9589  0.0521
  467MOL0     H64402   9.291   0.383   5.366  0.0987 -0.1081  0.3217
  467MOL0     H64403   9.459   0.409   5.428  0.7219 -0.7506 -0.0928
  467MOL0     H64404   9.606   0.024   5.313 -0.8711 -1.2661 -1.2035
  467MOL0     H64405   9.691  -0.090   5.011 -2.9896 -0.8127  3.8691
  467MOL0     H64406   9.740  -0.111   5.180 -0.2649 -0.5646  0.4376
  467MOL0     H64407   9.853  -0.036   5.067  0.3398 -1.0292  0.2923
  467MOL0     H64408   9.729   0.425   4.583 -0.4384 -0.9735  1.7357
  467MOL0     H64409   9.885   0.443   4.394 -1.1628  0.3285  0.1926
  467MOL0     H64410  10.064   0.342   4.234 -0.7538  1.3952 -1.3807
  467MOL0     H64411  10.058   0.507   4.290  1.2257  0.3112  1.2018
  467MOL0     H64412  10.224   0.473   4.116  2.3388 -2.3473 -1.1827
  467MOL0     H64413  10.290   0.532   4.275 -0.5940  3.7842 -3.8553
  467MOL0     H64414  10.298   0.241   4.196 -1.2375  1.1384  0.0516
  467MOL0     H64415  10.398   0.320   4.320  0.5493 -3.0516  0.2009
  467MOL0     H64416  10.513   0.453   4.152 -1.3119 -0.1572 -0.0228
  467MOL0     H64417  10.416   0.379   4.018  0.9561  0.3002 -0.0707
  467MOL0     H64418  10.607   0.248   4.221  3.0664 -1.9490 -1.0490
  467MOL0     H64419  10.513   0.154   4.103 -0.9953  0.5874  0.4391
  467MOL0     H64420  10.730   0.364   4.062  1.9237 -0.4780  0.8939
  467MOL0     H64421  10.640   0.280   3.926 -1.3456 -1.3174  1.7291
  467MOL0     H64422  10.728   0.059   4.009  0.8276  0.7603 -2.8826
  467MOL0     H64423  10.787   0.134   4.157  2.8316  0.4608 -0.7425
  467MOL0     H64424  10.966   0.070   4.016  0.5413  0.9667 -0.3214
  467MOL0     H64425  10.971   0.244   4.030  1.4503  0.6445 -2.6454
  467MOL0     H64426  10.188   0.266   4.651 -0.2993  0.2170  0.9390
  467MOL0     H64427  10.038   0.271   4.839  0.6187 -0.3463  0.1154
  467MOL0     H64428   9.580   0.381   4.971  1.3794  1.0595  0.5307
  467MOL0     H64429   9.435   0.390   5.159  0.2937  0.4612 -1.4192
  467MOL0     H64430   8.181   0.660   6.545 -2.6309 -0.4097 -1.7176
  467MOL0     H64431   7.931   0.647   6.574 -0.9909 -1.0143  1.4980
  467MOL0     H64432   7.562   0.710   6.741  3.4622 -0.5228 -2.0679
  467MOL0     H64433   7.326   0.692   6.748  2.1870 -0.3544  0.0844
  467MOL0     H64434   7.088   0.588   6.610 -0.5483 -0.7575  4.7849
  467MOL0     H64435   7.108   0.709   6.727 -0.8857 -0.3227  0.9945
  467MOL0     H64436   6.871   0.659   6.625  3.4198 -1.4985  0.1257
  467MOL0     H64437   6.918   0.749   6.480 -3.5257 -1.6541 -0.0336
  467MOL0     H64438   6.905   0.866   6.761 -1.5760 -0.9262 -0.0749
  467MOL0     H64439   6.984   0.934   6.622  0.6522 -0.0722  0.2711
  467MOL0     H64440   6.770   0.958   6.498 -0.0931 -1.6898 -0.6262
  467MOL0     H64441   6.761   1.032   6.652 -1.1241  1.3658 -2.2788
  467MOL0     H64442   6.438   0.780   6.647  0.2101 -1.7628 -1.1133
  467MOL0     H64443   7.276   0.895   6.379 -1.0124 -2.3421  0.0074
  467MOL0     H64444   7.458   1.073   6.323 -0.0677  0.7272  1.5563
  467MOL0     H64445   7.612   1.083   6.399 -2.3097  1.9364  1.8006
  467MOL0     H64446   7.591   0.955   6.279 -2.1078 -3.0578  0.8613
  468MOL0     O64447  10.179   5.998   8.242  0.6941 -0.7854 -0.0072
  468MOL0     C64448  10.105   5.939   8.168  0.0763  0.4183 -0.9385
  468MOL0     O64449  10.092   5.804   8.170  0.0911  0.3466  0.3009
  468MOL0     C64450  10.178   5.723   8.247 -0.1749  0.0390  0.0540
  468MOL0     C64451  10.115   5.621   8.327 -0.0715 -0.8654 -0.6490
  468MOL0     C64452  10.194   5.534   8.400 -0.3218  0.3782  0.7403
  468MOL0     C64453  10.333   5.550   8.412 -0.1068  0.0712 -0.5821
  468MOL0     O64454  10.386   5.445   8.470  0.4173 -0.3097 -0.5317
  468MOL0     C64455  10.524   5.408   8.433  0.2763  0.3984  0.0711
  468MOL0     C64456  10.598   5.340   8.549 -0.7885  0.1206 -0.3888
  468MOL0     C64457  10.747   5.328   8.538  0.6300  0.7850  0.6024
  468MOL0     C64458  10.809   5.281   8.666 -0.5371  0.4201 -0.8113
  468MOL0     C64459  10.966   5.276   8.658 -0.6108 -0.3342 -0.3697
  468MOL0     C64460  11.039   5.242   8.793 -0.3274 -0.5136  0.3522
  468MOL0     C64461  11.189   5.235   8.779 -0.8982 -0.4940  0.2662
  468MOL0     C64462  11.253   5.374   8.767  0.4062 -0.2081  0.6350
  468MOL0     N64463  11.398   5.359   8.796  0.8642 -0.3680  0.3989
  468MOL0     C64464  11.496   5.327   8.706 -0.0443  0.9278 -0.0233
  468MOL0     C64465  11.604   5.333   8.784 -0.0497  0.3751 -0.0220
  468MOL0     C64466  11.743   5.322   8.747 -0.3033  0.3136 -0.3176
  468MOL0     C64467  11.839   5.389   8.855 -0.3185  0.6160  0.4378
  468MOL0     C64468  11.879   5.287   8.964 -0.7531 -0.9852  0.2518
  468MOL0     C64469  11.947   5.347   9.095 -0.7441 -0.5073 -0.7118
  468MOL0     O64470  12.081   5.394   9.073  0.0412 -0.2822  0.0625
  468MOL0     C64471  12.120   5.526   9.057  0.4976 -0.1417 -0.3569
  468MOL0     C64472  12.256   5.558   9.054 -0.0619  0.8513 -0.1260
  468MOL0     C64473  12.304   5.684   9.022 -0.0090  0.1510 -0.1667
  468MOL0     C64474  12.459   5.706   9.025  0.0854  0.7688 -0.1626
  468MOL0     C64475  12.216   5.798   9.003 -0.3235  0.2321 -0.0920
  468MOL0     C64476  12.264   5.932   8.980  0.2528  0.1015  0.0655
  468MOL0     O64477  12.388   5.948   8.909 -0.4307 -0.3668  0.3645
  468MOL0     C64478  12.448   6.071   8.915 -0.4970 -0.1498  0.4893
  468MOL0     C64479  12.580   6.083   8.962 -0.3318 -0.3009  0.1070
  468MOL0     C64480  12.658   6.203   8.961 -0.4731  0.5778  0.2276
  468MOL0     C64481  12.586   6.317   8.919  0.3437 -0.8391  0.0611
  468MOL0     O64482  12.636   6.446   8.920 -0.0496  0.7274  0.3502
  468MOL0     C64483  12.669   6.492   9.051  0.2673 -0.3779  0.0927
  468MOL0     C64484  12.782   6.606   9.031  0.4566 -0.1686  0.0999
  468MOL0     C64485  12.880   6.572   8.915  1.0170 -0.1527 -0.0495
  468MOL0     C64486  13.006   6.661   8.908  0.3764 -0.0209 -0.1385
  468MOL0     C64487  13.082   6.619   8.786 -0.0046 -0.5421  0.0368
  468MOL0     C64488  13.226   6.670   8.780 -0.1962  0.1120 -0.1566
  468MOL0     C64489  13.332   6.567   8.829 -1.3319  0.0568  0.7921
  468MOL0     C64490  13.366   6.469   8.719 -0.1249  0.0683  0.1311
  468MOL0    Cl64491  13.502   6.353   8.752  0.2848 -0.4447  0.4483
  468MOL0     C64492  12.452   6.303   8.876 -0.2546  0.0804 -1.2899
  468MOL0     C64493  12.384   6.180   8.874  0.1194 -0.0630  0.7517
  468MOL0     O64494  12.199   6.029   9.020  0.1434 -0.1307 -0.1416
  468MOL0     C64495  12.078   5.766   9.009 -0.1748 -0.2053 -0.2098
  468MOL0     C64496  12.033   5.635   9.031  0.0935  0.6014  0.5164
  468MOL0     N64497  11.566   5.356   8.906 -0.3709  0.2322 -0.1975
  468MOL0     N64498  11.439   5.373   8.924 -0.1139 -0.3395  0.0705
  468MOL0     C64499  10.394   5.663   8.343  0.3869  0.0199  0.8313
  468MOL0     C64500  10.315   5.743   8.257 -0.0049  0.6312 -0.8702
  468MOL0     C64501  10.014   6.018   8.081  0.1276 -0.6968 -0.3734
  468MOL0     C64502   9.935   5.952   7.993  0.1653  0.4798  0.3065
  468MOL0     C64503   9.853   6.015   7.905 -0.1809  0.6600 -0.5089
  468MOL0     C64504   9.856   6.152   7.886 -0.4796 -1.0179 -0.0388
  468MOL0     O64505   9.767   6.211   7.794 -0.9273  0.2656 -0.3147
  468MOL0     C64506   9.771   6.354   7.778  0.1830 -0.6371  0.9128
  468MOL0     C64507   9.694   6.430   7.892  1.3593  0.4143  0.4493
  468MOL0     C64508   9.542   6.404   7.886  0.9766  0.5212  0.1104
  468MOL0     C64509   9.471   6.469   8.003  1.1545 -0.3802 -0.3834
  468MOL0     C64510   9.458   6.615   7.961 -0.3223  0.5481  0.9766
  468MOL0     C64511   9.442   6.730   7.940  0.8110 -0.1198 -0.7695
  468MOL0     C64512   9.950   6.221   7.971  0.5158  0.0815  0.2239
  468MOL0     C64513  10.020   6.160   8.076  0.5875  0.7164 -0.0206
  468MOL0     C64514  10.085   6.257   8.176  0.1146 -0.5616 -0.4170
  468MOL0     H64515  10.011   5.604   8.303 -0.8168  1.2468  0.7789
  468MOL0     H64516  10.146   5.447   8.445 -0.5305  1.5381  2.9159
  468MOL0     H64517  10.591   5.488   8.401  0.7950  1.1056  2.7533
  468MOL0     H64518  10.512   5.335   8.352 -1.4226  1.3585 -0.5968
  468MOL0     H64519  10.575   5.402   8.636  1.7718 -0.9479  1.1931
  468MOL0     H64520  10.554   5.243   8.570  0.2771  0.2431  2.9614
  468MOL0     H64521  10.768   5.258   8.458  0.8334  1.5525 -0.0268
  468MOL0     H64522  10.794   5.424   8.514 -0.8987  1.3440 -0.2506
  468MOL0     H64523  10.780   5.341   8.753 -2.0210 -0.5107 -0.6430
  468MOL0     H64524  10.757   5.188   8.686 -2.0014  1.2808 -0.4531
  468MOL0     H64525  11.015   5.361   8.610  1.3412 -0.6175  1.0128
  468MOL0     H64526  10.986   5.200   8.582 -0.5124 -0.0044 -0.6772
  468MOL0     H64527  11.015   5.315   8.871  0.3215  0.0866  0.0107
  468MOL0     H64528  11.004   5.143   8.821  0.5955 -0.8687  0.2695
  468MOL0     H64529  11.215   5.177   8.690  1.4182  1.2116 -0.2470
  468MOL0     H64530  11.229   5.180   8.864 -2.2543 -2.5037 -0.3158
  468MOL0     H64531  11.244   5.419   8.668  1.9468  1.5899  1.2492
  468MOL0     H64532  11.202   5.440   8.838  0.4460 -0.3178  0.7664
  468MOL0     H64533  11.496   5.308   8.599  2.3698  0.4187  0.0209
  468MOL0     H64534  11.758   5.380   8.655 -0.8490 -0.0460 -0.6394
  468MOL0     H64535  11.771   5.216   8.747  2.3722  0.7615  4.5369
  468MOL0     H64536  11.938   5.406   8.811 -0.4113 -1.3778 -0.6414
  468MOL0     H64537  11.802   5.487   8.885  1.6408  1.4985  0.1319
  468MOL0     H64538  11.786   5.237   8.994 -0.4323 -0.9282  1.4078
  468MOL0     H64539  11.946   5.211   8.924  1.0871 -0.9988  3.0442
  468MOL0     H64540  11.887   5.433   9.127  1.1723  0.9487 -0.8706
  468MOL0     H64541  11.950   5.270   9.172  1.2812 -0.9277 -1.1704
  468MOL0     H64542  12.323   5.480   9.088  0.1884  1.0963 -0.0577
  468MOL0     H64543  12.476   5.800   9.078 -0.3373  1.2196 -0.8266
  468MOL0     H64544  12.515   5.710   8.931 -0.1548  4.2658 -0.2856
  468MOL0     H64545  12.508   5.627   9.083 -2.7893  0.1321  1.6380
  468MOL0     H64546  12.630   5.992   8.996 -1.0946  0.2531  2.9521
  468MOL0     H64547  12.766   6.203   8.973 -0.3105 -2.8364 -0.1490
  468MOL0     H64548  12.584   6.544   9.097  0.3056 -0.9856  0.8792
  468MOL0     H64549  12.708   6.410   9.112  0.4976 -0.2914  0.0637
  468MOL0     H64550  12.740   6.705   9.012  4.4508  2.4262  3.1251
  468MOL0     H64551  12.837   6.621   9.124 -0.2083  2.3554  0.1698
  468MOL0     H64552  12.825   6.576   8.821  0.5214 -0.2321  0.2381
  468MOL0     H64553  12.916   6.469   8.924  2.4104  0.2498 -0.5675
  468MOL0     H64554  13.059   6.635   9.000  0.4541 -0.8273 -0.4022
  468MOL0     H64555  12.988   6.768   8.899 -0.5821 -0.2078 -0.5968
  468MOL0     H64556  13.088   6.511   8.773 -1.7413 -0.6985  0.3352
  468MOL0     H64557  13.020   6.659   8.704 -0.7199 -2.0779 -0.2047
  468MOL0     H64558  13.243   6.755   8.847  1.9893 -1.4635  1.4420
  468MOL0     H64559  13.259   6.701   8.680 -0.6148 -0.0378 -0.3412
  468MOL0     H64560  13.309   6.521   8.925 -0.0574 -0.3235  0.9395
  468MOL0     H64561  13.411   6.640   8.848 -3.5696  2.8347  0.1843
  468MOL0     H64562  13.411   6.513   8.630 -0.7749  0.0397 -0.2137
  468MOL0     H64563  13.275   6.413   8.695  1.8428 -3.4373  0.1151
  468MOL0     H64564  12.410   6.392   8.831  0.3793 -0.2390 -2.5756
  468MOL0     H64565  12.285   6.185   8.830 -1.3674 -0.1266  3.8616
  468MOL0     H64566  12.011   5.850   8.993  2.5161  2.3021  0.7438
  468MOL0     H64567  11.927   5.615   9.018 -0.1322  1.6062  0.7136
  468MOL0     H64568  10.501   5.681   8.347  0.5064 -0.7582  1.2835
  468MOL0     H64569  10.351   5.833   8.208 -3.1266  2.2948 -0.3399
  468MOL0     H64570   9.944   5.845   7.980  0.4246  0.6517 -0.9860
  468MOL0     H64571   9.782   5.961   7.844  1.2832 -1.4009 -0.5196
  468MOL0     H64572   9.874   6.389   7.773  0.8355 -2.2338  2.3854
  468MOL0     H64573   9.722   6.382   7.685 -0.9387  2.1233  2.2084
  468MOL0     H64574   9.724   6.536   7.884  2.6129 -0.0610 -2.1154
  468MOL0     H64575   9.724   6.400   7.993  2.6463  1.0948  0.3010
  468MOL0     H64576   9.492   6.423   7.791  0.6051  0.5802  0.3132
  468MOL0     H64577   9.535   6.297   7.907  0.9001  0.6733  0.9036
  468MOL0     H64578   9.498   6.451   8.108 -2.5663 -1.3614  0.5313
  468MOL0     H64579   9.368   6.433   8.002 -0.3012  3.1564  2.3613
  468MOL0     H64580   9.431   6.833   7.916 -3.1153 -0.4757 -1.1599
  468MOL0     H64581   9.958   6.329   7.957 -1.4037 -0.0827 -3.6639
  468MOL0     H64582  10.190   6.229   8.159 -0.3381 -1.9528 -0.9891
  468MOL0     H64583  10.074   6.362   8.146  1.0362 -0.2799  0.1638
  468MOL0     H64584  10.054   6.244   8.280  1.7366 -2.2304 -0.0970
  469MOL0     O64585   9.677   0.740   9.920  0.5762  0.2818 -1.3609
  469MOL0     C64586   9.622   0.754  10.032  0.5524 -0.3687 -0.5882
  469MOL0     O64587   9.685   0.787  10.148 -0.0414 -0.3380 -0.2578
  469MOL0     C64588   9.821   0.811  10.136  0.3028 -0.0734  0.6583
  469MOL0     C64589   9.880   0.918  10.062 -0.0075  0.1889 -0.2014
  469MOL0     C64590  10.018   0.930  10.055  0.5122  0.6464 -0.2625
  469MOL0     C64591  10.105   0.852  10.134  0.8570  0.6586  0.0020
  469MOL0     O64592  10.244   0.881  10.137 -0.6594  0.4676  0.3549
  469MOL0     C64593  10.280   0.987  10.232  0.9666  0.4882  0.4034
  469MOL0     C64594  10.431   0.965  10.266 -0.1438  0.2798 -0.0202
  469MOL0     C64595  10.502   1.065  10.351  0.2799  0.0122  0.9496
  469MOL0     C64596  10.648   1.077  10.295  0.5074  0.5153  0.2579
  469MOL0     C64597  10.700   1.222  10.324 -0.0662 -0.9704  0.7097
  469MOL0     C64598  10.850   1.251  10.290 -0.3693 -0.0455  0.0818
  469MOL0     C64599  10.945   1.143  10.338  0.1876  0.5010  0.0283
  469MOL0     C64600  11.068   1.192  10.415  0.4367 -0.3700 -0.0241
  469MOL0     N64601  11.173   1.085  10.418 -0.3136  0.5249 -0.2164
  469MOL0     C64602  11.124   0.950  10.420 -0.2314 -0.7573 -0.2127
  469MOL0     C64603  11.243   0.887  10.393  0.5393  0.4647  0.1345
  469MOL0     C64604  11.271   0.740  10.381 -0.3187 -0.0528  0.1991
  469MOL0     C64605  11.200   0.696  10.244  0.4311  0.3750 -0.8145
  469MOL0     C64606  11.197   0.540  10.235  0.7317  0.5710  0.2851
  469MOL0     C64607  11.154   0.483  10.100  0.4035  0.5230 -0.5301
  469MOL0     O64608  11.176   0.339  10.109 -0.3697 -0.5302  0.4316
  469MOL0     C64609  11.307   0.302  10.135 -0.0412  0.6096 -0.6909
  469MOL0     C64610  11.412   0.319  10.052 -0.0096  0.4239 -0.1036
  469MOL0     C64611  11.544   0.274  10.094 -0.0022 -0.0224  0.3262
  469MOL0     C64612  11.655   0.297   9.999  0.3458 -0.3060  0.4280
  469MOL0     C64613  11.558   0.206  10.219 -0.8887 -0.0662 -0.3099
  469MOL0     C64614  11.691   0.168  10.279  0.2432  0.0670 -0.8606
  469MOL0     O64615  11.680   0.092  10.388 -0.5674  0.2604 -0.4602
  469MOL0     C64616  11.800   0.065  10.446 -0.3502 -0.4861 -0.1592
  469MOL0     C64617  11.896  -0.012  10.386  0.0015  0.4197 -0.2481
  469MOL0     C64618  12.023  -0.042  10.444 -0.1436  0.0462  0.5598
  469MOL0     C64619  12.064   0.032  10.551 -0.0855  0.3844  0.0561
  469MOL0     O64620  12.191   0.003  10.579 -0.1245 -0.2323 -0.5796
  469MOL0     C64621  12.268   0.096  10.654  0.3708 -0.4804 -0.1068
  469MOL0     C64622  12.415   0.089  10.633 -0.3768 -0.1709 -0.2859
  469MOL0     C64623  12.482  -0.025  10.714 -0.1577 -0.0586  0.4284
  469MOL0     C64624  12.594  -0.091  10.638 -0.3378  0.7846 -0.7435
  469MOL0     C64625  12.682  -0.190  10.717  0.0477 -0.2352 -0.9974
  469MOL0     C64626  12.755  -0.130  10.846  0.5990 -0.0534 -0.1762
  469MOL0     C64627  12.838   0.001  10.811  0.8071  0.1511 -0.5873
  469MOL0     C64628  12.947  -0.024  10.716  0.1132  0.0076 -0.0200
  469MOL0    Cl64629  13.052  -0.151  10.777 -0.2802  0.0166 -0.0922
  469MOL0     C64630  11.971   0.119  10.611  0.6219 -0.0149 -0.5970
  469MOL0     C64631  11.834   0.131  10.569 -0.4640 -0.0668 -1.2548
  469MOL0     O64632  11.796   0.213  10.232  0.4075  0.5611  0.1726
  469MOL0     C64633  11.446   0.194  10.305  0.0174 -0.5646  0.5922
  469MOL0     C64634  11.327   0.250  10.266  0.2812 -0.5617 -0.1913
  469MOL0     N64635  11.336   0.974  10.357  0.1434 -0.2996 -0.4361
  469MOL0     N64636  11.296   1.095  10.360 -0.2539 -0.2408 -0.4176
  469MOL0     C64637  10.044   0.750  10.208 -0.6536  0.8907 -0.6249
  469MOL0     C64638   9.906   0.733  10.214 -0.4543 -1.6112 -0.3963
  469MOL0     C64639   9.478   0.718  10.036 -0.0776  0.6749  0.5500
  469MOL0     C64640   9.403   0.746  10.153  0.3052 -0.4942  1.2654
  469MOL0     C64641   9.263   0.724  10.159  0.1403  0.7376  0.8363
  469MOL0     C64642   9.196   0.669  10.049 -0.6412  1.2458  0.3328
  469MOL0     O64643   9.067   0.642  10.068 -0.2094 -0.1304 -0.2294
  469MOL0     C64644   8.989   0.578   9.952 -0.1178 -0.1061 -0.3543
  469MOL0     C64645   8.866   0.501  10.014  0.2487 -0.3898  0.0510
  469MOL0     C64646   8.752   0.591  10.066  0.1562 -0.2400  0.8219
  469MOL0     C64647   8.662   0.523  10.174  0.5803 -0.6719 -0.5926
  469MOL0     C64648   8.738   0.501  10.301  0.3608  0.4324 -0.7666
  469MOL0     C64649   8.801   0.470  10.401 -0.3264 -0.9958 -0.3267
  469MOL0     C64650   9.269   0.641   9.934  0.5332  0.0852  0.3903
  469MOL0     C64651   9.405   0.665   9.916  0.0360  0.0682  0.6031
  469MOL0     C64652   9.480   0.625   9.790  1.0908  0.0541  0.7027
  469MOL0     H64653   9.820   0.982   9.998  0.4036 -1.0705 -1.9297
  469MOL0     H64654  10.056   0.999   9.980  0.4510  2.9384  1.6712
  469MOL0     H64655  10.219   0.996  10.322 -1.5041  1.7494 -1.2516
  469MOL0     H64656  10.273   1.082  10.177  0.3391 -0.3782 -1.0900
  469MOL0     H64657  10.448   0.870  10.317 -0.2883 -0.0192 -0.5235
  469MOL0     H64658  10.477   0.956  10.167  0.1197  0.0405  0.1215
  469MOL0     H64659  10.447   1.157  10.330  1.0700  1.3431  4.1573
  469MOL0     H64660  10.508   1.043  10.458 -0.1443 -0.6137  0.8494
  469MOL0     H64661  10.713   1.000  10.337 -0.7236  0.1221  1.5311
  469MOL0     H64662  10.650   1.074  10.186  0.6542  3.0809  0.1217
  469MOL0     H64663  10.682   1.251  10.428 -1.0906 -1.2906  0.6349
  469MOL0     H64664  10.644   1.291  10.261  2.2028  1.4426  1.2016
  469MOL0     H64665  10.875   1.258  10.183 -1.7783  0.4070 -0.2452
  469MOL0     H64666  10.879   1.344  10.338  2.0927  0.1639 -1.6156
  469MOL0     H64667  10.971   1.079  10.253  0.3311  0.5662  0.0239
  469MOL0     H64668  10.890   1.080  10.408 -1.7427  2.6270  0.5653
  469MOL0     H64669  11.120   1.279  10.374  0.8041 -0.9369 -0.8036
  469MOL0     H64670  11.037   1.233  10.511  1.3810  1.2625 -0.3762
  469MOL0     H64671  11.023   0.915  10.441 -0.8580  0.2594 -1.3971
  469MOL0     H64672  11.233   0.687  10.469 -0.6239 -0.5519 -0.2261
  469MOL0     H64673  11.378   0.722  10.370 -0.3932 -2.4705  2.4999
  469MOL0     H64674  11.097   0.735  10.242  0.6614  1.3628  1.7602
  469MOL0     H64675  11.269   0.731  10.167 -1.4805 -1.3302 -3.4858
  469MOL0     H64676  11.302   0.510  10.240  0.5591  0.0418  0.7543
  469MOL0     H64677  11.135   0.498  10.314  2.1569  1.5890  2.0055
  469MOL0     H64678  11.050   0.515  10.088 -0.0190 -0.6966 -0.2386
  469MOL0     H64679  11.213   0.521  10.017  1.1293  0.6021  0.0151
  469MOL0     H64680  11.402   0.352   9.949 -3.1244 -0.1428 -0.0820
  469MOL0     H64681  11.697   0.199   9.977  0.0614 -1.1222  3.1517
  469MOL0     H64682  11.723   0.364  10.054  1.3186 -2.0851  1.5004
  469MOL0     H64683  11.624   0.344   9.906 -0.4005  0.7917  1.2009
  469MOL0     H64684  11.863  -0.059  10.293  1.6861 -0.4246 -0.4567
  469MOL0     H64685  12.094  -0.112  10.400  0.6463  0.9209  0.4272
  469MOL0     H64686  12.235   0.197  10.625 -0.9839 -0.6266  0.8360
  469MOL0     H64687  12.247   0.088  10.761  3.5211 -2.6717  0.4864
  469MOL0     H64688  12.444   0.073  10.528 -2.2597  3.4622 -1.5453
  469MOL0     H64689  12.471   0.180  10.656 -0.6319 -0.3300  1.0468
  469MOL0     H64690  12.412  -0.105  10.738 -0.0532 -0.0319  0.8359
  469MOL0     H64691  12.516   0.022  10.807 -0.1308  1.2428 -0.2195
  469MOL0     H64692  12.662  -0.016  10.596  0.3637  0.4702 -0.1942
  469MOL0     H64693  12.558  -0.143  10.549 -2.4480  0.7458  0.0749
  469MOL0     H64694  12.622  -0.279  10.740 -0.5191 -0.0038 -1.5592
  469MOL0     H64695  12.764  -0.223  10.653  1.9950 -0.8174  1.6015
  469MOL0     H64696  12.830  -0.199  10.886  0.2600 -0.6322 -0.5260
  469MOL0     H64697  12.669  -0.110  10.910 -0.9769  1.0178 -2.4630
  469MOL0     H64698  12.864   0.055  10.902 -1.7321  1.6660 -0.6710
  469MOL0     H64699  12.771   0.072  10.762  0.8371 -0.7909 -2.0457
  469MOL0     H64700  13.015   0.061  10.717  2.2447 -1.4478  4.0673
  469MOL0     H64701  12.913  -0.044  10.614 -0.3600 -2.3613  0.5473
  469MOL0     H64702  11.996   0.169  10.704 -0.5457 -2.7235  1.3078
  469MOL0     H64703  11.765   0.192  10.627  1.4503 -0.2788  1.4426
  469MOL0     H64704  11.451   0.151  10.405 -2.1965  1.7159  1.7806
  469MOL0     H64705  11.243   0.239  10.334  0.0837  2.6422  0.2177
  469MOL0     H64706  10.104   0.681  10.266  0.2129  0.8398 -1.5452
  469MOL0     H64707   9.856   0.661  10.277  0.7742 -0.3594  2.1852
  469MOL0     H64708   9.445   0.790  10.242 -0.2273  0.4104  1.0823
  469MOL0     H64709   9.209   0.750  10.249 -1.4532 -0.9921  0.4325
  469MOL0     H64710   8.942   0.662   9.900  0.5976  0.4555 -0.1093
  469MOL0     H64711   9.032   0.507   9.881  1.6787 -0.9504  1.4707
  469MOL0     H64712   8.909   0.433  10.088  3.0367 -0.4678 -1.4634
  469MOL0     H64713   8.815   0.430   9.949 -0.6247  0.5625 -0.3320
  469MOL0     H64714   8.787   0.681  10.117 -0.7565  0.7590 -0.2510
  469MOL0     H64715   8.691   0.631   9.984  1.3841  1.8748  0.8529
  469MOL0     H64716   8.630   0.424  10.142 -0.1035 -0.3611 -0.8864
  469MOL0     H64717   8.577   0.584  10.205  2.9345  1.5687  2.0970
  469MOL0     H64718   8.832   0.446  10.501  0.0146 -1.0373 -0.4420
  469MOL0     H64719   9.219   0.602   9.846  0.4516 -0.5080  0.6918
  469MOL0     H64720   9.525   0.708   9.735  2.3811 -2.2434 -1.9691
  469MOL0     H64721   9.559   0.553   9.813  0.9577 -1.4341 -2.8130
  469MOL0     H64722   9.423   0.565   9.718  0.3825 -0.3906  1.6021
  470MOL0     O64723   4.196   0.319   2.300 -0.3808  0.0154  0.0521
  470MOL0     C64724   4.106   0.249   2.339  0.3272 -0.1866  0.2596
  470MOL0     O64725   4.119   0.149   2.427 -0.3723 -0.5057  0.1248
  470MOL0     C64726   4.245   0.114   2.476 -0.0557  0.2856  0.3487
  470MOL0     C64727   4.294  -0.011   2.442  0.2172  0.3914 -0.0627
  470MOL0     C64728   4.421  -0.051   2.479 -0.0710  0.2261  0.5801
  470MOL0     C64729   4.503   0.042   2.547  0.2504  0.1728 -0.2227
  470MOL0     O64730   4.627   0.011   2.602 -0.0167 -0.3219 -0.6775
  470MOL0     C64731   4.689  -0.123   2.581  0.6100  0.0008  0.3316
  470MOL0     C64732   4.739  -0.165   2.719  0.2559  0.4737  0.3766
  470MOL0     C64733   4.842  -0.070   2.774 -0.6186 -0.3157 -1.0065
  470MOL0     C64734   4.930  -0.148   2.878  0.8599  0.0017  0.3205
  470MOL0     C64735   5.017  -0.040   2.950  0.3890 -0.0243  0.7625
  470MOL0     C64736   5.078  -0.097   3.080 -0.2764 -0.4777 -1.1303
  470MOL0     C64737   5.146   0.019   3.153 -0.7285  0.1224  0.5351
  470MOL0     C64738   5.175  -0.046   3.287  0.6504 -0.0621  0.2267
  470MOL0     N64739   5.232   0.047   3.382  0.6314 -0.5503 -0.1508
  470MOL0     C64740   5.335   0.130   3.357 -0.3634 -0.3078 -0.1235
  470MOL0     C64741   5.335   0.214   3.463 -0.1620  0.2383 -0.5582
  470MOL0     C64742   5.422   0.331   3.479 -0.3256 -0.7423 -0.1974
  470MOL0     C64743   5.521   0.340   3.602 -0.7522  0.5067 -0.2966
  470MOL0     C64744   5.580   0.210   3.659  0.1774 -0.1000 -0.0765
  470MOL0     C64745   5.663   0.234   3.790  0.0015  0.5254 -1.4164
  470MOL0     O64746   5.761   0.336   3.783 -0.2372  0.8044 -0.0986
  470MOL0     C64747   5.857   0.343   3.873 -0.1422 -0.5993 -0.0206
  470MOL0     C64748   5.856   0.273   3.995 -0.7636 -0.0214 -0.3296
  470MOL0     C64749   5.955   0.293   4.093 -0.3383  0.2280 -0.2233
  470MOL0     C64750   5.939   0.201   4.216  0.2489  0.0698 -0.6839
  470MOL0     C64751   6.065   0.373   4.063 -0.1286 -0.1067 -0.0803
  470MOL0     C64752   6.188   0.397   4.144  0.2314 -0.1848 -1.5792
  470MOL0     O64753   6.294   0.465   4.095  0.2668 -0.3014  0.7337
  470MOL0     C64754   6.379   0.515   4.189  0.2180  0.6663 -0.1191
  470MOL0     C64755   6.339   0.612   4.281 -0.1805  0.1626 -0.8269
  470MOL0     C64756   6.424   0.658   4.376  0.1073  0.0539 -0.5790
  470MOL0     C64757   6.557   0.632   4.371  0.0782 -0.5280 -0.3200
  470MOL0     O64758   6.634   0.687   4.467 -0.0873  0.0417  0.0196
  470MOL0     C64759   6.749   0.605   4.500 -1.0274 -0.1436 -0.1430
  470MOL0     C64760   6.810   0.636   4.637 -0.1466  0.3199 -0.8169
  470MOL0     C64761   6.921   0.532   4.668 -0.0632 -0.0624 -0.2768
  470MOL0     C64762   6.979   0.537   4.810 -0.1508 -0.6752 -0.4525
  470MOL0     C64763   7.027   0.667   4.859 -0.5552  0.3661 -0.3138
  470MOL0     C64764   7.123   0.652   4.989  0.0550  0.9126 -0.2522
  470MOL0     C64765   7.045   0.581   5.100 -0.2697 -0.5015  0.4355
  470MOL0     C64766   7.118   0.591   5.238  0.6654  0.2116 -0.0760
  470MOL0    Cl64767   7.286   0.523   5.225 -0.4747 -0.1213  0.5546
  470MOL0     C64768   6.602   0.555   4.265  0.5121  0.0292  0.1833
  470MOL0     C64769   6.517   0.473   4.180  0.2419 -0.8444 -0.8155
  470MOL0     O64770   6.168   0.376   4.264 -0.0086 -0.2427  0.3811
  470MOL0     C64771   6.058   0.451   3.947 -0.1040  0.3871  0.0888
  470MOL0     C64772   5.955   0.436   3.854 -0.1969 -0.0774  0.2819
  470MOL0     N64773   5.226   0.184   3.545 -0.5858  0.6569 -0.2121
  470MOL0     N64774   5.164   0.084   3.493 -0.1387 -1.3933  0.2664
  470MOL0     C64775   4.449   0.172   2.583  0.4471 -0.0238  0.2399
  470MOL0     C64776   4.317   0.209   2.542  0.5013  0.7385 -0.3800
  470MOL0     C64777   3.972   0.250   2.272 -0.5582  0.5426 -0.1355
  470MOL0     C64778   3.855   0.213   2.348 -0.1912 -0.1632 -0.0931
  470MOL0     C64779   3.733   0.202   2.285  0.5528  0.0665  0.5660
  470MOL0     C64780   3.726   0.234   2.149 -0.2504 -0.9030  0.2478
  470MOL0     O64781   3.599   0.231   2.092  0.1653  0.1133  0.8474
  470MOL0     C64782   3.565   0.343   2.001  0.5021 -0.0707  0.7151
  470MOL0     C64783   3.405   0.340   1.987 -0.6132 -0.5566 -0.2900
  470MOL0     C64784   3.334   0.396   2.117  0.5669 -0.7497  0.3585
  470MOL0     C64785   3.221   0.301   2.171 -0.2194 -0.1603 -0.4555
  470MOL0     C64786   3.139   0.343   2.291  0.6964 -0.2266 -0.3742
  470MOL0     C64787   3.077   0.383   2.393 -0.4470  0.0205 -0.3425
  470MOL0     C64788   3.838   0.254   2.072  0.2806  0.3932 -1.2859
  470MOL0     C64789   3.963   0.263   2.133 -0.2102  0.3251  0.0057
  470MOL0     C64790   4.072   0.270   2.030 -1.1117  0.5005 -0.0536
  470MOL0     H64791   4.228  -0.087   2.403  3.9233 -2.9856 -0.4626
  470MOL0     H64792   4.467  -0.148   2.458  1.8674  0.6980  2.2765
  470MOL0     H64793   4.778  -0.110   2.519 -0.4753  1.2102 -1.0181
  470MOL0     H64794   4.632  -0.205   2.537 -0.3773 -0.9558  3.1403
  470MOL0     H64795   4.649  -0.152   2.780 -0.5083  0.8774 -0.7972
  470MOL0     H64796   4.770  -0.270   2.723  1.8139  0.9320  0.8600
  470MOL0     H64797   4.916  -0.034   2.702 -2.4845  2.2150 -1.8089
  470MOL0     H64798   4.797   0.017   2.822 -0.2249 -0.1806 -0.8838
  470MOL0     H64799   4.860  -0.196   2.946 -0.6655  2.1724  0.3927
  470MOL0     H64800   4.988  -0.222   2.823 -0.7871  0.2095 -1.8063
  470MOL0     H64801   4.959   0.049   2.975  1.4417  1.9220 -3.1273
  470MOL0     H64802   5.100  -0.020   2.883  1.2964 -2.1918  1.1398
  470MOL0     H64803   4.995  -0.140   3.137  0.1504  2.1295  1.6596
  470MOL0     H64804   5.146  -0.180   3.062  1.5854  0.4071  1.3217
  470MOL0     H64805   5.080   0.105   3.168 -0.3404  0.0419  3.1816
  470MOL0     H64806   5.239   0.041   3.101 -1.2694  1.8585  0.2183
  470MOL0     H64807   5.075  -0.073   3.323  0.6173 -3.2587 -1.8643
  470MOL0     H64808   5.231  -0.139   3.275 -0.5296 -0.5936 -1.5713
  470MOL0     H64809   5.394   0.128   3.266 -2.1680 -2.6556 -1.3213
  470MOL0     H64810   5.372   0.428   3.477 -1.3445 -1.2586  0.0009
  470MOL0     H64811   5.488   0.336   3.392  0.9367 -0.0903  0.7470
  470MOL0     H64812   5.608   0.401   3.576  0.9876 -2.2752 -1.5006
  470MOL0     H64813   5.460   0.375   3.686 -1.9217 -0.5769 -0.6492
  470MOL0     H64814   5.505   0.130   3.658  0.5708 -0.7848  4.2708
  470MOL0     H64815   5.650   0.177   3.583  0.1123 -3.9267  1.2875
  470MOL0     H64816   5.591   0.265   3.866 -1.4066  0.2176 -2.5755
  470MOL0     H64817   5.713   0.139   3.813 -1.2969  0.0708 -0.3485
  470MOL0     H64818   5.780   0.201   4.024 -2.5232  3.0509  3.6464
  470MOL0     H64819   5.923   0.261   4.306 -1.8602  1.1849 -1.7204
  470MOL0     H64820   6.025   0.134   4.221 -0.2201 -0.7101 -2.3633
  470MOL0     H64821   5.851   0.138   4.201  0.4850  0.1507 -2.6488
  470MOL0     H64822   6.232   0.627   4.278 -0.6772 -2.4818  0.3350
  470MOL0     H64823   6.377   0.737   4.434  0.7173  0.0821 -0.1045
  470MOL0     H64824   6.708   0.504   4.504 -0.5000 -0.3281  1.0842
  470MOL0     H64825   6.826   0.621   4.424 -1.7066  2.1021 -0.4370
  470MOL0     H64826   6.857   0.734   4.629  0.5915  0.1048  0.5558
  470MOL0     H64827   6.734   0.636   4.715 -0.6317 -2.9331 -1.1413
  470MOL0     H64828   7.005   0.571   4.610  0.4676  4.2489  2.9236
  470MOL0     H64829   6.895   0.427   4.652  1.6464 -0.5129 -0.2050
  470MOL0     H64830   7.059   0.462   4.820 -0.6593 -0.9681  2.0377
  470MOL0     H64831   6.896   0.502   4.871 -1.8349 -1.8820 -3.2347
  470MOL0     H64832   7.091   0.710   4.781  3.0674  0.1468  2.2819
  470MOL0     H64833   6.946   0.739   4.878 -0.6777  0.6253 -1.7200
  470MOL0     H64834   7.161   0.746   5.028 -1.0968  1.6661 -0.8893
  470MOL0     H64835   7.202   0.586   4.951  0.0370 -0.3891  1.8334
  470MOL0     H64836   7.034   0.474   5.078 -1.4529 -0.7270  1.9657
  470MOL0     H64837   6.945   0.624   5.110 -2.1586 -4.6990  1.9705
  470MOL0     H64838   7.052   0.526   5.296  0.6619 -1.4820 -1.8591
  470MOL0     H64839   7.121   0.693   5.277  1.1899 -0.2034  1.0343
  470MOL0     H64840   6.709   0.544   4.249  0.6181  2.2755 -1.0615
  470MOL0     H64841   6.557   0.399   4.112 -0.4494 -0.2983 -1.8394
  470MOL0     H64842   6.135   0.523   3.922  0.5284 -0.4243 -0.3349
  470MOL0     H64843   5.957   0.507   3.773 -2.4547 -0.4858 -0.2080
  470MOL0     H64844   4.513   0.242   2.635 -2.0873  1.5545  1.4226
  470MOL0     H64845   4.280   0.310   2.559  1.8537  1.1839  0.0396
  470MOL0     H64846   3.867   0.181   2.451  1.2862  0.9156  0.1132
  470MOL0     H64847   3.646   0.172   2.343  1.9683  0.3069  2.9663
  470MOL0     H64848   3.603   0.444   2.021 -0.5930  1.5858 -4.2362
  470MOL0     H64849   3.613   0.306   1.911  0.7540 -0.0665  0.8473
  470MOL0     H64850   3.361   0.246   1.952 -1.5906 -0.5797  0.9416
  470MOL0     H64851   3.388   0.423   1.919  0.4290 -1.8281 -2.2048
  470MOL0     H64852   3.418   0.414   2.185  1.6902 -1.8813 -0.6588
  470MOL0     H64853   3.288   0.495   2.103 -0.3707 -1.1053  0.8900
  470MOL0     H64854   3.265   0.205   2.202 -1.4494 -0.6723 -0.2500
  470MOL0     H64855   3.157   0.267   2.089  1.7093 -0.5749 -1.8723
  470MOL0     H64856   3.042   0.428   2.483 -0.7524 -0.3754 -0.2601
  470MOL0     H64857   3.824   0.244   1.965 -0.1584  0.8376 -1.2694
  470MOL0     H64858   4.154   0.207   2.066 -0.6609  1.3522  0.4222
  470MOL0     H64859   4.039   0.234   1.932 -1.1983  1.5790 -0.4283
  470MOL0     H64860   4.106   0.373   2.017  1.2946 -0.0387  1.3538
  471MOL0     O64861   6.099   5.270  10.014 -0.3399 -0.8316 -0.1795
  471MOL0     C64862   6.098   5.152  10.040 -0.4511 -0.2625 -0.5668
  471MOL0     O64863   5.989   5.088  10.096 -0.4259  0.6199  0.3371
  471MOL0     C64864   5.861   5.147  10.076  0.8931  0.4837 -0.1781
  471MOL0     C64865   5.831   5.277  10.118 -0.6231 -0.0167  0.9970
  471MOL0     C64866   5.698   5.332  10.094 -0.4028 -0.0561 -0.6497
  471MOL0     C64867   5.607   5.262  10.023 -0.3422  0.2853 -0.8795
  471MOL0     O64868   5.473   5.306  10.009  0.2645 -0.4097 -0.4072
  471MOL0     C64869   5.436   5.444  10.050 -0.0766  0.1315 -0.3804
  471MOL0     C64870   5.304   5.475   9.985  0.2156 -0.0519 -0.7168
  471MOL0     C64871   5.189   5.384  10.026  0.7004  0.1482 -0.8942
  471MOL0     C64872   5.073   5.382   9.924 -0.4463 -1.5417 -0.0486
  471MOL0     C64873   4.985   5.275   9.976  0.4589  0.0800 -0.0726
  471MOL0     C64874   4.856   5.275   9.890 -0.5707 -0.3497 -0.2584
  471MOL0     C64875   4.770   5.152   9.893 -0.0059 -0.4446  0.7869
  471MOL0     C64876   4.648   5.172   9.794  0.7607 -0.4245 -0.0658
  471MOL0     N64877   4.561   5.283   9.838  0.0537  0.2761 -0.2295
  471MOL0     C64878   4.565   5.406   9.777  0.1213 -0.0420 -0.8977
  471MOL0     C64879   4.479   5.486   9.845  0.2118  0.4320 -0.1470
  471MOL0     C64880   4.453   5.636   9.825  0.1634 -0.9998 -0.4770
  471MOL0     C64881   4.526   5.727   9.928 -0.6554 -0.3503 -0.3457
  471MOL0     C64882   4.454   5.858   9.931  0.1703  0.1636 -0.2395
  471MOL0     C64883   4.555   5.966   9.966 -0.0511  0.2974  0.5279
  471MOL0     O64884   4.630   6.018   9.856 -0.2446 -0.5103 -0.3725
  471MOL0     C64885   4.752   6.076   9.893  0.1381  0.2604 -0.7097
  471MOL0     C64886   4.758   6.210   9.939  0.1317  0.4983 -0.2153
  471MOL0     C64887   4.880   6.262   9.978  0.3978 -0.1301 -0.0712
  471MOL0     C64888   4.870   6.393  10.042 -0.3901 -0.6595 -1.2557
  471MOL0     C64889   5.004   6.183   9.980 -0.6884 -0.5599  0.6422
  471MOL0     C64890   5.145   6.236  10.017  0.0375 -0.5165 -0.1935
  471MOL0     O64891   5.248   6.148  10.010  0.1308 -0.3465  0.2248
  471MOL0     C64892   5.375   6.194  10.050  0.5784 -0.3416  0.6991
  471MOL0     C64893   5.447   6.269   9.965 -0.3728 -0.3892 -0.1147
  471MOL0     C64894   5.571   6.318   9.994 -0.5648  0.8711 -0.8008
  471MOL0     C64895   5.621   6.298  10.119 -0.1949 -0.1071  0.0545
  471MOL0     O64896   5.746   6.354  10.153 -0.6574 -0.0798  0.8102
  471MOL0     C64897   5.856   6.362  10.057 -0.2103 -0.2690 -0.1529
  471MOL0     C64898   5.917   6.226  10.011 -0.0642  0.0599 -0.1287
  471MOL0     C64899   5.929   6.128  10.125 -0.5639  0.4843 -0.3326
  471MOL0     C64900   6.047   6.166  10.225 -0.4017 -0.3864 -0.0359
  471MOL0     C64901   6.090   6.049  10.313 -0.0194 -0.3597 -0.5481
  471MOL0     C64902   6.204   6.094  10.396  0.6175  0.1393 -0.1540
  471MOL0     C64903   6.232   5.991  10.510  0.0817  0.3485  0.0994
  471MOL0     C64904   6.384   5.993  10.544  0.1710 -0.1730  0.4134
  471MOL0    Cl64905   6.435   6.165  10.571 -0.4343  0.1183  0.2568
  471MOL0     C64906   5.557   6.212  10.205  0.4330  0.7614 -0.0997
  471MOL0     C64907   5.433   6.158  10.170 -0.3678  0.2056  0.1526
  471MOL0     O64908   5.152   6.346  10.063 -0.4675 -0.2006  0.1328
  471MOL0     C64909   4.987   6.054   9.928 -0.3709 -0.1409 -1.0239
  471MOL0     C64910   4.870   6.001   9.889  0.2209 -0.3075  1.4517
  471MOL0     N64911   4.411   5.397   9.933  0.4392  0.2684  0.0572
  471MOL0     N64912   4.460   5.280   9.926 -0.2428  0.1766  0.1596
  471MOL0     C64913   5.642   5.133   9.986  1.2205  0.5061 -1.4335
  471MOL0     C64914   5.760   5.066  10.023  0.1535 -0.2754 -0.2232
  471MOL0     C64915   6.227   5.078  10.016 -0.7041 -0.3109 -0.1028
  471MOL0     C64916   6.313   5.134   9.922 -0.0443 -0.7963  0.3562
  471MOL0     C64917   6.439   5.076   9.897 -0.1814  0.5256  0.4192
  471MOL0     C64918   6.480   4.954   9.956 -0.3825  0.1055  0.4612
  471MOL0     O64919   6.603   4.902   9.913 -0.0535  0.5698  0.5361
  471MOL0     C64920   6.647   4.773   9.956 -0.2006  0.0571  0.0760
  471MOL0     C64921   6.800   4.775   9.976  0.0639 -0.0841 -0.2104
  471MOL0     C64922   6.877   4.817   9.848  0.3341  0.6804  0.6630
  471MOL0     C64923   7.030   4.794   9.872  0.7804  0.7653  0.3356
  471MOL0     C64924   7.078   4.884   9.980  0.3038 -0.1418  0.3453
  471MOL0     C64925   7.111   4.960  10.064  0.1420  0.0277 -0.0163
  471MOL0     C64926   6.392   4.896  10.052  0.0306  0.1114  0.1885
  471MOL0     C64927   6.279   4.966  10.088 -0.1284 -0.3727  1.0781
  471MOL0     C64928   6.200   4.893  10.199  0.1175 -0.3997 -0.4898
  471MOL0     H64929   5.919   5.326  10.158  0.1294 -1.1538  0.7737
  471MOL0     H64930   5.682   5.434  10.126 -2.1219 -0.9233  1.5219
  471MOL0     H64931   5.509   5.524  10.033 -0.6439  1.2957  2.2104
  471MOL0     H64932   5.421   5.439  10.158 -3.9979  0.4112 -0.7364
  471MOL0     H64933   5.276   5.572  10.027 -1.5223 -0.0041 -1.8648
  471MOL0     H64934   5.301   5.487   9.877 -1.0036  2.5185 -0.4901
  471MOL0     H64935   5.226   5.281  10.033  2.0465  0.3633 -3.5638
  471MOL0     H64936   5.162   5.401  10.131  0.8326 -0.4300 -0.7579
  471MOL0     H64937   5.027   5.481   9.924 -2.2973 -2.1672  4.1605
  471MOL0     H64938   5.119   5.368   9.826 -0.8141  0.6410 -0.5890
  471MOL0     H64939   4.956   5.295  10.079 -0.3838 -0.4706 -0.1906
  471MOL0     H64940   5.034   5.178   9.965  0.4463  0.2975 -2.8578
  471MOL0     H64941   4.798   5.351   9.942 -0.2961  0.5090 -1.1694
  471MOL0     H64942   4.882   5.311   9.790  0.3800  0.2651  0.2046
  471MOL0     H64943   4.728   5.133   9.992 -1.9306 -1.0058 -0.0815
  471MOL0     H64944   4.827   5.062   9.869  2.5392  0.4374  3.0800
  471MOL0     H64945   4.681   5.183   9.690  0.7643 -1.9890 -0.2451
  471MOL0     H64946   4.591   5.079   9.793 -0.3142  0.2249 -1.1833
  471MOL0     H64947   4.625   5.440   9.693  0.4890  0.9437 -0.2644
  471MOL0     H64948   4.344   5.639   9.832 -0.0926  2.5257 -2.9386
  471MOL0     H64949   4.474   5.671   9.723  1.3691  0.8062  0.3416
  471MOL0     H64950   4.530   5.688  10.030  1.3757 -0.5737 -0.4703
  471MOL0     H64951   4.626   5.750   9.889 -0.5604  0.6224  0.4274
  471MOL0     H64952   4.388   5.884   9.847 -0.6334  1.2204  0.6950
  471MOL0     H64953   4.391   5.858  10.020  0.3158  0.5846 -0.1329
  471MOL0     H64954   4.504   6.048  10.018  0.5199  1.2013 -0.3091
  471MOL0     H64955   4.628   5.918  10.032  0.5858 -2.6631 -2.0838
  471MOL0     H64956   4.668   6.270   9.940  0.2036  0.6455  1.8471
  471MOL0     H64957   4.767   6.428  10.050 -0.2272 -0.6439  2.7485
  471MOL0     H64958   4.930   6.464   9.985  0.0008 -1.0160 -1.2981
  471MOL0     H64959   4.909   6.385  10.144 -0.2392 -3.4911 -1.4436
  471MOL0     H64960   5.414   6.292   9.864  0.7522  1.3536 -0.1421
  471MOL0     H64961   5.625   6.386   9.929 -1.1350  3.1794  1.0039
  471MOL0     H64962   5.824   6.409   9.964 -1.6384 -1.6444 -0.4062
  471MOL0     H64963   5.935   6.422  10.104 -0.4160 -1.6708  2.1391
  471MOL0     H64964   5.852   6.178   9.937 -3.7394  3.7513  0.3572
  471MOL0     H64965   6.014   6.253   9.968 -0.0398  2.3892  1.2323
  471MOL0     H64966   5.949   6.028  10.087  1.7573 -0.2957  2.5451
  471MOL0     H64967   5.836   6.115  10.180  0.1311 -2.0370  0.3554
  471MOL0     H64968   6.024   6.251  10.289 -0.9565  0.5502 -1.4400
  471MOL0     H64969   6.137   6.193  10.168 -1.0228  1.2214 -0.2954
  471MOL0     H64970   6.007   6.019  10.377  1.4415 -1.6712  0.8123
  471MOL0     H64971   6.108   5.966  10.244 -2.5082  0.1978 -1.9852
  471MOL0     H64972   6.200   6.198  10.427  5.2470  0.4514  0.1216
  471MOL0     H64973   6.282   6.086  10.320 -0.0678  2.9052 -1.2516
  471MOL0     H64974   6.208   5.886  10.489 -0.3450  0.3312  0.6573
  471MOL0     H64975   6.167   6.006  10.597  0.2099 -3.6572  1.0805
  471MOL0     H64976   6.450   5.959  10.463  0.3152  1.2670 -0.1088
  471MOL0     H64977   6.403   5.938  10.637  1.8544  1.2204  0.9402
  471MOL0     H64978   5.611   6.190  10.296 -2.6738  2.0872  2.2671
  471MOL0     H64979   5.392   6.090  10.245  0.8832 -0.8128 -0.0535
  471MOL0     H64980   5.075   5.992   9.931  1.4713  2.2619  3.1209
  471MOL0     H64981   4.863   5.899   9.850  2.7924 -1.3498  3.4176
  471MOL0     H64982   5.556   5.082   9.944 -1.9776  1.7852  2.7581
  471MOL0     H64983   5.779   4.962  10.000  2.8717  0.1562 -0.2567
  471MOL0     H64984   6.288   5.223   9.866  1.8128 -0.5104 -0.1032
  471MOL0     H64985   6.511   5.140   9.847  1.0501 -2.6595 -2.2240
  471MOL0     H64986   6.596   4.744  10.048  0.7734 -0.2578  0.5284
  471MOL0     H64987   6.632   4.698   9.877 -0.6166  0.2745 -0.0578
  471MOL0     H64988   6.823   4.674  10.012  1.9896  0.8229  1.3036
  471MOL0     H64989   6.827   4.844  10.056  2.3326 -0.5144 -0.5364
  471MOL0     H64990   6.833   4.753   9.770 -3.8537 -0.0223  3.2715
  471MOL0     H64991   6.867   4.925   9.832  0.6297  0.3517 -2.2419
  471MOL0     H64992   7.091   4.824   9.787 -0.2614  0.9239 -0.3715
  471MOL0     H64993   7.051   4.690   9.897 -1.3556 -0.0612 -1.0322
  471MOL0     H64994   7.145   5.024  10.143 -0.3995  1.7962 -1.1663
  471MOL0     H64995   6.423   4.806  10.104  0.4849  0.3208  0.2875
  471MOL0     H64996   6.258   4.814  10.248 -0.3844 -1.8296 -2.1183
  471MOL0     H64997   6.173   4.969  10.274  0.9841  1.9155 -2.3981
  471MOL0     H64998   6.109   4.855  10.152  1.1795 -3.7020 -0.0806
  472MOL0     O64999   0.207   9.811   5.590 -0.4354 -0.4587 -0.6633
  472MOL0     C65000   0.225   9.752   5.485 -0.0455  0.3457  0.7938
  472MOL0     O65001   0.342   9.756   5.411  0.3392  0.0508 -0.1488
  472MOL0     C65002   0.450   9.838   5.442 -0.4699  0.1510  0.7787
  472MOL0     C65003   0.527   9.803   5.553 -0.5825  0.7437  0.4392
  472MOL0     C65004   0.646   9.885   5.572  0.8277  0.4630 -0.0117
  472MOL0     C65005   0.685   9.997   5.501 -0.4144  0.2162 -0.8077
  472MOL0     O65006   0.796  10.065   5.536 -0.0963 -0.1624  0.5591
  472MOL0     C65007   0.832  10.179   5.446 -0.1442 -0.4654  0.1283
  472MOL0     C65008   0.972  10.224   5.506  0.2262 -0.0379  1.3321
  472MOL0     C65009   1.042  10.331   5.422 -0.5438  0.0282  1.2437
  472MOL0     C65010   1.179  10.375   5.475 -0.2552  0.7609 -0.2590
  472MOL0     C65011   1.293  10.273   5.470  0.2546 -0.4445 -0.1221
  472MOL0     C65012   1.348  10.264   5.327 -0.7994  0.6053 -0.5878
  472MOL0     C65013   1.482  10.188   5.340  0.7067  0.1779 -0.3908
  472MOL0     C65014   1.456  10.041   5.307 -0.3989  0.7904  0.1850
  472MOL0     N65015   1.581   9.968   5.312  0.4639  1.1973  0.0939
  472MOL0     C65016   1.630   9.912   5.428  0.0602  0.6427  0.2707
  472MOL0     C65017   1.753   9.862   5.404  0.1284  0.3040  0.4705
  472MOL0     C65018   1.858   9.821   5.498  0.3077  0.0037 -0.7926
  472MOL0     C65019   2.005   9.807   5.450 -1.1372 -0.4272 -0.3248
  472MOL0     C65020   2.032   9.683   5.374 -0.5028 -0.0727  0.1291
  472MOL0     C65021   2.176   9.685   5.317 -0.4054  0.0589  0.5283
  472MOL0     O65022   2.219   9.557   5.265  0.4269  0.3378  0.7336
  472MOL0     C65023   2.344   9.514   5.273 -0.0447  0.1247  0.5725
  472MOL0     C65024   2.379   9.390   5.217  0.3060  0.0617  0.1511
  472MOL0     C65025   2.510   9.350   5.217 -0.4415 -1.0344 -0.0150
  472MOL0     C65026   2.531   9.224   5.141 -0.1678 -0.3151  0.3432
  472MOL0     C65027   2.612   9.425   5.278  0.3540  0.9190 -0.2597
  472MOL0     C65028   2.744   9.371   5.276 -0.0892  0.8733  0.1488
  472MOL0     O65029   2.835   9.422   5.181  0.3536  0.9369 -0.2024
  472MOL0     C65030   2.960   9.410   5.225  0.5886  0.5839  0.9441
  472MOL0     C65031   3.012   9.499   5.317  0.5923  0.2610  0.8696
  472MOL0     C65032   3.154   9.506   5.348  0.2268 -0.5322 -0.3984
  472MOL0     C65033   3.245   9.429   5.293  0.9668  0.8565  0.1898
  472MOL0     O65034   3.360   9.391   5.354 -0.4008 -0.0311  0.8561
  472MOL0     C65035   3.438   9.494   5.411 -1.2231  0.2343 -0.0250
  472MOL0     C65036   3.494   9.604   5.324  0.3213 -0.7430  0.2702
  472MOL0     C65037   3.620   9.559   5.254 -0.6796  0.1999  0.0175
  472MOL0     C65038   3.693   9.680   5.181 -0.7031 -0.7740  0.1275
  472MOL0     C65039   3.808   9.632   5.081 -0.1410  0.2065 -0.2884
  472MOL0     C65040   3.919   9.556   5.149 -0.7457  0.4336 -0.5838
  472MOL0     C65041   4.001   9.485   5.039  0.4426  0.1238 -0.4055
  472MOL0     C65042   4.125   9.397   5.094  0.3549  0.0762  1.0673
  472MOL0    Cl65043   4.200   9.329   4.953  0.3327  0.3722  0.1599
  472MOL0     C65044   3.196   9.341   5.190  0.5417  0.3002  0.7711
  472MOL0     C65045   3.061   9.343   5.153 -0.6809 -0.2773  0.0983
  472MOL0     O65046   2.762   9.278   5.354 -0.1306 -0.3189  0.3761
  472MOL0     C65047   2.583   9.550   5.333 -0.3447  0.2494 -0.7483
  472MOL0     C65048   2.453   9.596   5.323 -0.5588 -1.1888 -0.6682
  472MOL0     N65049   1.786   9.894   5.272  0.4416 -0.4454 -0.8129
  472MOL0     N65050   1.677   9.950   5.219 -0.6106  0.0723 -0.1497
  472MOL0     C65051   0.594  10.022   5.395 -1.1438  0.1287  0.1592
  472MOL0     C65052   0.478   9.958   5.369  0.3160  0.7889 -0.2712
  472MOL0     C65053   0.123   9.662   5.433 -0.1929  0.4419 -0.2709
  472MOL0     C65054   0.144   9.605   5.304 -0.1063 -0.3766 -0.5616
  472MOL0     C65055   0.046   9.521   5.252 -0.2326  0.2365 -0.6598
  472MOL0     C65056  -0.081   9.502   5.310  0.6009  0.2559  0.5124
  472MOL0     O65057  -0.154   9.398   5.248  0.3682  0.7914  0.3440
  472MOL0     C65058  -0.245   9.319   5.321 -0.0974 -0.2013  0.0958
  472MOL0     C65059  -0.398   9.368   5.326 -0.4107 -0.4728 -0.2441
  472MOL0     C65060  -0.472   9.286   5.428  0.4644  0.2047 -0.9358
  472MOL0     C65061  -0.625   9.289   5.397 -0.6229 -0.6347  0.5017
  472MOL0     C65062  -0.683   9.420   5.406  0.2003 -0.3335 -0.2281
  472MOL0     C65063  -0.740   9.526   5.420  0.3695  0.6757 -0.1401
  472MOL0     C65064  -0.103   9.566   5.431  0.6225  0.4717 -0.1132
  472MOL0     C65065  -0.010   9.653   5.491  0.7154 -0.0776 -0.4671
  472MOL0     C65066  -0.065   9.737   5.601 -0.1838 -0.7801  0.4166
  472MOL0     H65067   0.491   9.718   5.609 -0.5744  1.0600  0.9260
  472MOL0     H65068   0.718   9.856   5.648 -0.8205 -0.7401  1.1654
  472MOL0     H65069   0.767  10.265   5.464 -0.7802 -0.8655 -0.2300
  472MOL0     H65070   0.840  10.157   5.339 -0.9284 -0.5142  0.0720
  472MOL0     H65071   0.968  10.256   5.611  2.0188 -1.1596  1.7814
  472MOL0     H65072   1.035  10.134   5.506 -1.0331 -0.9598  0.4092
  472MOL0     H65073   1.052  10.294   5.320  1.2542  0.8957  1.0671
  472MOL0     H65074   0.969  10.412   5.430  0.3576  1.5242 -2.8979
  472MOL0     H65075   1.203  10.460   5.410  0.5049  0.3466 -0.5304
  472MOL0     H65076   1.170  10.420   5.575 -1.2796 -0.0377  0.0299
  472MOL0     H65077   1.261  10.177   5.511 -0.1368 -0.5288 -0.6134
  472MOL0     H65078   1.375  10.303   5.535  0.0251  0.4052 -0.2095
  472MOL0     H65079   1.273  10.219   5.261  0.4083 -1.0780 -0.8576
  472MOL0     H65080   1.378  10.362   5.288 -1.7215  2.0548  2.0567
  472MOL0     H65081   1.530  10.186   5.439  0.4253 -2.3515 -0.2305
  472MOL0     H65082   1.553  10.216   5.261  0.6180  1.5244 -0.0176
  472MOL0     H65083   1.387   9.989   5.374 -0.8262  0.0535 -0.8072
  472MOL0     H65084   1.412  10.024   5.208 -2.4519 -3.4773  1.5583
  472MOL0     H65085   1.585   9.919   5.527 -0.2166 -1.9961  0.4010
  472MOL0     H65086   1.826   9.724   5.538 -2.1561  0.8091 -0.6308
  472MOL0     H65087   1.848   9.888   5.584  2.0154  1.0750 -1.3785
  472MOL0     H65088   2.033   9.896   5.392  1.8639 -0.1063  1.3937
  472MOL0     H65089   2.078   9.812   5.532 -2.6913  0.2765  1.0720
  472MOL0     H65090   2.014   9.595   5.437  0.8580 -0.4235  0.0506
  472MOL0     H65091   1.969   9.673   5.285  1.2679  0.3347 -1.2286
  472MOL0     H65092   2.192   9.763   5.242  1.0315 -2.5174 -2.0469
  472MOL0     H65093   2.232   9.714   5.406  0.7225 -1.3203  0.2956
  472MOL0     H65094   2.295   9.340   5.171  0.5388  0.6142 -0.9301
  472MOL0     H65095   2.441   9.191   5.090 -1.0836  0.0633  1.6667
  472MOL0     H65096   2.562   9.147   5.213 -0.1878 -1.6598 -1.0346
  472MOL0     H65097   2.612   9.227   5.067 -0.4123 -2.2774 -0.0637
  472MOL0     H65098   2.942   9.561   5.372 -0.6082 -0.0420 -0.2581
  472MOL0     H65099   3.166   9.580   5.426 -4.6434 -1.1293  1.2625
  472MOL0     H65100   3.382   9.534   5.496 -0.8388 -2.6474  1.7385
  472MOL0     H65101   3.519   9.435   5.456 -2.3938 -2.5189 -1.3345
  472MOL0     H65102   3.419   9.648   5.257 -0.1989 -0.1761  1.1997
  472MOL0     H65103   3.532   9.684   5.389 -2.1507  0.1722  0.6980
  472MOL0     H65104   3.602   9.475   5.186  1.4938 -2.0574  2.0208
  472MOL0     H65105   3.691   9.517   5.326 -1.8983 -0.8576  0.6476
  472MOL0     H65106   3.733   9.746   5.259  1.2952 -0.6189 -0.9450
  472MOL0     H65107   3.622   9.741   5.125 -0.1144  1.3606  1.5863
  472MOL0     H65108   3.754   9.567   5.012  2.5661 -0.9807 -1.4184
  472MOL0     H65109   3.854   9.713   5.023  1.4172 -0.1176  0.4454
  472MOL0     H65110   3.883   9.473   5.210 -0.8731 -0.1672 -1.4644
  472MOL0     H65111   3.979   9.633   5.199  1.2664  0.4266 -2.8043
  472MOL0     H65112   4.041   9.555   4.965  2.6548  1.4661  1.9206
  472MOL0     H65113   3.929   9.418   4.991 -2.1168  1.8818  0.7307
  472MOL0     H65114   4.088   9.314   5.154 -0.9755  0.4652  0.8193
  472MOL0     H65115   4.194   9.462   5.146  2.5230 -1.7371  0.6274
  472MOL0     H65116   3.261   9.271   5.139  3.4027  1.9606  1.9154
  472MOL0     H65117   3.020   9.283   5.073 -1.8452  2.3729 -1.4163
  472MOL0     H65118   2.660   9.611   5.380 -0.2053  2.0130 -3.0231
  472MOL0     H65119   2.443   9.692   5.373  2.8294 -1.0735  0.0790
  472MOL0     H65120   0.615  10.103   5.326 -0.5763 -2.0682 -2.3748
  472MOL0     H65121   0.416   9.990   5.286 -0.2520  1.6806  0.4781
  472MOL0     H65122   0.238   9.622   5.253 -0.4953  0.4139 -1.0283
  472MOL0     H65123   0.065   9.475   5.156  1.9852  0.1345 -0.2204
  472MOL0     H65124  -0.245   9.220   5.275 -4.2546 -1.0638  1.5549
  472MOL0     H65125  -0.204   9.298   5.420  0.5879  1.2249  0.1387
  472MOL0     H65126  -0.437   9.341   5.227  0.1110  0.2631 -0.6557
  472MOL0     H65127  -0.413   9.475   5.336 -1.0518 -0.6912  1.6111
  472MOL0     H65128  -0.447   9.179   5.425  0.1355  0.0075  1.2690
  472MOL0     H65129  -0.451   9.313   5.532 -0.1596  1.3595 -1.0993
  472MOL0     H65130  -0.674   9.214   5.459 -1.0931 -2.2924 -1.7367
  472MOL0     H65131  -0.629   9.264   5.290 -0.7444  0.0062  0.3511
  472MOL0     H65132  -0.792   9.619   5.434  2.0386  1.5361  0.5017
  472MOL0     H65133  -0.200   9.554   5.478  0.7039 -4.2098 -0.7345
  472MOL0     H65134  -0.173   9.727   5.612 -0.4023  1.2138  0.5274
  472MOL0     H65135  -0.007   9.704   5.688  2.2939  1.6102 -0.1778
  472MOL0     H65136  -0.044   9.843   5.584 -0.2669 -0.8219  0.0551
  473MOL0     O65137   0.945   1.243  11.348  0.3148 -0.1834 -0.0279
  473MOL0     C65138   0.895   1.326  11.269  1.3197 -0.0440 -0.7672
  473MOL0     O65139   0.962   1.414  11.197  0.3121 -0.2497  0.0062
  473MOL0     C65140   1.095   1.415  11.208 -0.0857 -0.1024  1.6044
  473MOL0     C65141   1.168   1.399  11.089 -0.6434  1.1433  0.2919
  473MOL0     C65142   1.305   1.394  11.098 -0.4622  0.3811  0.5209
  473MOL0     C65143   1.373   1.414  11.212 -0.1744 -0.2265  0.4835
  473MOL0     O65144   1.511   1.403  11.212 -0.0728 -0.2840 -0.0529
  473MOL0     C65145   1.572   1.354  11.334  0.4452 -0.0671 -0.5772
  473MOL0     C65146   1.698   1.279  11.311  0.2396 -1.2507 -0.0431
  473MOL0     C65147   1.686   1.150  11.233  0.6691  0.2020  0.7886
  473MOL0     C65148   1.823   1.079  11.234  0.4676  0.0202  0.3951
  473MOL0     C65149   1.806   0.940  11.169 -0.2808  0.4093 -0.4721
  473MOL0     C65150   1.932   0.855  11.185  0.1554  0.3387  0.6714
  473MOL0     C65151   1.924   0.730  11.090 -0.4810  0.2784  0.0849
  473MOL0     C65152   2.037   0.634  11.116 -0.1441  0.0311 -1.2613
  473MOL0     N65153   2.171   0.675  11.055  0.4863  0.4147  0.1067
  473MOL0     C65154   2.202   0.676  10.919  0.0878  0.4308  0.6775
  473MOL0     C65155   2.336   0.695  10.908 -0.3317 -0.5898  0.0483
  473MOL0     C65156   2.398   0.695  10.780  0.3566  0.5859  0.3099
  473MOL0     C65157   2.482   0.823  10.773  0.0265  0.6884  0.4465
  473MOL0     C65158   2.627   0.812  10.805  0.3547  0.8829 -0.0220
  473MOL0     C65159   2.702   0.944  10.796 -0.1806 -0.5739 -1.2407
  473MOL0     O65160   2.836   0.918  10.846 -0.4450  0.6927  0.3936
  473MOL0     C65161   2.941   0.976  10.776 -0.4611  0.3805 -0.6993
  473MOL0     C65162   2.983   1.107  10.801 -0.0835  0.5519 -0.5590
  473MOL0     C65163   3.097   1.156  10.729 -0.3890 -0.6971  0.4125
  473MOL0     C65164   3.118   1.305  10.731 -0.7946 -0.6579 -0.1787
  473MOL0     C65165   3.171   1.072  10.646  0.5144 -1.3341 -0.5406
  473MOL0     C65166   3.302   1.104  10.581 -0.8346 -0.7436 -0.4828
  473MOL0     O65167   3.349   1.014  10.485  0.0348 -0.4155  0.2885
  473MOL0     C65168   3.487   1.015  10.460  0.6569  0.4336  0.3162
  473MOL0     C65169   3.571   0.909  10.500  0.1537  0.0871  0.1341
  473MOL0     C65170   3.709   0.912  10.468 -0.1610 -0.4198 -0.0680
  473MOL0     C65171   3.763   1.013  10.391 -0.4017 -0.0355 -0.5023
  473MOL0     O65172   3.889   1.007  10.348 -0.0137 -0.1887  0.6030
  473MOL0     C65173   3.991   1.006  10.449  0.2843  0.5746 -0.4907
  473MOL0     C65174   4.120   0.993  10.372 -0.2257 -0.7611  0.1047
  473MOL0     C65175   4.151   0.847  10.361 -0.4611 -0.4549  0.1778
  473MOL0     C65176   4.262   0.827  10.260 -0.1642 -0.4353 -0.4681
  473MOL0     C65177   4.398   0.874  10.309  0.9499 -0.1888  0.8331
  473MOL0     C65178   4.499   0.846  10.195 -0.4170 -1.1608  0.2033
  473MOL0     C65179   4.628   0.910  10.223 -0.7230 -0.5246 -0.3435
  473MOL0     C65180   4.734   0.864  10.124  0.0119 -0.0255 -0.5307
  473MOL0    Cl65181   4.702   0.934   9.969 -0.1453 -0.2158  0.3046
  473MOL0     C65182   3.679   1.124  10.359 -0.3675  0.2973  0.4320
  473MOL0     C65183   3.546   1.121  10.392 -0.4352 -0.1194  0.2610
  473MOL0     O65184   3.361   1.210  10.617  0.5413 -0.5083 -0.0533
  473MOL0     C65185   3.135   0.933  10.645 -0.9213  0.2800  0.3112
  473MOL0     C65186   3.021   0.885  10.712 -0.1472  0.5339 -0.4837
  473MOL0     N65187   2.383   0.705  11.040 -0.6105  0.4528 -0.2208
  473MOL0     N65188   2.287   0.679  11.120 -0.0640  0.1864  0.8145
  473MOL0     C65189   1.298   1.445  11.332 -0.2343 -0.2417  0.1563
  473MOL0     C65190   1.161   1.442  11.326  0.2064  0.8381  0.8160
  473MOL0     C65191   0.744   1.336  11.252 -0.1406 -0.8035  0.1032
  473MOL0     C65192   0.686   1.454  11.191  0.0744  0.2514  0.1026
  473MOL0     C65193   0.550   1.466  11.173  0.2234  0.1986  0.5240
  473MOL0     C65194   0.464   1.367  11.219  0.0873  0.0619 -1.2071
  473MOL0     O65195   0.323   1.385  11.207 -0.2860  0.7929 -0.8099
  473MOL0     C65196   0.272   1.468  11.104  0.1043  1.0461  0.1642
  473MOL0     C65197   0.148   1.396  11.060 -0.0885  0.9993  0.1038
  473MOL0     C65198   0.181   1.257  10.988  0.5947 -0.1052  0.2386
  473MOL0     C65199   0.239   1.277  10.848  0.5964 -0.1485  0.9419
  473MOL0     C65200   0.123   1.287  10.750  0.0249  0.4668 -0.0881
  473MOL0     C65201   0.023   1.267  10.675 -0.2863 -0.1547  0.4622
  473MOL0     C65202   0.516   1.262  11.290  0.0104 -0.2088 -0.1146
  473MOL0     C65203   0.654   1.240  11.309 -0.5047 -1.3592 -0.6533
  473MOL0     C65204   0.703   1.117  11.376  0.5913  0.4205 -0.6239
  473MOL0     H65205   1.122   1.386  10.992  0.1894 -0.3363  0.0576
  473MOL0     H65206   1.368   1.376  11.011 -0.4213  2.4740  0.0631
  473MOL0     H65207   1.500   1.292  11.389 -0.7933 -0.7668 -2.8341
  473MOL0     H65208   1.595   1.443  11.392 -0.4820 -1.1675  1.6278
  473MOL0     H65209   1.775   1.342  11.266  0.1199 -1.1398 -0.0917
  473MOL0     H65210   1.735   1.258  11.412  1.2341 -1.1635 -0.3741
  473MOL0     H65211   1.614   1.080  11.277  2.0231 -1.4408  0.5119
  473MOL0     H65212   1.649   1.178  11.134  2.0582  0.5492  0.3353
  473MOL0     H65213   1.890   1.145  11.179 -2.9566  2.8628 -0.7264
  473MOL0     H65214   1.862   1.057  11.334  0.3201 -2.0922  0.0323
  473MOL0     H65215   1.785   0.969  11.065 -2.2851  0.6876 -0.0325
  473MOL0     H65216   1.719   0.900  11.221 -0.2036 -2.3062 -2.2754
  473MOL0     H65217   2.016   0.914  11.149 -0.2306 -0.1121 -1.0720
  473MOL0     H65218   1.943   0.821  11.288  1.2723  0.1187  0.4931
  473MOL0     H65219   1.917   0.762  10.986 -1.6332  5.3583  1.4087
  473MOL0     H65220   1.829   0.679  11.108 -0.9794  1.2395  0.2649
  473MOL0     H65221   2.051   0.634  11.225  0.3088 -3.1213 -1.2454
  473MOL0     H65222   2.006   0.531  11.099  1.0353 -0.3609 -1.0771
  473MOL0     H65223   2.142   0.666  10.829  2.4036  2.1923 -1.2085
  473MOL0     H65224   2.324   0.698  10.699  1.0444  0.0956 -0.3483
  473MOL0     H65225   2.455   0.605  10.754 -0.9434  0.1687 -1.3065
  473MOL0     H65226   2.502   0.837  10.666  0.3639 -0.2100  0.3786
  473MOL0     H65227   2.442   0.908  10.829 -0.6515  2.1903 -2.1698
  473MOL0     H65228   2.637   0.772  10.906  1.0377  0.2407 -0.3385
  473MOL0     H65229   2.669   0.736  10.739  0.6803  0.8415  0.2244
  473MOL0     H65230   2.713   0.964  10.689  2.5405  0.3106 -0.8717
  473MOL0     H65231   2.661   1.036  10.840  1.8364 -0.8384  1.4534
  473MOL0     H65232   2.937   1.182  10.865  1.2931  0.0289  1.0885
  473MOL0     H65233   3.031   1.358  10.770  1.1392  2.0132  0.7753
  473MOL0     H65234   3.141   1.344  10.631 -0.0426  2.7000  1.1873
  473MOL0     H65235   3.200   1.347  10.790 -2.5547  2.5182  0.2340
  473MOL0     H65236   3.529   0.840  10.572 -2.3002  3.9145  2.7287
  473MOL0     H65237   3.770   0.824  10.483  1.6914  0.7041 -0.7621
  473MOL0     H65238   3.992   1.103  10.499  1.5014  1.1763 -1.6249
  473MOL0     H65239   3.976   0.930  10.526  1.9515  0.6356 -0.0800
  473MOL0     H65240   4.110   1.030  10.270 -1.5495 -1.1397  0.0678
  473MOL0     H65241   4.202   1.053  10.413 -0.9806  0.5804 -0.3011
  473MOL0     H65242   4.060   0.787  10.350 -0.4865 -0.9049  2.3511
  473MOL0     H65243   4.195   0.818  10.457  1.0728 -1.4349 -0.8021
  473MOL0     H65244   4.241   0.884  10.169 -0.6526 -1.0293 -0.7352
  473MOL0     H65245   4.264   0.723  10.226  1.5205 -0.6266  0.1353
  473MOL0     H65246   4.396   0.980  10.336 -0.2018 -0.6396  2.6489
  473MOL0     H65247   4.429   0.819  10.398  0.6264 -1.8474 -0.0358
  473MOL0     H65248   4.467   0.886  10.099 -1.0680  1.2968  1.3572
  473MOL0     H65249   4.503   0.739  10.173 -0.0736 -0.7977 -1.6332
  473MOL0     H65250   4.657   0.878  10.324 -0.3865  1.2600  0.1565
  473MOL0     H65251   4.631   1.019  10.225 -0.4321 -0.5366  1.4188
  473MOL0     H65252   4.743   0.756  10.110  2.4551  0.2509 -1.6496
  473MOL0     H65253   4.833   0.899  10.155 -0.0851 -0.9791  0.9210
  473MOL0     H65254   3.717   1.210  10.304  1.1064 -0.6433 -0.0694
  473MOL0     H65255   3.482   1.207  10.376  0.7451  0.5267 -1.2033
  473MOL0     H65256   3.181   0.856  10.584  0.3771 -0.4868  2.1580
  473MOL0     H65257   2.996   0.781  10.695  2.8919 -0.1255 -1.5313
  473MOL0     H65258   1.345   1.482  11.422  3.9039  4.7041 -3.4471
  473MOL0     H65259   1.109   1.452  11.421  2.7365  3.7744  2.0872
  473MOL0     H65260   0.750   1.537  11.162  1.2296 -0.9612 -0.9593
  473MOL0     H65261   0.508   1.550  11.119 -1.3156 -2.6628 -3.2560
  473MOL0     H65262   0.241   1.566  11.141 -0.6815  0.6350  0.6337
  473MOL0     H65263   0.337   1.483  11.018 -1.4892  1.7741 -0.9672
  473MOL0     H65264   0.082   1.455  10.995 -0.4710  2.5006  1.7908
  473MOL0     H65265   0.092   1.380  11.152  1.1039 -2.6786  0.3649
  473MOL0     H65266   0.255   1.204  11.048  1.3172  0.7257  0.1090
  473MOL0     H65267   0.090   1.195  10.988  0.9999 -0.7367 -1.0391
  473MOL0     H65268   0.296   1.187  10.825 -0.8295 -0.9660  0.4600
  473MOL0     H65269   0.297   1.369  10.837 -0.5324  0.3917 -1.0888
  473MOL0     H65270  -0.053   1.241  10.605  0.2185 -0.7531  0.1186
  473MOL0     H65271   0.445   1.188  11.325 -0.4278  0.5530  0.6618
  473MOL0     H65272   0.620   1.051  11.399  0.6759 -0.8179 -3.3884
  473MOL0     H65273   0.772   1.064  11.309  1.2086  1.5488 -0.9176
  473MOL0     H65274   0.758   1.146  11.466  0.5767  2.0274 -1.0999
  474MOL0     O65275   3.617   8.394   1.380  0.5524 -0.3118 -0.0106
  474MOL0     C65276   3.587   8.368   1.501 -0.4307  0.2783  0.2673
  474MOL0     O65277   3.670   8.293   1.586 -0.1036  0.0876 -0.4748
  474MOL0     C65278   3.800   8.287   1.547 -0.0829 -1.2444 -0.5752
  474MOL0     C65279   3.885   8.404   1.535  0.6072  0.8858  0.4300
  474MOL0     C65280   4.027   8.398   1.527 -0.1118  0.7950 -1.1210
  474MOL0     C65281   4.081   8.265   1.511 -0.3760  0.4042 -0.0939
  474MOL0     O65282   4.208   8.224   1.485 -0.1219 -0.6291 -0.0801
  474MOL0     C65283   4.301   8.325   1.452  0.1675  0.2232 -0.5383
  474MOL0     C65284   4.431   8.273   1.401  0.1384 -0.0330  0.0853
  474MOL0     C65285   4.537   8.383   1.391 -1.0361  0.2061  0.5172
  474MOL0     C65286   4.678   8.321   1.361 -0.5972  0.6891 -0.4799
  474MOL0     C65287   4.723   8.320   1.215 -0.0206 -0.6307  0.1203
  474MOL0     C65288   4.859   8.262   1.193 -0.0163  0.4184 -0.2118
  474MOL0     C65289   4.901   8.227   1.044 -0.1349  0.2497 -0.9776
  474MOL0     C65290   4.859   8.092   0.988 -0.4023  0.2487 -0.9956
  474MOL0     N65291   4.707   8.085   0.970  0.1707 -0.5239 -0.7640
  474MOL0     C65292   4.643   8.154   0.871  0.8755 -0.2054  0.2474
  474MOL0     C65293   4.513   8.123   0.881  0.4219 -0.0195  0.6096
  474MOL0     C65294   4.391   8.167   0.792  0.0853  0.2533  0.4967
  474MOL0     C65295   4.300   8.059   0.735 -0.2617 -0.2102  0.4924
  474MOL0     C65296   4.177   8.122   0.672  0.3514 -0.1734 -0.1738
  474MOL0     C65297   4.108   8.024   0.572  0.3919 -0.3481 -0.1509
  474MOL0     O65298   4.112   7.893   0.627 -0.1093 -0.5453 -0.5484
  474MOL0     C65299   3.989   7.841   0.658  0.6641 -0.1301 -0.0837
  474MOL0     C65300   3.981   7.703   0.648  0.1784  0.2186  0.2941
  474MOL0     C65301   3.865   7.628   0.678  0.1077  0.3497  0.7488
  474MOL0     C65302   3.868   7.479   0.662 -0.2730 -0.5827  0.0394
  474MOL0     C65303   3.743   7.690   0.705 -0.0086 -0.5678 -0.9911
  474MOL0     C65304   3.606   7.635   0.731  0.2884  0.5603 -0.3359
  474MOL0     O65305   3.500   7.724   0.710  0.3312 -0.3439  0.4458
  474MOL0     C65306   3.383   7.693   0.783  0.1595 -0.2692  0.5273
  474MOL0     C65307   3.366   7.774   0.897  0.0591  0.1918  0.6693
  474MOL0     C65308   3.248   7.755   0.977 -0.2537  0.4152  0.3628
  474MOL0     C65309   3.172   7.642   0.962 -0.4944 -0.5386 -0.9241
  474MOL0     O65310   3.061   7.609   1.041  0.4900 -0.5414 -0.3579
  474MOL0     C65311   3.075   7.636   1.186 -0.5204 -0.1840  0.3048
  474MOL0     C65312   2.965   7.559   1.251  0.3913 -0.4273  0.2502
  474MOL0     C65313   2.822   7.597   1.206  0.3521 -0.3534 -0.3945
  474MOL0     C65314   2.714   7.530   1.297  0.1741 -0.2039 -0.6808
  474MOL0     C65315   2.568   7.569   1.259 -0.9481 -0.3715  0.3817
  474MOL0     C65316   2.460   7.541   1.373 -0.1833  0.6764  0.5023
  474MOL0     C65317   2.448   7.378   1.375 -0.1181  0.2633 -0.8451
  474MOL0     C65318   2.326   7.335   1.463  1.3317 -0.6268  0.1129
  474MOL0    Cl65319   2.184   7.388   1.374  0.0343  0.3738  0.1920
  474MOL0     C65320   3.204   7.553   0.853  0.5243  0.1731  1.2131
  474MOL0     C65321   3.296   7.589   0.754 -0.1761  0.8827 -0.1456
  474MOL0     O65322   3.596   7.521   0.770  0.1498 -0.1023  0.3470
  474MOL0     C65323   3.754   7.834   0.712 -0.8760 -0.0583 -0.9231
  474MOL0     C65324   3.867   7.906   0.681  0.1053 -0.5134 -0.7178
  474MOL0     N65325   4.503   8.048   0.994  0.7001  0.2212  0.0376
  474MOL0     N65326   4.615   8.029   1.047  0.1271  0.4143 -0.1214
  474MOL0     C65327   3.998   8.153   1.516  0.2858  1.3581 -1.0333
  474MOL0     C65328   3.862   8.170   1.531  0.5014 -0.6367 -0.1471
  474MOL0     C65329   3.461   8.434   1.553 -1.0672  0.2306 -0.4645
  474MOL0     C65330   3.388   8.513   1.464 -0.0672 -1.2067 -0.0530
  474MOL0     C65331   3.282   8.594   1.512  0.2557 -0.5380 -0.2824
  474MOL0     C65332   3.235   8.581   1.644 -0.2434  0.7268  0.1663
  474MOL0     O65333   3.121   8.650   1.681  0.0419  0.9464  0.1051
  474MOL0     C65334   3.084   8.663   1.819 -0.4602 -0.1645  0.1052
  474MOL0     C65335   2.989   8.776   1.831  0.1530  0.1679  0.2372
  474MOL0     C65336   2.861   8.755   1.762 -0.8597 -0.9141  0.8419
  474MOL0     C65337   2.790   8.889   1.762  0.4126 -1.1136 -0.1878
  474MOL0     C65338   2.819   8.985   1.652  0.0711 -0.4928  0.4274
  474MOL0     C65339   2.840   9.080   1.566 -0.7264  0.1845 -0.7299
  474MOL0     C65340   3.308   8.505   1.721  0.3022  0.1635  0.5881
  474MOL0     C65341   3.412   8.419   1.683 -0.0951 -0.6562  0.1112
  474MOL0     C65342   3.479   8.331   1.793  0.4893 -0.6785 -0.0595
  474MOL0     H65343   3.842   8.503   1.533  0.7897  0.9583 -0.3195
  474MOL0     H65344   4.095   8.482   1.515  1.1882 -0.2277 -1.1358
  474MOL0     H65345   4.324   8.389   1.537  1.8271 -1.7830  0.6326
  474MOL0     H65346   4.266   8.380   1.365  1.0022 -0.3933 -1.2873
  474MOL0     H65347   4.467   8.193   1.466  1.8533  0.0443 -0.7032
  474MOL0     H65348   4.407   8.230   1.303  1.4466  0.7232 -0.6033
  474MOL0     H65349   4.512   8.469   1.328  1.1424  0.3017 -0.2931
  474MOL0     H65350   4.561   8.425   1.489  1.6042  3.4528 -1.2998
  474MOL0     H65351   4.754   8.389   1.400 -0.4986  1.5037 -1.9982
  474MOL0     H65352   4.679   8.221   1.405  0.4089  0.9544  0.1322
  474MOL0     H65353   4.711   8.424   1.183 -1.7126 -1.2019 -1.3122
  474MOL0     H65354   4.641   8.272   1.159 -1.8213  2.0625  0.2180
  474MOL0     H65355   4.938   8.333   1.215  0.9559  0.0736 -2.3655
  474MOL0     H65356   4.870   8.168   1.248  0.1652 -0.3408 -1.5037
  474MOL0     H65357   5.008   8.244   1.032 -0.1317  4.3321  2.2788
  474MOL0     H65358   4.861   8.305   0.979 -0.1373  1.3066  0.2342
  474MOL0     H65359   4.909   8.063   0.896 -1.0530 -3.0115 -0.4426
  474MOL0     H65360   4.872   8.012   1.062  0.0208 -0.5497 -1.9214
  474MOL0     H65361   4.685   8.217   0.794  2.6090  1.8984  2.7328
  474MOL0     H65362   4.440   8.219   0.709  1.2871 -0.0049  1.0180
  474MOL0     H65363   4.325   8.231   0.851 -0.1011 -2.7263  3.8736
  474MOL0     H65364   4.349   8.000   0.657 -2.6270  0.8099 -1.9351
  474MOL0     H65365   4.265   7.995   0.816 -0.9470  0.8177  1.0260
  474MOL0     H65366   4.107   8.140   0.755 -0.1150 -1.4225 -0.2766
  474MOL0     H65367   4.202   8.220   0.630  0.7259 -0.4250 -0.5373
  474MOL0     H65368   4.007   8.061   0.549  0.8116  0.3050 -1.0082
  474MOL0     H65369   4.174   8.018   0.485  2.1408  0.9758  1.0378
  474MOL0     H65370   4.074   7.654   0.621 -0.8097 -1.8417  0.4569
  474MOL0     H65371   3.960   7.448   0.613 -1.1512 -0.6996 -1.6339
  474MOL0     H65372   3.787   7.443   0.597  0.2854 -3.5070  0.8506
  474MOL0     H65373   3.864   7.420   0.754  0.4989 -1.3788 -0.4281
  474MOL0     H65374   3.442   7.842   0.933  0.0789 -0.2762  1.5329
  474MOL0     H65375   3.245   7.815   1.067  2.2162  0.7217  0.3058
  474MOL0     H65376   3.172   7.591   1.213  0.8374 -0.1477 -3.7925
  474MOL0     H65377   3.068   7.743   1.207  3.4753 -0.1408  2.4225
  474MOL0     H65378   2.976   7.451   1.239  0.5350 -0.3693 -0.1588
  474MOL0     H65379   2.968   7.579   1.358  0.4619  0.9151  0.0135
  474MOL0     H65380   2.814   7.566   1.101 -2.5960  0.8025 -0.6013
  474MOL0     H65381   2.800   7.704   1.198 -1.2828 -0.5913  0.5973
  474MOL0     H65382   2.732   7.569   1.397  0.6043 -0.0431 -0.8181
  474MOL0     H65383   2.721   7.421   1.299  0.5446 -0.2044  2.6470
  474MOL0     H65384   2.564   7.677   1.239  1.1892 -0.1877  0.7218
  474MOL0     H65385   2.566   7.521   1.161  0.7808  1.2266 -0.5104
  474MOL0     H65386   2.360   7.581   1.357 -2.1533 -1.9053  4.5142
  474MOL0     H65387   2.504   7.570   1.469  2.5528 -4.0789  0.9773
  474MOL0     H65388   2.545   7.335   1.402  0.3389  1.3970 -0.5904
  474MOL0     H65389   2.429   7.340   1.275  0.1448 -0.1901 -0.7259
  474MOL0     H65390   2.324   7.383   1.562  1.8413  0.6508 -0.4703
  474MOL0     H65391   2.316   7.227   1.473  2.0205 -0.8943 -1.8004
  474MOL0     H65392   3.136   7.470   0.836 -0.5381  1.5161 -1.8722
  474MOL0     H65393   3.333   7.531   0.671  4.6535  3.7382 -0.3912
  474MOL0     H65394   3.666   7.897   0.725  0.7561  2.1512 -0.1095
  474MOL0     H65395   3.858   8.014   0.684 -2.2061 -0.6253  3.5987
  474MOL0     H65396   4.039   8.053   1.515  2.0360  1.9715  0.8358
  474MOL0     H65397   3.798   8.083   1.522  1.0674 -1.0872  0.1141
  474MOL0     H65398   3.410   8.517   1.357  0.5718  2.0610  0.0754
  474MOL0     H65399   3.222   8.650   1.441  0.8757 -1.4143 -1.5395
  474MOL0     H65400   3.037   8.569   1.853  0.5222 -2.3959 -4.0244
  474MOL0     H65401   3.172   8.683   1.880 -0.5101  0.2120  0.0570
  474MOL0     H65402   3.041   8.858   1.782  2.2967 -0.3540  1.5196
  474MOL0     H65403   2.975   8.803   1.936  1.2506  1.5617  0.0531
  474MOL0     H65404   2.884   8.718   1.662  0.9350  4.6096 -1.1440
  474MOL0     H65405   2.789   8.693   1.817 -0.0582 -0.1989  2.7804
  474MOL0     H65406   2.806   8.940   1.858 -0.7341  0.1165 -0.6244
  474MOL0     H65407   2.684   8.864   1.748 -0.0501 -1.0888  2.6056
  474MOL0     H65408   2.874   9.153   1.496  1.1598  2.1031  1.9472
  474MOL0     H65409   3.288   8.501   1.827  3.3784 -2.2800  1.2201
  474MOL0     H65410   3.466   8.228   1.758 -1.8290 -1.0582  1.6619
  474MOL0     H65411   3.583   8.362   1.809 -0.1532  1.2811  0.6169
  474MOL0     H65412   3.429   8.343   1.890  0.6628 -4.3112  0.6392
  475MOL0     O65413   2.374   2.789   5.458  0.0586  0.6022 -0.2939
  475MOL0     C65414   2.308   2.692   5.488  0.4714  0.4741 -0.6691
  475MOL0     O65415   2.360   2.593   5.564  0.3475 -0.7595  0.1629
  475MOL0     C65416   2.485   2.597   5.611 -0.4221 -0.8846 -0.2816
  475MOL0     C65417   2.586   2.557   5.526  0.5128 -0.4381 -0.5126
  475MOL0     C65418   2.710   2.545   5.579  0.1084 -0.4234 -0.6035
  475MOL0     C65419   2.735   2.573   5.713 -0.0308 -0.2867 -0.5283
  475MOL0     O65420   2.862   2.536   5.757  0.1036  0.3683 -0.1758
  475MOL0     C65421   2.877   2.438   5.864  0.2198 -1.1939  0.4997
  475MOL0     C65422   3.008   2.385   5.882  0.1311  0.3737  0.1872
  475MOL0     C65423   3.066   2.326   5.752 -0.1977  0.3403 -0.7356
  475MOL0     C65424   3.180   2.222   5.779  0.2729  0.3344 -1.4382
  475MOL0     C65425   3.206   2.146   5.658 -0.8589 -0.0478  0.1320
  475MOL0     C65426   3.327   2.067   5.673 -0.0744 -0.0571 -0.6587
  475MOL0     C65427   3.361   1.984   5.548  0.3510 -0.6006 -0.5199
  475MOL0     C65428   3.438   1.855   5.571 -0.1503 -0.5806  0.6665
  475MOL0     N65429   3.493   1.804   5.441 -0.1607  0.0372 -0.7694
  475MOL0     C65430   3.578   1.870   5.362 -0.2863  0.3288  0.3747
  475MOL0     C65431   3.616   1.784   5.261  0.2320 -1.1673 -0.3907
  475MOL0     C65432   3.715   1.787   5.147  0.8102 -0.3439  0.2232
  475MOL0     C65433   3.859   1.782   5.198 -0.8490  0.6700 -0.8467
  475MOL0     C65434   3.949   1.776   5.079 -0.3457  0.2592  0.2532
  475MOL0     C65435   4.093   1.760   5.118  0.2498 -0.2989 -0.1870
  475MOL0     O65436   4.169   1.719   4.998  0.3760  0.3035 -0.1103
  475MOL0     C65437   4.302   1.745   4.989 -0.1150 -0.4780  0.5582
  475MOL0     C65438   4.369   1.836   5.063 -0.3314 -0.4046  0.0875
  475MOL0     C65439   4.505   1.871   5.035  0.7353 -0.0667  0.1313
  475MOL0     C65440   4.572   1.980   5.126 -0.1379  0.3883  0.7628
  475MOL0     C65441   4.582   1.789   4.948 -0.6307  0.3702 -0.9879
  475MOL0     C65442   4.729   1.800   4.927  0.2278  0.7499 -0.5996
  475MOL0     O65443   4.768   1.933   4.919  1.0005  0.6139  0.3449
  475MOL0     C65444   4.896   1.970   4.914  0.5479 -0.1267  0.2377
  475MOL0     C65445   4.924   2.100   4.866 -0.2446 -0.1824  0.6396
  475MOL0     C65446   5.064   2.143   4.851 -0.5434 -0.0310 -0.2132
  475MOL0     C65447   5.169   2.069   4.906 -0.1848 -0.1425 -0.6790
  475MOL0     O65448   5.303   2.097   4.907  0.1373 -0.1150 -0.0277
  475MOL0     C65449   5.350   2.166   4.782  0.6105 -0.2244 -0.2215
  475MOL0     C65450   5.501   2.172   4.794  0.2383  0.0523  0.7038
  475MOL0     C65451   5.562   2.041   4.754  0.2917 -0.0905  0.1378
  475MOL0     C65452   5.715   2.041   4.777  0.5828 -0.0550 -0.3663
  475MOL0     C65453   5.792   2.133   4.678 -0.0164  0.1230 -0.7623
  475MOL0     C65454   5.938   2.163   4.726 -0.0005 -0.3008 -0.4176
  475MOL0     C65455   6.023   2.033   4.722  0.5360 -0.3667 -0.0925
  475MOL0     C65456   6.172   2.068   4.726 -0.6203 -0.1461  0.1098
  475MOL0    Cl65457   6.201   2.112   4.901 -0.6386 -0.2137 -0.2486
  475MOL0     C65458   5.135   1.945   4.955 -0.5405  0.2907 -0.8721
  475MOL0     C65459   5.005   1.898   4.966 -0.0960 -0.3776  1.3449
  475MOL0     O65460   4.792   1.697   4.903  0.3260  0.2943 -0.3018
  475MOL0     C65461   4.510   1.695   4.875  0.8369  0.7535 -0.8234
  475MOL0     C65462   4.378   1.674   4.896  0.0798  0.0146 -0.4372
  475MOL0     N65463   3.534   1.675   5.275  0.1560 -0.2453  0.3944
  475MOL0     N65464   3.461   1.684   5.385 -0.7534  0.8843  0.2675
  475MOL0     C65465   2.638   2.622   5.797  0.4764 -0.5302  0.6931
  475MOL0     C65466   2.508   2.636   5.745 -0.6645  1.1018 -0.4583
  475MOL0     C65467   2.168   2.685   5.446  0.0206  0.3868  0.0770
  475MOL0     C65468   2.077   2.606   5.523 -0.3476  0.1204 -1.0901
  475MOL0     C65469   1.947   2.579   5.484 -0.6045  0.0550  0.0372
  475MOL0     C65470   1.899   2.639   5.368 -0.6505 -0.8876 -0.2263
  475MOL0     O65471   1.774   2.621   5.325  0.0906 -0.3042  0.2349
  475MOL0     C65472   1.674   2.696   5.397  0.5472  0.4536  0.4266
  475MOL0     C65473   1.543   2.719   5.327 -0.0889 -0.3920  0.1596
  475MOL0     C65474   1.518   2.616   5.225  0.3277  0.5272 -1.1606
  475MOL0     C65475   1.371   2.613   5.174 -0.0176 -0.0974 -0.8364
  475MOL0     C65476   1.327   2.745   5.126  0.3720 -0.4416 -0.0196
  475MOL0     C65477   1.279   2.855   5.089  0.7346 -0.3178 -0.3618
  475MOL0     C65478   1.984   2.704   5.285  0.5819 -0.0925 -0.3622
  475MOL0     C65479   2.113   2.730   5.321 -0.9127  0.3865 -0.0161
  475MOL0     C65480   2.195   2.805   5.221 -0.0902  0.5414 -0.6317
  475MOL0     H65481   2.561   2.534   5.423 -0.2343 -3.1025  0.1888
  475MOL0     H65482   2.788   2.507   5.514 -2.5005 -2.3125 -2.8887
  475MOL0     H65483   2.808   2.357   5.837  2.2702 -2.6096 -0.6858
  475MOL0     H65484   2.846   2.492   5.955 -0.6573  2.6281 -1.8369
  475MOL0     H65485   3.072   2.467   5.915 -0.0563  0.5328  0.1572
  475MOL0     H65486   2.996   2.315   5.966 -3.9992  1.8355  1.0584
  475MOL0     H65487   2.990   2.271   5.696 -0.3157 -0.2079 -0.0435
  475MOL0     H65488   3.103   2.410   5.692  0.2762  0.4890 -0.2358
  475MOL0     H65489   3.274   2.264   5.815  1.1172 -1.4806 -1.4615
  475MOL0     H65490   3.153   2.152   5.858  0.2569  0.1691 -1.5893
  475MOL0     H65491   3.222   2.217   5.576  1.0542 -0.0394  0.4686
  475MOL0     H65492   3.122   2.080   5.636 -0.0873 -1.1280  0.3029
  475MOL0     H65493   3.414   2.131   5.688 -0.6216  0.7701 -0.9984
  475MOL0     H65494   3.316   1.997   5.757 -2.0598 -1.0003 -1.6353
  475MOL0     H65495   3.419   2.054   5.487  0.0600 -0.7597 -0.9894
  475MOL0     H65496   3.268   1.952   5.500  0.1892 -1.2713  0.2235
  475MOL0     H65497   3.515   1.872   5.647  0.2418  0.4989  0.0387
  475MOL0     H65498   3.375   1.771   5.602 -0.8877  0.6474  2.7187
  475MOL0     H65499   3.617   1.971   5.377 -1.0892  0.5883  0.7494
  475MOL0     H65500   3.695   1.877   5.089  0.9876 -0.0546  0.6034
  475MOL0     H65501   3.690   1.698   5.089  2.2144 -1.0476  0.6451
  475MOL0     H65502   3.875   1.862   5.271 -0.8989 -0.4870  0.4812
  475MOL0     H65503   3.871   1.688   5.252  0.4308  0.5300 -1.3368
  475MOL0     H65504   3.922   1.684   5.026  0.5146  0.0980  0.0812
  475MOL0     H65505   3.947   1.857   5.006  0.2607 -0.6367 -0.7672
  475MOL0     H65506   4.120   1.858   5.158 -1.9373  1.1100 -1.9492
  475MOL0     H65507   4.105   1.688   5.200  2.8641 -1.0181 -1.1087
  475MOL0     H65508   4.313   1.903   5.128  1.4201 -0.3999  1.6720
  475MOL0     H65509   4.503   2.033   5.192  0.3453  1.8279  0.1584
  475MOL0     H65510   4.604   2.057   5.055 -2.2780  1.9052  1.3515
  475MOL0     H65511   4.661   1.938   5.174  1.6551 -0.0101 -2.6114
  475MOL0     H65512   4.850   2.172   4.834 -0.8882 -0.7698  0.7820
  475MOL0     H65513   5.086   2.238   4.803  0.1142 -0.7455 -1.3756
  475MOL0     H65514   5.318   2.107   4.696  0.3454  2.5643 -2.1892
  475MOL0     H65515   5.305   2.266   4.784 -0.9387 -0.9040 -0.0603
  475MOL0     H65516   5.530   2.245   4.717 -0.0328  0.4069  0.9386
  475MOL0     H65517   5.535   2.214   4.889  3.0424  0.5205 -0.4071
  475MOL0     H65518   5.550   2.015   4.649  0.4047  0.2626  0.0358
  475MOL0     H65519   5.517   1.962   4.815  0.2099 -1.2646 -1.3829
  475MOL0     H65520   5.761   1.942   4.774 -1.6065 -1.1957  1.2614
  475MOL0     H65521   5.752   2.080   4.873  3.7322  1.0489 -1.8954
  475MOL0     H65522   5.791   2.088   4.578  1.7835 -1.2638 -0.1928
  475MOL0     H65523   5.733   2.225   4.666  0.9312  0.7598 -0.6653
  475MOL0     H65524   5.925   2.201   4.828 -0.1451  0.3555 -0.6707
  475MOL0     H65525   5.986   2.245   4.671 -0.3013 -0.8425 -1.5064
  475MOL0     H65526   6.002   1.981   4.628  1.0236 -1.4163  0.3542
  475MOL0     H65527   5.990   1.963   4.799 -1.4973  0.1319 -0.4611
  475MOL0     H65528   6.202   2.154   4.666 -0.9946  2.2621  3.1394
  475MOL0     H65529   6.222   1.974   4.702 -1.5144 -0.6569  0.2081
  475MOL0     H65530   5.208   1.887   5.010 -0.3296 -0.2408 -1.7006
  475MOL0     H65531   4.990   1.799   5.007 -4.6836 -0.1883  0.6771
  475MOL0     H65532   4.551   1.639   4.792  2.2953 -1.9804  1.5596
  475MOL0     H65533   4.322   1.600   4.840 -0.9668  0.0201  0.5473
  475MOL0     H65534   2.652   2.653   5.900  0.9766 -3.3925  1.5695
  475MOL0     H65535   2.432   2.672   5.814 -1.0461 -2.0025  0.8996
  475MOL0     H65536   2.103   2.541   5.606 -3.1583 -1.0019 -0.9835
  475MOL0     H65537   1.896   2.503   5.541  0.1019 -2.1783 -2.1434
  475MOL0     H65538   1.655   2.648   5.494  1.3313  1.7871  1.2841
  475MOL0     H65539   1.727   2.788   5.427  4.1667 -1.7170  1.3196
  475MOL0     H65540   1.548   2.814   5.274 -0.6731  0.0849  0.9473
  475MOL0     H65541   1.457   2.722   5.395 -0.4244 -2.3705 -0.0908
  475MOL0     H65542   1.583   2.629   5.139 -0.2062  0.7724 -1.5358
  475MOL0     H65543   1.533   2.517   5.269  0.4475  0.7975 -0.5825
  475MOL0     H65544   1.306   2.584   5.257  0.2678  2.3753  0.3379
  475MOL0     H65545   1.356   2.538   5.096  1.4708 -2.4094  0.9668
  475MOL0     H65546   1.237   2.949   5.056  2.2538  0.8409  0.8626
  475MOL0     H65547   1.933   2.746   5.198 -1.0811 -0.8978  0.1655
  475MOL0     H65548   2.281   2.742   5.195 -0.6011 -0.3934 -0.1448
  475MOL0     H65549   2.129   2.825   5.137 -0.6625 -0.0841 -0.3422
  475MOL0     H65550   2.228   2.905   5.250 -3.4286  2.4342 -2.7397
  476MOL0     O65551   8.120   5.243   9.961  0.1911 -0.1851  0.1272
  476MOL0     C65552   8.086   5.359   9.961  1.0899  1.2069  0.1682
  476MOL0     O65553   8.134   5.462  10.040 -0.2275 -0.8901 -0.1586
  476MOL0     C65554   8.268   5.471  10.067 -0.2369 -0.0570 -0.3678
  476MOL0     C65555   8.301   5.562  10.173  0.7037 -0.0945  0.8223
  476MOL0     C65556   8.438   5.587  10.198  0.3613  0.6629  0.6634
  476MOL0     C65557   8.541   5.527  10.121  0.3096  0.8332  0.7164
  476MOL0     O65558   8.676   5.538  10.140 -0.8951 -0.2628  0.1575
  476MOL0     C65559   8.719   5.676  10.167  0.7264  0.0543  0.6864
  476MOL0     C65560   8.872   5.667  10.192 -0.0102  0.1088  0.1928
  476MOL0     C65561   8.947   5.812  10.160 -0.8978 -0.6144 -0.1302
  476MOL0     C65562   9.090   5.822  10.221 -0.0180 -0.1340  0.1342
  476MOL0     C65563   9.158   5.949  10.211  0.3584  0.1369  0.6824
  476MOL0     C65564   9.295   5.959  10.286  0.3190  0.5082 -0.0030
  476MOL0     C65565   9.368   6.085  10.236  0.1603  0.0126  0.0568
  476MOL0     C65566   9.310   6.213  10.304  0.1980  0.1427 -0.2991
  476MOL0     N65567   9.398   6.328  10.274  0.1479  0.5580  0.6353
  476MOL0     C65568   9.425   6.377  10.149  0.1559  0.5133  0.4825
  476MOL0     C65569   9.503   6.483  10.160  0.0824  0.5200 -0.1141
  476MOL0     C65570   9.573   6.563  10.054  0.4838  0.3806  1.4509
  476MOL0     C65571   9.607   6.705  10.089 -0.5377 -0.3086  0.2170
  476MOL0     C65572   9.649   6.795   9.968 -0.1018 -0.7894  1.2636
  476MOL0     C65573   9.618   6.942   9.973 -0.0104  0.8052 -0.9478
  476MOL0     O65574   9.701   7.013  10.065  0.1102  0.3934  0.1445
  476MOL0     C65575   9.837   7.005  10.050  0.6881  0.3451 -0.1538
  476MOL0     C65576   9.913   6.983  10.168  0.1798  0.5367 -0.1385
  476MOL0     C65577  10.051   6.984  10.172 -0.3855  0.2700  0.3663
  476MOL0     C65578  10.120   6.947  10.293 -0.1053  0.7627  0.1847
  476MOL0     C65579  10.115   7.023  10.046 -0.3997  0.2871  0.7744
  476MOL0     C65580  10.255   7.058  10.021 -0.0420 -0.1691  1.2924
  476MOL0     O65581  10.306   7.053   9.894 -0.4842 -0.2094 -0.7929
  476MOL0     C65582  10.443   7.078   9.880 -0.7499  0.7815  0.1872
  476MOL0     C65583  10.511   7.201   9.897 -0.0624  0.2883 -0.3214
  476MOL0     C65584  10.648   7.221   9.868 -0.2294 -0.6168 -0.2013
  476MOL0     C65585  10.729   7.111   9.839 -0.0696 -0.5619  0.1493
  476MOL0     O65586  10.866   7.113   9.816  0.4180 -0.8616 -0.3259
  476MOL0     C65587  10.938   7.238   9.810 -0.3016  0.6945  0.2615
  476MOL0     C65588  11.084   7.200   9.760 -0.0647 -0.1126 -0.2250
  476MOL0     C65589  11.166   7.331   9.758 -0.1502 -0.4471  1.0463
  476MOL0     C65590  11.298   7.316   9.686 -0.4261  0.0281 -0.1639
  476MOL0     C65591  11.360   7.450   9.663  0.1162 -0.3426  0.3656
  476MOL0     C65592  11.507   7.424   9.612 -0.2162  0.4416 -0.0571
  476MOL0     C65593  11.580   7.551   9.575 -1.0804 -1.0756 -0.5547
  476MOL0     C65594  11.732   7.535   9.564 -0.7381  0.6293 -0.6759
  476MOL0    Cl65595  11.815   7.692   9.527  0.3375  0.5098 -0.1227
  476MOL0     C65596  10.661   6.983   9.835  0.3103 -1.2059 -0.6233
  476MOL0     C65597  10.528   6.968   9.856  0.8388 -1.0996  0.0194
  476MOL0     O65598  10.329   7.054  10.116  0.0365  0.4878 -1.8165
  476MOL0     C65599  10.029   7.046   9.933 -1.6430 -0.0420  0.6280
  476MOL0     C65600   9.894   7.049   9.935 -0.2703  0.4741  0.4505
  476MOL0     N65601   9.520   6.506  10.294  0.6761 -0.4594  0.6098
  476MOL0     N65602   9.459   6.413  10.359  0.0046 -0.0001  0.5885
  476MOL0     C65603   8.503   5.438  10.023  0.7988  0.3672  0.2230
  476MOL0     C65604   8.372   5.399  10.002  0.1075 -0.0554  0.5052
  476MOL0     C65605   7.975   5.398   9.871 -0.7207  0.4804  0.5864
  476MOL0     C65606   7.873   5.304   9.836  0.0035  0.0509 -0.7498
  476MOL0     C65607   7.754   5.343   9.766 -0.5972  0.2872  0.1644
  476MOL0     C65608   7.730   5.471   9.718 -0.1606 -0.1990 -0.1859
  476MOL0     O65609   7.611   5.513   9.658 -0.1174  0.3392  0.1806
  476MOL0     C65610   7.521   5.410   9.623  0.1624  0.5717  0.7214
  476MOL0     C65611   7.415   5.466   9.535 -0.0579  0.4482  0.3712
  476MOL0     C65612   7.285   5.383   9.553 -0.9393 -0.4637  0.5117
  476MOL0     C65613   7.171   5.432   9.461  0.7735 -1.2428 -0.5188
  476MOL0     C65614   7.107   5.562   9.495 -0.5033 -0.5222  0.0011
  476MOL0     C65615   7.056   5.669   9.519  0.2970  0.6081 -0.2179
  476MOL0     C65616   7.840   5.558   9.734  0.1019 -0.9054  0.4391
  476MOL0     C65617   7.962   5.521   9.795 -0.6353  0.5789  0.1500
  476MOL0     C65618   8.073   5.626   9.803 -0.6581 -0.1851 -0.1640
  476MOL0     H65619   8.229   5.613  10.236 -2.1898 -0.0184 -2.3089
  476MOL0     H65620   8.470   5.642  10.286 -2.8882 -0.4288  2.7011
  476MOL0     H65621   8.667   5.714  10.255 -3.5597 -0.8672 -1.2132
  476MOL0     H65622   8.687   5.748  10.091  0.3030  0.4234  1.2030
  476MOL0     H65623   8.901   5.626  10.289 -1.0290 -1.1325  0.0028
  476MOL0     H65624   8.919   5.593  10.126  1.1978  0.4765  0.6096
  476MOL0     H65625   8.953   5.842  10.055 -0.7969  1.6002  0.4496
  476MOL0     H65626   8.892   5.899  10.197 -0.5616 -0.4627  0.0193
  476MOL0     H65627   9.072   5.813  10.329 -1.3638  4.5751  0.5418
  476MOL0     H65628   9.145   5.734  10.187 -0.7355 -0.3142 -0.5616
  476MOL0     H65629   9.093   6.030  10.245  0.4305  0.1005  0.9006
  476MOL0     H65630   9.182   5.976  10.107  1.0526  1.7904  1.2377
  476MOL0     H65631   9.270   5.967  10.392 -1.2073  0.5734 -0.3367
  476MOL0     H65632   9.348   5.864  10.272 -2.0706 -1.4293  2.9167
  476MOL0     H65633   9.346   6.096  10.129 -0.5384  0.2781  0.2276
  476MOL0     H65634   9.475   6.072  10.256  0.7473  0.2633 -2.5547
  476MOL0     H65635   9.210   6.229  10.263 -0.5131 -0.1650  1.2397
  476MOL0     H65636   9.287   6.202  10.411 -3.9877 -0.6303 -1.1108
  476MOL0     H65637   9.405   6.328  10.054 -2.7044  1.5515  0.4518
  476MOL0     H65638   9.503   6.572   9.971 -1.6907  1.9969  3.3246
  476MOL0     H65639   9.657   6.500  10.024 -0.4651 -1.2675  2.0840
  476MOL0     H65640   9.529   6.755  10.147  0.5158  1.1899  0.4064
  476MOL0     H65641   9.692   6.700  10.157  0.2561  1.1628 -0.6087
  476MOL0     H65642   9.750   6.780   9.930  0.2791 -1.0109  2.3339
  476MOL0     H65643   9.577   6.765   9.892 -0.5908  2.2128  0.3790
  476MOL0     H65644   9.629   6.984   9.872  1.7636  1.7770 -0.3956
  476MOL0     H65645   9.518   6.955  10.016  1.2478  1.4367  2.0043
  476MOL0     H65646   9.853   6.959  10.255  0.9368 -0.6677  0.0702
  476MOL0     H65647  10.153   7.041  10.340 -2.6838  2.6977 -1.6200
  476MOL0     H65648  10.211   6.893  10.265  0.0385  2.1130 -2.2396
  476MOL0     H65649  10.051   6.888  10.353 -1.6944  1.8584 -0.5006
  476MOL0     H65650  10.467   7.299   9.918  0.2882  0.6842 -1.3994
  476MOL0     H65651  10.696   7.318   9.881 -0.9915 -0.4076  1.2966
  476MOL0     H65652  10.893   7.305   9.736  3.3708  0.5086 -2.4269
  476MOL0     H65653  10.938   7.293   9.904  1.7078 -2.5835  2.3897
  476MOL0     H65654  11.126   7.131   9.834  0.9127 -0.0191 -0.6793
  476MOL0     H65655  11.090   7.144   9.666  3.4756 -2.2750  1.0885
  476MOL0     H65656  11.182   7.369   9.859 -0.0016 -2.4209  1.8122
  476MOL0     H65657  11.106   7.404   9.704 -1.2994 -1.2776  1.1679
  476MOL0     H65658  11.288   7.257   9.595  2.8573 -1.6342  0.4191
  476MOL0     H65659  11.365   7.261   9.752 -1.5105 -1.1954 -0.0295
  476MOL0     H65660  11.308   7.509   9.588  0.1350  0.9168  1.3106
  476MOL0     H65661  11.358   7.500   9.761  1.7768 -1.7656  1.1879
  476MOL0     H65662  11.505   7.363   9.521 -0.5684  0.7099 -0.2303
  476MOL0     H65663  11.565   7.370   9.688  1.3766  0.6980 -1.0403
  476MOL0     H65664  11.562   7.626   9.652 -3.0053 -0.3091 -1.6857
  476MOL0     H65665  11.541   7.573   9.475  1.9229 -1.3539 -1.8886
  476MOL0     H65666  11.754   7.461   9.486  0.2155 -0.4375  0.5745
  476MOL0     H65667  11.779   7.501   9.656  1.3438  2.2597 -1.0399
  476MOL0     H65668  10.722   6.898   9.805 -0.4146 -1.3464 -1.7749
  476MOL0     H65669  10.488   6.869   9.833  3.4724 -2.0845 -0.7464
  476MOL0     H65670  10.074   7.055   9.834  0.5722 -0.0345  1.5691
  476MOL0     H65671   9.839   7.079   9.846  0.7829  2.1792  0.3389
  476MOL0     H65672   8.572   5.388   9.955 -2.1000 -1.6636 -1.4336
  476MOL0     H65673   8.351   5.321   9.929  0.2379 -1.8663  2.2952
  476MOL0     H65674   7.885   5.203   9.874 -4.0885 -1.7690 -3.6154
  476MOL0     H65675   7.683   5.262   9.745 -1.5616  1.2476 -0.3835
  476MOL0     H65676   7.563   5.332   9.559 -1.8422 -2.4591  2.8449
  476MOL0     H65677   7.483   5.373   9.718  2.6264  1.4435  2.1508
  476MOL0     H65678   7.456   5.479   9.434  1.8483  0.4464  1.0985
  476MOL0     H65679   7.386   5.568   9.563  0.9087  0.3178  1.9885
  476MOL0     H65680   7.312   5.281   9.522  1.7579  0.2889  0.1901
  476MOL0     H65681   7.261   5.386   9.660 -1.4170  0.1915  0.3903
  476MOL0     H65682   7.099   5.352   9.444 -1.1719 -0.2616  2.2831
  476MOL0     H65683   7.210   5.439   9.359  1.4146 -0.5983 -0.2462
  476MOL0     H65684   6.994   5.755   9.535 -0.1179  0.2236  0.2898
  476MOL0     H65685   7.821   5.658   9.696 -0.3885 -0.2307  2.3442
  476MOL0     H65686   8.045   5.715   9.860 -1.1477  0.7740 -1.8344
  476MOL0     H65687   8.166   5.570   9.820 -0.3439 -0.0200 -1.2658
  476MOL0     H65688   8.085   5.670   9.704 -0.0903  0.4526  0.1776
  477MOL0     O65689  10.837  10.559   3.413  0.2706 -0.6681 -0.1668
  477MOL0     C65690  10.901  10.594   3.515  0.2721  0.3465  0.4001
  477MOL0     O65691  11.000  10.510   3.573 -0.0208  0.6067 -0.6905
  477MOL0     C65692  11.090  10.457   3.482 -0.0224  0.7075 -0.3300
  477MOL0     C65693  11.217  10.516   3.462 -0.6319 -0.3353  1.0563
  477MOL0     C65694  11.305  10.458   3.365  0.2136  0.4141  0.8507
  477MOL0     C65695  11.276  10.341   3.296 -0.7303  1.0693 -0.4874
  477MOL0     O65696  11.377  10.292   3.213  0.5068 -0.7068 -0.3930
  477MOL0     C65697  11.380  10.158   3.174 -0.9832 -0.0874  0.3482
  477MOL0     C65698  11.465  10.158   3.045  0.3074  0.2695 -0.5060
  477MOL0     C65699  11.438  10.028   2.964  0.2644  0.2206 -0.6740
  477MOL0     C65700  11.536  10.009   2.852  0.2808  0.3305 -0.5166
  477MOL0     C65701  11.665   9.940   2.891 -1.0228  0.3992  0.5332
  477MOL0     C65702  11.718   9.852   2.774  0.3648  0.2161 -0.5011
  477MOL0     C65703  11.757   9.941   2.650 -0.3883 -0.6746 -0.4342
  477MOL0     C65704  11.881  10.023   2.687 -1.3317 -0.0622  0.2619
  477MOL0     N65705  11.996   9.933   2.720 -0.0697  0.1697 -0.7017
  477MOL0     C65706  12.112   9.986   2.774 -0.3677  0.2236  0.4304
  477MOL0     C65707  12.212   9.891   2.746  0.3949 -0.0545  0.6529
  477MOL0     C65708  12.351   9.911   2.786 -0.3712  0.0459  0.0302
  477MOL0     C65709  12.418  10.033   2.721 -1.2874 -0.6108  0.4885
  477MOL0     C65710  12.564  10.050   2.752 -0.3050 -0.3547  0.7653
  477MOL0     C65711  12.618  10.057   2.894  0.3898  0.4756  0.0182
  477MOL0     O65712  12.754  10.090   2.907  0.0170 -0.3785  0.4986
  477MOL0     C65713  12.853   9.994   2.881 -0.1248 -0.2232 -0.3414
  477MOL0     C65714  12.847   9.856   2.889  0.0038 -1.0910  0.5636
  477MOL0     C65715  12.962   9.775   2.869  0.0495  0.3618 -1.0410
  477MOL0     C65716  12.937   9.626   2.893 -0.3108 -0.7724  1.1430
  477MOL0     C65717  13.090   9.838   2.852 -0.2254 -0.3502 -0.1489
  477MOL0     C65718  13.226   9.786   2.820 -0.5154 -0.3484 -0.4062
  477MOL0     O65719  13.335   9.860   2.834  0.8591 -0.3191 -0.0021
  477MOL0     C65720  13.453   9.805   2.800  0.2414 -0.3899  0.3113
  477MOL0     C65721  13.521   9.812   2.677  0.5388 -0.8400 -0.6055
  477MOL0     C65722  13.646   9.752   2.649 -0.4384  0.2834 -0.7367
  477MOL0     C65723  13.712   9.679   2.753 -0.4635 -0.4576  0.1830
  477MOL0     O65724  13.831   9.615   2.747  0.7343 -0.2029 -0.4580
  477MOL0     C65725  13.915   9.676   2.653 -1.1499  0.4594 -0.3737
  477MOL0     C65726  14.058   9.623   2.660  0.2223 -0.0131  0.6403
  477MOL0     C65727  14.123   9.661   2.796  0.3012  0.3863 -0.4900
  477MOL0     C65728  14.279   9.629   2.809  0.5596  0.6988  0.2855
  477MOL0     C65729  14.304   9.487   2.855 -0.4431 -0.5678 -0.1910
  477MOL0     C65730  14.449   9.438   2.843 -0.5306  0.1320 -0.1022
  477MOL0     C65731  14.531   9.492   2.954  0.0816 -0.0801 -0.3124
  477MOL0     C65732  14.682   9.447   2.939  0.4279  0.8565 -0.1126
  477MOL0    Cl65733  14.763   9.507   3.083  0.1361 -0.2268 -0.4054
  477MOL0     C65734  13.646   9.673   2.875 -0.5805  0.2575  0.4529
  477MOL0     C65735  13.524   9.728   2.899  1.0681 -0.0015  0.5394
  477MOL0     O65736  13.227   9.669   2.775  0.4515  0.0383  0.6999
  477MOL0     C65737  13.094   9.981   2.867 -0.0110  0.8178  0.3014
  477MOL0     C65738  12.980  10.056   2.871 -0.6545 -0.0903 -0.1325
  477MOL0     N65739  12.151   9.794   2.664 -0.0704  0.0524  0.0690
  477MOL0     N65740  12.027   9.820   2.651  0.0112  0.0322  0.5029
  477MOL0     C65741  11.154  10.276   3.325 -0.8794  0.2170  0.1887
  477MOL0     C65742  11.062  10.333   3.422  0.0008 -0.1183  0.2769
  477MOL0     C65743  10.850  10.716   3.583  0.5315  0.0143 -0.1004
  477MOL0     C65744  10.714  10.746   3.552 -0.0051 -0.8102  0.1689
  477MOL0     C65745  10.654  10.851   3.625  0.1641  0.1065 -0.1090
  477MOL0     C65746  10.712  10.924   3.726  0.3246 -0.1061  0.0600
  477MOL0     O65747  10.662  11.026   3.809  0.7278  0.4169  0.0545
  477MOL0     C65748  10.525  11.067   3.774 -0.2909  0.9620  0.2158
  477MOL0     C65749  10.427  10.983   3.853  0.2540 -0.3626 -0.1628
  477MOL0     C65750  10.289  11.040   3.868  0.9882  0.1263 -0.5014
  477MOL0     C65751  10.196  10.951   3.948  0.1318  0.4272 -0.1947
  477MOL0     C65752  10.114  11.037   4.032 -0.2056  0.4958 -0.6658
  477MOL0     C65753  10.042  11.112   4.091 -0.0537  0.1168 -0.5820
  477MOL0     C65754  10.845  10.902   3.742  0.0002 -0.0998  0.0667
  477MOL0     C65755  10.914  10.808   3.674  0.5051 -0.3749  0.4613
  477MOL0     C65756  11.067  10.795   3.700  0.7692 -0.1054  0.9165
  477MOL0     H65757  11.233  10.610   3.513 -0.7423  0.7043 -0.7230
  477MOL0     H65758  11.399  10.506   3.340  0.3707 -0.7622 -1.0300
  477MOL0     H65759  11.279  10.120   3.155 -0.6285 -0.6342 -0.5263
  477MOL0     H65760  11.436  10.098   3.247 -1.8435 -2.5484 -0.8709
  477MOL0     H65761  11.448  10.243   2.979 -0.9674 -0.9860 -1.8486
  477MOL0     H65762  11.568  10.151   3.082  0.2574  1.5828 -0.0738
  477MOL0     H65763  11.434   9.947   3.038 -4.2067  1.8651  1.2282
  477MOL0     H65764  11.335  10.036   2.927  0.6190 -2.3653 -2.4670
  477MOL0     H65765  11.487   9.957   2.769  1.8555 -0.2752 -1.1158
  477MOL0     H65766  11.562  10.110   2.817 -0.4540  1.2498  1.4375
  477MOL0     H65767  11.645   9.863   2.967 -2.0347 -1.5092 -1.5695
  477MOL0     H65768  11.729  10.023   2.924  0.2277 -0.9836  1.7883
  477MOL0     H65769  11.799   9.794   2.819  0.8859  3.1069  2.7113
  477MOL0     H65770  11.639   9.788   2.732 -1.3681  0.8349  1.6226
  477MOL0     H65771  11.679  10.008   2.612  1.6826  1.4795 -1.1532
  477MOL0     H65772  11.778   9.865   2.575  1.0584 -2.5734  1.7540
  477MOL0     H65773  11.899  10.096   2.607  2.6679 -2.1685 -1.0163
  477MOL0     H65774  11.872  10.088   2.774  0.2119  0.9772 -0.3158
  477MOL0     H65775  12.132  10.080   2.825 -1.5342 -0.0555  1.4332
  477MOL0     H65776  12.401   9.818   2.761 -0.7206 -0.7284  2.0405
  477MOL0     H65777  12.355   9.915   2.895  1.4391 -0.4388  0.0079
  477MOL0     H65778  12.410  10.019   2.612 -0.0925  3.0217 -0.2044
  477MOL0     H65779  12.365  10.125   2.747  3.9982  3.5883 -1.7216
  477MOL0     H65780  12.618   9.964   2.710 -2.8606 -0.5653 -2.4571
  477MOL0     H65781  12.600  10.139   2.701  0.1769  0.0609  1.7930
  477MOL0     H65782  12.565  10.127   2.958 -0.7193 -0.3149 -0.0098
  477MOL0     H65783  12.606   9.958   2.940  2.6873  0.8183  1.5476
  477MOL0     H65784  12.757   9.805   2.922  0.3057 -0.4064  2.5708
  477MOL0     H65785  12.962   9.611   2.998  1.9242 -0.3025  0.7315
  477MOL0     H65786  12.993   9.569   2.819 -2.2549 -1.8783  0.4425
  477MOL0     H65787  12.835   9.601   2.863  0.2957 -2.4582  0.3757
  477MOL0     H65788  13.462   9.864   2.602  0.7706 -1.1507 -1.0023
  477MOL0     H65789  13.687   9.770   2.550 -2.5038  1.5042 -1.4314
  477MOL0     H65790  13.874   9.664   2.552  1.3808 -0.0027 -1.4398
  477MOL0     H65791  13.922   9.785   2.665 -0.8279  0.3785  0.1927
  477MOL0     H65792  14.034   9.517   2.648 -1.3948  0.2004  1.6804
  477MOL0     H65793  14.111   9.668   2.576 -2.9651  0.8638 -1.0374
  477MOL0     H65794  14.069   9.606   2.874 -0.7250  2.2047  0.1666
  477MOL0     H65795  14.110   9.769   2.812  1.1161  0.4591 -0.3097
  477MOL0     H65796  14.316   9.704   2.880  0.0558  0.6843  0.5650
  477MOL0     H65797  14.341   9.649   2.721  1.7742  2.3242  1.4427
  477MOL0     H65798  14.277   9.494   2.960  2.8735 -0.0794  0.7492
  477MOL0     H65799  14.248   9.414   2.795  3.1889 -2.1516 -1.9695
  477MOL0     H65800  14.502   9.459   2.749  0.8761 -0.3473  0.5578
  477MOL0     H65801  14.456   9.329   2.844 -0.8690  0.1099  1.1608
  477MOL0     H65802  14.496   9.436   3.042 -1.4636 -1.8168 -1.9581
  477MOL0     H65803  14.517   9.601   2.956  1.2467  0.1318 -2.0270
  477MOL0     H65804  14.724   9.501   2.853  1.9501  3.3325  2.0453
  477MOL0     H65805  14.694   9.338   2.939 -1.1410  0.6368  1.4212
  477MOL0     H65806  13.699   9.622   2.955  0.9300  0.0900 -0.6102
  477MOL0     H65807  13.484   9.714   2.999  0.5287  2.7898  0.8101
  477MOL0     H65808  13.189  10.033   2.857  0.4036 -0.3291 -2.8004
  477MOL0     H65809  12.975  10.165   2.867  1.7169  0.0411 -1.1263
  477MOL0     H65810  11.125  10.186   3.271 -1.0698  1.6430 -2.2354
  477MOL0     H65811  10.963  10.297   3.450 -0.7146  0.2097 -1.6573
  477MOL0     H65812  10.658  10.693   3.476 -1.5665  0.6529  0.2397
  477MOL0     H65813  10.547  10.867   3.615 -0.3857 -1.1604  2.8043
  477MOL0     H65814  10.522  11.173   3.799  2.5095  0.8954  1.1552
  477MOL0     H65815  10.502  11.058   3.668  3.3565 -2.1426 -0.5114
  477MOL0     H65816  10.480  10.969   3.949 -1.6610 -2.2747  0.7115
  477MOL0     H65817  10.416  10.886   3.803 -0.0562 -0.1017 -0.6058
  477MOL0     H65818  10.310  11.132   3.924  3.1142 -1.4868  1.5538
  477MOL0     H65819  10.233  11.062   3.777 -0.8880 -0.3567  0.4949
  477MOL0     H65820  10.254  10.888   4.017 -0.2856 -0.6756 -0.8298
  477MOL0     H65821  10.130  10.893   3.884  0.4803 -0.3867  0.1735
  477MOL0     H65822   9.968  11.174   4.138  0.3825  1.4882 -1.6313
  477MOL0     H65823  10.897  10.960   3.818 -0.5614  0.0160  0.3674
  477MOL0     H65824  11.103  10.847   3.789 -0.3808  1.3142  0.6067
  477MOL0     H65825  11.091  10.691   3.722  1.9280  0.6616  3.6741
  477MOL0     H65826  11.110  10.832   3.606 -1.2238  1.0804  0.3992
  478MOL0     O65827   0.072   5.947   4.881  0.0347 -0.2568 -1.1517
  478MOL0     C65828  -0.017   5.977   4.948  0.4189 -0.2445 -0.1307
  478MOL0     O65829  -0.019   5.962   5.085  0.8590 -0.8268  0.6675
  478MOL0     C65830   0.077   5.892   5.145  0.1536  0.7812  0.0577
  478MOL0     C65831   0.082   5.931   5.281  0.0593  1.4999 -0.4686
  478MOL0     C65832   0.181   5.869   5.364  0.4504  1.2720  0.0119
  478MOL0     C65833   0.271   5.774   5.308 -0.0624 -0.0644  0.6259
  478MOL0     O65834   0.363   5.730   5.399  0.1467 -0.0915 -0.1147
  478MOL0     C65835   0.473   5.648   5.349  0.2807 -0.4512 -0.7471
  478MOL0     C65836   0.576   5.728   5.271 -0.4349 -0.3993 -0.4008
  478MOL0     C65837   0.675   5.819   5.355  0.3507  0.2030 -0.1751
  478MOL0     C65838   0.776   5.898   5.270 -0.1716  0.4574 -0.7273
  478MOL0     C65839   0.903   5.810   5.245  0.0473  0.1221  0.6587
  478MOL0     C65840   1.008   5.908   5.204  1.3131 -0.3473  0.1327
  478MOL0     C65841   1.129   5.827   5.151  0.8064 -0.3367  0.1025
  478MOL0     C65842   1.212   5.762   5.265  0.3167 -1.1335 -0.1138
  478MOL0     N65843   1.287   5.847   5.369 -0.6554 -0.6801  0.0239
  478MOL0     C65844   1.343   5.787   5.486  0.9304  0.0230 -0.2962
  478MOL0     C65845   1.428   5.880   5.529 -0.0266  0.3450 -0.7060
  478MOL0     C65846   1.502   5.875   5.656 -0.5500  0.5019 -0.4452
  478MOL0     C65847   1.512   6.010   5.719  0.0551 -0.9698  0.3825
  478MOL0     C65848   1.578   6.022   5.850  0.5303  0.6553  0.6017
  478MOL0     C65849   1.727   5.988   5.835  0.7845 -0.6527 -0.7632
  478MOL0     O65850   1.786   5.957   5.962  0.1462  0.2636  0.6594
  478MOL0     C65851   1.918   5.921   5.961 -0.1766 -0.2721  0.3020
  478MOL0     C65852   2.007   5.945   5.849 -0.3285 -0.1586 -0.2594
  478MOL0     C65853   2.139   5.902   5.851 -0.8990 -0.7144 -0.1327
  478MOL0     C65854   2.221   5.946   5.730  1.4451  0.3996 -0.8086
  478MOL0     C65855   2.199   5.833   5.967  0.1958  0.5318  0.0242
  478MOL0     C65856   2.348   5.801   5.976  0.4496 -0.2216 -0.1806
  478MOL0     O65857   2.433   5.846   5.876 -0.1574  0.8215 -0.1433
  478MOL0     C65858   2.567   5.818   5.889  0.3845  0.5360 -0.2609
  478MOL0     C65859   2.633   5.733   5.802  0.2230  0.4572 -1.4353
  478MOL0     C65860   2.760   5.690   5.820 -0.1969 -0.5069 -0.2640
  478MOL0     C65861   2.841   5.746   5.921  0.1741  0.5369 -0.1419
  478MOL0     O65862   2.973   5.722   5.924  0.3574  0.4718  0.0901
  478MOL0     C65863   3.033   5.621   5.842  0.7080  0.3211 -0.2460
  478MOL0     C65864   3.039   5.494   5.920  0.1977 -0.3476  0.3231
  478MOL0     C65865   3.168   5.415   5.895 -0.2734  0.5158  0.3047
  478MOL0     C65866   3.198   5.294   5.995 -0.2313  0.9443  0.6359
  478MOL0     C65867   3.346   5.281   5.986 -0.6065  0.2502 -0.2429
  478MOL0     C65868   3.403   5.164   6.068 -0.1538 -0.9473  0.5243
  478MOL0     C65869   3.371   5.158   6.220  0.1976  0.1458  0.6608
  478MOL0     C65870   3.401   5.289   6.284 -0.7119 -1.0462  0.0733
  478MOL0    Cl65871   3.581   5.330   6.292 -0.1335 -0.0409  0.2225
  478MOL0     C65872   2.778   5.835   6.011  0.1436  0.3401 -0.1910
  478MOL0     C65873   2.638   5.869   5.993 -0.5812  0.0757  0.4725
  478MOL0     O65874   2.385   5.734   6.070 -0.0286  0.1595  0.3938
  478MOL0     C65875   2.111   5.810   6.078  1.1203  0.1266 -0.5896
  478MOL0     C65876   1.975   5.854   6.072 -0.7104  0.1465  0.1409
  478MOL0     N65877   1.409   5.997   5.463  0.1396  0.2421  0.0156
  478MOL0     N65878   1.323   5.977   5.365 -0.3127 -0.0567  0.3248
  478MOL0     C65879   0.259   5.730   5.171 -0.7572 -0.7151  0.4881
  478MOL0     C65880   0.165   5.793   5.088 -0.1016  0.2421 -0.6320
  478MOL0     C65881  -0.145   6.048   4.888  0.1645 -0.2665 -0.1506
  478MOL0     C65882  -0.209   6.155   4.965 -1.1389 -0.0209  0.1025
  478MOL0     C65883  -0.314   6.227   4.915  0.9794  0.2461  0.9779
  478MOL0     C65884  -0.349   6.210   4.787  0.4607 -0.0239  0.7009
  478MOL0     O65885  -0.452   6.293   4.746  0.3057 -0.1657  0.3760
  478MOL0     C65886  -0.497   6.299   4.610  0.0157  0.1596  0.0507
  478MOL0     C65887  -0.614   6.202   4.588 -0.0556 -0.2533 -0.1644
  478MOL0     C65888  -0.737   6.208   4.681 -0.3898 -0.0015  0.0932
  478MOL0     C65889  -0.820   6.082   4.684  0.6859  0.0170 -0.1034
  478MOL0     C65890  -0.901   6.048   4.566 -0.1312 -0.2740  0.0732
  478MOL0     C65891  -0.970   6.018   4.477  0.3014 -0.0916  0.2917
  478MOL0     C65892  -0.303   6.103   4.710 -0.3000  0.4484  0.2824
  478MOL0     C65893  -0.195   6.020   4.759 -0.3101 -0.2374  0.0477
  478MOL0     C65894  -0.145   5.894   4.693 -0.2900  0.6386  0.0986
  478MOL0     H65895   0.012   6.003   5.324 -3.9974 -2.5101  0.4145
  478MOL0     H65896   0.171   5.900   5.468  2.3183  2.5202 -0.1431
  478MOL0     H65897   0.440   5.568   5.282  1.4552  0.7140 -2.8177
  478MOL0     H65898   0.521   5.606   5.437 -3.5104  1.8919  2.7871
  478MOL0     H65899   0.635   5.654   5.215 -2.5586 -4.3422  2.0556
  478MOL0     H65900   0.523   5.787   5.196 -3.2833 -2.8710 -0.5329
  478MOL0     H65901   0.621   5.894   5.412 -0.6572  0.5884 -1.5723
  478MOL0     H65902   0.725   5.759   5.431  1.5164  2.5047  0.9482
  478MOL0     H65903   0.736   5.934   5.175  0.0346 -0.8287 -1.3306
  478MOL0     H65904   0.806   5.974   5.342  1.9993  0.5012 -1.5817
  478MOL0     H65905   0.877   5.738   5.168 -0.0985 -0.7164  1.4684
  478MOL0     H65906   0.932   5.748   5.331 -3.8002 -2.4803  0.3273
  478MOL0     H65907   0.963   5.968   5.124 -1.6119 -3.7836 -1.0987
  478MOL0     H65908   1.034   5.978   5.284  1.4703 -2.2687  1.8384
  478MOL0     H65909   1.187   5.906   5.102 -0.1801  1.5446  1.8134
  478MOL0     H65910   1.094   5.747   5.084 -1.2988  0.3834  0.2574
  478MOL0     H65911   1.164   5.676   5.313  2.1718 -2.5975 -0.7365
  478MOL0     H65912   1.288   5.702   5.214  0.6418 -1.3434  0.6047
  478MOL0     H65913   1.324   5.687   5.523 -3.2674  1.2514  1.5361
  478MOL0     H65914   1.606   5.844   5.642 -0.7810 -0.6368  0.2111
  478MOL0     H65915   1.454   5.807   5.727  0.6193  2.2480  2.2006
  478MOL0     H65916   1.548   6.091   5.655 -2.5193  0.9551  1.1864
  478MOL0     H65917   1.410   6.042   5.742  0.3753  1.3946 -1.2396
  478MOL0     H65918   1.554   6.127   5.869 -1.2269  0.3667  0.1428
  478MOL0     H65919   1.532   5.952   5.920  1.6590  0.0455  0.7560
  478MOL0     H65920   1.753   5.911   5.762 -0.4630 -1.8521  0.0282
  478MOL0     H65921   1.781   6.081   5.811  0.7668  0.3792  2.7164
  478MOL0     H65922   1.975   6.007   5.765  0.5185  1.1747  0.3707
  478MOL0     H65923   2.271   6.037   5.765 -0.3686  0.1685  2.7675
  478MOL0     H65924   2.152   5.981   5.652  2.5871  0.7700 -1.6867
  478MOL0     H65925   2.284   5.864   5.695  0.0620 -0.8369 -0.4826
  478MOL0     H65926   2.569   5.682   5.730 -0.8883 -1.8894  1.0455
  478MOL0     H65927   2.796   5.614   5.751  1.5264 -1.3295  1.4436
  478MOL0     H65928   2.983   5.596   5.748  2.4868 -1.8668 -0.6856
  478MOL0     H65929   3.136   5.643   5.810  1.2891 -1.1136  0.5425
  478MOL0     H65930   3.024   5.520   6.025 -2.7232  0.1566 -0.1210
  478MOL0     H65931   2.948   5.447   5.882 -0.5163  1.9836 -1.1069
  478MOL0     H65932   3.259   5.476   5.890  0.4631 -0.5585  0.0766
  478MOL0     H65933   3.157   5.378   5.793  0.8863 -0.0572  0.3671
  478MOL0     H65934   3.145   5.204   5.965  2.0704 -0.2037 -0.2158
  478MOL0     H65935   3.180   5.323   6.099  1.6509  0.2358  1.1871
  478MOL0     H65936   3.385   5.260   5.886  2.0921 -0.2566  0.8306
  478MOL0     H65937   3.402   5.365   6.029  2.6817 -1.8353 -0.1473
  478MOL0     H65938   3.508   5.143   6.044 -0.9267 -1.6213 -2.8120
  478MOL0     H65939   3.379   5.070   6.016  0.8205  0.0147 -1.7986
  478MOL0     H65940   3.437   5.087   6.268  1.3368 -0.8277 -2.1270
  478MOL0     H65941   3.265   5.132   6.227 -0.3191  2.0210  0.4178
  478MOL0     H65942   3.351   5.298   6.381 -0.3565 -1.1332  0.2654
  478MOL0     H65943   3.351   5.369   6.229 -2.5106 -1.9218  0.3526
  478MOL0     H65944   2.835   5.858   6.100 -0.2232 -0.6455  0.3103
  478MOL0     H65945   2.589   5.928   6.070 -1.4293  1.0110 -0.7481
  478MOL0     H65946   2.139   5.766   6.173  1.2184  1.4092 -0.0141
  478MOL0     H65947   1.914   5.846   6.161 -0.3262  0.4414  0.4328
  478MOL0     H65948   0.323   5.657   5.122  1.1597 -0.7509  2.8399
  478MOL0     H65949   0.170   5.762   4.984  1.2644  2.4669 -1.3205
  478MOL0     H65950  -0.171   6.169   5.066 -0.0374  1.0172 -0.4236
  478MOL0     H65951  -0.365   6.306   4.969 -1.4991 -0.2455 -0.4739
  478MOL0     H65952  -0.517   6.400   4.575  0.8549  0.4028  0.2501
  478MOL0     H65953  -0.409   6.267   4.553 -0.3744 -2.5559  0.8152
  478MOL0     H65954  -0.569   6.102   4.588 -2.4508 -1.3994 -0.8725
  478MOL0     H65955  -0.656   6.213   4.487 -1.7101  2.2573  0.7055
  478MOL0     H65956  -0.716   6.232   4.786 -2.4201  0.5375  0.4199
  478MOL0     H65957  -0.796   6.295   4.649  2.1663  1.8869  0.1204
  478MOL0     H65958  -0.890   6.088   4.768 -1.0081  0.7404 -1.5078
  478MOL0     H65959  -0.750   6.001   4.709  1.4759  1.3701  2.4661
  478MOL0     H65960  -1.019   5.998   4.384 -0.9207  2.2417  0.3467
  478MOL0     H65961  -0.341   6.087   4.609  2.0500  0.6930 -0.7227
  478MOL0     H65962  -0.158   5.810   4.761 -1.6691  1.5085  0.9525
  478MOL0     H65963  -0.204   5.865   4.605 -0.3359  0.4858  0.1800
  478MOL0     H65964  -0.039   5.901   4.667 -0.7364  0.3330 -1.9848
  479MOL0     O65965   8.950   8.268   5.775  0.4444 -1.1461 -0.1333
  479MOL0     C65966   8.851   8.198   5.769  0.9680  0.9917  0.3766
  479MOL0     O65967   8.850   8.065   5.729  0.3740 -0.8080 -0.3105
  479MOL0     C65968   8.970   8.008   5.687  0.3980 -0.0550 -0.6755
  479MOL0     C65969   8.983   7.980   5.555 -0.3957  0.1242  0.4577
  479MOL0     C65970   9.106   7.926   5.513 -0.0832  0.2630 -0.8268
  479MOL0     C65971   9.219   7.908   5.598 -0.2565 -0.8812  0.5381
  479MOL0     O65972   9.342   7.882   5.539  0.7207  0.0976 -0.2026
  479MOL0     C65973   9.431   7.811   5.622 -0.2693  0.9714  0.2764
  479MOL0     C65974   9.565   7.802   5.555  0.2514 -0.5493  0.3666
  479MOL0     C65975   9.557   7.708   5.436 -0.2891 -0.0063  0.1960
  479MOL0     C65976   9.496   7.559   5.441 -0.4552  0.2227  0.2341
  479MOL0     C65977   9.546   7.480   5.572  0.0517  0.3411 -0.4199
  479MOL0     C65978   9.701   7.472   5.588 -0.1524  0.5881  0.2201
  479MOL0     C65979   9.746   7.386   5.712  0.7580  0.0699 -0.4020
  479MOL0     C65980   9.709   7.236   5.708 -0.4799 -0.3322 -0.1278
  479MOL0     N65981   9.766   7.167   5.588 -0.1037  0.4826 -0.2648
  479MOL0     C65982   9.896   7.135   5.550  0.3312  0.2517  1.1147
  479MOL0     C65983   9.887   7.078   5.430 -0.1470  0.2628 -0.0459
  479MOL0     C65984   9.997   7.021   5.350 -1.0063 -0.5317 -0.6890
  479MOL0     C65985  10.064   6.900   5.420  0.2356  0.2040  0.4420
  479MOL0     C65986   9.975   6.778   5.437  0.0291 -0.7091  0.2287
  479MOL0     C65987  10.058   6.661   5.462  0.3432  0.5907 -0.4179
  479MOL0     O65988  10.184   6.683   5.543  0.2071  0.2253  0.0811
  479MOL0     C65989  10.251   6.564   5.560 -0.9204  0.4302 -0.0080
  479MOL0     C65990  10.385   6.569   5.591 -0.0448 -0.0914  0.5560
  479MOL0     C65991  10.466   6.459   5.612  0.9871 -0.3428  0.2540
  479MOL0     C65992  10.614   6.488   5.606  0.1882  0.1900  0.2004
  479MOL0     C65993  10.410   6.334   5.608 -0.4938  0.4147  0.5675
  479MOL0     C65994  10.494   6.211   5.632 -0.5034 -0.5523 -0.0424
  479MOL0     O65995  10.589   6.217   5.731  0.0148 -0.1401 -0.2533
  479MOL0     C65996  10.683   6.114   5.749  0.5112 -0.2110 -0.6152
  479MOL0     C65997  10.826   6.135   5.738  0.4681 -0.6125  0.9278
  479MOL0     C65998  10.916   6.026   5.763 -0.8630  0.7913 -0.5934
  479MOL0     C65999  10.864   5.902   5.809 -0.0038 -0.3814 -0.0866
  479MOL0     O66000  10.941   5.793   5.854  0.2116  0.4856 -0.0584
  479MOL0     C66001  11.036   5.733   5.773 -0.3237 -0.2979  0.1559
  479MOL0     C66002  11.096   5.608   5.836  1.0416 -0.4818 -0.0125
  479MOL0     C66003  11.119   5.604   5.977  0.0330 -0.9538 -0.4375
  479MOL0     C66004  11.233   5.705   6.026  0.3638  0.6933 -0.4010
  479MOL0     C66005  11.278   5.673   6.179 -0.0303  0.2798  0.2339
  479MOL0     C66006  11.391   5.758   6.220 -0.0004  1.0162 -0.9666
  479MOL0     C66007  11.419   5.741   6.370 -0.0438 -1.0279 -0.6189
  479MOL0     C66008  11.566   5.777   6.397 -0.1624  0.5991 -0.4084
  479MOL0    Cl66009  11.607   5.744   6.569  0.1156 -0.1864  0.0376
  479MOL0     C66010  10.725   5.886   5.827 -0.3376 -0.3610 -0.6183
  479MOL0     C66011  10.639   5.989   5.795  0.8310 -0.6003 -0.2885
  479MOL0     O66012  10.465   6.103   5.570 -0.2451  0.1989 -0.4063
  479MOL0     C66013  10.267   6.316   5.591 -0.7688  0.3496 -0.2782
  479MOL0     C66014  10.192   6.432   5.570  1.3709 -0.0365  1.1978
  479MOL0     N66015   9.752   7.051   5.402  0.4351  0.0666  0.2301
  479MOL0     N66016   9.685   7.104   5.496 -0.2204 -0.0164  0.0106
  479MOL0     C66017   9.202   7.940   5.730 -0.1746  0.1195  0.1944
  479MOL0     C66018   9.078   7.985   5.780 -0.1715  0.1633  0.5039
  479MOL0     C66019   8.721   8.243   5.825  0.2978  0.2097  1.2953
  479MOL0     C66020   8.615   8.148   5.824  0.4757  0.9502 -0.4043
  479MOL0     C66021   8.483   8.182   5.858 -0.6761  0.7357 -0.4004
  479MOL0     C66022   8.452   8.308   5.894  0.2296  0.2989 -0.6482
  479MOL0     O66023   8.324   8.337   5.936 -0.6776 -0.0719  0.5587
  479MOL0     C66024   8.218   8.255   5.896  0.4368 -0.9609  0.3534
  479MOL0     C66025   8.093   8.329   5.943 -0.0974  0.5942  0.5696
  479MOL0     C66026   8.088   8.346   6.102  0.3930  0.0283  0.6713
  479MOL0     C66027   7.987   8.453   6.141 -0.0362 -0.3162 -0.4149
  479MOL0     C66028   8.019   8.592   6.093 -0.4446 -0.2848 -0.2436
  479MOL0     C66029   8.059   8.700   6.061  0.0398 -0.1803 -0.0843
  479MOL0     C66030   8.544   8.409   5.891  0.3996  0.1315  0.2935
  479MOL0     C66031   8.685   8.382   5.859 -0.0695  0.3713  0.1627
  479MOL0     C66032   8.777   8.506   5.853 -0.2227 -0.3019  0.0729
  479MOL0     H66033   8.903   7.981   5.481  0.4199  1.1918 -0.4391
  479MOL0     H66034   9.116   7.894   5.410 -1.4738 -1.5994 -0.4494
  479MOL0     H66035   9.382   7.715   5.643 -0.7460  1.9230  4.1749
  479MOL0     H66036   9.436   7.855   5.722 -0.9105  1.8857 -0.0801
  479MOL0     H66037   9.599   7.902   5.525  0.2813 -1.3239 -2.5121
  479MOL0     H66038   9.643   7.777   5.627  2.3116 -0.3712 -1.6779
  479MOL0     H66039   9.508   7.766   5.357 -0.8987  1.8438  1.8509
  479MOL0     H66040   9.662   7.697   5.408  1.0822  1.2653  4.2186
  479MOL0     H66041   9.387   7.562   5.434 -0.7275 -1.0771  2.6906
  479MOL0     H66042   9.522   7.489   5.361 -0.9008  1.2407 -0.8388
  479MOL0     H66043   9.519   7.374   5.571  3.5310 -0.6537 -1.4021
  479MOL0     H66044   9.504   7.523   5.663  0.1738 -1.3439  0.4779
  479MOL0     H66045   9.749   7.439   5.495 -0.8298  0.8679 -0.2328
  479MOL0     H66046   9.741   7.573   5.602 -1.3421  1.1391 -0.2365
  479MOL0     H66047   9.714   7.443   5.799 -1.9359 -0.7207 -0.7776
  479MOL0     H66048   9.854   7.400   5.721  0.5344  1.7477 -0.1512
  479MOL0     H66049   9.755   7.201   5.801  2.4417  1.2990 -0.8232
  479MOL0     H66050   9.600   7.231   5.708 -0.5106 -0.2431  1.5293
  479MOL0     H66051   9.982   7.142   5.617  1.0091  2.3533  0.1026
  479MOL0     H66052  10.069   7.100   5.326 -1.3689  0.0332  0.0337
  479MOL0     H66053   9.962   6.984   5.253  1.0006  0.9175 -2.0466
  479MOL0     H66054  10.153   6.874   5.362 -1.2600  1.8358 -2.8196
  479MOL0     H66055  10.095   6.931   5.520  1.3152  0.8391 -0.0791
  479MOL0     H66056   9.903   6.800   5.517  0.2254 -0.8311  0.4395
  479MOL0     H66057   9.916   6.752   5.348  0.7006 -2.7455  0.3196
  479MOL0     H66058   9.995   6.582   5.503 -0.4972  0.2721 -2.2232
  479MOL0     H66059  10.086   6.620   5.365 -1.1597  0.1663 -0.6973
  479MOL0     H66060  10.439   6.663   5.585 -0.2479 -0.0210 -0.5689
  479MOL0     H66061  10.665   6.407   5.554 -2.0074  0.2098 -2.1929
  479MOL0     H66062  10.654   6.508   5.706  0.9389  1.8774 -0.3873
  479MOL0     H66063  10.644   6.583   5.560  1.7155  0.6288  1.9649
  479MOL0     H66064  10.856   6.226   5.688  1.5188 -1.3500  0.1766
  479MOL0     H66065  11.022   6.037   5.745 -0.6248  3.0266  1.6435
  479MOL0     H66066  10.994   5.707   5.675 -1.3595  0.2073  0.4505
  479MOL0     H66067  11.123   5.797   5.756  0.4618 -1.5643 -0.8264
  479MOL0     H66068  11.034   5.521   5.809  0.3577 -0.4108  1.2379
  479MOL0     H66069  11.190   5.601   5.780  1.4575  3.6629 -0.1580
  479MOL0     H66070  11.148   5.506   6.016  2.0399 -0.9034 -1.6180
  479MOL0     H66071  11.029   5.631   6.032 -0.2679  2.4218 -2.3496
  479MOL0     H66072  11.189   5.805   6.022  0.1404  0.6397  0.5272
  479MOL0     H66073  11.322   5.701   5.963  1.2335  1.1045  0.7586
  479MOL0     H66074  11.184   5.679   6.234  0.4637 -0.4530  1.1834
  479MOL0     H66075  11.315   5.570   6.184  0.9531  0.6843  2.2227
  479MOL0     H66076  11.354   5.859   6.200 -3.4612  0.3953  1.5113
  479MOL0     H66077  11.487   5.745   6.169  1.9725  2.2660  2.1638
  479MOL0     H66078  11.400   5.638   6.402  0.0484 -0.2063  2.3792
  479MOL0     H66079  11.356   5.806   6.432  0.4049 -0.9767 -0.2164
  479MOL0     H66080  11.595   5.881   6.378  0.0203  0.6238 -0.0105
  479MOL0     H66081  11.610   5.702   6.331  0.4548  1.1632 -0.6441
  479MOL0     H66082  10.679   5.794   5.859  0.9885 -0.6103  0.6700
  479MOL0     H66083  10.531   5.988   5.805  0.6471  1.1535 -1.5274
  479MOL0     H66084  10.222   6.217   5.587  1.0200 -0.4357 -2.0633
  479MOL0     H66085  10.086   6.413   5.560  1.1402  1.5704  0.2172
  479MOL0     H66086   9.273   7.917   5.810  0.0786 -0.7705 -0.2710
  479MOL0     H66087   9.076   8.023   5.881  0.6526  2.9633 -0.4338
  479MOL0     H66088   8.629   8.048   5.784  2.8135  0.8082  0.6080
  479MOL0     H66089   8.414   8.098   5.855  2.2421 -2.0043  2.0690
  479MOL0     H66090   8.214   8.242   5.788  0.7980 -3.2738  0.5631
  479MOL0     H66091   8.222   8.158   5.947 -0.7528 -1.0745  0.2537
  479MOL0     H66092   8.008   8.279   5.897 -1.7241  2.3916  1.4876
  479MOL0     H66093   8.087   8.431   5.903  0.8062  0.3077 -0.3401
  479MOL0     H66094   8.058   8.249   6.144 -0.0337 -0.6828 -1.1734
  479MOL0     H66095   8.187   8.374   6.138 -0.2568  0.7857  1.9313
  479MOL0     H66096   7.962   8.445   6.247 -2.7601  1.6741 -0.7699
  479MOL0     H66097   7.892   8.428   6.092 -1.2155 -0.7435  1.9746
  479MOL0     H66098   8.106   8.792   6.032  0.0399  0.7405  2.5842
  479MOL0     H66099   8.527   8.511   5.921 -0.5799 -0.0051  0.2269
  479MOL0     H66100   8.830   8.484   5.760 -2.7176 -2.1869 -1.0300
  479MOL0     H66101   8.727   8.603   5.856 -0.4331 -0.4219  0.5971
  479MOL0     H66102   8.846   8.509   5.938 -1.8819  2.6604  1.4510
  480MOL0     O66103   1.110   6.581   2.148 -0.3421 -0.5650  0.3081
  480MOL0     C66104   1.153   6.538   2.256 -0.6082 -0.2360 -0.1871
  480MOL0     O66105   1.284   6.532   2.292  0.0142  0.2773 -0.0313
  480MOL0     C66106   1.376   6.577   2.193 -1.3069  0.5458  0.7056
  480MOL0     C66107   1.490   6.645   2.236 -0.0855  0.1445  0.1929
  480MOL0     C66108   1.594   6.685   2.152  0.4914  0.3102  0.1816
  480MOL0     C66109   1.585   6.650   2.018  0.0088  0.9522 -0.6022
  480MOL0     O66110   1.688   6.691   1.945  0.2650 -0.0410 -0.1925
  480MOL0     C66111   1.687   6.656   1.810 -1.3481 -0.2444 -0.2013
  480MOL0     C66112   1.835   6.666   1.754  1.0639  0.8673  0.4742
  480MOL0     C66113   1.954   6.612   1.830 -0.0727  0.1967 -0.6701
  480MOL0     C66114   1.985   6.465   1.793 -0.9581  0.5943  0.1110
  480MOL0     C66115   2.070   6.388   1.899 -0.9142  0.2071 -0.1885
  480MOL0     C66116   2.204   6.459   1.940  0.0131 -0.1164 -0.5812
  480MOL0     C66117   2.276   6.368   2.039  0.8816  0.3438  0.4166
  480MOL0     C66118   2.397   6.433   2.098  0.5091 -0.3940  0.4860
  480MOL0     N66119   2.478   6.359   2.192 -0.2133  0.2918  0.1530
  480MOL0     C66120   2.554   6.425   2.287 -0.5507 -1.1230  0.4564
  480MOL0     C66121   2.639   6.333   2.340 -0.7745  0.5911 -0.3539
  480MOL0     C66122   2.714   6.358   2.472  0.2154 -0.0292  0.3799
  480MOL0     C66123   2.631   6.428   2.581  0.6529 -0.3444  0.1053
  480MOL0     C66124   2.713   6.443   2.707  0.4195  0.8494 -0.2433
  480MOL0     C66125   2.797   6.576   2.700  0.4920  0.1128  0.1088
  480MOL0     O66126   2.863   6.601   2.826  0.5554  0.2879  0.0978
  480MOL0     C66127   2.970   6.692   2.832 -0.3211  0.3835 -1.0077
  480MOL0     C66128   3.060   6.673   2.939  0.0942 -0.4223  0.4389
  480MOL0     C66129   3.164   6.770   2.951  0.2691  0.3089 -0.1614
  480MOL0     C66130   3.250   6.758   3.076  0.5536 -0.3634 -0.2963
  480MOL0     C66131   3.188   6.871   2.851 -0.7372  0.6439  0.3261
  480MOL0     C66132   3.293   6.974   2.852 -0.1452  0.0672 -0.6329
  480MOL0     O66133   3.350   7.012   2.969  0.2121  0.4061  0.0776
  480MOL0     C66134   3.430   7.133   2.974  0.8262 -0.1960 -0.2471
  480MOL0     C66135   3.554   7.136   3.049  0.5436 -0.0810  0.3744
  480MOL0     C66136   3.635   7.254   3.041  0.4001 -0.1079 -0.0540
  480MOL0     C66137   3.588   7.369   2.975 -0.3827  1.2593 -0.5408
  480MOL0     O66138   3.658   7.482   2.963 -0.4667  0.3364 -0.4860
  480MOL0     C66139   3.769   7.492   3.044 -1.3876  0.0784 -0.1229
  480MOL0     C66140   3.850   7.615   3.010 -0.0283  0.0357  0.1916
  480MOL0     C66141   3.981   7.641   3.090  0.2436  0.3772 -0.2679
  480MOL0     C66142   3.967   7.690   3.242  0.8374 -0.1867 -0.5165
  480MOL0     C66143   4.099   7.753   3.290 -0.4847  0.2689 -0.5734
  480MOL0     C66144   4.117   7.747   3.439  0.0329  0.1329  0.6022
  480MOL0     C66145   4.199   7.867   3.484 -0.2919  0.7264  0.1392
  480MOL0     C66146   4.126   7.998   3.482  0.2678 -0.0915 -0.1139
  480MOL0    Cl66147   4.234   8.124   3.529  0.2287  0.2300  0.2652
  480MOL0     C66148   3.473   7.361   2.894  0.7347  0.6347  0.3654
  480MOL0     C66149   3.392   7.245   2.905 -0.2483 -0.2851  1.2197
  480MOL0     O66150   3.331   7.012   2.744 -0.1856 -0.0709  1.0289
  480MOL0     C66151   3.087   6.886   2.753 -0.2091 -0.3183  0.0578
  480MOL0     C66152   2.981   6.796   2.747 -0.3795 -0.3571 -0.1535
  480MOL0     N66153   2.640   6.215   2.263  0.1278  0.3415  0.5617
  480MOL0     N66154   2.536   6.237   2.172 -0.2761 -1.0975 -0.0863
  480MOL0     C66155   1.471   6.581   1.974  0.0502 -0.0169  0.1126
  480MOL0     C66156   1.376   6.536   2.064 -0.1127  0.1548  0.3806
  480MOL0     C66157   1.061   6.491   2.352  0.6139  0.4190  0.2923
  480MOL0     C66158   1.102   6.497   2.484 -1.2551  0.1828  0.1022
  480MOL0     C66159   1.020   6.458   2.591 -0.6287  0.0567  1.3085
  480MOL0     C66160   0.900   6.395   2.570 -0.2262 -0.8086 -0.1434
  480MOL0     O66161   0.827   6.333   2.669 -0.0633  0.5018  0.0452
  480MOL0     C66162   0.832   6.391   2.797  0.1359 -0.7681  0.3908
  480MOL0     C66163   0.737   6.310   2.892  0.0428 -1.1711  0.4686
  480MOL0     C66164   0.590   6.349   2.853 -0.6954 -0.1871 -0.5812
  480MOL0     C66165   0.496   6.228   2.843 -0.9251 -0.1565 -0.1569
  480MOL0     C66166   0.416   6.205   2.963  0.0295 -0.2237  0.1182
  480MOL0     C66167   0.322   6.202   3.041 -0.2103  0.6788 -0.1098
  480MOL0     C66168   0.864   6.380   2.434 -0.0235  0.1629  0.0835
  480MOL0     C66169   0.938   6.424   2.325 -1.0072 -0.1998  0.0589
  480MOL0     C66170   0.870   6.423   2.200  0.6437 -0.2410 -0.5385
  480MOL0     H66171   1.501   6.679   2.339  0.9701  2.5986 -0.6450
  480MOL0     H66172   1.671   6.737   2.207  1.2164 -2.8062  2.3914
  480MOL0     H66173   1.614   6.713   1.753 -1.3093  0.0314  0.0259
  480MOL0     H66174   1.671   6.548   1.796  1.6860 -0.7803 -0.2593
  480MOL0     H66175   1.839   6.630   1.651 -0.9324  1.9632 -0.0337
  480MOL0     H66176   1.841   6.775   1.752 -2.1246  1.1445 -1.1008
  480MOL0     H66177   2.036   6.684   1.827 -1.7070  2.1987  0.4261
  480MOL0     H66178   1.910   6.605   1.930 -0.1578 -0.5691 -0.7527
  480MOL0     H66179   1.892   6.409   1.783  0.3155 -1.2391 -2.6038
  480MOL0     H66180   2.042   6.469   1.700 -0.5101  2.1118  0.4154
  480MOL0     H66181   2.085   6.288   1.858 -4.0334 -0.6095  0.3842
  480MOL0     H66182   2.006   6.372   1.986 -1.7680  0.7441 -0.6997
  480MOL0     H66183   2.267   6.474   1.852 -1.6250  3.5879 -1.3258
  480MOL0     H66184   2.177   6.555   1.984 -1.5684 -1.2675  1.1209
  480MOL0     H66185   2.319   6.286   1.981 -1.1137  0.7376 -1.7580
  480MOL0     H66186   2.203   6.334   2.114  0.6619  1.7868  0.8924
  480MOL0     H66187   2.464   6.463   2.018  1.7989 -1.2135  1.2104
  480MOL0     H66188   2.362   6.526   2.144  0.4670 -0.7816  1.2597
  480MOL0     H66189   2.546   6.528   2.321 -3.0467 -1.6776  1.8147
  480MOL0     H66190   2.799   6.421   2.445 -0.6002  0.5063 -1.0624
  480MOL0     H66191   2.741   6.258   2.507 -1.2475 -0.6582 -0.2162
  480MOL0     H66192   2.603   6.531   2.558  0.3348 -0.5702 -0.5200
  480MOL0     H66193   2.538   6.376   2.607 -0.0039  2.2117  3.6620
  480MOL0     H66194   2.651   6.434   2.796  0.5123  0.1202 -0.2460
  480MOL0     H66195   2.787   6.362   2.712 -0.8186 -0.3502 -0.5658
  480MOL0     H66196   2.870   6.579   2.619  0.4988 -0.4620  0.0900
  480MOL0     H66197   2.728   6.660   2.688 -0.3007 -0.0611  2.7250
  480MOL0     H66198   3.045   6.588   3.005 -2.3914  0.2746  0.8674
  480MOL0     H66199   3.206   6.823   3.152 -1.3373  1.3459 -2.6813
  480MOL0     H66200   3.352   6.795   3.058 -0.1978  1.1333 -1.7071
  480MOL0     H66201   3.254   6.655   3.111  0.6705 -0.4907 -0.6823
  480MOL0     H66202   3.591   7.044   3.094 -0.9435 -1.3590 -0.9313
  480MOL0     H66203   3.729   7.253   3.095 -0.6686 -0.2403  1.8904
  480MOL0     H66204   3.740   7.507   3.149 -1.3399 -0.4801 -0.0303
  480MOL0     H66205   3.832   7.404   3.029 -1.1613  0.3249 -0.6466
  480MOL0     H66206   3.882   7.599   2.907  1.2485 -0.9313  0.6927
  480MOL0     H66207   3.783   7.701   3.008  0.9040  0.8579 -3.6475
  480MOL0     H66208   4.035   7.716   3.032  1.4543  0.4574  0.9094
  480MOL0     H66209   4.049   7.555   3.085 -0.1187  0.0475  0.2953
  480MOL0     H66210   3.954   7.599   3.301  0.2365  1.6096  2.3346
  480MOL0     H66211   3.879   7.753   3.261  0.7539 -0.8287  1.4155
  480MOL0     H66212   4.181   7.693   3.250  1.3476  0.4491  2.5412
  480MOL0     H66213   4.107   7.852   3.246 -4.6376  0.8812 -0.3936
  480MOL0     H66214   4.186   7.664   3.457  1.3659  1.1718  0.4667
  480MOL0     H66215   4.022   7.730   3.489 -0.6470  1.9851  0.0144
  480MOL0     H66216   4.289   7.869   3.422  0.1299 -1.3629  0.5905
  480MOL0     H66217   4.243   7.846   3.582  0.2366  1.0950 -0.0130
  480MOL0     H66218   4.042   7.996   3.552  1.2649  1.2398  1.1747
  480MOL0     H66219   4.088   8.028   3.384  0.0708 -0.5385 -0.1753
  480MOL0     H66220   3.439   7.444   2.832 -3.0238  0.1038  1.4402
  480MOL0     H66221   3.299   7.250   2.850 -0.6356  3.3479  1.9264
  480MOL0     H66222   3.094   6.972   2.687  0.0255  1.7302  2.5981
  480MOL0     H66223   2.901   6.816   2.677 -0.2367  0.6084 -0.0491
  480MOL0     H66224   1.452   6.562   1.869 -2.8634 -1.1957  0.7457
  480MOL0     H66225   1.303   6.460   2.038  1.3873 -0.5289 -2.1687
  480MOL0     H66226   1.201   6.532   2.513 -0.8238 -2.2788  1.9007
  480MOL0     H66227   1.057   6.464   2.693  2.5919 -1.5804  0.3558
  480MOL0     H66228   0.934   6.386   2.836 -1.0512 -0.0485  3.9616
  480MOL0     H66229   0.811   6.498   2.796  2.8035 -0.1539 -0.8839
  480MOL0     H66230   0.757   6.334   2.996  0.1171 -0.9545  0.4044
  480MOL0     H66231   0.758   6.204   2.873 -0.6075 -0.9333 -1.9109
  480MOL0     H66232   0.544   6.426   2.916  0.4123 -0.9826  1.3070
  480MOL0     H66233   0.591   6.381   2.749  2.3872  0.9324 -0.3189
  480MOL0     H66234   0.543   6.132   2.819  1.7685  1.1787 -0.5516
  480MOL0     H66235   0.427   6.250   2.761  2.2875  2.2448 -2.4437
  480MOL0     H66236   0.253   6.181   3.121  1.6031 -0.9705  1.1261
  480MOL0     H66237   0.770   6.334   2.403  0.6352 -0.8031 -0.5339
  480MOL0     H66238   0.843   6.527   2.185  0.1396 -0.2594  0.2034
  480MOL0     H66239   0.942   6.398   2.120  0.6628  1.5279 -1.1095
  480MOL0     H66240   0.784   6.356   2.191 -0.4940  0.8068  1.9679
  481MOL0     O66241   7.559   8.312   1.628 -1.0797 -0.2680 -0.7222
  481MOL0     C66242   7.486   8.412   1.630 -0.1226  0.6501  0.2224
  481MOL0     O66243   7.486   8.506   1.535  0.4095 -0.1970  0.1520
  481MOL0     C66244   7.571   8.487   1.426 -0.1095 -1.0024 -0.0454
  481MOL0     C66245   7.702   8.530   1.442 -0.4353  0.1604 -0.3090
  481MOL0     C66246   7.796   8.503   1.348  0.6387  0.2780  0.7312
  481MOL0     C66247   7.762   8.435   1.229 -1.1069 -0.1922 -0.4973
  481MOL0     O66248   7.856   8.431   1.137  0.0332 -0.3684  0.6125
  481MOL0     C66249   7.831   8.357   1.018  0.3356  0.1144  0.1816
  481MOL0     C66250   7.958   8.375   0.926  1.1435  0.0536  0.1880
  481MOL0     C66251   8.053   8.262   0.963 -0.5370 -0.1880  0.7934
  481MOL0     C66252   8.194   8.284   0.906  1.3762 -1.7933  0.7144
  481MOL0     C66253   8.282   8.156   0.891  0.2116 -0.4305 -0.0442
  481MOL0     C66254   8.412   8.197   0.826  0.2035  0.4441  0.9195
  481MOL0     C66255   8.465   8.083   0.730  0.4202  0.1793  0.0135
  481MOL0     C66256   8.479   7.949   0.805 -0.0016  0.2242  0.1569
  481MOL0     N66257   8.495   7.838   0.710  0.0875 -0.0427  0.6396
  481MOL0     C66258   8.594   7.826   0.616 -0.4086  0.0246 -0.5254
  481MOL0     C66259   8.566   7.714   0.544  0.0397  0.6142 -0.1885
  481MOL0     C66260   8.637   7.677   0.411 -1.2228 -0.0799 -0.3749
  481MOL0     C66261   8.787   7.664   0.433  1.1386  0.4948  0.6037
  481MOL0     C66262   8.866   7.606   0.315  0.5947 -0.4701  0.6293
  481MOL0     C66263   8.825   7.666   0.179  0.3253 -0.1344 -0.6181
  481MOL0     O66264   8.840   7.810   0.188 -0.4517  0.3928 -0.2281
  481MOL0     C66265   8.819   7.869   0.066 -0.4547  0.0432  0.2829
  481MOL0     C66266   8.850   8.001   0.052  0.4706 -0.1765 -0.2174
  481MOL0     C66267   8.824   8.079  -0.054  0.4922 -0.3918  0.4317
  481MOL0     C66268   8.855   8.224  -0.035  0.1662 -0.0110 -0.0244
  481MOL0     C66269   8.765   8.024  -0.163  0.1550  0.4880  0.3980
  481MOL0     C66270   8.710   8.091  -0.281  0.3011 -0.3531  0.4015
  481MOL0     O66271   8.612   8.017  -0.348 -0.1964  0.6064 -0.6132
  481MOL0     C66272   8.563   8.047  -0.469  0.3569  0.1650 -0.3817
  481MOL0     C66273   8.535   7.929  -0.552  0.1778 -1.4234  0.0069
  481MOL0     C66274   8.490   7.951  -0.694 -0.6852  0.6221 -0.4599
  481MOL0     C66275   8.464   8.081  -0.736 -0.8452  0.1883 -0.2468
  481MOL0     O66276   8.436   8.107  -0.873  0.2486  0.1700 -0.6468
  481MOL0     C66277   8.339   8.201  -0.916  1.2594  0.1265  0.0126
  481MOL0     C66278   8.282   8.135  -1.045 -0.4382  0.7681 -0.9894
  481MOL0     C66279   8.194   8.010  -1.018  0.0888 -0.3584  0.2350
  481MOL0     C66280   8.134   7.934  -1.143  0.8926 -0.7667  0.5218
  481MOL0     C66281   8.031   8.009  -1.230  0.4543  1.0214 -0.9168
  481MOL0     C66282   7.896   7.993  -1.160  0.7794 -0.5613  0.1344
  481MOL0     C66283   7.836   7.853  -1.135  0.3960 -0.3073  0.7042
  481MOL0     C66284   7.694   7.835  -1.180 -0.1940  0.1816  0.5654
  481MOL0    Cl66285   7.617   7.698  -1.077 -0.1642  0.0383 -0.2647
  481MOL0     C66286   8.485   8.192  -0.646  0.3871 -1.0911  0.6777
  481MOL0     C66287   8.532   8.182  -0.514  1.1025  0.2685  0.4168
  481MOL0     O66288   8.752   8.201  -0.318 -0.6281  0.4952  0.1031
  481MOL0     C66289   8.749   7.887  -0.161  0.8004 -0.4099 -0.0409
  481MOL0     C66290   8.763   7.807  -0.046  0.9304 -0.1829  0.4129
  481MOL0     N66291   8.442   7.659   0.592 -0.2690 -0.2195 -1.0245
  481MOL0     N66292   8.405   7.739   0.691  0.1159  0.0380  0.0036
  481MOL0     C66293   7.627   8.401   1.210  0.4030  1.5407 -0.6840
  481MOL0     C66294   7.535   8.412   1.307 -0.0614 -0.8107 -0.5405
  481MOL0     C66295   7.389   8.418   1.753 -0.2215  1.1617  0.7744
  481MOL0     C66296   7.364   8.295   1.825 -0.4352 -0.0240  0.2002
  481MOL0     C66297   7.266   8.295   1.926  0.2249  0.5169 -0.3973
  481MOL0     C66298   7.193   8.407   1.959 -0.2012  0.7154  0.6503
  481MOL0     O66299   7.096   8.383   2.052 -0.2725 -0.0358 -0.0997
  481MOL0     C66300   7.028   8.499   2.106 -0.8127  0.3971 -0.0489
  481MOL0     C66301   6.906   8.552   2.023  0.9797 -0.0816  0.8520
  481MOL0     C66302   6.825   8.432   1.968 -0.5266 -0.4765 -0.0038
  481MOL0     C66303   6.676   8.457   1.952 -0.3466  0.4649 -0.0510
  481MOL0     C66304   6.668   8.577   1.866  0.1906 -0.8999 -0.2990
  481MOL0     C66305   6.648   8.686   1.814  0.2965 -0.0748  0.2238
  481MOL0     C66306   7.223   8.525   1.896 -0.5627  0.0235  0.6733
  481MOL0     C66307   7.317   8.531   1.790  0.2814  0.4588 -0.6676
  481MOL0     C66308   7.330   8.668   1.722  0.7642  0.2086  0.1073
  481MOL0     H66309   7.743   8.577   1.531  1.8148 -1.0506 -0.6363
  481MOL0     H66310   7.899   8.533   1.364  0.7485  1.8801 -2.2551
  481MOL0     H66311   7.741   8.389   0.965  0.2405 -3.2431 -2.0340
  481MOL0     H66312   7.818   8.251   1.041  0.3353 -0.3934 -1.8952
  481MOL0     H66313   7.911   8.366   0.827 -0.4037  1.0887  0.7931
  481MOL0     H66314   8.001   8.475   0.936  3.2072 -0.6094 -1.3542
  481MOL0     H66315   8.076   8.255   1.070  2.0672  1.3881  0.4336
  481MOL0     H66316   8.008   8.166   0.934  2.1759 -1.2404 -0.2238
  481MOL0     H66317   8.171   8.336   0.813  1.4739 -1.7513  0.7140
  481MOL0     H66318   8.256   8.345   0.972  0.5595  0.4073 -0.4550
  481MOL0     H66319   8.230   8.088   0.823 -2.5302  0.8525  0.6199
  481MOL0     H66320   8.297   8.101   0.985 -1.8179 -1.8237 -0.4743
  481MOL0     H66321   8.400   8.294   0.777  0.7208  0.8608  1.5936
  481MOL0     H66322   8.486   8.226   0.901  0.9130  4.8502 -1.1712
  481MOL0     H66323   8.559   8.119   0.688  1.3858 -0.6100  1.4421
  481MOL0     H66324   8.399   8.084   0.642 -0.8571  0.7882  0.9438
  481MOL0     H66325   8.569   7.951   0.867  1.8848  0.3501 -2.4033
  481MOL0     H66326   8.390   7.930   0.865 -0.3510 -0.9812 -0.6991
  481MOL0     H66327   8.681   7.888   0.599  0.3773 -1.0166 -0.3864
  481MOL0     H66328   8.624   7.760   0.340  2.0959 -1.5610 -2.9774
  481MOL0     H66329   8.596   7.587   0.365  2.6217 -1.5734 -1.2030
  481MOL0     H66330   8.818   7.764   0.464 -0.3023  0.2580  3.0994
  481MOL0     H66331   8.802   7.601   0.522  0.2313 -2.9850 -1.4899
  481MOL0     H66332   8.969   7.627   0.342  0.8399  1.2911 -1.3653
  481MOL0     H66333   8.850   7.499   0.299 -2.0605 -0.0456 -0.1962
  481MOL0     H66334   8.884   7.628   0.096  1.9928  0.0025  0.4460
  481MOL0     H66335   8.720   7.642   0.160  0.0386  1.0693 -0.6417
  481MOL0     H66336   8.884   8.052   0.141  0.8591 -2.0721  0.7905
  481MOL0     H66337   8.964   8.237  -0.037 -0.0076  1.6261 -0.4343
  481MOL0     H66338   8.828   8.252   0.068 -1.0737 -0.5654 -0.1855
  481MOL0     H66339   8.809   8.294  -0.105 -1.4115  0.7647  1.7112
  481MOL0     H66340   8.549   7.831  -0.508 -2.5936 -1.6040  0.6767
  481MOL0     H66341   8.486   7.872  -0.768  3.3309 -0.2573  0.0398
  481MOL0     H66342   8.258   8.208  -0.842 -1.2717 -1.0308 -2.4453
  481MOL0     H66343   8.383   8.299  -0.935 -1.8929  1.6299 -0.2477
  481MOL0     H66344   8.220   8.210  -1.094  0.3582  1.1532 -1.4265
  481MOL0     H66345   8.373   8.128  -1.106  0.0368  0.7187 -0.2896
  481MOL0     H66346   8.114   8.036  -0.948 -1.8843  2.4580 -2.7540
  481MOL0     H66347   8.256   7.941  -0.960 -2.2668 -2.0356  0.9369
  481MOL0     H66348   8.088   7.838  -1.117  1.8189 -1.7550 -1.2584
  481MOL0     H66349   8.217   7.908  -1.210  0.3373  0.3198 -0.6220
  481MOL0     H66350   8.072   8.109  -1.249  2.2491  0.7053  0.9070
  481MOL0     H66351   8.026   7.965  -1.329  2.3140  0.4284 -0.7868
  481MOL0     H66352   7.821   8.053  -1.213 -1.4052 -1.3951  2.1267
  481MOL0     H66353   7.904   8.049  -1.067 -2.2415 -0.6911  0.5704
  481MOL0     H66354   7.839   7.834  -1.028  0.7444  0.5522  0.8530
  481MOL0     H66355   7.885   7.767  -1.181  2.1124 -0.6348  2.9617
  481MOL0     H66356   7.687   7.822  -1.289 -4.6332  0.4511  0.6383
  481MOL0     H66357   7.648   7.929  -1.150 -1.9976 -0.5433  0.2162
  481MOL0     H66358   8.477   8.294  -0.682  2.9217 -0.1252  2.5278
  481MOL0     H66359   8.550   8.263  -0.444  1.0940 -0.8598  1.7615
  481MOL0     H66360   8.721   7.840  -0.254  2.9596  1.7673 -1.9456
  481MOL0     H66361   8.743   7.701  -0.058  2.1973 -0.4592  0.5560
  481MOL0     H66362   7.593   8.352   1.119 -2.1171  0.8108  0.5519
  481MOL0     H66363   7.436   8.368   1.300 -0.7075  0.5824 -0.5006
  481MOL0     H66364   7.422   8.206   1.800 -0.9659 -0.2181 -0.3369
  481MOL0     H66365   7.238   8.208   1.984 -0.4430  0.5109 -0.7197
  481MOL0     H66366   7.014   8.474   2.211 -1.3644 -0.0121 -0.2141
  481MOL0     H66367   7.097   8.584   2.111 -1.0826  0.6031  0.1740
  481MOL0     H66368   6.934   8.616   1.938 -0.1693  0.2453  0.7024
  481MOL0     H66369   6.842   8.621   2.079 -0.1537 -0.1680 -0.3069
  481MOL0     H66370   6.861   8.401   1.870 -0.8406 -0.5237 -0.1077
  481MOL0     H66371   6.841   8.352   2.040  2.4494  0.0775  0.0603
  481MOL0     H66372   6.636   8.477   2.052  1.7891  1.3619  0.6801
  481MOL0     H66373   6.621   8.372   1.910  1.1407  0.3157 -1.8563
  481MOL0     H66374   6.628   8.783   1.774 -3.6183 -1.2528 -1.0599
  481MOL0     H66375   7.170   8.619   1.912 -2.9806 -1.1239 -0.0961
  481MOL0     H66376   7.428   8.683   1.676  0.8929 -4.3403 -1.6210
  481MOL0     H66377   7.255   8.681   1.644  2.9146  2.8392 -1.7206
  481MOL0     H66378   7.314   8.741   1.802 -1.1828  0.0046 -0.0654
  482MOL0     O66379   0.539   9.004  11.129  0.1948  0.5873 -1.5823
  482MOL0     C66380   0.513   9.090  11.205  0.3444 -0.3832  0.1829
  482MOL0     O66381   0.597   9.137  11.298  0.2356  0.2788 -0.0993
  482MOL0     C66382   0.732   9.111  11.287 -0.0743  0.0084 -1.1658
  482MOL0     C66383   0.786   8.995  11.340 -0.2044 -0.0737  0.1310
  482MOL0     C66384   0.930   8.986  11.322 -0.3786 -0.0137 -0.1501
  482MOL0     C66385   1.012   9.087  11.272  0.2417  0.1960  0.0688
  482MOL0     O66386   1.143   9.062  11.271  0.2716 -0.0190 -1.2172
  482MOL0     C66387   1.246   9.155  11.258 -0.0094 -0.1074  0.5999
  482MOL0     C66388   1.257   9.260  11.368 -0.2207  0.9832  0.4059
  482MOL0     C66389   1.360   9.219  11.468  0.0470 -0.0456  0.1147
  482MOL0     C66390   1.515   9.232  11.423  0.0703  0.2368  0.0058
  482MOL0     C66391   1.599   9.178  11.532  0.6107 -0.7607 -0.6995
  482MOL0     C66392   1.735   9.232  11.524 -0.3800 -0.3862 -0.1437
  482MOL0     C66393   1.841   9.146  11.598  0.2507 -0.3174  0.1446
  482MOL0     C66394   1.974   9.191  11.542 -0.7017  0.7162  0.2491
  482MOL0     N66395   2.004   9.325  11.599 -0.3859  0.2194  0.0489
  482MOL0     C66396   1.987   9.442  11.528 -0.0149 -0.4428  0.1427
  482MOL0     C66397   2.041   9.539  11.614  0.5362 -0.1915 -0.2348
  482MOL0     C66398   2.040   9.690  11.597  0.0889  0.6533 -0.4568
  482MOL0     C66399   2.177   9.758  11.625 -1.0079  0.0574 -0.5005
  482MOL0     C66400   2.186   9.905  11.584 -0.2195  0.0982  0.0888
  482MOL0     C66401   2.331   9.959  11.610  0.1698  0.4732  0.6787
  482MOL0     O66402   2.350  10.104  11.589  0.1350  0.4667  0.4539
  482MOL0     C66403   2.473  10.143  11.541 -0.8750  0.1028  0.0865
  482MOL0     C66404   2.482  10.201  11.418 -0.4303  0.2561  0.3348
  482MOL0     C66405   2.605  10.218  11.356  0.1657 -0.3225 -0.5122
  482MOL0     C66406   2.603  10.241  11.210 -0.0616 -0.0363  0.7212
  482MOL0     C66407   2.723  10.190  11.431 -0.6707  0.8053  0.3353
  482MOL0     C66408   2.853  10.177  11.363 -1.2608 -0.7504  0.3233
  482MOL0     O66409   2.925  10.292  11.342  0.3625  0.3443  0.3328
  482MOL0     C66410   3.066  10.298  11.324  0.3252 -0.5255 -0.2350
  482MOL0     C66411   3.112  10.374  11.212 -0.2284  0.3337  0.5790
  482MOL0     C66412   3.251  10.386  11.192 -0.1258  0.0037 -0.6898
  482MOL0     C66413   3.346  10.322  11.277 -1.1438 -0.1559 -0.4034
  482MOL0     O66414   3.486  10.322  11.257 -0.4113 -0.6701 -0.2846
  482MOL0     C66415   3.537  10.374  11.134 -0.0199  0.4632 -0.8936
  482MOL0     C66416   3.695  10.363  11.150  0.2590 -0.0264 -0.0671
  482MOL0     C66417   3.748  10.453  11.270  0.1126 -0.0055  0.2699
  482MOL0     C66418   3.890  10.405  11.312 -0.7858 -0.3828 -0.5784
  482MOL0     C66419   3.966  10.513  11.393 -0.2624 -0.3340 -0.0897
  482MOL0     C66420   4.029  10.616  11.299  0.5048 -0.0680 -0.4172
  482MOL0     C66421   4.125  10.706  11.376  0.4102 -0.0979 -0.3306
  482MOL0     C66422   4.058  10.799  11.475  0.0755 -0.2292  0.0299
  482MOL0    Cl66423   3.892  10.869  11.410  0.1337 -0.2182 -0.1693
  482MOL0     C66424   3.293  10.248  11.382 -0.9551  0.0017 -0.0723
  482MOL0     C66425   3.156  10.240  11.416 -0.3304 -0.4157 -0.2566
  482MOL0     O66426   2.892  10.064  11.340 -0.8972  0.3190 -0.3494
  482MOL0     C66427   2.713  10.164  11.574 -0.4656  0.5281  0.1570
  482MOL0     C66428   2.586  10.133  11.620 -1.1183  0.0798 -0.2946
  482MOL0     N66429   2.083   9.477  11.729 -0.0393  0.0611 -0.1516
  482MOL0     N66430   2.047   9.349  11.722  0.6233  0.3144 -0.3674
  482MOL0     C66431   0.955   9.203  11.230 -0.1480 -0.8428 -0.0292
  482MOL0     C66432   0.816   9.213  11.232 -0.2723 -0.1004 -1.0029
  482MOL0     C66433   0.384   9.168  11.204 -0.1672  0.1208  0.2400
  482MOL0     C66434   0.370   9.276  11.287  0.3580  0.0348  0.2617
  482MOL0     C66435   0.249   9.339  11.293 -1.0320  0.4089  0.1135
  482MOL0     C66436   0.137   9.302  11.214  0.0787  0.5382 -0.7456
  482MOL0     O66437   0.008   9.355  11.224  0.3161  0.5973 -0.2726
  482MOL0     C66438  -0.027   9.429  11.344  0.6818  0.9820  0.6925
  482MOL0     C66439  -0.168   9.482  11.312  0.4441  0.4278 -0.5234
  482MOL0     C66440  -0.278   9.378  11.319 -0.8981 -0.1506  0.1596
  482MOL0     C66441  -0.290   9.304  11.179 -0.0862 -0.1594  0.2877
  482MOL0     C66442  -0.416   9.226  11.167 -0.1027  0.5411  0.9484
  482MOL0     C66443  -0.520   9.165  11.142  0.2074  0.1486  0.5433
  482MOL0     C66444   0.157   9.203  11.120 -0.3164 -0.8510  0.5149
  482MOL0     C66445   0.276   9.130  11.112 -0.0903 -0.2389  0.3308
  482MOL0     C66446   0.283   9.012  11.020  0.2193  0.0290  0.1365
  482MOL0     H66447   0.733   8.910  11.382 -0.8099 -1.2750 -2.8286
  482MOL0     H66448   0.969   8.886  11.338 -2.4592 -1.1200 -1.4514
  482MOL0     H66449   1.225   9.196  11.158 -0.3946 -4.0931 -1.1167
  482MOL0     H66450   1.340   9.100  11.247  0.3366  0.2278  1.7756
  482MOL0     H66451   1.300   9.348  11.318  1.2843 -0.6897 -1.3945
  482MOL0     H66452   1.155   9.277  11.404 -0.7705 -1.0030 -0.0776
  482MOL0     H66453   1.345   9.293  11.547 -2.3214 -0.2485 -0.0829
  482MOL0     H66454   1.336   9.128  11.523  3.0793 -1.0296 -0.0088
  482MOL0     H66455   1.535   9.177  11.330  1.5581 -1.4614  1.2628
  482MOL0     H66456   1.538   9.334  11.389 -2.4529  0.4753 -1.2368
  482MOL0     H66457   1.595   9.068  11.530 -0.8591 -0.8928  2.9017
  482MOL0     H66458   1.553   9.203  11.628  1.7368 -2.3127  0.2859
  482MOL0     H66459   1.755   9.251  11.418 -1.1502  1.0481 -0.0533
  482MOL0     H66460   1.735   9.334  11.563  2.4329 -0.2808 -0.2089
  482MOL0     H66461   1.832   9.041  11.569  2.1282 -0.5078  0.1228
  482MOL0     H66462   1.842   9.157  11.707  3.4953  3.7217 -0.0646
  482MOL0     H66463   2.044   9.118  11.584 -1.4067  0.1645  0.5039
  482MOL0     H66464   1.977   9.193  11.433 -3.0028  0.5805  0.1213
  482MOL0     H66465   1.942   9.469  11.433 -0.9387 -1.3543  0.3009
  482MOL0     H66466   1.970   9.726  11.673  0.0579 -1.3002  0.4754
  482MOL0     H66467   1.995   9.715  11.500  0.4845  0.7091 -0.6304
  482MOL0     H66468   2.194   9.743  11.732 -3.7470  1.5890  0.2512
  482MOL0     H66469   2.262   9.713  11.573 -0.4676  1.2555 -0.6851
  482MOL0     H66470   2.159   9.913  11.479  0.5747 -0.9663 -0.2239
  482MOL0     H66471   2.118   9.969  11.641  0.3057  0.8503 -0.1163
  482MOL0     H66472   2.357   9.945  11.715  0.1252  0.9903  0.7634
  482MOL0     H66473   2.400   9.896  11.555 -2.6385 -2.7180  0.5136
  482MOL0     H66474   2.394  10.207  11.354  0.7066 -0.8191 -1.4110
  482MOL0     H66475   2.628  10.159  11.142 -0.9238  1.1289 -1.1174
  482MOL0     H66476   2.664  10.328  11.181  1.1605 -0.4687  1.8959
  482MOL0     H66477   2.501  10.270  11.184  0.5377  1.5203 -0.0824
  482MOL0     H66478   3.054  10.427  11.136  0.0909  3.1376  2.1523
  482MOL0     H66479   3.283  10.446  11.108  0.1942  0.8199 -0.0042
  482MOL0     H66480   3.499  10.318  11.048 -1.8042 -1.1899  0.8777
  482MOL0     H66481   3.517  10.481  11.123  1.9206  1.0246  0.5286
  482MOL0     H66482   3.722  10.257  11.154  0.6895  0.1097  0.7136
  482MOL0     H66483   3.737  10.404  11.057  1.2261 -2.2124 -0.6734
  482MOL0     H66484   3.682  10.418  11.349 -1.4502 -1.2992 -1.5328
  482MOL0     H66485   3.742  10.554  11.228 -0.1544  0.0958  0.5443
  482MOL0     H66486   3.952  10.375  11.226 -0.1128  0.9624 -0.5824
  482MOL0     H66487   3.880  10.310  11.366 -1.7233 -0.2630 -0.5207
  482MOL0     H66488   3.917  10.562  11.478  5.6136  1.0722  3.0594
  482MOL0     H66489   4.042  10.461  11.451 -0.4471 -0.1358  0.3373
  482MOL0     H66490   3.947  10.674  11.254  0.4039 -0.1560 -0.3460
  482MOL0     H66491   4.082  10.570  11.216  0.6402  1.5522 -1.2638
  482MOL0     H66492   4.170  10.768  11.297 -0.5235  2.1560  0.7995
  482MOL0     H66493   4.200  10.650  11.432 -0.8695  0.3730  1.9502
  482MOL0     H66494   4.132  10.875  11.503  1.6771 -0.8607 -2.2118
  482MOL0     H66495   4.041  10.745  11.568  0.6340 -1.2649 -0.4517
  482MOL0     H66496   3.370  10.200  11.441  0.3239  1.2662 -0.6581
  482MOL0     H66497   3.128  10.199  11.513  1.9620  0.1293  0.7218
  482MOL0     H66498   2.809  10.154  11.624 -0.3881  0.8228  0.0690
  482MOL0     H66499   2.570  10.099  11.721  2.0865  1.3544  0.7671
  482MOL0     H66500   1.009   9.295  11.210 -0.8892 -0.5020 -0.4883
  482MOL0     H66501   0.769   9.302  11.194 -2.6900  0.0660  2.0057
  482MOL0     H66502   0.442   9.309  11.361  1.6871  0.7468 -1.2950
  482MOL0     H66503   0.243   9.408  11.376 -3.3494  2.3570 -1.5475
  482MOL0     H66504  -0.031   9.364  11.433 -2.0448 -0.4227 -0.3249
  482MOL0     H66505   0.046   9.509  11.354  0.0267  1.5088  1.4397
  482MOL0     H66506  -0.169   9.537  11.217 -1.4110 -0.2905 -0.9630
  482MOL0     H66507  -0.191   9.560  11.385 -0.4264  0.9238 -1.3014
  482MOL0     H66508  -0.261   9.316  11.408 -0.9271 -0.3457  0.0305
  482MOL0     H66509  -0.375   9.427  11.330  0.3386  2.3436  0.4636
  482MOL0     H66510  -0.204   9.236  11.179 -0.7003 -0.9438  0.1983
  482MOL0     H66511  -0.278   9.372  11.094  0.2445  0.1464  0.5725
  482MOL0     H66512  -0.616   9.124  11.118  0.2505  0.7795 -0.8482
  482MOL0     H66513   0.070   9.173  11.062 -1.9355  1.3740  1.6113
  482MOL0     H66514   0.365   9.033  10.950  1.2207 -0.7816  1.0288
  482MOL0     H66515   0.307   8.916  11.068  1.2879 -1.5836 -3.2651
  482MOL0     H66516   0.188   8.999  10.967  0.6733 -0.0520 -0.6765
  483MOL0     O66517   6.916   6.653  11.099 -0.5948 -0.1955  0.5015
  483MOL0     C66518   6.930   6.601  11.207 -0.5911 -0.5547 -0.0550
  483MOL0     O66519   7.012   6.656  11.304 -0.5841 -0.3784  0.1670
  483MOL0     C66520   7.126   6.726  11.271 -0.1441 -0.2082 -0.6453
  483MOL0     C66521   7.200   6.722  11.150 -0.1162  0.4325 -0.2720
  483MOL0     C66522   7.310   6.798  11.127 -1.3661 -0.0255 -0.4270
  483MOL0     C66523   7.364   6.880  11.230 -0.1739  0.2978 -0.6291
  483MOL0     O66524   7.480   6.959  11.219 -0.1787 -0.3594  0.0492
  483MOL0     C66525   7.558   6.969  11.096 -0.7103 -0.8102 -0.6428
  483MOL0     C66526   7.650   6.845  11.091 -0.2114  0.9265  0.9986
  483MOL0     C66527   7.757   6.838  11.197  0.1502 -1.3062 -0.2706
  483MOL0     C66528   7.840   6.710  11.168 -0.6854  0.2478  0.0536
  483MOL0     C66529   7.949   6.710  11.274  0.5614  0.0084 -0.9350
  483MOL0     C66530   8.025   6.583  11.302  1.2335  0.2741 -1.4532
  483MOL0     C66531   8.143   6.612  11.398  0.2174 -0.1626 -0.8259
  483MOL0     C66532   8.194   6.488  11.472  0.2864  0.3571  0.1414
  483MOL0     N66533   8.325   6.514  11.541  0.7195  0.3157  0.5055
  483MOL0     C66534   8.447   6.555  11.484  0.3554  0.7540  0.2673
  483MOL0     C66535   8.538   6.577  11.585  0.3993  0.5875  0.6462
  483MOL0     C66536   8.680   6.625  11.551  0.1755  0.4070  0.1338
  483MOL0     C66537   8.709   6.775  11.580  1.0606  1.4071 -0.3506
  483MOL0     C66538   8.857   6.796  11.622 -0.7494 -0.2046  1.1336
  483MOL0     C66539   8.969   6.778  11.514 -0.5575 -0.2651 -0.3926
  483MOL0     O66540   8.927   6.846  11.396  1.0574  0.1645  0.0370
  483MOL0     C66541   8.909   6.775  11.273 -0.3734  0.7289  0.1208
  483MOL0     C66542   8.998   6.672  11.238 -0.1206 -0.3629 -0.3071
  483MOL0     C66543   8.978   6.593  11.114  0.0536 -0.3782 -0.5967
  483MOL0     C66544   9.081   6.485  11.083  0.1436  0.8774  1.4424
  483MOL0     C66545   8.868   6.629  11.032 -0.7168  0.0359 -1.0356
  483MOL0     C66546   8.832   6.547  10.919  0.6017  0.3094  0.6339
  483MOL0     O66547   8.726   6.603  10.848 -0.0810  0.0424 -0.1626
  483MOL0     C66548   8.633   6.516  10.790 -0.0185 -0.6465  0.1289
  483MOL0     C66549   8.594   6.389  10.840  0.3081  1.0011  0.5256
  483MOL0     C66550   8.489   6.310  10.787  0.4965 -0.1201  0.0320
  483MOL0     C66551   8.412   6.370  10.683 -0.2594 -0.4591 -0.3080
  483MOL0     O66552   8.294   6.310  10.625  0.6945  0.0140  0.5240
  483MOL0     C66553   8.256   6.179  10.675  0.4920  0.8893  0.2738
  483MOL0     C66554   8.166   6.187  10.803  0.0103 -0.4670  0.1789
  483MOL0     C66555   8.026   6.255  10.782  0.6192 -0.0564  0.5032
  483MOL0     C66556   7.936   6.190  10.678 -0.2882 -0.4328 -0.0787
  483MOL0     C66557   7.793   6.248  10.674  0.0313 -0.3534 -0.4184
  483MOL0     C66558   7.712   6.203  10.808 -0.8778 -0.5517  0.9027
  483MOL0     C66559   7.568   6.258  10.803  0.1431 -0.3469  0.5570
  483MOL0     C66560   7.569   6.414  10.829 -0.9342  0.0713  0.0243
  483MOL0    Cl66561   7.603   6.452  11.002  0.2843 -0.5621  0.0202
  483MOL0     C66562   8.438   6.499  10.638 -0.6223  1.0611  0.8084
  483MOL0     C66563   8.550   6.567  10.690  0.4053 -0.3255  0.7127
  483MOL0     O66564   8.876   6.435  10.895 -0.6958  0.5724  0.6292
  483MOL0     C66565   8.790   6.742  11.070  0.0453  0.5496  0.2197
  483MOL0     C66566   8.809   6.808  11.189  0.1814 -0.1696 -0.0134
  483MOL0     N66567   8.477   6.537  11.701  0.0269  0.6682  0.0944
  483MOL0     N66568   8.350   6.508  11.676  0.5761 -0.0511  0.8377
  483MOL0     C66569   7.297   6.876  11.363  0.2861  0.2449  0.2139
  483MOL0     C66570   7.183   6.795  11.376  0.6264 -0.1661  0.3001
  483MOL0     C66571   6.855   6.479  11.230  0.7207 -0.4287  0.8396
  483MOL0     C66572   6.937   6.369  11.243  0.6775 -0.0351  0.8013
  483MOL0     C66573   6.877   6.241  11.250 -0.7086  0.0442 -0.7996
  483MOL0     C66574   6.743   6.224  11.246  0.4467  0.3124  0.3658
  483MOL0     O66575   6.701   6.097  11.251 -0.3608  0.5667  0.7424
  483MOL0     C66576   6.588   6.045  11.171 -0.4133 -0.1324  0.4477
  483MOL0     C66577   6.615   6.048  11.016  0.2493  0.1591 -0.3313
  483MOL0     C66578   6.497   5.986  10.934  0.2560  0.2207 -0.6108
  483MOL0     C66579   6.346   6.018  10.977 -0.1119 -0.0196 -0.2648
  483MOL0     C66580   6.329   6.157  10.975  1.1707 -0.8542 -0.0155
  483MOL0     C66581   6.310   6.276  10.959  0.0830 -0.4118  0.0567
  483MOL0     C66582   6.658   6.333  11.225 -0.1060 -0.0892 -1.1374
  483MOL0     C66583   6.715   6.461  11.213 -0.0065 -0.3273 -0.5278
  483MOL0     C66584   6.626   6.587  11.201 -1.1950  0.6874 -0.4755
  483MOL0     H66585   7.157   6.660  11.072  2.2085 -1.1677 -0.3654
  483MOL0     H66586   7.358   6.795  11.030  1.2854  1.4167  0.7361
  483MOL0     H66587   7.610   7.064  11.113 -1.1126 -0.9263  1.4301
  483MOL0     H66588   7.482   6.985  11.019 -0.0876 -0.9459 -1.2952
  483MOL0     H66589   7.589   6.754  11.089  1.0892  0.0206  1.6087
  483MOL0     H66590   7.693   6.844  10.990 -3.4397 -0.8995 -0.5251
  483MOL0     H66591   7.830   6.920  11.203  0.1502 -1.3611  0.7982
  483MOL0     H66592   7.714   6.840  11.298  2.7407  2.7039  1.0141
  483MOL0     H66593   7.772   6.625  11.177 -0.9866  0.3466 -1.0823
  483MOL0     H66594   7.898   6.708  11.075  1.9321  0.1991  1.6052
  483MOL0     H66595   7.910   6.740  11.372  1.5080  1.5105 -0.9838
  483MOL0     H66596   8.019   6.786  11.240  1.5508  1.0122  2.8837
  483MOL0     H66597   7.955   6.516  11.351  2.6465  1.5748  2.7268
  483MOL0     H66598   8.057   6.538  11.207  0.2418 -0.0212 -1.6541
  483MOL0     H66599   8.122   6.685  11.476  1.7950 -0.3417 -0.1902
  483MOL0     H66600   8.232   6.638  11.340  1.3117  3.3363  2.0661
  483MOL0     H66601   8.122   6.451  11.547  0.7071  0.2729  0.5094
  483MOL0     H66602   8.207   6.404  11.404 -0.7744  1.5511 -1.5996
  483MOL0     H66603   8.466   6.592  11.384 -0.2754  1.1474  0.2815
  483MOL0     H66604   8.697   6.626  11.443 -0.1894 -1.4234  0.0338
  483MOL0     H66605   8.743   6.568  11.620 -3.7201  2.0166  5.6715
  483MOL0     H66606   8.699   6.842  11.495  0.6397  0.5123 -1.0253
  483MOL0     H66607   8.643   6.813  11.659 -0.5874 -0.1840 -0.8728
  483MOL0     H66608   8.863   6.902  11.647 -0.8491  0.9643 -3.0591
  483MOL0     H66609   8.886   6.733  11.707  0.9199  0.9536  1.4722
  483MOL0     H66610   9.063   6.820  11.551  1.3391 -3.4583 -1.2261
  483MOL0     H66611   8.983   6.670  11.505  1.9125 -0.1809  1.2835
  483MOL0     H66612   9.090   6.661  11.294  0.8519  0.0836 -1.7477
  483MOL0     H66613   9.055   6.391  11.133  3.3415  0.8346  3.2622
  483MOL0     H66614   9.177   6.522  11.120  2.1053 -1.9424 -0.3949
  483MOL0     H66615   9.096   6.458  10.978  0.8249  4.1553  0.6034
  483MOL0     H66616   8.660   6.337  10.908  1.1174 -0.6617 -1.4293
  483MOL0     H66617   8.472   6.212  10.831 -0.2904 -0.5626 -1.1936
  483MOL0     H66618   8.200   6.132  10.594  1.5772  0.1091 -0.0315
  483MOL0     H66619   8.344   6.114  10.681 -0.3705 -0.9359 -3.6448
  483MOL0     H66620   8.151   6.080  10.822  1.1638 -0.7613 -0.4538
  483MOL0     H66621   8.216   6.235  10.887  0.4408 -0.6263  0.0156
  483MOL0     H66622   8.046   6.360  10.758 -2.5993  0.3029 -1.1002
  483MOL0     H66623   7.979   6.265  10.880  2.0963  1.8047  1.0745
  483MOL0     H66624   7.945   6.084  10.704  3.4136  0.0092  1.0896
  483MOL0     H66625   7.968   6.199  10.574 -1.2002 -0.6101 -0.3815
  483MOL0     H66626   7.803   6.356  10.664 -2.3628 -0.2289 -2.6775
  483MOL0     H66627   7.737   6.212  10.587  1.3235 -1.4109 -0.8496
  483MOL0     H66628   7.759   6.234  10.902 -3.2722 -2.3387  2.8380
  483MOL0     H66629   7.708   6.094  10.794  1.4258 -0.3694 -2.2635
  483MOL0     H66630   7.498   6.214  10.875 -2.3276 -0.9171 -1.9904
  483MOL0     H66631   7.530   6.237  10.703  0.1675  0.1841  0.4320
  483MOL0     H66632   7.474   6.455  10.792 -1.0718 -1.5230 -1.5268
  483MOL0     H66633   7.653   6.461  10.777  0.9599  0.3407  3.0524
  483MOL0     H66634   8.378   6.537  10.556 -1.8469 -0.9682  0.7085
  483MOL0     H66635   8.564   6.664  10.642 -2.4344  0.1922  0.7893
  483MOL0     H66636   8.707   6.778  11.009 -0.5656  0.4429  0.9670
  483MOL0     H66637   8.760   6.895  11.232 -2.0440 -2.2850  2.1213
  483MOL0     H66638   7.344   6.926  11.447  1.4943  3.0880 -1.9927
  483MOL0     H66639   7.126   6.789  11.468 -0.8576 -0.3803 -0.6119
  483MOL0     H66640   7.045   6.365  11.255  0.8879 -2.1113 -1.0445
  483MOL0     H66641   6.938   6.152  11.265 -0.9076 -0.2294 -1.5500
  483MOL0     H66642   6.571   5.939  11.196  1.7886 -0.7037 -0.2525
  483MOL0     H66643   6.504   6.113  11.189  0.2989  0.7109  0.5894
  483MOL0     H66644   6.711   6.008  10.982 -0.4497 -1.2523 -0.7402
  483MOL0     H66645   6.616   6.153  10.988 -1.2179  0.0738 -0.7576
  483MOL0     H66646   6.518   6.013  10.831  0.6810  1.2774 -0.2622
  483MOL0     H66647   6.521   5.880  10.937  1.4224  0.4871  1.2286
  483MOL0     H66648   6.315   5.977  11.074 -1.0910  0.7620 -0.2398
  483MOL0     H66649   6.270   5.977  10.910  1.3174 -0.9646 -1.3747
  483MOL0     H66650   6.298   6.383  10.951 -1.5857 -0.5695  0.1414
  483MOL0     H66651   6.550   6.328  11.217 -0.5370  2.8115  1.0917
  483MOL0     H66652   6.644   6.660  11.281  0.5249  2.1868 -2.1158
  483MOL0     H66653   6.629   6.636  11.103  0.4924 -4.1669 -3.2127
  483MOL0     H66654   6.520   6.570  11.222 -0.6597  0.5472  2.5327
  484MOL0     O66655   1.469   3.447   8.301  0.6797 -0.7283  0.7028
  484MOL0     C66656   1.529   3.520   8.379  0.0134  0.0492  0.0788
  484MOL0     O66657   1.665   3.521   8.397 -0.0268 -0.2430  0.0310
  484MOL0     C66658   1.732   3.435   8.317  0.3303 -0.3803 -0.3078
  484MOL0     C66659   1.799   3.317   8.365  0.3241  0.3049  0.2409
  484MOL0     C66660   1.838   3.216   8.274  0.1285 -0.3044 -0.4237
  484MOL0     C66661   1.812   3.233   8.138 -0.6385  0.4983  0.5964
  484MOL0     O66662   1.827   3.127   8.051 -0.5345 -0.2841  0.6380
  484MOL0     C66663   1.913   3.160   7.933  1.3375  0.7065 -0.3694
  484MOL0     C66664   2.063   3.154   7.967 -0.2583  0.5437 -0.2245
  484MOL0     C66665   2.143   3.212   7.847  0.1552  0.2421  0.3733
  484MOL0     C66666   2.293   3.233   7.869 -0.2253  0.8118 -0.4792
  484MOL0     C66667   2.354   3.327   7.769 -0.0436 -0.1197  0.2185
  484MOL0     C66668   2.318   3.293   7.624  0.9276 -0.4957  0.0386
  484MOL0     C66669   2.357   3.148   7.576  0.1684 -0.3052 -0.0489
  484MOL0     C66670   2.322   3.130   7.431 -0.5058  0.6881 -0.1481
  484MOL0     N66671   2.184   3.145   7.421 -0.0761  0.2348  1.2181
  484MOL0     C66672   2.091   3.057   7.454 -0.5333  0.5535  0.5323
  484MOL0     C66673   1.970   3.117   7.434 -0.4891 -0.5538 -0.0526
  484MOL0     C66674   1.840   3.057   7.470  0.5090  0.2607  0.2766
  484MOL0     C66675   1.773   3.140   7.576 -0.5364 -0.6129 -0.6418
  484MOL0     C66676   1.685   3.270   7.533  0.0201  0.8885  0.7153
  484MOL0     C66677   1.646   3.359   7.644 -0.5389  0.1839  0.5733
  484MOL0     O66678   1.527   3.301   7.694 -0.4601  0.1193  0.1810
  484MOL0     C66679   1.454   3.363   7.786 -0.2705  0.3152 -0.3701
  484MOL0     C66680   1.493   3.489   7.841 -0.7648  0.0293 -0.1314
  484MOL0     C66681   1.414   3.568   7.927  0.0904  1.1336 -0.0467
  484MOL0     C66682   1.476   3.688   7.993 -1.0047  0.5558  0.1378
  484MOL0     C66683   1.285   3.522   7.964  0.2126  0.8555 -0.2165
  484MOL0     C66684   1.183   3.600   8.042 -0.5019 -0.0276  0.4900
  484MOL0     O66685   1.102   3.519   8.126 -0.1370  0.0004 -0.1200
  484MOL0     C66686   0.982   3.567   8.174 -1.7366  0.5730 -0.0081
  484MOL0     C66687   0.889   3.658   8.121 -0.6089  0.1008 -0.4805
  484MOL0     C66688   0.776   3.691   8.193  0.2119  0.0707 -0.2281
  484MOL0     C66689   0.749   3.640   8.326 -0.0732  0.0427  0.3483
  484MOL0     O66690   0.638   3.685   8.391  0.6638 -0.2426  0.2425
  484MOL0     C66691   0.581   3.610   8.500 -0.6262  0.5781  0.4756
  484MOL0     C66692   0.441   3.646   8.495 -0.6311 -0.2045  0.1075
  484MOL0     C66693   0.368   3.582   8.377  0.3280  0.4964 -0.2366
  484MOL0     C66694   0.220   3.630   8.380  0.0342 -0.5830  0.2438
  484MOL0     C66695   0.148   3.582   8.256  0.0980  0.4005  0.2514
  484MOL0     C66696   0.012   3.653   8.226  0.6460  0.5473  0.9018
  484MOL0     C66697  -0.050   3.586   8.098  0.3720 -0.5384  1.0159
  484MOL0     C66698   0.029   3.616   7.962  0.3312  0.0993  0.1771
  484MOL0    Cl66699   0.076   3.787   7.949  0.0435 -0.3034  0.0965
  484MOL0     C66700   0.844   3.555   8.382  0.8358  0.0675  0.3254
  484MOL0     C66701   0.957   3.518   8.305  0.6147 -0.1430 -0.9484
  484MOL0     O66702   1.181   3.719   8.035 -0.1044 -0.1427 -0.0022
  484MOL0     C66703   1.245   3.390   7.919 -0.2368  0.3687 -0.8997
  484MOL0     C66704   1.325   3.319   7.823 -0.7892 -0.5488 -0.0354
  484MOL0     N66705   1.989   3.238   7.375  0.3765 -0.2262  0.7864
  484MOL0     N66706   2.117   3.254   7.367 -0.0074 -0.2822 -0.4852
  484MOL0     C66707   1.759   3.347   8.085  0.7137  0.3108  0.3185
  484MOL0     C66708   1.730   3.451   8.176  1.2116  0.4861 -0.6833
  484MOL0     C66709   1.439   3.620   8.451  0.1185 -0.5456 -0.4794
  484MOL0     C66710   1.321   3.653   8.388  0.4040 -0.0447  0.1223
  484MOL0     C66711   1.233   3.749   8.440 -0.2429  0.6458  0.6683
  484MOL0     C66712   1.258   3.805   8.568  0.8501  1.0361 -0.3498
  484MOL0     O66713   1.179   3.906   8.634  0.1799 -0.9053  1.3147
  484MOL0     C66714   1.081   3.970   8.550 -0.2757 -0.1690 -0.5663
  484MOL0     C66715   0.989   4.068   8.627  0.1801  0.5241  0.0897
  484MOL0     C66716   0.925   4.004   8.760 -0.2585  1.1155  0.0457
  484MOL0     C66717   0.831   3.889   8.739 -0.6540  0.3434  0.3882
  484MOL0     C66718   0.721   3.925   8.639 -0.6736  0.7552 -0.5173
  484MOL0     C66719   0.622   3.957   8.564 -0.7281 -0.0257 -0.2130
  484MOL0     C66720   1.369   3.750   8.639  0.3671  0.6105  0.0975
  484MOL0     C66721   1.473   3.672   8.578  0.0549 -0.5793  0.1381
  484MOL0     C66722   1.608   3.657   8.646  0.3544  0.7376  0.5517
  484MOL0     H66723   1.808   3.305   8.472 -1.4018  3.5750  0.8941
  484MOL0     H66724   1.890   3.124   8.298  2.0021 -0.2583 -3.7336
  484MOL0     H66725   1.886   3.254   7.883  0.0949  0.9076  0.6219
  484MOL0     H66726   1.883   3.081   7.863  0.9380 -1.8783  2.5136
  484MOL0     H66727   2.073   3.219   8.055 -3.8818 -0.8996  1.4914
  484MOL0     H66728   2.091   3.050   7.985  2.0442  1.1915  0.1728
  484MOL0     H66729   2.129   3.142   7.764  1.8976  1.1808 -0.7731
  484MOL0     H66730   2.121   3.316   7.821  1.3252  0.5215  0.4527
  484MOL0     H66731   2.312   3.264   7.972 -0.2652 -0.9134  0.0698
  484MOL0     H66732   2.348   3.139   7.875 -2.7471 -0.6641  2.2190
  484MOL0     H66733   2.463   3.327   7.779  0.3489  1.0765 -2.9964
  484MOL0     H66734   2.326   3.427   7.802  0.7790 -0.6606  2.8297
  484MOL0     H66735   2.211   3.308   7.611  1.3613  2.5473 -0.8524
  484MOL0     H66736   2.359   3.374   7.563 -1.1829  0.5532 -0.0874
  484MOL0     H66737   2.310   3.065   7.629 -0.0094 -2.2360 -3.0585
  484MOL0     H66738   2.466   3.143   7.586  0.1749 -0.5718 -0.2721
  484MOL0     H66739   2.368   3.206   7.367 -1.1781 -0.8096 -2.5309
  484MOL0     H66740   2.354   3.027   7.411  1.6718  1.3460 -0.3002
  484MOL0     H66741   2.109   2.960   7.501  3.4349  0.4707 -0.8469
  484MOL0     H66742   1.846   2.953   7.504 -1.1681 -0.5212 -1.5996
  484MOL0     H66743   1.775   3.040   7.383 -2.3517 -0.6253  2.4424
  484MOL0     H66744   1.695   3.078   7.621 -0.9581  1.4338  1.6710
  484MOL0     H66745   1.851   3.173   7.644 -0.4327  1.1747 -1.5685
  484MOL0     H66746   1.751   3.322   7.462  0.1706 -2.5208 -1.9003
  484MOL0     H66747   1.595   3.238   7.481 -1.1468  2.4248  1.7191
  484MOL0     H66748   1.737   3.374   7.703  0.5058  0.2825 -0.9961
  484MOL0     H66749   1.622   3.461   7.612 -1.1751 -0.3724 -0.8202
  484MOL0     H66750   1.577   3.547   7.802 -0.2835 -0.5754 -0.0023
  484MOL0     H66751   1.482   3.669   8.101 -0.5265  0.2207  0.0523
  484MOL0     H66752   1.408   3.773   7.981 -0.9433  0.4510 -1.0698
  484MOL0     H66753   1.573   3.714   7.950 -0.5607 -0.0996  0.7177
  484MOL0     H66754   0.923   3.707   8.029 -0.3427 -1.0989 -1.0372
  484MOL0     H66755   0.705   3.760   8.149  1.5729  1.8349  0.2197
  484MOL0     H66756   0.604   3.505   8.478  1.5063  1.3870 -1.5675
  484MOL0     H66757   0.621   3.622   8.601 -1.5456  0.2965  0.8820
  484MOL0     H66758   0.389   3.623   8.589 -2.2519 -0.0880 -0.7237
  484MOL0     H66759   0.426   3.752   8.475 -1.5219 -0.4825 -0.8017
  484MOL0     H66760   0.374   3.473   8.368 -2.9004  0.2967 -0.9685
  484MOL0     H66761   0.419   3.617   8.286  0.5330  1.4441  0.2296
  484MOL0     H66762   0.217   3.735   8.408  3.1925 -0.3843  0.1946
  484MOL0     H66763   0.173   3.586   8.469 -1.1571  1.4763  0.6864
  484MOL0     H66764   0.208   3.607   8.167  2.1732  2.8375  2.1892
  484MOL0     H66765   0.132   3.474   8.260  1.4525  0.2057  0.7982
  484MOL0     H66766   0.039   3.755   8.198  1.4009 -0.2416 -1.4498
  484MOL0     H66767  -0.065   3.650   8.304 -1.9648 -3.5963 -1.4170
  484MOL0     H66768  -0.153   3.616   8.077  0.9197 -0.0558 -1.1702
  484MOL0     H66769  -0.056   3.478   8.117 -0.4892 -0.7034 -0.0795
  484MOL0     H66770  -0.047   3.589   7.888 -0.2955 -0.5941  1.0417
  484MOL0     H66771   0.113   3.547   7.959  0.8032  0.6633  0.3453
  484MOL0     H66772   0.841   3.503   8.478 -1.3531 -1.3340 -0.4357
  484MOL0     H66773   1.001   3.429   8.348 -1.3572  0.1085  1.8709
  484MOL0     H66774   1.146   3.361   7.952  0.2548  1.0535  1.3854
  484MOL0     H66775   1.272   3.232   7.784  0.9663 -0.9750 -1.6231
  484MOL0     H66776   1.733   3.355   7.980  0.5767  0.5131  0.3679
  484MOL0     H66777   1.696   3.545   8.133 -3.2160 -0.4390  0.2105
  484MOL0     H66778   1.290   3.608   8.294  2.7136 -1.2692 -0.1432
  484MOL0     H66779   1.146   3.781   8.384 -2.2361  0.9572  3.6903
  484MOL0     H66780   1.134   4.031   8.476  0.3738  0.7448  0.6144
  484MOL0     H66781   1.004   3.909   8.501  0.2740  0.3337 -2.1289
  484MOL0     H66782   0.916   4.109   8.557  0.5780  0.1162 -0.5787
  484MOL0     H66783   1.039   4.158   8.663 -0.6168  0.8777  0.3283
  484MOL0     H66784   1.001   3.973   8.832 -0.2150  0.2234 -0.3641
  484MOL0     H66785   0.867   4.077   8.815  1.0564  1.0311  1.6188
  484MOL0     H66786   0.784   3.863   8.834 -0.6937  0.5633  0.4299
  484MOL0     H66787   0.882   3.802   8.698  0.5314  1.3429 -0.3334
  484MOL0     H66788   0.547   3.977   8.491 -0.6674  1.3197  0.0727
  484MOL0     H66789   1.390   3.787   8.739 -2.9180  3.9985 -0.2593
  484MOL0     H66790   1.605   3.685   8.752 -2.6887  0.4052  0.6310
  484MOL0     H66791   1.642   3.553   8.642 -1.1196  0.2374  0.4343
  484MOL0     H66792   1.674   3.720   8.587  0.9130 -0.8378 -0.5557
  485MOL0     O66793   3.813   8.769   3.794  0.1343 -0.2475 -0.5526
  485MOL0     C66794   3.858   8.887   3.793  0.4743 -0.2416 -0.7873
  485MOL0     O66795   3.967   8.938   3.854  0.4049  0.1399  0.4592
  485MOL0     C66796   4.047   8.844   3.913 -0.2154 -0.4856  0.4673
  485MOL0     C66797   4.002   8.771   4.019 -0.3221  0.2198 -0.0045
  485MOL0     C66798   4.082   8.673   4.079  0.0221  0.3451  0.3478
  485MOL0     C66799   4.208   8.642   4.037 -0.4979 -0.8341 -0.8998
  485MOL0     O66800   4.289   8.551   4.107 -0.0414 -0.2724 -0.2831
  485MOL0     C66801   4.430   8.583   4.112 -0.5337 -0.4188 -0.7343
  485MOL0     C66802   4.500   8.496   4.220 -0.7422 -0.6618  0.7258
  485MOL0     C66803   4.647   8.510   4.205  0.2363 -0.0047 -0.4140
  485MOL0     C66804   4.711   8.443   4.330 -0.4906 -0.5636  0.5621
  485MOL0     C66805   4.864   8.397   4.309  0.5256  0.1149 -0.7193
  485MOL0     C66806   4.968   8.498   4.351  0.8265 -0.1375 -0.0690
  485MOL0     C66807   5.099   8.440   4.387  0.8663 -0.1450  0.1660
  485MOL0     C66808   5.108   8.337   4.497  0.1491  0.9182 -0.8484
  485MOL0     N66809   5.029   8.358   4.621 -0.0507 -0.0360  0.2324
  485MOL0     C66810   5.033   8.472   4.701  0.6701  0.2801  0.3646
  485MOL0     C66811   4.944   8.452   4.798 -0.5978 -0.5769  1.3965
  485MOL0     C66812   4.937   8.519   4.933  0.9818  0.1294 -0.8199
  485MOL0     C66813   5.071   8.578   4.973 -0.1388 -0.5149  0.2868
  485MOL0     C66814   5.173   8.465   4.984  0.1105  0.3907 -0.1777
  485MOL0     C66815   5.305   8.544   5.003 -0.3355  0.8701  0.6743
  485MOL0     O66816   5.406   8.463   5.078 -0.4913 -0.1615  0.6530
  485MOL0     C66817   5.540   8.480   5.076  0.7672 -0.7130  0.0513
  485MOL0     C66818   5.596   8.602   5.039 -0.0011 -0.2281  0.3432
  485MOL0     C66819   5.732   8.614   5.034 -1.1839 -0.9578 -0.3125
  485MOL0     C66820   5.786   8.744   4.968 -0.1387  0.3319  0.2533
  485MOL0     C66821   5.816   8.505   5.072 -1.1283 -0.0271  0.4795
  485MOL0     C66822   5.969   8.523   5.087 -0.2874  0.0764  0.4540
  485MOL0     O66823   6.031   8.464   5.198 -0.2614  0.0004  0.0790
  485MOL0     C66824   6.165   8.483   5.226  0.3219  0.8981 -0.6990
  485MOL0     C66825   6.229   8.367   5.261 -0.2900  0.4450  0.3333
  485MOL0     C66826   6.370   8.379   5.279 -0.2146  0.3938  0.5533
  485MOL0     C66827   6.438   8.501   5.265  0.6104  0.3366  0.4150
  485MOL0     O66828   6.571   8.500   5.280  0.3534 -0.1904 -0.4678
  485MOL0     C66829   6.613   8.543   5.411 -0.2935 -0.0632 -1.0653
  485MOL0     C66830   6.770   8.532   5.452  0.6650  0.6587 -0.0804
  485MOL0     C66831   6.808   8.384   5.471 -0.1825  0.3373  0.7809
  485MOL0     C66832   6.946   8.348   5.526 -0.5631  0.4248 -0.1652
  485MOL0     C66833   6.976   8.202   5.510 -0.3660  0.3530  0.2632
  485MOL0     C66834   7.084   8.154   5.607 -0.6751  0.6808  0.7907
  485MOL0     C66835   7.110   8.002   5.596 -0.4291 -0.5704  0.4448
  485MOL0     C66836   7.254   7.965   5.642  0.5255  0.4059 -0.1606
  485MOL0    Cl66837   7.341   7.879   5.513  0.4812  0.7792  0.2656
  485MOL0     C66838   6.368   8.618   5.243 -0.3183  0.1264 -0.3314
  485MOL0     C66839   6.228   8.608   5.220 -0.2409  0.7421 -0.6011
  485MOL0     O66840   6.030   8.580   4.999  0.1169 -0.0938 -0.5207
  485MOL0     C66841   5.761   8.387   5.123 -0.4400  0.3190 -0.0901
  485MOL0     C66842   5.619   8.377   5.126 -0.2100  1.2219 -0.3872
  485MOL0     N66843   4.872   8.338   4.759  0.8486 -0.3048  0.0796
  485MOL0     N66844   4.916   8.296   4.649  0.2517 -0.0725 -0.0028
  485MOL0     C66845   4.254   8.723   3.926 -0.2654  0.0539 -0.4796
  485MOL0     C66846   4.182   8.823   3.868 -0.3503 -0.0582 -0.1569
  485MOL0     C66847   3.792   8.995   3.723 -0.4391  0.7473  0.1599
  485MOL0     C66848   3.840   9.132   3.708  0.1637 -0.5296  0.1417
  485MOL0     C66849   3.777   9.222   3.624  0.7693  1.2867 -0.0541
  485MOL0     C66850   3.654   9.185   3.570 -1.1952  0.5048 -0.0858
  485MOL0     O66851   3.602   9.284   3.489 -0.3273  0.6721  0.5610
  485MOL0     C66852   3.510   9.254   3.387  0.3445  0.2457  0.9186
  485MOL0     C66853   3.577   9.185   3.268 -0.4265  0.1808 -0.1215
  485MOL0     C66854   3.465   9.088   3.211  0.3366 -0.2372  1.1262
  485MOL0     C66855   3.498   9.020   3.073  0.2176  0.0136 -0.2713
  485MOL0     C66856   3.524   9.120   2.972 -0.7077 -1.5297 -0.9210
  485MOL0     C66857   3.533   9.182   2.866  1.2069 -0.1397 -0.2587
  485MOL0     C66858   3.590   9.065   3.599  0.6617 -0.0507 -0.8887
  485MOL0     C66859   3.654   8.970   3.676  0.0983  0.3101  0.7702
  485MOL0     C66860   3.560   8.856   3.715 -0.2605  0.0312  0.3795
  485MOL0     H66861   3.903   8.779   4.063  0.1459 -2.3590  1.7780
  485MOL0     H66862   4.041   8.618   4.163  0.4785  1.9024  1.6291
  485MOL0     H66863   4.446   8.691   4.117  1.0022 -0.6893  1.6475
  485MOL0     H66864   4.477   8.543   4.022  0.9337  1.3688 -0.8050
  485MOL0     H66865   4.472   8.548   4.312  0.8819  1.3812  0.1420
  485MOL0     H66866   4.460   8.394   4.228 -1.7432 -0.1953  2.2038
  485MOL0     H66867   4.680   8.459   4.114 -0.3226 -0.2722 -0.4717
  485MOL0     H66868   4.668   8.617   4.201  2.6611 -0.4480 -1.3606
  485MOL0     H66869   4.712   8.521   4.407 -0.8421  1.9884 -1.8632
  485MOL0     H66870   4.659   8.350   4.353  0.0013 -0.9569  0.1240
  485MOL0     H66871   4.883   8.369   4.205 -1.2447  0.8029 -1.2664
  485MOL0     H66872   4.879   8.307   4.371  0.4892 -0.7240 -1.9064
  485MOL0     H66873   4.969   8.565   4.264  0.7356  0.0689  0.0892
  485MOL0     H66874   4.929   8.549   4.440  2.2785 -0.9155  1.0473
  485MOL0     H66875   5.152   8.529   4.422 -1.0066  0.2211  2.2675
  485MOL0     H66876   5.165   8.398   4.310  0.2525 -1.7181  0.4604
  485MOL0     H66877   5.097   8.239   4.449  0.3668  1.8227 -2.8735
  485MOL0     H66878   5.212   8.342   4.530 -0.1096  0.8117 -0.0034
  485MOL0     H66879   5.098   8.557   4.686 -0.5499  1.1617 -0.1534
  485MOL0     H66880   4.903   8.448   5.009  0.1717  2.7615  1.4209
  485MOL0     H66881   4.859   8.595   4.932  1.6928  1.0325  1.9953
  485MOL0     H66882   5.089   8.654   4.897 -1.2236 -1.5767 -1.0912
  485MOL0     H66883   5.058   8.638   5.064  0.9561 -0.4326  0.3964
  485MOL0     H66884   5.144   8.405   5.071 -2.2516  2.3026  0.4796
  485MOL0     H66885   5.177   8.396   4.900 -3.4654  1.0355 -1.0235
  485MOL0     H66886   5.335   8.551   4.898 -0.6188  0.8256  0.5903
  485MOL0     H66887   5.295   8.643   5.047  0.6837  1.1188  0.3677
  485MOL0     H66888   5.529   8.681   5.007 -0.1096  0.0793  1.2916
  485MOL0     H66889   5.848   8.717   4.883  0.1921 -1.1892  0.9440
  485MOL0     H66890   5.848   8.793   5.044  1.4094 -0.0095 -0.7521
  485MOL0     H66891   5.711   8.821   4.947 -0.1327  0.7266  1.5831
  485MOL0     H66892   6.176   8.273   5.259 -0.3450  0.4638  0.8631
  485MOL0     H66893   6.411   8.281   5.303  1.3116  0.6158 -0.9567
  485MOL0     H66894   6.590   8.650   5.418 -2.2066 -0.5223  0.5845
  485MOL0     H66895   6.552   8.486   5.482 -1.2242 -1.1447 -2.6635
  485MOL0     H66896   6.830   8.570   5.369 -1.4230  1.1629 -1.4604
  485MOL0     H66897   6.797   8.587   5.542 -0.5146  1.2947 -0.0951
  485MOL0     H66898   6.808   8.348   5.368  0.5072  2.6232 -0.0833
  485MOL0     H66899   6.733   8.328   5.528 -1.3508  0.1967 -0.8151
  485MOL0     H66900   6.943   8.367   5.633 -1.1824  0.0450 -0.1096
  485MOL0     H66901   7.026   8.415   5.494 -1.2538  2.0256  1.3039
  485MOL0     H66902   6.885   8.147   5.536  0.7998 -0.3709  3.1811
  485MOL0     H66903   7.003   8.182   5.406  3.4628  0.6415  1.0831
  485MOL0     H66904   7.066   8.175   5.713 -0.4247  0.1343  0.9457
  485MOL0     H66905   7.174   8.209   5.577 -0.0203 -1.9910 -2.7972
  485MOL0     H66906   7.105   7.975   5.490  3.8393  2.5445 -0.8154
  485MOL0     H66907   7.031   7.943   5.644 -1.1084  0.2526  0.3737
  485MOL0     H66908   7.238   7.899   5.728  0.2500 -0.9812 -1.2338
  485MOL0     H66909   7.318   8.052   5.661  1.2077 -0.1782  0.2725
  485MOL0     H66910   6.415   8.714   5.223 -0.8048  0.1495 -1.4435
  485MOL0     H66911   6.189   8.697   5.172  0.5291  1.1380 -0.4929
  485MOL0     H66912   5.829   8.303   5.137 -0.8849 -0.6902 -3.1920
  485MOL0     H66913   5.576   8.281   5.154  0.1146 -0.1035 -3.9341
  485MOL0     H66914   4.358   8.702   3.900  1.0565  1.6949  2.8937
  485MOL0     H66915   4.224   8.873   3.781 -0.5218  1.2960  0.5034
  485MOL0     H66916   3.933   9.160   3.755  0.3806  1.0637 -1.1609
  485MOL0     H66917   3.809   9.323   3.598 -1.0123  2.2035  1.1293
  485MOL0     H66918   3.424   9.203   3.431  1.5077 -1.9046  0.8094
  485MOL0     H66919   3.474   9.352   3.352  1.2681 -0.1500 -1.2820
  485MOL0     H66920   3.654   9.118   3.307  0.8369  2.5868  1.7860
  485MOL0     H66921   3.617   9.252   3.191  0.2252 -2.0592 -1.8490
  485MOL0     H66922   3.433   9.016   3.287  0.9113 -0.7532  0.8990
  485MOL0     H66923   3.374   9.146   3.198  0.5378 -0.0405  0.5535
  485MOL0     H66924   3.412   8.966   3.031 -4.0587  2.9325  3.7683
  485MOL0     H66925   3.581   8.953   3.096 -1.9887 -3.0481 -0.5887
  485MOL0     H66926   3.527   9.224   2.768  0.7181  0.9508  0.2096
  485MOL0     H66927   3.482   9.062   3.584  0.4409  0.4713  0.4473
  485MOL0     H66928   3.458   8.896   3.711 -0.2768 -0.1027 -2.2377
  485MOL0     H66929   3.558   8.766   3.653 -1.7420 -2.2913  3.5032
  485MOL0     H66930   3.575   8.831   3.821  0.7865  0.5924  0.3749
  486MOL0     O66931  11.305   2.878   9.988 -0.3452  0.3411 -0.6251
  486MOL0     C66932  11.261   2.959   9.907  0.3488  0.6641  0.3883
  486MOL0     O66933  11.334   3.030   9.813 -0.1781  0.6770  0.2700
  486MOL0     C66934  11.466   2.996   9.791 -0.9849  0.2203 -0.0318
  486MOL0     C66935  11.488   2.895   9.695  0.3941 -0.1809 -0.0123
  486MOL0     C66936  11.623   2.880   9.644  0.7847  0.1762  0.0986
  486MOL0     C66937  11.733   2.949   9.700  0.7042 -0.3335 -0.1460
  486MOL0     O66938  11.864   2.940   9.668  0.0467  0.7895 -0.2042
  486MOL0     C66939  11.905   2.889   9.543 -0.1495 -0.1870 -0.1141
  486MOL0     C66940  12.017   2.968   9.499 -0.4310 -0.5678 -0.2084
  486MOL0     C66941  12.148   2.924   9.566 -0.6285 -1.5048 -0.4760
  486MOL0     C66942  12.261   3.030   9.542  0.4080 -0.1453 -0.0996
  486MOL0     C66943  12.313   3.059   9.399 -0.5920 -0.6559 -0.1207
  486MOL0     C66944  12.447   3.145   9.403  0.0734  1.0448  0.4478
  486MOL0     C66945  12.521   3.111   9.279 -0.4584 -0.0038 -0.1514
  486MOL0     C66946  12.637   3.211   9.236  0.2004  0.8975 -0.9609
  486MOL0     N66947  12.768   3.164   9.286  0.0882  0.8682 -0.7732
  486MOL0     C66948  12.852   3.079   9.217  0.2089 -0.8609  0.5970
  486MOL0     C66949  12.961   3.068   9.289  0.0103  0.3023  0.3682
  486MOL0     C66950  13.086   2.999   9.247  0.6666  0.0630 -0.3983
  486MOL0     C66951  13.193   2.989   9.343 -0.1168  0.0304  0.0368
  486MOL0     C66952  13.257   3.127   9.375  0.4608  0.0249 -0.8882
  486MOL0     C66953  13.296   3.210   9.254  0.6451  0.1037 -1.2577
  486MOL0     O66954  13.389   3.135   9.168  0.1635  0.4486 -0.3878
  486MOL0     C66955  13.517   3.138   9.202 -0.5667  0.3710  0.0745
  486MOL0     C66956  13.603   3.073   9.117 -0.2624 -0.6758 -0.3837
  486MOL0     C66957  13.742   3.079   9.142  0.6023 -0.7204  0.5906
  486MOL0     C66958  13.825   3.004   9.049 -0.4035  0.3691  0.0705
  486MOL0     C66959  13.789   3.155   9.251  0.4508 -0.0744  0.4466
  486MOL0     C66960  13.933   3.169   9.265  0.1079 -0.0113  0.1942
  486MOL0     O66961  13.986   3.115   9.368 -0.3023 -0.6864 -0.5038
  486MOL0     C66962  14.120   3.087   9.392 -0.3421  0.4443  0.1243
  486MOL0     C66963  14.140   2.980   9.478  0.2854 -0.1054  1.3156
  486MOL0     C66964  14.262   2.931   9.519 -0.4126 -0.5020  1.0246
  486MOL0     C66965  14.383   2.981   9.455 -0.7672  1.3415  0.4853
  486MOL0     O66966  14.507   2.945   9.495 -0.5000 -0.3830  0.2685
  486MOL0     C66967  14.532   2.810   9.533  0.3308  0.3316 -0.0927
  486MOL0     C66968  14.574   2.800   9.679 -0.0354  0.6743  0.5992
  486MOL0     C66969  14.722   2.848   9.704 -0.3909  0.2141 -0.4191
  486MOL0     C66970  14.759   2.845   9.852  0.1553  0.3938  0.2921
  486MOL0     C66971  14.863   2.950   9.880 -0.2872 -0.5117 -0.8060
  486MOL0     C66972  14.998   2.915   9.808 -0.8063 -0.2338  0.2296
  486MOL0     C66973  15.114   3.015   9.842  0.7662  0.4794  0.0470
  486MOL0     C66974  15.233   2.993   9.743 -0.5587 -0.4693 -0.4517
  486MOL0    Cl66975  15.336   2.842   9.762  0.3655 -0.0473  0.5075
  486MOL0     C66976  14.360   3.071   9.351  0.0340 -1.0147  0.3580
  486MOL0     C66977  14.233   3.125   9.318  0.3402 -0.4215  0.1006
  486MOL0     O66978  13.984   3.244   9.182 -0.5069  0.0716 -0.6377
  486MOL0     C66979  13.704   3.216   9.340  0.8196 -0.0672  0.2045
  486MOL0     C66980  13.572   3.204   9.313 -0.8703 -0.2662  0.4716
  486MOL0     N66981  12.950   3.141   9.400  0.4684  0.7556 -0.3678
  486MOL0     N66982  12.831   3.195   9.402  0.3038 -0.3036 -0.3834
  486MOL0     C66983  11.704   3.041   9.799  0.0266 -0.4050  0.2708
  486MOL0     C66984  11.573   3.075   9.839 -0.0701  0.1598  0.2248
  486MOL0     C66985  11.120   2.994   9.920 -0.5152 -0.5195 -0.0201
  486MOL0     C66986  11.070   3.067   9.809 -0.7633  0.1513  0.2893
  486MOL0     C66987  10.939   3.115   9.818 -0.8400 -0.2888 -0.4554
  486MOL0     C66988  10.848   3.079   9.912  0.0997  0.5307  0.1960
  486MOL0     O66989  10.714   3.113   9.907 -0.3262 -0.2788 -0.6644
  486MOL0     C66990  10.694   3.252   9.909 -0.1237  0.1405 -0.3338
  486MOL0     C66991  10.548   3.266   9.900  0.0846 -0.1289 -0.4856
  486MOL0     C66992  10.505   3.414   9.914 -0.3165 -0.2010 -1.1792
  486MOL0     C66993  10.355   3.436   9.903  0.0556  0.0002 -0.3587
  486MOL0     C66994  10.338   3.586   9.911 -0.5338 -0.4994  0.5747
  486MOL0     C66995  10.332   3.706   9.929  0.3141  0.1421  0.0906
  486MOL0     C66996  10.898   3.003  10.019 -0.5094  0.6491  0.4269
  486MOL0     C66997  11.035   2.966  10.031  0.9731 -0.9162 -0.0377
  486MOL0     C66998  11.080   2.881  10.146  0.6699 -0.6921  0.5115
  486MOL0     H66999  11.399   2.851   9.650 -1.4419  2.4599  0.7491
  486MOL0     H67000  11.637   2.813   9.560  0.2084  0.9688 -0.6432
  486MOL0     H67001  11.826   2.906   9.469 -1.9746  1.0629  1.9895
  486MOL0     H67002  11.932   2.783   9.543  0.7717  0.0433  0.2112
  486MOL0     H67003  12.026   2.936   9.394 -1.7028  2.2034 -1.2470
  486MOL0     H67004  12.000   3.074   9.520  1.0551  0.1058 -2.0813
  486MOL0     H67005  12.134   2.906   9.673 -1.3046 -2.2408 -0.6841
  486MOL0     H67006  12.185   2.826   9.534 -0.0900 -1.9900  1.4618
  486MOL0     H67007  12.238   3.128   9.584 -1.0277  0.0455 -1.2821
  486MOL0     H67008  12.345   2.990   9.600  0.2294  0.7425  0.7981
  486MOL0     H67009  12.237   3.103   9.334 -0.1751  1.1113  0.5219
  486MOL0     H67010  12.337   2.959   9.362  2.2829  0.0161 -0.3452
  486MOL0     H67011  12.410   3.248   9.393  0.4835  1.1032 -0.6188
  486MOL0     H67012  12.498   3.133   9.499 -0.1107  0.2293  0.4492
  486MOL0     H67013  12.458   3.079   9.195  1.0401 -0.1201 -1.2704
  486MOL0     H67014  12.577   3.021   9.305 -1.4919 -0.8973 -0.9120
  486MOL0     H67015  12.626   3.223   9.128 -1.9707  2.4494 -0.6248
  486MOL0     H67016  12.617   3.311   9.275  1.0195  0.7055 -0.0097
  486MOL0     H67017  12.836   3.048   9.114 -1.0750  3.5914 -0.7953
  486MOL0     H67018  13.132   3.040   9.156 -0.8232 -0.7408 -1.5741
  486MOL0     H67019  13.059   2.896   9.222  0.7754 -0.3033  0.9654
  486MOL0     H67020  13.155   2.952   9.439 -1.1306  2.0914  0.4929
  486MOL0     H67021  13.274   2.927   9.303  1.0882  1.2319  0.5463
  486MOL0     H67022  13.193   3.180   9.446  0.8349  1.8061 -1.8493
  486MOL0     H67023  13.343   3.093   9.435  0.7347 -0.3044 -1.4551
  486MOL0     H67024  13.205   3.238   9.200  1.0299 -1.3374 -2.7285
  486MOL0     H67025  13.328   3.308   9.290 -1.5533  0.2650  0.5040
  486MOL0     H67026  13.557   3.033   9.027  0.8806  1.4313 -1.9800
  486MOL0     H67027  13.769   2.930   8.992 -0.1465 -1.5107  2.1485
  486MOL0     H67028  13.897   2.946   9.107 -0.4393  1.4434  1.2451
  486MOL0     H67029  13.885   3.066   8.980 -2.4403  0.2859 -1.8846
  486MOL0     H67030  14.040   2.957   9.511 -0.9808  2.7801 -0.1651
  486MOL0     H67031  14.268   2.854   9.595 -2.0506 -1.7266 -0.0092
  486MOL0     H67032  14.439   2.752   9.528  1.6985 -2.5228  3.1652
  486MOL0     H67033  14.603   2.762   9.464  1.0826 -0.0602  0.9284
  486MOL0     H67034  14.516   2.861   9.748 -0.4775 -2.5942  3.3857
  486MOL0     H67035  14.574   2.692   9.696  0.5742  0.4367 -0.7328
  486MOL0     H67036  14.736   2.947   9.659  2.5698 -0.5814 -1.5380
  486MOL0     H67037  14.784   2.771   9.656 -3.3969 -1.7875 -1.3748
  486MOL0     H67038  14.781   2.743   9.883 -1.9592 -0.3985 -0.6482
  486MOL0     H67039  14.675   2.876   9.916 -0.0854 -1.2671  0.8179
  486MOL0     H67040  14.827   3.047   9.843  4.5883  1.4846 -1.0626
  486MOL0     H67041  14.871   2.967   9.987 -1.5977 -2.5262 -0.3325
  486MOL0     H67042  14.994   2.900   9.700  1.9039  1.0312 -0.1323
  486MOL0     H67043  15.025   2.816   9.847  1.7074 -0.1451 -1.1125
  486MOL0     H67044  15.157   3.007   9.942 -0.1543  2.0155  0.6067
  486MOL0     H67045  15.070   3.114   9.826 -0.2380  0.0710  0.1848
  486MOL0     H67046  15.289   3.082   9.774 -1.0063 -0.7359  1.1992
  486MOL0     H67047  15.207   2.996   9.637  2.2476  0.6772 -1.1993
  486MOL0     H67048  14.455   3.102   9.309 -0.0580 -1.6536 -0.3347
  486MOL0     H67049  14.220   3.198   9.239 -1.7606 -0.0913  0.6884
  486MOL0     H67050  13.746   3.268   9.425 -0.2293 -1.1617  1.4264
  486MOL0     H67051  13.509   3.264   9.378 -3.7620 -0.0184 -2.3669
  486MOL0     H67052  11.792   3.085   9.846 -0.5934  0.1544  0.9550
  486MOL0     H67053  11.553   3.150   9.915  1.1513  1.2685 -0.5004
  486MOL0     H67054  11.129   3.087   9.720  1.3120 -0.4899  1.4528
  486MOL0     H67055  10.892   3.145   9.725 -1.7899 -2.9391 -0.9366
  486MOL0     H67056  10.729   3.295  10.003  0.4708 -0.0527 -0.4571
  486MOL0     H67057  10.739   3.302   9.822  0.2621 -0.4067 -0.4553
  486MOL0     H67058  10.505   3.212   9.985  1.1291 -0.7313 -0.3304
  486MOL0     H67059  10.518   3.228   9.802  2.0059 -2.3760 -0.2812
  486MOL0     H67060  10.550   3.461  10.001 -0.8407 -1.6248 -0.0902
  486MOL0     H67061  10.556   3.470   9.836  0.0194  0.3822 -0.5517
  486MOL0     H67062  10.307   3.381   9.984  1.5482 -1.8611 -0.6713
  486MOL0     H67063  10.319   3.388   9.811  0.5097 -2.0345  0.4759
  486MOL0     H67064  10.342   3.809   9.955  1.8850  0.1605 -0.4422
  486MOL0     H67065  10.834   2.974  10.102 -0.5116 -0.5960  0.0177
  486MOL0     H67066  11.073   2.775  10.122 -1.9467 -0.6214  0.7160
  486MOL0     H67067  11.181   2.913  10.176  0.4709 -0.0380  0.5040
  486MOL0     H67068  11.017   2.890  10.235  1.1103 -2.7971  1.0794
  487MOL0     O67069  10.384   7.335   1.769  0.1665 -0.1941  0.2836
  487MOL0     C67070  10.378   7.451   1.804  0.2869 -0.9576 -0.2068
  487MOL0     O67071  10.487   7.539   1.813 -0.4183  0.4761  0.2067
  487MOL0     C67072  10.614   7.486   1.835  0.0323 -0.6052  0.8363
  487MOL0     C67073  10.646   7.369   1.901  0.4867  0.9604 -0.2369
  487MOL0     C67074  10.777   7.326   1.924 -0.4688 -0.4501 -0.0400
  487MOL0     C67075  10.884   7.401   1.872 -0.3252  0.0429 -0.8425
  487MOL0     O67076  11.012   7.358   1.903 -0.0917 -0.3920 -0.4801
  487MOL0     C67077  11.121   7.422   1.827  0.0612 -0.8943  0.4720
  487MOL0     C67078  11.246   7.356   1.853 -0.2335  0.9072 -0.0278
  487MOL0     C67079  11.363   7.422   1.779 -0.8130  0.1217  0.0051
  487MOL0     C67080  11.488   7.335   1.792 -0.3544 -0.4918 -0.3881
  487MOL0     C67081  11.604   7.411   1.725 -0.2803 -0.9203  0.4994
  487MOL0     C67082  11.738   7.354   1.698 -0.8235 -1.2009  0.2091
  487MOL0     C67083  11.841   7.454   1.635 -0.5567  0.1506 -0.6745
  487MOL0     C67084  11.852   7.589   1.704 -0.8841  1.0240 -0.1378
  487MOL0     N67085  11.902   7.578   1.846  0.0301 -0.5432  0.2016
  487MOL0     C67086  12.036   7.552   1.874 -0.0129 -0.3296  0.4811
  487MOL0     C67087  12.034   7.501   2.001 -0.2199 -0.6501 -0.5231
  487MOL0     C67088  12.159   7.468   2.076  0.3817 -0.4051 -0.5088
  487MOL0     C67089  12.148   7.333   2.136 -0.0139  0.7014  0.7669
  487MOL0     C67090  12.165   7.213   2.041  0.3991  0.1810  0.4200
  487MOL0     C67091  12.139   7.087   2.129 -0.5549  0.1023  0.3664
  487MOL0     O67092  12.137   6.983   2.039  0.7330  0.0866  0.3634
  487MOL0     C67093  12.249   6.910   1.999 -0.5969  0.2758  0.0700
  487MOL0     C67094  12.386   6.944   2.012 -0.1648  0.1917 -0.8937
  487MOL0     C67095  12.491   6.875   1.958 -1.1463  0.5695  0.0539
  487MOL0     C67096  12.626   6.915   2.012 -0.5540 -0.5212 -0.2881
  487MOL0     C67097  12.465   6.772   1.863 -0.3964 -0.3497 -0.5785
  487MOL0     C67098  12.576   6.700   1.795  0.3757  0.6968 -0.4539
  487MOL0     O67099  12.552   6.570   1.752 -0.1474 -0.3659  0.3856
  487MOL0     C67100  12.642   6.503   1.672  0.2102 -0.3347 -0.2029
  487MOL0     C67101  12.673   6.542   1.542 -0.2271 -0.4352 -0.5557
  487MOL0     C67102  12.732   6.450   1.454  0.0893  0.5326 -0.1146
  487MOL0     C67103  12.788   6.328   1.494  0.0962  0.0211  0.1352
  487MOL0     O67104  12.850   6.237   1.409 -0.7122  0.8810  0.2912
  487MOL0     C67105  12.815   6.243   1.271  0.1948  0.1671 -0.1161
  487MOL0     C67106  12.879   6.124   1.196 -1.3430  0.2103  0.2481
  487MOL0     C67107  13.028   6.148   1.165  0.2308  0.9032 -0.8054
  487MOL0     C67108  13.070   6.054   1.046  0.1734  0.7016 -0.3879
  487MOL0     C67109  13.227   6.041   1.027 -1.3736 -0.7234  0.0796
  487MOL0     C67110  13.293   5.960   1.140 -1.1046 -0.6554 -0.4253
  487MOL0     C67111  13.244   5.813   1.141  0.5422 -1.0891  0.0919
  487MOL0     C67112  13.338   5.727   1.222 -0.3247  0.0626 -0.4715
  487MOL0    Cl67113  13.498   5.719   1.138 -0.0898  0.0004  0.0064
  487MOL0     C67114  12.757   6.295   1.630 -0.0158 -0.0898  1.0150
  487MOL0     C67115  12.675   6.372   1.710 -0.0339 -0.4077  0.9301
  487MOL0     O67116  12.676   6.758   1.776 -0.1364 -0.7035  0.3447
  487MOL0     C67117  12.332   6.739   1.848 -0.9149 -0.2035  0.3248
  487MOL0     C67118  12.227   6.797   1.922 -0.4849 -0.0031 -0.7664
  487MOL0     N67119  11.907   7.509   2.046 -0.2381 -0.2171  0.8640
  487MOL0     N67120  11.825   7.555   1.953 -0.7267  0.5214 -0.6584
  487MOL0     C67121  10.852   7.518   1.791 -1.5668 -0.8101 -0.4759
  487MOL0     C67122  10.723   7.563   1.790  0.3874  0.1117 -0.6713
  487MOL0     C67123  10.246   7.502   1.853 -0.3684  0.5989  0.0505
  487MOL0     C67124  10.255   7.588   1.968  0.3046 -0.4375  0.6722
  487MOL0     C67125  10.145   7.672   1.998 -0.7304  0.2703  0.1690
  487MOL0     C67126  10.023   7.651   1.937  0.2019 -0.6980 -0.1692
  487MOL0     O67127   9.904   7.719   1.966 -0.6278 -0.2176 -0.6799
  487MOL0     C67128   9.910   7.840   2.034 -0.3226 -0.6205 -0.2203
  487MOL0     C67129   9.971   7.962   1.947 -0.2376 -0.2747 -0.3591
  487MOL0     C67130   9.864   8.028   1.852 -0.0507 -0.1138 -0.4392
  487MOL0     C67131   9.813   7.925   1.746  0.5711 -0.0625 -0.1913
  487MOL0     C67132   9.775   7.996   1.618  0.4913  0.3641 -0.0445
  487MOL0     C67133   9.749   8.070   1.530 -0.3732 -0.6331  0.1430
  487MOL0     C67134  10.012   7.553   1.836  0.2260 -0.3768  0.3923
  487MOL0     C67135  10.119   7.476   1.792  0.3968 -0.0986  0.8545
  487MOL0     C67136  10.096   7.379   1.680  0.1914  0.7975 -0.3936
  487MOL0     H67137  10.568   7.300   1.933 -0.5201  0.1575 -3.9148
  487MOL0     H67138  10.801   7.232   1.972  1.1802 -1.2002 -2.1885
  487MOL0     H67139  11.121   7.531   1.835  3.2511 -0.8185  0.7320
  487MOL0     H67140  11.102   7.402   1.722 -2.2543 -0.5180  0.7730
  487MOL0     H67141  11.263   7.373   1.959 -2.1230  1.8156  0.1745
  487MOL0     H67142  11.246   7.249   1.828  2.0140  0.5729  1.1573
  487MOL0     H67143  11.337   7.440   1.674  1.2285  0.0078 -0.5460
  487MOL0     H67144  11.378   7.522   1.819 -0.6035  0.6109 -1.2549
  487MOL0     H67145  11.517   7.336   1.897 -0.7355  0.1025 -0.2821
  487MOL0     H67146  11.473   7.233   1.757  1.0045 -0.6992 -0.3963
  487MOL0     H67147  11.616   7.504   1.780 -0.0891 -1.0851  0.7430
  487MOL0     H67148  11.585   7.446   1.624 -0.5883 -0.9204  0.5576
  487MOL0     H67149  11.778   7.313   1.792 -2.7156 -2.9444  0.3290
  487MOL0     H67150  11.730   7.274   1.624 -0.9953  0.3142 -1.4693
  487MOL0     H67151  11.821   7.471   1.529  0.5409  1.1277 -0.7416
  487MOL0     H67152  11.941   7.409   1.646 -0.3813  1.0831  2.9971
  487MOL0     H67153  11.934   7.642   1.655 -2.0133  0.6968 -2.5419
  487MOL0     H67154  11.772   7.663   1.695 -0.1232  2.1675  1.9123
  487MOL0     H67155  12.124   7.574   1.814 -0.5728  1.4220  0.2481
  487MOL0     H67156  12.171   7.533   2.163 -0.7168 -1.8115  0.7433
  487MOL0     H67157  12.247   7.474   2.012 -0.5003  1.2125 -1.6442
  487MOL0     H67158  12.216   7.323   2.220 -2.2574 -1.4407  2.4963
  487MOL0     H67159  12.051   7.341   2.186  0.4036  1.4782  1.4647
  487MOL0     H67160  12.084   7.225   1.968 -1.4706 -1.0291  2.1922
  487MOL0     H67161  12.264   7.211   1.995  0.0743  2.3702 -0.5326
  487MOL0     H67162  12.218   7.078   2.204 -0.6366  2.8733  0.8932
  487MOL0     H67163  12.043   7.091   2.181  0.4832 -1.1193  2.4928
  487MOL0     H67164  12.395   7.031   2.076 -1.4074  1.0354 -1.8077
  487MOL0     H67165  12.667   6.989   1.943 -2.3540  0.8299  0.0161
  487MOL0     H67166  12.703   6.837   2.008  0.0115 -0.1047  1.3797
  487MOL0     H67167  12.623   6.951   2.116 -1.2312 -1.5360  0.0550
  487MOL0     H67168  12.639   6.641   1.514 -0.7187 -1.0472 -2.2878
  487MOL0     H67169  12.736   6.491   1.354  1.8188 -1.6613 -1.0176
  487MOL0     H67170  12.706   6.245   1.259  0.1776  1.2748  0.1151
  487MOL0     H67171  12.848   6.340   1.235 -1.0323 -0.0108 -1.8419
  487MOL0     H67172  12.877   6.040   1.267  3.1401  1.4783  2.2376
  487MOL0     H67173  12.820   6.115   1.105 -0.4927  2.0033 -0.5087
  487MOL0     H67174  13.085   6.121   1.255 -2.1492 -2.6675 -0.1492
  487MOL0     H67175  13.050   6.253   1.143 -2.2111  1.7287  0.4132
  487MOL0     H67176  13.024   6.086   0.952  1.2278 -2.6027 -2.1517
  487MOL0     H67177  13.028   5.955   1.062  1.9633  0.1701  1.3641
  487MOL0     H67178  13.245   5.981   0.937 -2.0207  0.1998 -0.6813
  487MOL0     H67179  13.276   6.137   1.016 -1.2769 -0.9156 -1.3678
  487MOL0     H67180  13.273   6.009   1.236  0.0395  0.0103 -0.5127
  487MOL0     H67181  13.399   5.955   1.116 -1.0310  2.6341 -1.3099
  487MOL0     H67182  13.243   5.772   1.040 -1.8450 -0.1541 -0.3289
  487MOL0     H67183  13.143   5.804   1.182  0.6232 -0.4587  0.4327
  487MOL0     H67184  13.305   5.623   1.229  3.2907 -1.6776 -4.6460
  487MOL0     H67185  13.370   5.764   1.320 -0.7100  1.6979 -0.9440
  487MOL0     H67186  12.777   6.192   1.658 -2.4828 -0.9911 -0.2042
  487MOL0     H67187  12.638   6.330   1.803 -4.3321  0.8300 -0.0111
  487MOL0     H67188  12.302   6.667   1.773 -0.1318  1.3959 -1.6090
  487MOL0     H67189  12.124   6.766   1.903  0.5277 -3.0633 -1.7237
  487MOL0     H67190  10.928   7.579   1.744 -0.7837 -0.0847  1.6103
  487MOL0     H67191  10.702   7.654   1.735  1.7617  0.7671 -0.1601
  487MOL0     H67192  10.348   7.592   2.023  0.6403 -0.9808  0.1563
  487MOL0     H67193  10.165   7.752   2.068  0.6750  0.1233 -0.0382
  487MOL0     H67194   9.809   7.873   2.059 -0.1171  1.0822 -1.4900
  487MOL0     H67195   9.965   7.818   2.127  1.7855  1.1835 -0.9672
  487MOL0     H67196  10.058   7.933   1.887  1.2880  0.0700  1.5990
  487MOL0     H67197  10.004   8.033   2.023 -0.8999 -0.6109  0.2549
  487MOL0     H67198   9.782   8.053   1.920  0.5069  0.9004 -0.1162
  487MOL0     H67199   9.912   8.116   1.807  0.7885  0.6160  1.7747
  487MOL0     H67200   9.727   7.872   1.787  0.1616  0.1612 -0.7577
  487MOL0     H67201   9.881   7.852   1.701 -0.6275  0.1061 -2.3949
  487MOL0     H67202   9.719   8.121   1.440  4.9577 -0.0457 -1.6623
  487MOL0     H67203   9.914   7.538   1.791 -0.0137  0.4355  0.6074
  487MOL0     H67204  10.095   7.283   1.733 -0.3595  2.0906  2.0493
  487MOL0     H67205   9.992   7.390   1.648 -0.9694 -0.9200  2.4274
  487MOL0     H67206  10.169   7.387   1.599  0.7756 -0.0877  0.0292
  488MOL0     O67207   3.487   1.400   2.896  0.0000 -0.1572 -0.4384
  488MOL0     C67208   3.482   1.371   2.777 -0.1731  0.3133 -0.0414
  488MOL0     O67209   3.584   1.391   2.701 -0.1609 -0.4147 -0.4313
  488MOL0     C67210   3.695   1.459   2.753 -0.2568  0.6685 -0.2338
  488MOL0     C67211   3.700   1.598   2.756  0.8379  0.5799 -0.6148
  488MOL0     C67212   3.797   1.671   2.814  0.0544  0.1184 -0.1247
  488MOL0     C67213   3.912   1.610   2.868 -0.0749 -0.4521  0.6566
  488MOL0     O67214   4.021   1.680   2.919 -0.6390 -0.1543  0.4192
  488MOL0     C67215   4.052   1.800   2.845  0.0592 -0.7845  0.2091
  488MOL0     C67216   4.187   1.854   2.893 -0.4897  0.9157  0.0988
  488MOL0     C67217   4.308   1.759   2.851 -0.2723 -0.1898 -0.7714
  488MOL0     C67218   4.444   1.815   2.908  0.7855  0.0527  0.3676
  488MOL0     C67219   4.576   1.816   2.821  0.4136 -0.3004  1.2851
  488MOL0     C67220   4.602   1.671   2.785 -0.2936  0.0425 -0.1569
  488MOL0     C67221   4.750   1.656   2.748  1.0026  0.2352  0.3545
  488MOL0     C67222   4.830   1.602   2.873  0.1751 -0.6155  1.3007
  488MOL0     N67223   4.949   1.548   2.810 -0.3567  1.0651  1.2794
  488MOL0     C67224   5.071   1.611   2.785  0.3444 -0.2790 -0.0965
  488MOL0     C67225   5.151   1.515   2.728  0.2723  0.0185 -0.1549
  488MOL0     C67226   5.297   1.525   2.684 -0.5035  1.3267  0.6303
  488MOL0     C67227   5.380   1.404   2.744 -0.1580 -0.0258 -0.0846
  488MOL0     C67228   5.526   1.434   2.714  0.3538  0.4314 -0.2690
  488MOL0     C67229   5.612   1.320   2.771 -0.1560 -0.5690  0.9970
  488MOL0     O67230   5.605   1.338   2.913 -0.3071  0.2084  0.0862
  488MOL0     C67231   5.705   1.266   2.981  0.3435  0.2029 -0.1028
  488MOL0     C67232   5.714   1.292   3.112  1.1374  0.0914 -0.3477
  488MOL0     C67233   5.794   1.218   3.196  0.5208  0.5131 -0.1271
  488MOL0     C67234   5.790   1.259   3.341  0.4987  0.5347 -0.0112
  488MOL0     C67235   5.867   1.112   3.155 -0.0305  0.7669 -0.4588
  488MOL0     C67236   5.950   1.033   3.248 -0.5847 -0.2792  0.3332
  488MOL0     O67237   5.911   1.004   3.375  0.8095  0.3419  0.0661
  488MOL0     C67238   5.997   0.955   3.462  0.4531  0.2922 -0.4606
  488MOL0     C67239   6.107   1.027   3.495 -0.0088 -0.2042 -1.2765
  488MOL0     C67240   6.198   0.963   3.571  0.0920 -0.7585  0.2821
  488MOL0     C67241   6.171   0.837   3.634  0.4868 -0.1780 -0.8228
  488MOL0     O67242   6.265   0.781   3.720 -0.0850  0.6753 -0.1846
  488MOL0     C67243   6.277   0.835   3.853 -0.6162 -0.1122  0.6373
  488MOL0     C67244   6.387   0.757   3.923  0.0967 -0.2847  0.7964
  488MOL0     C67245   6.520   0.758   3.871 -0.5316  0.4456 -0.2749
  488MOL0     C67246   6.627   0.700   3.965 -0.6744 -0.0787  0.6649
  488MOL0     C67247   6.773   0.731   3.914 -0.0632  0.4286 -1.3312
  488MOL0     C67248   6.799   0.680   3.775 -0.3245 -0.9389 -0.0830
  488MOL0     C67249   6.774   0.529   3.769 -0.2506 -0.2669  0.2775
  488MOL0     C67250   6.853   0.474   3.648 -0.3506  1.1316  0.5877
  488MOL0    Cl67251   6.800   0.298   3.637 -0.3966  0.5003 -0.0117
  488MOL0     C67252   6.057   0.776   3.595  0.9913  0.0964  0.5077
  488MOL0     C67253   5.967   0.834   3.509 -0.1629 -0.6113 -0.2976
  488MOL0     O67254   6.064   1.015   3.201 -0.3446  0.4497 -0.8158
  488MOL0     C67255   5.868   1.083   3.018  0.0828  0.5984 -0.3751
  488MOL0     C67256   5.786   1.158   2.931  0.2498  0.7307  0.0184
  488MOL0     N67257   5.071   1.402   2.710 -0.7475  0.2172  0.2488
  488MOL0     N67258   4.956   1.425   2.757 -0.0543  0.7421 -0.4247
  488MOL0     C67259   3.904   1.472   2.877 -0.3506 -0.1693 -0.2014
  488MOL0     C67260   3.803   1.399   2.817  0.5035  0.5842 -0.3320
  488MOL0     C67261   3.353   1.322   2.714 -0.4118 -0.0135 -0.3753
  488MOL0     C67262   3.253   1.274   2.802  0.2488 -0.1150  0.5298
  488MOL0     C67263   3.136   1.226   2.751  0.0406  1.0414 -0.5662
  488MOL0     C67264   3.111   1.227   2.621  0.7702 -0.1124 -0.4638
  488MOL0     O67265   2.974   1.211   2.601 -0.0456  0.1188 -0.0213
  488MOL0     C67266   2.916   1.206   2.471 -0.1608 -0.4496 -0.0153
  488MOL0     C67267   2.800   1.106   2.471  0.7337  0.4036 -0.6555
  488MOL0     C67268   2.667   1.150   2.548  0.8873  1.3679 -0.9679
  488MOL0     C67269   2.562   1.031   2.563 -0.2697 -0.4141 -0.5370
  488MOL0     C67270   2.533   0.979   2.436 -0.1053 -0.5844  0.8056
  488MOL0     C67271   2.535   0.915   2.326 -0.3367  0.5598 -0.8038
  488MOL0     C67272   3.201   1.285   2.529 -0.0418 -0.0629 -0.6240
  488MOL0     C67273   3.329   1.325   2.572  0.0713 -0.3181 -0.4141
  488MOL0     C67274   3.432   1.364   2.469  0.3196  0.3334  0.9445
  488MOL0     H67275   3.616   1.655   2.720 -1.9421 -3.3791 -1.0827
  488MOL0     H67276   3.780   1.778   2.816 -1.6546 -0.1297  1.6885
  488MOL0     H67277   3.978   1.880   2.842  1.1271  0.2640  0.9297
  488MOL0     H67278   4.065   1.759   2.744  1.3845 -1.5668  0.6704
  488MOL0     H67279   4.213   1.950   2.846  1.5492  0.4796  0.2596
  488MOL0     H67280   4.191   1.865   3.002 -0.6055 -1.2908  0.3651
  488MOL0     H67281   4.297   1.659   2.896  1.5377  0.5665  1.6177
  488MOL0     H67282   4.319   1.771   2.743  3.7921  4.0352 -0.2188
  488MOL0     H67283   4.431   1.921   2.935  0.0447 -0.5489  2.6403
  488MOL0     H67284   4.460   1.765   3.004 -2.2461  2.5018  2.3291
  488MOL0     H67285   4.650   1.851   2.894  1.1018 -0.1367  0.5167
  488MOL0     H67286   4.580   1.889   2.739 -2.0121 -1.5069 -0.0203
  488MOL0     H67287   4.580   1.606   2.870  0.1298 -0.9202 -0.7706
  488MOL0     H67288   4.532   1.657   2.703  0.1094  0.2164 -0.5382
  488MOL0     H67289   4.801   1.748   2.719  2.0199  0.1066  1.6174
  488MOL0     H67290   4.763   1.583   2.668  2.7254  0.6188  0.2641
  488MOL0     H67291   4.856   1.685   2.939  1.9953  0.2485 -0.4061
  488MOL0     H67292   4.771   1.520   2.914 -0.2692 -1.8356 -1.5370
  488MOL0     H67293   5.100   1.713   2.806 -0.0690 -0.4435  1.3606
  488MOL0     H67294   5.340   1.614   2.732  0.2988  0.5678  1.3603
  488MOL0     H67295   5.303   1.523   2.575 -1.8041  0.9741  0.5545
  488MOL0     H67296   5.364   1.397   2.852  0.6378 -0.5306  0.0071
  488MOL0     H67297   5.362   1.310   2.692  1.4895  1.6843 -4.1664
  488MOL0     H67298   5.529   1.432   2.604 -1.1494  1.1886 -0.3344
  488MOL0     H67299   5.567   1.530   2.745  1.6984 -0.4458  0.7976
  488MOL0     H67300   5.591   1.224   2.723 -0.9258 -0.3587  0.9067
  488MOL0     H67301   5.715   1.340   2.738 -0.5046 -0.3988 -0.0356
  488MOL0     H67302   5.647   1.367   3.152 -1.5889 -3.4506  2.3470
  488MOL0     H67303   5.731   1.346   3.370  0.9561 -0.0979  3.2720
  488MOL0     H67304   5.889   1.284   3.381  0.6683 -0.3002  0.1090
  488MOL0     H67305   5.739   1.175   3.390 -2.0951 -0.4000 -3.8631
  488MOL0     H67306   6.128   1.126   3.455  0.7097 -0.8827 -2.6408
  488MOL0     H67307   6.294   1.013   3.574 -1.3798  2.5772 -1.7120
  488MOL0     H67308   6.305   0.939   3.832  0.4726 -0.6856 -0.9019
  488MOL0     H67309   6.189   0.827   3.918  1.0985 -3.0179  2.8546
  488MOL0     H67310   6.382   0.801   4.023 -1.7157  3.4211 -0.7103
  488MOL0     H67311   6.368   0.649   3.919  2.1631 -0.6546 -1.2153
  488MOL0     H67312   6.541   0.858   3.832 -0.6519  1.0040  1.0601
  488MOL0     H67313   6.517   0.694   3.783 -1.3475 -1.1036  0.8299
  488MOL0     H67314   6.620   0.593   3.985 -0.1543 -0.4235 -0.8703
  488MOL0     H67315   6.622   0.753   4.060 -1.9888  0.2126  0.4553
  488MOL0     H67316   6.778   0.840   3.911  0.9372  0.4374  0.0640
  488MOL0     H67317   6.846   0.681   3.977  0.1746  0.6287 -1.4489
  488MOL0     H67318   6.903   0.695   3.745 -0.5464 -1.5553 -1.2388
  488MOL0     H67319   6.742   0.733   3.698  1.5165 -1.8701 -2.2049
  488MOL0     H67320   6.670   0.509   3.741 -0.6870 -1.7786  2.6654
  488MOL0     H67321   6.795   0.471   3.860 -0.7152 -0.8372  0.0267
  488MOL0     H67322   6.961   0.480   3.665  0.2859 -1.6297 -1.6646
  488MOL0     H67323   6.844   0.528   3.553  2.0569 -1.6634 -1.4321
  488MOL0     H67324   6.028   0.679   3.633  0.6346  0.0026  0.0075
  488MOL0     H67325   5.873   0.785   3.489  0.4105 -1.6396 -0.5532
  488MOL0     H67326   5.930   1.004   2.977 -1.4283  1.1730 -4.2153
  488MOL0     H67327   5.797   1.131   2.827  0.6308  0.5844  0.0967
  488MOL0     H67328   3.976   1.413   2.933 -1.3257  1.6130  3.2121
  488MOL0     H67329   3.809   1.291   2.808  1.2430  0.4685  1.3147
  488MOL0     H67330   3.271   1.280   2.909  0.0263  0.1688  0.5520
  488MOL0     H67331   3.054   1.198   2.815 -0.0865  1.6537 -0.4545
  488MOL0     H67332   2.879   1.302   2.433 -1.3924 -1.3996 -1.3533
  488MOL0     H67333   2.992   1.171   2.400 -1.8702  0.1066 -2.2405
  488MOL0     H67334   2.833   1.008   2.506 -0.4275 -0.6275 -2.2686
  488MOL0     H67335   2.777   1.096   2.364 -0.0596  3.3937 -0.8366
  488MOL0     H67336   2.694   1.196   2.644  0.6457 -1.7507  0.7311
  488MOL0     H67337   2.623   1.232   2.491 -1.0221  0.4174 -0.9431
  488MOL0     H67338   2.464   1.071   2.590  1.0181  0.9436  2.5939
  488MOL0     H67339   2.592   0.959   2.639  0.1673  0.2077 -0.1151
  488MOL0     H67340   2.538   0.867   2.230 -0.1801 -0.0226 -0.5159
  488MOL0     H67341   3.173   1.299   2.425 -1.0795  1.2199 -0.1838
  488MOL0     H67342   3.454   1.471   2.463  0.9863  0.1932  0.8941
  488MOL0     H67343   3.523   1.309   2.493 -1.2353 -3.0560 -0.3429
  488MOL0     H67344   3.403   1.326   2.371 -1.4511  0.5901  1.3287
  489MOL0     O67345   8.680   8.890   8.503  0.0052  0.2821  0.1359
  489MOL0     C67346   8.618   8.907   8.404  1.0769  0.3095  0.8707
  489MOL0     O67347   8.671   8.939   8.285  0.3788 -0.2882  0.2963
  489MOL0     C67348   8.803   8.986   8.273  0.4656 -0.9936  0.2350
  489MOL0     C67349   8.889   8.923   8.186 -0.1811 -0.7442 -0.0438
  489MOL0     C67350   9.019   8.971   8.167 -0.4314  0.7197  0.3555
  489MOL0     C67351   9.061   9.096   8.202  0.0249  0.3260 -0.0774
  489MOL0     O67352   9.179   9.137   8.151  0.1546 -0.7685 -0.2360
  489MOL0     C67353   9.222   9.279   8.149 -0.1815  0.1865 -0.2673
  489MOL0     C67354   9.356   9.289   8.080 -0.0051 -0.6210  0.4033
  489MOL0     C67355   9.393   9.434   8.062 -0.3006 -0.3714  0.1301
  489MOL0     C67356   9.533   9.451   8.000  0.0990 -0.1954  0.0666
  489MOL0     C67357   9.575   9.594   7.958 -0.5632 -0.5306 -0.6290
  489MOL0     C67358   9.712   9.634   7.902  0.4703 -0.4205 -0.3566
  489MOL0     C67359   9.735   9.555   7.774 -0.4320 -0.8301  0.2512
  489MOL0     C67360   9.829   9.628   7.682 -0.3013  0.1136 -0.6105
  489MOL0     N67361   9.966   9.653   7.740  0.0821 -0.1445  0.0027
  489MOL0     C67362  10.058   9.555   7.777  0.5110 -0.1821  0.2347
  489MOL0     C67363  10.169   9.618   7.829  0.1003  0.6055 -0.3522
  489MOL0     C67364  10.297   9.569   7.895  0.2070  0.6250 -0.5226
  489MOL0     C67365  10.390   9.520   7.778 -0.0777  0.2403 -0.1799
  489MOL0     C67366  10.410   9.622   7.659  0.0639  1.1358  0.9999
  489MOL0     C67367  10.493   9.739   7.694 -0.4029 -0.4912 -0.1869
  489MOL0     O67368  10.613   9.717   7.778 -0.1438  0.6529 -0.0872
  489MOL0     C67369  10.702   9.813   7.797 -0.1996  0.1082 -0.7647
  489MOL0     C67370  10.685   9.949   7.769  0.1845  0.0958  0.7164
  489MOL0     C67371  10.783  10.048   7.784  1.0605 -0.0647  0.2052
  489MOL0     C67372  10.741  10.188   7.756 -0.0981 -0.5952 -0.4939
  489MOL0     C67373  10.910  10.004   7.836 -0.1863 -0.9534  0.0715
  489MOL0     C67374  11.019  10.099   7.857 -0.5004  0.8629 -0.7797
  489MOL0     O67375  11.078  10.096   7.980 -0.3898  0.4206  0.3087
  489MOL0     C67376  11.195  10.166   8.007 -0.0935 -1.3670  0.6292
  489MOL0     C67377  11.205  10.313   8.005  0.7941  0.1984  0.4910
  489MOL0     C67378  11.332  10.369   8.016  0.0920 -0.7634  0.0967
  489MOL0     C67379  11.451  10.292   8.015  0.2412  0.1709 -0.1723
  489MOL0     O67380  11.572  10.351   8.036 -0.1109 -0.8091  0.2768
  489MOL0     C67381  11.693  10.297   7.976  0.0985  1.3706 -0.2759
  489MOL0     C67382  11.810  10.387   8.018 -0.0188  0.1619  0.1976
  489MOL0     C67383  11.787  10.531   7.969  0.3893  0.2676 -0.6618
  489MOL0     C67384  11.913  10.608   7.989 -0.7728  1.1638 -0.3104
  489MOL0     C67385  11.885  10.758   7.960  0.2356  0.2982  0.5785
  489MOL0     C67386  11.780  10.828   8.051  0.1893 -0.0667  0.4093
  489MOL0     C67387  11.781  10.984   8.031 -0.5070 -0.2280 -0.3917
  489MOL0     C67388  11.666  11.056   8.124  0.1531  0.2906 -0.2887
  489MOL0    Cl67389  11.722  11.092   8.289  0.2342 -0.0914  0.1640
  489MOL0     C67390  11.443  10.148   8.009  0.1026  0.9599 -0.1317
  489MOL0     C67391  11.311  10.095   8.003 -0.4878  0.0099 -1.2451
  489MOL0     O67392  11.049  10.172   7.761  0.7038 -0.5664 -0.4409
  489MOL0     C67393  10.924   9.872   7.873  0.1162  0.3820 -0.0413
  489MOL0     C67394  10.826   9.771   7.855 -0.4317 -0.0151  0.1423
  489MOL0     N67395  10.148   9.750   7.823 -0.0508 -0.4892  0.0215
  489MOL0     N67396  10.031   9.763   7.771  0.2252 -0.5205 -0.2863
  489MOL0     C67397   8.967   9.174   8.278 -0.4735  0.0034 -0.5023
  489MOL0     C67398   8.847   9.112   8.324 -1.0253  0.0009  0.0959
  489MOL0     C67399   8.477   8.857   8.403  0.2287  0.0467  0.7467
  489MOL0     C67400   8.406   8.887   8.282  0.6675  0.0575 -0.7062
  489MOL0     C67401   8.265   8.867   8.284  0.3476 -1.1313 -0.0744
  489MOL0     C67402   8.198   8.819   8.399  0.0282  0.1298 -1.0416
  489MOL0     O67403   8.063   8.806   8.418  0.5247  0.2449  0.2725
  489MOL0     C67404   7.980   8.786   8.307  0.7350 -0.2187 -0.1245
  489MOL0     C67405   7.863   8.683   8.341  0.0526  0.5156  0.3483
  489MOL0     C67406   7.743   8.690   8.255  0.1950  1.0161 -0.7723
  489MOL0     C67407   7.772   8.670   8.108 -0.0624 -0.1183 -0.6513
  489MOL0     C67408   7.843   8.544   8.067  0.1936 -0.6879  0.1632
  489MOL0     C67409   7.867   8.434   8.023 -0.6231  0.7829 -1.6002
  489MOL0     C67410   8.270   8.795   8.507 -0.7106  0.8907  0.1795
  489MOL0     C67411   8.410   8.813   8.520 -0.1828  0.0841  1.0964
  489MOL0     C67412   8.477   8.797   8.657 -0.1516 -0.0514  0.3891
  489MOL0     H67413   8.852   8.840   8.128 -1.7459 -0.9414  1.1712
  489MOL0     H67414   9.080   8.902   8.109  0.5087  1.7590  0.0840
  489MOL0     H67415   9.245   9.304   8.253  0.5926 -2.5770  0.3209
  489MOL0     H67416   9.147   9.348   8.110  0.5436 -0.7754 -3.7168
  489MOL0     H67417   9.432   9.236   8.139 -0.1791 -1.8361 -0.4124
  489MOL0     H67418   9.357   9.243   7.980  0.4877  0.2557 -0.0050
  489MOL0     H67419   9.317   9.476   7.995  0.4245  1.3976  0.3579
  489MOL0     H67420   9.390   9.491   8.155  1.9471 -1.3513  0.8805
  489MOL0     H67421   9.598   9.403   8.075 -1.5577 -0.0911  1.6585
  489MOL0     H67422   9.538   9.393   7.908 -3.7057  3.0568 -2.4961
  489MOL0     H67423   9.551   9.655   8.045  0.2799  2.0399 -2.1029
  489MOL0     H67424   9.502   9.627   7.884 -1.8498  0.4336  1.0009
  489MOL0     H67425   9.707   9.742   7.893 -2.7620 -0.4231  0.4341
  489MOL0     H67426   9.790   9.615   7.977  2.2767  0.9819 -1.7771
  489MOL0     H67427   9.638   9.544   7.725 -0.9328  1.4843  0.6101
  489MOL0     H67428   9.762   9.452   7.796  0.4505 -1.2772 -2.5366
  489MOL0     H67429   9.858   9.569   7.594  1.6122  0.7410 -0.4461
  489MOL0     H67430   9.797   9.731   7.666  0.4731  0.9185  2.4746
  489MOL0     H67431  10.050   9.452   7.744 -1.2785  0.0950 -0.3237
  489MOL0     H67432  10.268   9.490   7.965 -1.7280  0.7157 -1.1863
  489MOL0     H67433  10.336   9.646   7.963 -1.7589  0.6500  0.6593
  489MOL0     H67434  10.481   9.481   7.824  0.5522  4.2568  2.4624
  489MOL0     H67435  10.348   9.432   7.729  0.3744 -0.0564 -0.0445
  489MOL0     H67436  10.455   9.573   7.572  0.0164  3.4474 -0.4180
  489MOL0     H67437  10.308   9.649   7.628  0.3330 -0.2111 -1.3084
  489MOL0     H67438  10.529   9.785   7.601  1.3509 -1.6449 -0.1468
  489MOL0     H67439  10.436   9.808   7.755 -2.0444 -2.6939  0.9098
  489MOL0     H67440  10.593   9.984   7.722  0.8940 -0.3368 -1.0969
  489MOL0     H67441  10.641  10.212   7.718 -0.2692  0.2167  0.4144
  489MOL0     H67442  10.807  10.248   7.692 -1.1333  3.2095  1.7061
  489MOL0     H67443  10.740  10.237   7.854  0.5608 -1.4852 -0.0313
  489MOL0     H67444  11.114  10.371   7.992  1.0718  0.3394 -1.0109
  489MOL0     H67445  11.349  10.476   8.013  0.4465 -0.7848  1.1649
  489MOL0     H67446  11.723  10.199   8.014 -0.2437  0.8725 -1.2639
  489MOL0     H67447  11.691  10.286   7.867  1.2761 -0.8959 -0.1285
  489MOL0     H67448  11.819  10.370   8.125 -0.1633  3.7344  0.9008
  489MOL0     H67449  11.903  10.343   7.979  0.1224 -0.9740  1.7212
  489MOL0     H67450  11.700  10.565   8.026 -0.4899 -2.9951  0.2003
  489MOL0     H67451  11.763  10.533   7.862 -5.1721  1.9668  0.3301
  489MOL0     H67452  12.003  10.575   7.936 -1.8432  0.6544 -1.8925
  489MOL0     H67453  11.935  10.594   8.095  1.3509  0.0696 -0.8198
  489MOL0     H67454  11.978  10.803   7.996  0.9881 -0.2438 -0.6445
  489MOL0     H67455  11.870  10.774   7.853 -0.9755  0.4948  0.7624
  489MOL0     H67456  11.813  10.803   8.153 -1.6500 -2.0133  0.6011
  489MOL0     H67457  11.674  10.802   8.048 -0.6981  3.0336  1.0889
  489MOL0     H67458  11.766  11.012   7.926 -3.9848  0.0233  0.0562
  489MOL0     H67459  11.880  11.018   8.063  0.2280 -3.4635  1.0979
  489MOL0     H67460  11.579  10.990   8.132  1.4213 -1.4871 -0.5145
  489MOL0     H67461  11.635  11.150   8.077 -0.9261  0.7358  1.2328
  489MOL0     H67462  11.535  10.089   8.011  0.8664  1.9778 -2.4461
  489MOL0     H67463  11.303   9.987   7.996  0.9450 -0.5759  2.8788
  489MOL0     H67464  11.014   9.820   7.903 -0.2322  0.0855  0.5206
  489MOL0     H67465  10.847   9.665   7.869 -4.0650 -1.0221 -1.0944
  489MOL0     H67466   8.987   9.268   8.328 -0.9184 -1.8175  3.5612
  489MOL0     H67467   8.783   9.174   8.386 -0.9981  0.7264 -0.5745
  489MOL0     H67468   8.453   8.934   8.196  2.3254 -2.2462 -1.1296
  489MOL0     H67469   8.210   8.918   8.205  0.0371 -1.4049 -0.0338
  489MOL0     H67470   7.932   8.880   8.282  1.0535  0.5586  1.9693
  489MOL0     H67471   8.031   8.739   8.222 -0.6314 -1.6310 -0.2036
  489MOL0     H67472   7.827   8.712   8.440 -0.2861  3.0609 -0.4424
  489MOL0     H67473   7.911   8.585   8.347 -1.5053 -0.2420  0.9505
  489MOL0     H67474   7.678   8.606   8.282  0.4528 -0.4319 -4.1873
  489MOL0     H67475   7.698   8.788   8.272 -0.1243  1.0921 -2.0043
  489MOL0     H67476   7.819   8.767   8.089 -1.2083  0.6491  0.2945
  489MOL0     H67477   7.680   8.656   8.050 -0.5075 -2.3003  0.5209
  489MOL0     H67478   7.897   8.337   7.988 -1.1583  1.3010 -3.6225
  489MOL0     H67479   8.215   8.769   8.598  1.2733  2.1680  1.8243
  489MOL0     H67480   8.500   8.896   8.699 -0.5522  1.5725 -2.8581
  489MOL0     H67481   8.416   8.749   8.733 -0.3314  0.0416  0.3036
  489MOL0     H67482   8.571   8.741   8.648  1.0375  2.1020 -2.7452
  490MOL0     O67483  11.402   4.865   2.209 -0.0612 -0.4496 -0.4722
  490MOL0     C67484  11.303   4.930   2.221  0.1384  0.5655 -0.3147
  490MOL0     O67485  11.295   5.062   2.243 -0.3707  0.4274  0.0750
  490MOL0     C67486  11.405   5.140   2.239 -0.3636 -0.4463  0.6066
  490MOL0     C67487  11.496   5.129   2.345  0.6890  1.0419  0.0331
  490MOL0     C67488  11.611   5.207   2.352 -0.9865 -0.1585 -0.0780
  490MOL0     C67489  11.634   5.311   2.260 -0.7825  0.0525 -0.4660
  490MOL0     O67490  11.751   5.392   2.282 -0.1380 -0.2559  0.4259
  490MOL0     C67491  11.754   5.517   2.216  0.3524  0.1222 -0.2546
  490MOL0     C67492  11.890   5.582   2.257  0.2366 -0.1363  0.5721
  490MOL0     C67493  11.877   5.633   2.399 -0.6490  0.2045  0.1335
  490MOL0     C67494  12.004   5.710   2.437 -0.1535 -0.4813 -0.1448
  490MOL0     C67495  12.007   5.755   2.573 -0.5415 -0.2967 -0.3002
  490MOL0     C67496  12.142   5.823   2.596 -0.7454  0.6243  0.5035
  490MOL0     C67497  12.187   5.828   2.742 -0.4092  0.0287  1.1841
  490MOL0     C67498  12.312   5.917   2.741 -0.2544  0.3716  0.2135
  490MOL0     N67499  12.385   5.923   2.867 -0.0737  0.7636  0.0655
  490MOL0     C67500  12.408   5.818   2.953 -0.2468 -0.0895  0.2876
  490MOL0     C67501  12.483   5.872   3.049  0.6340  0.7963  0.0547
  490MOL0     C67502  12.530   5.803   3.171 -0.6810  0.3318 -0.5425
  490MOL0     C67503  12.644   5.711   3.117 -0.3190 -0.3859  0.6347
  490MOL0     C67504  12.707   5.623   3.228  0.0152 -0.1140  0.0009
  490MOL0     C67505  12.825   5.543   3.177 -0.3393  0.4738  0.0006
  490MOL0     O67506  12.878   5.463   3.284  0.3861 -0.3196  0.7247
  490MOL0     C67507  13.004   5.406   3.278 -0.2541 -0.0152  0.1971
  490MOL0     C67508  13.058   5.378   3.401 -0.5475 -0.4737 -0.3828
  490MOL0     C67509  13.188   5.319   3.408  0.1246 -0.1835 -0.5973
  490MOL0     C67510  13.233   5.297   3.550 -0.3946 -0.5730 -0.3055
  490MOL0     C67511  13.271   5.307   3.291  0.0364 -0.7472  0.0280
  490MOL0     C67512  13.408   5.244   3.282  0.2243 -0.4251  0.1857
  490MOL0     O67513  13.446   5.180   3.394  0.4385 -0.5415 -0.1606
  490MOL0     C67514  13.565   5.119   3.401 -0.2337 -0.3153 -0.3349
  490MOL0     C67515  13.636   5.049   3.302  0.0812 -0.6763 -0.2306
  490MOL0     C67516  13.756   4.985   3.331 -0.5374  0.0104 -0.6072
  490MOL0     C67517  13.818   4.984   3.453 -0.6622  0.0098  0.8835
  490MOL0     O67518  13.939   4.922   3.477  0.1552 -0.2418  0.6378
  490MOL0     C67519  13.974   4.821   3.375 -0.2298  0.2223  0.6268
  490MOL0     C67520  14.086   4.731   3.445  0.6845 -0.5131  0.3867
  490MOL0     C67521  14.120   4.592   3.369 -0.2776  0.5009 -0.3179
  490MOL0     C67522  14.201   4.633   3.245 -0.3839  0.1077 -0.1888
  490MOL0     C67523  14.260   4.500   3.186 -0.1115 -0.3765 -0.0489
  490MOL0     C67524  14.324   4.543   3.053 -0.6479 -1.2190  0.6728
  490MOL0     C67525  14.394   4.432   2.969  0.4290  0.1877  0.1633
  490MOL0     C67526  14.322   4.288   2.975  0.6088 -0.4363 -0.0115
  490MOL0    Cl67527  14.319   4.193   3.137  0.0348 -0.0489 -0.5348
  490MOL0     C67528  13.753   5.061   3.555  1.3592  0.4805  0.4305
  490MOL0     C67529  13.617   5.108   3.530 -0.9493 -0.8270 -0.1713
  490MOL0     O67530  13.469   5.249   3.175 -0.1077  0.3669 -0.7240
  490MOL0     C67531  13.213   5.342   3.168 -0.5392 -1.3537 -0.5382
  490MOL0     C67532  13.082   5.390   3.163  0.1008  0.1424  0.7193
  490MOL0     N67533  12.497   6.006   3.028  0.9093 -0.2093  0.1230
  490MOL0     N67534  12.437   6.039   2.918  0.1666 -0.2876 -0.1101
  490MOL0     C67535  11.548   5.328   2.154 -0.3723  0.2137 -0.5142
  490MOL0     C67536  11.436   5.241   2.139  0.7508  0.8281 -0.5482
  490MOL0     C67537  11.181   4.850   2.228  0.6265 -0.1072  0.3862
  490MOL0     C67538  11.122   4.821   2.351  0.4577 -0.4803 -0.0307
  490MOL0     C67539  11.002   4.754   2.362 -0.2929 -0.5894  0.6552
  490MOL0     C67540  10.932   4.710   2.247 -0.5997  0.2227  0.0773
  490MOL0     O67541  10.822   4.633   2.275  0.3474  0.0917  0.2725
  490MOL0     C67542  10.720   4.619   2.179  0.3079  0.0304  0.6306
  490MOL0     C67543  10.585   4.647   2.241 -0.1678  0.5408  0.1314
  490MOL0     C67544  10.469   4.661   2.140  0.1021  0.3455 -0.3542
  490MOL0     C67545  10.438   4.524   2.068 -0.2831  0.3254  0.2304
  490MOL0     C67546  10.312   4.516   2.005  0.4996  0.0726 -0.0147
  490MOL0     C67547  10.212   4.485   1.941 -0.3461  0.4412 -0.5401
  490MOL0     C67548  10.995   4.726   2.124  0.3358  0.6813  0.2614
  490MOL0     C67549  11.114   4.808   2.115  0.7095  0.8382 -0.1747
  490MOL0     C67550  11.152   4.840   1.978 -0.1874 -0.1431 -0.1246
  490MOL0     H67551  11.476   5.064   2.431  3.3248  0.4465  0.2805
  490MOL0     H67552  11.679   5.184   2.434 -3.0228 -1.8722  1.2161
  490MOL0     H67553  11.668   5.577   2.246  0.7620  1.5502 -1.8006
  490MOL0     H67554  11.749   5.504   2.107  2.2493  0.5589 -0.4182
  490MOL0     H67555  11.971   5.510   2.243 -0.5647 -1.3756  2.1132
  490MOL0     H67556  11.913   5.673   2.199  0.5963  2.1099  3.9399
  490MOL0     H67557  11.792   5.700   2.411 -2.4192 -2.2219  2.2515
  490MOL0     H67558  11.872   5.550   2.470  3.0254 -0.8639 -0.6589
  490MOL0     H67559  12.095   5.653   2.416 -0.3510 -0.6781 -0.4786
  490MOL0     H67560  12.021   5.788   2.362 -0.4967 -0.6255 -0.3733
  490MOL0     H67561  11.980   5.677   2.645 -0.8470 -0.2470 -0.3564
  490MOL0     H67562  11.934   5.837   2.582  1.3918  1.3823  0.7385
  490MOL0     H67563  12.221   5.764   2.548 -0.3677  0.9509  0.7106
  490MOL0     H67564  12.147   5.923   2.552 -0.4187 -0.3234 -1.7753
  490MOL0     H67565  12.207   5.727   2.778 -1.1082  0.5369  3.1161
  490MOL0     H67566  12.111   5.877   2.804  0.1659  4.1172 -0.9318
  490MOL0     H67567  12.388   5.877   2.673  2.1479 -2.0473  3.9396
  490MOL0     H67568  12.291   6.014   2.696  1.0897  0.0979 -1.0647
  490MOL0     H67569  12.378   5.714   2.944  0.7188 -0.5926  2.2772
  490MOL0     H67570  12.446   5.743   3.208  0.6465 -4.1393 -3.9102
  490MOL0     H67571  12.566   5.879   3.241  0.5345 -0.8833  0.2099
  490MOL0     H67572  12.604   5.652   3.034 -1.6367  0.1640  0.8563
  490MOL0     H67573  12.729   5.770   3.081  0.0016 -0.3289  1.4625
  490MOL0     H67574  12.750   5.691   3.302 -1.1348  1.2011 -0.4930
  490MOL0     H67575  12.623   5.565   3.268 -2.0748  0.8739 -2.5835
  490MOL0     H67576  12.799   5.478   3.093 -1.0023  2.7267 -1.5964
  490MOL0     H67577  12.903   5.617   3.164  0.5715 -0.4449  0.0979
  490MOL0     H67578  13.001   5.407   3.489  2.6100 -0.8568  1.9890
  490MOL0     H67579  13.320   5.360   3.568 -2.1802  2.5217 -1.7594
  490MOL0     H67580  13.258   5.192   3.570  1.2625 -0.4823 -1.6636
  490MOL0     H67581  13.162   5.327   3.628  0.8677  0.2734  0.5630
  490MOL0     H67582  13.592   5.044   3.203 -1.7694  1.6396  0.3768
  490MOL0     H67583  13.804   4.941   3.244  2.9150  0.2789  1.0186
  490MOL0     H67584  13.886   4.758   3.357 -0.6329  0.8922  0.1954
  490MOL0     H67585  14.018   4.875   3.291 -0.3009 -0.9261 -0.1668
  490MOL0     H67586  14.177   4.787   3.464 -0.2221  2.2348 -2.3681
  490MOL0     H67587  14.044   4.707   3.543  0.5909 -0.5460  0.3397
  490MOL0     H67588  14.033   4.537   3.334  0.6347 -1.6596  0.6302
  490MOL0     H67589  14.176   4.530   3.440  1.0338  0.4029 -1.3920
  490MOL0     H67590  14.280   4.706   3.264  1.6428 -2.3004  1.2623
  490MOL0     H67591  14.133   4.677   3.171 -0.2423  0.8113  0.0981
  490MOL0     H67592  14.335   4.457   3.253 -0.3466 -0.1596  0.3545
  490MOL0     H67593  14.186   4.422   3.167  1.4471 -2.3024  1.2980
  490MOL0     H67594  14.399   4.618   3.076 -1.7514 -0.1414  0.8923
  490MOL0     H67595  14.255   4.593   2.983  0.8565  0.9006  0.6126
  490MOL0     H67596  14.498   4.422   2.999  2.4214  4.7281 -4.0081
  490MOL0     H67597  14.403   4.459   2.864  2.2790 -1.1399 -0.0615
  490MOL0     H67598  14.368   4.222   2.901  0.2068 -0.1108 -0.5526
  490MOL0     H67599  14.218   4.293   2.942  0.2481 -2.5624  0.6235
  490MOL0     H67600  13.809   5.059   3.648  1.8612 -0.8187  0.1208
  490MOL0     H67601  13.565   5.151   3.615 -0.4302 -1.1533  0.3159
  490MOL0     H67602  13.272   5.352   3.077  1.9124  1.1057  1.1628
  490MOL0     H67603  13.040   5.396   3.063  0.6720 -1.4111  0.3560
  490MOL0     H67604  11.560   5.415   2.091  1.5613  0.9524  0.7923
  490MOL0     H67605  11.367   5.249   2.056  0.7077  1.8795 -0.4229
  490MOL0     H67606  11.174   4.855   2.440 -0.6215 -0.4077  0.5844
  490MOL0     H67607  10.957   4.737   2.459 -3.2959  0.7762 -0.3981
  490MOL0     H67608  10.728   4.690   2.096 -1.6487 -0.7561 -0.3121
  490MOL0     H67609  10.729   4.518   2.140  0.1406  0.3601 -0.2899
  490MOL0     H67610  10.596   4.746   2.288  1.2665  0.6989 -0.4712
  490MOL0     H67611  10.563   4.566   2.310  0.8292  0.6277  0.5744
  490MOL0     H67612  10.379   4.684   2.198 -1.3796 -3.4478 -0.8566
  490MOL0     H67613  10.484   4.740   2.067 -1.3893  2.5521  1.5762
  490MOL0     H67614  10.466   4.437   2.127  0.0418  0.9133  0.9744
  490MOL0     H67615  10.511   4.521   1.986 -2.8894 -0.1438 -2.2242
  490MOL0     H67616  10.129   4.448   1.885 -1.7133  2.7111 -0.1306
  490MOL0     H67617  10.941   4.680   2.042 -1.7235 -1.5999  2.7146
  490MOL0     H67618  11.243   4.901   1.965 -1.7077  2.5709  1.0671
  490MOL0     H67619  11.170   4.753   1.914  0.9616  0.5086 -0.7237
  490MOL0     H67620  11.073   4.890   1.921  0.7356  1.6994  0.1106
  491MOL0     O67621   6.285   6.305   3.640  0.3724  0.0880  0.5808
  491MOL0     C67622   6.241   6.295   3.523  0.4871 -0.7417 -0.2019
  491MOL0     O67623   6.322   6.266   3.415  0.2600 -0.0877  0.0966
  491MOL0     C67624   6.457   6.262   3.430 -0.0536  0.1925  0.0991
  491MOL0     C67625   6.527   6.355   3.354  0.0989  0.1700 -0.5882
  491MOL0     C67626   6.668   6.343   3.364 -0.5454  0.0703 -0.1821
  491MOL0     C67627   6.727   6.263   3.464  0.5641 -0.3335  0.8856
  491MOL0     O67628   6.858   6.286   3.483  0.0290 -0.5566 -0.4826
  491MOL0     C67629   6.920   6.213   3.583  0.4620  0.5584  0.1783
  491MOL0     C67630   7.067   6.233   3.583  0.0997  1.1453 -0.7137
  491MOL0     C67631   7.112   6.367   3.626  1.1297 -0.0897  0.6691
  491MOL0     C67632   7.261   6.389   3.637  0.8729 -0.2585 -0.4241
  491MOL0     C67633   7.294   6.539   3.642 -0.0282 -0.1535 -0.5214
  491MOL0     C67634   7.442   6.547   3.651  0.9948 -0.0946  0.0274
  491MOL0     C67635   7.489   6.693   3.632 -0.0452 -0.2227  0.4598
  491MOL0     C67636   7.520   6.754   3.774 -0.2998  0.6048  0.0584
  491MOL0     N67637   7.549   6.897   3.769  0.3528  0.2456 -0.4029
  491MOL0     C67638   7.447   6.994   3.770 -0.1450 -0.3286  0.6170
  491MOL0     C67639   7.511   7.117   3.767 -0.6294  0.1669 -0.2239
  491MOL0     C67640   7.444   7.245   3.760  0.2348 -0.9747  0.6820
  491MOL0     C67641   7.488   7.331   3.882  0.5271  0.2772 -0.2025
  491MOL0     C67642   7.615   7.415   3.850  0.0103 -0.0255 -0.7577
  491MOL0     C67643   7.663   7.482   3.968  0.4244  0.1103  0.9778
  491MOL0     O67644   7.667   7.396   4.083 -0.6327  0.5117 -0.4580
  491MOL0     C67645   7.797   7.344   4.107  1.1427  0.4067  0.3853
  491MOL0     C67646   7.847   7.240   4.028  0.5055  0.0491 -0.5875
  491MOL0     C67647   7.978   7.195   4.051 -0.0033 -0.1599 -0.0027
  491MOL0     C67648   8.023   7.082   3.969  0.4282  0.3019  0.4444
  491MOL0     C67649   8.062   7.258   4.147 -0.6001  0.4402 -0.4184
  491MOL0     C67650   8.201   7.211   4.174 -0.5514  1.2065  0.4717
  491MOL0     O67651   8.276   7.152   4.067 -0.1850  0.4068 -0.4986
  491MOL0     C67652   8.417   7.133   4.075 -0.6516 -0.9917 -0.3711
  491MOL0     C67653   8.500   7.224   4.144  0.1084 -0.0293 -0.6660
  491MOL0     C67654   8.634   7.204   4.147 -0.7513 -0.5989  1.0092
  491MOL0     C67655   8.688   7.091   4.083 -0.1075  0.3732 -0.2915
  491MOL0     O67656   8.819   7.071   4.100 -0.1196  0.5521  0.1287
  491MOL0     C67657   8.894   7.006   3.997  0.1784  0.0123 -0.2126
  491MOL0     C67658   9.035   7.027   4.039  0.0904 -0.3569  0.0790
  491MOL0     C67659   9.077   7.175   4.012  0.6059  0.3519  0.3126
  491MOL0     C67660   9.219   7.201   4.072 -0.5346 -0.5545  0.4998
  491MOL0     C67661   9.283   7.335   4.019  0.4074 -1.5962  0.5011
  491MOL0     C67662   9.275   7.362   3.862 -0.2700  0.2196 -0.5527
  491MOL0     C67663   9.356   7.495   3.834  0.7856 -0.0826  0.3331
  491MOL0     C67664   9.501   7.484   3.790 -0.1100  0.0667  0.7236
  491MOL0    Cl67665   9.573   7.650   3.777 -0.1089 -0.4526  0.5387
  491MOL0     C67666   8.605   6.996   4.020  0.2354  0.3175 -0.0548
  491MOL0     C67667   8.467   7.024   4.010  0.7932 -0.9042  0.2141
  491MOL0     O67668   8.242   7.239   4.287 -0.4267 -0.1222 -0.0726
  491MOL0     C67669   8.003   7.355   4.229  0.1170  0.1770 -0.1126
  491MOL0     C67670   7.869   7.392   4.212  0.5004  0.1303  0.2996
  491MOL0     N67671   7.647   7.088   3.768 -0.1802  1.4910 -0.3868
  491MOL0     N67672   7.671   6.959   3.755 -0.3841  0.2163 -0.2567
  491MOL0     C67673   6.646   6.161   3.531 -0.4245  0.7888  0.4443
  491MOL0     C67674   6.509   6.168   3.522 -0.4751  0.3648  0.5095
  491MOL0     C67675   6.106   6.329   3.487 -0.7279 -0.5383 -0.6444
  491MOL0     C67676   6.071   6.350   3.349  0.3837 -0.7978  1.1070
  491MOL0     C67677   5.936   6.357   3.300  0.5530 -0.0039 -0.5418
  491MOL0     C67678   5.837   6.358   3.398  0.7301 -0.2873  1.0486
  491MOL0     O67679   5.700   6.359   3.362 -0.2822 -0.1012  0.3463
  491MOL0     C67680   5.654   6.360   3.225 -0.1054  0.1816 -0.1042
  491MOL0     C67681   5.673   6.222   3.152 -0.0755  0.3154 -0.1754
  491MOL0     C67682   5.660   6.234   3.000 -1.5637  0.2805  0.4769
  491MOL0     C67683   5.761   6.152   2.911 -0.5084  0.1420 -0.2397
  491MOL0     C67684   5.802   6.025   2.963 -0.6460  0.2116 -0.1745
  491MOL0     C67685   5.835   5.918   3.014 -0.5677  0.3397  0.3190
  491MOL0     C67686   5.875   6.359   3.532 -0.3834 -0.5635  0.0693
  491MOL0     C67687   6.001   6.335   3.577 -1.4538 -0.1003  0.5747
  491MOL0     C67688   6.012   6.300   3.723 -0.5601 -1.4383  0.6212
  491MOL0     H67689   6.483   6.439   3.302  2.1704  0.6496 -1.6591
  491MOL0     H67690   6.738   6.407   3.311 -0.0242  1.3566  1.9584
  491MOL0     H67691   6.904   6.106   3.568  0.8072  0.4903  0.2909
  491MOL0     H67692   6.882   6.233   3.684  1.5913  3.5870  0.1007
  491MOL0     H67693   7.115   6.160   3.649 -0.3021  3.6773  2.6733
  491MOL0     H67694   7.095   6.210   3.480 -0.6182 -1.5993 -0.3989
  491MOL0     H67695   7.077   6.446   3.560  0.0887 -2.7085 -2.1570
  491MOL0     H67696   7.076   6.382   3.728  1.3253 -1.6801  1.0035
  491MOL0     H67697   7.297   6.340   3.728 -0.0584 -0.3476 -0.0899
  491MOL0     H67698   7.301   6.335   3.550 -1.5804 -2.3347 -0.3999
  491MOL0     H67699   7.245   6.583   3.729 -1.8829 -0.9363 -1.1129
  491MOL0     H67700   7.255   6.590   3.554 -0.9657  1.1388  0.6004
  491MOL0     H67701   7.482   6.503   3.743  3.4040 -1.2576 -1.4661
  491MOL0     H67702   7.489   6.503   3.562  0.4599  1.0361 -0.8396
  491MOL0     H67703   7.417   6.741   3.566 -0.5281 -3.2532 -1.4056
  491MOL0     H67704   7.581   6.691   3.573 -0.3997  0.3971 -0.1164
  491MOL0     H67705   7.436   6.753   3.844  2.4695 -2.7008  3.8339
  491MOL0     H67706   7.607   6.702   3.816 -1.0849 -1.6909 -0.9685
  491MOL0     H67707   7.340   6.985   3.759  0.0145  0.7052 -3.3594
  491MOL0     H67708   7.336   7.242   3.743  0.1679 -1.6721  1.1973
  491MOL0     H67709   7.473   7.292   3.665 -0.0932  0.0249  1.0657
  491MOL0     H67710   7.406   7.399   3.905 -0.9991 -0.7670 -2.1525
  491MOL0     H67711   7.494   7.263   3.968 -3.6045  1.6270  1.3924
  491MOL0     H67712   7.692   7.353   3.803 -1.7307 -2.8375 -0.1373
  491MOL0     H67713   7.595   7.499   3.782  1.2081  1.2966  0.4389
  491MOL0     H67714   7.758   7.531   3.947  0.6010 -1.1591 -1.6409
  491MOL0     H67715   7.587   7.559   3.978 -0.4995 -0.2842 -2.0606
  491MOL0     H67716   7.780   7.189   3.959  1.5825 -1.3895 -0.6051
  491MOL0     H67717   7.936   7.044   3.914  1.4092  1.4368 -2.0325
  491MOL0     H67718   8.043   6.992   4.029 -0.4664  0.3577  0.8469
  491MOL0     H67719   8.103   7.114   3.902  1.0202  4.4503  2.8112
  491MOL0     H67720   8.452   7.304   4.199  1.4504 -1.3774  2.8158
  491MOL0     H67721   8.697   7.280   4.192 -1.9354  1.6996 -0.9768
  491MOL0     H67722   8.879   6.898   3.993  0.7657 -0.1427  1.0968
  491MOL0     H67723   8.896   7.050   3.897 -0.3070 -0.3729 -0.3931
  491MOL0     H67724   9.045   7.012   4.147 -2.0078  0.2472  0.4151
  491MOL0     H67725   9.104   6.957   3.991  1.6472 -0.5165  2.3948
  491MOL0     H67726   9.004   7.242   4.059 -1.5653 -1.1417 -0.7780
  491MOL0     H67727   9.078   7.198   3.905  0.3079  1.2107  0.4890
  491MOL0     H67728   9.293   7.134   4.027  1.3094  1.5567  0.2305
  491MOL0     H67729   9.229   7.191   4.180  1.7493  1.0564  0.4954
  491MOL0     H67730   9.223   7.416   4.061  1.5391 -1.0626  1.1300
  491MOL0     H67731   9.386   7.340   4.055  1.0649 -1.8252 -1.2323
  491MOL0     H67732   9.170   7.376   3.835  0.2847  0.7416 -2.6597
  491MOL0     H67733   9.319   7.283   3.801 -0.8503 -0.7129  0.2192
  491MOL0     H67734   9.358   7.570   3.914 -0.8893  2.3113 -1.6988
  491MOL0     H67735   9.295   7.542   3.756 -2.2605  0.1051  2.6298
  491MOL0     H67736   9.503   7.429   3.695 -0.2391 -2.4485  2.0859
  491MOL0     H67737   9.548   7.411   3.857 -1.3896 -0.9325  0.5782
  491MOL0     H67738   8.651   6.906   3.979  4.4566  1.9067  0.7371
  491MOL0     H67739   8.387   6.968   3.962 -0.8176 -0.4643  2.2733
  491MOL0     H67740   8.064   7.403   4.305  0.0113  0.1671 -0.0208
  491MOL0     H67741   7.832   7.472   4.275  2.2571  1.0939  0.1788
  491MOL0     H67742   6.685   6.091   3.604 -1.7358  2.9083  3.3721
  491MOL0     H67743   6.450   6.091   3.570  3.1124 -2.8499  0.1961
  491MOL0     H67744   6.143   6.345   3.268 -0.2146  1.3080  0.3799
  491MOL0     H67745   5.914   6.357   3.194  1.8944  0.5601 -0.8377
  491MOL0     H67746   5.546   6.382   3.229 -0.2753 -0.7488  0.5947
  491MOL0     H67747   5.699   6.446   3.174 -0.9657  0.0524 -1.1289
  491MOL0     H67748   5.593   6.156   3.186  1.3888 -0.6614  1.5472
  491MOL0     H67749   5.766   6.172   3.179  0.0636 -1.5478 -3.5713
  491MOL0     H67750   5.558   6.201   2.981 -0.5620 -2.2449 -1.1011
  491MOL0     H67751   5.672   6.337   2.965  0.9700 -0.3158 -0.6666
  491MOL0     H67752   5.846   6.220   2.896 -3.0405  3.7172  0.3365
  491MOL0     H67753   5.713   6.130   2.815 -1.1362  1.4046 -0.2279
  491MOL0     H67754   5.854   5.820   3.053 -0.9276 -1.3493 -3.3283
  491MOL0     H67755   5.793   6.365   3.603 -0.5739  1.1958 -0.2696
  491MOL0     H67756   6.054   6.388   3.773 -1.3704 -1.2066  0.9084
  491MOL0     H67757   5.926   6.282   3.787  0.3192  0.9564  2.6340
  491MOL0     H67758   6.064   6.205   3.737 -0.8938 -1.9713 -1.4166
  492MOL0     O67759   0.084  10.540  11.164 -0.5295  0.3472 -0.1047
  492MOL0     C67760   0.018  10.463  11.102  0.2710  0.0314 -0.2657
  492MOL0     O67761   0.058  10.399  10.988 -0.3113 -0.1160  0.1442
  492MOL0     C67762   0.168  10.446  10.917  1.4617  0.6803  0.5732
  492MOL0     C67763   0.143  10.491  10.794  0.4296 -0.2729  0.5845
  492MOL0     C67764   0.244  10.537  10.709 -0.7104 -0.1893 -0.3848
  492MOL0     C67765   0.386  10.535  10.763 -0.3003  0.8619 -0.9923
  492MOL0     O67766   0.507  10.577  10.715 -0.8781  0.2037 -0.2078
  492MOL0     C67767   0.521  10.571  10.571  0.4388  0.2843 -0.1709
  492MOL0     C67768   0.666  10.619  10.540  0.3241 -0.2498 -0.6782
  492MOL0     C67769   0.715  10.593  10.398 -0.1548 -0.8039 -0.3868
  492MOL0     C67770   0.871  10.578  10.388  0.3675  0.0615 -0.4132
  492MOL0     C67771   0.928  10.457  10.468 -0.1329 -0.8579  0.0229
  492MOL0     C67772   1.076  10.434  10.421 -0.1418 -0.7097 -0.9352
  492MOL0     C67773   1.147  10.339  10.523  0.3944 -0.0468 -0.2402
  492MOL0     C67774   1.290  10.306  10.466  0.7392 -0.6674  0.3857
  492MOL0     N67775   1.365  10.426  10.433  0.0694  0.1551 -0.4743
  492MOL0     C67776   1.404  10.522  10.519 -0.5874 -0.4145 -0.0633
  492MOL0     C67777   1.441  10.622  10.437 -0.1161 -0.0224  0.8785
  492MOL0     C67778   1.499  10.750  10.495  0.1354  0.0706 -1.1615
  492MOL0     C67779   1.649  10.738  10.474  0.1448  0.2998  0.3079
  492MOL0     C67780   1.727  10.831  10.576 -0.1143  0.5294 -0.8234
  492MOL0     C67781   1.876  10.823  10.547 -0.6715  0.7177  0.5783
  492MOL0     O67782   1.913  10.891  10.426  0.3121  0.1448  0.1473
  492MOL0     C67783   2.040  10.949  10.418  0.1158 -0.0913 -0.0333
  492MOL0     C67784   2.069  11.015  10.294  0.8826 -0.8383  0.9175
  492MOL0     C67785   2.187  11.088  10.266 -0.1360 -1.0730  0.5071
  492MOL0     C67786   2.204  11.146  10.133 -0.3758 -0.8291  0.3846
  492MOL0     C67787   2.285  11.079  10.370  0.0735  0.3281 -0.4326
  492MOL0     C67788   2.421  11.142  10.363  0.0169  0.0019 -0.3384
  492MOL0     O67789   2.514  11.074  10.433  0.3584 -0.0377  0.1610
  492MOL0     C67790   2.647  11.108  10.447  0.1887 -0.3843  0.9617
  492MOL0     C67791   2.745  11.018  10.400  0.1235  0.9579 -0.5378
  492MOL0     C67792   2.879  11.040  10.404  0.6032 -1.0404  0.2134
  492MOL0     C67793   2.931  11.171  10.442 -0.6201  0.2957  0.5132
  492MOL0     O67794   3.069  11.181  10.444 -0.7965 -0.3602 -0.2872
  492MOL0     C67795   3.125  11.264  10.543  0.6920 -0.1301  0.2189
  492MOL0     C67796   3.265  11.300  10.498 -0.5391 -0.3019 -1.1683
  492MOL0     C67797   3.338  11.405  10.590  0.2972  0.0425 -0.9262
  492MOL0     C67798   3.464  11.446  10.517  0.5520 -0.1306  0.2628
  492MOL0     C67799   3.535  11.554  10.591 -1.0213 -0.2895  0.2878
  492MOL0     C67800   3.664  11.590  10.523 -0.5505  0.4213 -0.6468
  492MOL0     C67801   3.751  11.471  10.466  0.1842 -0.8150  0.2499
  492MOL0     C67802   3.869  11.523  10.388 -0.0830 -0.1519 -0.4840
  492MOL0    Cl67803   4.002  11.417  10.374  0.1589 -0.1245 -0.3197
  492MOL0     C67804   2.832  11.266  10.477  0.2139  0.1930  0.4665
  492MOL0     C67805   2.694  11.231  10.486 -1.0517  0.6613  0.3559
  492MOL0     O67806   2.445  11.240  10.294 -0.4648 -0.9390 -0.2452
  492MOL0     C67807   2.258  11.021  10.489 -0.4896  0.6433 -0.0918
  492MOL0     C67808   2.143  10.955  10.514  0.0680 -0.4241 -0.2203
  492MOL0     N67809   1.427  10.581  10.303  0.3247 -1.1427 -0.1138
  492MOL0     N67810   1.369  10.473  10.307  0.0796 -0.3316  0.1670
  492MOL0     C67811   0.403  10.480  10.893 -0.3285  0.0367  0.2308
  492MOL0     C67812   0.293  10.427  10.965 -0.6715 -0.9974 -0.1284
  492MOL0     C67813  -0.123  10.460  11.157 -0.5366 -0.7325 -0.8727
  492MOL0     C67814  -0.158  10.513  11.286 -0.3052 -0.8045  1.0653
  492MOL0     C67815  -0.287  10.525  11.332  0.3163 -0.0104 -0.5574
  492MOL0     C67816  -0.397  10.489  11.249  0.3309 -0.5763 -0.0153
  492MOL0     O67817  -0.535  10.494  11.284 -0.4535  0.7431  0.6294
  492MOL0     C67818  -0.562  10.551  11.411 -0.6888 -0.3291  0.0006
  492MOL0     C67819  -0.715  10.541  11.440 -0.7554 -0.5552  0.3167
  492MOL0     C67820  -0.752  10.389  11.461 -0.5749  1.0822  0.2323
  492MOL0     C67821  -0.767  10.334  11.608  0.3521 -0.2098  0.4364
  492MOL0     C67822  -0.900  10.356  11.662  0.1568 -0.1708  0.6926
  492MOL0     C67823  -1.017  10.369  11.696  0.5420 -0.0852 -0.3405
  492MOL0     C67824  -0.365  10.449  11.122  0.2707 -1.0167 -0.5363
  492MOL0     C67825  -0.230  10.412  11.078  0.7127  0.1862 -0.7373
  492MOL0     C67826  -0.233  10.326  10.955  0.1760 -0.5434 -0.9787
  492MOL0     H67827   0.038  10.489  10.763  0.2907 -1.0567  1.0788
  492MOL0     H67828   0.227  10.594  10.618 -0.2580 -1.5699 -1.3668
  492MOL0     H67829   0.440  10.625  10.520 -1.4708 -2.5110 -0.3133
  492MOL0     H67830   0.512  10.466  10.543  1.1165 -0.1596  1.2006
  492MOL0     H67831   0.685  10.726  10.553  1.4385 -0.2117 -2.1817
  492MOL0     H67832   0.737  10.575  10.611 -0.4358  0.6212  0.6462
  492MOL0     H67833   0.666  10.505  10.356 -1.4005  0.2234 -1.1713
  492MOL0     H67834   0.689  10.679  10.335 -0.7015 -1.9220 -1.7197
  492MOL0     H67835   0.910  10.571  10.286 -2.0846 -0.0482 -1.4214
  492MOL0     H67836   0.909  10.670  10.433  0.2020 -0.6675  1.3172
  492MOL0     H67837   0.857  10.376  10.446  3.3205 -3.3878 -3.1382
  492MOL0     H67838   0.924  10.483  10.574  2.6039 -0.0219 -0.0014
  492MOL0     H67839   1.080  10.389  10.321  1.5747  0.3931 -1.4026
  492MOL0     H67840   1.126  10.529  10.441 -0.4455 -1.1436  2.3067
  492MOL0     H67841   1.092  10.245  10.524 -0.9229  0.6193  3.0479
  492MOL0     H67842   1.144  10.372  10.627  1.4369 -1.5170  0.2908
  492MOL0     H67843   1.354  10.241  10.527 -1.2008 -1.2941  1.8587
  492MOL0     H67844   1.276  10.252  10.372 -2.3555  1.0039 -0.2554
  492MOL0     H67845   1.422  10.514  10.626  3.3236  0.7928 -0.4704
  492MOL0     H67846   1.499  10.757  10.604  1.2163  1.4111 -1.2154
  492MOL0     H67847   1.443  10.839  10.466  2.4608  3.1179  2.6792
  492MOL0     H67848   1.684  10.635  10.489 -0.0547  0.4890  2.3502
  492MOL0     H67849   1.671  10.777  10.375  0.3928  0.4737  0.4318
  492MOL0     H67850   1.688  10.933  10.566 -0.8178  0.1241 -2.6463
  492MOL0     H67851   1.706  10.787  10.674  2.6551 -1.0603 -0.8311
  492MOL0     H67852   1.918  10.856  10.642 -1.9036 -0.9681  1.7801
  492MOL0     H67853   1.905  10.718  10.538 -2.7350  0.1123  0.3815
  492MOL0     H67854   1.989  11.012  10.221 -0.3613 -1.4948  2.2703
  492MOL0     H67855   2.245  11.247  10.141  0.9851 -1.1505 -1.7398
  492MOL0     H67856   2.114  11.153  10.070  0.4743  0.7396 -0.7415
  492MOL0     H67857   2.275  11.086  10.075  0.0302 -0.9208  0.9751
  492MOL0     H67858   2.721  10.919  10.362 -0.2545  0.1430  1.6786
  492MOL0     H67859   2.944  10.959  10.373  2.0394  0.0535  0.2509
  492MOL0     H67860   3.061  11.352  10.556 -1.1633 -1.6235  1.9979
  492MOL0     H67861   3.120  11.216  10.641  1.7619 -1.3357 -0.2816
  492MOL0     H67862   3.330  11.212  10.490  0.9004  0.4480  1.4164
  492MOL0     H67863   3.255  11.351  10.402  3.7235  4.7296  0.5864
  492MOL0     H67864   3.373  11.374  10.689  2.7518  0.8369 -1.4873
  492MOL0     H67865   3.265  11.485  10.608 -0.3743 -0.5789 -0.8207
  492MOL0     H67866   3.445  11.484  10.416  0.3754  0.1232  0.3887
  492MOL0     H67867   3.520  11.352  10.510 -0.8623 -0.9804  0.0427
  492MOL0     H67868   3.467  11.636  10.615 -0.6714 -0.0614  0.5096
  492MOL0     H67869   3.563  11.516  10.689  0.7100 -0.8097 -0.3806
  492MOL0     H67870   3.731  11.653  10.581  1.0807  0.8120 -2.8208
  492MOL0     H67871   3.642  11.659  10.441  3.1093 -0.1425 -2.2987
  492MOL0     H67872   3.706  11.401  10.395  2.1500 -3.6758  1.6549
  492MOL0     H67873   3.796  11.411  10.545  1.0876 -1.3829 -0.6638
  492MOL0     H67874   3.902  11.615  10.438  0.6265  1.0402 -3.0138
  492MOL0     H67875   3.841  11.548  10.286  3.9178  2.4753 -1.1435
  492MOL0     H67876   2.861  11.360  10.523  0.0827 -1.2054  3.7287
  492MOL0     H67877   2.614  11.299  10.515 -2.5430 -1.8664  2.6673
  492MOL0     H67878   2.336  11.007  10.564 -0.9505 -0.0938  0.2640
  492MOL0     H67879   2.121  10.908  10.610 -1.1621  0.1450 -0.2004
  492MOL0     H67880   0.493  10.478  10.953 -1.2487 -1.5849  1.6650
  492MOL0     H67881   0.310  10.380  11.061 -2.1791 -0.8078  0.2424
  492MOL0     H67882  -0.079  10.544  11.354  0.9075 -0.6782 -0.3346
  492MOL0     H67883  -0.303  10.561  11.434 -1.5658 -0.4046 -0.6739
  492MOL0     H67884  -0.505  10.506  11.493 -3.6369 -3.9358  0.3292
  492MOL0     H67885  -0.540  10.658  11.411  0.5001 -0.4591  2.9641
  492MOL0     H67886  -0.773  10.586  11.359 -1.5248  1.8305  2.0460
  492MOL0     H67887  -0.736  10.598  11.532 -2.6095  0.4017 -0.6471
  492MOL0     H67888  -0.849  10.376  11.412 -1.5088  1.4762  1.9178
  492MOL0     H67889  -0.676  10.324  11.415 -0.8283  0.9950 -0.0665
  492MOL0     H67890  -0.695  10.389  11.669  0.4862 -0.6838  0.7066
  492MOL0     H67891  -0.752  10.226  11.607 -1.4169 -0.5169 -1.5601
  492MOL0     H67892  -1.118  10.390  11.727  1.3265  0.6568  1.9018
  492MOL0     H67893  -0.450  10.414  11.064  0.6697 -3.8521  0.4427
  492MOL0     H67894  -0.337  10.310  10.926 -1.4190  4.6732  0.7386
  492MOL0     H67895  -0.186  10.387  10.877  0.7194  1.5362  0.8678
  492MOL0     H67896  -0.180  10.231  10.970  0.2337 -0.2811  0.6158
  493MOL0     O67897   8.940   9.462   1.920 -0.0215 -0.0947 -0.2194
  493MOL0     C67898   8.905   9.347   1.922 -0.6941  0.8466  0.3142
  493MOL0     O67899   8.978   9.248   1.981 -0.1127  0.4337 -0.1897
  493MOL0     C67900   9.107   9.261   2.031  0.0492 -0.0824 -0.0483
  493MOL0     C67901   9.132   9.354   2.136  0.8652 -0.3559 -0.2037
  493MOL0     C67902   9.266   9.372   2.190  0.0059  0.0915  0.2243
  493MOL0     C67903   9.373   9.299   2.155 -0.8520 -0.5417 -0.3194
  493MOL0     O67904   9.497   9.330   2.204  0.2285 -0.7743  0.3289
  493MOL0     C67905   9.581   9.231   2.251  0.8475 -0.5674 -0.0129
  493MOL0     C67906   9.712   9.289   2.293 -0.8801  0.0436 -0.4937
  493MOL0     C67907   9.793   9.203   2.382 -0.6240 -0.4991 -0.3256
  493MOL0     C67908   9.841   9.069   2.337  0.8367 -0.2142 -0.4890
  493MOL0     C67909   9.936   8.998   2.440 -0.3510 -0.3553 -0.2706
  493MOL0     C67910   9.976   8.859   2.389  0.6673  0.9333  0.4619
  493MOL0     C67911  10.043   8.773   2.499  0.7428  0.1005  0.8896
  493MOL0     C67912  10.169   8.820   2.548  0.3347 -0.4836 -0.6749
  493MOL0     N67913  10.239   8.735   2.648 -0.6048  0.5016  0.7288
  493MOL0     C67914  10.379   8.727   2.651  0.0489 -0.8353  0.0733
  493MOL0     C67915  10.409   8.662   2.769 -0.4214 -0.3486  0.0287
  493MOL0     C67916  10.546   8.617   2.803  0.6286  0.3139 -0.4563
  493MOL0     C67917  10.559   8.492   2.898  0.4103  0.3644 -0.3523
  493MOL0     C67918  10.509   8.362   2.832 -0.4596 -0.9099  0.5707
  493MOL0     C67919  10.605   8.318   2.717 -0.3630  0.5095  0.0376
  493MOL0     O67920  10.733   8.274   2.774 -0.3542 -0.3167 -0.4024
  493MOL0     C67921  10.820   8.197   2.699  0.1673 -0.4125  0.2928
  493MOL0     C67922  10.811   8.166   2.559 -0.7777 -0.0661 -0.3083
  493MOL0     C67923  10.922   8.122   2.490  0.0861 -0.8138  0.2266
  493MOL0     C67924  10.893   8.105   2.344 -0.1643 -0.7284 -0.3071
  493MOL0     C67925  11.041   8.096   2.562  0.1206 -0.1853  0.6159
  493MOL0     C67926  11.164   8.038   2.508  0.0065 -0.5184  1.2287
  493MOL0     O67927  11.248   7.972   2.591 -0.1234  0.0113 -0.0926
  493MOL0     C67928  11.380   7.958   2.551  0.2421  0.2681 -0.3004
  493MOL0     C67929  11.455   8.049   2.481  0.0981  0.6912 -0.3009
  493MOL0     C67930  11.583   8.034   2.445 -0.3203 -0.1127 -0.1668
  493MOL0     C67931  11.643   7.908   2.452  0.4555 -0.1877  0.0033
  493MOL0     O67932  11.772   7.890   2.423  0.1717  0.3336  0.6742
  493MOL0     C67933  11.811   7.755   2.398 -0.4417 -0.3731  0.4977
  493MOL0     C67934  11.945   7.749   2.327  0.5655 -0.6854  0.0257
  493MOL0     C67935  12.054   7.824   2.410  1.0134  0.4029 -0.1466
  493MOL0     C67936  12.187   7.815   2.354 -0.9498  0.3944  0.7711
  493MOL0     C67937  12.289   7.895   2.445  0.2405 -0.3734 -0.2902
  493MOL0     C67938  12.436   7.873   2.406 -0.7815  0.7815  1.0740
  493MOL0     C67939  12.492   7.974   2.312  0.3013  0.2394  0.1787
  493MOL0     C67940  12.646   7.968   2.310  0.6123 -0.0670 -0.1655
  493MOL0    Cl67941  12.695   7.800   2.254 -0.1250 -0.0139  0.1776
  493MOL0     C67942  11.569   7.810   2.519  0.6758  0.6793  0.0474
  493MOL0     C67943  11.444   7.834   2.578 -0.1024  0.3033  0.2096
  493MOL0     O67944  11.186   8.055   2.387  0.0291 -0.3067  0.0391
  493MOL0     C67945  11.043   8.111   2.703 -0.0710  0.5634  0.2114
  493MOL0     C67946  10.936   8.161   2.769 -0.9394 -0.5470  0.0795
  493MOL0     N67947  10.285   8.638   2.837 -0.7715  0.9274  0.8325
  493MOL0     N67948  10.189   8.675   2.758  0.1049  0.2565  0.1875
  493MOL0     C67949   9.345   9.214   2.048 -0.7091  0.0190 -0.9905
  493MOL0     C67950   9.219   9.187   1.998 -0.5039 -0.5437  0.0460
  493MOL0     C67951   8.768   9.305   1.865  0.3231  0.3372 -0.7009
  493MOL0     C67952   8.756   9.169   1.834  0.5362  1.2804 -0.9505
  493MOL0     C67953   8.633   9.120   1.781 -0.0787 -0.7457  0.6920
  493MOL0     C67954   8.525   9.219   1.756 -0.5353  0.3774 -0.2829
  493MOL0     O67955   8.411   9.173   1.710 -0.6030 -1.0376  0.4882
  493MOL0     C67956   8.384   9.028   1.697 -0.9534 -0.3900  0.3943
  493MOL0     C67957   8.236   9.012   1.653 -0.1416  0.5330  0.0874
  493MOL0     C67958   8.183   8.924   1.764 -0.0490 -0.4812 -0.2925
  493MOL0     C67959   8.050   8.859   1.733  0.0208 -0.4706  0.2720
  493MOL0     C67960   7.945   8.960   1.725 -0.2908 -0.1940 -0.6199
  493MOL0     C67961   7.862   9.050   1.728  0.0047  0.5028  0.2728
  493MOL0     C67962   8.543   9.350   1.786 -0.0717 -0.3847  0.3348
  493MOL0     C67963   8.658   9.396   1.843  0.0156 -0.4614 -0.1381
  493MOL0     C67964   8.671   9.540   1.890 -0.2806 -0.3260  0.5574
  493MOL0     H67965   9.047   9.418   2.158  0.4868  0.1297 -2.6977
  493MOL0     H67966   9.281   9.453   2.261 -0.3886  1.8733 -1.6316
  493MOL0     H67967   9.600   9.149   2.181 -0.0560 -0.2991 -0.5794
  493MOL0     H67968   9.528   9.185   2.335 -1.6973  1.4326 -0.4213
  493MOL0     H67969   9.764   9.314   2.200 -0.7709 -1.1214 -0.7522
  493MOL0     H67970   9.686   9.382   2.346 -0.5767  0.1402 -0.5083
  493MOL0     H67971   9.885   9.255   2.409 -0.4207 -2.1171  2.5273
  493MOL0     H67972   9.751   9.200   2.483 -0.9368  1.8278 -0.3430
  493MOL0     H67973   9.751   9.006   2.329  0.5503  0.2700 -1.2208
  493MOL0     H67974   9.885   9.078   2.237 -0.3960 -2.9621 -1.4042
  493MOL0     H67975   9.881   8.979   2.533  0.9780 -2.2761  0.1893
  493MOL0     H67976  10.026   9.057   2.458 -0.4252  0.6702 -2.9041
  493MOL0     H67977   9.890   8.808   2.346  1.7304 -0.8608  0.3568
  493MOL0     H67978  10.041   8.876   2.303 -0.9644 -0.7486 -1.1983
  493MOL0     H67979  10.066   8.675   2.457  0.2082  1.6554 -3.5273
  493MOL0     H67980   9.973   8.762   2.583 -1.9693 -0.5313 -1.3219
  493MOL0     H67981  10.245   8.832   2.470  0.5690  1.2214 -0.2241
  493MOL0     H67982  10.152   8.918   2.592  0.4228 -0.8644  0.2310
  493MOL0     H67983  10.450   8.756   2.574 -1.0339 -1.6970 -1.2858
  493MOL0     H67984  10.586   8.698   2.864  2.5349  0.4140 -1.7504
  493MOL0     H67985  10.609   8.602   2.715  0.5798 -0.9985 -0.2914
  493MOL0     H67986  10.659   8.469   2.936 -1.1571 -3.9793  1.8419
  493MOL0     H67987  10.493   8.513   2.983 -1.2677 -3.0387 -0.6646
  493MOL0     H67988  10.514   8.286   2.911  1.7556 -0.9267  0.4737
  493MOL0     H67989  10.409   8.366   2.788 -0.2976  2.2616  0.2722
  493MOL0     H67990  10.564   8.235   2.658  1.6679  2.1318 -4.1131
  493MOL0     H67991  10.633   8.402   2.652  0.8827  0.7188  0.8141
  493MOL0     H67992  10.709   8.174   2.524 -1.0739 -2.1327 -0.0612
  493MOL0     H67993  10.879   7.998   2.326 -1.1731 -1.1254  2.4076
  493MOL0     H67994  10.979   8.137   2.284  0.2864 -0.9458  0.2193
  493MOL0     H67995  10.806   8.158   2.304 -0.4574  1.6176  3.0004
  493MOL0     H67996  11.402   8.141   2.457 -3.2834 -0.0372  3.3015
  493MOL0     H67997  11.646   8.109   2.400 -0.9005 -0.6718 -1.9890
  493MOL0     H67998  11.811   7.698   2.492  2.4552  0.1149  0.9045
  493MOL0     H67999  11.733   7.708   2.338 -2.8624  1.7448  1.8134
  493MOL0     H68000  11.980   7.648   2.305  2.4646 -0.0102 -0.2092
  493MOL0     H68001  11.938   7.799   2.230 -1.5138 -0.9354  0.0061
  493MOL0     H68002  12.049   7.782   2.511 -2.2603 -1.8222 -1.0769
  493MOL0     H68003  12.035   7.931   2.415  0.8175  0.3117  1.8072
  493MOL0     H68004  12.185   7.855   2.252 -1.5420 -1.0834  0.1875
  493MOL0     H68005  12.218   7.711   2.343  1.6336  1.1620  0.1002
  493MOL0     H68006  12.274   8.003   2.438 -0.0448 -0.2601  1.6419
  493MOL0     H68007  12.270   7.870   2.549  1.6787 -1.7411 -0.3039
  493MOL0     H68008  12.449   7.771   2.371 -2.6147  1.6138 -2.6036
  493MOL0     H68009  12.485   7.876   2.503 -0.1108  0.2985  0.7516
  493MOL0     H68010  12.447   8.072   2.332 -3.0957 -1.0753 -0.3017
  493MOL0     H68011  12.467   7.947   2.209  1.7331 -4.1392  0.7929
  493MOL0     H68012  12.673   7.990   2.414 -0.4170  1.1328 -0.1271
  493MOL0     H68013  12.697   8.045   2.253 -1.1514 -0.1883 -2.0226
  493MOL0     H68014  11.609   7.715   2.554  0.0588  1.0280  1.8348
  493MOL0     H68015  11.402   7.748   2.629  1.6527 -2.0089 -1.9546
  493MOL0     H68016  11.134   8.091   2.759 -0.3806  0.5430  0.7099
  493MOL0     H68017  10.939   8.190   2.874  0.4692  0.8353 -0.3026
  493MOL0     H68018   9.434   9.162   2.013  1.4199  1.0131  2.4488
  493MOL0     H68019   9.219   9.113   1.918  0.1348 -0.8979  0.3605
  493MOL0     H68020   8.843   9.105   1.849  0.8680  2.0019  0.3925
  493MOL0     H68021   8.626   9.016   1.752  1.4571 -0.6658 -0.0999
  493MOL0     H68022   8.457   8.989   1.626 -2.0653 -0.3565 -0.8216
  493MOL0     H68023   8.406   8.968   1.786 -2.5972  0.6185  1.5558
  493MOL0     H68024   8.226   8.966   1.554 -0.8582  3.1739 -1.1919
  493MOL0     H68025   8.171   9.100   1.651 -2.2361 -0.9484 -0.3141
  493MOL0     H68026   8.250   8.839   1.783 -0.5808 -0.9813 -0.6184
  493MOL0     H68027   8.168   8.990   1.850 -1.7033  1.4188 -1.9509
  493MOL0     H68028   8.027   8.795   1.819 -0.9346  0.2493  0.5663
  493MOL0     H68029   8.047   8.794   1.645 -0.7271 -1.6369  1.1289
  493MOL0     H68030   7.794   9.132   1.740 -0.9912 -0.3701  0.7758
  493MOL0     H68031   8.460   9.413   1.756  0.7747  0.2052 -0.8632
  493MOL0     H68032   8.711   9.558   1.990 -0.4681  0.2796  0.5293
  493MOL0     H68033   8.737   9.594   1.821 -2.8640  2.3511 -0.0265
  493MOL0     H68034   8.586   9.606   1.870  0.2610  0.1809 -0.1536
  494MOL0     O68035   6.517   5.195   3.248 -0.0608 -0.1429 -0.3352
  494MOL0     C68036   6.521   5.314   3.281 -0.2113 -0.4514  0.8006
  494MOL0     O68037   6.611   5.416   3.229  0.2265 -0.7398 -0.2446
  494MOL0     C68038   6.712   5.382   3.152 -0.1537  0.4031  0.6038
  494MOL0     C68039   6.847   5.366   3.198  0.8758 -0.6126 -1.5683
  494MOL0     C68040   6.954   5.330   3.123 -0.5309  0.2192  0.2334
  494MOL0     C68041   6.935   5.302   2.985 -0.6773 -1.1169 -0.4578
  494MOL0     O68042   7.026   5.255   2.896  0.6635 -0.3930  0.3292
  494MOL0     C68043   7.117   5.153   2.927 -0.0853  0.0071  0.0755
  494MOL0     C68044   7.255   5.181   2.857  0.0506  0.1459  0.2869
  494MOL0     C68045   7.369   5.098   2.902 -0.2335 -0.3233 -0.0358
  494MOL0     C68046   7.489   5.108   2.815 -0.5493 -0.2776 -0.3212
  494MOL0     C68047   7.582   4.985   2.807  0.0833  0.7621 -0.5312
  494MOL0     C68048   7.513   4.858   2.737 -0.4371  0.6827  0.7749
  494MOL0     C68049   7.614   4.741   2.740  0.3962  0.0754 -0.3247
  494MOL0     C68050   7.715   4.756   2.626  0.2841 -0.1614 -0.0729
  494MOL0     N68051   7.828   4.662   2.645 -0.5223  0.5199 -0.3864
  494MOL0     C68052   7.897   4.655   2.769 -0.4938 -0.2289 -0.1618
  494MOL0     C68053   8.006   4.576   2.743  0.8603  0.1158  0.1431
  494MOL0     C68054   8.111   4.542   2.839  0.1398 -0.3330 -0.1682
  494MOL0     C68055   8.248   4.531   2.780  0.0972 -1.1972 -0.2823
  494MOL0     C68056   8.360   4.518   2.890  0.4003  0.5294 -0.4239
  494MOL0     C68057   8.348   4.379   2.957 -0.3200  0.3941  0.4193
  494MOL0     O68058   8.375   4.270   2.868  0.3118  0.0313  0.0476
  494MOL0     C68059   8.501   4.239   2.827 -0.2772 -0.0910  0.9579
  494MOL0     C68060   8.520   4.141   2.739  0.4823 -0.9142  0.2952
  494MOL0     C68061   8.640   4.121   2.664 -0.4519 -0.7758  0.0363
  494MOL0     C68062   8.646   4.015   2.565  0.5057 -0.3527 -0.2393
  494MOL0     C68063   8.753   4.202   2.700 -0.1293  0.4398  1.1778
  494MOL0     C68064   8.889   4.198   2.625 -0.2914 -0.6275 -0.6258
  494MOL0     O68065   8.959   4.309   2.636 -0.7891  0.0665 -0.2299
  494MOL0     C68066   9.090   4.323   2.595  0.3553  0.9287 -0.5795
  494MOL0     C68067   9.185   4.220   2.619  0.4015 -0.6195  0.7683
  494MOL0     C68068   9.309   4.230   2.565 -0.1588  0.4468  0.0968
  494MOL0     C68069   9.355   4.360   2.517 -0.1356 -0.0180 -0.3186
  494MOL0     O68070   9.487   4.369   2.470 -0.2991 -0.8666  0.1173
  494MOL0     C68071   9.526   4.485   2.393 -0.0850 -0.5815 -0.2533
  494MOL0     C68072   9.670   4.454   2.348  0.3417  0.0005 -0.5266
  494MOL0     C68073   9.782   4.434   2.459  0.1415 -0.1848  0.5334
  494MOL0     C68074   9.827   4.569   2.516 -0.4367  0.3848 -0.2685
  494MOL0     C68075   9.898   4.554   2.656  0.3396 -0.6102  0.3571
  494MOL0     C68076  10.035   4.480   2.631  0.2888  0.5856  0.1623
  494MOL0     C68077  10.122   4.464   2.758  0.1924  0.2950  0.7578
  494MOL0     C68078  10.234   4.366   2.737 -0.5787  0.9170  0.1770
  494MOL0    Cl68079  10.324   4.345   2.894  0.3753  0.1848 -0.3013
  494MOL0     C68080   9.258   4.462   2.499  0.3115  0.5590  0.5945
  494MOL0     C68081   9.128   4.435   2.541  0.1801 -0.9127 -0.6405
  494MOL0     O68082   8.930   4.095   2.563 -0.2929  0.3470 -0.4483
  494MOL0     C68083   8.745   4.297   2.804  0.1521  0.8558 -0.1490
  494MOL0     C68084   8.619   4.302   2.874  0.5774 -0.3411 -0.0405
  494MOL0     N68085   7.996   4.534   2.609  0.2603 -0.0058 -0.6069
  494MOL0     N68086   7.895   4.592   2.548  0.1842 -0.5196  0.4346
  494MOL0     C68087   6.806   5.338   2.931 -1.3011 -0.3483 -0.0391
  494MOL0     C68088   6.695   5.372   3.014  0.2999 -0.4749 -0.6173
  494MOL0     C68089   6.404   5.363   3.359  0.2891  0.9133  0.2653
  494MOL0     C68090   6.361   5.496   3.357 -0.4760 -0.5659  0.1982
  494MOL0     C68091   6.253   5.549   3.430 -0.0252  0.2403  0.3522
  494MOL0     C68092   6.174   5.466   3.510  0.5730 -0.5593 -0.6190
  494MOL0     O68093   6.065   5.521   3.565 -0.0182 -0.9701 -0.0361
  494MOL0     C68094   5.990   5.456   3.665 -0.1848  0.0531 -0.2685
  494MOL0     C68095   5.883   5.351   3.618 -0.6589 -0.2084 -0.3329
  494MOL0     C68096   5.766   5.367   3.714 -0.1497 -0.3068  0.0377
  494MOL0     C68097   5.660   5.268   3.662  0.6216 -0.3439  0.2255
  494MOL0     C68098   5.551   5.256   3.759 -0.3322 -0.0116  0.1569
  494MOL0     C68099   5.447   5.256   3.826  0.6004  0.4778  0.0501
  494MOL0     C68100   6.220   5.338   3.532 -0.5986  0.9249 -0.4576
  494MOL0     C68101   6.328   5.286   3.456 -0.3887  0.2097 -1.1178
  494MOL0     C68102   6.380   5.161   3.526  0.1830  0.0614 -1.1019
  494MOL0     H68103   6.862   5.383   3.304 -1.5456 -2.0773 -0.9265
  494MOL0     H68104   7.059   5.313   3.142 -0.3963 -1.5969 -1.7736
  494MOL0     H68105   7.076   5.060   2.885  2.6757 -0.8678 -0.8744
  494MOL0     H68106   7.115   5.143   3.035 -1.0514 -3.1072 -0.1334
  494MOL0     H68107   7.253   5.165   2.749  1.6217  1.8037 -0.0317
  494MOL0     H68108   7.275   5.287   2.876 -2.0028  0.0934  3.5707
  494MOL0     H68109   7.393   5.146   2.998 -0.9956 -0.5228  0.2574
  494MOL0     H68110   7.342   4.993   2.909 -2.0980  0.0471 -1.1794
  494MOL0     H68111   7.463   5.133   2.711  0.5047  0.9285 -0.3122
  494MOL0     H68112   7.540   5.198   2.849 -1.0400 -0.9405  2.3871
  494MOL0     H68113   7.588   4.955   2.912  1.0637  1.7034 -0.3019
  494MOL0     H68114   7.683   4.999   2.770  0.3314  0.8892  0.1801
  494MOL0     H68115   7.418   4.830   2.784 -0.8787  3.1292  1.4980
  494MOL0     H68116   7.484   4.880   2.634 -0.3444 -2.6633 -0.0875
  494MOL0     H68117   7.557   4.649   2.726  0.0911 -0.3028  2.7718
  494MOL0     H68118   7.657   4.745   2.841 -2.3596  0.6759  0.9101
  494MOL0     H68119   7.659   4.739   2.534 -0.7419 -0.8238  0.6605
  494MOL0     H68120   7.765   4.854   2.623  2.9113 -1.4387 -2.6806
  494MOL0     H68121   7.884   4.713   2.860  2.3535 -1.2836  1.0128
  494MOL0     H68122   8.093   4.450   2.896 -1.3518  0.6680  1.0488
  494MOL0     H68123   8.117   4.623   2.912  0.3195  1.9151 -2.5480
  494MOL0     H68124   8.258   4.452   2.705  0.1069  0.4868 -2.1514
  494MOL0     H68125   8.251   4.630   2.732 -2.1818 -0.9019  0.0532
  494MOL0     H68126   8.462   4.545   2.862  0.5363  0.7151  0.2451
  494MOL0     H68127   8.329   4.586   2.970  0.0980  1.1631 -1.0552
  494MOL0     H68128   8.409   4.378   3.048 -0.9434 -3.1495  0.9776
  494MOL0     H68129   8.253   4.358   3.007  1.4816 -0.4105  3.7906
  494MOL0     H68130   8.430   4.088   2.711 -1.6179  3.4995 -2.5210
  494MOL0     H68131   8.699   3.926   2.601  2.7027  0.6647 -0.8012
  494MOL0     H68132   8.690   4.059   2.475 -1.2958 -0.8596 -1.4325
  494MOL0     H68133   8.542   3.985   2.545  0.6820 -1.9605  1.0496
  494MOL0     H68134   9.161   4.126   2.668 -2.2692 -0.1763  0.4844
  494MOL0     H68135   9.365   4.139   2.582  0.2100  1.1376  3.1341
  494MOL0     H68136   9.473   4.509   2.301  3.2157  1.0389 -1.8857
  494MOL0     H68137   9.541   4.570   2.461 -1.6937 -0.7439  0.3518
  494MOL0     H68138   9.662   4.361   2.291  3.5308 -0.6247 -0.1441
  494MOL0     H68139   9.705   4.532   2.280 -0.8014  0.7767 -0.2601
  494MOL0     H68140   9.875   4.394   2.417 -0.6932  0.6551 -2.3353
  494MOL0     H68141   9.744   4.366   2.536  2.6965 -0.6786  1.4478
  494MOL0     H68142   9.734   4.627   2.522 -1.1992 -0.6956 -1.2765
  494MOL0     H68143   9.893   4.621   2.447  0.1450  2.7039  1.8501
  494MOL0     H68144   9.919   4.650   2.704  0.1444 -0.8547  0.9489
  494MOL0     H68145   9.831   4.501   2.725 -0.4376  2.0664  1.8099
  494MOL0     H68146  10.085   4.529   2.547 -2.3599  0.2602 -1.7165
  494MOL0     H68147  10.014   4.378   2.596  2.3308  0.1484  0.0643
  494MOL0     H68148  10.063   4.420   2.839  3.2359 -1.8917  1.9922
  494MOL0     H68149  10.158   4.560   2.796  1.4354  0.5316 -0.9281
  494MOL0     H68150  10.304   4.406   2.663 -0.3952  1.1905  0.4963
  494MOL0     H68151  10.201   4.271   2.693  2.1201  0.1458 -0.3611
  494MOL0     H68152   9.290   4.558   2.458 -3.0942  1.4042 -0.4406
  494MOL0     H68153   9.067   4.519   2.510  1.1866 -0.0144 -0.2487
  494MOL0     H68154   8.829   4.358   2.835 -0.1793  0.5989  1.3113
  494MOL0     H68155   8.614   4.376   2.953  1.9753 -1.2164  0.9129
  494MOL0     H68156   6.797   5.334   2.823  1.8345 -0.3032 -0.3910
  494MOL0     H68157   6.603   5.401   2.964  0.7022 -2.4127 -2.6607
  494MOL0     H68158   6.408   5.562   3.284  0.6567 -0.1953  1.2205
  494MOL0     H68159   6.241   5.655   3.411 -2.9070 -0.4008 -2.3331
  494MOL0     H68160   6.063   5.404   3.728 -1.5935  0.1202  1.4745
  494MOL0     H68161   5.941   5.526   3.733  1.0977 -0.6773  1.4816
  494MOL0     H68162   5.911   5.245   3.626 -1.3445 -0.3207  0.7324
  494MOL0     H68163   5.856   5.380   3.516 -0.3058 -0.3968 -0.4825
  494MOL0     H68164   5.786   5.355   3.820 -0.8615 -3.1333 -0.0690
  494MOL0     H68165   5.723   5.467   3.703  0.3447 -0.1735 -0.8096
  494MOL0     H68166   5.698   5.169   3.635  1.2680 -0.0452  0.0223
  494MOL0     H68167   5.625   5.306   3.565 -2.0347  0.6583  1.4961
  494MOL0     H68168   5.359   5.281   3.881 -1.0294 -2.0034 -1.2910
  494MOL0     H68169   6.172   5.267   3.598  1.9388  0.4239  1.0150
  494MOL0     H68170   6.333   5.136   3.622  0.3437  4.8645  0.4472
  494MOL0     H68171   6.374   5.074   3.460 -2.2145 -1.5196  0.9775
  494MOL0     H68172   6.479   5.174   3.569 -0.2944 -3.7609  1.8016
  495MOL0     O68173  10.008  11.228   7.744  0.2189 -0.0588 -0.3002
  495MOL0     C68174   9.997  11.105   7.758 -0.1782 -0.5349  0.0470
  495MOL0     O68175  10.063  11.013   7.685 -0.5219  0.0032  0.6957
  495MOL0     C68176  10.164  11.059   7.605 -0.2338 -0.7826 -1.0247
  495MOL0     C68177  10.134  11.143   7.500  0.7410 -0.0573 -0.4073
  495MOL0     C68178  10.244  11.201   7.434  0.4973  0.3366 -0.2988
  495MOL0     C68179  10.380  11.166   7.455  0.4788  0.2585 -0.2167
  495MOL0     O68180  10.487  11.218   7.404 -0.1195  0.3126 -0.2846
  495MOL0     C68181  10.471  11.288   7.276 -0.7894  0.4271 -0.3987
  495MOL0     C68182  10.606  11.311   7.214 -0.0383 -0.3516 -1.1113
  495MOL0     C68183  10.677  11.423   7.294 -0.1922  0.7461  0.7922
  495MOL0     C68184  10.820  11.456   7.240  0.8033  0.6595  0.2687
  495MOL0     C68185  10.879  11.576   7.320 -0.0096 -0.0960 -0.3288
  495MOL0     C68186  11.020  11.619   7.279 -0.2490 -0.4003 -0.2516
  495MOL0     C68187  11.056  11.765   7.333 -0.7021 -0.5441 -0.1266
  495MOL0     C68188  11.193  11.818   7.282  0.2107 -0.3644  0.2933
  495MOL0     N68189  11.219  11.960   7.288  0.2757 -0.1479  0.2249
  495MOL0     C68190  11.129  12.057   7.277  0.2114 -0.2453 -0.4048
  495MOL0     C68191  11.189  12.179   7.263 -0.4487  0.6593 -0.2754
  495MOL0     C68192  11.121  12.311   7.265  0.1555 -0.4073  0.3657
  495MOL0     C68193  11.076  12.345   7.408 -0.5047  0.5798 -0.4593
  495MOL0     C68194  11.199  12.386   7.489 -0.2790  0.4707 -0.2356
  495MOL0     C68195  11.155  12.440   7.629 -0.5032  0.4892 -0.0912
  495MOL0     O68196  11.075  12.553   7.597  0.1341 -0.3928  0.0251
  495MOL0     C68197  10.988  12.608   7.689  1.2606  0.4363 -0.5828
  495MOL0     C68198  10.892  12.702   7.648  0.9021 -0.5914 -0.3453
  495MOL0     C68199  10.799  12.761   7.730  0.2004  0.2295 -0.4592
  495MOL0     C68200  10.696  12.837   7.654  0.6640 -0.2971 -0.9204
  495MOL0     C68201  10.785  12.714   7.862  0.6287  0.3085  0.8184
  495MOL0     C68202  10.679  12.755   7.952 -0.2215  0.3194 -0.2333
  495MOL0     O68203  10.605  12.862   7.916  0.5497  0.0129  0.5469
  495MOL0     C68204  10.478  12.887   7.972  0.4753  0.3910 -0.4224
  495MOL0     C68205  10.409  12.814   8.073 -0.3379 -0.7147 -0.3917
  495MOL0     C68206  10.291  12.867   8.121 -0.0013 -0.1710 -0.4842
  495MOL0     C68207  10.229  12.982   8.075 -0.4218  0.0356 -0.3068
  495MOL0     O68208  10.121  13.029   8.151 -0.3065  0.1713  0.1085
  495MOL0     C68209  10.034  13.133   8.096  1.1726 -0.2175  0.1104
  495MOL0     C68210   9.933  13.079   7.988  0.1155 -0.2010 -0.3250
  495MOL0     C68211   9.843  13.194   7.941  0.1789  0.4389  0.8347
  495MOL0     C68212   9.774  13.267   8.057  0.4820 -0.4218  1.1531
  495MOL0     C68213   9.649  13.353   8.014  0.5734  0.5240 -0.0506
  495MOL0     C68214   9.685  13.485   7.949  0.1518  1.0879  0.6579
  495MOL0     C68215   9.558  13.548   7.900 -0.1055  0.9482 -0.2642
  495MOL0     C68216   9.457  13.602   8.010 -0.2288 -0.2782 -0.1369
  495MOL0    Cl68217   9.544  13.701   8.129 -0.2440 -0.3407  0.2011
  495MOL0     C68218  10.282  13.044   7.958  0.5708 -0.0417 -0.6055
  495MOL0     C68219  10.407  13.002   7.918 -0.8180 -0.1078 -0.1251
  495MOL0     O68220  10.676  12.696   8.058  0.1592 -0.0702 -0.4911
  495MOL0     C68221  10.885  12.624   7.904 -0.1474  0.4043 -0.0602
  495MOL0     C68222  10.982  12.575   7.823  1.0622 -0.0111 -0.4464
  495MOL0     N68223  11.323  12.149   7.254 -0.6568  0.1322 -0.4191
  495MOL0     N68224  11.339  12.020   7.281  0.7828 -1.0094 -0.3591
  495MOL0     C68225  10.407  11.089   7.563  0.5336  0.9031 -0.0577
  495MOL0     C68226  10.299  11.034   7.637 -0.2232 -0.0133 -0.3287
  495MOL0     C68227   9.901  11.059   7.853 -0.2435  0.7443 -0.6291
  495MOL0     C68228   9.939  11.024   7.985  0.1088 -0.4411  1.3489
  495MOL0     C68229   9.839  10.976   8.076  0.1980 -0.2759 -0.0508
  495MOL0     C68230   9.713  10.951   8.039  0.2460  0.4924  0.7173
  495MOL0     O68231   9.620  10.913   8.142 -0.9601 -0.2446 -0.4765
  495MOL0     C68232   9.488  10.912   8.101  0.0496  0.8772  1.2534
  495MOL0     C68233   9.397  10.863   8.217 -0.3343  0.4107 -0.3149
  495MOL0     C68234   9.398  10.705   8.216  0.0053 -1.3477 -0.2485
  495MOL0     C68235   9.517  10.650   8.283 -0.3351  0.4609  0.5876
  495MOL0     C68236   9.519  10.672   8.427  0.1444 -0.0888 -0.4238
  495MOL0     C68237   9.530  10.683   8.549  0.4126 -1.0860  0.5971
  495MOL0     C68238   9.676  10.976   7.908 -0.5151 -0.2382 -0.1275
  495MOL0     C68239   9.773  11.025   7.815  0.2065  0.5627 -0.1922
  495MOL0     C68240   9.731  11.060   7.675 -0.4654  0.1009  0.0673
  495MOL0     H68241  10.032  11.177   7.483  1.0951  0.6560 -1.1501
  495MOL0     H68242  10.215  11.277   7.361 -0.8963 -1.1283 -1.3285
  495MOL0     H68243  10.414  11.381   7.289 -1.2840 -0.2253  2.9481
  495MOL0     H68244  10.423  11.218   7.206 -3.5095  1.8762 -0.1533
  495MOL0     H68245  10.654  11.213   7.219 -0.9896 -0.8160 -0.8649
  495MOL0     H68246  10.613  11.350   7.112  2.3220 -1.2731 -1.3722
  495MOL0     H68247  10.617  11.510   7.264 -0.2183  0.0781 -1.2181
  495MOL0     H68248  10.682  11.410   7.402 -0.7324 -0.3958  0.6882
  495MOL0     H68249  10.893  11.375   7.246 -0.0293 -0.2317 -1.0152
  495MOL0     H68250  10.821  11.491   7.136  2.9562  2.4463  0.8008
  495MOL0     H68251  10.885  11.553   7.426  3.2638 -1.4849 -0.6824
  495MOL0     H68252  10.808  11.658   7.301  0.6792  0.6902  0.3846
  495MOL0     H68253  11.090  11.550   7.328 -0.1379 -0.5255 -0.5830
  495MOL0     H68254  11.030  11.606   7.171 -1.2707 -0.6977 -0.3169
  495MOL0     H68255  11.063  11.769   7.442  2.4306 -0.2416 -0.2339
  495MOL0     H68256  10.971  11.829   7.310 -1.6794 -1.3689  1.0141
  495MOL0     H68257  11.275  11.768   7.335  0.2520  0.0665  0.6454
  495MOL0     H68258  11.193  11.795   7.175  0.6372  2.0249 -0.2865
  495MOL0     H68259  11.022  12.043   7.274  0.6139 -6.1586  0.2708
  495MOL0     H68260  11.037  12.315   7.196  1.0666  0.8762 -0.7338
  495MOL0     H68261  11.185  12.391   7.226 -3.9407  2.8271 -0.4855
  495MOL0     H68262  10.997  12.421   7.403 -1.6344 -0.2494  2.4269
  495MOL0     H68263  11.013  12.271   7.459 -1.4285  0.4907 -1.6747
  495MOL0     H68264  11.264  12.299   7.501 -0.4792 -0.0449 -2.5113
  495MOL0     H68265  11.254  12.469   7.444  0.8667  0.3718  0.9197
  495MOL0     H68266  11.103  12.364   7.688 -1.7297  2.0724  0.9474
  495MOL0     H68267  11.244  12.476   7.681 -0.1458 -0.4740 -0.0111
  495MOL0     H68268  10.898  12.744   7.549 -1.2205  0.1861 -0.1939
  495MOL0     H68269  10.705  12.814   7.547  0.6104 -0.3796 -0.9072
  495MOL0     H68270  10.703  12.944   7.679  2.0659 -0.6178  0.2292
  495MOL0     H68271  10.600  12.799   7.690  1.7033 -0.6545  1.6832
  495MOL0     H68272  10.451  12.722   8.111  2.4390  0.0051 -1.4730
  495MOL0     H68273  10.237  12.812   8.197  0.3849 -1.4507 -1.0984
  495MOL0     H68274   9.978  13.165   8.184  0.7313  0.5490 -0.4396
  495MOL0     H68275  10.085  13.217   8.047 -0.4229 -0.2512 -1.7419
  495MOL0     H68276  10.001  13.051   7.906  0.8813  2.8673 -0.8666
  495MOL0     H68277   9.880  12.989   8.020 -0.7200  0.6942  0.8888
  495MOL0     H68278   9.768  13.161   7.869  2.4319 -0.7414 -1.1430
  495MOL0     H68279   9.906  13.266   7.887  1.1797 -1.3815 -0.5419
  495MOL0     H68280   9.847  13.336   8.099  0.6510  1.9038 -2.5376
  495MOL0     H68281   9.735  13.189   8.123  1.3683 -1.4171  0.5282
  495MOL0     H68282   9.594  13.286   7.948 -0.7817  0.1905  1.3612
  495MOL0     H68283   9.590  13.372   8.104 -0.8806  1.2413 -1.1111
  495MOL0     H68284   9.742  13.458   7.860 -1.9427 -1.0375 -0.1396
  495MOL0     H68285   9.737  13.558   8.013 -0.9166 -0.7760  3.8797
  495MOL0     H68286   9.515  13.476   7.830  0.9842  0.6948 -0.6886
  495MOL0     H68287   9.593  13.630   7.837 -0.5442 -0.0711 -1.8985
  495MOL0     H68288   9.429  13.508   8.058  1.4391 -0.9219 -0.3444
  495MOL0     H68289   9.367  13.647   7.967 -0.0943  0.2207  0.0928
  495MOL0     H68290  10.231  13.121   7.901  4.4282  1.9057 -1.8064
  495MOL0     H68291  10.457  13.049   7.834 -0.3596  1.7310  1.1288
  495MOL0     H68292  10.893  12.592   8.007 -3.0905  0.1391  0.1574
  495MOL0     H68293  11.054  12.504   7.863 -1.0770 -1.6693  0.6717
  495MOL0     H68294  10.509  11.069   7.594  0.1087  1.2922  1.6889
  495MOL0     H68295  10.321  10.955   7.708 -0.9683 -2.5921 -2.7624
  495MOL0     H68296  10.036  11.052   8.024 -0.3774 -1.3016  3.3289
  495MOL0     H68297   9.864  10.955   8.179 -1.2160 -0.9635  0.1704
  495MOL0     H68298   9.464  11.013   8.067 -0.6241  0.0802 -0.8411
  495MOL0     H68299   9.471  10.845   8.015 -2.4545  3.6388 -0.6129
  495MOL0     H68300   9.296  10.898   8.193  0.3264  1.3226 -1.8538
  495MOL0     H68301   9.439  10.906   8.309 -4.0534 -4.0685  4.1228
  495MOL0     H68302   9.313  10.670   8.277 -0.2021  0.5631  0.6295
  495MOL0     H68303   9.378  10.659   8.119  1.3468  0.2612 -1.3360
  495MOL0     H68304   9.603  10.693   8.232 -0.3248 -0.4538 -0.2000
  495MOL0     H68305   9.511  10.542   8.266  1.2596  0.5377 -0.6745
  495MOL0     H68306   9.539  10.699   8.655 -1.7679 -0.3938  0.7348
  495MOL0     H68307   9.576  10.971   7.866 -0.4786  1.5346 -0.5134
  495MOL0     H68308   9.637  11.012   7.646 -0.2978  0.8990 -1.9981
  495MOL0     H68309   9.701  11.165   7.682 -2.1334 -0.2574 -1.0449
  495MOL0     H68310   9.805  11.045   7.595 -1.2597 -1.2726 -0.4337
  496MOL0     O68311   4.687  11.341   5.288  0.3854 -0.0504 -0.4056
  496MOL0     C68312   4.594  11.348   5.359  0.2373 -0.8085 -0.4374
  496MOL0     O68313   4.585  11.414   5.474 -0.7081 -0.0500  0.0570
  496MOL0     C68314   4.697  11.433   5.551 -0.4002 -0.8200 -0.9071
  496MOL0     C68315   4.805  11.345   5.562  0.3967 -1.0291 -0.4818
  496MOL0     C68316   4.924  11.390   5.632  0.2334  0.0430  0.1604
  496MOL0     C68317   4.917  11.511   5.709  0.3323  0.6345  0.2959
  496MOL0     O68318   5.027  11.548   5.791 -0.6538 -0.7519  0.8352
  496MOL0     C68319   5.094  11.443   5.864 -0.7812 -0.4767  0.2902
  496MOL0     C68320   5.196  11.523   5.950  0.8771  0.8914  0.2239
  496MOL0     C68321   5.295  11.426   6.015  0.1006 -0.7520 -0.5441
  496MOL0     C68322   5.402  11.495   6.101 -0.2380  0.1541  0.2435
  496MOL0     C68323   5.472  11.395   6.195  0.2228  0.2309  0.9399
  496MOL0     C68324   5.573  11.464   6.294  0.4174  0.5189  0.0036
  496MOL0     C68325   5.650  11.346   6.358  0.3331 -0.1956 -0.3235
  496MOL0     C68326   5.757  11.396   6.453 -0.9489  0.0300  0.4849
  496MOL0     N68327   5.790  11.279   6.539  0.0366  1.2425  0.0078
  496MOL0     C68328   5.880  11.184   6.500  0.9202  0.2131 -0.2580
  496MOL0     C68329   5.915  11.111   6.604 -0.6867  0.7787 -0.9130
  496MOL0     C68330   6.030  11.006   6.627 -0.4479 -0.0308  0.0581
  496MOL0     C68331   6.170  11.061   6.613 -0.3669 -0.2074  0.3693
  496MOL0     C68332   6.268  10.936   6.613  0.6054 -0.2869 -0.4667
  496MOL0     C68333   6.410  10.975   6.599  0.1225  0.1350  0.3608
  496MOL0     O68334   6.467  10.846   6.576 -0.1252  0.0503  0.1961
  496MOL0     C68335   6.602  10.826   6.558  0.9121  0.0171 -0.0920
  496MOL0     C68336   6.661  10.703   6.528 -0.7436 -0.9456  0.8398
  496MOL0     C68337   6.805  10.681   6.531 -0.5777  0.7511  0.2972
  496MOL0     C68338   6.848  10.540   6.490  0.2138 -0.1916 -0.3453
  496MOL0     C68339   6.888  10.792   6.564 -0.0138 -0.3364 -0.6766
  496MOL0     C68340   7.039  10.780   6.554 -0.4403 -0.6411 -0.0853
  496MOL0     O68341   7.104  10.895   6.518  0.1664 -0.6405  0.8316
  496MOL0     C68342   7.233  10.880   6.496  1.0105  0.7116 -0.4541
  496MOL0     C68343   7.319  10.854   6.604 -0.3218 -0.7880  0.3014
  496MOL0     C68344   7.455  10.839   6.580 -0.6338 -0.2967 -0.0976
  496MOL0     C68345   7.506  10.863   6.450 -0.3783 -0.3190 -1.0637
  496MOL0     O68346   7.646  10.844   6.429 -0.4187  0.0290  0.1561
  496MOL0     C68347   7.677  10.777   6.307 -0.4883  0.7423  0.1215
  496MOL0     C68348   7.822  10.734   6.306 -0.1649  0.1615 -0.7087
  496MOL0     C68349   7.856  10.636   6.411 -0.1421  0.8875 -0.1104
  496MOL0     C68350   7.986  10.656   6.488  0.0005 -0.4401  0.5523
  496MOL0     C68351   8.111  10.672   6.402 -0.1325  0.3227 -0.5605
  496MOL0     C68352   8.151  10.545   6.327  0.1155 -0.6750 -0.6351
  496MOL0     C68353   8.250  10.584   6.221  0.1261 -0.0266 -0.2841
  496MOL0     C68354   8.295  10.464   6.135 -0.4063  0.2292  0.0587
  496MOL0    Cl68355   8.153  10.378   6.052  0.2590  0.1908 -0.0409
  496MOL0     C68356   7.425  10.897   6.345 -0.0697 -0.1930 -0.3206
  496MOL0     C68357   7.284  10.900   6.372 -0.1544  0.7608 -0.0674
  496MOL0     O68358   7.083  10.664   6.570 -0.7289 -0.5171 -0.7812
  496MOL0     C68359   6.826  10.923   6.589 -1.1372  1.0553  0.2975
  496MOL0     C68360   6.690  10.937   6.581 -0.6867  0.6127 -0.3758
  496MOL0     N68361   5.822  11.145   6.706  0.8518  0.2061  0.0793
  496MOL0     N68362   5.740  11.243   6.663 -0.0787  0.2980  0.9961
  496MOL0     C68363   4.803  11.595   5.697  0.2815  0.4929 -0.0350
  496MOL0     C68364   4.701  11.556   5.612  0.5201 -1.1267  0.2790
  496MOL0     C68365   4.471  11.300   5.293  0.9530  0.5146 -0.2554
  496MOL0     C68366   4.421  11.344   5.165  0.0341  0.6798 -0.3484
  496MOL0     C68367   4.305  11.297   5.101 -0.5756 -0.5541 -0.4591
  496MOL0     C68368   4.218  11.210   5.165  0.0403 -0.0669 -0.3957
  496MOL0     O68369   4.097  11.168   5.121  0.0018 -0.4303  0.0981
  496MOL0     C68370   4.080  11.180   4.977  1.0158  0.9430  0.6062
  496MOL0     C68371   3.990  11.071   4.931 -0.0564 -0.2542 -0.6965
  496MOL0     C68372   3.947  11.096   4.792 -0.1218 -0.3491  0.5992
  496MOL0     C68373   3.868  10.978   4.716 -0.1994 -0.3523  0.0863
  496MOL0     C68374   3.737  10.961   4.769 -1.1337 -0.0155  0.0788
  496MOL0     C68375   3.628  10.952   4.815 -0.1323 -0.2882  0.4605
  496MOL0     C68376   4.269  11.162   5.286 -0.9966 -0.1302  1.6639
  496MOL0     C68377   4.385  11.202   5.351 -0.8460  0.4763  0.3115
  496MOL0     C68378   4.427  11.137   5.478 -0.8953 -0.0650 -0.1809
  496MOL0     H68379   4.810  11.247   5.515  3.3602 -0.4211 -1.7234
  496MOL0     H68380   5.004  11.320   5.653  0.4548  0.2063 -0.1307
  496MOL0     H68381   5.155  11.380   5.798 -2.1515 -0.6945 -0.8379
  496MOL0     H68382   5.015  11.384   5.911 -1.3888 -1.7850 -2.1950
  496MOL0     H68383   5.247  11.588   5.879  0.4492  0.1316 -0.8047
  496MOL0     H68384   5.163  11.603   6.016  4.0307  2.1917  0.4120
  496MOL0     H68385   5.233  11.360   6.076  0.3854 -0.5629 -0.0430
  496MOL0     H68386   5.351  11.380   5.934  3.0894  0.1336  0.8655
  496MOL0     H68387   5.482  11.534   6.038  0.2023 -1.0508  0.0236
  496MOL0     H68388   5.354  11.571   6.164 -0.8340 -0.4024  0.4798
  496MOL0     H68389   5.531  11.324   6.137  2.0598  0.5131  2.4009
  496MOL0     H68390   5.389  11.347   6.248 -0.8507  0.1817 -0.6840
  496MOL0     H68391   5.648  11.524   6.241  1.3310 -0.9425 -0.4271
  496MOL0     H68392   5.528  11.523   6.374  0.6408 -0.4067  0.8315
  496MOL0     H68393   5.679  11.271   6.284 -0.2433 -0.8101  0.0601
  496MOL0     H68394   5.578  11.292   6.420 -0.2081 -0.0538 -0.8206
  496MOL0     H68395   5.849  11.431   6.406 -0.3490 -1.5509  0.4362
  496MOL0     H68396   5.714  11.479   6.510 -1.7230 -0.6371  0.9090
  496MOL0     H68397   5.940  11.190   6.410  0.2036 -1.6765 -0.9243
  496MOL0     H68398   6.007  10.917   6.568 -1.7616 -1.5851  2.7023
  496MOL0     H68399   6.020  10.974   6.731  3.6077 -0.1794  0.5588
  496MOL0     H68400   6.192  11.106   6.516  3.2303 -1.7615  0.3057
  496MOL0     H68401   6.187  11.136   6.691 -1.4479 -0.7802  1.1865
  496MOL0     H68402   6.249  10.888   6.710 -2.4896  3.4373  1.0122
  496MOL0     H68403   6.239  10.858   6.541 -1.0253 -1.0096  0.8938
  496MOL0     H68404   6.427  11.047   6.520  0.8951  1.2119  1.4740
  496MOL0     H68405   6.444  11.030   6.688  0.6221 -0.5074  0.5724
  496MOL0     H68406   6.594  10.619   6.511 -0.6942 -0.4705 -2.2425
  496MOL0     H68407   6.773  10.479   6.440 -0.6429  0.1063  0.5475
  496MOL0     H68408   6.908  10.492   6.568  1.9994  2.7783  0.3022
  496MOL0     H68409   6.921  10.556   6.410  1.3963  2.7759  1.1729
  496MOL0     H68410   7.280  10.846   6.705 -0.0128  0.1669  0.5128
  496MOL0     H68411   7.520  10.808   6.661  1.3683 -0.3501 -1.6421
  496MOL0     H68412   7.603  10.698   6.297 -0.4845  0.9658 -2.2246
  496MOL0     H68413   7.677  10.855   6.230 -0.0262  0.3604 -0.2676
  496MOL0     H68414   7.850  10.691   6.209 -1.7815  0.6335 -1.4281
  496MOL0     H68415   7.886  10.822   6.321 -0.5582 -0.0465  2.9337
  496MOL0     H68416   7.854  10.542   6.357 -1.1453  0.8809 -0.0767
  496MOL0     H68417   7.783  10.639   6.492  1.2788  1.6546  1.2024
  496MOL0     H68418   8.014  10.564   6.541 -1.2548 -0.4074  1.3033
  496MOL0     H68419   7.984  10.742   6.556  2.6593 -0.5561  0.8825
  496MOL0     H68420   8.098  10.757   6.334 -0.3784  0.9627  0.2695
  496MOL0     H68421   8.199  10.700   6.461 -1.1245  1.4118  0.4219
  496MOL0     H68422   8.059  10.514   6.277 -2.9527  4.2008  1.1641
  496MOL0     H68423   8.184  10.466   6.395  0.4223 -0.8257 -0.9553
  496MOL0     H68424   8.344  10.619   6.264  0.5244 -1.8613  0.4293
  496MOL0     H68425   8.208  10.661   6.156  0.0657  0.9767  0.8950
  496MOL0     H68426   8.351  10.392   6.196 -1.7282  1.5188  3.0132
  496MOL0     H68427   8.359  10.502   6.055 -0.8139 -0.1287 -0.4376
  496MOL0     H68428   7.465  10.918   6.247 -2.4195 -2.0884 -1.8014
  496MOL0     H68429   7.223  10.921   6.285 -0.5951  1.2164  0.3493
  496MOL0     H68430   6.886  11.010   6.616 -1.0905  1.9477 -2.3900
  496MOL0     H68431   6.656  11.039   6.596 -0.7925  0.9649 -2.5964
  496MOL0     H68432   4.815  11.689   5.752 -0.7672 -0.0746  1.2172
  496MOL0     H68433   4.633  11.630   5.570  1.9881  1.4329  2.1065
  496MOL0     H68434   4.480  11.420   5.116  2.4978  0.7217  2.4441
  496MOL0     H68435   4.292  11.340   5.002  2.1000  1.8678  0.1017
  496MOL0     H68436   4.043  11.281   4.960  1.7238  1.3023  1.1739
  496MOL0     H68437   4.175  11.174   4.923  1.9950  0.8521  2.2738
  496MOL0     H68438   3.901  11.054   4.993  1.8894  0.9310  2.6720
  496MOL0     H68439   4.059  10.987   4.936  2.0699  1.4277 -0.3925
  496MOL0     H68440   3.885  11.186   4.789 -0.4360 -0.5594 -1.9308
  496MOL0     H68441   4.041  11.102   4.736  0.8990 -2.8227  1.8799
  496MOL0     H68442   3.926  10.888   4.733  1.3670  0.8115  1.2042
  496MOL0     H68443   3.861  10.997   4.608 -0.1258 -4.3122 -0.7709
  496MOL0     H68444   3.530  10.922   4.845 -1.1033  1.2490 -1.0395
  496MOL0     H68445   4.207  11.085   5.331 -2.5226 -0.5938 -0.9813
  496MOL0     H68446   4.502  11.059   5.463  0.0036  0.3987  1.6079
  496MOL0     H68447   4.465  11.219   5.540 -1.2103  0.6421 -0.8964
  496MOL0     H68448   4.342  11.088   5.527  1.2197 -1.9271  1.8124
  497MOL0     O68449   5.786   1.077   9.853 -0.5722  1.3049  0.2451
  497MOL0     C68450   5.766   0.964   9.807 -0.2448  0.2985  0.0537
  497MOL0     O68451   5.724   0.855   9.885 -0.7092 -0.1737 -0.5343
  497MOL0     C68452   5.730   0.886  10.017 -0.1632 -0.0696  0.0943
  497MOL0     C68453   5.638   0.975  10.074 -0.1932 -0.3618 -0.2314
  497MOL0     C68454   5.658   0.994  10.212 -0.1386 -0.1278  0.6199
  497MOL0     C68455   5.759   0.937  10.287 -0.8128 -0.4576  0.0438
  497MOL0     O68456   5.775   0.954  10.421 -0.0221  0.7166 -0.8223
  497MOL0     C68457   5.759   1.087  10.476 -0.6497  0.0730 -0.3939
  497MOL0     C68458   5.629   1.099  10.560  0.0524  0.3537  0.1641
  497MOL0     C68459   5.626   1.025  10.695 -0.1348 -0.1742  0.5089
  497MOL0     C68460   5.741   1.050  10.798  0.0853 -1.0842  0.0958
  497MOL0     C68461   5.859   0.951  10.777  0.6020 -0.1270 -0.2072
  497MOL0     C68462   5.835   0.807  10.834  0.0678  0.6542  0.4851
  497MOL0     C68463   5.967   0.724  10.823  0.6342  0.9164 -0.6044
  497MOL0     C68464   6.037   0.718  10.682  0.3420 -0.3019 -0.1645
  497MOL0     N68465   6.151   0.631  10.699  0.3101 -0.6142  0.3528
  497MOL0     C68466   6.277   0.683  10.733 -0.6820  0.0802 -0.3157
  497MOL0     C68467   6.357   0.568  10.733 -0.0372  0.9949 -0.4179
  497MOL0     C68468   6.500   0.562  10.778  0.4221  0.6650  0.3950
  497MOL0     C68469   6.587   0.615  10.663 -0.3956  0.7411  0.2019
  497MOL0     C68470   6.582   0.537  10.532 -0.1891  0.3927 -0.4345
  497MOL0     C68471   6.639   0.400  10.547  0.3443 -0.2002  0.4136
  497MOL0     O68472   6.667   0.347  10.416  0.2520 -0.9081 -0.8987
  497MOL0     C68473   6.566   0.292  10.344 -0.4753 -0.0852  0.2744
  497MOL0     C68474   6.597   0.262  10.207  0.2153  0.4138 -0.5972
  497MOL0     C68475   6.507   0.217  10.110 -0.9878  0.3333  0.1046
  497MOL0     C68476   6.562   0.200   9.971  0.3792 -0.6287 -0.2736
  497MOL0     C68477   6.377   0.174  10.156  0.4287  0.2415  0.7924
  497MOL0     C68478   6.274   0.120  10.069 -0.0757  0.2127 -0.0737
  497MOL0     O68479   6.166   0.072  10.129 -0.2611  0.1510 -0.1983
  497MOL0     C68480   6.062   0.029  10.060 -0.7516  0.3810  0.0179
  497MOL0     C68481   6.063  -0.096   9.991 -0.5605 -0.3356 -0.3365
  497MOL0     C68482   5.945  -0.135   9.935 -0.3434  0.0029  0.1737
  497MOL0     C68483   5.833  -0.051   9.950  0.0197  0.1222 -0.2961
  497MOL0     O68484   5.709  -0.093   9.910  0.0083  0.2435  0.5901
  497MOL0     C68485   5.692  -0.187   9.804  0.0376 -0.3807 -0.0656
  497MOL0     C68486   5.550  -0.162   9.760 -0.3994  0.6156  0.6165
  497MOL0     C68487   5.508  -0.223   9.622  0.2939  0.6068 -0.2399
  497MOL0     C68488   5.496  -0.376   9.618  0.4590 -0.6647  0.4343
  497MOL0     C68489   5.435  -0.435   9.496 -0.2394 -0.3225  0.4974
  497MOL0     C68490   5.303  -0.365   9.457  1.0835 -0.6892 -0.3345
  497MOL0     C68491   5.223  -0.425   9.339 -0.5250 -0.3188  0.2004
  497MOL0     C68492   5.081  -0.458   9.370 -0.1156 -0.4734 -0.8277
  497MOL0    Cl68493   4.985  -0.301   9.362 -0.1270 -0.0212  0.1767
  497MOL0     C68494   5.837   0.069  10.008 -0.1009 -0.4461  0.1729
  497MOL0     C68495   5.949   0.104  10.065  0.2827 -0.3225  0.6830
  497MOL0     O68496   6.288   0.131   9.947 -0.4548  0.0097  0.9340
  497MOL0     C68497   6.343   0.207  10.293  0.0132 -0.8075 -0.0879
  497MOL0     C68498   6.433   0.275  10.381  0.1316  0.0625 -0.1475
  497MOL0     N68499   6.273   0.466  10.703 -0.0668  0.9695 -0.6960
  497MOL0     N68500   6.155   0.508  10.665  0.3945  0.5882 -0.5657
  497MOL0     C68501   5.847   0.851  10.223  0.9840  0.9214  0.1251
  497MOL0     C68502   5.835   0.818  10.088  0.1288  0.5364 -0.6140
  497MOL0     C68503   5.799   0.938   9.656  0.2722  0.8403 -0.8941
  497MOL0     C68504   5.868   0.821   9.627  0.8879 -0.3312 -0.2736
  497MOL0     C68505   5.894   0.793   9.496  0.4639 -0.1788  0.1591
  497MOL0     C68506   5.862   0.861   9.391  0.3743 -0.8804  0.1267
  497MOL0     O68507   5.899   0.843   9.258 -0.1421  0.1464  0.1352
  497MOL0     C68508   5.946   0.719   9.201  0.2669 -0.7523  0.9966
  497MOL0     C68509   5.989   0.752   9.052  0.0076 -0.4972  0.0714
  497MOL0     C68510   6.032   0.630   8.968 -0.2477 -0.6844  0.5619
  497MOL0     C68511   6.056   0.663   8.825  0.3891  1.3151 -0.9702
  497MOL0     C68512   6.098   0.550   8.742  0.5586  1.2162  1.0576
  497MOL0     C68513   6.138   0.467   8.661 -0.7971  0.2376 -0.1107
  497MOL0     C68514   5.794   0.977   9.418 -0.2273 -0.0471 -0.3626
  497MOL0     C68515   5.765   1.017   9.550  1.0171 -0.6199  0.0235
  497MOL0     C68516   5.683   1.143   9.576 -0.1266 -0.1866  0.2161
  497MOL0     H68517   5.549   1.001  10.017  0.6808  0.5052 -1.2501
  497MOL0     H68518   5.582   1.049  10.267 -1.0976 -2.5571  1.8542
  497MOL0     H68519   5.766   1.159  10.394  1.6625  1.1804  0.6876
  497MOL0     H68520   5.849   1.105  10.534 -0.8401 -3.1797  1.1592
  497MOL0     H68521   5.602   1.203  10.577 -1.6348  0.4283 -2.4106
  497MOL0     H68522   5.553   1.056  10.495  1.1479  1.5564 -2.0355
  497MOL0     H68523   5.539   1.066  10.748  0.4099  3.4269 -1.0944
  497MOL0     H68524   5.600   0.920  10.683 -0.8580 -0.2268  2.2325
  497MOL0     H68525   5.780   1.152  10.809 -0.8253 -0.9710  3.3155
  497MOL0     H68526   5.687   1.035  10.891 -0.9215  0.3859 -0.2134
  497MOL0     H68527   5.946   0.993  10.827  0.1262 -0.0042  0.5291
  497MOL0     H68528   5.879   0.938  10.670  0.1990  0.0039 -0.3037
  497MOL0     H68529   5.802   0.803  10.938 -1.7866 -2.1099 -0.0957
  497MOL0     H68530   5.763   0.756  10.769  0.0322  0.9859  0.2637
  497MOL0     H68531   5.950   0.623  10.862  0.9959  0.6921 -1.0133
  497MOL0     H68532   6.042   0.767  10.890  0.4018  0.4156 -0.0150
  497MOL0     H68533   5.967   0.673  10.611  0.3619  0.0370 -0.4003
  497MOL0     H68534   6.062   0.819  10.649  1.5266 -0.9273 -1.2171
  497MOL0     H68535   6.310   0.784  10.753 -0.2027 -0.2361  0.5433
  497MOL0     H68536   6.530   0.459  10.796 -1.2132  0.1311  0.2268
  497MOL0     H68537   6.505   0.620  10.871 -1.1479 -0.6520  1.3479
  497MOL0     H68538   6.559   0.718  10.639 -1.2810 -0.0507 -2.5364
  497MOL0     H68539   6.686   0.632  10.706 -0.9118  0.3226  1.6070
  497MOL0     H68540   6.480   0.539  10.490 -0.2858  0.4115 -0.1996
  497MOL0     H68541   6.647   0.593  10.464 -0.0252  1.0178  0.2287
  497MOL0     H68542   6.730   0.390  10.608  0.3152 -0.9883  0.3381
  497MOL0     H68543   6.576   0.337  10.610  1.3109 -2.4547 -0.7660
  497MOL0     H68544   6.695   0.293  10.173  2.5978 -2.9244  2.3839
  497MOL0     H68545   6.561   0.092   9.956 -4.2090 -0.6277 -1.3848
  497MOL0     H68546   6.664   0.238   9.964 -0.4731  1.9953  0.4377
  497MOL0     H68547   6.507   0.253   9.892 -0.1949 -1.0113 -0.1340
  497MOL0     H68548   6.145  -0.166   9.986 -0.7965 -0.7029  0.7462
  497MOL0     H68549   5.933  -0.234   9.893 -1.3883 -0.0926  0.6638
  497MOL0     H68550   5.761  -0.170   9.720 -1.1877 -1.3899 -1.3402
  497MOL0     H68551   5.704  -0.289   9.840  0.0363 -0.4771 -0.3310
  497MOL0     H68552   5.490  -0.209   9.838  1.1274 -1.1508  0.7898
  497MOL0     H68553   5.536  -0.053   9.765 -0.4092  0.5989  0.9581
  497MOL0     H68554   5.570  -0.179   9.543 -0.3114  2.8743  0.4728
  497MOL0     H68555   5.413  -0.175   9.598  0.9840  1.9609 -0.3697
  497MOL0     H68556   5.440  -0.409   9.706  1.0106 -1.9965  0.3099
  497MOL0     H68557   5.598  -0.416   9.620  0.7052 -0.4645 -2.7371
  497MOL0     H68558   5.509  -0.442   9.416 -0.5652 -0.1118  0.1811
  497MOL0     H68559   5.407  -0.540   9.505 -1.9928 -0.1589 -2.1891
  497MOL0     H68560   5.313  -0.257   9.448  1.1715 -0.2767  3.2888
  497MOL0     H68561   5.238  -0.367   9.544  1.6256  1.3229  0.1572
  497MOL0     H68562   5.276  -0.512   9.300 -1.0111 -0.2799 -0.5555
  497MOL0     H68563   5.226  -0.351   9.258 -0.7861 -0.2464  0.2565
  497MOL0     H68564   5.083  -0.504   9.469 -2.2436  0.2440 -0.3885
  497MOL0     H68565   5.035  -0.534   9.307 -1.9172 -1.1560  1.1605
  497MOL0     H68566   5.746   0.129  10.012 -0.8568 -1.4946 -0.6252
  497MOL0     H68567   5.961   0.198  10.119  0.6629  0.0464 -0.0317
  497MOL0     H68568   6.253   0.180  10.347  0.1284  0.5657  0.8459
  497MOL0     H68569   6.401   0.301  10.481  1.8322 -3.6885  1.5840
  497MOL0     H68570   5.920   0.799  10.284 -2.2739 -1.6495  2.1778
  497MOL0     H68571   5.901   0.747  10.039  0.2792 -0.4117  0.8979
  497MOL0     H68572   5.887   0.752   9.708 -1.3875 -0.3683  0.2971
  497MOL0     H68573   5.946   0.699   9.476  0.1200  0.0161 -1.8713
  497MOL0     H68574   6.035   0.685   9.256  1.2413  0.4301  0.2238
  497MOL0     H68575   5.870   0.641   9.195  1.1079 -1.5005 -3.1928
  497MOL0     H68576   6.070   0.826   9.058 -0.6615  0.4465 -1.7154
  497MOL0     H68577   5.901   0.791   9.000  1.4286 -1.0291 -3.0062
  497MOL0     H68578   6.124   0.585   9.008 -1.1134 -2.9081  0.2000
  497MOL0     H68579   5.956   0.552   8.972 -0.7934 -0.1328  1.1291
  497MOL0     H68580   6.138   0.735   8.824  1.1649  0.6452  2.3322
  497MOL0     H68581   5.966   0.705   8.779 -1.4403 -0.2113  1.0215
  497MOL0     H68582   6.177   0.385   8.604  0.2499  1.5512 -1.3465
  497MOL0     H68583   5.766   1.037   9.332 -0.3880  0.4253  0.0151
  497MOL0     H68584   5.672   1.213   9.493  1.0216  1.0892  1.0954
  497MOL0     H68585   5.588   1.110   9.618 -0.6336 -1.0195 -1.5213
  497MOL0     H68586   5.744   1.203   9.645 -0.0588  2.2219 -1.7915
  498MOL0     O68587   8.646   6.368   3.453  0.0321 -0.3818 -0.7794
  498MOL0     C68588   8.648   6.465   3.380 -0.1300 -1.4099 -0.6318
  498MOL0     O68589   8.539   6.511   3.310 -0.0086 -0.5800  0.3462
  498MOL0     C68590   8.422   6.502   3.378  0.4200  0.4647 -0.4071
  498MOL0     C68591   8.349   6.383   3.364  0.1193  0.2814  0.1777
  498MOL0     C68592   8.221   6.375   3.425 -0.3360  0.4191 -0.5313
  498MOL0     C68593   8.172   6.475   3.501  0.2575 -0.8478 -0.9720
  498MOL0     O68594   8.059   6.474   3.581 -0.5937 -0.3848  0.3299
  498MOL0     C68595   7.930   6.421   3.521 -0.8727  0.4645 -0.6895
  498MOL0     C68596   7.853   6.331   3.620 -0.0381 -0.1226  0.0739
  498MOL0     C68597   7.768   6.225   3.545 -0.2290 -0.7850  0.1667
  498MOL0     C68598   7.666   6.170   3.646 -0.2063 -0.1084  0.5164
  498MOL0     C68599   7.582   6.078   3.586 -0.9571  0.0864  0.4136
  498MOL0     C68600   7.462   6.048   3.674 -0.3712 -0.0559  0.2866
  498MOL0     C68601   7.378   5.933   3.620  0.7840  0.0743  0.8316
  498MOL0     C68602   7.434   5.792   3.643  0.8907 -0.1306 -0.2417
  498MOL0     N68603   7.343   5.692   3.589  0.2759  0.8784  0.7411
  498MOL0     C68604   7.225   5.658   3.654 -0.5445 -0.2850  0.3285
  498MOL0     C68605   7.166   5.570   3.566  0.6110 -0.5649 -0.7762
  498MOL0     C68606   7.043   5.498   3.592  0.0722  0.0715 -0.0747
  498MOL0     C68607   7.019   5.442   3.727 -0.2591 -1.1312  0.8219
  498MOL0     C68608   7.097   5.312   3.759  0.3244 -0.7512 -0.6040
  498MOL0     C68609   7.255   5.326   3.754  0.5007  0.0387 -0.5506
  498MOL0     O68610   7.291   5.431   3.845 -0.1014 -0.8234 -0.1630
  498MOL0     C68611   7.423   5.471   3.850  0.3354 -0.4620  0.5328
  498MOL0     C68612   7.455   5.560   3.952  0.4087 -0.1685 -0.3699
  498MOL0     C68613   7.566   5.649   3.958  0.9529 -0.0317 -0.2670
  498MOL0     C68614   7.572   5.752   4.066  0.2453 -0.3922 -0.1978
  498MOL0     C68615   7.658   5.633   3.852 -0.7181  0.4543 -0.1902
  498MOL0     C68616   7.780   5.715   3.829  0.3663  0.7765  0.6727
  498MOL0     O68617   7.830   5.709   3.700  0.6251  0.4072 -0.5721
  498MOL0     C68618   7.946   5.770   3.669  0.3276 -0.1834  1.0439
  498MOL0     C68619   7.939   5.913   3.652 -0.3014  0.8626  0.2698
  498MOL0     C68620   8.058   5.979   3.601  0.9042 -0.3142 -0.1400
  498MOL0     C68621   8.180   5.905   3.578  0.2792  1.0882 -0.1234
  498MOL0     O68622   8.290   5.979   3.546 -1.0728 -0.1982  0.7912
  498MOL0     C68623   8.422   5.926   3.528 -0.1159  0.0209  0.0357
  498MOL0     C68624   8.501   6.032   3.453 -0.1401  0.0950  0.7167
  498MOL0     C68625   8.609   5.984   3.349 -0.2015 -0.0906  0.2873
  498MOL0     C68626   8.695   5.865   3.412 -0.0559  0.1444  0.9294
  498MOL0     C68627   8.824   5.825   3.321  0.2910  0.1707 -0.1653
  498MOL0     C68628   8.803   5.734   3.194 -0.5789  0.4667 -0.1029
  498MOL0     C68629   8.934   5.676   3.131  0.6174  0.1012 -0.0923
  498MOL0     C68630   8.991   5.566   3.226  0.0502  0.3425 -0.8582
  498MOL0    Cl68631   8.889   5.416   3.239  0.3181 -0.0614  0.3371
  498MOL0     C68632   8.178   5.767   3.604  0.5904 -0.0652  0.1819
  498MOL0     C68633   8.059   5.702   3.636  0.3536 -0.7576  0.3273
  498MOL0     O68634   7.835   5.767   3.927  0.1447  0.3928 -0.4914
  498MOL0     C68635   7.632   5.530   3.751 -0.1928  0.9569 -0.1200
  498MOL0     C68636   7.520   5.449   3.751  0.2989  0.8362  0.2739
  498MOL0     N68637   7.237   5.573   3.452  0.6355 -0.1822 -0.3271
  498MOL0     N68638   7.338   5.650   3.468 -0.7966  0.6174  1.1981
  498MOL0     C68639   8.257   6.584   3.535  0.5576 -0.6646 -0.3614
  498MOL0     C68640   8.373   6.602   3.466 -0.2150  0.4575 -0.9460
  498MOL0     C68641   8.786   6.535   3.369 -0.3076 -0.1109 -0.0518
  498MOL0     C68642   8.883   6.512   3.469 -0.4225 -0.1408  0.9393
  498MOL0     C68643   9.014   6.544   3.447 -0.5559 -0.5497  0.4891
  498MOL0     C68644   9.051   6.621   3.335  0.0577 -0.2024  0.2746
  498MOL0     O68645   9.182   6.661   3.337 -0.1210 -0.1563 -0.4412
  498MOL0     C68646   9.252   6.639   3.210 -0.6268 -0.2486  0.7251
  498MOL0     C68647   9.395   6.668   3.239  0.3860 -0.1205 -1.6242
  498MOL0     C68648   9.479   6.680   3.117  1.0161  0.2882 -0.5306
  498MOL0     C68649   9.489   6.543   3.043 -0.1672  0.1243 -0.1940
  498MOL0     C68650   9.614   6.537   2.969  0.3052 -0.1817  0.6692
  498MOL0     C68651   9.707   6.541   2.896 -0.6013  0.1858 -0.1617
  498MOL0     C68652   8.957   6.656   3.236  1.0443 -0.5033 -0.0237
  498MOL0     C68653   8.818   6.625   3.259 -0.1565  0.4790  0.0813
  498MOL0     C68654   8.725   6.672   3.151 -0.5564  0.0054 -0.6534
  498MOL0     H68655   8.384   6.307   3.295  1.7202  2.2060 -1.2456
  498MOL0     H68656   8.176   6.276   3.417  1.7838 -0.4831 -2.5417
  498MOL0     H68657   7.962   6.369   3.430  1.3274 -0.1495  0.3743
  498MOL0     H68658   7.862   6.498   3.483  0.1775  1.4528 -0.6123
  498MOL0     H68659   7.927   6.286   3.687 -1.1913 -0.7465  0.9682
  498MOL0     H68660   7.781   6.391   3.675 -0.1853  0.3091 -0.5764
  498MOL0     H68661   7.722   6.270   3.457 -1.4201 -1.8207  0.2265
  498MOL0     H68662   7.831   6.142   3.512  1.2439 -0.2304  1.4630
  498MOL0     H68663   7.714   6.140   3.740  0.9671 -2.5792 -0.8076
  498MOL0     H68664   7.595   6.251   3.668  1.3502  2.3578 -2.6325
  498MOL0     H68665   7.644   5.989   3.568 -0.5335 -0.0255  2.3003
  498MOL0     H68666   7.548   6.119   3.490  0.0553 -1.9475 -0.8911
  498MOL0     H68667   7.518   6.020   3.764  0.0309 -1.4609 -0.3719
  498MOL0     H68668   7.404   6.140   3.683  0.0428  0.3835 -1.1878
  498MOL0     H68669   7.365   5.959   3.514 -1.3248 -0.5411  0.8904
  498MOL0     H68670   7.282   5.944   3.672  0.2936 -1.8954  0.4387
  498MOL0     H68671   7.525   5.776   3.585  1.0698 -3.4340  0.7489
  498MOL0     H68672   7.459   5.776   3.748  0.5346 -0.2997 -0.1801
  498MOL0     H68673   7.189   5.684   3.752  0.9514 -1.2505  1.1759
  498MOL0     H68674   7.030   5.417   3.520  2.5266  0.6877 -1.3350
  498MOL0     H68675   6.963   5.571   3.576 -0.1405  0.0047  0.6495
  498MOL0     H68676   7.046   5.512   3.807 -1.2522 -0.3361  0.4871
  498MOL0     H68677   6.914   5.414   3.745 -0.5184 -1.2918 -0.7744
  498MOL0     H68678   7.067   5.285   3.860  0.4757  1.1430 -0.0218
  498MOL0     H68679   7.074   5.228   3.692  0.3246 -0.0877 -1.4636
  498MOL0     H68680   7.298   5.231   3.788 -1.4900 -1.4207 -1.9143
  498MOL0     H68681   7.287   5.348   3.652  1.8399  0.6713 -0.0325
  498MOL0     H68682   7.375   5.582   4.022 -0.9606  1.0727 -2.2262
  498MOL0     H68683   7.486   5.740   4.133  0.5849 -0.1996  0.2759
  498MOL0     H68684   7.576   5.852   4.021  0.6169 -1.7018 -3.3466
  498MOL0     H68685   7.662   5.739   4.126  1.3058  1.1598 -1.3569
  498MOL0     H68686   7.850   5.969   3.679  0.3996  2.1868 -0.0851
  498MOL0     H68687   8.053   6.087   3.594  0.7697 -0.0699  2.8151
  498MOL0     H68688   8.472   5.898   3.621  0.7774 -2.4521 -1.1019
  498MOL0     H68689   8.416   5.835   3.469 -0.4112  1.4476 -2.2456
  498MOL0     H68690   8.433   6.092   3.391 -0.1896 -0.9274 -0.2713
  498MOL0     H68691   8.546   6.107   3.517  2.2294  1.0573 -1.8930
  498MOL0     H68692   8.669   6.070   3.317 -0.5214  0.4452  1.1202
  498MOL0     H68693   8.561   5.948   3.258  0.4754  0.0901 -0.1540
  498MOL0     H68694   8.634   5.780   3.443 -1.4945  1.8072  2.9270
  498MOL0     H68695   8.731   5.903   3.508  0.0186  0.6174  0.7137
  498MOL0     H68696   8.860   5.921   3.282  3.8808 -1.1283 -0.3757
  498MOL0     H68697   8.906   5.776   3.374  0.1072 -0.4270 -0.4373
  498MOL0     H68698   8.751   5.791   3.117  2.5832  1.5304 -1.6181
  498MOL0     H68699   8.738   5.647   3.210  1.2128 -1.1067 -0.9980
  498MOL0     H68700   9.012   5.752   3.120  0.0332  0.5208 -1.6343
  498MOL0     H68701   8.910   5.640   3.031 -4.4594  0.6184  0.6884
  498MOL0     H68702   9.006   5.599   3.329  1.1454 -0.2037 -0.8295
  498MOL0     H68703   9.091   5.540   3.191 -0.3306  0.0187 -1.7143
  498MOL0     H68704   8.272   5.713   3.608 -0.5138 -2.7860 -3.6522
  498MOL0     H68705   8.074   5.596   3.653  4.1878 -0.2668  0.9366
  498MOL0     H68706   7.697   5.510   3.666  0.4740  1.6294  0.2201
  498MOL0     H68707   7.506   5.390   3.661  1.3524  0.8706  0.0792
  498MOL0     H68708   8.222   6.663   3.601  0.3412 -0.6993 -0.4360
  498MOL0     H68709   8.424   6.698   3.473 -0.3424  0.4281  1.0452
  498MOL0     H68710   8.857   6.465   3.564  1.2621 -0.5396  1.2355
  498MOL0     H68711   9.086   6.527   3.526 -0.8743  0.2599  0.9618
  498MOL0     H68712   9.248   6.532   3.188  3.9638 -1.0115  2.5593
  498MOL0     H68713   9.225   6.703   3.125  2.0361  0.2963  0.2065
  498MOL0     H68714   9.430   6.589   3.305 -1.0792  0.4143 -0.1387
  498MOL0     H68715   9.398   6.764   3.291  1.0420 -1.5431  1.1239
  498MOL0     H68716   9.443   6.759   3.051 -0.8651 -0.8161 -0.8872
  498MOL0     H68717   9.580   6.701   3.153  2.3651  0.6879 -4.0983
  498MOL0     H68718   9.399   6.537   2.981  0.8934 -1.8048 -1.6623
  498MOL0     H68719   9.484   6.458   3.112 -0.2014 -0.8228 -1.3471
  498MOL0     H68720   9.792   6.528   2.832 -0.0969  2.1654  0.0587
  498MOL0     H68721   8.992   6.693   3.141  0.8372 -0.6098 -0.1431
  498MOL0     H68722   8.689   6.605   3.072 -0.0298 -0.7135 -0.2873
  498MOL0     H68723   8.637   6.714   3.200 -0.8409 -1.3784  0.0787
  498MOL0     H68724   8.771   6.752   3.092 -0.9442 -1.7992 -3.5887
  499MOL0     O68725  10.404   3.362   5.403 -0.3923  0.5475  0.3016
  499MOL0     C68726  10.431   3.419   5.300 -0.2745 -0.7906 -1.3000
  499MOL0     O68727  10.524   3.529   5.294 -0.1031 -0.3685 -0.4786
  499MOL0     C68728  10.557   3.583   5.412  0.4912 -0.4347 -0.6481
  499MOL0     C68729  10.626   3.522   5.512  0.1797  0.2794  0.3525
  499MOL0     C68730  10.671   3.591   5.625  0.3283  0.0468 -0.5418
  499MOL0     C68731  10.642   3.726   5.645 -0.0020 -0.0851  0.4608
  499MOL0     O68732  10.704   3.784   5.753 -0.2088  0.2073 -0.4463
  499MOL0     C68733  10.666   3.916   5.795  1.1551  0.3377  0.3049
  499MOL0     C68734  10.724   3.942   5.933  0.3975 -0.2211  0.4203
  499MOL0     C68735  10.870   3.992   5.930  1.0771 -1.2587 -0.0522
  499MOL0     C68736  10.911   4.072   6.056 -0.4878  0.1293  0.2029
  499MOL0     C68737  11.033   4.161   6.022 -0.2773  0.0220  0.0378
  499MOL0     C68738  11.055   4.244   6.144 -0.3847  0.2754  0.0807
  499MOL0     C68739  11.144   4.355   6.126  0.2694 -0.1836 -0.7574
  499MOL0     C68740  11.220   4.407   6.246 -0.7906  0.6214  0.3683
  499MOL0     N68741  11.334   4.323   6.276  0.6789  0.4080  0.2341
  499MOL0     C68742  11.331   4.217   6.365 -0.0380  0.5961 -1.1258
  499MOL0     C68743  11.462   4.169   6.372 -0.2595  0.3783 -0.9548
  499MOL0     C68744  11.507   4.057   6.454  0.7312  0.5412 -0.2468
  499MOL0     C68745  11.595   4.103   6.571 -0.5404 -0.0247  0.6555
  499MOL0     C68746  11.725   4.157   6.526  0.5745 -0.2592 -0.5019
  499MOL0     C68747  11.821   4.171   6.642  0.1321  0.0383  0.4700
  499MOL0     O68748  11.763   4.243   6.755 -0.1909  0.0521  0.1129
  499MOL0     C68749  11.860   4.279   6.852 -1.2542  0.1761  0.2995
  499MOL0     C68750  11.924   4.174   6.915  1.3550 -0.6640  0.3759
  499MOL0     C68751  12.041   4.190   6.994  0.0399  0.5333  0.5060
  499MOL0     C68752  12.112   4.070   7.042 -1.1048  0.5064 -0.4859
  499MOL0     C68753  12.066   4.323   7.027  0.3387 -0.6850  0.1889
  499MOL0     C68754  12.174   4.354   7.123 -0.5239 -0.4623  0.4626
  499MOL0     O68755  12.285   4.277   7.130 -0.3977 -0.3872  0.1230
  499MOL0     C68756  12.400   4.334   7.190 -0.2383  0.2751  0.4553
  499MOL0     C68757  12.410   4.385   7.321  0.5910  0.6489 -0.6230
  499MOL0     C68758  12.537   4.423   7.366  0.3334 -0.2056 -0.2488
  499MOL0     C68759  12.650   4.425   7.284 -0.6265  0.0094 -0.0739
  499MOL0     O68760  12.763   4.449   7.352  0.6238 -0.2358 -0.0435
  499MOL0     C68761  12.885   4.378   7.319  1.1048  0.2180 -0.3433
  499MOL0     C68762  12.995   4.386   7.426 -0.4623 -0.2203  0.0012
  499MOL0     C68763  13.106   4.290   7.395 -0.5227 -1.0799  0.0858
  499MOL0     C68764  13.194   4.338   7.278  1.1366 -0.2111  0.3922
  499MOL0     C68765  13.299   4.242   7.241  0.8225  0.2751 -0.3392
  499MOL0     C68766  13.404   4.304   7.150 -0.0852 -0.3156  0.3526
  499MOL0     C68767  13.501   4.209   7.105  0.0266 -0.4511  0.4835
  499MOL0     C68768  13.633   4.263   7.046 -0.6328  0.4560 -0.2578
  499MOL0    Cl68769  13.599   4.358   6.900  0.2476 -0.1906  0.0691
  499MOL0     C68770  12.639   4.385   7.145 -0.2379 -0.0896 -0.4693
  499MOL0     C68771  12.506   4.351   7.104 -0.1139 -0.1105 -0.1498
  499MOL0     O68772  12.146   4.453   7.187  0.0759  0.0085  0.0321
  499MOL0     C68773  12.000   4.430   6.964  1.8199 -0.4408 -0.4050
  499MOL0     C68774  11.896   4.412   6.873 -0.1544  0.9832  0.2102
  499MOL0     N68775  11.541   4.242   6.282  0.0111  0.0177 -1.4221
  499MOL0     N68776  11.457   4.326   6.230 -0.2831  0.0939 -0.3111
  499MOL0     C68777  10.557   3.786   5.552 -0.3580  0.1057 -0.1931
  499MOL0     C68778  10.519   3.717   5.437 -0.1807  0.1193 -0.0865
  499MOL0     C68779  10.389   3.378   5.160 -0.6264  0.3189  0.5756
  499MOL0     C68780  10.404   3.468   5.060 -0.5997  0.8627 -0.3618
  499MOL0     C68781  10.360   3.445   4.928 -0.1255 -0.9369 -1.1380
  499MOL0     C68782  10.299   3.331   4.895 -0.1914  0.3748 -0.2114
  499MOL0     O68783  10.256   3.336   4.766  0.9399  0.3004 -0.7788
  499MOL0     C68784  10.232   3.210   4.696  0.3892 -0.1157  0.4230
  499MOL0     C68785  10.358   3.122   4.688 -0.0332  0.0960  0.5302
  499MOL0     C68786  10.484   3.201   4.665  0.7188 -1.1929 -0.0185
  499MOL0     C68787  10.592   3.122   4.599 -0.4872 -0.1066 -0.8189
  499MOL0     C68788  10.707   3.214   4.589 -0.3204 -0.3197  0.3290
  499MOL0     C68789  10.803   3.286   4.590  0.4894  0.4960 -0.8669
  499MOL0     C68790  10.281   3.230   4.999  0.7438 -0.5066 -0.1580
  499MOL0     C68791  10.331   3.256   5.130  0.5826  0.5798  0.1626
  499MOL0     C68792  10.320   3.147   5.222 -0.9514  0.8862 -0.0787
  499MOL0     H68793  10.654   3.419   5.493 -0.6225  0.0609  0.3138
  499MOL0     H68794  10.743   3.555   5.697  0.3905  4.0334  1.7224
  499MOL0     H68795  10.558   3.930   5.797  0.9985 -0.8636  0.8611
  499MOL0     H68796  10.714   3.990   5.731  1.3725  0.6163  0.7818
  499MOL0     H68797  10.663   4.014   5.988  2.1424  1.8416 -0.2142
  499MOL0     H68798  10.713   3.849   5.989 -1.1282 -0.6624 -0.5333
  499MOL0     H68799  10.935   3.904   5.926 -0.3188 -2.3855  1.0854
  499MOL0     H68800  10.876   4.055   5.841 -0.8955 -1.3681 -0.2907
  499MOL0     H68801  10.836   4.147   6.082  0.8236  1.1308  1.2293
  499MOL0     H68802  10.929   4.009   6.143 -0.3932 -0.5939 -0.3273
  499MOL0     H68803  10.999   4.220   5.937 -1.0010  0.9410  0.9353
  499MOL0     H68804  11.122   4.105   5.991  0.4971  1.3440 -0.2241
  499MOL0     H68805  10.957   4.279   6.178 -0.3282  1.1658 -0.6135
  499MOL0     H68806  11.097   4.180   6.222  0.7459  1.6500  0.6335
  499MOL0     H68807  11.082   4.434   6.082  0.9858 -0.1857 -1.8048
  499MOL0     H68808  11.225   4.330   6.057  4.6095  2.2990  2.8941
  499MOL0     H68809  11.259   4.506   6.221  0.6550 -0.2413 -0.9617
  499MOL0     H68810  11.165   4.401   6.341  1.9378  0.9309  2.0895
  499MOL0     H68811  11.254   4.170   6.424 -0.3698 -2.1942 -3.5524
  499MOL0     H68812  11.565   3.997   6.383  1.5456 -2.5047  2.7610
  499MOL0     H68813  11.417   4.005   6.489  1.2780  0.6277  1.3760
  499MOL0     H68814  11.532   4.179   6.619 -1.1433  1.0085 -1.6244
  499MOL0     H68815  11.602   4.024   6.646 -6.6274 -0.3213  1.4245
  499MOL0     H68816  11.775   4.093   6.453  0.6652 -2.9752  1.7596
  499MOL0     H68817  11.712   4.249   6.469  0.0556 -0.9965 -1.5949
  499MOL0     H68818  11.854   4.070   6.670 -0.2103  0.1796  1.4447
  499MOL0     H68819  11.909   4.224   6.608  0.6388 -1.4853 -0.7186
  499MOL0     H68820  11.874   4.078   6.911 -0.7995  0.3618  0.9113
  499MOL0     H68821  12.208   4.071   6.989  0.1633  1.1248  1.6494
  499MOL0     H68822  12.055   3.978   7.034 -0.0503 -0.1859 -0.2637
  499MOL0     H68823  12.139   4.080   7.148 -4.0272 -2.7018  0.7410
  499MOL0     H68824  12.330   4.391   7.394  1.7654 -0.7827  0.8360
  499MOL0     H68825  12.550   4.461   7.468 -2.4118  4.0287 -1.2176
  499MOL0     H68826  12.850   4.274   7.313 -0.8529  0.8550 -0.4829
  499MOL0     H68827  12.931   4.408   7.224  2.3259  0.2822  0.2558
  499MOL0     H68828  13.034   4.487   7.442 -0.1064 -0.3885  0.2068
  499MOL0     H68829  12.954   4.366   7.526  2.3603  1.3452  1.6060
  499MOL0     H68830  13.063   4.192   7.369  1.3699 -1.0999 -3.6413
  499MOL0     H68831  13.170   4.278   7.483  0.6640  0.8950 -0.4299
  499MOL0     H68832  13.240   4.431   7.312  1.0519 -0.7990  2.2381
  499MOL0     H68833  13.129   4.345   7.190 -0.9727 -1.8854  1.6943
  499MOL0     H68834  13.345   4.212   7.335  0.6426  2.0421  0.3523
  499MOL0     H68835  13.243   4.163   7.190  1.3421 -0.9838  0.9965
  499MOL0     H68836  13.454   4.385   7.202  1.9863 -1.2620 -0.0764
  499MOL0     H68837  13.339   4.334   7.067 -0.3414  0.8859  0.9673
  499MOL0     H68838  13.446   4.149   7.031 -1.1291  1.3320 -0.1614
  499MOL0     H68839  13.523   4.148   7.193 -1.0858  0.4366  1.4005
  499MOL0     H68840  13.688   4.180   7.001 -3.8372  1.4056 -7.1677
  499MOL0     H68841  13.683   4.320   7.125 -0.5359  0.8183 -0.5741
  499MOL0     H68842  12.729   4.389   7.085 -0.0289  0.4352 -0.1292
  499MOL0     H68843  12.496   4.323   6.999  3.2491  0.3219 -0.7142
  499MOL0     H68844  12.009   4.533   6.998  0.9505 -1.4985  3.4843
  499MOL0     H68845  11.856   4.503   6.829  4.0222  2.8275 -0.3213
  499MOL0     H68846  10.544   3.892   5.571 -0.6617 -0.1415  1.0980
  499MOL0     H68847  10.476   3.781   5.361  3.6464  0.1342 -2.4974
  499MOL0     H68848  10.457   3.561   5.076  1.3390 -0.3760  0.8665
  499MOL0     H68849  10.371   3.529   4.861  0.5549  0.7666  0.9925
  499MOL0     H68850  10.138   3.163   4.725  0.6357  0.5317  2.5074
  499MOL0     H68851  10.209   3.245   4.596  1.4038  0.6531  0.4374
  499MOL0     H68852  10.361   3.035   4.622  0.7341  0.5405 -0.0399
  499MOL0     H68853  10.366   3.073   4.786  1.3263 -2.3100 -0.6835
  499MOL0     H68854  10.461   3.291   4.607  0.1276 -0.9972  0.5100
  499MOL0     H68855  10.521   3.236   4.762  0.4474 -1.0407  0.0338
  499MOL0     H68856  10.566   3.090   4.498  0.3604  1.0820 -1.4468
  499MOL0     H68857  10.624   3.036   4.659  1.4403  2.1649  1.6796
  499MOL0     H68858  10.875   3.364   4.604  0.2247  0.5816  0.0948
  499MOL0     H68859  10.230   3.141   4.964 -3.2206  1.6168 -0.2814
  499MOL0     H68860  10.314   3.055   5.162  0.0833  1.6561 -1.4421
  499MOL0     H68861  10.419   3.134   5.267 -0.4042 -2.8795 -1.9576
  499MOL0     H68862  10.243   3.156   5.299  0.9027  0.0949  1.9557
  500MOL0     O68863   1.341   3.361   4.011  0.5615 -0.3617 -0.4807
  500MOL0     C68864   1.384   3.373   3.902 -0.0984  0.0219  1.2723
  500MOL0     O68865   1.468   3.472   3.854 -0.5154  0.1035  0.0366
  500MOL0     C68866   1.534   3.558   3.939 -0.2453 -0.1957 -0.7315
  500MOL0     C68867   1.566   3.680   3.881 -1.2977  0.1616 -0.2518
  500MOL0     C68868   1.640   3.776   3.939  0.8181  0.4369 -0.2304
  500MOL0     C68869   1.705   3.756   4.067 -0.2326 -0.5526 -0.8483
  500MOL0     O68870   1.807   3.849   4.100 -0.0741  0.8660 -0.3402
  500MOL0     C68871   1.896   3.808   4.209  0.3608  0.3694 -0.4767
  500MOL0     C68872   2.006   3.903   4.235 -0.1274  0.6854 -0.4061
  500MOL0     C68873   2.097   3.917   4.112  0.0774 -0.3808  0.3602
  500MOL0     C68874   2.201   4.028   4.139 -0.6224 -0.5040 -0.2512
  500MOL0     C68875   2.264   4.060   4.001  0.4736  0.3375 -0.0305
  500MOL0     C68876   2.374   4.174   3.998  0.2792 -0.1255 -0.3102
  500MOL0     C68877   2.503   4.121   4.080  0.1101 -0.3669 -0.5977
  500MOL0     C68878   2.613   4.224   4.073 -0.1519 -0.2670 -0.4436
  500MOL0     N68879   2.744   4.168   4.104  0.8924 -0.3537  0.0770
  500MOL0     C68880   2.783   4.135   4.229  0.2189  0.2136  0.7183
  500MOL0     C68881   2.917   4.113   4.221 -0.2764 -0.0863 -0.8431
  500MOL0     C68882   3.024   4.062   4.313  0.3935  0.1746 -1.0196
  500MOL0     C68883   3.055   3.914   4.277 -0.5194 -0.8716 -0.4709
  500MOL0     C68884   3.176   3.863   4.351  0.1861 -0.0010  0.3300
  500MOL0     C68885   3.233   3.731   4.286 -1.0787  0.5706  0.2000
  500MOL0     O68886   3.297   3.776   4.161  0.5879  0.8907  0.0732
  500MOL0     C68887   3.388   3.689   4.103 -0.3273  0.5617 -0.6089
  500MOL0     C68888   3.399   3.553   4.136  0.0185 -0.7887 -0.7253
  500MOL0     C68889   3.497   3.473   4.083  0.1040 -0.1152 -0.0712
  500MOL0     C68890   3.469   3.327   4.119 -0.1464 -0.0876  0.5417
  500MOL0     C68891   3.601   3.530   4.002  0.1030  0.1467 -0.1222
  500MOL0     C68892   3.725   3.454   3.955  0.8460  0.2237 -0.6119
  500MOL0     O68893   3.770   3.494   3.828  1.1536  0.3098 -0.2561
  500MOL0     C68894   3.890   3.455   3.791  0.0497  0.4287  0.6824
  500MOL0     C68895   3.999   3.453   3.878 -0.3247 -0.3166 -0.4502
  500MOL0     C68896   4.122   3.397   3.848  0.3221  0.0452 -0.3776
  500MOL0     C68897   4.148   3.345   3.718 -0.0273  0.6386 -0.2513
  500MOL0     O68898   4.283   3.325   3.681 -0.4338 -0.8360  0.5929
  500MOL0     C68899   4.383   3.295   3.780  0.4764 -0.3080 -0.3800
  500MOL0     C68900   4.512   3.287   3.705  0.3435  0.2083 -0.2500
  500MOL0     C68901   4.619   3.271   3.809 -0.2107  0.0547 -0.3742
  500MOL0     C68902   4.764   3.256   3.754  0.9521 -0.0769 -0.4744
  500MOL0     C68903   4.854   3.207   3.867  0.3583  0.0497  0.5472
  500MOL0     C68904   5.000   3.172   3.815  0.1729 -0.9679  0.6513
  500MOL0     C68905   5.076   3.106   3.934  0.1732  0.4010  0.8992
  500MOL0     C68906   5.222   3.078   3.911 -0.7186 -0.1652  0.4137
  500MOL0    Cl68907   5.262   2.946   3.799  0.0316  0.1814 -0.1290
  500MOL0     C68908   4.040   3.340   3.627 -1.0579  0.3654  0.1458
  500MOL0     C68909   3.918   3.387   3.668  0.3885 -0.3713  0.9782
  500MOL0     O68910   3.766   3.358   4.020  0.5241  0.5376 -0.1675
  500MOL0     C68911   3.578   3.661   3.954 -0.7402 -0.5429 -0.6751
  500MOL0     C68912   3.478   3.736   4.005 -0.3231 -0.9241 -0.2996
  500MOL0     N68913   2.942   4.127   4.089 -0.5620  0.4583 -0.0573
  500MOL0     N68914   2.841   4.150   4.015  0.2244 -0.0648  0.4724
  500MOL0     C68915   1.673   3.634   4.132 -0.5584 -1.0780 -0.4646
  500MOL0     C68916   1.588   3.543   4.070 -0.3296  0.3326  0.0057
  500MOL0     C68917   1.326   3.267   3.812  0.1358  0.7059  0.1387
  500MOL0     C68918   1.223   3.185   3.862 -0.1979 -0.2790  0.1146
  500MOL0     C68919   1.153   3.085   3.786  0.2178 -0.9128  0.0517
  500MOL0     C68920   1.183   3.080   3.650 -0.2088 -0.1573  1.0190
  500MOL0     O68921   1.116   2.990   3.570 -0.1778 -0.0914  0.0718
  500MOL0     C68922   1.145   2.972   3.429 -0.4726  0.0051 -0.2769
  500MOL0     C68923   1.052   2.877   3.361  0.1007  0.5246  0.6405
  500MOL0     C68924   1.059   2.737   3.419 -0.1147  0.1816 -0.7874
  500MOL0     C68925   0.991   2.709   3.554 -0.8139 -0.4305  0.3558
  500MOL0     C68926   0.860   2.645   3.529 -0.7842  0.4496  0.1289
  500MOL0     C68927   0.760   2.584   3.513 -0.5900  0.4176  0.2111
  500MOL0     C68928   1.281   3.154   3.598  0.3151 -0.3046 -0.4574
  500MOL0     C68929   1.353   3.243   3.675 -0.3293  0.4359 -1.3311
  500MOL0     C68930   1.461   3.319   3.614  0.0030  0.4141 -0.6600
  500MOL0     H68931   1.524   3.689   3.781  0.1071 -1.2063 -1.0188
  500MOL0     H68932   1.660   3.872   3.891  4.2031 -0.6806 -1.3423
  500MOL0     H68933   1.947   3.716   4.180 -0.0911  0.4108 -1.4245
  500MOL0     H68934   1.831   3.779   4.293 -1.8747 -2.1001 -2.8428
  500MOL0     H68935   1.961   4.000   4.259  0.6697  0.7213  1.0685
  500MOL0     H68936   2.071   3.868   4.316  2.1593 -1.8137 -3.0579
  500MOL0     H68937   2.144   3.820   4.094  1.5118 -0.0593  2.0302
  500MOL0     H68938   2.045   3.943   4.020  1.6484 -2.0150 -1.0544
  500MOL0     H68939   2.139   4.108   4.180 -1.6823 -2.2952  1.8665
  500MOL0     H68940   2.271   3.995   4.216  1.2401  2.7588 -0.3480
  500MOL0     H68941   2.193   4.086   3.922  0.4374  0.0025 -0.1089
  500MOL0     H68942   2.307   3.965   3.971  1.5706  0.6387  0.5426
  500MOL0     H68943   2.399   4.200   3.894  0.1081 -1.1149 -0.6044
  500MOL0     H68944   2.330   4.265   4.040 -1.4736 -1.7852  1.5931
  500MOL0     H68945   2.543   4.031   4.032 -1.8634 -1.8909  0.4510
  500MOL0     H68946   2.481   4.100   4.185  2.5091  1.3414  0.3219
  500MOL0     H68947   2.625   4.257   3.970  1.8627 -1.5483 -0.6826
  500MOL0     H68948   2.592   4.315   4.131 -0.4711  1.1753 -2.7034
  500MOL0     H68949   2.734   4.129   4.326  1.2208  1.8623  1.3711
  500MOL0     H68950   3.002   4.069   4.420  2.1952 -0.5874 -0.5729
  500MOL0     H68951   3.119   4.114   4.304 -0.5508  2.6579  1.6527
  500MOL0     H68952   2.974   3.844   4.297 -0.1004 -1.0781  0.5801
  500MOL0     H68953   3.070   3.908   4.169 -2.2801 -1.2556 -0.7198
  500MOL0     H68954   3.254   3.940   4.358 -0.4661  0.5514  2.0539
  500MOL0     H68955   3.153   3.849   4.457 -1.4036 -1.5937 -0.1874
  500MOL0     H68956   3.304   3.697   4.362 -1.0080  1.3733  0.5073
  500MOL0     H68957   3.170   3.646   4.258  0.9998 -1.1836  0.5655
  500MOL0     H68958   3.313   3.512   4.186 -2.1795  2.5577 -1.4234
  500MOL0     H68959   3.371   3.308   4.164  0.3762 -1.4168  1.1806
  500MOL0     H68960   3.548   3.289   4.184 -3.2245 -3.9102  2.4722
  500MOL0     H68961   3.478   3.271   4.026 -0.4506 -0.8073  0.9336
  500MOL0     H68962   3.988   3.495   3.978  0.4729  1.5186 -1.0952
  500MOL0     H68963   4.198   3.405   3.925  1.7889 -0.9447 -1.6445
  500MOL0     H68964   4.390   3.379   3.849  0.0306  1.1098 -1.9871
  500MOL0     H68965   4.358   3.204   3.835  0.7972 -0.4387 -0.4490
  500MOL0     H68966   4.511   3.201   3.639 -1.2470 -0.6438  0.7912
  500MOL0     H68967   4.523   3.381   3.650  0.0749 -0.5768 -1.6985
  500MOL0     H68968   4.591   3.187   3.874 -0.7010 -0.2679 -0.9862
  500MOL0     H68969   4.612   3.361   3.871 -0.3783 -1.1979  1.5412
  500MOL0     H68970   4.800   3.353   3.718 -0.3231  1.0243  1.0809
  500MOL0     H68971   4.767   3.174   3.682 -2.1048 -1.0240  0.3479
  500MOL0     H68972   4.850   3.292   3.936 -0.4724  0.3253  0.1650
  500MOL0     H68973   4.810   3.115   3.906 -2.9647  1.0446 -0.5211
  500MOL0     H68974   5.047   3.263   3.775 -0.1888 -1.5080 -1.1095
  500MOL0     H68975   4.998   3.099   3.733  0.7327  1.1143 -1.3277
  500MOL0     H68976   5.030   3.011   3.962 -0.7244  0.7197  0.5440
  500MOL0     H68977   5.069   3.174   4.020 -0.8058 -1.3706  2.2887
  500MOL0     H68978   5.277   3.069   4.006 -0.0028  0.2391  0.0425
  500MOL0     H68979   5.251   3.173   3.866 -0.3990  0.0221  1.0035
  500MOL0     H68980   4.069   3.307   3.528  0.5483 -2.9036  1.5454
  500MOL0     H68981   3.841   3.365   3.595  0.7944  0.4916  0.2725
  500MOL0     H68982   3.649   3.708   3.887  0.5136 -1.3392  0.0443
  500MOL0     H68983   3.459   3.833   3.958 -4.3322 -0.1467  2.3808
  500MOL0     H68984   1.723   3.608   4.224 -1.1864 -1.3757 -0.1983
  500MOL0     H68985   1.576   3.450   4.125 -1.3907  0.8585  0.7004
  500MOL0     H68986   1.187   3.195   3.964 -1.9838  0.5055 -0.5542
  500MOL0     H68987   1.072   3.032   3.835 -1.1976  1.5418  0.5213
  500MOL0     H68988   1.140   3.064   3.371 -1.8662 -0.5159 -1.0265
  500MOL0     H68989   1.250   2.945   3.415  0.2752  2.5696 -0.1655
  500MOL0     H68990   1.071   2.860   3.255  1.2654 -0.6580  1.0086
  500MOL0     H68991   0.951   2.918   3.351 -0.7162 -1.5637 -0.2597
  500MOL0     H68992   1.028   2.664   3.344  0.3477  0.6952 -1.4977
  500MOL0     H68993   1.167   2.721   3.432 -0.2160  0.4476  0.4872
  500MOL0     H68994   0.976   2.802   3.608  1.0054  1.2017 -1.7596
  500MOL0     H68995   1.050   2.646   3.622 -1.3333 -3.8361 -2.0657
  500MOL0     H68996   0.673   2.522   3.506  0.1944 -0.7054  0.0582
  500MOL0     H68997   1.316   3.142   3.496  1.0126 -0.5855 -0.1898
  500MOL0     H68998   1.552   3.333   3.672 -0.6824  1.9747  0.0886
  500MOL0     H68999   1.492   3.279   3.517  0.4502  0.7354 -0.6517
  500MOL0     H69000   1.428   3.421   3.595 -0.2568  0.3251 -0.6869
  501MOL0     O69001   4.213   0.174   7.624 -0.3751 -0.1917 -0.1980
  501MOL0     C69002   4.188   0.055   7.652  0.3401  0.0702  0.0484
  501MOL0     O69003   4.248  -0.022   7.749  0.3096  0.3159 -0.3786
  501MOL0     C69004   4.346   0.024   7.830 -0.6749 -0.0422 -0.3015
  501MOL0     C69005   4.465   0.087   7.779 -0.4656 -0.1534 -0.5896
  501MOL0     C69006   4.568   0.131   7.865  0.1223  0.3321  0.1778
  501MOL0     C69007   4.558   0.102   8.002 -0.2399 -0.0268 -0.3104
  501MOL0     O69008   4.663   0.150   8.075 -0.6812  0.2694 -0.4113
  501MOL0     C69009   4.668   0.120   8.213 -0.2669  0.0751  0.0211
  501MOL0     C69010   4.798   0.178   8.275  0.2338  0.6504  0.9499
  501MOL0     C69011   4.923   0.114   8.214 -0.0272  0.5845 -0.0785
  501MOL0     C69012   5.039   0.134   8.313 -0.0899  0.9508  0.4338
  501MOL0     C69013   5.175   0.102   8.252  0.0655 -0.1003 -0.2388
  501MOL0     C69014   5.199  -0.046   8.233 -0.2395  1.1730 -0.7790
  501MOL0     C69015   5.351  -0.071   8.201  0.4486 -0.6472 -0.3851
  501MOL0     C69016   5.405   0.009   8.079 -0.0017  0.5720 -0.0399
  501MOL0     N69017   5.549  -0.024   8.058  0.5507 -0.4640  0.3217
  501MOL0     C69018   5.659   0.036   8.109 -0.1933  0.6964  0.2156
  501MOL0     C69019   5.758  -0.024   8.037 -0.2285  0.0166  0.4665
  501MOL0     C69020   5.912  -0.001   8.046  0.2227  0.1309  0.1218
  501MOL0     C69021   5.989  -0.086   7.944  0.2342 -0.1862 -0.1050
  501MOL0     C69022   6.133  -0.090   7.988 -0.7201 -0.3264 -0.3704
  501MOL0     C69023   6.220  -0.159   7.882  0.1655 -0.2465  0.3816
  501MOL0     O69024   6.342  -0.085   7.833 -0.1985  0.3047 -0.0154
  501MOL0     C69025   6.460  -0.113   7.895  0.0642  0.5879  0.0731
  501MOL0     C69026   6.468  -0.161   8.031 -0.5305  0.3629 -0.4790
  501MOL0     C69027   6.601  -0.171   8.084 -0.9048  0.1547  0.0728
  501MOL0     C69028   6.602  -0.225   8.225 -0.1820 -0.5729 -0.4865
  501MOL0     C69029   6.721  -0.129   8.010  0.5055 -0.2722 -0.2824
  501MOL0     C69030   6.858  -0.136   8.066  0.7276  0.6166 -0.0377
  501MOL0     O69031   6.950  -0.067   7.994  0.1315  0.2763  0.6953
  501MOL0     C69032   7.083  -0.037   8.034  0.1288  0.5061 -0.0205
  501MOL0     C69033   7.127  -0.035   8.174  1.2435 -0.8236  0.0206
  501MOL0     C69034   7.262  -0.026   8.203  0.1930 -0.8756  0.4359
  501MOL0     C69035   7.348   0.002   8.098  0.8484 -0.3274 -0.0706
  501MOL0     O69036   7.485   0.018   8.103 -0.8466 -0.4271  0.3007
  501MOL0     C69037   7.569  -0.027   8.217  0.3677  0.1146 -0.4250
  501MOL0     C69038   7.705   0.040   8.198 -0.1927 -0.3959 -0.2768
  501MOL0     C69039   7.803  -0.059   8.121  0.0735 -0.1366 -0.3904
  501MOL0     C69040   7.958  -0.049   8.161  0.4124 -0.7862  0.4784
  501MOL0     C69041   8.048  -0.130   8.062  0.1532 -1.1622 -0.2485
  501MOL0     C69042   8.009  -0.273   8.024 -0.5422  0.2663  0.3935
  501MOL0     C69043   8.119  -0.347   7.938 -0.4756  0.0358  0.1326
  501MOL0     C69044   8.080  -0.496   7.898 -0.1847 -0.8249 -0.1387
  501MOL0    Cl69045   8.074  -0.614   8.036 -0.2205 -0.1968  0.1113
  501MOL0     C69046   7.300   0.001   7.962  0.4523  0.5413 -0.1927
  501MOL0     C69047   7.169  -0.015   7.932 -0.3495 -0.0273  0.4137
  501MOL0     O69048   6.882  -0.191   8.176  0.1282  0.1396 -0.2401
  501MOL0     C69049   6.704  -0.084   7.881  0.2704  0.2934  0.2030
  501MOL0     C69050   6.572  -0.079   7.826  0.3776  0.0039  0.2766
  501MOL0     N69051   5.702  -0.124   7.953 -0.1953  0.1740  0.3230
  501MOL0     N69052   5.575  -0.122   7.969  0.1634  0.6586 -0.6632
  501MOL0     C69053   4.447   0.033   8.051 -0.5960 -0.1305  0.9307
  501MOL0     C69054   4.348  -0.007   7.963 -0.2223  0.1842 -0.2705
  501MOL0     C69055   4.084  -0.008   7.573  1.1141 -0.1180 -0.2224
  501MOL0     C69056   3.999  -0.110   7.641 -0.3749  0.1568 -0.0703
  501MOL0     C69057   3.884  -0.159   7.586  0.2735  0.0648 -0.2591
  501MOL0     C69058   3.865  -0.135   7.456 -0.0009  0.1535 -0.5586
  501MOL0     O69059   3.754  -0.194   7.410  0.4016 -0.3728  0.4174
  501MOL0     C69060   3.691  -0.128   7.297  0.0525  1.2262 -0.1424
  501MOL0     C69061   3.540  -0.162   7.298 -0.5671 -0.0302 -0.6146
  501MOL0     C69062   3.463  -0.102   7.175  0.2756 -0.4051 -0.4899
  501MOL0     C69063   3.310  -0.130   7.173 -1.0865  0.0803 -0.0713
  501MOL0     C69064   3.292  -0.258   7.101  0.1359  0.2284  0.6192
  501MOL0     C69065   3.282  -0.359   7.031 -0.4529  0.0548 -0.4681
  501MOL0     C69066   3.962  -0.064   7.382 -0.2496 -0.5140  0.2317
  501MOL0     C69067   4.076   0.001   7.431  0.0240  0.0196 -0.7766
  501MOL0     C69068   4.187   0.055   7.346 -0.3357 -0.2996  0.9324
  501MOL0     H69069   4.460   0.099   7.672  2.1692  1.0698 -0.6601
  501MOL0     H69070   4.653   0.182   7.821  2.7274 -3.6167  0.0659
  501MOL0     H69071   4.666   0.013   8.236  2.8772 -0.0564  0.1414
  501MOL0     H69072   4.581   0.174   8.251  0.8582 -0.0510  3.0190
  501MOL0     H69073   4.789   0.282   8.245 -2.0344  0.2709  0.0635
  501MOL0     H69074   4.804   0.161   8.383 -1.0083 -1.5444  0.7531
  501MOL0     H69075   4.917   0.006   8.194  3.3988  0.4237 -0.9018
  501MOL0     H69076   4.941   0.164   8.119 -1.7056  1.0698 -0.1747
  501MOL0     H69077   5.041   0.241   8.339  2.6190  0.9144  0.6654
  501MOL0     H69078   5.017   0.077   8.404  0.2220 -1.2407 -0.8034
  501MOL0     H69079   5.246   0.138   8.328 -1.8166 -2.9385  3.1648
  501MOL0     H69080   5.178   0.153   8.156  1.1150  2.1518  0.9061
  501MOL0     H69081   5.170  -0.096   8.326  0.4506 -0.0863 -1.2054
  501MOL0     H69082   5.133  -0.082   8.153  1.7785 -2.9256 -0.8788
  501MOL0     H69083   5.355  -0.178   8.182  0.2144 -0.9098  0.9097
  501MOL0     H69084   5.417  -0.050   8.287  3.4646 -2.1156 -2.1613
  501MOL0     H69085   5.344  -0.006   7.989  0.3561 -1.7729  0.0302
  501MOL0     H69086   5.404   0.116   8.100 -2.5100  0.7624 -0.8186
  501MOL0     H69087   5.671   0.113   8.185  3.2696 -0.8959  1.5186
  501MOL0     H69088   5.939  -0.038   8.145  1.2623  1.4731  0.3728
  501MOL0     H69089   5.944   0.104   8.041  0.0733  0.1224 -2.7274
  501MOL0     H69090   5.951  -0.187   7.930  2.7609 -1.0081 -1.6903
  501MOL0     H69091   5.980  -0.048   7.842 -2.1512 -1.5332 -0.4474
  501MOL0     H69092   6.163   0.014   8.006 -0.0083 -0.7532  1.0574
  501MOL0     H69093   6.147  -0.148   8.080 -0.0301  0.5360  0.0893
  501MOL0     H69094   6.240  -0.260   7.918 -1.3659 -0.2561  1.3093
  501MOL0     H69095   6.163  -0.181   7.792 -2.0013  2.1705  1.0235
  501MOL0     H69096   6.382  -0.189   8.090  0.1687  0.0207  0.4167
  501MOL0     H69097   6.636  -0.152   8.300  0.5764 -3.1099  1.8237
  501MOL0     H69098   6.665  -0.314   8.224 -0.6782 -1.0244  1.7421
  501MOL0     H69099   6.505  -0.259   8.261 -0.3023 -0.3653 -0.6135
  501MOL0     H69100   7.048  -0.058   8.244  0.3558  0.4422 -0.5462
  501MOL0     H69101   7.309  -0.028   8.301  2.2498  3.4603 -0.2485
  501MOL0     H69102   7.534   0.006   8.315  1.2971  2.7450 -0.9000
  501MOL0     H69103   7.581  -0.136   8.216  1.2068  0.1976 -0.5619
  501MOL0     H69104   7.685   0.133   8.143 -1.4013  2.2694  4.1335
  501MOL0     H69105   7.746   0.065   8.296 -0.9782  1.9860 -0.4901
  501MOL0     H69106   7.790  -0.025   8.018 -0.6518 -0.4607 -0.4050
  501MOL0     H69107   7.765  -0.161   8.129  0.3216 -0.0667  4.2589
  501MOL0     H69108   7.967  -0.072   8.268 -1.4189  1.7602  1.2818
  501MOL0     H69109   7.990   0.055   8.152 -0.0842 -0.5426  1.4037
  501MOL0     H69110   8.072  -0.068   7.975  5.6846 -2.2673  0.1068
  501MOL0     H69111   8.143  -0.145   8.115 -0.1369 -1.9654  0.0557
  501MOL0     H69112   7.920  -0.268   7.961 -0.2559 -2.4239 -0.3403
  501MOL0     H69113   7.977  -0.320   8.117 -1.8942  0.7547  0.1885
  501MOL0     H69114   8.216  -0.345   7.988 -1.3420  1.6252  1.8685
  501MOL0     H69115   8.144  -0.290   7.848  0.2866 -0.9343 -0.2901
  501MOL0     H69116   8.154  -0.533   7.826  0.1865  2.1513 -1.4150
  501MOL0     H69117   7.987  -0.476   7.844  0.7112  2.6910 -0.6179
  501MOL0     H69118   7.385   0.021   7.898 -0.3641  0.0199 -1.4803
  501MOL0     H69119   7.140  -0.024   7.828 -0.8190  1.4633  0.3979
  501MOL0     H69120   6.782  -0.025   7.834 -2.4729  2.7773 -1.6383
  501MOL0     H69121   6.559  -0.028   7.731  3.2528  2.1441  0.9026
  501MOL0     H69122   4.438  -0.005   8.153 -2.4095 -1.2601  0.4135
  501MOL0     H69123   4.275  -0.075   8.006  0.1518 -0.6446 -0.9349
  501MOL0     H69124   4.014  -0.127   7.747 -1.2385  1.5255  0.2883
  501MOL0     H69125   3.811  -0.224   7.633 -3.4527  1.6281 -3.3583
  501MOL0     H69126   3.701  -0.020   7.311  0.4058  1.2171 -0.3173
  501MOL0     H69127   3.729  -0.146   7.196 -0.9616  2.3879 -0.7643
  501MOL0     H69128   3.504  -0.128   7.396 -0.7580  0.1939 -0.7599
  501MOL0     H69129   3.527  -0.270   7.293  0.3952 -0.1256 -1.1115
  501MOL0     H69130   3.478   0.006   7.184 -3.0417  0.2440 -1.2582
  501MOL0     H69131   3.503  -0.138   7.080 -0.3872 -0.9436 -0.5750
  501MOL0     H69132   3.254  -0.053   7.119 -2.8246 -0.0881  1.3954
  501MOL0     H69133   3.273  -0.141   7.275  1.9023 -1.7291  0.9363
  501MOL0     H69134   3.269  -0.456   6.987  0.9893 -1.5149  2.2419
  501MOL0     H69135   3.946  -0.048   7.276 -1.1211 -1.1638  0.2573
  501MOL0     H69136   4.173   0.009   7.247 -2.1479 -2.9944  2.3305
  501MOL0     H69137   4.166   0.163   7.339 -2.0715 -0.5523  1.7083
  501MOL0     H69138   4.287   0.030   7.380  1.3261 -0.6463 -3.5220
  502MOL0     O69139   1.689   7.160   0.952  0.2047  0.3099  0.4122
  502MOL0     C69140   1.762   7.165   0.851 -1.0155 -0.2024 -0.5242
  502MOL0     O69141   1.728   7.119   0.729  0.0962  0.5868  0.3573
  502MOL0     C69142   1.603   7.079   0.721 -0.6998  1.0010  0.0553
  502MOL0     C69143   1.577   6.940   0.743  0.1649  0.3194  0.3186
  502MOL0     C69144   1.451   6.886   0.749  0.1624  0.7697  0.6819
  502MOL0     C69145   1.338   6.969   0.745 -1.2087 -1.1810 -0.1819
  502MOL0     O69146   1.213   6.935   0.747  0.2989  0.2613 -0.4875
  502MOL0     C69147   1.170   6.796   0.728 -0.6412  0.2379 -0.1541
  502MOL0     C69148   1.018   6.797   0.745  0.0178  0.9910 -0.4925
  502MOL0     C69149   0.945   6.677   0.697  0.4784  0.4889 -0.7093
  502MOL0     C69150   0.951   6.673   0.542  0.0997 -0.5502  0.8105
  502MOL0     C69151   0.871   6.562   0.483 -0.2157  0.2966 -0.4357
  502MOL0     C69152   0.840   6.592   0.340  0.3850 -0.0153  0.1780
  502MOL0     C69153   0.965   6.573   0.254  0.6854  0.4322 -0.0839
  502MOL0     C69154   0.926   6.617   0.115  0.2165  0.3743 -0.0694
  502MOL0     N69155   1.045   6.587   0.033  0.7958  0.3033  0.6550
  502MOL0     C69156   1.166   6.637   0.057  0.0224  0.4096  0.3980
  502MOL0     C69157   1.245   6.583  -0.043 -0.1019 -0.4699  0.4542
  502MOL0     C69158   1.391   6.625  -0.064  0.4757 -0.0498 -0.1129
  502MOL0     C69159   1.400   6.719  -0.185  0.2837  0.2125  0.4642
  502MOL0     C69160   1.540   6.767  -0.215 -0.6157  0.1048  0.5741
  502MOL0     C69161   1.623   6.668  -0.289 -0.3786 -0.2622 -0.0082
  502MOL0     O69162   1.574   6.654  -0.422  1.2648 -0.1329  0.0753
  502MOL0     C69163   1.649   6.599  -0.517  0.5022  0.6831 -0.7016
  502MOL0     C69164   1.788   6.566  -0.506  0.8694 -0.4817  1.5806
  502MOL0     C69165   1.859   6.498  -0.611  0.4951 -0.4377 -0.0085
  502MOL0     C69166   2.006   6.462  -0.574  0.4802  0.4767  0.3592
  502MOL0     C69167   1.791   6.467  -0.730 -1.1965  0.2683  0.6526
  502MOL0     C69168   1.858   6.418  -0.855  0.0751  0.0060 -0.1075
  502MOL0     O69169   1.988   6.420  -0.860  0.1090  0.4659  0.8298
  502MOL0     C69170   2.070   6.388  -0.974 -0.3539 -0.0569 -0.8413
  502MOL0     C69171   2.025   6.386  -1.108 -0.9351 -0.6938 -0.0037
  502MOL0     C69172   2.118   6.387  -1.212 -0.4265  0.3071  0.2195
  502MOL0     C69173   2.251   6.391  -1.185 -0.6601  0.1992 -0.0947
  502MOL0     O69174   2.348   6.389  -1.288  0.1369  0.0130 -0.6555
  502MOL0     C69175   2.359   6.274  -1.386  0.4544  0.0921  0.3237
  502MOL0     C69176   2.410   6.144  -1.323 -0.4311  0.3305  0.5894
  502MOL0     C69177   2.530   6.147  -1.236 -0.4095 -0.8172 -0.2492
  502MOL0     C69178   2.644   6.213  -1.312 -0.8931  1.0045 -0.0651
  502MOL0     C69179   2.775   6.219  -1.231  0.2612 -0.1583 -0.0868
  502MOL0     C69180   2.869   6.331  -1.275  0.0033  0.1561 -0.2730
  502MOL0     C69181   3.011   6.319  -1.209  1.2092  0.0801  0.1616
  502MOL0     C69182   3.118   6.419  -1.257 -0.1309  1.3654  0.3267
  502MOL0    Cl69183   3.166   6.383  -1.423 -0.0587 -0.3112  0.0392
  502MOL0     C69184   2.300   6.393  -1.049 -0.2865  0.1505  0.0286
  502MOL0     C69185   2.207   6.383  -0.941  0.7145 -0.2980 -0.4870
  502MOL0     O69186   1.781   6.358  -0.933  0.0333 -0.5932  0.0581
  502MOL0     C69187   1.653   6.480  -0.730  0.3335  0.0632 -0.2414
  502MOL0     C69188   1.587   6.557  -0.633 -0.1386  0.0508 -0.1478
  502MOL0     N69189   1.173   6.498  -0.123  0.4722 -0.3417 -0.3097
  502MOL0     N69190   1.049   6.505  -0.074 -0.6071  0.0475  1.1772
  502MOL0     C69191   1.364   7.105   0.727  0.1813 -0.1263 -0.1075
  502MOL0     C69192   1.494   7.160   0.711  0.2615 -0.1843  0.1584
  502MOL0     C69193   1.903   7.204   0.870  0.6226 -0.1715 -0.1093
  502MOL0     C69194   1.989   7.168   0.763  0.3695 -0.0938 -0.5886
  502MOL0     C69195   2.128   7.186   0.778  0.5311 -0.2062  0.2929
  502MOL0     C69196   2.181   7.236   0.893 -0.6483 -0.1244 -0.2210
  502MOL0     O69197   2.313   7.268   0.902 -0.7729 -0.1718  0.3023
  502MOL0     C69198   2.344   7.400   0.853 -0.5661 -0.5959  0.0002
  502MOL0     C69199   2.487   7.415   0.801 -0.1812 -0.9183  0.7891
  502MOL0     C69200   2.518   7.567   0.765  0.0811 -0.1521  0.2167
  502MOL0     C69201   2.641   7.576   0.680 -0.3170 -0.2432 -0.6966
  502MOL0     C69202   2.751   7.525   0.763 -0.0914 -0.2905 -0.7077
  502MOL0     C69203   2.836   7.462   0.829 -0.1834  0.2486 -0.0331
  502MOL0     C69204   2.104   7.274   1.001  0.8627 -0.5611 -0.5726
  502MOL0     C69205   1.964   7.261   0.991  0.2535  0.1235  0.5961
  502MOL0     C69206   1.884   7.314   1.114 -0.4236 -0.7189  0.0280
  502MOL0     H69207   1.662   6.873   0.731 -0.5438 -0.4075 -0.9162
  502MOL0     H69208   1.439   6.779   0.766  0.4005  0.2964 -1.7689
  502MOL0     H69209   1.204   6.723   0.802 -1.1769 -0.1547 -0.2882
  502MOL0     H69210   1.227   6.765   0.640  2.1894  0.7188  1.3484
  502MOL0     H69211   1.004   6.802   0.854  3.0189 -2.5076  0.2285
  502MOL0     H69212   0.964   6.881   0.700 -1.9695  0.3947  0.6400
  502MOL0     H69213   0.998   6.592   0.742 -1.8829 -0.6882 -0.0302
  502MOL0     H69214   0.842   6.684   0.732 -0.0118  1.0995 -2.1871
  502MOL0     H69215   0.918   6.765   0.493 -0.9784 -0.1780  2.1777
  502MOL0     H69216   1.056   6.648   0.522 -0.1126 -2.0983  1.4945
  502MOL0     H69217   0.779   6.563   0.542  0.6010  0.4238  0.8849
  502MOL0     H69218   0.912   6.461   0.491 -1.0497 -0.1329 -1.3224
  502MOL0     H69219   0.766   6.520   0.302  2.6677 -1.4040 -1.9009
  502MOL0     H69220   0.787   6.687   0.327  2.6999  1.2060 -0.7364
  502MOL0     H69221   0.999   6.470   0.261 -0.3835  0.1865  3.1100
  502MOL0     H69222   1.049   6.636   0.286 -0.3272  1.8702 -0.1339
  502MOL0     H69223   0.838   6.568   0.073 -2.2970  3.6078  1.0309
  502MOL0     H69224   0.909   6.724   0.101 -3.0310 -0.1177 -0.6815
  502MOL0     H69225   1.200   6.704   0.135  2.7793  0.1585 -0.4826
  502MOL0     H69226   1.436   6.531  -0.099 -0.9497  0.4667 -3.8211
  502MOL0     H69227   1.443   6.673   0.019  0.4524 -0.5254  0.1845
  502MOL0     H69228   1.370   6.663  -0.274 -2.7455 -2.1632  2.7147
  502MOL0     H69229   1.328   6.799  -0.164 -2.2812 -1.6502 -0.6831
  502MOL0     H69230   1.528   6.852  -0.282  0.3494 -0.4995 -0.3920
  502MOL0     H69231   1.601   6.797  -0.129  0.0848  1.2285 -0.2838
  502MOL0     H69232   1.718   6.724  -0.293 -0.5281 -0.0378 -0.5235
  502MOL0     H69233   1.639   6.572  -0.240  0.1556 -0.2561 -0.1575
  502MOL0     H69234   1.838   6.579  -0.411  1.3478 -2.3487  1.6238
  502MOL0     H69235   2.035   6.506  -0.479 -0.1561  3.3075 -0.6425
  502MOL0     H69236   2.073   6.496  -0.653 -0.5646  0.6134 -0.5046
  502MOL0     H69237   2.012   6.354  -0.559  0.9688  0.5361  0.5862
  502MOL0     H69238   1.921   6.387  -1.138 -0.2232 -1.2335 -2.8148
  502MOL0     H69239   2.090   6.391  -1.317  0.0826 -0.9523  0.0160
  502MOL0     H69240   2.262   6.269  -1.437 -0.1298  2.5847  1.0904
  502MOL0     H69241   2.437   6.304  -1.458  0.8642 -2.4589 -0.4189
  502MOL0     H69242   2.325   6.099  -1.271 -0.5507 -0.3985 -0.2162
  502MOL0     H69243   2.434   6.078  -1.407 -1.8939  0.6423 -0.1259
  502MOL0     H69244   2.547   6.043  -1.207 -3.1603 -0.9006  1.3470
  502MOL0     H69245   2.505   6.203  -1.146 -1.2111 -0.7175 -0.5259
  502MOL0     H69246   2.615   6.318  -1.320 -3.4471  0.4583  1.0076
  502MOL0     H69247   2.661   6.156  -1.404 -2.4758 -2.0965  1.4122
  502MOL0     H69248   2.750   6.256  -1.131  1.3431 -3.2152  1.4547
  502MOL0     H69249   2.838   6.129  -1.228 -0.2319 -0.4759  1.4553
  502MOL0     H69250   2.827   6.432  -1.267  2.0271  1.1665 -1.5291
  502MOL0     H69251   2.879   6.310  -1.382 -0.7426 -1.1428 -0.1133
  502MOL0     H69252   3.047   6.216  -1.214  0.4559 -0.4017  2.8375
  502MOL0     H69253   2.989   6.323  -1.102  4.1899 -2.0121  0.9824
  502MOL0     H69254   3.205   6.404  -1.193  0.6418  1.8405 -0.6039
  502MOL0     H69255   3.079   6.521  -1.254 -0.2055  1.3407  2.9018
  502MOL0     H69256   2.405   6.416  -1.033  0.2182 -2.2108  0.5548
  502MOL0     H69257   2.247   6.383  -0.840  3.7859 -1.5320 -1.5526
  502MOL0     H69258   1.581   6.466  -0.811  2.0778  0.0723 -1.8626
  502MOL0     H69259   1.480   6.576  -0.641 -0.1675  1.6745  2.7582
  502MOL0     H69260   1.278   7.170   0.713 -0.8023 -0.8491  2.0626
  502MOL0     H69261   1.514   7.266   0.698 -1.0817 -0.2081 -2.8897
  502MOL0     H69262   1.959   7.127   0.667  0.6751 -0.7897 -0.3917
  502MOL0     H69263   2.201   7.162   0.701 -0.9230 -2.4241 -0.4795
  502MOL0     H69264   2.281   7.439   0.773 -1.0348  3.8007  2.1903
  502MOL0     H69265   2.323   7.470   0.935 -3.7924 -0.3481 -0.8909
  502MOL0     H69266   2.494   7.353   0.711  0.4620 -0.2263  0.3415
  502MOL0     H69267   2.550   7.361   0.871 -0.9076  0.1550  2.3182
  502MOL0     H69268   2.434   7.608   0.708 -1.2694 -2.0700  0.7054
  502MOL0     H69269   2.523   7.637   0.849  1.7430  1.4116 -1.1277
  502MOL0     H69270   2.655   7.679   0.644  1.6467 -0.4903 -0.7721
  502MOL0     H69271   2.625   7.519   0.589  1.7010 -1.0584 -0.6012
  502MOL0     H69272   2.899   7.406   0.894  0.9245  1.4882 -0.0059
  502MOL0     H69273   2.141   7.309   1.096 -1.4128  1.4873 -0.3332
  502MOL0     H69274   1.882   7.244   1.198 -2.7956  0.4370  1.0541
  502MOL0     H69275   1.941   7.402   1.147 -0.9645  0.4851 -2.0313
  502MOL0     H69276   1.781   7.341   1.088  0.0835  1.2318 -0.1207
  503MOL0     O69277   2.922  10.048  10.872 -0.0365  0.2489 -0.2116
  503MOL0     C69278   2.879  10.156  10.838 -0.0505 -0.7732  1.1341
  503MOL0     O69279   2.950  10.273  10.832 -0.8723  0.1693 -0.0772
  503MOL0     C69280   3.089  10.285  10.825 -0.1616 -0.2221  0.0152
  503MOL0     C69281   3.164  10.171  10.790  0.5729  0.9133 -0.1334
  503MOL0     C69282   3.308  10.181  10.770  0.6094  0.3667  0.4622
  503MOL0     C69283   3.374  10.307  10.803  0.5329 -0.6730  0.3417
  503MOL0     O69284   3.506  10.301  10.790 -0.2758  0.0015  0.8492
  503MOL0     C69285   3.567  10.419  10.738 -0.7049 -0.2858  0.3237
  503MOL0     C69286   3.698  10.380  10.665 -0.0737  0.1539 -0.3191
  503MOL0     C69287   3.789  10.278  10.750  0.7948  0.0480 -0.2541
  503MOL0     C69288   3.936  10.293  10.705 -0.4833  0.1041 -0.4353
  503MOL0     C69289   4.025  10.185  10.762 -0.3098 -0.9732 -0.2829
  503MOL0     C69290   4.045  10.182  10.908  0.1114  0.2620 -0.3083
  503MOL0     C69291   4.109  10.308  10.964  0.4408  0.1781  0.4231
  503MOL0     C69292   4.249  10.326  10.905 -0.3226 -0.4308  0.1296
  503MOL0     N69293   4.327  10.405  10.996 -0.3564 -0.5540 -1.0191
  503MOL0     C69294   4.432  10.353  11.067 -0.3830 -0.8752 -0.9308
  503MOL0     C69295   4.450  10.440  11.170 -0.4194 -0.2935 -0.3377
  503MOL0     C69296   4.550  10.435  11.288  0.2599  0.1139 -0.9847
  503MOL0     C69297   4.650  10.548  11.258 -0.3693  0.6702 -0.4303
  503MOL0     C69298   4.781  10.513  11.349  0.4488  0.7157  0.0314
  503MOL0     C69299   4.858  10.394  11.275 -0.9136 -0.2954 -0.5594
  503MOL0     O69300   4.988  10.391  11.343 -0.2291 -0.0045  0.5854
  503MOL0     C69301   5.096  10.437  11.263  0.5276  0.0466 -0.2559
  503MOL0     C69302   5.094  10.546  11.169  0.9706 -0.5047 -0.1228
  503MOL0     C69303   5.208  10.579  11.093  0.8447  0.8924 -0.5733
  503MOL0     C69304   5.190  10.687  10.992 -0.9477 -0.3114  1.0747
  503MOL0     C69305   5.328  10.508  11.117  0.5044 -0.4594  0.0764
  503MOL0     C69306   5.462  10.540  11.058  1.0012  0.4552 -0.0113
  503MOL0     O69307   5.562  10.456  11.090 -0.4908  0.7143  0.5587
  503MOL0     C69308   5.685  10.472  11.024  0.7671  0.3097 -0.4661
  503MOL0     C69309   5.697  10.507  10.885 -0.0246  0.6668 -0.5721
  503MOL0     C69310   5.819  10.499  10.820  0.6612  1.0730 -0.8950
  503MOL0     C69311   5.939  10.459  10.896  0.7677 -0.2618 -0.2113
  503MOL0     O69312   6.051  10.454  10.819 -0.6594  0.0455  0.1468
  503MOL0     C69313   6.182  10.461  10.885 -0.3627  0.0018  0.5603
  503MOL0     C69314   6.243  10.320  10.908 -0.2665  0.2138  0.4293
  503MOL0     C69315   6.302  10.272  10.780 -0.2736 -0.4045  0.2366
  503MOL0     C69316   6.404  10.157  10.809  0.1451  0.1177 -0.2750
  503MOL0     C69317   6.438  10.088  10.679 -0.0392  0.0403 -0.3473
  503MOL0     C69318   6.528  10.165  10.586  0.3326  0.3636 -0.2007
  503MOL0     C69319   6.604  10.083  10.480 -0.0448 -0.7816  1.0830
  503MOL0     C69320   6.699  10.176  10.411  0.1431 -0.5937  1.2731
  503MOL0    Cl69321   6.851  10.231  10.513  0.2898  0.2971  0.4706
  503MOL0     C69322   5.925  10.417  11.029 -0.0497  0.2818  0.7206
  503MOL0     C69323   5.794  10.424  11.092  0.6069 -0.2534 -0.9638
  503MOL0     O69324   5.475  10.645  10.996 -0.2939  0.3492  0.0855
  503MOL0     C69325   5.327  10.396  11.203  0.5525  0.4992 -0.0502
  503MOL0     C69326   5.214  10.368  11.285  0.1237  0.7265  0.7195
  503MOL0     N69327   4.366  10.555  11.148  0.2177  0.3351  0.1787
  503MOL0     N69328   4.302  10.533  11.038  0.2693  0.7503 -0.4879
  503MOL0     C69329   3.291  10.427  10.821 -1.1672 -0.1604 -0.9594
  503MOL0     C69330   3.148  10.413  10.838  1.1199  1.0141  0.0666
  503MOL0     C69331   2.734  10.167  10.798  0.3681  0.2221  0.2617
  503MOL0     C69332   2.679  10.048  10.734 -0.7864 -0.3888  0.4153
  503MOL0     C69333   2.549  10.039  10.698  0.7014  0.2006 -0.5852
  503MOL0     C69334   2.459  10.144  10.728  0.0119  0.5597  0.0531
  503MOL0     O69335   2.321  10.139  10.692 -0.2956 -0.1245 -0.5636
  503MOL0     C69336   2.268  10.015  10.641 -0.3109 -0.4869 -0.1234
  503MOL0     C69337   2.117  10.039  10.627  0.6395 -0.3192  0.1630
  503MOL0     C69338   2.044   9.916  10.575 -0.4793  0.3944 -0.0454
  503MOL0     C69339   1.886   9.950  10.574  0.2762  0.0152  0.1572
  503MOL0     C69340   1.803   9.840  10.520 -0.3982  0.7789  0.4531
  503MOL0     C69341   1.750   9.742  10.479  0.2703 -0.2641 -0.4046
  503MOL0     C69342   2.506  10.259  10.797 -0.0752  0.7194  0.3730
  503MOL0     C69343   2.641  10.276  10.825 -0.0173 -0.2767 -0.3636
  503MOL0     C69344   2.683  10.406  10.887 -0.4705  0.5718  1.4658
  503MOL0     H69345   3.129  10.068  10.785 -0.3652  1.1430  1.2722
  503MOL0     H69346   3.380  10.103  10.748  1.5307  1.4998 -0.6466
  503MOL0     H69347   3.584  10.489  10.820  0.8700  1.2023 -1.1782
  503MOL0     H69348   3.503  10.471  10.667  0.3777 -0.1974 -0.6209
  503MOL0     H69349   3.678  10.331  10.570 -4.3530  2.2932 -0.8055
  503MOL0     H69350   3.754  10.470  10.641 -0.2022  1.3001  3.0883
  503MOL0     H69351   3.782  10.293  10.858  0.2461 -0.2349 -0.2492
  503MOL0     H69352   3.757  10.178  10.721 -0.1810  1.1229 -3.1769
  503MOL0     H69353   3.946  10.261  10.601  0.2971  0.6571 -0.5400
  503MOL0     H69354   3.975  10.395  10.709  0.5041 -0.1960 -1.7381
  503MOL0     H69355   4.120  10.204  10.711 -0.1304 -1.8105 -0.2906
  503MOL0     H69356   3.994  10.087  10.724 -0.5309 -0.7570 -0.6674
  503MOL0     H69357   3.949  10.174  10.959  0.5230 -0.0863  0.4441
  503MOL0     H69358   4.102  10.095  10.942 -0.5159 -0.3270 -0.7428
  503MOL0     H69359   4.117  10.304  11.073  3.7096 -2.0383  0.2628
  503MOL0     H69360   4.047  10.395  10.942 -0.7195 -1.3409 -3.0552
  503MOL0     H69361   4.297  10.228  10.914  1.7877  0.6733  1.6395
  503MOL0     H69362   4.252  10.370  10.805 -0.6537 -2.4254 -0.8128
  503MOL0     H69363   4.481  10.260  11.042  2.3518  0.6215 -1.5570
  503MOL0     H69364   4.608  10.343  11.301  0.9846  0.5621 -0.9811
  503MOL0     H69365   4.493  10.448  11.381  1.2042  1.1079 -0.5201
  503MOL0     H69366   4.657  10.558  11.149  0.1355 -1.7754 -0.6957
  503MOL0     H69367   4.610  10.641  11.297 -0.1992  1.6842 -2.5282
  503MOL0     H69368   4.848  10.598  11.357  1.6608 -0.2621  0.4883
  503MOL0     H69369   4.756  10.483  11.451  2.4253  0.9063  0.6049
  503MOL0     H69370   4.803  10.299  11.277 -0.3373 -0.6271  0.7603
  503MOL0     H69371   4.871  10.421  11.170 -0.7400 -2.0038 -1.0179
  503MOL0     H69372   5.002  10.602  11.159  0.8464 -0.6586  0.1649
  503MOL0     H69373   5.247  10.649  10.907 -0.5981  2.1425  0.1411
  503MOL0     H69374   5.233  10.782  11.023 -0.9326 -0.6135  2.0018
  503MOL0     H69375   5.084  10.700  10.968 -0.7630 -0.6416 -0.0035
  503MOL0     H69376   5.608  10.523  10.826 -0.9868 -0.0273  0.6372
  503MOL0     H69377   5.828  10.530  10.717  0.2080 -1.0669 -1.6155
  503MOL0     H69378   6.255  10.517  10.825 -0.6010  0.2481  0.4977
  503MOL0     H69379   6.179  10.518  10.977  1.1875  1.9562 -0.5226
  503MOL0     H69380   6.317  10.354  10.980  0.1405  2.4122 -0.9351
  503MOL0     H69381   6.162  10.254  10.941  0.2445  0.3336  2.0321
  503MOL0     H69382   6.355  10.347  10.720  1.0539 -0.6368  1.0891
  503MOL0     H69383   6.218  10.229  10.725 -0.2996 -2.6884  1.9413
  503MOL0     H69384   6.364  10.080  10.875  1.1167 -0.4194 -0.2833
  503MOL0     H69385   6.500  10.196  10.844  1.2877 -0.7635 -2.2405
  503MOL0     H69386   6.503  10.004  10.706  1.5692  1.6477  0.9725
  503MOL0     H69387   6.349  10.051  10.627 -0.4467 -1.8887  1.5823
  503MOL0     H69388   6.599  10.209  10.655  1.2676  0.0561 -0.9441
  503MOL0     H69389   6.466  10.240  10.536 -2.9691 -1.3722  0.9301
  503MOL0     H69390   6.546  10.032  10.403  0.6707 -2.3136  1.5241
  503MOL0     H69391   6.673  10.013  10.526  2.8316  1.9539  1.2878
  503MOL0     H69392   6.656  10.265  10.363 -0.2865 -1.7421 -0.5727
  503MOL0     H69393   6.735  10.122  10.323 -0.8027  1.1894 -0.2754
  503MOL0     H69394   6.009  10.369  11.077 -0.8993 -2.0708  0.0173
  503MOL0     H69395   5.789  10.398  11.197 -1.0234  0.6782 -0.7694
  503MOL0     H69396   5.417  10.336  11.215 -0.4846 -0.4616  4.5827
  503MOL0     H69397   5.222  10.300  11.369  4.6800  1.0569  0.7951
  503MOL0     H69398   3.344  10.519  10.841 -0.3528 -0.2542 -2.5014
  503MOL0     H69399   3.092  10.501  10.868 -0.4338  0.3478 -0.7523
  503MOL0     H69400   2.744   9.964  10.710  2.1221  1.9004 -0.3171
  503MOL0     H69401   2.525   9.948  10.642  0.6563  0.1293 -0.4489
  503MOL0     H69402   2.307  10.003  10.539 -1.8271 -1.5165 -0.6123
  503MOL0     H69403   2.284   9.936  10.715 -0.4209  1.6208  2.2972
  503MOL0     H69404   2.104  10.115  10.549  2.5475  0.9214  0.9987
  503MOL0     H69405   2.074  10.070  10.722 -1.0511 -1.7366 -0.0841
  503MOL0     H69406   2.066   9.900  10.469 -2.2070 -2.8731 -0.0612
  503MOL0     H69407   2.077   9.829  10.632  1.3700  0.9467 -0.2127
  503MOL0     H69408   1.870  10.042  10.517  3.1074  1.1074  0.9782
  503MOL0     H69409   1.846   9.972  10.674 -3.4902 -2.6951 -0.5243
  503MOL0     H69410   1.702   9.665  10.421 -0.8167  0.5519 -0.6130
  503MOL0     H69411   2.437  10.341  10.816 -0.6806  0.5776 -1.0846
  503MOL0     H69412   2.622  10.460  10.960  0.7901  1.1812  2.1171
  503MOL0     H69413   2.785  10.394  10.925  0.4678 -3.5821 -1.6190
  503MOL0     H69414   2.695  10.474  10.802 -0.1632 -0.9936  0.2099
  504MOL0     O69415   3.211   6.352   0.414  0.0850  0.5233 -0.2678
  504MOL0     C69416   3.287   6.287   0.347  0.5082 -0.1308 -0.1576
  504MOL0     O69417   3.394   6.219   0.391 -0.8134  0.6405 -0.0662
  504MOL0     C69418   3.473   6.252   0.501  0.3743 -0.1279  0.0635
  504MOL0     C69419   3.454   6.368   0.581 -0.5952  0.8530 -0.0640
  504MOL0     C69420   3.554   6.394   0.677  0.5553  0.6623 -0.1902
  504MOL0     C69421   3.661   6.312   0.703  0.5453 -0.0860 -1.1181
  504MOL0     O69422   3.745   6.344   0.802  0.2551  0.5069  0.3362
  504MOL0     C69423   3.854   6.257   0.832  0.5414 -0.7117 -0.2251
  504MOL0     C69424   3.938   6.312   0.945  0.0471 -0.3125 -0.7924
  504MOL0     C69425   4.040   6.205   0.997 -0.9814  0.0273  0.3757
  504MOL0     C69426   4.089   6.219   1.142  0.4664  0.1046  0.3101
  504MOL0     C69427   4.241   6.193   1.167 -0.1192 -0.3296  0.3274
  504MOL0     C69428   4.278   6.220   1.310  0.2001 -0.1884 -0.1507
  504MOL0     C69429   4.427   6.203   1.326 -0.5521 -0.1849  0.0367
  504MOL0     C69430   4.466   6.230   1.477 -1.1224 -0.2501 -0.2299
  504MOL0     N69431   4.611   6.281   1.479  0.0656 -0.1554  0.1217
  504MOL0     C69432   4.731   6.209   1.437 -0.4675  0.5618  0.4211
  504MOL0     C69433   4.828   6.299   1.463  0.6180 -0.9215  0.9604
  504MOL0     C69434   4.970   6.277   1.410 -0.6137  0.2366  0.2336
  504MOL0     C69435   4.994   6.338   1.262  0.4220  0.6307 -0.3228
  504MOL0     C69436   5.021   6.482   1.268  0.3001  0.5432 -0.5167
  504MOL0     C69437   5.072   6.523   1.122  0.0006 -0.4469  0.6296
  504MOL0     O69438   5.216   6.501   1.091  0.5732 -0.5411 -1.2485
  504MOL0     C69439   5.310   6.592   1.139  0.6013 -0.5699  0.0832
  504MOL0     C69440   5.433   6.553   1.179  0.0893 -0.1740  0.6115
  504MOL0     C69441   5.522   6.647   1.240  0.0712 -0.5301  0.0827
  504MOL0     C69442   5.647   6.583   1.290 -0.5040 -0.1766 -0.4220
  504MOL0     C69443   5.489   6.794   1.246  0.1982  0.8144  0.1303
  504MOL0     C69444   5.576   6.900   1.286 -0.7478  0.1335 -0.3080
  504MOL0     O69445   5.535   7.033   1.262 -0.2521  0.4662 -0.1732
  504MOL0     C69446   5.645   7.118   1.253 -0.0629  0.3433  0.0729
  504MOL0     C69447   5.759   7.094   1.172  0.2466  0.0026 -0.3752
  504MOL0     C69448   5.870   7.188   1.177 -0.7655  0.2729  0.2780
  504MOL0     C69449   5.862   7.297   1.258 -0.3500 -0.2159 -0.4400
  504MOL0     O69450   5.977   7.386   1.282  0.3642 -0.1453  0.9914
  504MOL0     C69451   6.109   7.341   1.274 -1.3325 -0.8637 -0.7161
  504MOL0     C69452   6.207   7.460   1.289 -0.1376  0.5444  0.8284
  504MOL0     C69453   6.353   7.423   1.274  0.0785  0.0193 -0.7969
  504MOL0     C69454   6.394   7.343   1.396 -0.7155 -0.0739 -0.8053
  504MOL0     C69455   6.534   7.293   1.391 -0.6437  1.1539  0.0577
  504MOL0     C69456   6.636   7.402   1.388 -0.3281  0.5309  0.5124
  504MOL0     C69457   6.776   7.336   1.387 -0.3273 -0.1347 -0.1789
  504MOL0     C69458   6.814   7.275   1.521  0.9260 -0.0402 -0.1725
  504MOL0    Cl69459   6.773   7.383   1.667  0.0384 -0.2632 -0.3620
  504MOL0     C69460   5.752   7.324   1.331 -0.2839 -0.4970 -0.3388
  504MOL0     C69461   5.642   7.240   1.324 -0.5481 -0.3226  0.5169
  504MOL0     O69462   5.688   6.869   1.330  0.1807  0.1225  1.1908
  504MOL0     C69463   5.360   6.826   1.202  0.4936 -0.2943 -0.0128
  504MOL0     C69464   5.275   6.729   1.151  0.0906 -0.9973  0.1364
  504MOL0     N69465   4.781   6.420   1.504 -0.1577  0.7518 -0.2962
  504MOL0     N69466   4.650   6.409   1.525  0.1972  0.6880  0.3967
  504MOL0     C69467   3.683   6.204   0.616  0.1288  0.2599  0.0438
  504MOL0     C69468   3.587   6.177   0.507  0.2469 -0.4680 -0.3363
  504MOL0     C69469   3.240   6.262   0.211 -0.0114 -0.1201  0.5332
  504MOL0     C69470   3.273   6.140   0.146  0.2151  0.2026 -0.0991
  504MOL0     C69471   3.229   6.104   0.026 -1.0092  0.2174  0.1351
  504MOL0     C69472   3.147   6.199  -0.047 -0.0330 -0.4957  0.0385
  504MOL0     O69473   3.084   6.178  -0.172  0.6460 -0.6954  0.4026
  504MOL0     C69474   3.093   6.045  -0.235 -0.2299 -0.7335 -0.4127
  504MOL0     C69475   2.968   6.015  -0.326  0.5096 -0.2012 -0.4998
  504MOL0     C69476   2.846   6.052  -0.237 -0.2149  0.3595  0.0112
  504MOL0     C69477   2.733   6.067  -0.343  0.0502 -0.5244 -0.7755
  504MOL0     C69478   2.671   5.941  -0.388 -0.2929 -0.0518  0.7739
  504MOL0     C69479   2.631   5.836  -0.431 -0.3348 -0.5294 -0.0793
  504MOL0     C69480   3.123   6.327   0.007 -0.1003  0.9696  0.2041
  504MOL0     C69481   3.157   6.364   0.142 -0.3543  0.2491 -0.3178
  504MOL0     C69482   3.138   6.514   0.186  0.2131  0.5118 -0.1890
  504MOL0     H69483   3.369   6.435   0.570 -0.6750  0.7877  0.1509
  504MOL0     H69484   3.541   6.478   0.745 -0.7342 -0.6905  1.3147
  504MOL0     H69485   3.912   6.237   0.741 -2.1316 -2.1719 -1.7362
  504MOL0     H69486   3.803   6.166   0.864 -2.2871 -0.0622 -2.4265
  504MOL0     H69487   3.998   6.399   0.916  1.0809 -1.0444 -0.8952
  504MOL0     H69488   3.874   6.335   1.030 -0.4461 -2.4862 -0.5340
  504MOL0     H69489   4.001   6.103   0.990 -0.5399 -0.0866 -0.4963
  504MOL0     H69490   4.120   6.210   0.923 -0.0087  2.4052  1.4954
  504MOL0     H69491   4.078   6.325   1.168  3.1779  1.3457 -2.9245
  504MOL0     H69492   4.035   6.153   1.211  1.3303  0.7658  1.6492
  504MOL0     H69493   4.314   6.261   1.121 -0.6819  1.2192  1.6043
  504MOL0     H69494   4.272   6.092   1.140  0.4813  0.1423 -0.8130
  504MOL0     H69495   4.260   6.326   1.330  2.2007  0.4533 -1.3414
  504MOL0     H69496   4.224   6.164   1.386  0.5018  1.2869  1.1970
  504MOL0     H69497   4.486   6.266   1.258 -2.8961  2.0805 -0.0337
  504MOL0     H69498   4.444   6.099   1.297 -0.7469 -0.2991  0.3274
  504MOL0     H69499   4.407   6.315   1.511  0.4676  0.5825  0.5888
  504MOL0     H69500   4.454   6.145   1.546  0.3139  1.6128  2.5271
  504MOL0     H69501   4.754   6.108   1.407 -1.7334 -0.0525  1.4346
  504MOL0     H69502   4.992   6.169   1.409  2.6354  0.7410  2.0247
  504MOL0     H69503   5.035   6.328   1.482 -0.3743 -0.5424  0.5804
  504MOL0     H69504   5.074   6.279   1.214 -0.6259 -0.9183 -0.2116
  504MOL0     H69505   4.899   6.321   1.211  1.2313 -1.2502 -1.3160
  504MOL0     H69506   4.925   6.534   1.279 -1.1072 -2.1551  0.8687
  504MOL0     H69507   5.098   6.511   1.340 -1.0881  1.9139  0.4887
  504MOL0     H69508   5.006   6.462   1.059 -1.0092 -0.8650  2.0299
  504MOL0     H69509   5.046   6.628   1.108  1.9823 -0.2018 -2.0369
  504MOL0     H69510   5.472   6.454   1.159  0.4218  0.2407 -0.9267
  504MOL0     H69511   5.668   6.609   1.394 -0.0727 -0.0527 -0.5346
  504MOL0     H69512   5.724   6.625   1.224 -1.3744  2.4788  0.1574
  504MOL0     H69513   5.651   6.474   1.288 -0.4115 -0.2660  2.0176
  504MOL0     H69514   5.770   7.006   1.110 -0.8959 -0.1680 -0.3609
  504MOL0     H69515   5.966   7.182   1.127 -1.2452  2.4837 -1.0511
  504MOL0     H69516   6.137   7.271   1.354 -2.8695 -0.2418  0.4065
  504MOL0     H69517   6.133   7.293   1.179 -0.8050 -0.5418 -0.7544
  504MOL0     H69518   6.178   7.524   1.205 -2.4351 -0.6135  0.6385
  504MOL0     H69519   6.194   7.513   1.383 -0.0291  2.2695 -0.0813
  504MOL0     H69520   6.414   7.513   1.266 -0.7684  0.9125  1.8861
  504MOL0     H69521   6.367   7.369   1.179 -0.3939 -2.3191  0.3797
  504MOL0     H69522   6.324   7.262   1.415  0.7976 -1.2531 -0.0423
  504MOL0     H69523   6.380   7.401   1.488 -0.3458 -1.1038 -0.0903
  504MOL0     H69524   6.545   7.230   1.480  2.8159  2.1841  0.4864
  504MOL0     H69525   6.542   7.227   1.304 -0.0966  1.7911 -0.3776
  504MOL0     H69526   6.613   7.480   1.461 -2.0406  2.8998 -2.3487
  504MOL0     H69527   6.630   7.446   1.289 -0.7500 -0.9935 -0.1796
  504MOL0     H69528   6.849   7.415   1.367 -0.0242 -0.0653  1.1137
  504MOL0     H69529   6.790   7.258   1.311  3.0003  0.1922 -0.0694
  504MOL0     H69530   6.921   7.252   1.522  1.1581  0.9435  1.5825
  504MOL0     H69531   6.762   7.179   1.527 -2.7138  1.6411 -1.7447
  504MOL0     H69532   5.742   7.411   1.395  2.1852 -0.6167  0.3160
  504MOL0     H69533   5.554   7.256   1.386 -0.3609 -0.5314  0.8429
  504MOL0     H69534   5.323   6.928   1.193 -0.4188 -0.6594 -0.5714
  504MOL0     H69535   5.177   6.765   1.121 -1.0577 -3.6417  0.4793
  504MOL0     H69536   3.776   6.150   0.608 -0.0324  0.1717 -1.7386
  504MOL0     H69537   3.601   6.102   0.430 -1.5144 -3.4669  2.0402
  504MOL0     H69538   3.340   6.071   0.197 -2.4542 -0.6822  2.5332
  504MOL0     H69539   3.263   6.012  -0.020 -1.2632 -0.1033  0.5863
  504MOL0     H69540   3.189   6.028  -0.284  0.8570 -0.5972  1.5940
  504MOL0     H69541   3.082   5.973  -0.154  0.2096  0.0392  0.3488
  504MOL0     H69542   2.961   5.910  -0.355 -2.2591  0.3490 -2.2773
  504MOL0     H69543   2.987   6.082  -0.410  0.0009 -0.5263 -0.8806
  504MOL0     H69544   2.834   5.972  -0.164 -2.1910  0.1886 -0.4310
  504MOL0     H69545   2.854   6.151  -0.192 -0.3837  0.6343 -0.5432
  504MOL0     H69546   2.761   6.118  -0.435 -1.1027  0.1479 -0.7686
  504MOL0     H69547   2.652   6.121  -0.292 -0.8159 -2.9570  0.5834
  504MOL0     H69548   2.591   5.742  -0.464  2.1941 -0.3835 -4.1819
  504MOL0     H69549   3.056   6.387  -0.053 -0.6756 -1.1559 -1.4014
  504MOL0     H69550   3.178   6.579   0.107 -1.5767  0.2407 -1.3819
  504MOL0     H69551   3.031   6.535   0.199  0.1015 -0.6484  0.8813
  504MOL0     H69552   3.192   6.542   0.277  0.6531 -0.9092  0.0021
  505MOL0     O69553   9.067   2.574  10.160 -0.3625  0.1971 -0.3533
  505MOL0     C69554   9.063   2.455  10.155 -0.9237  0.1244 -0.1173
  505MOL0     O69555   9.173   2.375  10.123  0.1579  0.3369  0.1677
  505MOL0     C69556   9.298   2.425  10.091 -0.8472  0.5839 -0.2409
  505MOL0     C69557   9.355   2.395   9.968  0.0359 -0.2506  0.2406
  505MOL0     C69558   9.489   2.438   9.932  0.4068 -0.1390 -0.0697
  505MOL0     C69559   9.569   2.498  10.033  0.2501  0.1828  0.4042
  505MOL0     O69560   9.695   2.540  10.014 -0.3017 -0.4159  0.7103
  505MOL0     C69561   9.747   2.520   9.882 -0.6877  0.5989  0.0942
  505MOL0     C69562   9.888   2.572   9.872  0.7030 -0.1092 -0.2685
  505MOL0     C69563   9.978   2.496   9.972 -0.4686 -1.0395 -0.1090
  505MOL0     C69564  10.121   2.502   9.909 -0.2043 -0.1981 -0.0521
  505MOL0     C69565  10.229   2.430   9.995 -0.3506  0.6196 -0.4440
  505MOL0     C69566  10.207   2.275   9.997  0.5150 -0.8604  0.3018
  505MOL0     C69567  10.312   2.199  10.078 -0.0655 -0.1995  0.0013
  505MOL0     C69568  10.443   2.193   9.994 -0.6140 -0.2915 -0.1566
  505MOL0     N69569  10.548   2.115  10.059 -1.4270  0.0423 -0.2110
  505MOL0     C69570  10.653   2.050   9.988 -0.3976 -0.1977  0.0847
  505MOL0     C69571  10.748   2.013  10.081  0.1997 -0.3768 -0.5943
  505MOL0     C69572  10.887   1.956  10.064 -0.9750  0.4127 -0.2043
  505MOL0     C69573  10.997   2.054  10.062 -0.0871  0.5225  0.3424
  505MOL0     C69574  11.140   1.997  10.089 -0.1457  0.8275 -0.9036
  505MOL0     C69575  11.170   1.878  10.005  0.2422 -0.3095  0.7314
  505MOL0     O69576  11.312   1.840  10.007 -0.0455 -0.3633  0.3211
  505MOL0     C69577  11.357   1.749   9.916 -1.0537 -0.4550 -0.1046
  505MOL0     C69578  11.492   1.731   9.904 -0.2263  0.2517 -0.6041
  505MOL0     C69579  11.542   1.628   9.826  0.5579 -0.1948 -0.0117
  505MOL0     C69580  11.691   1.633   9.826  0.3583  0.1035  0.2724
  505MOL0     C69581  11.456   1.539   9.761 -0.8898 -0.6269 -0.1107
  505MOL0     C69582  11.504   1.430   9.680  0.0260  0.6574  1.3029
  505MOL0     O69583  11.416   1.343   9.634  0.5695  0.0415  0.4487
  505MOL0     C69584  11.449   1.230   9.561 -0.5339  0.5514 -1.3469
  505MOL0     C69585  11.573   1.158   9.574  1.0641 -0.4783  0.4276
  505MOL0     C69586  11.586   1.038   9.487 -0.6985 -0.4970 -1.2048
  505MOL0     C69587  11.484   0.988   9.408  0.1294 -0.1680  0.2413
  505MOL0     O69588  11.515   0.874   9.335  0.9998 -0.6388  0.7239
  505MOL0     C69589  11.396   0.788   9.296 -0.4825  0.1176  0.0279
  505MOL0     C69590  11.430   0.636   9.344 -0.0205  0.4340  0.4706
  505MOL0     C69591  11.509   0.553   9.247  0.8346 -0.5543 -0.0770
  505MOL0     C69592  11.571   0.426   9.306  0.3047 -0.2812 -0.0420
  505MOL0     C69593  11.642   0.343   9.201 -0.3515 -0.9331 -0.2450
  505MOL0     C69594  11.662   0.199   9.239 -0.5410  0.2001 -0.4455
  505MOL0     C69595  11.703   0.113   9.129 -0.2387 -0.4277  0.2350
  505MOL0     C69596  11.691  -0.037   9.138 -0.2137  0.1764  0.2102
  505MOL0    Cl69597  11.773  -0.104   8.981 -0.1491 -0.0163  0.3867
  505MOL0     C69598  11.371   1.070   9.390  0.3313 -0.5114 -0.1817
  505MOL0     C69599  11.356   1.184   9.475 -0.4161 -0.2640  0.7448
  505MOL0     O69600  11.627   1.413   9.666  0.0998  0.0221  1.0035
  505MOL0     C69601  11.320   1.553   9.781  1.2938  0.3628 -0.4237
  505MOL0     C69602  11.268   1.661   9.847  0.3374 -0.3654 -0.5254
  505MOL0     N69603  10.709   2.059  10.207  0.0853 -0.3375  0.7645
  505MOL0     N69604  10.584   2.112  10.190 -0.1774  0.0698  0.2329
  505MOL0     C69605   9.501   2.531  10.154  0.1317 -0.3840  0.6289
  505MOL0     C69606   9.369   2.507  10.184 -0.4561 -0.7300 -0.1016
  505MOL0     C69607   8.938   2.385  10.162 -0.2009 -0.1881 -0.5117
  505MOL0     C69608   8.939   2.243  10.143 -0.5265 -0.3316 -0.0146
  505MOL0     C69609   8.822   2.167  10.135  0.6138 -0.2578  0.7201
  505MOL0     C69610   8.699   2.233  10.145  0.6368  0.5068 -0.7364
  505MOL0     O69611   8.580   2.158  10.131 -0.2002  0.2293  0.1111
  505MOL0     C69612   8.479   2.181  10.232  0.0532  0.0660 -0.0185
  505MOL0     C69613   8.379   2.071  10.227  0.2975  0.3687 -0.2480
  505MOL0     C69614   8.437   1.940  10.286  0.2581 -0.1985  0.9993
  505MOL0     C69615   8.317   1.842  10.307 -0.1612  0.5932 -0.0423
  505MOL0     C69616   8.350   1.717  10.374 -0.7307 -0.0524  0.2644
  505MOL0     C69617   8.385   1.619  10.429 -0.3981  0.8561 -0.1538
  505MOL0     C69618   8.689   2.370  10.167  0.0880 -0.5912  0.0347
  505MOL0     C69619   8.812   2.447  10.176  0.3468 -0.8164 -1.1248
  505MOL0     C69620   8.790   2.599  10.180 -0.5590  1.0012  0.6472
  505MOL0     H69621   9.294   2.327   9.910 -1.0897  0.9244 -0.0102
  505MOL0     H69622   9.535   2.417   9.836  4.0513  1.1631  1.1989
  505MOL0     H69623   9.689   2.571   9.805  2.0025  0.9657 -1.8176
  505MOL0     H69624   9.754   2.413   9.863 -0.9034  0.4197  0.9531
  505MOL0     H69625   9.933   2.573   9.773 -0.4864  2.2038 -0.8632
  505MOL0     H69626   9.884   2.677   9.901  0.9616  0.7642 -3.1270
  505MOL0     H69627   9.968   2.556  10.063 -0.5755 -0.4380 -0.5084
  505MOL0     H69628   9.941   2.394   9.988 -1.4034 -0.4682  1.6678
  505MOL0     H69629  10.117   2.452   9.812  1.4985 -0.6886  0.0922
  505MOL0     H69630  10.144   2.607   9.891 -1.7583  0.1720  0.0057
  505MOL0     H69631  10.210   2.478  10.091  0.8796  2.2410 -0.9723
  505MOL0     H69632  10.333   2.446   9.965  1.4585 -0.2834  4.3606
  505MOL0     H69633  10.117   2.244  10.050 -0.6117  2.0380  0.2549
  505MOL0     H69634  10.218   2.228   9.899  0.5004  0.3833 -0.3135
  505MOL0     H69635  10.283   2.095  10.095  0.0102 -0.3662 -0.8338
  505MOL0     H69636  10.322   2.241  10.178 -1.4829 -0.9117  0.4686
  505MOL0     H69637  10.418   2.148   9.897  2.2980 -1.0432 -0.6588
  505MOL0     H69638  10.484   2.294   9.989 -0.2311 -0.3786  0.9308
  505MOL0     H69639  10.646   2.041   9.880  2.8189  1.4562 -0.4064
  505MOL0     H69640  10.881   1.897   9.971  1.4901  2.1126 -1.5608
  505MOL0     H69641  10.911   1.891  10.148  0.0082  0.6266 -0.3036
  505MOL0     H69642  10.996   2.108   9.967  0.0716  0.8147  0.5064
  505MOL0     H69643  10.967   2.125  10.139 -1.2535  1.4194 -0.8820
  505MOL0     H69644  11.219   2.068  10.063  0.8191 -0.7375 -2.4163
  505MOL0     H69645  11.146   1.961  10.192 -0.8496  2.6970 -0.1570
  505MOL0     H69646  11.105   1.800  10.047 -0.4295  0.6052  1.4386
  505MOL0     H69647  11.134   1.892   9.902 -0.7455  1.8693  1.3174
  505MOL0     H69648  11.564   1.786   9.964 -1.4076  3.2199 -1.7555
  505MOL0     H69649  11.727   1.639   9.723 -2.2595 -0.3940 -0.7662
  505MOL0     H69650  11.737   1.542   9.867 -1.2306 -0.7564  0.2196
  505MOL0     H69651  11.733   1.708   9.893  1.4655 -1.2757  1.1820
  505MOL0     H69652  11.649   1.189   9.645 -0.4041  1.8111  1.1096
  505MOL0     H69653  11.674   0.977   9.504  0.0995  1.1347  0.9375
  505MOL0     H69654  11.301   0.823   9.337 -0.0174  0.4362  0.8462
  505MOL0     H69655  11.384   0.782   9.187 -0.9175  3.5564 -0.2151
  505MOL0     H69656  11.478   0.645   9.441  1.8919  1.2892 -0.4939
  505MOL0     H69657  11.332   0.587   9.350  0.4221 -0.2931  2.4458
  505MOL0     H69658  11.589   0.614   9.204  1.3636  0.1677  1.8007
  505MOL0     H69659  11.431   0.532   9.174 -1.0966 -0.6842  1.9180
  505MOL0     H69660  11.488   0.365   9.342 -1.4118  1.1801 -1.3214
  505MOL0     H69661  11.633   0.448   9.393 -0.0637 -0.4521  0.2695
  505MOL0     H69662  11.573   0.351   9.116 -1.4560  0.7182  0.7578
  505MOL0     H69663  11.740   0.387   9.186 -1.3707  1.8627  0.7721
  505MOL0     H69664  11.578   0.138   9.275 -0.2746  0.3850  0.5095
  505MOL0     H69665  11.737   0.186   9.318  0.1840 -0.5568 -1.2359
  505MOL0     H69666  11.807   0.141   9.108 -0.9190  2.5471  0.2861
  505MOL0     H69667  11.645   0.138   9.040 -2.7672  0.0508  1.8976
  505MOL0     H69668  11.585  -0.064   9.151 -0.6438  1.4136 -0.5731
  505MOL0     H69669  11.740  -0.068   9.230 -1.7838 -0.9869  0.7160
  505MOL0     H69670  11.295   1.043   9.318  0.4580  1.0500 -0.9471
  505MOL0     H69671  11.267   1.245   9.467 -1.9678 -2.3821  0.8636
  505MOL0     H69672  11.247   1.491   9.730  0.4338  1.1309 -0.1638
  505MOL0     H69673  11.162   1.680   9.852  0.6426  1.4110 -0.1075
  505MOL0     H69674   9.567   2.582  10.223  2.6815  1.9246 -3.1096
  505MOL0     H69675   9.327   2.520  10.283 -1.8278  1.1465 -0.8607
  505MOL0     H69676   9.025   2.184  10.113  0.6588  0.5809  1.4125
  505MOL0     H69677   8.828   2.059  10.120  0.5663 -0.2399  0.5777
  505MOL0     H69678   8.522   2.204  10.330  1.2935  2.7683 -1.0918
  505MOL0     H69679   8.426   2.275  10.212 -1.1675  0.2847  3.6410
  505MOL0     H69680   8.331   2.049  10.131 -0.1902  0.2057  0.0263
  505MOL0     H69681   8.293   2.102  10.287  0.7776  1.0018  0.1262
  505MOL0     H69682   8.514   1.907  10.217 -0.3188  3.0076 -1.4473
  505MOL0     H69683   8.483   1.955  10.384  2.4499 -3.0770  0.5413
  505MOL0     H69684   8.255   1.827  10.219 -1.7288 -1.8998  1.3753
  505MOL0     H69685   8.261   1.893  10.386  1.3924  0.6757  1.0561
  505MOL0     H69686   8.418   1.536  10.489 -1.5383 -0.6994 -1.5926
  505MOL0     H69687   8.590   2.414  10.160 -0.2449 -1.4269 -0.7803
  505MOL0     H69688   8.693   2.627  10.222 -0.9734  0.1562  0.2835
  505MOL0     H69689   8.860   2.652  10.244 -1.8297  3.1475  0.3597
  505MOL0     H69690   8.789   2.638  10.077 -1.0143 -1.7352 -0.4675
  506MOL0     O69691   5.253   0.625   8.085 -1.0164 -0.0355  0.5556
  506MOL0     C69692   5.194   0.543   8.010 -0.7577 -0.0178 -0.0110
  506MOL0     O69693   5.240   0.414   7.992  0.3061  0.3703  0.2565
  506MOL0     C69694   5.370   0.390   8.033  0.2776 -0.2029  0.0774
  506MOL0     C69695   5.388   0.361   8.168 -0.1100 -0.5228 -0.0744
  506MOL0     C69696   5.519   0.354   8.227  0.3238  0.5524  0.3855
  506MOL0     C69697   5.639   0.370   8.153  0.9412 -0.1567  0.5741
  506MOL0     O69698   5.757   0.372   8.223 -0.0628  0.1797 -0.2951
  506MOL0     C69699   5.839   0.486   8.199  0.6956 -0.5294 -0.1104
  506MOL0     C69700   5.986   0.451   8.191  0.0740 -0.1298 -0.6925
  506MOL0     C69701   6.071   0.554   8.109 -0.3397  0.4949 -0.1872
  506MOL0     C69702   6.226   0.522   8.110  0.3051  0.0496 -0.1476
  506MOL0     C69703   6.292   0.592   8.226 -0.1266 -0.2550  0.1739
  506MOL0     C69704   6.449   0.570   8.231  0.8542 -0.8532 -0.2891
  506MOL0     C69705   6.515   0.612   8.373 -0.4785 -1.0187 -0.8359
  506MOL0     C69706   6.673   0.594   8.374  0.0542 -0.3461 -0.1428
  506MOL0     N69707   6.729   0.646   8.243  0.5520  0.1007  0.0315
  506MOL0     C69708   6.788   0.557   8.155  0.0048 -0.2436 -0.6899
  506MOL0     C69709   6.849   0.636   8.055 -0.7399  0.2635 -0.3264
  506MOL0     C69710   6.910   0.592   7.921 -0.5651 -0.2525 -0.6982
  506MOL0     C69711   6.802   0.534   7.831  0.3031 -0.2875 -0.2992
  506MOL0     C69712   6.857   0.500   7.688  0.7286  0.0838 -0.2408
  506MOL0     C69713   6.896   0.344   7.682 -0.5253  0.6284 -0.0915
  506MOL0     O69714   6.991   0.304   7.777 -0.1252 -0.5004 -0.3407
  506MOL0     C69715   7.125   0.340   7.767 -0.7005 -0.2090 -0.1524
  506MOL0     C69716   7.219   0.315   7.869  0.5048  0.4871  1.0611
  506MOL0     C69717   7.357   0.341   7.850  0.4690  0.9584  0.0023
  506MOL0     C69718   7.448   0.309   7.964 -0.0327 -0.7466 -0.5480
  506MOL0     C69719   7.408   0.406   7.733 -0.6580 -0.3539 -0.2722
  506MOL0     C69720   7.551   0.443   7.704 -0.2652 -0.1332  0.6007
  506MOL0     O69721   7.573   0.494   7.580 -0.5343 -0.0020  0.1055
  506MOL0     C69722   7.706   0.516   7.548  0.4164 -0.8510 -0.2581
  506MOL0     C69723   7.762   0.449   7.442 -0.7523  0.0137 -0.3619
  506MOL0     C69724   7.903   0.444   7.424  0.3159 -0.0393  0.1157
  506MOL0     C69725   7.985   0.510   7.512 -0.0603  0.9877  0.3408
  506MOL0     O69726   8.120   0.499   7.493  0.0963  0.3879  0.0676
  506MOL0     C69727   8.173   0.575   7.381  0.8101 -0.4712 -0.6399
  506MOL0     C69728   8.324   0.563   7.395 -0.1780 -0.3464  0.4683
  506MOL0     C69729   8.387   0.602   7.528 -1.0744 -0.3076  0.1369
  506MOL0     C69730   8.538   0.647   7.510 -0.7455  0.1836  0.3850
  506MOL0     C69731   8.601   0.672   7.650  0.9432  0.5208 -0.1107
  506MOL0     C69732   8.747   0.722   7.635 -0.3139  0.6189  0.2600
  506MOL0     C69733   8.788   0.785   7.770  0.4991 -0.1841  0.1148
  506MOL0     C69734   8.942   0.791   7.780  0.3079 -0.0458 -0.0407
  506MOL0    Cl69735   9.003   0.916   7.660 -0.0687  0.4525  0.1485
  506MOL0     C69736   7.931   0.581   7.615 -0.7925 -0.3241  0.2483
  506MOL0     C69737   7.793   0.593   7.632  0.2427  0.3494  0.2178
  506MOL0     O69738   7.631   0.410   7.783 -0.2188 -0.7734 -0.3726
  506MOL0     C69739   7.315   0.430   7.629  0.0476 -1.4123  0.6690
  506MOL0     C69740   7.179   0.394   7.648 -1.1189 -0.3670  0.1984
  506MOL0     N69741   6.853   0.767   8.102  0.2520 -0.1164 -1.1508
  506MOL0     N69742   6.791   0.764   8.219 -0.7790 -0.8563  0.1636
  506MOL0     C69743   5.618   0.381   8.012  0.1915  0.3424 -0.5874
  506MOL0     C69744   5.484   0.385   7.954  0.2602 -0.2677  0.3493
  506MOL0     C69745   5.066   0.588   7.934 -1.1047  0.1575 -0.3458
  506MOL0     C69746   5.000   0.499   7.847 -0.7184  0.3314  0.1885
  506MOL0     C69747   4.884   0.534   7.777  0.1572  0.4529  0.3050
  506MOL0     C69748   4.817   0.654   7.788 -0.2881 -0.4862  0.0604
  506MOL0     O69749   4.688   0.687   7.739 -0.1027 -0.3052 -0.2673
  506MOL0     C69750   4.621   0.582   7.666  0.4790 -0.3563  0.8144
  506MOL0     C69751   4.479   0.626   7.623 -1.6020  0.5782  0.4468
  506MOL0     C69752   4.372   0.576   7.718 -0.4673 -1.2009  0.2119
  506MOL0     C69753   4.232   0.615   7.658 -1.2360  0.1897 -0.7933
  506MOL0     C69754   4.116   0.556   7.726 -0.3542 -0.1448  0.0975
  506MOL0     C69755   4.016   0.524   7.794 -0.0495 -0.1977  0.5129
  506MOL0     C69756   4.890   0.747   7.865  0.9312 -0.7257  0.6876
  506MOL0     C69757   5.009   0.715   7.939  1.2629  0.0919 -0.1349
  506MOL0     C69758   5.059   0.818   8.036 -0.1013 -0.3409 -0.0521
  506MOL0     H69759   5.302   0.363   8.233 -0.8112  2.3152 -0.9644
  506MOL0     H69760   5.517   0.337   8.335 -2.6838 -4.3104 -0.1159
  506MOL0     H69761   5.819   0.572   8.262  1.5304 -0.9339  0.7446
  506MOL0     H69762   5.813   0.514   8.097 -0.0553 -3.7804 -0.9445
  506MOL0     H69763   6.022   0.442   8.294 -1.1663 -0.5694 -0.2775
  506MOL0     H69764   5.981   0.351   8.147 -1.8156 -1.0418  1.3677
  506MOL0     H69765   6.032   0.542   8.008 -1.7913 -0.0475  0.4084
  506MOL0     H69766   6.055   0.655   8.148 -0.8887  0.4151 -0.1938
  506MOL0     H69767   6.235   0.413   8.111 -1.8885 -0.1938  0.8215
  506MOL0     H69768   6.270   0.555   8.016  3.1250 -3.9809 -0.4890
  506MOL0     H69769   6.252   0.563   8.323 -1.3191  0.9859  0.0776
  506MOL0     H69770   6.289   0.701   8.221  3.0106 -0.0824  0.5414
  506MOL0     H69771   6.466   0.464   8.207 -0.5535 -1.3484  0.7774
  506MOL0     H69772   6.503   0.624   8.152  1.1006 -1.6226 -0.6601
  506MOL0     H69773   6.464   0.550   8.447 -0.1923  0.1168  0.3467
  506MOL0     H69774   6.507   0.720   8.392 -1.4925 -0.5311 -3.5894
  506MOL0     H69775   6.728   0.658   8.442  0.1464 -0.7415  0.1553
  506MOL0     H69776   6.706   0.490   8.385 -0.6907 -0.4463  1.4248
  506MOL0     H69777   6.776   0.450   8.141 -3.0817  0.0160 -0.6816
  506MOL0     H69778   6.987   0.518   7.942  0.1162  0.7399  0.4137
  506MOL0     H69779   6.965   0.674   7.874  3.1080 -1.2391  1.4658
  506MOL0     H69780   6.759   0.444   7.877  1.9289  0.6411  3.3445
  506MOL0     H69781   6.725   0.609   7.814  0.0717 -0.4623 -0.0364
  506MOL0     H69782   6.784   0.518   7.608  3.3369  3.3540 -2.1430
  506MOL0     H69783   6.934   0.566   7.647  0.5271 -0.2580 -1.1936
  506MOL0     H69784   6.809   0.287   7.716 -0.0301  0.3351  0.6880
  506MOL0     H69785   6.918   0.305   7.582 -2.1012 -0.7144  0.0396
  506MOL0     H69786   7.181   0.271   7.961  1.1896 -2.3092  0.0945
  506MOL0     H69787   7.527   0.239   7.935  1.5220  1.6206 -2.3403
  506MOL0     H69788   7.395   0.282   8.056 -0.8528  0.7705 -0.5557
  506MOL0     H69789   7.497   0.403   7.988 -0.3346 -0.9171  0.8210
  506MOL0     H69790   7.695   0.396   7.376 -0.2545 -2.5268  1.0134
  506MOL0     H69791   7.943   0.391   7.337 -1.1286  0.0081 -0.6003
  506MOL0     H69792   8.142   0.528   7.287  4.0177 -2.9310 -0.6546
  506MOL0     H69793   8.143   0.680   7.390  1.0569 -0.5465  1.4457
  506MOL0     H69794   8.346   0.458   7.375 -1.8298 -0.8423  1.0346
  506MOL0     H69795   8.363   0.622   7.312 -0.1359 -2.5776 -1.1879
  506MOL0     H69796   8.377   0.518   7.597  1.7538  0.1709  1.2542
  506MOL0     H69797   8.342   0.689   7.577  3.6643  1.1620  2.4866
  506MOL0     H69798   8.554   0.741   7.458 -1.3768 -0.4147 -0.9379
  506MOL0     H69799   8.606   0.579   7.458  1.0707  4.4465 -3.4575
  506MOL0     H69800   8.535   0.736   7.709  0.9033 -0.8716  1.4105
  506MOL0     H69801   8.613   0.575   7.699 -3.4373 -0.1251  0.0404
  506MOL0     H69802   8.761   0.788   7.549  0.3621  0.5115  0.2820
  506MOL0     H69803   8.802   0.630   7.612  0.6674  0.8986  1.3906
  506MOL0     H69804   8.760   0.714   7.848  0.0675 -0.8020 -0.5839
  506MOL0     H69805   8.743   0.883   7.787  1.2031 -0.0635  1.3979
  506MOL0     H69806   8.985   0.691   7.774 -1.9770 -1.4933  3.6752
  506MOL0     H69807   8.957   0.843   7.876 -2.7450  4.1800 -1.5115
  506MOL0     H69808   7.992   0.618   7.696  2.0136 -0.5390 -1.6069
  506MOL0     H69809   7.764   0.656   7.715 -0.0278  0.7499 -0.1762
  506MOL0     H69810   7.337   0.483   7.537 -3.3336 -0.5747  0.2218
  506MOL0     H69811   7.108   0.412   7.567  0.4869 -1.7460 -1.6304
  506MOL0     H69812   5.715   0.385   7.965  1.8227 -0.0246  2.4988
  506MOL0     H69813   5.472   0.398   7.847 -1.4989 -2.3262  0.2195
  506MOL0     H69814   5.046   0.401   7.834  1.0399  0.8850  1.8333
  506MOL0     H69815   4.832   0.459   7.718 -0.6100 -1.2707  2.9731
  506MOL0     H69816   4.684   0.571   7.577  0.3914  1.1594  0.5477
  506MOL0     H69817   4.622   0.488   7.723  1.4093 -0.7895  0.1066
  506MOL0     H69818   4.463   0.583   7.524  2.8632 -2.4859  0.7751
  506MOL0     H69819   4.482   0.734   7.607 -0.3135  0.3535 -1.0145
  506MOL0     H69820   4.378   0.467   7.717 -0.5927 -1.2113 -0.5089
  506MOL0     H69821   4.386   0.607   7.822  3.4113 -3.7175  0.6287
  506MOL0     H69822   4.221   0.577   7.556 -0.6867 -0.3581 -0.6602
  506MOL0     H69823   4.212   0.722   7.655 -0.6638  0.4128  1.6552
  506MOL0     H69824   3.931   0.482   7.843 -4.1291  1.7572 -4.0272
  506MOL0     H69825   4.844   0.844   7.877  1.2694 -0.1713 -1.9274
  506MOL0     H69826   5.070   0.781   8.138  1.3627  3.9811  1.5940
  506MOL0     H69827   5.163   0.847   8.015  0.3315  0.4733  2.7812
  506MOL0     H69828   5.006   0.913   8.027  0.0977 -0.0157  1.9031
  507MOL0     O69829   6.695   8.683   2.628  0.1480 -0.1720  0.3913
  507MOL0     C69830   6.592   8.620   2.654 -0.5521 -0.1012 -1.0182
  507MOL0     O69831   6.535   8.635   2.780  0.0786 -0.0906  0.4517
  507MOL0     C69832   6.620   8.670   2.882  0.1813  0.1006  0.3064
  507MOL0     C69833   6.639   8.796   2.924  0.3030  0.7840  0.0488
  507MOL0     C69834   6.731   8.829   3.015 -0.1854 -1.4022  0.1138
  507MOL0     C69835   6.822   8.736   3.066  0.7228  0.4444  0.1185
  507MOL0     O69836   6.921   8.762   3.163 -0.5678  0.1857 -0.2352
  507MOL0     C69837   6.971   8.890   3.148  0.0437 -0.4256 -0.7346
  507MOL0     C69838   7.072   8.901   3.276  0.9636  0.4978  0.4666
  507MOL0     C69839   7.121   9.043   3.279 -0.7598  0.1609  0.3429
  507MOL0     C69840   7.198   9.073   3.410  0.3406 -0.1577 -0.2476
  507MOL0     C69841   7.114   9.130   3.527 -0.0509  0.4297 -0.1302
  507MOL0     C69842   6.996   9.041   3.582 -0.0127 -0.0096  0.8053
  507MOL0     C69843   7.057   8.923   3.658 -0.3233  0.2289  0.4120
  507MOL0     C69844   6.953   8.824   3.712 -0.6133 -0.4026  0.4613
  507MOL0     N69845   7.010   8.704   3.780  0.2022 -0.2156 -0.0201
  507MOL0     C69846   7.040   8.697   3.914 -1.1998  0.8440  0.3010
  507MOL0     C69847   7.092   8.572   3.937 -0.0264  0.0317  0.2370
  507MOL0     C69848   7.157   8.500   4.054  0.2915  0.3317  0.3700
  507MOL0     C69849   7.301   8.557   4.070  0.3181 -0.6614 -0.0476
  507MOL0     C69850   7.397   8.488   3.981  0.6425 -0.5275  0.1877
  507MOL0     C69851   7.542   8.524   3.999 -0.2678 -0.2558 -0.8973
  507MOL0     O69852   7.559   8.670   4.009  0.2677  0.0858 -0.9221
  507MOL0     C69853   7.678   8.728   4.059  0.7119 -0.0465  0.9853
  507MOL0     C69854   7.686   8.867   4.078  0.1926 -0.5010 -1.0251
  507MOL0     C69855   7.801   8.926   4.134 -0.0374  0.2482  0.2659
  507MOL0     C69856   7.798   9.072   4.162 -0.6939 -0.6401 -0.8517
  507MOL0     C69857   7.916   8.842   4.163  0.0741 -0.7383 -0.7666
  507MOL0     C69858   8.043   8.903   4.220 -0.4345  0.2734  0.7123
  507MOL0     O69859   8.154   8.822   4.196 -0.6731  0.1954  0.0663
  507MOL0     C69860   8.289   8.859   4.197  0.1454  0.3858 -0.1709
  507MOL0     C69861   8.374   8.752   4.165  0.7145  0.4661 -0.1061
  507MOL0     C69862   8.506   8.775   4.156 -0.4456 -0.1566  0.2211
  507MOL0     C69863   8.562   8.904   4.185 -0.2897 -0.5894  0.4342
  507MOL0     O69864   8.699   8.913   4.176 -0.3991 -0.4359  0.3510
  507MOL0     C69865   8.749   9.047   4.203 -0.6920 -0.5013  0.3008
  507MOL0     C69866   8.900   9.059   4.177 -0.1967  0.3368 -0.0196
  507MOL0     C69867   8.975   8.944   4.244  0.6464  0.1685 -0.3910
  507MOL0     C69868   9.130   8.956   4.238 -0.3756  0.9025  0.5303
  507MOL0     C69869   9.202   8.964   4.102 -0.1702  0.4205  1.0099
  507MOL0     C69870   9.347   8.942   4.106  0.0038 -0.4812 -0.5878
  507MOL0     C69871   9.411   8.978   3.968  1.1039 -0.0513 -0.6117
  507MOL0     C69872   9.562   8.989   3.965  0.0637  0.2297 -1.0115
  507MOL0    Cl69873   9.629   8.841   4.041 -0.0196 -0.4849 -0.0040
  507MOL0     C69874   8.471   9.011   4.215  0.8285  0.7469  0.2343
  507MOL0     C69875   8.334   8.983   4.214 -0.4943 -0.3620 -0.1044
  507MOL0     O69876   8.043   9.003   4.289 -0.1612  0.0274  0.3584
  507MOL0     C69877   7.906   8.707   4.130 -0.6075 -0.4608  0.3855
  507MOL0     C69878   7.787   8.650   4.096 -0.5546  0.1123  0.4150
  507MOL0     N69879   7.072   8.504   3.825 -0.8287  0.1387  0.7786
  507MOL0     N69880   7.019   8.577   3.739 -0.0483  0.5784  0.7969
  507MOL0     C69881   6.804   8.603   3.028 -0.0175  0.6379 -0.0629
  507MOL0     C69882   6.695   8.569   2.936 -0.1764  0.2419 -0.5055
  507MOL0     C69883   6.551   8.510   2.562  0.0409 -0.8123 -0.0258
  507MOL0     C69884   6.450   8.440   2.607  0.1254  0.2770 -0.5058
  507MOL0     C69885   6.389   8.342   2.527 -1.2745  0.6335 -0.0264
  507MOL0     C69886   6.445   8.301   2.404  0.8883  0.5715 -0.4960
  507MOL0     O69887   6.375   8.203   2.336  0.0274  0.3264  0.3255
  507MOL0     C69888   6.287   8.258   2.238  0.7477 -0.0901 -0.0982
  507MOL0     C69889   6.292   8.182   2.105  0.0131  0.3627 -0.2413
  507MOL0     C69890   6.161   8.191   2.029 -0.3512  0.3519 -0.0628
  507MOL0     C69891   6.180   8.100   1.904 -0.1747  0.2900 -0.0941
  507MOL0     C69892   6.050   8.067   1.845  0.2400 -0.1545 -0.5256
  507MOL0     C69893   5.943   8.030   1.790 -0.1495 -0.1350 -0.0982
  507MOL0     C69894   6.557   8.371   2.360 -0.5561 -0.7828 -0.3137
  507MOL0     C69895   6.604   8.479   2.434 -0.7196  0.0150  0.3577
  507MOL0     C69896   6.723   8.563   2.381 -0.5860 -0.2389  1.0218
  507MOL0     H69897   6.568   8.870   2.889  0.3996  0.5255 -0.7258
  507MOL0     H69898   6.733   8.932   3.049 -0.7384 -0.0362 -3.5675
  507MOL0     H69899   6.889   8.959   3.165 -2.4511 -3.2051 -0.7646
  507MOL0     H69900   7.021   8.900   3.051 -1.3939 -0.6325 -1.5269
  507MOL0     H69901   7.016   8.874   3.365 -1.2781  0.1408 -0.9791
  507MOL0     H69902   7.162   8.839   3.269  0.9262  0.4040  0.8204
  507MOL0     H69903   7.189   9.069   3.197  0.2389 -1.2643  0.6845
  507MOL0     H69904   7.044   9.119   3.262  0.4466  1.3185 -0.1532
  507MOL0     H69905   7.258   8.986   3.440 -2.3559 -2.0951 -0.0959
  507MOL0     H69906   7.275   9.148   3.388 -0.2928  0.4141 -0.5432
  507MOL0     H69907   7.059   9.209   3.475 -0.6274 -0.0510 -0.2585
  507MOL0     H69908   7.167   9.165   3.616 -0.2987 -1.1717  0.6809
  507MOL0     H69909   6.938   9.099   3.654  0.6882  2.2488 -0.3328
  507MOL0     H69910   6.926   9.012   3.503 -2.0673  2.5103  1.5430
  507MOL0     H69911   7.111   8.970   3.740 -1.2312  1.5884  0.2703
  507MOL0     H69912   7.126   8.872   3.590 -1.2930  1.6114 -1.7251
  507MOL0     H69913   6.898   8.882   3.787 -2.0846 -0.5571 -0.4554
  507MOL0     H69914   6.887   8.787   3.633  3.1852 -4.0579 -1.3858
  507MOL0     H69915   7.044   8.781   3.982  1.7598  1.3693 -0.3698
  507MOL0     H69916   7.157   8.391   4.038 -3.3118  0.1236  0.9465
  507MOL0     H69917   7.088   8.520   4.137 -1.7740 -2.1328 -0.6068
  507MOL0     H69918   7.286   8.664   4.051  1.0160 -0.4276  0.7024
  507MOL0     H69919   7.338   8.555   4.172  0.0321 -0.3429  0.0672
  507MOL0     H69920   7.390   8.379   3.989 -0.4084 -0.4765  0.0894
  507MOL0     H69921   7.369   8.506   3.877 -0.9948  1.8482  0.9592
  507MOL0     H69922   7.575   8.482   4.094 -2.1961 -2.8532 -1.2780
  507MOL0     H69923   7.599   8.474   3.920 -0.8600 -1.0418 -0.8437
  507MOL0     H69924   7.588   8.913   4.080 -0.8978 -2.6395  1.4456
  507MOL0     H69925   7.793   9.096   4.269 -0.9832 -0.9948 -0.7829
  507MOL0     H69926   7.713   9.124   4.117 -0.0347  0.5875 -0.7045
  507MOL0     H69927   7.882   9.118   4.110 -0.3895 -0.4196 -0.1646
  507MOL0     H69928   8.333   8.652   4.151  0.0794  0.6395  0.4524
  507MOL0     H69929   8.565   8.691   4.122 -0.6121  0.2202 -1.0616
  507MOL0     H69930   8.701   9.123   4.141 -2.4523 -0.4320  1.6660
  507MOL0     H69931   8.727   9.076   4.306  0.2098 -0.1504  0.4023
  507MOL0     H69932   8.913   9.058   4.069 -3.1871 -1.5868 -0.5052
  507MOL0     H69933   8.932   9.160   4.205 -2.1957  1.3457 -1.1228
  507MOL0     H69934   8.939   8.855   4.192 -1.9944 -0.6059  2.5106
  507MOL0     H69935   8.944   8.942   4.349  1.9993  0.7354  0.0481
  507MOL0     H69936   9.173   8.871   4.292  1.2429 -0.7130 -2.9664
  507MOL0     H69937   9.159   9.043   4.297  1.2849 -0.0628  1.2136
  507MOL0     H69938   9.164   8.891   4.030  1.1038  1.6100 -0.9439
  507MOL0     H69939   9.176   9.063   4.061 -2.2297 -0.1194  0.8974
  507MOL0     H69940   9.371   8.844   4.148 -2.9338 -0.4593  1.4454
  507MOL0     H69941   9.392   9.005   4.183 -1.2048 -2.4659  1.8981
  507MOL0     H69942   9.378   9.073   3.927  0.7354  0.0255 -0.1474
  507MOL0     H69943   9.380   8.897   3.901 -2.2751  0.3378  0.3010
  507MOL0     H69944   9.589   9.079   4.021  0.2494  0.1201 -0.9256
  507MOL0     H69945   9.607   9.005   3.866  0.1574  0.0072 -1.0067
  507MOL0     H69946   8.499   9.114   4.232  0.1380  0.5922  2.5800
  507MOL0     H69947   8.263   9.058   4.248  3.0158  2.1586  2.4368
  507MOL0     H69948   7.991   8.639   4.139 -0.0698 -0.2774 -2.4163
  507MOL0     H69949   7.793   8.543   4.076 -1.8335  0.0618  0.2306
  507MOL0     H69950   6.865   8.525   3.070 -0.2740 -0.2400 -1.2607
  507MOL0     H69951   6.679   8.465   2.911 -1.4988 -0.5299  2.9605
  507MOL0     H69952   6.409   8.462   2.705  1.8578  0.8653  0.1167
  507MOL0     H69953   6.294   8.312   2.569 -1.5702  2.5507  0.7711
  507MOL0     H69954   6.184   8.248   2.275  0.9007 -0.2117  0.2987
  507MOL0     H69955   6.295   8.367   2.229 -0.8069  0.0854  0.3515
  507MOL0     H69956   6.322   8.081   2.132  1.0664  0.9396  0.8436
  507MOL0     H69957   6.373   8.215   2.039  1.1735 -2.0821 -0.1374
  507MOL0     H69958   6.077   8.152   2.087  1.1437  0.2347  2.1236
  507MOL0     H69959   6.141   8.295   2.003 -0.6054 -0.4175 -3.4171
  507MOL0     H69960   6.221   8.006   1.943  0.1222 -0.0149 -1.1225
  507MOL0     H69961   6.244   8.141   1.826  0.7246 -0.0482  0.4493
  507MOL0     H69962   5.867   7.989   1.727 -0.2359 -0.7971  0.4257
  507MOL0     H69963   6.614   8.342   2.272  0.6059  3.6389 -1.2494
  507MOL0     H69964   6.806   8.570   2.452 -0.0733  5.6333  0.2858
  507MOL0     H69965   6.779   8.525   2.295 -0.4728  3.3335 -0.6588
  507MOL0     H69966   6.685   8.664   2.364 -0.4969 -0.0799  1.7366
  508MOL0     O69967  10.908   9.766   0.669 -0.0353  0.3614  0.1859
  508MOL0     C69968  10.842   9.795   0.570  0.0366 -0.1505 -0.0320
  508MOL0     O69969  10.893   9.857   0.454  0.3700 -0.0561 -0.2480
  508MOL0     C69970  11.009   9.807   0.402 -0.9971  0.0430  0.4409
  508MOL0     C69971  11.027   9.775   0.262 -0.0326 -0.3692  0.1922
  508MOL0     C69972  11.144   9.734   0.199 -0.3937  1.0489 -0.2335
  508MOL0     C69973  11.258   9.716   0.274  0.1338  0.4766  0.0804
  508MOL0     O69974  11.374   9.665   0.206  0.7865  0.8249 -0.2864
  508MOL0     C69975  11.502   9.677   0.278 -0.0647  0.2767 -0.1250
  508MOL0     C69976  11.596   9.596   0.202 -0.1688  0.7427  0.0591
  508MOL0     C69977  11.739   9.623   0.242  0.1909  0.2818  1.1116
  508MOL0     C69978  11.836   9.518   0.194 -0.8977  0.2489  0.0010
  508MOL0     C69979  11.970   9.516   0.277  0.4870  0.3639  0.0053
  508MOL0     C69980  12.046   9.384   0.224  1.0400 -0.4991 -0.0419
  508MOL0     C69981  12.194   9.378   0.264 -0.1233  0.2399 -0.2818
  508MOL0     C69982  12.203   9.412   0.414 -0.9434  0.4936 -0.3703
  508MOL0     N69983  12.335   9.402   0.470 -0.9869  0.2228  0.6900
  508MOL0     C69984  12.348   9.368   0.603  0.0499 -0.5323  0.5257
  508MOL0     C69985  12.481   9.332   0.615  0.0730  0.7497  0.0121
  508MOL0     C69986  12.566   9.325   0.740  0.5588  0.7003 -0.1179
  508MOL0     C69987  12.662   9.448   0.744  0.3618 -0.2613 -0.9371
  508MOL0     C69988  12.741   9.462   0.869 -0.1214 -0.3182 -0.6568
  508MOL0     C69989  12.816   9.601   0.853  0.2716  0.6709 -0.3115
  508MOL0     O69990  12.916   9.606   0.958  0.0271  0.3847 -0.8992
  508MOL0     C69991  12.996   9.712   0.970 -0.4123 -0.2843  0.3096
  508MOL0     C69992  12.991   9.823   0.879 -0.9079 -0.1922 -0.3341
  508MOL0     C69993  13.081   9.933   0.888  0.0447  0.9188 -0.3024
  508MOL0     C69994  13.077  10.032   0.775  0.7741  0.1406 -0.5335
  508MOL0     C69995  13.173   9.933   0.993 -0.0549  0.1702 -0.2218
  508MOL0     C69996  13.276  10.035   1.024  0.8049  0.0576 -0.1851
  508MOL0     O69997  13.364  10.011   1.122  0.9313  0.6504 -0.7065
  508MOL0     C69998  13.463  10.102   1.160 -0.2756 -0.1924 -0.2075
  508MOL0     C69999  13.566  10.045   1.234 -0.6879  0.0200 -1.1740
  508MOL0     C70000  13.665  10.124   1.289  0.0905 -0.3186 -1.0241
  508MOL0     C70001  13.668  10.262   1.277  0.6186 -0.5417 -0.4569
  508MOL0     O70002  13.779  10.322   1.335 -0.3563  0.1283  0.0213
  508MOL0     C70003  13.748  10.417   1.439  0.0423  0.1201 -0.5158
  508MOL0     C70004  13.858  10.438   1.560  0.2515 -0.7413  0.1173
  508MOL0     C70005  13.974  10.517   1.511 -0.3679  0.7744 -0.8949
  508MOL0     C70006  14.069  10.566   1.621 -0.1787 -0.1559  0.3144
  508MOL0     C70007  14.150  10.454   1.681  0.2657 -0.4145  0.0643
  508MOL0     C70008  14.252  10.386   1.594 -0.1242 -0.0360  0.0537
  508MOL0     C70009  14.340  10.484   1.514  0.5805 -0.2682  0.5653
  508MOL0     C70010  14.439  10.412   1.421  0.0707 -0.0467  0.1824
  508MOL0    Cl70011  14.364  10.343   1.270 -0.2221  0.6857  0.2493
  508MOL0     C70012  13.573  10.323   1.191 -0.2494 -0.1289 -1.0638
  508MOL0     C70013  13.475  10.249   1.132 -0.4025  0.5464  0.2398
  508MOL0     O70014  13.276  10.137   0.960  0.0078  0.1124 -0.0929
  508MOL0     C70015  13.176   9.824   1.081 -0.2854 -0.2236  1.1094
  508MOL0     C70016  13.089   9.717   1.072 -0.2864  0.5987  0.4133
  508MOL0     N70017  12.543   9.333   0.488 -0.1188 -0.8151 -0.6919
  508MOL0     N70018  12.461   9.387   0.405 -0.0311  0.4370 -0.2525
  508MOL0     C70019  11.252   9.752   0.411  0.8052 -0.0360  0.1495
  508MOL0     C70020  11.132   9.794   0.472  0.0317  0.3591 -0.8985
  508MOL0     C70021  10.700   9.778   0.592 -0.4389 -0.8236  0.4898
  508MOL0     C70022  10.634   9.866   0.678  0.0821  0.2377 -0.4107
  508MOL0     C70023  10.493   9.867   0.691  0.1228  0.1038 -0.6195
  508MOL0     C70024  10.422   9.767   0.630  0.6751 -0.4456  0.1179
  508MOL0     O70025  10.283   9.751   0.643 -0.0056  0.0716  0.0298
  508MOL0     C70026  10.204   9.836   0.728  0.5995 -0.4672 -0.2166
  508MOL0     C70027  10.058   9.811   0.699  0.7954  0.4474  0.9136
  508MOL0     C70028  10.015   9.816   0.555  1.3132  0.5378  0.4573
  508MOL0     C70029   9.871   9.869   0.538 -0.2595  0.3393 -0.5436
  508MOL0     C70030   9.758   9.786   0.580 -0.2586 -0.6513  0.8289
  508MOL0     C70031   9.652   9.749   0.625  0.0258  0.3231 -0.4177
  508MOL0     C70032  10.488   9.679   0.538  0.1330 -0.6948  0.2219
  508MOL0     C70033  10.629   9.688   0.518  0.5049  0.0048 -0.6333
  508MOL0     C70034  10.698   9.599   0.414  0.6791  0.1437 -0.0946
  508MOL0     H70035  10.933   9.785   0.208  1.2808  0.5620 -2.0943
  508MOL0     H70036  11.139   9.688   0.100 -0.6131 -2.6638  1.3562
  508MOL0     H70037  11.490   9.631   0.376 -3.3949  1.1975  0.0209
  508MOL0     H70038  11.534   9.782   0.274  3.4806 -0.6776 -0.7915
  508MOL0     H70039  11.570   9.490   0.215 -0.0458  0.8953  1.7351
  508MOL0     H70040  11.589   9.619   0.095  0.5632  1.3596  0.1296
  508MOL0     H70041  11.754   9.724   0.204  0.8794 -0.2638 -0.1401
  508MOL0     H70042  11.733   9.622   0.351 -4.0599  2.3924  1.0807
  508MOL0     H70043  11.788   9.420   0.188 -0.8093  0.2975 -1.8639
  508MOL0     H70044  11.868   9.545   0.093 -0.7566 -0.9282 -0.2803
  508MOL0     H70045  11.936   9.501   0.380 -0.3892  0.1166 -0.3136
  508MOL0     H70046  12.030   9.606   0.262  1.2487 -0.3760 -1.7028
  508MOL0     H70047  12.000   9.290   0.258  1.2787 -0.7216 -0.3302
  508MOL0     H70048  12.043   9.372   0.115 -0.2832 -0.2537 -0.0500
  508MOL0     H70049  12.257   9.448   0.208  0.0061  1.6447  1.5201
  508MOL0     H70050  12.230   9.277   0.244  0.4710  0.4044 -0.0591
  508MOL0     H70051  12.170   9.516   0.427  1.9620  1.6863 -1.5404
  508MOL0     H70052  12.139   9.341   0.466  1.3575 -2.9162 -1.8201
  508MOL0     H70053  12.293   9.395   0.693  2.8482  2.7720  1.4526
  508MOL0     H70054  12.607   9.225   0.756  3.4006  1.8369  0.3360
  508MOL0     H70055  12.499   9.342   0.824 -0.4109  2.5355 -1.1957
  508MOL0     H70056  12.732   9.438   0.661  1.9429  3.4975 -0.2949
  508MOL0     H70057  12.608   9.541   0.721 -1.5698 -1.5859 -2.0550
  508MOL0     H70058  12.685   9.451   0.963  2.8322 -1.5199  1.0875
  508MOL0     H70059  12.822   9.389   0.865 -0.2813 -0.5037 -0.5278
  508MOL0     H70060  12.858   9.611   0.752 -0.4156  0.3161 -0.6389
  508MOL0     H70061  12.748   9.683   0.873 -0.2588  0.2029 -0.1656
  508MOL0     H70062  12.907   9.836   0.812 -2.1980 -0.7329  1.1150
  508MOL0     H70063  13.036   9.975   0.690 -0.8760 -0.9179  0.9031
  508MOL0     H70064  13.170  10.076   0.736  2.3421  0.0786  2.8249
  508MOL0     H70065  13.009  10.109   0.811  0.2014 -0.0420 -1.2043
  508MOL0     H70066  13.563   9.938   1.252 -3.2582 -0.4081 -3.4485
  508MOL0     H70067  13.752  10.086   1.343  0.6616  0.6357 -1.2383
  508MOL0     H70068  13.730  10.512   1.389 -2.3854 -0.8536 -1.6445
  508MOL0     H70069  13.654  10.379   1.482  0.5168  1.0779  1.5067
  508MOL0     H70070  13.812  10.485   1.648  2.4790  0.8341  0.5138
  508MOL0     H70071  13.885  10.341   1.602 -0.7735 -1.4046 -0.6948
  508MOL0     H70072  13.933  10.601   1.454 -2.3737 -0.1945 -0.9599
  508MOL0     H70073  14.029  10.441   1.456  1.2428  1.0023  0.3334
  508MOL0     H70074  14.014  10.605   1.707 -0.7867 -1.8884  0.7396
  508MOL0     H70075  14.129  10.647   1.578 -1.1546  0.3386 -0.1699
  508MOL0     H70076  14.190  10.480   1.779 -1.2735 -2.1401  1.2116
  508MOL0     H70077  14.081  10.375   1.708 -0.8417  0.0824 -1.1880
  508MOL0     H70078  14.198  10.328   1.519  0.3064  1.1602 -1.2090
  508MOL0     H70079  14.313  10.321   1.658 -0.5426 -0.9717 -0.4812
  508MOL0     H70080  14.397  10.535   1.592 -0.9688  1.5195  0.6087
  508MOL0     H70081  14.274  10.561   1.473 -2.0464 -3.0736 -0.9438
  508MOL0     H70082  14.495  10.334   1.472  3.0144  1.4610 -0.5225
  508MOL0     H70083  14.515  10.484   1.390  0.0431  0.2475  0.7821
  508MOL0     H70084  13.585  10.429   1.171  0.6339  0.8878  3.5734
  508MOL0     H70085  13.408  10.305   1.067 -0.7905 -1.9926 -1.7159
  508MOL0     H70086  13.238   9.820   1.170 -0.8696  2.0838  1.6722
  508MOL0     H70087  13.101   9.630   1.135 -2.3972  0.0280  0.0691
  508MOL0     H70088  11.339   9.744   0.474  0.2880  1.3454  1.0829
  508MOL0     H70089  11.141   9.811   0.579  1.2808 -1.7582 -0.6012
  508MOL0     H70090  10.687   9.943   0.733 -1.0336  3.8415 -3.8887
  508MOL0     H70091  10.449   9.939   0.759  0.5470 -1.4321  1.3715
  508MOL0     H70092  10.240   9.822   0.830  1.3123 -3.0920 -0.7482
  508MOL0     H70093  10.223   9.939   0.694 -2.1381 -0.7433 -3.1506
  508MOL0     H70094  10.009   9.896   0.748 -3.3764 -0.1009 -1.8233
  508MOL0     H70095  10.035   9.713   0.740  2.3279  0.3780  1.6960
  508MOL0     H70096  10.067   9.887   0.490 -0.7541  1.8021  0.0728
  508MOL0     H70097  10.026   9.717   0.509 -2.0662 -0.0748  0.6571
  508MOL0     H70098   9.846   9.876   0.431 -1.8731  0.1089 -0.2012
  508MOL0     H70099   9.862   9.966   0.588 -0.4315  0.0475 -0.0025
  508MOL0     H70100   9.565   9.721   0.681 -0.1033 -3.1374 -2.0899
  508MOL0     H70101  10.419   9.604   0.500  0.5572 -1.2118  0.4478
  508MOL0     H70102  10.622   9.539   0.363  0.5497 -0.5380  0.8740
  508MOL0     H70103  10.747   9.658   0.336 -0.5395  1.1532 -0.1288
  508MOL0     H70104  10.767   9.535   0.470  1.7004  0.4277 -1.0052
  509MOL0     O70105  10.724   8.602   9.307 -0.6177  0.3469  0.1391
  509MOL0     C70106  10.696   8.637   9.425  0.2398 -0.2685 -0.9112
  509MOL0     O70107  10.783   8.640   9.532  0.6039  0.3148 -0.1477
  509MOL0     C70108  10.916   8.615   9.504 -0.6428 -1.3065  0.3252
  509MOL0     C70109  10.968   8.495   9.533  0.7312 -0.4127 -0.2992
  509MOL0     C70110  11.097   8.458   9.505  0.8866 -0.1231  0.7847
  509MOL0     C70111  11.185   8.541   9.449 -0.3998  0.8693 -0.5524
  509MOL0     O70112  11.315   8.495   9.419  0.3571 -0.2270 -0.3672
  509MOL0     C70113  11.417   8.591   9.421 -0.3131 -0.8388 -0.0881
  509MOL0     C70114  11.549   8.512   9.441  1.2410 -0.8102 -0.4229
  509MOL0     C70115  11.669   8.602   9.495  0.9491 -0.2613 -0.3181
  509MOL0     C70116  11.690   8.708   9.392 -0.5298  1.0219 -0.2133
  509MOL0     C70117  11.839   8.773   9.381 -0.6955  1.2581 -0.2916
  509MOL0     C70118  11.857   8.890   9.464 -1.2242 -0.1512  1.0638
  509MOL0     C70119  12.004   8.923   9.481 -0.5903 -0.4217  0.1699
  509MOL0     C70120  12.016   9.041   9.573 -0.1779  0.2693 -0.7347
  509MOL0     N70121  12.144   9.115   9.555 -1.0015  0.6010 -0.1451
  509MOL0     C70122  12.186   9.227   9.618 -0.1878 -0.1870  0.3799
  509MOL0     C70123  12.318   9.246   9.589 -0.1085  0.3457  0.4885
  509MOL0     C70124  12.392   9.350   9.652  0.2164 -1.1581  0.3716
  509MOL0     C70125  12.433   9.314   9.800  0.1299  0.4524  0.3849
  509MOL0     C70126  12.320   9.294   9.901  0.6769 -0.7321 -0.6416
  509MOL0     C70127  12.369   9.293  10.046  0.3939  0.4574  0.4953
  509MOL0     O70128  12.495   9.212  10.060  0.7552 -0.2251  0.0112
  509MOL0     C70129  12.594   9.264  10.133 -0.3781 -0.0509  0.2745
  509MOL0     C70130  12.586   9.381  10.215 -0.2872  0.6055 -0.5608
  509MOL0     C70131  12.691   9.409  10.313  0.3730 -0.7207 -0.3243
  509MOL0     C70132  12.660   9.527  10.401  0.9693  0.1689 -0.6350
  509MOL0     C70133  12.813   9.338  10.309 -0.1143 -0.8309  0.6963
  509MOL0     C70134  12.938   9.373  10.391  0.4018  0.0207  0.8668
  509MOL0     O70135  13.037   9.276  10.417 -0.4700  0.2431 -0.1232
  509MOL0     C70136  13.144   9.328  10.484  0.1146 -1.2041  0.5720
  509MOL0     C70137  13.144   9.340  10.625 -0.8989 -0.7081 -0.0760
  509MOL0     C70138  13.265   9.388  10.687  0.4301  0.5638  0.2243
  509MOL0     C70139  13.383   9.430  10.618 -0.5780  0.4030 -0.2131
  509MOL0     O70140  13.511   9.469  10.667  0.3715 -0.4665  0.2588
  509MOL0     C70141  13.536   9.470  10.810 -0.9149  0.6987  0.5400
  509MOL0     C70142  13.680   9.480  10.847 -1.1468  0.0120 -0.3249
  509MOL0     C70143  13.762   9.562  10.743  0.6340 -0.2208  0.1552
  509MOL0     C70144  13.905   9.554  10.778  0.2443 -0.0360 -0.5886
  509MOL0     C70145  13.958   9.685  10.833  0.2945  0.4894 -0.2437
  509MOL0     C70146  13.886   9.722  10.961  0.0752 -0.0940 -0.2298
  509MOL0     C70147  13.959   9.845  11.027  0.5643  0.3099 -0.6366
  509MOL0     C70148  13.950   9.837  11.183  0.2200  0.5306  0.2462
  509MOL0    Cl70149  13.778   9.825  11.239 -0.2574 -0.2985  0.6388
  509MOL0     C70150  13.380   9.400  10.479 -0.2708 -0.6763 -0.6180
  509MOL0     C70151  13.269   9.351  10.413 -0.3454 -0.0080 -0.7942
  509MOL0     O70152  12.949   9.491  10.419 -0.0954  0.1168 -0.2404
  509MOL0     C70153  12.808   9.225  10.226 -0.1374  1.2576  0.6540
  509MOL0     C70154  12.706   9.191  10.140 -0.1070  0.1172  0.1842
  509MOL0     N70155  12.358   9.138   9.514  0.2674  0.3123  0.1076
  509MOL0     N70156  12.253   9.073   9.487 -0.2090  0.5196  0.7566
  509MOL0     C70157  11.133   8.668   9.420 -0.8426  0.1301 -0.1420
  509MOL0     C70158  11.006   8.704   9.442 -0.1205 -0.2767  0.6739
  509MOL0     C70159  10.549   8.676   9.452  0.2236 -0.3336 -0.0219
  509MOL0     C70160  10.522   8.754   9.565 -0.5681 -0.1682  0.5880
  509MOL0     C70161  10.386   8.788   9.595  0.1684 -0.4935 -0.2596
  509MOL0     C70162  10.278   8.749   9.510 -0.0752 -0.0962 -0.1052
  509MOL0     O70163  10.151   8.801   9.515 -0.2108  0.4266 -0.8437
  509MOL0     C70164  10.108   8.895   9.620  0.7875 -0.4519 -0.2050
  509MOL0     C70165  10.066   8.805   9.741  0.0702 -0.6941  0.2909
  509MOL0     C70166  10.041   8.903   9.858  1.1044  0.2504  0.3103
  509MOL0     C70167   9.893   8.936   9.872  0.8653  0.4781  0.3494
  509MOL0     C70168   9.867   9.066   9.931  0.1488  0.3149  0.1545
  509MOL0     C70169   9.838   9.165   9.992 -0.2597 -0.7379 -0.6172
  509MOL0     C70170  10.309   8.667   9.397  0.1273  0.9063  0.7183
  509MOL0     C70171  10.440   8.626   9.373  0.0110  0.1139  0.2781
  509MOL0     C70172  10.455   8.543   9.245  0.2123 -0.5002  0.0357
  509MOL0     H70173  10.898   8.431   9.587  0.8448  0.5538  1.0356
  509MOL0     H70174  11.123   8.356   9.529  0.4994 -0.3436  0.2654
  509MOL0     H70175  11.401   8.667   9.498 -0.7116 -0.3470 -0.6426
  509MOL0     H70176  11.425   8.640   9.323  1.6362 -2.3529 -0.7411
  509MOL0     H70177  11.528   8.446   9.525 -0.5742 -1.2754 -1.1984
  509MOL0     H70178  11.589   8.463   9.351  0.7261 -0.3486 -0.9076
  509MOL0     H70179  11.639   8.642   9.593 -2.3774 -2.4235 -0.3093
  509MOL0     H70180  11.763   8.550   9.513  0.3582 -1.1491  0.2809
  509MOL0     H70181  11.651   8.671   9.297 -2.9625 -1.5289  1.6284
  509MOL0     H70182  11.627   8.795   9.414  0.0186  0.9230  2.0778
  509MOL0     H70183  11.871   8.784   9.277  2.6401 -2.3343  0.1373
  509MOL0     H70184  11.904   8.695   9.421 -0.6053  0.9808 -0.9589
  509MOL0     H70185  11.812   8.977   9.416  0.8323 -0.6280 -1.9804
  509MOL0     H70186  11.812   8.869   9.562 -0.9458  0.2043  1.2710
  509MOL0     H70187  12.049   8.948   9.384 -1.6931 -1.2339 -0.5709
  509MOL0     H70188  12.056   8.836   9.522 -0.6285 -0.1242  0.8643
  509MOL0     H70189  11.927   9.104   9.573 -0.5304 -0.1595  1.0121
  509MOL0     H70190  12.008   8.996   9.673 -1.3305 -0.9951 -1.3683
  509MOL0     H70191  12.122   9.295   9.674 -1.3486 -1.1404  0.2530
  509MOL0     H70192  12.321   9.432   9.650  1.8138  0.2875  0.6604
  509MOL0     H70193  12.476   9.386   9.592  1.0879  1.1357  2.7338
  509MOL0     H70194  12.497   9.226   9.801 -1.7368 -1.0223  2.6759
  509MOL0     H70195  12.486   9.394   9.852  0.5741 -1.9379  3.9330
  509MOL0     H70196  12.241   9.369   9.903 -0.6965 -2.1321  0.0272
  509MOL0     H70197  12.281   9.195   9.876 -0.3697 -1.2586  2.6263
  509MOL0     H70198  12.392   9.398  10.065  1.6458  0.3867 -0.4702
  509MOL0     H70199  12.291   9.266  10.117 -0.2340  2.2122  0.5231
  509MOL0     H70200  12.493   9.438  10.217 -0.6474  0.0174  0.0316
  509MOL0     H70201  12.714   9.617  10.369 -0.1455  0.7391 -0.9790
  509MOL0     H70202  12.689   9.511  10.505 -1.5359  1.3238  0.3371
  509MOL0     H70203  12.557   9.565  10.400  0.1869 -1.7510  1.0350
  509MOL0     H70204  13.045   9.324  10.666 -1.7933  0.2294 -1.7673
  509MOL0     H70205  13.268   9.401  10.795  0.0568 -2.8364  0.7685
  509MOL0     H70206  13.481   9.557  10.846 -2.4139  0.7710 -1.6814
  509MOL0     H70207  13.494   9.383  10.862  1.1780 -0.7907 -0.1289
  509MOL0     H70208  13.693   9.533  10.941 -0.1817 -0.8579  0.0474
  509MOL0     H70209  13.711   9.375  10.850  0.1092  0.3829  2.4954
  509MOL0     H70210  13.730   9.666  10.739 -0.8494 -0.6939 -2.5052
  509MOL0     H70211  13.744   9.519  10.644 -1.8770 -0.3606  0.6144
  509MOL0     H70212  13.961   9.539  10.686  0.4399  1.0833 -0.6641
  509MOL0     H70213  13.922   9.479  10.855 -0.5663  0.2632 -0.0999
  509MOL0     H70214  14.067   9.685  10.842  0.4022  1.7007 -1.3302
  509MOL0     H70215  13.928   9.762  10.762 -1.3209  0.6760  0.5977
  509MOL0     H70216  13.881   9.637  11.029 -2.0225 -1.7978 -2.3588
  509MOL0     H70217  13.781   9.749  10.949  0.3679  1.3576  0.1997
  509MOL0     H70218  13.911   9.934  10.985 -1.0032 -0.2125 -0.0356
  509MOL0     H70219  14.065   9.848  11.002  0.3425  2.1970 -1.5839
  509MOL0     H70220  14.001   9.923  11.228  2.0492  0.8084 -2.1408
  509MOL0     H70221  14.015   9.757  11.222 -0.1969 -0.2273 -0.5780
  509MOL0     H70222  13.471   9.404  10.420  0.8539  0.7868  1.1352
  509MOL0     H70223  13.287   9.326  10.308  2.5420 -2.3728  0.1033
  509MOL0     H70224  12.892   9.158  10.211  0.6308  2.1639  0.7843
  509MOL0     H70225  12.714   9.109  10.070  2.7987  0.2700  0.2537
  509MOL0     H70226  11.200   8.743   9.380  1.5657 -2.3402 -1.0377
  509MOL0     H70227  10.957   8.799   9.423 -1.3212 -1.1069 -0.6090
  509MOL0     H70228  10.605   8.795   9.621 -0.7663  0.2016  0.6127
  509MOL0     H70229  10.351   8.854   9.674  0.4638 -0.4024 -0.2025
  509MOL0     H70230  10.190   8.960   9.651  0.5605  0.2037 -0.9471
  509MOL0     H70231  10.024   8.955   9.584 -0.0832 -1.0156  0.8158
  509MOL0     H70232  10.151   8.739   9.760 -0.1248 -1.5335 -1.5478
  509MOL0     H70233   9.976   8.748   9.716  0.1680 -0.9629  0.5534
  509MOL0     H70234  10.079   8.861   9.952 -1.8809 -1.1549  1.0055
  509MOL0     H70235  10.093   8.997   9.838 -1.5928  1.6964 -0.3828
  509MOL0     H70236   9.852   8.858   9.938  1.7395  1.6831  2.4260
  509MOL0     H70237   9.847   8.932   9.773  0.0018 -2.6289  0.7659
  509MOL0     H70238   9.820   9.253  10.051  0.8929  0.0532 -1.4055
  509MOL0     H70239  10.228   8.642   9.329  0.8762 -0.7725  0.3801
  509MOL0     H70240  10.490   8.603   9.161  1.8174 -1.8817 -0.3327
  509MOL0     H70241  10.536   8.471   9.256  0.0375 -1.1524 -2.4083
  509MOL0     H70242  10.359   8.495   9.222  0.3329 -0.8311  0.2246
  510MOL0     O70243   4.429   6.206   3.331 -0.0168  0.0157 -0.1652
  510MOL0     C70244   4.357   6.129   3.274 -0.5247 -0.4160 -0.7409
  510MOL0     O70245   4.383   5.998   3.243  0.1043  0.2935  0.1953
  510MOL0     C70246   4.501   5.950   3.296 -0.0148 -0.3448  0.0916
  510MOL0     C70247   4.507   5.852   3.397 -0.2115  0.0887  0.0777
  510MOL0     C70248   4.633   5.799   3.434 -0.6026  0.0068  0.1802
  510MOL0     C70249   4.754   5.850   3.386  0.6627  0.7660  0.3869
  510MOL0     O70250   4.877   5.798   3.432 -0.6101  0.1310 -0.1997
  510MOL0     C70251   4.959   5.899   3.500 -0.7851  0.9219  0.1612
  510MOL0     C70252   5.083   5.934   3.414 -0.2034 -0.8182 -0.4286
  510MOL0     C70253   5.160   6.061   3.456 -0.0277  0.4798 -0.9988
  510MOL0     C70254   5.305   6.070   3.398  0.4076 -0.3925  0.0741
  510MOL0     C70255   5.381   6.195   3.447  0.1589 -0.3056 -0.5291
  510MOL0     C70256   5.408   6.196   3.601 -0.2695 -0.8761  0.1986
  510MOL0     C70257   5.531   6.121   3.642 -0.0373 -0.3192 -0.8561
  510MOL0     C70258   5.536   6.136   3.801 -0.0467 -0.4116 -0.2662
  510MOL0     N70259   5.658   6.077   3.867  0.7020 -0.3516 -0.2236
  510MOL0     C70260   5.681   6.080   4.004 -0.4981 -0.8560 -0.2894
  510MOL0     C70261   5.805   6.030   4.031 -0.0300  0.2970 -0.3801
  510MOL0     C70262   5.875   6.032   4.165  0.0801  0.4650  0.4025
  510MOL0     C70263   6.024   6.049   4.169  0.2558  0.4341 -0.3967
  510MOL0     C70264   6.075   6.180   4.089  0.0200  0.1420  0.3538
  510MOL0     C70265   6.202   6.218   4.160  0.1359  0.0088  1.3335
  510MOL0     O70266   6.243   6.350   4.120  0.3975 -0.2214 -0.1471
  510MOL0     C70267   6.358   6.403   4.179  0.2538  0.8213 -0.2590
  510MOL0     C70268   6.439   6.340   4.271 -0.2407  0.0594 -0.4686
  510MOL0     C70269   6.547   6.396   4.339 -0.2079 -0.2935 -0.5884
  510MOL0     C70270   6.634   6.305   4.420 -1.1223 -0.5923 -0.6617
  510MOL0     C70271   6.577   6.530   4.307  0.1591 -0.0815 -0.3969
  510MOL0     C70272   6.694   6.605   4.365  0.0730 -0.9311  0.1565
  510MOL0     O70273   6.678   6.742   4.360 -0.5636  0.1440  0.3584
  510MOL0     C70274   6.771   6.817   4.429 -0.6013 -1.1660 -0.0670
  510MOL0     C70275   6.891   6.847   4.365  0.2530 -0.1203  0.4221
  510MOL0     C70276   6.983   6.928   4.432  0.0084  0.5173  0.1892
  510MOL0     C70277   6.974   6.952   4.570  0.3033 -0.1336  0.4698
  510MOL0     O70278   7.075   7.020   4.635 -0.1309 -0.2691 -0.1776
  510MOL0     C70279   7.178   6.924   4.669 -0.3032 -0.4030 -0.9115
  510MOL0     C70280   7.261   6.969   4.789 -0.1706 -0.6626  0.0193
  510MOL0     C70281   7.327   6.843   4.853  0.5924 -0.4131  0.2687
  510MOL0     C70282   7.478   6.822   4.825 -0.7714 -0.0357 -0.2138
  510MOL0     C70283   7.510   6.755   4.683  0.0743  0.0523 -0.8755
  510MOL0     C70284   7.653   6.717   4.658  0.0075 -0.7250  0.6974
  510MOL0     C70285   7.745   6.844   4.638  0.3559  0.1882  0.1697
  510MOL0     C70286   7.850   6.843   4.753  0.1098  0.2167  0.2000
  510MOL0    Cl70287   7.973   6.718   4.729 -0.6736 -0.1974 -0.2442
  510MOL0     C70288   6.863   6.910   4.638  0.0318  0.5513 -0.1687
  510MOL0     C70289   6.755   6.848   4.560  0.3266 -0.1230 -0.3513
  510MOL0     O70290   6.795   6.549   4.403 -0.1035  0.1600 -0.4266
  510MOL0     C70291   6.495   6.600   4.219 -0.0786 -0.4243  0.3524
  510MOL0     C70292   6.390   6.539   4.156 -0.0361  0.4566 -0.4372
  510MOL0     N70293   5.852   5.992   3.908  0.1963  0.3256  0.5129
  510MOL0     N70294   5.768   6.034   3.815 -0.1848 -0.0289 -0.2925
  510MOL0     C70295   4.750   5.953   3.294  0.5487 -0.3513  0.7098
  510MOL0     C70296   4.624   5.998   3.251 -0.4587 -0.2737  0.2175
  510MOL0     C70297   4.221   6.170   3.236 -0.2639 -0.0001  0.1791
  510MOL0     C70298   4.128   6.074   3.193 -0.8780  0.1186 -0.2304
  510MOL0     C70299   3.993   6.105   3.152 -0.2743  0.0097 -0.2679
  510MOL0     C70300   3.946   6.237   3.174 -0.1400 -0.1929  0.1741
  510MOL0     O70301   3.818   6.266   3.169 -0.0403  0.5686  0.0898
  510MOL0     C70302   3.717   6.159   3.179  0.2017  1.3801 -0.2768
  510MOL0     C70303   3.583   6.209   3.221  0.0815 -1.1137  0.0042
  510MOL0     C70304   3.502   6.265   3.104 -1.2920 -0.3484  0.3755
  510MOL0     C70305   3.358   6.304   3.144 -0.6875 -0.4450  0.6211
  510MOL0     C70306   3.302   6.370   3.031  0.7126 -0.2484  0.4066
  510MOL0     C70307   3.250   6.420   2.931  0.0525 -0.0683 -0.2604
  510MOL0     C70308   4.032   6.337   3.214 -0.2990 -0.8596  0.6504
  510MOL0     C70309   4.171   6.309   3.231 -0.0484  0.6252  0.0536
  510MOL0     C70310   4.255   6.429   3.255  0.2822 -0.1513  0.1922
  510MOL0     H70311   4.418   5.810   3.443 -0.9228 -1.9442 -2.8482
  510MOL0     H70312   4.634   5.714   3.502 -1.0565 -1.2160 -1.2827
  510MOL0     H70313   4.999   5.843   3.585 -2.3732 -2.0027 -0.8859
  510MOL0     H70314   4.916   5.990   3.543  1.3350  2.5194 -0.9736
  510MOL0     H70315   5.155   5.853   3.433  0.9245  0.2079 -0.1926
  510MOL0     H70316   5.051   5.926   3.310 -2.2361 -0.2461  0.1092
  510MOL0     H70317   5.100   6.150   3.433 -0.7038  1.2975  3.1122
  510MOL0     H70318   5.160   6.055   3.566 -1.2888  1.0490 -0.9465
  510MOL0     H70319   5.351   5.972   3.415 -1.4059 -1.2145  0.5448
  510MOL0     H70320   5.284   6.080   3.291  0.0347 -1.2792  0.0532
  510MOL0     H70321   5.324   6.287   3.430 -3.3815 -1.9828  1.0577
  510MOL0     H70322   5.479   6.199   3.400  0.5057 -0.7389  0.1424
  510MOL0     H70323   5.428   6.298   3.637  1.1343 -1.5045  1.2790
  510MOL0     H70324   5.321   6.166   3.661 -0.6496 -1.1980 -0.4983
  510MOL0     H70325   5.624   6.168   3.606  1.0972 -1.7835  0.0298
  510MOL0     H70326   5.527   6.014   3.618  0.1483 -0.4612 -0.2750
  510MOL0     H70327   5.509   6.236   3.837 -0.1899  0.0997 -1.7161
  510MOL0     H70328   5.450   6.082   3.839  0.6277 -0.4454  1.3030
  510MOL0     H70329   5.621   6.136   4.075  0.3043  1.8710 -1.6187
  510MOL0     H70330   5.855   5.933   4.207  2.8810  0.0800  1.0285
  510MOL0     H70331   5.830   6.112   4.226 -1.3080 -1.2448  1.7271
  510MOL0     H70332   6.058   6.032   4.272 -2.2864  0.0821  0.4589
  510MOL0     H70333   6.063   5.959   4.122 -1.5964  0.4344 -2.0535
  510MOL0     H70334   6.097   6.153   3.986 -0.1827 -1.8088  0.7808
  510MOL0     H70335   6.003   6.262   4.088  0.1757  0.3278  1.7464
  510MOL0     H70336   6.199   6.219   4.269  2.4137 -1.5686  1.4799
  510MOL0     H70337   6.279   6.147   4.125 -1.2473 -0.3621 -1.2133
  510MOL0     H70338   6.427   6.233   4.286 -0.8025  0.2154  0.2682
  510MOL0     H70339   6.706   6.351   4.488  3.6533 -1.8664 -4.2587
  510MOL0     H70340   6.704   6.250   4.356  0.8832  2.1631 -1.0344
  510MOL0     H70341   6.571   6.238   4.479 -2.4532  3.1936  2.6595
  510MOL0     H70342   6.915   6.797   4.271 -1.4835 -2.6899  1.2416
  510MOL0     H70343   7.069   6.954   4.371 -0.8714  0.7855 -0.9765
  510MOL0     H70344   7.131   6.826   4.677 -1.0463 -0.3004 -3.3705
  510MOL0     H70345   7.256   6.911   4.593  2.0273 -0.5392  1.3521
  510MOL0     H70346   7.326   7.051   4.757 -1.0340  1.7157  3.6717
  510MOL0     H70347   7.186   7.016   4.854 -1.5681  1.8638 -3.1165
  510MOL0     H70348   7.267   6.753   4.835  0.6912 -0.8216  1.8127
  510MOL0     H70349   7.308   6.861   4.960 -0.3049  1.4265 -0.1636
  510MOL0     H70350   7.501   6.753   4.906 -1.3164 -1.6428 -1.3668
  510MOL0     H70351   7.539   6.912   4.834 -0.7336  0.2030 -2.3562
  510MOL0     H70352   7.457   6.660   4.672 -0.1843 -0.5159  3.5250
  510MOL0     H70353   7.469   6.829   4.613  0.6477  0.6518 -0.5910
  510MOL0     H70354   7.651   6.672   4.558 -2.4367  1.5114 -0.3812
  510MOL0     H70355   7.682   6.644   4.734 -2.7123  0.0159  2.5950
  510MOL0     H70356   7.693   6.940   4.632  1.0989  0.8061  2.5111
  510MOL0     H70357   7.811   6.838   4.551  4.4618 -0.0235  2.9873
  510MOL0     H70358   7.803   6.833   4.851  1.1664  1.5912  0.8697
  510MOL0     H70359   7.905   6.937   4.749 -0.1410  0.3290 -1.3589
  510MOL0     H70360   6.851   6.912   4.746  1.2282 -0.9649  0.0272
  510MOL0     H70361   6.669   6.814   4.617  0.9360 -0.0055  0.6577
  510MOL0     H70362   6.502   6.703   4.184 -2.8103 -0.8671 -1.7963
  510MOL0     H70363   6.320   6.598   4.098 -0.8200 -0.5450 -0.5234
  510MOL0     H70364   4.840   6.003   3.259  2.2455 -0.1904  4.7612
  510MOL0     H70365   4.620   6.086   3.188 -0.9581 -0.0233  0.5941
  510MOL0     H70366   4.164   5.971   3.193  3.3082  1.3813 -0.8084
  510MOL0     H70367   3.934   6.027   3.103 -0.2186  0.4557 -1.0555
  510MOL0     H70368   3.713   6.105   3.084  0.6590 -0.8587  0.9149
  510MOL0     H70369   3.743   6.083   3.253  0.8472 -0.6986 -2.4762
  510MOL0     H70370   3.598   6.289   3.294 -0.1617  0.5799 -1.6920
  510MOL0     H70371   3.526   6.125   3.261 -1.5829  0.0196  0.1491
  510MOL0     H70372   3.561   6.352   3.073 -1.5293  0.1464  1.2747
  510MOL0     H70373   3.495   6.203   3.014 -1.1833  0.7694 -0.4283
  510MOL0     H70374   3.363   6.380   3.223  1.8343  0.6872 -0.5110
  510MOL0     H70375   3.302   6.216   3.177  0.2914 -1.6246 -0.7511
  510MOL0     H70376   3.216   6.465   2.840  0.4943  1.9839  0.5162
  510MOL0     H70377   4.000   6.440   3.212 -0.3562 -0.8772 -0.7446
  510MOL0     H70378   4.339   6.416   3.186  0.9047 -0.8717  1.0545
  510MOL0     H70379   4.207   6.524   3.231 -1.5091 -1.5999 -2.4205
  510MOL0     H70380   4.302   6.438   3.354 -1.4933 -1.5752  1.2399
  511MOL0     O70381   6.325   1.716   8.148 -0.3737  0.3058  0.5703
  511MOL0     C70382   6.264   1.821   8.146 -0.3526  0.8223  1.1960
  511MOL0     O70383   6.311   1.938   8.098  0.2099  0.4239 -0.5005
  511MOL0     C70384   6.443   1.946   8.082 -0.2621 -0.7015  0.2979
  511MOL0     C70385   6.538   1.921   8.183 -0.1805 -0.2961 -0.4091
  511MOL0     C70386   6.673   1.942   8.148  0.2019 -0.4805  0.6204
  511MOL0     C70387   6.708   1.993   8.022  0.5539 -0.8650 -0.2065
  511MOL0     O70388   6.837   2.004   7.984 -0.0330 -0.4298  0.4306
  511MOL0     C70389   6.862   1.959   7.850 -0.6391  0.2625  0.8641
  511MOL0     C70390   6.997   1.895   7.827 -0.3321 -0.4321  0.3157
  511MOL0     C70391   7.026   1.857   7.680  0.0595  0.3585 -0.6459
  511MOL0     C70392   7.143   1.762   7.658 -0.2394  0.0193 -0.2717
  511MOL0     C70393   7.284   1.826   7.662  1.1207 -0.4188  0.1953
  511MOL0     C70394   7.315   1.899   7.528 -0.6575 -0.1523  0.4750
  511MOL0     C70395   7.470   1.922   7.513  0.4463  0.0616 -0.3506
  511MOL0     C70396   7.543   1.810   7.440  0.0202  0.1011 -0.5012
  511MOL0     N70397   7.684   1.850   7.410 -0.7274  0.3213 -0.4850
  511MOL0     C70398   7.722   1.929   7.310 -0.6500 -0.3854  0.0494
  511MOL0     C70399   7.843   1.976   7.337 -0.0716 -0.8437 -0.5608
  511MOL0     C70400   7.916   2.082   7.272  0.1449  0.6260  0.1607
  511MOL0     C70401   8.050   2.029   7.217  0.6994 -0.1946  0.4877
  511MOL0     C70402   8.115   2.120   7.116 -0.3689 -0.0118  1.2115
  511MOL0     C70403   8.263   2.072   7.087  0.6035  0.0864 -0.0743
  511MOL0     O70404   8.291   2.114   6.957  0.4057 -0.0727 -0.6922
  511MOL0     C70405   8.399   2.070   6.884  0.5290  0.3956  0.3175
  511MOL0     C70406   8.516   1.994   6.933  0.7050  0.1576  0.8040
  511MOL0     C70407   8.607   1.945   6.841  0.2591  0.4610  0.0619
  511MOL0     C70408   8.729   1.870   6.885 -1.3635  0.1242  0.4926
  511MOL0     C70409   8.583   1.953   6.699  0.2993 -0.6510 -0.2354
  511MOL0     C70410   8.671   1.907   6.598 -1.1861 -0.0767  0.0438
  511MOL0     O70411   8.708   1.998   6.504 -0.3333  0.1396 -0.0422
  511MOL0     C70412   8.792   1.960   6.399  0.3365 -0.4783  0.2637
  511MOL0     C70413   8.769   1.854   6.315  0.2513  0.3849 -0.0443
  511MOL0     C70414   8.855   1.822   6.214 -0.1822 -0.0475 -0.0297
  511MOL0     C70415   8.963   1.906   6.174  0.4652 -0.3712 -1.0035
  511MOL0     O70416   9.050   1.870   6.075  0.6598 -0.6476 -0.3613
  511MOL0     C70417   9.021   1.759   5.986  0.4967 -0.2700  0.6790
  511MOL0     C70418   9.138   1.756   5.891 -0.4924  0.1533 -0.6457
  511MOL0     C70419   9.145   1.875   5.797 -0.1516  0.2884 -0.4915
  511MOL0     C70420   9.213   1.841   5.658 -0.5903  1.1450 -0.9412
  511MOL0     C70421   9.245   1.943   5.562 -0.5634  0.3108  0.7519
  511MOL0     C70422   9.322   1.895   5.437 -0.2914 -0.1187  0.3530
  511MOL0     C70423   9.335   2.014   5.332 -0.6301 -0.2907 -0.2654
  511MOL0     C70424   9.432   1.963   5.222 -1.1935  0.4370  1.2252
  511MOL0    Cl70425   9.425   2.092   5.088 -0.0358 -0.8864  0.1938
  511MOL0     C70426   8.986   2.014   6.258  0.3205 -0.1675 -1.0697
  511MOL0     C70427   8.907   2.043   6.370 -0.5606  0.1209 -0.0237
  511MOL0     O70428   8.731   1.799   6.610  0.2671  0.0101 -0.8846
  511MOL0     C70429   8.482   2.037   6.651 -0.2660  0.0398 -0.1482
  511MOL0     C70430   8.381   2.088   6.741 -1.4042  0.2441 -0.1559
  511MOL0     N70431   7.871   1.934   7.462 -0.0517  0.2121 -0.3655
  511MOL0     N70432   7.782   1.855   7.504  1.0836 -0.6016  0.0056
  511MOL0     C70433   6.612   2.030   7.932  0.5375  0.3780 -1.2007
  511MOL0     C70434   6.484   2.002   7.959  0.7066  0.3870 -0.4880
  511MOL0     C70435   6.124   1.833   8.199 -0.3448 -0.4228  0.1212
  511MOL0     C70436   6.082   1.966   8.243 -0.0912  0.6684  0.5319
  511MOL0     C70437   5.950   1.990   8.276 -0.0976  0.8594  0.1811
  511MOL0     C70438   5.864   1.880   8.296  1.1181  0.3905  0.3688
  511MOL0     O70439   5.738   1.923   8.336 -0.2625  0.3240  0.1503
  511MOL0     C70440   5.654   1.815   8.376 -0.4359  0.6256 -0.2751
  511MOL0     C70441   5.527   1.867   8.448 -0.5384  0.2979 -0.1418
  511MOL0     C70442   5.427   1.910   8.344 -0.0181 -0.0164  0.4837
  511MOL0     C70443   5.345   2.036   8.382 -0.2686  0.0618 -0.2269
  511MOL0     C70444   5.240   2.061   8.289 -0.0150  1.0325  0.0221
  511MOL0     C70445   5.146   2.063   8.211  0.5400  0.1668 -0.6003
  511MOL0     C70446   5.903   1.753   8.255 -0.1985 -0.6820  0.3081
  511MOL0     C70447   6.028   1.723   8.206 -0.4111  0.4921  0.4213
  511MOL0     C70448   6.063   1.600   8.128  0.2298  0.6656 -0.6532
  511MOL0     H70449   6.504   1.887   8.281 -0.1800  1.2608  0.1528
  511MOL0     H70450   6.759   1.916   8.209 -0.4960  0.2099  1.9178
  511MOL0     H70451   6.865   2.049   7.789  1.4269 -0.7715 -0.6899
  511MOL0     H70452   6.783   1.886   7.830  0.2182 -0.3324 -0.4535
  511MOL0     H70453   7.080   1.963   7.846 -1.7735  1.2477  0.9114
  511MOL0     H70454   7.002   1.818   7.905  5.0385  0.8251  1.5923
  511MOL0     H70455   6.935   1.807   7.645 -0.3901 -2.3653  3.7257
  511MOL0     H70456   7.052   1.940   7.613  2.1984 -0.9919 -1.6064
  511MOL0     H70457   7.134   1.689   7.739  0.8576  1.0726  0.8630
  511MOL0     H70458   7.134   1.708   7.564 -1.8858 -1.4866  0.6817
  511MOL0     H70459   7.350   1.740   7.672 -0.7437 -1.9719 -0.2602
  511MOL0     H70460   7.308   1.897   7.741  0.9797  1.4414 -1.3496
  511MOL0     H70461   7.276   1.837   7.446 -1.8202 -0.0645  0.9426
  511MOL0     H70462   7.263   1.994   7.517  1.3378  1.0163  0.6810
  511MOL0     H70463   7.519   1.972   7.597 -1.6228  2.5366 -0.4990
  511MOL0     H70464   7.470   2.006   7.443  2.0666 -1.4827 -2.3411
  511MOL0     H70465   7.531   1.724   7.506  0.8197  0.3137 -0.0584
  511MOL0     H70466   7.480   1.797   7.351  0.0071 -1.5784 -0.2739
  511MOL0     H70467   7.657   1.945   7.225 -0.1433 -2.1665 -0.7262
  511MOL0     H70468   7.947   2.163   7.338  1.6842  0.5398 -0.4074
  511MOL0     H70469   7.853   2.119   7.190 -0.6390  1.8862  1.2804
  511MOL0     H70470   8.119   2.025   7.302 -2.6764 -2.6445  3.4221
  511MOL0     H70471   8.026   1.931   7.177  0.9538 -0.6001  1.3001
  511MOL0     H70472   8.056   2.116   7.024 -1.0473 -0.8925  1.6699
  511MOL0     H70473   8.105   2.221   7.155 -2.3215  0.0154  0.7619
  511MOL0     H70474   8.341   2.115   7.150 -0.4329 -0.6016  1.7608
  511MOL0     H70475   8.274   1.963   7.087  0.1942  0.0117  1.8411
  511MOL0     H70476   8.522   1.971   7.039  1.5080  0.1692  0.7666
  511MOL0     H70477   8.715   1.763   6.867 -2.0609 -0.0774  2.0159
  511MOL0     H70478   8.745   1.879   6.993  2.9197 -0.1656  0.0285
  511MOL0     H70479   8.823   1.910   6.845 -0.1464 -1.9855  1.1195
  511MOL0     H70480   8.690   1.786   6.348  2.2955 -1.2230  1.9092
  511MOL0     H70481   8.838   1.730   6.159  3.7883 -0.4621 -0.8638
  511MOL0     H70482   8.997   1.668   6.043 -0.9283 -1.9981 -2.4041
  511MOL0     H70483   8.933   1.772   5.923 -0.6691 -2.3938  1.7447
  511MOL0     H70484   9.228   1.752   5.953 -0.4419  1.6118 -0.5976
  511MOL0     H70485   9.126   1.661   5.838 -1.5129  0.3292 -0.7480
  511MOL0     H70486   9.194   1.961   5.844  0.7394 -0.4751  0.0210
  511MOL0     H70487   9.047   1.921   5.783  0.9823  3.1947  0.3435
  511MOL0     H70488   9.169   1.757   5.603 -0.8182  0.7679 -0.1936
  511MOL0     H70489   9.306   1.794   5.691 -0.1627  2.2551 -0.5180
  511MOL0     H70490   9.158   1.986   5.510  0.2636  0.6574 -0.3772
  511MOL0     H70491   9.286   2.033   5.608 -2.4315  1.0824  1.0378
  511MOL0     H70492   9.254   1.822   5.391 -3.2405  0.6895  3.1097
  511MOL0     H70493   9.420   1.852   5.463 -0.3109 -1.4506 -1.5410
  511MOL0     H70494   9.365   2.108   5.379 -2.4964  0.1736  0.0480
  511MOL0     H70495   9.237   2.036   5.290 -0.6972 -1.2007 -0.6050
  511MOL0     H70496   9.413   1.860   5.192  1.9982 -0.3765  1.6797
  511MOL0     H70497   9.529   1.961   5.273 -2.0453 -1.6351  2.9366
  511MOL0     H70498   9.075   2.073   6.238  0.5050  0.3607  1.1201
  511MOL0     H70499   8.951   2.120   6.432  1.7869 -2.6998  2.0802
  511MOL0     H70500   8.463   2.044   6.544  3.3103  1.3112 -0.8346
  511MOL0     H70501   8.289   2.122   6.695 -1.9843 -0.7991  0.1972
  511MOL0     H70502   6.646   2.072   7.838  1.0168  2.0304 -0.3156
  511MOL0     H70503   6.408   2.042   7.892  1.1185  3.2650  0.5993
  511MOL0     H70504   6.141   2.057   8.249 -1.7418  2.1449 -2.9658
  511MOL0     H70505   5.904   2.086   8.296 -1.5819  0.2546 -0.1779
  511MOL0     H70506   5.619   1.755   8.292  3.5072 -0.1367 -1.5580
  511MOL0     H70507   5.713   1.752   8.443  0.1590  1.2952 -0.1605
  511MOL0     H70508   5.565   1.952   8.505  2.3939 -1.2838  0.4724
  511MOL0     H70509   5.487   1.788   8.511 -2.6136  0.8104 -0.7352
  511MOL0     H70510   5.477   1.930   8.249  1.6325  0.2572  1.3734
  511MOL0     H70511   5.354   1.829   8.331 -1.1145  1.2893 -2.1715
  511MOL0     H70512   5.408   2.125   8.394  0.3432 -0.4393  0.3755
  511MOL0     H70513   5.300   2.018   8.479  2.3498 -3.2065  0.5982
  511MOL0     H70514   5.073   2.074   8.133 -0.2272  2.6114  0.3682
  511MOL0     H70515   5.830   1.673   8.269  2.1176 -3.0854 -0.6098
  511MOL0     H70516   6.131   1.614   8.043 -0.0027  1.0215 -0.7878
  511MOL0     H70517   6.107   1.524   8.193 -0.5017  0.2796 -0.5998
  511MOL0     H70518   5.974   1.549   8.089  1.6267 -1.6041 -1.0251
  512MOL0     O70519   7.306   5.068   2.359 -0.4211 -0.2736 -0.1026
  512MOL0     C70520   7.214   4.995   2.393  0.1774 -0.0972 -0.3709
  512MOL0     O70521   7.204   4.864   2.369  0.0283 -0.1716  0.0793
  512MOL0     C70522   7.302   4.800   2.299  0.2306  0.4398 -0.6145
  512MOL0     C70523   7.271   4.748   2.174 -0.1949 -1.4335 -0.7241
  512MOL0     C70524   7.362   4.680   2.103 -1.1285  0.2702 -0.4115
  512MOL0     C70525   7.486   4.657   2.160 -0.7892 -0.8698 -0.0228
  512MOL0     O70526   7.583   4.575   2.092  0.6877 -0.1840 -0.1096
  512MOL0     C70527   7.591   4.583   1.953  0.7409  0.4297  0.4425
  512MOL0     C70528   7.662   4.709   1.902  0.2251  0.4187 -0.1115
  512MOL0     C70529   7.808   4.716   1.974  0.5805  0.3687 -0.6540
  512MOL0     C70530   7.897   4.838   1.925  0.3590 -0.5267 -0.4348
  512MOL0     C70531   7.926   4.822   1.771 -0.1919  0.2607  0.4040
  512MOL0     C70532   7.998   4.695   1.735  0.1019  0.4782 -0.6100
  512MOL0     C70533   8.133   4.671   1.805  0.4737  0.1304  0.2212
  512MOL0     C70534   8.229   4.790   1.803 -0.0499  0.1826  0.3856
  512MOL0     N70535   8.370   4.744   1.808  0.3452  0.3389  0.5048
  512MOL0     C70536   8.434   4.688   1.912 -0.5277  0.8040  0.1693
  512MOL0     C70537   8.564   4.677   1.868 -0.0159  0.1586 -0.2388
  512MOL0     C70538   8.676   4.601   1.937 -0.0315 -0.2361  0.4641
  512MOL0     C70539   8.694   4.469   1.871 -0.5048 -0.6222 -0.2229
  512MOL0     C70540   8.789   4.382   1.949 -0.0218  0.6138  0.6660
  512MOL0     C70541   8.825   4.256   1.876 -0.3478 -0.1952  0.4052
  512MOL0     O70542   8.910   4.284   1.758  0.3485  0.0559  0.3266
  512MOL0     C70543   9.037   4.294   1.796 -1.0142 -0.6634  0.2474
  512MOL0     C70544   9.093   4.419   1.782 -0.4176 -0.1868  0.1306
  512MOL0     C70545   9.232   4.430   1.804  0.7095 -0.0523 -0.2919
  512MOL0     C70546   9.297   4.563   1.789 -0.4275 -0.1661  0.1045
  512MOL0     C70547   9.311   4.321   1.856 -0.4066 -0.4582 -0.1568
  512MOL0     C70548   9.460   4.312   1.890 -0.1058 -0.2882 -0.7949
  512MOL0     O70549   9.520   4.184   1.867 -0.3118 -0.2978 -0.1996
  512MOL0     C70550   9.644   4.153   1.912 -0.0231  0.1737 -0.6591
  512MOL0     C70551   9.738   4.111   1.814  0.8538  0.4232 -0.5439
  512MOL0     C70552   9.869   4.089   1.854 -1.3877  0.3641  1.2473
  512MOL0     C70553   9.922   4.105   1.983  0.0798  0.0629 -0.0275
  512MOL0     O70554  10.053   4.083   2.017  0.4179  0.0470 -0.1221
  512MOL0     C70555  10.138   4.037   1.915  0.6485 -0.3506  0.1807
  512MOL0     C70556  10.138   3.885   1.886 -0.0460 -0.7669  0.6161
  512MOL0     C70557  10.155   3.796   2.008 -0.5650 -0.2661 -0.7675
  512MOL0     C70558  10.301   3.775   2.038  0.5327 -0.3110  0.2540
  512MOL0     C70559  10.328   3.688   2.155 -0.6137 -0.2380 -1.0900
  512MOL0     C70560  10.474   3.664   2.172 -0.4543 -0.5158  0.3160
  512MOL0     C70561  10.508   3.578   2.301  0.5280 -0.0434  0.6808
  512MOL0     C70562  10.650   3.614   2.338  0.0266  0.0832 -0.2539
  512MOL0    Cl70563  10.706   3.555   2.504  0.1011  0.2718 -0.1351
  512MOL0     C70564   9.823   4.137   2.078 -0.3042  0.1710 -0.5173
  512MOL0     C70565   9.690   4.155   2.047  0.0232 -1.0556  0.3998
  512MOL0     O70566   9.511   4.405   1.946 -0.1723 -0.3079  0.1887
  512MOL0     C70567   9.248   4.190   1.859  0.1399  0.2514 -0.5312
  512MOL0     C70568   9.113   4.185   1.837 -0.2586 -0.0970  0.2350
  512MOL0     N70569   8.573   4.748   1.741 -0.1129  0.0713 -0.2451
  512MOL0     N70570   8.455   4.787   1.708  0.0108  0.2687  0.2299
  512MOL0     C70571   7.531   4.724   2.275 -0.0018  0.9160  0.2704
  512MOL0     C70572   7.429   4.798   2.342 -0.9659  0.3086  0.9342
  512MOL0     C70573   7.091   5.064   2.453  1.4073 -0.5286 -0.4273
  512MOL0     C70574   6.973   4.990   2.461 -0.3337  0.4097  0.1987
  512MOL0     C70575   6.853   5.043   2.497 -0.0456 -0.4770 -0.4977
  512MOL0     C70576   6.848   5.178   2.550 -0.4336 -0.0648  1.1017
  512MOL0     O70577   6.735   5.231   2.604  0.9584 -0.0578  0.3459
  512MOL0     C70578   6.622   5.201   2.524  0.2524 -0.1287  0.7726
  512MOL0     C70579   6.495   5.269   2.562 -0.2766  0.5274 -0.5632
  512MOL0     C70580   6.444   5.214   2.694  0.6382  0.0840  0.1295
  512MOL0     C70581   6.305   5.264   2.738 -0.0845 -0.1988 -0.1946
  512MOL0     C70582   6.199   5.270   2.638 -0.0576 -0.6390 -0.0316
  512MOL0     C70583   6.113   5.259   2.555  0.3544 -0.1536 -0.2947
  512MOL0     C70584   6.963   5.250   2.534 -0.4950 -0.1095  0.0571
  512MOL0     C70585   7.079   5.201   2.484  0.3879 -0.5665  0.0353
  512MOL0     C70586   7.196   5.301   2.484  0.4889 -0.6429  0.2408
  512MOL0     H70587   7.167   4.750   2.142  0.2554 -1.7297 -2.3179
  512MOL0     H70588   7.334   4.628   2.012  0.3198  1.5603 -1.6516
  512MOL0     H70589   7.492   4.578   1.907  0.3312  2.7087  0.9361
  512MOL0     H70590   7.639   4.497   1.905 -0.1752 -0.3961  0.9716
  512MOL0     H70591   7.672   4.697   1.794 -2.7016 -1.2647 -0.3266
  512MOL0     H70592   7.601   4.798   1.918 -0.3027 -0.0328  0.4619
  512MOL0     H70593   7.789   4.725   2.082 -2.6499  0.1499 -1.1041
  512MOL0     H70594   7.855   4.621   1.948  1.4266  1.4302 -3.2557
  512MOL0     H70595   7.846   4.934   1.944 -0.7797 -0.6631 -2.5400
  512MOL0     H70596   7.994   4.835   1.975  1.1331  3.7218 -1.2460
  512MOL0     H70597   7.997   4.897   1.735  3.0491 -0.9161  3.7436
  512MOL0     H70598   7.835   4.831   1.712 -0.9517 -1.3449  1.2676
  512MOL0     H70599   7.944   4.604   1.762  0.3120  0.4136 -0.3995
  512MOL0     H70600   8.005   4.691   1.626  3.4430 -0.6195 -0.4571
  512MOL0     H70601   8.183   4.588   1.755  0.0959 -1.3295  2.1120
  512MOL0     H70602   8.104   4.638   1.906  0.9239 -2.2793 -0.3801
  512MOL0     H70603   8.229   4.838   1.705  3.0752 -0.2737  0.0528
  512MOL0     H70604   8.210   4.855   1.889  3.2348 -0.5694  1.8517
  512MOL0     H70605   8.395   4.645   2.004  0.8812 -0.8088  0.0469
  512MOL0     H70606   8.641   4.587   2.040 -1.5361 -1.3948 -0.1758
  512MOL0     H70607   8.764   4.665   1.946  0.2994 -0.3967 -1.3372
  512MOL0     H70608   8.601   4.415   1.851 -0.9569  0.2616 -0.6209
  512MOL0     H70609   8.734   4.501   1.774 -1.8502 -2.3108 -1.3958
  512MOL0     H70610   8.880   4.439   1.972 -0.8437  1.8381  0.9957
  512MOL0     H70611   8.744   4.350   2.043 -2.8275  2.9914  0.2874
  512MOL0     H70612   8.882   4.187   1.939  1.0968 -0.0846 -0.7304
  512MOL0     H70613   8.735   4.202   1.844  1.0510 -2.9923  0.9115
  512MOL0     H70614   9.039   4.510   1.759  1.7701  1.4954  1.2409
  512MOL0     H70615   9.388   4.554   1.729  0.3326 -2.7216  1.4865
  512MOL0     H70616   9.328   4.593   1.890  1.2531 -3.7442  0.8155
  512MOL0     H70617   9.235   4.642   1.745 -0.4601 -0.6574 -0.7648
  512MOL0     H70618   9.714   4.118   1.709 -2.0152  1.2509  0.0832
  512MOL0     H70619   9.930   4.045   1.776 -1.5866  5.1372 -1.9487
  512MOL0     H70620  10.133   4.100   1.825  1.7705 -0.3206  0.1266
  512MOL0     H70621  10.239   4.064   1.947 -0.1151  0.9151  1.6402
  512MOL0     H70622  10.045   3.855   1.837 -0.1726  3.2317 -1.9949
  512MOL0     H70623  10.217   3.855   1.818  0.8058 -1.0685  1.7007
  512MOL0     H70624  10.116   3.696   1.989  3.2271 -2.4339  1.6019
  512MOL0     H70625  10.105   3.840   2.095  0.4047  2.4172 -1.4417
  512MOL0     H70626  10.363   3.865   2.051  1.7663 -1.2644  1.3175
  512MOL0     H70627  10.336   3.722   1.949 -1.4695 -0.0244 -0.7582
  512MOL0     H70628  10.275   3.727   2.243 -2.0643  1.9989 -2.8550
  512MOL0     H70629  10.288   3.589   2.131 -1.2051  0.1428 -1.6938
  512MOL0     H70630  10.524   3.760   2.187 -0.6438 -0.6556  1.9700
  512MOL0     H70631  10.512   3.614   2.082  3.0518 -0.0431  1.4149
  512MOL0     H70632  10.503   3.469   2.297  2.2214 -0.1648  0.9012
  512MOL0     H70633  10.429   3.604   2.372  1.0779 -1.5001  1.9055
  512MOL0     H70634  10.664   3.722   2.331  1.5048 -0.0205  0.6246
  512MOL0     H70635  10.724   3.571   2.269  0.2521 -0.4353  0.2972
  512MOL0     H70636   9.852   4.160   2.180  2.2287 -2.9162 -0.4114
  512MOL0     H70637   9.620   4.187   2.124  0.3129  0.4758  0.0503
  512MOL0     H70638   9.291   4.105   1.912 -0.0485  1.9122  2.5600
  512MOL0     H70639   9.056   4.094   1.851 -2.3456  1.1728  0.4964
  512MOL0     H70640   7.632   4.716   2.314  0.5344  0.4668 -1.1730
  512MOL0     H70641   7.457   4.846   2.436  0.7150  2.6525 -0.6519
  512MOL0     H70642   6.971   4.881   2.463 -0.4321  0.4039  3.0251
  512MOL0     H70643   6.759   4.990   2.506  0.4780 -1.7203 -2.0326
  512MOL0     H70644   6.660   5.226   2.425  0.2024  1.6066  1.1584
  512MOL0     H70645   6.603   5.093   2.528  1.0272 -0.2306  3.2463
  512MOL0     H70646   6.418   5.250   2.487  1.3967 -1.2501 -1.9343
  512MOL0     H70647   6.522   5.375   2.561  0.8969  0.2344 -1.1488
  512MOL0     H70648   6.441   5.106   2.681 -1.2220  0.4743 -5.5490
  512MOL0     H70649   6.512   5.236   2.777  1.2232  0.2873 -0.3957
  512MOL0     H70650   6.317   5.361   2.786  1.4780 -0.6752  0.4307
  512MOL0     H70651   6.265   5.197   2.815  1.4197 -1.0712 -0.1294
  512MOL0     H70652   6.031   5.258   2.486  0.6013  0.2636 -0.6035
  512MOL0     H70653   6.961   5.356   2.558  0.0885 -0.2364  0.7079
  512MOL0     H70654   7.224   5.325   2.381 -1.1207  0.3486 -0.0144
  512MOL0     H70655   7.170   5.395   2.533 -0.7962 -0.8402 -0.0197
  512MOL0     H70656   7.274   5.246   2.537  1.4774  0.6470  0.1479
  513MOL0     O70657   3.101   4.975   6.612  0.4667  0.3092 -0.1318
  513MOL0     C70658   2.981   5.001   6.596 -0.1511 -0.0349  0.1258
  513MOL0     O70659   2.933   5.122   6.574  0.7657  0.0257  0.7681
  513MOL0     C70660   3.014   5.223   6.531  0.0435  0.4320 -0.0321
  513MOL0     C70661   2.965   5.280   6.411 -0.5485 -0.5375 -0.0503
  513MOL0     C70662   3.023   5.397   6.358 -0.4789 -1.0477 -0.1764
  513MOL0     C70663   3.113   5.472   6.436 -0.5183 -0.0328 -0.3859
  513MOL0     O70664   3.172   5.589   6.407 -0.2763  0.0946 -0.0219
  513MOL0     C70665   3.147   5.664   6.292  0.7009 -1.0843  0.3081
  513MOL0     C70666   3.255   5.644   6.188  0.0112 -0.6492  0.0319
  513MOL0     C70667   3.395   5.697   6.225  0.6456  0.0046  0.0499
  513MOL0     C70668   3.503   5.671   6.115  0.0511 -0.2282  0.2004
  513MOL0     C70669   3.651   5.704   6.156 -0.1192  0.5909 -0.4834
  513MOL0     C70670   3.740   5.627   6.056 -0.3217  0.8335 -1.2149
  513MOL0     C70671   3.841   5.544   6.139  0.2980  0.1116 -0.3899
  513MOL0     C70672   3.966   5.626   6.174 -1.1543 -0.4155  0.7048
  513MOL0     N70673   3.953   5.728   6.269 -0.0440 -1.0271  0.5010
  513MOL0     C70674   3.908   5.859   6.247  0.5056  0.8086 -0.0385
  513MOL0     C70675   3.929   5.928   6.364 -0.5467 -0.2434 -0.0484
  513MOL0     C70676   3.905   6.074   6.409 -0.0425 -0.0541 -0.6097
  513MOL0     C70677   4.033   6.166   6.384 -1.2850 -0.9414 -0.1077
  513MOL0     C70678   4.022   6.311   6.443 -0.1418  0.5313  0.7888
  513MOL0     C70679   4.145   6.389   6.471 -0.1477 -0.4094 -0.6294
  513MOL0     O70680   4.223   6.411   6.353  0.4864  0.7896  0.1936
  513MOL0     C70681   4.339   6.480   6.369 -0.4095  1.3803 -0.4615
  513MOL0     C70682   4.390   6.537   6.255 -0.0675 -1.1434  0.1152
  513MOL0     C70683   4.526   6.581   6.246  0.0954  0.2232  0.1760
  513MOL0     C70684   4.573   6.625   6.110  0.1682 -1.1003  0.3804
  513MOL0     C70685   4.616   6.566   6.360  0.5418 -0.8384  0.6946
  513MOL0     C70686   4.760   6.622   6.360  1.1334 -0.7180 -0.6523
  513MOL0     O70687   4.787   6.722   6.276 -0.0195  0.5065 -0.4147
  513MOL0     C70688   4.905   6.782   6.290  0.1240 -0.9763  0.4974
  513MOL0     C70689   5.025   6.723   6.241  0.2868 -0.4108 -0.0685
  513MOL0     C70690   5.139   6.795   6.237 -0.0427 -0.1722  1.5717
  513MOL0     C70691   5.142   6.926   6.277  0.3273 -0.5337 -0.5956
  513MOL0     O70692   5.267   6.992   6.264  0.1662  0.5985 -0.3669
  513MOL0     C70693   5.305   7.095   6.355 -0.4025  0.5348 -0.4264
  513MOL0     C70694   5.449   7.143   6.328  0.0828  0.2951  0.2154
  513MOL0     C70695   5.451   7.229   6.205  1.2566  0.0432  0.0587
  513MOL0     C70696   5.586   7.267   6.154 -0.2745  0.4608 -0.0307
  513MOL0     C70697   5.586   7.352   6.017 -1.3703 -0.5459 -0.2593
  513MOL0     C70698   5.719   7.421   5.986  0.8798  0.5153  0.2595
  513MOL0     C70699   5.828   7.333   5.923  0.2885  0.7276  0.0930
  513MOL0     C70700   5.874   7.226   6.018  0.5099  0.0822  0.0278
  513MOL0    Cl70701   6.045   7.189   5.988  0.2248  0.1992  0.1309
  513MOL0     C70702   5.032   6.980   6.336  0.1071 -0.2008 -0.6580
  513MOL0     C70703   4.908   6.915   6.340 -0.4402 -0.6875 -0.4167
  513MOL0     O70704   4.831   6.587   6.448 -0.4869  0.5557 -0.3797
  513MOL0     C70705   4.550   6.509   6.473 -0.8785  0.0914  0.7281
  513MOL0     C70706   4.414   6.470   6.478 -0.4848  0.0586 -0.2548
  513MOL0     N70707   3.984   5.844   6.451 -0.2775  0.5352 -0.3783
  513MOL0     N70708   4.001   5.727   6.394  0.1832 -0.2027  0.0939
  513MOL0     C70709   3.159   5.414   6.563  0.4236  0.1840  0.6096
  513MOL0     C70710   3.115   5.289   6.606 -0.4768  0.8211  0.2292
  513MOL0     C70711   2.886   4.883   6.622  0.4780  0.2212  0.1951
  513MOL0     C70712   2.761   4.922   6.657 -0.0014  0.4146  0.2580
  513MOL0     C70713   2.668   4.830   6.718  0.1162  0.1338  0.0501
  513MOL0     C70714   2.700   4.694   6.721 -0.4560 -0.2667 -0.1582
  513MOL0     O70715   2.614   4.614   6.790  0.0571  0.2222 -0.5007
  513MOL0     C70716   2.621   4.470   6.765  0.0275  0.7961 -0.9307
  513MOL0     C70717   2.610   4.424   6.624 -0.8953 -0.1623 -0.2082
  513MOL0     C70718   2.535   4.512   6.521  0.0613  0.7306 -0.6054
  513MOL0     C70719   2.393   4.560   6.563 -0.1965 -0.7750 -0.6428
  513MOL0     C70720   2.297   4.453   6.574 -0.5781 -0.0287  0.3682
  513MOL0     C70721   2.210   4.369   6.598 -0.6768 -0.1290 -0.7053
  513MOL0     C70722   2.821   4.648   6.669  0.5412  0.3021  0.0689
  513MOL0     C70723   2.908   4.745   6.615 -0.0979 -0.0714  0.8886
  513MOL0     C70724   3.036   4.689   6.549 -0.1662  0.0588 -0.3060
  513MOL0     H70725   2.892   5.230   6.347  0.7156  0.2477 -2.2327
  513MOL0     H70726   2.985   5.432   6.262  2.3721  3.1092 -0.0508
  513MOL0     H70727   3.139   5.769   6.322 -1.4840 -1.1729  0.2548
  513MOL0     H70728   3.048   5.648   6.248  0.9840 -1.0547 -0.3518
  513MOL0     H70729   3.261   5.543   6.148 -0.5740 -0.7169  0.1089
  513MOL0     H70730   3.223   5.707   6.104 -1.6907  1.8835  2.4029
  513MOL0     H70731   3.377   5.804   6.233 -1.7276 -0.4141  1.1434
  513MOL0     H70732   3.427   5.658   6.322 -1.8232 -0.2202  0.8411
  513MOL0     H70733   3.501   5.572   6.067 -0.1079 -0.0400 -0.1831
  513MOL0     H70734   3.487   5.736   6.029  3.9612 -1.5188 -1.7212
  513MOL0     H70735   3.654   5.656   6.255  1.3397  1.1719 -0.2282
  513MOL0     H70736   3.671   5.811   6.148 -0.4391  0.5223 -3.3060
  513MOL0     H70737   3.693   5.565   5.979 -2.4973  0.8391  0.0234
  513MOL0     H70738   3.791   5.707   6.002  4.8313 -0.8610  0.5631
  513MOL0     H70739   3.869   5.457   6.080 -1.0612 -0.9412  0.4332
  513MOL0     H70740   3.804   5.507   6.235 -0.7567 -0.1287 -0.8720
  513MOL0     H70741   4.039   5.554   6.213 -0.2742  0.0074 -0.1248
  513MOL0     H70742   4.014   5.665   6.084 -0.4470 -2.1380  0.2996
  513MOL0     H70743   3.866   5.895   6.154 -1.8848  0.1892  0.7243
  513MOL0     H70744   3.877   6.072   6.515 -1.2228 -0.5319 -0.9142
  513MOL0     H70745   3.825   6.111   6.344 -0.6072 -2.5717 -1.4648
  513MOL0     H70746   4.117   6.112   6.428  0.1543 -0.7346 -2.4550
  513MOL0     H70747   4.060   6.170   6.279  4.0819  1.6228  1.0336
  513MOL0     H70748   3.969   6.370   6.367  1.4467  1.5519  0.4199
  513MOL0     H70749   3.960   6.293   6.531 -2.3539 -0.4378 -0.8895
  513MOL0     H70750   4.117   6.484   6.518 -0.6109 -0.3688 -0.9873
  513MOL0     H70751   4.212   6.329   6.533  0.5437  1.3748  0.4195
  513MOL0     H70752   4.333   6.541   6.163  2.0383  1.3484 -1.2435
  513MOL0     H70753   4.510   6.592   6.027 -0.9105  1.2230  0.1861
  513MOL0     H70754   4.673   6.587   6.089  1.0259  1.1549  0.0380
  513MOL0     H70755   4.577   6.734   6.103  1.2225 -1.1972 -0.8338
  513MOL0     H70756   5.016   6.624   6.196 -1.1829 -1.5136  2.4203
  513MOL0     H70757   5.220   6.739   6.192 -1.7019 -0.6100 -1.1247
  513MOL0     H70758   5.232   7.176   6.349  0.3968  1.2245 -1.2757
  513MOL0     H70759   5.306   7.059   6.458  2.5031 -3.0913 -1.4697
  513MOL0     H70760   5.469   7.203   6.417  0.1896  1.1834 -0.4005
  513MOL0     H70761   5.508   7.054   6.305  0.2559  0.7873 -1.3737
  513MOL0     H70762   5.398   7.322   6.229  0.0803 -0.0582 -1.8974
  513MOL0     H70763   5.398   7.179   6.124  0.5195 -0.6255  0.9331
  513MOL0     H70764   5.646   7.177   6.135  3.5322  2.4829  1.3213
  513MOL0     H70765   5.634   7.334   6.226 -1.4394  5.0937 -3.1274
  513MOL0     H70766   5.565   7.277   5.941  1.6319 -1.0318 -0.7286
  513MOL0     H70767   5.510   7.428   6.032 -0.3038  0.3105  1.0259
  513MOL0     H70768   5.742   7.475   6.079 -0.1913 -0.8607  1.3634
  513MOL0     H70769   5.700   7.499   5.911  1.4133  1.9489  1.5429
  513MOL0     H70770   5.923   7.385   5.904  2.9647 -2.8033  2.4631
  513MOL0     H70771   5.799   7.300   5.823 -3.6628  3.6233  0.0727
  513MOL0     H70772   5.810   7.137   6.015 -0.6979  0.7140  2.9468
  513MOL0     H70773   5.870   7.263   6.121 -3.5588  2.9621 -0.9162
  513MOL0     H70774   5.023   7.082   6.373 -1.3048 -0.4588 -0.2051
  513MOL0     H70775   4.815   6.955   6.380  0.1096  2.2458 -1.7936
  513MOL0     H70776   4.611   6.506   6.562 -2.0345 -4.8401  1.6580
  513MOL0     H70777   4.387   6.423   6.572 -4.6864  0.6386 -0.9793
  513MOL0     H70778   3.237   5.468   6.616 -1.2596  3.6745 -0.1534
  513MOL0     H70779   3.139   5.269   6.710 -2.5856  2.1773  1.0509
  513MOL0     H70780   2.732   5.026   6.656  4.7280  2.0313 -2.2290
  513MOL0     H70781   2.571   4.870   6.748 -0.9908 -1.0860 -1.7625
  513MOL0     H70782   2.720   4.444   6.803  0.4995  2.0786 -1.2345
  513MOL0     H70783   2.550   4.415   6.827  1.5310 -0.5203 -0.2948
  513MOL0     H70784   2.559   4.327   6.623 -0.4863 -0.4615  2.1789
  513MOL0     H70785   2.711   4.413   6.583 -0.2703  0.3077  1.1152
  513MOL0     H70786   2.611   4.587   6.494  2.5366 -1.6530 -0.7499
  513MOL0     H70787   2.513   4.457   6.429 -2.2939  0.7629 -0.1151
  513MOL0     H70788   2.353   4.627   6.487 -2.2715 -1.6204 -0.3844
  513MOL0     H70789   2.396   4.620   6.655 -1.9009 -1.5370 -0.0256
  513MOL0     H70790   2.129   4.302   6.619 -2.7176  2.8253  1.5367
  513MOL0     H70791   2.855   4.546   6.681 -0.2736  0.0624  0.4136
  513MOL0     H70792   3.125   4.678   6.612  1.3190 -3.1775 -2.7166
  513MOL0     H70793   3.012   4.588   6.516  1.2938 -0.7155  0.8803
  513MOL0     H70794   3.060   4.752   6.463  0.2523  0.5216  0.1330
  514MOL0     O70795   6.255   2.352   7.358 -0.0337  0.4127  0.6622
  514MOL0     C70796   6.299   2.354   7.475 -0.0090  0.2318 -0.6495
  514MOL0     O70797   6.415   2.411   7.518 -0.6570 -0.7371  0.4836
  514MOL0     C70798   6.487   2.501   7.449 -0.7864 -0.3072  0.7510
  514MOL0     C70799   6.427   2.591   7.354  0.0698  0.7175  0.1396
  514MOL0     C70800   6.499   2.691   7.293  0.1700  0.0878 -0.3897
  514MOL0     C70801   6.641   2.708   7.327  1.0759 -0.0198  0.2879
  514MOL0     O70802   6.725   2.802   7.267  0.5146  0.0750 -0.2121
  514MOL0     C70803   6.705   2.835   7.128  0.8245 -0.5506  0.6772
  514MOL0     C70804   6.794   2.939   7.073 -1.5410 -0.5003  0.6004
  514MOL0     C70805   6.940   2.909   7.096  0.1483  0.8824  0.8226
  514MOL0     C70806   7.026   3.035   7.044  0.2857  0.0554 -0.0436
  514MOL0     C70807   7.169   3.024   7.099 -0.0275 -0.1002  0.6728
  514MOL0     C70808   7.275   3.101   7.022 -0.3825  0.2165  0.4809
  514MOL0     C70809   7.269   3.255   7.044 -0.0560 -0.5855  0.6791
  514MOL0     C70810   7.371   3.329   6.957  0.2544  0.2165 -0.6458
  514MOL0     N70811   7.491   3.371   7.032 -0.1007  0.2071  0.1048
  514MOL0     C70812   7.586   3.275   7.058 -0.1693  0.2513  0.1309
  514MOL0     C70813   7.679   3.357   7.116 -0.2847 -0.0669 -0.6752
  514MOL0     C70814   7.808   3.315   7.184  0.0638 -0.0761 -0.2810
  514MOL0     C70815   7.933   3.372   7.112 -0.7070  0.0149  0.0469
  514MOL0     C70816   8.059   3.311   7.166 -0.1063 -0.7180  0.2937
  514MOL0     C70817   8.188   3.360   7.107 -0.5323 -0.2487  0.4976
  514MOL0     O70818   8.290   3.259   7.143  0.3675  0.0292 -0.6363
  514MOL0     C70819   8.405   3.286   7.073 -0.5391 -0.2220  0.1765
  514MOL0     C70820   8.436   3.386   6.982 -0.6092  0.8579  0.0728
  514MOL0     C70821   8.569   3.407   6.920  0.3542  0.0229  0.9135
  514MOL0     C70822   8.593   3.529   6.821  0.4859 -0.2024  0.8122
  514MOL0     C70823   8.670   3.310   6.945  0.8132  0.9898 -0.3175
  514MOL0     C70824   8.811   3.306   6.903 -0.1936 -0.1637 -0.5735
  514MOL0     O70825   8.907   3.242   6.981  0.3944 -0.7702  0.0932
  514MOL0     C70826   9.031   3.247   6.935 -0.1878  0.2348  0.7681
  514MOL0     C70827   9.082   3.126   6.893 -1.6282  0.4416 -0.0226
  514MOL0     C70828   9.212   3.118   6.846  0.4053  0.4833  0.1357
  514MOL0     C70829   9.310   3.223   6.841  0.3954 -0.3799 -0.6237
  514MOL0     O70830   9.437   3.217   6.784  0.1796  0.1169  0.0572
  514MOL0     C70831   9.478   3.101   6.711 -0.2017 -0.6004 -0.0973
  514MOL0     C70832   9.568   3.004   6.786 -0.2305 -0.2632  0.0350
  514MOL0     C70833   9.642   2.908   6.693 -0.4523  0.1223  0.4507
  514MOL0     C70834   9.742   2.818   6.778 -0.7729 -0.0020  0.4930
  514MOL0     C70835   9.793   2.705   6.691 -0.9045  0.9422  0.6091
  514MOL0     C70836   9.884   2.629   6.790  0.2259  0.2150 -0.0530
  514MOL0     C70837  10.024   2.695   6.808 -0.0053 -0.8174  0.4701
  514MOL0     C70838  10.112   2.624   6.918 -0.3066  0.7323  0.6407
  514MOL0    Cl70839  10.164   2.458   6.864  0.0147  0.1136  0.2477
  514MOL0     C70840   9.255   3.350   6.887 -0.7991  0.4531 -0.1329
  514MOL0     C70841   9.122   3.357   6.933  0.2261  0.2571 -0.1097
  514MOL0     O70842   8.835   3.373   6.801 -0.3334  0.9616 -0.2586
  514MOL0     C70843   8.634   3.201   7.028 -0.1974 -0.7908 -0.4557
  514MOL0     C70844   8.511   3.194   7.096  0.6065  0.2432 -0.2425
  514MOL0     N70845   7.636   3.495   7.124  0.6875 -0.2507  0.3214
  514MOL0     N70846   7.521   3.497   7.071 -0.6686  0.1074  0.3143
  514MOL0     C70847   6.694   2.629   7.427  0.4042  0.3224  0.5104
  514MOL0     C70848   6.621   2.521   7.482 -0.7565  0.0112 -0.6362
  514MOL0     C70849   6.212   2.301   7.587 -0.8592 -0.2688  0.1711
  514MOL0     C70850   6.280   2.265   7.707 -0.0443 -0.0499 -0.1716
  514MOL0     C70851   6.213   2.193   7.813  0.3004  0.1757  0.1330
  514MOL0     C70852   6.076   2.154   7.796 -0.6480 -1.2375  0.3816
  514MOL0     O70853   6.017   2.090   7.904  0.2798 -0.0211  0.6864
  514MOL0     C70854   5.877   2.065   7.901  0.1480  0.0627  0.0810
  514MOL0     C70855   5.792   2.187   7.913  0.7534  0.2150 -0.1233
  514MOL0     C70856   5.826   2.259   8.040  0.0333 -0.2831  0.3086
  514MOL0     C70857   5.736   2.387   8.050  0.1647 -0.4066  0.4750
  514MOL0     C70858   5.596   2.367   8.095 -0.2970  0.4416  0.3699
  514MOL0     C70859   5.481   2.369   8.130 -0.8275 -0.2424 -1.2896
  514MOL0     C70860   6.010   2.194   7.682 -0.4148 -0.1576 -0.4007
  514MOL0     C70861   6.073   2.271   7.585 -0.5350 -0.1947 -0.5200
  514MOL0     C70862   5.995   2.323   7.473 -0.9185  1.0694 -0.5109
  514MOL0     H70863   6.326   2.579   7.315  1.4561  3.0196 -4.7856
  514MOL0     H70864   6.446   2.758   7.226 -0.4106  0.1128  0.0915
  514MOL0     H70865   6.605   2.880   7.120  1.0140 -0.4337 -1.9337
  514MOL0     H70866   6.711   2.751   7.059 -1.6540  2.4044 -3.6591
  514MOL0     H70867   6.774   2.959   6.968 -2.5449 -0.2560  0.8286
  514MOL0     H70868   6.767   3.032   7.125 -0.6009  0.7522 -1.0349
  514MOL0     H70869   6.958   2.879   7.199  0.7850  0.1145  0.4978
  514MOL0     H70870   6.963   2.819   7.038  0.0030  1.1536  0.3314
  514MOL0     H70871   7.033   3.033   6.935  1.7076 -1.6620  0.0155
  514MOL0     H70872   6.979   3.125   7.083  1.1451  0.2302  0.6062
  514MOL0     H70873   7.198   2.919   7.086  0.1103  0.2217 -2.3438
  514MOL0     H70874   7.163   3.051   7.205 -3.5165  1.0644  0.2976
  514MOL0     H70875   7.368   3.061   7.064 -0.3694 -3.1135 -2.3210
  514MOL0     H70876   7.275   3.069   6.918  4.7938 -1.3255  0.7062
  514MOL0     H70877   7.282   3.281   7.149  0.1425 -3.0303  1.3309
  514MOL0     H70878   7.170   3.282   7.005 -0.0565  0.0269  1.0939
  514MOL0     H70879   7.396   3.261   6.875 -0.6068  0.9808 -1.5677
  514MOL0     H70880   7.318   3.410   6.907 -0.6387 -0.6417 -1.1190
  514MOL0     H70881   7.574   3.167   7.047 -2.1299  0.3253  1.1434
  514MOL0     H70882   7.805   3.206   7.191 -2.1544 -0.0433 -0.0905
  514MOL0     H70883   7.796   3.358   7.284  1.6135 -2.0285  0.8124
  514MOL0     H70884   7.926   3.355   7.004 -0.3346 -2.0210  0.3068
  514MOL0     H70885   7.933   3.480   7.127 -1.7542  0.0626 -0.2343
  514MOL0     H70886   8.063   3.333   7.273  1.0342  3.5773 -0.4205
  514MOL0     H70887   8.047   3.203   7.153 -0.1436 -0.6421 -0.3661
  514MOL0     H70888   8.174   3.365   6.999 -5.2743 -1.4842  0.8449
  514MOL0     H70889   8.212   3.462   7.138  2.7497 -0.0117 -2.2738
  514MOL0     H70890   8.360   3.456   6.948 -0.3637  1.3668  0.5464
  514MOL0     H70891   8.501   3.568   6.776  1.5726 -1.7190 -3.0691
  514MOL0     H70892   8.653   3.517   6.730  2.4943  4.8962  1.1435
  514MOL0     H70893   8.646   3.611   6.871  1.9358 -1.4011  1.3241
  514MOL0     H70894   9.016   3.040   6.892 -3.4214  1.7277 -2.6897
  514MOL0     H70895   9.246   3.025   6.802 -0.5725 -0.1086  0.5868
  514MOL0     H70896   9.393   3.054   6.661  0.1355  1.0284 -2.3736
  514MOL0     H70897   9.547   3.143   6.636  0.5699 -2.0775 -0.2461
  514MOL0     H70898   9.634   3.066   6.848 -3.5693  2.6647  1.0263
  514MOL0     H70899   9.512   2.944   6.859 -1.2632 -0.0118 -0.5337
  514MOL0     H70900   9.677   2.957   6.602 -2.7373 -0.0302 -0.5853
  514MOL0     H70901   9.564   2.851   6.641  0.6346 -0.1534 -0.9537
  514MOL0     H70902   9.673   2.775   6.850 -2.0949 -0.5135 -1.0115
  514MOL0     H70903   9.822   2.877   6.824 -1.5699  0.1146  1.7676
  514MOL0     H70904   9.709   2.647   6.652  0.2214  0.2332 -0.9035
  514MOL0     H70905   9.839   2.758   6.606  0.7621  0.5215  1.2020
  514MOL0     H70906   9.900   2.527   6.753 -2.0527 -1.4303  3.0537
  514MOL0     H70907   9.825   2.610   6.880 -1.7816  2.8925 -0.7005
  514MOL0     H70908  10.020   2.801   6.831  1.2457 -0.5612 -0.4113
  514MOL0     H70909  10.064   2.698   6.707 -0.7586  1.7232  0.1771
  514MOL0     H70910  10.057   2.624   7.012  1.7434  1.6195  1.9118
  514MOL0     H70911  10.207   2.676   6.934 -0.0897  0.6704 -0.3635
  514MOL0     H70912   9.309   3.443   6.880 -3.5552  2.0342 -2.5227
  514MOL0     H70913   9.086   3.457   6.955 -3.0057 -0.3924 -1.8512
  514MOL0     H70914   8.700   3.125   7.067 -0.8825 -0.1390  2.1855
  514MOL0     H70915   8.507   3.123   7.178  2.8642  0.9902  0.5955
  514MOL0     H70916   6.794   2.663   7.451 -0.0064  2.1073 -0.1511
  514MOL0     H70917   6.652   2.465   7.569 -1.8185  1.2127  0.5532
  514MOL0     H70918   6.380   2.303   7.724 -0.0539  0.1483 -0.5487
  514MOL0     H70919   6.270   2.163   7.901  0.6439  1.1870  0.2683
  514MOL0     H70920   5.848   2.009   7.811  0.6493  1.0270 -0.7160
  514MOL0     H70921   5.854   2.006   7.989  1.9033 -0.3083  0.3420
  514MOL0     H70922   5.686   2.160   7.911  0.6296  0.6686 -1.8089
  514MOL0     H70923   5.796   2.248   7.822 -0.4726 -0.5153 -0.6942
  514MOL0     H70924   5.808   2.195   8.127 -1.1873 -0.3039  0.0610
  514MOL0     H70925   5.929   2.295   8.049  0.1401 -0.6148  0.4090
  514MOL0     H70926   5.727   2.418   7.946 -1.3924 -0.9594  0.4182
  514MOL0     H70927   5.785   2.468   8.105 -0.1492  1.9075 -2.4080
  514MOL0     H70928   5.381   2.368   8.167  0.0701  1.5947  1.4510
  514MOL0     H70929   5.907   2.164   7.668 -0.5593  0.2730 -0.2335
  514MOL0     H70930   6.009   2.269   7.379 -0.6635  2.8221 -1.5110
  514MOL0     H70931   5.890   2.314   7.503 -0.8174  0.5475 -0.2849
  514MOL0     H70932   6.017   2.426   7.447  0.1845  0.5805 -1.6228
  515MOL0     O70933   2.459   2.046   7.677  0.0472 -0.1100 -0.7697
  515MOL0     C70934   2.571   1.992   7.651  0.7436 -0.0262  0.7552
  515MOL0     O70935   2.609   1.947   7.525  0.0999  0.1614  0.2507
  515MOL0     C70936   2.535   1.990   7.420 -1.0892  0.0594  0.0641
  515MOL0     C70937   2.450   1.898   7.357 -0.1874 -0.2003  0.1092
  515MOL0     C70938   2.378   1.933   7.246 -0.0675 -0.2726  0.9418
  515MOL0     C70939   2.384   2.068   7.196 -0.0875  0.9109 -0.9370
  515MOL0     O70940   2.301   2.098   7.084 -0.2067 -0.6107  0.2492
  515MOL0     C70941   2.274   2.003   6.982 -0.5767 -0.2804 -0.4999
  515MOL0     C70942   2.183   2.048   6.864  0.1468  1.0682 -0.4810
  515MOL0     C70943   2.040   2.047   6.907 -0.1338 -0.0930  0.8907
  515MOL0     C70944   1.946   2.105   6.795  0.0582 -0.0761  0.1990
  515MOL0     C70945   1.945   2.031   6.658  0.3354  0.2792 -0.7060
  515MOL0     C70946   1.907   2.129   6.551  0.4926 -0.1647  0.0145
  515MOL0     C70947   1.768   2.196   6.587  0.3276 -0.0671 -0.1212
  515MOL0     C70948   1.712   2.271   6.474 -0.4960 -0.6992  0.0072
  515MOL0     N70949   1.808   2.350   6.399 -0.7183  0.4999  0.6505
  515MOL0     C70950   1.852   2.474   6.437  0.1836  0.0516  0.1310
  515MOL0     C70951   1.935   2.521   6.338 -0.5053 -0.2873  0.0259
  515MOL0     C70952   2.014   2.653   6.339 -0.8495  0.0757 -0.7391
  515MOL0     C70953   1.947   2.753   6.244 -0.1847 -0.3605  1.1819
  515MOL0     C70954   2.026   2.882   6.232  0.7837  0.1498 -0.0847
  515MOL0     C70955   2.183   2.868   6.200 -0.1746 -0.2396  0.2813
  515MOL0     O70956   2.272   2.981   6.227 -0.5089 -0.1618  0.6021
  515MOL0     C70957   2.408   2.966   6.221 -0.3879 -0.9979  0.2706
  515MOL0     C70958   2.491   3.063   6.283 -0.8032 -0.1859 -0.3774
  515MOL0     C70959   2.635   3.069   6.266  0.3959 -0.4701 -0.2116
  515MOL0     C70960   2.709   3.178   6.339 -0.6352  0.2825 -0.0114
  515MOL0     C70961   2.690   2.976   6.180  0.2383 -0.6380  0.8291
  515MOL0     C70962   2.834   2.958   6.155  0.3655  0.2155  0.1714
  515MOL0     O70963   2.880   2.921   6.026  0.9210  0.1906  0.4200
  515MOL0     C70964   3.013   2.898   6.012 -0.0165 -0.8109 -0.2051
  515MOL0     C70965   3.052   2.794   5.925  0.6338 -0.2708 -0.1020
  515MOL0     C70966   3.188   2.775   5.899  0.2100  0.2971 -0.3656
  515MOL0     C70967   3.290   2.849   5.958  0.1401  0.6670 -0.0611
  515MOL0     O70968   3.422   2.841   5.922  0.5420 -0.4609 -0.5804
  515MOL0     C70969   3.488   2.759   5.828  0.1756  0.8891  0.6187
  515MOL0     C70970   3.626   2.806   5.781  0.5126  0.2251 -0.3754
  515MOL0     C70971   3.627   2.932   5.700  0.3844  0.2665 -0.3286
  515MOL0     C70972   3.766   2.934   5.615 -0.5528  0.2898 -0.2339
  515MOL0     C70973   3.794   3.075   5.561  0.2801  0.4568 -0.6514
  515MOL0     C70974   3.930   3.080   5.487 -0.2152 -0.4280  0.0714
  515MOL0     C70975   3.961   3.209   5.401  1.2753 -0.3085  0.5763
  515MOL0     C70976   3.829   3.247   5.324 -0.2351  0.0158  0.9763
  515MOL0    Cl70977   3.742   3.107   5.237 -0.4176 -0.2144  0.3696
  515MOL0     C70978   3.257   2.946   6.056  0.4342  0.0758  0.9659
  515MOL0     C70979   3.120   2.968   6.081  0.1072 -0.1425  0.1207
  515MOL0     O70980   2.913   2.977   6.248 -0.2837 -0.2829 -0.1918
  515MOL0     C70981   2.614   2.873   6.126 -0.1604  0.1030  0.3616
  515MOL0     C70982   2.480   2.865   6.154 -0.2422 -0.0442 -0.4555
  515MOL0     N70983   1.926   2.432   6.234 -0.6237  0.3495 -0.7811
  515MOL0     N70984   1.851   2.334   6.269 -0.0909 -0.3621 -0.2358
  515MOL0     C70985   2.452   2.166   7.269 -0.1565  0.3808 -1.3123
  515MOL0     C70986   2.536   2.124   7.374 -0.9146  0.3481 -0.0337
  515MOL0     C70987   2.687   1.983   7.752  0.5878  0.1387  0.0059
  515MOL0     C70988   2.662   2.059   7.866 -0.3118  0.1204 -0.2833
  515MOL0     C70989   2.767   2.078   7.956 -0.3239  1.3749 -0.2484
  515MOL0     C70990   2.899   2.018   7.927  0.4587 -0.8018  0.5561
  515MOL0     O70991   3.018   2.041   7.984 -0.1760 -0.1947 -0.4038
  515MOL0     C70992   3.015   2.099   8.116  0.0784  0.6594 -0.4335
  515MOL0     C70993   3.155   2.133   8.156 -0.7606  0.2586  0.0403
  515MOL0     C70994   3.229   2.233   8.053  0.0081 -0.0148 -0.3839
  515MOL0     C70995   3.376   2.247   8.089 -0.0265  0.0041 -0.4945
  515MOL0     C70996   3.382   2.318   8.219 -0.8402  0.0507  0.6470
  515MOL0     C70997   3.395   2.370   8.330  0.0852  0.2302 -0.0096
  515MOL0     C70998   2.914   1.934   7.818  0.9561  0.2558  0.0285
  515MOL0     C70999   2.807   1.913   7.733  0.8100  0.5220 -0.9549
  515MOL0     C71000   2.824   1.800   7.631  0.1219 -0.3062 -0.9846
  515MOL0     H71001   2.462   1.798   7.396  2.1098  0.7338  2.0731
  515MOL0     H71002   2.331   1.864   7.177 -0.8543 -0.3787  1.5752
  515MOL0     H71003   2.232   1.909   7.019 -1.8899  0.6202  0.4103
  515MOL0     H71004   2.370   1.974   6.938 -0.8690  0.1447 -1.4473
  515MOL0     H71005   2.221   2.140   6.819 -2.3096  2.3492 -0.1298
  515MOL0     H71006   2.195   1.969   6.789  1.8380  1.6558 -0.8669
  515MOL0     H71007   2.013   1.942   6.922  0.0754 -0.0963  1.2654
  515MOL0     H71008   2.029   2.108   6.997  1.8174  1.7977 -0.0688
  515MOL0     H71009   1.847   2.114   6.840 -1.2295 -3.0468 -1.7643
  515MOL0     H71010   1.981   2.205   6.768  0.5803 -0.5926 -1.1371
  515MOL0     H71011   1.868   1.953   6.664  0.3759  0.0897 -2.3286
  515MOL0     H71012   2.038   1.979   6.635 -1.0461 -2.0259 -1.4494
  515MOL0     H71013   1.990   2.198   6.534  1.0912 -0.4689  1.4720
  515MOL0     H71014   1.893   2.074   6.458  0.7226 -1.9197  0.9602
  515MOL0     H71015   1.785   2.267   6.669 -0.3305  0.7433 -0.6749
  515MOL0     H71016   1.689   2.129   6.623 -0.1789  0.0229 -1.0414
  515MOL0     H71017   1.670   2.196   6.406 -3.3271 -2.7602  3.6884
  515MOL0     H71018   1.630   2.329   6.516  0.3657  0.5015  0.0974
  515MOL0     H71019   1.821   2.525   6.528  0.4173  1.4900 -0.5840
  515MOL0     H71020   2.117   2.631   6.311 -1.2718 -1.6919 -1.0035
  515MOL0     H71021   2.025   2.699   6.438  1.8760 -1.4165 -0.2369
  515MOL0     H71022   1.952   2.707   6.145  3.2528 -1.4113  1.6920
  515MOL0     H71023   1.841   2.764   6.269 -0.3030  1.5157  0.0132
  515MOL0     H71024   1.972   2.935   6.153  0.9641  1.4817  0.6697
  515MOL0     H71025   2.014   2.935   6.326 -1.5953 -0.6788  0.1536
  515MOL0     H71026   2.222   2.779   6.250 -2.6152 -0.5868  1.7621
  515MOL0     H71027   2.193   2.858   6.092  1.6123  2.9398  0.0347
  515MOL0     H71028   2.447   3.138   6.348  1.9967  1.8375 -0.5822
  515MOL0     H71029   2.644   3.259   6.373  0.6168  0.6515  1.6413
  515MOL0     H71030   2.792   3.219   6.281  0.0522  0.2119  0.9049
  515MOL0     H71031   2.743   3.129   6.431 -0.2136 -1.3197 -0.9833
  515MOL0     H71032   2.983   2.722   5.883  1.3586 -2.3218  1.9996
  515MOL0     H71033   3.208   2.702   5.821  1.0312  3.2533 -3.1148
  515MOL0     H71034   3.513   2.671   5.887 -4.6748 -1.0020  0.2936
  515MOL0     H71035   3.429   2.745   5.737  0.2350 -1.6405  0.8961
  515MOL0     H71036   3.699   2.805   5.863  1.3511 -3.4776 -0.9558
  515MOL0     H71037   3.655   2.718   5.723  1.0158  0.0998  0.0527
  515MOL0     H71038   3.613   3.021   5.762  2.1159 -0.4306  1.1514
  515MOL0     H71039   3.540   2.925   5.633 -0.1619 -2.9230  0.5554
  515MOL0     H71040   3.755   2.861   5.534 -2.1189  0.9690 -0.6493
  515MOL0     H71041   3.849   2.894   5.675  0.7691 -1.4756 -3.0346
  515MOL0     H71042   3.709   3.090   5.494 -1.2469  1.4894  1.4465
  515MOL0     H71043   3.782   3.153   5.637 -1.6278 -0.8468  0.4523
  515MOL0     H71044   3.930   2.994   5.419 -3.3017 -0.1288 -0.4108
  515MOL0     H71045   4.016   3.071   5.554  0.1187  0.4980 -0.2227
  515MOL0     H71046   4.040   3.199   5.327 -0.0106 -0.2147 -0.8738
  515MOL0     H71047   4.005   3.290   5.459  1.1231 -0.6219  1.1375
  515MOL0     H71048   3.852   3.327   5.253 -1.0945  2.3069  3.1341
  515MOL0     H71049   3.756   3.287   5.394  0.8661  3.6974  0.2468
  515MOL0     H71050   3.337   3.014   6.085 -0.0977  1.1786 -0.0878
  515MOL0     H71051   3.100   3.052   6.146 -0.1107 -0.8404  0.9894
  515MOL0     H71052   2.652   2.797   6.059  1.6609 -2.4146  3.9180
  515MOL0     H71053   2.431   2.785   6.098 -0.7536  1.3011 -2.0024
  515MOL0     H71054   2.434   2.266   7.233 -1.8114  0.1707 -1.1627
  515MOL0     H71055   2.584   2.207   7.424 -0.2679 -1.5692  2.7961
  515MOL0     H71056   2.564   2.104   7.881  0.7106  2.3322  0.2614
  515MOL0     H71057   2.754   2.124   8.054  0.1778  2.4788 -0.6741
  515MOL0     H71058   2.952   2.188   8.130  1.4047  1.5906 -0.2570
  515MOL0     H71059   2.981   2.022   8.186 -0.6390  0.3358 -1.1193
  515MOL0     H71060   3.217   2.043   8.155  1.6616  1.7222  2.9374
  515MOL0     H71061   3.159   2.173   8.258 -1.5454 -0.4691  0.3688
  515MOL0     H71062   3.225   2.199   7.950 -1.4286  1.9291 -1.0319
  515MOL0     H71063   3.185   2.334   8.054 -2.9580 -1.1750  1.7264
  515MOL0     H71064   3.423   2.311   8.014 -1.4710  2.7924  0.8463
  515MOL0     H71065   3.435   2.155   8.090  2.8568  1.6681 -2.4959
  515MOL0     H71066   3.390   2.430   8.418 -0.7657  0.8752 -0.4785
  515MOL0     H71067   3.008   1.886   7.794 -0.2996 -1.5513 -1.4864
  515MOL0     H71068   2.928   1.766   7.625  0.2790  0.1553 -0.8552
  515MOL0     H71069   2.753   1.719   7.653 -1.4800  0.6304 -2.4551
  515MOL0     H71070   2.814   1.838   7.529  1.9385  3.8263  0.2062
  516MOL0     O71071   5.932   2.320   4.393 -0.2328  0.5691  0.7978
  516MOL0     C71072   5.901   2.225   4.325 -1.0774  0.2581  0.7845
  516MOL0     O71073   5.968   2.104   4.337 -0.6394 -0.2133 -0.1191
  516MOL0     C71074   6.098   2.081   4.363 -0.5098  1.4617  0.0474
  516MOL0     C71075   6.201   2.178   4.350 -0.2203  0.7152 -0.5609
  516MOL0     C71076   6.331   2.151   4.379 -0.4363  0.1487  0.3892
  516MOL0     C71077   6.374   2.029   4.411 -0.8595 -0.4365  0.5124
  516MOL0     O71078   6.506   1.996   4.427  0.1498 -0.9440 -0.4386
  516MOL0     C71079   6.578   2.067   4.540  0.7876  0.3819 -0.3557
  516MOL0     C71080   6.677   1.961   4.598  0.9644  0.1581  0.0869
  516MOL0     C71081   6.805   1.968   4.513  0.3701  0.2766 -0.2682
  516MOL0     C71082   6.926   1.882   4.569  0.4700 -0.5951 -0.6461
  516MOL0     C71083   7.043   1.887   4.479  0.5546  0.4653 -0.4600
  516MOL0     C71084   7.163   1.819   4.556  0.5146 -0.2653  0.1079
  516MOL0     C71085   7.266   1.759   4.455  0.4616 -0.2299 -0.1936
  516MOL0     C71086   7.376   1.677   4.523 -0.1396 -1.0615  0.6258
  516MOL0     N71087   7.435   1.759   4.638 -0.6354 -0.0197  0.0329
  516MOL0     C71088   7.527   1.868   4.623  0.6015  0.2839 -0.5130
  516MOL0     C71089   7.555   1.903   4.751  0.1394 -0.1721 -0.3489
  516MOL0     C71090   7.654   2.012   4.795  0.0553  0.2130 -0.3309
  516MOL0     C71091   7.788   1.946   4.821 -0.0669  0.2121  0.1475
  516MOL0     C71092   7.890   2.025   4.908 -0.1436 -0.1060  0.4261
  516MOL0     C71093   7.996   2.115   4.830 -0.0723  0.1245 -0.6880
  516MOL0     O71094   8.084   2.019   4.768  0.0649 -0.9812 -0.8812
  516MOL0     C71095   8.185   2.070   4.693  0.0297 -0.8401  0.2090
  516MOL0     C71096   8.249   1.972   4.610 -0.4622 -0.0648 -0.2814
  516MOL0     C71097   8.367   2.001   4.540  0.3030 -0.3727  0.2370
  516MOL0     C71098   8.431   1.897   4.446  0.0835 -0.4770 -0.2175
  516MOL0     C71099   8.419   2.135   4.550 -0.4846 -0.3054  0.1671
  516MOL0     C71100   8.550   2.173   4.477  0.3998  0.0917  0.4477
  516MOL0     O71101   8.664   2.097   4.501 -0.1568 -0.6866 -0.3382
  516MOL0     C71102   8.782   2.136   4.441  0.0044 -0.3531  0.4042
  516MOL0     C71103   8.874   2.215   4.504 -0.0167  0.4964  0.4590
  516MOL0     C71104   8.992   2.248   4.444  0.3078 -0.5489  0.2815
  516MOL0     C71105   9.025   2.197   4.324  0.1067 -0.4196  0.3421
  516MOL0     O71106   9.139   2.243   4.265 -0.2325  0.1780 -0.1954
  516MOL0     C71107   9.194   2.150   4.169  0.4025  0.0956 -0.5038
  516MOL0     C71108   9.337   2.199   4.133 -0.0941  0.1183 -0.0747
  516MOL0     C71109   9.329   2.346   4.092 -0.0253 -0.6545 -0.1247
  516MOL0     C71110   9.472   2.400   4.080  0.2459  0.2654 -0.2296
  516MOL0     C71111   9.463   2.556   4.050 -1.2063  0.0783  0.3590
  516MOL0     C71112   9.597   2.629   4.066 -0.0415  0.4142  0.0264
  516MOL0     C71113   9.718   2.535   4.029  0.2915  0.7445 -0.2108
  516MOL0     C71114   9.841   2.616   3.997 -0.2257 -0.0142 -0.4479
  516MOL0    Cl71115   9.999   2.525   3.980  0.1866  0.0908  0.0651
  516MOL0     C71116   8.927   2.113   4.256  0.1920 -0.8292  0.4087
  516MOL0     C71117   8.799   2.098   4.304  0.4680  0.8220 -0.2409
  516MOL0     O71118   8.545   2.273   4.405 -0.2476  0.2991  0.1145
  516MOL0     C71119   8.343   2.240   4.608 -0.9953 -0.1308  1.5338
  516MOL0     C71120   8.239   2.203   4.688  0.7965  0.5878  0.4784
  516MOL0     N71121   7.478   1.827   4.843  1.0006  0.3914  0.2887
  516MOL0     N71122   7.404   1.739   4.773  0.1568 -0.9726 -0.4357
  516MOL0     C71123   6.280   1.927   4.419 -0.1772  1.1335 -0.4415
  516MOL0     C71124   6.142   1.952   4.402  0.0546 -0.5414 -0.8113
  516MOL0     C71125   5.791   2.219   4.224 -0.4683  0.2171 -0.4943
  516MOL0     C71126   5.794   2.113   4.133 -0.5923 -0.1489 -0.0820
  516MOL0     C71127   5.700   2.092   4.032 -0.1152 -0.5294  0.3050
  516MOL0     C71128   5.603   2.195   4.012 -0.3119 -0.4979 -0.4297
  516MOL0     O71129   5.496   2.180   3.927  0.0933 -0.6633 -0.5472
  516MOL0     C71130   5.510   2.115   3.804  0.8519  0.2157  0.0638
  516MOL0     C71131   5.427   1.985   3.781  0.2553 -0.9602 -0.2460
  516MOL0     C71132   5.289   2.033   3.801  0.4620 -1.1697 -0.6587
  516MOL0     C71133   5.186   1.913   3.790 -0.8527 -0.3613 -0.3154
  516MOL0     C71134   5.047   1.938   3.811  0.2988 -1.1570  1.1487
  516MOL0     C71135   4.927   1.962   3.816  0.2164  0.0328  0.3962
  516MOL0     C71136   5.601   2.302   4.107 -0.4996  0.1925  0.8905
  516MOL0     C71137   5.689   2.312   4.215 -0.3491 -0.0952 -0.0894
  516MOL0     C71138   5.676   2.436   4.302  0.5518 -1.1774 -0.5357
  516MOL0     H71139   6.174   2.278   4.319 -3.3842  0.8249  2.0557
  516MOL0     H71140   6.402   2.233   4.381 -0.5304  0.3406 -1.6244
  516MOL0     H71141   6.503   2.085   4.617  2.1825 -1.4066  1.5287
  516MOL0     H71142   6.620   2.163   4.508  0.3000 -0.5057 -4.1777
  516MOL0     H71143   6.702   1.972   4.703 -0.6566 -1.1058  0.6561
  516MOL0     H71144   6.628   1.865   4.575  0.9025  0.2792 -0.2957
  516MOL0     H71145   6.785   1.938   4.410  0.5504  3.1297 -1.2236
  516MOL0     H71146   6.835   2.073   4.517 -1.0668  0.6916  0.3682
  516MOL0     H71147   6.958   1.917   4.667  0.1661 -0.4386 -0.6025
  516MOL0     H71148   6.899   1.777   4.588 -0.4674 -0.5558 -1.6400
  516MOL0     H71149   7.076   1.984   4.440 -0.9545 -0.2363 -3.8896
  516MOL0     H71150   7.005   1.835   4.390 -0.8064  1.3526 -0.4296
  516MOL0     H71151   7.207   1.887   4.629  1.8365 -2.9443  1.9788
  516MOL0     H71152   7.112   1.738   4.610 -1.1128  1.0477  0.6075
  516MOL0     H71153   7.315   1.839   4.399 -0.9745  2.3438  1.9901
  516MOL0     H71154   7.216   1.695   4.381  0.8691 -1.2742  0.4026
  516MOL0     H71155   7.334   1.582   4.557 -0.0710 -0.9490  1.0309
  516MOL0     H71156   7.457   1.667   4.451  0.3356 -2.0773  1.2704
  516MOL0     H71157   7.560   1.908   4.528  1.1784 -1.1645 -0.9577
  516MOL0     H71158   7.613   2.055   4.886  2.5192  0.9828  0.4886
  516MOL0     H71159   7.664   2.090   4.719 -0.6458  1.5510  0.9106
  516MOL0     H71160   7.777   1.849   4.871  3.9940 -1.1287 -1.2421
  516MOL0     H71161   7.830   1.915   4.725 -2.1225 -1.4293 -0.3054
  516MOL0     H71162   7.833   2.091   4.973 -0.7964 -0.5209  0.2879
  516MOL0     H71163   7.949   1.949   4.960  1.4770  0.0341 -1.1114
  516MOL0     H71164   7.952   2.181   4.755 -3.6370  0.2885  1.3448
  516MOL0     H71165   8.062   2.176   4.892 -0.8949  2.6234 -2.1558
  516MOL0     H71166   8.210   1.871   4.611 -1.3527  0.2395 -1.8349
  516MOL0     H71167   8.352   1.844   4.391 -0.6595 -0.2751  0.6283
  516MOL0     H71168   8.486   1.816   4.494 -2.5787 -0.4342  3.3089
  516MOL0     H71169   8.494   1.958   4.380  2.8618  0.3760  2.9707
  516MOL0     H71170   8.842   2.248   4.603 -1.3345  0.1009  0.1895
  516MOL0     H71171   9.064   2.309   4.497 -1.8302  1.8474  0.6299
  516MOL0     H71172   9.196   2.045   4.199  1.9280 -0.3283 -1.9548
  516MOL0     H71173   9.143   2.166   4.074  0.1938  3.3596  0.0183
  516MOL0     H71174   9.402   2.183   4.219  0.8050 -0.3270 -0.8242
  516MOL0     H71175   9.372   2.144   4.046  1.3516  0.6882  0.1317
  516MOL0     H71176   9.272   2.401   4.167 -2.8656  0.2004 -2.6902
  516MOL0     H71177   9.281   2.344   3.993  0.9253 -0.7987 -0.5917
  516MOL0     H71178   9.536   2.341   4.014  0.9085  1.6957 -0.9031
  516MOL0     H71179   9.520   2.383   4.176  0.3851  1.8144  0.0109
  516MOL0     H71180   9.446   2.572   3.943  2.8585  2.4891 -0.1094
  516MOL0     H71181   9.389   2.606   4.114 -1.5484  0.1145 -0.0608
  516MOL0     H71182   9.616   2.671   4.166  3.2876  0.2680 -0.4437
  516MOL0     H71183   9.593   2.716   4.001 -0.8552  0.5166  0.2057
  516MOL0     H71184   9.682   2.482   3.940 -1.8426 -0.5234  1.3002
  516MOL0     H71185   9.742   2.461   4.105  0.2275  0.1963 -0.7130
  516MOL0     H71186   9.864   2.666   4.092  1.6787 -2.7058  0.6449
  516MOL0     H71187   9.843   2.681   3.909  1.7373 -0.6533 -0.9303
  516MOL0     H71188   8.949   2.081   4.154  2.5302  1.5579  0.0498
  516MOL0     H71189   8.727   2.057   4.235  0.9883 -0.1835 -0.1972
  516MOL0     H71190   8.386   2.340   4.604  3.1461 -1.6392  3.0855
  516MOL0     H71191   8.180   2.278   4.740  0.5314  0.7176 -0.0049
  516MOL0     H71192   6.315   1.828   4.447  0.6742  1.3138 -0.8484
  516MOL0     H71193   6.065   1.875   4.401  1.0716 -1.6372 -3.4041
  516MOL0     H71194   5.860   2.028   4.147  1.6258  1.6655  1.2946
  516MOL0     H71195   5.685   2.002   3.973 -2.7109 -1.2055  1.8234
  516MOL0     H71196   5.473   2.188   3.731 -0.3746 -0.3029  0.1448
  516MOL0     H71197   5.614   2.098   3.775  0.1988  1.0577 -3.2233
  516MOL0     H71198   5.454   1.910   3.855 -0.2242 -0.9643 -0.0711
  516MOL0     H71199   5.434   1.940   3.681 -0.9006 -0.7187 -0.4557
  516MOL0     H71200   5.265   2.067   3.902  0.4673 -1.8310 -0.4311
  516MOL0     H71201   5.257   2.106   3.726 -2.0799 -2.4087 -0.8915
  516MOL0     H71202   5.213   1.832   3.858 -0.9226 -1.3918 -1.4806
  516MOL0     H71203   5.201   1.875   3.688 -1.4809  0.5876 -0.7758
  516MOL0     H71204   4.820   1.959   3.819  0.0271 -0.9664 -3.1328
  516MOL0     H71205   5.524   2.378   4.099 -0.6849 -0.1961 -1.4132
  516MOL0     H71206   5.628   2.426   4.399 -3.5388  2.7774 -1.8045
  516MOL0     H71207   5.773   2.484   4.320 -0.7023  1.3864 -0.1032
  516MOL0     H71208   5.623   2.516   4.251 -0.3750  1.4313  3.9776
  517MOL0     O71209   5.273   4.038  10.701  0.1385  0.4180  0.4445
  517MOL0     C71210   5.286   3.918  10.664  0.4188  0.4374 -0.5671
  517MOL0     O71211   5.363   3.834  10.729  0.1380 -0.0321 -1.3461
  517MOL0     C71212   5.456   3.883  10.816  0.4640  0.2105  0.2989
  517MOL0     C71213   5.582   3.914  10.763 -0.0299 -0.2799  0.3568
  517MOL0     C71214   5.684   3.956  10.854  0.5373  0.1615 -0.0519
  517MOL0     C71215   5.657   3.974  10.992 -0.4773  0.2930  0.5486
  517MOL0     O71216   5.746   4.039  11.073 -0.0112 -0.2046 -0.3225
  517MOL0     C71217   5.865   4.104  11.018  0.2187  0.1343 -1.0131
  517MOL0     C71218   5.949   4.163  11.124  0.2589  0.0063 -0.0287
  517MOL0     C71219   6.086   4.090  11.151  0.3868 -0.0664 -0.6132
  517MOL0     C71220   6.174   4.148  11.257 -0.7334 -0.0673  0.1522
  517MOL0     C71221   6.325   4.120  11.205  0.6518 -1.0463 -0.5026
  517MOL0     C71222   6.431   4.165  11.305  0.1803  0.4516 -0.8375
  517MOL0     C71223   6.567   4.108  11.265 -0.2627 -0.2463 -0.2862
  517MOL0     C71224   6.681   4.161  11.354  0.2735 -0.4162  0.6141
  517MOL0     N71225   6.705   4.073  11.464  0.1310  0.3992  0.6660
  517MOL0     C71226   6.749   3.946  11.448 -0.0554  0.4709 -0.4426
  517MOL0     C71227   6.745   3.892  11.578  0.5233  1.3440  0.1890
  517MOL0     C71228   6.809   3.771  11.632 -0.4960  0.3526  0.1321
  517MOL0     C71229   6.705   3.663  11.680 -0.2224  0.4635  0.7362
  517MOL0     C71230   6.633   3.701  11.809  0.1953  0.1859  0.0703
  517MOL0     C71231   6.563   3.573  11.884 -0.2748  0.5097 -0.4001
  517MOL0     O71232   6.504   3.617  12.003  0.8282 -0.2928  0.0576
  517MOL0     C71233   6.430   3.526  12.075  0.5967 -0.6331  0.0822
  517MOL0     C71234   6.410   3.394  12.034 -0.1469  0.2782 -0.3017
  517MOL0     C71235   6.344   3.294  12.108  0.8086 -0.0570  0.3669
  517MOL0     C71236   6.327   3.156  12.044  0.6205  0.7382 -1.4996
  517MOL0     C71237   6.291   3.331  12.237  0.0560 -0.6140 -0.4156
  517MOL0     C71238   6.204   3.241  12.330  0.3086 -0.2096  0.4219
  517MOL0     O71239   6.122   3.301  12.415  0.2339  0.2654  0.0835
  517MOL0     C71240   6.044   3.212  12.487  0.2815  0.9192  0.2855
  517MOL0     C71241   5.904   3.201  12.457 -0.0657 -0.7518 -1.1960
  517MOL0     C71242   5.815   3.141  12.553  0.1816  0.0156 -0.3204
  517MOL0     C71243   5.865   3.072  12.666  0.1646  0.0130  0.8884
  517MOL0     O71244   5.787   2.980  12.741  0.2755  0.0109 -0.0598
  517MOL0     C71245   5.662   2.925  12.693  0.7039  0.6289  0.4464
  517MOL0     C71246   5.595   2.821  12.792 -0.5660 -0.3382  0.5596
  517MOL0     C71247   5.595   2.882  12.931 -0.3087 -0.3839 -0.1887
  517MOL0     C71248   5.526   2.783  13.035  0.6853  1.1347  0.5562
  517MOL0     C71249   5.461   2.864  13.141  0.6726 -0.0385  1.5485
  517MOL0     C71250   5.426   2.780  13.256 -0.0815  0.7089 -0.3593
  517MOL0     C71251   5.335   2.655  13.248 -0.0842 -0.0105 -0.5614
  517MOL0     C71252   5.281   2.593  13.379 -0.1404 -0.4423 -0.3376
  517MOL0    Cl71253   5.409   2.513  13.470 -0.0597  0.0229 -0.2385
  517MOL0     C71254   6.003   3.097  12.702 -0.0066  0.3125  1.3430
  517MOL0     C71255   6.088   3.164  12.610  0.9384 -1.1023  0.7613
  517MOL0     O71256   6.199   3.127  12.302 -0.3644  0.7118 -0.2280
  517MOL0     C71257   6.314   3.455  12.282  0.9007 -0.4499 -0.3620
  517MOL0     C71258   6.385   3.553  12.207  0.1928 -0.0027  0.4103
  517MOL0     N71259   6.697   3.987  11.667  0.5522  0.9796 -0.4121
  517MOL0     N71260   6.665   4.090  11.597 -0.5738 -0.7605  0.2424
  517MOL0     C71261   5.529   3.951  11.030 -0.4141 -0.0714 -0.5613
  517MOL0     C71262   5.430   3.904  10.945  0.0021 -0.1155  0.2132
  517MOL0     C71263   5.218   3.872  10.542  0.2224 -0.4547 -0.6685
  517MOL0     C71264   5.255   3.749  10.489 -0.3657 -0.1670 -0.2425
  517MOL0     C71265   5.183   3.692  10.384 -0.4131 -0.2305  0.4055
  517MOL0     C71266   5.078   3.767  10.315  0.4152 -0.5401  0.5234
  517MOL0     O71267   5.014   3.721  10.195 -0.5925 -0.3077 -0.0860
  517MOL0     C71268   5.025   3.589  10.147 -0.3066 -0.2158  0.1573
  517MOL0     C71269   4.929   3.569  10.034 -0.1837 -0.9434  0.2252
  517MOL0     C71270   4.915   3.424   9.984 -0.1395  0.4746  0.5826
  517MOL0     C71271   4.820   3.338  10.061  0.4610  0.0895  0.1760
  517MOL0     C71272   4.867   3.315  10.203  0.3946  0.1988  1.1374
  517MOL0     C71273   4.908   3.311  10.314  0.1802 -0.0175  0.1598
  517MOL0     C71274   5.041   3.892  10.373 -0.0960  0.6480  0.0430
  517MOL0     C71275   5.109   3.943  10.481  0.1430  0.1856  0.3331
  517MOL0     C71276   5.043   4.071  10.531  0.5116  0.7031  0.1656
  517MOL0     H71277   5.611   3.887  10.662  2.4266 -1.3439  1.2705
  517MOL0     H71278   5.786   3.980  10.824  0.5341  0.9062  0.5209
  517MOL0     H71279   5.840   4.187  10.951 -1.1645  0.5329 -0.0392
  517MOL0     H71280   5.928   4.023  10.980 -0.2367 -2.2850  2.8092
  517MOL0     H71281   5.964   4.267  11.097 -1.7511 -0.3049 -2.7007
  517MOL0     H71282   5.890   4.172  11.215  1.3167  1.6352  0.5455
  517MOL0     H71283   6.058   3.986  11.171  0.1927 -0.6761 -3.5951
  517MOL0     H71284   6.140   4.083  11.056  0.2165 -0.4816 -0.6859
  517MOL0     H71285   6.163   4.257  11.262 -0.5903  0.0640 -1.6688
  517MOL0     H71286   6.140   4.110  11.354  1.1534  0.6342  1.1280
  517MOL0     H71287   6.346   4.168  11.109 -3.6183  3.0376  0.2369
  517MOL0     H71288   6.341   4.014  11.185  2.8769 -1.1184  1.2336
  517MOL0     H71289   6.434   4.274  11.302  3.3984  0.5116  0.5482
  517MOL0     H71290   6.419   4.122  11.404  3.4585  0.4011 -0.3700
  517MOL0     H71291   6.591   4.144  11.164  2.5176  1.1843  0.7653
  517MOL0     H71292   6.568   3.999  11.264 -0.5513 -0.2621 -1.8371
  517MOL0     H71293   6.771   4.154  11.292 -0.1287  1.0657 -0.1789
  517MOL0     H71294   6.664   4.264  11.388  0.0987 -1.0854  2.7223
  517MOL0     H71295   6.784   3.912  11.351  0.5971 -0.7694  0.2034
  517MOL0     H71296   6.869   3.794  11.720  1.6065 -2.9547 -0.2340
  517MOL0     H71297   6.875   3.737  11.551 -1.8001  0.7125 -1.1250
  517MOL0     H71298   6.630   3.662  11.600  0.5512  1.6570 -0.0187
  517MOL0     H71299   6.754   3.565  11.691  0.7563  0.7445 -0.8104
  517MOL0     H71300   6.711   3.743  11.874  0.2411 -1.3047  1.0285
  517MOL0     H71301   6.561   3.775  11.772  0.3906 -0.1999 -1.1380
  517MOL0     H71302   6.488   3.521  11.824  0.5453 -1.8956  0.5616
  517MOL0     H71303   6.635   3.494  11.907 -3.1769 -2.2506 -0.2055
  517MOL0     H71304   6.443   3.360  11.936  0.4311  0.1438 -0.0670
  517MOL0     H71305   6.406   3.089  12.080  1.3597  2.4232  0.2132
  517MOL0     H71306   6.329   3.153  11.935 -1.3664 -1.4054 -1.5357
  517MOL0     H71307   6.228   3.114  12.063  1.8049 -1.3743  0.5884
  517MOL0     H71308   5.864   3.241  12.365  0.6248 -2.4518 -2.2911
  517MOL0     H71309   5.714   3.147  12.514  0.2334  0.1678 -0.4300
  517MOL0     H71310   5.589   3.004  12.675 -2.6563 -2.1671  0.6562
  517MOL0     H71311   5.684   2.864  12.604  2.9886  0.7916  0.8392
  517MOL0     H71312   5.501   2.781  12.752 -0.9366 -0.6719  1.7217
  517MOL0     H71313   5.665   2.738  12.781 -0.3948  0.0156 -1.2235
  517MOL0     H71314   5.560   2.986  12.939  0.5806 -0.1421  0.8986
  517MOL0     H71315   5.700   2.890  12.961 -0.5318  0.1625  0.4796
  517MOL0     H71316   5.607   2.733  13.087 -0.6282  0.1221  1.7187
  517MOL0     H71317   5.461   2.720  12.973  0.7937 -1.1418  2.6245
  517MOL0     H71318   5.519   2.952  13.168  0.2657  0.6475  0.2793
  517MOL0     H71319   5.370   2.888  13.085  1.5937  0.6677  0.3058
  517MOL0     H71320   5.369   2.847  13.321  1.4898  1.9459 -0.2002
  517MOL0     H71321   5.514   2.744  13.311 -0.4729 -2.5925 -1.6257
  517MOL0     H71322   5.374   2.569  13.193 -1.0589  0.3926 -1.9383
  517MOL0     H71323   5.250   2.694  13.191  0.3933 -0.2390 -1.4482
  517MOL0     H71324   5.210   2.518  13.344  0.1204 -0.3698 -1.0412
  517MOL0     H71325   5.228   2.670  13.436  2.4602  1.3474 -0.1604
  517MOL0     H71326   6.041   3.052  12.793 -1.0454 -0.5319  1.3843
  517MOL0     H71327   6.192   3.177  12.639  1.2489 -3.2924  0.8490
  517MOL0     H71328   6.287   3.492  12.380  0.2408  1.3610 -1.1811
  517MOL0     H71329   6.406   3.655  12.235  0.8286 -0.2425  0.8228
  517MOL0     H71330   5.488   3.983  11.125 -1.3296 -0.8317 -0.6810
  517MOL0     H71331   5.329   3.896  10.985 -0.0057  0.6106  0.3533
  517MOL0     H71332   5.342   3.705  10.535  0.4033  0.9434 -0.5765
  517MOL0     H71333   5.210   3.596  10.340 -3.9347 -0.7284 -0.9802
  517MOL0     H71334   5.130   3.568  10.128 -0.0735  0.4577  0.6653
  517MOL0     H71335   4.974   3.536  10.228 -0.0186 -0.0049  0.4787
  517MOL0     H71336   4.967   3.627   9.949  2.4358 -1.8388  0.7012
  517MOL0     H71337   4.829   3.601  10.067  0.3632 -0.7881  1.7879
  517MOL0     H71338   4.876   3.428   9.882  0.1296  0.1686  0.4678
  517MOL0     H71339   5.015   3.380   9.975 -0.5208 -0.0286 -1.8300
  517MOL0     H71340   4.804   3.243  10.008  2.4335  1.5522 -3.4101
  517MOL0     H71341   4.726   3.393  10.061  1.1985  1.6147 -3.2946
  517MOL0     H71342   4.943   3.304  10.414 -0.4215  1.6166  0.5236
  517MOL0     H71343   4.958   3.946  10.329 -0.0225  1.2085  0.5715
  517MOL0     H71344   5.116   4.152  10.532  0.8749  0.4138 -0.9489
  517MOL0     H71345   4.957   4.113  10.478 -1.5218 -0.2385  2.5195
  517MOL0     H71346   4.994   4.044  10.625  1.5286 -0.6380  0.3506
  518MOL0     O71347   3.349   4.481   2.115 -0.0599 -0.4622  0.4437
  518MOL0     C71348   3.283   4.587   2.127 -0.3821  0.3215 -0.6695
  518MOL0     O71349   3.345   4.703   2.179 -0.0444  0.1416 -0.0011
  518MOL0     C71350   3.481   4.710   2.191 -0.3207 -0.5801  0.1762
  518MOL0     C71351   3.536   4.697   2.318  0.9505 -0.1089  0.3991
  518MOL0     C71352   3.677   4.703   2.338  0.3522  0.3752  0.9967
  518MOL0     C71353   3.764   4.730   2.231  0.2566  0.0965 -0.5912
  518MOL0     O71354   3.901   4.735   2.262 -0.0207  0.4265 -0.6345
  518MOL0     C71355   3.998   4.761   2.167 -0.9778 -0.1382  0.4299
  518MOL0     C71356   4.100   4.868   2.232  0.2519  0.1015  0.4564
  518MOL0     C71357   4.163   4.815   2.362 -0.6864  0.5499 -0.3999
  518MOL0     C71358   4.271   4.924   2.402 -0.2782 -0.5457  0.7901
  518MOL0     C71359   4.345   4.877   2.526  0.0248 -0.1900  0.2237
  518MOL0     C71360   4.429   4.989   2.585  0.3863 -0.1708  0.8688
  518MOL0     C71361   4.525   4.943   2.685 -0.3169 -0.5405 -1.2180
  518MOL0     C71362   4.465   4.955   2.820 -0.1976  0.3067  0.0330
  518MOL0     N71363   4.563   4.914   2.920 -0.5343  0.1867  0.2326
  518MOL0     C71364   4.517   4.859   3.042 -0.2129  0.0064 -0.1517
  518MOL0     C71365   4.614   4.905   3.127 -0.1009  0.6862  0.5981
  518MOL0     C71366   4.587   4.890   3.272  0.4045 -0.1399  0.1273
  518MOL0     C71367   4.567   5.031   3.331 -0.2593 -0.5206  0.5265
  518MOL0     C71368   4.644   5.050   3.470 -0.1979  0.7378 -0.1834
  518MOL0     C71369   4.593   4.955   3.580  0.3932 -0.9057 -0.6121
  518MOL0     O71370   4.474   5.021   3.639  0.1953  0.2743  0.6117
  518MOL0     C71371   4.360   4.945   3.641  0.4180  0.7511 -0.4853
  518MOL0     C71372   4.346   4.820   3.697  0.0777  0.2568 -0.5053
  518MOL0     C71373   4.222   4.751   3.702 -0.2217 -0.5538 -0.7696
  518MOL0     C71374   4.223   4.611   3.764 -0.2218  0.4218 -0.1280
  518MOL0     C71375   4.107   4.813   3.660  0.2761 -0.0086  0.7885
  518MOL0     C71376   3.968   4.766   3.673  0.1650 -0.1815 -0.8455
  518MOL0     O71377   3.875   4.812   3.585 -0.0954  0.2186  0.1395
  518MOL0     C71378   3.744   4.773   3.607 -0.2065 -1.3182  0.7976
  518MOL0     C71379   3.637   4.869   3.591 -0.7572 -0.3142  0.8361
  518MOL0     C71380   3.501   4.833   3.600  0.3218 -0.1407  0.4716
  518MOL0     C71381   3.465   4.702   3.624 -0.4922  0.4898  0.4427
  518MOL0     O71382   3.333   4.669   3.649  0.0936  0.4362 -0.0053
  518MOL0     C71383   3.236   4.732   3.564  0.1581 -0.1716  0.1187
  518MOL0     C71384   3.103   4.655   3.557 -0.1819  0.4286 -0.2462
  518MOL0     C71385   3.035   4.646   3.692  0.3383  0.6900 -0.1340
  518MOL0     C71386   2.909   4.555   3.683 -0.4976  0.8159 -0.2451
  518MOL0     C71387   2.876   4.476   3.818 -0.8153 -0.1990  1.0096
  518MOL0     C71388   2.836   4.558   3.938 -0.2059  0.1765  0.3277
  518MOL0     C71389   2.693   4.614   3.933  0.5371 -0.2964  1.0784
  518MOL0     C71390   2.678   4.727   4.043 -0.5187 -0.4172  0.1237
  518MOL0    Cl71391   2.731   4.666   4.199  0.0219  0.4970  0.1755
  518MOL0     C71392   3.567   4.612   3.641  0.4773 -0.3397  0.3744
  518MOL0     C71393   3.702   4.642   3.639  0.3445 -0.4860 -0.7824
  518MOL0     O71394   3.937   4.702   3.773 -0.4522  0.0659  0.3642
  518MOL0     C71395   4.118   4.945   3.613  0.2599  0.3845 -0.2539
  518MOL0     C71396   4.243   5.003   3.597  0.5095 -1.3038  0.5489
  518MOL0     N71397   4.715   4.967   3.056  0.8031 -0.4287 -0.3873
  518MOL0     N71398   4.691   4.970   2.931  0.0111  0.7437 -0.0464
  518MOL0     C71399   3.702   4.752   2.106 -0.4316  0.3206 -0.1711
  518MOL0     C71400   3.565   4.746   2.085  0.1823  0.8210  0.7241
  518MOL0     C71401   3.133   4.576   2.095 -0.7440  0.1984 -0.4264
  518MOL0     C71402   3.074   4.700   2.085  0.7475 -0.7408 -0.4048
  518MOL0     C71403   2.933   4.714   2.078 -0.2448 -0.0935  0.0023
  518MOL0     C71404   2.857   4.601   2.059  0.0653  0.6216 -1.4414
  518MOL0     O71405   2.726   4.630   2.049  0.2064  0.0556 -0.3868
  518MOL0     C71406   2.626   4.529   2.028  0.6257 -0.2940 -0.3376
  518MOL0     C71407   2.490   4.584   1.967  0.1086 -0.6598  0.5860
  518MOL0     C71408   2.413   4.669   2.066 -0.5708  0.0755  0.4806
  518MOL0     C71409   2.272   4.690   2.010  0.4636 -0.0019 -0.5773
  518MOL0     C71410   2.208   4.804   2.077 -0.0034  0.3465 -0.6779
  518MOL0     C71411   2.152   4.899   2.126  0.0792  0.1715 -0.8865
  518MOL0     C71412   2.919   4.473   2.047  0.7945 -0.5777 -0.5693
  518MOL0     C71413   3.053   4.456   2.075  0.5178 -0.1479 -0.5101
  518MOL0     C71414   3.110   4.311   2.096 -0.5565 -1.3328 -0.0777
  518MOL0     H71415   3.462   4.669   2.392  1.4092 -0.4815  0.7213
  518MOL0     H71416   3.722   4.681   2.434  2.3927 -0.9534 -0.1718
  518MOL0     H71417   3.967   4.792   2.067 -1.8480 -1.7979  0.1392
  518MOL0     H71418   4.055   4.668   2.153 -0.2280  0.6713 -2.6701
  518MOL0     H71419   4.175   4.901   2.158 -1.6017 -0.0553 -1.6062
  518MOL0     H71420   4.043   4.961   2.245  0.3763  0.4620 -1.2325
  518MOL0     H71421   4.089   4.806   2.443  0.6295 -3.3443  0.5982
  518MOL0     H71422   4.211   4.718   2.345 -3.5898 -0.5157 -3.9224
  518MOL0     H71423   4.342   4.933   2.319  1.3308 -0.8408  2.0582
  518MOL0     H71424   4.230   5.024   2.416 -1.0790 -0.6189 -0.8395
  518MOL0     H71425   4.406   4.790   2.500  0.6854  0.6522 -1.1962
  518MOL0     H71426   4.265   4.844   2.593 -1.2425 -1.8614 -1.9506
  518MOL0     H71427   4.491   5.030   2.506 -1.7612  0.0414 -0.8072
  518MOL0     H71428   4.364   5.074   2.609 -1.3002 -0.4370 -2.2850
  518MOL0     H71429   4.600   5.022   2.690 -1.2456  0.2989  0.1737
  518MOL0     H71430   4.564   4.844   2.660  0.3521 -0.5212 -0.3030
  518MOL0     H71431   4.431   5.058   2.832  1.0198  1.1185 -2.8121
  518MOL0     H71432   4.379   4.887   2.826  1.6647 -2.2832 -0.9583
  518MOL0     H71433   4.417   4.830   3.071  0.0147 -1.5172 -0.7939
  518MOL0     H71434   4.664   4.833   3.324 -0.8231 -0.7783  1.2872
  518MOL0     H71435   4.502   4.824   3.288 -0.5043  0.1545 -2.9058
  518MOL0     H71436   4.616   5.099   3.260 -1.5053 -1.1258 -0.9663
  518MOL0     H71437   4.461   5.055   3.346 -1.2663 -3.6456 -0.8123
  518MOL0     H71438   4.753   5.043   3.473 -0.2890 -1.0631  0.0653
  518MOL0     H71439   4.630   5.155   3.500 -2.1126  0.2577  0.7483
  518MOL0     H71440   4.572   4.855   3.542  3.2532 -2.0153  0.4445
  518MOL0     H71441   4.666   4.940   3.660 -2.2016  2.1913  2.6470
  518MOL0     H71442   4.439   4.789   3.743 -0.5426  3.0085  3.0582
  518MOL0     H71443   4.292   4.542   3.716  0.7363  1.0844  0.2617
  518MOL0     H71444   4.129   4.555   3.755 -1.8507  2.5087  2.2603
  518MOL0     H71445   4.258   4.607   3.868  1.4033 -0.4474 -0.6786
  518MOL0     H71446   3.667   4.969   3.561 -0.0019 -0.7806 -0.0264
  518MOL0     H71447   3.428   4.913   3.590  0.2327 -0.4564 -2.0336
  518MOL0     H71448   3.220   4.837   3.591 -3.1438 -0.8263  1.1625
  518MOL0     H71449   3.270   4.737   3.460 -0.7034 -2.0736 -0.2958
  518MOL0     H71450   3.032   4.712   3.496 -0.6274  2.0525  1.6895
  518MOL0     H71451   3.125   4.555   3.519 -2.9760  0.1992 -1.5385
  518MOL0     H71452   3.003   4.741   3.737  2.4301  1.0741  0.6603
  518MOL0     H71453   3.092   4.586   3.762 -0.8373  0.2796  0.5049
  518MOL0     H71454   2.928   4.474   3.613  1.2563 -0.4894  1.6202
  518MOL0     H71455   2.822   4.609   3.644 -0.2088  1.0875 -0.5171
  518MOL0     H71456   2.792   4.409   3.796  0.1382 -0.4619 -2.2891
  518MOL0     H71457   2.964   4.420   3.851  0.9399  2.7807  1.8178
  518MOL0     H71458   2.909   4.636   3.959  0.9003 -1.2913  2.3466
  518MOL0     H71459   2.824   4.495   4.027 -3.0016  3.0512  2.2120
  518MOL0     H71460   2.625   4.530   3.943  0.9571 -0.6716  0.8478
  518MOL0     H71461   2.678   4.668   3.838  2.6299  1.4224  1.6291
  518MOL0     H71462   2.575   4.762   4.038 -0.3882 -0.1533 -4.3077
  518MOL0     H71463   2.748   4.807   4.017 -0.7565 -0.4579 -0.6373
  518MOL0     H71464   3.538   4.509   3.662  2.7415 -0.9143  1.0147
  518MOL0     H71465   3.773   4.563   3.659  0.7058 -0.0839 -0.4600
  518MOL0     H71466   4.029   4.985   3.566  0.2380 -0.4882 -0.9828
  518MOL0     H71467   4.250   5.091   3.534  0.7867 -1.4509  0.3728
  518MOL0     H71468   3.765   4.767   2.019  0.7750  0.3283  0.6771
  518MOL0     H71469   3.516   4.744   1.988 -1.0318 -1.4858  1.2908
  518MOL0     H71470   3.130   4.793   2.093  1.9122 -1.5951  3.3166
  518MOL0     H71471   2.885   4.811   2.079 -1.8403 -0.8508  1.2191
  518MOL0     H71472   2.667   4.449   1.966  1.5591 -1.0872  1.2318
  518MOL0     H71473   2.604   4.480   2.124 -1.4141  0.0375 -0.5894
  518MOL0     H71474   2.430   4.500   1.931  0.6617 -0.0696 -1.9079
  518MOL0     H71475   2.520   4.644   1.881 -0.7616 -3.0973 -1.5182
  518MOL0     H71476   2.401   4.634   2.168  2.3202 -1.6548  0.3376
  518MOL0     H71477   2.462   4.767   2.073 -2.7112  1.2500 -0.0769
  518MOL0     H71478   2.207   4.614   2.054  2.6243 -0.9727  1.2039
  518MOL0     H71479   2.263   4.697   1.902  0.6135 -0.9897 -0.6687
  518MOL0     H71480   2.116   4.988   2.174  1.5880 -1.1997  3.2917
  518MOL0     H71481   2.863   4.380   2.045 -1.3427  0.6276  0.0976
  518MOL0     H71482   3.034   4.233   2.103  0.0418 -1.8714  0.6268
  518MOL0     H71483   3.175   4.296   2.010  0.6242  3.2410 -0.2588
  518MOL0     H71484   3.159   4.308   2.194  1.9537 -0.1646 -1.2120
  519MOL0     O71485   4.147  11.288   3.485 -0.5599 -0.1890 -0.2536
  519MOL0     C71486   4.221  11.197   3.519 -0.0229  0.2399 -0.6633
  519MOL0     O71487   4.204  11.068   3.485  0.5662  1.0033 -0.0339
  519MOL0     C71488   4.118  11.026   3.384  0.7660 -0.5524  0.3563
  519MOL0     C71489   4.075  11.100   3.268  0.8246 -0.2598 -0.2097
  519MOL0     C71490   4.015  11.030   3.160  0.4541  0.4873  0.4177
  519MOL0     C71491   3.993  10.893   3.166  0.5917  0.6785 -0.2269
  519MOL0     O71492   3.942  10.842   3.053 -0.1196  0.5627 -0.0986
  519MOL0     C71493   3.896  10.706   3.048  0.1993  0.5267 -0.4418
  519MOL0     C71494   3.874  10.682   2.905 -0.2058 -0.2289  0.3324
  519MOL0     C71495   3.761  10.765   2.841  0.3551  1.1347 -0.4927
  519MOL0     C71496   3.632  10.692   2.882  0.6351  0.2774 -0.2018
  519MOL0     C71497   3.504  10.749   2.807  0.8231 -0.0454  0.5487
  519MOL0     C71498   3.381  10.709   2.874  0.6874  0.3506 -0.9739
  519MOL0     C71499   3.275  10.735   2.769  0.2836 -0.5278 -0.2107
  519MOL0     C71500   3.138  10.694   2.803  0.9397 -0.1399 -1.0665
  519MOL0     N71501   3.070  10.782   2.903  1.1391 -0.4439 -0.0983
  519MOL0     C71502   3.020  10.899   2.855 -0.3327 -1.4051  0.0017
  519MOL0     C71503   3.012  10.983   2.958  0.4022  0.3645 -0.2620
  519MOL0     C71504   2.952  11.118   2.957 -0.2908 -0.9399  0.1474
  519MOL0     C71505   3.049  11.231   2.932  0.0728 -0.2636  0.3750
  519MOL0     C71506   2.970  11.356   2.893 -0.2959 -0.2853 -0.5593
  519MOL0     C71507   3.053  11.476   2.870 -0.4031  0.0081 -0.5613
  519MOL0     O71508   3.094  11.534   3.000  0.0753 -0.0874  0.2914
  519MOL0     C71509   3.227  11.578   3.018 -0.6208 -0.0785 -0.3937
  519MOL0     C71510   3.238  11.673   3.121  0.6417 -0.4588  0.9298
  519MOL0     C71511   3.363  11.718   3.165  0.1499 -0.2939  0.0821
  519MOL0     C71512   3.353  11.811   3.287 -0.6891  0.5082  0.1077
  519MOL0     C71513   3.483  11.677   3.105  0.6207 -0.5136  0.1225
  519MOL0     C71514   3.621  11.721   3.141  0.4023  0.1959 -0.8079
  519MOL0     O71515   3.710  11.729   3.045 -0.0529 -0.5038  0.3724
  519MOL0     C71516   3.842  11.748   3.084 -0.9599 -0.1791 -0.1466
  519MOL0     C71517   3.924  11.640   3.111 -0.2815 -0.5374 -0.9885
  519MOL0     C71518   4.052  11.653   3.161 -0.1951 -0.1677 -0.8378
  519MOL0     C71519   4.104  11.780   3.179 -0.8716  0.4004  0.1166
  519MOL0     O71520   4.239  11.798   3.210  0.9697 -0.1195 -0.8679
  519MOL0     C71521   4.281  11.936   3.256 -0.6424  0.2040  1.0697
  519MOL0     C71522   4.431  11.924   3.295 -0.4501  0.2407  0.2365
  519MOL0     C71523   4.479  12.052   3.357  0.3407 -0.5204 -0.2139
  519MOL0     C71524   4.629  12.039   3.393 -0.7804 -0.3173  0.4901
  519MOL0     C71525   4.688  12.145   3.488 -0.2960  0.4710  0.5678
  519MOL0     C71526   4.843  12.149   3.488 -0.1742  0.0728 -0.0077
  519MOL0     C71527   4.903  12.283   3.553  0.8551 -0.2524  0.4883
  519MOL0     C71528   5.048  12.273   3.549 -0.2575  0.8742 -0.1348
  519MOL0    Cl71529   5.117  12.169   3.691  0.0429 -0.0598  0.1028
  519MOL0     C71530   4.015  11.886   3.157 -0.3044 -0.6626  0.6232
  519MOL0     C71531   3.884  11.868   3.121 -0.0111 -0.6754 -0.2246
  519MOL0     O71532   3.650  11.742   3.259  0.2274 -0.0484 -1.2500
  519MOL0     C71533   3.472  11.579   3.000  0.2170  0.3143  0.0809
  519MOL0     C71534   3.343  11.524   2.961 -0.1023 -0.5065  0.1946
  519MOL0     N71535   3.057  10.920   3.076 -0.5014  0.2096 -1.1546
  519MOL0     N71536   3.093  10.802   3.036 -0.0886 -0.5419 -0.3520
  519MOL0     C71537   4.036  10.822   3.274  0.9449  0.3997  0.2441
  519MOL0     C71538   4.094  10.888   3.383 -0.8696  0.7386 -0.1567
  519MOL0     C71539   4.319  11.240   3.620  0.2033  0.5524  0.5021
  519MOL0     C71540   4.374  11.139   3.704  0.4051  0.7889 -0.2772
  519MOL0     C71541   4.475  11.168   3.793 -0.6556 -0.1569  0.0446
  519MOL0     C71542   4.533  11.292   3.796 -0.2381  0.5135 -0.6685
  519MOL0     O71543   4.634  11.298   3.892  0.1982 -0.1306  0.3483
  519MOL0     C71544   4.723  11.410   3.888 -0.4222 -0.7827 -0.5729
  519MOL0     C71545   4.808  11.426   3.756  1.3855 -0.2413 -0.3550
  519MOL0     C71546   4.936  11.342   3.772 -0.3322  0.5951 -0.1912
  519MOL0     C71547   4.909  11.181   3.751 -0.3997 -0.0127  0.2147
  519MOL0     C71548   4.814  11.156   3.639 -0.6035 -0.0575  0.6648
  519MOL0     C71549   4.739  11.118   3.553 -0.1367 -0.5593  0.5500
  519MOL0     C71550   4.476  11.392   3.725 -0.5652  0.0152  0.3004
  519MOL0     C71551   4.374  11.370   3.631  0.3541 -0.5336  0.0994
  519MOL0     C71552   4.324  11.490   3.553  0.1685  0.1779  0.2140
  519MOL0     H71553   4.095  11.204   3.244  0.0209  0.0127  0.2675
  519MOL0     H71554   3.959  11.079   3.081 -1.1239 -1.4660  0.2525
  519MOL0     H71555   3.801  10.695   3.100  0.2037  0.7169 -0.3929
  519MOL0     H71556   3.975  10.637   3.078  2.0072  2.1422 -1.2886
  519MOL0     H71557   3.965  10.713   2.852 -1.2326  0.0439 -1.3352
  519MOL0     H71558   3.863  10.578   2.875  0.4295 -0.3827  0.6148
  519MOL0     H71559   3.767  10.870   2.870  2.0751  1.0080 -0.2817
  519MOL0     H71560   3.778  10.758   2.733 -1.7557 -0.8131 -0.7836
  519MOL0     H71561   3.636  10.585   2.856  0.2690  0.2848 -0.2962
  519MOL0     H71562   3.610  10.704   2.988 -0.1151 -1.9576 -0.0445
  519MOL0     H71563   3.518  10.726   2.701  1.0676  0.9922  0.3444
  519MOL0     H71564   3.502  10.858   2.810  1.5127 -0.0470  2.5354
  519MOL0     H71565   3.385  10.604   2.903  2.1449  0.0739 -2.0669
  519MOL0     H71566   3.369  10.771   2.964  0.2090  0.1057 -0.8673
  519MOL0     H71567   3.301  10.668   2.687  3.8675  0.3666  0.0047
  519MOL0     H71568   3.290  10.842   2.755 -1.3390 -0.1803  0.4966
  519MOL0     H71569   3.077  10.704   2.713  1.1488 -1.2332 -1.3527
  519MOL0     H71570   3.130  10.590   2.837 -3.4369 -0.8004 -3.4514
  519MOL0     H71571   2.989  10.927   2.754 -0.6403  2.2643  0.9590
  519MOL0     H71572   2.900  11.138   3.052 -0.7746 -1.9660  0.1201
  519MOL0     H71573   2.879  11.115   2.875 -0.8399 -1.5338  0.6397
  519MOL0     H71574   3.107  11.247   3.023 -0.5219  0.1683  0.6798
  519MOL0     H71575   3.112  11.195   2.850  0.0380  0.6184 -0.0438
  519MOL0     H71576   2.910  11.334   2.805  4.5564 -1.7030 -3.9709
  519MOL0     H71577   2.906  11.384   2.977 -0.3468 -0.5596 -0.5050
  519MOL0     H71578   3.141  11.449   2.810 -1.8647 -1.9619 -1.8986
  519MOL0     H71579   2.997  11.563   2.833 -2.3237 -0.1814  1.7036
  519MOL0     H71580   3.147  11.702   3.172  1.0166  1.5894  0.4974
  519MOL0     H71581   3.255  11.858   3.297  0.0011  2.1196 -0.3741
  519MOL0     H71582   3.426  11.891   3.270 -1.1320  0.8865 -0.0354
  519MOL0     H71583   3.379  11.755   3.378  0.4825 -0.1324 -0.5967
  519MOL0     H71584   3.896  11.539   3.081 -1.9909  0.3494 -2.6607
  519MOL0     H71585   4.113  11.565   3.181 -3.9740 -2.7668  0.3475
  519MOL0     H71586   4.272  12.007   3.173 -0.3511 -0.6798  0.2589
  519MOL0     H71587   4.230  11.979   3.343  1.2625 -1.1187  2.9299
  519MOL0     H71588   4.444  11.848   3.372  0.0149  0.2342  0.1489
  519MOL0     H71589   4.488  11.908   3.203  2.9748  0.3619  2.1946
  519MOL0     H71590   4.422  12.075   3.447  2.8129 -0.9923  1.5617
  519MOL0     H71591   4.457  12.141   3.296 -1.0729 -2.1462 -2.2367
  519MOL0     H71592   4.679  12.051   3.296  2.8204 -1.6591  2.0334
  519MOL0     H71593   4.641  11.945   3.448 -1.8663  0.8061  2.7858
  519MOL0     H71594   4.653  12.245   3.460 -0.6765  0.9448  2.5900
  519MOL0     H71595   4.655  12.144   3.592 -2.0445  0.7254  0.0407
  519MOL0     H71596   4.872  12.138   3.383  0.8232 -2.9501  0.4897
  519MOL0     H71597   4.872  12.058   3.542 -0.9127 -1.5159 -2.1811
  519MOL0     H71598   4.879  12.302   3.658  1.7493  0.2646  0.6089
  519MOL0     H71599   4.861  12.367   3.496 -1.7788 -1.2567  0.8147
  519MOL0     H71600   5.090  12.374   3.559  2.0640 -0.0243 -0.2199
  519MOL0     H71601   5.084  12.231   3.455 -0.4320  0.8324 -0.1816
  519MOL0     H71602   4.049  11.988   3.168  1.2668 -1.1011  0.0317
  519MOL0     H71603   3.817  11.953   3.114  0.7539 -0.1422 -1.5726
  519MOL0     H71604   3.566  11.549   2.954  1.5583  3.0104  0.8777
  519MOL0     H71605   3.331  11.437   2.897 -0.6292 -1.0239  0.9758
  519MOL0     H71606   4.008  10.717   3.279 -1.7049  1.0438  0.6479
  519MOL0     H71607   4.127  10.820   3.461 -0.5723 -0.7251 -1.5040
  519MOL0     H71608   4.343  11.035   3.705  0.7151  0.6838  1.5621
  519MOL0     H71609   4.507  11.095   3.865  0.2629 -1.0012 -1.1798
  519MOL0     H71610   4.655  11.495   3.898  1.0854  0.6289 -1.7979
  519MOL0     H71611   4.795  11.418   3.969  0.7775 -0.2653 -1.6637
  519MOL0     H71612   4.837  11.530   3.742 -0.6310  0.4943  0.4917
  519MOL0     H71613   4.749  11.407   3.666 -1.3764 -4.9072  2.0344
  519MOL0     H71614   5.000  11.380   3.692 -0.7594  1.5790 -0.0800
  519MOL0     H71615   4.987  11.375   3.863 -2.2794  2.3025  0.3529
  519MOL0     H71616   4.861  11.144   3.842 -0.1642  0.4353  0.5230
  519MOL0     H71617   5.005  11.136   3.725 -0.3001  0.5025 -0.3425
  519MOL0     H71618   4.685  11.069   3.474  0.5752 -1.8155  0.8168
  519MOL0     H71619   4.514  11.493   3.733 -1.1948  0.2308  0.7003
  519MOL0     H71620   4.329  11.478   3.445  1.1248  3.0772 -0.1607
  519MOL0     H71621   4.220  11.513   3.578 -1.2261 -2.8633 -2.1611
  519MOL0     H71622   4.381  11.578   3.586  1.2610 -0.2665 -0.4308
  520MOL0     O71623   5.167   9.454   4.183 -0.0305  0.1711 -0.4524
  520MOL0     C71624   5.066   9.413   4.238 -0.9489 -0.1025  0.4696
  520MOL0     O71625   5.065   9.288   4.297 -0.2317  0.5992 -0.0870
  520MOL0     C71626   5.186   9.231   4.328 -0.1963 -0.1116 -0.9546
  520MOL0     C71627   5.259   9.167   4.220  0.8574 -0.0717  0.1301
  520MOL0     C71628   5.383   9.103   4.249 -0.0726 -0.7546  0.7399
  520MOL0     C71629   5.433   9.106   4.381 -0.0330  0.8556  0.0049
  520MOL0     O71630   5.548   9.049   4.422 -0.1463 -0.1982 -0.2457
  520MOL0     C71631   5.655   9.023   4.343 -0.2766 -0.4987 -0.1759
  520MOL0     C71632   5.781   9.024   4.431 -0.1052 -0.3341  0.9899
  520MOL0     C71633   5.882   8.907   4.382  0.8434 -0.2742 -0.2543
  520MOL0     C71634   6.020   8.935   4.441 -0.4587  0.0039 -0.3447
  520MOL0     C71635   6.094   8.807   4.421  0.8454 -0.2691 -0.3461
  520MOL0     C71636   6.239   8.835   4.466 -0.0575  0.4885  0.2031
  520MOL0     C71637   6.310   8.708   4.465 -0.5707  0.2378  0.1631
  520MOL0     C71638   6.445   8.705   4.549  0.3853  0.5659 -0.2340
  520MOL0     N71639   6.474   8.572   4.595 -0.5249 -0.0083  0.0994
  520MOL0     C71640   6.485   8.537   4.726 -1.0919  0.9670  0.0068
  520MOL0     C71641   6.502   8.399   4.730 -0.3447 -0.1041  0.1197
  520MOL0     C71642   6.536   8.331   4.856  0.2387 -0.3174 -0.4410
  520MOL0     C71643   6.419   8.327   4.957  0.0266  0.0045 -0.0688
  520MOL0     C71644   6.297   8.244   4.937  0.1680 -0.2596  0.2196
  520MOL0     C71645   6.197   8.320   4.854  0.2177  0.7809  1.2375
  520MOL0     O71646   6.076   8.248   4.862 -0.5453 -0.4223 -0.3051
  520MOL0     C71647   5.970   8.297   4.788 -0.2857  0.0758  0.1594
  520MOL0     C71648   5.843   8.242   4.789  0.5298  0.3500 -0.2844
  520MOL0     C71649   5.724   8.296   4.743 -0.0845  0.3224  0.4086
  520MOL0     C71650   5.598   8.216   4.777 -0.5291 -0.6305  0.0303
  520MOL0     C71651   5.740   8.410   4.669  0.5127 -0.3788 -0.4991
  520MOL0     C71652   5.621   8.485   4.620 -0.1232 -0.4382  0.3646
  520MOL0     O71653   5.625   8.625   4.636  0.2560  0.0193  0.9525
  520MOL0     C71654   5.508   8.691   4.595  0.3424  0.0141  0.5206
  520MOL0     C71655   5.417   8.725   4.695  1.2661 -0.4078  0.1887
  520MOL0     C71656   5.288   8.777   4.654  0.0122 -0.2951 -0.7848
  520MOL0     C71657   5.255   8.790   4.521  0.1904 -0.3196 -0.0032
  520MOL0     O71658   5.124   8.824   4.497 -0.3280 -0.0241 -0.0509
  520MOL0     C71659   5.105   8.855   4.360 -0.5161 -0.6442  0.5007
  520MOL0     C71660   4.964   8.918   4.349 -1.0152  0.4357 -0.2255
  520MOL0     C71661   4.849   8.856   4.425 -0.8052 -0.4585  0.2690
  520MOL0     C71662   4.744   8.963   4.470  0.4730  0.5338  0.4646
  520MOL0     C71663   4.789   9.083   4.553 -0.6692  1.4658  0.3558
  520MOL0     C71664   4.890   9.045   4.664 -0.0324  0.7851  0.5559
  520MOL0     C71665   4.938   9.178   4.732  0.4458 -0.6881  0.7640
  520MOL0     C71666   5.042   9.134   4.848  0.6610 -0.1233 -0.7545
  520MOL0    Cl71667   5.126   9.274   4.924  0.6397  0.3203  0.4231
  520MOL0     C71668   5.354   8.766   4.430 -0.5136  0.1989  1.3793
  520MOL0     C71669   5.475   8.703   4.460  0.6882 -0.5143  0.3718
  520MOL0     O71670   5.523   8.420   4.580  1.3877 -0.3569 -0.0786
  520MOL0     C71671   5.865   8.478   4.665 -0.1910 -0.4842 -0.9400
  520MOL0     C71672   5.979   8.415   4.718  0.0435 -0.2241 -0.5104
  520MOL0     N71673   6.510   8.357   4.600 -0.0404  0.6496  0.1077
  520MOL0     N71674   6.500   8.462   4.517  0.3062 -0.0992  0.0795
  520MOL0     C71675   5.356   9.168   4.483 -0.0988  0.2047  0.3319
  520MOL0     C71676   5.233   9.221   4.457  0.3340  0.2329  0.8352
  520MOL0     C71677   4.932   9.476   4.225  0.4336  0.2942  0.6628
  520MOL0     C71678   4.845   9.457   4.341 -0.5855 -0.0202  0.2954
  520MOL0     C71679   4.720   9.522   4.338 -0.3557 -0.2083 -0.1177
  520MOL0     C71680   4.680   9.608   4.233  0.3329 -0.0251  0.4955
  520MOL0     O71681   4.564   9.670   4.250  0.1412  0.5581  0.5723
  520MOL0     C71682   4.516   9.774   4.160  1.1133 -0.1688  0.4813
  520MOL0     C71683   4.439   9.713   4.047 -0.0863  0.0214  0.4062
  520MOL0     C71684   4.305   9.654   4.104  0.1276 -0.2582  0.7766
  520MOL0     C71685   4.234   9.733   4.209 -0.4871 -0.5216  0.1925
  520MOL0     C71686   4.104   9.679   4.214 -0.8991 -0.6863 -0.2446
  520MOL0     C71687   3.987   9.642   4.226  0.0501 -0.6982 -0.5900
  520MOL0     C71688   4.770   9.621   4.124 -0.2877  0.5626  0.3959
  520MOL0     C71689   4.898   9.559   4.121  1.0455 -0.7849  0.4249
  520MOL0     C71690   4.981   9.602   4.005 -0.4852  0.4116  0.2839
  520MOL0     H71691   5.218   9.158   4.119 -2.4486 -3.1521  1.5219
  520MOL0     H71692   5.429   9.057   4.162  1.3497 -2.2781  2.2200
  520MOL0     H71693   5.659   9.097   4.263 -0.9091  0.0267  0.2670
  520MOL0     H71694   5.641   8.928   4.291  0.7929 -0.6496 -0.2153
  520MOL0     H71695   5.815   9.126   4.452 -1.3378 -0.3193  3.2299
  520MOL0     H71696   5.769   8.992   4.535  1.1945  1.2631  1.6727
  520MOL0     H71697   5.841   8.813   4.419 -2.1494  0.9670 -0.1270
  520MOL0     H71698   5.901   8.919   4.275  2.9798 -0.0140  0.1191
  520MOL0     H71699   6.083   9.012   4.394  0.3638 -1.8536 -2.4880
  520MOL0     H71700   6.012   8.952   4.548 -2.1124 -2.6247  0.0143
  520MOL0     H71701   6.095   8.762   4.322  4.3001  0.7205 -0.8989
  520MOL0     H71702   6.043   8.739   4.490  0.1056  1.3450  0.7684
  520MOL0     H71703   6.287   8.895   4.387 -1.7351 -0.9417 -2.0263
  520MOL0     H71704   6.241   8.882   4.565 -0.8368  1.1674 -0.0902
  520MOL0     H71705   6.331   8.678   4.361  0.0103 -0.7451  0.5437
  520MOL0     H71706   6.245   8.632   4.511 -0.1862 -0.8905 -1.0990
  520MOL0     H71707   6.525   8.751   4.492 -1.2129  1.9342 -1.4836
  520MOL0     H71708   6.414   8.768   4.634 -2.2342  0.1087 -0.7596
  520MOL0     H71709   6.478   8.606   4.809 -2.5129  2.1562 -1.0311
  520MOL0     H71710   6.621   8.382   4.901 -2.4661  3.2831  1.1388
  520MOL0     H71711   6.557   8.227   4.831  1.3340 -0.1667 -0.1731
  520MOL0     H71712   6.471   8.285   5.044  4.0151  0.6597 -1.9160
  520MOL0     H71713   6.375   8.423   4.984 -2.6636 -1.2749  0.4759
  520MOL0     H71714   6.320   8.157   4.875 -0.0539  0.2678 -0.6195
  520MOL0     H71715   6.251   8.213   5.031  0.0173  2.2527  1.0586
  520MOL0     H71716   6.167   8.420   4.887  1.3904  0.8479  2.1608
  520MOL0     H71717   6.225   8.319   4.748  0.2513 -1.2948  1.2419
  520MOL0     H71718   5.839   8.147   4.840  2.2886  0.3339 -0.1465
  520MOL0     H71719   5.507   8.275   4.792  0.7436  1.4230  0.1438
  520MOL0     H71720   5.615   8.163   4.871 -1.1903 -1.6003 -0.3826
  520MOL0     H71721   5.575   8.137   4.705  0.5684 -1.2974  0.3849
  520MOL0     H71722   5.437   8.715   4.801 -0.6491  1.3356  0.7733
  520MOL0     H71723   5.219   8.810   4.731  0.2651  0.7195 -0.9894
  520MOL0     H71724   5.172   8.930   4.320 -1.6972 -0.9466 -2.2419
  520MOL0     H71725   5.102   8.762   4.302 -0.6107  0.2636 -0.9837
  520MOL0     H71726   4.979   9.023   4.377 -1.2819  0.5004 -0.3237
  520MOL0     H71727   4.947   8.911   4.241  0.3246  2.1763 -0.6047
  520MOL0     H71728   4.892   8.812   4.515  2.0862 -0.2697 -0.9050
  520MOL0     H71729   4.803   8.777   4.366  0.8658 -1.3910  0.1333
  520MOL0     H71730   4.675   8.914   4.539  0.3109  1.3041  0.8681
  520MOL0     H71731   4.697   8.992   4.376 -0.8320 -0.7080  0.7030
  520MOL0     H71732   4.822   9.164   4.487  1.8664  0.4186  0.2279
  520MOL0     H71733   4.701   9.122   4.605 -1.4935  0.2929 -0.1116
  520MOL0     H71734   4.984   9.000   4.631  1.9571  3.1671  2.5162
  520MOL0     H71735   4.841   8.978   4.735  2.2886 -1.2924  0.3423
  520MOL0     H71736   4.853   9.230   4.775 -1.8333 -2.3380 -1.4533
  520MOL0     H71737   4.984   9.243   4.657 -0.9506  0.2678  0.7022
  520MOL0     H71738   5.104   9.051   4.812  0.4340 -0.1104 -1.1771
  520MOL0     H71739   4.979   9.102   4.931  0.2783  0.8409 -0.6577
  520MOL0     H71740   5.351   8.769   4.321  1.1596 -3.5545  1.0873
  520MOL0     H71741   5.547   8.670   4.385 -0.6707 -3.5547  0.2857
  520MOL0     H71742   5.877   8.580   4.630 -0.4438  0.6251  1.9391
  520MOL0     H71743   6.072   8.466   4.696 -0.7454  2.7492  2.2074
  520MOL0     H71744   5.382   9.173   4.588 -2.5213 -0.8240  1.0462
  520MOL0     H71745   5.162   9.253   4.533 -4.2024  0.1430 -2.9043
  520MOL0     H71746   4.870   9.383   4.416  1.5593  0.6506  0.2938
  520MOL0     H71747   4.647   9.509   4.416  0.2396  0.0840  0.4964
  520MOL0     H71748   4.461   9.860   4.200 -0.5743 -0.7303 -0.5342
  520MOL0     H71749   4.601   9.823   4.111  1.3663  0.0926  1.1809
  520MOL0     H71750   4.505   9.639   4.002 -0.2389 -0.2714  0.6588
  520MOL0     H71751   4.419   9.782   3.964  1.9312 -0.3884 -0.4525
  520MOL0     H71752   4.246   9.633   4.014  1.1528 -0.2076  0.0734
  520MOL0     H71753   4.324   9.559   4.153  1.7476 -1.0865 -1.3386
  520MOL0     H71754   4.230   9.840   4.186  4.0347 -0.2541 -0.3445
  520MOL0     H71755   4.285   9.721   4.306 -0.8544  1.2621  0.6397
  520MOL0     H71756   3.891   9.605   4.255  0.2740 -0.3152  0.7007
  520MOL0     H71757   4.736   9.677   4.037  0.8326  1.0512  0.2539
  520MOL0     H71758   4.925   9.629   3.915  1.4067 -1.7960 -1.7124
  520MOL0     H71759   5.048   9.684   4.033  1.1577 -0.7963  0.0707
  520MOL0     H71760   5.052   9.523   3.978 -0.6180  0.5177 -0.4070
  521MOL0     O71761  10.088   9.083   8.733  0.3761  0.5117 -0.1340
  521MOL0     C71762  10.129   8.982   8.685  0.5464 -0.5630  1.2221
  521MOL0     O71763  10.265   8.957   8.650  0.1635  0.6777 -0.1622
  521MOL0     C71764  10.358   9.047   8.680 -0.7303  0.3953 -0.4273
  521MOL0     C71765  10.447   9.020   8.787  0.2005  1.1499  0.3417
  521MOL0     C71766  10.565   9.097   8.812  0.1515  0.5658 -0.2286
  521MOL0     C71767  10.590   9.201   8.722 -0.3385 -0.7213 -0.1374
  521MOL0     O71768  10.714   9.265   8.731  0.1704 -0.1522  0.0020
  521MOL0     C71769  10.746   9.361   8.633  0.3756 -0.0030 -0.2981
  521MOL0     C71770  10.896   9.403   8.646 -0.1048 -0.0924  0.8128
  521MOL0     C71771  10.992   9.285   8.625  0.6158 -0.1460  0.1346
  521MOL0     C71772  11.126   9.320   8.672  0.2967  0.6087 -0.7478
  521MOL0     C71773  11.224   9.198   8.650 -0.1767 -0.0447  0.5297
  521MOL0     C71774  11.366   9.236   8.706 -1.1874 -1.1913  0.1625
  521MOL0     C71775  11.458   9.118   8.674  0.3057  0.0123  0.4250
  521MOL0     C71776  11.604   9.129   8.709 -1.0434 -0.5429  0.4246
  521MOL0     N71777  11.677   9.058   8.607 -0.0136  0.8275  0.3220
  521MOL0     C71778  11.715   8.921   8.619  0.1048 -0.3197  0.1690
  521MOL0     C71779  11.786   8.892   8.505  0.4197  0.6149 -0.6417
  521MOL0     C71780  11.854   8.762   8.465 -0.2662 -0.5189  1.0193
  521MOL0     C71781  11.936   8.693   8.575 -0.1975  0.9235 -0.0387
  521MOL0     C71782  11.879   8.550   8.608  0.3841 -0.6488  0.0091
  521MOL0     C71783  11.746   8.548   8.672  0.4741 -0.4287 -0.2623
  521MOL0     O71784  11.743   8.609   8.793  0.0733  0.1303  0.1801
  521MOL0     C71785  11.623   8.654   8.855  0.0528  0.0960 -0.2013
  521MOL0     C71786  11.632   8.738   8.965  1.6600 -0.8562 -0.1018
  521MOL0     C71787  11.518   8.797   9.019  0.3829  0.0958 -0.9370
  521MOL0     C71788  11.541   8.907   9.120  0.0238 -0.9836 -0.0794
  521MOL0     C71789  11.390   8.776   8.964  0.6363  0.0368 -0.1730
  521MOL0     C71790  11.269   8.840   9.007  0.1696 -0.2075 -0.5017
  521MOL0     O71791  11.169   8.825   8.917  0.2317 -0.9675 -0.0245
  521MOL0     C71792  11.051   8.877   8.961 -0.3421  0.0311  0.0463
  521MOL0     C71793  11.020   9.009   8.933  0.0127 -1.3514 -0.5039
  521MOL0     C71794  10.895   9.059   8.989 -0.1473  1.0460  0.1273
  521MOL0     C71795  10.806   8.976   9.053 -0.5428  0.7661 -0.0401
  521MOL0     O71796  10.699   9.039   9.114  0.8448  0.8111  0.1524
  521MOL0     C71797  10.608   8.960   9.190 -0.1753  0.1081 -0.9659
  521MOL0     C71798  10.483   9.031   9.242  0.1681  0.5659 -0.5559
  521MOL0     C71799  10.370   9.051   9.140  0.8969  0.1195  0.1931
  521MOL0     C71800  10.240   9.116   9.204 -0.2731 -0.4744 -0.4034
  521MOL0     C71801  10.133   9.149   9.103  0.4185  0.8223 -0.4982
  521MOL0     C71802  10.162   9.262   9.002 -0.3834 -0.1001 -0.1096
  521MOL0     C71803  10.036   9.328   8.945 -0.1337  0.5707  0.1579
  521MOL0     C71804  10.068   9.433   8.846 -1.0960 -0.5555 -0.2545
  521MOL0    Cl71805  10.107   9.579   8.951  0.0437 -0.1548 -0.1666
  521MOL0     C71806  10.843   8.847   9.079 -0.4190  0.3052  0.6703
  521MOL0     C71807  10.968   8.796   9.034  0.3440 -0.7297 -0.3852
  521MOL0     O71808  11.263   8.903   9.118 -0.5834  0.4206  1.4707
  521MOL0     C71809  11.385   8.685   8.852 -0.1196 -0.8483  0.0612
  521MOL0     C71810  11.497   8.631   8.802  0.2250  0.0883  0.5308
  521MOL0     N71811  11.790   9.014   8.435  0.4344  0.2516 -0.7255
  521MOL0     N71812  11.730   9.112   8.500  0.0184  0.2459 -0.8978
  521MOL0     C71813  10.498   9.233   8.624  0.8049  0.7076  0.0940
  521MOL0     C71814  10.379   9.162   8.614 -0.5834 -0.1537 -0.3787
  521MOL0     C71815  10.024   8.875   8.670  0.1386  0.2639  0.4261
  521MOL0     C71816  10.062   8.758   8.600  0.6551  0.1161  0.6460
  521MOL0     C71817   9.980   8.650   8.577  0.4271  0.3664  0.2481
  521MOL0     C71818   9.851   8.650   8.634 -0.0254  0.7173 -0.0159
  521MOL0     O71819   9.768   8.542   8.610 -0.2804 -0.3688 -0.3301
  521MOL0     C71820   9.669   8.504   8.711 -0.3074  0.5270  0.4222
  521MOL0     C71821   9.596   8.374   8.676  0.1665 -0.3797 -0.8613
  521MOL0     C71822   9.529   8.374   8.543  0.0120 -0.4850 -0.5418
  521MOL0     C71823   9.434   8.250   8.523  0.6285  0.5396  0.1621
  521MOL0     C71824   9.394   8.254   8.377  1.0123 -0.4457  0.1711
  521MOL0     C71825   9.357   8.245   8.263 -0.1550 -0.4602  0.2718
  521MOL0     C71826   9.816   8.761   8.710 -0.7828 -0.2621 -0.2656
  521MOL0     C71827   9.898   8.877   8.723 -0.5980  0.1014  0.1265
  521MOL0     C71828   9.849   8.983   8.820 -0.0483  0.3466 -0.0924
  521MOL0     H71829  10.412   8.936   8.846 -0.3118 -0.7003 -2.3784
  521MOL0     H71830  10.637   9.065   8.887 -1.9984 -0.5600  1.4752
  521MOL0     H71831  10.684   9.448   8.656 -0.0465 -0.4051  0.0972
  521MOL0     H71832  10.734   9.313   8.536  0.0123 -1.5923  0.5148
  521MOL0     H71833  10.917   9.467   8.560 -2.1679 -1.5132 -0.8521
  521MOL0     H71834  10.916   9.457   8.739  0.0152  1.2137  0.0598
  521MOL0     H71835  10.961   9.194   8.677  3.2775 -1.9952 -1.2940
  521MOL0     H71836  11.005   9.260   8.519 -0.1963 -1.7931  0.3819
  521MOL0     H71837  11.162   9.415   8.631  0.5461  1.0886  0.5164
  521MOL0     H71838  11.120   9.342   8.779  0.7667  1.2798 -0.8516
  521MOL0     H71839  11.224   9.181   8.542 -1.5810  0.3377  0.4528
  521MOL0     H71840  11.180   9.107   8.692  1.2996 -2.1196 -2.0727
  521MOL0     H71841  11.399   9.321   8.646  1.3197 -0.2577  2.6243
  521MOL0     H71842  11.366   9.246   8.815 -0.4733 -0.2283  0.0883
  521MOL0     H71843  11.449   9.095   8.567  3.8372 -0.5824  0.1357
  521MOL0     H71844  11.439   9.033   8.740  0.4019  0.6685  1.3205
  521MOL0     H71845  11.629   9.235   8.701 -0.8735 -0.6818 -1.1826
  521MOL0     H71846  11.620   9.092   8.811  2.2118  0.3636  0.3390
  521MOL0     H71847  11.694   8.855   8.702  0.0140 -1.8993 -1.0640
  521MOL0     H71848  11.926   8.776   8.384  0.4971 -0.5930  1.6792
  521MOL0     H71849  11.781   8.702   8.411 -1.0309  2.1867 -1.2117
  521MOL0     H71850  12.036   8.669   8.538  0.5599  0.2930  2.2387
  521MOL0     H71851  11.939   8.760   8.662 -1.5501  2.4679 -1.1184
  521MOL0     H71852  11.879   8.500   8.510 -0.2033  0.6873 -0.6997
  521MOL0     H71853  11.961   8.496   8.656  0.9431  1.4622  1.5971
  521MOL0     H71854  11.682   8.602   8.602  0.0140  0.0846  0.5399
  521MOL0     H71855  11.701   8.448   8.683  0.5655 -0.3464  1.0833
  521MOL0     H71856  11.729   8.757   9.009  1.2895 -1.5634  1.0694
  521MOL0     H71857  11.488   8.998   9.091  1.1467  0.6167  2.5013
  521MOL0     H71858  11.644   8.941   9.133 -0.5509  1.5022 -1.3724
  521MOL0     H71859  11.499   8.874   9.215 -0.1514 -2.1685 -0.5560
  521MOL0     H71860  11.091   9.073   8.882 -0.8630  1.4755  1.5220
  521MOL0     H71861  10.865   9.163   8.985 -1.3938  0.9607  3.7140
  521MOL0     H71862  10.570   8.886   9.119 -1.2144  3.1242 -3.7473
  521MOL0     H71863  10.661   8.912   9.273 -3.6861  1.4546  2.3636
  521MOL0     H71864  10.441   8.964   9.318 -0.2593 -1.5786 -2.5933
  521MOL0     H71865  10.511   9.125   9.291 -1.6951 -0.1338  2.1140
  521MOL0     H71866  10.336   8.959   9.092  0.8302 -0.8505  2.0108
  521MOL0     H71867  10.406   9.123   9.065 -0.5956  1.0311  0.3188
  521MOL0     H71868  10.266   9.212   9.250 -1.9048 -0.9808  1.7422
  521MOL0     H71869  10.212   9.056   9.291  2.4067 -1.2335  0.0256
  521MOL0     H71870  10.107   9.058   9.049  3.4168 -1.4829  1.6268
  521MOL0     H71871  10.050   9.184   9.166  1.4055  0.8757  0.8179
  521MOL0     H71872  10.237   9.233   8.927  1.3476  0.6897  1.2531
  521MOL0     H71873  10.214   9.339   9.060 -1.2736  0.7619 -0.4347
  521MOL0     H71874   9.967   9.364   9.021  1.7748 -0.4473  2.5162
  521MOL0     H71875   9.990   9.244   8.893  1.1679  1.3601 -2.4878
  521MOL0     H71876   9.982   9.460   8.784  0.3420  0.5803 -1.8309
  521MOL0     H71877  10.146   9.413   8.772 -0.7400 -1.1318  0.2761
  521MOL0     H71878  10.787   8.776   9.139  2.6146 -1.6918  1.3356
  521MOL0     H71879  11.009   8.698   9.057  1.5456  0.3433  2.6054
  521MOL0     H71880  11.295   8.663   8.796 -0.6254 -2.3311  1.3795
  521MOL0     H71881  11.489   8.578   8.708  0.1500  2.9953 -1.1847
  521MOL0     H71882  10.491   9.318   8.556  0.4548 -0.0281 -0.8097
  521MOL0     H71883  10.308   9.180   8.534  0.7297 -1.4864 -1.9385
  521MOL0     H71884  10.163   8.751   8.561  0.1876 -0.6841 -0.4975
  521MOL0     H71885  10.009   8.566   8.515  0.7352  1.9537 -1.8935
  521MOL0     H71886   9.717   8.494   8.809  1.4514  0.7910 -0.3604
  521MOL0     H71887   9.598   8.588   8.713 -0.8848  0.0286  1.2480
  521MOL0     H71888   9.514   8.362   8.748 -1.0853  1.4774 -1.8871
  521MOL0     H71889   9.668   8.292   8.686  2.2791  1.2705 -1.9494
  521MOL0     H71890   9.474   8.468   8.529  5.3199  3.1134 -0.2206
  521MOL0     H71891   9.603   8.367   8.463  0.3963  0.8957 -0.3311
  521MOL0     H71892   9.346   8.245   8.588  1.0842 -0.4346  0.7270
  521MOL0     H71893   9.474   8.151   8.545  1.1188  0.4538 -1.0248
  521MOL0     H71894   9.335   8.240   8.159 -0.6017  3.0657  0.0936
  521MOL0     H71895   9.724   8.772   8.767 -1.7086  2.6428 -2.0903
  521MOL0     H71896   9.751   8.957   8.860 -0.6712 -0.2192 -1.8850
  521MOL0     H71897   9.925   9.004   8.896 -0.2767 -0.6401  0.4270
  521MOL0     H71898   9.832   9.074   8.763 -0.5691  0.4242  0.1824
  522MOL0     O71899   6.443   4.909   5.506 -0.2190  0.1908  0.2145
  522MOL0     C71900   6.409   4.791   5.505  0.0985  0.4675 -0.0405
  522MOL0     O71901   6.466   4.694   5.586 -0.1832  0.0696 -0.4825
  522MOL0     C71902   6.583   4.733   5.655 -0.0067 -0.4479 -0.0015
  522MOL0     C71903   6.691   4.806   5.602 -0.8810  0.3241  0.6052
  522MOL0     C71904   6.807   4.822   5.679  0.5087  0.3714  0.2246
  522MOL0     C71905   6.812   4.779   5.808  0.5222 -0.5145 -0.5042
  522MOL0     O71906   6.929   4.803   5.879  0.2428 -0.3607  0.9186
  522MOL0     C71907   7.005   4.690   5.905 -0.3802 -0.2236  0.0605
  522MOL0     C71908   7.153   4.725   5.915 -0.4255 -0.3487  0.0763
  522MOL0     C71909   7.203   4.782   5.792 -0.0473  0.6278  0.6802
  522MOL0     C71910   7.352   4.813   5.794  0.2256 -0.0146 -0.3566
  522MOL0     C71911   7.380   4.931   5.886  0.2692 -0.7268 -0.3933
  522MOL0     C71912   7.333   5.064   5.833  0.4990 -0.2777  1.5917
  522MOL0     C71913   7.393   5.173   5.924 -0.3216  0.3943 -1.0511
  522MOL0     C71914   7.343   5.176   6.073 -1.1727  0.8347  0.2980
  522MOL0     N71915   7.197   5.192   6.097 -0.7150 -0.3847  0.3541
  522MOL0     C71916   7.110   5.108   6.157 -0.4213 -0.3865  0.1015
  522MOL0     C71917   6.995   5.181   6.165 -0.3147  0.5434  0.0665
  522MOL0     C71918   6.858   5.146   6.228 -0.3778 -0.7273  0.5932
  522MOL0     C71919   6.763   5.067   6.138 -0.8764 -0.2345 -0.8141
  522MOL0     C71920   6.733   5.134   6.006  1.2594  0.8525  0.8903
  522MOL0     C71921   6.604   5.083   5.948 -1.2000  0.1513  0.5105
  522MOL0     O71922   6.496   5.106   6.033  0.8519 -0.0309 -0.9120
  522MOL0     C71923   6.391   5.024   6.033  0.0095  0.2431 -0.4767
  522MOL0     C71924   6.343   4.952   5.928 -1.1763 -0.4109  0.7254
  522MOL0     C71925   6.233   4.868   5.935  0.8167  0.3923  0.1849
  522MOL0     C71926   6.186   4.819   5.799  0.0850  0.9532 -0.2459
  522MOL0     C71927   6.175   4.847   6.060  0.7928  0.5420  0.3955
  522MOL0     C71928   6.071   4.747   6.088 -0.1501 -0.5912 -0.0987
  522MOL0     O71929   6.020   4.750   6.210  0.1212  0.4001 -0.2765
  522MOL0     C71930   5.927   4.657   6.253 -0.4115 -0.2718  0.4640
  522MOL0     C71931   5.820   4.614   6.180  0.3823  0.8563 -0.4108
  522MOL0     C71932   5.735   4.523   6.232 -0.5468  0.0799  0.3432
  522MOL0     C71933   5.753   4.472   6.364 -0.3566 -0.9617  0.3320
  522MOL0     O71934   5.671   4.382   6.430  0.7287 -0.2515  0.9965
  522MOL0     C71935   5.536   4.406   6.411 -0.1492  1.2896 -0.5919
  522MOL0     C71936   5.474   4.331   6.534  0.5508  0.7268 -0.2561
  522MOL0     C71937   5.323   4.320   6.526 -1.1023  0.4378  0.2299
  522MOL0     C71938   5.281   4.214   6.628 -0.3620  0.2293 -0.1035
  522MOL0     C71939   5.134   4.157   6.615  0.5559 -0.3699  0.1940
  522MOL0     C71940   5.111   4.089   6.476  0.0512 -0.7709 -0.3032
  522MOL0     C71941   4.973   4.021   6.478 -0.4716  1.0107  1.2852
  522MOL0     C71942   4.946   3.912   6.372 -0.8248 -0.1018  0.6024
  522MOL0    Cl71943   5.035   3.757   6.398  0.1563  0.2214 -0.1174
  522MOL0     C71944   5.865   4.513   6.433  0.1402  0.1258 -0.1907
  522MOL0     C71945   5.946   4.599   6.375  0.6375  0.2913  0.0473
  522MOL0     O71946   6.049   4.657   6.009 -1.0148 -1.0477  1.0091
  522MOL0     C71947   6.222   4.920   6.166  0.8089 -0.8003  0.1253
  522MOL0     C71948   6.336   5.006   6.156  0.0579  0.7705 -0.1723
  522MOL0     N71949   7.015   5.305   6.099  0.4743 -0.1747 -0.0334
  522MOL0     N71950   7.137   5.310   6.056  0.1847  0.4459 -0.1035
  522MOL0     C71951   6.707   4.715   5.865  0.3200 -0.2119  0.4396
  522MOL0     C71952   6.595   4.694   5.789 -0.7385 -0.0927  0.0572
  522MOL0     C71953   6.275   4.769   5.449  0.2834  0.6006  0.0568
  522MOL0     C71954   6.212   4.876   5.385  0.2622  0.4489  0.6531
  522MOL0     C71955   6.090   4.863   5.328 -0.3715  0.1180  0.5981
  522MOL0     C71956   6.014   4.750   5.337 -1.1511  0.1629 -0.5515
  522MOL0     O71957   5.890   4.728   5.284  0.4457 -0.2328  0.0742
  522MOL0     C71958   5.788   4.821   5.339 -0.2916  0.2333 -0.0137
  522MOL0     C71959   5.774   4.802   5.486  1.0571  0.7239 -0.5738
  522MOL0     C71960   5.622   4.803   5.545  0.4673 -0.4559 -0.1126
  522MOL0     C71961   5.548   4.937   5.500  0.7857  0.0841  0.2561
  522MOL0     C71962   5.575   5.035   5.607  0.6318 -0.1945  0.5845
  522MOL0     C71963   5.616   5.105   5.693 -0.7484 -0.2360 -0.3187
  522MOL0     C71964   6.076   4.641   5.399  0.8548  0.1456  0.0515
  522MOL0     C71965   6.206   4.642   5.460 -1.6293  0.0513 -0.3141
  522MOL0     C71966   6.257   4.512   5.531 -0.2630 -0.6459  0.0906
  522MOL0     H71967   6.693   4.843   5.500  0.9979 -4.3674 -1.3033
  522MOL0     H71968   6.895   4.872   5.642 -0.0280  0.9474 -0.2804
  522MOL0     H71969   7.001   4.622   5.819  0.3945 -0.5358  0.2589
  522MOL0     H71970   6.969   4.645   5.998  1.6470 -0.8427  0.6118
  522MOL0     H71971   7.158   4.789   6.003 -2.1779 -0.4073  0.2650
  522MOL0     H71972   7.210   4.636   5.943  1.4264  0.7988  0.0625
  522MOL0     H71973   7.189   4.714   5.707 -1.7358 -0.3507  1.6683
  522MOL0     H71974   7.150   4.873   5.762  0.8621  0.9340 -0.0453
  522MOL0     H71975   7.401   4.725   5.836 -1.3071 -1.6958 -1.9524
  522MOL0     H71976   7.389   4.827   5.692 -2.3046 -2.4159 -1.7062
  522MOL0     H71977   7.487   4.935   5.903  0.0371 -0.0155  1.0257
  522MOL0     H71978   7.334   4.916   5.984 -0.2242 -3.3551 -0.9458
  522MOL0     H71979   7.365   5.067   5.728  0.4717  0.3806  1.5968
  522MOL0     H71980   7.225   5.073   5.822  0.6251 -0.4588 -0.1067
  522MOL0     H71981   7.379   5.273   5.882  0.8660  0.1534 -2.1015
  522MOL0     H71982   7.501   5.155   5.925 -0.2328  0.8976 -0.3214
  522MOL0     H71983   7.379   5.090   6.130  2.1154  1.4228 -0.7163
  522MOL0     H71984   7.389   5.264   6.118 -2.1552  1.8320 -0.5857
  522MOL0     H71985   7.127   5.005   6.186 -0.6155 -0.9290 -1.5951
  522MOL0     H71986   6.811   5.239   6.259  2.0094  0.4847  0.8568
  522MOL0     H71987   6.880   5.088   6.318  1.0423  0.7743  1.2647
  522MOL0     H71988   6.801   4.965   6.122 -0.0396 -0.4172  1.8153
  522MOL0     H71989   6.676   5.060   6.204  0.9870  2.1995  2.1695
  522MOL0     H71990   6.729   5.241   6.028  0.4819  0.4275  3.1026
  522MOL0     H71991   6.818   5.123   5.938  2.0308  3.6114  1.2888
  522MOL0     H71992   6.591   5.133   5.851  1.3953 -0.4543 -0.2151
  522MOL0     H71993   6.616   4.978   5.921 -0.8192  0.2656  0.2274
  522MOL0     H71994   6.391   4.975   5.833 -0.2696  1.1751  1.5332
  522MOL0     H71995   6.215   4.884   5.716 -0.7022  2.2663  0.4677
  522MOL0     H71996   6.077   4.809   5.788  0.0629  0.3168  0.4494
  522MOL0     H71997   6.227   4.719   5.782  2.6218  1.3459  2.6387
  522MOL0     H71998   5.806   4.650   6.078 -2.2094  0.0463 -0.4113
  522MOL0     H71999   5.652   4.487   6.172 -0.9664  0.2044  0.8434
  522MOL0     H72000   5.511   4.512   6.412 -4.9789  0.3509 -0.4435
  522MOL0     H72001   5.504   4.346   6.325  3.8922  0.1384 -1.5214
  522MOL0     H72002   5.516   4.230   6.535 -0.9934  0.0528  1.0382
  522MOL0     H72003   5.498   4.390   6.623  1.3015  2.3181 -1.4475
  522MOL0     H72004   5.287   4.272   6.435 -2.8324  1.1128  0.5165
  522MOL0     H72005   5.274   4.417   6.533  0.4647  1.3880 -1.2699
  522MOL0     H72006   5.293   4.243   6.733  0.0578 -1.5992  0.3814
  522MOL0     H72007   5.353   4.133   6.617 -0.0293  0.4729  0.2298
  522MOL0     H72008   5.128   4.087   6.699  0.2139 -1.9337 -1.0705
  522MOL0     H72009   5.061   4.237   6.631  0.3691 -1.0151  3.2017
  522MOL0     H72010   5.186   4.011   6.465 -1.0670 -2.1523  1.3159
  522MOL0     H72011   5.112   4.164   6.396 -0.8378  3.0220  2.9315
  522MOL0     H72012   4.903   4.106   6.478 -1.3306  0.4128 -1.2297
  522MOL0     H72013   4.952   3.969   6.572 -1.2833 -3.0859 -0.9249
  522MOL0     H72014   4.976   3.958   6.277  0.0524  1.2623  1.4952
  522MOL0     H72015   4.840   3.886   6.373 -0.3718 -2.1187  1.0936
  522MOL0     H72016   5.891   4.470   6.529  1.1687 -0.2490 -0.6178
  522MOL0     H72017   6.028   4.630   6.440  0.7999 -1.4073  0.6929
  522MOL0     H72018   6.167   4.915   6.260 -2.2809  1.5538 -1.3762
  522MOL0     H72019   6.374   5.053   6.245 -0.4450 -0.8732  0.9610
  522MOL0     H72020   6.703   4.708   5.973 -0.7530  0.9057  0.4952
  522MOL0     H72021   6.499   4.667   5.833 -0.3592 -0.1918  0.8434
  522MOL0     H72022   6.252   4.973   5.356  0.3036 -0.1847 -1.6751
  522MOL0     H72023   6.043   4.947   5.278 -0.1946 -0.4560 -0.5834
  522MOL0     H72024   5.806   4.925   5.312 -1.0203 -0.3338 -2.9721
  522MOL0     H72025   5.686   4.798   5.307 -1.5315  1.6599  2.6092
  522MOL0     H72026   5.839   4.878   5.530  1.7315  1.0402 -2.0517
  522MOL0     H72027   5.813   4.703   5.510 -1.2610 -0.2713 -0.6898
  522MOL0     H72028   5.562   4.718   5.510 -0.8099  0.8923 -1.3358
  522MOL0     H72029   5.622   4.795   5.654  0.1632 -0.1249 -0.0878
  522MOL0     H72030   5.443   4.909   5.485  1.2891 -2.6532  1.1691
  522MOL0     H72031   5.587   4.970   5.403  0.3493 -0.5009 -0.1257
  522MOL0     H72032   5.644   5.185   5.759  2.4258  0.9080 -2.8099
  522MOL0     H72033   6.024   4.547   5.413  2.0646 -0.9948 -2.4266
  522MOL0     H72034   6.359   4.493   5.497 -0.4303 -0.6975 -0.3926
  522MOL0     H72035   6.258   4.535   5.638 -1.0679  2.3224 -0.4493
  522MOL0     H72036   6.193   4.428   5.502 -0.8817 -0.0269 -0.3848
  523MOL0     O72037  10.016  10.589   8.270  0.2071 -0.3734 -0.3608
  523MOL0     C72038   9.960  10.495   8.216  0.3373 -0.6511  0.2147
  523MOL0     O72039   9.966  10.459   8.082  0.1618 -0.4016  0.8454
  523MOL0     C72040  10.049  10.530   7.992  0.6129 -0.4199 -0.7775
  523MOL0     C72041  10.186  10.496   7.975 -0.1949  0.0362  0.3097
  523MOL0     C72042  10.272  10.567   7.892 -0.3966  0.3519 -1.1864
  523MOL0     C72043  10.213  10.651   7.803  0.3214  0.1986 -0.8967
  523MOL0     O72044  10.272  10.701   7.688  0.0357  0.0121  0.3700
  523MOL0     C72045  10.415  10.700   7.659 -1.2544  1.1888 -0.7256
  523MOL0     C72046  10.453  10.564   7.596 -0.0805 -0.9711 -0.5180
  523MOL0     C72047  10.610  10.563   7.588  0.3669  0.0901  0.6501
  523MOL0     C72048  10.652  10.444   7.493 -0.4193 -0.0987  0.2866
  523MOL0     C72049  10.801  10.456   7.461  0.1973 -0.2997 -0.8815
  523MOL0     C72050  10.863  10.348   7.381 -0.5632  0.6172  0.7291
  523MOL0     C72051  10.996  10.390   7.304 -0.0667 -0.6878  0.2269
  523MOL0     C72052  11.054  10.279   7.214 -0.5657  0.6403 -0.6543
  523MOL0     N72053  11.152  10.330   7.121  0.6130 -0.4809 -0.1538
  523MOL0     C72054  11.145  10.442   7.033  0.2682  0.5065 -1.0330
  523MOL0     C72055  11.238  10.434   6.947 -0.1000 -0.6678 -0.0666
  523MOL0     C72056  11.279  10.544   6.851 -0.3567 -0.0056  0.6819
  523MOL0     C72057  11.279  10.477   6.707  0.4717 -0.8556 -0.2102
  523MOL0     C72058  11.285  10.587   6.597  1.0082 -0.1464  0.8348
  523MOL0     C72059  11.223  10.538   6.462 -0.2721  0.5337 -0.3701
  523MOL0     O72060  11.298  10.417   6.424 -0.0432  0.0987 -0.4555
  523MOL0     C72061  11.233  10.340   6.335  0.2175 -0.7368 -0.0694
  523MOL0     C72062  11.249  10.208   6.335 -0.1227  0.2383 -1.1520
  523MOL0     C72063  11.185  10.122   6.237 -0.9554 -0.6361 -0.5886
  523MOL0     C72064  11.205   9.976   6.266  0.3836  0.2703  0.3706
  523MOL0     C72065  11.092  10.181   6.149  0.8479 -0.2620 -0.5219
  523MOL0     C72066  10.986  10.101   6.092 -1.7583 -0.1423  0.0510
  523MOL0     O72067  10.868  10.170   6.088  1.0428  0.4300 -0.9526
  523MOL0     C72068  10.751  10.123   6.032 -1.1739  0.2095 -0.4994
  523MOL0     C72069  10.657  10.214   5.984 -0.2587 -0.0671  0.1521
  523MOL0     C72070  10.534  10.172   5.935 -0.3641 -0.3160 -0.7311
  523MOL0     C72071  10.500  10.043   5.926  0.4634  0.2922  0.5199
  523MOL0     O72072  10.382  10.014   5.859  0.0309  0.3124  0.4039
  523MOL0     C72073  10.318   9.895   5.898 -0.3337  0.3091  0.0525
  523MOL0     C72074  10.323   9.793   5.783 -0.5069 -1.1105 -0.0030
  523MOL0     C72075  10.245   9.665   5.819  0.6062 -0.2450 -0.9808
  523MOL0     C72076  10.278   9.556   5.723  0.0219 -0.9986  0.0993
  523MOL0     C72077  10.214   9.415   5.761  0.6802 -0.1614  0.0350
  523MOL0     C72078  10.236   9.295   5.666  1.2118 -0.0607 -0.8663
  523MOL0     C72079  10.384   9.240   5.657  0.1169 -0.6439 -0.1494
  523MOL0     C72080  10.401   9.183   5.517  0.2195 -0.2133 -0.3440
  523MOL0    Cl72081  10.396   9.314   5.402 -0.0886 -0.5616 -0.0889
  523MOL0     C72082  10.601   9.948   5.941 -0.4634 -0.1552 -0.0505
  523MOL0     C72083  10.719   9.985   6.005  0.1848 -1.2404 -0.1838
  523MOL0     O72084  11.007   9.984   6.062 -0.1113 -0.6111 -0.4746
  523MOL0     C72085  11.090  10.323   6.141  0.3855  0.5892  0.0197
  523MOL0     C72086  11.173  10.399   6.224 -0.9475  0.7278 -0.9574
  523MOL0     N72087  11.305  10.315   6.973 -0.1379  0.3474  0.0307
  523MOL0     N72088  11.262  10.259   7.077 -0.5730 -0.0048 -0.3114
  523MOL0     C72089  10.071  10.675   7.803 -0.5091  0.2281  0.4435
  523MOL0     C72090   9.996  10.627   7.905  0.2632 -0.3546 -0.3336
  523MOL0     C72091   9.862  10.418   8.309  0.2784 -0.8214 -0.2416
  523MOL0     C72092   9.770  10.324   8.240  0.5364  0.4154  0.3076
  523MOL0     C72093   9.668  10.258   8.313 -0.5456  0.6491 -0.2943
  523MOL0     C72094   9.646  10.288   8.449 -1.0396  0.9139 -0.2695
  523MOL0     O72095   9.544  10.214   8.509 -0.2437  0.6291 -0.4891
  523MOL0     C72096   9.523  10.246   8.644 -0.3748  0.3881  0.1222
  523MOL0     C72097   9.402  10.175   8.692 -0.3399  0.4724  0.3392
  523MOL0     C72098   9.403  10.019   8.682 -0.1946 -0.3282 -0.9490
  523MOL0     C72099   9.535   9.955   8.745 -0.3424 -0.8973  0.2037
  523MOL0     C72100   9.541   9.991   8.889  0.8026 -0.0511  0.1635
  523MOL0     C72101   9.545  10.013   9.008  0.3181  0.1881 -0.0359
  523MOL0     C72102   9.730  10.386   8.507  0.1680  0.5669  0.5556
  523MOL0     C72103   9.843  10.447   8.443  0.5899  0.1074 -1.6293
  523MOL0     C72104   9.932  10.529   8.529 -0.9618 -0.1947  0.6147
  523MOL0     H72105  10.236  10.423   8.038 -2.0239  1.4385  3.6491
  523MOL0     H72106  10.377  10.544   7.878 -0.8627 -1.0260 -2.6725
  523MOL0     H72107  10.474  10.720   7.748  2.6659 -0.4372 -2.7269
  523MOL0     H72108  10.446  10.780   7.590  0.1762  0.4297 -0.9919
  523MOL0     H72109  10.417  10.478   7.653 -1.9486 -0.4490 -0.8521
  523MOL0     H72110  10.415  10.563   7.494  1.0753  0.7807 -1.0126
  523MOL0     H72111  10.655  10.652   7.542  2.0602 -0.1564  1.7199
  523MOL0     H72112  10.661  10.554   7.685  0.0855  0.4869  0.8375
  523MOL0     H72113  10.637  10.345   7.538 -1.7702  0.1285  0.3816
  523MOL0     H72114  10.596  10.438   7.399 -0.9055 -1.0353  0.6124
  523MOL0     H72115  10.847  10.463   7.560 -3.2679  1.2902  0.7722
  523MOL0     H72116  10.824  10.550   7.411 -3.1605 -0.6127 -3.3895
  523MOL0     H72117  10.885  10.267   7.451 -3.0708  0.0768  0.9926
  523MOL0     H72118  10.792  10.302   7.312  0.8103 -1.5335  0.6733
  523MOL0     H72119  11.069  10.433   7.373  0.4517 -0.0933 -0.6816
  523MOL0     H72120  10.968  10.478   7.245  1.8365  0.5858  1.1013
  523MOL0     H72121  11.097  10.202   7.280 -1.7046  0.6122  0.0787
  523MOL0     H72122  10.978  10.228   7.154 -0.8523 -0.4733  0.6134
  523MOL0     H72123  11.069  10.518   7.049 -0.8877 -0.6277 -0.9666
  523MOL0     H72124  11.371  10.589   6.889 -1.5839  1.0772  2.5440
  523MOL0     H72125  11.205  10.624   6.861  0.7363  0.7751  3.2942
  523MOL0     H72126  11.372  10.420   6.698 -0.3022 -2.3648  0.8717
  523MOL0     H72127  11.190  10.415   6.691  0.9498 -2.0467  1.4534
  523MOL0     H72128  11.224  10.668   6.637 -0.2409 -2.3111  3.5906
  523MOL0     H72129  11.384  10.634   6.588  0.6710  0.7537  1.6967
  523MOL0     H72130  11.117  10.514   6.478 -0.4010 -0.9509 -3.0154
  523MOL0     H72131  11.232  10.616   6.386 -0.2408  0.4029 -0.5012
  523MOL0     H72132  11.304  10.166   6.418 -1.5872 -0.6592 -0.5870
  523MOL0     H72133  11.309   9.952   6.287  0.3463  1.5283  2.2191
  523MOL0     H72134  11.180   9.917   6.177  2.3421 -0.3970  0.2302
  523MOL0     H72135  11.155   9.939   6.356 -0.2312 -1.1924 -0.5365
  523MOL0     H72136  10.686  10.319   5.987 -0.8566  0.0803  1.2197
  523MOL0     H72137  10.460  10.249   5.916 -0.6008 -0.9914 -2.8069
  523MOL0     H72138  10.365   9.854   5.987 -0.3513  4.1184  2.0218
  523MOL0     H72139  10.212   9.906   5.923  0.2720  1.8832  2.1786
  523MOL0     H72140  10.264   9.837   5.701 -1.1287 -2.9883 -0.6303
  523MOL0     H72141  10.429   9.777   5.766 -0.3008 -1.1904  1.2858
  523MOL0     H72142  10.138   9.687   5.811  1.0597  2.6683 -0.3063
  523MOL0     H72143  10.271   9.632   5.919  1.1894 -0.8662 -1.3307
  523MOL0     H72144  10.387   9.550   5.717 -0.0085 -2.9194  0.7884
  523MOL0     H72145  10.233   9.579   5.626 -3.0336  1.9466  2.0008
  523MOL0     H72146  10.247   9.393   5.863  0.2378  1.7902  0.6436
  523MOL0     H72147  10.107   9.436   5.763  0.9200  1.2548 -0.6581
  523MOL0     H72148  10.189   9.318   5.571 -0.5252  1.1911  0.2464
  523MOL0     H72149  10.180   9.210   5.706  0.4655  0.5096 -0.6959
  523MOL0     H72150  10.403   9.170   5.739  4.3893 -0.4383 -0.7699
  523MOL0     H72151  10.459   9.319   5.666 -1.1068  0.8380 -2.1424
  523MOL0     H72152  10.330   9.113   5.472 -1.1881  2.3203 -2.3540
  523MOL0     H72153  10.491   9.121   5.520 -0.4599 -1.3825 -2.3207
  523MOL0     H72154  10.582   9.842   5.926 -3.4223 -0.2462  3.0265
  523MOL0     H72155  10.790   9.907   6.033  1.2621 -1.5264 -3.3295
  523MOL0     H72156  11.009  10.369   6.085 -1.8106 -1.3651  1.3895
  523MOL0     H72157  11.172  10.507   6.213  0.8732  1.1974  2.2080
  523MOL0     H72158  10.041  10.742   7.723  2.8970  1.1695 -0.2174
  523MOL0     H72159   9.895  10.664   7.915  0.3872 -0.4551  1.6296
  523MOL0     H72160   9.780  10.305   8.134  1.7571 -0.6046  0.5866
  523MOL0     H72161   9.603  10.186   8.264 -1.3862  1.4153 -0.3331
  523MOL0     H72162   9.615  10.245   8.703  0.5058  1.7189 -1.1587
  523MOL0     H72163   9.497  10.353   8.641  1.5882  0.9775  1.5298
  523MOL0     H72164   9.321  10.221   8.634  1.4248  1.5443 -1.3590
  523MOL0     H72165   9.389  10.206   8.797 -0.2299  2.1565 -0.1113
  523MOL0     H72166   9.314   9.985   8.734 -1.5218  1.9927 -1.5636
  523MOL0     H72167   9.395   9.990   8.577  2.0653 -0.8924 -1.0335
  523MOL0     H72168   9.625   9.988   8.693 -0.4172 -1.7824 -0.5067
  523MOL0     H72169   9.529   9.849   8.718 -3.3862 -1.0149  0.9322
  523MOL0     H72170   9.566  10.036   9.110  1.1753  0.6985 -0.3114
  523MOL0     H72171   9.710  10.415   8.610  0.4422  0.9648  0.5020
  523MOL0     H72172   9.916  10.510   8.636 -3.2790  0.1934  0.3847
  523MOL0     H72173  10.035  10.509   8.497 -0.5133  0.2936  1.6736
  523MOL0     H72174   9.921  10.636   8.512  0.0878 -0.1046  0.4214
  524MOL0     O72175   2.076  10.007   8.619  0.7565  0.6689 -0.8413
  524MOL0     C72176   2.117  10.051   8.517  0.3078  0.4520 -0.0529
  524MOL0     O72177   2.241  10.020   8.458 -0.1694  0.1514 -0.6219
  524MOL0     C72178   2.318   9.917   8.509  0.1161  0.3164  0.9410
  524MOL0     C72179   2.454   9.938   8.517 -0.2261  0.4272 -0.2100
  524MOL0     C72180   2.537   9.840   8.569  0.1220  0.2346  0.3557
  524MOL0     C72181   2.489   9.708   8.609 -0.0988 -0.2196  0.5011
  524MOL0     O72182   2.572   9.606   8.668 -0.0889  0.1156 -0.4337
  524MOL0     C72183   2.705   9.638   8.708 -0.2907 -0.6759  0.3959
  524MOL0     C72184   2.748   9.541   8.821  0.0590 -0.5286 -0.4275
  524MOL0     C72185   2.892   9.585   8.876  0.0075  0.2661 -0.0823
  524MOL0     C72186   2.928   9.529   9.013 -0.2208  0.3426  0.0368
  524MOL0     C72187   3.068   9.589   9.046  0.6312  0.7011 -0.4716
  524MOL0     C72188   3.180   9.485   9.083  0.3832  1.0463 -1.4469
  524MOL0     C72189   3.303   9.561   9.150  0.5577  0.0208 -0.0672
  524MOL0     C72190   3.412   9.466   9.208  0.6292  0.3724 -0.1829
  524MOL0     N72191   3.520   9.556   9.244  0.1185 -0.5875  0.1717
  524MOL0     C72192   3.599   9.625   9.157 -0.5824 -0.4321  0.3460
  524MOL0     C72193   3.676   9.706   9.245 -0.3396  0.6345  0.4807
  524MOL0     C72194   3.782   9.797   9.189 -0.3325  0.3064  0.0901
  524MOL0     C72195   3.905   9.772   9.273  0.7865  0.7594 -0.5472
  524MOL0     C72196   4.033   9.810   9.197  0.6014  0.3407 -1.0546
  524MOL0     C72197   4.146   9.865   9.291 -0.2766  0.1050  0.1914
  524MOL0     O72198   4.088   9.982   9.354  0.0303  0.3849  0.2966
  524MOL0     C72199   4.148  10.046   9.452  0.1544 -1.2772 -0.1824
  524MOL0     C72200   4.075  10.133   9.529  0.7429  0.1601  0.0314
  524MOL0     C72201   4.125  10.214   9.626  0.5853  0.3575 -0.0041
  524MOL0     C72202   4.032  10.319   9.685 -0.0934  1.1871 -0.1162
  524MOL0     C72203   4.270  10.212   9.647  0.8490  0.1437  0.4234
  524MOL0     C72204   4.339  10.315   9.745  0.6255 -0.0183  0.4420
  524MOL0     O72205   4.269  10.349   9.855  0.1730  0.2208 -0.1215
  524MOL0     C72206   4.257  10.482   9.884  0.0663 -0.7189 -0.4331
  524MOL0     C72207   4.213  10.515  10.018 -0.3290  0.4403 -0.2092
  524MOL0     C72208   4.200  10.656  10.050  0.8186  0.5047  0.3923
  524MOL0     C72209   4.204  10.753   9.957  0.0864 -0.0570 -0.0534
  524MOL0     O72210   4.186  10.885   9.996 -0.0628  0.0400  0.5326
  524MOL0     C72211   4.149  10.986   9.899  0.8892  0.1870 -0.1694
  524MOL0     C72212   4.110  11.126   9.966 -0.7722  0.5521  0.1263
  524MOL0     C72213   4.221  11.194  10.050  0.2690 -0.3255 -0.4816
  524MOL0     C72214   4.200  11.339  10.074  0.0796  0.1738  0.0861
  524MOL0     C72215   4.274  11.388  10.198  0.6917  0.9788  0.6139
  524MOL0     C72216   4.426  11.382  10.164  0.7706 -0.5326 -0.4536
  524MOL0     C72217   4.498  11.282  10.256  0.1871  0.2063 -0.5507
  524MOL0     C72218   4.638  11.278  10.226 -0.1419  0.0405 -0.6339
  524MOL0    Cl72219   4.716  11.427  10.288  0.4609  0.0153 -0.0533
  524MOL0     C72220   4.227  10.722   9.821  0.5530  0.3778 -0.3625
  524MOL0     C72221   4.271  10.593   9.791 -0.2995 -0.0762 -0.8331
  524MOL0     O72222   4.451  10.354   9.723 -0.4601  1.1539  0.0927
  524MOL0     C72223   4.349  10.117   9.571 -0.2352 -0.2039  0.8477
  524MOL0     C72224   4.282  10.035   9.483 -0.1346  1.0233  0.6133
  524MOL0     N72225   3.623   9.693   9.366  0.3662  0.1715 -0.7783
  524MOL0     N72226   3.527   9.610   9.374 -0.1446  0.6163 -0.5929
  524MOL0     C72227   2.349   9.684   8.596 -0.2012  0.6223 -0.7546
  524MOL0     C72228   2.268   9.787   8.544  0.2595 -0.5317  0.0760
  524MOL0     C72229   2.037  10.164   8.458 -0.5769 -1.2504  0.0630
  524MOL0     C72230   2.075  10.211   8.334 -0.0681  0.0802 -0.0836
  524MOL0     C72231   2.000  10.300   8.268  0.7163 -0.0272  0.8211
  524MOL0     C72232   1.877  10.333   8.318  0.8390 -0.6081  0.5822
  524MOL0     O72233   1.804  10.418   8.236  0.3832  0.2255 -0.5665
  524MOL0     C72234   1.661  10.439   8.260  0.3162 -0.1367  0.2419
  524MOL0     C72235   1.597  10.510   8.139  0.6491 -0.2293  0.1569
  524MOL0     C72236   1.469  10.589   8.169  0.2192  0.0046  0.0228
  524MOL0     C72237   1.353  10.502   8.232  0.3607  0.4420  0.9417
  524MOL0     C72238   1.346  10.362   8.190  0.0154 -0.6583  0.6165
  524MOL0     C72239   1.334  10.250   8.155  0.2995  0.1426  0.0920
  524MOL0     C72240   1.831  10.282   8.436  0.5277 -0.0193  1.2321
  524MOL0     C72241   1.912  10.206   8.515  0.6815 -0.2950  0.1621
  524MOL0     C72242   1.852  10.164   8.651  0.0134 -0.2099 -1.1977
  524MOL0     H72243   2.492  10.033   8.480 -2.6516  0.8926 -1.7468
  524MOL0     H72244   2.643   9.863   8.574  0.8933 -0.9227 -5.1575
  524MOL0     H72245   2.707   9.735   8.760  0.9891 -0.4452 -0.0322
  524MOL0     H72246   2.768   9.633   8.619  0.0094 -0.1184  0.5711
  524MOL0     H72247   2.666   9.546   8.892 -2.6117  0.8381 -3.3722
  524MOL0     H72248   2.746   9.440   8.779 -0.0592 -0.4192 -0.6853
  524MOL0     H72249   2.966   9.552   8.802  1.5806 -1.3796  2.0772
  524MOL0     H72250   2.891   9.694   8.881  1.3761  0.4283 -1.8979
  524MOL0     H72251   2.858   9.530   9.097 -0.1197  1.5231  0.1142
  524MOL0     H72252   2.928   9.421   8.996 -5.0543  0.1785 -0.1206
  524MOL0     H72253   3.059   9.660   9.129  1.0905 -1.5691  1.6601
  524MOL0     H72254   3.112   9.646   8.965  1.7009  0.8740  0.2158
  524MOL0     H72255   3.141   9.411   9.153  0.6164  1.2611 -1.0904
  524MOL0     H72256   3.219   9.431   8.996  2.5900 -0.9610  0.6184
  524MOL0     H72257   3.261   9.625   9.228 -1.9228  2.1747 -2.9147
  524MOL0     H72258   3.338   9.621   9.066  1.6622 -1.2581 -0.5696
  524MOL0     H72259   3.359   9.410   9.285 -1.3589 -0.4212 -2.0261
  524MOL0     H72260   3.441   9.396   9.129 -2.2484  1.6239 -2.5341
  524MOL0     H72261   3.620   9.621   9.051  0.9368 -1.2291  0.6476
  524MOL0     H72262   3.753   9.902   9.200  0.1580  0.2455  2.9733
  524MOL0     H72263   3.808   9.771   9.086  0.1668 -1.1389  0.5488
  524MOL0     H72264   3.897   9.836   9.361  1.1534  2.7417 -1.9019
  524MOL0     H72265   3.925   9.674   9.317  0.9041  0.6116 -0.9259
  524MOL0     H72266   4.070   9.728   9.135  0.4242 -0.1045 -0.5760
  524MOL0     H72267   4.002   9.899   9.141 -3.0496  0.2782  0.6056
  524MOL0     H72268   4.170   9.784   9.361 -3.6591 -0.6562  0.6629
  524MOL0     H72269   4.232   9.887   9.228 -1.5196 -1.1961 -2.0907
  524MOL0     H72270   3.971  10.129   9.499  0.7352  0.1033  0.0655
  524MOL0     H72271   4.008  10.288   9.787  0.9729 -1.4984 -0.5983
  524MOL0     H72272   3.942  10.339   9.626  1.4234 -0.3470 -3.1362
  524MOL0     H72273   4.077  10.419   9.687  0.4330  0.9443  0.5229
  524MOL0     H72274   4.197  10.437  10.092 -1.9116 -0.3908 -1.3802
  524MOL0     H72275   4.175  10.684  10.152  2.0947  1.1240  0.5599
  524MOL0     H72276   4.218  11.007   9.817 -0.0591 -0.0467 -1.0512
  524MOL0     H72277   4.052  10.952   9.860 -0.3531  1.1571  1.8767
  524MOL0     H72278   4.064  11.194   9.895  0.1344  1.8346  0.7116
  524MOL0     H72279   4.026  11.098  10.030 -1.5813  0.4704 -0.9562
  524MOL0     H72280   4.317  11.180  10.000 -0.0946  1.9986 -2.0358
  524MOL0     H72281   4.225  11.140  10.145  0.4696  2.1653  1.0226
  524MOL0     H72282   4.091  11.345  10.084 -0.2029 -3.3782  0.3993
  524MOL0     H72283   4.235  11.401   9.991 -2.0108  0.5548 -0.5854
  524MOL0     H72284   4.236  11.488  10.222  0.1952  0.5361  1.6975
  524MOL0     H72285   4.259  11.315  10.278 -1.7804  0.6460 -0.0667
  524MOL0     H72286   4.465  11.482  10.187  1.6498 -0.4977 -1.9560
  524MOL0     H72287   4.450  11.356  10.061  1.1885 -1.9863 -0.0086
  524MOL0     H72288   4.454  11.183  10.242  0.5189 -0.0634  0.2200
  524MOL0     H72289   4.483  11.304  10.362  0.6333 -1.6280 -0.0684
  524MOL0     H72290   4.672  11.259  10.123  3.4082  0.1280  0.3685
  524MOL0     H72291   4.659  11.191  10.289  0.1533  1.2384  0.9590
  524MOL0     H72292   4.213  10.803   9.751  0.3822  2.5250  2.0078
  524MOL0     H72293   4.302  10.559   9.692 -2.4235 -1.5631 -1.0705
  524MOL0     H72294   4.452  10.103   9.602  0.6468  2.0326 -0.8172
  524MOL0     H72295   4.336   9.953   9.439 -2.7406 -1.4318  1.6649
  524MOL0     H72296   2.307   9.587   8.617  2.2539 -0.3218  0.1688
  524MOL0     H72297   2.165   9.757   8.527  0.9468 -1.9047 -2.1179
  524MOL0     H72298   2.165  10.180   8.281  0.3702 -1.8685  1.6575
  524MOL0     H72299   2.030  10.342   8.173 -0.2778 -0.2475  0.3985
  524MOL0     H72300   1.607  10.347   8.281  0.9661 -0.2455  1.4976
  524MOL0     H72301   1.650  10.505   8.347 -1.6334  1.6844 -1.2580
  524MOL0     H72302   1.587  10.440   8.056  2.2253  2.9758 -3.0587
  524MOL0     H72303   1.660  10.590   8.097 -0.5478  1.1777  0.9553
  524MOL0     H72304   1.486  10.672   8.239 -1.5277  0.0200  0.4983
  524MOL0     H72305   1.432  10.624   8.072 -0.3628 -3.4199 -1.1463
  524MOL0     H72306   1.257  10.552   8.213  0.7385  0.7545 -0.2285
  524MOL0     H72307   1.365  10.490   8.340  0.5494 -0.8532  0.7899
  524MOL0     H72308   1.331  10.146   8.129 -2.8343 -0.6506  2.9736
  524MOL0     H72309   1.729  10.307   8.466  0.1463  0.3808 -0.2915
  524MOL0     H72310   1.839  10.056   8.654  1.4307 -0.4035 -1.3491
  524MOL0     H72311   1.912  10.200   8.735 -0.1023 -4.6076  1.0379
  524MOL0     H72312   1.748  10.195   8.659 -1.2915 -3.9128 -2.0781
  525MOL0     O72313   7.526   1.420   3.281 -0.1569  0.7076  0.2491
  525MOL0     C72314   7.530   1.322   3.211 -0.8167 -0.4285 -0.3482
  525MOL0     O72315   7.650   1.277   3.148  0.4688 -0.3469 -0.4725
  525MOL0     C72316   7.778   1.323   3.178  0.1028  0.1042 -0.5295
  525MOL0     C72317   7.824   1.448   3.140  0.1300 -0.6438 -0.5580
  525MOL0     C72318   7.965   1.482   3.134  0.0025 -0.5981 -0.0434
  525MOL0     C72319   8.051   1.395   3.196 -1.6844  1.0793  0.0581
  525MOL0     O72320   8.183   1.422   3.229 -0.5594 -0.5744  0.0549
  525MOL0     C72321   8.244   1.543   3.183 -0.9550 -0.0586  0.2293
  525MOL0     C72322   8.390   1.558   3.250 -0.1143 -0.8460 -0.6132
  525MOL0     C72323   8.467   1.690   3.207 -0.4628 -0.8626 -0.6756
  525MOL0     C72324   8.583   1.709   3.304 -0.4047  0.3386 -0.1464
  525MOL0     C72325   8.672   1.827   3.266 -0.2623 -0.0392  0.8950
  525MOL0     C72326   8.790   1.836   3.366 -0.8049  0.5138 -0.5182
  525MOL0     C72327   8.876   1.959   3.330 -0.2720  1.1177  0.7716
  525MOL0     C72328   8.984   1.987   3.434  0.2679 -0.6891 -0.0377
  525MOL0     N72329   9.105   1.913   3.415  0.6053 -0.1174 -0.1120
  525MOL0     C72330   9.207   1.952   3.331 -0.1761  0.7900 -0.6400
  525MOL0     C72331   9.287   1.847   3.318  0.3883  0.5584  0.1204
  525MOL0     C72332   9.400   1.823   3.237  0.0814  0.4226 -0.0974
  525MOL0     C72333   9.538   1.893   3.265  0.9601  0.8764  1.1334
  525MOL0     C72334   9.661   1.839   3.197 -0.1965  0.3595  0.8243
  525MOL0     C72335   9.764   1.947   3.182  0.4731 -0.1132  0.5597
  525MOL0     O72336   9.821   1.970   3.312  0.0010 -0.5604  0.4662
  525MOL0     C72337   9.953   2.007   3.332 -0.8058 -0.5838  0.5948
  525MOL0     C72338  10.027   2.085   3.234  0.1189  0.1651  1.2046
  525MOL0     C72339  10.159   2.123   3.253  1.2018 -1.1027 -0.5098
  525MOL0     C72340  10.239   2.168   3.131  0.9579  0.5042 -0.0255
  525MOL0     C72341  10.219   2.104   3.379  0.5695 -0.2551  0.7078
  525MOL0     C72342  10.352   2.165   3.412 -0.4408  0.4404 -0.8273
  525MOL0     O72343  10.409   2.125   3.525  0.0386  0.3216  0.3374
  525MOL0     C72344  10.539   2.154   3.559  0.6022 -0.4483  0.1600
  525MOL0     C72345  10.569   2.141   3.694  0.1023  0.0168  0.0374
  525MOL0     C72346  10.707   2.152   3.736 -1.2224 -1.1458  0.7763
  525MOL0     C72347  10.809   2.169   3.636  0.5358 -0.3292  0.4069
  525MOL0     O72348  10.940   2.173   3.670  0.1060  0.9332  0.8788
  525MOL0     C72349  11.002   2.295   3.719 -0.6929  0.2223 -0.1616
  525MOL0     C72350  11.077   2.370   3.618 -0.4697 -0.1721  0.6562
  525MOL0     C72351  11.218   2.318   3.608 -0.3223  0.0647 -0.1283
  525MOL0     C72352  11.288   2.385   3.493 -0.1696  0.3122 -0.4280
  525MOL0     C72353  11.394   2.303   3.437  0.0394  0.9495 -0.0691
  525MOL0     C72354  11.514   2.295   3.531  0.0882 -0.4111  0.6183
  525MOL0     C72355  11.640   2.243   3.464  0.4168 -0.8518 -1.1709
  525MOL0     C72356  11.756   2.226   3.553  0.7144 -0.2694 -0.0612
  525MOL0    Cl72357  11.779   2.373   3.665 -0.2463 -0.1734  0.1618
  525MOL0     C72358  10.775   2.181   3.500  1.3105 -0.3267  0.1175
  525MOL0     C72359  10.644   2.162   3.469  0.7891  0.6454 -0.5234
  525MOL0     O72360  10.397   2.259   3.342  0.1383 -0.2315 -0.6722
  525MOL0     C72361  10.144   2.042   3.483  0.8684 -0.4580  0.4682
  525MOL0     C72362  10.015   1.990   3.460  0.4918 -0.0120  0.5451
  525MOL0     N72363   9.240   1.748   3.405  0.3495 -0.9019  0.5705
  525MOL0     N72364   9.133   1.789   3.466  0.2006 -0.2609 -0.1964
  525MOL0     C72365   8.006   1.268   3.232  0.3588  0.4954 -0.4877
  525MOL0     C72366   7.874   1.233   3.222  1.1314 -0.3116 -0.9450
  525MOL0     C72367   7.403   1.242   3.198  0.2373  0.2821 -0.4805
  525MOL0     C72368   7.408   1.103   3.185  0.3241  0.1100 -0.0049
  525MOL0     C72369   7.297   1.023   3.180 -0.2018 -0.3955  0.2097
  525MOL0     C72370   7.159   1.077   3.167 -0.3178  0.2467  0.4230
  525MOL0     O72371   7.037   1.010   3.142  0.3628 -0.2064  0.9260
  525MOL0     C72372   7.065   0.874   3.096  0.2136  0.0668  0.2643
  525MOL0     C72373   6.934   0.799   3.094  0.0559  0.0138 -0.2314
  525MOL0     C72374   6.958   0.640   3.077  0.0600 -0.4412 -0.1251
  525MOL0     C72375   6.952   0.561   3.213  1.4276  0.7353  0.7022
  525MOL0     C72376   7.033   0.620   3.313  0.0079 -0.0536 -0.1805
  525MOL0     C72377   7.091   0.662   3.416 -0.3454  0.2809 -0.0315
  525MOL0     C72378   7.150   1.218   3.181  1.0524  0.2422  0.7553
  525MOL0     C72379   7.270   1.299   3.187 -0.4191  0.9354  0.2162
  525MOL0     C72380   7.245   1.448   3.200 -0.1384 -0.5903 -0.4466
  525MOL0     H72381   7.750   1.512   3.093 -1.7548 -0.2963  2.5840
  525MOL0     H72382   7.997   1.579   3.096 -0.2266  0.0620  1.3732
  525MOL0     H72383   8.190   1.637   3.200 -0.6714  0.7295 -2.6557
  525MOL0     H72384   8.254   1.542   3.074  0.1986  1.6190  0.2797
  525MOL0     H72385   8.374   1.559   3.359  0.1949 -0.5902 -0.5694
  525MOL0     H72386   8.453   1.475   3.217 -0.7147 -0.2695 -3.4073
  525MOL0     H72387   8.502   1.687   3.103  0.8937 -1.8227 -0.2187
  525MOL0     H72388   8.401   1.776   3.221  0.3000 -0.0098 -2.0860
  525MOL0     H72389   8.544   1.722   3.406  2.5126  3.2364  0.7856
  525MOL0     H72390   8.643   1.618   3.305 -0.9287 -0.0198 -0.5252
  525MOL0     H72391   8.620   1.923   3.261  1.4518  0.8998  0.1177
  525MOL0     H72392   8.721   1.805   3.170  0.9092 -1.1979  1.7275
  525MOL0     H72393   8.744   1.839   3.466 -0.3647 -0.6710 -0.2618
  525MOL0     H72394   8.865   1.757   3.358  1.6816  2.6677 -0.1467
  525MOL0     H72395   8.814   2.048   3.329  0.6623  1.8947  3.3075
  525MOL0     H72396   8.923   1.944   3.232  0.3574 -1.5478  1.3842
  525MOL0     H72397   9.024   2.089   3.433 -0.1102 -0.4127  3.0980
  525MOL0     H72398   8.954   1.974   3.538  4.0573 -2.7081  0.9898
  525MOL0     H72399   9.217   2.039   3.267 -1.4446  0.9756 -0.6215
  525MOL0     H72400   9.380   1.863   3.137 -0.6065  0.0428 -0.1137
  525MOL0     H72401   9.413   1.714   3.242 -0.1579  0.4297  0.8722
  525MOL0     H72402   9.536   2.002   3.254  3.3921  0.9485  0.7749
  525MOL0     H72403   9.568   1.899   3.370  2.9695  4.7107  0.5136
  525MOL0     H72404   9.695   1.757   3.260 -0.1743  1.2159  1.9628
  525MOL0     H72405   9.638   1.806   3.095  3.2092 -0.6026  0.2404
  525MOL0     H72406   9.839   1.915   3.109 -1.1358 -2.6031 -0.1238
  525MOL0     H72407   9.722   2.036   3.134 -1.5196 -2.4348 -2.2895
  525MOL0     H72408   9.970   2.102   3.143 -0.1171  0.1126  1.3418
  525MOL0     H72409  10.260   2.275   3.132 -2.7067  1.3633 -0.9267
  525MOL0     H72410  10.181   2.149   3.040 -0.3262  2.1389  0.3967
  525MOL0     H72411  10.333   2.113   3.124  1.4329  0.7434  2.8895
  525MOL0     H72412  10.490   2.138   3.767 -0.7709 -1.0487 -0.9183
  525MOL0     H72413  10.736   2.154   3.841  0.4224  0.4049  0.3408
  525MOL0     H72414  10.924   2.365   3.750 -0.3554  0.3145  0.5087
  525MOL0     H72415  11.056   2.262   3.809 -1.3020 -0.5361 -0.0565
  525MOL0     H72416  11.028   2.352   3.522  4.2750 -4.1814 -1.4617
  525MOL0     H72417  11.088   2.477   3.638  0.5290  0.1710 -1.4580
  525MOL0     H72418  11.226   2.210   3.594  2.2110  0.2755 -0.8122
  525MOL0     H72419  11.263   2.357   3.699  0.2698  0.9831 -0.7977
  525MOL0     H72420  11.329   2.481   3.527 -1.8239  0.7686  0.3808
  525MOL0     H72421  11.223   2.415   3.410  2.1435 -0.4482 -2.6476
  525MOL0     H72422  11.358   2.201   3.419 -1.6727  1.1993  1.6007
  525MOL0     H72423  11.430   2.347   3.344 -0.0867  1.4838  0.1298
  525MOL0     H72424  11.494   2.247   3.627  4.4329  0.2975  2.0790
  525MOL0     H72425  11.531   2.399   3.559  0.2387 -0.1003 -0.5647
  525MOL0     H72426  11.671   2.323   3.395  0.1125 -1.6620 -2.2878
  525MOL0     H72427  11.625   2.150   3.409  1.1160 -0.1586 -2.5991
  525MOL0     H72428  11.843   2.205   3.489 -0.4691 -0.6028 -1.6179
  525MOL0     H72429  11.732   2.145   3.623 -0.0284  0.3633  0.4233
  525MOL0     H72430  10.854   2.201   3.429  2.1446 -0.3084  1.0328
  525MOL0     H72431  10.626   2.134   3.366 -0.1444  1.2154 -0.5356
  525MOL0     H72432  10.170   2.040   3.589 -1.2860  0.8064  1.0916
  525MOL0     H72433   9.954   1.947   3.538 -0.4153  1.1012  0.4776
  525MOL0     H72434   8.068   1.195   3.283  0.9485  2.2290  1.4414
  525MOL0     H72435   7.850   1.130   3.245  1.0185 -0.0686  0.0696
  525MOL0     H72436   7.510   1.065   3.186 -0.0037 -0.9025 -1.8754
  525MOL0     H72437   7.320   0.917   3.185 -2.5526 -0.8776  3.1134
  525MOL0     H72438   7.120   0.875   3.002 -1.7391  0.4715 -0.9452
  525MOL0     H72439   7.129   0.828   3.172 -1.0134 -2.1936  0.0064
  525MOL0     H72440   6.877   0.839   3.009  0.7685 -2.4693 -2.0157
  525MOL0     H72441   6.871   0.817   3.181 -2.1246  0.6975 -1.8427
  525MOL0     H72442   6.880   0.593   3.017  0.8384  1.0703 -2.4435
  525MOL0     H72443   7.053   0.630   3.025  0.0475  0.8952 -0.4528
  525MOL0     H72444   6.999   0.470   3.176  0.5302  1.1206 -1.5572
  525MOL0     H72445   6.852   0.551   3.256  1.0270  1.6977  0.0492
  525MOL0     H72446   7.142   0.695   3.505 -3.1622 -0.6582  2.0726
  525MOL0     H72447   7.046   1.247   3.192  0.8200 -1.3561  3.8955
  525MOL0     H72448   7.271   1.515   3.117  0.1923  3.4427  2.6123
  525MOL0     H72449   7.139   1.474   3.210 -0.2309 -1.2782  0.4864
  525MOL0     H72450   7.296   1.488   3.288 -1.9401  0.1231  0.3344
  526MOL0     O72451   2.926   4.061   0.933  0.2456  0.3558 -0.0945
  526MOL0     C72452   2.867   4.165   0.921  0.5255  0.3414  0.2678
  526MOL0     O72453   2.925   4.273   0.851  0.1142 -1.0281  0.1300
  526MOL0     C72454   3.059   4.282   0.832  0.3308  0.4248  0.4429
  526MOL0     C72455   3.100   4.306   0.701 -0.2775  0.1343  0.2057
  526MOL0     C72456   3.235   4.341   0.681  0.0237 -0.6945 -0.0821
  526MOL0     C72457   3.336   4.329   0.780  0.4009 -0.4702 -0.6280
  526MOL0     O72458   3.469   4.334   0.741 -0.5555  0.0195 -0.4670
  526MOL0     C72459   3.576   4.347   0.828  0.8742  0.3890  0.5892
  526MOL0     C72460   3.604   4.495   0.837  0.8156  0.5408  0.0888
  526MOL0     C72461   3.673   4.557   0.712 -1.3509 -0.3598 -0.2266
  526MOL0     C72462   3.581   4.554   0.587 -0.1104 -0.5008 -0.0598
  526MOL0     C72463   3.640   4.614   0.462  0.2191  0.1064 -0.5342
  526MOL0     C72464   3.755   4.538   0.396 -0.1086 -0.3478 -0.2090
  526MOL0     C72465   3.716   4.420   0.303  0.5064 -0.2595 -0.2397
  526MOL0     C72466   3.833   4.340   0.246  0.2492  0.6573 -0.0604
  526MOL0     N72467   3.777   4.231   0.161  0.3624  0.9174  0.2903
  526MOL0     C72468   3.645   4.213   0.121 -0.4760  0.7777 -0.5565
  526MOL0     C72469   3.645   4.107   0.045  0.2643 -0.7629 -0.1030
  526MOL0     C72470   3.519   4.062  -0.035 -0.0504 -0.3611  0.7434
  526MOL0     C72471   3.416   3.989   0.052  0.1586  0.7876 -1.6449
  526MOL0     C72472   3.312   3.938  -0.043  0.1367  0.2576  0.2515
  526MOL0     C72473   3.197   3.877   0.028  0.0893 -0.1692  0.4269
  526MOL0     O72474   3.099   3.885  -0.069 -0.2436 -0.6435  0.4402
  526MOL0     C72475   3.007   3.790  -0.074 -1.2325  0.3234  0.1764
  526MOL0     C72476   3.038   3.662  -0.115  0.2723  0.1653 -0.1746
  526MOL0     C72477   2.944   3.557  -0.125  0.6228  0.0610  0.4159
  526MOL0     C72478   2.993   3.419  -0.176  0.0825  0.6683 -0.1471
  526MOL0     C72479   2.804   3.595  -0.095  0.7457 -0.5117  1.0202
  526MOL0     C72480   2.685   3.501  -0.110  0.2509  0.9431 -0.2608
  526MOL0     O72481   2.565   3.559  -0.145  0.0151 -0.2527  0.0511
  526MOL0     C72482   2.460   3.477  -0.172  0.7258 -0.7660 -0.0074
  526MOL0     C72483   2.429   3.366  -0.097 -0.1444  0.7107  0.0413
  526MOL0     C72484   2.319   3.283  -0.139 -0.4077  0.5807 -0.7918
  526MOL0     C72485   2.238   3.326  -0.238  0.3631 -0.5011 -0.0060
  526MOL0     O72486   2.128   3.255  -0.281  0.3736 -0.0898 -0.1808
  526MOL0     C72487   2.019   3.239  -0.195  0.2260  0.4474 -1.2042
  526MOL0     C72488   1.889   3.228  -0.276 -0.2228 -0.4735 -0.9099
  526MOL0     C72489   1.852   3.349  -0.363  0.1521 -0.5055  0.3310
  526MOL0     C72490   1.717   3.305  -0.423  0.5258  0.3335  0.1648
  526MOL0     C72491   1.653   3.433  -0.488  0.1395 -0.8349 -0.1533
  526MOL0     C72492   1.579   3.531  -0.394  0.2566 -0.3880 -0.3697
  526MOL0     C72493   1.497   3.641  -0.467  0.4024  0.7728  0.5921
  526MOL0     C72494   1.557   3.783  -0.453  1.0765  0.6178 -0.0279
  526MOL0    Cl72495   1.476   3.883  -0.577  0.3003  0.6257  0.5136
  526MOL0     C72496   2.261   3.444  -0.315 -0.4442  0.3099 -0.5632
  526MOL0     C72497   2.373   3.519  -0.280  0.4807  0.3584  0.0573
  526MOL0     O72498   2.711   3.382  -0.110 -0.5498 -0.1353 -0.9898
  526MOL0     C72499   2.780   3.728  -0.057  0.0899  0.3190 -0.2419
  526MOL0     C72500   2.875   3.823  -0.055  0.5964 -0.6402  1.0343
  526MOL0     N72501   3.772   4.055   0.040  0.1714  0.3843 -0.1038
  526MOL0     N72502   3.855   4.132   0.105 -0.0782 -0.3700  0.1754
  526MOL0     C72503   3.283   4.301   0.912 -0.2471 -0.0891 -0.5004
  526MOL0     C72504   3.151   4.281   0.936 -0.2946 -0.7134 -0.3188
  526MOL0     C72505   2.739   4.180   0.980 -1.1708 -0.0232 -0.5909
  526MOL0     C72506   2.717   4.277   1.081  0.1748 -0.3356  0.2045
  526MOL0     C72507   2.589   4.287   1.133  0.1265 -0.1165 -0.5761
  526MOL0     C72508   2.483   4.198   1.094  0.2050 -0.3044 -0.0842
  526MOL0     O72509   2.350   4.215   1.135 -0.7107 -0.7395 -0.3670
  526MOL0     C72510   2.303   4.337   1.171 -0.1332  0.7023  0.0867
  526MOL0     C72511   2.152   4.342   1.156 -0.3338  0.4165 -0.0837
  526MOL0     C72512   2.096   4.243   1.268 -0.0321 -0.2943 -0.7326
  526MOL0     C72513   1.948   4.244   1.280  0.0455 -0.1897 -0.0821
  526MOL0     C72514   1.887   4.363   1.331  0.5081 -0.9114 -0.9634
  526MOL0     C72515   1.828   4.460   1.362  0.7058 -0.6127 -0.9603
  526MOL0     C72516   2.504   4.113   0.982  0.9435 -0.0333 -0.2886
  526MOL0     C72517   2.633   4.092   0.938 -0.4053 -0.2289 -0.7060
  526MOL0     C72518   2.643   3.986   0.834  0.2527  0.3325 -0.0493
  526MOL0     H72519   3.029   4.313   0.618  1.6493  1.2378 -1.4560
  526MOL0     H72520   3.268   4.360   0.580  0.2469 -1.0912 -0.0872
  526MOL0     H72521   3.654   4.289   0.778  0.7546  0.2181  0.6001
  526MOL0     H72522   3.558   4.310   0.929  0.9310 -0.8177  0.1710
  526MOL0     H72523   3.509   4.550   0.844  1.0433  0.8887  0.4747
  526MOL0     H72524   3.671   4.517   0.920  0.0322  2.5372  0.2431
  526MOL0     H72525   3.699   4.660   0.737 -0.7691 -0.8028  1.0434
  526MOL0     H72526   3.770   4.513   0.687 -0.9385 -0.3199  1.2125
  526MOL0     H72527   3.543   4.455   0.561 -1.2127  0.2267 -1.3363
  526MOL0     H72528   3.494   4.618   0.608  2.2263  4.3008 -3.0426
  526MOL0     H72529   3.675   4.712   0.494 -1.9055  0.7559 -0.0393
  526MOL0     H72530   3.567   4.621   0.381 -1.6725  0.7254  1.1395
  526MOL0     H72531   3.813   4.612   0.341 -0.2986  0.3338  0.4915
  526MOL0     H72532   3.830   4.502   0.466  1.6018  0.8670 -1.3508
  526MOL0     H72533   3.657   4.466   0.223  1.5765 -1.4915 -1.8129
  526MOL0     H72534   3.648   4.352   0.355 -3.0623  2.7997 -0.4311
  526MOL0     H72535   3.907   4.400   0.193 -0.0736 -1.1484 -2.7125
  526MOL0     H72536   3.892   4.296   0.327  1.5944  0.8417 -0.9082
  526MOL0     H72537   3.558   4.277   0.131 -1.1861 -0.4657  2.2428
  526MOL0     H72538   3.548   3.990  -0.112 -0.0095  2.6692 -2.3042
  526MOL0     H72539   3.478   4.151  -0.083  2.2364  0.6805  0.6043
  526MOL0     H72540   3.457   3.906   0.110  1.0478  0.7523 -2.2996
  526MOL0     H72541   3.367   4.067   0.112 -0.1660 -0.6915  0.0910
  526MOL0     H72542   3.276   4.019  -0.107 -0.6818  0.4439  0.9372
  526MOL0     H72543   3.357   3.861  -0.108 -0.7533 -1.4040  1.5251
  526MOL0     H72544   3.222   3.775   0.058  2.6089 -0.3430 -1.8842
  526MOL0     H72545   3.173   3.943   0.112 -1.2042 -0.3219  0.2049
  526MOL0     H72546   3.140   3.638  -0.141 -0.5818 -2.4887 -1.4256
  526MOL0     H72547   3.101   3.414  -0.187  0.1759 -1.4326  1.2771
  526MOL0     H72548   2.943   3.387  -0.268  1.8084 -3.2101  0.0896
  526MOL0     H72549   2.969   3.341  -0.104  0.3955  1.6162  1.0216
  526MOL0     H72550   2.495   3.335  -0.016  0.0730  1.0618 -0.0002
  526MOL0     H72551   2.282   3.194  -0.090 -0.7252  2.1843  2.0485
  526MOL0     H72552   2.037   3.160  -0.122  0.4824  2.1900  0.7245
  526MOL0     H72553   2.027   3.322  -0.124  3.6462 -1.9815  1.5948
  526MOL0     H72554   1.886   3.139  -0.338  0.2532 -2.4001  1.6489
  526MOL0     H72555   1.800   3.223  -0.211 -1.0482  1.1987 -1.8424
  526MOL0     H72556   1.921   3.362  -0.447 -0.5974  0.4248 -0.1669
  526MOL0     H72557   1.847   3.444  -0.309  1.9155 -1.2587  1.9393
  526MOL0     H72558   1.653   3.269  -0.342  2.0789 -0.3405  1.1267
  526MOL0     H72559   1.723   3.232  -0.504 -2.8792 -0.1974  0.2455
  526MOL0     H72560   1.734   3.484  -0.541 -1.0187 -0.2943 -1.4664
  526MOL0     H72561   1.578   3.401  -0.560 -1.4816 -0.1776  1.1842
  526MOL0     H72562   1.656   3.574  -0.330  2.6750 -3.4720 -0.9738
  526MOL0     H72563   1.499   3.475  -0.344 -0.3487  2.5310  2.3167
  526MOL0     H72564   1.392   3.644  -0.435  0.8336 -0.1409  2.1866
  526MOL0     H72565   1.486   3.619  -0.573  1.1409  0.7624  0.5112
  526MOL0     H72566   1.665   3.796  -0.459  1.1567 -0.2344 -0.6897
  526MOL0     H72567   1.536   3.818  -0.352  0.8272  2.6578 -0.7472
  526MOL0     H72568   2.196   3.484  -0.391 -1.8243 -1.3644 -0.3315
  526MOL0     H72569   2.406   3.609  -0.332 -0.5970  0.1956 -0.9511
  526MOL0     H72570   2.677   3.761  -0.049 -0.1472 -0.4073 -0.2282
  526MOL0     H72571   2.847   3.924  -0.028 -2.6365 -0.9449 -0.6640
  526MOL0     H72572   3.351   4.287   0.994 -0.4887  0.8340 -0.1299
  526MOL0     H72573   3.128   4.279   1.042  0.8735  1.6612  0.0431
  526MOL0     H72574   2.785   4.354   1.117  0.7266 -0.8816  0.3403
  526MOL0     H72575   2.577   4.380   1.188  1.5279  1.7782 -3.2058
  526MOL0     H72576   2.337   4.362   1.272  2.2959  1.1231 -0.7885
  526MOL0     H72577   2.349   4.412   1.107  1.8844 -0.3911  0.1646
  526MOL0     H72578   2.121   4.300   1.059 -0.9833  0.1048  0.2537
  526MOL0     H72579   2.121   4.446   1.167 -2.1032  0.2190 -2.3048
  526MOL0     H72580   2.124   4.138   1.259 -1.0235 -0.9966  2.7918
  526MOL0     H72581   2.133   4.272   1.367 -1.8274 -3.6240  1.0885
  526MOL0     H72582   1.910   4.160   1.339 -1.4212  2.2935  2.7869
  526MOL0     H72583   1.900   4.241   1.182  3.4805 -4.0850 -1.9718
  526MOL0     H72584   1.765   4.543   1.385 -4.3381 -4.7130  2.1347
  526MOL0     H72585   2.415   4.058   0.952 -1.4339  3.7276 -0.7572
  526MOL0     H72586   2.692   3.894   0.869 -3.0968 -1.4596  0.3123
  526MOL0     H72587   2.546   3.955   0.796  0.0230  2.4338 -1.3024
  526MOL0     H72588   2.697   4.018   0.744  0.3323 -0.1412 -0.1727
  527MOL0     O72589   6.810   2.407   0.705  0.7093 -0.0982  0.4600
  527MOL0     C72590   6.867   2.408   0.814 -0.5980  0.4432  0.2392
  527MOL0     O72591   6.996   2.368   0.830 -0.1872 -0.2372  0.0855
  527MOL0     C72592   7.085   2.347   0.727 -0.2712  0.2073 -0.0081
  527MOL0     C72593   7.186   2.248   0.755  0.1290 -0.2891 -0.0203
  527MOL0     C72594   7.288   2.218   0.663  1.4743 -0.4944  0.0240
  527MOL0     C72595   7.308   2.293   0.542  0.1903  0.1700 -0.6791
  527MOL0     O72596   7.421   2.279   0.463  0.0236 -0.2685  0.2974
  527MOL0     C72597   7.441   2.360   0.351  0.1084  0.0840 -0.3608
  527MOL0     C72598   7.577   2.319   0.275 -0.0504 -0.4684 -0.2946
  527MOL0     C72599   7.570   2.179   0.220  0.0680  0.2715 -0.1112
  527MOL0     C72600   7.709   2.136   0.167  0.1550 -0.0788  0.6675
  527MOL0     C72601   7.701   1.995   0.118 -0.0679  0.0237  0.6229
  527MOL0     C72602   7.689   1.887   0.233  0.3356 -0.7667  0.8208
  527MOL0     C72603   7.730   1.740   0.180  0.1275 -1.3536 -0.8506
  527MOL0     C72604   7.718   1.648   0.300  0.3464  0.5486 -0.9068
  527MOL0     N72605   7.752   1.513   0.262  0.5971  0.0949 -0.1565
  527MOL0     C72606   7.667   1.420   0.197  0.4129  0.0745 -0.0460
  527MOL0     C72607   7.732   1.315   0.179  0.1295  1.1592 -0.4244
  527MOL0     C72608   7.686   1.180   0.141 -0.0572 -0.2413 -0.2186
  527MOL0     C72609   7.687   1.164  -0.007  0.2722  0.1490 -0.1201
  527MOL0     C72610   7.648   1.023  -0.053 -0.0149 -1.2867 -0.2371
  527MOL0     C72611   7.560   1.027  -0.174  0.1733  0.1443 -0.2508
  527MOL0     O72612   7.615   1.108  -0.277 -0.1887 -0.3647  0.0223
  527MOL0     C72613   7.742   1.098  -0.323  0.7085 -0.0477  0.3141
  527MOL0     C72614   7.815   0.977  -0.321 -0.0630  0.7936 -0.1189
  527MOL0     C72615   7.949   0.971  -0.362 -0.9479 -0.4235  0.4338
  527MOL0     C72616   8.000   0.837  -0.394  0.3075 -0.5544  0.5005
  527MOL0     C72617   8.016   1.092  -0.404  0.2052 -0.4179  0.0269
  527MOL0     C72618   8.161   1.099  -0.455  0.1516  0.1680 -0.6272
  527MOL0     O72619   8.214   1.225  -0.451 -0.0421 -0.7444 -0.0809
  527MOL0     C72620   8.325   1.255  -0.519  0.0269 -0.0151 -0.5668
  527MOL0     C72621   8.315   1.251  -0.661 -0.4458  0.1580 -0.5883
  527MOL0     C72622   8.424   1.278  -0.750  0.1532 -0.4611  0.8077
  527MOL0     C72623   8.551   1.308  -0.690  0.4967  0.0218  0.4383
  527MOL0     O72624   8.661   1.321  -0.772  1.0444  0.4996  0.0179
  527MOL0     C72625   8.766   1.424  -0.751  0.1893  0.1911  0.7738
  527MOL0     C72626   8.838   1.460  -0.883 -1.1469  0.2825 -0.5472
  527MOL0     C72627   8.737   1.523  -0.987 -0.0619 -0.5581 -0.9667
  527MOL0     C72628   8.798   1.517  -1.121 -0.0749 -0.5344 -0.0453
  527MOL0     C72629   8.704   1.600  -1.213 -0.0485 -0.2334  0.7986
  527MOL0     C72630   8.757   1.615  -1.352  0.1603  0.2827  0.4902
  527MOL0     C72631   8.753   1.490  -1.435 -0.3600 -0.2545  0.2456
  527MOL0     C72632   8.808   1.503  -1.578  0.0776  0.1750  0.7601
  527MOL0    Cl72633   8.993   1.544  -1.566 -0.2093 -0.3961 -0.0315
  527MOL0     C72634   8.564   1.327  -0.544 -1.3718  0.1776 -0.5585
  527MOL0     C72635   8.452   1.296  -0.464 -0.1019 -0.6800  0.4679
  527MOL0     O72636   8.212   1.008  -0.515 -0.3838 -0.6776  0.3510
  527MOL0     C72637   7.946   1.215  -0.389 -0.0699 -0.5166 -0.4768
  527MOL0     C72638   7.808   1.211  -0.364 -0.0981 -1.2185  0.0667
  527MOL0     N72639   7.861   1.331   0.226 -0.1746 -0.0362  0.5162
  527MOL0     N72640   7.877   1.461   0.270  0.0260  0.4411  0.2645
  527MOL0     C72641   7.201   2.387   0.516  0.2777 -0.0270 -0.2432
  527MOL0     C72642   7.099   2.415   0.609  0.5737 -0.3480 -0.2930
  527MOL0     C72643   6.783   2.425   0.927 -0.0718 -0.6748  0.0867
  527MOL0     C72644   6.817   2.359   1.046 -0.0453  0.3736 -0.3061
  527MOL0     C72645   6.747   2.381   1.167  0.6103  0.3064 -0.5371
  527MOL0     C72646   6.660   2.485   1.169  0.3421 -0.2178 -0.0024
  527MOL0     O72647   6.620   2.550   1.280  0.0023 -0.6756 -0.2643
  527MOL0     C72648   6.673   2.519   1.416 -0.1349  0.2413  0.5974
  527MOL0     C72649   6.599   2.403   1.489  0.7143  0.3306  0.6862
  527MOL0     C72650   6.451   2.456   1.526 -0.4387  0.4287 -0.2133
  527MOL0     C72651   6.376   2.344   1.594  0.6123 -0.0727  0.1468
  527MOL0     C72652   6.235   2.370   1.620  0.5139 -0.7960  0.4185
  527MOL0     C72653   6.121   2.374   1.651  0.5769  0.0759  0.2394
  527MOL0     C72654   6.619   2.552   1.054 -0.3651 -0.2051  0.2434
  527MOL0     C72655   6.670   2.515   0.931 -0.9716  0.2890  0.2802
  527MOL0     C72656   6.628   2.594   0.813 -1.1856  1.0989  0.7422
  527MOL0     H72657   7.185   2.192   0.848 -2.8072 -0.4577 -0.0338
  527MOL0     H72658   7.352   2.135   0.691  0.4655 -1.0815  0.6543
  527MOL0     H72659   7.452   2.463   0.385  2.2476  0.0350 -0.7254
  527MOL0     H72660   7.363   2.362   0.275  1.2041  2.6620 -1.5479
  527MOL0     H72661   7.596   2.391   0.196 -0.4898  1.1158  0.9981
  527MOL0     H72662   7.666   2.321   0.339  0.2253  1.2107 -0.6862
  527MOL0     H72663   7.549   2.102   0.295  0.3171 -2.1884 -2.4026
  527MOL0     H72664   7.495   2.176   0.140  0.1212  2.3222 -0.2827
  527MOL0     H72665   7.747   2.203   0.090  0.2956  0.1121  0.9006
  527MOL0     H72666   7.789   2.132   0.241  0.1313  0.4330  0.7219
  527MOL0     H72667   7.790   1.970   0.060 -0.4420  1.8125 -0.8462
  527MOL0     H72668   7.616   1.991   0.049 -0.8180 -2.0874  1.6017
  527MOL0     H72669   7.761   1.913   0.311  2.7074 -1.0112 -1.1851
  527MOL0     H72670   7.586   1.885   0.271 -0.1858 -0.1404 -0.5036
  527MOL0     H72671   7.832   1.750   0.143 -0.3612 -0.8721 -2.1301
  527MOL0     H72672   7.665   1.728   0.093  1.5621  2.6568 -2.7404
  527MOL0     H72673   7.791   1.663   0.380  2.0425 -1.4516 -1.9952
  527MOL0     H72674   7.619   1.654   0.346 -1.0215 -0.8058 -3.4940
  527MOL0     H72675   7.561   1.441   0.190  0.4284  0.8981  1.6482
  527MOL0     H72676   7.586   1.177   0.185 -0.3292 -0.3091 -0.8421
  527MOL0     H72677   7.747   1.107   0.195  0.2269  0.9220  1.1335
  527MOL0     H72678   7.629   1.241  -0.058  1.8700  2.4098  1.3148
  527MOL0     H72679   7.790   1.180  -0.040  1.0977 -3.2258  0.3696
  527MOL0     H72680   7.743   0.970  -0.064  0.5729 -0.6413  1.3674
  527MOL0     H72681   7.600   0.960   0.023  0.3295 -1.1121  0.1280
  527MOL0     H72682   7.541   0.926  -0.210 -1.9951  0.3152  0.2701
  527MOL0     H72683   7.461   1.063  -0.145  1.5635  2.6989  1.8422
  527MOL0     H72684   7.767   0.888  -0.280 -1.0309  0.7101 -1.3802
  527MOL0     H72685   7.927   0.767  -0.352 -0.4080  0.1715  0.4961
  527MOL0     H72686   8.100   0.825  -0.351 -0.5390 -2.9422  2.0293
  527MOL0     H72687   8.002   0.823  -0.502 -0.4056  0.0676  0.3939
  527MOL0     H72688   8.224   1.219  -0.709 -0.1167 -0.1892 -0.9878
  527MOL0     H72689   8.416   1.265  -0.858 -1.6595 -0.3845  0.9115
  527MOL0     H72690   8.728   1.509  -0.694  0.9685  1.2014 -0.1665
  527MOL0     H72691   8.850   1.393  -0.687 -0.9919  0.6568  2.6228
  527MOL0     H72692   8.915   1.530  -0.850 -1.5593 -0.6912  2.8708
  527MOL0     H72693   8.877   1.369  -0.929 -0.3679 -1.4820  3.2461
  527MOL0     H72694   8.708   1.623  -0.953  1.1631 -0.9197  1.3338
  527MOL0     H72695   8.651   1.456  -0.984  0.1070 -0.7690 -0.7506
  527MOL0     H72696   8.807   1.415  -1.159 -2.4560 -1.0195  0.5369
  527MOL0     H72697   8.900   1.556  -1.112 -0.8196  1.6409 -0.3984
  527MOL0     H72698   8.605   1.555  -1.202  0.6447 -1.8129  0.7981
  527MOL0     H72699   8.710   1.700  -1.170  2.6919  0.0243  0.0505
  527MOL0     H72700   8.861   1.644  -1.337 -0.0205  0.6599  1.0407
  527MOL0     H72701   8.701   1.702  -1.389 -1.4997 -0.2233  1.6835
  527MOL0     H72702   8.653   1.446  -1.445 -0.1209 -0.7684  0.0603
  527MOL0     H72703   8.816   1.420  -1.379 -2.0645 -1.8696  0.2685
  527MOL0     H72704   8.765   1.587  -1.634  1.5172 -0.2836 -1.1195
  527MOL0     H72705   8.789   1.415  -1.641 -1.4298  2.3706 -2.1193
  527MOL0     H72706   8.654   1.346  -0.488 -2.2893  1.9042  0.4265
  527MOL0     H72707   8.460   1.308  -0.357 -1.6230 -1.2455  0.6692
  527MOL0     H72708   7.995   1.309  -0.412  2.6961 -1.9563 -0.7795
  527MOL0     H72709   7.757   1.306  -0.351  0.2990 -1.2127  1.9171
  527MOL0     H72710   7.217   2.453   0.432 -0.8792  0.7769  0.1427
  527MOL0     H72711   7.019   2.482   0.579  2.2613  0.7918 -2.6160
  527MOL0     H72712   6.894   2.283   1.056 -0.7936 -0.5946 -1.5685
  527MOL0     H72713   6.749   2.321   1.258  1.2471 -0.5939 -1.1257
  527MOL0     H72714   6.780   2.497   1.416  0.1441  1.5273  0.9800
  527MOL0     H72715   6.663   2.611   1.474  0.4299  1.5717 -1.3205
  527MOL0     H72716   6.654   2.406   1.584  2.9766  1.0499 -0.5880
  527MOL0     H72717   6.604   2.306   1.439  0.4831  0.1384  1.0216
  527MOL0     H72718   6.457   2.548   1.584 -0.1621  0.0925  0.2920
  527MOL0     H72719   6.417   2.475   1.423  3.0483 -1.2414 -1.8456
  527MOL0     H72720   6.436   2.320   1.683  3.1259 -2.0493 -1.9128
  527MOL0     H72721   6.390   2.257   1.529  0.7761 -0.6790  0.9757
  527MOL0     H72722   6.016   2.369   1.671  0.3081  0.3288 -1.0356
  527MOL0     H72723   6.543   2.630   1.060  0.3026  0.3236  4.0350
  527MOL0     H72724   6.558   2.669   0.850 -3.6599 -1.8475  2.5267
  527MOL0     H72725   6.713   2.639   0.760  0.3286 -0.6486  1.5916
  527MOL0     H72726   6.577   2.524   0.746 -0.0207 -0.3503  1.3134
  528MOL0     O72727   8.475   9.850   9.729 -0.4413 -0.0605  0.0156
  528MOL0     C72728   8.490   9.727   9.730  0.7170 -0.1519 -0.1095
  528MOL0     O72729   8.577   9.654   9.815  0.2575 -0.5377  0.4753
  528MOL0     C72730   8.706   9.695   9.839 -0.5279 -0.4221  0.4903
  528MOL0     C72731   8.773   9.623   9.944  0.4081  0.2011  0.4017
  528MOL0     C72732   8.903   9.648   9.975  0.1579 -0.5695  0.3023
  528MOL0     C72733   8.975   9.742   9.906 -0.1151 -0.3713 -0.0929
  528MOL0     O72734   9.110   9.754   9.943 -0.0940 -0.1126  0.3676
  528MOL0     C72735   9.173   9.886   9.935 -0.4529  0.7491 -1.3908
  528MOL0     C72736   9.330   9.876   9.971  0.5564  0.0622  0.7423
  528MOL0     C72737   9.407   9.800   9.865 -0.2385  0.0757 -0.1455
  528MOL0     C72738   9.553   9.821   9.864  0.6639 -0.2967 -0.2311
  528MOL0     C72739   9.616   9.761   9.737 -0.1656 -0.6527  0.2319
  528MOL0     C72740   9.775   9.739   9.749 -0.2568  0.3736  0.0985
  528MOL0     C72741   9.843   9.869   9.795 -0.0329  0.6095  0.7197
  528MOL0     C72742   9.997   9.850   9.806  0.2132 -0.3531  0.9086
  528MOL0     N72743  10.070   9.886   9.681 -0.1076 -0.3427  0.7039
  528MOL0     C72744  10.079   9.823   9.567  0.1742  0.4538  1.3658
  528MOL0     C72745  10.182   9.877   9.496  0.0184  0.7990 -0.4648
  528MOL0     C72746  10.254   9.839   9.368  0.6366  0.3127  0.1060
  528MOL0     C72747  10.402   9.844   9.391 -0.3071 -0.8315 -0.1503
  528MOL0     C72748  10.468   9.974   9.352 -0.2735 -0.0652 -0.0196
  528MOL0     C72749  10.618   9.953   9.331 -0.3510  0.1197  0.3310
  528MOL0     O72750  10.688   9.924   9.453  0.7221 -0.8858 -0.4271
  528MOL0     C72751  10.827   9.915   9.463 -0.6191  1.0039 -0.3747
  528MOL0     C72752  10.915   9.925   9.357 -0.1894 -0.0503 -0.6136
  528MOL0     C72753  11.055   9.903   9.370 -0.2441  0.0467 -0.0340
  528MOL0     C72754  11.132   9.910   9.248  0.5965 -0.3145  0.8597
  528MOL0     C72755  11.114   9.870   9.490  0.3381  0.1431  1.1277
  528MOL0     C72756  11.264   9.854   9.501  0.2295 -0.2349  0.8563
  528MOL0     O72757  11.348   9.892   9.400  0.2062  0.3145 -0.2678
  528MOL0     C72758  11.482   9.847   9.396  1.0480  0.5581 -0.3290
  528MOL0     C72759  11.572   9.877   9.494 -0.2723  0.3461  0.1382
  528MOL0     C72760  11.706   9.841   9.482 -0.7593 -0.0566  0.1931
  528MOL0     C72761  11.751   9.771   9.368 -0.1400 -0.2369 -0.6426
  528MOL0     O72762  11.880   9.723   9.370 -0.0576 -0.1272 -0.7371
  528MOL0     C72763  11.950   9.685   9.481  0.7368 -0.3223  0.9551
  528MOL0     C72764  12.086   9.623   9.441 -0.4524  0.7039 -0.0008
  528MOL0     C72765  12.180   9.717   9.364  1.0651 -0.6240 -0.5733
  528MOL0     C72766  12.317   9.655   9.359 -0.1943 -0.7893 -0.0804
  528MOL0     C72767  12.430   9.731   9.278 -0.2822 -0.6140  0.1743
  528MOL0     C72768  12.562   9.668   9.329 -0.3097 -0.3396 -0.2855
  528MOL0     C72769  12.585   9.522   9.292 -0.2532  0.3866  0.6865
  528MOL0     C72770  12.731   9.492   9.310 -1.2106 -0.1339  0.4072
  528MOL0    Cl72771  12.802   9.578   9.452 -0.1928 -0.0839  0.2979
  528MOL0     C72772  11.661   9.750   9.264 -0.3847  0.2574  0.7027
  528MOL0     C72773  11.532   9.785   9.280 -0.3238 -0.6642 -0.1360
  528MOL0     O72774  11.306   9.806   9.602 -0.0602  0.2099  0.1193
  528MOL0     C72775  11.026   9.844   9.596  0.6460  1.0193 -0.0154
  528MOL0     C72776  10.882   9.865   9.587  0.0540  0.3477 -0.0272
  528MOL0     N72777  10.205   9.993   9.563 -0.2277 -1.2372  0.5101
  528MOL0     N72778  10.142  10.007   9.670 -0.9574 -0.0383 -0.0893
  528MOL0     C72779   8.911   9.816   9.804 -0.0461  0.8617 -0.1156
  528MOL0     C72780   8.775   9.808   9.786  1.3635 -0.1596  0.1820
  528MOL0     C72781   8.396   9.647   9.647  0.6229  0.8482 -0.4396
  528MOL0     C72782   8.336   9.717   9.540  0.3334  0.6922  0.2343
  528MOL0     C72783   8.222   9.661   9.475 -0.3737  0.4850 -0.9877
  528MOL0     C72784   8.168   9.541   9.507  0.5073 -0.3430 -0.1613
  528MOL0     O72785   8.067   9.488   9.432  0.4675  0.0855  0.1272
  528MOL0     C72786   8.110   9.456   9.297  0.2398 -1.1225 -0.3881
  528MOL0     C72787   8.053   9.556   9.197  0.2035 -0.0158  0.9266
  528MOL0     C72788   8.116   9.538   9.057  0.2683 -0.1583  0.3448
  528MOL0     C72789   8.165   9.405   9.013 -1.5344  1.1714  0.4496
  528MOL0     C72790   8.301   9.366   9.057 -0.6319 -0.3631 -0.8494
  528MOL0     C72791   8.404   9.335   9.105  0.4822  0.5528 -0.3404
  528MOL0     C72792   8.239   9.467   9.613 -0.0476 -0.3360 -0.3164
  528MOL0     C72793   8.345   9.525   9.686  0.5018  0.4349  0.7865
  528MOL0     C72794   8.405   9.437   9.795  0.6582 -0.3275 -0.2275
  528MOL0     H72795   8.715   9.546   9.995 -1.7652  0.6922 -1.1670
  528MOL0     H72796   8.948   9.604  10.063 -1.6993  0.8414  2.0173
  528MOL0     H72797   9.130   9.955  10.008  2.0558  1.5116 -0.5097
  528MOL0     H72798   9.165   9.929   9.835  1.8271  3.5261 -0.5078
  528MOL0     H72799   9.363   9.980   9.981 -0.6668  0.7842 -1.8381
  528MOL0     H72800   9.343   9.814  10.060  0.2591  2.1491  2.3147
  528MOL0     H72801   9.388   9.694   9.886 -0.8603  0.5189  1.7394
  528MOL0     H72802   9.374   9.816   9.762  1.1752 -2.4232 -1.0638
  528MOL0     H72803   9.585   9.925   9.858  0.3911 -0.2546 -0.9651
  528MOL0     H72804   9.593   9.774   9.955 -0.0816  2.2081  1.5197
  528MOL0     H72805   9.589   9.810   9.644  2.4344 -0.2574 -0.3897
  528MOL0     H72806   9.575   9.660   9.725 -2.7989  0.3889 -0.0870
  528MOL0     H72807   9.789   9.659   9.822 -0.7530  1.0262  0.9360
  528MOL0     H72808   9.823   9.711   9.655  0.9600  1.4793  0.3633
  528MOL0     H72809   9.818   9.885   9.901  0.4957 -3.0280  1.5423
  528MOL0     H72810   9.824   9.947   9.721  3.3785  2.1332  1.2680
  528MOL0     H72811  10.039   9.905   9.891 -2.9975  0.7917  1.8824
  528MOL0     H72812  10.012   9.744   9.832  1.3556  0.0231  1.8501
  528MOL0     H72813  10.016   9.741   9.533  0.1085 -0.1201  2.7802
  528MOL0     H72814  10.213   9.905   9.291 -2.1446 -0.8906  0.4495
  528MOL0     H72815  10.227   9.737   9.343 -0.8803  0.2834  1.6792
  528MOL0     H72816  10.426   9.813   9.493  1.6985  0.9838  0.0055
  528MOL0     H72817  10.450   9.767   9.330 -0.7624 -1.6621  0.5143
  528MOL0     H72818  10.421  10.019   9.264 -4.2668 -0.3289  1.7688
  528MOL0     H72819  10.448  10.050   9.429 -0.7827 -0.3372  0.1207
  528MOL0     H72820  10.626   9.858   9.276 -4.0921 -1.2336  1.7756
  528MOL0     H72821  10.666  10.030   9.270 -2.6919 -0.6987 -2.7649
  528MOL0     H72822  10.890   9.956   9.255  0.5905 -0.4903 -0.9422
  528MOL0     H72823  11.199   9.827   9.223 -0.3916 -0.9397  0.2284
  528MOL0     H72824  11.187  10.003   9.264  2.1715 -0.8267 -1.2195
  528MOL0     H72825  11.063   9.929   9.166  0.4393 -0.4209  0.9660
  528MOL0     H72826  11.535   9.930   9.581  0.8959 -2.4189  2.4843
  528MOL0     H72827  11.774   9.878   9.558  0.1045  5.3558 -2.6746
  528MOL0     H72828  11.967   9.771   9.547  2.0080  0.2821 -0.1121
  528MOL0     H72829  11.892   9.604   9.526 -0.6978 -0.3742 -0.8774
  528MOL0     H72830  12.133   9.594   9.535 -2.3819 -0.2216  0.7347
  528MOL0     H72831  12.079   9.530   9.383  0.2457 -0.4169  1.6276
  528MOL0     H72832  12.188   9.817   9.407  0.7613 -0.4745 -0.8599
  528MOL0     H72833  12.137   9.734   9.265 -0.7983  4.3639  0.7937
  528MOL0     H72834  12.311   9.562   9.302  2.3517 -0.1031 -1.6182
  528MOL0     H72835  12.332   9.643   9.467 -2.3212  3.6958  0.9515
  528MOL0     H72836  12.415   9.718   9.171 -0.7263  1.1039  0.0063
  528MOL0     H72837  12.425   9.836   9.307  1.9839 -0.0397 -1.2298
  528MOL0     H72838  12.571   9.689   9.435  2.1309  0.1035 -0.5313
  528MOL0     H72839  12.637   9.728   9.278  1.6408 -2.6253 -0.2746
  528MOL0     H72840  12.562   9.511   9.186  3.2901 -0.1079 -0.1491
  528MOL0     H72841  12.536   9.447   9.355  2.2751 -2.7076 -0.7483
  528MOL0     H72842  12.785   9.526   9.221  2.4646 -1.4226  1.9714
  528MOL0     H72843  12.748   9.385   9.314  2.1001  0.0591 -2.9061
  528MOL0     H72844  11.710   9.692   9.186 -0.1354  0.4094  0.7451
  528MOL0     H72845  11.465   9.771   9.196  0.0402 -0.2621 -0.4977
  528MOL0     H72846  11.058   9.806   9.693 -1.9286  0.9933  0.8920
  528MOL0     H72847  10.819   9.849   9.674 -0.8434  2.1100 -0.3080
  528MOL0     H72848   8.959   9.893   9.745  2.4178 -0.4676  0.0061
  528MOL0     H72849   8.721   9.870   9.715  1.2634 -1.7618 -1.1829
  528MOL0     H72850   8.352   9.822   9.520 -0.1783  0.7827  0.2958
  528MOL0     H72851   8.157   9.715   9.407 -0.3404 -0.2595 -1.6251
  528MOL0     H72852   8.219   9.459   9.287  0.2394 -0.2479 -0.2239
  528MOL0     H72853   8.083   9.355   9.265 -0.4083 -0.4923 -1.9590
  528MOL0     H72854   8.064   9.662   9.222  1.6118 -0.1814  1.0940
  528MOL0     H72855   7.945   9.537   9.194  0.3798 -0.9636 -0.0304
  528MOL0     H72856   8.049   9.572   8.977 -0.1430 -2.5393 -0.3933
  528MOL0     H72857   8.203   9.605   9.058  1.7633 -1.9571 -1.2842
  528MOL0     H72858   8.165   9.399   8.904 -0.8419 -3.5283  0.4989
  528MOL0     H72859   8.094   9.327   9.042  0.5085 -1.0803 -0.2618
  528MOL0     H72860   8.498   9.310   9.151 -0.3151 -1.2658  0.3895
  528MOL0     H72861   8.213   9.362   9.628 -0.9148  0.1283  1.8690
  528MOL0     H72862   8.405   9.498   9.885  2.2103  0.1107 -0.4997
  528MOL0     H72863   8.338   9.353   9.813 -0.0734  0.8288  2.9919
  528MOL0     H72864   8.505   9.402   9.767  1.9032  1.9334  1.0570
  529MOL0     O72865   2.555   2.473   8.268  0.2177  0.0455  0.2122
  529MOL0     C72866   2.604   2.367   8.225 -0.2504 -1.2025 -0.3503
  529MOL0     O72867   2.738   2.328   8.228  0.0300 -0.0242  0.2412
  529MOL0     C72868   2.836   2.423   8.198 -0.4527  0.9392 -1.1452
  529MOL0     C72869   2.821   2.516   8.097 -0.3191  0.2364  0.9664
  529MOL0     C72870   2.925   2.608   8.054  0.5886 -0.3471  0.4998
  529MOL0     C72871   3.054   2.589   8.107 -0.2488 -1.0804  0.3317
  529MOL0     O72872   3.150   2.672   8.057 -0.0235  0.0897  0.3002
  529MOL0     C72873   3.286   2.642   8.099 -0.2427  0.0001 -0.9651
  529MOL0     C72874   3.381   2.730   8.007  0.6139  1.2651 -0.2490
  529MOL0     C72875   3.523   2.744   8.064 -0.5744 -1.3227 -0.2313
  529MOL0     C72876   3.590   2.880   8.008 -0.9973  0.0231  0.2640
  529MOL0     C72877   3.740   2.847   8.014  0.4416 -0.4601  0.4118
  529MOL0     C72878   3.826   2.969   8.023 -0.3684 -1.1464  0.1026
  529MOL0     C72879   3.845   3.036   7.891 -0.3861  0.4214 -0.4070
  529MOL0     C72880   3.902   3.177   7.911 -0.3256 -0.0897 -0.1909
  529MOL0     N72881   3.948   3.247   7.787 -0.2165 -0.6928 -0.1483
  529MOL0     C72882   4.072   3.259   7.749 -0.5812  0.4750 -0.2151
  529MOL0     C72883   4.071   3.297   7.623  1.0699  0.0496  0.2124
  529MOL0     C72884   4.185   3.330   7.533 -0.0640  0.2766  0.0226
  529MOL0     C72885   4.202   3.213   7.427 -0.0686  0.7026  0.0653
  529MOL0     C72886   4.347   3.216   7.366 -0.2589  0.1732 -0.0509
  529MOL0     C72887   4.381   3.109   7.263 -0.4274 -0.3375  0.1086
  529MOL0     O72888   4.364   2.974   7.318  0.0023  0.2414 -0.0199
  529MOL0     C72889   4.443   2.881   7.244 -0.0320  0.5417 -0.4275
  529MOL0     C72890   4.530   2.785   7.310  0.3781  1.2644 -0.0746
  529MOL0     C72891   4.588   2.680   7.241  0.3795  1.1706  0.3511
  529MOL0     C72892   4.669   2.580   7.315  0.6226 -0.5547  0.1685
  529MOL0     C72893   4.571   2.678   7.101 -0.5930  0.4888  0.0891
  529MOL0     C72894   4.650   2.578   7.024 -0.3689 -0.2154  0.3673
  529MOL0     O72895   4.696   2.631   6.903  0.1041  0.2550 -0.1164
  529MOL0     C72896   4.751   2.547   6.811 -0.4003 -0.0924  0.5071
  529MOL0     C72897   4.724   2.573   6.675  0.0613  0.0687 -0.2886
  529MOL0     C72898   4.777   2.484   6.578  0.1228  0.3102  0.8199
  529MOL0     C72899   4.864   2.378   6.607  0.5213  0.3440 -0.4217
  529MOL0     O72900   4.918   2.310   6.501  0.0474 -0.4732 -0.1090
  529MOL0     C72901   4.933   2.172   6.517  0.9363  0.5929  0.0699
  529MOL0     C72902   4.911   2.086   6.383  0.4773 -0.3891 -0.1216
  529MOL0     C72903   4.768   2.080   6.330  0.2738 -0.1853 -0.2281
  529MOL0     C72904   4.679   2.019   6.438 -0.5036  0.1597  0.3787
  529MOL0     C72905   4.538   1.977   6.388  0.1443 -0.6252 -0.2014
  529MOL0     C72906   4.463   2.083   6.313 -1.0206  0.0923  0.3124
  529MOL0     C72907   4.433   2.198   6.417 -0.1926 -0.0203  0.3673
  529MOL0     C72908   4.351   2.315   6.359 -0.4351  0.4142  0.6245
  529MOL0    Cl72909   4.190   2.258   6.299  0.6337  0.3224 -0.0590
  529MOL0     C72910   4.896   2.365   6.743 -0.8545  0.4503 -0.2631
  529MOL0     C72911   4.836   2.443   6.846  0.4385  0.4151  0.8803
  529MOL0     O72912   4.646   2.458   7.056 -0.0913  0.4486  0.3249
  529MOL0     C72913   4.490   2.768   7.036 -0.3957 -0.5602 -0.1995
  529MOL0     C72914   4.427   2.867   7.113 -0.8405  0.1537 -0.4976
  529MOL0     N72915   3.940   3.307   7.580  0.0474 -0.3313 -0.1131
  529MOL0     N72916   3.868   3.274   7.683 -0.5788 -0.3048  0.1492
  529MOL0     C72917   3.063   2.513   8.221 -0.2104  0.7169 -0.4550
  529MOL0     C72918   2.952   2.434   8.267 -0.0500 -0.5738  0.7359
  529MOL0     C72919   2.506   2.259   8.189  0.4675  0.6569 -0.3315
  529MOL0     C72920   2.539   2.131   8.229 -1.0666  0.6656 -0.1636
  529MOL0     C72921   2.459   2.025   8.202 -0.2322  0.2747  0.5329
  529MOL0     C72922   2.338   2.044   8.127  0.3725 -0.2360 -0.5836
  529MOL0     O72923   2.268   1.935   8.087  0.3566 -0.0018 -0.3495
  529MOL0     C72924   2.146   1.943   8.011  0.2252  0.3401  0.2911
  529MOL0     C72925   2.085   1.797   7.983 -0.1833 -0.1277  0.0844
  529MOL0     C72926   2.187   1.702   7.902  0.0754  0.1319 -0.0568
  529MOL0     C72927   2.291   1.770   7.818 -0.6753  0.3372  0.9407
  529MOL0     C72928   2.371   1.668   7.747 -0.9688 -0.4215  0.9811
  529MOL0     C72929   2.449   1.605   7.683 -0.3769  0.5065  1.0442
  529MOL0     C72930   2.300   2.175   8.098  0.5174  0.9506  0.2740
  529MOL0     C72931   2.374   2.282   8.133  0.6150  0.2179 -0.0143
  529MOL0     C72932   2.324   2.420   8.097 -0.2496 -0.5303 -0.2549
  529MOL0     H72933   2.726   2.528   8.045  0.0120  1.2169  0.5570
  529MOL0     H72934   2.893   2.679   7.979 -3.1351 -0.3592  1.8794
  529MOL0     H72935   3.314   2.537   8.099 -3.0548 -0.8468 -0.0676
  529MOL0     H72936   3.286   2.667   8.205 -2.0911  1.4754 -1.2546
  529MOL0     H72937   3.399   2.679   7.912  0.3576  0.0910  0.3118
  529MOL0     H72938   3.339   2.831   7.995  1.9576  1.8573 -0.1123
  529MOL0     H72939   3.514   2.747   8.173  1.5015  0.6600 -0.0465
  529MOL0     H72940   3.582   2.654   8.049  1.9581 -0.1029  1.7217
  529MOL0     H72941   3.565   2.905   7.904 -0.9914 -0.4283  0.1542
  529MOL0     H72942   3.584   2.959   8.083 -0.0070 -1.0658  1.5253
  529MOL0     H72943   3.763   2.781   7.930 -1.4232 -0.3981 -0.1837
  529MOL0     H72944   3.757   2.792   8.106  1.4523  1.5425  1.4882
  529MOL0     H72945   3.786   3.035   8.101  2.1957 -0.3008  0.8421
  529MOL0     H72946   3.926   2.936   8.055  1.4871  0.0449 -3.7645
  529MOL0     H72947   3.754   3.047   7.831  0.5551 -4.1295 -3.1435
  529MOL0     H72948   3.908   2.970   7.831 -0.5073  0.1830 -0.2743
  529MOL0     H72949   3.818   3.231   7.956 -0.3675 -1.3144  1.2884
  529MOL0     H72950   3.966   3.193   7.998  0.1058  2.7446 -0.9300
  529MOL0     H72951   4.163   3.242   7.807 -0.1415 -0.9466 -1.2766
  529MOL0     H72952   4.277   3.345   7.591 -0.5228 -0.8320  1.1058
  529MOL0     H72953   4.172   3.424   7.480  2.3890  1.5180  1.4401
  529MOL0     H72954   4.190   3.119   7.482  0.6757  0.4903 -0.1120
  529MOL0     H72955   4.124   3.222   7.351 -0.0859 -0.5562 -0.0901
  529MOL0     H72956   4.361   3.308   7.309 -0.3655 -0.6560 -1.4492
  529MOL0     H72957   4.417   3.192   7.446 -0.8554  0.7443  0.6600
  529MOL0     H72958   4.325   3.129   7.172  2.6692 -0.0372 -1.8587
  529MOL0     H72959   4.485   3.137   7.243 -1.0116  3.0757  1.2755
  529MOL0     H72960   4.545   2.783   7.418 -0.8838 -1.0247  0.1089
  529MOL0     H72961   4.714   2.625   7.404 -0.3858 -2.3042  1.6423
  529MOL0     H72962   4.750   2.552   7.246  1.6248  4.0015 -0.7945
  529MOL0     H72963   4.606   2.493   7.336 -1.2740  0.4775 -0.9631
  529MOL0     H72964   4.654   2.650   6.646  1.1307  1.7533  1.3143
  529MOL0     H72965   4.758   2.512   6.475  0.5570 -0.0187  0.6500
  529MOL0     H72966   5.031   2.143   6.555  0.6624 -3.9468 -2.0476
  529MOL0     H72967   4.865   2.117   6.583  2.0123 -0.1648  0.5667
  529MOL0     H72968   4.968   2.133   6.302 -1.2774 -0.3858 -1.4052
  529MOL0     H72969   4.950   1.987   6.408 -3.3785 -1.4098  2.9238
  529MOL0     H72970   4.767   2.025   6.235 -0.9597  0.0483 -0.3713
  529MOL0     H72971   4.740   2.184   6.310  1.6011  0.5345  1.4396
  529MOL0     H72972   4.670   2.090   6.520  0.0115 -0.1179  0.6748
  529MOL0     H72973   4.728   1.935   6.487 -0.4155  0.9230  1.6210
  529MOL0     H72974   4.548   1.885   6.329 -0.5090 -0.6588 -0.2623
  529MOL0     H72975   4.475   1.949   6.473 -0.6676  1.2160 -0.1543
  529MOL0     H72976   4.368   2.052   6.270 -0.3329  1.4863 -2.4678
  529MOL0     H72977   4.533   2.125   6.239  2.3476 -1.0494  2.5757
  529MOL0     H72978   4.526   2.233   6.463  0.5063 -3.5646  1.9817
  529MOL0     H72979   4.371   2.148   6.492  1.6768 -1.7522  0.8466
  529MOL0     H72980   4.412   2.360   6.281 -0.5079 -1.2932 -0.4611
  529MOL0     H72981   4.336   2.390   6.438  0.1846  0.4284  0.7290
  529MOL0     H72982   4.956   2.277   6.764 -1.0403 -0.7620 -4.1412
  529MOL0     H72983   4.873   2.422   6.946 -0.9723 -3.1786  0.7713
  529MOL0     H72984   4.482   2.761   6.928  1.7394  1.1553 -0.5361
  529MOL0     H72985   4.353   2.930   7.064  1.0850  1.4188 -1.9110
  529MOL0     H72986   3.144   2.507   8.293 -1.4921 -2.3091  0.9025
  529MOL0     H72987   2.966   2.379   8.360  0.5184  0.8156  1.5145
  529MOL0     H72988   2.637   2.104   8.266 -1.3283 -0.2765 -0.1117
  529MOL0     H72989   2.491   1.924   8.225 -1.4496 -0.3331 -0.3509
  529MOL0     H72990   2.069   1.995   8.069 -2.6466 -0.5780 -2.3882
  529MOL0     H72991   2.168   1.994   7.917 -0.0723  2.7355  1.4466
  529MOL0     H72992   1.996   1.819   7.924 -0.2872  3.2360  1.2793
  529MOL0     H72993   2.055   1.752   8.078  0.4041 -1.2568 -0.2462
  529MOL0     H72994   2.242   1.634   7.967 -1.9218 -0.5092  1.0709
  529MOL0     H72995   2.128   1.639   7.835 -0.4429 -1.4412  1.7875
  529MOL0     H72996   2.355   1.829   7.885 -0.5218  2.4216 -0.9241
  529MOL0     H72997   2.250   1.839   7.744 -0.9745 -1.1347 -0.3299
  529MOL0     H72998   2.529   1.566   7.624  0.8390  1.4156  2.0450
  529MOL0     H72999   2.201   2.200   8.061  1.2496  3.1191 -0.4067
  529MOL0     H73000   2.394   2.503   8.086 -1.8707  1.0966  0.9935
  529MOL0     H73001   2.271   2.409   8.001  0.3921 -3.0277 -0.3875
  529MOL0     H73002   2.249   2.450   8.171  0.6897 -0.4185  0.6749
  530MOL0     O73003   4.727   7.561   4.726  0.3769 -0.4811  0.5552
  530MOL0     C73004   4.803   7.631   4.792 -0.0303 -0.1416 -0.0892
  530MOL0     O73005   4.829   7.756   4.755 -0.6240  0.5083  0.7202
  530MOL0     C73006   4.800   7.817   4.636  0.7222  0.3593  0.0953
  530MOL0     C73007   4.797   7.953   4.639 -0.3162 -0.9967 -0.2983
  530MOL0     C73008   4.787   8.032   4.525  0.0408 -0.2423 -0.4669
  530MOL0     C73009   4.769   7.969   4.407  0.3783  0.0488  0.6040
  530MOL0     O73010   4.758   8.050   4.294 -0.6211  0.2292 -0.1236
  530MOL0     C73011   4.694   7.992   4.173 -0.1717 -0.3662  0.1205
  530MOL0     C73012   4.640   8.122   4.092 -0.0759  0.4083  0.4822
  530MOL0     C73013   4.576   8.086   3.949 -0.0091  0.0346 -0.1955
  530MOL0     C73014   4.530   8.210   3.878  0.4670  0.3610 -0.4663
  530MOL0     C73015   4.387   8.248   3.913  0.0098  0.6924  0.0660
  530MOL0     C73016   4.339   8.339   3.798  0.8351 -0.0029 -0.5826
  530MOL0     C73017   4.184   8.332   3.805 -0.1020  0.4341 -0.2974
  530MOL0     C73018   4.138   8.438   3.705 -0.0449 -0.1024  0.1311
  530MOL0     N73019   3.992   8.411   3.671 -0.1500 -0.0737  0.2803
  530MOL0     C73020   3.880   8.468   3.733  0.7277 -0.3147  0.1850
  530MOL0     C73021   3.772   8.427   3.655 -0.6664  0.1669 -0.9648
  530MOL0     C73022   3.619   8.447   3.686  0.0600  0.2217  0.8354
  530MOL0     C73023   3.573   8.409   3.829  0.2406 -1.1419 -0.8909
  530MOL0     C73024   3.465   8.508   3.884  0.7023 -0.1139  0.1348
  530MOL0     C73025   3.341   8.521   3.798  0.8699  0.0169 -0.2323
  530MOL0     O73026   3.304   8.394   3.738 -0.3428  0.2330  0.8347
  530MOL0     C73027   3.169   8.365   3.739  0.0745  0.2500  0.2597
  530MOL0     C73028   3.094   8.351   3.858 -0.3632 -0.0383  0.2158
  530MOL0     C73029   2.962   8.298   3.853 -0.3152  0.2300  0.0530
  530MOL0     C73030   2.886   8.257   3.974  0.3426  0.3267  0.3380
  530MOL0     C73031   2.906   8.267   3.725 -0.3954 -0.5598  0.0276
  530MOL0     C73032   2.778   8.219   3.697  0.8292 -0.2383  0.4632
  530MOL0     O73033   2.693   8.323   3.667 -0.1688  0.3265  0.5644
  530MOL0     C73034   2.558   8.309   3.679  1.1992  0.1107 -0.5113
  530MOL0     C73035   2.483   8.383   3.775 -0.1165  0.6863  0.1057
  530MOL0     C73036   2.344   8.360   3.789  0.7081 -0.1203 -0.0809
  530MOL0     C73037   2.274   8.280   3.705  0.5885  0.1645 -0.5147
  530MOL0     O73038   2.140   8.263   3.733  0.1129  0.0718  0.3511
  530MOL0     C73039   2.093   8.252   3.867 -0.0213 -0.7478 -0.3865
  530MOL0     C73040   1.964   8.182   3.868  0.2157  0.1339 -0.4285
  530MOL0     C73041   1.881   8.200   3.991  0.5371 -0.6011 -0.4319
  530MOL0     C73042   1.753   8.292   3.961  0.8572 -0.4936  0.0693
  530MOL0     C73043   1.686   8.343   4.088 -0.5619 -0.2991  0.4795
  530MOL0     C73044   1.600   8.229   4.155 -0.5901  0.2209  0.4086
  530MOL0     C73045   1.531   8.285   4.283  0.4460 -0.0486  0.2531
  530MOL0     C73046   1.459   8.176   4.372 -0.2173  1.1300 -0.2977
  530MOL0    Cl73047   1.363   8.239   4.500  0.4506 -0.1034  0.0892
  530MOL0     C73048   2.341   8.213   3.602  0.2954 -0.1591  0.6277
  530MOL0     C73049   2.483   8.233   3.594 -0.2023  0.4890  0.1993
  530MOL0     O73050   2.744   8.103   3.729  0.4101 -0.2012 -0.3571
  530MOL0     C73051   2.973   8.306   3.608 -0.1813 -0.3825  0.8136
  530MOL0     C73052   3.110   8.340   3.617 -0.3641  0.7779 -0.0845
  530MOL0     N73053   3.824   8.349   3.558 -0.4855  0.4397  1.0010
  530MOL0     N73054   3.953   8.334   3.565 -0.2431  0.2439 -0.6160
  530MOL0     C73055   4.778   7.828   4.397 -0.2859  0.1483 -0.6699
  530MOL0     C73056   4.786   7.752   4.511  0.1321  0.2033 -0.6348
  530MOL0     C73057   4.871   7.587   4.913 -0.0966  0.1457 -0.0042
  530MOL0     C73058   4.972   7.670   4.967 -0.2823 -0.6109  0.3322
  530MOL0     C73059   5.055   7.635   5.077 -0.2242  0.7606  0.3700
  530MOL0     C73060   5.040   7.511   5.144 -0.6244 -0.4606  1.1794
  530MOL0     O73061   5.127   7.462   5.247  0.2323 -0.0631 -0.2967
  530MOL0     C73062   5.263   7.488   5.253 -0.6946 -0.8950 -0.6865
  530MOL0     C73063   5.351   7.367   5.214  0.1459  0.0211  0.0356
  530MOL0     C73064   5.493   7.408   5.170 -0.1454 -0.6688  0.5301
  530MOL0     C73065   5.577   7.283   5.137  0.7908 -0.3088 -0.5494
  530MOL0     C73066   5.573   7.258   4.996  0.1940  0.3644  0.3260
  530MOL0     C73067   5.551   7.209   4.887 -0.9008  0.4623  0.2135
  530MOL0     C73068   4.927   7.432   5.109 -0.5704 -0.3530 -0.1522
  530MOL0     C73069   4.844   7.469   4.995  0.4652 -0.8513  0.1534
  530MOL0     C73070   4.725   7.388   4.959  0.1372  0.0941 -1.1068
  530MOL0     H73071   4.793   8.002   4.736 -1.3799  2.1489 -1.7728
  530MOL0     H73072   4.780   8.139   4.539 -4.4280 -0.3286 -0.7446
  530MOL0     H73073   4.614   7.918   4.189  0.0732 -0.6410  0.0845
  530MOL0     H73074   4.776   7.946   4.117 -0.3831 -0.2036 -0.3279
  530MOL0     H73075   4.566   8.171   4.157 -2.0836 -2.5663  0.6790
  530MOL0     H73076   4.719   8.191   4.063  0.8054 -1.5715 -2.2499
  530MOL0     H73077   4.656   8.044   3.887  0.8867 -0.5101  1.2803
  530MOL0     H73078   4.498   8.009   3.952 -0.3678  0.2841 -1.8140
  530MOL0     H73079   4.594   8.289   3.918  2.4401 -0.4636 -1.8458
  530MOL0     H73080   4.541   8.197   3.770  0.7386 -0.3010 -0.3591
  530MOL0     H73081   4.388   8.286   4.016  0.4406 -0.1320  0.3739
  530MOL0     H73082   4.322   8.161   3.926 -0.7326  1.1703 -0.3686
  530MOL0     H73083   4.381   8.435   3.829  0.6838 -0.2907  0.5698
  530MOL0     H73084   4.381   8.309   3.701  0.0771 -0.5132 -0.7588
  530MOL0     H73085   4.142   8.363   3.901  0.8767  0.0150  0.2764
  530MOL0     H73086   4.146   8.231   3.787 -0.9881  0.3604  1.7369
  530MOL0     H73087   4.146   8.539   3.746  0.2994  0.0816 -0.3738
  530MOL0     H73088   4.194   8.433   3.611 -4.4631  1.2856 -2.8879
  530MOL0     H73089   3.871   8.525   3.825 -1.3494  3.3234 -2.0170
  530MOL0     H73090   3.559   8.390   3.614 -1.5369  3.9025 -0.9998
  530MOL0     H73091   3.595   8.552   3.670 -3.6937 -0.6594 -0.4264
  530MOL0     H73092   3.530   8.310   3.811 -0.4279 -0.2996 -4.7073
  530MOL0     H73093   3.655   8.411   3.901  0.9927  2.5475 -1.6330
  530MOL0     H73094   3.423   8.482   3.982 -0.6434  1.7774  0.1175
  530MOL0     H73095   3.506   8.609   3.897  0.5991  0.2142 -1.8573
  530MOL0     H73096   3.269   8.574   3.862  2.6492 -1.6105  3.4043
  530MOL0     H73097   3.356   8.596   3.719  1.9682  3.4696  2.9388
  530MOL0     H73098   3.147   8.356   3.952 -1.7664 -2.6319  1.2599
  530MOL0     H73099   2.825   8.168   3.954 -1.1549  1.1899  0.8912
  530MOL0     H73100   2.822   8.338   4.010 -0.7583 -0.7184  0.7782
  530MOL0     H73101   2.957   8.222   4.050  2.3328 -0.7529 -1.8884
  530MOL0     H73102   2.536   8.445   3.847 -1.0974 -0.3730  1.8312
  530MOL0     H73103   2.283   8.422   3.853  1.1289 -0.9051  1.1059
  530MOL0     H73104   2.166   8.201   3.931 -2.0591 -1.4885  1.4838
  530MOL0     H73105   2.081   8.355   3.903 -2.8556 -0.4369 -1.9161
  530MOL0     H73106   1.903   8.221   3.786 -1.0160  0.9226  0.8140
  530MOL0     H73107   1.983   8.076   3.853 -2.1491 -0.4348  0.1356
  530MOL0     H73108   1.941   8.252   4.065 -0.4718  0.8558 -0.5867
  530MOL0     H73109   1.846   8.101   4.024  1.3989 -0.6889  0.2353
  530MOL0     H73110   1.680   8.240   3.897  0.9874  0.9019 -1.2652
  530MOL0     H73111   1.782   8.388   3.918  1.2534 -0.9426 -0.6893
  530MOL0     H73112   1.757   8.387   4.159  1.3280 -0.8841 -0.9502
  530MOL0     H73113   1.623   8.422   4.047  1.1696  0.9101  0.0702
  530MOL0     H73114   1.660   8.141   4.179  0.6743  0.8045 -0.4563
  530MOL0     H73115   1.522   8.196   4.086  1.0391 -1.9165 -0.5119
  530MOL0     H73116   1.461   8.365   4.257  1.2328  0.4124 -0.5546
  530MOL0     H73117   1.601   8.337   4.350 -2.9717 -0.0453  4.2010
  530MOL0     H73118   1.543   8.117   4.411 -2.7769 -2.4909  0.1829
  530MOL0     H73119   1.395   8.115   4.308 -0.1542  0.2307  0.4866
  530MOL0     H73120   2.295   8.139   3.538  0.4526  0.7039 -0.5134
  530MOL0     H73121   2.532   8.187   3.508  0.5845  0.1789  0.8068
  530MOL0     H73122   2.916   8.289   3.517  0.4478 -3.2491  0.8450
  530MOL0     H73123   3.165   8.354   3.524 -2.1835  1.7869 -1.0887
  530MOL0     H73124   4.769   7.766   4.308 -2.8461  1.1644 -1.2001
  530MOL0     H73125   4.777   7.644   4.503 -1.2405  0.1898  0.5001
  530MOL0     H73126   4.998   7.763   4.918  0.3113 -1.0144 -0.1398
  530MOL0     H73127   5.128   7.709   5.108 -1.0411  2.4241 -1.5191
  530MOL0     H73128   5.285   7.575   5.191 -3.6738  0.7452  0.3867
  530MOL0     H73129   5.282   7.525   5.354  5.2879 -2.7128 -0.7565
  530MOL0     H73130   5.297   7.305   5.142 -0.3934 -0.2827  0.6912
  530MOL0     H73131   5.363   7.317   5.310 -0.4335 -2.5326 -1.1346
  530MOL0     H73132   5.498   7.474   5.084  1.6006  1.0418  1.8694
  530MOL0     H73133   5.529   7.464   5.256 -0.9131  2.2473 -0.9315
  530MOL0     H73134   5.538   7.198   5.193  0.8453  0.0666  0.0602
  530MOL0     H73135   5.682   7.301   5.162  1.2026 -1.6448 -1.2036
  530MOL0     H73136   5.530   7.165   4.792 -1.0133  1.2529 -0.1357
  530MOL0     H73137   4.902   7.337   5.153 -4.5660 -0.8516 -3.0124
  530MOL0     H73138   4.640   7.442   4.917 -0.8315 -1.6053 -1.4267
  530MOL0     H73139   4.739   7.308   4.886 -2.4701  0.6744 -2.3853
  530MOL0     H73140   4.697   7.332   5.049  3.7467  0.1393  0.1855
  531MOL0     O73141   6.040   0.962   8.187 -1.1650  0.9957  0.2900
  531MOL0     C73142   5.995   1.073   8.180  0.2719  0.5615  0.2308
  531MOL0     O73143   6.070   1.184   8.166 -0.8382 -0.9487 -0.1856
  531MOL0     C73144   6.205   1.186   8.180 -0.0469 -0.2220  0.6674
  531MOL0     C73145   6.271   1.261   8.076 -0.2691  0.6648  0.8187
  531MOL0     C73146   6.410   1.276   8.095  0.0622 -1.1130 -0.1194
  531MOL0     C73147   6.484   1.209   8.192 -0.8800  0.4577 -0.2841
  531MOL0     O73148   6.615   1.244   8.209  0.1172  0.3440  0.1476
  531MOL0     C73149   6.693   1.169   8.301  0.7429  0.7647  0.7247
  531MOL0     C73150   6.841   1.197   8.294  0.5337 -0.3509  0.9070
  531MOL0     C73151   6.904   1.155   8.158 -0.4840  0.4569  0.5756
  531MOL0     C73152   7.051   1.173   8.148 -0.3953 -0.4213 -0.7684
  531MOL0     C73153   7.112   1.159   8.013 -0.2949  0.2097 -0.4778
  531MOL0     C73154   7.100   1.012   7.952 -0.7301 -0.0542  0.4596
  531MOL0     C73155   7.176   0.985   7.824  0.1941 -0.0546  0.3393
  531MOL0     C73156   7.153   0.853   7.752  0.8836 -0.0320 -1.1038
  531MOL0     N73157   7.228   0.849   7.629 -0.7813  0.2692  0.0749
  531MOL0     C73158   7.355   0.789   7.617  0.2963 -0.2903 -0.2511
  531MOL0     C73159   7.397   0.827   7.487  0.2413 -0.3263  0.5196
  531MOL0     C73160   7.530   0.802   7.415  0.3388 -0.6262  0.5694
  531MOL0     C73161   7.645   0.878   7.482  0.1251  0.0535  0.4126
  531MOL0     C73162   7.776   0.862   7.402 -0.1536  0.0622 -0.5344
  531MOL0     C73163   7.886   0.954   7.474  0.1569  0.4517  0.2656
  531MOL0     O73164   8.009   0.954   7.402 -0.7384  0.1707 -0.0336
  531MOL0     C73165   8.112   1.016   7.467  0.2855  0.2357 -0.0672
  531MOL0     C73166   8.167   1.132   7.421 -0.1167  0.0486  0.5793
  531MOL0     C73167   8.284   1.182   7.472  0.2016 -0.6235  0.1648
  531MOL0     C73168   8.336   1.318   7.412 -0.1505  0.1715 -0.2730
  531MOL0     C73169   8.353   1.126   7.581 -0.2320  0.3612 -0.1101
  531MOL0     C73170   8.464   1.188   7.656  0.5302  0.1825  0.1010
  531MOL0     O73171   8.456   1.172   7.790  0.2126 -0.7353  0.0935
  531MOL0     C73172   8.565   1.221   7.865 -0.5447 -0.2862  0.1921
  531MOL0     C73173   8.575   1.363   7.890  0.4968 -0.2844 -0.1081
  531MOL0     C73174   8.681   1.410   7.966 -0.4124 -0.4850  0.1756
  531MOL0     C73175   8.777   1.330   8.027  0.2236  0.2488 -0.3830
  531MOL0     O73176   8.888   1.388   8.080  0.1009 -0.1753 -0.2651
  531MOL0     C73177   8.863   1.460   8.198 -0.1556 -1.4663  0.1990
  531MOL0     C73178   8.890   1.388   8.327 -0.3463  0.2119  0.2248
  531MOL0     C73179   8.882   1.485   8.442  1.1715  1.0374  0.4812
  531MOL0     C73180   8.923   1.405   8.567 -0.2898 -0.6337 -0.0280
  531MOL0     C73181   8.909   1.508   8.684 -0.8151  0.0493 -0.9582
  531MOL0     C73182   8.967   1.439   8.816  0.6239  0.0072  0.3677
  531MOL0     C73183   8.912   1.302   8.855  0.7529 -0.0940 -0.5343
  531MOL0     C73184   8.955   1.252   8.995  0.5762 -0.9573 -0.2063
  531MOL0    Cl73185   9.127   1.285   9.034  0.6050 -0.0298 -0.5083
  531MOL0     C73186   8.759   1.191   8.009 -0.3978  0.9359  0.1645
  531MOL0     C73187   8.662   1.136   7.924 -0.0552 -0.5229 -0.2417
  531MOL0     O73188   8.563   1.231   7.598  0.3514  0.4462 -0.7434
  531MOL0     C73189   8.288   1.002   7.638 -0.0075 -0.2523 -0.2418
  531MOL0     C73190   8.180   0.951   7.569 -0.4905 -0.1430 -0.7596
  531MOL0     N73191   7.293   0.901   7.428  0.0920  0.3436  0.1758
  531MOL0     N73192   7.194   0.908   7.508 -0.2595  0.1903  0.1686
  531MOL0     C73193   6.417   1.119   8.278  0.0045 -0.0792 -1.0350
  531MOL0     C73194   6.278   1.117   8.274 -1.0510  0.3658  0.5373
  531MOL0     C73195   5.843   1.086   8.196  1.0844  0.7504  0.2656
  531MOL0     C73196   5.786   1.208   8.221 -0.6704 -0.6603 -0.8346
  531MOL0     C73197   5.648   1.235   8.225 -0.6059  1.0068  0.6187
  531MOL0     C73198   5.558   1.130   8.205 -0.3175  0.8974  0.1418
  531MOL0     O73199   5.428   1.173   8.220  0.3076  0.0896 -0.0460
  531MOL0     C73200   5.312   1.090   8.188  0.2707 -1.2384  0.0641
  531MOL0     C73201   5.285   0.983   8.291  0.1466  0.6502  0.3939
  531MOL0     C73202   5.213   1.031   8.414  1.3789  0.2492 -0.5922
  531MOL0     C73203   5.140   0.927   8.507  0.1581  0.2948  0.3785
  531MOL0     C73204   5.039   0.991   8.590  0.0925  0.4692 -0.3923
  531MOL0     C73205   4.954   1.046   8.654 -1.3275 -0.3058  0.5472
  531MOL0     C73206   5.612   1.002   8.179 -0.3959 -0.4095  0.5405
  531MOL0     C73207   5.748   0.978   8.167  0.3367 -0.5162 -0.1983
  531MOL0     C73208   5.793   0.835   8.127  0.9707 -0.1865 -0.2823
  531MOL0     H73209   6.211   1.311   8.001 -0.2332 -2.0070 -1.0906
  531MOL0     H73210   6.466   1.351   8.039  0.2480 -0.5891  0.7555
  531MOL0     H73211   6.674   1.064   8.280 -1.0046  1.7522 -3.6955
  531MOL0     H73212   6.667   1.197   8.403 -2.9160 -0.0906  0.1518
  531MOL0     H73213   6.841   1.305   8.312  1.7590  0.1178 -1.5278
  531MOL0     H73214   6.894   1.139   8.371 -0.0408 -1.9949  0.1081
  531MOL0     H73215   6.889   1.050   8.131  0.2835  0.7061 -0.8592
  531MOL0     H73216   6.857   1.216   8.080 -0.2116  1.4081  1.1356
  531MOL0     H73217   7.084   1.265   8.198 -0.4792 -0.8369  0.0764
  531MOL0     H73218   7.106   1.097   8.205 -0.5033 -0.4525 -0.7049
  531MOL0     H73219   7.218   1.181   8.026 -0.9609  3.2927  0.5429
  531MOL0     H73220   7.072   1.235   7.945 -2.0372  0.9529  1.2594
  531MOL0     H73221   7.133   0.936   8.023 -3.5768 -0.8607  1.0787
  531MOL0     H73222   6.992   0.998   7.939 -0.7788  0.9891 -0.3286
  531MOL0     H73223   7.282   1.001   7.846  0.7848  1.4256 -2.9882
  531MOL0     H73224   7.148   1.066   7.756 -0.4737 -0.9020 -0.4335
  531MOL0     H73225   7.184   0.772   7.819 -0.2338 -0.2967 -0.8985
  531MOL0     H73226   7.045   0.854   7.735  0.3198  1.7328  1.9285
  531MOL0     H73227   7.411   0.726   7.686  1.6626 -0.6656 -1.6294
  531MOL0     H73228   7.514   0.846   7.316  0.6719 -0.6950  0.4862
  531MOL0     H73229   7.547   0.694   7.409 -0.4200 -0.7198 -0.1521
  531MOL0     H73230   7.616   0.983   7.498  0.7226  0.0190  1.9416
  531MOL0     H73231   7.670   0.860   7.587  2.4892  0.5593 -0.0074
  531MOL0     H73232   7.811   0.759   7.401  0.2979  0.2103 -1.9189
  531MOL0     H73233   7.761   0.900   7.300  1.5616  0.5781 -0.6155
  531MOL0     H73234   7.841   1.053   7.486  1.7868  1.0253  2.1165
  531MOL0     H73235   7.910   0.914   7.573 -0.0180 -2.3463 -0.7409
  531MOL0     H73236   8.122   1.182   7.336  0.8487 -0.6621 -0.3839
  531MOL0     H73237   8.269   1.355   7.334 -1.5180  1.9030  1.5987
  531MOL0     H73238   8.429   1.295   7.359 -0.3201 -0.6423 -0.2267
  531MOL0     H73239   8.340   1.395   7.490 -3.0884 -1.6139  1.8813
  531MOL0     H73240   8.500   1.423   7.840  0.1314  0.4913  1.3280
  531MOL0     H73241   8.690   1.516   7.988  0.2750 -0.3225 -0.8174
  531MOL0     H73242   8.935   1.543   8.193 -0.9629 -0.7263  0.6019
  531MOL0     H73243   8.763   1.503   8.203  0.7178  0.6211  0.6854
  531MOL0     H73244   8.819   1.306   8.346  1.0704 -0.7029  1.8913
  531MOL0     H73245   8.993   1.351   8.322 -0.1824  0.2849  2.2890
  531MOL0     H73246   8.780   1.522   8.450  1.1703  1.4351 -1.1353
  531MOL0     H73247   8.941   1.575   8.426  1.2365  0.6665 -1.6612
  531MOL0     H73248   9.023   1.370   8.539 -0.4320 -2.0558  1.1647
  531MOL0     H73249   8.871   1.310   8.582  0.9457 -1.5750 -1.4441
  531MOL0     H73250   8.954   1.606   8.666 -1.7829  0.7858  0.3984
  531MOL0     H73251   8.804   1.527   8.707 -0.3718  0.1275  1.1644
  531MOL0     H73252   8.958   1.506   8.902  1.2647 -0.5554  0.8828
  531MOL0     H73253   9.068   1.405   8.790  0.1035 -0.7653 -0.7396
  531MOL0     H73254   8.934   1.224   8.782 -2.8854 -0.9771 -0.9159
  531MOL0     H73255   8.803   1.317   8.852  0.4286 -2.2795 -1.3533
  531MOL0     H73256   8.953   1.144   9.007  2.7398 -0.9400  0.7751
  531MOL0     H73257   8.894   1.307   9.067  0.3281 -0.6219 -0.6690
  531MOL0     H73258   8.835   1.128   8.054 -0.7991 -0.7417 -1.3920
  531MOL0     H73259   8.643   1.030   7.908 -1.6124 -0.0751 -1.7109
  531MOL0     H73260   8.339   0.953   7.721 -2.5934 -0.1980  1.4852
  531MOL0     H73261   8.139   0.861   7.612 -1.6836  0.9639  0.5350
  531MOL0     H73262   6.477   1.069   8.352  2.3164  0.2195 -2.5961
  531MOL0     H73263   6.236   1.059   8.355 -1.0669  0.6227  0.7140
  531MOL0     H73264   5.846   1.294   8.250 -1.3123 -1.0499  1.9037
  531MOL0     H73265   5.605   1.333   8.242 -4.8014 -0.8031  1.6691
  531MOL0     H73266   5.222   1.152   8.188  0.0865 -1.4901  0.8385
  531MOL0     H73267   5.336   1.039   8.094  2.2051 -1.1897  0.4941
  531MOL0     H73268   5.375   0.924   8.314 -1.8701 -2.8205  0.0100
  531MOL0     H73269   5.222   0.910   8.239  1.4813 -0.1041 -0.2165
  531MOL0     H73270   5.289   1.080   8.475  1.7182 -0.0854 -0.7461
  531MOL0     H73271   5.145   1.110   8.382  0.1164  0.5725  2.4905
  531MOL0     H73272   5.207   0.873   8.576 -0.3600 -1.0822 -0.1537
  531MOL0     H73273   5.088   0.852   8.446  1.6162 -0.2540 -0.2397
  531MOL0     H73274   4.879   1.108   8.699  0.9262  5.2055 -2.3362
  531MOL0     H73275   5.544   0.918   8.171 -0.3794 -0.3651 -0.1361
  531MOL0     H73276   5.857   0.791   8.204  0.0494 -0.5173  0.3196
  531MOL0     H73277   5.705   0.774   8.104 -0.2144  0.3761  2.2976
  531MOL0     H73278   5.847   0.846   8.033  0.8541 -0.8111 -0.4219
  532MOL0     O73279   0.077   0.569   2.437 -0.7415 -0.1355 -0.0651
  532MOL0     C73280   0.156   0.492   2.491  0.3225  0.1782 -0.0097
  532MOL0     O73281   0.172   0.480   2.629 -0.1166  1.0060 -0.1051
  532MOL0     C73282   0.075   0.518   2.720 -0.0571  0.2252 -0.5498
  532MOL0     C73283   0.113   0.510   2.858  0.4154 -0.4059 -0.3366
  532MOL0     C73284   0.027   0.557   2.961 -0.3674 -0.7723 -0.4610
  532MOL0     C73285  -0.094   0.621   2.930  0.2245  0.1600 -0.1725
  532MOL0     O73286  -0.186   0.668   3.027 -1.0463  0.8107 -0.0712
  532MOL0     C73287  -0.162   0.652   3.169 -0.5379  0.2517  0.5976
  532MOL0     C73288  -0.293   0.693   3.236  0.4038  0.5413  0.1917
  532MOL0     C73289  -0.344   0.836   3.198  0.1335 -0.6137 -0.7728
  532MOL0     C73290  -0.448   0.899   3.294 -1.1411  0.1789 -0.1725
  532MOL0     C73291  -0.468   1.043   3.258  0.3056  0.1287 -0.3598
  532MOL0     C73292  -0.511   1.126   3.379 -0.2796 -0.2894  1.2922
  532MOL0     C73293  -0.509   1.276   3.341 -0.1525  0.2201 -0.4240
  532MOL0     C73294  -0.369   1.339   3.322  0.2046  0.4083 -0.2017
  532MOL0     N73295  -0.273   1.305   3.422 -0.2123  0.1741 -0.1832
  532MOL0     C73296  -0.274   1.361   3.545 -0.0214  0.4615  0.0042
  532MOL0     C73297  -0.162   1.315   3.611  0.3223 -0.1139  0.1030
  532MOL0     C73298  -0.101   1.369   3.728 -1.0200  0.3472  0.2465
  532MOL0     C73299   0.054   1.348   3.724 -0.7332  0.1539 -0.6510
  532MOL0     C73300   0.128   1.416   3.837 -0.2542 -0.0222  0.1387
  532MOL0     C73301   0.113   1.564   3.834 -0.0105  0.3645 -0.8436
  532MOL0     O73302   0.172   1.631   3.719  0.0720 -1.0270 -0.0446
  532MOL0     C73303   0.299   1.675   3.719  0.0425 -0.8715  0.5822
  532MOL0     C73304   0.336   1.749   3.600  0.5689 -0.5487  0.4093
  532MOL0     C73305   0.465   1.806   3.576 -1.3163  0.3545 -0.0797
  532MOL0     C73306   0.487   1.864   3.442  0.1609 -0.7434  0.0318
  532MOL0     C73307   0.565   1.780   3.678  0.6315 -0.2714  0.5310
  532MOL0     C73308   0.711   1.820   3.663  0.0691  0.0734 -0.2024
  532MOL0     O73309   0.775   1.833   3.784  0.4083  0.0913  0.6857
  532MOL0     C73310   0.907   1.833   3.789 -0.8390  0.4202  0.2539
  532MOL0     C73311   0.993   1.767   3.696  0.7284 -0.6215  0.0730
  532MOL0     C73312   1.127   1.778   3.702  0.3914 -0.6539  1.0433
  532MOL0     C73313   1.183   1.852   3.809  0.3904  0.8101  0.3854
  532MOL0     O73314   1.312   1.881   3.822 -0.0210  0.8319  0.2048
  532MOL0     C73315   1.381   1.934   3.708 -0.1667 -0.0187  0.3357
  532MOL0     C73316   1.521   1.980   3.759  1.3406 -0.7832  0.0146
  532MOL0     C73317   1.584   2.041   3.645 -0.3209  0.1735 -0.2325
  532MOL0     C73318   1.694   2.139   3.694 -0.5647 -0.6856 -0.5657
  532MOL0     C73319   1.759   2.221   3.592 -0.1098  0.2159 -0.2900
  532MOL0     C73320   1.910   2.244   3.633 -1.3258  0.0293  0.0205
  532MOL0     C73321   1.974   2.336   3.521 -0.7091  0.0554 -0.7287
  532MOL0     C73322   1.960   2.272   3.381  0.3276  0.0729 -0.2785
  532MOL0    Cl73323   2.069   2.353   3.275 -0.2710 -0.4233  0.1382
  532MOL0     C73324   1.104   1.907   3.917  0.2124  0.0052  0.4879
  532MOL0     C73325   0.966   1.908   3.893 -0.1414 -0.5036 -1.0898
  532MOL0     O73326   0.757   1.843   3.549 -0.5178 -0.3648  0.0056
  532MOL0     C73327   0.530   1.699   3.785  0.5844  1.0725 -0.5043
  532MOL0     C73328   0.399   1.648   3.815 -1.1283 -0.7490  0.1477
  532MOL0     N73329  -0.109   1.211   3.529  0.5033  0.3775  0.8647
  532MOL0     N73330  -0.169   1.214   3.421  0.2349 -0.7324  0.8201
  532MOL0     C73331  -0.134   0.619   2.797  0.1820 -0.7800 -0.2603
  532MOL0     C73332  -0.055   0.571   2.688  0.1078 -0.1225 -0.0218
  532MOL0     C73333   0.240   0.405   2.401 -0.5780 -0.0824 -0.3518
  532MOL0     C73334   0.346   0.336   2.467  0.3452  0.7548 -0.4799
  532MOL0     C73335   0.433   0.251   2.403 -1.0214 -0.0538 -0.2867
  532MOL0     C73336   0.405   0.212   2.272  1.1171  0.1731 -0.2780
  532MOL0     O73337   0.477   0.120   2.200  0.2271  0.3606  0.8848
  532MOL0     C73338   0.613   0.084   2.230 -0.3355 -0.8805  0.3088
  532MOL0     C73339   0.670   0.005   2.107  0.7129 -0.2037 -0.6293
  532MOL0     C73340   0.820  -0.039   2.124  0.2010 -0.1173 -0.1350
  532MOL0     C73341   0.910   0.081   2.105  0.9995 -0.9443  0.1403
  532MOL0     C73342   1.045   0.054   2.069 -0.0360 -0.1039  1.1257
  532MOL0     C73343   1.154   0.033   2.037  0.1929 -0.2165  0.9647
  532MOL0     C73344   0.297   0.280   2.205 -0.2755 -0.0292 -0.2140
  532MOL0     C73345   0.210   0.378   2.265 -0.4172 -1.3124 -0.1499
  532MOL0     C73346   0.096   0.438   2.182 -0.6490 -0.3217 -0.5448
  532MOL0     H73347   0.209   0.464   2.879  0.4311 -1.4945 -2.5340
  532MOL0     H73348   0.057   0.542   3.064  0.9026  0.2765 -0.6463
  532MOL0     H73349  -0.077   0.714   3.199  0.7516  0.2754 -2.6387
  532MOL0     H73350  -0.143   0.546   3.190  0.9988  0.7796  2.0988
  532MOL0     H73351  -0.372   0.622   3.212  0.8339  0.1697 -0.1311
  532MOL0     H73352  -0.261   0.692   3.341  0.4657  2.2819  0.2218
  532MOL0     H73353  -0.254   0.899   3.196  1.2612 -2.0558  1.2788
  532MOL0     H73354  -0.397   0.832   3.102 -1.0184  0.5254 -0.2072
  532MOL0     H73355  -0.542   0.844   3.297 -0.3848 -1.1014  1.8704
  532MOL0     H73356  -0.409   0.880   3.394  0.2658 -3.1866 -1.2389
  532MOL0     H73357  -0.542   1.048   3.177  0.4320 -2.4861 -0.6927
  532MOL0     H73358  -0.372   1.085   3.229 -0.0329  2.0282  0.9829
  532MOL0     H73359  -0.606   1.091   3.420 -0.8552 -1.9188 -1.1842
  532MOL0     H73360  -0.439   1.111   3.459  0.4513  0.0108  0.6979
  532MOL0     H73361  -0.569   1.339   3.407 -1.3096 -0.8601 -0.4169
  532MOL0     H73362  -0.567   1.285   3.249  1.2017  0.9198 -1.2475
  532MOL0     H73363  -0.346   1.307   3.220 -2.6200 -2.3858 -0.1211
  532MOL0     H73364  -0.381   1.448   3.330  0.0524  0.4428 -0.8200
  532MOL0     H73365  -0.333   1.450   3.563 -2.3973 -0.7787 -1.3108
  532MOL0     H73366  -0.146   1.326   3.818  0.2860 -0.3307  0.5978
  532MOL0     H73367  -0.108   1.478   3.723  0.8661  0.4223 -2.2992
  532MOL0     H73368   0.077   1.241   3.725  0.8635  0.4587  1.4149
  532MOL0     H73369   0.093   1.390   3.631 -0.8836  1.7003 -0.0350
  532MOL0     H73370   0.099   1.376   3.935  0.8173  1.2309  1.0022
  532MOL0     H73371   0.235   1.391   3.841 -0.4395 -0.9175 -0.2112
  532MOL0     H73372   0.008   1.593   3.843  0.4383  1.4057  4.6620
  532MOL0     H73373   0.155   1.594   3.930 -1.8678  2.5848 -0.6185
  532MOL0     H73374   0.262   1.764   3.522 -2.0133 -1.9567  2.4432
  532MOL0     H73375   0.394   1.863   3.385 -1.6484  1.8323  2.6384
  532MOL0     H73376   0.569   1.810   3.394  0.2885 -0.4484 -0.0900
  532MOL0     H73377   0.518   1.969   3.449 -1.5034 -0.3040  1.6572
  532MOL0     H73378   0.952   1.735   3.601  1.9834  0.4008 -0.8580
  532MOL0     H73379   1.178   1.729   3.619 -0.3469 -1.0148  0.7932
  532MOL0     H73380   1.403   1.866   3.625  0.2979  2.0810 -1.3574
  532MOL0     H73381   1.321   2.016   3.667  0.4430  0.2328 -0.0837
  532MOL0     H73382   1.506   2.057   3.835  0.7435  1.1252 -1.9236
  532MOL0     H73383   1.585   1.904   3.803  2.6671  1.0173  1.3674
  532MOL0     H73384   1.522   2.095   3.573 -3.0792 -1.1419  1.0261
  532MOL0     H73385   1.627   1.955   3.593 -0.0363  0.8097 -1.0814
  532MOL0     H73386   1.767   2.083   3.754 -0.4994 -2.4825 -2.2348
  532MOL0     H73387   1.647   2.208   3.764 -0.5996 -0.0399 -1.2148
  532MOL0     H73388   1.758   2.148   3.511 -1.2584 -1.4859  1.1821
  532MOL0     H73389   1.696   2.307   3.568 -2.1718 -1.5333 -1.5046
  532MOL0     H73390   1.965   2.149   3.638 -2.5006 -0.6601  0.0793
  532MOL0     H73391   1.932   2.289   3.730 -2.2214 -1.3133  0.8733
  532MOL0     H73392   2.079   2.350   3.548 -1.4653  0.1660  2.5393
  532MOL0     H73393   1.928   2.435   3.529 -0.0698  0.2568  0.9785
  532MOL0     H73394   1.857   2.281   3.343  0.3431  1.7399 -0.0050
  532MOL0     H73395   1.987   2.167   3.385  3.2641  0.5908 -2.6805
  532MOL0     H73396   1.145   1.951   4.007 -1.6204  1.0006  0.8979
  532MOL0     H73397   0.895   1.955   3.960  0.8365 -1.1638  0.4920
  532MOL0     H73398   0.610   1.664   3.848 -0.8969 -0.9992  0.3685
  532MOL0     H73399   0.369   1.586   3.899 -0.0726  0.2912  1.3254
  532MOL0     H73400  -0.236   0.651   2.777  0.7054 -0.4646 -2.7622
  532MOL0     H73401  -0.097   0.574   2.588  0.9308  0.6553 -0.3504
  532MOL0     H73402   0.364   0.342   2.574  2.0992 -0.5753 -0.6500
  532MOL0     H73403   0.509   0.204   2.465 -0.5308  0.9063 -0.1451
  532MOL0     H73404   0.666   0.178   2.246 -1.2501 -0.7220  2.9083
  532MOL0     H73405   0.617   0.029   2.325  2.1071  0.7321  1.2361
  532MOL0     H73406   0.657   0.076   2.024  1.1237  0.1485 -0.3974
  532MOL0     H73407   0.601  -0.078   2.092 -1.4629  1.6111 -1.1531
  532MOL0     H73408   0.841  -0.089   2.219 -0.8805  3.2190  2.0680
  532MOL0     H73409   0.841  -0.092   2.031  2.8401  0.4763  0.0664
  532MOL0     H73410   0.919   0.133   2.201  4.6860  1.3245 -1.2059
  532MOL0     H73411   0.872   0.145   2.025  3.0826 -3.0673 -2.7518
  532MOL0     H73412   1.256   0.007   2.016 -0.5854 -2.4547 -0.4101
  532MOL0     H73413   0.290   0.241   2.103  2.6152 -0.0636 -0.4890
  532MOL0     H73414   0.001   0.424   2.233 -0.0860 -1.0959  0.3127
  532MOL0     H73415   0.119   0.544   2.171 -0.2115 -0.3805 -0.2138
  532MOL0     H73416   0.089   0.389   2.085 -1.1852 -1.9504  0.2771
  533MOL0     O73417   0.839   8.513   3.107 -0.6510 -0.3303  0.7169
  533MOL0     C73418   0.743   8.456   3.061 -0.0783  0.9973 -0.3776
  533MOL0     O73419   0.748   8.325   3.017 -0.3985  0.2741 -0.9702
  533MOL0     C73420   0.863   8.261   2.986 -0.1221 -0.1441 -0.2264
  533MOL0     C73421   0.950   8.216   3.084  0.8007  0.0593 -0.2991
  533MOL0     C73422   1.070   8.153   3.053  0.8965  0.6241  0.0190
  533MOL0     C73423   1.104   8.134   2.912  1.2405 -0.0494 -0.5719
  533MOL0     O73424   1.218   8.060   2.888 -0.3189  0.2783 -0.2331
  533MOL0     C73425   1.292   8.085   2.767 -0.5476  0.0230 -0.1182
  533MOL0     C73426   1.423   7.999   2.773  1.1522 -0.5859 -0.0544
  533MOL0     C73427   1.539   8.052   2.865  1.2076  0.2353  0.7067
  533MOL0     C73428   1.620   8.162   2.802  0.0963 -0.2012 -0.6636
  533MOL0     C73429   1.706   8.214   2.919  0.4656 -0.3222  0.1846
  533MOL0     C73430   1.780   8.337   2.881 -0.0652 -0.0194 -0.3402
  533MOL0     C73431   1.842   8.405   3.002 -0.7130  0.4700  0.1764
  533MOL0     C73432   1.950   8.323   3.070 -0.3868  0.9376  0.5966
  533MOL0     N73433   2.023   8.401   3.174 -0.2444  0.3746 -0.1611
  533MOL0     C73434   1.999   8.422   3.312  0.4141  0.1666 -0.7087
  533MOL0     C73435   2.090   8.515   3.344  0.4526 -0.2740 -0.4392
  533MOL0     C73436   2.101   8.584   3.482  0.3661  0.5713  0.8341
  533MOL0     C73437   2.247   8.586   3.529  0.1060  0.1392 -0.4740
  533MOL0     C73438   2.342   8.691   3.453  0.6843  0.0159 -0.7951
  533MOL0     C73439   2.465   8.622   3.407  0.3447 -0.6944 -0.3176
  533MOL0     O73440   2.544   8.718   3.341  0.5433 -0.3793 -0.0976
  533MOL0     C73441   2.672   8.688   3.324 -0.1369  0.2676  0.2831
  533MOL0     C73442   2.751   8.787   3.268 -0.2415 -0.5999  0.5738
  533MOL0     C73443   2.896   8.771   3.258  0.2847  0.8644 -0.7125
  533MOL0     C73444   2.983   8.879   3.206  0.3659 -0.5852 -0.3259
  533MOL0     C73445   2.948   8.634   3.280  0.9114  0.1200 -1.3417
  533MOL0     C73446   3.087   8.599   3.255  0.2773 -0.5102  1.0990
  533MOL0     O73447   3.178   8.692   3.286  0.0452 -0.0958  0.0592
  533MOL0     C73448   3.312   8.659   3.270 -0.0110 -0.1135  0.1664
  533MOL0     C73449   3.369   8.620   3.148  0.2437  0.8628  1.3491
  533MOL0     C73450   3.510   8.595   3.138  0.1190 -1.7417  0.0300
  533MOL0     C73451   3.596   8.606   3.255  0.0979  0.5149  0.6383
  533MOL0     O73452   3.726   8.572   3.218 -0.3061 -0.9090  0.5561
  533MOL0     C73453   3.824   8.649   3.277  0.1574 -0.2576  0.8678
  533MOL0     C73454   3.959   8.585   3.221 -0.4792  0.4527  0.2090
  533MOL0     C73455   4.078   8.648   3.294  0.8853  0.8406  0.6617
  533MOL0     C73456   4.175   8.539   3.303 -0.3703  0.1720  0.6601
  533MOL0     C73457   4.298   8.592   3.365  0.2097  0.2244  0.6961
  533MOL0     C73458   4.416   8.509   3.357 -0.0245 -0.3409  0.8256
  533MOL0     C73459   4.487   8.498   3.212  0.6252 -0.0191 -0.4902
  533MOL0     C73460   4.629   8.434   3.234  0.4118 -0.1555 -0.2799
  533MOL0    Cl73461   4.742   8.562   3.308  0.1400  0.3233 -0.3998
  533MOL0     C73462   3.535   8.643   3.372  0.4652 -0.2043 -0.7962
  533MOL0     C73463   3.399   8.688   3.381 -0.3528 -0.6028  1.0712
  533MOL0     O73464   3.120   8.489   3.220 -0.5956 -0.5226 -0.4233
  533MOL0     C73465   2.860   8.536   3.334 -0.6591 -0.0275  0.2042
  533MOL0     C73466   2.724   8.561   3.356 -0.4405  0.3964  0.5315
  533MOL0     N73467   2.158   8.552   3.233  0.0284  0.0284 -0.1610
  533MOL0     N73468   2.127   8.482   3.132  0.1032 -0.5095  0.0524
  533MOL0     C73469   1.014   8.175   2.811 -0.1954 -0.9185  0.0819
  533MOL0     C73470   0.894   8.247   2.847 -0.5649  0.1570 -0.0261
  533MOL0     C73471   0.612   8.526   3.042  0.2297 -0.4158  0.6291
  533MOL0     C73472   0.517   8.483   2.936 -0.0275 -0.0572 -0.0803
  533MOL0     C73473   0.384   8.533   2.929 -0.6244  0.1126 -1.1553
  533MOL0     C73474   0.355   8.645   3.010 -0.4195 -0.3497  0.0821
  533MOL0     O73475   0.236   8.709   3.011 -0.1133  0.7366 -0.2849
  533MOL0     C73476   0.128   8.656   2.941  0.4194 -0.5165 -0.5524
  533MOL0     C73477  -0.001   8.720   3.006 -0.4207 -0.4270  0.4767
  533MOL0     C73478  -0.112   8.704   2.902  0.1156 -0.1279 -0.2174
  533MOL0     C73479  -0.117   8.829   2.811 -1.2072  0.8848 -1.1491
  533MOL0     C73480  -0.240   8.856   2.744 -0.0279  0.4869 -0.8105
  533MOL0     C73481  -0.345   8.870   2.693  0.4686  0.0870  0.9889
  533MOL0     C73482   0.443   8.705   3.094  0.5128  0.1619 -0.9414
  533MOL0     C73483   0.567   8.642   3.119 -0.1759  1.0065  0.0425
  533MOL0     C73484   0.646   8.691   3.242 -0.2679  0.2163  0.3243
  533MOL0     H73485   0.910   8.243   3.181 -1.0785  1.9171 -1.5172
  533MOL0     H73486   1.137   8.121   3.132  1.0136 -1.3143 -0.8169
  533MOL0     H73487   1.321   8.190   2.771 -0.2207  0.0434 -2.0779
  533MOL0     H73488   1.232   8.071   2.676 -1.5310  1.1024  0.3404
  533MOL0     H73489   1.401   7.900   2.816  5.9889 -1.0534  1.9799
  533MOL0     H73490   1.461   7.991   2.671  1.2629  0.3191 -0.0894
  533MOL0     H73491   1.491   8.082   2.959  1.1330 -2.1382  1.4892
  533MOL0     H73492   1.599   7.970   2.904 -1.0721 -0.8276  2.1615
  533MOL0     H73493   1.687   8.129   2.722  2.8449 -1.8858  2.1085
  533MOL0     H73494   1.546   8.234   2.766 -0.2594  0.0075  0.4318
  533MOL0     H73495   1.779   8.138   2.949  0.0229  0.0330  2.3350
  533MOL0     H73496   1.645   8.237   3.007 -1.3834  1.1804 -1.4268
  533MOL0     H73497   1.859   8.315   2.808  1.9976 -0.2669  1.8633
  533MOL0     H73498   1.708   8.407   2.835 -2.5262  0.7293  4.0347
  533MOL0     H73499   1.765   8.429   3.076  0.4011 -1.5413  2.0966
  533MOL0     H73500   1.891   8.494   2.963  2.3317 -1.1645 -0.0489
  533MOL0     H73501   1.910   8.232   3.117  0.3590 -0.4356 -1.2833
  533MOL0     H73502   2.019   8.292   2.991  0.8404  0.7869  1.6973
  533MOL0     H73503   1.923   8.371   3.370  2.2816 -2.0270 -0.0043
  533MOL0     H73504   2.036   8.526   3.548 -2.4155 -0.2984 -2.3892
  533MOL0     H73505   2.055   8.682   3.465 -0.0270  0.7683  2.8192
  533MOL0     H73506   2.240   8.598   3.637 -1.8090 -1.9421 -0.2803
  533MOL0     H73507   2.295   8.487   3.528  1.3863  0.7240 -1.8683
  533MOL0     H73508   2.300   8.735   3.363 -1.5361 -0.1590  0.0952
  533MOL0     H73509   2.368   8.772   3.521 -1.6786  0.6174 -0.5335
  533MOL0     H73510   2.514   8.561   3.484  1.1757 -4.1412 -3.2699
  533MOL0     H73511   2.451   8.537   3.339  2.4218 -0.3649 -1.2273
  533MOL0     H73512   2.704   8.882   3.244 -0.4294 -0.6268  0.8325
  533MOL0     H73513   2.924   8.958   3.157  1.1135 -0.7780 -1.5820
  533MOL0     H73514   3.050   8.845   3.127 -1.2850 -0.5934 -1.7964
  533MOL0     H73515   3.031   8.925   3.292 -1.0860  2.3388 -0.9574
  533MOL0     H73516   3.311   8.622   3.056  3.4644  1.3011 -0.8349
  533MOL0     H73517   3.559   8.584   3.041 -1.6911 -0.1240 -1.1241
  533MOL0     H73518   3.815   8.749   3.235 -1.4664 -0.0696  1.5849
  533MOL0     H73519   3.816   8.654   3.386 -2.3169 -1.8750  0.8521
  533MOL0     H73520   3.940   8.478   3.230 -3.2569  0.5847 -2.5777
  533MOL0     H73521   3.976   8.596   3.114 -1.6872  2.6465  0.1943
  533MOL0     H73522   4.056   8.673   3.398  1.6244  0.3686  0.9374
  533MOL0     H73523   4.119   8.734   3.240  1.3010  0.3547  0.1981
  533MOL0     H73524   4.194   8.502   3.202 -0.2447 -1.0075  1.1028
  533MOL0     H73525   4.134   8.460   3.365 -3.5956  1.5336  0.4435
  533MOL0     H73526   4.324   8.694   3.334 -1.2344  1.6856  3.8947
  533MOL0     H73527   4.269   8.617   3.467 -1.5102  4.0681 -0.5183
  533MOL0     H73528   4.391   8.410   3.397  0.2303 -0.0652  1.6910
  533MOL0     H73529   4.492   8.542   3.429  2.5703 -1.1387 -1.3696
  533MOL0     H73530   4.501   8.601   3.177 -0.8705 -0.4434 -2.5091
  533MOL0     H73531   4.433   8.436   3.141 -0.5793  1.0684 -0.5679
  533MOL0     H73532   4.674   8.398   3.141 -0.5500 -1.7181 -0.1783
  533MOL0     H73533   4.621   8.355   3.309 -1.1975  2.3114  2.3789
  533MOL0     H73534   3.614   8.666   3.442 -1.0234  2.7450  0.1018
  533MOL0     H73535   3.356   8.738   3.467  0.4051  0.3029  0.9402
  533MOL0     H73536   2.899   8.436   3.350 -1.4295 -0.5636 -1.0836
  533MOL0     H73537   2.667   8.474   3.389 -0.6859 -0.1822 -1.2682
  533MOL0     H73538   1.031   8.143   2.709 -1.3769 -0.4551 -0.2787
  533MOL0     H73539   0.822   8.282   2.774  1.3152  0.8412 -1.6430
  533MOL0     H73540   0.554   8.408   2.866  2.8064 -0.3214  1.5514
  533MOL0     H73541   0.310   8.495   2.859 -1.9139  0.5440 -0.0689
  533MOL0     H73542   0.143   8.679   2.836  2.9238 -1.4089 -0.4632
  533MOL0     H73543   0.123   8.547   2.947 -0.0944 -0.5289 -1.1235
  533MOL0     H73544   0.022   8.822   3.037  1.5884  0.1295 -2.4225
  533MOL0     H73545  -0.027   8.670   3.100 -2.4906  2.2340  1.4259
  533MOL0     H73546  -0.089   8.611   2.849  2.4324 -0.7523  1.7183
  533MOL0     H73547  -0.203   8.693   2.962  0.7099  0.3147  0.8024
  533MOL0     H73548  -0.037   8.843   2.738 -0.9091  1.0012 -0.8022
  533MOL0     H73549  -0.107   8.910   2.885  1.5717  0.2838 -0.7906
  533MOL0     H73550  -0.441   8.900   2.655  0.8711 -3.1711 -3.3871
  533MOL0     H73551   0.412   8.788   3.157  3.3981 -0.5182  1.6216
  533MOL0     H73552   0.684   8.616   3.312 -1.2486  0.8218  1.5484
  533MOL0     H73553   0.728   8.755   3.206  0.6489 -1.4346 -0.6370
  533MOL0     H73554   0.580   8.747   3.309 -1.8657  0.4629 -1.3594
  534MOL0     O73555   2.762   3.457   5.697  0.3225 -0.2149 -0.1429
  534MOL0     C73556   2.757   3.536   5.783 -0.1077  0.1449 -0.4880
  534MOL0     O73557   2.845   3.547   5.881  0.4393  0.9281 -0.1311
  534MOL0     C73558   2.956   3.466   5.889 -0.4065 -0.8319  1.2177
  534MOL0     C73559   3.068   3.530   5.948  0.5263  0.2137  0.0668
  534MOL0     C73560   3.176   3.460   5.990 -0.1499  0.0513  0.8397
  534MOL0     C73561   3.186   3.323   5.964  0.9520  0.3890 -0.2297
  534MOL0     O73562   3.292   3.252   6.019  0.4950 -0.0101  0.2353
  534MOL0     C73563   3.417   3.316   6.048  0.1225  0.1768 -0.4986
  534MOL0     C73564   3.532   3.218   6.061 -0.0327 -0.1183 -1.4173
  534MOL0     C73565   3.677   3.287   6.058  0.6948  0.1747  0.2564
  534MOL0     C73566   3.780   3.187   5.995  0.1925 -0.0349 -0.9481
  534MOL0     C73567   3.909   3.252   5.967  0.6186  0.1078 -0.1275
  534MOL0     C73568   4.001   3.169   5.882 -0.1896  1.1769 -0.7099
  534MOL0     C73569   4.035   3.033   5.948 -0.2726 -0.5307  0.0608
  534MOL0     C73570   4.135   2.960   5.858 -0.6103 -0.3914 -0.1290
  534MOL0     N73571   4.122   2.825   5.891  0.7285  0.5481 -1.5331
  534MOL0     C73572   4.204   2.754   5.970  0.1518  0.4282 -0.7835
  534MOL0     C73573   4.152   2.632   5.984  0.3229 -0.9163  0.2363
  534MOL0     C73574   4.199   2.527   6.079  0.3404  0.5626 -0.1985
  534MOL0     C73575   4.272   2.415   6.003 -0.2847  0.1932 -0.2904
  534MOL0     C73576   4.425   2.428   5.993  0.9300 -0.0126 -0.1447
  534MOL0     C73577   4.494   2.295   5.948  0.1240 -0.5845 -0.0178
  534MOL0     O73578   4.630   2.287   5.998  0.1018 -1.0271  0.0053
  534MOL0     C73579   4.735   2.319   5.912  0.2631  0.7028 -0.4593
  534MOL0     C73580   4.859   2.288   5.974  0.1901  0.2640 -0.2454
  534MOL0     C73581   4.981   2.289   5.912  0.2370 -0.2036  0.1495
  534MOL0     C73582   5.098   2.262   5.993  0.1294  0.7528 -0.3441
  534MOL0     C73583   4.978   2.325   5.777  0.0423 -0.4947 -0.1757
  534MOL0     C73584   5.097   2.354   5.694 -0.1183  0.1095 -1.1240
  534MOL0     O73585   5.097   2.308   5.560 -0.1343 -0.4537  0.0103
  534MOL0     C73586   5.221   2.284   5.498  0.0827  0.4109  0.2551
  534MOL0     C73587   5.341   2.282   5.565  0.2461 -0.0629  0.1375
  534MOL0     C73588   5.471   2.273   5.503  1.3134 -0.1670  0.2640
  534MOL0     C73589   5.461   2.254   5.356  0.1841 -0.6516 -0.5489
  534MOL0     O73590   5.590   2.241   5.288  0.7255  0.2849  0.0495
  534MOL0     C73591   5.597   2.276   5.150 -0.8227  0.3794 -0.2026
  534MOL0     C73592   5.745   2.273   5.108 -0.0104 -0.7481  0.4652
  534MOL0     C73593   5.830   2.371   5.194  0.6473 -0.5411  0.3009
  534MOL0     C73594   5.962   2.383   5.118 -0.5244  0.3008 -0.4600
  534MOL0     C73595   6.069   2.435   5.221  0.7791 -0.6405 -0.4019
  534MOL0     C73596   6.184   2.504   5.144 -0.7555  0.6057 -0.0145
  534MOL0     C73597   6.250   2.422   5.039  0.9628  0.2570 -0.9173
  534MOL0     C73598   6.385   2.478   4.995  0.6524 -0.9526 -0.7619
  534MOL0    Cl73599   6.436   2.369   4.864 -0.2153  0.0969  0.1899
  534MOL0     C73600   5.338   2.249   5.292 -0.6780  0.5036 -0.6726
  534MOL0     C73601   5.220   2.270   5.365  0.5632 -0.3960  0.3839
  534MOL0     O73602   5.188   2.423   5.750  0.7707  0.0718  0.1212
  534MOL0     C73603   4.858   2.354   5.714 -0.2488  0.0836  0.3868
  534MOL0     C73604   4.731   2.360   5.779  0.9645 -0.6380 -0.5806
  534MOL0     N73605   4.040   2.625   5.898  0.5460  0.0084 -0.2393
  534MOL0     N73606   4.019   2.747   5.850 -0.4072  0.0262  0.4424
  534MOL0     C73607   3.078   3.258   5.907  0.0777  0.1427 -0.2310
  534MOL0     C73608   2.959   3.326   5.867  0.5368 -0.0189 -0.6199
  534MOL0     C73609   2.641   3.620   5.784  0.0060  0.3406  0.2404
  534MOL0     C73610   2.656   3.756   5.828  0.1628  0.4754  0.5388
  534MOL0     C73611   2.548   3.844   5.817  0.0135 -0.1996 -1.5574
  534MOL0     C73612   2.428   3.805   5.755  0.8994 -0.3274 -0.1528
  534MOL0     O73613   2.319   3.885   5.738 -0.4973 -0.2749  0.8307
  534MOL0     C73614   2.309   4.016   5.792  0.0386 -0.2639 -0.2341
  534MOL0     C73615   2.398   4.118   5.711 -0.3561  0.1701 -0.0269
  534MOL0     C73616   2.337   4.151   5.570 -0.8510 -0.5960  0.3484
  534MOL0     C73617   2.333   4.041   5.467  0.4539  0.3763 -0.2760
  534MOL0     C73618   2.459   3.969   5.454  0.6360  0.0779  0.0573
  534MOL0     C73619   2.567   3.917   5.459 -0.3724 -0.6898  0.7389
  534MOL0     C73620   2.410   3.677   5.722 -0.5090 -1.1912  0.6904
  534MOL0     C73621   2.509   3.585   5.738 -0.1995  0.8494  0.0635
  534MOL0     C73622   2.479   3.441   5.698 -0.6247 -0.5044  0.2782
  534MOL0     H73623   3.056   3.633   5.980 -0.8796 -0.5292  2.1992
  534MOL0     H73624   3.261   3.512   6.033  1.2407  0.2706 -1.9606
  534MOL0     H73625   3.402   3.365   6.145  1.3306 -0.3002 -0.0614
  534MOL0     H73626   3.441   3.379   5.961 -1.3379  0.6468 -0.5884
  534MOL0     H73627   3.541   3.160   6.153  2.0274  1.4131 -0.5634
  534MOL0     H73628   3.525   3.141   5.984  0.5089 -1.9790  0.3057
  534MOL0     H73629   3.661   3.377   5.999 -0.8253 -1.4842 -2.0404
  534MOL0     H73630   3.707   3.319   6.159  4.2099  1.5338 -1.0744
  534MOL0     H73631   3.783   3.108   6.070 -2.0654  0.4387 -0.2751
  534MOL0     H73632   3.748   3.140   5.902  2.3561 -0.3128 -1.6138
  534MOL0     H73633   3.952   3.279   6.064 -2.9454  0.6777  1.4664
  534MOL0     H73634   3.879   3.339   5.908  1.6502 -0.8085 -2.1032
  534MOL0     H73635   3.949   3.144   5.789 -0.4382 -2.4883  0.2682
  534MOL0     H73636   4.093   3.225   5.861  0.1790  1.6417  1.7809
  534MOL0     H73637   3.941   2.977   5.954 -1.4523  1.3530  0.0071
  534MOL0     H73638   4.079   3.045   6.047 -0.5995  0.2268  0.1269
  534MOL0     H73639   4.099   2.957   5.755 -0.7125 -1.8277 -0.0701
  534MOL0     H73640   4.238   2.997   5.871 -1.0436  1.2993 -1.1689
  534MOL0     H73641   4.280   2.798   6.034 -2.1299  1.3523  1.4703
  534MOL0     H73642   4.104   2.488   6.116  0.3608 -1.1131 -1.8309
  534MOL0     H73643   4.268   2.565   6.156 -0.3020 -2.3013  1.9576
  534MOL0     H73644   4.244   2.320   6.050 -2.7344  0.6196 -0.7951
  534MOL0     H73645   4.236   2.411   5.900  1.6490 -1.6349 -0.9744
  534MOL0     H73646   4.446   2.509   5.923  3.5234 -1.3403 -1.0274
  534MOL0     H73647   4.471   2.462   6.087 -0.2763  2.4297 -0.3518
  534MOL0     H73648   4.443   2.205   5.983 -3.6144  0.2477 -2.7515
  534MOL0     H73649   4.488   2.291   5.839 -2.8805 -1.0432  0.1044
  534MOL0     H73650   4.861   2.263   6.079 -0.9588  0.3663 -0.1842
  534MOL0     H73651   5.070   2.211   6.086  1.9932 -1.2998 -0.8350
  534MOL0     H73652   5.152   2.354   6.018 -2.3926  1.7901  1.8113
  534MOL0     H73653   5.156   2.198   5.926 -0.7882 -0.9164  0.4051
  534MOL0     H73654   5.355   2.301   5.671 -1.0389 -0.4752  0.4053
  534MOL0     H73655   5.562   2.265   5.562  0.1299  0.6594  2.3051
  534MOL0     H73656   5.545   2.190   5.108 -0.8525 -0.9464  2.3394
  534MOL0     H73657   5.554   2.376   5.141  0.9725  1.1651 -0.5565
  534MOL0     H73658   5.781   2.170   5.099 -2.9663 -1.8355 -0.0671
  534MOL0     H73659   5.743   2.301   5.002  0.0277 -1.2908  0.3188
  534MOL0     H73660   5.847   2.326   5.292  1.7444  1.2504  1.0010
  534MOL0     H73661   5.786   2.470   5.209 -1.8175 -1.6288  0.6812
  534MOL0     H73662   5.958   2.435   5.022  2.2681 -2.9256 -2.5194
  534MOL0     H73663   5.987   2.279   5.100 -3.0044 -0.7431  1.3981
  534MOL0     H73664   6.024   2.502   5.295 -0.7149 -2.7399  0.6792
  534MOL0     H73665   6.113   2.351   5.275 -0.9747 -0.1831  1.9060
  534MOL0     H73666   6.251   2.530   5.226 -1.6741 -1.1064  1.3433
  534MOL0     H73667   6.148   2.592   5.090 -0.9048 -0.5664 -1.9167
  534MOL0     H73668   6.180   2.403   4.957  0.0936 -3.4568  0.4867
  534MOL0     H73669   6.273   2.322   5.078  0.7310  0.5215 -0.0762
  534MOL0     H73670   6.463   2.489   5.071 -0.2131  1.3639 -0.1124
  534MOL0     H73671   6.364   2.578   4.954 -0.8484 -1.3787 -1.1019
  534MOL0     H73672   5.334   2.234   5.185 -0.5501  0.7512 -0.7128
  534MOL0     H73673   5.131   2.284   5.303  2.8809  2.4787 -2.6194
  534MOL0     H73674   4.858   2.380   5.609 -1.3056 -2.3045 -0.2430
  534MOL0     H73675   4.643   2.393   5.726  0.0920  1.8603  2.1536
  534MOL0     H73676   3.075   3.151   5.884 -0.7154  0.2961 -0.9107
  534MOL0     H73677   2.869   3.278   5.831 -0.3576  1.0268  0.1561
  534MOL0     H73678   2.753   3.801   5.847  0.0018  1.5117 -0.9432
  534MOL0     H73679   2.559   3.949   5.845 -1.2202  0.0453 -1.9224
  534MOL0     H73680   2.203   4.044   5.788  0.2078  0.6713  1.0042
  534MOL0     H73681   2.332   4.020   5.899 -2.1864 -1.1648  0.3362
  534MOL0     H73682   2.501   4.083   5.707 -0.3039 -0.1879  2.8074
  534MOL0     H73683   2.394   4.219   5.753  2.6584  2.1492 -3.8928
  534MOL0     H73684   2.236   4.193   5.568  0.1447  2.0038  0.8783
  534MOL0     H73685   2.409   4.216   5.519 -0.8158 -0.7264  0.2314
  534MOL0     H73686   2.293   4.088   5.377 -1.8575  1.5853  1.2834
  534MOL0     H73687   2.253   3.969   5.489  0.0837  0.6400 -0.7408
  534MOL0     H73688   2.658   3.861   5.462  0.0579 -0.0630  4.6803
  534MOL0     H73689   2.316   3.645   5.677 -2.3480  2.4946  1.5196
  534MOL0     H73690   2.539   3.401   5.615 -0.6714 -3.7666  1.6763
  534MOL0     H73691   2.507   3.378   5.782  0.9843 -2.1960 -1.4326
  534MOL0     H73692   2.372   3.434   5.679 -0.4412  0.0050 -1.0634
  535MOL0     O73693  11.133   5.858   1.659  0.4681 -0.2381 -0.5267
  535MOL0     C73694  11.056   5.940   1.627 -0.4267 -0.1384 -0.6042
  535MOL0     O73695  11.091   6.075   1.618  0.3721  0.2131 -0.2187
  535MOL0     C73696  11.218   6.115   1.626 -0.1587  0.8474 -0.1381
  535MOL0     C73697  11.307   6.132   1.519  0.0704  0.0290  0.1858
  535MOL0     C73698  11.421   6.193   1.548  0.2523  0.0237  0.5266
  535MOL0     C73699  11.454   6.245   1.672 -0.1853  0.2946 -0.0237
  535MOL0     O73700  11.575   6.317   1.681  0.0012 -0.4838  0.7313
  535MOL0     C73701  11.584   6.391   1.800  0.0068  0.2355 -0.6053
  535MOL0     C73702  11.711   6.475   1.803  0.1304 -0.3987 -0.2799
  535MOL0     C73703  11.837   6.391   1.816  0.3585  0.1369  0.8420
  535MOL0     C73704  11.953   6.477   1.870  0.5869  0.7725  0.2913
  535MOL0     C73705  12.079   6.395   1.906  0.3679 -0.6575 -0.0964
  535MOL0     C73706  12.159   6.359   1.780 -0.0430  0.0067 -0.3442
  535MOL0     C73707  12.301   6.307   1.826 -0.5316 -0.3819  0.3936
  535MOL0     C73708  12.312   6.172   1.898  0.5773  0.0695 -0.2120
  535MOL0     N73709  12.438   6.114   1.901 -0.1778  1.0751 -0.6567
  535MOL0     C73710  12.521   6.105   2.006 -0.2672  0.3182 -0.4648
  535MOL0     C73711  12.637   6.043   1.953 -0.0623 -0.5732 -0.4832
  535MOL0     C73712  12.769   6.016   2.028  0.3088 -0.4676  0.5395
  535MOL0     C73713  12.856   6.133   2.014  0.2012 -0.0077 -0.1025
  535MOL0     C73714  13.002   6.113   2.058  0.0027  0.5913  1.2959
  535MOL0     C73715  13.073   6.256   2.037  0.1388 -0.3825 -0.4690
  535MOL0     O73716  13.214   6.242   2.062  0.1070 -0.1152 -0.7141
  535MOL0     C73717  13.263   6.286   2.178  0.4370  0.5507 -0.0050
  535MOL0     C73718  13.203   6.389   2.256 -0.2840  0.4785  0.3103
  535MOL0     C73719  13.277   6.446   2.363 -0.2215  0.1113  0.1399
  535MOL0     C73720  13.195   6.533   2.455 -0.5700 -0.3702  0.1323
  535MOL0     C73721  13.405   6.407   2.390 -0.1131  0.3350 -0.4658
  535MOL0     C73722  13.486   6.462   2.508 -0.0405 -0.4417 -0.1895
  535MOL0     O73723  13.594   6.388   2.543 -0.1180 -0.1076  0.6426
  535MOL0     C73724  13.690   6.438   2.629  0.6300  0.2721 -0.1469
  535MOL0     C73725  13.743   6.559   2.608  0.1059 -0.0342  0.3936
  535MOL0     C73726  13.814   6.625   2.704  1.1943 -0.0968  0.6222
  535MOL0     C73727  13.856   6.558   2.823 -0.4772  0.6677  0.0292
  535MOL0     O73728  13.904   6.641   2.921  0.6501 -0.8897 -0.1488
  535MOL0     C73729  13.924   6.586   3.047 -0.6712  0.9706  0.4604
  535MOL0     C73730  13.988   6.688   3.138  0.8020  0.4392 -0.1483
  535MOL0     C73731  14.133   6.637   3.160  0.0961  0.6569  0.1131
  535MOL0     C73732  14.199   6.709   3.272  0.6239 -0.0073 -0.2458
  535MOL0     C73733  14.335   6.635   3.289 -0.0167 -0.0098 -0.7341
  535MOL0     C73734  14.429   6.695   3.397  0.2552 -0.4358  0.3493
  535MOL0     C73735  14.555   6.613   3.410 -0.5736  0.4194 -0.2658
  535MOL0     C73736  14.649   6.678   3.507  0.6683 -0.0086  0.5789
  535MOL0    Cl73737  14.809   6.608   3.531 -0.0265 -0.3715 -0.1882
  535MOL0     C73738  13.820   6.421   2.838 -0.2758  0.5056 -0.3569
  535MOL0     C73739  13.736   6.366   2.738 -0.1467  1.1570 -0.4462
  535MOL0     O73740  13.462   6.570   2.558  0.0739 -0.3192  0.2913
  535MOL0     C73741  13.464   6.301   2.310  0.4891 -0.1602  0.3482
  535MOL0     C73742  13.387   6.231   2.214  0.4055  0.8640 -0.1112
  535MOL0     N73743  12.603   6.018   1.823 -0.2440 -0.0105  0.0504
  535MOL0     N73744  12.483   6.055   1.793  0.2512 -0.2313  0.5878
  535MOL0     C73745  11.361   6.233   1.778 -0.3842  1.0204 -0.3547
  535MOL0     C73746  11.250   6.153   1.757  0.5049  0.2589 -0.6762
  535MOL0     C73747  10.910   5.901   1.582 -0.6381 -0.7969  0.2807
  535MOL0     C73748  10.821   6.000   1.553 -0.8216  0.2311  0.6346
  535MOL0     C73749  10.691   5.970   1.501 -0.1643  0.8099  0.1732
  535MOL0     C73750  10.659   5.835   1.464 -0.1788  0.0522  0.7918
  535MOL0     O73751  10.539   5.822   1.404  0.1232  0.1474 -0.0470
  535MOL0     C73752  10.465   5.708   1.449  0.9638  0.4980  0.1174
  535MOL0     C73753  10.336   5.701   1.374 -0.4618  0.5467  0.5311
  535MOL0     C73754  10.357   5.675   1.224 -0.4098  0.0190 -0.2576
  535MOL0     C73755  10.438   5.549   1.186 -0.2683 -0.5443  0.4253
  535MOL0     C73756  10.352   5.440   1.200 -0.3913 -0.2122  0.1561
  535MOL0     C73757  10.285   5.338   1.206 -0.3206  1.1137  0.3903
  535MOL0     C73758  10.753   5.739   1.493  0.3675  0.2228  0.1213
  535MOL0     C73759  10.868   5.767   1.560  0.4263 -0.5123  0.6301
  535MOL0     C73760  10.957   5.645   1.601 -0.5974  0.2372 -0.0702
  535MOL0     H73761  11.268   6.102   1.422 -3.0124  0.8042  1.0824
  535MOL0     H73762  11.491   6.194   1.465 -1.0939 -0.2062 -0.6664
  535MOL0     H73763  11.574   6.313   1.876  1.3803 -0.1815 -0.8244
  535MOL0     H73764  11.499   6.458   1.816  0.7255  1.0355 -0.0490
  535MOL0     H73765  11.717   6.538   1.713 -2.3828 -0.4624 -0.5629
  535MOL0     H73766  11.691   6.527   1.897 -0.3066  0.6200 -0.9092
  535MOL0     H73767  11.818   6.308   1.885 -0.2039  0.1584  0.7235
  535MOL0     H73768  11.864   6.344   1.721 -3.0938 -0.0147 -0.2172
  535MOL0     H73769  11.982   6.564   1.811 -1.2907  0.8033 -0.6639
  535MOL0     H73770  11.915   6.526   1.960 -2.2793 -0.4928 -0.1059
  535MOL0     H73771  12.052   6.297   1.947  2.7961 -1.6393 -0.6866
  535MOL0     H73772  12.137   6.453   1.979 -1.1410  2.2063 -1.0210
  535MOL0     H73773  12.110   6.280   1.723  0.3422 -0.4762 -0.0081
  535MOL0     H73774  12.172   6.454   1.727  1.0788  0.0863  0.0409
  535MOL0     H73775  12.339   6.382   1.897 -2.0751 -1.4795  2.4871
  535MOL0     H73776  12.357   6.310   1.732 -0.5411  2.0983  0.3895
  535MOL0     H73777  12.274   6.178   2.000 -0.6419 -2.6532 -0.3974
  535MOL0     H73778  12.245   6.101   1.847  1.2710  0.1786 -1.3183
  535MOL0     H73779  12.513   6.145   2.107  1.2952 -2.5512  0.9156
  535MOL0     H73780  12.815   5.938   1.967 -1.0068  0.6631 -2.0877
  535MOL0     H73781  12.739   5.994   2.131 -1.0797  1.1722  0.5446
  535MOL0     H73782  12.855   6.153   1.907 -0.2495 -0.1543 -0.1301
  535MOL0     H73783  12.817   6.224   2.061  0.2441  0.9153 -1.7936
  535MOL0     H73784  13.012   6.059   2.153 -2.0962 -1.7193  0.3211
  535MOL0     H73785  13.035   6.047   1.977 -2.7232  1.3606 -0.5736
  535MOL0     H73786  13.066   6.295   1.935 -0.1578  3.1103  0.7694
  535MOL0     H73787  13.014   6.333   2.086  2.8446  0.1055  2.3529
  535MOL0     H73788  13.104   6.435   2.250 -0.5842 -0.2899 -1.1211
  535MOL0     H73789  13.090   6.502   2.456 -0.5322 -0.9163  4.0037
  535MOL0     H73790  13.205   6.637   2.424  1.4553 -0.3840  0.6394
  535MOL0     H73791  13.224   6.534   2.561 -0.2472  1.0864  0.0481
  535MOL0     H73792  13.699   6.611   2.524  1.5673  2.2326  0.9432
  535MOL0     H73793  13.837   6.730   2.693  0.9560  0.2135  2.6408
  535MOL0     H73794  13.822   6.563   3.076 -0.4542 -0.3406  0.2352
  535MOL0     H73795  13.988   6.498   3.039  1.4881  2.5275 -0.6965
  535MOL0     H73796  13.985   6.786   3.089  0.5529  1.1564  1.2628
  535MOL0     H73797  13.945   6.687   3.238  0.5741 -0.1848 -0.2485
  535MOL0     H73798  14.189   6.659   3.068  1.1168  2.3386  1.0801
  535MOL0     H73799  14.142   6.529   3.175 -2.4316  0.2906 -0.6164
  535MOL0     H73800  14.141   6.691   3.363  2.8579  0.2632  1.3078
  535MOL0     H73801  14.211   6.815   3.248  0.1041  0.1831  0.3015
  535MOL0     H73802  14.326   6.530   3.319  0.5776 -0.4408 -1.9507
  535MOL0     H73803  14.394   6.632   3.196  0.7579 -0.7503 -0.2346
  535MOL0     H73804  14.389   6.691   3.499  2.8363 -1.4944  1.4257
  535MOL0     H73805  14.449   6.798   3.367  0.2429 -0.7519 -0.7981
  535MOL0     H73806  14.607   6.612   3.314 -2.5218 -0.8214 -1.3740
  535MOL0     H73807  14.537   6.513   3.448  3.6267 -0.0638  0.8835
  535MOL0     H73808  14.599   6.678   3.605  0.5072 -1.0717  0.5118
  535MOL0     H73809  14.668   6.777   3.465  0.7259 -0.1995  0.1556
  535MOL0     H73810  13.837   6.365   2.929 -0.2638  1.5002  0.2715
  535MOL0     H73811  13.697   6.265   2.747  0.2060  1.1028  0.6011
  535MOL0     H73812  13.563   6.263   2.333  0.6190 -1.3715 -1.8958
  535MOL0     H73813  13.443   6.147   2.174  1.4081  1.8755 -0.8893
  535MOL0     H73814  11.374   6.294   1.867 -0.6161 -1.9261  1.8596
  535MOL0     H73815  11.175   6.143   1.835 -1.6050 -1.4180 -2.8009
  535MOL0     H73816  10.840   6.106   1.566 -2.0501  0.6653 -0.7530
  535MOL0     H73817  10.614   6.045   1.489 -1.5296 -0.4861  0.5169
  535MOL0     H73818  10.508   5.608   1.434 -0.6783 -0.0028 -1.7001
  535MOL0     H73819  10.425   5.706   1.551 -2.4665  1.7305 -1.0602
  535MOL0     H73820  10.288   5.800   1.374  0.7068  1.2577 -2.7924
  535MOL0     H73821  10.259   5.630   1.403 -0.6239  0.8854  0.9418
  535MOL0     H73822  10.262   5.679   1.169 -1.1541 -0.8707  0.9248
  535MOL0     H73823  10.413   5.760   1.183 -0.4016  1.1829  2.0528
  535MOL0     H73824  10.537   5.540   1.232  0.1915  0.3069 -0.3547
  535MOL0     H73825  10.462   5.565   1.080 -1.0869 -2.1909 -0.0308
  535MOL0     H73826  10.239   5.244   1.182  0.3841  0.5598  1.1197
  535MOL0     H73827  10.717   5.640   1.468 -1.1624  0.7541  0.1176
  535MOL0     H73828  11.048   5.639   1.541 -1.0536  0.2651 -0.7816
  535MOL0     H73829  10.974   5.633   1.709  0.3153  0.2663 -0.2058
  535MOL0     H73830  10.898   5.554   1.583  0.4180 -0.8195  1.6277
  536MOL0     O73831   2.817   3.133   4.399  0.4471 -0.2419 -0.6243
  536MOL0     C73832   2.786   3.248   4.394  1.1888 -0.7519  0.0022
  536MOL0     O73833   2.829   3.337   4.304 -0.4433  0.0341 -0.0748
  536MOL0     C73834   2.883   3.306   4.181  1.3222 -0.4112  0.1173
  536MOL0     C73835   2.876   3.184   4.118  0.0359  0.4389  0.5423
  536MOL0     C73836   2.938   3.164   3.988  0.7376 -0.1062  0.8169
  536MOL0     C73837   3.000   3.270   3.917 -0.1613 -0.4211  0.5791
  536MOL0     O73838   3.064   3.230   3.803 -0.1409 -0.2708  0.0679
  536MOL0     C73839   3.165   3.318   3.742  0.3021 -0.0779 -0.8955
  536MOL0     C73840   3.258   3.231   3.661  0.2639 -0.2649  0.0164
  536MOL0     C73841   3.358   3.310   3.585  0.0136 -0.2481 -0.7127
  536MOL0     C73842   3.446   3.413   3.674  0.1795  1.0086 -0.1306
  536MOL0     C73843   3.498   3.524   3.582 -1.0778  0.4055  0.1233
  536MOL0     C73844   3.572   3.453   3.461 -0.0839  0.0694  0.7123
  536MOL0     C73845   3.676   3.544   3.396  0.7584  0.7985 -0.0239
  536MOL0     C73846   3.755   3.478   3.290 -0.7789  0.9429  0.3983
  536MOL0     N73847   3.884   3.550   3.257  0.2875 -0.1898 -0.2045
  536MOL0     C73848   4.000   3.550   3.334  1.1960  0.3254  0.0254
  536MOL0     C73849   4.080   3.639   3.280 -0.7329 -0.6051  0.0386
  536MOL0     C73850   4.224   3.676   3.327 -0.5002 -0.0883 -0.2777
  536MOL0     C73851   4.235   3.767   3.456  0.4709 -0.6550  0.4430
  536MOL0     C73852   4.248   3.705   3.590  0.3172  0.6056 -0.7172
  536MOL0     C73853   4.396   3.697   3.629 -0.4189  0.6078  0.9492
  536MOL0     O73854   4.424   3.729   3.763 -0.9095 -0.1425 -0.5479
  536MOL0     C73855   4.551   3.704   3.803 -0.2572  0.2539 -0.1137
  536MOL0     C73856   4.578   3.735   3.939 -0.0669 -0.8304  0.4429
  536MOL0     C73857   4.701   3.701   3.991 -0.1777 -0.2039 -0.6746
  536MOL0     C73858   4.700   3.704   4.143 -0.3441  0.4397 -0.9152
  536MOL0     C73859   4.807   3.652   3.919 -0.8766 -0.4875 -0.1571
  536MOL0     C73860   4.942   3.615   3.985 -0.2294 -0.0087  0.0192
  536MOL0     O73861   4.980   3.681   4.099 -0.4732  0.2243  0.7300
  536MOL0     C73862   5.097   3.665   4.156  0.1553 -0.3372 -0.2957
  536MOL0     C73863   5.108   3.658   4.294  0.6824 -0.0334  0.2430
  536MOL0     C73864   5.227   3.639   4.353  0.1509 -0.5152 -0.9496
  536MOL0     C73865   5.352   3.653   4.286 -0.0619 -0.5677  0.6157
  536MOL0     O73866   5.479   3.631   4.336  0.2090  0.1197 -0.4603
  536MOL0     C73867   5.480   3.557   4.461 -0.8033 -1.0384  0.2708
  536MOL0     C73868   5.630   3.555   4.512  0.2585  0.0582  0.4968
  536MOL0     C73869   5.718   3.476   4.423 -0.6541  0.0932  0.3807
  536MOL0     C73870   5.870   3.489   4.459  0.2838  0.6647 -0.0745
  536MOL0     C73871   5.932   3.630   4.435  0.8903  0.1005  0.6889
  536MOL0     C73872   6.086   3.637   4.431 -0.3016 -0.2963  0.8045
  536MOL0     C73873   6.155   3.569   4.545 -0.1052 -0.0347 -0.3482
  536MOL0     C73874   6.301   3.618   4.556 -0.4581  0.8633 -0.8851
  536MOL0    Cl73875   6.388   3.543   4.429 -0.5631 -0.2129 -0.1936
  536MOL0     C73876   5.337   3.676   4.155 -0.5821 -0.6596 -0.0161
  536MOL0     C73877   5.218   3.680   4.087 -0.1088  0.9803  0.3245
  536MOL0     O73878   5.012   3.530   3.936  0.0365  0.3225  0.1535
  536MOL0     C73879   4.788   3.625   3.786  0.7128  0.0182 -0.0912
  536MOL0     C73880   4.663   3.649   3.728  0.5970 -0.3820 -0.6925
  536MOL0     N73881   4.014   3.690   3.158  0.5042 -0.0276 -0.2786
  536MOL0     N73882   3.900   3.634   3.151 -0.1967 -0.6291  0.3160
  536MOL0     C73883   3.003   3.397   3.989 -0.4297 -0.6003 -0.0231
  536MOL0     C73884   2.943   3.417   4.113  0.8102 -0.2630 -0.6406
  536MOL0     C73885   2.693   3.298   4.492  0.6812  0.1597  0.3881
  536MOL0     C73886   2.587   3.380   4.451  0.1808 -0.3996  0.0720
  536MOL0     C73887   2.488   3.423   4.534  0.1993 -0.9091 -0.8525
  536MOL0     C73888   2.498   3.390   4.667  0.7896  0.6545  0.0224
  536MOL0     O73889   2.401   3.457   4.738  0.3791  0.1640 -0.0507
  536MOL0     C73890   2.377   3.421   4.875 -0.2458 -0.1294 -0.2412
  536MOL0     C73891   2.232   3.453   4.922  0.5919 -1.2201  0.8007
  536MOL0     C73892   2.189   3.599   4.897  0.0471 -0.6309 -0.2422
  536MOL0     C73893   2.055   3.633   4.967  0.6915 -0.1237  0.4964
  536MOL0     C73894   2.014   3.772   4.952  0.4874  0.2737 -0.1046
  536MOL0     C73895   1.977   3.878   4.922 -0.5963 -0.6439  0.2208
  536MOL0     C73896   2.611   3.319   4.713  1.1430 -0.0604 -0.4927
  536MOL0     C73897   2.710   3.269   4.628  0.9269  0.9144 -0.1239
  536MOL0     C73898   2.818   3.191   4.690 -0.8961 -0.4015  0.6638
  536MOL0     H73899   2.838   3.100   4.175 -2.2428  0.5312 -0.7179
  536MOL0     H73900   2.923   3.068   3.940  3.2854  1.1268 -2.8238
  536MOL0     H73901   3.218   3.376   3.819  0.8955 -0.1305 -1.2630
  536MOL0     H73902   3.108   3.385   3.677  0.1294 -0.7850 -1.4787
  536MOL0     H73903   3.319   3.166   3.725 -0.1636  1.2959  2.0837
  536MOL0     H73904   3.196   3.177   3.589 -0.0990  3.9501 -3.2521
  536MOL0     H73905   3.415   3.241   3.523  1.5253 -0.1504  0.4711
  536MOL0     H73906   3.299   3.371   3.516  0.2978 -1.5092 -2.1023
  536MOL0     H73907   3.392   3.458   3.757  0.1183 -1.5457  1.3329
  536MOL0     H73908   3.529   3.358   3.721 -0.9315 -0.1069  0.5851
  536MOL0     H73909   3.575   3.578   3.638  1.7767 -0.5195 -2.5904
  536MOL0     H73910   3.415   3.583   3.542 -1.0838 -0.3208 -0.9949
  536MOL0     H73911   3.626   3.363   3.491 -3.0598 -0.9889  3.4059
  536MOL0     H73912   3.496   3.427   3.387  0.2574 -0.4990  0.5562
  536MOL0     H73913   3.748   3.576   3.472 -1.6820  1.6997  2.0500
  536MOL0     H73914   3.620   3.626   3.351 -3.7364 -2.9481 -2.0697
  536MOL0     H73915   3.798   3.379   3.308  1.1657  1.5165 -0.7811
  536MOL0     H73916   3.689   3.479   3.203  1.4881  1.4617 -1.3829
  536MOL0     H73917   4.004   3.515   3.437  0.9453 -1.7425 -0.6223
  536MOL0     H73918   4.285   3.731   3.256  1.0130  0.0897  1.1020
  536MOL0     H73919   4.272   3.579   3.344  2.7993  1.3149 -0.8771
  536MOL0     H73920   4.301   3.854   3.446 -1.0552  0.4130 -0.7723
  536MOL0     H73921   4.136   3.812   3.450  0.5850 -0.4054  0.4115
  536MOL0     H73922   4.198   3.764   3.668  0.3918 -1.2199  0.8003
  536MOL0     H73923   4.206   3.604   3.595 -0.6772  1.0025 -0.8785
  536MOL0     H73924   4.431   3.594   3.637 -1.7241  0.1690  1.1561
  536MOL0     H73925   4.453   3.759   3.559 -2.1502  0.6796 -0.4866
  536MOL0     H73926   4.503   3.791   3.993  0.8040  2.0507 -1.1616
  536MOL0     H73927   4.767   3.777   4.191 -0.8346  0.6681 -0.5753
  536MOL0     H73928   4.732   3.602   4.169 -0.6347 -0.4747 -3.7595
  536MOL0     H73929   4.602   3.714   4.189  0.5742  0.7556  1.1079
  536MOL0     H73930   5.014   3.655   4.349 -0.0678 -0.4278 -1.0294
  536MOL0     H73931   5.221   3.619   4.460 -0.5200  1.3194 -0.6105
  536MOL0     H73932   5.424   3.618   4.533  0.8579  3.6751 -2.0672
  536MOL0     H73933   5.444   3.454   4.446  2.2748 -2.4743  1.8800
  536MOL0     H73934   5.669   3.657   4.516  0.2663  0.1601 -1.3493
  536MOL0     H73935   5.624   3.524   4.617 -2.4090  1.7667  0.9486
  536MOL0     H73936   5.699   3.523   4.326 -0.7776  1.3302  0.9900
  536MOL0     H73937   5.686   3.371   4.430 -1.3793  0.3825  1.7855
  536MOL0     H73938   5.934   3.423   4.400 -0.8654  0.4958 -1.1776
  536MOL0     H73939   5.886   3.453   4.561  0.6604  1.4169  0.1422
  536MOL0     H73940   5.894   3.679   4.344  0.8984 -1.0193  0.0557
  536MOL0     H73941   5.903   3.698   4.515  4.0845  1.6770  0.6836
  536MOL0     H73942   6.117   3.742   4.430  0.5066 -0.4964  2.3033
  536MOL0     H73943   6.118   3.592   4.337 -2.2100 -0.7451  0.3410
  536MOL0     H73944   6.151   3.460   4.550 -0.7338 -0.0253 -0.4756
  536MOL0     H73945   6.104   3.617   4.629 -1.9124 -0.3022 -1.2306
  536MOL0     H73946   6.347   3.578   4.647  1.6155  1.0647 -1.7895
  536MOL0     H73947   6.324   3.724   4.563  3.2813  0.1713 -0.9506
  536MOL0     H73948   5.430   3.676   4.098  0.3851  1.5481  1.4433
  536MOL0     H73949   5.215   3.695   3.980  0.5494 -0.8992  0.0057
  536MOL0     H73950   4.864   3.579   3.723  1.7934  2.6888 -0.8810
  536MOL0     H73951   4.662   3.652   3.619 -1.1556 -0.3276 -0.6978
  536MOL0     H73952   3.065   3.477   3.950  3.7141 -1.5587  3.7848
  536MOL0     H73953   2.948   3.508   4.172  3.2504 -0.6571 -0.1695
  536MOL0     H73954   2.570   3.399   4.345  1.2273 -1.5351 -0.3325
  536MOL0     H73955   2.411   3.493   4.502  1.8085  1.4867  0.2301
  536MOL0     H73956   2.395   3.313   4.883  2.6740  0.2626 -0.5354
  536MOL0     H73957   2.448   3.469   4.943  0.7565 -1.3269 -0.4070
  536MOL0     H73958   2.218   3.423   5.026 -0.4075 -0.2181  0.9814
  536MOL0     H73959   2.156   3.401   4.864 -0.7008  2.3619 -0.9882
  536MOL0     H73960   2.266   3.668   4.933  0.7873 -1.5179 -0.0873
  536MOL0     H73961   2.186   3.608   4.788 -0.5698  2.4856 -0.0525
  536MOL0     H73962   2.071   3.631   5.075  0.7108  3.2428  0.6536
  536MOL0     H73963   1.976   3.568   4.927  1.4753 -0.5069 -0.4721
  536MOL0     H73964   1.957   3.982   4.900 -0.4549  0.0713  3.1093
  536MOL0     H73965   2.620   3.311   4.821  0.6366  1.8919 -0.2720
  536MOL0     H73966   2.896   3.182   4.614 -1.2421  1.8122 -0.0218
  536MOL0     H73967   2.865   3.244   4.774 -1.1969  0.4604  0.3029
  536MOL0     H73968   2.776   3.095   4.720  1.6531 -1.4267  1.2262
  537MOL0     O73969   3.193   5.766  10.302  0.6266  0.1690 -0.1583
  537MOL0     C73970   3.165   5.843  10.216 -0.7408 -0.1556  0.0710
  537MOL0     O73971   3.257   5.945  10.177  0.5420 -0.6941 -1.0690
  537MOL0     C73972   3.310   6.041  10.269  0.6607 -0.6608 -0.2379
  537MOL0     C73973   3.357   6.159  10.215  0.2788  0.0681  0.6518
  537MOL0     C73974   3.414   6.259  10.299 -0.0754 -0.7649 -0.1869
  537MOL0     C73975   3.463   6.224  10.426  0.4213 -0.0805  0.8879
  537MOL0     O73976   3.527   6.311  10.508 -0.3582 -0.0527  0.3067
  537MOL0     C73977   3.663   6.276  10.531  0.4281 -0.7914 -0.7830
  537MOL0     C73978   3.738   6.396  10.599  1.0445  0.3628 -0.3266
  537MOL0     C73979   3.760   6.515  10.509  0.6172  0.0244  0.3429
  537MOL0     C73980   3.825   6.632  10.567 -0.0722 -0.3360  0.1564
  537MOL0     C73981   3.929   6.602  10.684  0.2356  0.5725  0.5025
  537MOL0     C73982   4.022   6.718  10.706 -1.2159 -0.0876 -0.0517
  537MOL0     C73983   3.963   6.849  10.756  0.2229  0.0740 -0.2121
  537MOL0     C73984   4.058   6.945  10.823 -0.2671 -0.0670 -1.2031
  537MOL0     N73985   4.093   6.902  10.965 -0.2200 -0.7931 -0.0241
  537MOL0     C73986   4.218   6.860  11.004 -0.0646  1.0528  0.2521
  537MOL0     C73987   4.217   6.842  11.132  0.2291 -0.1540 -0.6896
  537MOL0     C73988   4.345   6.807  11.214 -0.3778 -0.0792 -0.3838
  537MOL0     C73989   4.434   6.933  11.228  0.7547  0.1663  0.3430
  537MOL0     C73990   4.554   6.900  11.319 -0.1035 -0.2389  0.6015
  537MOL0     C73991   4.625   7.016  11.369 -0.1468 -1.0990  1.0539
  537MOL0     O73992   4.749   6.970  11.413 -0.3676 -0.7692  1.0197
  537MOL0     C73993   4.858   7.060  11.423  0.1040 -0.4116 -0.1569
  537MOL0     C73994   4.989   7.018  11.386 -0.2020  1.1524  1.5175
  537MOL0     C73995   5.100   7.096  11.383  0.4660 -0.0875 -0.4939
  537MOL0     C73996   5.229   7.035  11.328  0.3054 -0.4525  0.9952
  537MOL0     C73997   5.090   7.231  11.432 -0.2946  0.5006  0.0962
  537MOL0     C73998   5.205   7.329  11.442  0.0830 -0.1973 -0.7057
  537MOL0     O73999   5.331   7.293  11.417 -0.9181  0.5978 -0.1317
  537MOL0     C74000   5.432   7.326  11.500 -0.6650  0.7587  0.4524
  537MOL0     C74001   5.418   7.362  11.634  0.2529  0.4716 -1.1020
  537MOL0     C74002   5.537   7.390  11.703  0.6722 -0.0885  0.0282
  537MOL0     C74003   5.665   7.380  11.651  0.1703 -0.5138  0.1431
  537MOL0     O74004   5.785   7.409  11.712 -0.7407  0.5409  0.3114
  537MOL0     C74005   5.780   7.495  11.828 -0.4230  0.2182 -0.0869
  537MOL0     C74006   5.920   7.507  11.886  0.5463 -0.1134 -0.7033
  537MOL0     C74007   6.011   7.570  11.779 -0.0110 -0.3508  0.6114
  537MOL0     C74008   6.139   7.636  11.837 -0.5058 -0.0724 -0.1484
  537MOL0     C74009   6.213   7.725  11.742  0.0899  0.1033 -0.3673
  537MOL0     C74010   6.361   7.721  11.767 -0.4750  0.4065 -0.2639
  537MOL0     C74011   6.397   7.783  11.906  0.7323  0.0223  0.4519
  537MOL0     C74012   6.546   7.791  11.935 -0.4331 -0.0783  0.5267
  537MOL0    Cl74013   6.578   7.710  12.088 -0.4340 -0.5017 -0.1230
  537MOL0     C74014   5.679   7.336  11.514  0.5128 -0.1122 -0.2190
  537MOL0     C74015   5.558   7.305  11.449 -0.0032  0.1422 -0.0428
  537MOL0     O74016   5.172   7.436  11.490 -0.5516 -0.6852 -0.6172
  537MOL0     C74017   4.958   7.267  11.475  0.4968 -0.0816  0.4872
  537MOL0     C74018   4.847   7.184  11.474  0.5265 -0.4530  0.8048
  537MOL0     N74019   4.094   6.889  11.182 -0.2493  0.3750  0.0986
  537MOL0     N74020   4.019   6.919  11.081 -0.3258  0.0232  0.1620
  537MOL0     C74021   3.418   6.103  10.482 -0.9216 -0.9365  0.2192
  537MOL0     C74022   3.348   6.014  10.403 -0.4611  0.4669 -0.2175
  537MOL0     C74023   3.034   5.837  10.152 -0.2105 -0.3208 -0.7616
  537MOL0     C74024   2.999   5.923  10.051 -0.2344  0.5966  0.3592
  537MOL0     C74025   2.872   5.930   9.994  0.2528  0.4517  0.1098
  537MOL0     C74026   2.763   5.855  10.042 -0.3862  0.3546 -0.1531
  537MOL0     O74027   2.651   5.866   9.968  0.1294 -0.6284 -0.2074
  537MOL0     C74028   2.542   5.784   9.989  0.3167  0.3691  0.8179
  537MOL0     C74029   2.426   5.814   9.889  0.8759 -0.4868  0.5034
  537MOL0     C74030   2.423   5.745   9.747  0.8323 -0.6232  0.1367
  537MOL0     C74031   2.563   5.689   9.715  0.4049  0.1350  0.0297
  537MOL0     C74032   2.547   5.617   9.591  0.1750 -0.5142  0.0001
  537MOL0     C74033   2.524   5.565   9.490 -0.5463 -0.6481  0.8446
  537MOL0     C74034   2.793   5.770  10.146  0.3965 -0.2132 -0.2972
  537MOL0     C74035   2.921   5.756  10.199 -1.1658 -1.0376  0.2253
  537MOL0     C74036   2.935   5.659  10.309  0.9361  0.0939 -0.0932
  537MOL0     H74037   3.329   6.182  10.113  4.1036 -0.7383 -0.7714
  537MOL0     H74038   3.431   6.358  10.260  0.1145  0.1296  2.0563
  537MOL0     H74039   3.722   6.255  10.441  2.9828 -2.2716  1.1141
  537MOL0     H74040   3.662   6.187  10.595 -1.6548 -0.2563  0.0112
  537MOL0     H74041   3.674   6.420  10.685  3.8086 -1.7620  2.5182
  537MOL0     H74042   3.837   6.365  10.633  0.3238  1.1352  2.7966
  537MOL0     H74043   3.810   6.475  10.421 -1.7599  0.0984 -1.1172
  537MOL0     H74044   3.665   6.547  10.465 -0.6124 -3.2406  0.4100
  537MOL0     H74045   3.865   6.687  10.482 -1.2652  0.4893  0.1077
  537MOL0     H74046   3.740   6.693  10.600 -0.3735 -0.9916  0.6177
  537MOL0     H74047   3.989   6.517  10.650 -0.9444 -0.7052  1.4815
  537MOL0     H74048   3.873   6.558  10.768 -3.3919 -2.0089 -2.8940
  537MOL0     H74049   4.094   6.684  10.781 -1.3595  1.2446  0.7314
  537MOL0     H74050   4.071   6.740  10.611 -1.3591 -1.1957 -0.4002
  537MOL0     H74051   3.883   6.834  10.829  0.1907  0.7528 -0.1010
  537MOL0     H74052   3.915   6.905  10.676  1.0564  2.4284  0.8490
  537MOL0     H74053   4.150   6.947  10.763  0.3584 -3.2730 -0.5625
  537MOL0     H74054   4.015   7.045  10.821  0.3430  0.3038  1.2045
  537MOL0     H74055   4.288   6.824  10.930 -1.8712 -1.4841 -0.3511
  537MOL0     H74056   4.408   6.731  11.167  0.6078  0.9451 -0.7781
  537MOL0     H74057   4.315   6.755  11.306 -1.5940 -0.4147 -0.9498
  537MOL0     H74058   4.469   6.969  11.131  0.5564  0.4508  0.3773
  537MOL0     H74059   4.372   7.015  11.265  1.0268  0.0052  1.1582
  537MOL0     H74060   4.503   6.854  11.404 -2.4788 -1.1997 -1.1915
  537MOL0     H74061   4.616   6.822  11.273 -1.3904 -0.2760 -1.2044
  537MOL0     H74062   4.632   7.094  11.293 -2.1605 -0.3221  1.5949
  537MOL0     H74063   4.570   7.068  11.448 -2.0390  0.4823 -1.1585
  537MOL0     H74064   4.978   6.915  11.354 -3.6514  2.6867 -3.6424
  537MOL0     H74065   5.312   7.032  11.400  2.5186 -0.8547 -1.4085
  537MOL0     H74066   5.251   7.112  11.254 -4.4150  1.2507  1.0614
  537MOL0     H74067   5.211   6.936  11.285  2.2600 -0.2322 -0.4614
  537MOL0     H74068   5.324   7.377  11.688  0.6889 -1.0415  0.1842
  537MOL0     H74069   5.530   7.405  11.810 -3.6000  0.6301 -0.1824
  537MOL0     H74070   5.747   7.588  11.782 -1.5370  0.4863  1.2017
  537MOL0     H74071   5.715   7.452  11.904 -0.0555 -0.7942 -0.3302
  537MOL0     H74072   5.926   7.558  11.982 -2.8622  1.9742 -1.4006
  537MOL0     H74073   5.955   7.407  11.911 -2.4587 -0.6139  2.1467
  537MOL0     H74074   5.957   7.652  11.729  1.0559 -0.7798 -1.3657
  537MOL0     H74075   6.043   7.497  11.705  2.8503  2.8398 -1.6375
  537MOL0     H74076   6.206   7.553  11.858  0.6101  0.3334 -1.9013
  537MOL0     H74077   6.105   7.701  11.917 -0.7912 -0.0832 -0.2591
  537MOL0     H74078   6.206   7.688  11.640  2.0339 -1.9535  0.1748
  537MOL0     H74079   6.170   7.826  11.735  0.0915  0.0611 -0.9882
  537MOL0     H74080   6.412   7.788  11.697  0.1456  1.8838  1.5024
  537MOL0     H74081   6.406   7.622  11.756 -0.2309  0.3137  1.3026
  537MOL0     H74082   6.360   7.719  11.987 -0.1505 -0.4110 -0.2759
  537MOL0     H74083   6.355   7.884  11.918  0.1172 -0.1100 -0.4686
  537MOL0     H74084   6.596   7.889  11.938  3.2679 -1.7599  0.1297
  537MOL0     H74085   6.598   7.726  11.864 -0.5754  0.0712  0.2872
  537MOL0     H74086   5.777   7.334  11.466  0.2849 -0.3719 -0.6889
  537MOL0     H74087   5.572   7.280  11.345 -1.1621  1.2573 -0.4862
  537MOL0     H74088   4.935   7.363  11.522  1.5583 -0.2181  1.3301
  537MOL0     H74089   4.760   7.229  11.522 -0.8622 -2.2450  0.0949
  537MOL0     H74090   3.450   6.084  10.584  0.3312 -0.4819 -0.0674
  537MOL0     H74091   3.318   5.921  10.450 -3.1755  0.1832 -2.2706
  537MOL0     H74092   3.067   6.000  10.015  1.1595 -1.1009 -0.7896
  537MOL0     H74093   2.848   6.010   9.925 -1.4093  0.9891  1.2379
  537MOL0     H74094   2.576   5.680   9.990 -0.5908  0.0103 -0.9042
  537MOL0     H74095   2.502   5.805  10.088 -0.0547  0.9605  0.5544
  537MOL0     H74096   2.413   5.922   9.882  1.3907 -0.4552 -0.0219
  537MOL0     H74097   2.333   5.775   9.931  0.4075 -0.6169 -0.6119
  537MOL0     H74098   2.349   5.665   9.744 -0.2697  0.3934 -0.7885
  537MOL0     H74099   2.394   5.817   9.670 -2.0465  1.3276  2.8283
  537MOL0     H74100   2.601   5.623   9.794 -1.9521 -1.7523 -0.2992
  537MOL0     H74101   2.630   5.775   9.702  0.6756 -0.3035 -1.7186
  537MOL0     H74102   2.521   5.514   9.395  0.2143 -1.3625  1.1864
  537MOL0     H74103   2.711   5.712  10.189  1.2204 -3.5041 -2.8144
  537MOL0     H74104   2.997   5.573  10.281  1.0738  0.3594 -0.6143
  537MOL0     H74105   2.977   5.705  10.399 -3.4455  0.4838  1.9959
  537MOL0     H74106   2.835   5.630  10.340  0.8120  2.4854  2.0530
  538MOL0     O74107   9.956   5.542   3.658 -0.6909  0.2401  0.3421
  538MOL0     C74108   9.922   5.543   3.780 -0.3852 -0.3322  0.2443
  538MOL0     O74109  10.002   5.574   3.885  0.5402 -0.3689 -0.1007
  538MOL0     C74110  10.138   5.575   3.852  1.0502 -0.0063 -0.0845
  538MOL0     C74111  10.214   5.454   3.876  0.2565 -0.4129  0.4900
  538MOL0     C74112  10.349   5.457   3.863 -0.2070  0.8740 -0.2401
  538MOL0     C74113  10.412   5.569   3.817  0.7406  0.2156  0.3613
  538MOL0     O74114  10.546   5.570   3.783  0.1174 -0.5681  0.3001
  538MOL0     C74115  10.632   5.476   3.853  0.6601 -0.4639  0.7668
  538MOL0     C74116  10.773   5.514   3.824 -0.4636 -0.2050  0.8092
  538MOL0     C74117  10.832   5.613   3.924  0.0916  0.5155  0.4653
  538MOL0     C74118  10.961   5.665   3.866  0.7883 -0.1819  0.1700
  538MOL0     C74119  11.033   5.765   3.950 -0.2858  0.6912  0.1528
  538MOL0     C74120  11.157   5.834   3.887 -0.2974 -0.5200  0.4617
  538MOL0     C74121  11.292   5.758   3.890 -0.5108  0.4559  0.0501
  538MOL0     C74122  11.399   5.872   3.912 -0.3609  0.7419 -0.5281
  538MOL0     N74123  11.537   5.822   3.916  0.2499  0.1628 -0.2094
  538MOL0     C74124  11.608   5.782   3.805 -0.9691 -0.7052 -0.5494
  538MOL0     C74125  11.730   5.761   3.856 -0.0628 -0.6856 -0.6407
  538MOL0     C74126  11.849   5.738   3.762 -0.4310  0.7903  0.3934
  538MOL0     C74127  11.806   5.647   3.645 -0.9212 -0.3167 -0.0020
  538MOL0     C74128  11.927   5.628   3.551 -0.7106 -0.3175 -0.4495
  538MOL0     C74129  11.932   5.749   3.449  0.4940  0.8291  0.6269
  538MOL0     O74130  12.021   5.737   3.335  0.3277  0.4269 -0.2489
  538MOL0     C74131  12.137   5.662   3.361 -0.2975 -0.8303  0.4834
  538MOL0     C74132  12.238   5.735   3.421 -0.9765 -0.0091  0.6246
  538MOL0     C74133  12.355   5.671   3.455  0.4478  0.5445 -0.3612
  538MOL0     C74134  12.454   5.762   3.521  0.1972 -0.1631 -0.5062
  538MOL0     C74135  12.369   5.533   3.439 -0.2750 -0.2419 -0.2306
  538MOL0     C74136  12.487   5.453   3.484 -0.3924  0.1243 -0.2137
  538MOL0     O74137  12.487   5.323   3.444 -0.0806  0.0509 -0.8232
  538MOL0     C74138  12.575   5.237   3.501 -0.4311  0.6123  0.2558
  538MOL0     C74139  12.705   5.238   3.451 -0.1067 -0.1039  0.8090
  538MOL0     C74140  12.804   5.159   3.506  0.1094  0.1785  1.4419
  538MOL0     C74141  12.776   5.071   3.605 -0.0139  0.5220 -0.2564
  538MOL0     O74142  12.873   4.982   3.667  1.0833  0.1834  0.1362
  538MOL0     C74143  13.003   4.963   3.613  0.1395 -0.1139 -0.1460
  538MOL0     C74144  13.065   4.839   3.667  0.2447  0.5291 -0.4386
  538MOL0     C74145  13.213   4.830   3.613 -0.0296  0.2563 -0.5600
  538MOL0     C74146  13.277   4.700   3.668 -0.4426  0.3258 -0.2480
  538MOL0     C74147  13.429   4.697   3.621 -0.1409  0.1317 -0.0986
  538MOL0     C74148  13.500   4.569   3.664 -0.5552  0.8692 -0.0436
  538MOL0     C74149  13.651   4.554   3.647  0.6500  0.0501 -0.2728
  538MOL0     C74150  13.698   4.421   3.594  0.1458  0.4019  0.3527
  538MOL0    Cl74151  13.883   4.413   3.585 -0.3136 -0.0537  0.3688
  538MOL0     C74152  12.642   5.069   3.650  0.3741  0.2334 -0.1001
  538MOL0     C74153  12.540   5.151   3.603  0.2151 -0.4840  0.2483
  538MOL0     O74154  12.566   5.500   3.565  0.3300 -0.1660 -0.1818
  538MOL0     C74155  12.263   5.457   3.383 -0.2150 -0.3018 -1.0730
  538MOL0     C74156  12.142   5.526   3.348 -0.3303  0.2559 -0.6529
  538MOL0     N74157  11.721   5.762   3.995 -0.0453  0.9185  0.6944
  538MOL0     N74158  11.605   5.797   4.026 -0.1920 -0.3348  0.0658
  538MOL0     C74159  10.334   5.680   3.768 -0.1231 -0.0487  0.2274
  538MOL0     C74160  10.198   5.684   3.786 -0.0234  0.6685  0.1200
  538MOL0     C74161   9.773   5.528   3.803  0.2340 -0.3095 -0.1159
  538MOL0     C74162   9.710   5.604   3.903 -0.3340  1.0992  0.2961
  538MOL0     C74163   9.570   5.593   3.924  0.2451 -0.8218  0.0537
  538MOL0     C74164   9.496   5.511   3.842 -0.1800  0.1110 -0.3982
  538MOL0     O74165   9.359   5.491   3.865 -0.4872  0.0763 -0.1178
  538MOL0     C74166   9.337   5.389   3.963  0.9157  1.0160 -0.0465
  538MOL0     C74167   9.197   5.399   4.012  0.8049  0.4444 -0.3345
  538MOL0     C74168   9.159   5.531   4.068 -0.4629 -0.3060  1.1186
  538MOL0     C74169   9.000   5.535   4.095 -0.3354 -0.0126  1.1042
  538MOL0     C74170   8.924   5.642   4.015  0.1908 -0.6904 -0.9091
  538MOL0     C74171   8.863   5.733   3.964  0.5888  0.3029  0.3151
  538MOL0     C74172   9.555   5.431   3.747  0.7300 -0.4971 -0.5007
  538MOL0     C74173   9.688   5.438   3.723 -0.7085  0.8690 -0.0237
  538MOL0     C74174   9.745   5.340   3.613  0.4095 -0.7589 -0.7851
  538MOL0     H74175  10.163   5.372   3.926 -0.5597  0.3172  0.8825
  538MOL0     H74176  10.394   5.360   3.880 -4.1342 -1.3742 -1.3331
  538MOL0     H74177  10.604   5.384   3.802 -2.0458  1.7153 -2.1222
  538MOL0     H74178  10.609   5.470   3.959  0.7306 -1.4470  0.7306
  538MOL0     H74179  10.832   5.422   3.821  1.5522  1.0627 -0.7008
  538MOL0     H74180  10.782   5.553   3.722 -0.0300  0.7380  1.1997
  538MOL0     H74181  10.768   5.697   3.953  1.1563  0.8510  1.9346
  538MOL0     H74182  10.856   5.557   4.015  0.0056 -2.7112 -1.3530
  538MOL0     H74183  11.019   5.574   3.846 -3.2344 -3.0714  0.4146
  538MOL0     H74184  10.940   5.710   3.769  0.5557  2.5502  1.4013
  538MOL0     H74185  11.063   5.715   4.043  0.5347 -0.2182 -0.5674
  538MOL0     H74186  10.966   5.848   3.972  0.3739  1.2989 -0.1006
  538MOL0     H74187  11.136   5.856   3.782  0.4614  1.4012  0.6632
  538MOL0     H74188  11.168   5.932   3.935  1.8195 -0.1395 -0.6707
  538MOL0     H74189  11.316   5.707   3.796 -4.2802  0.6145 -1.1338
  538MOL0     H74190  11.289   5.695   3.979 -0.0490  0.4909  0.0941
  538MOL0     H74191  11.388   5.954   3.840 -1.0416  1.2916  0.1778
  538MOL0     H74192  11.395   5.912   4.014  1.1065 -3.7491  1.5288
  538MOL0     H74193  11.567   5.784   3.704 -3.2562 -0.4445  0.3327
  538MOL0     H74194  11.925   5.687   3.821 -0.2813 -1.2266 -1.4408
  538MOL0     H74195  11.895   5.832   3.727  1.6991  0.2391  1.5314
  538MOL0     H74196  11.784   5.545   3.680 -0.8712 -1.1794 -2.3153
  538MOL0     H74197  11.719   5.688   3.592 -2.4782  0.7895  3.1315
  538MOL0     H74198  12.018   5.619   3.610 -1.2998  1.8552  0.8750
  538MOL0     H74199  11.920   5.535   3.492  0.3469 -2.4676  2.5874
  538MOL0     H74200  11.828   5.759   3.415  0.1678 -2.3754  0.3679
  538MOL0     H74201  11.963   5.839   3.503 -3.0958  2.6651 -0.0841
  538MOL0     H74202  12.214   5.841   3.422  1.4605  0.5919  0.2685
  538MOL0     H74203  12.410   5.862   3.513 -0.6372 -0.2200  2.3228
  538MOL0     H74204  12.552   5.738   3.479  0.4598 -0.6475  0.3676
  538MOL0     H74205  12.456   5.734   3.627  2.0720  0.2847 -0.3931
  538MOL0     H74206  12.716   5.313   3.372  3.2300 -1.5108 -0.2663
  538MOL0     H74207  12.903   5.162   3.462  0.6002 -1.2164  2.3901
  538MOL0     H74208  13.002   4.955   3.504  2.7575  2.2455 -0.4628
  538MOL0     H74209  13.069   5.048   3.633  1.8894 -1.0788 -1.4867
  538MOL0     H74210  13.057   4.847   3.776 -0.5163  1.7693 -0.5738
  538MOL0     H74211  13.015   4.747   3.635  0.1601  0.4862 -0.1875
  538MOL0     H74212  13.276   4.915   3.639  0.0116 -0.7791  3.2358
  538MOL0     H74213  13.223   4.821   3.504  0.0439 -1.2142 -0.4506
  538MOL0     H74214  13.218   4.617   3.627  1.2439 -2.9964  3.4505
  538MOL0     H74215  13.264   4.691   3.776  0.0567 -1.0424 -0.2837
  538MOL0     H74216  13.427   4.707   3.512 -3.2425  0.8082 -0.0887
  538MOL0     H74217  13.478   4.790   3.651 -0.5045  1.1116 -2.3163
  538MOL0     H74218  13.456   4.482   3.616  0.8010  0.7432 -1.1022
  538MOL0     H74219  13.478   4.555   3.771 -2.7840  1.2077 -0.4119
  538MOL0     H74220  13.696   4.578   3.744  1.9018 -2.0178 -0.2593
  538MOL0     H74221  13.676   4.631   3.574  1.0433 -1.2976 -1.6238
  538MOL0     H74222  13.655   4.398   3.496  0.7249 -0.5676  0.3156
  538MOL0     H74223  13.654   4.341   3.655 -1.4857 -3.1687 -4.8029
  538MOL0     H74224  12.631   4.996   3.730 -1.2987 -0.2757 -0.7507
  538MOL0     H74225  12.434   5.152   3.626  0.0757  2.6780 -0.1552
  538MOL0     H74226  12.271   5.349   3.388  0.5098 -0.1894  1.2282
  538MOL0     H74227  12.056   5.467   3.320  0.4174 -0.5042 -1.4131
  538MOL0     H74228  10.382   5.762   3.715 -0.0434 -0.1880  0.0836
  538MOL0     H74229  10.137   5.770   3.762  0.5649  0.7427 -1.2041
  538MOL0     H74230   9.757   5.683   3.961  1.5336 -0.9255  1.7061
  538MOL0     H74231   9.520   5.660   3.994  0.3574  0.3568 -0.9542
  538MOL0     H74232   9.342   5.292   3.912  1.1143  0.7455  0.4791
  538MOL0     H74233   9.411   5.400   4.043  1.0348  2.0919 -0.2915
  538MOL0     H74234   9.189   5.319   4.086  4.3874 -0.9637 -1.2747
  538MOL0     H74235   9.123   5.379   3.934 -0.8825  3.8733  0.2003
  538MOL0     H74236   9.213   5.549   4.161 -0.3290 -1.3481  1.2583
  538MOL0     H74237   9.182   5.612   3.998  0.0522 -1.9038 -0.6447
  538MOL0     H74238   8.979   5.554   4.201 -1.4621  0.0466  0.8883
  538MOL0     H74239   8.957   5.439   4.064 -0.0250  0.1302  0.1897
  538MOL0     H74240   8.800   5.810   3.924 -1.1939 -0.4220  1.6023
  538MOL0     H74241   9.498   5.365   3.682  0.0812  0.4646 -0.9382
  538MOL0     H74242   9.837   5.288   3.643  0.9875  1.5347  1.8065
  538MOL0     H74243   9.667   5.268   3.587 -0.6926  1.0601 -2.7861
  538MOL0     H74244   9.773   5.392   3.521  4.2819 -0.8471  0.1722
  539MOL0     O74245   5.120   8.051   9.965  0.1202 -0.3723 -0.7115
  539MOL0     C74246   5.002   8.011   9.946  0.6701  0.4524 -0.6151
  539MOL0     O74247   4.966   7.882   9.942 -0.1974  0.6482 -0.4504
  539MOL0     C74248   5.065   7.785   9.984 -0.0691  0.2166  0.0276
  539MOL0     C74249   5.200   7.786   9.941 -0.2942 -0.2008  0.0662
  539MOL0     C74250   5.275   7.668   9.968  0.7943 -0.0752 -0.1165
  539MOL0     C74251   5.222   7.555  10.036  0.5339  0.2243 -1.3119
  539MOL0     O74252   5.300   7.443  10.053  0.1139 -0.1066  0.6326
  539MOL0     C74253   5.238   7.326  10.114  0.7038  0.0506  0.6257
  539MOL0     C74254   5.343   7.237  10.170  0.5165  0.1171 -0.0838
  539MOL0     C74255   5.426   7.186  10.054 -0.6411 -0.3239 -0.1858
  539MOL0     C74256   5.547   7.104  10.110  0.7051 -0.4031 -0.0871
  539MOL0     C74257   5.637   7.060  10.000  0.2538  0.3546  0.2717
  539MOL0     C74258   5.572   6.949   9.903 -0.6166  0.1245 -0.6538
  539MOL0     C74259   5.687   6.871   9.837 -0.0564 -0.0444  0.5042
  539MOL0     C74260   5.756   6.768   9.921 -0.8904 -0.3767  0.2564
  539MOL0     N74261   5.850   6.698   9.824 -0.0561  0.2873 -0.4639
  539MOL0     C74262   5.973   6.658   9.863  0.0730  0.7781  0.2549
  539MOL0     C74263   6.011   6.577   9.765  0.0640  0.1953  0.1141
  539MOL0     C74264   6.145   6.507   9.760 -0.1920 -0.3335 -0.9311
  539MOL0     C74265   6.155   6.393   9.664  0.3029  0.6631 -0.7535
  539MOL0     C74266   6.117   6.247   9.706 -0.0337  0.2310  0.4844
  539MOL0     C74267   6.157   6.138   9.602  0.0444  0.5443  0.4191
  539MOL0     O74268   6.302   6.139   9.588 -0.4551 -0.4239 -0.0033
  539MOL0     C74269   6.367   6.037   9.519  0.3526 -0.0474  0.0901
  539MOL0     C74270   6.306   5.945   9.439 -0.4503  0.3550 -0.5200
  539MOL0     C74271   6.381   5.846   9.372  0.7348  0.1951 -0.2267
  539MOL0     C74272   6.294   5.749   9.291 -0.0941 -0.6280 -0.4618
  539MOL0     C74273   6.517   5.849   9.383  0.4891  0.1198 -0.2943
  539MOL0     C74274   6.596   5.743   9.311  0.6205 -0.3966 -0.5323
  539MOL0     O74275   6.682   5.670   9.386 -0.2973 -0.5545 -0.1526
  539MOL0     C74276   6.750   5.578   9.311 -1.1652 -0.1343 -0.4969
  539MOL0     C74277   6.715   5.447   9.316  0.1801  0.1767  0.5945
  539MOL0     C74278   6.803   5.351   9.262 -0.4890  0.3330  0.1688
  539MOL0     C74279   6.920   5.394   9.191 -0.6840 -0.0421  0.0942
  539MOL0     O74280   7.001   5.299   9.145  0.0684  0.0598  0.4946
  539MOL0     C74281   7.086   5.325   9.029 -0.6069 -0.4470 -0.5200
  539MOL0     C74282   7.230   5.280   9.060 -0.5715  0.6869 -0.3451
  539MOL0     C74283   7.333   5.314   8.953  0.2300  0.6123  0.4394
  539MOL0     C74284   7.477   5.264   8.991  0.1396 -0.5751  1.6753
  539MOL0     C74285   7.584   5.353   8.920  0.7821  0.2100  0.0080
  539MOL0     C74286   7.590   5.339   8.767  0.6424 -0.1033 -0.4544
  539MOL0     C74287   7.683   5.436   8.699  0.2909  0.1245  0.1323
  539MOL0     C74288   7.734   5.388   8.565  0.6077 -0.0691  0.8449
  539MOL0    Cl74289   7.842   5.239   8.569 -0.5060  0.2633 -0.1817
  539MOL0     C74290   6.958   5.527   9.188 -0.1761  0.0644  0.0266
  539MOL0     C74291   6.866   5.614   9.249  0.4483  0.3864 -0.0589
  539MOL0     O74292   6.576   5.725   9.194  0.4686 -0.1398 -0.2993
  539MOL0     C74293   6.578   5.944   9.452  0.5730 -0.7577  1.0356
  539MOL0     C74294   6.508   6.040   9.521 -0.1501 -0.0077  0.3254
  539MOL0     N74295   5.911   6.552   9.682 -0.7326  0.4261  0.4970
  539MOL0     N74296   5.813   6.629   9.711  0.3373 -1.2261 -0.1992
  539MOL0     C74297   5.086   7.558  10.068  0.0496  0.8046 -0.3512
  539MOL0     C74298   5.008   7.671  10.046 -0.2742 -0.9303 -0.0007
  539MOL0     C74299   4.882   8.105   9.940 -0.2625  0.2741 -0.2796
  539MOL0     C74300   4.765   8.057   9.872  0.4387 -0.3244  0.1649
  539MOL0     C74301   4.643   8.128   9.877 -0.1911  0.1210 -0.6078
  539MOL0     C74302   4.639   8.242   9.952 -0.3768 -1.0527  0.0895
  539MOL0     O74303   4.534   8.331   9.961  0.3778 -0.5040 -0.0158
  539MOL0     C74304   4.409   8.278   9.916 -0.0510 -0.7003 -0.4914
  539MOL0     C74305   4.300   8.387   9.945 -0.1033  0.3969 -0.4340
  539MOL0     C74306   4.285   8.420  10.093  0.6126  0.5611 -0.3415
  539MOL0     C74307   4.162   8.509  10.126  0.6171  0.7993  0.5752
  539MOL0     C74308   4.036   8.445  10.101  0.5605  0.2203 -0.7904
  539MOL0     C74309   3.929   8.403  10.069  0.0027  0.5586  0.4131
  539MOL0     C74310   4.758   8.295  10.012 -0.5612 -0.3870 -0.1043
  539MOL0     C74311   4.880   8.232  10.001  0.0381  0.1337 -0.7882
  539MOL0     C74312   4.996   8.298  10.069 -0.9189 -1.2246  0.4338
  539MOL0     H74313   5.254   7.865   9.890  1.0274  2.8470  5.4357
  539MOL0     H74314   5.378   7.674   9.936  1.1335 -0.1888  0.9136
  539MOL0     H74315   5.171   7.278  10.042  1.1219  1.0934 -0.4927
  539MOL0     H74316   5.177   7.355  10.201  1.0337 -0.8901  1.1806
  539MOL0     H74317   5.410   7.292  10.237  0.3468  1.2606 -0.8208
  539MOL0     H74318   5.283   7.161  10.221  1.3230 -2.1218 -2.3135
  539MOL0     H74319   5.370   7.122   9.985 -0.9059 -0.0269 -0.2472
  539MOL0     H74320   5.456   7.268   9.988  2.1738 -0.9977  0.1063
  539MOL0     H74321   5.605   7.158  10.186 -1.1998 -1.8287  2.5514
  539MOL0     H74322   5.503   7.020  10.164 -0.3602  0.1945  0.0094
  539MOL0     H74323   5.728   7.018  10.042 -1.1507 -0.7355  2.3689
  539MOL0     H74324   5.672   7.156   9.961  2.8487 -0.7022 -0.2010
  539MOL0     H74325   5.508   6.880   9.958  0.0792 -0.6767 -0.8349
  539MOL0     H74326   5.502   6.999   9.836 -4.0104 -1.2625  1.5848
  539MOL0     H74327   5.768   6.929   9.793 -0.1752  0.1358  0.5229
  539MOL0     H74328   5.629   6.819   9.761  0.8227  0.3307 -0.4508
  539MOL0     H74329   5.813   6.811  10.003 -0.8054  0.6392 -0.3259
  539MOL0     H74330   5.681   6.702   9.966 -0.5532 -1.1971 -0.3386
  539MOL0     H74331   6.034   6.684   9.949  0.0838 -1.0282  0.8301
  539MOL0     H74332   6.169   6.474   9.861 -0.0550 -2.6216 -1.6573
  539MOL0     H74333   6.222   6.582   9.737  0.2362  0.4023  2.3846
  539MOL0     H74334   6.103   6.418   9.571  0.4435 -1.0123 -1.3125
  539MOL0     H74335   6.260   6.378   9.640  1.0056  1.1087  1.7329
  539MOL0     H74336   6.163   6.224   9.802 -0.1369 -2.1278  0.0442
  539MOL0     H74337   6.008   6.237   9.711 -0.1332  0.1796 -1.0980
  539MOL0     H74338   6.115   6.038   9.617  1.5726 -0.1247  0.4002
  539MOL0     H74339   6.117   6.167   9.504  2.4167 -1.8990 -1.4070
  539MOL0     H74340   6.198   5.934   9.430 -0.3785 -0.3561 -0.6014
  539MOL0     H74341   6.272   5.779   9.188 -0.5562 -0.0437 -0.1972
  539MOL0     H74342   6.207   5.724   9.352  0.8162 -1.4107  0.5693
  539MOL0     H74343   6.356   5.659   9.285  3.2734  1.5297 -0.9269
  539MOL0     H74344   6.622   5.411   9.358  0.8404 -2.7150 -0.1670
  539MOL0     H74345   6.773   5.248   9.272 -1.4520  0.6440  0.6442
  539MOL0     H74346   7.043   5.272   8.944  0.6393 -0.7390 -0.9817
  539MOL0     H74347   7.089   5.428   8.992 -0.3568  0.8104  2.6624
  539MOL0     H74348   7.268   5.333   9.148 -0.4121  3.3981 -1.9496
  539MOL0     H74349   7.233   5.174   9.085  1.0533  1.1060  1.4777
  539MOL0     H74350   7.326   5.422   8.937  0.0471  0.4404 -0.7609
  539MOL0     H74351   7.304   5.264   8.860 -3.0893  2.0010  0.6105
  539MOL0     H74352   7.488   5.158   8.964  2.0405  0.6311 -3.4846
  539MOL0     H74353   7.494   5.286   9.097  0.4719  4.5835  0.7881
  539MOL0     H74354   7.556   5.457   8.941  0.3126  0.6436 -2.3810
  539MOL0     H74355   7.675   5.336   8.978 -0.7722  1.5478  3.0549
  539MOL0     H74356   7.489   5.357   8.728  0.0348 -1.1176  0.5949
  539MOL0     H74357   7.615   5.237   8.736  3.5170  0.4381 -0.1937
  539MOL0     H74358   7.766   5.460   8.765 -0.1109  2.4952 -0.1275
  539MOL0     H74359   7.612   5.516   8.678 -1.5852 -2.0639 -2.6704
  539MOL0     H74360   7.791   5.474   8.529 -2.2215  0.4840 -2.9142
  539MOL0     H74361   7.649   5.374   8.497  1.6933  1.6451 -0.9764
  539MOL0     H74362   7.042   5.573   9.137 -2.2801  0.6591 -3.1875
  539MOL0     H74363   6.886   5.721   9.248  1.4271  0.2264  0.7886
  539MOL0     H74364   6.686   5.958   9.445  0.3143  1.0592 -0.1101
  539MOL0     H74365   6.556   6.109   9.590 -3.2634  2.1907  0.4645
  539MOL0     H74366   5.041   7.474  10.121  0.8854 -0.5144 -1.6613
  539MOL0     H74367   4.904   7.677  10.076 -0.5055  1.3525 -1.0317
  539MOL0     H74368   4.762   7.959   9.826  2.8714  0.8478 -2.9040
  539MOL0     H74369   4.561   8.081   9.824  0.9759 -3.7347  0.7410
  539MOL0     H74370   4.416   8.269   9.807 -0.4639  1.7032 -0.7659
  539MOL0     H74371   4.374   8.180   9.951  1.8770 -0.8894  1.0618
  539MOL0     H74372   4.201   8.359   9.906  0.2900 -1.2524 -0.3042
  539MOL0     H74373   4.345   8.478   9.905  3.2713 -0.2209  1.5562
  539MOL0     H74374   4.262   8.334  10.155 -0.6037  2.8997  2.7274
  539MOL0     H74375   4.370   8.470  10.141  1.7995 -2.1013  0.4820
  539MOL0     H74376   4.167   8.602  10.069 -1.5224  1.3013  1.1192
  539MOL0     H74377   4.161   8.537  10.232  0.6948  1.5831  0.3671
  539MOL0     H74378   3.835   8.361  10.038  0.2722  2.1721 -3.0451
  539MOL0     H74379   4.748   8.386  10.070 -0.7501 -0.8294  0.5724
  539MOL0     H74380   5.078   8.312   9.998 -1.1847  0.8686  0.4674
  539MOL0     H74381   4.977   8.403  10.095  1.0021 -0.5804 -0.5995
  539MOL0     H74382   5.034   8.249  10.158  4.1395  3.9134  1.7348
  540MOL0     O74383   4.533   1.784   9.271  0.0115 -0.3011 -0.6819
  540MOL0     C74384   4.507   1.904   9.263  0.1726 -0.2938  0.0124
  540MOL0     O74385   4.589   2.000   9.211 -0.1299 -0.2174 -0.2643
  540MOL0     C74386   4.723   1.969   9.200  1.0492 -0.0706 -0.6851
  540MOL0     C74387   4.779   1.981   9.079 -0.0005  0.0613 -0.1546
  540MOL0     C74388   4.913   1.930   9.064 -0.0729 -0.1657  0.0535
  540MOL0     C74389   4.989   1.888   9.166  0.1339 -1.0399  0.4973
  540MOL0     O74390   5.112   1.841   9.131  0.0916  0.4477  0.0959
  540MOL0     C74391   5.164   1.756   9.225 -0.1211  0.1541  0.0494
  540MOL0     C74392   5.282   1.683   9.160 -0.6100 -0.4304  0.0824
  540MOL0     C74393   5.254   1.557   9.069 -0.7232  0.1657  0.6845
  540MOL0     C74394   5.375   1.455   9.080 -0.4903  0.1987 -0.0240
  540MOL0     C74395   5.351   1.338   8.989  0.4785 -0.4533  1.1304
  540MOL0     C74396   5.420   1.379   8.855  0.0039 -0.5015 -0.2047
  540MOL0     C74397   5.395   1.275   8.745  0.5400 -0.6319  0.1060
  540MOL0     C74398   5.443   1.315   8.602  0.5744  0.0956  0.3139
  540MOL0     N74399   5.567   1.394   8.603  0.0358 -0.4376 -0.0017
  540MOL0     C74400   5.695   1.342   8.639  1.3989  0.5986 -0.5005
  540MOL0     C74401   5.777   1.410   8.562  0.3086  0.2422 -0.4494
  540MOL0     C74402   5.921   1.388   8.574 -1.5327 -0.2822 -0.1420
  540MOL0     C74403   6.009   1.489   8.510 -0.0671 -0.1219  0.6454
  540MOL0     C74404   6.154   1.484   8.550  0.1369 -0.1966 -0.0498
  540MOL0     C74405   6.220   1.348   8.511  0.0661 -0.5806  0.1726
  540MOL0     O74406   6.344   1.333   8.586 -0.4656  0.0730  0.3314
  540MOL0     C74407   6.456   1.410   8.558 -0.5942 -0.3545  0.5239
  540MOL0     C74408   6.568   1.387   8.637 -0.0101  0.3233  0.1003
  540MOL0     C74409   6.698   1.437   8.606 -0.1762 -0.3384  0.5909
  540MOL0     C74410   6.813   1.393   8.697  0.4417 -0.8976  0.6592
  540MOL0     C74411   6.713   1.528   8.487 -0.0210 -0.4155 -0.1169
  540MOL0     C74412   6.840   1.598   8.450  0.2785 -0.4522 -1.7866
  540MOL0     O74413   6.841   1.672   8.342 -0.1288  0.1089  0.0990
  540MOL0     C74414   6.960   1.730   8.291  0.2915 -0.5403  0.1785
  540MOL0     C74415   7.024   1.843   8.350 -0.6425  0.1822  0.2846
  540MOL0     C74416   7.142   1.897   8.298 -0.2545 -0.5355  0.1202
  540MOL0     C74417   7.207   1.842   8.188  0.2233  0.9643 -0.4340
  540MOL0     O74418   7.316   1.889   8.128 -0.9023 -0.1342 -0.1921
  540MOL0     C74419   7.317   2.029   8.090  0.7890 -0.1757 -0.5186
  540MOL0     C74420   7.450   2.071   8.036 -0.7089 -0.8635 -0.4944
  540MOL0     C74421   7.556   2.052   8.141 -0.4710  1.5401 -0.3980
  540MOL0     C74422   7.694   2.088   8.085  0.1726 -0.0638  0.0457
  540MOL0     C74423   7.728   2.235   8.134  0.7823  0.5054 -0.0657
  540MOL0     C74424   7.876   2.276   8.110 -0.5985 -0.0978  0.5864
  540MOL0     C74425   7.901   2.423   8.154 -0.6187 -0.4128  0.5389
  540MOL0     C74426   8.053   2.453   8.153  0.3293 -0.8480 -0.3580
  540MOL0    Cl74427   8.135   2.395   8.311  0.0655 -0.2389  0.1542
  540MOL0     C74428   7.132   1.737   8.121  0.0567  0.3950  0.0262
  540MOL0     C74429   7.019   1.673   8.173  0.3132 -0.3535 -0.1405
  540MOL0     O74430   6.922   1.607   8.541  0.1837 -0.0664 -0.1773
  540MOL0     C74431   6.597   1.551   8.412 -0.7060  0.0050  0.6961
  540MOL0     C74432   6.474   1.491   8.444  0.2212 -0.6882  1.0432
  540MOL0     N74433   5.711   1.505   8.496 -0.4834 -0.4191  0.2307
  540MOL0     N74434   5.584   1.502   8.514  0.1748  0.6923  0.0682
  540MOL0     C74435   4.932   1.895   9.297 -0.7625  0.5117 -0.3703
  540MOL0     C74436   4.802   1.940   9.310  0.3794  0.5365  0.0926
  540MOL0     C74437   4.368   1.942   9.309 -0.5594 -0.8703  0.5837
  540MOL0     C74438   4.299   2.033   9.223  0.3331 -0.1553 -0.0400
  540MOL0     C74439   4.170   2.069   9.250  0.4288  1.1313 -0.0478
  540MOL0     C74440   4.104   2.016   9.359  0.3568 -0.2688  0.0079
  540MOL0     O74441   3.972   2.046   9.387 -0.0568 -0.1951  0.1253
  540MOL0     C74442   3.889   1.938   9.426 -0.0691 -0.9645  1.2437
  540MOL0     C74443   3.747   1.970   9.373 -0.4848 -1.0864 -0.1297
  540MOL0     C74444   3.677   2.107   9.407  0.5116 -0.5087 -0.4706
  540MOL0     C74445   3.637   2.126   9.551 -0.0610  0.3307 -0.0577
  540MOL0     C74446   3.543   2.019   9.574  1.0695  0.6281  0.2604
  540MOL0     C74447   3.459   1.933   9.590 -0.7186 -0.0330 -0.4220
  540MOL0     C74448   4.173   1.940   9.447 -0.3516  0.0348  0.0257
  540MOL0     C74449   4.306   1.901   9.428 -0.0882  0.5087 -0.0009
  540MOL0     C74450   4.394   1.829   9.534  0.5149  0.0640  0.9858
  540MOL0     H74451   4.726   2.020   8.992  3.5140  1.4365 -1.8711
  540MOL0     H74452   4.958   1.924   8.965 -0.8132  1.6426 -0.4408
  540MOL0     H74453   5.092   1.676   9.243  0.1711  0.0626  0.8447
  540MOL0     H74454   5.194   1.809   9.317 -2.3720 -0.2402  1.0696
  540MOL0     H74455   5.334   1.758   9.099 -1.3463  1.0509  1.2086
  540MOL0     H74456   5.348   1.657   9.243  1.2279 -2.0962 -1.7718
  540MOL0     H74457   5.162   1.510   9.105 -0.2717 -0.9669  0.3976
  540MOL0     H74458   5.239   1.586   8.965  0.8822  0.9844  0.6530
  540MOL0     H74459   5.461   1.515   9.050 -0.1229 -0.6823 -0.7696
  540MOL0     H74460   5.379   1.433   9.187  0.8325  2.0125  0.3405
  540MOL0     H74461   5.244   1.316   8.981  0.3814  0.2737  0.3951
  540MOL0     H74462   5.398   1.244   9.021 -1.8070 -1.1140  2.9241
  540MOL0     H74463   5.397   1.480   8.822 -0.8418  0.1087  2.0617
  540MOL0     H74464   5.525   1.369   8.885 -0.0867  0.9829  0.7181
  540MOL0     H74465   5.287   1.256   8.738  0.2786  0.9145 -0.6222
  540MOL0     H74466   5.448   1.187   8.782 -0.2412 -0.7981  0.8641
  540MOL0     H74467   5.445   1.228   8.536  0.7028 -0.0561  0.5184
  540MOL0     H74468   5.362   1.372   8.555 -0.7744 -2.1237 -0.1944
  540MOL0     H74469   5.704   1.258   8.707 -1.2171  2.0536  1.8745
  540MOL0     H74470   5.947   1.303   8.509  2.1763  2.8594 -3.2442
  540MOL0     H74471   5.963   1.360   8.671 -0.9465 -4.4055 -1.3752
  540MOL0     H74472   6.001   1.480   8.401 -0.8900  1.8268  0.4993
  540MOL0     H74473   5.975   1.590   8.536  1.5155  0.2424  1.4667
  540MOL0     H74474   6.205   1.554   8.483  0.5556 -0.7573 -0.3201
  540MOL0     H74475   6.172   1.506   8.655 -1.4594  3.2973 -0.3402
  540MOL0     H74476   6.158   1.259   8.526 -0.2921  0.0979  3.4538
  540MOL0     H74477   6.234   1.365   8.404 -2.2620  0.3393 -0.0415
  540MOL0     H74478   6.558   1.321   8.723  0.6967 -0.1988 -0.2160
  540MOL0     H74479   6.772   1.321   8.768 -1.2697  0.6334  1.3067
  540MOL0     H74480   6.850   1.486   8.742 -0.4684 -0.1179 -0.1529
  540MOL0     H74481   6.899   1.350   8.645 -0.9710 -2.2774 -0.6441
  540MOL0     H74482   6.987   1.885   8.443  2.1445  2.8240  0.3770
  540MOL0     H74483   7.183   1.989   8.338 -1.2271 -0.1302  0.2127
  540MOL0     H74484   7.239   2.044   8.015  0.4239  2.0583  0.2434
  540MOL0     H74485   7.274   2.096   8.165 -0.2792  0.8287 -1.9765
  540MOL0     H74486   7.481   2.022   7.943 -1.9267  0.3873 -1.6184
  540MOL0     H74487   7.435   2.174   8.003  2.4252 -0.4341 -0.8285
  540MOL0     H74488   7.560   1.946   8.169 -0.8181  1.6386  0.0206
  540MOL0     H74489   7.545   2.117   8.228  1.1755  1.6585 -0.2367
  540MOL0     H74490   7.707   2.063   7.979 -0.5820 -1.7493  0.3109
  540MOL0     H74491   7.758   2.021   8.144 -2.1836 -1.2496  1.4260
  540MOL0     H74492   7.654   2.292   8.077  1.4305  0.2224 -1.2118
  540MOL0     H74493   7.709   2.243   8.241 -1.1562  0.1271 -0.3364
  540MOL0     H74494   7.892   2.262   8.003  1.1413  0.5720  0.7304
  540MOL0     H74495   7.951   2.217   8.163  2.3750 -0.5587 -3.6514
  540MOL0     H74496   7.875   2.424   8.260  0.1402 -0.2300  0.7295
  540MOL0     H74497   7.857   2.496   8.084 -1.7761 -2.1345 -0.6114
  540MOL0     H74498   8.076   2.559   8.139  0.8853 -0.8021  0.7837
  540MOL0     H74499   8.097   2.402   8.067 -0.3404 -1.3725 -0.3989
  540MOL0     H74500   7.173   1.688   8.033  0.1149 -1.2526  0.9323
  540MOL0     H74501   6.957   1.596   8.128  0.4520 -0.3364 -0.3585
  540MOL0     H74502   6.591   1.607   8.320 -2.5792  2.1702  2.0294
  540MOL0     H74503   6.393   1.507   8.373 -0.3325 -3.6540  0.8549
  540MOL0     H74504   4.988   1.863   9.384  0.2749  1.7484 -0.5621
  540MOL0     H74505   4.759   1.945   9.409  1.2422  1.8434  0.4330
  540MOL0     H74506   4.356   2.056   9.133 -0.0204 -3.8638 -1.3837
  540MOL0     H74507   4.117   2.142   9.189 -1.2053  0.9203  1.0387
  540MOL0     H74508   3.925   1.843   9.388  1.6745  0.2703 -0.3925
  540MOL0     H74509   3.892   1.953   9.535  2.3462 -1.0507  1.2490
  540MOL0     H74510   3.677   1.891   9.399 -4.4137  2.0114 -0.3727
  540MOL0     H74511   3.757   1.962   9.264  1.1623  0.2273 -0.1324
  540MOL0     H74512   3.735   2.190   9.363  0.5107 -0.9845 -1.4071
  540MOL0     H74513   3.588   2.106   9.344  0.7185  0.3489 -0.7971
  540MOL0     H74514   3.578   2.218   9.558  0.8227  1.0187 -1.1298
  540MOL0     H74515   3.721   2.118   9.621  0.4205 -0.4988 -0.7108
  540MOL0     H74516   3.374   1.870   9.604 -1.3585  1.0055  0.5679
  540MOL0     H74517   4.122   1.914   9.539 -1.6445 -0.1992 -0.7396
  540MOL0     H74518   4.410   1.723   9.511 -0.7146 -0.2646  1.5451
  540MOL0     H74519   4.497   1.865   9.534  1.4957 -2.4622  0.0192
  540MOL0     H74520   4.361   1.826   9.638  1.6638 -4.3612  1.4448
  541MOL0     O74521   7.582   2.261   6.439  0.5498 -0.5519 -0.1892
  541MOL0     C74522   7.582   2.366   6.503  0.4911 -0.9198 -1.0745
  541MOL0     O74523   7.489   2.396   6.605  0.2398 -0.1190 -0.1938
  541MOL0     C74524   7.372   2.330   6.608 -0.4779  0.5062 -0.7444
  541MOL0     C74525   7.287   2.303   6.504  0.2359 -0.7634  0.1157
  541MOL0     C74526   7.169   2.227   6.516  0.4143  0.4023  0.4757
  541MOL0     C74527   7.138   2.174   6.641 -0.3669 -0.3331 -0.6742
  541MOL0     O74528   7.028   2.098   6.668 -1.1690  0.2328 -0.0959
  541MOL0     C74529   6.931   2.070   6.563 -0.5155 -0.4368  0.1433
  541MOL0     C74530   6.802   2.026   6.645  0.5085  0.1378  0.4047
  541MOL0     C74531   6.754   1.883   6.600  0.1763  0.7309 -0.4781
  541MOL0     C74532   6.727   1.837   6.449 -0.2645  0.1947  0.1478
  541MOL0     C74533   6.618   1.721   6.458 -0.3932  0.0084  0.0721
  541MOL0     C74534   6.664   1.594   6.534  0.0805 -0.7397 -0.4829
  541MOL0     C74535   6.564   1.483   6.528 -0.2733 -0.4972  0.1380
  541MOL0     C74536   6.594   1.351   6.598 -0.3564  0.4112  0.4263
  541MOL0     N74537   6.718   1.290   6.530  0.7329 -0.9957 -1.0364
  541MOL0     C74538   6.848   1.298   6.576  1.0250 -0.0874  0.5243
  541MOL0     C74539   6.916   1.239   6.477  0.6428 -0.3411 -0.1879
  541MOL0     C74540   7.064   1.211   6.471 -0.1750  0.0616 -0.2719
  541MOL0     C74541   7.134   1.292   6.364  0.2787 -1.0355 -0.0758
  541MOL0     C74542   7.158   1.442   6.396  0.6985 -0.0296 -0.7452
  541MOL0     C74543   7.062   1.533   6.314  0.0178  0.3998 -0.9125
  541MOL0     O74544   7.085   1.666   6.361 -0.0072 -0.0841  0.4839
  541MOL0     C74545   7.205   1.727   6.330  0.4004 -0.1569 -0.8458
  541MOL0     C74546   7.255   1.813   6.427 -0.0776  0.1362 -0.3408
  541MOL0     C74547   7.384   1.863   6.421 -1.6859  0.3226 -0.2216
  541MOL0     C74548   7.444   1.936   6.537 -0.1226  0.0931 -0.6183
  541MOL0     C74549   7.464   1.841   6.307  0.6090  0.1618 -0.1198
  541MOL0     C74550   7.598   1.892   6.281 -1.0562 -1.0192  0.3377
  541MOL0     O74551   7.640   1.897   6.153  0.0744  0.2084 -0.1072
  541MOL0     C74552   7.753   1.960   6.130 -0.8025  0.1073 -0.3621
  541MOL0     C74553   7.837   1.906   6.036  0.4590 -0.6791 -0.9017
  541MOL0     C74554   7.939   1.982   5.981 -0.3006  0.3117  0.8069
  541MOL0     C74555   7.951   2.121   6.006  0.7605  0.5097 -0.1259
  541MOL0     O74556   8.024   2.208   5.931 -1.0609 -0.8443  1.0006
  541MOL0     C74557   8.160   2.174   5.933 -0.7281 -0.9591  0.4943
  541MOL0     C74558   8.247   2.287   5.875  0.2863  0.2683  0.4477
  541MOL0     C74559   8.218   2.317   5.733 -0.4578 -0.2425 -0.1061
  541MOL0     C74560   8.316   2.426   5.690  1.1486 -0.3092 -0.0363
  541MOL0     C74561   8.321   2.461   5.546 -0.2770  0.5968  0.1386
  541MOL0     C74562   8.420   2.574   5.512  0.0291 -0.5589  0.5084
  541MOL0     C74563   8.427   2.595   5.357 -0.6422 -0.3906  0.0146
  541MOL0     C74564   8.536   2.699   5.320 -0.5384 -0.4870  0.1126
  541MOL0    Cl74565   8.695   2.633   5.343 -0.2938  0.1869  0.2766
  541MOL0     C74566   7.859   2.175   6.092 -0.2186 -0.5661 -0.0761
  541MOL0     C74567   7.765   2.094   6.162 -0.3400 -0.4254  0.1417
  541MOL0     O74568   7.675   1.923   6.374  0.3356  0.5742  0.2436
  541MOL0     C74569   7.410   1.757   6.206 -1.1321 -1.4647 -0.0067
  541MOL0     C74570   7.288   1.694   6.216 -0.3097 -0.0982  0.7832
  541MOL0     N74571   6.829   1.204   6.372 -0.3566  0.6322  0.4310
  541MOL0     N74572   6.710   1.238   6.403  0.0544  0.3456  0.0011
  541MOL0     C74573   7.225   2.193   6.749 -0.4598  0.4961 -0.2068
  541MOL0     C74574   7.343   2.270   6.736 -0.4352 -1.3758  1.0643
  541MOL0     C74575   7.704   2.460   6.482  0.0959 -1.0193 -0.7321
  541MOL0     C74576   7.789   2.446   6.370 -0.5719 -0.0941  0.3010
  541MOL0     C74577   7.900   2.521   6.348 -0.7796 -0.4076 -0.3280
  541MOL0     C74578   7.935   2.628   6.440  0.0870 -0.2389  0.4286
  541MOL0     O74579   8.040   2.704   6.413 -0.4520  0.4844 -0.2500
  541MOL0     C74580   8.146   2.688   6.515 -0.0346 -0.6724 -0.2841
  541MOL0     C74581   8.277   2.752   6.465 -0.5171 -0.0342  0.0521
  541MOL0     C74582   8.350   2.667   6.351 -0.3181  0.0857  0.5160
  541MOL0     C74583   8.488   2.722   6.342  0.1509  0.5028  0.2854
  541MOL0     C74584   8.550   2.639   6.236  0.4034  0.4899  0.1249
  541MOL0     C74585   8.601   2.564   6.159 -0.7483 -0.1943  0.5818
  541MOL0     C74586   7.859   2.652   6.550 -0.3330  0.1218  0.6766
  541MOL0     C74587   7.744   2.566   6.573  0.1198 -0.1051  0.7072
  541MOL0     C74588   7.657   2.619   6.686 -0.5838 -0.0055 -0.2088
  541MOL0     H74589   7.313   2.342   6.406 -0.7146  4.1791  1.5374
  541MOL0     H74590   7.112   2.206   6.426  0.4373 -0.0208  0.5579
  541MOL0     H74591   6.959   1.992   6.492 -1.6690  1.4537 -2.5199
  541MOL0     H74592   6.912   2.157   6.500  3.3549  0.0685 -0.6173
  541MOL0     H74593   6.821   2.021   6.753  0.1816 -1.4504  0.4228
  541MOL0     H74594   6.728   2.105   6.628  1.8209  0.7158 -3.7013
  541MOL0     H74595   6.826   1.816   6.648  0.7859  2.4521  1.1547
  541MOL0     H74596   6.655   1.872   6.645  1.6534 -4.8801  2.2620
  541MOL0     H74597   6.688   1.923   6.394  3.2923  0.7376 -1.7973
  541MOL0     H74598   6.811   1.808   6.387 -1.1795  0.5985 -1.3267
  541MOL0     H74599   6.594   1.682   6.359 -0.8532  0.2268  0.0968
  541MOL0     H74600   6.521   1.749   6.501  0.4181  0.5770  1.6190
  541MOL0     H74601   6.757   1.556   6.491  1.2712  2.3954 -0.9305
  541MOL0     H74602   6.699   1.622   6.634  2.0234 -1.5681 -0.8708
  541MOL0     H74603   6.539   1.453   6.426  0.2081  0.9201 -0.4063
  541MOL0     H74604   6.474   1.529   6.571 -0.0266  0.7186 -0.6298
  541MOL0     H74605   6.611   1.345   6.706 -0.4035  1.4196  0.4935
  541MOL0     H74606   6.510   1.286   6.572 -0.7506  1.0848 -0.0009
  541MOL0     H74607   6.894   1.333   6.668  0.1748  0.6602  0.6736
  541MOL0     H74608   7.084   1.105   6.452  2.4123  0.2591  0.8842
  541MOL0     H74609   7.105   1.234   6.570 -2.3399  1.3936  0.3849
  541MOL0     H74610   7.233   1.250   6.341 -1.5875 -4.8726 -2.0411
  541MOL0     H74611   7.076   1.288   6.271 -1.5463  1.5890  0.8621
  541MOL0     H74612   7.140   1.460   6.503 -2.0399  0.9153 -1.2599
  541MOL0     H74613   7.260   1.469   6.369 -0.2103  2.8367 -1.7905
  541MOL0     H74614   7.076   1.515   6.207  0.7019 -2.1665 -0.4435
  541MOL0     H74615   6.956   1.507   6.328  0.5066 -0.3923  1.8115
  541MOL0     H74616   7.198   1.821   6.519 -1.2556 -1.4386 -0.8956
  541MOL0     H74617   7.472   2.041   6.525  3.0457 -0.0882  3.0446
  541MOL0     H74618   7.527   1.889   6.589 -0.7036 -0.3314 -0.0449
  541MOL0     H74619   7.369   1.938   6.617  1.8055 -1.4843  1.3430
  541MOL0     H74620   7.828   1.801   6.012  2.1268 -0.8965 -0.6700
  541MOL0     H74621   8.006   1.942   5.906 -2.5620  0.6968 -1.5753
  541MOL0     H74622   8.198   2.163   6.036 -0.1986  0.1369  0.4223
  541MOL0     H74623   8.187   2.091   5.867 -2.0735  0.6693 -2.2359
  541MOL0     H74624   8.221   2.379   5.928  0.1553  0.3169  0.2976
  541MOL0     H74625   8.353   2.262   5.892 -0.1382 -2.5205 -0.4995
  541MOL0     H74626   8.118   2.352   5.705  0.5307  0.3618 -3.2863
  541MOL0     H74627   8.235   2.221   5.683  0.9764 -1.6110  2.7638
  541MOL0     H74628   8.414   2.380   5.699  0.7356 -1.5309 -1.2426
  541MOL0     H74629   8.295   2.518   5.745 -1.7571  0.4856 -2.1471
  541MOL0     H74630   8.355   2.374   5.489 -2.7043  2.0307 -3.9016
  541MOL0     H74631   8.220   2.481   5.509 -1.0887  0.7206  2.2847
  541MOL0     H74632   8.521   2.543   5.542 -0.0797 -0.4255  1.0197
  541MOL0     H74633   8.395   2.670   5.558  3.0439  1.3106 -1.3880
  541MOL0     H74634   8.332   2.637   5.323 -1.2830 -1.1670  0.7913
  541MOL0     H74635   8.448   2.501   5.305 -0.4680  0.2525 -1.0917
  541MOL0     H74636   8.527   2.787   5.385  1.8616 -0.0866 -0.0167
  541MOL0     H74637   8.516   2.722   5.215 -0.6956 -4.6177 -0.9164
  541MOL0     H74638   7.841   2.282   6.105 -1.0167 -0.3959 -2.2521
  541MOL0     H74639   7.691   2.119   6.237 -0.7896 -1.4078  0.0349
  541MOL0     H74640   7.458   1.737   6.110 -1.1853 -0.4182 -0.2586
  541MOL0     H74641   7.257   1.622   6.141 -1.6519  0.5554  0.6919
  541MOL0     H74642   7.217   2.145   6.846  0.2853  0.0987 -0.3353
  541MOL0     H74643   7.420   2.295   6.808  0.2497  3.3174 -0.8910
  541MOL0     H74644   7.777   2.365   6.300  1.5548 -0.3607  0.1831
  541MOL0     H74645   7.961   2.498   6.262 -0.5440  0.7595 -0.4896
  541MOL0     H74646   8.113   2.743   6.603  3.1473  0.2199  0.4866
  541MOL0     H74647   8.173   2.590   6.557 -1.1474 -1.2562 -0.8899
  541MOL0     H74648   8.341   2.777   6.551 -0.5782  2.9498 -0.6388
  541MOL0     H74649   8.254   2.853   6.429 -1.8429  0.0118  0.9297
  541MOL0     H74650   8.341   2.560   6.374  0.2618 -0.1126 -0.1569
  541MOL0     H74651   8.299   2.689   6.256 -0.0145  1.9379  0.7531
  541MOL0     H74652   8.545   2.708   6.435 -0.0506 -0.5597  0.2597
  541MOL0     H74653   8.488   2.826   6.309 -0.6634  1.2065  2.3331
  541MOL0     H74654   8.657   2.490   6.105 -0.9033  0.1283 -0.0305
  541MOL0     H74655   7.881   2.740   6.608 -1.7072  1.0782 -0.1722
  541MOL0     H74656   7.625   2.542   6.757 -0.6074  1.0783  1.0121
  541MOL0     H74657   7.697   2.699   6.749  0.7810  0.7644 -1.9529
  541MOL0     H74658   7.573   2.671   6.641 -0.2807  1.2882  0.6585
  542MOL0     O74659   9.905   0.193   5.632 -0.1483  0.0749 -0.1176
  542MOL0     C74660   9.850   0.174   5.738  0.3163 -0.7888 -0.0032
  542MOL0     O74661   9.903   0.199   5.868  0.5330 -0.2461  0.4530
  542MOL0     C74662  10.018   0.268   5.884 -0.0030  0.0586 -0.5548
  542MOL0     C74663  10.017   0.383   5.962 -0.7697 -0.9125 -0.1691
  542MOL0     C74664  10.133   0.453   5.994 -0.1698 -0.4461  0.0404
  542MOL0     C74665  10.256   0.417   5.931  0.0641  0.2657 -0.4804
  542MOL0     O74666  10.359   0.506   5.946 -0.8744 -0.4513 -0.1785
  542MOL0     C74667  10.479   0.500   5.865 -0.1517  0.5625  0.6841
  542MOL0     C74668  10.581   0.613   5.885  0.1981  0.7072 -0.0173
  542MOL0     C74669  10.694   0.585   5.788 -0.0760  0.2604 -0.5827
  542MOL0     C74670  10.816   0.674   5.808  0.4338  0.3158  0.2524
  542MOL0     C74671  10.931   0.609   5.738 -0.8139 -0.3373  0.1655
  542MOL0     C74672  10.925   0.591   5.585 -0.1092  0.7576 -0.0000
  542MOL0     C74673  11.059   0.555   5.518 -0.7775 -0.1697 -0.6855
  542MOL0     C74674  11.109   0.427   5.579 -0.2052 -0.1870 -0.2252
  542MOL0     N74675  11.242   0.396   5.519  0.2566  0.6357  0.4748
  542MOL0     C74676  11.276   0.269   5.472 -0.3363  1.2922 -0.3802
  542MOL0     C74677  11.405   0.282   5.433  1.6893 -0.7422  0.2670
  542MOL0     C74678  11.480   0.176   5.360 -0.7415  1.0906 -0.0911
  542MOL0     C74679  11.490   0.042   5.433  0.6372  0.0670  0.8192
  542MOL0     C74680  11.566  -0.066   5.360 -0.5141  0.2795 -0.0764
  542MOL0     C74681  11.714  -0.069   5.399 -0.2816 -0.0816  0.5749
  542MOL0     O74682  11.792   0.030   5.326  0.1481 -0.7635 -0.6422
  542MOL0     C74683  11.926   0.056   5.348  0.2895  0.4854  0.5525
  542MOL0     C74684  11.976   0.179   5.318  0.8391  0.0250  0.7985
  542MOL0     C74685  12.110   0.210   5.337  0.0463 -0.7405  0.4436
  542MOL0     C74686  12.155   0.352   5.314 -0.2193 -0.8037  0.4779
  542MOL0     C74687  12.197   0.114   5.395  0.3736 -0.4129 -0.7487
  542MOL0     C74688  12.344   0.142   5.417 -0.2812 -0.6801 -0.2247
  542MOL0     O74689  12.401   0.059   5.504  0.1085  0.9551  0.6515
  542MOL0     C74690  12.537   0.082   5.539  0.1022  0.1908 -0.3557
  542MOL0     C74691  12.645   0.111   5.455 -0.5205  1.4831  0.2564
  542MOL0     C74692  12.758   0.167   5.511  0.3142  0.4498  0.0520
  542MOL0     C74693  12.782   0.170   5.652 -0.7395 -0.0212 -0.8316
  542MOL0     O74694  12.897   0.232   5.703 -0.3627 -0.4896 -0.1610
  542MOL0     C74695  12.941   0.219   5.837  0.4111 -0.1640  0.5844
  542MOL0     C74696  13.064   0.305   5.867  0.0969  0.3811  0.3257
  542MOL0     C74697  13.034   0.455   5.877  0.1865 -0.4899  0.1355
  542MOL0     C74698  13.151   0.553   5.887  0.8728  0.4982  0.0808
  542MOL0     C74699  13.113   0.701   5.872  0.9249 -1.1500 -0.4420
  542MOL0     C74700  13.244   0.783   5.856 -0.1692 -0.2380  0.2442
  542MOL0     C74701  13.218   0.938   5.841  0.0346  0.5215  0.8360
  542MOL0     C74702  13.340   1.014   5.891  0.0504  0.2966 -0.5156
  542MOL0    Cl74703  13.493   0.961   5.822  0.0066 -0.3726 -0.1015
  542MOL0     C74704  12.671   0.140   5.729 -0.4170  0.4253 -0.4980
  542MOL0     C74705  12.553   0.084   5.675 -0.2815  0.4836  0.6763
  542MOL0     O74706  12.397   0.244   5.377 -0.0576  0.0538  0.2156
  542MOL0     C74707  12.139  -0.015   5.435  0.1150  0.2288 -0.0259
  542MOL0     C74708  12.004  -0.036   5.423 -0.3843 -0.7607 -0.1895
  542MOL0     N74709  11.454   0.409   5.466  0.0073  0.0879 -0.5015
  542MOL0     N74710  11.358   0.479   5.516 -0.3915 -0.8005 -0.7320
  542MOL0     C74711  10.249   0.317   5.833  0.0069  0.0902 -0.5029
  542MOL0     C74712  10.139   0.236   5.820 -0.0408 -0.0445  0.3960
  542MOL0     C74713   9.717   0.099   5.735  0.8997 -0.2086 -0.0213
  542MOL0     C74714   9.678   0.045   5.612 -0.5251  0.1234  0.3135
  542MOL0     C74715   9.552  -0.019   5.597  1.3555  0.5682 -0.5334
  542MOL0     C74716   9.459  -0.025   5.704  0.2929  0.1810  0.0288
  542MOL0     O74717   9.329  -0.070   5.679  0.7495  0.7289 -0.6132
  542MOL0     C74718   9.231  -0.078   5.784 -0.8526  0.2826  0.1712
  542MOL0     C74719   9.162   0.058   5.807 -0.6656 -0.4644  0.1654
  542MOL0     C74720   9.133   0.063   5.952 -0.3672 -0.2566  0.3269
  542MOL0     C74721   9.030   0.175   5.977  0.6564 -0.1120  0.3275
  542MOL0     C74722   8.959   0.144   6.100  0.3819 -0.3098  0.1302
  542MOL0     C74723   8.879   0.100   6.184 -0.6632  0.1937 -0.9140
  542MOL0     C74724   9.500   0.038   5.823 -0.7207 -0.2456 -0.2419
  542MOL0     C74725   9.626   0.099   5.842 -0.2442  0.2445 -0.7860
  542MOL0     C74726   9.644   0.175   5.978  0.3072  0.2482 -0.3824
  542MOL0     H74727   9.932   0.424   6.016 -0.5061  0.4229 -0.7196
  542MOL0     H74728  10.127   0.530   6.070  2.0366 -1.3254  1.1977
  542MOL0     H74729  10.460   0.499   5.757 -2.0952 -1.4235  0.9638
  542MOL0     H74730  10.534   0.408   5.889 -0.2012  0.3717  0.0913
  542MOL0     H74731  10.540   0.712   5.862  1.8484  1.4379 -0.0019
  542MOL0     H74732  10.619   0.589   5.984  1.2277 -1.5085 -0.8877
  542MOL0     H74733  10.719   0.479   5.795 -4.4616 -1.1019 -2.2067
  542MOL0     H74734  10.652   0.602   5.688 -1.6595  0.8161  0.1414
  542MOL0     H74735  10.782   0.769   5.764 -2.6663 -2.2884 -3.8286
  542MOL0     H74736  10.833   0.687   5.915 -1.4952 -2.2538  0.9643
  542MOL0     H74737  10.949   0.507   5.772  0.8344 -1.1329 -2.7237
  542MOL0     H74738  11.021   0.667   5.763 -3.3321  2.3879  3.9979
  542MOL0     H74739  10.855   0.512   5.558  0.7097 -0.1869  0.5350
  542MOL0     H74740  10.886   0.683   5.540  0.0611  0.0952 -1.5518
  542MOL0     H74741  11.136   0.630   5.543 -0.5627 -0.0040 -1.8017
  542MOL0     H74742  11.044   0.548   5.410 -2.7453  0.2792 -0.4805
  542MOL0     H74743  11.119   0.432   5.688 -0.2988 -0.7949 -0.1857
  542MOL0     H74744  11.045   0.339   5.574 -1.2539  0.1098  4.2691
  542MOL0     H74745  11.205   0.188   5.458  0.1845  0.0469  3.2911
  542MOL0     H74746  11.581   0.214   5.343  0.6362 -1.4497  1.7489
  542MOL0     H74747  11.430   0.157   5.264  1.9937 -1.8013 -1.1028
  542MOL0     H74748  11.531   0.052   5.534  2.2176 -0.1103  0.2228
  542MOL0     H74749  11.390   0.002   5.450  1.8907 -3.9193 -0.1891
  542MOL0     H74750  11.527  -0.162   5.393  0.7702 -0.1624  0.2102
  542MOL0     H74751  11.554  -0.066   5.251  1.3265 -4.2155 -0.4845
  542MOL0     H74752  11.718  -0.045   5.506  0.7666  0.9872  0.3314
  542MOL0     H74753  11.768  -0.162   5.381  0.2798  0.1092  1.2258
  542MOL0     H74754  11.914   0.247   5.261 -0.1498 -0.9499  0.6701
  542MOL0     H74755  12.239   0.352   5.244  1.7091  0.3304  2.6634
  542MOL0     H74756  12.192   0.395   5.408  1.0608 -3.8313  1.5018
  542MOL0     H74757  12.075   0.415   5.274 -0.0766  1.1654  3.0084
  542MOL0     H74758  12.624   0.120   5.349  1.1003  3.1295  0.0243
  542MOL0     H74759  12.828   0.203   5.437 -1.4359  0.8792 -1.4640
  542MOL0     H74760  12.861   0.249   5.905  0.8595 -2.0284  2.0404
  542MOL0     H74761  12.967   0.112   5.844  2.4387  0.1081 -1.5586
  542MOL0     H74762  13.110   0.287   5.964  0.2565  1.0998  0.3899
  542MOL0     H74763  13.140   0.285   5.791 -0.9979  1.8163 -1.2390
  542MOL0     H74764  12.957   0.469   5.953 -0.9705  2.8911 -1.4358
  542MOL0     H74765  12.988   0.484   5.782 -0.2696  0.3939  0.6122
  542MOL0     H74766  13.222   0.524   5.808  0.0977  0.3325 -0.5625
  542MOL0     H74767  13.206   0.537   5.980  2.3572 -0.4310 -0.9085
  542MOL0     H74768  13.050   0.723   5.786  0.1758  3.0356  0.9608
  542MOL0     H74769  13.057   0.726   5.963 -0.2879 -2.5018 -0.7941
  542MOL0     H74770  13.286   0.744   5.763 -0.0605  1.3967 -0.4320
  542MOL0     H74771  13.314   0.760   5.937  0.9213  0.0286 -0.5973
  542MOL0     H74772  13.128   0.968   5.896  1.7393 -0.6016  4.6418
  542MOL0     H74773  13.196   0.955   5.735 -1.7124 -2.5458  0.5849
  542MOL0     H74774  13.352   0.995   5.998 -1.7125 -2.0367 -0.6498
  542MOL0     H74775  13.313   1.119   5.881 -0.0868  0.4786  1.3455
  542MOL0     H74776  12.671   0.152   5.837  0.8349  4.6756 -0.7856
  542MOL0     H74777  12.475   0.055   5.745 -1.2060  0.5331 -0.3039
  542MOL0     H74778  12.192  -0.095   5.487  0.9016 -0.0224 -1.1871
  542MOL0     H74779  11.962  -0.133   5.449 -1.6049 -0.1694  0.1126
  542MOL0     H74780  10.338   0.294   5.774 -0.1116 -3.7490  0.5862
  542MOL0     H74781  10.138   0.160   5.743 -1.1126  3.6384 -3.6891
  542MOL0     H74782   9.744   0.049   5.526  0.8940  0.5923  1.3831
  542MOL0     H74783   9.523  -0.052   5.498  1.3007  2.4370 -1.1798
  542MOL0     H74784   9.166  -0.160   5.751  0.8527 -1.3902  0.7456
  542MOL0     H74785   9.279  -0.123   5.872  0.7056  2.0251  0.2746
  542MOL0     H74786   9.068   0.066   5.751 -0.2297  3.3550 -0.3286
  542MOL0     H74787   9.228   0.143   5.786 -0.6035 -0.5117  0.1705
  542MOL0     H74788   9.096  -0.036   5.982  0.7170 -1.0418 -0.7943
  542MOL0     H74789   9.224   0.077   6.010 -0.4958 -3.1683  1.4249
  542MOL0     H74790   8.955   0.181   5.898 -1.7417  1.0097  2.5575
  542MOL0     H74791   9.079   0.272   5.988  0.1024  0.4806 -1.9285
  542MOL0     H74792   8.811   0.048   6.248 -0.6789  2.5023  1.1047
  542MOL0     H74793   9.429   0.036   5.904  1.0515 -1.3820  1.3741
  542MOL0     H74794   9.715   0.126   6.045 -0.2202 -0.4090 -0.2855
  542MOL0     H74795   9.677   0.278   5.962 -0.0197  0.5565  0.8220
  542MOL0     H74796   9.551   0.190   6.034  1.6446  1.5038  1.5966
  543MOL0     O74797   8.191   3.127   3.437 -0.1288 -0.5253 -0.0054
  543MOL0     C74798   8.239   3.143   3.549 -1.0760  0.6060  0.0566
  543MOL0     O74799   8.209   3.072   3.661 -0.0929  0.9292  0.0845
  543MOL0     C74800   8.108   2.983   3.650 -1.0987  0.2361 -0.1422
  543MOL0     C74801   7.982   3.016   3.699  0.1178  0.3058  0.1208
  543MOL0     C74802   7.876   2.919   3.687 -0.8295 -0.3417 -0.1332
  543MOL0     C74803   7.902   2.799   3.629  0.2517  1.1326  0.8580
  543MOL0     O74804   7.791   2.708   3.606 -0.6516 -0.0496 -0.5539
  543MOL0     C74805   7.824   2.567   3.605  0.6214 -0.5740  0.0099
  543MOL0     C74806   7.890   2.517   3.733 -0.3732 -0.0674 -0.8638
  543MOL0     C74807   7.797   2.534   3.863 -0.7355  0.0545 -0.2761
  543MOL0     C74808   7.718   2.406   3.880 -1.3759  0.4360 -0.2210
  543MOL0     C74809   7.629   2.404   4.008 -0.3135 -0.5151  0.2931
  543MOL0     C74810   7.571   2.258   4.020  0.3704  0.2479 -0.4047
  543MOL0     C74811   7.469   2.249   4.139  0.7143 -0.8304 -0.4610
  543MOL0     C74812   7.529   2.236   4.272  0.3343  0.0276 -0.2049
  543MOL0     N74813   7.613   2.120   4.305 -0.2599  0.4834 -0.0554
  543MOL0     C74814   7.741   2.119   4.352  1.0207  0.0316 -0.9100
  543MOL0     C74815   7.775   1.993   4.345 -0.6036 -0.1104  0.1476
  543MOL0     C74816   7.913   1.930   4.379  0.1356 -0.1064 -0.1071
  543MOL0     C74817   8.035   2.006   4.326  0.4232  0.1114 -0.3238
  543MOL0     C74818   8.015   2.047   4.174 -0.0098  0.0384  0.1010
  543MOL0     C74819   8.150   2.103   4.118 -0.0255  0.7231  0.6048
  543MOL0     O74820   8.226   1.981   4.089 -0.2009 -0.1097 -0.0940
  543MOL0     C74821   8.348   1.996   4.031 -0.8684 -0.0824  0.5216
  543MOL0     C74822   8.405   1.882   3.977 -0.5489 -0.0309 -0.6395
  543MOL0     C74823   8.534   1.890   3.916  0.3973 -0.4642 -0.4823
  543MOL0     C74824   8.590   1.762   3.881 -0.4971  1.2962 -0.7119
  543MOL0     C74825   8.605   2.009   3.904 -0.2713  0.1126  1.0333
  543MOL0     C74826   8.733   2.032   3.826  0.3103  0.8053 -0.7277
  543MOL0     O74827   8.810   2.137   3.865  0.1599 -0.3339 -0.0773
  543MOL0     C74828   8.938   2.159   3.808  0.2300 -0.2234  0.3207
  543MOL0     C74829   8.957   2.264   3.712  0.3053  0.4390 -0.2371
  543MOL0     C74830   9.085   2.279   3.650 -0.1178  0.2291  0.6016
  543MOL0     C74831   9.188   2.188   3.666 -0.3115  0.2499 -0.1492
  543MOL0     O74832   9.306   2.222   3.598  0.5181  0.4322  0.8293
  543MOL0     C74833   9.425   2.141   3.624 -0.6683 -0.0866  0.1013
  543MOL0     C74834   9.556   2.200   3.562 -0.0531  0.3085 -0.5364
  543MOL0     C74835   9.593   2.336   3.631  0.5945  0.3035  0.1019
  543MOL0     C74836   9.690   2.423   3.550 -0.1109  0.1494 -0.7232
  543MOL0     C74837   9.827   2.371   3.562 -0.3084  0.4519 -1.1066
  543MOL0     C74838   9.915   2.448   3.475 -0.1461 -0.1861 -0.0982
  543MOL0     C74839  10.062   2.409   3.494 -0.9256  0.3946 -0.2141
  543MOL0     C74840  10.117   2.427   3.639  0.7355 -0.0468  0.7599
  543MOL0    Cl74841  10.113   2.603   3.668  0.0814  0.5253 -0.1540
  543MOL0     C74842   9.162   2.083   3.763 -0.4095  1.1101 -0.0576
  543MOL0     C74843   9.040   2.069   3.823 -0.4598 -0.4214  0.8175
  543MOL0     O74844   8.761   1.963   3.733  0.2966 -0.3189 -0.4750
  543MOL0     C74845   8.544   2.129   3.958 -0.1602  0.2650 -0.2175
  543MOL0     C74846   8.420   2.118   4.020 -0.6054  0.5132  0.8979
  543MOL0     N74847   7.672   1.911   4.317  1.0744 -0.1240  0.6822
  543MOL0     N74848   7.567   1.990   4.286 -0.7614  0.6843  0.3301
  543MOL0     C74849   8.033   2.766   3.577  0.5874  0.2851  0.2251
  543MOL0     C74850   8.130   2.861   3.585 -0.9645  0.1333 -0.5510
  543MOL0     C74851   8.335   3.253   3.574  0.3400 -0.6098  1.0446
  543MOL0     C74852   8.445   3.229   3.662  0.3450  0.8142 -0.2466
  543MOL0     C74853   8.524   3.328   3.707 -0.4181 -0.1116  0.1712
  543MOL0     C74854   8.515   3.452   3.659 -0.0754 -0.6706 -0.1413
  543MOL0     O74855   8.597   3.553   3.713  0.0026 -0.5001  0.3112
  543MOL0     C74856   8.655   3.647   3.621  0.8834  0.8408  0.7264
  543MOL0     C74857   8.776   3.718   3.679  0.8488  0.2701  0.5648
  543MOL0     C74858   8.828   3.820   3.583  0.6847  0.3476 -0.1488
  543MOL0     C74859   8.978   3.853   3.596  1.4173 -0.5320  1.1857
  543MOL0     C74860   9.053   3.748   3.535  0.1325  0.1850 -1.0058
  543MOL0     C74861   9.122   3.671   3.476  0.1089 -0.5539  0.2333
  543MOL0     C74862   8.424   3.473   3.558  0.7323  0.0245  0.4003
  543MOL0     C74863   8.325   3.378   3.512  0.2823 -0.7884  0.0950
  543MOL0     C74864   8.243   3.407   3.389 -0.2741  0.4573  0.3024
  543MOL0     H74865   7.952   3.116   3.728 -4.2831 -1.1329  1.3385
  543MOL0     H74866   7.781   2.949   3.731 -0.4170  0.0030  0.5408
  543MOL0     H74867   7.875   2.548   3.510 -4.5376  0.9306 -3.4812
  543MOL0     H74868   7.728   2.517   3.586 -0.5026  2.2958 -2.8646
  543MOL0     H74869   7.913   2.411   3.717 -1.3241 -0.6863  1.4667
  543MOL0     H74870   7.991   2.555   3.753 -1.0974  1.9411 -0.8221
  543MOL0     H74871   7.858   2.555   3.952  0.1885 -0.1338 -0.8463
  543MOL0     H74872   7.730   2.620   3.856  0.1323  0.6927 -0.9031
  543MOL0     H74873   7.659   2.398   3.789 -1.2303  0.5624 -0.3271
  543MOL0     H74874   7.792   2.326   3.892  0.7553  2.5360  2.0212
  543MOL0     H74875   7.547   2.476   4.004 -1.0036 -1.3607 -1.8295
  543MOL0     H74876   7.685   2.424   4.100 -0.4186 -0.1309  0.2740
  543MOL0     H74877   7.515   2.243   3.928  2.1821  0.5757 -1.6250
  543MOL0     H74878   7.650   2.183   4.021 -0.4903 -0.9141 -4.4264
  543MOL0     H74879   7.398   2.170   4.112  0.4295  0.2205 -3.1736
  543MOL0     H74880   7.414   2.343   4.149 -2.1273 -2.2531 -1.7021
  543MOL0     H74881   7.588   2.326   4.291 -0.3028  0.9930 -2.4197
  543MOL0     H74882   7.445   2.238   4.342  0.5406 -0.9972  0.0813
  543MOL0     H74883   7.805   2.200   4.386  0.0972 -0.3128  1.8498
  543MOL0     H74884   7.922   1.825   4.351  1.6937  0.2199 -0.9342
  543MOL0     H74885   7.917   1.937   4.488  0.5113 -3.0339  0.1448
  543MOL0     H74886   8.050   2.102   4.376 -1.2414  1.2315 -1.8471
  543MOL0     H74887   8.122   1.940   4.326  0.3028 -0.4414 -5.5907
  543MOL0     H74888   7.985   1.965   4.108 -3.3163 -0.3543  1.8873
  543MOL0     H74889   7.940   2.126   4.170 -0.8215 -0.7217  0.0473
  543MOL0     H74890   8.119   2.174   4.041 -0.5659  0.1701  0.2967
  543MOL0     H74891   8.206   2.160   4.193  0.1402  3.3703 -1.3920
  543MOL0     H74892   8.358   1.785   3.996  2.9793 -1.8560 -0.4209
  543MOL0     H74893   8.559   1.709   3.791 -1.2513  0.5524 -0.0296
  543MOL0     H74894   8.579   1.696   3.967  1.2609  0.8911 -0.7454
  543MOL0     H74895   8.699   1.777   3.874 -0.0741  2.8632  4.7115
  543MOL0     H74896   8.879   2.335   3.686  1.1324  2.1001  1.5928
  543MOL0     H74897   9.100   2.352   3.571 -0.2034 -0.9402 -0.5319
  543MOL0     H74898   9.435   2.119   3.730  2.5352  0.5245  0.0164
  543MOL0     H74899   9.418   2.043   3.576 -0.8397 -1.0854  2.0638
  543MOL0     H74900   9.638   2.131   3.582 -0.0796  0.8409  1.6480
  543MOL0     H74901   9.533   2.213   3.455 -0.3183  0.8856 -0.4133
  543MOL0     H74902   9.638   2.319   3.729  0.7220  1.0237  0.1785
  543MOL0     H74903   9.498   2.388   3.641  0.4929  0.3326 -0.8913
  543MOL0     H74904   9.674   2.522   3.593  0.5211 -0.2305  0.4401
  543MOL0     H74905   9.659   2.431   3.445  2.8872 -0.7244 -1.7951
  543MOL0     H74906   9.859   2.380   3.666 -0.5110 -3.8546 -0.4983
  543MOL0     H74907   9.825   2.265   3.537  0.5177 -0.0375  0.7924
  543MOL0     H74908   9.899   2.556   3.480 -1.0774 -0.2637 -1.1135
  543MOL0     H74909   9.888   2.432   3.371  0.6586 -0.7410 -0.2285
  543MOL0     H74910  10.130   2.465   3.429  0.5394 -4.3228 -3.2423
  543MOL0     H74911  10.074   2.306   3.459 -0.3292  0.3277  0.1777
  543MOL0     H74912  10.223   2.401   3.634  0.3939 -1.2520 -1.2145
  543MOL0     H74913  10.068   2.373   3.721  5.2788 -1.0525  3.0931
  543MOL0     H74914   9.228   1.997   3.774  0.5757  1.7779 -0.6273
  543MOL0     H74915   9.027   1.989   3.896  2.7797 -0.3651  1.6435
  543MOL0     H74916   8.592   2.226   3.947 -0.6819  0.5972  0.4002
  543MOL0     H74917   8.376   2.210   4.059 -0.1043  0.5251  1.4569
  543MOL0     H74918   8.061   2.674   3.527  0.0173 -0.0127  0.4395
  543MOL0     H74919   8.225   2.836   3.539 -1.4923 -1.6106 -0.7673
  543MOL0     H74920   8.457   3.130   3.705 -1.9179  0.1783 -0.9296
  543MOL0     H74921   8.596   3.312   3.787  0.2498  2.3101  0.1330
  543MOL0     H74922   8.696   3.591   3.536 -1.9966  0.4965 -0.5647
  543MOL0     H74923   8.574   3.715   3.592 -2.9131 -3.4945 -0.1116
  543MOL0     H74924   8.855   3.643   3.686  0.1957 -0.6220 -1.0249
  543MOL0     H74925   8.744   3.763   3.774  0.1904 -0.9463  0.9392
  543MOL0     H74926   8.811   3.799   3.477 -2.7924 -1.0740  0.5530
  543MOL0     H74927   8.770   3.910   3.606  0.5825  0.3539 -0.4243
  543MOL0     H74928   9.008   3.879   3.698  2.0793 -1.9792  1.3966
  543MOL0     H74929   8.993   3.947   3.542 -1.9205 -0.3699  0.2976
  543MOL0     H74930   9.188   3.598   3.432  0.8548 -0.7733  1.6691
  543MOL0     H74931   8.413   3.575   3.524 -3.1233 -0.0581  1.0053
  543MOL0     H74932   8.291   3.358   3.304  1.3817  0.0728  1.3988
  543MOL0     H74933   8.141   3.370   3.396 -0.1800  0.0923 -0.1892
  543MOL0     H74934   8.222   3.511   3.361  0.4396  0.4243 -0.3982
  544MOL0     O74935   1.315   0.744   9.105 -0.2947 -0.2567 -0.1115
  544MOL0     C74936   1.268   0.844   9.055 -0.8183 -0.0257 -0.3401
  544MOL0     O74937   1.347   0.951   9.028  0.5523  0.4520 -0.5603
  544MOL0     C74938   1.482   0.928   9.011 -0.6813 -0.4442 -0.4996
  544MOL0     C74939   1.530   0.835   8.926 -0.2671 -0.2571  0.2374
  544MOL0     C74940   1.665   0.795   8.914 -0.2849 -0.2690  0.6403
  544MOL0     C74941   1.764   0.858   8.978  0.1353 -0.6813  0.1842
  544MOL0     O74942   1.895   0.816   8.963 -0.1168 -0.0576 -0.5384
  544MOL0     C74943   2.007   0.886   9.026  0.1173  0.1276  0.1888
  544MOL0     C74944   2.125   0.810   8.978  0.4982 -0.2605 -0.1901
  544MOL0     C74945   2.249   0.886   9.016 -0.3094 -0.5533 -0.2258
  544MOL0     C74946   2.373   0.852   8.925 -0.2103  0.2611  0.4459
  544MOL0     C74947   2.485   0.953   8.970 -0.3439 -0.1936  0.5384
  544MOL0     C74948   2.608   0.940   8.878 -0.9337 -0.4403  0.3383
  544MOL0     C74949   2.716   1.050   8.891  0.1425  0.6886 -0.2580
  544MOL0     C74950   2.836   1.025   8.798 -0.4406  0.2710  0.0129
  544MOL0     N74951   2.931   0.923   8.849  0.1109 -0.3023 -0.5705
  544MOL0     C74952   3.035   0.944   8.934 -0.1415  0.0380  0.1799
  544MOL0     C74953   3.102   0.825   8.944 -0.2761 -0.0738 -0.4114
  544MOL0     C74954   3.235   0.803   9.009  0.7654 -0.9723  0.3562
  544MOL0     C74955   3.335   0.732   8.915  0.8870 -0.1827 -0.2508
  544MOL0     C74956   3.478   0.762   8.971 -0.2558  0.2694  0.4960
  544MOL0     C74957   3.567   0.657   8.918  0.0850 -0.6051 -0.0492
  544MOL0     O74958   3.694   0.715   8.902  0.1022 -0.0717 -0.5992
  544MOL0     C74959   3.808   0.631   8.913  0.6276 -0.5695 -0.5797
  544MOL0     C74960   3.903   0.636   8.807  0.3715  0.5850  0.9123
  544MOL0     C74961   4.026   0.559   8.825 -0.0941 -1.0092 -0.7638
  544MOL0     C74962   4.119   0.565   8.708  0.7126 -0.2370 -0.1746
  544MOL0     C74963   4.054   0.481   8.940  1.3234  0.3399  0.2179
  544MOL0     C74964   4.177   0.399   8.958  1.1185 -0.1550 -0.2676
  544MOL0     O74965   4.162   0.291   9.045  0.7169 -0.2661 -0.1031
  544MOL0     C74966   4.276   0.221   9.077 -0.2820 -0.1793 -0.4815
  544MOL0     C74967   4.335   0.242   9.200  0.1615  0.1648  0.3339
  544MOL0     C74968   4.442   0.164   9.242 -0.3774 -0.3232 -0.4198
  544MOL0     C74969   4.490   0.064   9.155 -0.5158 -0.7944  0.2701
  544MOL0     O74970   4.598  -0.012   9.199  0.4377 -0.3873  0.2567
  544MOL0     C74971   4.623  -0.019   9.335  0.0257 -0.1547 -0.4175
  544MOL0     C74972   4.707  -0.147   9.359  0.1131 -0.7246 -0.6457
  544MOL0     C74973   4.643  -0.274   9.290 -0.6279  0.2448  0.4039
  544MOL0     C74974   4.649  -0.301   9.136 -1.4008 -0.2377 -0.6273
  544MOL0     C74975   4.630  -0.445   9.087  0.4743 -0.3151  0.0987
  544MOL0     C74976   4.487  -0.494   9.129 -0.5004 -0.1720 -0.3980
  544MOL0     C74977   4.443  -0.639   9.085 -0.2272  0.0980  0.7168
  544MOL0     C74978   4.293  -0.666   9.103  0.1018 -0.1101  0.2102
  544MOL0    Cl74979   4.246  -0.819   9.033  0.1892  0.1040 -0.5371
  544MOL0     C74980   4.431   0.039   9.034 -0.4020 -0.4316  0.4845
  544MOL0     C74981   4.330   0.124   8.990  0.4436  0.2476  0.5035
  544MOL0     O74982   4.283   0.426   8.898  0.9537  0.4953 -0.3499
  544MOL0     C74983   3.946   0.476   9.033  0.2484  0.2194  0.0921
  544MOL0     C74984   3.833   0.553   9.026 -0.4651 -0.2402  0.3937
  544MOL0     N74985   3.038   0.737   8.857 -0.6499 -0.1189 -0.3522
  544MOL0     N74986   2.933   0.793   8.801 -0.1264  0.1090  0.3075
  544MOL0     C74987   1.717   0.962   9.070  0.5516  0.2886  0.7396
  544MOL0     C74988   1.584   0.995   9.081  0.6851  0.5947 -0.7158
  544MOL0     C74989   1.122   0.841   9.005  0.1058 -0.3342  0.3345
  544MOL0     C74990   1.083   0.889   8.878 -0.0808 -0.9192  0.0522
  544MOL0     C74991   0.956   0.897   8.824 -0.0714 -0.7813 -0.4520
  544MOL0     C74992   0.853   0.841   8.899  0.1069 -0.0132 -0.3731
  544MOL0     O74993   0.733   0.867   8.835  0.3937  0.0644 -0.3746
  544MOL0     C74994   0.610   0.883   8.907 -0.0326  0.6413  0.2942
  544MOL0     C74995   0.520   0.761   8.863  0.5848  0.2817  0.1274
  544MOL0     C74996   0.371   0.773   8.920 -0.1601  0.1475 -0.8869
  544MOL0     C74997   0.272   0.670   8.861 -0.5247 -0.3555  0.1992
  544MOL0     C74998   0.302   0.529   8.897 -0.3302  1.2372 -0.8362
  544MOL0     C74999   0.336   0.415   8.927 -0.4824 -0.0678 -0.6045
  544MOL0     C75000   0.880   0.780   9.027 -0.4301 -0.2027 -0.5537
  544MOL0     C75001   1.010   0.788   9.081 -0.0736  0.3030 -0.2576
  544MOL0     C75002   1.029   0.731   9.223  0.1928  1.4769  0.3836
  544MOL0     H75003   1.460   0.775   8.869 -1.6179 -1.2561  2.8362
  544MOL0     H75004   1.679   0.707   8.851  2.0321  0.2830  0.3197
  544MOL0     H75005   1.993   0.891   9.135  0.6632  1.2479  0.2191
  544MOL0     H75006   2.002   0.988   8.989 -0.3483 -0.9941 -3.1774
  544MOL0     H75007   2.142   0.710   9.020  2.8412  0.6361  1.1794
  544MOL0     H75008   2.110   0.807   8.870 -2.4940 -2.4529  0.1514
  544MOL0     H75009   2.226   0.993   9.018 -0.6733 -0.6241 -0.4399
  544MOL0     H75010   2.266   0.857   9.120  0.2957  0.0917 -0.1362
  544MOL0     H75011   2.409   0.749   8.915  3.7718  1.3948  1.2613
  544MOL0     H75012   2.351   0.872   8.819  0.0729  1.3923  0.5898
  544MOL0     H75013   2.508   0.928   9.073  0.5601 -2.4838 -0.1691
  544MOL0     H75014   2.452   1.057   8.962  2.2081  0.6304 -0.2106
  544MOL0     H75015   2.669   0.850   8.891  0.1065 -0.1564 -2.0826
  544MOL0     H75016   2.577   0.942   8.773 -2.3398 -2.3702  0.6735
  544MOL0     H75017   2.747   1.079   8.992 -0.2725  2.7547 -0.6665
  544MOL0     H75018   2.669   1.139   8.847  0.8324  0.8239 -0.7511
  544MOL0     H75019   2.806   0.979   8.704  1.9171  1.8439 -1.6250
  544MOL0     H75020   2.885   1.122   8.782  0.1906  0.4729  2.6111
  544MOL0     H75021   3.063   1.035   8.985 -2.3754  1.0066 -0.2528
  544MOL0     H75022   3.228   0.747   9.103  2.5842  0.8513  1.6766
  544MOL0     H75023   3.267   0.899   9.053  0.2274 -1.9464  3.0917
  544MOL0     H75024   3.316   0.624   8.911  1.7029 -0.6589  3.8636
  544MOL0     H75025   3.329   0.774   8.814 -0.8302 -0.1600 -0.1770
  544MOL0     H75026   3.504   0.858   8.926 -0.9251 -0.3249 -1.2165
  544MOL0     H75027   3.488   0.770   9.080  0.3609 -0.9181  0.5508
  544MOL0     H75028   3.569   0.565   8.978 -1.3946 -1.8879 -1.8232
  544MOL0     H75029   3.525   0.615   8.826  1.6640 -2.9267  0.1837
  544MOL0     H75030   3.888   0.695   8.717  2.4093  0.4150  0.4313
  544MOL0     H75031   4.132   0.465   8.667  0.0310 -0.2535 -0.3591
  544MOL0     H75032   4.213   0.609   8.743 -0.4671  0.6949  2.0661
  544MOL0     H75033   4.086   0.620   8.620  1.9752 -1.2240 -1.3072
  544MOL0     H75034   4.290   0.321   9.260  1.0609 -0.1600  1.4482
  544MOL0     H75035   4.477   0.198   9.339 -1.7064  0.4040 -0.1696
  544MOL0     H75036   4.689   0.060   9.372  0.3293 -0.2966 -0.6417
  544MOL0     H75037   4.526  -0.036   9.381  0.6730 -2.8553  0.1476
  544MOL0     H75038   4.803  -0.130   9.309  0.1861 -2.1027 -1.0118
  544MOL0     H75039   4.727  -0.164   9.465  2.3892  1.4203 -0.6252
  544MOL0     H75040   4.542  -0.291   9.328  0.1509 -3.6767  1.1899
  544MOL0     H75041   4.691  -0.358   9.342  0.5771 -0.1303 -1.2383
  544MOL0     H75042   4.750  -0.271   9.109 -1.2103 -0.5697 -0.2996
  544MOL0     H75043   4.575  -0.236   9.089 -1.3155  0.6946  0.4887
  544MOL0     H75044   4.642  -0.448   8.979 -0.6616  1.8246 -0.1422
  544MOL0     H75045   4.714  -0.505   9.123 -0.5352 -3.0100 -1.7615
  544MOL0     H75046   4.408  -0.428   9.092 -1.5696  0.5526  2.8142
  544MOL0     H75047   4.465  -0.495   9.236 -2.2409 -1.1635 -0.7414
  544MOL0     H75048   4.496  -0.715   9.142  1.0802  0.1320 -0.3989
  544MOL0     H75049   4.453  -0.657   8.977 -3.0963  1.8670  0.0347
  544MOL0     H75050   4.237  -0.590   9.047  1.1039  1.3657  1.1372
  544MOL0     H75051   4.269  -0.665   9.209  0.1504 -1.4170  0.2480
  544MOL0     H75052   4.462  -0.045   8.973 -1.9079  0.5622 -1.7774
  544MOL0     H75053   4.296   0.115   8.887  0.8124 -1.5695  0.5079
  544MOL0     H75054   3.948   0.407   9.116 -3.3277  0.8204  0.8252
  544MOL0     H75055   3.758   0.564   9.103 -0.1807  0.1328  0.6229
  544MOL0     H75056   1.789   1.027   9.119 -0.6116  1.6230  0.7469
  544MOL0     H75057   1.552   1.081   9.138 -1.6785 -0.7005  0.0635
  544MOL0     H75058   1.174   0.920   8.827  0.9013 -0.2960  2.0828
  544MOL0     H75059   0.944   0.937   8.724  0.0337  2.2098  0.6223
  544MOL0     H75060   0.611   0.884   9.016 -0.0508  0.4817  0.2957
  544MOL0     H75061   0.570   0.980   8.875  1.7302  0.6656 -2.0844
  544MOL0     H75062   0.574   0.676   8.906  0.4593  0.6134  0.9571
  544MOL0     H75063   0.513   0.750   8.755  1.9038  0.1948  0.0398
  544MOL0     H75064   0.367   0.741   9.025  2.9664  1.4102 -0.2649
  544MOL0     H75065   0.328   0.873   8.926  0.9839  0.6099 -0.0967
  544MOL0     H75066   0.273   0.684   8.752 -2.0864 -1.2961  0.0300
  544MOL0     H75067   0.169   0.693   8.889 -0.0880  0.7344  0.9647
  544MOL0     H75068   0.369   0.316   8.950  0.5616 -0.0578 -1.8797
  544MOL0     H75069   0.814   0.727   9.094  1.5539 -0.5044  1.2513
  544MOL0     H75070   0.933   0.706   9.271 -0.1209 -0.6204 -1.1705
  544MOL0     H75071   1.079   0.634   9.216 -1.6377  0.2316  2.9064
  544MOL0     H75072   1.085   0.793   9.293  2.6775 -0.3505  0.1550
  545MOL0     O75073   1.218   1.462   3.298 -0.0980  0.0402  0.1123
  545MOL0     C75074   1.238   1.337   3.286 -0.1009  0.2461  0.4238
  545MOL0     O75075   1.147   1.244   3.241  0.2363 -0.8680  0.0433
  545MOL0     C75076   1.044   1.293   3.166  1.0124  0.8653 -0.1542
  545MOL0     C75077   1.039   1.400   3.069 -0.1018  0.2666 -0.3313
  545MOL0     C75078   0.925   1.439   2.998 -0.1760  0.6225  0.5492
  545MOL0     C75079   0.804   1.369   3.023 -0.2340 -0.0987 -0.1062
  545MOL0     O75080   0.690   1.408   2.961  0.5290 -0.1359  0.7332
  545MOL0     C75081   0.600   1.297   2.951  0.1150  0.6256 -0.4290
  545MOL0     C75082   0.496   1.320   2.849  0.2851 -0.5026 -0.5499
  545MOL0     C75083   0.564   1.314   2.715 -0.5108  0.5436  0.4617
  545MOL0     C75084   0.459   1.328   2.602 -0.4415  0.5966  0.0568
  545MOL0     C75085   0.517   1.275   2.469  0.1900  0.9560  0.0714
  545MOL0     C75086   0.648   1.346   2.418 -0.5201  0.4615  0.7763
  545MOL0     C75087   0.683   1.261   2.291  0.4575  0.2001 -0.1211
  545MOL0     C75088   0.796   1.321   2.205 -0.0549 -0.0882 -0.5631
  545MOL0     N75089   0.904   1.372   2.291 -0.2068  0.6571 -0.1167
  545MOL0     C75090   0.910   1.503   2.335 -0.4534  0.2219  1.2260
  545MOL0     C75091   1.010   1.510   2.426 -0.3739  0.4989 -1.0053
  545MOL0     C75092   1.074   1.623   2.509  0.0136 -0.2460 -0.4379
  545MOL0     C75093   1.022   1.621   2.657  1.6736  0.0131 -0.4036
  545MOL0     C75094   1.075   1.741   2.741  0.2979 -0.1334  1.1281
  545MOL0     C75095   1.195   1.684   2.821  0.2339  0.4337  0.1866
  545MOL0     O75096   1.255   1.792   2.893 -0.3081 -0.4333  0.2919
  545MOL0     C75097   1.358   1.761   2.981  0.4201  0.0198 -0.6711
  545MOL0     C75098   1.405   1.867   3.044  0.2887 -1.0573  0.3719
  545MOL0     C75099   1.523   1.868   3.126 -0.2387  0.1264  0.2268
  545MOL0     C75100   1.571   1.999   3.185 -0.0707 -0.8714  0.3609
  545MOL0     C75101   1.588   1.744   3.144 -0.5655  0.5138 -0.4020
  545MOL0     C75102   1.716   1.717   3.219  0.9733 -0.1739  0.0921
  545MOL0     O75103   1.789   1.828   3.240 -0.1654 -0.4704 -1.0675
  545MOL0     C75104   1.878   1.835   3.351 -0.2558 -0.2921 -1.0049
  545MOL0     C75105   1.998   1.903   3.332  0.6101 -0.3455 -0.4054
  545MOL0     C75106   2.089   1.926   3.438 -1.1405  0.4139  0.8964
  545MOL0     C75107   2.066   1.864   3.563  0.9593 -0.7184  0.8599
  545MOL0     O75108   2.138   1.884   3.676 -0.1986 -0.2164  0.4644
  545MOL0     C75109   2.275   1.934   3.659 -0.7787  0.5923  0.9785
  545MOL0     C75110   2.374   1.910   3.774 -0.0586 -0.8004  0.4190
  545MOL0     C75111   2.410   1.768   3.802 -0.8500  0.2724  0.4994
  545MOL0     C75112   2.297   1.712   3.884  0.7006 -0.8878  0.3005
  545MOL0     C75113   2.340   1.599   3.971 -0.1533  0.2608 -0.3638
  545MOL0     C75114   2.225   1.540   4.051 -0.1329 -0.2080  0.3519
  545MOL0     C75115   2.262   1.439   4.159  0.0592 -0.7626  0.1294
  545MOL0     C75116   2.141   1.361   4.224  1.6263  0.1982 -0.6207
  545MOL0    Cl75117   2.073   1.257   4.088  0.1418 -0.0656 -0.2526
  545MOL0     C75118   1.948   1.796   3.581 -0.1635  0.1523  0.8178
  545MOL0     C75119   1.850   1.786   3.484 -0.3013  0.4067 -0.3012
  545MOL0     O75120   1.739   1.600   3.265  0.7457  0.1101 -0.1889
  545MOL0     C75121   1.529   1.631   3.080 -0.1706 -0.1421 -0.7729
  545MOL0     C75122   1.419   1.641   2.997  0.6554 -0.3262 -0.0641
  545MOL0     N75123   1.062   1.382   2.443 -0.0894  0.4078  0.0381
  545MOL0     N75124   0.997   1.299   2.364 -0.3575 -0.5104  1.0238
  545MOL0     C75125   0.805   1.268   3.117 -0.1537 -0.3236 -0.2741
  545MOL0     C75126   0.926   1.230   3.186  0.2543  0.1651  0.4989
  545MOL0     C75127   1.365   1.279   3.345  0.4366 -0.5996  0.2517
  545MOL0     C75128   1.485   1.357   3.349 -0.1735  0.2293 -0.2491
  545MOL0     C75129   1.609   1.313   3.404 -0.1407  0.5121  0.2432
  545MOL0     C75130   1.622   1.180   3.446  0.3311  0.2290 -0.5181
  545MOL0     O75131   1.740   1.135   3.502 -0.8573  0.1149  0.2251
  545MOL0     C75132   1.745   1.129   3.648  0.4746 -0.2521  0.3134
  545MOL0     C75133   1.883   1.064   3.690 -0.0494  0.5503  0.0136
  545MOL0     C75134   2.010   1.147   3.657  1.1429  0.0557 -0.2456
  545MOL0     C75135   2.006   1.273   3.744 -0.4531 -0.1857 -0.0729
  545MOL0     C75136   2.101   1.357   3.674  0.1395 -1.4279 -0.1352
  545MOL0     C75137   2.179   1.428   3.613  0.6909 -0.0899  0.2182
  545MOL0     C75138   1.511   1.100   3.448  0.1287  0.2386  0.4752
  545MOL0     C75139   1.383   1.144   3.394 -0.0647  0.5312  0.2478
  545MOL0     C75140   1.274   1.030   3.375  0.9967 -0.4341  0.2464
  545MOL0     H75141   1.131   1.445   3.034  0.1481  0.7300  0.8828
  545MOL0     H75142   0.940   1.522   2.929  4.9696  0.6482  1.2780
  545MOL0     H75143   0.544   1.285   3.044  2.8255  0.9582  1.3622
  545MOL0     H75144   0.660   1.212   2.920 -2.0760 -1.6005  0.9928
  545MOL0     H75145   0.421   1.241   2.858  2.8091 -2.8514  1.4769
  545MOL0     H75146   0.447   1.411   2.885  0.4799 -0.5243 -0.2319
  545MOL0     H75147   0.635   1.397   2.718 -0.1696  0.2581  0.4053
  545MOL0     H75148   0.621   1.220   2.711  2.9659  2.4694  0.7473
  545MOL0     H75149   0.372   1.263   2.615  1.8369 -2.9381 -0.7399
  545MOL0     H75150   0.423   1.430   2.594 -1.6287  0.0435 -2.4026
  545MOL0     H75151   0.436   1.285   2.396  0.8370 -1.2805 -1.0204
  545MOL0     H75152   0.543   1.171   2.491 -1.1376  0.1187 -1.9849
  545MOL0     H75153   0.632   1.453   2.404 -1.6793  0.5453  2.4339
  545MOL0     H75154   0.721   1.336   2.499 -2.0728 -1.5027  2.0199
  545MOL0     H75155   0.593   1.265   2.228  0.3369  3.2783  0.1151
  545MOL0     H75156   0.704   1.156   2.315 -2.2091  0.1145  2.4143
  545MOL0     H75157   0.840   1.233   2.156  0.1385 -0.7997  0.8397
  545MOL0     H75158   0.762   1.393   2.130 -1.1534  1.2718  1.1759
  545MOL0     H75159   0.854   1.589   2.297 -0.6043  0.3173  1.6471
  545MOL0     H75160   1.061   1.723   2.466 -0.3972  0.2202  0.7217
  545MOL0     H75161   1.182   1.609   2.515  0.2021  1.7237  2.0626
  545MOL0     H75162   0.914   1.619   2.643  1.4501 -0.3098  1.2497
  545MOL0     H75163   1.053   1.528   2.705 -0.5261 -0.8769 -0.6174
  545MOL0     H75164   1.109   1.817   2.669  0.4330  0.2171  1.5588
  545MOL0     H75165   1.006   1.784   2.814  1.4926  0.0835  2.1730
  545MOL0     H75166   1.157   1.607   2.889 -0.8861  0.4997 -0.3454
  545MOL0     H75167   1.269   1.648   2.749 -2.1708 -1.2947 -1.5813
  545MOL0     H75168   1.357   1.963   3.028 -0.5627 -1.3531  1.0786
  545MOL0     H75169   1.629   2.056   3.112 -2.2498  0.2529 -0.5858
  545MOL0     H75170   1.623   1.997   3.282 -0.5448  0.4947  0.6611
  545MOL0     H75171   1.486   2.067   3.189  0.3111 -0.4284  1.3715
  545MOL0     H75172   2.007   1.938   3.230  1.4480  0.4803 -0.0656
  545MOL0     H75173   2.183   1.976   3.422 -1.7654  2.0621  2.1110
  545MOL0     H75174   2.312   1.885   3.568  0.8003 -1.5243  2.6785
  545MOL0     H75175   2.251   2.039   3.638  0.9103  0.9620  0.6890
  545MOL0     H75176   2.465   1.967   3.755 -0.3867  1.3217  4.1860
  545MOL0     H75177   2.352   1.972   3.861 -0.2627  0.7000 -0.6702
  545MOL0     H75178   2.507   1.769   3.854 -0.9489  0.1077  0.6837
  545MOL0     H75179   2.426   1.710   3.711  1.2750 -0.7205  1.4348
  545MOL0     H75180   2.208   1.685   3.826  1.0631  0.6350 -1.0148
  545MOL0     H75181   2.260   1.788   3.953  1.1794 -0.9296  0.6082
  545MOL0     H75182   2.381   1.519   3.908 -0.0128  0.2031 -0.2003
  545MOL0     H75183   2.414   1.619   4.048  1.2778 -0.0107 -1.6050
  545MOL0     H75184   2.160   1.490   3.980 -1.4623 -1.0699  2.0952
  545MOL0     H75185   2.163   1.614   4.103 -1.4170 -0.4715 -0.7609
  545MOL0     H75186   2.322   1.491   4.235  0.3667  0.6419 -1.0235
  545MOL0     H75187   2.338   1.365   4.132  1.4578  0.8969 -0.6535
  545MOL0     H75188   2.055   1.422   4.253  1.8120  0.4081 -0.5026
  545MOL0     H75189   2.167   1.309   4.316  1.2022  0.5316 -0.3069
  545MOL0     H75190   1.938   1.752   3.679  0.5505 -0.5521  0.5854
  545MOL0     H75191   1.757   1.736   3.509  1.0414 -1.7583  0.6925
  545MOL0     H75192   1.578   1.534   3.079  1.2185  0.5383 -0.4621
  545MOL0     H75193   1.396   1.552   2.940  0.9428  0.0108 -0.7197
  545MOL0     H75194   0.729   1.202   3.157  1.2627 -0.8876  1.6270
  545MOL0     H75195   0.918   1.150   3.259 -0.4861 -0.1759  0.0499
  545MOL0     H75196   1.469   1.459   3.316  0.0167  0.0915 -0.7826
  545MOL0     H75197   1.681   1.391   3.426 -0.6860  1.2904 -0.6764
  545MOL0     H75198   1.747   1.230   3.689  2.8931 -1.0810  2.5477
  545MOL0     H75199   1.657   1.081   3.692 -0.1094  1.7868  1.5046
  545MOL0     H75200   1.891   0.979   3.622 -2.1814  0.1265  0.2141
  545MOL0     H75201   1.875   1.029   3.793  0.1455  0.9408  0.1643
  545MOL0     H75202   2.101   1.090   3.677 -0.0061 -1.9054 -0.3337
  545MOL0     H75203   2.000   1.161   3.549 -2.2465 -1.5873 -0.2998
  545MOL0     H75204   2.028   1.246   3.847 -1.0007 -0.2770  0.0261
  545MOL0     H75205   1.910   1.326   3.738 -0.9827 -0.9483  1.3375
  545MOL0     H75206   2.243   1.506   3.578  0.0476  1.2747  1.9082
  545MOL0     H75207   1.514   1.006   3.502  0.1436  0.5504  1.0332
  545MOL0     H75208   1.174   1.067   3.403  1.0556  0.8909 -1.1912
  545MOL0     H75209   1.277   1.004   3.269  1.7040  1.8537 -0.3459
  545MOL0     H75210   1.286   0.940   3.437  1.4283  0.6912  1.8740
  546MOL0     O75211   8.355  10.653   8.420  1.2653 -0.7532  0.3478
  546MOL0     C75212   8.321  10.556   8.491 -0.4275  0.2241  0.4316
  546MOL0     O75213   8.210  10.539   8.574  0.1494 -0.1762 -0.2197
  546MOL0     C75214   8.124  10.642   8.567  0.7538 -0.3844  0.4541
  546MOL0     C75215   8.076  10.691   8.440  0.5981 -0.0326 -0.1266
  546MOL0     C75216   7.999  10.808   8.434  0.2239  0.6901  0.9489
  546MOL0     C75217   7.961  10.871   8.553 -0.2377  0.9092  0.5925
  546MOL0     O75218   7.874  10.979   8.566 -0.7647 -1.0070 -0.3627
  546MOL0     C75219   7.830  11.054   8.456 -0.6992 -0.5710  0.0047
  546MOL0     C75220   7.717  11.141   8.497 -0.7693 -0.4555 -0.2620
  546MOL0     C75221   7.753  11.244   8.599 -0.1409 -0.8288  0.2886
  546MOL0     C75222   7.638  11.329   8.645  0.1249  0.1501 -0.0271
  546MOL0     C75223   7.686  11.436   8.735  0.0283  0.6134 -0.3386
  546MOL0     C75224   7.547  11.493   8.794  0.4278 -0.3224  0.1494
  546MOL0     C75225   7.588  11.603   8.887 -0.3627 -0.9622  0.1636
  546MOL0     C75226   7.467  11.652   8.969  0.0333  0.3390 -0.0592
  546MOL0     N75227   7.380  11.746   8.888 -0.0341  0.2666 -0.2596
  546MOL0     C75228   7.421  11.871   8.850 -1.1580 -0.8296 -0.0220
  546MOL0     C75229   7.309  11.943   8.816 -0.3597  0.1145  0.0305
  546MOL0     C75230   7.305  12.083   8.770  0.5116 -0.2817 -1.7897
  546MOL0     C75231   7.176  12.114   8.679  0.1015 -0.7399 -0.3823
  546MOL0     C75232   7.208  12.067   8.528  0.2295  0.5017  0.4810
  546MOL0     C75233   7.091  12.106   8.444  0.1960 -0.0012  0.0572
  546MOL0     O75234   7.112  12.078   8.300  0.1768 -0.1074  0.5192
  546MOL0     C75235   7.230  12.116   8.245  0.2791  1.0093  1.0415
  546MOL0     C75236   7.310  12.232   8.284 -0.5079  0.4930  0.5169
  546MOL0     C75237   7.412  12.287   8.215 -0.1719 -0.0916 -0.3707
  546MOL0     C75238   7.488  12.410   8.277  0.0223  0.1720 -0.5286
  546MOL0     C75239   7.436  12.231   8.086 -0.6459 -0.3758 -0.5185
  546MOL0     C75240   7.525  12.294   7.987 -0.3565 -0.8497  0.4786
  546MOL0     O75241   7.542  12.428   7.992  0.0517  0.8686 -0.8639
  546MOL0     C75242   7.651  12.488   7.931  1.1745  0.3473 -0.2197
  546MOL0     C75243   7.649  12.623   7.904  0.6714 -0.0929  0.6423
  546MOL0     C75244   7.760  12.686   7.841 -0.9525 -0.4306 -0.1397
  546MOL0     C75245   7.868  12.616   7.804 -0.9972  0.0834 -0.9884
  546MOL0     O75246   7.988  12.671   7.760 -0.1769  0.1515 -0.2569
  546MOL0     C75247   8.015  12.801   7.806  0.1838 -0.2590 -0.2725
  546MOL0     C75248   8.154  12.826   7.760  0.0385  0.0221 -0.4803
  546MOL0     C75249   8.204  12.966   7.796  0.3902 -0.0938  0.1139
  546MOL0     C75250   8.239  12.985   7.944  0.3386 -0.1185  0.0795
  546MOL0     C75251   8.296  13.119   7.987  0.1575 -0.7686  0.4406
  546MOL0     C75252   8.177  13.211   8.017  0.2311 -0.1050 -0.6287
  546MOL0     C75253   8.231  13.339   8.071  0.0159 -0.3081 -0.8807
  546MOL0     C75254   8.115  13.428   8.118  0.8681 -0.3916 -0.6524
  546MOL0    Cl75255   8.020  13.365   8.262  0.3126  0.0405  0.1698
  546MOL0     C75256   7.873  12.487   7.834 -0.0732  0.0339  0.9412
  546MOL0     C75257   7.769  12.421   7.907 -0.6426  0.0748 -0.9762
  546MOL0     O75258   7.566  12.224   7.893  0.4412  1.1025  0.0547
  546MOL0     C75259   7.367  12.114   8.044  0.3391  0.6803 -0.4506
  546MOL0     C75260   7.258  12.052   8.119 -0.3586 -0.7819  1.1771
  546MOL0     N75261   7.203  11.857   8.824 -0.3001 -0.2629 -0.0826
  546MOL0     N75262   7.245  11.740   8.871  0.2613  0.6877 -0.2863
  546MOL0     C75263   8.003  10.818   8.681  0.3063 -0.4687 -0.3342
  546MOL0     C75264   8.084  10.708   8.681  0.7273  0.6881 -0.1800
  546MOL0     C75265   8.400  10.423   8.485  0.1282 -0.2545 -0.2078
  546MOL0     C75266   8.335  10.296   8.505  0.0230  0.2753  0.7084
  546MOL0     C75267   8.405  10.176   8.494 -0.2220 -0.6312 -0.8000
  546MOL0     C75268   8.543  10.182   8.450 -0.6509 -0.5902  0.4965
  546MOL0     O75269   8.616  10.078   8.419  1.3116  0.0631 -0.9688
  546MOL0     C75270   8.555   9.954   8.401  0.7621  0.0685  0.3520
  546MOL0     C75271   8.670   9.854   8.373  0.2054 -0.0641  0.9754
  546MOL0     C75272   8.725   9.861   8.236  0.9806 -0.1347  0.4185
  546MOL0     C75273   8.841   9.764   8.214 -0.0523  0.5527 -0.5399
  546MOL0     C75274   8.815   9.623   8.221  0.0773  0.8389 -0.9860
  546MOL0     C75275   8.781   9.508   8.221  0.3500 -0.7347 -0.1855
  546MOL0     C75276   8.610  10.304   8.430  0.2650  0.0360  0.1493
  546MOL0     C75277   8.543  10.418   8.456  1.1535 -0.6254 -0.5449
  546MOL0     C75278   8.621  10.547   8.435  0.1611  0.2324 -0.7365
  546MOL0     H75279   8.111  10.638   8.351  0.8619 -0.7740  0.4066
  546MOL0     H75280   7.969  10.850   8.339  1.3313  1.0163  0.7294
  546MOL0     H75281   7.789  10.993   8.375  2.0722 -0.2876 -1.7603
  546MOL0     H75282   7.916  11.115   8.427  0.4797 -0.5761  3.0520
  546MOL0     H75283   7.674  11.202   8.417  2.5719  0.2411 -1.6661
  546MOL0     H75284   7.635  11.084   8.542  0.0504  0.1474  2.1154
  546MOL0     H75285   7.790  11.197   8.691 -0.2173 -0.8660  0.3006
  546MOL0     H75286   7.834  11.305   8.557 -0.5447  0.7662  1.6986
  546MOL0     H75287   7.592  11.377   8.557 -0.9139  0.0847  0.4712
  546MOL0     H75288   7.556  11.267   8.683 -0.5305  0.3157 -1.1228
  546MOL0     H75289   7.739  11.521   8.691  2.6687 -0.4076  0.6178
  546MOL0     H75290   7.756  11.396   8.810  2.4996  0.7130 -2.4428
  546MOL0     H75291   7.476  11.523   8.716 -0.3617 -2.4564 -0.0333
  546MOL0     H75292   7.493  11.417   8.851 -0.4750 -0.7102 -1.1694
  546MOL0     H75293   7.621  11.695   8.839 -2.2280 -0.1454  0.3582
  546MOL0     H75294   7.663  11.567   8.957  1.9965  0.3307 -1.5575
  546MOL0     H75295   7.400  11.575   9.008 -1.0815  0.3453 -1.8736
  546MOL0     H75296   7.511  11.712   9.050  2.2864  0.7819 -1.5197
  546MOL0     H75297   7.524  11.906   8.851 -0.7918 -1.6876 -2.0493
  546MOL0     H75298   7.390  12.122   8.714 -0.8802  1.9292 -2.4717
  546MOL0     H75299   7.293  12.150   8.855 -2.0806  1.2221 -3.2316
  546MOL0     H75300   7.087  12.078   8.731 -0.5600  2.5846  1.0832
  546MOL0     H75301   7.164  12.223   8.677 -0.3298 -0.7676  0.3658
  546MOL0     H75302   7.308  12.091   8.492 -1.0268  0.9959 -3.0651
  546MOL0     H75303   7.209  11.957   8.525  3.3343  0.4683 -1.9775
  546MOL0     H75304   7.004  12.044   8.470 -0.9688  0.7973 -1.7185
  546MOL0     H75305   7.067  12.212   8.449  0.1922  0.0684 -1.0676
  546MOL0     H75306   7.279  12.278   8.378  1.0117  0.8182  0.8810
  546MOL0     H75307   7.431  12.498   8.250 -1.7263 -0.7926 -0.1150
  546MOL0     H75308   7.592  12.416   8.244  0.5587 -0.8485  0.8406
  546MOL0     H75309   7.494  12.408   8.387 -1.4898 -0.7903 -0.4352
  546MOL0     H75310   7.554  12.671   7.927 -0.4752 -1.4974 -0.9331
  546MOL0     H75311   7.770  12.788   7.806 -3.3499  0.1975  0.7844
  546MOL0     H75312   7.953  12.882   7.766  0.2463  0.1523  0.4460
  546MOL0     H75313   8.007  12.807   7.915  0.5383  0.8831 -0.2984
  546MOL0     H75314   8.226  12.751   7.794 -1.2616 -1.0091  0.0756
  546MOL0     H75315   8.146  12.801   7.654 -2.9510 -0.8645 -0.1395
  546MOL0     H75316   8.133  13.041   7.760  2.0877  3.1638  2.9585
  546MOL0     H75317   8.293  12.984   7.733  0.3823  0.2360  0.1940
  546MOL0     H75318   8.299  12.901   7.979  1.4608  1.0819  1.1160
  546MOL0     H75319   8.147  12.974   8.002 -0.6318  1.3304 -1.0853
  546MOL0     H75320   8.365  13.102   8.071 -0.3229  1.6425  1.4012
  546MOL0     H75321   8.349  13.154   7.899  0.7881 -1.0011  0.7209
  546MOL0     H75322   8.099  13.167   8.080  0.1381  0.7043 -0.1639
  546MOL0     H75323   8.119  13.219   7.924 -0.9458 -1.5183 -0.0632
  546MOL0     H75324   8.276  13.391   7.986  0.4553  3.6678  1.5298
  546MOL0     H75325   8.298  13.322   8.156  0.3674 -1.5780 -1.3861
  546MOL0     H75326   8.045  13.448   8.036  0.6166  0.9720 -0.1293
  546MOL0     H75327   8.152  13.527   8.146  1.8760 -1.3042  1.4291
  546MOL0     H75328   7.961  12.426   7.815 -1.3879 -1.7756  0.3233
  546MOL0     H75329   7.789  12.317   7.929  2.1301  1.1542  2.6277
  546MOL0     H75330   7.372  12.068   7.946 -0.2534 -2.6805  0.9479
  546MOL0     H75331   7.205  11.966   8.079  1.2224 -0.7742 -1.1443
  546MOL0     H75332   7.998  10.873   8.774  1.2047 -1.6931  0.4795
  546MOL0     H75333   8.128  10.668   8.772  1.1422 -1.3865 -1.2325
  546MOL0     H75334   8.228  10.283   8.511  0.3010 -3.8326 -0.1188
  546MOL0     H75335   8.340  10.089   8.503 -2.7134  0.9157 -2.4494
  546MOL0     H75336   8.505   9.918   8.491  2.2998 -3.3274  0.0045
  546MOL0     H75337   8.482   9.945   8.320 -1.8397 -0.3304  2.5938
  546MOL0     H75338   8.633   9.752   8.389 -0.4197  0.0231  0.2021
  546MOL0     H75339   8.752   9.865   8.444  0.3501  2.1265  0.5471
  546MOL0     H75340   8.656   9.840   8.154 -0.3840 -1.3159  1.8038
  546MOL0     H75341   8.770   9.959   8.215 -0.7197  1.0238  1.9160
  546MOL0     H75342   8.914   9.792   8.290  2.1203 -2.7306 -1.2120
  546MOL0     H75343   8.891   9.781   8.118  1.1444  1.7677  0.2596
  546MOL0     H75344   8.764   9.403   8.207 -0.7667 -0.3247 -2.2111
  546MOL0     H75345   8.717  10.309   8.414  0.0043 -1.4025 -2.7977
  546MOL0     H75346   8.590  10.613   8.516 -1.9074 -1.2560 -0.2440
  546MOL0     H75347   8.730  10.534   8.443  0.2884 -0.2655 -2.7339
  546MOL0     H75348   8.600  10.600   8.341 -0.7814  0.7857 -0.2260
  547MOL0     O75349   6.182  11.379   5.242  0.2929  0.2352 -0.4254
  547MOL0     C75350   6.073  11.334   5.243  0.4121  0.1254 -0.6138
  547MOL0     O75351   5.973  11.370   5.332 -0.0788 -0.3494 -0.5443
  547MOL0     C75352   5.992  11.459   5.428 -0.1550 -0.9063  0.0099
  547MOL0     C75353   5.894  11.556   5.436  0.4962  0.1678  0.0371
  547MOL0     C75354   5.898  11.652   5.539 -0.4628  0.1808  1.4834
  547MOL0     C75355   6.005  11.650   5.632  1.0234  0.9012 -0.0128
  547MOL0     O75356   6.013  11.747   5.732 -0.0467 -0.1924  0.4667
  547MOL0     C75357   5.904  11.759   5.825 -0.4236 -0.1219  0.2097
  547MOL0     C75358   5.949  11.852   5.937 -0.2389  0.6439 -0.2044
  547MOL0     C75359   6.028  11.772   6.043 -0.2522  0.2567  1.0505
  547MOL0     C75360   6.178  11.749   5.998 -0.2179  0.1471 -1.1250
  547MOL0     C75361   6.240  11.654   6.088  0.0785 -0.8381 -0.1222
  547MOL0     C75362   6.387  11.642   6.049  0.4117  0.6047  0.1137
  547MOL0     C75363   6.413  11.567   5.923  0.5041  0.6344  0.4612
  547MOL0     C75364   6.412  11.423   5.963 -0.6038  0.6833 -0.4438
  547MOL0     N75365   6.428  11.340   5.841 -0.8002 -0.7070  0.7626
  547MOL0     C75366   6.550  11.307   5.788 -0.3104 -0.0297  0.1452
  547MOL0     C75367   6.528  11.210   5.700  0.3480 -0.6785 -0.1245
  547MOL0     C75368   6.639  11.136   5.615  0.3079  0.5539  0.2335
  547MOL0     C75369   6.632  11.179   5.471 -0.3089  1.0688 -0.0063
  547MOL0     C75370   6.644  11.336   5.438  0.3332  0.3066  0.6004
  547MOL0     C75371   6.777  11.402   5.466  0.2383 -0.5588  0.3344
  547MOL0     O75372   6.777  11.451   5.608  0.5894 -0.3921 -0.7325
  547MOL0     C75373   6.841  11.571   5.625  0.8553  0.1565  0.4539
  547MOL0     C75374   6.797  11.652   5.732 -0.1489 -0.1652  0.0601
  547MOL0     C75375   6.853  11.778   5.762  0.1860 -0.7767  0.3376
  547MOL0     C75376   6.810  11.851   5.889  0.2586  0.0080  0.4980
  547MOL0     C75377   6.949  11.833   5.673 -0.3077 -0.0459  0.0455
  547MOL0     C75378   7.016  11.969   5.685  0.2780  0.3129  0.0314
  547MOL0     O75379   7.083  12.013   5.571  0.0948 -0.2830  0.4222
  547MOL0     C75380   7.145  12.133   5.586  0.2775 -0.2045 -0.4580
  547MOL0     C75381   7.273  12.145   5.522 -0.3444  0.0467  0.5349
  547MOL0     C75382   7.339  12.266   5.517 -0.3610  0.9382 -1.1708
  547MOL0     C75383   7.269  12.377   5.563 -0.7214 -0.6855  0.1611
  547MOL0     O75384   7.316  12.511   5.544 -0.3068 -0.2086  0.5489
  547MOL0     C75385   7.446  12.527   5.481 -0.1848  0.3409  0.2281
  547MOL0     C75386   7.469  12.674   5.451 -0.6202 -0.1352  0.1110
  547MOL0     C75387   7.615  12.715   5.475 -0.1566 -0.4984 -0.9368
  547MOL0     C75388   7.639  12.732   5.627  0.6858  0.3247  0.0906
  547MOL0     C75389   7.752  12.828   5.659 -0.1731 -0.0289  0.4073
  547MOL0     C75390   7.885  12.805   5.588 -0.4194  0.9216 -1.0234
  547MOL0     C75391   8.001  12.872   5.656  0.4100  0.1345 -0.1705
  547MOL0     C75392   7.990  13.024   5.639 -0.3777  0.0891 -0.8693
  547MOL0    Cl75393   8.089  13.090   5.770  0.1177 -0.1424 -0.2555
  547MOL0     C75394   7.139  12.372   5.620 -0.3528  0.8156  0.0905
  547MOL0     C75395   7.072  12.250   5.627  0.3610  0.9634 -0.0518
  547MOL0     O75396   6.990  12.024   5.785 -0.4367 -0.6164  0.0748
  547MOL0     C75397   6.997  11.756   5.568 -0.6775  0.0120 -0.7627
  547MOL0     C75398   6.947  11.626   5.539  0.3950  0.2058 -0.1750
  547MOL0     N75399   6.396  11.184   5.702 -0.3622 -0.6799  0.3895
  547MOL0     N75400   6.336  11.261   5.787  0.1232 -0.2035  0.3485
  547MOL0     C75401   6.106  11.556   5.620 -0.4369  0.2214 -0.5204
  547MOL0     C75402   6.097  11.450   5.522  0.1424 -0.0789 -0.4178
  547MOL0     C75403   6.041  11.239   5.133  0.4096  0.6018  0.1574
  547MOL0     C75404   5.908  11.234   5.089  0.7906 -0.0393  0.0940
  547MOL0     C75405   5.857  11.136   5.004 -0.8604 -0.3624  0.0524
  547MOL0     C75406   5.945  11.049   4.940  0.2870 -0.5579 -0.3570
  547MOL0     O75407   5.906  10.943   4.867  0.6519 -0.3024  0.1949
  547MOL0     C75408   5.957  10.926   4.732 -0.5521  0.7371 -0.0261
  547MOL0     C75409   5.894  11.031   4.635  0.2981  0.0441 -0.1596
  547MOL0     C75410   5.932  11.010   4.488  0.1165 -0.1257 -0.0483
  547MOL0     C75411   5.934  11.136   4.409  0.0987  0.3606  0.1193
  547MOL0     C75412   5.797  11.171   4.360  0.1787 -0.6073  0.1468
  547MOL0     C75413   5.686  11.207   4.342 -0.1571 -0.7738 -0.9158
  547MOL0     C75414   6.075  11.073   4.973  0.1573 -0.0838 -0.2669
  547MOL0     C75415   6.134  11.157   5.065 -0.6709 -0.8176  0.5632
  547MOL0     C75416   6.287  11.163   5.083  0.7023  0.2550  0.1917
  547MOL0     H75417   5.830  11.568   5.349  0.6574  3.3057  0.2621
  547MOL0     H75418   5.827  11.735   5.534 -1.5924 -0.7313  1.9684
  547MOL0     H75419   5.870  11.666   5.872 -2.9978 -1.4822 -3.7948
  547MOL0     H75420   5.817  11.804   5.775 -0.0157 -2.0290 -2.4077
  547MOL0     H75421   6.009  11.925   5.880  0.4651  1.1779  1.1659
  547MOL0     H75422   5.860  11.898   5.980 -0.2080  0.9217 -0.4358
  547MOL0     H75423   6.031  11.834   6.133 -2.8375  1.7358  0.2159
  547MOL0     H75424   5.970  11.684   6.073 -1.0960 -0.5548 -2.4757
  547MOL0     H75425   6.169  11.709   5.897 -1.1250  3.7119 -2.6021
  547MOL0     H75426   6.229  11.845   5.992 -4.2776  2.6727  0.4768
  547MOL0     H75427   6.184  11.560   6.092 -1.2635 -0.0224  2.3501
  547MOL0     H75428   6.226  11.704   6.184  1.3922  0.4249 -0.5530
  547MOL0     H75429   6.414  11.745   6.026 -1.7535  0.8721 -1.5973
  547MOL0     H75430   6.454  11.605   6.128  0.0703  0.7759  0.4877
  547MOL0     H75431   6.515  11.581   5.886  0.5104 -0.3865  0.0614
  547MOL0     H75432   6.350  11.582   5.835  1.8053 -0.8852 -0.7871
  547MOL0     H75433   6.493  11.394   6.031 -0.4702  0.2769 -0.7785
  547MOL0     H75434   6.313  11.389   5.996 -0.1449 -0.3255 -0.0764
  547MOL0     H75435   6.640  11.365   5.806 -0.3671 -0.2981  1.4284
  547MOL0     H75436   6.619  11.029   5.606 -0.6798  0.9247 -3.5567
  547MOL0     H75437   6.739  11.163   5.652  1.5967 -0.7001 -2.1355
  547MOL0     H75438   6.713  11.123   5.423  0.5798  2.1634  0.1653
  547MOL0     H75439   6.542  11.129   5.434  0.9748 -1.7703  0.4530
  547MOL0     H75440   6.634  11.343   5.330 -1.8742  0.0902  0.7431
  547MOL0     H75441   6.559  11.387   5.485  0.2996  0.1504  0.7104
  547MOL0     H75442   6.857  11.330   5.444  0.2413 -0.9494  1.5615
  547MOL0     H75443   6.790  11.485   5.396 -0.8111  0.4315  1.2730
  547MOL0     H75444   6.727  11.596   5.793 -0.2343 -1.7550 -1.4516
  547MOL0     H75445   6.723  11.805   5.938  0.7320 -0.6029  0.7706
  547MOL0     H75446   6.785  11.957   5.876 -2.1130 -0.3596  1.4430
  547MOL0     H75447   6.892  11.834   5.959 -0.2539 -1.5977  0.7495
  547MOL0     H75448   7.322  12.055   5.486  2.0122  1.5442 -0.2641
  547MOL0     H75449   7.438  12.268   5.473 -0.0296 -1.5802 -0.6762
  547MOL0     H75450   7.522  12.488   5.550  1.3181 -1.5663 -2.3094
  547MOL0     H75451   7.471  12.473   5.389 -0.1156  2.9995 -1.4273
  547MOL0     H75452   7.440  12.691   5.347  1.6526  0.8003 -0.4200
  547MOL0     H75453   7.403  12.737   5.511 -0.2898  0.5746 -0.2636
  547MOL0     H75454   7.635  12.813   5.430 -0.6396  0.7377  1.3223
  547MOL0     H75455   7.684  12.642   5.432 -0.1920 -0.2264 -1.4608
  547MOL0     H75456   7.657  12.634   5.673  0.6090  0.7254  0.9895
  547MOL0     H75457   7.548  12.753   5.685  1.0693  2.8984 -0.1219
  547MOL0     H75458   7.714  12.928   5.633 -2.1287 -0.6103  0.8234
  547MOL0     H75459   7.750  12.835   5.768 -3.3842  0.9941  0.3943
  547MOL0     H75460   7.880  12.842   5.485 -1.4802  1.8417 -0.6570
  547MOL0     H75461   7.913  12.699   5.587  1.9332  1.4844 -2.3355
  547MOL0     H75462   8.096  12.840   5.612 -0.3332 -1.0600 -0.9733
  547MOL0     H75463   8.007  12.839   5.759 -2.8338  0.6451  0.2734
  547MOL0     H75464   7.885  13.051   5.647 -0.0358  2.0363 -2.3217
  547MOL0     H75465   8.023  13.049   5.537  0.1152 -1.3352 -1.0804
  547MOL0     H75466   7.100  12.466   5.657 -1.2514  1.1206 -1.5273
  547MOL0     H75467   6.975  12.256   5.675 -0.3859 -0.2751 -1.3114
  547MOL0     H75468   7.080  11.785   5.505 -0.5319  2.5067  0.4537
  547MOL0     H75469   6.992  11.563   5.463  0.9810  0.0675  0.2815
  547MOL0     H75470   6.187  11.564   5.692 -0.1197 -0.8596 -0.7423
  547MOL0     H75471   6.170  11.371   5.509  1.0708  0.5402  0.7535
  547MOL0     H75472   5.833  11.298   5.134 -0.9840 -1.1623 -1.1840
  547MOL0     H75473   5.753  11.118   4.978 -0.2993  0.3914 -3.1738
  547MOL0     H75474   6.065  10.944   4.730 -0.4003 -0.1434 -0.4088
  547MOL0     H75475   5.936  10.827   4.691 -4.4020  0.9492  1.0307
  547MOL0     H75476   5.909  11.135   4.665 -1.0257  0.4185 -0.7177
  547MOL0     H75477   5.786  11.016   4.626 -0.1669  3.3615 -1.7391
  547MOL0     H75478   6.028  10.957   4.489  0.8233  1.1285  0.0891
  547MOL0     H75479   5.849  10.948   4.453 -0.1874  0.5414 -0.5201
  547MOL0     H75480   6.005  11.124   4.327 -1.7713  3.6507 -2.2151
  547MOL0     H75481   5.966  11.215   4.478 -1.4597  0.1727  1.1014
  547MOL0     H75482   5.581  11.226   4.326  0.0670  3.7854  1.6065
  547MOL0     H75483   6.139  10.995   4.935  1.1268  1.3209 -1.6499
  547MOL0     H75484   6.319  11.255   5.034 -0.4600  0.2270 -0.6656
  547MOL0     H75485   6.293  11.159   5.192  1.5089  3.1761  0.3390
  547MOL0     H75486   6.336  11.077   5.037  0.4798  0.0623  0.3143
  548MOL0     O75487   9.431   1.483   3.662 -0.5857 -0.9995 -0.1737
  548MOL0     C75488   9.366   1.427   3.580  0.9251  0.9965  0.4003
  548MOL0     O75489   9.402   1.409   3.450  0.3597  0.6356 -0.8441
  548MOL0     C75490   9.534   1.402   3.420  0.0942 -0.3006 -0.5117
  548MOL0     C75491   9.598   1.280   3.397 -0.4505  0.4095 -0.4797
  548MOL0     C75492   9.734   1.279   3.365  0.3840  0.5593  0.1608
  548MOL0     C75493   9.808   1.400   3.358 -0.1241  0.6964 -0.9964
  548MOL0     O75494   9.945   1.393   3.330  0.1897 -0.5236 -0.5749
  548MOL0     C75495  10.028   1.451   3.437 -0.1894  0.4220  0.1671
  548MOL0     C75496  10.049   1.372   3.568 -0.0463 -0.0139 -0.5193
  548MOL0     C75497  10.048   1.218   3.544 -0.4647  0.2191 -0.1398
  548MOL0     C75498  10.089   1.163   3.681  0.9842  0.1278 -0.0641
  548MOL0     C75499  10.095   1.007   3.686  0.2653 -0.8617  0.1877
  548MOL0     C75500  10.103   0.950   3.828 -0.2227 -0.3140  0.1201
  548MOL0     C75501  10.130   0.791   3.832  0.8239  0.0701  0.1755
  548MOL0     C75502  10.188   0.735   3.966 -0.0178 -0.1683 -0.9170
  548MOL0     N75503  10.086   0.776   4.076 -0.3807  1.5115  1.0135
  548MOL0     C75504  10.110   0.855   4.185 -1.1502 -0.3186 -0.0881
  548MOL0     C75505   9.994   0.852   4.258  0.0903 -0.1461  1.4678
  548MOL0     C75506   9.959   0.931   4.387 -0.0575 -0.9185  0.3485
  548MOL0     C75507   9.904   0.845   4.498  0.0712 -0.1508  1.0432
  548MOL0     C75508   9.987   0.727   4.550  0.4468  0.4619  0.2841
  548MOL0     C75509  10.085   0.777   4.653  0.6033  0.8289 -1.6003
  548MOL0     O75510  10.189   0.858   4.599  0.2413 -0.3150  0.2289
  548MOL0     C75511  10.309   0.810   4.544  1.3040  0.3238 -0.2200
  548MOL0     C75512  10.361   0.676   4.567  0.4757  0.3102  0.0454
  548MOL0     C75513  10.479   0.643   4.505 -0.6370 -0.8357 -1.1179
  548MOL0     C75514  10.513   0.493   4.506 -0.0300  0.2351 -0.4754
  548MOL0     C75515  10.558   0.737   4.429  0.8213  0.0482 -0.9213
  548MOL0     C75516  10.692   0.713   4.374 -0.5418  0.3843  0.4764
  548MOL0     O75517  10.735   0.586   4.380  0.1959 -0.2705 -0.5380
  548MOL0     C75518  10.844   0.531   4.315  0.6871 -0.6476 -0.5380
  548MOL0     C75519  10.880   0.403   4.344 -0.6898  0.7872  0.0494
  548MOL0     C75520  11.001   0.347   4.287  0.2239 -0.2685 -0.2252
  548MOL0     C75521  11.088   0.420   4.203 -0.2472  0.7551  0.1735
  548MOL0     O75522  11.208   0.351   4.167  0.4098  0.1384 -0.0638
  548MOL0     C75523  11.311   0.424   4.099  0.1490 -0.1743  0.0229
  548MOL0     C75524  11.302   0.407   3.955  0.6441 -0.3413 -0.5823
  548MOL0     C75525  11.299   0.270   3.901 -0.0826 -0.7288  0.3499
  548MOL0     C75526  11.413   0.186   3.949 -0.6326 -0.6899 -0.0171
  548MOL0     C75527  11.448   0.072   3.847  0.2741 -0.2598 -0.3198
  548MOL0     C75528  11.593   0.026   3.872  0.2026 -0.6821  0.2000
  548MOL0     C75529  11.636  -0.108   3.803 -0.3574  0.6475 -0.0189
  548MOL0     C75530  11.711  -0.190   3.909 -0.1698  0.0035  0.1881
  548MOL0    Cl75531  11.824  -0.093   4.006  0.1102 -0.2499  0.2335
  548MOL0     C75532  11.043   0.545   4.166 -0.6334  0.1040  0.4126
  548MOL0     C75533  10.929   0.603   4.215  0.1835 -0.0675 -0.4987
  548MOL0     O75534  10.759   0.803   4.328  0.1021 -0.0826 -0.0342
  548MOL0     C75535  10.491   0.861   4.408 -0.5751 -0.6765 -0.0256
  548MOL0     C75536  10.369   0.897   4.464 -0.6037 -0.0217  0.0677
  548MOL0     N75537   9.913   0.756   4.197 -0.6794  0.6002  0.0374
  548MOL0     N75538   9.970   0.716   4.092  0.2178  0.7004 -0.0988
  548MOL0     C75539   9.743   1.518   3.384 -0.1176 -0.5580 -0.9090
  548MOL0     C75540   9.607   1.519   3.419  0.8033 -0.2489  0.5565
  548MOL0     C75541   9.227   1.378   3.616 -0.6971 -0.8964 -0.1547
  548MOL0     C75542   9.118   1.413   3.535 -0.5914 -0.0769  0.1050
  548MOL0     C75543   8.988   1.373   3.566 -0.1177 -0.3396  0.3771
  548MOL0     C75544   8.966   1.285   3.679  0.4284 -0.1797  0.5061
  548MOL0     O75545   8.849   1.234   3.712  0.6630 -0.4293 -0.8889
  548MOL0     C75546   8.736   1.237   3.615  0.1061 -1.1534 -0.0085
  548MOL0     C75547   8.612   1.178   3.682 -0.3806 -0.4976 -0.6316
  548MOL0     C75548   8.558   1.280   3.792 -0.3768  0.4652  0.1758
  548MOL0     C75549   8.465   1.400   3.748 -0.0935  0.2463 -0.4677
  548MOL0     C75550   8.363   1.370   3.640 -0.1307  0.3367 -0.0030
  548MOL0     C75551   8.280   1.357   3.543 -0.3863 -1.1873 -0.1184
  548MOL0     C75552   9.074   1.247   3.760  0.2803 -0.1118  0.4017
  548MOL0     C75553   9.201   1.292   3.728  0.2343 -0.7314 -0.2490
  548MOL0     C75554   9.318   1.242   3.816  0.2114 -0.1137 -0.0025
  548MOL0     H75555   9.550   1.183   3.405  2.1953 -0.8618  1.6071
  548MOL0     H75556   9.781   1.184   3.342 -2.6126 -1.1818  0.7537
  548MOL0     H75557  10.003   1.556   3.454 -1.3043  0.4676 -1.4856
  548MOL0     H75558  10.132   1.447   3.404 -0.7600 -0.4188 -1.6966
  548MOL0     H75559  10.143   1.395   3.619 -1.2006 -1.2307  2.3266
  548MOL0     H75560   9.977   1.412   3.639  0.3561 -0.6290  0.2485
  548MOL0     H75561   9.949   1.175   3.527  1.0462 -2.9254 -1.9735
  548MOL0     H75562  10.116   1.182   3.466  0.7247  0.5329  0.7294
  548MOL0     H75563  10.184   1.205   3.716  0.4369  1.6702 -0.3249
  548MOL0     H75564  10.010   1.190   3.752 -0.4895 -1.9268 -0.8370
  548MOL0     H75565  10.176   0.982   3.617 -0.7988  0.1636 -1.5041
  548MOL0     H75566  10.000   0.979   3.640  0.4368  0.0230 -0.7234
  548MOL0     H75567  10.178   0.999   3.891 -1.0378 -2.1905  2.7410
  548MOL0     H75568  10.007   0.982   3.871  0.5504  0.0119  1.7026
  548MOL0     H75569  10.208   0.772   3.758  1.5183  3.5160 -0.1504
  548MOL0     H75570  10.046   0.727   3.804  0.9729  0.5507 -1.4482
  548MOL0     H75571  10.184   0.626   3.967 -4.7790 -0.2134 -2.2812
  548MOL0     H75572  10.285   0.774   4.000 -2.4171  4.7344  1.3803
  548MOL0     H75573  10.186   0.930   4.203 -2.1438  1.1780 -1.7680
  548MOL0     H75574   9.885   1.008   4.363  1.1784  0.4694  0.9009
  548MOL0     H75575  10.054   0.978   4.410  0.6103 -1.6927 -0.7252
  548MOL0     H75576   9.874   0.917   4.575 -0.1468  2.0785 -1.0325
  548MOL0     H75577   9.812   0.804   4.455  0.3907 -0.8748  1.0472
  548MOL0     H75578   9.912   0.660   4.594 -0.5037  0.9300 -0.5993
  548MOL0     H75579  10.038   0.669   4.472 -2.0359 -1.3740 -0.1129
  548MOL0     H75580  10.025   0.836   4.723  1.2881 -0.8273  0.4629
  548MOL0     H75581  10.136   0.694   4.703 -2.1564  1.3528  2.5422
  548MOL0     H75582  10.301   0.602   4.618  1.3837 -0.7701 -0.4206
  548MOL0     H75583  10.427   0.442   4.549 -0.4166  0.9495 -0.3769
  548MOL0     H75584  10.597   0.482   4.576  0.1910  0.5256 -0.6910
  548MOL0     H75585  10.535   0.441   4.413  2.1891 -3.0296  1.6396
  548MOL0     H75586  10.808   0.342   4.397 -0.2882  0.8352  0.6525
  548MOL0     H75587  11.034   0.247   4.312  3.5853  0.2723 -1.9700
  548MOL0     H75588  11.310   0.529   4.127 -0.8192  0.0181 -0.7032
  548MOL0     H75589  11.414   0.389   4.115  0.1936  0.5717  1.5044
  548MOL0     H75590  11.213   0.458   3.916 -0.2090  0.9807  2.7593
  548MOL0     H75591  11.376   0.461   3.897  0.0288 -1.3397 -2.3794
  548MOL0     H75592  11.290   0.265   3.792  0.4640 -2.9525  0.3476
  548MOL0     H75593  11.208   0.225   3.943 -0.0077 -2.0975 -0.8583
  548MOL0     H75594  11.399   0.137   4.046 -0.5911 -0.7927 -0.0620
  548MOL0     H75595  11.502   0.250   3.957 -1.1500  0.0440 -0.0763
  548MOL0     H75596  11.390  -0.021   3.852  1.2161 -0.9012 -1.0428
  548MOL0     H75597  11.447   0.099   3.741  2.8412  1.3843 -0.0286
  548MOL0     H75598  11.598   0.014   3.981 -0.2360  3.3636  0.8219
  548MOL0     H75599  11.663   0.102   3.838  2.5861 -3.7744 -2.4002
  548MOL0     H75600  11.701  -0.094   3.717 -0.2268 -0.4501 -0.1184
  548MOL0     H75601  11.549  -0.169   3.775  1.4032 -3.6072  2.7711
  548MOL0     H75602  11.771  -0.257   3.848 -1.0618  0.7343 -1.5715
  548MOL0     H75603  11.637  -0.240   3.972 -0.8045  2.9090  1.9354
  548MOL0     H75604  11.117   0.601   4.110 -0.3022 -1.3110 -0.6093
  548MOL0     H75605  10.932   0.709   4.191  2.1399 -0.0972 -0.5583
  548MOL0     H75606  10.546   0.931   4.347  0.3562  0.8439  2.4043
  548MOL0     H75607  10.319   0.993   4.451 -0.0167  0.2021 -0.5844
  548MOL0     H75608   9.793   1.614   3.375 -0.3880 -0.1125  1.7413
  548MOL0     H75609   9.560   1.614   3.439 -0.8676 -0.0217 -3.4588
  548MOL0     H75610   9.144   1.487   3.460  1.0054 -0.9553 -0.2639
  548MOL0     H75611   8.922   1.411   3.489 -1.8487  0.8790  2.3786
  548MOL0     H75612   8.708   1.339   3.588 -0.2527 -1.1811  0.2502
  548MOL0     H75613   8.758   1.176   3.527 -0.8306 -1.6881  0.1131
  548MOL0     H75614   8.633   1.076   3.717  0.8177  0.2045  0.7986
  548MOL0     H75615   8.538   1.161   3.604  0.4840 -2.0585 -1.1612
  548MOL0     H75616   8.514   1.217   3.869  2.6393 -2.1124 -0.0215
  548MOL0     H75617   8.651   1.315   3.839 -0.0337 -2.1174  1.5889
  548MOL0     H75618   8.531   1.477   3.706  2.8264 -1.3139  0.9652
  548MOL0     H75619   8.419   1.448   3.835  0.9909  0.5281 -0.0223
  548MOL0     H75620   8.213   1.359   3.459  1.1496 -0.0752 -1.3762
  548MOL0     H75621   9.062   1.192   3.853  1.7716  0.5893  1.0497
  548MOL0     H75622   9.321   1.296   3.911 -1.5615 -1.1769  0.7078
  548MOL0     H75623   9.301   1.136   3.833 -2.9987  0.4946  1.3022
  548MOL0     H75624   9.414   1.245   3.763  0.2653 -1.0123  0.0377
  549MOL0     O75625  10.913  10.488   1.071  0.2026  0.9390 -0.0072
  549MOL0     C75626  11.005  10.562   1.106 -0.2488  0.7338  0.0808
  549MOL0     O75627  10.985  10.668   1.190 -0.2337  0.2890  0.9624
  549MOL0     C75628  10.866  10.707   1.236  0.6343  0.9059 -0.7292
  549MOL0     C75629  10.830  10.677   1.368  0.7438  0.5840 -0.4343
  549MOL0     C75630  10.700  10.706   1.417 -0.0344  1.1088  0.5092
  549MOL0     C75631  10.604  10.767   1.331  0.3425 -0.0472 -0.3203
  549MOL0     O75632  10.485  10.808   1.375  0.5010 -0.0029  0.4929
  549MOL0     C75633  10.448  10.787   1.506 -0.0267  0.2887 -0.9937
  549MOL0     C75634  10.298  10.833   1.527 -0.0050  0.0532  0.3066
  549MOL0     C75635  10.277  10.984   1.500  0.4062 -0.5709 -0.2809
  549MOL0     C75636  10.142  11.035   1.562  1.0707 -0.2022 -0.1652
  549MOL0     C75637  10.147  11.065   1.712 -0.2716 -0.6869  0.2627
  549MOL0     C75638  10.001  11.070   1.767 -1.0772 -0.7584 -0.6121
  549MOL0     C75639  10.012  11.122   1.915  0.2350  0.4420 -0.2187
  549MOL0     C75640   9.881  11.111   1.984 -0.1813  0.6570 -0.6003
  549MOL0     N75641   9.890  11.161   2.125 -0.3278 -0.0331 -0.2123
  549MOL0     C75642   9.880  11.289   2.163 -0.1508 -0.5310  0.4665
  549MOL0     C75643   9.906  11.285   2.294 -0.5272 -0.0670 -0.5345
  549MOL0     C75644   9.898  11.406   2.380  0.0006  0.6416  0.0748
  549MOL0     C75645   9.751  11.447   2.410  0.0126 -0.1139 -0.5531
  549MOL0     C75646   9.729  11.500   2.559  0.5100 -0.3274  0.3244
  549MOL0     C75647   9.572  11.504   2.590 -0.5104  0.7758 -0.5096
  549MOL0     O75648   9.558  11.531   2.726 -0.0464 -0.2589  0.2613
  549MOL0     C75649   9.432  11.542   2.776  0.0022  0.0895  0.8089
  549MOL0     C75650   9.418  11.613   2.901 -0.9048 -0.6098 -0.3120
  549MOL0     C75651   9.292  11.619   2.960  0.2903  0.3928 -1.0501
  549MOL0     C75652   9.306  11.687   3.098 -0.3299 -0.3015  0.7040
  549MOL0     C75653   9.169  11.561   2.905 -0.1365  0.2918 -0.3055
  549MOL0     C75654   9.035  11.558   2.968 -1.0273 -0.1277 -0.1224
  549MOL0     O75655   8.930  11.508   2.881 -0.3206  0.7300 -0.2826
  549MOL0     C75656   8.811  11.505   2.950  0.3979 -0.0645  0.9080
  549MOL0     C75657   8.727  11.617   2.929 -0.5333 -0.4687  0.2905
  549MOL0     C75658   8.600  11.620   3.003 -1.3392  0.5375  0.3289
  549MOL0     C75659   8.568  11.521   3.093 -0.5498  0.0189  0.1879
  549MOL0     O75660   8.458  11.538   3.172 -0.0878 -0.0885 -0.9470
  549MOL0     C75661   8.483  11.528   3.314 -0.0430 -1.1044  0.1934
  549MOL0     C75662   8.354  11.566   3.384 -0.3145  0.3642 -0.9254
  549MOL0     C75663   8.303  11.697   3.334 -0.5074 -0.0380 -0.3818
  549MOL0     C75664   8.205  11.754   3.426  0.5838  0.5725  0.6282
  549MOL0     C75665   8.124  11.875   3.362  0.0728 -0.3678  0.3166
  549MOL0     C75666   8.028  11.814   3.254  0.5042 -0.4698  0.0924
  549MOL0     C75667   7.907  11.732   3.312 -0.6280  0.0590 -0.1701
  549MOL0     C75668   7.788  11.733   3.211 -0.3522  0.1609  0.6287
  549MOL0    Cl75669   7.670  11.607   3.259  0.1084  0.4850 -0.1477
  549MOL0     C75670   8.644  11.404   3.102  0.1607 -0.2557  1.0864
  549MOL0     C75671   8.762  11.392   3.024 -0.1227 -0.7827 -0.1963
  549MOL0     O75672   9.027  11.592   3.087  0.3762 -0.4914  0.3477
  549MOL0     C75673   9.197  11.501   2.779  0.3722 -0.5160  0.8147
  549MOL0     C75674   9.325  11.486   2.725  0.4199  0.0384 -0.8232
  549MOL0     N75675   9.946  11.161   2.329 -0.4225  0.0348 -0.5022
  549MOL0     N75676   9.939  11.083   2.228 -0.4898  0.4380 -0.3074
  549MOL0     C75677  10.648  10.796   1.206 -0.0609 -0.5458  0.3333
  549MOL0     C75678  10.773  10.769   1.151 -0.3616  0.2918 -0.3640
  549MOL0     C75679  11.143  10.555   1.059  0.4098  0.7957 -0.6051
  549MOL0     C75680  11.239  10.645   1.109  1.4444  0.0348 -0.1738
  549MOL0     C75681  11.375  10.628   1.095  1.0101  0.4987 -0.0771
  549MOL0     C75682  11.427  10.527   1.023  0.3742 -0.3583  0.2591
  549MOL0     O75683  11.563  10.532   1.029  0.2204 -0.2561 -0.8943
  549MOL0     C75684  11.636  10.444   0.944 -0.1105 -1.2397 -0.1198
  549MOL0     C75685  11.786  10.476   0.977  0.5816  0.1948  0.0349
  549MOL0     C75686  11.883  10.385   0.920 -0.5717  0.3623  0.0538
  549MOL0     C75687  12.019  10.396   0.999  0.7438 -0.1106  0.5708
  549MOL0     C75688  12.114  10.312   0.932  0.3059  0.3918  0.2339
  549MOL0     C75689  12.204  10.253   0.879  0.6091 -0.3433  0.7227
  549MOL0     C75690  11.342  10.438   0.962  0.0700 -0.4947 -0.2424
  549MOL0     C75691  11.207  10.448   0.984  0.4821  0.0179 -0.4494
  549MOL0     C75692  11.116  10.342   0.927  0.0715  0.3776  0.5866
  549MOL0     H75693  10.895  10.621   1.435 -0.5800 -2.4083 -1.4840
  549MOL0     H75694  10.682  10.686   1.522 -1.0914  0.5009  0.2257
  549MOL0     H75695  10.526  10.830   1.569  1.5783 -2.9748 -0.5366
  549MOL0     H75696  10.439  10.681   1.531  2.2866  0.1501 -0.5093
  549MOL0     H75697  10.232  10.774   1.463  0.1051 -0.5059  0.7048
  549MOL0     H75698  10.277  10.821   1.634 -3.5425  2.5695  0.0854
  549MOL0     H75699  10.356  11.059   1.514  1.1404 -1.5602  1.1698
  549MOL0     H75700  10.258  10.998   1.393  0.6647 -0.9119 -0.3727
  549MOL0     H75701  10.113  11.130   1.514  0.3924  1.2502  2.8847
  549MOL0     H75702  10.064  10.960   1.543  1.2636 -0.9655  1.8956
  549MOL0     H75703  10.188  11.166   1.717 -1.2102 -0.3330  1.0446
  549MOL0     H75704  10.208  10.993   1.767  1.4359 -0.9944 -1.8792
  549MOL0     H75705   9.943  11.139   1.706 -0.9062 -0.9805 -1.0308
  549MOL0     H75706   9.958  10.971   1.750  2.1695 -2.5813  0.8189
  549MOL0     H75707  10.037  11.228   1.926  0.5526  0.0839  4.1512
  549MOL0     H75708  10.087  11.072   1.977 -1.8235  0.1206  2.1636
  549MOL0     H75709   9.804  11.175   1.939 -2.5611 -1.2924  0.5068
  549MOL0     H75710   9.854  11.006   1.975  0.5677  0.5480 -1.8634
  549MOL0     H75711   9.853  11.373   2.100  2.7631 -0.5177 -0.9701
  549MOL0     H75712   9.958  11.483   2.330 -0.5802  1.3360  0.4099
  549MOL0     H75713   9.952  11.380   2.472  0.9087  1.5885 -0.1708
  549MOL0     H75714   9.735  11.533   2.344  1.1600 -0.5823 -1.4747
  549MOL0     H75715   9.679  11.367   2.390  0.0954 -0.5084  0.6476
  549MOL0     H75716   9.769  11.430   2.633  3.4673  0.0616 -0.7624
  549MOL0     H75717   9.766  11.602   2.562  1.1218 -0.5265  4.0180
  549MOL0     H75718   9.523  11.580   2.528 -4.7701 -0.0142  1.5549
  549MOL0     H75719   9.524  11.408   2.569 -1.9316  1.8290 -2.4594
  549MOL0     H75720   9.497  11.667   2.952  0.7102 -0.1411 -3.1527
  549MOL0     H75721   9.253  11.783   3.105  3.0182  1.7480  0.3124
  549MOL0     H75722   9.405  11.715   3.135 -0.5192 -0.7554  1.5686
  549MOL0     H75723   9.267  11.620   3.175  1.1283 -2.0785 -0.0239
  549MOL0     H75724   8.762  11.701   2.869  1.2161 -0.5964  1.0742
  549MOL0     H75725   8.545  11.713   3.013  1.9719  3.0218 -2.4072
  549MOL0     H75726   8.508  11.427   3.348  1.4388 -0.5241  0.9334
  549MOL0     H75727   8.563  11.596   3.345 -0.5570  0.0598 -0.9555
  549MOL0     H75728   8.281  11.486   3.366 -0.1113  0.2216 -1.1252
  549MOL0     H75729   8.373  11.578   3.491  0.5880  3.1429 -1.3214
  549MOL0     H75730   8.263  11.673   3.235  0.1252  0.8602 -0.8661
  549MOL0     H75731   8.385  11.769   3.332 -1.8505  1.5295 -1.8490
  549MOL0     H75732   8.252  11.769   3.524 -0.6354  1.3286  1.1175
  549MOL0     H75733   8.132  11.678   3.453  2.9398 -1.8836  0.4469
  549MOL0     H75734   8.060  11.920   3.439  2.0462 -0.1695  1.9442
  549MOL0     H75735   8.195  11.946   3.319  0.2617  0.5691  2.0896
  549MOL0     H75736   8.078  11.761   3.174 -0.4915 -1.4841  0.1234
  549MOL0     H75737   7.979  11.895   3.200 -2.5739 -1.0617  1.7612
  549MOL0     H75738   7.875  11.777   3.406 -1.9810  3.7061 -2.1578
  549MOL0     H75739   7.944  11.630   3.324  1.8003  0.3906 -3.3502
  549MOL0     H75740   7.819  11.714   3.108 -0.5169  1.1952  0.3776
  549MOL0     H75741   7.746  11.834   3.214  0.4481  0.4947  1.1715
  549MOL0     H75742   8.618  11.317   3.161  1.9126  0.3958  2.9126
  549MOL0     H75743   8.815  11.298   3.032  2.2147  0.4070 -0.8076
  549MOL0     H75744   9.124  11.444   2.724 -0.9290 -0.1832  2.1211
  549MOL0     H75745   9.328  11.414   2.644  3.0162 -2.4784  1.3094
  549MOL0     H75746  10.567  10.843   1.151  0.7389 -0.4040 -0.7611
  549MOL0     H75747  10.808  10.798   1.052  2.3502  1.2689  0.7791
  549MOL0     H75748  11.215  10.741   1.153 -0.4365  0.8743 -2.7820
  549MOL0     H75749  11.441  10.701   1.140  1.1555 -0.3104  1.0770
  549MOL0     H75750  11.616  10.339   0.969  2.4926 -1.6144  0.5982
  549MOL0     H75751  11.621  10.468   0.838  3.9305  0.7629 -0.4135
  549MOL0     H75752  11.802  10.470   1.085 -1.6191 -1.3942  0.3334
  549MOL0     H75753  11.817  10.574   0.938  4.7258 -1.1892 -0.7117
  549MOL0     H75754  11.844  10.283   0.932  1.4286 -0.4126  0.3853
  549MOL0     H75755  11.902  10.404   0.814  2.0989 -2.5357 -0.1385
  549MOL0     H75756  12.016  10.365   1.104  1.7936 -2.1612  0.0314
  549MOL0     H75757  12.059  10.498   0.996  4.4465 -1.4198  0.6379
  549MOL0     H75758  12.289  10.198   0.844  0.5313 -0.5933  0.9251
  549MOL0     H75759  11.377  10.359   0.896  1.0462  0.3496 -0.7882
  549MOL0     H75760  11.043  10.375   0.853  0.6850 -1.9573 -1.1946
  549MOL0     H75761  11.175  10.260   0.885  1.4061  0.7847  1.5952
  549MOL0     H75762  11.065  10.299   1.014  3.0732 -0.9511  1.8499
  550MOL0     O75763   3.343   9.676   5.762 -0.0605 -0.0295  0.0228
  550MOL0     C75764   3.318   9.568   5.816  0.0905 -1.2480  0.3772
  550MOL0     O75765   3.409   9.463   5.832  0.1682 -0.4732  0.1706
  550MOL0     C75766   3.542   9.479   5.800 -0.8757  1.3384  0.1529
  550MOL0     C75767   3.622   9.588   5.824  0.6073  0.1038  0.1203
  550MOL0     C75768   3.752   9.597   5.789 -0.3502 -0.4919 -0.5337
  550MOL0     C75769   3.812   9.499   5.727 -0.6801  1.1023 -0.0533
  550MOL0     O75770   3.946   9.519   5.697  1.1219 -0.2981 -0.6866
  550MOL0     C75771   4.007   9.423   5.616 -0.9900  0.7568  0.7914
  550MOL0     C75772   4.158   9.452   5.570 -0.3044 -0.0122 -0.5649
  550MOL0     C75773   4.255   9.484   5.681  1.0137  0.0368 -0.5469
  550MOL0     C75774   4.329   9.375   5.756  0.4741 -0.0093 -0.8920
  550MOL0     C75775   4.431   9.434   5.851  0.2009 -0.1901  0.9728
  550MOL0     C75776   4.520   9.333   5.924 -0.8044  0.3139 -0.0508
  550MOL0     C75777   4.621   9.401   6.010  0.1086 -0.7653 -0.4501
  550MOL0     C75778   4.716   9.305   6.092  0.4378  0.1063  0.1588
  550MOL0     N75779   4.790   9.212   6.008 -0.4533  0.0660  0.5885
  550MOL0     C75780   4.893   9.255   5.924 -0.4259 -0.0548 -0.3087
  550MOL0     C75781   4.942   9.136   5.882  0.8772  0.5894  0.3447
  550MOL0     C75782   5.054   9.111   5.783  0.3528  0.6641  0.0803
  550MOL0     C75783   5.174   9.202   5.819 -0.6041  0.5709  0.0004
  550MOL0     C75784   5.313   9.159   5.760 -0.3465  0.0395 -0.0264
  550MOL0     C75785   5.422   9.245   5.809  0.2719 -0.4357 -0.3893
  550MOL0     O75786   5.544   9.175   5.773  0.4354  0.1457 -0.2274
  550MOL0     C75787   5.647   9.253   5.745  0.3404 -0.1485 -0.6659
  550MOL0     C75788   5.668   9.388   5.785  0.1104  0.3413  0.4088
  550MOL0     C75789   5.792   9.454   5.755  0.0152 -0.3330  0.2660
  550MOL0     C75790   5.802   9.602   5.790 -0.4507  0.2782 -0.5276
  550MOL0     C75791   5.903   9.387   5.689  0.0434  0.2385 -0.7971
  550MOL0     C75792   6.045   9.437   5.671  0.9013 -0.0442 -0.9225
  550MOL0     O75793   6.114   9.379   5.568 -0.2246  0.3069 -0.0994
  550MOL0     C75794   6.253   9.408   5.555  0.0805  0.0930 -0.6088
  550MOL0     C75795   6.290   9.404   5.425 -0.3685  0.0258  0.3840
  550MOL0     C75796   6.424   9.404   5.387  0.4881  0.2726 -0.8837
  550MOL0     C75797   6.524   9.417   5.490 -0.0651  0.1881  0.1361
  550MOL0     O75798   6.656   9.423   5.442  0.1148  0.1700  0.2992
  550MOL0     C75799   6.746   9.472   5.535 -0.6559  0.7669 -0.8614
  550MOL0     C75800   6.891   9.475   5.478  0.2216  0.4336 -0.3738
  550MOL0     C75801   6.946   9.334   5.465 -0.5897  0.1745 -0.3216
  550MOL0     C75802   7.101   9.354   5.422  0.8629  0.2146 -0.0799
  550MOL0     C75803   7.199   9.285   5.518 -0.3602 -0.3103 -0.7720
  550MOL0     C75804   7.349   9.297   5.485 -0.0045 -0.1835  0.9405
  550MOL0     C75805   7.429   9.208   5.583  0.6394  1.0626 -0.2022
  550MOL0     C75806   7.573   9.186   5.542 -0.5004  0.0612 -0.3726
  550MOL0    Cl75807   7.585   9.077   5.408  0.1258 -0.4312  0.6414
  550MOL0     C75808   6.482   9.415   5.622 -0.0949 -0.2805  0.3883
  550MOL0     C75809   6.358   9.398   5.657  0.8823 -0.1034 -0.0053
  550MOL0     O75810   6.085   9.527   5.739  0.1785  0.4143  0.4727
  550MOL0     C75811   5.871   9.257   5.644 -0.1455  0.3206 -0.0664
  550MOL0     C75812   5.748   9.196   5.665 -0.0969  0.7577  1.1100
  550MOL0     N75813   4.862   9.029   5.925  0.6060  0.1786  0.8027
  550MOL0     N75814   4.776   9.076   6.002  0.1208 -0.4069 -0.5708
  550MOL0     C75815   3.738   9.378   5.706 -0.1330  0.0975  0.3730
  550MOL0     C75816   3.605   9.368   5.742 -0.2436 -0.6100  1.1673
  550MOL0     C75817   3.182   9.562   5.880  0.2708  0.1347  0.1007
  550MOL0     C75818   3.119   9.685   5.912 -0.9825 -0.6748  0.0279
  550MOL0     C75819   3.000   9.698   5.982  0.2123  0.0538 -0.4946
  550MOL0     C75820   2.930   9.584   6.025 -0.2020 -0.4515 -0.3392
  550MOL0     O75821   2.811   9.597   6.090  0.2013 -0.2378  0.1810
  550MOL0     C75822   2.703   9.522   6.041 -0.2641 -0.3455 -0.0196
  550MOL0     C75823   2.579   9.607   6.054 -0.3242 -0.1529  0.7637
  550MOL0     C75824   2.529   9.630   6.200 -0.0405 -0.5428  0.1591
  550MOL0     C75825   2.417   9.747   6.191  0.0332 -0.2226 -0.0899
  550MOL0     C75826   2.395   9.802   6.326 -0.2829 -0.7024  0.1302
  550MOL0     C75827   2.364   9.853   6.434  0.2487  0.5173 -0.0575
  550MOL0     C75828   2.984   9.457   5.988  0.4791 -0.5265  0.1517
  550MOL0     C75829   3.114   9.445   5.923  0.3474  0.2496 -0.1903
  550MOL0     C75830   3.150   9.307   5.881  0.6123  0.0108 -0.4335
  550MOL0     H75831   3.583   9.678   5.870  2.0813  3.4769 -4.5264
  550MOL0     H75832   3.800   9.694   5.789 -1.4664  0.0813 -0.4242
  550MOL0     H75833   3.946   9.414   5.526  1.5996 -0.9645 -0.9496
  550MOL0     H75834   4.019   9.335   5.681  3.2060  1.7692  1.6858
  550MOL0     H75835   4.185   9.358   5.521 -1.5138  0.8033 -2.9392
  550MOL0     H75836   4.164   9.533   5.497 -1.0456  1.5060  0.9661
  550MOL0     H75837   4.333   9.541   5.630  1.4603  0.7944  0.9240
  550MOL0     H75838   4.208   9.538   5.764  1.8994  0.3999 -0.2662
  550MOL0     H75839   4.263   9.307   5.810  1.9042 -0.1677  0.7241
  550MOL0     H75840   4.371   9.294   5.694 -1.5993 -1.8238 -0.0572
  550MOL0     H75841   4.392   9.501   5.928  2.9441  1.0422  1.4085
  550MOL0     H75842   4.492   9.496   5.784 -0.5576 -1.0864 -0.6252
  550MOL0     H75843   4.450   9.268   5.976  1.0843 -2.6855 -0.9578
  550MOL0     H75844   4.580   9.274   5.854 -0.1596 -3.8675  3.6070
  550MOL0     H75845   4.566   9.460   6.083 -1.8185 -0.3653 -2.1348
  550MOL0     H75846   4.683   9.466   5.948 -0.9901 -0.6911 -1.5009
  550MOL0     H75847   4.784   9.363   6.154 -0.4938  0.3024  1.0326
  550MOL0     H75848   4.651   9.262   6.169 -1.9485  1.5698 -0.9272
  550MOL0     H75849   4.921   9.354   5.891 -0.5199 -0.0811 -0.4664
  550MOL0     H75850   5.009   9.128   5.684  0.7286 -3.5567 -1.0053
  550MOL0     H75851   5.081   9.005   5.782 -0.5453  0.3670 -2.4580
  550MOL0     H75852   5.170   9.305   5.782  1.9001  0.7008 -0.0533
  550MOL0     H75853   5.173   9.202   5.929 -0.7762 -0.9999  0.0200
  550MOL0     H75854   5.338   9.055   5.783  1.6566  0.8316  1.6601
  550MOL0     H75855   5.311   9.167   5.651 -0.8609 -0.4444 -0.0601
  550MOL0     H75856   5.412   9.343   5.762 -2.8941 -0.5633 -0.2033
  550MOL0     H75857   5.427   9.260   5.917 -0.4181 -1.0235 -0.2702
  550MOL0     H75858   5.592   9.441   5.842  0.0664 -1.4558  2.1130
  550MOL0     H75859   5.703   9.633   5.825 -1.2601 -1.5293 -1.0934
  550MOL0     H75860   5.816   9.664   5.701  1.8218  0.6645  0.0445
  550MOL0     H75861   5.881   9.630   5.861 -2.0985 -0.4573  1.7309
  550MOL0     H75862   6.208   9.389   5.355 -2.5472 -0.6097  2.8935
  550MOL0     H75863   6.467   9.392   5.288  0.9782  0.6038 -0.7218
  550MOL0     H75864   6.703   9.566   5.570  0.2029  0.7351  0.3690
  550MOL0     H75865   6.751   9.408   5.624 -1.7636 -0.0207 -1.3431
  550MOL0     H75866   6.881   9.514   5.376 -2.2485 -1.7510 -1.0783
  550MOL0     H75867   6.961   9.534   5.537  0.3718  0.3118 -0.4322
  550MOL0     H75868   6.887   9.287   5.386 -4.3666  4.4998 -0.5174
  550MOL0     H75869   6.938   9.283   5.561 -0.5676 -0.0392 -0.4335
  550MOL0     H75870   7.132   9.459   5.422  1.0455  0.1983 -1.7715
  550MOL0     H75871   7.118   9.311   5.323  0.3922  0.3547 -0.2231
  550MOL0     H75872   7.189   9.314   5.623 -4.5329 -1.8033 -0.5720
  550MOL0     H75873   7.174   9.178   5.524  1.3083 -0.6859  0.0444
  550MOL0     H75874   7.377   9.402   5.498 -2.6426  1.1407 -2.5207
  550MOL0     H75875   7.359   9.271   5.379 -1.5882  0.5676  0.5796
  550MOL0     H75876   7.387   9.108   5.582  4.4420 -0.7398  0.7694
  550MOL0     H75877   7.420   9.251   5.683  4.0916 -2.7170  2.0335
  550MOL0     H75878   7.633   9.145   5.625 -0.6997 -0.5333 -0.5160
  550MOL0     H75879   7.611   9.282   5.507  0.4782  0.1567  0.8694
  550MOL0     H75880   6.549   9.396   5.706  1.1952 -0.3320 -0.6209
  550MOL0     H75881   6.335   9.383   5.762  0.6107 -0.3013 -0.0884
  550MOL0     H75882   5.940   9.191   5.594 -0.9075 -0.6698  0.1662
  550MOL0     H75883   5.737   9.096   5.626  0.1909  1.7963 -1.9208
  550MOL0     H75884   3.781   9.282   5.677  0.1654  0.7932 -1.6393
  550MOL0     H75885   3.539   9.282   5.746 -0.2682 -0.5561  1.9872
  550MOL0     H75886   3.168   9.778   5.887 -4.5681  1.0446 -1.2577
  550MOL0     H75887   2.966   9.796   6.016 -1.0230 -0.8323  0.9899
  550MOL0     H75888   2.712   9.501   5.934 -1.3039  0.2825 -0.2401
  550MOL0     H75889   2.686   9.427   6.093 -1.8065 -0.2453 -0.3061
  550MOL0     H75890   2.505   9.559   5.988  0.8702 -0.8865 -0.0788
  550MOL0     H75891   2.593   9.699   5.996  0.0770 -0.0178  1.0755
  550MOL0     H75892   2.490   9.537   6.240 -1.0660  0.0772  0.6247
  550MOL0     H75893   2.621   9.666   6.248  1.5065 -0.2135 -2.7893
  550MOL0     H75894   2.322   9.704   6.157 -0.4823  0.6750  0.1530
  550MOL0     H75895   2.432   9.834   6.126  0.2004 -0.1751  0.0117
  550MOL0     H75896   2.332   9.894   6.527  0.7930 -0.2345  0.4663
  550MOL0     H75897   2.933   9.366   6.020 -0.3028  0.3056  1.3344
  550MOL0     H75898   3.077   9.273   5.807 -0.9294 -0.5727  1.2791
  550MOL0     H75899   3.248   9.306   5.832  0.5916  2.3866 -0.6793
  550MOL0     H75900   3.149   9.231   5.959 -0.7957  0.1884 -0.2519
  551MOL0     O75901   0.358   4.535   4.963 -0.0318  0.1852 -0.1226
  551MOL0     C75902   0.331   4.420   4.992 -0.3980 -0.2561 -0.7539
  551MOL0     O75903   0.367   4.364   5.113  0.0432 -0.9187  0.5371
  551MOL0     C75904   0.486   4.400   5.177 -1.1655  0.0632 -0.7494
  551MOL0     C75905   0.592   4.456   5.109 -0.9526 -0.3012 -0.3088
  551MOL0     C75906   0.703   4.508   5.176  0.8820 -0.2073  0.0717
  551MOL0     C75907   0.712   4.487   5.308 -0.2644  0.3911 -0.7578
  551MOL0     O75908   0.831   4.529   5.377  0.1637  0.6396 -0.5687
  551MOL0     C75909   0.957   4.469   5.327 -0.2752 -1.1443 -0.2150
  551MOL0     C75910   1.070   4.502   5.431  0.5286 -0.3049  0.3485
  551MOL0     C75911   1.057   4.638   5.499  0.0664 -0.3920  0.5014
  551MOL0     C75912   1.188   4.648   5.586 -0.2706  0.1966 -0.2336
  551MOL0     C75913   1.187   4.793   5.648 -0.0935 -0.2547  1.2927
  551MOL0     C75914   1.293   4.822   5.760 -0.1618 -0.4231  0.4755
  551MOL0     C75915   1.254   4.946   5.832 -0.0206 -0.0717  0.6497
  551MOL0     C75916   1.236   5.081   5.757 -0.4482  0.7219  0.2156
  551MOL0     N75917   1.367   5.125   5.699  0.2046  0.2583 -0.2368
  551MOL0     C75918   1.421   5.080   5.585  0.3491 -0.2565 -0.0232
  551MOL0     C75919   1.558   5.108   5.590 -0.2029 -0.6994  0.1270
  551MOL0     C75920   1.665   5.063   5.491 -0.3935  0.4454  0.0391
  551MOL0     C75921   1.632   4.921   5.443  0.3309  0.2675 -0.8675
  551MOL0     C75922   1.754   4.839   5.408  0.9259 -0.5555 -0.2376
  551MOL0     C75923   1.719   4.696   5.407  0.5173  0.3706 -0.1291
  551MOL0     O75924   1.824   4.620   5.472 -0.5186 -0.5993  0.6445
  551MOL0     C75925   1.812   4.590   5.606 -0.6096  0.0489  0.1905
  551MOL0     C75926   1.860   4.466   5.648  0.2270 -0.3340 -0.2730
  551MOL0     C75927   1.845   4.429   5.783  0.0144 -0.1015  0.5931
  551MOL0     C75928   1.893   4.284   5.808 -0.2266 -0.7121 -0.6213
  551MOL0     C75929   1.797   4.516   5.880  0.1710  0.2527  0.2562
  551MOL0     C75930   1.786   4.493   6.030 -0.2814 -0.6017 -0.5886
  551MOL0     O75931   1.748   4.598   6.111 -0.6206  0.0132 -0.4244
  551MOL0     C75932   1.745   4.562   6.241  0.5053 -0.7107 -0.3154
  551MOL0     C75933   1.637   4.490   6.284 -0.3068 -0.3700  0.0206
  551MOL0     C75934   1.644   4.444   6.420  0.2400  0.2322 -0.2580
  551MOL0     C75935   1.753   4.478   6.505 -0.9496 -0.4558 -1.2895
  551MOL0     O75936   1.742   4.443   6.636 -0.1258 -0.1170 -1.0245
  551MOL0     C75937   1.728   4.310   6.667 -0.6673  1.1274 -1.0776
  551MOL0     C75938   1.668   4.310   6.816  0.4535 -0.5656  0.0093
  551MOL0     C75939   1.519   4.331   6.818 -0.7332 -0.4570 -0.3654
  551MOL0     C75940   1.445   4.203   6.799 -0.1634 -0.2420 -0.6667
  551MOL0     C75941   1.293   4.223   6.814  0.2823  0.2553 -0.1799
  551MOL0     C75942   1.213   4.099   6.752 -0.8714  0.3839  0.3170
  551MOL0     C75943   1.061   4.097   6.795  0.3646 -0.5982  0.0007
  551MOL0     C75944   0.994   3.978   6.730  0.6895 -0.0091 -0.8069
  551MOL0    Cl75945   1.071   3.811   6.767  0.1745  0.1264  0.3427
  551MOL0     C75946   1.869   4.540   6.448  0.4384 -0.2198 -0.2201
  551MOL0     C75947   1.858   4.590   6.318  0.0327  0.2264  0.0541
  551MOL0     O75948   1.809   4.376   6.068 -0.2304  0.2485 -0.8609
  551MOL0     C75949   1.744   4.642   5.840  0.3645  0.6063 -0.8460
  551MOL0     C75950   1.764   4.677   5.706  0.5544  0.2007 -0.3391
  551MOL0     N75951   1.578   5.157   5.722  0.2915 -0.8296  0.2619
  551MOL0     N75952   1.470   5.174   5.782 -0.0508 -0.5044 -0.0839
  551MOL0     C75953   0.602   4.428   5.384  0.3197 -0.5297 -0.1979
  551MOL0     C75954   0.494   4.381   5.311 -0.9162 -0.0578 -0.5210
  551MOL0     C75955   0.274   4.322   4.895 -0.1291 -0.2779  0.1375
  551MOL0     C75956   0.286   4.185   4.922  0.6137  0.1234  0.1024
  551MOL0     C75957   0.236   4.092   4.835 -0.0848  0.6206 -0.3643
  551MOL0     C75958   0.162   4.131   4.725 -1.0667  0.1514 -0.4583
  551MOL0     O75959   0.107   4.037   4.637  0.0529  0.3189  0.1080
  551MOL0     C75960   0.031   3.936   4.702 -0.1071 -0.7287  0.3573
  551MOL0     C75961  -0.112   3.915   4.655 -0.2451  0.5627 -0.1105
  551MOL0     C75962  -0.101   3.830   4.527 -0.0108 -0.0048  0.4322
  551MOL0     C75963  -0.235   3.778   4.469  0.5108 -0.5283  0.2103
  551MOL0     C75964  -0.320   3.889   4.437  0.5281  0.0999  0.7009
  551MOL0     C75965  -0.378   3.990   4.412 -0.0557 -0.7694 -0.5762
  551MOL0     C75966   0.150   4.267   4.696  0.1983  0.3001  0.0517
  551MOL0     C75967   0.201   4.362   4.779  0.4145 -0.2160 -0.0473
  551MOL0     C75968   0.169   4.508   4.742 -0.3795  0.3290  0.3832
  551MOL0     H75969   0.593   4.465   5.001  2.0045 -0.9336 -0.4138
  551MOL0     H75970   0.785   4.555   5.123  1.3815  0.7493  1.6549
  551MOL0     H75971   0.977   4.523   5.234 -0.3358 -0.5041  0.1410
  551MOL0     H75972   0.943   4.361   5.319  1.4628 -1.2999 -1.9435
  551MOL0     H75973   1.083   4.422   5.505 -1.4671  0.2425  1.3489
  551MOL0     H75974   1.165   4.500   5.376  0.1519  0.0304 -0.3361
  551MOL0     H75975   1.057   4.722   5.429  3.8146 -0.1294  0.6123
  551MOL0     H75976   0.969   4.639   5.564  0.5915  1.6144  1.2414
  551MOL0     H75977   1.184   4.580   5.671  1.5009 -1.2167 -1.2323
  551MOL0     H75978   1.280   4.635   5.529 -0.9138 -1.4689 -0.9816
  551MOL0     H75979   1.082   4.788   5.678 -0.6315 -0.9992 -0.5686
  551MOL0     H75980   1.200   4.863   5.566  1.1710 -1.4963  0.3801
  551MOL0     H75981   1.295   4.732   5.823 -1.5354 -0.5825  0.3114
  551MOL0     H75982   1.382   4.838   5.699 -1.3830 -0.5798 -1.4152
  551MOL0     H75983   1.327   4.970   5.910 -0.3429  1.3212  0.5571
  551MOL0     H75984   1.153   4.939   5.874 -2.1881  2.3498 -3.5109
  551MOL0     H75985   1.174   5.056   5.672  2.2592 -1.0193 -1.3949
  551MOL0     H75986   1.183   5.158   5.815 -0.3237  1.9804 -1.2827
  551MOL0     H75987   1.370   5.037   5.500  0.0776  3.0800 -1.7126
  551MOL0     H75988   1.753   5.071   5.555 -2.0474  2.7006  2.1871
  551MOL0     H75989   1.685   5.140   5.415  0.1881  0.7584  0.5001
  551MOL0     H75990   1.574   4.873   5.523 -0.1604 -2.2295 -2.5982
  551MOL0     H75991   1.562   4.929   5.359  0.0158  2.8867 -0.4465
  551MOL0     H75992   1.789   4.880   5.313 -0.0068  2.7525  0.7324
  551MOL0     H75993   1.834   4.853   5.481  3.0717 -0.4145 -2.4990
  551MOL0     H75994   1.618   4.683   5.447  0.5641 -1.9575 -0.6436
  551MOL0     H75995   1.702   4.664   5.304 -1.9347 -0.0650  0.3553
  551MOL0     H75996   1.892   4.394   5.574  0.1446 -0.1114 -0.5283
  551MOL0     H75997   1.807   4.223   5.778 -1.0047  1.3377 -3.0143
  551MOL0     H75998   1.917   4.257   5.910 -0.7185 -0.1972 -0.3573
  551MOL0     H75999   1.987   4.264   5.757  0.2376  2.9851 -1.4933
  551MOL0     H76000   1.547   4.477   6.226 -1.2422  2.3857  0.7136
  551MOL0     H76001   1.551   4.400   6.455  1.1163 -0.7501  0.9168
  551MOL0     H76002   1.658   4.262   6.598 -1.0376 -0.5513  0.3893
  551MOL0     H76003   1.827   4.264   6.667 -1.4540 -0.6753 -2.6210
  551MOL0     H76004   1.692   4.225   6.880 -0.6573 -0.0419  1.1752
  551MOL0     H76005   1.722   4.381   6.879  1.1011 -1.6435  0.7072
  551MOL0     H76006   1.475   4.396   6.742 -1.9807 -0.6169  0.1816
  551MOL0     H76007   1.502   4.368   6.920 -1.2001 -1.1777 -0.1702
  551MOL0     H76008   1.485   4.117   6.853 -4.2190 -1.9156  0.0852
  551MOL0     H76009   1.451   4.168   6.695 -3.1424 -1.1139 -0.6413
  551MOL0     H76010   1.268   4.232   6.920 -1.9333  2.7694 -0.7989
  551MOL0     H76011   1.255   4.312   6.763 -2.3610  1.4344  3.4136
  551MOL0     H76012   1.265   4.009   6.787  3.0514  2.3882  0.1985
  551MOL0     H76013   1.228   4.101   6.644 -2.8124 -0.2224 -0.0167
  551MOL0     H76014   1.021   4.190   6.754 -0.9597 -0.5235  1.3556
  551MOL0     H76015   1.055   4.083   6.903  0.8165  0.7857  0.2337
  551MOL0     H76016   0.976   3.986   6.622 -1.8840  3.7677 -0.2892
  551MOL0     H76017   0.890   3.977   6.764  0.7967  0.5350 -0.4542
  551MOL0     H76018   1.958   4.565   6.504  0.9250  0.6429 -1.3367
  551MOL0     H76019   1.939   4.646   6.270  1.9121 -0.7436  1.9270
  551MOL0     H76020   1.687   4.708   5.904 -0.4840 -0.0228 -0.9421
  551MOL0     H76021   1.746   4.781   5.678 -1.2201  0.2730  0.9272
  551MOL0     H76022   0.617   4.424   5.491  1.4814 -0.0971 -0.3316
  551MOL0     H76023   0.410   4.347   5.370  0.9150  0.1518  2.4232
  551MOL0     H76024   0.356   4.160   5.001  1.0479 -2.2078 -0.9574
  551MOL0     H76025   0.270   3.989   4.846 -2.4883 -0.0557  1.4282
  551MOL0     H76026   0.086   3.842   4.702  0.4813 -0.3898  0.1366
  551MOL0     H76027   0.015   3.965   4.806  0.2994 -0.2484  0.2867
  551MOL0     H76028  -0.167   4.009   4.646  4.5327  4.0512  2.4242
  551MOL0     H76029  -0.165   3.857   4.730  0.6365  1.3363  1.1444
  551MOL0     H76030  -0.056   3.887   4.445  0.5661 -1.5398 -0.3630
  551MOL0     H76031  -0.035   3.744   4.541  0.1668 -0.5774 -3.0356
  551MOL0     H76032  -0.280   3.722   4.552 -0.2432 -0.3940 -0.1012
  551MOL0     H76033  -0.221   3.699   4.394 -0.2288 -0.5194  0.0536
  551MOL0     H76034  -0.430   4.083   4.406  0.5737 -0.2913  0.8897
  551MOL0     H76035   0.092   4.283   4.606 -3.0524 -4.2833  0.9288
  551MOL0     H76036   0.123   4.554   4.830  0.4507  0.5302  0.7208
  551MOL0     H76037   0.262   4.551   4.704  0.4941 -0.5203  1.4835
  551MOL0     H76038   0.096   4.528   4.663 -1.6645 -2.4343  0.7724
  552MOL0     O76039   4.276   2.863   8.499 -0.6977 -0.5471 -0.6861
  552MOL0     C76040   4.300   2.809   8.611  0.2297 -0.1562 -0.1035
  552MOL0     O76041   4.430   2.770   8.649 -0.7142 -0.1208  0.1606
  552MOL0     C76042   4.529   2.800   8.556 -0.0869 -0.4760 -1.7074
  552MOL0     C76043   4.558   2.936   8.524  0.1515 -0.7808 -0.4858
  552MOL0     C76044   4.645   2.985   8.429 -0.3313  0.6005  1.0525
  552MOL0     C76045   4.729   2.893   8.351 -0.9582 -0.4562 -1.2133
  552MOL0     O76046   4.832   2.943   8.267 -0.4472  0.4931 -0.8082
  552MOL0     C76047   4.941   2.848   8.242 -0.0461 -0.4696  0.6707
  552MOL0     C76048   5.068   2.928   8.264 -0.1685 -0.1571  0.2511
  552MOL0     C76049   5.203   2.858   8.230  0.2254 -0.4530 -0.1331
  552MOL0     C76050   5.321   2.968   8.243 -0.1180 -0.1713  0.6538
  552MOL0     C76051   5.459   2.916   8.187 -0.6093  0.2104 -0.1902
  552MOL0     C76052   5.473   2.956   8.035 -0.5659 -0.5341 -0.5580
  552MOL0     C76053   5.615   2.912   7.981  0.9027  0.4092 -0.0787
  552MOL0     C76054   5.638   2.758   7.978  0.5877 -0.0138 -0.1037
  552MOL0     N76055   5.767   2.738   7.921 -0.9547 -0.0334 -0.2125
  552MOL0     C76056   5.795   2.731   7.790  0.1796  1.1104 -0.2047
  552MOL0     C76057   5.927   2.688   7.779  0.6167 -0.2539  0.1814
  552MOL0     C76058   5.997   2.666   7.651  0.1819 -0.1900 -0.0963
  552MOL0     C76059   6.120   2.751   7.606  0.5341  0.8331  0.6804
  552MOL0     C76060   6.082   2.899   7.628  0.9198  1.1077  0.0211
  552MOL0     C76061   6.180   2.989   7.555 -0.0820 -0.5437 -0.1113
  552MOL0     O76062   6.312   2.975   7.610  0.8067 -0.0225  0.3511
  552MOL0     C76063   6.402   3.067   7.565  0.1553  0.1300 -0.1717
  552MOL0     C76064   6.379   3.202   7.582  0.9569 -0.1402  1.1455
  552MOL0     C76065   6.483   3.298   7.560  0.1906  0.4215  0.1402
  552MOL0     C76066   6.456   3.442   7.588  0.5756  0.0351 -0.0170
  552MOL0     C76067   6.607   3.250   7.498 -0.6604 -0.3232  0.1195
  552MOL0     C76068   6.715   3.335   7.453  0.8146 -0.4905 -0.3487
  552MOL0     O76069   6.765   3.303   7.329 -0.1897 -0.2742  0.6037
  552MOL0     C76070   6.860   3.380   7.269  0.1482  0.9659  0.0864
  552MOL0     C76071   6.984   3.400   7.332  0.6880  0.3051  0.1760
  552MOL0     C76072   7.087   3.460   7.273 -0.3868  0.0027 -0.0633
  552MOL0     C76073   7.074   3.508   7.141  0.7433 -0.0228  0.1164
  552MOL0     O76074   7.173   3.574   7.078 -0.2259  0.2489  1.1982
  552MOL0     C76075   7.237   3.677   7.154  0.5016  0.8090 -0.1403
  552MOL0     C76076   7.155   3.789   7.205 -0.0661  0.2847 -0.6684
  552MOL0     C76077   7.150   3.920   7.117  0.3538 -0.3860  1.0224
  552MOL0     C76078   7.290   3.987   7.106  0.1295 -0.2239  0.2604
  552MOL0     C76079   7.283   4.103   7.006 -0.1999 -0.6255  0.4528
  552MOL0     C76080   7.408   4.192   6.993  0.7991  0.0482 -0.1361
  552MOL0     C76081   7.531   4.114   6.938 -0.3184  0.4257 -0.8127
  552MOL0     C76082   7.621   4.225   6.886 -0.1085 -0.2594  0.5268
  552MOL0    Cl76083   7.757   4.154   6.809  0.1100 -0.4616  0.2203
  552MOL0     C76084   6.956   3.478   7.069 -0.0339 -0.1951  0.3595
  552MOL0     C76085   6.856   3.411   7.134 -0.2672  0.1091  0.4655
  552MOL0     O76086   6.763   3.420   7.522  0.1415 -0.9464  0.6345
  552MOL0     C76087   6.624   3.112   7.482 -0.1551 -0.0343  0.0573
  552MOL0     C76088   6.517   3.020   7.521 -0.4887  0.3189  0.2692
  552MOL0     N76089   5.960   2.660   7.914  0.3146 -0.5449 -0.5943
  552MOL0     N76090   5.863   2.686   7.994 -0.4062  0.3357 -0.3723
  552MOL0     C76091   4.708   2.754   8.388  0.8177  0.3287 -0.3630
  552MOL0     C76092   4.612   2.713   8.492  0.5379  0.3838 -0.0945
  552MOL0     C76093   4.185   2.804   8.714 -0.6130 -0.4672 -0.1668
  552MOL0     C76094   4.216   2.738   8.832 -0.7725  0.2480  0.7660
  552MOL0     C76095   4.128   2.729   8.932  0.1432  0.4616  0.3053
  552MOL0     C76096   4.009   2.801   8.938  0.8375 -0.7672 -0.2682
  552MOL0     O76097   3.937   2.803   9.057  0.2044  1.0877  0.0336
  552MOL0     C76098   3.843   2.910   9.074 -0.1250  0.0259 -0.3966
  552MOL0     C76099   3.789   2.911   9.223 -0.4308  1.1258  0.2201
  552MOL0     C76100   3.664   2.822   9.245 -0.1653 -0.0532  1.3167
  552MOL0     C76101   3.637   2.822   9.395  0.5412 -0.7386  0.2896
  552MOL0     C76102   3.587   2.955   9.441  0.3427 -0.8270 -0.8052
  552MOL0     C76103   3.556   3.068   9.486  1.0138 -0.1231  0.6002
  552MOL0     C76104   3.979   2.867   8.817  1.1397 -0.2225 -0.0782
  552MOL0     C76105   4.054   2.865   8.706  0.0418  0.9638  0.2830
  552MOL0     C76106   4.016   2.940   8.584  0.5649 -1.1528  0.3673
  552MOL0     H76107   4.517   3.016   8.586  0.1044  0.1489 -1.6756
  552MOL0     H76108   4.658   3.093   8.417 -0.3122  0.5468  0.5575
  552MOL0     H76109   4.936   2.811   8.139  0.9552 -0.0861  0.4718
  552MOL0     H76110   4.941   2.758   8.305  0.6493 -0.1108  1.1911
  552MOL0     H76111   5.049   3.021   8.209  1.0690 -0.6392 -1.0331
  552MOL0     H76112   5.063   2.957   8.370 -1.1192  0.4556  0.0535
  552MOL0     H76113   5.221   2.772   8.295 -3.2523  0.1644  1.8685
  552MOL0     H76114   5.188   2.827   8.126 -0.9898  0.1841 -0.1697
  552MOL0     H76115   5.290   3.055   8.184  1.6360 -1.2031 -1.9443
  552MOL0     H76116   5.334   2.999   8.347 -0.9169 -1.0700  1.0353
  552MOL0     H76117   5.470   2.808   8.200  1.8308  0.4769  0.2870
  552MOL0     H76118   5.536   2.965   8.246 -0.3752 -0.3645 -0.0162
  552MOL0     H76119   5.404   2.895   7.976  0.3043 -0.5191 -1.6335
  552MOL0     H76120   5.453   3.061   8.013  0.3622 -0.4954 -1.2941
  552MOL0     H76121   5.693   2.951   8.047  0.4510  0.7335  0.2696
  552MOL0     H76122   5.625   2.954   7.880  2.4982 -1.5208 -0.7997
  552MOL0     H76123   5.636   2.720   8.081  1.5258 -0.3777 -0.2098
  552MOL0     H76124   5.564   2.707   7.916  1.0601 -1.2234  0.2791
  552MOL0     H76125   5.722   2.750   7.713 -1.8707 -1.5840  0.8827
  552MOL0     H76126   5.914   2.678   7.580 -0.5360 -1.9745  0.3825
  552MOL0     H76127   6.018   2.559   7.641  1.0270  0.0628 -1.2302
  552MOL0     H76128   6.213   2.731   7.659  2.7468  2.6015 -2.2149
  552MOL0     H76129   6.141   2.732   7.500 -1.0756 -0.5088  0.5607
  552MOL0     H76130   5.980   2.916   7.593  0.8872 -0.8687 -0.9712
  552MOL0     H76131   6.093   2.915   7.736  1.8498 -0.2329  0.1509
  552MOL0     H76132   6.178   2.951   7.452 -1.4648 -1.2903  0.1645
  552MOL0     H76133   6.150   3.094   7.564 -0.3877 -0.6910  0.6443
  552MOL0     H76134   6.288   3.244   7.622  1.0282  1.9182 -0.6702
  552MOL0     H76135   6.478   3.465   7.692 -2.5604  1.8489  0.3399
  552MOL0     H76136   6.353   3.476   7.582 -0.6085 -3.2832 -0.5083
  552MOL0     H76137   6.503   3.514   7.520 -1.9088 -0.9411 -3.0108
  552MOL0     H76138   7.015   3.359   7.427  0.8155  1.4733  0.6597
  552MOL0     H76139   7.180   3.470   7.328 -0.1995  3.4484 -0.7690
  552MOL0     H76140   7.284   3.621   7.235 -1.7602 -1.0230  0.0181
  552MOL0     H76141   7.321   3.717   7.096  1.9539 -0.6640  0.8402
  552MOL0     H76142   7.056   3.759   7.239  1.0038 -0.7691  1.7610
  552MOL0     H76143   7.198   3.820   7.301  3.4296  0.1156 -2.0387
  552MOL0     H76144   7.081   3.990   7.162  1.0389  1.3265 -0.4613
  552MOL0     H76145   7.127   3.892   7.013  2.1024  2.9542 -0.4163
  552MOL0     H76146   7.373   3.926   7.069  0.5501  0.9105 -0.7149
  552MOL0     H76147   7.315   4.025   7.206 -2.6715  0.2219  0.8960
  552MOL0     H76148   7.256   4.063   6.908  1.9839  2.4589 -1.5690
  552MOL0     H76149   7.203   4.172   7.038 -1.1680 -1.9475  0.9908
  552MOL0     H76150   7.435   4.232   7.092 -0.2774  0.6576 -0.0659
  552MOL0     H76151   7.391   4.285   6.938  0.0462 -0.0445 -0.0633
  552MOL0     H76152   7.511   4.039   6.860  1.6928  1.6692 -2.6529
  552MOL0     H76153   7.576   4.053   7.016  0.2115  1.8660  0.0471
  552MOL0     H76154   7.627   4.308   6.957  2.9775 -0.2410  0.3525
  552MOL0     H76155   7.571   4.277   6.803  0.7008 -0.4288 -0.0743
  552MOL0     H76156   6.945   3.509   6.966  0.4204  1.6796  0.8463
  552MOL0     H76157   6.778   3.385   7.063  0.6726  0.0163 -0.5516
  552MOL0     H76158   6.713   3.066   7.439 -0.4644 -0.1429 -0.4874
  552MOL0     H76159   6.549   2.917   7.514 -1.2049  0.0483  0.8324
  552MOL0     H76160   4.754   2.670   8.338  0.4367 -0.9132  1.2847
  552MOL0     H76161   4.593   2.610   8.519 -1.0279  1.3378  2.9729
  552MOL0     H76162   4.302   2.673   8.842 -1.3347 -0.6142  0.0265
  552MOL0     H76163   4.156   2.670   9.019  1.2212  1.9643  1.0309
  552MOL0     H76164   3.887   3.006   9.045  0.3006 -0.0980 -0.1723
  552MOL0     H76165   3.756   2.880   9.015 -2.9286  0.8794  2.9662
  552MOL0     H76166   3.770   3.011   9.263 -1.3279  0.2599  2.0851
  552MOL0     H76167   3.867   2.866   9.285  0.9015  2.1046 -0.6921
  552MOL0     H76168   3.585   2.855   9.177  0.8521 -0.9042 -0.3368
  552MOL0     H76169   3.692   2.720   9.217  2.1280  0.8984 -0.0915
  552MOL0     H76170   3.733   2.809   9.447  0.1497 -1.3351  0.8636
  552MOL0     H76171   3.567   2.742   9.419 -1.1072  0.5209 -0.1389
  552MOL0     H76172   3.508   3.157   9.523 -1.8065 -0.5256 -1.6826
  552MOL0     H76173   3.886   2.924   8.818 -0.7579 -3.0533  2.5165
  552MOL0     H76174   4.011   2.872   8.498  1.0017 -0.7781  0.0412
  552MOL0     H76175   3.916   2.984   8.598  0.6702 -1.4358  2.1628
  552MOL0     H76176   4.083   3.022   8.558 -1.0007 -0.2099 -0.9092
  553MOL0     O76177   5.171   1.926   2.873 -0.4338  0.5547 -0.2132
  553MOL0     C76178   5.134   1.995   2.780 -0.2011  0.3359 -0.0220
  553MOL0     O76179   5.208   2.013   2.658 -0.5042 -0.1823 -0.1607
  553MOL0     C76180   5.313   1.932   2.623 -0.1373  0.0857  0.0432
  553MOL0     C76181   5.443   1.951   2.673  0.3580 -0.4181  0.1776
  553MOL0     C76182   5.549   1.866   2.628  0.6395  0.6789 -0.4066
  553MOL0     C76183   5.528   1.769   2.528  0.4051  0.3336 -0.1980
  553MOL0     O76184   5.621   1.675   2.487  0.0890  0.0910 -0.2130
  553MOL0     C76185   5.603   1.585   2.370  0.1246 -0.5582  0.0296
  553MOL0     C76186   5.743   1.539   2.331 -0.2812 -0.0521 -0.9757
  553MOL0     C76187   5.806   1.450   2.432  0.0230 -0.1463  0.5447
  553MOL0     C76188   5.942   1.401   2.382 -1.1869 -0.9222  0.3225
  553MOL0     C76189   6.012   1.286   2.465  0.5364  0.4140 -0.0604
  553MOL0     C76190   6.092   1.331   2.581 -0.0556  0.4199  0.5053
  553MOL0     C76191   6.178   1.220   2.641 -0.5320  0.3805 -0.8517
  553MOL0     C76192   6.092   1.124   2.727 -0.7742 -0.2924  0.1575
  553MOL0     N76193   6.184   1.061   2.828  0.2365 -0.2358 -0.4792
  553MOL0     C76194   6.264   1.124   2.923 -0.4500  0.1125 -0.8397
  553MOL0     C76195   6.328   1.019   2.986 -0.8428  0.0921 -0.6638
  553MOL0     C76196   6.430   1.037   3.092  0.1854 -0.5383 -0.1483
  553MOL0     C76197   6.572   0.983   3.060  0.6116  0.4100  0.1680
  553MOL0     C76198   6.660   1.075   2.977  0.5428  0.3955  0.7682
  553MOL0     C76199   6.731   1.186   3.052  0.0411 -0.7087 -0.1744
  553MOL0     O76200   6.640   1.301   3.083  0.2312 -0.1547 -0.6747
  553MOL0     C76201   6.608   1.385   2.985 -0.2327  0.5723  0.3296
  553MOL0     C76202   6.672   1.400   2.862 -0.1432 -0.7065 -0.2329
  553MOL0     C76203   6.627   1.480   2.759  0.6346 -0.7097  0.7529
  553MOL0     C76204   6.721   1.502   2.644 -0.8389  0.0681 -0.5605
  553MOL0     C76205   6.494   1.542   2.770  0.0326  0.9086  0.3253
  553MOL0     C76206   6.434   1.621   2.661  0.2315  0.4056 -0.2644
  553MOL0     O76207   6.331   1.692   2.698  0.0949 -0.3166 -0.0149
  553MOL0     C76208   6.247   1.753   2.613 -0.1293  0.1190  1.3605
  553MOL0     C76209   6.118   1.703   2.601 -0.3082 -0.3393 -0.2676
  553MOL0     C76210   6.030   1.757   2.506  0.4561  0.3533 -1.1283
  553MOL0     C76211   6.068   1.875   2.429 -0.2897 -0.4795  0.0897
  553MOL0     O76212   5.988   1.950   2.357 -0.3604  0.1033 -0.1084
  553MOL0     C76213   5.851   1.907   2.340  0.2766 -0.4465 -0.1096
  553MOL0     C76214   5.772   2.008   2.274  1.3138  0.3663 -0.4725
  553MOL0     C76215   5.646   1.940   2.208 -0.9214  0.0835  0.0542
  553MOL0     C76216   5.533   2.034   2.219  0.1193 -0.0285  0.0742
  553MOL0     C76217   5.404   1.969   2.164  0.3873 -0.0735 -0.9073
  553MOL0     C76218   5.280   2.055   2.201  0.0865 -0.2177  0.2218
  553MOL0     C76219   5.287   2.201   2.142 -0.8699 -0.6498 -0.1849
  553MOL0     C76220   5.152   2.264   2.144  0.4552  0.8228 -0.8417
  553MOL0    Cl76221   5.110   2.295   2.314 -0.2015  0.5056 -0.5754
  553MOL0     C76222   6.196   1.925   2.437 -0.0391  1.0191 -0.6958
  553MOL0     C76223   6.285   1.858   2.528  0.0570 -0.0557 -0.3766
  553MOL0     O76224   6.463   1.597   2.543  0.6064 -0.4374  0.1846
  553MOL0     C76225   6.428   1.520   2.895  0.0202  0.2184 -0.3715
  553MOL0     C76226   6.484   1.452   3.004 -0.4661 -0.0528 -0.1373
  553MOL0     N76227   6.297   0.903   2.923 -0.0095 -0.4028  0.0882
  553MOL0     N76228   6.213   0.931   2.827  0.6357  0.1272 -0.1119
  553MOL0     C76229   5.402   1.761   2.474  0.7833  0.0315 -0.2015
  553MOL0     C76230   5.301   1.847   2.517  0.7849  0.1627  0.6305
  553MOL0     C76231   4.992   2.054   2.793  0.6986  0.4340 -0.1940
  553MOL0     C76232   4.915   2.057   2.673 -0.3024 -0.2239 -0.7492
  553MOL0     C76233   4.783   2.108   2.675 -0.8013  0.3548  1.3320
  553MOL0     C76234   4.722   2.149   2.796 -0.4421 -0.7806  0.6217
  553MOL0     O76235   4.600   2.203   2.808  0.4609 -0.0724 -0.2739
  553MOL0     C76236   4.511   2.201   2.695 -0.4384 -0.2106  0.0440
  553MOL0     C76237   4.395   2.310   2.708 -0.0853  0.2510  0.0109
  553MOL0     C76238   4.277   2.295   2.608  1.0318 -0.3044  0.9296
  553MOL0     C76239   4.314   2.339   2.469  0.2820 -0.3106  0.1528
  553MOL0     C76240   4.314   2.483   2.456 -0.2191 -0.2253  0.7359
  553MOL0     C76241   4.306   2.598   2.422  0.9760  0.2551 -0.3000
  553MOL0     C76242   4.795   2.134   2.918 -0.3460 -0.8322 -1.0873
  553MOL0     C76243   4.932   2.086   2.919  0.3405 -0.1417  0.2402
  553MOL0     C76244   5.004   2.098   3.053 -0.7760 -0.5335 -1.1052
  553MOL0     H76245   5.458   2.025   2.751 -0.4769  0.6234 -0.6280
  553MOL0     H76246   5.649   1.869   2.670  1.6536 -0.1623 -2.6057
  553MOL0     H76247   5.564   1.626   2.277  1.0479  0.5996  0.1189
  553MOL0     H76248   5.541   1.501   2.403 -1.6804  0.9962  0.7806
  553MOL0     H76249   5.740   1.485   2.236 -1.4050  1.3566 -1.7745
  553MOL0     H76250   5.803   1.629   2.321  0.2211 -0.0076  1.6476
  553MOL0     H76251   5.818   1.505   2.526  0.2744 -0.8434  0.9295
  553MOL0     H76252   5.744   1.367   2.470 -1.9271 -0.2227 -2.4710
  553MOL0     H76253   5.922   1.363   2.281  2.6556 -3.1584  0.2037
  553MOL0     H76254   6.009   1.487   2.374 -2.4013 -0.1214 -2.8054
  553MOL0     H76255   6.081   1.239   2.395 -0.9731 -1.2804 -0.4722
  553MOL0     H76256   5.930   1.217   2.486 -0.4725  0.7574 -2.5547
  553MOL0     H76257   6.156   1.407   2.535 -3.7823  2.0390 -2.4879
  553MOL0     H76258   6.025   1.383   2.650 -0.8018 -0.2038  0.2569
  553MOL0     H76259   6.250   1.269   2.708 -0.5781 -0.9657  0.2333
  553MOL0     H76260   6.232   1.161   2.567 -1.6436 -0.4932 -1.0053
  553MOL0     H76261   6.023   1.184   2.788 -0.1413  1.1926 -0.5457
  553MOL0     H76262   6.044   1.044   2.669 -1.6773  1.3771 -1.4991
  553MOL0     H76263   6.266   1.232   2.932 -1.8450  0.0420  0.9674
  553MOL0     H76264   6.402   0.970   3.174  1.2348  0.6701  1.2501
  553MOL0     H76265   6.430   1.140   3.129 -0.1540  0.1377 -1.9086
  553MOL0     H76266   6.616   0.979   3.159  1.9637 -0.2388 -0.4432
  553MOL0     H76267   6.572   0.886   3.009  0.1781 -0.1095  1.1350
  553MOL0     H76268   6.741   1.016   2.932  1.0670  0.8442  1.1005
  553MOL0     H76269   6.602   1.115   2.894 -0.3475 -0.1551  1.1138
  553MOL0     H76270   6.767   1.141   3.146  2.2421  2.0999  0.4625
  553MOL0     H76271   6.829   1.217   3.014  0.0440 -0.5391 -0.0315
  553MOL0     H76272   6.765   1.348   2.840 -0.7878 -1.7005 -0.7037
  553MOL0     H76273   6.717   1.605   2.607  1.4018  0.4828  0.2221
  553MOL0     H76274   6.691   1.448   2.554  0.0093 -0.0849 -0.7583
  553MOL0     H76275   6.820   1.471   2.679 -0.2691  0.5763 -1.6815
  553MOL0     H76276   6.085   1.628   2.672 -0.6527 -0.3201 -0.4017
  553MOL0     H76277   5.927   1.726   2.518  0.9668 -1.5866 -1.3919
  553MOL0     H76278   5.859   1.818   2.278  2.1785 -0.4487  0.0784
  553MOL0     H76279   5.804   1.882   2.436  0.1331  1.4876  0.3658
  553MOL0     H76280   5.745   2.095   2.334 -0.1124  1.4196 -2.5190
  553MOL0     H76281   5.829   2.050   2.191  0.6844  1.1073 -0.5473
  553MOL0     H76282   5.623   1.847   2.261 -0.2127 -0.5011 -0.6319
  553MOL0     H76283   5.659   1.910   2.104 -0.5680 -2.6708  0.7908
  553MOL0     H76284   5.559   2.129   2.172  1.7921  0.3404  1.6134
  553MOL0     H76285   5.518   2.049   2.326  1.8752  1.0292  0.2024
  553MOL0     H76286   5.401   1.951   2.056 -2.0281 -3.5900 -0.4184
  553MOL0     H76287   5.401   1.868   2.206  3.2587  0.7558  1.7056
  553MOL0     H76288   5.274   2.060   2.310  0.2770 -2.2006  0.3623
  553MOL0     H76289   5.200   1.996   2.157  2.1007 -0.2368 -3.8383
  553MOL0     H76290   5.320   2.206   2.038 -1.7458  2.9510 -0.4198
  553MOL0     H76291   5.360   2.261   2.197  0.3303 -0.4719 -1.8996
  553MOL0     H76292   5.081   2.190   2.105  0.2466 -0.0802  1.1100
  553MOL0     H76293   5.151   2.357   2.087 -0.2088  0.3322 -1.6630
  553MOL0     H76294   6.224   2.009   2.375  2.8769  0.0891 -0.8168
  553MOL0     H76295   6.388   1.889   2.538  0.1877 -0.4265 -0.5492
  553MOL0     H76296   6.322   1.542   2.907  0.1161  0.6291 -0.2492
  553MOL0     H76297   6.437   1.445   3.102 -1.8156 -2.5826 -0.8532
  553MOL0     H76298   5.361   1.690   2.403 -2.4533 -0.6819  2.1265
  553MOL0     H76299   5.210   1.850   2.457 -0.0777 -3.6929  1.4844
  553MOL0     H76300   4.979   2.047   2.585  1.6379  1.1196  0.4360
  553MOL0     H76301   4.734   2.100   2.578  0.2608 -1.4181  0.8890
  553MOL0     H76302   4.574   2.227   2.610  3.6161 -1.2371  2.4929
  553MOL0     H76303   4.478   2.096   2.697  3.1076 -1.4392 -0.0639
  553MOL0     H76304   4.435   2.411   2.707 -1.6863  0.9420  1.5747
  553MOL0     H76305   4.350   2.311   2.808 -0.6675  1.8704 -0.2386
  553MOL0     H76306   4.257   2.188   2.611 -0.6303 -0.0405  0.2816
  553MOL0     H76307   4.191   2.354   2.643  1.3627 -0.5990  2.2932
  553MOL0     H76308   4.243   2.309   2.391 -0.1896 -0.5016  0.6491
  553MOL0     H76309   4.414   2.302   2.444  1.5827  0.9632  3.0577
  553MOL0     H76310   4.300   2.704   2.414  0.3165  0.3413  1.0032
  553MOL0     H76311   4.750   2.168   3.011  3.0113  0.0594  0.3487
  553MOL0     H76312   4.959   2.183   3.106  0.3627 -0.6985  0.1626
  553MOL0     H76313   4.993   2.005   3.108  1.6567 -0.0116  0.3795
  553MOL0     H76314   5.108   2.132   3.046 -1.0081  1.1183  1.7685
  554MOL0     O76315   0.031   8.143  10.836  0.0611 -0.8334 -0.4402
  554MOL0     C76316  -0.051   8.224  10.797  0.4066  1.3225  0.5887
  554MOL0     O76317  -0.028   8.340  10.725  0.0103 -0.7769 -0.3781
  554MOL0     C76318   0.094   8.355  10.666 -0.0476  0.0800  1.3103
  554MOL0     C76319   0.090   8.417  10.536  0.5511  0.2638  0.5778
  554MOL0     C76320   0.198   8.474  10.475 -0.2381  0.3540 -0.1657
  554MOL0     C76321   0.322   8.465  10.538 -0.0210 -1.2045 -0.2885
  554MOL0     O76322   0.428   8.512  10.470 -0.0843  0.4387 -0.1725
  554MOL0     C76323   0.516   8.404  10.426  0.0794  0.8956  0.2318
  554MOL0     C76324   0.652   8.433  10.477  0.1605  0.3062 -0.4185
  554MOL0     C76325   0.712   8.542  10.386 -0.9338 -0.1997  0.2980
  554MOL0     C76326   0.859   8.556  10.439 -0.9482 -0.2807  0.5172
  554MOL0     C76327   0.936   8.631  10.323 -0.4430 -0.9414  0.7738
  554MOL0     C76328   1.071   8.681  10.371 -0.1542 -0.4959  0.0490
  554MOL0     C76329   1.121   8.785  10.259 -0.2775  0.3111 -0.2906
  554MOL0     C76330   1.271   8.808  10.270  0.2702  0.2383 -0.1678
  554MOL0     N76331   1.316   8.856  10.400 -0.8845 -0.1105 -0.3075
  554MOL0     C76332   1.274   8.972  10.457 -0.1794 -0.9867 -0.4872
  554MOL0     C76333   1.319   8.976  10.586 -0.3997  0.1143 -0.3041
  554MOL0     C76334   1.297   9.090  10.694  0.3182  0.7232  0.8355
  554MOL0     C76335   1.420   9.132  10.767  0.3842 -0.3359  0.5936
  554MOL0     C76336   1.457   9.036  10.878  0.5350  0.5048 -0.2828
  554MOL0     C76337   1.592   9.044  10.930  0.0227 -0.1128 -0.8167
  554MOL0     O76338   1.597   9.177  10.993 -0.0078  0.6489  0.3675
  554MOL0     C76339   1.720   9.221  11.034 -0.3218  0.8715  0.0599
  554MOL0     C76340   1.841   9.150  11.019 -0.9168 -0.5572  0.0491
  554MOL0     C76341   1.970   9.205  11.064  0.4817 -0.2033 -0.5167
  554MOL0     C76342   2.087   9.135  11.007  0.1484 -0.1237 -0.1438
  554MOL0     C76343   1.972   9.329  11.133  0.7139 -0.0248  0.2338
  554MOL0     C76344   2.100   9.382  11.188  0.6392  0.3766 -0.8332
  554MOL0     O76345   2.202   9.296  11.213  0.2029  0.2103  0.4500
  554MOL0     C76346   2.319   9.356  11.259 -0.3563 -0.4321 -0.7273
  554MOL0     C76347   2.329   9.406  11.386 -0.0255  0.4794  0.8185
  554MOL0     C76348   2.442   9.478  11.437  0.7108 -0.2550 -0.0474
  554MOL0     C76349   2.554   9.491  11.364  0.1983 -0.9458  0.0694
  554MOL0     O76350   2.669   9.537  11.425  0.0751  0.2223  0.4473
  554MOL0     C76351   2.652   9.661  11.495 -0.2102 -0.5775  0.4546
  554MOL0     C76352   2.770   9.745  11.462 -0.5978 -0.1887  0.2063
  554MOL0     C76353   2.886   9.678  11.521 -0.8009  0.7741  0.4683
  554MOL0     C76354   3.015   9.759  11.500 -0.3994 -0.0152 -0.5590
  554MOL0     C76355   3.148   9.679  11.532 -0.3196  0.3186  0.2414
  554MOL0     C76356   3.149   9.616  11.668 -1.7504  0.3253 -0.1461
  554MOL0     C76357   3.296   9.577  11.715 -0.6210  0.5688  0.1797
  554MOL0     C76358   3.337   9.445  11.644  0.1198 -0.1030  0.2545
  554MOL0    Cl76359   3.260   9.307  11.735  0.2444 -0.1194  0.2924
  554MOL0     C76360   2.546   9.437  11.239  0.8901 -0.2334  0.6336
  554MOL0     C76361   2.431   9.378  11.191  0.1157 -0.3627 -0.3691
  554MOL0     O76362   2.097   9.499  11.208 -0.1116 -0.5861  0.3272
  554MOL0     C76363   1.840   9.381  11.156 -0.3112  0.2790  0.3707
  554MOL0     C76364   1.715   9.338  11.106 -0.1258  0.8451 -0.3267
  554MOL0     N76365   1.381   8.856  10.606  0.0326 -0.5483 -1.3642
  554MOL0     N76366   1.384   8.787  10.499 -0.2618 -0.8870 -0.4383
  554MOL0     C76367   0.331   8.400  10.661  0.0613 -0.0658 -0.8271
  554MOL0     C76368   0.221   8.345  10.728 -0.1526 -0.4665  0.2776
  554MOL0     C76369  -0.194   8.215  10.828  0.4131  0.3882 -0.2084
  554MOL0     C76370  -0.284   8.300  10.766  0.4232  0.1099 -0.1700
  554MOL0     C76371  -0.417   8.282  10.781  0.9031  0.0198  0.5704
  554MOL0     C76372  -0.474   8.182  10.862  0.6319 -0.3767  1.0051
  554MOL0     O76373  -0.605   8.169  10.902 -0.1575  0.5265  0.3180
  554MOL0     C76374  -0.693   8.167  10.794  1.0284  0.4142  0.4049
  554MOL0     C76375  -0.824   8.157  10.869 -0.5278  0.4199 -0.8582
  554MOL0     C76376  -0.856   8.009  10.906 -0.2024 -0.0036 -0.2678
  554MOL0     C76377  -1.003   7.986  10.954 -0.0613 -0.1279 -0.2313
  554MOL0     C76378  -1.014   7.861  11.030 -0.2104  1.4089 -0.3191
  554MOL0     C76379  -1.029   7.760  11.095  0.0879  0.2406  0.2079
  554MOL0     C76380  -0.381   8.089  10.914 -0.4409  0.3631  0.0334
  554MOL0     C76381  -0.247   8.098  10.899 -0.4327 -0.1708 -0.2677
  554MOL0     C76382  -0.165   8.012  10.988 -0.4030  0.4075  0.1881
  554MOL0     H76383  -0.008   8.443  10.496 -0.2741 -2.3939  0.6570
  554MOL0     H76384   0.194   8.524  10.380  0.2354  0.6737 -0.0184
  554MOL0     H76385   0.510   8.419  10.318  0.3183 -3.4464 -0.5770
  554MOL0     H76386   0.491   8.301  10.455  1.7959  0.7021  1.1497
  554MOL0     H76387   0.639   8.474  10.578  1.3650 -1.2999  0.4231
  554MOL0     H76388   0.716   8.345  10.472  0.5782  0.6149 -0.5863
  554MOL0     H76389   0.718   8.510  10.282  3.9516  1.5738 -0.2434
  554MOL0     H76390   0.651   8.633  10.387 -3.4855 -1.7631 -1.8728
  554MOL0     H76391   0.862   8.610  10.533  3.7663  0.3130  0.2835
  554MOL0     H76392   0.920   8.466  10.453  0.5488  0.5207 -0.4775
  554MOL0     H76393   0.874   8.716  10.291  2.5364  1.0920  0.0082
  554MOL0     H76394   0.955   8.563  10.240  1.4226 -1.7190  1.7948
  554MOL0     H76395   1.052   8.734  10.464 -2.6986  1.3287 -1.3762
  554MOL0     H76396   1.146   8.603  10.383  0.2247 -0.2490 -0.6419
  554MOL0     H76397   1.077   8.883  10.282 -2.2693 -1.1141  2.6494
  554MOL0     H76398   1.096   8.762  10.155 -0.7013  3.4097 -1.0039
  554MOL0     H76399   1.330   8.718  10.250  0.6812  0.2973  0.7160
  554MOL0     H76400   1.303   8.878  10.192  1.5875 -2.0742 -1.8517
  554MOL0     H76401   1.217   9.051  10.410  0.2674 -0.4680 -0.1727
  554MOL0     H76402   1.220   9.054  10.763  0.3067  0.7444  0.8333
  554MOL0     H76403   1.250   9.168  10.634  0.9048 -0.3538 -1.0862
  554MOL0     H76404   1.507   9.141  10.703 -0.2288  0.5353 -0.1415
  554MOL0     H76405   1.397   9.225  10.820  1.9212  1.5624 -1.8816
  554MOL0     H76406   1.397   9.049  10.968  2.2647  0.5732  0.9095
  554MOL0     H76407   1.446   8.933  10.842  0.9565  0.8239 -1.3625
  554MOL0     H76408   1.615   8.968  11.006 -1.0767  0.2794 -0.0741
  554MOL0     H76409   1.660   9.050  10.844  1.9672  2.9713  0.7434
  554MOL0     H76410   1.842   9.054  10.969  0.7410 -2.5106  3.4050
  554MOL0     H76411   2.120   9.075  11.093 -0.7597  1.6968  1.5769
  554MOL0     H76412   2.169   9.203  10.983 -0.3040 -0.0612 -1.6008
  554MOL0     H76413   2.068   9.069  10.922 -3.0264 -0.3377  0.6114
  554MOL0     H76414   2.251   9.389  11.461  1.4051 -2.5967  1.7824
  554MOL0     H76415   2.433   9.519  11.537 -2.7708  1.6782 -0.9826
  554MOL0     H76416   2.556   9.709  11.473 -0.2773 -0.9439 -0.0653
  554MOL0     H76417   2.652   9.646  11.603  0.8908  0.1651  0.5868
  554MOL0     H76418   2.782   9.756  11.354  0.1336  0.7425  0.3632
  554MOL0     H76419   2.757   9.845  11.505 -1.6648 -0.1437 -0.1898
  554MOL0     H76420   2.898   9.581  11.472 -1.0143 -0.1393  2.1524
  554MOL0     H76421   2.873   9.663  11.629  1.4290 -1.3985  0.5291
  554MOL0     H76422   3.019   9.843  11.570  1.7430 -1.6277  1.4197
  554MOL0     H76423   3.023   9.789  11.395  0.4704 -1.5486 -0.9705
  554MOL0     H76424   3.153   9.600  11.456  1.6377  0.8157 -0.1936
  554MOL0     H76425   3.231   9.746  11.510 -2.0847  2.2058 -0.9783
  554MOL0     H76426   3.085   9.528  11.678 -1.1889  0.0414  1.0826
  554MOL0     H76427   3.124   9.693  11.741 -4.9240 -0.4503 -0.2726
  554MOL0     H76428   3.296   9.569  11.824 -1.9691 -1.4771  0.0885
  554MOL0     H76429   3.370   9.653  11.687 -0.9299  1.6347  2.0776
  554MOL0     H76430   3.444   9.425  11.632 -0.6236 -2.5290 -4.6024
  554MOL0     H76431   3.303   9.444  11.540  0.3325 -1.3671  0.1860
  554MOL0     H76432   2.624   9.450  11.164  0.2203 -0.7384 -0.1693
  554MOL0     H76433   2.452   9.346  11.090  1.2635 -3.1489  0.6436
  554MOL0     H76434   1.834   9.469  11.219  1.1898  2.3868 -2.1989
  554MOL0     H76435   1.625   9.387  11.139 -1.0002 -1.9053  1.7754
  554MOL0     H76436   0.426   8.380  10.710 -1.1966 -2.0911  0.9793
  554MOL0     H76437   0.218   8.305  10.829 -0.5638  1.1151  0.9264
  554MOL0     H76438  -0.253   8.389  10.712 -2.0352  0.4696 -1.1252
  554MOL0     H76439  -0.472   8.357  10.726 -0.8042 -2.7245 -1.7442
  554MOL0     H76440  -0.679   8.265  10.746  1.3620  0.0811 -0.1939
  554MOL0     H76441  -0.678   8.089  10.719 -0.6897  0.6985 -0.2875
  554MOL0     H76442  -0.899   8.191  10.798 -0.8290 -0.1798 -0.8286
  554MOL0     H76443  -0.820   8.214  10.963  0.0281  0.8174 -1.1155
  554MOL0     H76444  -0.832   7.941  10.823 -0.7024  0.3748 -0.7274
  554MOL0     H76445  -0.787   7.987  10.988 -1.6825 -1.4766  0.6573
  554MOL0     H76446  -1.076   7.996  10.873  0.7877  0.0051 -1.0065
  554MOL0     H76447  -1.040   8.064  11.021 -1.8371 -2.0807  1.1679
  554MOL0     H76448  -1.042   7.670  11.152 -1.4919  0.9804  1.0603
  554MOL0     H76449  -0.423   8.009  10.974 -1.3441 -0.4805 -1.6663
  554MOL0     H76450  -0.101   7.943  10.932  2.4045  1.1842  2.1699
  554MOL0     H76451  -0.099   8.080  11.044 -0.4287  2.3626 -1.9964
  554MOL0     H76452  -0.218   7.947  11.058  2.5566 -2.2177  0.2512
  555MOL0     O76453   1.165   8.424   5.934  0.3808  0.2919 -0.0873
  555MOL0     C76454   1.224   8.313   5.936  1.0342 -0.7141  0.2726
  555MOL0     O76455   1.181   8.201   5.991  1.1929 -0.9200  0.2507
  555MOL0     C76456   1.060   8.203   6.057 -0.2131  0.1402  0.2456
  555MOL0     C76457   1.000   8.307   6.124 -0.4045 -0.2970 -0.8264
  555MOL0     C76458   0.871   8.296   6.181 -0.2742 -0.2669 -0.1743
  555MOL0     C76459   0.805   8.170   6.183 -0.5023  0.1084 -0.1761
  555MOL0     O76460   0.689   8.146   6.247 -0.0773 -0.0989 -0.0153
  555MOL0     C76461   0.617   8.255   6.303  0.1469  0.1112 -0.4155
  555MOL0     C76462   0.478   8.197   6.350  0.1535  0.5227  0.1116
  555MOL0     C76463   0.373   8.198   6.236  0.2589  0.2781 -1.2614
  555MOL0     C76464   0.253   8.112   6.274  0.4948  0.1291  0.4122
  555MOL0     C76465   0.126   8.143   6.192  0.1828 -1.3745 -0.8143
  555MOL0     C76466   0.018   8.070   6.271 -0.5072  0.8768  0.0412
  555MOL0     C76467  -0.111   8.053   6.185  0.0158  0.2223 -0.6365
  555MOL0     C76468  -0.095   7.943   6.081 -0.4930 -0.9135  0.6816
  555MOL0     N76469  -0.221   7.929   6.003 -0.5705 -1.1966  0.1365
  555MOL0     C76470  -0.332   7.866   6.054 -0.2084  0.6257  0.0086
  555MOL0     C76471  -0.415   7.861   5.948  0.4587  0.2134  0.2462
  555MOL0     C76472  -0.551   7.793   5.941 -0.1266 -0.9119 -0.5781
  555MOL0     C76473  -0.575   7.660   6.027  0.3943 -0.1738  0.0853
  555MOL0     C76474  -0.666   7.691   6.146  0.2556 -0.4135 -0.2069
  555MOL0     C76475  -0.808   7.709   6.115 -0.4381  0.6933 -0.0126
  555MOL0     O76476  -0.875   7.592   6.056 -0.8893  0.2964 -0.7029
  555MOL0     C76477  -1.012   7.568   6.062 -0.1147 -0.0121 -0.9305
  555MOL0     C76478  -1.046   7.439   6.014  0.9333 -0.0581  0.1848
  555MOL0     C76479  -1.167   7.381   6.030  0.7557 -0.0144  0.2933
  555MOL0     C76480  -1.200   7.245   5.978  1.2420  0.5222  0.3680
  555MOL0     C76481  -1.273   7.461   6.076  0.0860 -0.5246 -0.2722
  555MOL0     C76482  -1.413   7.425   6.083 -1.1328  0.4333 -0.0888
  555MOL0     O76483  -1.442   7.340   6.190 -0.2046 -0.6314  0.0822
  555MOL0     C76484  -1.569   7.291   6.209 -0.0126  0.6173  0.7446
  555MOL0     C76485  -1.655   7.327   6.318 -0.4931 -0.5466  0.0205
  555MOL0     C76486  -1.777   7.269   6.322  1.1460  0.3471  1.1437
  555MOL0     C76487  -1.829   7.192   6.212  0.0475 -0.2736 -0.6557
  555MOL0     O76488  -1.955   7.146   6.192  0.1200 -0.2689 -0.2536
  555MOL0     C76489  -2.002   7.051   6.289 -0.4203 -0.2374 -0.2190
  555MOL0     C76490  -2.135   6.990   6.237 -0.4924 -0.0931 -0.4026
  555MOL0     C76491  -2.262   7.063   6.288  0.0885 -0.3936  1.0031
  555MOL0     C76492  -2.387   6.985   6.254  0.4796 -0.0183  0.6699
  555MOL0     C76493  -2.511   7.071   6.249 -0.3659 -0.0139  0.7102
  555MOL0     C76494  -2.642   7.012   6.187  0.3547 -0.0960  0.3781
  555MOL0     C76495  -2.761   7.107   6.219 -0.4699  0.1225 -0.4906
  555MOL0     C76496  -2.888   7.056   6.154 -0.7669 -0.6130  0.4773
  555MOL0    Cl76497  -2.881   7.030   5.974 -0.2415 -0.2242  0.1688
  555MOL0     C76498  -1.741   7.161   6.106  0.8366  0.0666 -0.6493
  555MOL0     C76499  -1.612   7.208   6.104 -0.5107 -0.3666 -0.1081
  555MOL0     O76500  -1.496   7.479   6.012 -0.7488 -0.5099 -0.5370
  555MOL0     C76501  -1.249   7.602   6.113 -0.3335  0.5594  0.0734
  555MOL0     C76502  -1.115   7.649   6.101 -0.4615  0.3103  0.2392
  555MOL0     N76503  -0.366   7.931   5.839 -0.1242 -0.2632 -0.3194
  555MOL0     N76504  -0.247   7.969   5.874  0.1469  0.3811  0.0792
  555MOL0     C76505   0.867   8.065   6.114 -0.4613  0.3085  0.0273
  555MOL0     C76506   0.996   8.081   6.061  0.4885  0.1660 -0.4929
  555MOL0     C76507   1.356   8.303   5.876  0.1601 -0.3725 -0.2560
  555MOL0     C76508   1.455   8.254   5.958  0.2404  0.8386 -0.1644
  555MOL0     C76509   1.584   8.242   5.903  0.3874  0.5098  0.4172
  555MOL0     C76510   1.620   8.278   5.777  0.9714 -0.8515  0.7318
  555MOL0     O76511   1.742   8.240   5.730  0.4157 -0.4046  0.5936
  555MOL0     C76512   1.775   8.276   5.596  0.5463  0.8116 -0.4075
  555MOL0     C76513   1.914   8.228   5.569  0.1066  0.7042 -0.0730
  555MOL0     C76514   1.928   8.075   5.548  0.1203  0.2314 -0.0852
  555MOL0     C76515   2.076   8.040   5.506 -0.0859 -0.0923 -0.0439
  555MOL0     C76516   2.080   8.022   5.355 -0.2371 -0.5142  0.2021
  555MOL0     C76517   2.076   7.998   5.235  0.0027  0.2012 -0.4589
  555MOL0     C76518   1.518   8.335   5.694 -0.4153  0.9722  0.1570
  555MOL0     C76519   1.385   8.345   5.739 -0.6249 -0.1840  0.4690
  555MOL0     C76520   1.268   8.381   5.656  0.4385 -0.7440  0.6835
  555MOL0     H76521   1.057   8.397   6.145  2.0281 -1.9138 -0.1419
  555MOL0     H76522   0.831   8.384   6.230  0.1201 -0.3404  0.2944
  555MOL0     H76523   0.605   8.333   6.227  2.4359  1.0544  0.1132
  555MOL0     H76524   0.660   8.297   6.394 -4.6427 -0.8244  2.6820
  555MOL0     H76525   0.480   8.094   6.386 -3.5405 -0.1068 -1.0817
  555MOL0     H76526   0.441   8.257   6.434  0.5965 -0.1214  0.7850
  555MOL0     H76527   0.338   8.302   6.228 -0.0652  0.4328  1.1478
  555MOL0     H76528   0.417   8.157   6.146 -0.3914 -0.4269 -1.2707
  555MOL0     H76529   0.276   8.005   6.273 -2.6100 -0.6751  2.0027
  555MOL0     H76530   0.231   8.148   6.376  0.4055  0.7732  0.1699
  555MOL0     H76531   0.142   8.100   6.093  0.9624  2.7769 -2.7175
  555MOL0     H76532   0.113   8.251   6.197  1.4854 -1.2235 -0.2992
  555MOL0     H76533   0.062   7.980   6.315  2.3852  2.2209  0.1890
  555MOL0     H76534   0.005   8.124   6.365 -0.3363 -3.0886  2.5825
  555MOL0     H76535  -0.142   8.149   6.141 -2.2507  0.6649  1.6709
  555MOL0     H76536  -0.199   8.024   6.244 -2.8668  1.1694 -4.0634
  555MOL0     H76537  -0.018   7.977   6.011 -1.2031  0.3773  0.5111
  555MOL0     H76538  -0.049   7.850   6.117  0.4541 -0.8045 -0.2002
  555MOL0     H76539  -0.347   7.829   6.155  1.7797  0.4114  0.2746
  555MOL0     H76540  -0.587   7.773   5.840  1.7961 -1.9818 -1.1019
  555MOL0     H76541  -0.618   7.872   5.975 -1.6093 -2.4607  0.2597
  555MOL0     H76542  -0.627   7.584   5.967 -1.4167  1.1809 -0.1393
  555MOL0     H76543  -0.478   7.626   6.064  0.0162  0.0609  1.3438
  555MOL0     H76544  -0.669   7.600   6.206  1.4500 -1.2820 -1.4075
  555MOL0     H76545  -0.624   7.782   6.189 -1.8403  0.9276 -0.8367
  555MOL0     H76546  -0.856   7.729   6.211 -0.7345 -0.5837  0.1174
  555MOL0     H76547  -0.831   7.790   6.045 -1.2642  0.5453  0.0751
  555MOL0     H76548  -0.962   7.372   5.996  1.3872  0.2303  1.1435
  555MOL0     H76549  -1.107   7.204   5.936  1.6169  0.5399  1.1502
  555MOL0     H76550  -1.282   7.256   5.907 -2.4180 -3.2319  3.4375
  555MOL0     H76551  -1.236   7.175   6.054 -2.7240  2.0729  0.1661
  555MOL0     H76552  -1.631   7.408   6.385 -3.5743  0.9264 -0.4987
  555MOL0     H76553  -1.835   7.302   6.408 -0.9191  0.0244 -0.0362
  555MOL0     H76554  -1.927   6.973   6.301 -0.8728 -0.5087  1.0827
  555MOL0     H76555  -2.030   7.098   6.384  0.1115 -0.2445 -0.0577
  555MOL0     H76556  -2.136   6.983   6.128  2.0873  1.7876 -0.6256
  555MOL0     H76557  -2.136   6.885   6.269  0.1567 -0.2127 -0.7664
  555MOL0     H76558  -2.267   7.167   6.252 -0.9443 -0.9222 -0.4431
  555MOL0     H76559  -2.263   7.079   6.397 -0.5514 -0.3243  0.9912
  555MOL0     H76560  -2.397   6.902   6.326  1.0506  1.1653  2.1728
  555MOL0     H76561  -2.373   6.937   6.157 -1.0301  0.8157  0.0110
  555MOL0     H76562  -2.520   7.096   6.355  2.2579  0.9819  0.7732
  555MOL0     H76563  -2.490   7.165   6.198  2.5571 -1.6319 -1.3693
  555MOL0     H76564  -2.662   6.911   6.225 -0.1309 -0.9102 -1.8720
  555MOL0     H76565  -2.634   7.007   6.078 -1.2282 -0.1515  0.2425
  555MOL0     H76566  -2.744   7.212   6.195 -1.1395  0.5997  0.9838
  555MOL0     H76567  -2.780   7.111   6.327  1.1074  1.1696 -0.2160
  555MOL0     H76568  -2.972   7.124   6.172 -1.1796 -0.7963 -0.6551
  555MOL0     H76569  -2.913   6.962   6.203  2.1681 -0.7707  1.8743
  555MOL0     H76570  -1.776   7.112   6.016 -1.1692 -0.0525  0.1561
  555MOL0     H76571  -1.559   7.186   6.012 -2.3295 -1.6916 -0.9036
  555MOL0     H76572  -1.324   7.668   6.155 -2.3772 -1.7239  0.2702
  555MOL0     H76573  -1.098   7.750   6.137 -1.2697 -0.4275  2.8734
  555MOL0     H76574   0.812   7.972   6.119  1.2698 -0.7568  0.0177
  555MOL0     H76575   1.049   7.996   6.020 -1.3779 -0.8696 -0.8763
  555MOL0     H76576   1.443   8.219   6.060  0.2049  1.3725  0.0195
  555MOL0     H76577   1.663   8.191   5.957  1.2162  2.3972  1.0643
  555MOL0     H76578   1.702   8.234   5.526  0.0108  0.5452  0.2925
  555MOL0     H76579   1.778   8.384   5.579 -0.0327  0.5787 -2.1976
  555MOL0     H76580   1.976   8.256   5.655  0.1974  0.1973  0.0356
  555MOL0     H76581   1.948   8.290   5.486  1.5907  1.1955  0.8558
  555MOL0     H76582   1.901   8.017   5.637  0.5625 -1.5384 -1.0573
  555MOL0     H76583   1.860   8.038   5.471  0.6091  0.7411 -0.7721
  555MOL0     H76584   2.098   7.941   5.547 -1.1054 -0.7374 -0.9823
  555MOL0     H76585   2.149   8.116   5.533 -0.2073 -0.3326  0.9783
  555MOL0     H76586   2.076   7.989   5.128  0.4004  3.1169 -0.7781
  555MOL0     H76587   1.547   8.378   5.599  3.5580 -1.2382  0.1351
  555MOL0     H76588   1.277   8.388   5.547 -2.5774 -1.3705  0.3147
  555MOL0     H76589   1.182   8.319   5.684 -2.3217  1.5616 -1.9265
  555MOL0     H76590   1.236   8.480   5.690 -0.2146 -0.4503 -0.7233
  556MOL0     O76591   9.209  10.318   5.225  0.0682 -0.0370 -0.4293
  556MOL0     C76592   9.163  10.357   5.332  0.3788 -0.2432  0.3561
  556MOL0     O76593   9.216  10.332   5.452  0.9774 -0.5873 -0.8038
  556MOL0     C76594   9.343  10.285   5.447  0.1822  0.6531 -0.5773
  556MOL0     C76595   9.448  10.377   5.458 -0.0505  0.5213  0.2871
  556MOL0     C76596   9.576  10.337   5.452  0.1087 -0.1243  0.6184
  556MOL0     C76597   9.607  10.198   5.436  0.3513 -0.3026 -0.4310
  556MOL0     O76598   9.730  10.145   5.420  0.2479  0.5363 -0.2198
  556MOL0     C76599   9.844  10.241   5.416  0.0550 -1.1912 -0.4201
  556MOL0     C76600   9.975  10.170   5.432  1.3170 -0.4058 -0.9941
  556MOL0     C76601  10.076  10.266   5.503  0.6121 -0.1355  0.2729
  556MOL0     C76602  10.218  10.234   5.456  0.2990 -0.2301 -0.3008
  556MOL0     C76603  10.277  10.110   5.537  0.7141  0.2957 -0.8137
  556MOL0     C76604  10.403  10.078   5.465  0.2667  0.2806  0.0473
  556MOL0     C76605  10.517  10.154   5.527 -0.5114  0.0939  0.1158
  556MOL0     C76606  10.645  10.120   5.452  1.2871  0.0284 -0.0707
  556MOL0     N76607  10.702   9.985   5.474 -0.1496 -0.1061  0.2796
  556MOL0     C76608  10.732   9.933   5.598  0.1207  0.3850 -0.2929
  556MOL0     C76609  10.803   9.822   5.571  0.5901 -0.7494 -0.3921
  556MOL0     C76610  10.871   9.724   5.660  0.3998  0.4428 -0.6947
  556MOL0     C76611  10.977   9.788   5.756 -0.4400 -0.2410 -0.3339
  556MOL0     C76612  11.027   9.676   5.849 -0.3856  0.4383 -0.1954
  556MOL0     C76613  11.155   9.723   5.925  0.2339  0.7839 -0.2941
  556MOL0     O76614  11.182   9.592   5.987  1.1801  0.0666 -0.2801
  556MOL0     C76615  11.280   9.594   6.086  0.0113  0.3059  0.5029
  556MOL0     C76616  11.366   9.698   6.113 -0.0370 -0.6197 -0.1040
  556MOL0     C76617  11.471   9.682   6.207 -0.4074 -1.3820 -0.1202
  556MOL0     C76618  11.587   9.792   6.221 -0.0677  0.6529 -0.5020
  556MOL0     C76619  11.473   9.569   6.289 -0.0109 -0.4625 -0.1241
  556MOL0     C76620  11.574   9.551   6.390  0.3351 -0.0451  0.1286
  556MOL0     O76621  11.635   9.427   6.390  0.2415 -0.6543 -0.1675
  556MOL0     C76622  11.766   9.428   6.435 -0.3168  0.5438 -0.7797
  556MOL0     C76623  11.862   9.422   6.332 -0.1224 -0.4349  0.4247
  556MOL0     C76624  12.000   9.424   6.365 -0.0407  1.0874  0.3129
  556MOL0     C76625  12.047   9.416   6.494 -0.1544  0.4462 -0.1759
  556MOL0     O76626  12.178   9.380   6.511  0.2214 -0.2601  0.7683
  556MOL0     C76627  12.233   9.344   6.638  0.6248  0.0540  0.0317
  556MOL0     C76628  12.369   9.273   6.625 -0.0047  0.5152  0.0162
  556MOL0     C76629  12.476   9.359   6.541  0.6846  0.9156 -1.1285
  556MOL0     C76630  12.621   9.307   6.557  0.0677  0.2460 -0.2235
  556MOL0     C76631  12.720   9.392   6.482 -1.1563 -1.1059 -0.4986
  556MOL0     C76632  12.859   9.334   6.505 -0.2459  0.6481 -0.0254
  556MOL0     C76633  12.952   9.365   6.385 -0.3418 -0.4182 -1.0251
  556MOL0     C76634  12.985   9.516   6.376 -0.1125  0.4063  0.8014
  556MOL0    Cl76635  13.126   9.523   6.255  0.3824 -0.5453  0.3125
  556MOL0     C76636  11.947   9.431   6.594 -0.5225  0.8445  0.2349
  556MOL0     C76637  11.814   9.435   6.567  0.7844 -0.6137  0.7207
  556MOL0     O76638  11.592   9.637   6.478 -0.2316 -1.0167  0.1048
  556MOL0     C76639  11.386   9.461   6.257 -0.5801  0.4594  0.4575
  556MOL0     C76640  11.293   9.471   6.156  0.1875 -1.1038 -0.6855
  556MOL0     N76641  10.827   9.819   5.440  0.2399 -0.2603  0.5942
  556MOL0     N76642  10.775   9.923   5.386  0.0014  0.2173  0.4303
  556MOL0     C76643   9.504  10.101   5.443 -0.5148 -0.3494 -0.3446
  556MOL0     C76644   9.375  10.150   5.445  0.5746 -0.7375 -0.3477
  556MOL0     C76645   9.032  10.422   5.324 -0.5358 -0.3034 -0.3766
  556MOL0     C76646   8.934  10.366   5.240  0.2630 -0.0157 -0.0741
  556MOL0     C76647   8.805  10.412   5.238  0.3956 -0.1717 -0.1726
  556MOL0     C76648   8.770  10.523   5.309 -0.4920 -0.5732  0.0763
  556MOL0     O76649   8.642  10.567   5.299 -0.0272  0.3205 -0.3815
  556MOL0     C76650   8.604  10.711   5.314  0.6829 -0.3645  0.1397
  556MOL0     C76651   8.647  10.783   5.187 -0.6410  0.7254 -0.0692
  556MOL0     C76652   8.580  10.718   5.063  0.0561  0.0154 -0.7670
  556MOL0     C76653   8.608  10.788   4.930  0.1507 -1.0219 -0.4313
  556MOL0     C76654   8.518  10.905   4.920  0.4903  0.2531  0.2884
  556MOL0     C76655   8.444  11.000   4.903 -0.5648  0.1444  0.3024
  556MOL0     C76656   8.867  10.591   5.390 -0.2296  0.0719 -0.1832
  556MOL0     C76657   8.999  10.541   5.399  0.4181 -0.2482  0.2825
  556MOL0     C76658   9.095  10.616   5.483 -0.1013 -0.0735  0.3492
  556MOL0     H76659   9.424  10.481   5.476 -1.8088  0.1712  0.1611
  556MOL0     H76660   9.656  10.411   5.450 -1.6297  1.8586  0.9391
  556MOL0     H76661   9.823  10.301   5.505  1.8529 -1.8530  0.4958
  556MOL0     H76662   9.847  10.293   5.320  0.8681  1.2025  0.8209
  556MOL0     H76663   9.968  10.075   5.485 -1.7733 -0.3864 -1.1774
  556MOL0     H76664   9.992  10.145   5.328 -2.2073 -0.4199 -1.6955
  556MOL0     H76665  10.075  10.374   5.486 -0.2919  0.0234  1.2682
  556MOL0     H76666  10.081  10.254   5.612  2.3393  0.1908  0.2719
  556MOL0     H76667  10.218  10.214   5.349 -1.6529 -1.7653 -0.0801
  556MOL0     H76668  10.287  10.314   5.483 -1.8244  1.8225 -0.5651
  556MOL0     H76669  10.216  10.020   5.550  3.5260 -1.3590  3.0101
  556MOL0     H76670  10.292  10.148   5.639 -0.2476  0.6517 -0.7966
  556MOL0     H76671  10.423   9.971   5.471  0.7620  0.3754  0.1446
  556MOL0     H76672  10.395  10.109   5.360  1.9367 -0.1465 -0.2397
  556MOL0     H76673  10.534  10.125   5.631 -1.8272  0.6106  0.4896
  556MOL0     H76674  10.496  10.261   5.521  0.2994  0.2325 -0.4795
  556MOL0     H76675  10.632  10.130   5.344 -1.0883  0.3666  0.1846
  556MOL0     H76676  10.716  10.198   5.483  0.9953  0.4398 -0.4196
  556MOL0     H76677  10.685   9.965   5.690  0.9437  0.3388  0.1463
  556MOL0     H76678  10.925   9.646   5.604 -1.8568 -1.1311 -0.8220
  556MOL0     H76679  10.790   9.678   5.717  1.0529 -0.6539 -0.6046
  556MOL0     H76680  11.064   9.822   5.698  0.6398 -0.0855  1.3228
  556MOL0     H76681  10.932   9.874   5.806  0.3556  0.4207 -0.7191
  556MOL0     H76682  10.945   9.655   5.919 -1.3347 -1.3384 -1.7624
  556MOL0     H76683  11.047   9.591   5.783 -0.4577  0.7545 -0.6262
  556MOL0     H76684  11.234   9.756   5.857 -0.2704 -0.2565 -1.4088
  556MOL0     H76685  11.132   9.797   6.002  0.0894  0.1006  0.3262
  556MOL0     H76686  11.371   9.779   6.040  0.0706 -1.6113 -1.2253
  556MOL0     H76687  11.682   9.737   6.226  0.3419  1.4328  0.9834
  556MOL0     H76688  11.572   9.851   6.312 -0.5438 -0.8785  0.4397
  556MOL0     H76689  11.586   9.856   6.132  0.3446 -0.3519 -1.2438
  556MOL0     H76690  11.830   9.397   6.231  3.2991 -0.2963 -0.8452
  556MOL0     H76691  12.073   9.406   6.287 -1.4076 -0.1629 -0.7438
  556MOL0     H76692  12.253   9.437   6.691 -0.9911  0.4070  0.0740
  556MOL0     H76693  12.161   9.294   6.704  0.1377 -2.5460 -2.2759
  556MOL0     H76694  12.411   9.264   6.726  1.1947 -0.3095 -0.5275
  556MOL0     H76695  12.353   9.172   6.586 -0.8876  0.0402  1.5214
  556MOL0     H76696  12.476   9.460   6.582  0.0114  0.9813 -1.2739
  556MOL0     H76697  12.455   9.346   6.434  0.5587  2.5006 -1.3115
  556MOL0     H76698  12.632   9.199   6.543  0.6475 -0.0015  1.8025
  556MOL0     H76699  12.650   9.316   6.662  0.1595  4.4955 -0.4569
  556MOL0     H76700  12.688   9.391   6.377 -0.9991 -2.5105 -0.5474
  556MOL0     H76701  12.722   9.495   6.519  0.2130 -0.5886 -1.9093
  556MOL0     H76702  12.856   9.226   6.521 -0.6685  0.6058 -0.3685
  556MOL0     H76703  12.914   9.373   6.591  0.6105 -2.5285  1.0049
  556MOL0     H76704  12.914   9.319   6.293  2.5948 -1.4648 -1.8216
  556MOL0     H76705  13.045   9.312   6.408 -1.3412 -3.0643 -2.6411
  556MOL0     H76706  13.022   9.567   6.465 -0.6768  1.8157  0.2514
  556MOL0     H76707  12.895   9.568   6.343  0.2919  1.2712  1.0548
  556MOL0     H76708  11.964   9.432   6.701 -2.4947 -0.7571  0.6046
  556MOL0     H76709  11.728   9.440   6.632 -0.6350 -1.0470 -1.0400
  556MOL0     H76710  11.396   9.363   6.305 -0.1645  0.4353  0.3228
  556MOL0     H76711  11.219   9.394   6.138 -2.6267  0.9918  1.0518
  556MOL0     H76712   9.530   9.995   5.439 -0.2337 -0.2636 -0.7920
  556MOL0     H76713   9.293  10.081   5.459  1.1126 -1.4589 -0.6478
  556MOL0     H76714   8.960  10.279   5.180 -0.3023 -0.0952 -0.2043
  556MOL0     H76715   8.724  10.366   5.183 -2.4676  1.6284  2.2561
  556MOL0     H76716   8.497  10.722   5.335  0.6711  2.0485 -0.8991
  556MOL0     H76717   8.657  10.758   5.397 -1.3286  3.0452 -0.3065
  556MOL0     H76718   8.756  10.791   5.184 -0.7695  3.1326 -0.6068
  556MOL0     H76719   8.624  10.889   5.200 -2.8921  0.1854  0.7633
  556MOL0     H76720   8.614  10.615   5.061 -0.0456 -0.0429 -0.0269
  556MOL0     H76721   8.471  10.719   5.079  0.1025 -2.2593 -0.0428
  556MOL0     H76722   8.584  10.716   4.852 -1.1298 -1.8108  0.6515
  556MOL0     H76723   8.712  10.822   4.922  0.1410 -0.9608 -0.3113
  556MOL0     H76724   8.385  11.089   4.898 -1.4628 -0.4886 -1.7635
  556MOL0     H76725   8.847  10.685   5.440  1.4124  0.0885  0.5121
  556MOL0     H76726   9.048  10.633   5.580  0.6131  1.2344  0.5022
  556MOL0     H76727   9.195  10.571   5.491  0.8068  2.0807  2.2902
  556MOL0     H76728   9.103  10.722   5.455 -2.7112 -0.4372 -2.2115
  557MOL0     O76729   1.524   8.281   9.166  0.0214  0.3067  1.1681
  557MOL0     C76730   1.505   8.400   9.172 -0.5380  0.5774  0.8744
  557MOL0     O76731   1.584   8.489   9.246  1.1958 -0.0799 -0.1356
  557MOL0     C76732   1.677   8.435   9.333 -0.1650 -0.1295 -1.0747
  557MOL0     C76733   1.812   8.475   9.335  0.2999  0.2039 -0.4640
  557MOL0     C76734   1.891   8.432   9.438 -1.1022 -0.4059 -0.0258
  557MOL0     C76735   1.853   8.325   9.529  0.2092 -0.5501  1.3754
  557MOL0     O76736   1.948   8.294   9.630  0.0668  0.7663 -0.4315
  557MOL0     C76737   1.905   8.188   9.714 -0.1347 -0.2510  0.3426
  557MOL0     C76738   1.996   8.188   9.839 -0.0830  0.4532 -0.0874
  557MOL0     C76739   2.141   8.164   9.810 -0.4721  0.5357  0.3067
  557MOL0     C76740   2.232   8.196   9.927 -0.5648  0.7950  0.8117
  557MOL0     C76741   2.388   8.171   9.900  0.3342  0.5905  0.8254
  557MOL0     C76742   2.477   8.183  10.019 -0.2856  0.4511  0.3992
  557MOL0     C76743   2.626   8.163   9.969 -0.2089 -0.1927  0.3588
  557MOL0     C76744   2.661   8.016   9.950 -0.4904  0.5833 -0.5478
  557MOL0     N76745   2.805   8.002   9.909 -0.3254 -0.1312 -0.1137
  557MOL0     C76746   2.839   7.950   9.788 -0.8001 -0.1772  0.0962
  557MOL0     C76747   2.967   7.982   9.769 -0.5886  0.8220  0.1811
  557MOL0     C76748   3.055   7.956   9.642 -0.8296 -0.3557 -0.5894
  557MOL0     C76749   3.187   7.904   9.685 -0.7826  0.3441 -0.6079
  557MOL0     C76750   3.266   7.880   9.558  0.3304  0.3284  0.2169
  557MOL0     C76751   3.404   7.827   9.602 -0.3811 -0.3237  0.2026
  557MOL0     O76752   3.486   7.817   9.483  0.2769  0.6412  0.0232
  557MOL0     C76753   3.615   7.784   9.493  0.7047 -0.6052 -0.2766
  557MOL0     C76754   3.705   7.826   9.393 -0.3937  0.8097 -0.2633
  557MOL0     C76755   3.841   7.809   9.404 -0.2277  0.3438  0.3693
  557MOL0     C76756   3.931   7.870   9.294 -0.0602 -0.4243 -0.3060
  557MOL0     C76757   3.888   7.731   9.511  0.3614 -0.7240 -0.6312
  557MOL0     C76758   4.027   7.678   9.538  1.0268 -0.4263  0.2537
  557MOL0     O76759   4.045   7.613   9.663 -0.5364  0.1889  0.2003
  557MOL0     C76760   4.175   7.596   9.704  1.3992 -0.1170 -0.5019
  557MOL0     C76761   4.231   7.676   9.810 -0.1396 -0.2208  0.2978
  557MOL0     C76762   4.364   7.656   9.851  0.2033  0.3930 -0.3708
  557MOL0     C76763   4.444   7.553   9.793  1.1459  0.0169 -0.1126
  557MOL0     O76764   4.563   7.530   9.848  0.2390 -0.2280  0.0060
  557MOL0     C76765   4.665   7.470   9.773 -0.2053  0.4437 -0.6609
  557MOL0     C76766   4.746   7.582   9.714  0.2306 -0.7430  0.8420
  557MOL0     C76767   4.860   7.530   9.624  0.2296 -0.2697  0.2972
  557MOL0     C76768   4.986   7.503   9.704  0.1140  0.1897 -0.9819
  557MOL0     C76769   5.111   7.482   9.614  0.9261 -0.3531 -0.7088
  557MOL0     C76770   5.193   7.374   9.684 -0.1195  0.1414  0.7239
  557MOL0     C76771   5.338   7.362   9.634 -0.1628  0.8891  0.2992
  557MOL0     C76772   5.361   7.252   9.534  0.0271 -0.0734  0.6326
  557MOL0    Cl76773   5.517   7.165   9.576  0.2575  0.3019  0.3868
  557MOL0     C76774   4.386   7.468   9.694 -0.9004 -0.2817 -0.5381
  557MOL0     C76775   4.258   7.494   9.648  0.1597  0.0703  0.0803
  557MOL0     O76776   4.112   7.677   9.447  0.2336 -0.7291 -0.0458
  557MOL0     C76777   3.800   7.692   9.605  0.0600 -0.2032  0.1867
  557MOL0     C76778   3.667   7.720   9.600  0.1105  0.1954 -1.0383
  557MOL0     N76779   3.011   8.052   9.878  0.0555 -0.4964 -0.7247
  557MOL0     N76780   2.909   8.068   9.958  0.4012 -0.8572 -0.0066
  557MOL0     C76781   1.719   8.279   9.521  0.1834 -0.1013  1.1031
  557MOL0     C76782   1.632   8.336   9.424  0.2117 -0.5034  0.4294
  557MOL0     C76783   1.399   8.460   9.094  0.1508 -0.4033  0.2931
  557MOL0     C76784   1.269   8.422   9.133 -1.0820  0.4994 -0.6147
  557MOL0     C76785   1.164   8.472   9.064 -0.2501 -0.1341  0.3130
  557MOL0     C76786   1.184   8.572   8.963 -0.1298 -0.2924 -0.7537
  557MOL0     O76787   1.070   8.630   8.909  0.0014 -0.2629 -0.1478
  557MOL0     C76788   1.059   8.767   8.925 -0.2629  0.0562 -0.1385
  557MOL0     C76789   0.916   8.817   8.921 -0.5158 -0.1092  0.5424
  557MOL0     C76790   0.832   8.761   9.036  0.5849  0.5187  0.0361
  557MOL0     C76791   0.685   8.733   9.010  0.1663 -1.0382 -0.6898
  557MOL0     C76792   0.604   8.844   8.947  0.1747  0.0636  0.0530
  557MOL0     C76793   0.536   8.929   8.898 -0.3372  0.0071 -0.1731
  557MOL0     C76794   1.311   8.613   8.927  0.5364 -0.2217 -0.1093
  557MOL0     C76795   1.421   8.556   8.989  0.0650  0.0933  0.1303
  557MOL0     C76796   1.548   8.591   8.929  0.1523 -0.4679 -0.4193
  557MOL0     H76797   1.839   8.555   9.267 -2.4218  1.4698 -0.1882
  557MOL0     H76798   1.984   8.488   9.445 -0.2332 -1.5574 -1.6578
  557MOL0     H76799   1.912   8.088   9.669 -2.8873  0.1851 -1.2520
  557MOL0     H76800   1.802   8.194   9.749 -0.4948 -1.3607 -0.4592
  557MOL0     H76801   1.991   8.288   9.884 -0.8687  0.9556 -1.2224
  557MOL0     H76802   1.964   8.108   9.906 -0.0039 -0.3084 -0.9454
  557MOL0     H76803   2.147   8.057   9.785 -3.3052  0.7901 -2.0855
  557MOL0     H76804   2.170   8.210   9.715 -1.0182 -2.4949 -1.4641
  557MOL0     H76805   2.215   8.303   9.939 -0.9400  1.0347 -1.3791
  557MOL0     H76806   2.198   8.139  10.014 -4.2184 -0.7475 -1.3805
  557MOL0     H76807   2.417   8.241   9.821  2.1922 -2.1826 -1.1367
  557MOL0     H76808   2.399   8.079   9.842 -1.3350  1.4158 -0.8950
  557MOL0     H76809   2.450   8.281  10.060 -1.3915  0.5101 -0.4371
  557MOL0     H76810   2.450   8.102  10.087 -3.2046  1.0465  0.0720
  557MOL0     H76811   2.696   8.199  10.045 -1.2774  0.7323  0.9196
  557MOL0     H76812   2.643   8.214   9.874 -0.1367 -2.5462 -0.9905
  557MOL0     H76813   2.649   7.961  10.044  0.5759  0.2809 -0.5708
  557MOL0     H76814   2.586   7.984   9.878 -2.0914  2.2516  0.3058
  557MOL0     H76815   2.784   7.898   9.711  0.6712 -0.9296 -0.4910
  557MOL0     H76816   3.060   8.051   9.587  0.5782  1.1488  1.9082
  557MOL0     H76817   2.994   7.880   9.594  1.4406 -2.6065 -0.1234
  557MOL0     H76818   3.243   7.977   9.745 -0.7244 -0.8013  0.7810
  557MOL0     H76819   3.187   7.812   9.744 -0.9187  1.5439  1.3641
  557MOL0     H76820   3.222   7.798   9.500 -1.1496  0.8449  0.5550
  557MOL0     H76821   3.274   7.972   9.500  0.5376 -2.1997 -4.2744
  557MOL0     H76822   3.454   7.879   9.684  0.3729 -1.9488  0.8182
  557MOL0     H76823   3.390   7.723   9.633  1.8854 -1.3728 -1.9536
  557MOL0     H76824   3.674   7.880   9.304  2.3926  0.5795 -1.4661
  557MOL0     H76825   4.028   7.886   9.341  0.1285 -2.6665  0.1450
  557MOL0     H76826   3.878   7.959   9.258  2.1340  1.4715  0.8934
  557MOL0     H76827   3.947   7.807   9.206 -0.5232 -1.0963  0.0866
  557MOL0     H76828   4.168   7.753   9.852 -1.0427 -1.0538  0.5029
  557MOL0     H76829   4.413   7.703   9.936 -0.1895  0.8590 -0.3988
  557MOL0     H76830   4.729   7.408   9.836 -1.2707 -1.0121 -0.9634
  557MOL0     H76831   4.629   7.402   9.696 -3.7593  0.1396  1.0771
  557MOL0     H76832   4.680   7.652   9.662  1.6209  0.9871  1.2913
  557MOL0     H76833   4.791   7.643   9.793  2.6229  0.3725 -1.2342
  557MOL0     H76834   4.881   7.613   9.557 -0.1080 -0.2202  0.2497
  557MOL0     H76835   4.835   7.438   9.570  1.3741 -1.0396  1.0345
  557MOL0     H76836   4.963   7.413   9.762 -1.4949  0.7384 -0.7449
  557MOL0     H76837   5.010   7.584   9.773  2.5516 -1.1887 -0.0739
  557MOL0     H76838   5.072   7.458   9.515  2.1579 -1.2126 -1.0100
  557MOL0     H76839   5.173   7.571   9.600  0.6539 -0.2848 -1.4829
  557MOL0     H76840   5.142   7.279   9.669 -0.6992  0.5981 -0.3289
  557MOL0     H76841   5.206   7.404   9.789 -1.5345 -1.0770  1.2642
  557MOL0     H76842   5.406   7.330   9.713  3.6502  1.2712 -2.5818
  557MOL0     H76843   5.384   7.452   9.593  2.1678  0.8010  2.4563
  557MOL0     H76844   5.375   7.302   9.437  2.8892  0.0079  1.0262
  557MOL0     H76845   5.277   7.182   9.533 -0.4867  0.5245 -0.6105
  557MOL0     H76846   4.434   7.387   9.639 -0.9368 -1.2124  0.7722
  557MOL0     H76847   4.210   7.424   9.580  0.7785  1.8749 -2.3969
  557MOL0     H76848   3.819   7.620   9.684 -0.1316 -2.0021 -1.3303
  557MOL0     H76849   3.607   7.697   9.688  3.6014 -2.7653  0.8174
  557MOL0     H76850   1.669   8.208   9.586  0.6574 -0.6108  0.9179
  557MOL0     H76851   1.529   8.304   9.432  0.3840 -1.0028  0.6996
  557MOL0     H76852   1.253   8.354   9.216 -0.5234  2.2260  0.9867
  557MOL0     H76853   1.062   8.439   9.084  0.0776 -0.8250  0.9038
  557MOL0     H76854   1.094   8.787   9.027 -0.1815 -2.9505  0.5007
  557MOL0     H76855   1.111   8.818   8.844  1.8104 -0.1733  0.9887
  557MOL0     H76856   0.876   8.799   8.821 -0.8698 -0.9442  0.8222
  557MOL0     H76857   0.915   8.926   8.930  4.6687  0.1037  1.4700
  557MOL0     H76858   0.879   8.669   9.072  0.2748 -0.6775 -2.4110
  557MOL0     H76859   0.847   8.834   9.116 -0.3778  0.2042  0.5232
  557MOL0     H76860   0.639   8.717   9.107  0.0311  1.5718 -0.2506
  557MOL0     H76861   0.680   8.640   8.952 -1.3865 -2.7563  2.0096
  557MOL0     H76862   0.484   9.011   8.854  0.6423 -0.1466 -1.7187
  557MOL0     H76863   1.332   8.694   8.858  1.3677 -1.6324 -1.6130
  557MOL0     H76864   1.582   8.665   9.002 -1.2299  1.7234 -1.8864
  557MOL0     H76865   1.604   8.497   8.920  0.1623 -0.5686  0.5807
  557MOL0     H76866   1.546   8.647   8.835  1.6146  0.1451 -0.1198
  558MOL0     O76867   6.068  11.010   1.310  0.2232 -0.5761  0.1971
  558MOL0     C76868   5.995  10.985   1.404 -0.4391 -0.0717 -0.1181
  558MOL0     O76869   5.987  10.867   1.474 -0.6088 -0.1259  0.3239
  558MOL0     C76870   6.099  10.787   1.486  0.5662 -0.7988 -0.4390
  558MOL0     C76871   6.077  10.662   1.546  0.2098 -0.9242 -0.2167
  558MOL0     C76872   6.180  10.580   1.570 -0.3792  0.0934  0.0306
  558MOL0     C76873   6.316  10.617   1.540  0.9521 -0.1502  0.4820
  558MOL0     O76874   6.418  10.532   1.543 -0.5032 -0.1545 -0.5010
  558MOL0     C76875   6.443  10.464   1.671 -0.2368  0.5492  0.1918
  558MOL0     C76876   6.528  10.339   1.658 -0.3215  0.5973  0.8083
  558MOL0     C76877   6.664  10.371   1.593 -0.5965 -0.5830 -1.0700
  558MOL0     C76878   6.764  10.438   1.692 -0.2795 -0.4086  0.4526
  558MOL0     C76879   6.905  10.405   1.646 -0.7595  0.2978 -0.8899
  558MOL0     C76880   7.011  10.466   1.742 -0.8119  0.1908  0.3964
  558MOL0     C76881   7.157  10.466   1.691  0.3869  0.9340 -0.5572
  558MOL0     C76882   7.191  10.318   1.696 -0.0801 -0.5693 -0.0228
  558MOL0     N76883   7.330  10.304   1.648  0.1490 -0.0748  0.7084
  558MOL0     C76884   7.377  10.326   1.524 -0.3530  0.1821 -0.0335
  558MOL0     C76885   7.512  10.308   1.539  0.3158  0.2537  0.3843
  558MOL0     C76886   7.621  10.287   1.432 -0.3432  0.0415 -0.0955
  558MOL0     C76887   7.699  10.156   1.430 -0.0970 -0.4319 -0.3655
  558MOL0     C76888   7.820  10.157   1.523  0.5182  0.0122 -0.1351
  558MOL0     C76889   7.941  10.220   1.474 -0.9772 -0.1787  0.0503
  558MOL0     O76890   8.033  10.206   1.591  0.1450  0.0051  0.8291
  558MOL0     C76891   8.164  10.222   1.566  0.4645 -1.4985  0.2557
  558MOL0     C76892   8.240  10.238   1.682  0.3059 -0.9573 -0.1022
  558MOL0     C76893   8.377  10.259   1.691  0.4984  0.3590  0.2093
  558MOL0     C76894   8.429  10.277   1.834 -0.1110  0.3517 -0.2541
  558MOL0     C76895   8.455  10.266   1.575 -0.3820  0.3036  0.3648
  558MOL0     C76896   8.600  10.267   1.571 -0.4024 -0.7893 -1.2095
  558MOL0     O76897   8.652  10.265   1.448  0.2288 -0.4220  0.2039
  558MOL0     C76898   8.785  10.279   1.439 -0.3059 -1.2856  0.0777
  558MOL0     C76899   8.838  10.402   1.395  0.2858  0.0486  0.2463
  558MOL0     C76900   8.974  10.409   1.361 -0.1380  0.8170  0.3538
  558MOL0     C76901   9.063  10.300   1.376  0.6630 -0.4009  0.6761
  558MOL0     O76902   9.192  10.316   1.326  0.5140 -0.1813  0.4512
  558MOL0     C76903   9.249  10.197   1.278  0.5918  0.2321  0.6866
  558MOL0     C76904   9.337  10.257   1.174 -0.3775 -0.6500  0.2436
  558MOL0     C76905   9.397  10.149   1.080  0.1097 -0.5412 -0.5290
  558MOL0     C76906   9.307  10.144   0.954  0.5078 -0.2562 -0.6773
  558MOL0     C76907   9.345  10.024   0.872  0.2896 -0.6178 -0.6295
  558MOL0     C76908   9.481  10.039   0.797  0.0392 -0.5451  0.9677
  558MOL0     C76909   9.469  10.146   0.688  1.0102 -0.5855  0.5796
  558MOL0     C76910   9.591  10.159   0.613 -0.1394 -0.6453  0.5662
  558MOL0    Cl76911   9.731  10.206   0.724 -0.0186  0.1505 -0.0458
  558MOL0     C76912   9.008  10.187   1.431  0.2396  0.3456 -0.3150
  558MOL0     C76913   8.873  10.172   1.467  0.5488 -1.2689 -0.2410
  558MOL0     O76914   8.668  10.277   1.676 -0.1180 -0.4524  0.0718
  558MOL0     C76915   8.377  10.263   1.452 -0.4869  0.4632 -0.7363
  558MOL0     C76916   8.237  10.232   1.450 -1.1176 -0.2910 -0.3101
  558MOL0     N76917   7.544  10.295   1.674  0.1226  0.0945  0.4353
  558MOL0     N76918   7.435  10.280   1.733 -1.3163  0.1413 -0.5162
  558MOL0     C76919   6.334  10.742   1.487 -0.6823 -0.9408  0.3884
  558MOL0     C76920   6.230  10.827   1.461 -0.5579  0.0790  0.7088
  558MOL0     C76921   5.892  11.086   1.434 -0.4165  0.4767  1.4584
  558MOL0     C76922   5.753  11.041   1.441 -0.9131  0.4241 -0.8395
  558MOL0     C76923   5.663  11.123   1.500 -0.0092 -0.0375 -0.2795
  558MOL0     C76924   5.684  11.254   1.540 -1.0556 -0.3716  0.9410
  558MOL0     O76925   5.593  11.338   1.588  0.1876  0.1711 -0.2657
  558MOL0     C76926   5.461  11.292   1.611 -0.3702  0.8437 -0.0441
  558MOL0     C76927   5.395  11.363   1.727 -0.4007 -0.0708  0.1085
  558MOL0     C76928   5.250  11.312   1.754 -0.4840  0.2902 -0.3615
  558MOL0     C76929   5.170  11.412   1.836  0.1923 -0.0177  0.4301
  558MOL0     C76930   5.148  11.536   1.749  0.2295  0.3894 -0.4153
  558MOL0     C76931   5.134  11.630   1.674 -0.5227  0.0437 -0.3036
  558MOL0     C76932   5.814  11.298   1.520  0.3021  0.2939  0.2669
  558MOL0     C76933   5.922  11.219   1.475 -0.6348 -0.2955 -0.3454
  558MOL0     C76934   6.057  11.284   1.452 -0.6730 -0.3593 -0.4552
  558MOL0     H76935   5.978  10.632   1.578 -1.0040  3.0226  0.2673
  558MOL0     H76936   6.157  10.477   1.593  0.1160 -0.4292 -1.7272
  558MOL0     H76937   6.350  10.429   1.717 -0.6224 -2.6570 -2.6310
  558MOL0     H76938   6.499  10.531   1.737 -0.8922  0.1496  1.1837
  558MOL0     H76939   6.552  10.301   1.758 -0.2862  0.5301  0.7734
  558MOL0     H76940   6.469  10.258   1.613 -1.3530 -0.9891  4.6140
  558MOL0     H76941   6.708  10.274   1.567  1.2836 -0.0386 -0.0776
  558MOL0     H76942   6.671  10.427   1.499  2.1708  2.4569  0.7447
  558MOL0     H76943   6.750  10.546   1.699 -3.8155 -0.7583  0.2439
  558MOL0     H76944   6.752  10.410   1.797 -0.7797  0.1982  0.5591
  558MOL0     H76945   6.935  10.445   1.549  0.1414 -1.5018 -1.4049
  558MOL0     H76946   6.920  10.297   1.632  1.2545  0.3447  0.4315
  558MOL0     H76947   6.987  10.570   1.767  1.0414  0.5172  1.0177
  558MOL0     H76948   7.007  10.424   1.843 -2.8698  1.0525  0.7155
  558MOL0     H76949   7.221  10.522   1.759  0.6899  0.4182 -0.4148
  558MOL0     H76950   7.162  10.519   1.595 -1.3428  2.0482 -0.0891
  558MOL0     H76951   7.173  10.275   1.796  0.5265  1.5091  1.0389
  558MOL0     H76952   7.128  10.262   1.626 -0.6915  1.1815 -0.9366
  558MOL0     H76953   7.332  10.331   1.425  3.6505  0.7564 -2.0441
  558MOL0     H76954   7.686  10.374   1.448 -0.2995 -0.1837  1.0079
  558MOL0     H76955   7.577  10.315   1.336 -0.8053 -0.7681 -0.1259
  558MOL0     H76956   7.636  10.069   1.452  0.5510 -1.1085 -1.0948
  558MOL0     H76957   7.735  10.135   1.329  1.2441 -0.1176  0.0170
  558MOL0     H76958   7.796  10.207   1.617  0.7136  0.2014 -0.1854
  558MOL0     H76959   7.843  10.053   1.547 -1.9578 -0.3278  1.0586
  558MOL0     H76960   7.974  10.182   1.376  0.4682  2.5593 -0.6310
  558MOL0     H76961   7.938  10.326   1.447 -1.3519 -0.2458 -0.1842
  558MOL0     H76962   8.181  10.229   1.773 -1.3700  1.0673 -0.9006
  558MOL0     H76963   8.352  10.282   1.912 -1.7573  2.2160 -1.8809
  558MOL0     H76964   8.487  10.370   1.829  0.5776 -0.1303 -2.0183
  558MOL0     H76965   8.495  10.200   1.873 -1.6573 -1.0368 -0.2721
  558MOL0     H76966   8.776  10.491   1.401 -1.1918 -0.8751 -0.6065
  558MOL0     H76967   8.997  10.505   1.317 -1.9848 -0.0297 -2.7208
  558MOL0     H76968   9.297  10.144   1.360 -0.8503  2.5185  3.1547
  558MOL0     H76969   9.175  10.126   1.239  2.0026 -1.7189  1.4089
  558MOL0     H76970   9.285  10.334   1.117  0.9743 -1.3118 -2.0127
  558MOL0     H76971   9.418  10.315   1.221 -1.1128 -0.5825  1.4836
  558MOL0     H76972   9.402  10.050   1.126  1.1430 -0.9402 -1.4452
  558MOL0     H76973   9.501  10.179   1.062 -0.2175  0.1199 -1.3819
  558MOL0     H76974   9.327  10.242   0.911 -1.5812  0.9514  0.8625
  558MOL0     H76975   9.199  10.142   0.971  0.3992 -0.8633 -1.4100
  558MOL0     H76976   9.347   9.940   0.942  0.2310 -0.7104 -0.7397
  558MOL0     H76977   9.268  10.004   0.797 -1.7846  1.5653  0.7633
  558MOL0     H76978   9.508   9.945   0.748 -1.2153 -0.5638  0.2774
  558MOL0     H76979   9.557  10.063   0.872 -1.3468  3.1025  1.3946
  558MOL0     H76980   9.449  10.243   0.734  0.1975 -0.2927 -0.3558
  558MOL0     H76981   9.381  10.126   0.626  1.5893  0.8927 -0.7890
  558MOL0     H76982   9.582  10.242   0.542  0.9565  0.0301  1.1879
  558MOL0     H76983   9.623  10.062   0.572 -0.9814 -0.2531 -1.0996
  558MOL0     H76984   9.077  10.104   1.443  0.6441  0.4710 -1.6634
  558MOL0     H76985   8.836  10.075   1.499 -1.9726 -0.3025  0.0205
  558MOL0     H76986   8.430  10.268   1.357  3.1452 -2.3339  0.8841
  558MOL0     H76987   8.188  10.206   1.357  0.1803  0.2072 -1.1580
  558MOL0     H76988   6.435  10.760   1.453 -1.3248  0.4665 -0.9331
  558MOL0     H76989   6.262  10.916   1.407 -0.0276 -0.5898 -0.0878
  558MOL0     H76990   5.739  10.938   1.411  1.2095 -0.0186 -0.5252
  558MOL0     H76991   5.565  11.076   1.497  0.2603 -0.6893  0.5628
  558MOL0     H76992   5.406  11.303   1.517 -1.3471  0.3681  0.4578
  558MOL0     H76993   5.458  11.186   1.635 -1.5578  0.7152 -0.6848
  558MOL0     H76994   5.400  11.468   1.695  2.7063 -0.5769 -1.5115
  558MOL0     H76995   5.455  11.361   1.818  0.3360 -1.1291 -0.3827
  558MOL0     H76996   5.195  11.299   1.660 -1.7006  0.5983  0.2830
  558MOL0     H76997   5.250  11.218   1.810 -1.3877  0.1227 -0.6299
  558MOL0     H76998   5.224  11.434   1.928 -0.0431 -3.0930  1.4109
  558MOL0     H76999   5.073  11.369   1.863 -0.1624 -0.3432 -1.1992
  558MOL0     H77000   5.137  11.723   1.621  1.5222  0.1150 -0.1517
  558MOL0     H77001   5.840  11.401   1.542  0.8040 -0.0318  1.2628
  558MOL0     H77002   6.098  11.282   1.351  0.6625  1.3069  0.0022
  558MOL0     H77003   6.042  11.389   1.481 -0.8151 -0.5701  0.2555
  558MOL0     H77004   6.136  11.240   1.514 -0.1926  1.1034  0.0323
  559MOL0     O77005   2.211   1.730   1.814 -0.4964 -0.5621  0.1872
  559MOL0     C77006   2.115   1.794   1.768  0.4969 -1.2077  0.2724
  559MOL0     O77007   2.004   1.834   1.841  0.0702 -0.5356  0.0106
  559MOL0     C77008   1.998   1.822   1.979  0.2430 -0.3762 -1.0699
  559MOL0     C77009   1.930   1.937   2.038  1.0181  1.1089 -0.5944
  559MOL0     C77010   1.906   1.942   2.175  0.1800  0.0241  0.2272
  559MOL0     C77011   1.960   1.846   2.263 -0.6101 -0.5677  0.3531
  559MOL0     O77012   1.931   1.865   2.392 -0.1696  0.5467  0.2458
  559MOL0     C77013   1.991   1.772   2.482 -0.0620 -0.2886  0.4427
  559MOL0     C77014   2.013   1.845   2.612  0.3381 -0.5141 -0.1740
  559MOL0     C77015   2.046   1.744   2.720  0.2418 -0.2865 -0.0972
  559MOL0     C77016   2.051   1.810   2.855  0.0122  0.0713  0.2542
  559MOL0     C77017   2.178   1.886   2.877 -0.1272 -0.3986  0.1703
  559MOL0     C77018   2.160   1.957   3.009 -0.8510  0.1826 -0.9756
  559MOL0     C77019   2.290   2.022   3.053  0.1679  0.5470  0.4228
  559MOL0     C77020   2.398   1.930   3.106  0.2645 -0.2646  0.5400
  559MOL0     N77021   2.525   2.001   3.109  0.2327  0.1776  0.9537
  559MOL0     C77022   2.637   1.923   3.124 -0.0090 -0.4859 -0.2537
  559MOL0     C77023   2.734   2.013   3.157  0.1177 -0.2275 -0.2628
  559MOL0     C77024   2.872   1.959   3.191 -0.1809  0.3321  0.6187
  559MOL0     C77025   2.977   2.029   3.101 -1.3068 -0.7541  0.2797
  559MOL0     C77026   3.007   2.168   3.162 -0.3646  0.6982 -0.1049
  559MOL0     C77027   3.090   2.267   3.087 -0.0499  0.5837  0.3082
  559MOL0     O77028   3.227   2.228   3.067 -0.2244 -0.3320 -0.0104
  559MOL0     C77029   3.313   2.314   3.000  0.6657  0.3610  0.2816
  559MOL0     C77030   3.275   2.440   2.935 -0.1699  0.3857  0.6893
  559MOL0     C77031   3.378   2.527   2.884 -0.5383 -0.5199  0.4654
  559MOL0     C77032   3.340   2.654   2.811  0.2758  0.8850 -0.2901
  559MOL0     C77033   3.513   2.492   2.903 -1.0748 -0.1039  0.4946
  559MOL0     C77034   3.633   2.584   2.870  0.3141 -0.8304  0.2973
  559MOL0     O77035   3.761   2.522   2.873 -0.4914 -0.2077 -0.2880
  559MOL0     C77036   3.876   2.599   2.886 -0.2125  0.0506 -0.7441
  559MOL0     C77037   3.876   2.717   2.963 -0.5912 -0.0310 -0.5378
  559MOL0     C77038   3.997   2.784   2.974 -0.7162 -0.2213 -0.2201
  559MOL0     C77039   4.119   2.742   2.915  0.8198  0.8793  0.4071
  559MOL0     O77040   4.228   2.820   2.908  0.4497 -0.4175  0.2476
  559MOL0     C77041   4.310   2.820   2.787 -0.3680 -0.9119  0.1446
  559MOL0     C77042   4.370   2.964   2.751  0.4043  0.8196 -0.3890
  559MOL0     C77043   4.470   2.961   2.620  0.2291 -0.1091  0.6863
  559MOL0     C77044   4.610   2.914   2.660 -0.6168 -0.5297 -0.3136
  559MOL0     C77045   4.695   2.874   2.543  0.0940 -0.6643  0.4133
  559MOL0     C77046   4.704   2.721   2.513  0.4316 -0.2373 -0.9426
  559MOL0     C77047   4.792   2.691   2.391  0.2854  0.4854 -0.4296
  559MOL0     C77048   4.855   2.552   2.413  0.5141 -0.5269  0.2983
  559MOL0    Cl77049   4.731   2.431   2.412  0.4286 -0.0313 -0.4635
  559MOL0     C77050   4.122   2.614   2.858 -0.4103  0.3424 -0.1876
  559MOL0     C77051   4.000   2.547   2.844 -0.2303 -0.4610  0.4245
  559MOL0     O77052   3.616   2.701   2.827  0.2115 -0.2670  0.4831
  559MOL0     C77053   3.553   2.370   2.975 -0.1114 -0.2486  0.1627
  559MOL0     C77054   3.452   2.278   3.010  0.5071 -0.1390  0.5483
  559MOL0     N77055   2.680   2.139   3.150  0.1736 -0.1765 -0.2031
  559MOL0     N77056   2.553   2.133   3.125  0.2010  0.0838 -0.5371
  559MOL0     C77057   2.028   1.741   2.199 -0.5046  0.2293  0.1427
  559MOL0     C77058   2.044   1.728   2.055 -0.6835  0.4973 -0.0905
  559MOL0     C77059   2.094   1.837   1.630 -0.9335  0.4105 -0.1265
  559MOL0     C77060   1.998   1.940   1.614 -0.2094  0.2199  0.6275
  559MOL0     C77061   1.993   2.010   1.487  0.8115 -0.4389 -0.0414
  559MOL0     C77062   2.054   1.954   1.375 -0.0940  0.0371 -0.2608
  559MOL0     O77063   2.037   2.002   1.252 -0.1860  0.5089 -0.1179
  559MOL0     C77064   1.964   2.121   1.222 -0.1716 -0.4326 -0.9837
  559MOL0     C77065   2.028   2.253   1.261 -0.7084 -0.6904 -0.4370
  559MOL0     C77066   2.177   2.246   1.225 -0.4499 -1.0577 -0.2836
  559MOL0     C77067   2.250   2.375   1.252 -0.2287  0.2564  0.1765
  559MOL0     C77068   2.233   2.424   1.385  0.2699 -0.8757 -0.1574
  559MOL0     C77069   2.207   2.481   1.495  0.2372  0.0896 -0.7960
  559MOL0     C77070   2.141   1.846   1.387  0.0583 -0.8802  0.2627
  559MOL0     C77071   2.163   1.788   1.514 -0.4643 -0.5073  0.1752
  559MOL0     C77072   2.261   1.671   1.519 -0.3492  0.4316 -0.6024
  559MOL0     H77073   1.891   2.012   1.970  0.2303  2.3207  1.1149
  559MOL0     H77074   1.841   2.023   2.206 -1.2794  0.1799 -2.8969
  559MOL0     H77075   2.086   1.730   2.449  1.4206  1.2912  2.4456
  559MOL0     H77076   1.918   1.692   2.500 -1.1433  0.9607  1.9148
  559MOL0     H77077   2.100   1.910   2.602 -0.7728  1.5487  2.1856
  559MOL0     H77078   1.945   1.927   2.637  3.1768  2.2151 -0.7878
  559MOL0     H77079   1.976   1.660   2.713 -1.7696  1.4286 -2.2496
  559MOL0     H77080   2.142   1.695   2.699 -0.0651 -0.2124 -1.8965
  559MOL0     H77081   1.967   1.878   2.873 -0.4030 -0.4667  0.3884
  559MOL0     H77082   2.048   1.727   2.926  1.5753  0.4975  0.8677
  559MOL0     H77083   2.201   1.958   2.798  0.1771 -2.6505 -1.9170
  559MOL0     H77084   2.261   1.815   2.881  0.3533  0.2130  3.1373
  559MOL0     H77085   2.075   2.025   3.014  0.6622  2.1384 -0.3322
  559MOL0     H77086   2.142   1.889   3.092  0.9484  1.3687  0.4589
  559MOL0     H77087   2.260   2.098   3.125 -2.4722  0.8841 -0.9123
  559MOL0     H77088   2.337   2.079   2.972  4.1864 -0.5675  1.7522
  559MOL0     H77089   2.385   1.896   3.209  4.9201 -1.6887  0.9017
  559MOL0     H77090   2.404   1.836   3.051 -1.8666 -0.6899  0.9550
  559MOL0     H77091   2.647   1.816   3.110 -1.4119 -0.9195  1.5238
  559MOL0     H77092   2.887   1.851   3.185  2.6876  0.7155 -0.3317
  559MOL0     H77093   2.896   1.984   3.295 -0.6023 -2.1392  1.3793
  559MOL0     H77094   3.066   1.965   3.108  0.6639  1.5749 -1.5815
  559MOL0     H77095   2.944   2.039   2.997 -1.3059  0.6396  0.3906
  559MOL0     H77096   2.911   2.218   3.175 -2.5187 -3.0378 -0.1826
  559MOL0     H77097   3.054   2.156   3.260  0.8392  1.0150 -0.6236
  559MOL0     H77098   3.040   2.282   2.991 -1.0917 -0.2800  0.6958
  559MOL0     H77099   3.093   2.359   3.146  0.3382  1.4402 -1.0042
  559MOL0     H77100   3.171   2.467   2.920 -1.4559 -3.7693  1.0042
  559MOL0     H77101   3.405   2.676   2.726  0.2112 -2.2270 -1.2685
  559MOL0     H77102   3.319   2.741   2.874 -1.2806 -0.7747  1.6223
  559MOL0     H77103   3.250   2.644   2.750  0.3179 -0.3050 -0.1723
  559MOL0     H77104   3.789   2.767   3.004  0.4432  0.5549  1.0580
  559MOL0     H77105   3.992   2.881   3.021 -0.7006  1.0670 -2.6858
  559MOL0     H77106   4.384   2.739   2.792  0.5048 -0.1313  0.2728
  559MOL0     H77107   4.241   2.801   2.705  1.2828 -0.0272 -1.5206
  559MOL0     H77108   4.292   3.040   2.740  0.2435  0.9607  1.4486
  559MOL0     H77109   4.414   3.007   2.841  0.7208  1.4086 -0.8186
  559MOL0     H77110   4.471   3.062   2.579  1.5807 -0.4552 -0.1984
  559MOL0     H77111   4.438   2.899   2.536  0.3167  1.3152 -0.4274
  559MOL0     H77112   4.611   2.832   2.733 -1.0820  1.1312  1.6759
  559MOL0     H77113   4.650   2.997   2.719 -0.2049 -1.0275  0.1122
  559MOL0     H77114   4.663   2.933   2.457  1.5094 -1.7548 -0.9136
  559MOL0     H77115   4.802   2.896   2.553  0.6111 -1.7887 -2.0144
  559MOL0     H77116   4.602   2.688   2.492 -1.0536  2.3144  1.6207
  559MOL0     H77117   4.741   2.665   2.599 -2.6825 -0.7876  0.1483
  559MOL0     H77118   4.868   2.768   2.378  2.6352 -2.0560 -3.0550
  559MOL0     H77119   4.731   2.685   2.300  0.4921 -0.3485 -0.5179
  559MOL0     H77120   4.904   2.553   2.510 -0.2482  0.9958  0.6962
  559MOL0     H77121   4.925   2.538   2.330 -2.5193 -0.6137 -2.4878
  559MOL0     H77122   4.218   2.568   2.840 -0.4647 -0.8712  2.1917
  559MOL0     H77123   3.996   2.454   2.788 -0.1783 -0.0443 -0.2811
  559MOL0     H77124   3.656   2.339   2.983  0.3149  1.1985  0.5726
  559MOL0     H77125   3.468   2.176   3.043  0.8904 -0.6235 -1.0796
  559MOL0     H77126   2.066   1.665   2.267  1.3362  0.6378 -0.3906
  559MOL0     H77127   2.113   1.648   2.032 -3.1301 -1.3284 -1.5316
  559MOL0     H77128   1.929   1.976   1.689 -1.5459  1.1024 -0.9444
  559MOL0     H77129   1.926   2.095   1.476  0.9418 -0.1959  0.9700
  559MOL0     H77130   1.976   2.124   1.114  1.8479  0.1462 -0.7901
  559MOL0     H77131   1.859   2.119   1.253 -0.2719  1.3408 -1.1180
  559MOL0     H77132   2.006   2.278   1.365  0.2773  1.9808 -0.7944
  559MOL0     H77133   1.967   2.324   1.204 -1.3184 -2.3539 -1.9636
  559MOL0     H77134   2.227   2.175   1.292 -1.4562 -0.0703  1.5983
  559MOL0     H77135   2.180   2.211   1.122 -3.9607 -0.4065 -0.7351
  559MOL0     H77136   2.227   2.449   1.174 -0.8319  2.1162  2.0413
  559MOL0     H77137   2.356   2.356   1.233 -0.3835 -0.0500 -0.4195
  559MOL0     H77138   2.176   2.529   1.585 -0.3215 -2.2842  0.3615
  559MOL0     H77139   2.173   1.796   1.296 -0.0816 -0.7161  0.1232
  559MOL0     H77140   2.299   1.650   1.419 -2.8235 -1.4106 -1.2643
  559MOL0     H77141   2.345   1.707   1.580  1.6658 -1.5723 -2.0189
  559MOL0     H77142   2.210   1.581   1.554 -0.7252  0.8083 -0.1732
  560MOL0     O77143   6.760   4.513   0.056  0.4523 -0.0131 -0.0827
  560MOL0     C77144   6.767   4.585   0.159  0.8515  0.6631  0.4722
  560MOL0     O77145   6.862   4.678   0.184 -0.5021 -0.3737 -0.0513
  560MOL0     C77146   6.972   4.700   0.102  0.0268 -0.1467 -0.5027
  560MOL0     C77147   7.013   4.828   0.088  0.0527 -0.1246 -0.5185
  560MOL0     C77148   7.124   4.860   0.006  0.1088  0.4038 -0.3621
  560MOL0     C77149   7.201   4.760  -0.061  0.9574  0.2485  0.1706
  560MOL0     O77150   7.311   4.784  -0.140  0.3921  0.2520 -0.1888
  560MOL0     C77151   7.342   4.918  -0.174  0.0445  0.3641 -0.3891
  560MOL0     C77152   7.443   4.934  -0.278 -1.1343  0.0824  0.8638
  560MOL0     C77153   7.405   4.908  -0.413 -0.1347  0.5452  0.1905
  560MOL0     C77154   7.510   4.969  -0.518 -0.0231 -0.3286  0.0882
  560MOL0     C77155   7.492   4.904  -0.660  0.4719 -0.1640  0.2671
  560MOL0     C77156   7.604   4.945  -0.763  0.8624 -0.1966  0.3759
  560MOL0     C77157   7.600   5.095  -0.804  0.3304 -0.3308 -0.4431
  560MOL0     C77158   7.545   5.108  -0.943 -0.5049  0.5578  0.5763
  560MOL0     N77159   7.394   5.086  -0.957 -0.5796  0.2283  0.0033
  560MOL0     C77160   7.313   5.156  -0.873  0.4354  0.8156  0.4836
  560MOL0     C77161   7.183   5.093  -0.893 -0.6695 -0.5029  0.2108
  560MOL0     C77162   7.044   5.134  -0.849 -0.5962  0.5946 -0.2619
  560MOL0     C77163   7.001   5.042  -0.734 -0.1829 -0.3334  0.3359
  560MOL0     C77164   7.101   5.032  -0.613 -0.1872 -1.2777  0.7748
  560MOL0     C77165   7.148   5.174  -0.568  0.6998  0.2189  0.6016
  560MOL0     O77166   7.173   5.173  -0.424 -0.1816 -1.0809  0.3589
  560MOL0     C77167   7.067   5.180  -0.338  0.2564  0.0078  0.0607
  560MOL0     C77168   7.106   5.231  -0.211  0.2168 -0.6599 -0.6579
  560MOL0     C77169   7.014   5.229  -0.103 -0.6961 -0.1847 -0.6405
  560MOL0     C77170   7.071   5.292   0.024  0.0056 -0.5916  0.5033
  560MOL0     C77171   6.881   5.183  -0.122 -0.4001  0.1904 -0.0081
  560MOL0     C77172   6.774   5.160  -0.023 -0.3937 -0.4608  0.4168
  560MOL0     O77173   6.647   5.189  -0.069  1.4608  0.4827 -0.0367
  560MOL0     C77174   6.543   5.185   0.024  0.3170 -0.0623  0.7630
  560MOL0     C77175   6.423   5.129  -0.017  0.4960 -0.4631  0.2348
  560MOL0     C77176   6.315   5.115   0.063  0.2971 -0.4703  0.1106
  560MOL0     C77177   6.321   5.155   0.197 -0.9609  0.5912 -0.7028
  560MOL0     O77178   6.212   5.139   0.274  0.2477  0.0768  0.0769
  560MOL0     C77179   6.121   5.245   0.259  0.4955  0.0527 -0.7739
  560MOL0     C77180   6.042   5.261   0.386 -0.3170 -0.6823  0.5025
  560MOL0     C77181   5.963   5.133   0.428 -0.2171  0.4028 -0.2180
  560MOL0     C77182   5.840   5.112   0.343  0.3324 -0.2806  0.4847
  560MOL0     C77183   5.766   4.980   0.383 -0.6238  0.4668 -0.2208
  560MOL0     C77184   5.866   4.862   0.357  0.1350 -0.2887  0.4847
  560MOL0     C77185   5.799   4.729   0.369 -0.6295  0.2826 -0.2662
  560MOL0     C77186   5.873   4.603   0.380 -0.4036 -1.0147 -0.6888
  560MOL0    Cl77187   5.963   4.585   0.531  0.0286  0.3746  0.2364
  560MOL0     C77188   6.444   5.204   0.245  0.6960 -0.1202  0.5916
  560MOL0     C77189   6.554   5.226   0.155 -0.6082 -0.4124 -0.7402
  560MOL0     O77190   6.790   5.094   0.077 -0.4165 -0.3890 -0.0288
  560MOL0     C77191   6.848   5.156  -0.254  1.0227  0.4259 -0.1372
  560MOL0     C77192   6.934   5.153  -0.364 -0.1433 -0.0133 -0.1192
  560MOL0     N77193   7.203   4.980  -0.973 -0.1092 -0.3961  0.5372
  560MOL0     N77194   7.327   4.982  -1.017  0.0001 -0.0064 -0.0079
  560MOL0     C77195   7.158   4.627  -0.039 -0.1034 -0.3461 -0.0159
  560MOL0     C77196   7.049   4.596   0.044 -0.0467 -0.2021  0.0881
  560MOL0     C77197   6.668   4.558   0.257  0.1698  0.3781  0.1030
  560MOL0     C77198   6.643   4.428   0.304  0.3503  0.2758  0.3333
  560MOL0     C77199   6.542   4.391   0.391  0.0216 -0.1080  0.0430
  560MOL0     C77200   6.471   4.488   0.443  0.8699 -0.2185 -0.6912
  560MOL0     O77201   6.347   4.491   0.520 -1.5240  1.1116  0.3360
  560MOL0     C77202   6.271   4.373   0.526 -0.2181 -0.4956 -0.1793
  560MOL0     C77203   6.190   4.351   0.404 -0.2390  0.3595 -0.0542
  560MOL0     C77204   6.152   4.204   0.397  0.2418 -0.3773 -0.1054
  560MOL0     C77205   6.027   4.194   0.482 -0.6130 -0.8213  0.2468
  560MOL0     C77206   5.976   4.057   0.480 -0.5131 -0.6725  0.0020
  560MOL0     C77207   5.933   3.949   0.478  0.3054 -0.4905  0.0496
  560MOL0     C77208   6.509   4.619   0.412 -0.4580  0.2774  0.3106
  560MOL0     C77209   6.604   4.659   0.313 -0.0501  0.1663 -0.9713
  560MOL0     C77210   6.616   4.802   0.277  0.7742  0.0339 -0.1297
  560MOL0     H77211   6.967   4.911   0.141  0.7097 -1.4331  2.3122
  560MOL0     H77212   7.141   4.967   0.002  0.1352  0.3841 -0.7649
  560MOL0     H77213   7.376   4.958  -0.078  0.3460 -0.5833 -0.0907
  560MOL0     H77214   7.247   4.962  -0.206 -0.6643 -0.9545 -0.1617
  560MOL0     H77215   7.493   5.032  -0.283  0.9491 -0.9891 -1.7527
  560MOL0     H77216   7.522   4.859  -0.273 -0.8326  0.0219 -2.6119
  560MOL0     H77217   7.406   4.799  -0.426 -2.9720  0.7765 -3.6096
  560MOL0     H77218   7.307   4.941  -0.449  0.5085  1.1258 -1.0597
  560MOL0     H77219   7.512   5.078  -0.530  2.0843 -0.5373 -2.8988
  560MOL0     H77220   7.614   4.949  -0.489 -0.0107 -0.8858 -0.3145
  560MOL0     H77221   7.393   4.923  -0.703  0.9684  2.3524  0.0544
  560MOL0     H77222   7.498   4.796  -0.648 -1.1844 -0.3165 -0.1166
  560MOL0     H77223   7.702   4.925  -0.720  1.0476 -1.5635 -0.6410
  560MOL0     H77224   7.594   4.879  -0.849 -1.6201  0.1299  0.3363
  560MOL0     H77225   7.702   5.134  -0.806  0.2448 -0.1020 -0.3378
  560MOL0     H77226   7.537   5.151  -0.734  0.5319 -3.4421  2.5309
  560MOL0     H77227   7.562   5.205  -0.991 -0.6935  0.0219 -0.6188
  560MOL0     H77228   7.586   5.028  -1.006 -0.9702 -0.2029  1.2236
  560MOL0     H77229   7.348   5.239  -0.812 -3.0453  2.4219  0.5435
  560MOL0     H77230   6.979   5.131  -0.936 -1.2363  2.7516  0.0691
  560MOL0     H77231   7.032   5.234  -0.806 -4.3372  0.2854 -0.3094
  560MOL0     H77232   6.904   5.077  -0.698 -1.0713 -0.0855 -2.0816
  560MOL0     H77233   6.980   4.946  -0.783 -1.6564 -0.1237  0.5331
  560MOL0     H77234   7.047   4.981  -0.533  0.3160  1.2890  2.8815
  560MOL0     H77235   7.189   4.970  -0.636 -0.5778 -1.0106 -1.8078
  560MOL0     H77236   7.240   5.205  -0.619  0.6218 -2.6147 -1.5882
  560MOL0     H77237   7.066   5.241  -0.595 -0.7945 -2.4490 -2.1727
  560MOL0     H77238   7.210   5.262  -0.205  0.2014 -0.5367 -1.0672
  560MOL0     H77239   7.006   5.300   0.112  1.0142  1.3523  1.1028
  560MOL0     H77240   7.121   5.387   0.007  2.5487 -2.3345 -2.7825
  560MOL0     H77241   7.146   5.220   0.057  3.3404  1.0497 -2.7761
  560MOL0     H77242   6.427   5.117  -0.124  2.7510 -3.2274  0.5059
  560MOL0     H77243   6.222   5.074   0.025  1.3412 -4.1049  1.0410
  560MOL0     H77244   6.167   5.340   0.233  2.4690 -0.9033 -0.9381
  560MOL0     H77245   6.044   5.220   0.185 -0.0458  0.3811 -0.3341
  560MOL0     H77246   6.111   5.280   0.469  0.9214 -2.0207 -0.1908
  560MOL0     H77247   5.980   5.352   0.380  2.4992  1.2838 -1.1288
  560MOL0     H77248   5.923   5.131   0.530  0.6052 -0.7808  0.1101
  560MOL0     H77249   6.041   5.056   0.428  0.3351  0.8268  2.8890
  560MOL0     H77250   5.871   5.109   0.238  1.6179 -3.1587  0.8291
  560MOL0     H77251   5.779   5.203   0.347  2.0223  1.0489 -1.6331
  560MOL0     H77252   5.745   4.981   0.490 -2.0948  0.4947 -0.4959
  560MOL0     H77253   5.671   4.969   0.330 -0.5336  1.8927 -0.7228
  560MOL0     H77254   5.956   4.868   0.419  1.5665  0.7981 -1.5932
  560MOL0     H77255   5.909   4.876   0.258  2.4462 -1.1147  1.3112
  560MOL0     H77256   5.726   4.713   0.289 -1.6497 -2.8600  1.0953
  560MOL0     H77257   5.724   4.734   0.449 -2.6167  1.9181 -2.1216
  560MOL0     H77258   5.938   4.592   0.293  2.1584  1.9404  0.6410
  560MOL0     H77259   5.807   4.516   0.385  1.5741 -2.5021  0.6477
  560MOL0     H77260   6.453   5.227   0.351 -0.9729 -3.8058  1.6805
  560MOL0     H77261   6.638   5.260   0.215 -1.7042 -0.2138  0.7376
  560MOL0     H77262   6.751   5.117  -0.282  2.4570 -2.0776 -2.0053
  560MOL0     H77263   6.892   5.124  -0.460  1.9689 -2.9172 -0.3170
  560MOL0     H77264   7.219   4.541  -0.059 -0.6922 -1.0653  1.1559
  560MOL0     H77265   7.016   4.496   0.070 -4.2209  0.5405 -1.5229
  560MOL0     H77266   6.700   4.345   0.264  0.0676  1.5221 -3.0013
  560MOL0     H77267   6.521   4.286   0.409 -0.9539  0.1700  0.5450
  560MOL0     H77268   6.344   4.293   0.544 -3.1317 -2.8549  2.1167
  560MOL0     H77269   6.206   4.369   0.614 -2.7741 -2.5906 -2.0324
  560MOL0     H77270   6.253   4.376   0.317 -1.8199  2.3540 -0.7034
  560MOL0     H77271   6.108   4.423   0.409  0.6490  1.3333  0.7712
  560MOL0     H77272   6.136   4.179   0.292 -1.9910 -0.6839  0.2456
  560MOL0     H77273   6.225   4.131   0.433 -1.0206 -1.5437  0.1939
  560MOL0     H77274   5.949   4.261   0.445  0.6302 -0.0469 -1.0536
  560MOL0     H77275   6.054   4.232   0.580  0.0170  0.5338 -0.4305
  560MOL0     H77276   5.890   3.851   0.491  0.0043 -0.4772 -0.8022
  560MOL0     H77277   6.461   4.700   0.467 -0.0762 -0.9592  2.5846
  560MOL0     H77278   6.692   4.839   0.346  0.5929 -1.4452  0.9015
  560MOL0     H77279   6.643   4.814   0.172 -1.3893 -0.1516 -0.7673
  560MOL0     H77280   6.520   4.853   0.289  1.7568  1.5840  1.5510
  561MOL0     O77281   0.963   4.139   3.143  0.4012  0.4455 -0.3486
  561MOL0     C77282   0.960   4.104   3.025  0.6018  0.8668  0.2510
  561MOL0     O77283   1.068   4.072   2.954  0.6114 -0.2696  0.3894
  561MOL0     C77284   1.185   4.122   3.009 -0.3511  0.5604  1.1319
  561MOL0     C77285   1.235   4.240   2.961  0.2923 -0.3514  0.3724
  561MOL0     C77286   1.353   4.298   3.024  0.5581  0.0874  0.0809
  561MOL0     C77287   1.425   4.220   3.120 -0.0456  0.5082 -0.3610
  561MOL0     O77288   1.544   4.274   3.171  0.0235 -0.1766  0.4184
  561MOL0     C77289   1.574   4.266   3.309 -0.0769  0.1640 -1.9701
  561MOL0     C77290   1.555   4.391   3.383  0.6095 -0.4677  0.3464
  561MOL0     C77291   1.435   4.469   3.339  0.3794 -0.1314 -0.2233
  561MOL0     C77292   1.424   4.594   3.427 -0.1997 -0.5777  0.3583
  561MOL0     C77293   1.335   4.703   3.384  0.6420  0.0705  0.4456
  561MOL0     C77294   1.188   4.660   3.360 -0.9093 -0.2465  0.4146
  561MOL0     C77295   1.090   4.760   3.295  1.0104 -0.6754 -1.0405
  561MOL0     C77296   1.052   4.881   3.384 -0.0552 -0.4921 -0.0952
  561MOL0     N77297   0.938   4.959   3.316  0.3028  0.4336  1.0395
  561MOL0     C77298   0.892   4.941   3.188  1.0389 -1.1068  0.4064
  561MOL0     C77299   0.798   5.039   3.175 -0.2247  0.2554  0.2406
  561MOL0     C77300   0.710   5.076   3.056  0.0663 -0.0382 -0.8698
  561MOL0     C77301   0.568   5.010   3.068 -0.2885  0.0314 -0.3561
  561MOL0     C77302   0.478   5.058   3.181 -0.0319  0.0595  0.6997
  561MOL0     C77303   0.349   4.976   3.171 -0.0008 -0.2386 -0.7985
  561MOL0     O77304   0.242   5.017   3.268 -0.4718 -0.1908 -0.0421
  561MOL0     C77305   0.126   4.936   3.271  0.0855  0.0225 -0.2859
  561MOL0     C77306   0.042   4.950   3.375 -0.3848  0.4074 -0.0096
  561MOL0     C77307  -0.084   4.892   3.381  1.0859  0.1035  0.0860
  561MOL0     C77308  -0.181   4.932   3.493  0.7315 -0.2924  0.0415
  561MOL0     C77309  -0.118   4.791   3.282  0.5790 -0.8784 -0.1630
  561MOL0     C77310  -0.247   4.711   3.288  0.8775 -0.0951  0.7290
  561MOL0     O77311  -0.309   4.686   3.410 -0.5265 -0.8907  0.2287
  561MOL0     C77312  -0.430   4.623   3.410  0.4033 -0.4078  0.1668
  561MOL0     C77313  -0.547   4.698   3.404 -1.5259 -0.5436 -1.7060
  561MOL0     C77314  -0.676   4.640   3.390  0.1007 -0.7257  0.2518
  561MOL0     C77315  -0.685   4.497   3.404  0.1941 -0.6694 -0.6074
  561MOL0     O77316  -0.812   4.438   3.404 -0.0885  0.3941  0.3393
  561MOL0     C77317  -0.938   4.516   3.387  0.2707  0.2918  0.0209
  561MOL0     C77318  -1.055   4.413   3.370  0.0535  0.0302  0.5569
  561MOL0     C77319  -1.067   4.358   3.230 -0.3239  0.3802 -0.4176
  561MOL0     C77320  -1.200   4.277   3.218  0.1261 -0.3750  0.7545
  561MOL0     C77321  -1.202   4.147   3.303  0.7230  0.8206  0.4258
  561MOL0     C77322  -1.306   4.045   3.259 -0.2592 -0.1692  0.1819
  561MOL0     C77323  -1.447   4.097   3.279  0.7783 -0.2702 -0.5628
  561MOL0     C77324  -1.545   4.004   3.340  0.3473 -0.2683 -0.4094
  561MOL0    Cl77325  -1.660   4.083   3.455 -0.0145 -0.1966 -0.1741
  561MOL0     C77326  -0.570   4.420   3.400 -0.4581  0.7254  0.8657
  561MOL0     C77327  -0.449   4.484   3.404  0.1572 -0.1694 -0.9008
  561MOL0     O77328  -0.286   4.664   3.183 -0.0812 -0.1991  0.3974
  561MOL0     C77329  -0.022   4.767   3.177 -0.5109  0.1319 -0.2078
  561MOL0     C77330   0.100   4.842   3.178  0.3260  0.0632  0.4445
  561MOL0     N77331   0.787   5.114   3.291 -0.4649  0.2246 -0.0387
  561MOL0     N77332   0.876   5.069   3.367  0.4892 -0.0017 -0.5961
  561MOL0     C77333   1.371   4.099   3.171 -0.7187 -0.2288  0.4857
  561MOL0     C77334   1.256   4.047   3.107  1.2002  0.4659 -0.1955
  561MOL0     C77335   0.827   4.110   2.946 -0.5702  0.3451 -0.1458
  561MOL0     C77336   0.837   4.115   2.810 -0.0976  0.2127 -1.0171
  561MOL0     C77337   0.718   4.115   2.737  0.1700 -0.0978  0.4217
  561MOL0     C77338   0.587   4.104   2.791 -1.0901  0.4697 -0.0178
  561MOL0     O77339   0.483   4.090   2.704 -0.6655  0.4920  0.4854
  561MOL0     C77340   0.360   4.168   2.727 -0.1658  0.5112 -0.7610
  561MOL0     C77341   0.286   4.214   2.593 -0.1968  0.1925  0.0428
  561MOL0     C77342   0.358   4.332   2.527 -0.0051 -0.5381 -0.4225
  561MOL0     C77343   0.307   4.381   2.396  0.3291 -0.3551 -0.7268
  561MOL0     C77344   0.181   4.449   2.433  0.2994  0.6539 -0.1176
  561MOL0     C77345   0.077   4.504   2.465 -0.0610  0.0053  0.2137
  561MOL0     C77346   0.588   4.102   2.926 -0.7691  0.2569  0.0221
  561MOL0     C77347   0.705   4.097   3.003  0.9456  0.3351  0.9752
  561MOL0     C77348   0.680   4.050   3.146  0.0396 -0.3213  0.2087
  561MOL0     H77349   1.186   4.301   2.886  1.6819 -0.5940 -0.7623
  561MOL0     H77350   1.393   4.382   2.968  0.9180  1.6995  2.6096
  561MOL0     H77351   1.675   4.231   3.330 -0.2391 -1.0277 -3.0628
  561MOL0     H77352   1.522   4.186   3.363  0.8297  1.9703  1.8915
  561MOL0     H77353   1.538   4.368   3.489 -4.3871  0.9114  0.1221
  561MOL0     H77354   1.639   4.460   3.374 -0.3873  0.5728 -1.5271
  561MOL0     H77355   1.443   4.505   3.236 -0.3302  2.2383  0.4728
  561MOL0     H77356   1.346   4.406   3.350 -0.6809  1.6578  2.9521
  561MOL0     H77357   1.398   4.567   3.530  0.0773  1.4730  1.0140
  561MOL0     H77358   1.527   4.632   3.431  0.0331 -0.8675 -1.9543
  561MOL0     H77359   1.368   4.744   3.289 -1.1409 -0.2434 -0.3521
  561MOL0     H77360   1.327   4.781   3.460 -1.1814 -1.0501  1.4676
  561MOL0     H77361   1.197   4.572   3.296 -0.0775  1.4976 -2.0214
  561MOL0     H77362   1.154   4.629   3.459  0.0339 -1.9724  0.2429
  561MOL0     H77363   0.991   4.714   3.288  1.5806 -2.3903  1.1518
  561MOL0     H77364   1.124   4.792   3.196 -0.8954 -0.2689 -1.6189
  561MOL0     H77365   1.013   4.830   3.473  0.9552 -2.2165 -0.5866
  561MOL0     H77366   1.134   4.944   3.418 -2.0202  2.9014 -1.2016
  561MOL0     H77367   0.922   4.872   3.109  1.5477  1.8685 -2.1735
  561MOL0     H77368   0.757   5.047   2.962 -0.6864  0.2682 -1.3535
  561MOL0     H77369   0.708   5.185   3.052 -0.5575 -0.0244 -0.3989
  561MOL0     H77370   0.523   5.046   2.974  0.6708  3.4547  0.3458
  561MOL0     H77371   0.573   4.901   3.068 -0.0345 -0.0101 -2.3831
  561MOL0     H77372   0.525   5.043   3.279  0.2243  1.5561  0.8246
  561MOL0     H77373   0.471   5.166   3.165 -2.0833 -0.0195  0.7520
  561MOL0     H77374   0.309   4.991   3.070  0.0936 -1.2457 -0.9976
  561MOL0     H77375   0.378   4.872   3.187 -1.3092 -0.7441 -1.5585
  561MOL0     H77376   0.082   5.015   3.452  0.6413 -0.8974  0.6015
  561MOL0     H77377  -0.175   4.850   3.566  1.1161 -1.5451 -1.3566
  561MOL0     H77378  -0.286   4.931   3.464  0.2884 -1.2603  1.5637
  561MOL0     H77379  -0.151   5.022   3.548 -1.4796  0.1595  0.6016
  561MOL0     H77380  -0.537   4.806   3.396 -1.2179 -0.3485  0.6965
  561MOL0     H77381  -0.759   4.709   3.383  1.2736  0.5400 -1.9618
  561MOL0     H77382  -0.959   4.578   3.474  1.3293  1.5272 -0.5701
  561MOL0     H77383  -0.926   4.568   3.291  0.1740 -1.7352 -1.1646
  561MOL0     H77384  -1.057   4.339   3.450 -0.8619  0.0381  0.5518
  561MOL0     H77385  -1.145   4.474   3.385 -0.9225 -1.8395  3.0660
  561MOL0     H77386  -0.978   4.298   3.209 -0.7005 -0.7813  1.1464
  561MOL0     H77387  -1.062   4.435   3.153  2.3957  0.1026 -0.6242
  561MOL0     H77388  -1.197   4.256   3.110  0.5725  1.3379  0.3946
  561MOL0     H77389  -1.293   4.325   3.250  0.2373  0.6519 -0.3776
  561MOL0     H77390  -1.108   4.092   3.297 -0.0192 -0.5155  0.7510
  561MOL0     H77391  -1.215   4.158   3.411  0.1886  2.3800  0.2377
  561MOL0     H77392  -1.280   3.946   3.298 -1.3273 -0.5142  0.0585
  561MOL0     H77393  -1.300   4.026   3.152 -0.1585 -1.0133  0.3309
  561MOL0     H77394  -1.489   4.150   3.193 -1.1065 -0.0228  0.4666
  561MOL0     H77395  -1.444   4.178   3.353 -2.1618  0.9524 -1.6336
  561MOL0     H77396  -1.488   3.924   3.388  4.4272  2.2842 -0.4639
  561MOL0     H77397  -1.598   3.954   3.258  2.3636 -0.1758 -1.8708
  561MOL0     H77398  -0.558   4.313   3.409  1.0001  0.6531 -1.2212
  561MOL0     H77399  -0.359   4.424   3.395 -0.2937 -1.4770  2.0955
  561MOL0     H77400  -0.034   4.692   3.100 -0.1231 -0.7311  0.5679
  561MOL0     H77401   0.164   4.813   3.096 -1.0878 -0.5020 -0.4816
  561MOL0     H77402   1.430   4.038   3.238  1.6570 -1.5331 -2.5387
  561MOL0     H77403   1.213   3.952   3.138  0.4407  0.7996 -0.1939
  561MOL0     H77404   0.932   4.122   2.759 -1.2083  0.6153 -3.1680
  561MOL0     H77405   0.717   4.124   2.629  1.7842 -0.0745  0.3977
  561MOL0     H77406   0.291   4.116   2.794 -2.2019 -0.3820 -3.4163
  561MOL0     H77407   0.384   4.260   2.780  2.5477 -0.4984 -0.0097
  561MOL0     H77408   0.186   4.237   2.632  0.8631  1.3134  2.2284
  561MOL0     H77409   0.281   4.130   2.523 -3.9462 -0.6181  1.0554
  561MOL0     H77410   0.364   4.423   2.586 -2.7932  0.1702 -1.0756
  561MOL0     H77411   0.462   4.303   2.515  0.1822 -0.4671  0.8599
  561MOL0     H77412   0.293   4.302   2.322 -0.2340 -0.0639 -0.9379
  561MOL0     H77413   0.369   4.463   2.360  1.2498 -0.7824 -0.1452
  561MOL0     H77414  -0.016   4.551   2.490 -0.2070  1.1522 -2.1767
  561MOL0     H77415   0.492   4.088   2.974 -0.3942 -0.8654  0.4697
  561MOL0     H77416   0.736   3.956   3.158  2.3138  0.8695 -0.3783
  561MOL0     H77417   0.719   4.120   3.220 -2.1284 -0.8134  1.9258
  561MOL0     H77418   0.574   4.036   3.170 -0.1616  1.4935  0.4714
  562MOL0     O77419   6.078   9.870   6.286 -0.0829 -0.8561 -0.3724
  562MOL0     C77420   6.012   9.967   6.331 -0.5475  0.1231 -0.3323
  562MOL0     O77421   6.064  10.089   6.376  0.6478  0.0976  0.8617
  562MOL0     C77422   6.185  10.134   6.340  0.5009  0.2080  0.3338
  562MOL0     C77423   6.220  10.127   6.208 -1.2637 -0.4369  0.1348
  562MOL0     C77424   6.347  10.176   6.159  0.2702 -1.0001  1.3957
  562MOL0     C77425   6.438  10.234   6.259  0.0474 -0.4775  0.9951
  562MOL0     O77426   6.565  10.281   6.237  0.3693  0.0852  0.1228
  562MOL0     C77427   6.619  10.262   6.101  0.7167  0.1213  0.1928
  562MOL0     C77428   6.768  10.318   6.073 -0.1394  1.2241  1.1137
  562MOL0     C77429   6.874  10.273   6.182  0.1630  0.5968 -0.7626
  562MOL0     C77430   6.944  10.134   6.147 -0.0379  0.4869  0.6639
  562MOL0     C77431   6.846  10.015   6.166 -0.1498  0.3392 -0.2956
  562MOL0     C77432   6.918   9.890   6.224 -0.5080  0.6739 -0.2438
  562MOL0     C77433   7.053   9.853   6.154  0.5065  0.0576  0.1416
  562MOL0     C77434   7.131   9.739   6.216 -0.5277  0.4612  0.2121
  562MOL0     N77435   7.271   9.775   6.219  1.0902 -0.2640 -1.5497
  562MOL0     C77436   7.315   9.868   6.312 -0.2804 -0.8533 -0.9447
  562MOL0     C77437   7.455   9.862   6.305  0.7680 -0.0922  0.3801
  562MOL0     C77438   7.547   9.949   6.386 -0.4580  0.8455 -0.1804
  562MOL0     C77439   7.577   9.865   6.505 -0.2533  0.5156  0.0495
  562MOL0     C77440   7.654   9.734   6.478 -0.5908 -0.5722 -0.3060
  562MOL0     C77441   7.794   9.759   6.422 -0.3679  0.2437  0.2243
  562MOL0     O77442   7.863   9.632   6.416  0.6776  0.3609  0.2628
  562MOL0     C77443   7.993   9.631   6.391  0.2972  0.1222 -0.2491
  562MOL0     C77444   8.061   9.514   6.420 -0.1368 -0.1191  0.0364
  562MOL0     C77445   8.197   9.495   6.388 -0.2318 -1.1000 -0.9398
  562MOL0     C77446   8.262   9.369   6.441 -0.2734 -1.5797  0.0450
  562MOL0     C77447   8.268   9.602   6.329 -0.6662  0.9765  0.4304
  562MOL0     C77448   8.401   9.594   6.272 -0.7530  0.7316 -0.0760
  562MOL0     O77449   8.457   9.705   6.232  0.1279 -0.1698 -0.4555
  562MOL0     C77450   8.588   9.717   6.212 -0.0635  0.1406  0.2790
  562MOL0     C77451   8.626   9.791   6.099 -0.6347  0.5822  0.4278
  562MOL0     C77452   8.763   9.810   6.064 -1.2323  0.6529 -0.0817
  562MOL0     C77453   8.861   9.749   6.142 -0.0126  0.4915  0.2432
  562MOL0     O77454   8.997   9.755   6.107  0.4136 -0.4327 -1.0802
  562MOL0     C77455   9.074   9.636   6.120  0.5696  0.5169 -0.2472
  562MOL0     C77456   9.183   9.626   6.009  0.9382 -0.2155  0.1196
  562MOL0     C77457   9.288   9.735   6.011  0.5157 -0.5236 -0.5352
  562MOL0     C77458   9.396   9.721   5.907 -0.2190 -0.2924 -0.2690
  562MOL0     C77459   9.499   9.833   5.930 -0.4319 -0.0500 -0.0839
  562MOL0     C77460   9.594   9.854   5.810 -0.0657 -0.0211  0.1980
  562MOL0     C77461   9.662   9.986   5.811  0.0004 -0.3151  0.4154
  562MOL0     C77462   9.758  10.012   5.702  1.0163  0.2320  0.2191
  562MOL0    Cl77463   9.892   9.898   5.723  0.1840  0.1123 -0.0855
  562MOL0     C77464   8.828   9.691   6.263  0.1395 -0.4485  0.1447
  562MOL0     C77465   8.692   9.675   6.305 -0.4868  0.0169  1.1013
  562MOL0     O77466   8.461   9.480   6.267  0.1368 -0.3338  0.1556
  562MOL0     C77467   8.201   9.721   6.309 -0.1998 -0.8763  0.9581
  562MOL0     C77468   8.070   9.739   6.345 -0.6017 -1.1708 -0.0491
  562MOL0     N77469   7.488   9.778   6.203  0.0321 -0.3017 -0.5971
  562MOL0     N77470   7.379   9.732   6.154 -0.0281  0.4068  0.7742
  562MOL0     C77471   6.403  10.231   6.397  0.7166 -0.2029 -0.5152
  562MOL0     C77472   6.272  10.190   6.442 -0.0109  0.4814  0.0067
  562MOL0     C77473   5.864   9.948   6.323 -0.2132 -0.1824 -0.3820
  562MOL0     C77474   5.791  10.047   6.391  0.1120 -0.2634  0.6764
  562MOL0     C77475   5.650  10.042   6.386 -0.1920 -0.6708  0.3342
  562MOL0     C77476   5.582   9.932   6.346  0.4181  0.2543  0.2630
  562MOL0     O77477   5.443   9.931   6.371  0.0750  0.3127 -0.4890
  562MOL0     C77478   5.360   9.833   6.311 -0.0345  0.0231  0.2184
  562MOL0     C77479   5.214   9.875   6.325 -0.7673  0.1420  0.0126
  562MOL0     C77480   5.179   9.948   6.451 -0.4282  0.5899  0.8219
  562MOL0     C77481   5.027   9.964   6.459 -0.3656  0.2436  0.1494
  562MOL0     C77482   4.995  10.035   6.581 -0.1063  0.3304 -0.0406
  562MOL0     C77483   4.950  10.096   6.677 -1.5435  0.0011 -0.1605
  562MOL0     C77484   5.655   9.832   6.282  0.0778  0.5759  0.4385
  562MOL0     C77485   5.790   9.839   6.264 -0.3411 -0.6593  0.0764
  562MOL0     C77486   5.847   9.726   6.176 -0.1029 -0.5933  0.0069
  562MOL0     H77487   6.147  10.089   6.137 -0.7587  0.2204 -0.7540
  562MOL0     H77488   6.359  10.178   6.051  1.8220  2.4706  1.4959
  562MOL0     H77489   6.558  10.315   6.027  0.8372 -0.8218 -0.6049
  562MOL0     H77490   6.624  10.158   6.068  3.0102  0.9242 -2.3364
  562MOL0     H77491   6.799  10.301   5.970 -0.0442  1.9673  1.0089
  562MOL0     H77492   6.760  10.427   6.085 -0.4365  1.0391  2.7974
  562MOL0     H77493   6.950  10.351   6.191 -1.0031  1.7032 -0.2382
  562MOL0     H77494   6.824  10.266   6.279  0.9493  1.9471 -0.2332
  562MOL0     H77495   6.981  10.131   6.044 -0.8261  2.5228  0.2863
  562MOL0     H77496   7.034  10.139   6.210  0.5614  3.1074 -0.2762
  562MOL0     H77497   6.804  10.005   6.065 -2.2472 -1.3998  0.6553
  562MOL0     H77498   6.762  10.042   6.232 -0.4512  0.2508 -0.6395
  562MOL0     H77499   6.924   9.911   6.331  4.3024 -0.2662 -0.1024
  562MOL0     H77500   6.854   9.801   6.225 -0.8973  0.8468  3.0691
  562MOL0     H77501   7.120   9.939   6.148  0.5625 -0.0882 -2.2792
  562MOL0     H77502   7.034   9.830   6.048 -0.2619 -2.5633  0.7777
  562MOL0     H77503   7.090   9.710   6.314 -1.5515  1.2351  0.0236
  562MOL0     H77504   7.136   9.649   6.154  0.2233 -0.1699  1.1535
  562MOL0     H77505   7.259   9.937   6.375 -1.5092 -2.1550 -0.5597
  562MOL0     H77506   7.502  10.045   6.409  0.0251  0.5465  2.2002
  562MOL0     H77507   7.639   9.957   6.328 -0.6803 -3.9039 -1.6312
  562MOL0     H77508   7.653   9.916   6.565  1.4015 -0.4984 -1.0965
  562MOL0     H77509   7.483   9.843   6.555 -0.7389 -0.0877 -1.0799
  562MOL0     H77510   7.661   9.672   6.567  0.3383  1.0004  0.7618
  562MOL0     H77511   7.597   9.676   6.405  1.3233 -2.2706 -0.5583
  562MOL0     H77512   7.781   9.793   6.319 -0.5898  1.4432  0.6315
  562MOL0     H77513   7.846   9.827   6.490 -3.0348  1.1203  1.5188
  562MOL0     H77514   8.012   9.433   6.473  0.9475 -0.3753  0.6919
  562MOL0     H77515   8.204   9.336   6.527 -0.0633  0.7827  1.1951
  562MOL0     H77516   8.358   9.398   6.486 -0.9927 -0.6051  0.9959
  562MOL0     H77517   8.292   9.306   6.357  1.7635  1.7571 -1.9789
  562MOL0     H77518   8.553   9.834   6.032  0.4637  1.7470 -0.0545
  562MOL0     H77519   8.785   9.874   5.980 -1.8517  2.7959  1.3109
  562MOL0     H77520   9.113   9.628   6.222 -2.4724  1.0285  1.0692
  562MOL0     H77521   9.006   9.552   6.103  2.5127 -1.7553  2.2989
  562MOL0     H77522   9.232   9.529   6.016  1.3999  0.0738  1.0541
  562MOL0     H77523   9.138   9.628   5.909  0.3252 -0.1408  0.3880
  562MOL0     H77524   9.344   9.713   6.102 -1.8369  0.0687  1.1456
  562MOL0     H77525   9.245   9.836   6.012 -1.8825 -1.4438  1.9748
  562MOL0     H77526   9.347   9.728   5.809 -0.6821 -2.0286 -0.1854
  562MOL0     H77527   9.443   9.623   5.905 -0.0124 -0.1959 -0.1869
  562MOL0     H77528   9.451   9.930   5.946 -1.9741 -0.8411  0.2837
  562MOL0     H77529   9.555   9.806   6.021 -1.6940 -0.7782  0.5011
  562MOL0     H77530   9.540   9.847   5.716 -1.4738 -1.0121  1.0442
  562MOL0     H77531   9.673   9.778   5.814  0.7789  0.7072 -1.4803
  562MOL0     H77532   9.702   9.995   5.913 -2.8642 -1.3999  1.7730
  562MOL0     H77533   9.589  10.066   5.797 -0.9324 -1.2255 -0.1301
  562MOL0     H77534   9.807  10.110   5.713 -0.5751  0.8488  2.4441
  562MOL0     H77535   9.716   9.994   5.602  0.7815  0.6643  0.2371
  562MOL0     H77536   8.908   9.652   6.324  0.6798  0.6659  0.1597
  562MOL0     H77537   8.691   9.627   6.402  0.9638 -1.1488  0.5741
  562MOL0     H77538   8.251   9.807   6.266 -0.6383 -0.3733  1.4389
  562MOL0     H77539   8.016   9.831   6.325 -1.7587 -1.9107 -0.5029
  562MOL0     H77540   6.473  10.270   6.470 -0.6813 -2.3555  2.1788
  562MOL0     H77541   6.234  10.192   6.543 -2.0457  0.3934 -0.7144
  562MOL0     H77542   5.841  10.134   6.431 -0.1234  0.6276 -0.8921
  562MOL0     H77543   5.594  10.122   6.433  1.9256 -0.2156  2.2393
  562MOL0     H77544   5.388   9.811   6.207 -1.0899 -1.7615  0.2669
  562MOL0     H77545   5.384   9.741   6.366  0.2404  1.5687  2.8593
  562MOL0     H77546   5.161   9.780   6.313 -0.1566 -0.1665 -0.3061
  562MOL0     H77547   5.184   9.941   6.243 -0.8100  1.4524  1.0485
  562MOL0     H77548   5.213   9.883   6.532  1.1369 -0.2586 -0.4778
  562MOL0     H77549   5.225  10.047   6.461  0.0720  0.3033  1.4218
  562MOL0     H77550   4.973   9.871   6.474 -0.1964  0.4772  2.4638
  562MOL0     H77551   4.985  10.014   6.371 -0.1726  0.8034  0.3724
  562MOL0     H77552   4.939  10.161   6.762 -2.0375 -1.1416  0.6725
  562MOL0     H77553   5.599   9.743   6.255 -1.8139  1.2682  1.8126
  562MOL0     H77554   5.932   9.763   6.119  1.0854  1.2596  2.7830
  562MOL0     H77555   5.894   9.649   6.239  0.9248  2.7837  3.7733
  562MOL0     H77556   5.771   9.682   6.111  0.1230 -2.1535  0.7351
  563MOL0     O77557  11.020   0.964   1.328 -0.1398 -0.0677 -0.5210
  563MOL0     C77558  11.093   0.900   1.406 -0.2894  1.5432  0.2188
  563MOL0     O77559  11.060   0.779   1.464 -0.2063  0.0223  0.2149
  563MOL0     C77560  10.934   0.718   1.449 -0.0652 -0.6080  0.4883
  563MOL0     C77561  10.931   0.581   1.470  0.3170 -0.3879  0.2038
  563MOL0     C77562  10.817   0.501   1.442  0.5014 -0.3525  0.9287
  563MOL0     C77563  10.690   0.562   1.403 -0.2887 -0.4099  0.2844
  563MOL0     O77564  10.580   0.490   1.360 -0.1567  0.7904 -0.0073
  563MOL0     C77565  10.583   0.354   1.318 -0.5387  0.0713  0.8305
  563MOL0     C77566  10.503   0.332   1.187  0.4534 -0.3667 -0.0127
  563MOL0     C77567  10.597   0.361   1.074 -0.2880  0.3082 -0.2849
  563MOL0     C77568  10.530   0.343   0.945 -0.0046 -0.0969  0.2504
  563MOL0     C77569  10.497   0.200   0.906 -0.0290  1.3059  0.3953
  563MOL0     C77570  10.457   0.191   0.758 -0.3934  1.2366 -0.2642
  563MOL0     C77571  10.495   0.055   0.693  0.6372 -0.2074 -0.3942
  563MOL0     C77572  10.469   0.049   0.547 -0.8926 -0.3468  1.1646
  563MOL0     N77573  10.568   0.132   0.469  0.3098  0.2821  0.1904
  563MOL0     C77574  10.698   0.098   0.440  0.3235  0.1496 -1.0935
  563MOL0     C77575  10.749   0.203   0.372  0.7385  0.0140  0.2346
  563MOL0     C77576  10.894   0.207   0.323  0.6884  0.8707  0.2197
  563MOL0     C77577  10.966   0.067   0.305 -0.0309  0.4212  0.2040
  563MOL0     C77578  11.093   0.063   0.225  1.2618 -0.0248 -0.0000
  563MOL0     C77579  11.210   0.124   0.299 -0.0550  0.4383  0.6579
  563MOL0     O77580  11.333   0.082   0.240  0.3853 -0.4203 -0.4590
  563MOL0     C77581  11.452   0.123   0.293 -0.9730 -0.1578 -0.3179
  563MOL0     C77582  11.570   0.067   0.239 -0.5805  0.1579  0.6346
  563MOL0     C77583  11.698   0.101   0.277 -0.5922  0.1563  1.4583
  563MOL0     C77584  11.814   0.047   0.196 -0.5068 -0.0791  0.4146
  563MOL0     C77585  11.705   0.180   0.398 -0.3865 -0.1867  0.4020
  563MOL0     C77586  11.839   0.213   0.452  0.1476 -0.1502  0.1449
  563MOL0     O77587  11.858   0.227   0.589  0.8940 -0.5029  0.0210
  563MOL0     C77588  11.967   0.192   0.650 -0.8426 -0.0230  0.2329
  563MOL0     C77589  12.094   0.163   0.586  0.8231 -0.6855 -0.3335
  563MOL0     C77590  12.202   0.124   0.666  0.3335 -0.3786 -0.4756
  563MOL0     C77591  12.188   0.127   0.810  0.5815  0.3361  0.0632
  563MOL0     O77592  12.280   0.078   0.900  0.1646  0.1218  0.4448
  563MOL0     C77593  12.414   0.131   0.885 -0.7135 -0.2854  0.6269
  563MOL0     C77594  12.513   0.026   0.931  0.2807 -1.1511 -0.1414
  563MOL0     C77595  12.526   0.029   1.091  0.0108 -0.0800  0.4166
  563MOL0     C77596  12.577  -0.107   1.142 -0.0963 -1.0511  0.2633
  563MOL0     C77597  12.703  -0.167   1.067 -0.1187 -0.1882  0.6474
  563MOL0     C77598  12.824  -0.074   1.090  0.1125  0.1706 -0.0122
  563MOL0     C77599  12.964  -0.145   1.056 -0.1585 -0.0938 -0.0318
  563MOL0     C77600  12.969  -0.206   0.919 -0.0685  0.5814  0.1602
  563MOL0    Cl77601  13.140  -0.217   0.877 -0.4470 -0.1427 -0.1619
  563MOL0     C77602  12.070   0.174   0.867 -0.1429  0.3996  0.4642
  563MOL0     C77603  11.968   0.211   0.784  0.0093 -0.2560  0.3006
  563MOL0     O77604  11.913   0.261   0.368  0.1165 -0.2292  0.0858
  563MOL0     C77605  11.596   0.235   0.461 -0.1546  0.2561 -0.2023
  563MOL0     C77606  11.467   0.207   0.406  0.0106  0.4133 -0.5824
  563MOL0     N77607  10.650   0.285   0.330  0.4622 -0.1428 -0.0567
  563MOL0     N77608  10.544   0.255   0.404 -0.1760  0.4715  0.7972
  563MOL0     C77609  10.693   0.703   1.386  0.7705  1.0468  0.5973
  563MOL0     C77610  10.806   0.777   1.418 -0.0517 -0.7126 -0.0901
  563MOL0     C77611  11.231   0.943   1.418 -0.1737  0.7962 -0.5314
  563MOL0     C77612  11.313   0.849   1.458  0.0420  0.4586  0.4599
  563MOL0     C77613  11.452   0.870   1.495  0.0921  0.4099 -0.6371
  563MOL0     C77614  11.506   0.998   1.486 -0.5799 -0.6986  0.4133
  563MOL0     O77615  11.636   1.029   1.524 -0.0698 -0.3240  0.0920
  563MOL0     C77616  11.653   1.078   1.661  0.6606 -0.9148  0.5262
  563MOL0     C77617  11.605   0.995   1.774  0.6456  0.6765  0.1297
  563MOL0     C77618  11.694   0.871   1.782  0.1255  0.0162  0.4259
  563MOL0     C77619  11.635   0.757   1.859  0.4112  0.6666  0.0661
  563MOL0     C77620  11.719   0.642   1.855 -0.4475 -0.2449  0.5030
  563MOL0     C77621  11.785   0.541   1.832  0.5362 -0.4672 -0.5965
  563MOL0     C77622  11.421   1.095   1.432  0.8986 -0.3283 -0.6369
  563MOL0     C77623  11.282   1.075   1.401 -0.8559  0.4492 -0.4831
  563MOL0     C77624  11.194   1.193   1.356  0.1357  0.3911 -0.4035
  563MOL0     H77625  11.024   0.528   1.491  0.9768 -0.0735 -1.7325
  563MOL0     H77626  10.809   0.394   1.456 -2.4148 -0.3819 -0.1192
  563MOL0     H77627  10.541   0.286   1.393  0.5830 -2.6064 -0.8274
  563MOL0     H77628  10.685   0.326   1.288 -1.2081 -0.7554 -0.8263
  563MOL0     H77629  10.463   0.231   1.176  0.1169 -0.6680  3.0680
  563MOL0     H77630  10.430   0.414   1.186  1.6933  0.8210  1.3523
  563MOL0     H77631  10.626   0.465   1.090 -0.1782  0.0617  1.2077
  563MOL0     H77632  10.678   0.289   1.087 -1.1818 -1.0839 -1.9068
  563MOL0     H77633  10.438   0.401   0.947  0.2338  0.2821  0.1792
  563MOL0     H77634  10.593   0.395   0.873 -2.4230  3.6012  0.5841
  563MOL0     H77635  10.412   0.167   0.967 -0.9502  2.2750 -0.3385
  563MOL0     H77636  10.580   0.135   0.936 -1.5683 -0.3840  1.1971
  563MOL0     H77637  10.349   0.205   0.753 -0.4498  0.5438 -1.0242
  563MOL0     H77638  10.502   0.270   0.697 -3.4566  2.9781 -0.4648
  563MOL0     H77639  10.428  -0.021   0.735  2.9465  0.5699  5.6163
  563MOL0     H77640  10.599   0.030   0.715  0.7567 -0.4666 -1.2047
  563MOL0     H77641  10.482  -0.056   0.519 -1.1871  0.3222 -1.8421
  563MOL0     H77642  10.368   0.086   0.527 -1.3502 -1.7769  0.7368
  563MOL0     H77643  10.750   0.008   0.470 -1.7181  0.1502  3.2616
  563MOL0     H77644  10.951   0.260   0.400  1.3641  1.2188 -0.5074
  563MOL0     H77645  10.901   0.268   0.232 -0.9964  1.7618  0.6464
  563MOL0     H77646  10.965   0.000   0.392 -0.9059  2.8807  2.2057
  563MOL0     H77647  10.905   0.016   0.230  2.3752 -1.3138 -0.7068
  563MOL0     H77648  11.111  -0.043   0.207  3.9421  0.1646  1.1135
  563MOL0     H77649  11.081   0.129   0.139  0.4582  0.2097  0.2867
  563MOL0     H77650  11.215   0.233   0.299  0.4210  0.4170  0.6906
  563MOL0     H77651  11.203   0.104   0.407  1.7030  0.1979  0.7517
  563MOL0     H77652  11.567  -0.006   0.158  1.6334 -0.7044  1.2466
  563MOL0     H77653  11.783  -0.033   0.128 -0.8174 -0.9853  1.5885
  563MOL0     H77654  11.889  -0.002   0.259 -0.6452 -2.4007 -1.0993
  563MOL0     H77655  11.878   0.119   0.145 -0.5548  1.2702  2.1784
  563MOL0     H77656  12.103   0.145   0.479 -1.6724 -1.2052 -0.5127
  563MOL0     H77657  12.285   0.082   0.611  0.7489 -1.1280  0.6807
  563MOL0     H77658  12.440   0.165   0.784  0.9765  1.5272  1.5944
  563MOL0     H77659  12.433   0.219   0.947 -0.2698 -0.3475  0.5826
  563MOL0     H77660  12.472  -0.070   0.898 -0.4735 -1.1751  0.8121
  563MOL0     H77661  12.605   0.060   0.882  0.7354 -1.4088  0.5036
  563MOL0     H77662  12.425   0.051   1.126 -0.6627 -0.9750 -0.8709
  563MOL0     H77663  12.599   0.105   1.119  0.9516 -0.6248 -0.4869
  563MOL0     H77664  12.501  -0.186   1.135 -0.0098 -1.1650  0.6202
  563MOL0     H77665  12.584  -0.095   1.250  0.5814  1.8660 -0.0215
  563MOL0     H77666  12.727  -0.271   1.091  1.1411  0.4074  2.1063
  563MOL0     H77667  12.687  -0.168   0.959  0.1883  1.7514  0.5364
  563MOL0     H77668  12.827  -0.045   1.195 -1.1725  5.5672 -1.1663
  563MOL0     H77669  12.816   0.024   1.044  1.9910  2.2011  3.5844
  563MOL0     H77670  12.987  -0.229   1.123  1.1703  0.0755 -0.2473
  563MOL0     H77671  13.041  -0.068   1.062 -0.5119  0.1271  2.4680
  563MOL0     H77672  12.907  -0.152   0.846 -1.1247  0.8902  1.2610
  563MOL0     H77673  12.933  -0.309   0.914  0.4218  0.4605 -1.6866
  563MOL0     H77674  12.059   0.170   0.975  0.6023  2.8069  0.7038
  563MOL0     H77675  11.868   0.237   0.818 -0.4868 -2.0561  0.3477
  563MOL0     H77676  11.617   0.285   0.555 -1.8841 -0.9434  0.8824
  563MOL0     H77677  11.382   0.244   0.463  0.6593 -1.9935  2.2335
  563MOL0     H77678  10.604   0.753   1.348 -1.0843 -1.8633  0.7654
  563MOL0     H77679  10.804   0.885   1.402  0.2775 -0.9663 -2.2264
  563MOL0     H77680  11.279   0.746   1.455 -1.1233  0.7479  2.5109
  563MOL0     H77681  11.511   0.785   1.530  0.8044  1.1364 -0.0515
  563MOL0     H77682  11.762   1.092   1.662  0.4400  0.9802  1.1708
  563MOL0     H77683  11.613   1.180   1.664  1.1876 -0.6705 -0.3973
  563MOL0     H77684  11.498   0.982   1.755  0.4322  1.0582  1.0308
  563MOL0     H77685  11.616   1.048   1.869 -0.9928 -1.6473  1.7013
  563MOL0     H77686  11.722   0.835   1.683 -2.3323 -0.5299 -0.1424
  563MOL0     H77687  11.789   0.899   1.828 -0.0253 -0.8860  1.3311
  563MOL0     H77688  11.546   0.714   1.814  1.8503 -2.4458 -0.0810
  563MOL0     H77689  11.612   0.793   1.960  1.2706 -0.1424  0.5683
  563MOL0     H77690  11.839   0.448   1.827  0.4360 -0.5803  0.3873
  563MOL0     H77691  11.463   1.195   1.438  0.9705 -0.4384  0.9812
  563MOL0     H77692  11.107   1.206   1.422  0.5405 -0.3163  0.2819
  563MOL0     H77693  11.250   1.287   1.355 -0.7399  0.9836  1.2927
  563MOL0     H77694  11.160   1.177   1.253 -0.9026  1.1160 -0.2013
  564MOL0     O77695   0.732   3.454   4.679 -0.1866  0.4014  0.8896
  564MOL0     C77696   0.748   3.331   4.679  0.1233  0.5046 -0.4444
  564MOL0     O77697   0.814   3.264   4.780  0.4762 -0.2231  1.1486
  564MOL0     C77698   0.837   3.333   4.894 -0.2897  0.2904  0.4339
  564MOL0     C77699   0.906   3.456   4.910 -0.0178 -0.4076  0.3148
  564MOL0     C77700   0.939   3.517   5.028  0.2972  0.1111 -0.0143
  564MOL0     C77701   0.899   3.451   5.143  0.1460  0.2572  0.1356
  564MOL0     O77702   0.944   3.506   5.265 -0.0611  0.2175 -0.4548
  564MOL0     C77703   0.989   3.413   5.363  0.1035  0.7651  0.5335
  564MOL0     C77704   1.027   3.477   5.494  0.4063  0.0874  0.3325
  564MOL0     C77705   1.167   3.547   5.499 -0.0423 -0.1034 -0.3185
  564MOL0     C77706   1.179   3.696   5.469 -0.0459  0.3740  0.1375
  564MOL0     C77707   1.320   3.762   5.463  0.7821  0.2837  0.7098
  564MOL0     C77708   1.315   3.878   5.359  0.1456  0.0418  0.2094
  564MOL0     C77709   1.444   3.966   5.371  0.1562  0.3408  0.9271
  564MOL0     C77710   1.577   3.895   5.377  1.1465  0.5491 -0.0752
  564MOL0     N77711   1.692   3.982   5.416  0.0258  0.6850  0.5254
  564MOL0     C77712   1.743   4.068   5.316 -0.2911 -0.1077 -0.5045
  564MOL0     C77713   1.864   4.101   5.367  0.2020  0.3124  0.8260
  564MOL0     C77714   1.975   4.185   5.310  0.1746  1.1139 -1.3759
  564MOL0     C77715   2.048   4.092   5.213  0.1957  0.8796  0.0468
  564MOL0     C77716   2.134   4.158   5.099 -0.4158 -0.4769 -0.3641
  564MOL0     C77717   2.245   4.060   5.032  0.3711 -0.5713  0.8409
  564MOL0     O77718   2.369   4.074   5.095  0.4341 -0.4529 -0.9788
  564MOL0     C77719   2.467   3.981   5.062 -0.0026  0.1494  0.5979
  564MOL0     C77720   2.591   3.999   5.123 -0.0812  0.1731  0.1668
  564MOL0     C77721   2.695   3.902   5.113  1.0329  0.4992 -0.2585
  564MOL0     C77722   2.820   3.922   5.199 -0.4287  0.4420  0.1094
  564MOL0     C77723   2.676   3.793   5.012 -0.1258  0.1264 -0.5581
  564MOL0     C77724   2.774   3.688   4.998  0.1140  0.2370  0.5111
  564MOL0     O77725   2.772   3.623   4.883 -0.3582  0.3408  0.0677
  564MOL0     C77726   2.884   3.568   4.815 -0.7051  0.7643  0.6052
  564MOL0     C77727   2.874   3.542   4.673 -0.2042  0.7984 -0.8318
  564MOL0     C77728   2.982   3.492   4.596 -0.0777 -0.2955 -0.4859
  564MOL0     C77729   3.099   3.456   4.659 -0.2802 -0.9635  0.8106
  564MOL0     O77730   3.211   3.418   4.581  0.2424  0.3816  0.5345
  564MOL0     C77731   3.341   3.468   4.610  0.4704 -0.2652  0.1315
  564MOL0     C77732   3.437   3.407   4.506  0.0523 -0.6518 -0.3053
  564MOL0     C77733   3.578   3.467   4.523  0.7686 -0.1546 -0.3119
  564MOL0     C77734   3.664   3.419   4.400  0.9295  0.0592 -0.5388
  564MOL0     C77735   3.807   3.443   4.441  0.0509  0.1302  0.1775
  564MOL0     C77736   3.913   3.413   4.333 -0.1561 -0.7515  0.0011
  564MOL0     C77737   3.916   3.260   4.310 -0.9252 -0.1049 -0.3266
  564MOL0     C77738   4.020   3.228   4.204 -0.1009  0.5639  0.6031
  564MOL0    Cl77739   4.198   3.248   4.244  0.6225 -0.7434 -0.1587
  564MOL0     C77740   3.108   3.476   4.800  0.3957  1.0643 -0.4465
  564MOL0     C77741   3.007   3.523   4.877  0.0276 -0.0581  0.7140
  564MOL0     O77742   2.847   3.666   5.095  0.3753  0.0647  0.4030
  564MOL0     C77743   2.550   3.775   4.950  0.7720  1.0415 -1.5858
  564MOL0     C77744   2.450   3.869   4.974  0.0408 -1.4281 -0.2704
  564MOL0     N77745   1.880   4.044   5.488 -0.0690 -0.3514  0.3651
  564MOL0     N77746   1.781   3.980   5.521 -0.1871 -0.4327 -0.7196
  564MOL0     C77747   0.818   3.340   5.131 -0.4654  0.3355  0.0516
  564MOL0     C77748   0.777   3.281   5.002 -0.1784  0.1149 -0.6972
  564MOL0     C77749   0.691   3.261   4.562  0.4035 -0.0318  0.3070
  564MOL0     C77750   0.677   3.122   4.579 -0.4774  0.2322  0.3220
  564MOL0     C77751   0.626   3.042   4.469 -0.3642  0.2821  0.3559
  564MOL0     C77752   0.588   3.110   4.346 -0.2889  0.2082 -0.4956
  564MOL0     O77753   0.537   3.054   4.229  0.5445  0.3928 -0.0043
  564MOL0     C77754   0.543   2.910   4.207 -0.4842  0.2542 -0.4032
  564MOL0     C77755   0.567   2.879   4.058 -1.2361  0.0519 -0.0719
  564MOL0     C77756   0.686   2.945   3.996 -0.5886  0.4890  1.0581
  564MOL0     C77757   0.711   2.897   3.857  0.4838 -0.9616 -0.1708
  564MOL0     C77758   0.621   2.964   3.758  0.5992 -0.0677  0.0257
  564MOL0     C77759   0.558   3.022   3.675 -0.1536  0.1551  0.1481
  564MOL0     C77760   0.594   3.247   4.340  0.7568  0.2940 -0.3468
  564MOL0     C77761   0.639   3.322   4.445  0.3279 -0.1391  0.7021
  564MOL0     C77762   0.649   3.475   4.411  0.8048  0.3281  0.5178
  564MOL0     H77763   0.934   3.489   4.810  1.3869 -1.2463  0.4082
  564MOL0     H77764   0.994   3.610   5.034 -1.6949  1.2992  0.5791
  564MOL0     H77765   1.066   3.349   5.319 -2.1044 -0.9387 -1.1185
  564MOL0     H77766   0.914   3.337   5.389  1.1637 -1.0837 -1.4116
  564MOL0     H77767   0.960   3.548   5.544 -0.1015  1.9097 -2.7063
  564MOL0     H77768   1.037   3.388   5.556  0.8786 -0.3322 -0.3376
  564MOL0     H77769   1.207   3.536   5.600  2.1650  1.1515 -0.9992
  564MOL0     H77770   1.240   3.491   5.441 -1.1820 -0.2836 -1.6439
  564MOL0     H77771   1.125   3.724   5.378 -0.0205  0.4386  0.1419
  564MOL0     H77772   1.117   3.759   5.535 -0.1181 -0.1292  0.5542
  564MOL0     H77773   1.385   3.683   5.425 -0.8329 -0.9668  0.4009
  564MOL0     H77774   1.362   3.790   5.560  1.8416 -4.7081  2.0050
  564MOL0     H77775   1.293   3.826   5.265  2.0383 -2.9414  1.2912
  564MOL0     H77776   1.232   3.945   5.384 -0.9656 -0.9747 -0.6121
  564MOL0     H77777   1.438   4.012   5.470  3.0165  1.3996  0.6996
  564MOL0     H77778   1.442   4.050   5.301  3.2673  0.3905  0.7651
  564MOL0     H77779   1.569   3.811   5.447  0.3401 -1.2032 -2.1456
  564MOL0     H77780   1.604   3.851   5.280  3.1927  2.0441 -0.2642
  564MOL0     H77781   1.693   4.096   5.224  0.2282  0.5590 -0.5881
  564MOL0     H77782   2.050   4.207   5.386  0.0812 -2.6786  0.0301
  564MOL0     H77783   1.934   4.273   5.260 -0.3952  1.1865 -0.7916
  564MOL0     H77784   2.101   4.020   5.277 -2.9764 -0.3431  1.5052
  564MOL0     H77785   1.971   4.036   5.160 -0.0122  1.9050 -0.7663
  564MOL0     H77786   2.059   4.190   5.026 -3.3476 -3.3242  1.1016
  564MOL0     H77787   2.195   4.244   5.126  0.7575  0.1134 -4.3293
  564MOL0     H77788   2.207   3.958   5.038 -0.2431 -0.3253  1.3649
  564MOL0     H77789   2.269   4.071   4.926  1.5976 -4.8653  0.4907
  564MOL0     H77790   2.591   4.093   5.176  0.8778 -0.2027  0.8568
  564MOL0     H77791   2.851   3.841   5.266  0.4154  2.5209  2.3709
  564MOL0     H77792   2.797   4.014   5.254 -0.6061 -0.6522  1.9626
  564MOL0     H77793   2.905   3.939   5.132  2.0113 -2.2364  2.2363
  564MOL0     H77794   2.788   3.582   4.620 -0.7064  0.3601 -0.3698
  564MOL0     H77795   2.980   3.498   4.488 -0.4118  0.1738 -0.4567
  564MOL0     H77796   3.333   3.577   4.603 -1.9945 -0.4479 -1.1670
  564MOL0     H77797   3.372   3.447   4.712 -1.2823 -0.7534  0.6080
  564MOL0     H77798   3.448   3.299   4.519 -0.1544 -0.6747 -0.3141
  564MOL0     H77799   3.405   3.419   4.403 -0.9392  0.4810  0.1119
  564MOL0     H77800   3.626   3.432   4.615 -0.5530  0.4814  0.6505
  564MOL0     H77801   3.584   3.577   4.524 -1.3937  0.0513 -2.5416
  564MOL0     H77802   3.643   3.474   4.307 -2.5692 -0.0430  0.0636
  564MOL0     H77803   3.641   3.317   4.369 -0.6292  0.4008 -0.5704
  564MOL0     H77804   3.828   3.550   4.452  0.8499 -0.0019  0.0383
  564MOL0     H77805   3.830   3.381   4.529  4.0176 -0.1063 -0.8205
  564MOL0     H77806   4.014   3.444   4.362 -0.7259  1.0714  0.2058
  564MOL0     H77807   3.889   3.468   4.241 -0.6304 -1.7787 -0.4985
  564MOL0     H77808   3.818   3.231   4.272 -2.9353  2.5021  2.4032
  564MOL0     H77809   3.951   3.201   4.395  0.9230  0.4478 -0.6627
  564MOL0     H77810   3.991   3.272   4.108 -1.7811 -1.8302 -0.0937
  564MOL0     H77811   4.020   3.119   4.190 -0.9897  0.3684  1.9576
  564MOL0     H77812   3.198   3.435   4.844 -1.3562 -0.6327  1.7947
  564MOL0     H77813   3.023   3.508   4.984 -0.7493 -1.4070  0.6591
  564MOL0     H77814   2.529   3.694   4.881 -1.6347  1.2611 -1.1942
  564MOL0     H77815   2.354   3.852   4.926 -1.1266  2.9440  0.1295
  564MOL0     H77816   0.774   3.292   5.219 -0.0471  1.3988  0.8578
  564MOL0     H77817   0.712   3.194   5.001 -0.3350  0.2314 -1.1382
  564MOL0     H77818   0.704   3.079   4.675  1.1523  0.0263 -0.1943
  564MOL0     H77819   0.622   2.934   4.471  0.2475  0.0874 -3.1627
  564MOL0     H77820   0.621   2.863   4.268  0.5444  2.6830  0.2755
  564MOL0     H77821   0.454   2.867   4.253  0.1821 -2.3895 -1.4188
  564MOL0     H77822   0.486   2.911   3.993  0.7803  2.1645 -1.6938
  564MOL0     H77823   0.569   2.769   4.054 -2.0977  0.0393 -0.4668
  564MOL0     H77824   0.663   3.052   3.995  0.8350  0.8323 -1.0197
  564MOL0     H77825   0.777   2.924   4.053  1.1735  0.2853 -1.6612
  564MOL0     H77826   0.697   2.789   3.850  2.4002 -1.1222 -2.8103
  564MOL0     H77827   0.816   2.920   3.836 -0.3908  1.6274 -2.2023
  564MOL0     H77828   0.497   3.068   3.600  1.7395  0.2376 -1.4412
  564MOL0     H77829   0.573   3.285   4.240 -0.0783  0.3430 -0.1630
  564MOL0     H77830   0.621   3.491   4.307  0.7208 -0.4457  0.4117
  564MOL0     H77831   0.576   3.534   4.467 -0.8303  0.3710 -1.5325
  564MOL0     H77832   0.749   3.519   4.419  0.9278  0.5687 -1.7884
  565MOL0     O77833   8.353   7.837   6.044 -0.1165 -0.3877 -0.1270
  565MOL0     C77834   8.348   7.720   6.005  0.2371 -0.0939  0.6810
  565MOL0     O77835   8.235   7.645   6.011 -0.5777  0.1049  0.1081
  565MOL0     C77836   8.115   7.675   6.076 -0.2567  0.3096  0.5513
  565MOL0     C77837   8.111   7.746   6.189 -0.0037  0.2648  0.9025
  565MOL0     C77838   7.990   7.774   6.249 -0.4215  0.7720 -0.6276
  565MOL0     C77839   7.873   7.701   6.201 -0.2551  0.5795 -0.5471
  565MOL0     O77840   7.748   7.739   6.258 -0.8210  0.4698  0.0769
  565MOL0     C77841   7.649   7.637   6.273 -0.9127 -0.6109  0.4066
  565MOL0     C77842   7.696   7.521   6.367  0.5639  0.5172  0.3296
  565MOL0     C77843   7.674   7.565   6.511 -0.8709 -0.7072  0.0855
  565MOL0     C77844   7.723   7.486   6.625 -0.3060  0.8335 -0.4479
  565MOL0     C77845   7.876   7.469   6.620 -0.0533  0.3174  0.2410
  565MOL0     C77846   7.929   7.424   6.755 -0.7576 -0.2792  0.0246
  565MOL0     C77847   8.034   7.314   6.766  0.6706  0.5972  0.7153
  565MOL0     C77848   7.976   7.176   6.737 -0.2817 -0.0257  0.3188
  565MOL0     N77849   7.885   7.133   6.841  0.0147 -0.3867  0.5148
  565MOL0     C77850   7.752   7.155   6.842  0.7314  0.0535  0.2273
  565MOL0     C77851   7.704   7.102   6.955  0.0021  0.9827 -0.7221
  565MOL0     C77852   7.564   7.086   7.007 -0.2286  0.3108 -0.0610
  565MOL0     C77853   7.529   7.193   7.113 -0.0734  0.2685 -0.0931
  565MOL0     C77854   7.496   7.325   7.053 -0.5661 -0.1086 -0.2794
  565MOL0     C77855   7.492   7.441   7.151  0.3737 -0.1126 -0.1728
  565MOL0     O77856   7.483   7.552   7.077 -0.3991 -1.0882  0.1324
  565MOL0     C77857   7.591   7.622   7.017 -0.5887 -0.3124  0.3246
  565MOL0     C77858   7.562   7.742   6.948 -1.3132  1.0125  1.1414
  565MOL0     C77859   7.660   7.818   6.890 -0.6607  0.2793  0.0113
  565MOL0     C77860   7.607   7.941   6.804  0.1329 -0.5428 -0.7191
  565MOL0     C77861   7.797   7.779   6.899  0.4583 -0.5730  0.8623
  565MOL0     C77862   7.900   7.851   6.821  0.0073 -0.7800 -0.3950
  565MOL0     O77863   7.894   7.835   6.690  0.6211 -0.3361  0.7129
  565MOL0     C77864   8.002   7.889   6.627 -1.1123  0.6272 -0.0676
  565MOL0     C77865   8.013   8.022   6.586  0.4849 -0.4101 -0.0407
  565MOL0     C77866   8.127   8.075   6.525 -0.6226 -0.0675 -0.7176
  565MOL0     C77867   8.240   7.993   6.504 -0.1989 -0.3108 -0.1806
  565MOL0     O77868   8.353   8.025   6.432  0.1614  0.2346  0.7947
  565MOL0     C77869   8.361   8.157   6.370  0.6661  0.0432 -0.0278
  565MOL0     C77870   8.461   8.149   6.254  0.0388 -0.5527 -0.2267
  565MOL0     C77871   8.603   8.161   6.320 -0.2045  0.0631  0.3539
  565MOL0     C77872   8.704   8.189   6.203  0.2682 -0.1489  0.3575
  565MOL0     C77873   8.829   8.270   6.253  1.0172  0.0911  0.9553
  565MOL0     C77874   8.933   8.289   6.143 -0.1310 -0.9608 -0.3665
  565MOL0     C77875   9.045   8.375   6.210 -1.6130 -0.3257 -0.3536
  565MOL0     C77876   9.170   8.378   6.119  0.4493 -0.2796 -0.2562
  565MOL0    Cl77877   9.259   8.223   6.122 -0.4529  0.0879  0.3861
  565MOL0     C77878   8.225   7.856   6.533  0.9086 -0.6816 -0.2038
  565MOL0     C77879   8.114   7.806   6.597  0.9175 -0.2593 -0.0841
  565MOL0     O77880   7.966   7.937   6.883  0.5748  0.3337  0.4286
  565MOL0     C77881   7.828   7.665   6.978 -0.3154 -0.7542 -0.3803
  565MOL0     C77882   7.722   7.582   7.028  0.4528 -0.0656  0.3596
  565MOL0     N77883   7.806   7.030   7.005  0.1787  0.3907 -0.7603
  565MOL0     N77884   7.925   7.052   6.948 -0.4931 -0.6108  0.2781
  565MOL0     C77885   7.885   7.623   6.088  0.8501 -0.4414 -0.0436
  565MOL0     C77886   8.002   7.628   6.012 -0.4243  1.4510  0.4623
  565MOL0     C77887   8.467   7.664   5.937 -0.6140 -0.2865  0.7882
  565MOL0     C77888   8.579   7.747   5.928 -0.1758  0.2089  0.5311
  565MOL0     C77889   8.702   7.715   5.862 -0.0698 -0.7200  0.2238
  565MOL0     C77890   8.716   7.582   5.814  0.4080  0.3877 -0.7885
  565MOL0     O77891   8.821   7.529   5.742  0.0466 -0.0509 -0.5651
  565MOL0     C77892   8.935   7.613   5.713  0.3127 -0.7056 -0.4188
  565MOL0     C77893   9.019   7.531   5.607  0.8928 -0.1465 -0.1935
  565MOL0     C77894   9.097   7.423   5.679 -0.5037  0.6179  0.0298
  565MOL0     C77895   9.207   7.362   5.588  0.1060 -0.7193 -0.8331
  565MOL0     C77896   9.278   7.251   5.654  1.1022  0.9048  0.4814
  565MOL0     C77897   9.323   7.181   5.742  0.2935  0.3834  0.2186
  565MOL0     C77898   8.602   7.494   5.832 -0.8800  0.2863 -0.2131
  565MOL0     C77899   8.475   7.536   5.884 -0.1597  0.1748 -0.2385
  565MOL0     C77900   8.367   7.429   5.899  0.1601  0.5743 -0.0063
  565MOL0     H77901   8.197   7.780   6.246  1.9786 -0.6787 -1.3598
  565MOL0     H77902   7.992   7.841   6.335  0.8305  1.5660 -1.2397
  565MOL0     H77903   7.630   7.612   6.168 -1.4144  0.8070  0.1376
  565MOL0     H77904   7.560   7.686   6.312 -1.3929  0.9137 -2.3879
  565MOL0     H77905   7.630   7.435   6.364 -0.6643  1.4558 -0.7654
  565MOL0     H77906   7.800   7.490   6.350 -0.0611 -1.6100  0.1748
  565MOL0     H77907   7.701   7.670   6.522 -1.0925 -0.1390 -3.5474
  565MOL0     H77908   7.567   7.566   6.531 -0.7618  0.9371  0.7456
  565MOL0     H77909   7.686   7.533   6.717 -3.4515 -1.7921 -0.2061
  565MOL0     H77910   7.684   7.385   6.619  1.5428  0.1550 -3.0251
  565MOL0     H77911   7.921   7.566   6.596 -2.5294  2.0591  2.1770
  565MOL0     H77912   7.900   7.384   6.556  5.4584  0.8907  1.0021
  565MOL0     H77913   7.966   7.517   6.800 -2.6900  0.5042  0.1103
  565MOL0     H77914   7.840   7.391   6.808 -0.4892  0.9081  1.2587
  565MOL0     H77915   8.084   7.312   6.863 -0.2048  0.1307  1.1709
  565MOL0     H77916   8.108   7.333   6.687 -1.2938  4.7756 -0.3810
  565MOL0     H77917   7.925   7.184   6.641 -0.5993  1.9320  0.6108
  565MOL0     H77918   8.049   7.097   6.716  0.0368  0.6193 -1.0830
  565MOL0     H77919   7.701   7.204   6.759  1.2801  1.3043  0.6010
  565MOL0     H77920   7.554   6.992   7.061  1.4962  0.3236  0.3294
  565MOL0     H77921   7.496   7.088   6.921  1.5593 -0.5130 -1.5543
  565MOL0     H77922   7.438   7.168   7.168 -1.0229  3.0542 -0.2213
  565MOL0     H77923   7.606   7.211   7.188 -0.9550 -0.4425  1.0133
  565MOL0     H77924   7.566   7.345   6.971 -1.2766 -0.1694 -0.9061
  565MOL0     H77925   7.401   7.311   7.000 -0.4925  1.2600 -0.8214
  565MOL0     H77926   7.403   7.436   7.214 -0.3623  2.2794 -0.9264
  565MOL0     H77927   7.574   7.458   7.222 -0.1411  0.7195  0.2380
  565MOL0     H77928   7.456   7.768   6.947 -1.3324  0.9918  1.9445
  565MOL0     H77929   7.543   7.989   6.878  1.2457 -1.5304  0.9394
  565MOL0     H77930   7.549   7.912   6.716  1.7345  1.5912 -2.6117
  565MOL0     H77931   7.690   8.008   6.780 -0.4594  1.1201  1.5917
  565MOL0     H77932   7.927   8.085   6.607  1.6502  1.1805  0.1500
  565MOL0     H77933   8.126   8.179   6.491 -3.4788  1.8396  4.0935
  565MOL0     H77934   8.265   8.187   6.326  0.3936 -2.2153 -1.1101
  565MOL0     H77935   8.397   8.231   6.442 -2.5517  0.3488  1.4515
  565MOL0     H77936   8.445   8.052   6.207 -1.4004  0.1878 -1.3365
  565MOL0     H77937   8.445   8.223   6.175  3.2580 -0.8770 -1.3214
  565MOL0     H77938   8.631   8.068   6.369  0.9438 -0.3115 -0.9407
  565MOL0     H77939   8.600   8.241   6.395  1.8174 -0.8802  1.5037
  565MOL0     H77940   8.663   8.244   6.118  0.3999 -1.1706 -0.3892
  565MOL0     H77941   8.727   8.087   6.171 -2.0433 -0.9397  1.0366
  565MOL0     H77942   8.784   8.365   6.285 -1.5317 -0.6378 -0.2499
  565MOL0     H77943   8.874   8.211   6.333  4.2340 -0.9951 -1.4498
  565MOL0     H77944   8.890   8.341   6.056  0.8124  0.2612 -0.1264
  565MOL0     H77945   8.973   8.193   6.111  1.7092 -1.5933  3.3184
  565MOL0     H77946   9.056   8.356   6.317 -0.8455  2.1049  0.0624
  565MOL0     H77947   9.014   8.480   6.199  1.2990  0.4293 -2.5708
  565MOL0     H77948   9.234   8.466   6.133 -0.5275  0.5940 -1.0315
  565MOL0     H77949   9.126   8.396   6.020  0.5796 -1.1928 -0.4851
  565MOL0     H77950   8.305   7.797   6.491  0.5376  0.0223 -2.0132
  565MOL0     H77951   8.110   7.700   6.620  2.5179  0.0325  1.7663
  565MOL0     H77952   7.930   7.634   6.995  0.8076  3.6607  2.6039
  565MOL0     H77953   7.749   7.495   7.086 -2.4577 -1.7384 -0.5991
  565MOL0     H77954   7.803   7.578   6.032  1.5025 -1.5166 -0.1591
  565MOL0     H77955   8.015   7.574   5.919 -1.1875  2.2695 -0.1341
  565MOL0     H77956   8.569   7.848   5.968 -1.6517  0.2287  0.1663
  565MOL0     H77957   8.787   7.783   5.865  0.2326 -1.1266  2.4981
  565MOL0     H77958   8.904   7.710   5.673  1.5316 -0.1041  0.0428
  565MOL0     H77959   8.996   7.636   5.801  0.0220 -1.3194 -0.0574
  565MOL0     H77960   9.094   7.592   5.556  0.4765  0.4773 -0.0737
  565MOL0     H77961   8.957   7.479   5.533  0.1871 -1.6273  1.3625
  565MOL0     H77962   9.148   7.458   5.769  1.9011  1.3072 -1.5248
  565MOL0     H77963   9.037   7.337   5.710  0.2091  0.6760  1.7155
  565MOL0     H77964   9.281   7.436   5.556 -0.7636  0.4542 -0.2163
  565MOL0     H77965   9.155   7.331   5.496 -2.4352  0.0702  0.2284
  565MOL0     H77966   9.357   7.120   5.823 -0.6423 -2.5990 -1.4519
  565MOL0     H77967   8.618   7.399   5.782 -1.8251  0.6720 -1.2934
  565MOL0     H77968   8.291   7.450   5.822 -1.3173 -1.1569  0.8964
  565MOL0     H77969   8.415   7.333   5.879 -1.7984 -0.3744 -0.4845
  565MOL0     H77970   8.320   7.432   5.998 -3.3621  1.1485 -1.5172
  566MOL0     O77971   6.302  10.708   8.905  0.8999 -0.1801 -0.0226
  566MOL0     C77972   6.276  10.802   8.986 -0.6039 -0.1886  0.4029
  566MOL0     O77973   6.371  10.903   9.013  0.2614 -1.0480  0.2566
  566MOL0     C77974   6.500  10.904   8.967  0.4588 -0.0484 -0.3677
  566MOL0     C77975   6.576  10.793   8.940  0.1470  0.5618 -0.4148
  566MOL0     C77976   6.713  10.785   8.918 -1.1262  0.0497 -0.4941
  566MOL0     C77977   6.781  10.906   8.909 -0.0797  0.0457 -0.7113
  566MOL0     O77978   6.914  10.905   8.863  0.2790 -0.3061 -0.5935
  566MOL0     C77979   6.990  11.025   8.841 -0.7004  0.4805  0.1146
  566MOL0     C77980   7.137  11.016   8.900  0.6743  0.1598 -0.7678
  566MOL0     C77981   7.142  10.936   9.036  1.3471 -0.4934  0.3982
  566MOL0     C77982   7.289  10.964   9.095 -0.0171  0.2444 -0.1231
  566MOL0     C77983   7.333  10.842   9.176 -0.4001  1.1461 -0.3724
  566MOL0     C77984   7.388  10.705   9.112  0.3473  0.2495  1.3461
  566MOL0     C77985   7.522  10.734   9.035 -0.5518  0.1113  0.0147
  566MOL0     C77986   7.648  10.738   9.132 -0.2775 -0.1826 -0.0382
  566MOL0     N77987   7.772  10.689   9.071  0.3818 -0.2166 -0.1022
  566MOL0     C77988   7.821  10.557   9.076  0.1381 -0.1715  0.0021
  566MOL0     C77989   7.949  10.567   9.024 -0.0301 -0.1996 -0.4439
  566MOL0     C77990   8.045  10.451   9.018 -0.2256 -0.5656  0.3448
  566MOL0     C77991   8.101  10.412   9.147  0.0182  0.0805  0.4193
  566MOL0     C77992   8.014  10.301   9.210 -0.0758  0.6816 -0.6147
  566MOL0     C77993   8.016  10.324   9.357  0.0861 -0.0779  0.0318
  566MOL0     O77994   7.966  10.456   9.401  0.5642 -0.0404 -0.0147
  566MOL0     C77995   7.834  10.477   9.424 -0.4314  0.2961  0.2919
  566MOL0     C77996   7.726  10.392   9.391  0.2804  0.7441  0.1761
  566MOL0     C77997   7.596  10.433   9.435  0.5839 -0.5724  0.7533
  566MOL0     C77998   7.481  10.352   9.394  0.6399 -0.3068  1.3604
  566MOL0     C77999   7.565  10.557   9.508 -0.1472  0.5204  0.3950
  566MOL0     C78000   7.434  10.599   9.546  0.9858  0.6812  1.0037
  566MOL0     O78001   7.422  10.654   9.671  0.4063 -0.0821 -0.0393
  566MOL0     C78002   7.295  10.663   9.714  0.7969  0.2904 -0.2817
  566MOL0     C78003   7.222  10.572   9.786  0.2173 -0.1894 -0.1219
  566MOL0     C78004   7.089  10.589   9.821 -0.6548  0.3198 -0.2276
  566MOL0     C78005   7.023  10.693   9.761 -0.9222  0.1921  0.2937
  566MOL0     O78006   6.888  10.685   9.774 -0.0041  0.1627 -0.1018
  566MOL0     C78007   6.812  10.806   9.753  0.6525  0.0548 -0.6383
  566MOL0     C78008   6.663  10.770   9.750  0.5199  0.7291 -0.1179
  566MOL0     C78009   6.628  10.674   9.867 -0.0696  0.7583  0.0487
  566MOL0     C78010   6.470  10.668   9.873 -0.2389  0.7496 -0.5503
  566MOL0     C78011   6.431  10.570   9.995 -0.5944 -0.5794  0.5557
  566MOL0     C78012   6.473  10.619  10.141 -0.4355  0.6561  0.5714
  566MOL0     C78013   6.392  10.541  10.245  0.5498  0.2031  0.3226
  566MOL0     C78014   6.442  10.598  10.381  0.5287 -0.2274  0.1825
  566MOL0    Cl78015   6.328  10.555  10.517 -0.1876  0.2280 -0.5257
  566MOL0     C78016   7.093  10.798   9.693  0.8448  0.4423  0.0212
  566MOL0     C78017   7.232  10.785   9.676  0.6750  0.1399  0.1782
  566MOL0     O78018   7.346  10.600   9.456  0.3258 -0.3006  0.2435
  566MOL0     C78019   7.688  10.625   9.547  0.2920 -0.8350 -0.4658
  566MOL0     C78020   7.811  10.583   9.504  0.8723 -0.3476  0.2340
  566MOL0     N78021   7.972  10.697   8.982  0.3975 -0.0805 -0.4335
  566MOL0     N78022   7.858  10.762   8.997  0.4927 -0.9427 -0.0737
  566MOL0     C78023   6.711  11.025   8.940 -0.8755 -0.3642 -0.5224
  566MOL0     C78024   6.572  11.024   8.962 -1.2130 -0.7341 -0.1926
  566MOL0     C78025   6.154  10.816   9.062 -0.1743 -0.1071 -0.4245
  566MOL0     C78026   6.150  10.926   9.149  0.0781 -0.0172  0.6259
  566MOL0     C78027   6.032  10.964   9.215  0.2721  0.0701  1.3397
  566MOL0     C78028   5.909  10.898   9.189 -0.5036 -0.1317  0.2299
  566MOL0     O78029   5.781  10.923   9.252 -0.3725  0.5430 -0.2747
  566MOL0     C78030   5.790  11.022   9.359 -0.3945 -0.1868  0.3480
  566MOL0     C78031   5.849  10.953   9.489  0.2908  0.0100 -0.2878
  566MOL0     C78032   5.797  10.814   9.540 -0.6605 -0.8661  0.0359
  566MOL0     C78033   5.824  10.694   9.447 -0.5203  0.2723  0.2624
  566MOL0     C78034   5.778  10.572   9.508 -0.6489  0.1464 -0.4564
  566MOL0     C78035   5.728  10.464   9.525 -0.3580 -0.2680  0.6056
  566MOL0     C78036   5.918  10.785   9.107 -1.0117 -0.6636  0.4361
  566MOL0     C78037   6.034  10.745   9.043  0.7017 -0.1138  0.4262
  566MOL0     C78038   6.014  10.627   8.948  0.4147  0.1303 -1.0398
  566MOL0     H78039   6.525  10.698   8.946  0.1083  0.6449  3.8557
  566MOL0     H78040   6.755  10.687   8.899 -2.7401 -0.4823 -1.5190
  566MOL0     H78041   6.948  11.115   8.885 -0.5089  0.6694 -0.0831
  566MOL0     H78042   6.999  11.033   8.732  1.6388  0.9676  0.2759
  566MOL0     H78043   7.198  10.964   8.826 -0.2245 -0.2828 -1.2057
  566MOL0     H78044   7.185  11.114   8.911  0.5323  0.5662 -3.2108
  566MOL0     H78045   7.065  10.976   9.104  4.1584  0.5074  3.2446
  566MOL0     H78046   7.136  10.828   9.019 -0.4536 -0.6070  1.4471
  566MOL0     H78047   7.364  10.971   9.016  0.0100 -0.4594 -0.1717
  566MOL0     H78048   7.303  11.052   9.157  1.1175 -1.2017  1.7815
  566MOL0     H78049   7.256  10.818   9.250 -1.5868  1.3702 -1.5032
  566MOL0     H78050   7.422  10.888   9.221 -0.8834  4.1839 -2.2711
  566MOL0     H78051   7.393  10.623   9.185 -0.5638 -1.0463  0.0099
  566MOL0     H78052   7.313  10.675   9.038  1.1018 -1.0332  1.0739
  566MOL0     H78053   7.525  10.817   8.964  3.5911 -0.3124 -0.5901
  566MOL0     H78054   7.531  10.647   8.970  1.5383 -0.9912  1.6372
  566MOL0     H78055   7.663  10.843   9.160  2.9501 -0.8715  1.2450
  566MOL0     H78056   7.627  10.682   9.223 -0.0037  0.3061  0.3307
  566MOL0     H78057   7.768  10.473   9.119 -0.3813 -0.0425 -0.3881
  566MOL0     H78058   8.130  10.485   8.958 -1.1285 -1.5465 -1.5969
  566MOL0     H78059   7.997  10.365   8.970  1.0505 -2.8201  2.8068
  566MOL0     H78060   8.205  10.378   9.139 -1.0240 -3.2074 -1.2673
  566MOL0     H78061   8.110  10.500   9.211  0.6138  0.6027 -0.3641
  566MOL0     H78062   7.908  10.296   9.183 -0.4585  0.5492  0.8195
  566MOL0     H78063   8.059  10.203   9.191 -1.0893  0.0712  0.0116
  566MOL0     H78064   7.949  10.253   9.405 -0.8408  2.1952  2.3255
  566MOL0     H78065   8.117  10.310   9.397  0.6262  2.9136 -0.0906
  566MOL0     H78066   7.731  10.292   9.349  1.3004  1.1447 -0.6995
  566MOL0     H78067   7.522  10.253   9.374 -0.3944 -0.4557 -0.2070
  566MOL0     H78068   7.441  10.391   9.299  1.8917 -2.0728  0.0420
  566MOL0     H78069   7.415  10.345   9.480  0.5574 -0.2158  1.3044
  566MOL0     H78070   7.268  10.478   9.816 -1.8793 -1.1249  0.3604
  566MOL0     H78071   7.042  10.516   9.887 -2.5803  0.7571 -1.0364
  566MOL0     H78072   6.827  10.877   9.835 -0.1084  0.9520 -1.2438
  566MOL0     H78073   6.830  10.852   9.655  2.0330  0.1192 -0.3668
  566MOL0     H78074   6.603  10.861   9.748  1.1009  1.1360  0.5540
  566MOL0     H78075   6.652  10.711   9.658  0.5421  2.0592 -0.9969
  566MOL0     H78076   6.670  10.702   9.964 -2.3373  1.9121  0.7762
  566MOL0     H78077   6.677  10.579   9.844  1.2596  2.0918 -3.3577
  566MOL0     H78078   6.423  10.631   9.781 -0.1439 -0.0423 -0.2850
  566MOL0     H78079   6.438  10.772   9.882 -1.6378  0.6685 -3.4088
  566MOL0     H78080   6.322  10.567  10.002 -0.5607 -1.2110  0.8761
  566MOL0     H78081   6.457  10.469   9.963 -2.6794 -0.2271 -2.6849
  566MOL0     H78082   6.464  10.727  10.154  2.6184  0.8759  1.6257
  566MOL0     H78083   6.580  10.600  10.153 -0.4371  0.9115  0.9906
  566MOL0     H78084   6.411  10.434  10.238 -3.5248 -0.6809  0.0209
  566MOL0     H78085   6.284  10.552  10.231  0.8089 -0.3805 -2.8655
  566MOL0     H78086   6.445  10.707  10.371  0.4415 -0.1583  0.8758
  566MOL0     H78087   6.542  10.554  10.392  0.8470  0.5679  0.5449
  566MOL0     H78088   7.037  10.884   9.659 -0.9979 -0.8031 -0.2128
  566MOL0     H78089   7.288  10.841   9.602  2.0533 -0.8242  0.4537
  566MOL0     H78090   7.685  10.710   9.615 -1.5757 -2.4509  1.6133
  566MOL0     H78091   7.901  10.636   9.532  1.2062 -1.8890  2.2574
  566MOL0     H78092   6.751  11.126   8.946 -0.4541 -0.5925  0.7322
  566MOL0     H78093   6.516  11.116   8.977  1.9346  1.4293 -0.7245
  566MOL0     H78094   6.239  10.987   9.161  2.4491 -2.4250 -2.7859
  566MOL0     H78095   6.035  11.048   9.283 -2.5609  0.6984  0.7938
  566MOL0     H78096   5.857  11.103   9.328  0.5291 -1.4169 -1.0111
  566MOL0     H78097   5.690  11.063   9.373 -0.9802 -1.9377  1.5372
  566MOL0     H78098   5.840  11.028   9.568 -0.6803 -0.1192 -0.2582
  566MOL0     H78099   5.955  10.940   9.463 -0.8436 -2.9226 -4.6055
  566MOL0     H78100   5.850  10.789   9.632  1.2824  0.0382 -0.7782
  566MOL0     H78101   5.694  10.826   9.574 -1.3322 -0.5507 -1.9783
  566MOL0     H78102   5.928  10.681   9.418 -0.9053  0.5415 -1.3225
  566MOL0     H78103   5.760  10.718   9.361  1.1668  1.4348 -0.7225
  566MOL0     H78104   5.668  10.376   9.518  1.3403 -1.3809 -0.7160
  566MOL0     H78105   5.826  10.740   9.070 -3.4962  3.1832  1.4271
  566MOL0     H78106   5.912  10.587   8.949  0.8353 -0.9845 -0.9667
  566MOL0     H78107   6.046  10.644   8.845  1.2963  0.9852 -0.6422
  566MOL0     H78108   6.064  10.547   9.003 -1.3680  0.5729  1.3796
  567MOL0     O78109   3.319  10.190   6.544  0.3982 -0.1090 -0.0918
  567MOL0     C78110   3.270  10.088   6.591  0.5770 -0.3260 -0.3073
  567MOL0     O78111   3.345   9.978   6.640 -0.0917  0.3666 -0.5631
  567MOL0     C78112   3.482   9.975   6.638  0.6842 -0.0417  0.3494
  567MOL0     C78113   3.547  10.008   6.510  0.4552  0.2261 -0.7489
  567MOL0     C78114   3.685  10.020   6.511 -0.6954 -0.0515 -0.1458
  567MOL0     C78115   3.759   9.996   6.623 -0.0848 -1.1944 -0.8114
  567MOL0     O78116   3.896  10.003   6.613  0.5743  0.2026 -0.1500
  567MOL0     C78117   3.971   9.912   6.690  0.9702  0.2787  0.9212
  567MOL0     C78118   4.116   9.883   6.649  0.5270 -0.0838  0.3206
  567MOL0     C78119   4.145   9.792   6.526  0.3979 -0.6423 -0.7776
  567MOL0     C78120   4.279   9.830   6.472 -0.0476 -0.7596 -0.8344
  567MOL0     C78121   4.403   9.779   6.552 -0.0983 -0.4165 -0.5890
  567MOL0     C78122   4.417   9.626   6.573 -0.4857 -0.2900 -0.2525
  567MOL0     C78123   4.562   9.577   6.598  0.4102 -0.4578 -0.4015
  567MOL0     C78124   4.639   9.585   6.467 -0.0813  0.1922 -0.0868
  567MOL0     N78125   4.774   9.527   6.484  0.3545 -0.2920  0.1340
  567MOL0     C78126   4.794   9.399   6.526  0.6594 -0.4222  0.7855
  567MOL0     C78127   4.930   9.383   6.543  0.4485 -0.4265  0.8073
  567MOL0     C78128   4.996   9.256   6.596  0.4373  0.0808 -0.3185
  567MOL0     C78129   5.146   9.244   6.596 -0.5031  0.0098  0.0710
  567MOL0     C78130   5.177   9.099   6.639 -0.1530  0.0020  0.0463
  567MOL0     C78131   5.328   9.072   6.638  0.0884  0.3869  0.0827
  567MOL0     O78132   5.391   9.149   6.751  0.4148 -0.9160 -0.0905
  567MOL0     C78133   5.523   9.150   6.768  0.7290 -0.3441  0.2227
  567MOL0     C78134   5.571   9.243   6.857  0.6965  0.4533 -0.1056
  567MOL0     C78135   5.702   9.276   6.870 -0.7260 -0.5148  0.0650
  567MOL0     C78136   5.726   9.387   6.968  0.2768  0.0545 -0.1910
  567MOL0     C78137   5.801   9.207   6.797 -0.3499 -0.0957 -0.9313
  567MOL0     C78138   5.947   9.228   6.805  0.0525  0.1345  1.3460
  567MOL0     O78139   5.993   9.337   6.865  0.1011  0.0436  0.4534
  567MOL0     C78140   6.122   9.383   6.858  0.2725  0.0798  0.2957
  567MOL0     C78141   6.223   9.343   6.772  0.0675  1.3011 -0.8984
  567MOL0     C78142   6.341   9.415   6.753 -0.0595  0.9838 -0.2217
  567MOL0     C78143   6.366   9.530   6.832 -0.2013  0.6869  0.1579
  567MOL0     O78144   6.485   9.594   6.805  0.0151 -0.2715 -0.8017
  567MOL0     C78145   6.560   9.648   6.912  1.2250 -0.5750  0.3173
  567MOL0     C78146   6.703   9.634   6.869  0.4656  0.8669  0.5479
  567MOL0     C78147   6.804   9.701   6.966 -0.7295  0.1540 -0.3075
  567MOL0     C78148   6.813   9.845   6.960 -0.9687 -0.8073 -0.0350
  567MOL0     C78149   6.963   9.888   7.015  0.6264  0.5167  0.0930
  567MOL0     C78150   6.978   9.860   7.161  0.4604  0.3765 -0.1841
  567MOL0     C78151   7.120   9.889   7.203 -0.2914 -0.3603  0.1445
  567MOL0     C78152   7.151   9.851   7.354 -0.1639 -0.2495  0.6287
  567MOL0    Cl78153   7.312   9.909   7.405  0.1248 -0.2465  0.6779
  567MOL0     C78154   6.280   9.557   6.932  0.2618  0.5658 -0.1447
  567MOL0     C78155   6.157   9.483   6.945 -1.2380 -0.0896 -0.1037
  567MOL0     O78156   6.006   9.132   6.772 -0.3280  0.1828 -0.3649
  567MOL0     C78157   5.754   9.111   6.702  0.3473  0.4745  0.3322
  567MOL0     C78158   5.614   9.073   6.695 -0.4376  0.7516  0.1541
  567MOL0     N78159   4.983   9.497   6.500  0.3227 -0.3964 -0.8353
  567MOL0     N78160   4.892   9.586   6.471 -0.3274  0.7417 -0.2365
  567MOL0     C78161   3.700   9.959   6.747  0.4386 -0.5438  0.7900
  567MOL0     C78162   3.560   9.944   6.750 -0.0751  0.3102 -0.0591
  567MOL0     C78163   3.123  10.077   6.609  0.4420  0.5049  0.4160
  567MOL0     C78164   3.078   9.950   6.651 -0.3084  0.2870  0.7776
  567MOL0     C78165   2.947   9.926   6.681 -0.7172  0.7085 -0.0541
  567MOL0     C78166   2.859  10.037   6.684 -0.5204  0.1570 -0.3998
  567MOL0     O78167   2.729  10.033   6.732 -0.3978 -0.7371 -0.0198
  567MOL0     C78168   2.705   9.948   6.840 -0.3064  0.4474  0.7124
  567MOL0     C78169   2.618  10.016   6.947 -0.3136  0.3895 -0.0283
  567MOL0     C78170   2.484  10.064   6.896 -0.6313 -0.6395  0.1623
  567MOL0     C78171   2.401  10.147   6.997  0.1721  0.0335  0.6309
  567MOL0     C78172   2.359  10.067   7.108  0.7013  0.1941 -0.1042
  567MOL0     C78173   2.327   9.987   7.199 -0.0941 -0.5605 -0.0466
  567MOL0     C78174   2.908  10.163   6.636 -0.1523 -0.2933  0.1979
  567MOL0     C78175   3.030  10.184   6.592 -0.1678 -0.6603  0.7926
  567MOL0     C78176   3.066  10.324   6.556 -0.2916 -0.3508  0.0994
  567MOL0     H78177   3.493  10.034   6.420  1.7709 -0.2545 -1.7106
  567MOL0     H78178   3.742  10.064   6.430 -1.1337  2.6078  0.8802
  567MOL0     H78179   3.932   9.811   6.675 -0.9227  1.1439 -0.3556
  567MOL0     H78180   3.964   9.948   6.792 -3.4633 -1.3561  1.4159
  567MOL0     H78181   4.151   9.985   6.630 -2.5732  1.0992  0.4237
  567MOL0     H78182   4.156   9.841   6.742 -1.3434 -0.7139  0.8722
  567MOL0     H78183   4.139   9.685   6.550 -2.9944 -0.1647  1.3040
  567MOL0     H78184   4.074   9.808   6.444 -1.5241 -2.4161  0.4295
  567MOL0     H78185   4.290   9.803   6.367  0.1194  1.2792 -1.3845
  567MOL0     H78186   4.292   9.938   6.457  6.5880 -1.0509 -0.1542
  567MOL0     H78187   4.398   9.834   6.646 -3.8407 -0.2907 -0.7088
  567MOL0     H78188   4.490   9.825   6.505 -0.6268  2.4512  0.9910
  567MOL0     H78189   4.351   9.602   6.656 -2.6452  0.6512 -1.6054
  567MOL0     H78190   4.358   9.583   6.491 -1.7954  0.3356  0.3238
  567MOL0     H78191   4.559   9.471   6.626  1.6252 -0.2278  0.6663
  567MOL0     H78192   4.603   9.630   6.684 -0.2347 -1.8710  0.8388
  567MOL0     H78193   4.579   9.529   6.394  1.9080  0.6911 -2.1963
  567MOL0     H78194   4.657   9.688   6.438  1.4024 -0.4322 -1.4951
  567MOL0     H78195   4.725   9.316   6.536  1.4001 -0.9067  1.9543
  567MOL0     H78196   4.948   9.171   6.547  2.1588  1.0806 -4.1353
  567MOL0     H78197   4.970   9.253   6.702 -1.0494 -2.1451 -0.6889
  567MOL0     H78198   5.175   9.262   6.492 -1.7014 -1.8420 -0.6306
  567MOL0     H78199   5.197   9.315   6.662  1.7378 -0.7041 -0.8039
  567MOL0     H78200   5.137   9.072   6.737 -1.5572  0.2896 -0.4283
  567MOL0     H78201   5.127   9.022   6.579 -0.2083 -1.2877  1.6710
  567MOL0     H78202   5.352   8.966   6.642  3.0625  0.8931 -1.2594
  567MOL0     H78203   5.369   9.107   6.543 -1.8985  0.9565 -0.6177
  567MOL0     H78204   5.497   9.304   6.907  1.0182  1.9524 -1.3922
  567MOL0     H78205   5.824   9.358   7.006  0.5390  0.2087 -0.7325
  567MOL0     H78206   5.651   9.374   7.046 -0.3147 -1.4133 -0.9650
  567MOL0     H78207   5.727   9.492   6.937  1.3675  1.2022  3.2455
  567MOL0     H78208   6.207   9.263   6.700 -2.6261  0.6087  0.3775
  567MOL0     H78209   6.394   9.376   6.666 -1.7536 -2.1173  0.0011
  567MOL0     H78210   6.542   9.755   6.930 -1.6801 -0.5608 -1.9284
  567MOL0     H78211   6.548   9.584   7.000 -0.4946 -2.7162 -1.3681
  567MOL0     H78212   6.725   9.527   6.862  0.4020  0.8500  0.6038
  567MOL0     H78213   6.718   9.667   6.766  1.1733 -0.6345  0.1458
  567MOL0     H78214   6.894   9.652   6.928 -1.4965 -0.5639 -1.2500
  567MOL0     H78215   6.788   9.660   7.065  0.0306 -1.0149 -0.6525
  567MOL0     H78216   6.735   9.894   7.019  0.4953  1.5526  0.0912
  567MOL0     H78217   6.808   9.899   6.865  1.4264  1.3005  0.9289
  567MOL0     H78218   7.042   9.829   6.968  0.6631 -0.5001  1.3845
  567MOL0     H78219   6.968   9.996   6.995 -1.6690  0.4778 -1.0612
  567MOL0     H78220   6.962   9.752   7.161  2.9792 -0.0583 -0.5611
  567MOL0     H78221   6.912   9.921   7.222  0.4339 -0.7463  0.9458
  567MOL0     H78222   7.144   9.995   7.191  1.7995 -0.8287 -0.3661
  567MOL0     H78223   7.193   9.832   7.145 -1.2679 -0.5329 -0.9588
  567MOL0     H78224   7.131   9.744   7.363 -1.3946 -0.5541 -3.4964
  567MOL0     H78225   7.086   9.906   7.423 -0.7620  0.0762 -0.1758
  567MOL0     H78226   6.289   9.633   7.009  0.7550  0.2154  0.1534
  567MOL0     H78227   6.078   9.527   7.006  0.3726 -1.4976  3.2785
  567MOL0     H78228   5.821   9.068   6.627 -1.1951 -0.1440 -0.7515
  567MOL0     H78229   5.580   9.007   6.616  0.4970  0.7482 -0.2669
  567MOL0     H78230   3.744   9.928   6.841 -1.1637 -1.4087  1.2875
  567MOL0     H78231   3.508   9.925   6.843  1.6085  0.9808  1.0712
  567MOL0     H78232   3.153   9.871   6.650 -0.7269 -0.1715  2.4605
  567MOL0     H78233   2.918   9.827   6.716  0.5206  0.7556  1.2246
  567MOL0     H78234   2.655   9.860   6.800  0.8888  0.0859 -0.0182
  567MOL0     H78235   2.794   9.908   6.888 -2.0968 -0.3881  3.5398
  567MOL0     H78236   2.671  10.099   6.994 -2.2988  1.0028  1.2435
  567MOL0     H78237   2.595   9.929   7.011 -1.2404  0.2484 -0.5404
  567MOL0     H78238   2.496  10.133   6.812  2.3619  1.9619  2.4776
  567MOL0     H78239   2.418   9.983   6.864  1.7628 -2.6201 -0.1008
  567MOL0     H78240   2.316  10.194   6.946  0.7024 -0.6677 -0.9488
  567MOL0     H78241   2.466  10.230   7.025  0.1438 -0.2256  1.4952
  567MOL0     H78242   2.301   9.903   7.259 -0.9031 -0.3942 -0.1487
  567MOL0     H78243   2.828  10.237   6.640 -1.3068 -1.4709  4.5982
  567MOL0     H78244   2.975  10.384   6.566 -3.1651 -3.8429 -2.4819
  567MOL0     H78245   3.151  10.369   6.608 -1.6796  2.5231  0.0719
  567MOL0     H78246   3.093  10.321   6.450  0.6962  2.2420  0.2066
  568MOL0     O78247   0.099   4.049   8.245 -0.1335  0.1147 -0.8089
  568MOL0     C78248   0.130   4.055   8.365 -0.1622 -0.4431  0.2741
  568MOL0     O78249   0.258   4.073   8.408 -0.5130  0.2397 -0.3083
  568MOL0     C78250   0.363   4.081   8.313 -0.0494 -0.5525  0.1028
  568MOL0     C78251   0.452   4.198   8.311  0.3705  0.2931  0.4729
  568MOL0     C78252   0.567   4.201   8.233  0.1356  0.2876 -0.5936
  568MOL0     C78253   0.605   4.086   8.158 -0.1962 -0.0292  0.0065
  568MOL0     O78254   0.718   4.082   8.082 -0.2428 -0.4309  0.0753
  568MOL0     C78255   0.836   4.112   8.158  0.0197  0.5014 -0.1243
  568MOL0     C78256   0.934   4.051   8.062  0.5035 -0.0362  0.5913
  568MOL0     C78257   1.076   4.030   8.112 -0.2603 -0.6335  0.2643
  568MOL0     C78258   1.134   4.167   8.131  0.5819  0.3227  0.5009
  568MOL0     C78259   1.267   4.164   8.219 -0.8935  0.5688  0.5821
  568MOL0     C78260   1.376   4.065   8.175  0.3063  0.5659  0.1534
  568MOL0     C78261   1.460   4.095   8.054  0.1922 -1.7119  0.7759
  568MOL0     C78262   1.580   4.194   8.085  0.4255 -0.6240  0.3907
  568MOL0     N78263   1.650   4.245   7.963 -0.0497 -0.1933 -0.0660
  568MOL0     C78264   1.672   4.379   7.936 -0.1494 -0.1558 -0.7164
  568MOL0     C78265   1.756   4.366   7.831 -0.1863  0.0742  0.9832
  568MOL0     C78266   1.818   4.477   7.756  0.9414 -0.1513  0.3689
  568MOL0     C78267   1.895   4.575   7.848  0.3327 -0.8217  0.0905
  568MOL0     C78268   1.989   4.497   7.936 -0.0285 -1.0288 -0.8608
  568MOL0     C78269   2.099   4.410   7.873 -0.3917  0.4403 -0.2587
  568MOL0     O78270   2.200   4.492   7.805  0.8894 -0.0765  0.9001
  568MOL0     C78271   2.315   4.529   7.874  0.0749 -0.5744 -1.0943
  568MOL0     C78272   2.335   4.519   8.023  0.0759 -0.4907  0.1265
  568MOL0     C78273   2.450   4.576   8.084 -0.2882  0.5630 -0.4328
  568MOL0     C78274   2.458   4.577   8.232  0.3813 -0.2346  0.1581
  568MOL0     C78275   2.553   4.621   8.000 -0.4067 -0.0317 -0.1498
  568MOL0     C78276   2.679   4.676   8.057 -0.9525 -0.4788  0.1375
  568MOL0     O78277   2.676   4.740   8.181 -0.3911  0.2223  0.8245
  568MOL0     C78278   2.790   4.800   8.220  0.8607 -0.3439  0.0188
  568MOL0     C78279   2.871   4.724   8.299  0.3888  1.0580  0.5333
  568MOL0     C78280   2.998   4.777   8.332 -0.7256 -0.3495  0.1598
  568MOL0     C78281   3.044   4.905   8.296 -0.2704 -0.4462  0.6608
  568MOL0     O78282   3.170   4.953   8.335 -0.2880  1.0661 -0.8183
  568MOL0     C78283   3.264   4.994   8.230  0.7695  0.5785 -0.5693
  568MOL0     C78284   3.380   5.072   8.283 -0.0300 -0.4528 -0.8223
  568MOL0     C78285   3.354   5.166   8.412  0.1720 -0.0858  0.0915
  568MOL0     C78286   3.306   5.306   8.373 -0.2613 -0.0513 -0.5802
  568MOL0     C78287   3.161   5.309   8.326 -0.2050 -0.0598  0.0481
  568MOL0     C78288   3.125   5.459   8.281  0.4100 -0.7072  0.3439
  568MOL0     C78289   2.979   5.494   8.276  1.0896  0.4489 -0.3758
  568MOL0     C78290   2.907   5.394   8.189  0.2878 -0.0248 -0.1576
  568MOL0    Cl78291   2.749   5.466   8.158  0.4085 -0.0820 -0.0327
  568MOL0     C78292   2.950   4.980   8.222  0.7038  0.7377 -0.1835
  568MOL0     C78293   2.824   4.928   8.187  0.1367  0.0497  0.3261
  568MOL0     O78294   2.778   4.692   7.977 -0.0282 -0.4633 -0.1232
  568MOL0     C78295   2.538   4.622   7.861 -0.0976 -0.3916  0.3385
  568MOL0     C78296   2.420   4.584   7.800  0.8810  0.2239  0.4225
  568MOL0     N78297   1.807   4.228   7.813  0.2377 -0.3453 -0.1840
  568MOL0     N78298   1.742   4.163   7.900  0.3874 -0.4348 -0.1192
  568MOL0     C78299   0.515   3.975   8.154  0.0129 -0.5502  0.4183
  568MOL0     C78300   0.393   3.973   8.228  0.9102 -0.4637 -0.9666
  568MOL0     C78301   0.018   4.055   8.466  0.7263  0.3007 -0.4971
  568MOL0     C78302   0.043   4.029   8.599  0.5023  0.7146 -0.0515
  568MOL0     C78303  -0.054   4.019   8.699 -0.0786 -0.0277  0.5515
  568MOL0     C78304  -0.188   4.059   8.676  0.1483 -1.1312  0.0905
  568MOL0     O78305  -0.271   4.061   8.785  0.0778 -0.1960  0.3608
  568MOL0     C78306  -0.412   4.090   8.766  0.3356  0.9759 -0.3709
  568MOL0     C78307  -0.487   3.964   8.736  0.1407 -0.2477  0.1265
  568MOL0     C78308  -0.638   3.986   8.781  0.6673  0.6802  0.6870
  568MOL0     C78309  -0.702   4.091   8.705  0.3991 -0.1635  1.2838
  568MOL0     C78310  -0.846   4.100   8.728  0.2292 -0.2661 -0.0242
  568MOL0     C78311  -0.960   4.125   8.762 -0.4478  0.5070  0.4040
  568MOL0     C78312  -0.225   4.085   8.545 -0.1652  0.7490 -0.5965
  568MOL0     C78313  -0.125   4.077   8.439  0.3061  0.4441 -0.3693
  568MOL0     C78314  -0.185   4.089   8.301 -0.9038 -0.6419  0.5528
  568MOL0     H78315   0.447   4.285   8.375  0.7785  0.4788  0.2577
  568MOL0     H78316   0.636   4.285   8.240  1.9312 -1.1933  0.7861
  568MOL0     H78317   0.833   4.058   8.253 -0.6818  0.1407 -0.3419
  568MOL0     H78318   0.851   4.220   8.170  2.1551  0.2137  0.2584
  568MOL0     H78319   0.898   3.950   8.040  1.5051 -1.1267  3.4802
  568MOL0     H78320   0.930   4.123   7.979 -2.7117  0.0400  0.7158
  568MOL0     H78321   1.076   3.976   8.208 -0.4737  0.2821  0.7853
  568MOL0     H78322   1.126   3.977   8.031  0.6619  1.8403 -0.8756
  568MOL0     H78323   1.166   4.203   8.033  2.6270 -2.6386 -0.0531
  568MOL0     H78324   1.065   4.233   8.184 -1.8131 -1.7561  0.1330
  568MOL0     H78325   1.247   4.142   8.324  3.6282 -1.2259  1.3198
  568MOL0     H78326   1.300   4.268   8.221 -1.2890  0.8183 -2.0781
  568MOL0     H78327   1.435   4.053   8.266  0.2246  1.9991  0.4124
  568MOL0     H78328   1.327   3.968   8.158 -0.1402  0.9034 -0.5069
  568MOL0     H78329   1.398   4.154   7.986  1.4870  3.0042  3.2294
  568MOL0     H78330   1.497   4.005   8.006 -0.4059 -1.2300 -0.6350
  568MOL0     H78331   1.538   4.276   8.143 -0.7263 -1.4865  0.8263
  568MOL0     H78332   1.663   4.150   8.142  0.4508 -2.7961 -1.1626
  568MOL0     H78333   1.647   4.472   7.986 -0.9408 -0.8345  0.1636
  568MOL0     H78334   1.743   4.536   7.700  1.7565 -0.5072 -1.1656
  568MOL0     H78335   1.882   4.436   7.678 -1.1029  2.4985 -3.0477
  568MOL0     H78336   1.947   4.640   7.778 -3.4225  0.0021 -2.2261
  568MOL0     H78337   1.829   4.639   7.908  0.0051  0.4101 -1.5084
  568MOL0     H78338   2.041   4.562   8.007 -1.4076  2.9124 -3.1776
  568MOL0     H78339   1.925   4.440   8.004 -2.1866  1.3316 -0.7834
  568MOL0     H78340   2.149   4.347   7.947 -1.0083 -0.0855 -0.2758
  568MOL0     H78341   2.052   4.345   7.798 -1.3902  1.5801 -0.6402
  568MOL0     H78342   2.257   4.492   8.094 -0.2811  1.3862  0.5071
  568MOL0     H78343   2.457   4.678   8.275  0.5676 -0.6815  1.2522
  568MOL0     H78344   2.553   4.533   8.266 -0.2618 -1.5757  0.2617
  568MOL0     H78345   2.387   4.517   8.289  1.4880 -0.3319  1.5149
  568MOL0     H78346   2.847   4.619   8.318  1.6132  0.7646  0.4975
  568MOL0     H78347   3.079   4.718   8.372 -0.0759  0.7064  0.4409
  568MOL0     H78348   3.304   4.907   8.176 -1.9460  0.1169 -2.0310
  568MOL0     H78349   3.208   5.049   8.154 -0.5266 -1.2342 -0.9841
  568MOL0     H78350   3.448   4.996   8.323 -2.5925 -1.1702  2.6334
  568MOL0     H78351   3.428   5.126   8.201 -1.6013  2.4018  0.0253
  568MOL0     H78352   3.445   5.179   8.472  1.8595 -0.2783 -2.2884
  568MOL0     H78353   3.277   5.115   8.471  0.3992 -2.1642 -1.3258
  568MOL0     H78354   3.372   5.355   8.300 -0.1772  0.0171 -0.4607
  568MOL0     H78355   3.294   5.364   8.465  0.4550 -1.0116  0.1436
  568MOL0     H78356   3.135   5.245   8.242 -1.3884  1.4306 -0.7954
  568MOL0     H78357   3.100   5.271   8.409 -2.8177  2.0125 -0.7517
  568MOL0     H78358   3.169   5.486   8.185  1.8951  0.3526  1.2850
  568MOL0     H78359   3.178   5.518   8.357  1.6817 -1.8561  0.3830
  568MOL0     H78360   2.953   5.593   8.238  1.8410  0.3013 -1.2824
  568MOL0     H78361   2.937   5.487   8.377  0.0610  2.9278 -0.5555
  568MOL0     H78362   2.894   5.295   8.235  1.0672 -1.0478 -2.0197
  568MOL0     H78363   2.969   5.367   8.103 -0.2140  1.0924 -0.8879
  568MOL0     H78364   2.974   5.079   8.184 -0.4274  1.2262  0.3083
  568MOL0     H78365   2.761   4.997   8.132  0.5404  1.7832  1.9402
  568MOL0     H78366   2.615   4.653   7.791  1.0269  1.8644  2.4402
  568MOL0     H78367   2.416   4.589   7.692 -0.3043  1.2017  0.4812
  568MOL0     H78368   0.533   3.889   8.090  0.5871 -0.5353  0.5535
  568MOL0     H78369   0.322   3.890   8.220  0.8399 -0.3295 -1.8238
  568MOL0     H78370   0.150   4.014   8.616  1.0417  0.0727 -3.2981
  568MOL0     H78371  -0.013   4.007   8.799 -1.4835  3.3031  1.6978
  568MOL0     H78372  -0.439   4.120   8.867 -0.8671  2.4943 -1.0989
  568MOL0     H78373  -0.434   4.161   8.685  1.8123  2.9561  0.8923
  568MOL0     H78374  -0.437   3.887   8.796  2.9928  1.2804 -0.1179
  568MOL0     H78375  -0.472   3.945   8.630  0.1815  0.2360  0.0401
  568MOL0     H78376  -0.681   3.887   8.761  2.4110 -0.6204  2.9518
  568MOL0     H78377  -0.637   4.007   8.888 -0.0988  0.3223  0.7758
  568MOL0     H78378  -0.691   4.067   8.599 -3.9496  1.1124  0.3726
  568MOL0     H78379  -0.645   4.183   8.724  1.6199 -0.8119  0.9029
  568MOL0     H78380  -1.063   4.144   8.782 -0.8081 -0.2749 -0.5846
  568MOL0     H78381  -0.326   4.096   8.508 -0.6596 -1.3957 -0.0461
  568MOL0     H78382  -0.155   3.999   8.246 -1.1759 -0.8724  0.7805
  568MOL0     H78383  -0.291   4.114   8.300 -0.9482 -0.8111  0.8453
  568MOL0     H78384  -0.142   4.178   8.254 -0.5901 -0.4480  1.2029
  569MOL0     O78385   4.977   1.327   8.828 -0.2968 -0.7854 -0.0822
  569MOL0     C78386   4.913   1.424   8.864 -0.7150  0.0882  0.1946
  569MOL0     O78387   4.897   1.540   8.792  0.3789  0.1950  0.5860
  569MOL0     C78388   4.977   1.542   8.677  0.0714 -0.9107 -0.1567
  569MOL0     C78389   5.041   1.665   8.651  0.0312  0.0110 -0.0344
  569MOL0     C78390   5.113   1.688   8.533  0.2543 -0.4409  0.5023
  569MOL0     C78391   5.139   1.586   8.444 -0.4764  0.3063 -0.9960
  569MOL0     O78392   5.224   1.615   8.345  0.1937  0.2253  0.4238
  569MOL0     C78393   5.272   1.508   8.257 -0.5865 -0.4690 -0.6134
  569MOL0     C78394   5.396   1.560   8.184 -0.6107  0.4407 -0.1595
  569MOL0     C78395   5.380   1.642   8.055 -0.7329 -0.6308  0.1608
  569MOL0     C78396   5.521   1.692   7.995  0.3839  0.9630 -0.0700
  569MOL0     C78397   5.524   1.765   7.859 -0.7856 -0.8557 -0.2034
  569MOL0     C78398   5.445   1.900   7.853  0.8849  0.5515 -0.6153
  569MOL0     C78399   5.446   1.973   7.721  0.1252 -0.4017 -1.9268
  569MOL0     C78400   5.411   2.128   7.740 -0.2698  0.0231  0.5116
  569MOL0     N78401   5.269   2.151   7.767 -0.1886  0.9067  0.6966
  569MOL0     C78402   5.160   2.170   7.685  0.1492  0.3452 -0.0923
  569MOL0     C78403   5.050   2.169   7.761  0.0339  0.6630 -0.2759
  569MOL0     C78404   4.912   2.200   7.711  0.0744  0.1558 -0.0601
  569MOL0     C78405   4.914   2.316   7.611 -0.7966 -0.8556 -0.1185
  569MOL0     C78406   4.975   2.444   7.666  0.0041 -0.6620  0.8015
  569MOL0     C78407   4.975   2.561   7.570  0.3627 -0.0319  0.7041
  569MOL0     O78408   5.044   2.539   7.444  0.6070  0.1836 -0.1599
  569MOL0     C78409   5.181   2.537   7.436 -0.4146 -0.4118 -0.6602
  569MOL0     C78410   5.281   2.530   7.538 -0.1968  0.9457  0.1503
  569MOL0     C78411   5.418   2.527   7.509 -0.7071  0.4371  0.4193
  569MOL0     C78412   5.505   2.513   7.632  0.8754  0.6426  0.3726
  569MOL0     C78413   5.462   2.525   7.378 -0.6178 -0.0262  0.1826
  569MOL0     C78414   5.605   2.498   7.342  0.6332  0.5646  0.1461
  569MOL0     O78415   5.642   2.533   7.217  0.3065  0.4515  0.5099
  569MOL0     C78416   5.760   2.468   7.165  0.4145 -0.3856 -0.4424
  569MOL0     C78417   5.884   2.524   7.160  0.0721  0.0168  0.3606
  569MOL0     C78418   5.991   2.448   7.118 -0.3278 -1.1100  0.4349
  569MOL0     C78419   5.976   2.315   7.089 -0.2771 -0.0910  0.4806
  569MOL0     O78420   6.072   2.228   7.038  0.4697  0.8297 -0.1532
  569MOL0     C78421   6.207   2.266   7.039 -0.7007  0.0348  0.0852
  569MOL0     C78422   6.235   2.328   6.904  0.9030  0.3789  0.1259
  569MOL0     C78423   6.384   2.350   6.884 -0.9041 -0.0220  0.6894
  569MOL0     C78424   6.447   2.474   6.945 -0.9343  0.1482  0.1654
  569MOL0     C78425   6.566   2.529   6.877 -0.2851  0.2475  0.3313
  569MOL0     C78426   6.682   2.444   6.892 -0.2938 -0.2980 -0.3054
  569MOL0     C78427   6.801   2.464   6.795  0.2963 -0.0493  0.9539
  569MOL0     C78428   6.937   2.397   6.831  0.4745 -0.0928 -0.2143
  569MOL0    Cl78429   6.991   2.462   6.995 -0.7827  0.1665  0.5277
  569MOL0     C78430   5.850   2.265   7.091  0.3418  0.6419 -0.7520
  569MOL0     C78431   5.742   2.345   7.124 -0.3927 -0.5235  0.4402
  569MOL0     O78432   5.664   2.418   7.413 -0.3789  0.4950 -0.3247
  569MOL0     C78433   5.367   2.558   7.279 -0.2519  0.3026  0.3293
  569MOL0     C78434   5.233   2.556   7.308 -0.2618  0.0394 -0.1333
  569MOL0     N78435   5.089   2.141   7.888  0.3133  0.2417  1.1837
  569MOL0     N78436   5.218   2.131   7.893  0.3193 -0.6050  0.0340
  569MOL0     C78437   5.065   1.464   8.467 -0.2869  0.1929  0.0718
  569MOL0     C78438   4.980   1.445   8.571  0.0827 -0.1428 -0.0803
  569MOL0     C78439   4.876   1.424   9.009  1.1351 -0.5891  0.6642
  569MOL0     C78440   4.844   1.552   9.070  0.1283  0.5724 -0.5538
  569MOL0     C78441   4.775   1.556   9.194 -0.0675  0.5178  0.3421
  569MOL0     C78442   4.766   1.439   9.277  0.3765  0.9435  0.2515
  569MOL0     O78443   4.698   1.414   9.401 -0.0220  0.5384  1.1386
  569MOL0     C78444   4.665   1.531   9.465 -0.5041 -0.3427  0.0641
  569MOL0     C78445   4.632   1.514   9.611  0.3476 -0.5537 -0.1722
  569MOL0     C78446   4.752   1.456   9.687  0.2750 -0.1216 -0.1808
  569MOL0     C78447   4.704   1.352   9.785  0.3080  0.1486 -0.0622
  569MOL0     C78448   4.632   1.410   9.899 -1.0215 -0.4917  0.2843
  569MOL0     C78449   4.578   1.463   9.996 -0.8529  0.7983  0.7198
  569MOL0     C78450   4.819   1.329   9.224 -0.2585 -0.1112 -1.0797
  569MOL0     C78451   4.866   1.309   9.093 -0.1173  0.3313 -0.1376
  569MOL0     C78452   4.874   1.164   9.046  0.6145 -0.1889 -0.7433
  569MOL0     H78453   5.037   1.759   8.707 -1.7724  1.1146 -1.9097
  569MOL0     H78454   5.153   1.789   8.525  0.0636 -0.2360  1.8182
  569MOL0     H78455   5.202   1.463   8.186 -2.3402 -0.9345  1.2834
  569MOL0     H78456   5.300   1.420   8.317 -1.8143 -1.6853 -1.7408
  569MOL0     H78457   5.455   1.623   8.253 -0.0223  0.5046 -0.7124
  569MOL0     H78458   5.458   1.474   8.159 -2.6764 -1.3892  0.7812
  569MOL0     H78459   5.328   1.569   7.992 -0.1651 -1.8557  1.0706
  569MOL0     H78460   5.322   1.728   8.090  1.5950 -0.1416  3.3136
  569MOL0     H78461   5.574   1.761   8.061  4.7709  2.3769 -4.4717
  569MOL0     H78462   5.580   1.601   7.982 -0.7985  0.2687 -0.7931
  569MOL0     H78463   5.488   1.700   7.779  0.3900  1.8878 -3.1714
  569MOL0     H78464   5.631   1.770   7.838 -1.1950 -1.6944 -2.7859
  569MOL0     H78465   5.346   1.873   7.891  1.3297 -0.8730 -0.3988
  569MOL0     H78466   5.480   1.969   7.930  0.6025  0.8367 -0.7435
  569MOL0     H78467   5.385   1.920   7.647 -1.7991 -0.6058 -0.2923
  569MOL0     H78468   5.549   1.963   7.686  0.3655 -3.2473 -0.7152
  569MOL0     H78469   5.468   2.175   7.821  0.4884  1.2703 -0.7151
  569MOL0     H78470   5.431   2.180   7.647  1.2670 -1.2553  0.0742
  569MOL0     H78471   5.170   2.193   7.579  0.0994 -0.0004 -0.1719
  569MOL0     H78472   4.853   2.228   7.798 -0.4794 -1.6961  0.2111
  569MOL0     H78473   4.861   2.108   7.681 -1.6684 -0.3929  3.9924
  569MOL0     H78474   4.966   2.286   7.519  1.3818 -0.9578  1.0962
  569MOL0     H78475   4.810   2.336   7.582 -0.4033  0.9472 -0.3517
  569MOL0     H78476   4.912   2.481   7.748 -0.9881 -1.4116  0.3986
  569MOL0     H78477   5.081   2.433   7.692  0.7424  2.4959 -0.4106
  569MOL0     H78478   4.871   2.590   7.548  0.8605  1.8310  0.6348
  569MOL0     H78479   5.013   2.655   7.611 -2.9278  1.1141  1.4988
  569MOL0     H78480   5.260   2.532   7.644  0.5866  1.2379  0.3079
  569MOL0     H78481   5.453   2.537   7.725 -1.0715  0.5825 -0.6400
  569MOL0     H78482   5.602   2.563   7.624 -0.0510  2.2287 -2.5871
  569MOL0     H78483   5.526   2.406   7.641  1.1471  0.8190  2.0399
  569MOL0     H78484   5.896   2.631   7.178  0.1394  0.5086 -2.2399
  569MOL0     H78485   6.088   2.495   7.099 -1.5695  1.7235  0.6076
  569MOL0     H78486   6.236   2.339   7.115  0.1301 -0.1911  0.0004
  569MOL0     H78487   6.265   2.173   7.042 -1.4352 -0.6774 -3.2420
  569MOL0     H78488   6.190   2.261   6.830  1.0426 -0.1782  0.5367
  569MOL0     H78489   6.184   2.422   6.883  1.3722  0.5228 -0.4012
  569MOL0     H78490   6.394   2.364   6.776  0.1389  3.4256  1.1317
  569MOL0     H78491   6.448   2.266   6.913  0.5127  1.4252  1.9890
  569MOL0     H78492   6.460   2.466   7.053  1.1339  0.6586 -0.0070
  569MOL0     H78493   6.377   2.559   6.938  1.0390  1.9259  1.0008
  569MOL0     H78494   6.550   2.539   6.769  1.2587  0.6848  0.1164
  569MOL0     H78495   6.581   2.626   6.925  2.5000 -0.3893  0.9126
  569MOL0     H78496   6.653   2.338   6.885  1.1413 -0.8453  1.4124
  569MOL0     H78497   6.720   2.452   6.994 -1.2506 -0.7666  0.1016
  569MOL0     H78498   6.818   2.569   6.773 -0.0513 -0.5634 -2.1432
  569MOL0     H78499   6.774   2.424   6.697  2.1339 -0.7572  0.6931
  569MOL0     H78500   7.012   2.429   6.758  0.7428 -0.2071  0.0105
  569MOL0     H78501   6.914   2.290   6.838 -2.7602  0.4809 -0.1810
  569MOL0     H78502   5.844   2.158   7.071 -0.8267 -0.7053  4.9788
  569MOL0     H78503   5.640   2.307   7.123  0.5261 -3.2525 -2.1308
  569MOL0     H78504   5.414   2.563   7.181  1.2058  2.5900  1.0548
  569MOL0     H78505   5.159   2.566   7.229 -2.0759  0.5929  1.5469
  569MOL0     H78506   5.080   1.375   8.406  0.2857 -0.0629  0.5767
  569MOL0     H78507   4.925   1.352   8.579  1.5526 -1.0067  0.5361
  569MOL0     H78508   4.856   1.645   9.015 -0.2603  1.7238  1.2072
  569MOL0     H78509   4.724   1.645   9.228 -0.3347 -0.0865  1.6110
  569MOL0     H78510   4.739   1.611   9.457 -2.1639  1.2763  0.1392
  569MOL0     H78511   4.570   1.574   9.432 -0.0924  1.2957  0.8843
  569MOL0     H78512   4.552   1.440   9.620 -0.6437  0.6672  1.4775
  569MOL0     H78513   4.588   1.601   9.660 -2.0429 -2.5518  1.4510
  569MOL0     H78514   4.834   1.425   9.622  0.7286  0.2252  0.2198
  569MOL0     H78515   4.804   1.531   9.747  1.7631 -1.6100  0.4730
  569MOL0     H78516   4.795   1.297   9.808 -0.1738 -1.9069 -2.6535
  569MOL0     H78517   4.634   1.286   9.732 -0.9585  2.8029 -1.8993
  569MOL0     H78518   4.544   1.509  10.088  1.7248  1.2063  1.5383
  569MOL0     H78519   4.811   1.240   9.287 -2.0262  0.8920  0.2350
  569MOL0     H78520   4.836   1.147   8.945  2.8107 -0.9570 -1.5140
  569MOL0     H78521   4.981   1.149   9.030  0.6927 -0.4320 -0.0203
  569MOL0     H78522   4.841   1.083   9.112  0.4973  0.3259 -0.1579
  570MOL0     O78523   7.808   7.458   0.388 -0.2758  0.1413 -0.3002
  570MOL0     C78524   7.792   7.362   0.465 -0.4006  0.8121  0.7525
  570MOL0     O78525   7.888   7.270   0.492  0.1947 -0.5056 -0.0502
  570MOL0     C78526   8.020   7.284   0.454  0.6055 -0.8508 -0.0162
  570MOL0     C78527   8.106   7.352   0.534  0.1633  1.1680  0.2764
  570MOL0     C78528   8.241   7.370   0.488  0.8127 -1.1586  1.0146
  570MOL0     C78529   8.287   7.324   0.370 -0.1146  1.0504  0.7074
  570MOL0     O78530   8.414   7.344   0.330  0.2055 -0.2617  0.0870
  570MOL0     C78531   8.473   7.258   0.227  0.6129 -0.0719 -0.4334
  570MOL0     C78532   8.596   7.329   0.183 -0.1130 -0.5622 -0.2197
  570MOL0     C78533   8.697   7.223   0.130  0.4245  0.5303 -0.2509
  570MOL0     C78534   8.844   7.261   0.135  1.1581 -0.3565  0.1694
  570MOL0     C78535   8.921   7.153   0.044 -0.7392  0.2021 -0.2789
  570MOL0     C78536   9.071   7.155   0.066  0.1589 -0.5308  0.2615
  570MOL0     C78537   9.128   7.288   0.019 -0.0197 -0.2969  0.1609
  570MOL0     C78538   9.281   7.286   0.017  0.4673  0.4396  0.6104
  570MOL0     N78539   9.337   7.303   0.155  0.4000 -0.1273  0.4565
  570MOL0     C78540   9.315   7.398   0.252 -0.1969  0.1650 -0.9517
  570MOL0     C78541   9.384   7.359   0.362  0.4292  0.2885 -0.1501
  570MOL0     C78542   9.388   7.441   0.495  0.1628  0.5150 -0.7882
  570MOL0     C78543   9.279   7.391   0.600 -0.3828 -0.7340  1.1130
  570MOL0     C78544   9.136   7.392   0.538  0.5506  0.4711 -0.2539
  570MOL0     C78545   9.022   7.396   0.635  0.0446  0.5917 -0.4231
  570MOL0     O78546   9.027   7.509   0.717  0.0760 -0.2861 -0.0599
  570MOL0     C78547   8.919   7.560   0.787  0.1492 -0.8191 -0.0037
  570MOL0     C78548   8.936   7.670   0.857 -0.5411 -0.4402 -0.6116
  570MOL0     C78549   8.845   7.714   0.943 -0.4219 -0.4993 -0.2391
  570MOL0     C78550   8.894   7.829   1.032  0.0327 -0.3137 -0.0751
  570MOL0     C78551   8.711   7.667   0.939  0.1982 -0.1186 -0.3049
  570MOL0     C78552   8.605   7.711   1.029 -0.3237  0.1910 -0.0123
  570MOL0     O78553   8.495   7.622   1.026 -0.5467  0.0451  0.8898
  570MOL0     C78554   8.372   7.659   1.066  0.1607 -0.0385  0.2519
  570MOL0     C78555   8.280   7.583   0.998  0.0155  0.0596  0.3461
  570MOL0     C78556   8.146   7.609   1.017 -0.3205 -0.3799 -0.2872
  570MOL0     C78557   8.100   7.688   1.122  0.4791 -1.1284  0.6001
  570MOL0     O78558   7.967   7.702   1.159 -0.3875 -0.0700  0.9040
  570MOL0     C78559   7.884   7.597   1.129  0.4133  0.7528 -0.5656
  570MOL0     C78560   7.750   7.591   1.208 -0.7626 -0.2812  0.3940
  570MOL0     C78561   7.653   7.472   1.175  0.2945 -1.1655 -0.2232
  570MOL0     C78562   7.519   7.467   1.234  0.4631 -0.1628 -0.1655
  570MOL0     C78563   7.526   7.496   1.387  0.2015  0.2288 -1.1012
  570MOL0     C78564   7.396   7.455   1.456 -1.2494  1.1811  0.9765
  570MOL0     C78565   7.363   7.489   1.604  0.4191  0.1025  0.6955
  570MOL0     C78566   7.272   7.387   1.674  0.2169 -1.5299  0.3017
  570MOL0    Cl78567   7.098   7.420   1.662 -0.3796 -0.0055 -0.1204
  570MOL0     C78568   8.193   7.763   1.197 -0.6859  0.2787  0.2755
  570MOL0     C78569   8.334   7.753   1.160  0.9745  0.2031 -0.2560
  570MOL0     O78570   8.614   7.813   1.095 -0.1030  0.1187 -0.2777
  570MOL0     C78571   8.682   7.556   0.846 -0.6499  0.0757  0.2716
  570MOL0     C78572   8.788   7.506   0.772  0.3709 -1.3320 -0.0880
  570MOL0     N78573   9.457   7.248   0.318  0.6314  0.1090 -0.1425
  570MOL0     N78574   9.437   7.223   0.194  0.2540  0.1641 -1.3194
  570MOL0     C78575   8.193   7.257   0.286 -0.5181 -0.3284  0.1365
  570MOL0     C78576   8.066   7.225   0.330  0.5972  0.2243  0.1457
  570MOL0     C78577   7.669   7.351   0.538  0.5174 -0.2252  0.4401
  570MOL0     C78578   7.664   7.263   0.651 -1.0597 -0.1325 -0.0928
  570MOL0     C78579   7.553   7.244   0.734 -0.6831  0.0998 -0.3949
  570MOL0     C78580   7.436   7.311   0.696 -0.7683 -0.6335  0.0837
  570MOL0     O78581   7.314   7.283   0.758 -0.0081  0.5377  0.4184
  570MOL0     C78582   7.252   7.408   0.798 -0.1307 -0.0650 -0.8999
  570MOL0     C78583   7.184   7.383   0.936  1.0182  0.7287  0.2480
  570MOL0     C78584   7.158   7.519   1.001 -0.4371  0.4485  0.2452
  570MOL0     C78585   7.131   7.499   1.154 -0.4074 -0.0612 -0.9774
  570MOL0     C78586   7.109   7.632   1.220  0.4729  0.5971  0.6472
  570MOL0     C78587   7.101   7.741   1.273 -0.1256  0.8035 -0.1168
  570MOL0     C78588   7.436   7.398   0.586  0.0707  0.5684  0.4267
  570MOL0     C78589   7.552   7.421   0.508  0.4909 -0.3688  0.2133
  570MOL0     C78590   7.527   7.519   0.390  0.9999  0.1482 -0.6482
  570MOL0     H78591   8.070   7.381   0.633  0.7816 -1.7407  1.4615
  570MOL0     H78592   8.318   7.422   0.544  2.9036 -2.0235 -0.8625
  570MOL0     H78593   8.409   7.260   0.139 -0.2781  2.8824  0.1640
  570MOL0     H78594   8.487   7.158   0.268 -0.7833 -0.4099 -0.7441
  570MOL0     H78595   8.588   7.395   0.096  2.3482  0.6340  0.3800
  570MOL0     H78596   8.636   7.380   0.271  1.6202 -1.7979 -0.2506
  570MOL0     H78597   8.690   7.125   0.178  1.7027  0.8474  0.6308
  570MOL0     H78598   8.665   7.209   0.026  0.2353 -0.9689 -0.0116
  570MOL0     H78599   8.867   7.365   0.107  1.5118 -0.0463  1.5579
  570MOL0     H78600   8.873   7.254   0.240 -1.0390  3.2200  1.2000
  570MOL0     H78601   8.887   7.170  -0.059  0.5951  0.4709 -0.6924
  570MOL0     H78602   8.882   7.056   0.076 -2.8972  2.0585  3.5403
  570MOL0     H78603   9.088   7.135   0.172 -3.1298  0.9427  1.2216
  570MOL0     H78604   9.116   7.078   0.003 -2.3304  0.2265 -2.7411
  570MOL0     H78605   9.098   7.368   0.088  3.6736 -0.2817  1.9450
  570MOL0     H78606   9.081   7.304  -0.078 -2.7223 -0.9331  1.2662
  570MOL0     H78607   9.323   7.205  -0.043  2.3112  0.0966  2.2457
  570MOL0     H78608   9.307   7.379  -0.033 -1.4914  1.9562  2.2402
  570MOL0     H78609   9.248   7.482   0.243 -1.5162 -0.9616 -2.0710
  570MOL0     H78610   9.377   7.544   0.459 -0.3514  0.5829 -0.4487
  570MOL0     H78611   9.487   7.435   0.541 -0.1495 -1.6973 -0.3051
  570MOL0     H78612   9.308   7.294   0.641 -1.8638 -1.4901  0.4425
  570MOL0     H78613   9.280   7.474   0.671  0.4350  0.2891 -0.0420
  570MOL0     H78614   9.134   7.481   0.475 -0.3206  1.7874  1.5446
  570MOL0     H78615   9.127   7.310   0.466  1.8453  0.7582 -0.7757
  570MOL0     H78616   8.937   7.403   0.567 -0.5051 -1.0037  0.0433
  570MOL0     H78617   9.015   7.305   0.695  2.6768  1.4633  1.3609
  570MOL0     H78618   9.034   7.715   0.848 -0.4698 -0.7263 -1.3847
  570MOL0     H78619   8.857   7.828   1.135  0.4947 -0.5421  0.0901
  570MOL0     H78620   8.862   7.923   0.986  0.6454 -0.6479 -1.2267
  570MOL0     H78621   9.003   7.831   1.028  0.1289 -2.7338 -0.4168
  570MOL0     H78622   8.317   7.522   0.917  2.9302  0.3036  1.3697
  570MOL0     H78623   8.078   7.547   0.960  3.0166 -3.7324 -1.0307
  570MOL0     H78624   7.861   7.603   1.022 -3.0334 -0.3365 -0.0241
  570MOL0     H78625   7.938   7.503   1.144  2.0120  1.8696  1.1173
  570MOL0     H78626   7.779   7.575   1.312 -1.2074 -2.9560  0.1717
  570MOL0     H78627   7.701   7.688   1.196  2.7604  1.6243  0.0234
  570MOL0     H78628   7.713   7.384   1.202 -0.2389 -0.8894  2.0733
  570MOL0     H78629   7.629   7.464   1.069 -1.7374 -0.6222  0.1550
  570MOL0     H78630   7.481   7.366   1.217  2.7858 -0.5706 -3.9977
  570MOL0     H78631   7.449   7.541   1.194 -0.1186  0.1835  1.4098
  570MOL0     H78632   7.607   7.443   1.438 -1.6331  0.4281  2.3894
  570MOL0     H78633   7.551   7.601   1.401  0.5483 -0.1413  1.6849
  570MOL0     H78634   7.383   7.347   1.451 -0.1059  1.0763 -0.7953
  570MOL0     H78635   7.323   7.503   1.390 -2.6186 -2.1389 -0.1502
  570MOL0     H78636   7.311   7.585   1.612  1.6469  0.9371 -0.6769
  570MOL0     H78637   7.458   7.500   1.657  0.5512 -0.6356  0.6168
  570MOL0     H78638   7.310   7.388   1.777  2.5135 -0.8302 -0.5164
  570MOL0     H78639   7.293   7.285   1.642 -1.7576 -1.4411 -1.5195
  570MOL0     H78640   8.168   7.816   1.288 -0.1532  0.8926  0.0645
  570MOL0     H78641   8.412   7.811   1.207  0.4516  1.4037 -0.8329
  570MOL0     H78642   8.585   7.515   0.818 -0.4210  0.4980 -1.2769
  570MOL0     H78643   8.773   7.420   0.707 -1.0788  0.7343 -2.6690
  570MOL0     H78644   8.201   7.235   0.180  0.4920  3.1924 -0.6399
  570MOL0     H78645   7.996   7.166   0.272 -1.5557 -0.0546  2.8169
  570MOL0     H78646   7.753   7.213   0.688 -1.5778 -1.2004 -0.2492
  570MOL0     H78647   7.561   7.179   0.821  0.1510 -0.6069 -0.9831
  570MOL0     H78648   7.321   7.493   0.801 -1.1951  0.7967  0.6488
  570MOL0     H78649   7.178   7.433   0.722 -0.2424  2.7756  0.0475
  570MOL0     H78650   7.255   7.323   0.995 -1.0494 -2.7547 -0.4889
  570MOL0     H78651   7.096   7.319   0.923 -0.9397  3.7722 -3.2083
  570MOL0     H78652   7.244   7.585   0.989 -0.0833  0.0880  0.8034
  570MOL0     H78653   7.073   7.564   0.947 -0.5306 -0.2795 -0.2335
  570MOL0     H78654   7.224   7.465   1.200  0.0310  2.1778 -0.0495
  570MOL0     H78655   7.054   7.423   1.170  0.5170 -1.2251 -1.8949
  570MOL0     H78656   7.094   7.844   1.303  1.2423  0.4300  1.6694
  570MOL0     H78657   7.340   7.438   0.555 -0.5181 -1.6474 -0.7444
  570MOL0     H78658   7.586   7.607   0.416  1.5786 -0.3586 -0.2377
  570MOL0     H78659   7.572   7.493   0.294  1.9121  0.2325 -0.2505
  570MOL0     H78660   7.422   7.541   0.369  0.9085 -0.2395 -0.5902
  571MOL0     O78661   7.049   6.742   5.882  0.0663  0.2600  0.0289
  571MOL0     C78662   7.064   6.710   5.760  0.1927 -0.3400 -0.2895
  571MOL0     O78663   7.166   6.636   5.718 -0.5120 -0.3729 -0.5435
  571MOL0     C78664   7.262   6.589   5.807 -0.6538  0.3315  0.5442
  571MOL0     C78665   7.403   6.590   5.767  0.8725 -0.1669 -0.5618
  571MOL0     C78666   7.502   6.529   5.839 -0.1046 -0.2432  0.6577
  571MOL0     C78667   7.481   6.460   5.955  0.5499 -0.4592 -0.6492
  571MOL0     O78668   7.597   6.402   6.011 -0.4639 -0.2761  0.0814
  571MOL0     C78669   7.586   6.331   6.135  0.9415  0.2257 -1.1350
  571MOL0     C78670   7.726   6.304   6.197 -0.1165  0.7414  0.8384
  571MOL0     C78671   7.811   6.231   6.092 -0.6227 -0.3891 -0.0594
  571MOL0     C78672   7.961   6.242   6.130 -0.3269  0.5974  0.0530
  571MOL0     C78673   8.062   6.170   6.045  0.1876  0.0578 -0.1317
  571MOL0     C78674   8.202   6.194   6.096 -0.0179 -0.3396 -0.0663
  571MOL0     C78675   8.316   6.119   6.040 -0.7891  0.1932 -0.3009
  571MOL0     C78676   8.312   5.976   6.094 -0.6528  0.6333 -0.0047
  571MOL0     N78677   8.356   5.955   6.231  0.0107 -0.0127  0.0861
  571MOL0     C78678   8.468   6.014   6.286 -0.0250  0.2158 -0.8021
  571MOL0     C78679   8.477   5.970   6.416  0.1132  0.2349 -0.5237
  571MOL0     C78680   8.581   6.012   6.511 -0.2237 -0.3729  0.2139
  571MOL0     C78681   8.616   6.166   6.519 -0.1585  0.7407 -0.3027
  571MOL0     C78682   8.535   6.240   6.612  0.3529  0.5071  0.0290
  571MOL0     C78683   8.400   6.267   6.550 -0.3084 -0.5181 -0.6391
  571MOL0     O78684   8.300   6.179   6.608 -0.3201 -0.2944 -0.2666
  571MOL0     C78685   8.178   6.238   6.616  0.5656 -0.3363 -0.1590
  571MOL0     C78686   8.115   6.230   6.739 -0.3335 -0.8817 -0.1249
  571MOL0     C78687   7.979   6.282   6.761  0.0918  0.9939  0.0372
  571MOL0     C78688   7.917   6.267   6.893 -0.0060  0.4759  0.0903
  571MOL0     C78689   7.911   6.349   6.649 -0.6848  0.0235 -0.4286
  571MOL0     C78690   7.775   6.399   6.649 -0.2969 -0.8616  0.1135
  571MOL0     O78691   7.712   6.401   6.529  0.0034  0.8746 -0.9468
  571MOL0     C78692   7.576   6.436   6.528 -0.7843 -0.3773  0.2832
  571MOL0     C78693   7.487   6.371   6.613  0.5752 -0.5492 -0.6488
  571MOL0     C78694   7.349   6.401   6.618  0.2019  0.9093  0.1303
  571MOL0     C78695   7.299   6.484   6.514 -0.0511 -0.4796 -0.0980
  571MOL0     O78696   7.162   6.499   6.489 -0.1889 -0.3732 -0.9293
  571MOL0     C78697   7.068   6.492   6.600 -0.6031 -0.2501  0.2732
  571MOL0     C78698   7.026   6.634   6.631 -0.1244 -0.6179 -0.2817
  571MOL0     C78699   6.949   6.643   6.767 -0.5966 -0.2160  0.6300
  571MOL0     C78700   6.821   6.562   6.762 -0.5423 -0.5300  0.0253
  571MOL0     C78701   6.759   6.541   6.906  0.1851 -0.5042 -0.6449
  571MOL0     C78702   6.694   6.671   6.960  0.1860 -0.0007 -0.5788
  571MOL0     C78703   6.632   6.671   7.100 -0.1078  0.3248  0.1920
  571MOL0     C78704   6.604   6.812   7.164 -0.4933 -0.4364 -0.6940
  571MOL0    Cl78705   6.625   6.796   7.343  0.0237 -0.0893  0.0228
  571MOL0     C78706   7.383   6.544   6.418 -0.7532  0.5686 -0.2318
  571MOL0     C78707   7.520   6.527   6.437 -0.6949 -0.3275 -0.2141
  571MOL0     O78708   7.727   6.448   6.755  0.2336 -0.6302  0.1535
  571MOL0     C78709   7.988   6.354   6.526  0.4111  0.1468 -0.8249
  571MOL0     C78710   8.107   6.284   6.505 -0.2075 -0.1859  0.0638
  571MOL0     N78711   8.379   5.882   6.442  0.0518  0.7810  0.2837
  571MOL0     N78712   8.304   5.875   6.335  0.0098 -0.2024  0.5282
  571MOL0     C78713   7.347   6.455   5.996 -1.4176  0.5549  0.6318
  571MOL0     C78714   7.238   6.517   5.929  0.1017  0.1525 -0.3397
  571MOL0     C78715   6.953   6.756   5.662 -0.1740  0.3715  0.0724
  571MOL0     C78716   6.825   6.772   5.715  1.7859  0.2572  0.0099
  571MOL0     C78717   6.719   6.808   5.635  0.4651 -0.9905  0.2761
  571MOL0     C78718   6.744   6.830   5.500  0.7677 -0.2403 -0.6644
  571MOL0     O78719   6.638   6.872   5.430  0.0454  0.7220  1.0591
  571MOL0     C78720   6.599   6.777   5.321  0.0627  0.0186 -0.0218
  571MOL0     C78721   6.448   6.730   5.338  0.1952 -0.0696  0.6423
  571MOL0     C78722   6.382   6.649   5.219  0.2660  0.5137 -0.3860
  571MOL0     C78723   6.244   6.609   5.265  0.8110  0.2242  0.6530
  571MOL0     C78724   6.152   6.719   5.286  1.1108 -0.0351 -0.1833
  571MOL0     C78725   6.090   6.817   5.313 -0.8455  0.2364 -0.8478
  571MOL0     C78726   6.868   6.801   5.440  0.0582  0.3392 -0.3924
  571MOL0     C78727   6.974   6.766   5.523 -0.8260 -0.3226  0.3993
  571MOL0     C78728   7.115   6.745   5.467  0.6419 -0.2481  0.0513
  571MOL0     H78729   7.429   6.639   5.674  0.5732  0.9477 -0.0769
  571MOL0     H78730   7.603   6.526   5.800  0.3204  2.0864  1.4088
  571MOL0     H78731   7.535   6.239   6.106  1.9705 -0.8502  0.3716
  571MOL0     H78732   7.524   6.386   6.207  1.5095 -1.2268  0.5201
  571MOL0     H78733   7.770   6.399   6.228  2.9276 -1.2874  3.2812
  571MOL0     H78734   7.723   6.251   6.292  1.4667  0.1423  0.5824
  571MOL0     H78735   7.766   6.132   6.088 -2.0571  0.2695 -1.4230
  571MOL0     H78736   7.798   6.278   5.994 -0.2313  1.0125  0.5330
  571MOL0     H78737   7.982   6.349   6.122  3.0629  0.1520  1.4105
  571MOL0     H78738   7.983   6.203   6.230  1.1585 -3.3364 -1.5705
  571MOL0     H78739   8.053   6.207   5.942 -2.3823  3.8046  1.1932
  571MOL0     H78740   8.032   6.065   6.043 -1.8291  0.5474 -3.0945
  571MOL0     H78741   8.226   6.300   6.081 -0.0578 -0.6094 -2.5032
  571MOL0     H78742   8.191   6.189   6.205 -0.1440 -0.0544 -0.0626
  571MOL0     H78743   8.401   6.185   6.061 -2.2562  1.9026  0.6355
  571MOL0     H78744   8.297   6.113   5.932  1.3294 -1.3722 -0.6422
  571MOL0     H78745   8.215   5.926   6.088  0.4596 -1.5661 -1.0741
  571MOL0     H78746   8.375   5.920   6.024 -1.6034 -0.1141 -0.2909
  571MOL0     H78747   8.531   6.091   6.243  4.4847 -2.7033 -0.1410
  571MOL0     H78748   8.673   5.968   6.473  0.4566 -0.4018  1.8390
  571MOL0     H78749   8.583   5.976   6.614  1.6148  1.7745  1.0057
  571MOL0     H78750   8.712   6.158   6.570 -1.1661 -2.6065  1.3646
  571MOL0     H78751   8.640   6.219   6.427 -0.4378  2.1134  0.3843
  571MOL0     H78752   8.514   6.198   6.711 -0.5313  1.3233  0.2100
  571MOL0     H78753   8.589   6.333   6.629  0.5587  0.3480  0.2469
  571MOL0     H78754   8.364   6.369   6.569  2.4499  0.6122 -1.0337
  571MOL0     H78755   8.410   6.257   6.442  0.2150 -0.6284 -0.5816
  571MOL0     H78756   8.175   6.190   6.819 -1.4780 -0.7277  0.8409
  571MOL0     H78757   7.834   6.195   6.885 -0.5191  1.1246 -0.5318
  571MOL0     H78758   7.870   6.359   6.928 -1.8078  0.0114 -0.9757
  571MOL0     H78759   7.993   6.235   6.965  1.5954  1.5683 -1.0641
  571MOL0     H78760   7.520   6.290   6.677 -1.4411  0.2928  1.5919
  571MOL0     H78761   7.292   6.336   6.683 -0.3527 -0.6215 -1.7671
  571MOL0     H78762   6.976   6.438   6.579 -1.1460  0.9346 -0.4483
  571MOL0     H78763   7.118   6.445   6.686 -2.4157 -3.0083 -0.0649
  571MOL0     H78764   7.113   6.699   6.644 -0.0417 -0.3518 -2.0269
  571MOL0     H78765   6.960   6.673   6.553 -2.5962 -2.5203  0.7040
  571MOL0     H78766   6.935   6.751   6.780  0.6394  0.0341  0.0037
  571MOL0     H78767   7.016   6.597   6.840 -0.8143 -3.2571 -0.9160
  571MOL0     H78768   6.838   6.461   6.722 -0.3448 -0.4753 -0.0325
  571MOL0     H78769   6.754   6.622   6.699 -2.0042 -2.6779 -0.5786
  571MOL0     H78770   6.674   6.472   6.905 -1.3739  1.1240  2.8142
  571MOL0     H78771   6.835   6.512   6.978  3.0265  1.7137 -2.5585
  571MOL0     H78772   6.616   6.706   6.891 -0.9032  0.0390  0.6403
  571MOL0     H78773   6.763   6.755   6.950 -0.4759  0.3388 -2.7899
  571MOL0     H78774   6.689   6.604   7.166  0.9087 -0.0101 -0.9944
  571MOL0     H78775   6.532   6.628   7.086 -0.2310  1.3454 -2.5689
  571MOL0     H78776   6.507   6.853   7.135 -0.8340 -1.0867 -0.4986
  571MOL0     H78777   6.669   6.887   7.118  0.9327  0.1650  2.1064
  571MOL0     H78778   7.340   6.612   6.344 -1.3484  1.5653  0.9945
  571MOL0     H78779   7.586   6.574   6.365 -0.3607  1.7639  1.3746
  571MOL0     H78780   7.934   6.390   6.440  0.2478  1.1407 -0.3214
  571MOL0     H78781   8.145   6.284   6.403  2.2950  2.8846  0.8426
  571MOL0     H78782   7.329   6.393   6.084  0.6372 -1.2841 -0.1759
  571MOL0     H78783   7.140   6.511   5.975 -0.2540  1.6132 -0.8852
  571MOL0     H78784   6.802   6.769   5.821 -0.7049  0.2423 -0.4793
  571MOL0     H78785   6.620   6.825   5.676  0.0780 -3.2048  0.3858
  571MOL0     H78786   6.620   6.830   5.228 -0.1345  0.8248  0.3829
  571MOL0     H78787   6.662   6.688   5.314 -2.3615 -1.8592  0.2470
  571MOL0     H78788   6.390   6.819   5.362 -2.3211 -1.4030 -0.2011
  571MOL0     H78789   6.445   6.667   5.428 -0.8616 -2.6233 -1.0728
  571MOL0     H78790   6.362   6.719   5.137 -1.5502  0.0926 -0.3383
  571MOL0     H78791   6.444   6.561   5.199  0.2407  0.3030  0.4245
  571MOL0     H78792   6.262   6.548   5.354 -0.8438 -2.3510 -0.6671
  571MOL0     H78793   6.193   6.547   5.191 -2.3353  1.9318  1.2068
  571MOL0     H78794   6.042   6.904   5.355 -1.1587 -0.9483  1.3846
  571MOL0     H78795   6.876   6.815   5.333  0.5944 -1.4482 -0.6333
  571MOL0     H78796   7.125   6.767   5.360  4.9368  0.1997  0.3389
  571MOL0     H78797   7.192   6.806   5.515  1.2827 -1.6301  0.8465
  571MOL0     H78798   7.152   6.644   5.488 -0.0715 -0.3304  0.9739
  572MOL0     O78799   1.138   6.597   2.990 -1.1290 -0.5488 -0.0287
  572MOL0     C78800   1.068   6.689   2.954  0.6889 -0.0247  0.6962
  572MOL0     O78801   1.113   6.797   2.887 -0.0446  0.0290 -0.3559
  572MOL0     C78802   1.220   6.812   2.805 -0.7180 -0.3253 -0.1038
  572MOL0     C78803   1.274   6.708   2.740 -0.1034  0.6238 -0.2234
  572MOL0     C78804   1.384   6.727   2.649 -0.1691  0.0581 -0.2634
  572MOL0     C78805   1.439   6.853   2.622  0.8317  1.0149 -0.1125
  572MOL0     O78806   1.545   6.873   2.541 -0.2827 -0.8061 -0.4631
  572MOL0     C78807   1.672   6.914   2.612  0.4027  0.4137  1.6381
  572MOL0     C78808   1.790   6.952   2.507 -0.2359 -0.2311 -0.2458
  572MOL0     C78809   1.907   7.030   2.578  0.5631 -0.3798 -0.4030
  572MOL0     C78810   2.019   7.042   2.477  1.1124 -1.1220  0.4371
  572MOL0     C78811   2.145   7.080   2.549 -0.6118  0.1671  0.8030
  572MOL0     C78812   2.276   7.071   2.480 -0.7079 -0.0991 -1.0014
  572MOL0     C78813   2.391   7.147   2.555 -0.5888 -0.4955  0.3182
  572MOL0     C78814   2.520   7.151   2.472  0.1953  0.3695  0.0152
  572MOL0     N78815   2.627   7.140   2.568  0.4292  0.2270 -0.4905
  572MOL0     C78816   2.688   7.248   2.613  0.1735 -0.5548 -0.8674
  572MOL0     C78817   2.796   7.208   2.688  0.4465 -0.9365 -0.4347
  572MOL0     C78818   2.891   7.295   2.764  1.2605  1.5160 -0.0347
  572MOL0     C78819   3.004   7.349   2.680 -0.2806  0.1133 -0.1490
  572MOL0     C78820   2.975   7.438   2.556  1.0301  0.7270 -0.1048
  572MOL0     C78821   3.094   7.503   2.482  0.4042 -0.9365 -1.3152
  572MOL0     O78822   3.152   7.592   2.583 -0.2125 -0.4674  0.2471
  572MOL0     C78823   3.283   7.636   2.558 -0.5714  0.2462 -0.0173
  572MOL0     C78824   3.358   7.689   2.664  0.2153 -0.0853  0.6676
  572MOL0     C78825   3.493   7.722   2.656  0.2762 -0.4847  0.1492
  572MOL0     C78826   3.550   7.777   2.779  0.1672 -0.8058 -1.3861
  572MOL0     C78827   3.556   7.691   2.533 -0.4889 -0.8126 -0.9527
  572MOL0     C78828   3.705   7.723   2.516 -0.0013  0.8288  0.2812
  572MOL0     O78829   3.758   7.715   2.384 -0.6232  0.3858 -0.4771
  572MOL0     C78830   3.897   7.724   2.376  0.4677  0.2416 -0.6719
  572MOL0     C78831   3.961   7.852   2.389  0.2214  0.5582 -0.2468
  572MOL0     C78832   4.096   7.856   2.386 -0.2669 -0.3828  0.9862
  572MOL0     C78833   4.179   7.741   2.391 -0.1382 -0.1383 -0.6558
  572MOL0     O78834   4.314   7.761   2.405  1.4541 -0.2965 -0.1291
  572MOL0     C78835   4.407   7.670   2.342 -0.0691  0.7480  1.0337
  572MOL0     C78836   4.553   7.708   2.378 -0.0793 -0.4630  0.3742
  572MOL0     C78837   4.617   7.630   2.492  0.1479 -0.0095 -0.3391
  572MOL0     C78838   4.750   7.680   2.510 -0.6212 -0.0558  0.3136
  572MOL0     C78839   4.809   7.616   2.637  0.3942 -0.3616  0.1510
  572MOL0     C78840   4.961   7.648   2.651 -0.0519 -0.7317  0.3137
  572MOL0     C78841   5.027   7.611   2.786  0.8740  0.5227  0.3357
  572MOL0     C78842   5.175   7.653   2.777  0.3439  0.2758  0.4931
  572MOL0    Cl78843   5.248   7.630   2.929  0.0023 -0.1109  0.5493
  572MOL0     C78844   4.126   7.618   2.375  0.7312 -0.7694  0.3262
  572MOL0     C78845   3.985   7.608   2.359  0.8062  0.5075  0.5127
  572MOL0     O78846   3.774   7.733   2.615 -0.0755  0.5322  0.3161
  572MOL0     C78847   3.482   7.657   2.425  0.0248 -0.0919 -0.0984
  572MOL0     C78848   3.345   7.625   2.437  0.3430 -0.9590 -1.0077
  572MOL0     N78849   2.793   7.067   2.688 -0.1126  0.4179  0.2648
  572MOL0     N78850   2.699   7.027   2.604 -0.0710 -0.4012 -0.4794
  572MOL0     C78851   1.373   6.962   2.680  0.3566  0.1937  0.2457
  572MOL0     C78852   1.268   6.946   2.776  1.2556  0.3708  0.7073
  572MOL0     C78853   0.916   6.691   2.981 -0.0213 -0.2498  0.3296
  572MOL0     C78854   0.834   6.792   2.937  0.5353 -0.4195  1.1234
  572MOL0     C78855   0.698   6.800   2.954  0.5461 -0.1297 -0.3414
  572MOL0     C78856   0.637   6.700   3.029 -0.8377  0.2508 -0.1748
  572MOL0     O78857   0.505   6.692   3.064  0.1637 -0.0957 -0.4518
  572MOL0     C78858   0.414   6.768   2.981  0.9248 -0.4754 -0.4494
  572MOL0     C78859   0.272   6.707   2.996 -0.1305  0.5885 -0.0999
  572MOL0     C78860   0.253   6.567   2.934 -0.1144  0.7139 -0.4245
  572MOL0     C78861   0.104   6.543   2.905 -0.3473 -0.2432  0.6756
  572MOL0     C78862   0.075   6.407   2.842  0.5474 -0.4526  0.5516
  572MOL0     C78863   0.065   6.306   2.776  0.3232  0.1077  0.1097
  572MOL0     C78864   0.715   6.599   3.080  0.1692  0.1902  0.5365
  572MOL0     C78865   0.852   6.589   3.057  0.4082  0.3508 -0.2249
  572MOL0     C78866   0.917   6.472   3.123  0.3118 -0.4087 -0.4185
  572MOL0     H78867   1.227   6.610   2.748  0.0584  0.5581 -0.0929
  572MOL0     H78868   1.420   6.638   2.600 -1.0165  0.1694 -1.1129
  572MOL0     H78869   1.716   6.846   2.685  0.1166 -0.3340  1.1297
  572MOL0     H78870   1.651   7.010   2.660  0.0578  0.9884  0.4017
  572MOL0     H78871   1.842   6.862   2.474  0.8551  0.5233 -0.6415
  572MOL0     H78872   1.744   7.011   2.427 -1.4194 -1.0195 -0.1627
  572MOL0     H78873   1.871   7.133   2.590 -1.3773 -1.0140 -0.4225
  572MOL0     H78874   1.953   6.989   2.668  0.2437  0.4420  0.1488
  572MOL0     H78875   2.046   6.954   2.418 -0.4255 -0.5924 -1.1047
  572MOL0     H78876   1.975   7.122   2.417  2.7243 -1.2984 -1.0588
  572MOL0     H78877   2.158   7.025   2.643  0.3920 -0.3394  0.3799
  572MOL0     H78878   2.140   7.182   2.589  1.0940  0.0585  1.3889
  572MOL0     H78879   2.300   6.965   2.469  2.4119 -0.0247  2.8270
  572MOL0     H78880   2.263   7.119   2.383 -0.0374 -0.7061 -1.4004
  572MOL0     H78881   2.417   7.096   2.648  3.8739  0.2990 -0.2402
  572MOL0     H78882   2.360   7.251   2.571 -0.7422  0.2065 -3.5255
  572MOL0     H78883   2.516   7.068   2.401  0.9936  0.0193  0.3601
  572MOL0     H78884   2.524   7.243   2.414  1.3496  1.5282  1.8393
  572MOL0     H78885   2.666   7.349   2.580 -0.7256 -1.4495 -3.2263
  572MOL0     H78886   2.922   7.228   2.844 -0.3365  0.3861 -0.3186
  572MOL0     H78887   2.843   7.384   2.806 -0.6574 -1.7035  5.8139
  572MOL0     H78888   3.070   7.403   2.749 -0.6924 -0.7077  0.9239
  572MOL0     H78889   3.075   7.279   2.636 -0.2833 -0.0410  0.0872
  572MOL0     H78890   2.915   7.384   2.482 -2.3505  1.4765  1.9141
  572MOL0     H78891   2.909   7.520   2.584  0.0900  0.1815 -0.6493
  572MOL0     H78892   3.165   7.426   2.449 -0.8912 -1.8786 -1.9667
  572MOL0     H78893   3.064   7.554   2.391  1.2001  0.9892 -0.5399
  572MOL0     H78894   3.306   7.690   2.760 -0.6093  1.5954  0.2456
  572MOL0     H78895   3.474   7.806   2.851  1.0473 -2.9913  0.5561
  572MOL0     H78896   3.594   7.874   2.756  0.7083 -0.4439  0.8832
  572MOL0     H78897   3.611   7.709   2.840 -0.6099  0.4948  0.9296
  572MOL0     H78898   3.909   7.946   2.404 -0.8163 -0.0686  0.1775
  572MOL0     H78899   4.144   7.950   2.410 -0.4592  0.1559 -0.5912
  572MOL0     H78900   4.389   7.565   2.367 -1.2708  0.7847  0.4018
  572MOL0     H78901   4.393   7.683   2.234  0.4375  1.3692  1.0361
  572MOL0     H78902   4.616   7.679   2.294 -0.2514 -1.6056  0.6278
  572MOL0     H78903   4.559   7.815   2.401  0.1962 -1.0962  3.8099
  572MOL0     H78904   4.612   7.523   2.470  1.9947 -0.1354 -0.3053
  572MOL0     H78905   4.567   7.641   2.589 -2.1542  1.8148 -1.6049
  572MOL0     H78906   4.760   7.788   2.525 -0.2134 -0.0399 -0.0455
  572MOL0     H78907   4.816   7.654   2.426 -0.3018 -1.8078  1.0508
  572MOL0     H78908   4.769   7.654   2.731  2.0611  0.4328  0.5915
  572MOL0     H78909   4.792   7.508   2.632 -3.2068  0.1316 -1.6919
  572MOL0     H78910   4.960   7.758   2.653 -1.2665 -0.7410  0.9146
  572MOL0     H78911   5.026   7.616   2.569 -0.9578 -0.8397 -0.3833
  572MOL0     H78912   5.024   7.502   2.796 -0.8058  0.5949  0.8949
  572MOL0     H78913   4.979   7.656   2.873  0.9404 -1.2594  1.3329
  572MOL0     H78914   5.177   7.758   2.746 -3.2437  0.6108  1.0114
  572MOL0     H78915   5.236   7.594   2.708 -0.9122  1.7566 -2.0321
  572MOL0     H78916   4.188   7.533   2.349  1.9078  0.4305 -0.9890
  572MOL0     H78917   3.937   7.511   2.345  0.2680  0.2220  3.5558
  572MOL0     H78918   3.541   7.621   2.342  0.0469 -1.2224  0.3860
  572MOL0     H78919   3.299   7.575   2.352 -1.1483 -0.7892 -0.3356
  572MOL0     H78920   1.401   7.062   2.648 -0.0494 -0.4252 -2.2392
  572MOL0     H78921   1.222   7.032   2.823  0.5832  2.1863 -2.9741
  572MOL0     H78922   0.885   6.863   2.872  0.1291 -0.9019  0.2571
  572MOL0     H78923   0.648   6.885   2.910 -2.0820  0.6072  3.5040
  572MOL0     H78924   0.397   6.873   3.006 -0.2458 -0.1108 -2.5719
  572MOL0     H78925   0.445   6.766   2.876  1.4933 -0.9441 -0.2813
  572MOL0     H78926   0.203   6.772   2.942 -1.0072  0.0196  0.3117
  572MOL0     H78927   0.247   6.714   3.102  1.5282  2.5255  0.2308
  572MOL0     H78928   0.320   6.538   2.852  1.0064  1.2681  0.2795
  572MOL0     H78929   0.274   6.501   3.018 -2.7063 -0.8061 -0.8309
  572MOL0     H78930   0.076   6.619   2.832  1.4384  1.1357  1.3511
  572MOL0     H78931   0.043   6.566   2.993 -3.1456  2.5752 -1.7689
  572MOL0     H78932   0.045   6.218   2.719 -1.2007  0.4741  0.0550
  572MOL0     H78933   0.660   6.525   3.136 -2.0780  1.6856  0.4388
  572MOL0     H78934   0.949   6.393   3.054  5.0392 -0.0952  1.0406
  572MOL0     H78935   0.998   6.513   3.184  2.5165 -3.0938 -1.3223
  572MOL0     H78936   0.843   6.425   3.188  1.4551  1.2670  2.2548
  573MOL0     O78937   8.154   5.285   9.149 -0.8266 -0.7509 -0.3279
  573MOL0     C78938   8.160   5.220   9.050  0.5557 -0.0937 -0.0377
  573MOL0     O78939   8.273   5.203   8.970  0.0874  0.0973 -0.7750
  573MOL0     C78940   8.385   5.260   9.006 -0.5623  0.2891  0.1820
  573MOL0     C78941   8.452   5.232   9.123  0.5420  0.2692 -0.0230
  573MOL0     C78942   8.582   5.270   9.146 -0.0211  0.5091  0.1908
  573MOL0     C78943   8.649   5.337   9.045 -0.1265 -0.1713  0.3490
  573MOL0     O78944   8.768   5.392   9.075  0.1475  0.4238 -0.3926
  573MOL0     C78945   8.866   5.383   8.971  0.4592  0.4407  0.0687
  573MOL0     C78946   9.002   5.395   9.042 -0.0171  0.1713  0.1790
  573MOL0     C78947   9.122   5.338   8.948  0.1136  0.3028  0.0247
  573MOL0     C78948   9.253   5.379   9.009  0.2396 -0.0385 -0.6163
  573MOL0     C78949   9.367   5.377   8.911 -0.2076  0.3451  0.4591
  573MOL0     C78950   9.498   5.427   8.958 -0.3081 -0.0418 -0.2051
  573MOL0     C78951   9.498   5.563   9.012  0.1692  0.8541  0.0562
  573MOL0     C78952   9.628   5.634   9.043 -0.4758 -0.4569  0.0870
  573MOL0     N78953   9.724   5.635   8.936 -0.8860  0.6867  0.2921
  573MOL0     C78954   9.708   5.709   8.818  0.2937 -0.3712 -0.4931
  573MOL0     C78955   9.836   5.699   8.760  1.2308 -0.8487 -0.0051
  573MOL0     C78956   9.887   5.770   8.630  0.2724  0.4622  0.8374
  573MOL0     C78957   9.906   5.916   8.660  0.2553  0.3879  0.9341
  573MOL0     C78958   9.968   5.975   8.536 -0.2951 -0.0907  0.3598
  573MOL0     C78959   9.862   6.014   8.433 -0.3701  0.1960  0.2476
  573MOL0     O78960   9.772   6.113   8.490  0.0829  0.1569 -0.5226
  573MOL0     C78961   9.663   6.139   8.416  0.7613 -0.4636 -0.0563
  573MOL0     C78962   9.621   6.091   8.288 -0.1350 -0.1699  0.2137
  573MOL0     C78963   9.501   6.133   8.235 -0.0346  0.6785  1.1987
  573MOL0     C78964   9.472   6.062   8.102  0.3483  0.6391  1.0809
  573MOL0     C78965   9.413   6.220   8.288  1.0819  0.0169  0.9905
  573MOL0     C78966   9.283   6.264   8.225 -0.2586 -0.7341 -0.4033
  573MOL0     O78967   9.216   6.352   8.304 -0.6842  0.4758 -0.5900
  573MOL0     C78968   9.092   6.379   8.255 -0.3226 -0.9329  0.0388
  573MOL0     C78969   9.069   6.505   8.198 -0.3902 -0.3008 -0.7365
  573MOL0     C78970   8.942   6.547   8.160 -0.1190 -0.1305  0.1304
  573MOL0     C78971   8.830   6.472   8.171 -1.1124  0.5930  0.1190
  573MOL0     O78972   8.706   6.509   8.120  0.6360  0.2976  0.1789
  573MOL0     C78973   8.653   6.434   8.013 -0.6020  0.6602 -1.6532
  573MOL0     C78974   8.538   6.493   7.933 -0.2211  0.0955  0.3261
  573MOL0     C78975   8.589   6.634   7.892 -0.5585  0.1581  0.4168
  573MOL0     C78976   8.514   6.678   7.777 -0.2276  0.1607  0.1005
  573MOL0     C78977   8.552   6.832   7.750  0.1315 -0.3035 -0.4243
  573MOL0     C78978   8.692   6.840   7.678  0.1222  0.0423 -0.2144
  573MOL0     C78979   8.736   6.979   7.620 -0.3266  0.8380  0.3403
  573MOL0     C78980   8.782   7.095   7.709 -0.6729  0.2024  0.0225
  573MOL0    Cl78981   8.919   7.057   7.814 -0.0668 -0.0752 -0.2153
  573MOL0     C78982   8.856   6.336   8.222  0.3619  0.1918  0.7846
  573MOL0     C78983   8.987   6.291   8.254 -0.1508 -1.1138 -0.3888
  573MOL0     O78984   9.253   6.227   8.108  0.2303 -0.8622 -0.3007
  573MOL0     C78985   9.457   6.284   8.402  0.1168  0.4163 -0.5227
  573MOL0     C78986   9.581   6.242   8.465 -0.1051  0.8585  0.4459
  573MOL0     N78987   9.907   5.606   8.833 -0.1363 -0.1017 -0.0130
  573MOL0     N78988   9.848   5.578   8.938 -0.3987  0.0071  0.0617
  573MOL0     C78989   8.586   5.360   8.922 -0.7108  0.1331  0.1301
  573MOL0     C78990   8.455   5.316   8.904 -0.3774  0.1562 -0.1814
  573MOL0     C78991   8.045   5.145   9.011 -0.0684 -0.0212  0.7328
  573MOL0     C78992   7.947   5.121   9.105  0.6010  0.3721 -0.5091
  573MOL0     C78993   7.835   5.048   9.067  0.3593 -0.2054  0.1362
  573MOL0     C78994   7.815   4.999   8.942  0.2378 -0.0393  0.5995
  573MOL0     O78995   7.704   4.927   8.918  0.0403 -0.5001 -0.2513
  573MOL0     C78996   7.669   4.878   8.788 -0.4626  0.1667 -0.0655
  573MOL0     C78997   7.538   4.794   8.801  0.1620 -0.2124  0.5957
  573MOL0     C78998   7.416   4.867   8.849 -0.1196  0.1432 -0.3725
  573MOL0     C78999   7.353   4.960   8.743  0.3812 -0.7267 -0.1444
  573MOL0     C79000   7.209   4.990   8.759  0.0878 -0.5430  0.1882
  573MOL0     C79001   7.090   5.008   8.781  0.2715  0.1956  0.7500
  573MOL0     C79002   7.922   5.011   8.855 -0.2180 -0.2535  0.2924
  573MOL0     C79003   8.043   5.084   8.885  0.5115 -0.3417  0.9883
  573MOL0     C79004   8.139   5.099   8.766 -1.1287  0.0931  0.3595
  573MOL0     H79005   8.380   5.200   9.198  0.3096  2.2291  0.6536
  573MOL0     H79006   8.626   5.248   9.242 -0.9410 -0.2508  0.4502
  573MOL0     H79007   8.856   5.468   8.904 -0.5048  0.2473 -0.0540
  573MOL0     H79008   8.847   5.302   8.900 -0.3846  2.4154 -2.0751
  573MOL0     H79009   9.011   5.503   9.057 -1.6729  0.4045 -0.3081
  573MOL0     H79010   9.014   5.333   9.132  1.2030 -1.9277 -1.3251
  573MOL0     H79011   9.118   5.230   8.938 -0.0126  0.3266 -0.1834
  573MOL0     H79012   9.114   5.379   8.847  1.2422 -5.3014 -2.7191
  573MOL0     H79013   9.251   5.477   9.058 -0.5143 -0.3546  0.0037
  573MOL0     H79014   9.293   5.306   9.080  1.3205  0.5733 -0.5781
  573MOL0     H79015   9.340   5.432   8.820  0.1894  1.0885  0.7878
  573MOL0     H79016   9.386   5.272   8.889 -0.1291  0.5681 -0.6386
  573MOL0     H79017   9.530   5.370   9.046 -3.6921  1.0656  1.9386
  573MOL0     H79018   9.570   5.423   8.876 -1.3763 -1.4786 -1.1050
  573MOL0     H79019   9.449   5.553   9.109  2.3912 -1.4361  1.0385
  573MOL0     H79020   9.440   5.624   8.941  2.7528  1.4126 -1.6892
  573MOL0     H79021   9.609   5.740   9.060  1.1165 -0.1467  0.0824
  573MOL0     H79022   9.673   5.578   9.126 -0.1093 -0.9269 -0.4254
  573MOL0     H79023   9.621   5.769   8.793 -1.0078 -1.9593  0.0366
  573MOL0     H79024   9.812   5.759   8.552 -1.5257 -1.6235  2.7137
  573MOL0     H79025   9.980   5.718   8.606  1.0175  2.5016 -1.0520
  573MOL0     H79026   9.804   5.951   8.677  0.8481  1.1705  3.1415
  573MOL0     H79027   9.974   5.926   8.745 -0.8892 -2.9855  2.4197
  573MOL0     H79028  10.030   6.064   8.553  1.5176 -1.5588  1.7762
  573MOL0     H79029  10.028   5.907   8.476 -2.5643 -1.0715 -0.9468
  573MOL0     H79030   9.909   6.056   8.343 -2.5073 -3.1083 -2.7114
  573MOL0     H79031   9.808   5.924   8.402  0.3489  0.0104 -0.5106
  573MOL0     H79032   9.685   6.021   8.236 -0.5121 -0.6869  0.4414
  573MOL0     H79033   9.538   5.983   8.065 -2.6313 -1.7928  0.5558
  573MOL0     H79034   9.463   6.128   8.015  1.6892 -1.9228 -1.1722
  573MOL0     H79035   9.377   6.009   8.115  0.7126 -0.5154 -0.6011
  573MOL0     H79036   9.143   6.574   8.159 -1.6265 -0.1340 -2.9587
  573MOL0     H79037   8.932   6.642   8.108 -0.9546  1.4748  2.9883
  573MOL0     H79038   8.737   6.408   7.947  0.0407  1.1429 -1.0431
  573MOL0     H79039   8.620   6.341   8.062  1.4850  2.4040  3.8618
  573MOL0     H79040   8.534   6.439   7.838  1.9975  0.7106 -0.1889
  573MOL0     H79041   8.445   6.504   7.988  0.3018  2.1372  0.9011
  573MOL0     H79042   8.692   6.620   7.860 -0.8399 -4.0343  0.6901
  573MOL0     H79043   8.581   6.709   7.971  0.9578  0.7649  0.0184
  573MOL0     H79044   8.407   6.677   7.796 -1.2147  1.4595 -4.2989
  573MOL0     H79045   8.535   6.615   7.690 -1.1347 -1.2719  0.8782
  573MOL0     H79046   8.471   6.884   7.698 -0.3316 -2.0134 -1.5293
  573MOL0     H79047   8.561   6.882   7.847  2.7672  0.0078 -0.7469
  573MOL0     H79048   8.694   6.765   7.598  1.0111 -0.1695 -0.0039
  573MOL0     H79049   8.768   6.818   7.753  0.7154 -0.1902 -0.8701
  573MOL0     H79050   8.660   7.014   7.550 -0.1467 -0.9883 -0.8261
  573MOL0     H79051   8.830   6.948   7.575  0.3890 -1.9813  3.3258
  573MOL0     H79052   8.701   7.134   7.771  0.4966  2.4071  0.2950
  573MOL0     H79053   8.807   7.175   7.638 -1.2179  0.8671  0.5621
  573MOL0     H79054   8.784   6.255   8.218  0.1605  0.3029  1.7938
  573MOL0     H79055   8.995   6.188   8.288 -2.2049 -1.1431  0.1425
  573MOL0     H79056   9.405   6.365   8.453  0.8581 -0.3337  1.5141
  573MOL0     H79057   9.611   6.295   8.555 -0.9060 -2.2697  2.6923
  573MOL0     H79058   8.636   5.399   8.834 -0.6354  0.1974  0.2014
  573MOL0     H79059   8.411   5.316   8.805  0.0542 -1.8046 -0.4222
  573MOL0     H79060   7.948   5.149   9.210 -1.4428  1.1700 -0.6670
  573MOL0     H79061   7.756   5.031   9.139  1.2989  0.0330  1.2422
  573MOL0     H79062   7.670   4.951   8.706 -0.8081  0.3070  0.0576
  573MOL0     H79063   7.741   4.802   8.756  0.6835 -0.8278  4.2550
  573MOL0     H79064   7.550   4.711   8.870  0.3796  0.2242  1.0894
  573MOL0     H79065   7.513   4.750   8.704  0.3709 -1.4825  1.1023
  573MOL0     H79066   7.351   4.795   8.900  0.3747  1.2947  2.0514
  573MOL0     H79067   7.455   4.922   8.935 -2.2070 -0.3258  0.9617
  573MOL0     H79068   7.355   4.917   8.643  1.3214  0.5533 -0.6865
  573MOL0     H79069   7.411   5.051   8.730 -0.0433 -0.1716  1.4925
  573MOL0     H79070   6.986   5.032   8.792 -0.1896 -0.9703 -0.6771
  573MOL0     H79071   7.908   4.994   8.749 -2.7566  1.3829  0.2982
  573MOL0     H79072   8.226   5.033   8.770  1.1258  2.7657 -0.8540
  573MOL0     H79073   8.083   5.074   8.675  0.7193  0.5488 -0.9683
  573MOL0     H79074   8.173   5.201   8.747  1.7638 -1.0527 -1.3935
  574MOL0     O79075   1.230   6.685   1.053  0.0611 -0.0031  0.5205
  574MOL0     C79076   1.257   6.766   1.143  0.0521 -0.3787 -0.4493
  574MOL0     O79077   1.384   6.824   1.160 -0.4514 -0.4376  0.3964
  574MOL0     C79078   1.501   6.762   1.116 -0.2118 -0.2888 -0.0425
  574MOL0     C79079   1.615   6.843   1.104  0.3623 -0.0518  0.1421
  574MOL0     C79080   1.751   6.794   1.080  0.2837  0.2820  0.3030
  574MOL0     C79081   1.764   6.654   1.078 -0.2700 -0.2114 -0.4017
  574MOL0     O79082   1.889   6.587   1.077 -0.8517 -0.3005  0.0349
  574MOL0     C79083   1.979   6.646   1.168  0.1459  0.1641 -0.2529
  574MOL0     C79084   2.109   6.562   1.177 -0.4767  0.6873 -0.6369
  574MOL0     C79085   2.208   6.623   1.280  0.2925 -0.3917 -0.4864
  574MOL0     C79086   2.285   6.509   1.348 -0.7088  0.3820 -0.1666
  574MOL0     C79087   2.370   6.564   1.463 -0.0026  0.3866 -0.4848
  574MOL0     C79088   2.452   6.451   1.527  0.5147  0.2911  0.6207
  574MOL0     C79089   2.546   6.510   1.631  0.0827  0.2672  0.0783
  574MOL0     C79090   2.600   6.393   1.717 -0.2136  0.4222  0.3214
  574MOL0     N79091   2.724   6.434   1.785 -0.1817  0.0835  0.8464
  574MOL0     C79092   2.852   6.453   1.719  0.4665 -1.3046  0.4657
  574MOL0     C79093   2.942   6.459   1.828 -0.1525 -0.6164  0.3084
  574MOL0     C79094   3.087   6.455   1.814  0.0326 -0.7519  1.0651
  574MOL0     C79095   3.148   6.470   1.955 -0.5322 -0.8540 -0.0232
  574MOL0     C79096   3.299   6.479   1.945  0.3499  0.0296 -0.1436
  574MOL0     C79097   3.385   6.502   2.071 -0.2471  1.0595 -0.0613
  574MOL0     O79098   3.514   6.552   2.021 -0.7713 -0.4107 -0.5856
  574MOL0     C79099   3.623   6.554   2.109  0.2010  0.7115  0.5774
  574MOL0     C79100   3.744   6.509   2.055 -0.6253 -0.3555  0.4263
  574MOL0     C79101   3.843   6.482   2.146 -0.1543  0.9340  0.5317
  574MOL0     C79102   3.974   6.443   2.077 -0.6946  0.1683  1.0336
  574MOL0     C79103   3.833   6.493   2.283 -0.3266  1.1395  0.2411
  574MOL0     C79104   3.942   6.457   2.381 -0.2629  0.7060  0.7332
  574MOL0     O79105   3.934   6.513   2.501  0.7723 -0.3969 -0.7155
  574MOL0     C79106   4.052   6.521   2.575 -0.0421  0.6482 -0.6170
  574MOL0     C79107   4.042   6.540   2.712  0.0572  0.0421  0.8968
  574MOL0     C79108   4.156   6.557   2.791  0.3648  1.3261  0.1602
  574MOL0     C79109   4.278   6.554   2.733 -0.0693 -0.0392  0.2421
  574MOL0     O79110   4.392   6.582   2.808  0.5512  0.7400  0.3452
  574MOL0     C79111   4.476   6.467   2.814  0.1821  0.0096 -0.3895
  574MOL0     C79112   4.588   6.482   2.917  0.1412 -0.0556  0.1299
  574MOL0     C79113   4.689   6.367   2.900 -0.6375  0.1759 -0.2349
  574MOL0     C79114   4.820   6.412   2.970 -0.2503 -0.4192 -0.2790
  574MOL0     C79115   4.920   6.304   2.987 -0.3540 -0.1336 -0.9210
  574MOL0     C79116   5.058   6.350   3.048  0.7830 -0.1570  0.0638
  574MOL0     C79117   5.049   6.365   3.197  0.3944  0.5512  0.1946
  574MOL0     C79118   5.147   6.474   3.253  1.1864  0.8977  0.6603
  574MOL0    Cl79119   5.320   6.470   3.185 -0.3900  0.1612 -0.0727
  574MOL0     C79120   4.287   6.557   2.596 -0.1463  0.5183 -0.6456
  574MOL0     C79121   4.179   6.539   2.514  0.5024  0.6459  0.6020
  574MOL0     O79122   4.024   6.365   2.353 -0.3364  0.1084  0.2682
  574MOL0     C79123   3.715   6.551   2.332  0.1573  0.0029  0.0305
  574MOL0     C79124   3.610   6.574   2.246  0.3334 -0.4646  0.5250
  574MOL0     N79125   2.874   6.428   1.944  0.8517  0.1676  0.2809
  574MOL0     N79126   2.751   6.425   1.915  1.0645 -0.4429 -0.2420
  574MOL0     C79127   1.646   6.570   1.080 -0.7482  0.3829  0.3463
  574MOL0     C79128   1.520   6.622   1.107 -0.2497 -0.0726  0.6001
  574MOL0     C79129   1.155   6.810   1.242  0.2782  0.6888  0.6848
  574MOL0     C79130   1.185   6.909   1.341 -0.4379 -0.8052  0.2969
  574MOL0     C79131   1.097   6.948   1.436  0.8567 -0.7847  0.0111
  574MOL0     C79132   0.966   6.907   1.444 -0.5003 -0.0580  0.4236
  574MOL0     O79133   0.871   6.943   1.537  0.4241  0.4046  0.3306
  574MOL0     C79134   0.897   7.043   1.636  0.8909 -0.6570 -0.3629
  574MOL0     C79135   0.757   7.090   1.691 -0.7736  0.4709 -0.1558
  574MOL0     C79136   0.665   7.151   1.583  0.2604  0.1693 -0.0839
  574MOL0     C79137   0.724   7.275   1.519  0.0637  0.4959 -1.5004
  574MOL0     C79138   0.627   7.315   1.422 -0.1633  0.7014  0.7480
  574MOL0     C79139   0.557   7.363   1.333  0.5780 -0.4732  0.8039
  574MOL0     C79140   0.919   6.827   1.337 -0.3353 -0.5319 -0.5317
  574MOL0     C79141   1.016   6.772   1.247 -0.3128  0.0327 -0.3843
  574MOL0     C79142   0.954   6.666   1.151 -0.1778 -0.5537 -0.2947
  574MOL0     H79143   1.604   6.945   1.139  0.2858 -0.1965  0.5447
  574MOL0     H79144   1.832   6.865   1.093  1.2583 -0.8249  0.4514
  574MOL0     H79145   1.931   6.657   1.266  0.2437 -0.7638 -0.0942
  574MOL0     H79146   2.011   6.743   1.129 -1.1382  1.3927  1.5779
  574MOL0     H79147   2.080   6.460   1.202  0.7526 -0.2467 -2.7063
  574MOL0     H79148   2.160   6.554   1.080  0.9188 -3.6540  0.2401
  574MOL0     H79149   2.289   6.684   1.240  1.1760  0.1089  1.8702
  574MOL0     H79150   2.160   6.685   1.356  0.0611 -1.0709 -0.0722
  574MOL0     H79151   2.215   6.437   1.391  0.2188 -1.2142 -1.2231
  574MOL0     H79152   2.347   6.453   1.277  1.8696 -2.2520  3.7091
  574MOL0     H79153   2.313   6.608   1.545  1.1396 -0.0926  0.5851
  574MOL0     H79154   2.439   6.638   1.422  0.7483  0.0723  0.1961
  574MOL0     H79155   2.385   6.381   1.579 -0.8718  2.8201  2.5063
  574MOL0     H79156   2.513   6.407   1.448 -1.0447 -1.2834  0.2142
  574MOL0     H79157   2.499   6.579   1.702 -2.5590 -0.7991 -0.5292
  574MOL0     H79158   2.628   6.566   1.586 -1.1860  3.5412  1.4756
  574MOL0     H79159   2.529   6.360   1.793  0.6363 -1.7564  0.2341
  574MOL0     H79160   2.628   6.311   1.650 -1.0105  0.3865  0.0221
  574MOL0     H79161   2.879   6.461   1.614  0.0636 -0.2944  0.4276
  574MOL0     H79162   3.122   6.539   1.753 -1.9364 -0.5368  0.1457
  574MOL0     H79163   3.121   6.361   1.768  0.1606 -0.4275  0.4837
  574MOL0     H79164   3.112   6.562   2.002 -0.3390 -2.5034  3.6597
  574MOL0     H79165   3.117   6.390   2.022  1.5103 -1.3817  0.3449
  574MOL0     H79166   3.340   6.396   1.887 -2.2203 -1.0383 -0.5738
  574MOL0     H79167   3.316   6.569   1.885  0.2212  1.2361  1.5416
  574MOL0     H79168   3.358   6.589   2.131  2.9523  2.2938 -0.1820
  574MOL0     H79169   3.388   6.411   2.132  0.5939 -0.0509 -1.6787
  574MOL0     H79170   3.743   6.496   1.948 -4.9063 -0.6288  0.3418
  574MOL0     H79171   3.960   6.453   1.969  1.6776 -0.8059  0.5732
  574MOL0     H79172   4.014   6.344   2.101  2.8594  1.2883  0.3552
  574MOL0     H79173   4.058   6.509   2.098  0.7533 -0.7496 -1.3761
  574MOL0     H79174   3.944   6.546   2.760 -0.9298  0.2365 -1.0685
  574MOL0     H79175   4.141   6.556   2.899 -3.3021 -1.0512 -0.1873
  574MOL0     H79176   4.418   6.377   2.836 -0.0163 -0.4342 -2.5279
  574MOL0     H79177   4.515   6.450   2.713  0.8686 -2.6044  0.2321
  574MOL0     H79178   4.636   6.579   2.905 -0.5907  0.2308 -0.5367
  574MOL0     H79179   4.545   6.478   3.018  0.0677 -3.3071  0.0693
  574MOL0     H79180   4.703   6.341   2.795 -1.8581 -1.3576 -0.0567
  574MOL0     H79181   4.659   6.272   2.946 -0.2731 -0.7399 -1.8003
  574MOL0     H79182   4.788   6.450   3.068 -0.8875 -3.1604  0.6453
  574MOL0     H79183   4.875   6.479   2.902  0.1219 -1.6289 -1.1997
  574MOL0     H79184   4.880   6.225   3.052  1.3062 -1.5371 -1.5350
  574MOL0     H79185   4.944   6.262   2.889 -0.9217 -0.1544 -1.0535
  574MOL0     H79186   5.082   6.443   2.994 -1.4707 -0.0974 -0.9572
  574MOL0     H79187   5.135   6.273   3.039  0.7763 -0.1593  0.0295
  574MOL0     H79188   5.076   6.268   3.239 -0.1749 -0.0002 -0.6943
  574MOL0     H79189   4.948   6.382   3.235  1.0834  1.2426  1.8021
  574MOL0     H79190   5.158   6.458   3.361  0.7924 -0.5898  0.5017
  574MOL0     H79191   5.100   6.571   3.235  1.8681  0.7029 -2.8142
  574MOL0     H79192   4.382   6.576   2.547  0.5984 -2.5632 -0.5641
  574MOL0     H79193   4.193   6.532   2.407 -2.8160 -2.2755  0.1640
  574MOL0     H79194   3.713   6.589   2.433  2.5911  0.7797 -0.1435
  574MOL0     H79195   3.513   6.610   2.276  0.2074 -1.1777  0.9991
  574MOL0     H79196   1.657   6.463   1.091  1.2371  0.6746  1.6226
  574MOL0     H79197   1.439   6.553   1.128  0.4545 -0.7941  1.0344
  574MOL0     H79198   1.281   6.960   1.337 -2.1724  2.7191 -0.2196
  574MOL0     H79199   1.133   7.022   1.507 -0.1134  0.0431 -0.3382
  574MOL0     H79200   0.961   6.999   1.713  0.2567 -2.9911 -1.0550
  574MOL0     H79201   0.948   7.128   1.590  2.2443 -1.4939 -0.4782
  574MOL0     H79202   0.766   7.171   1.764  0.5453  1.0848 -0.9556
  574MOL0     H79203   0.703   7.011   1.744  0.0352  1.1190  1.7284
  574MOL0     H79204   0.636   7.071   1.514 -2.1790  2.5025 -1.9994
  574MOL0     H79205   0.575   7.180   1.638 -2.4519 -1.0328 -3.5268
  574MOL0     H79206   0.817   7.253   1.466  1.3805  0.4568  0.6976
  574MOL0     H79207   0.744   7.358   1.587  1.0566 -0.7182 -0.2396
  574MOL0     H79208   0.485   7.403   1.266 -1.3268 -1.5932  2.0883
  574MOL0     H79209   0.816   6.796   1.348  0.1116 -1.7212  0.5970
  574MOL0     H79210   1.004   6.571   1.175  0.7050  0.5605  2.7797
  574MOL0     H79211   0.845   6.660   1.164 -0.0216 -1.2128  0.8992
  574MOL0     H79212   0.968   6.698   1.048 -0.7781 -0.4477 -0.3503
  575MOL0     O79213  10.740   1.774   1.302 -0.2753  0.4951  0.5908
  575MOL0     C79214  10.691   1.822   1.200 -0.6246 -0.0616 -0.3169
  575MOL0     O79215  10.702   1.765   1.075  0.8259 -0.4243 -0.4051
  575MOL0     C79216  10.777   1.650   1.060  0.5583 -0.2864  0.5873
  575MOL0     C79217  10.913   1.663   1.075  0.1674 -0.3176 -0.3119
  575MOL0     C79218  10.999   1.555   1.057 -0.1020 -1.0762 -0.0709
  575MOL0     C79219  10.948   1.440   1.005  0.7834  0.4581 -0.0633
  575MOL0     O79220  11.043   1.342   0.985 -0.2509 -0.6750 -0.0790
  575MOL0     C79221  11.013   1.222   0.914 -0.4281  0.4286  1.1025
  575MOL0     C79222  11.134   1.141   0.872 -0.5888 -0.1023  0.1033
  575MOL0     C79223  11.226   1.089   0.994  0.0719  0.0927  0.3567
  575MOL0     C79224  11.333   0.996   0.946 -0.2484  0.3156  0.7980
  575MOL0     C79225  11.433   0.953   1.054 -0.2598 -0.3232  0.6365
  575MOL0     C79226  11.545   0.870   0.992  0.0698  0.5520  0.6230
  575MOL0     C79227  11.638   0.816   1.101 -0.3472 -0.8100  0.3382
  575MOL0     C79228  11.738   0.919   1.142  0.5207 -0.4761 -0.4587
  575MOL0     N79229  11.845   0.864   1.226  0.3699 -0.0506  0.2287
  575MOL0     C79230  11.838   0.834   1.361  0.4597 -0.2142  0.6237
  575MOL0     C79231  11.953   0.777   1.396  0.6949 -0.1670 -0.4378
  575MOL0     C79232  11.982   0.722   1.539  0.9700 -0.3897 -0.0181
  575MOL0     C79233  12.124   0.667   1.548 -0.3554 -0.4113  0.2147
  575MOL0     C79234  12.134   0.595   1.676 -0.8826  0.2597 -0.2235
  575MOL0     C79235  12.279   0.561   1.709  0.6797 -0.2526  0.7608
  575MOL0     O79236  12.289   0.521   1.846 -0.1306  1.2419  0.5354
  575MOL0     C79237  12.416   0.486   1.894 -0.8922 -0.0651 -0.6928
  575MOL0     C79238  12.423   0.445   2.026  1.2920  0.4774 -0.5941
  575MOL0     C79239  12.540   0.406   2.086  0.2015 -0.8179 -0.5476
  575MOL0     C79240  12.535   0.378   2.234  0.8621 -0.2129 -0.1719
  575MOL0     C79241  12.663   0.405   2.019 -0.3678 -0.8251  0.7719
  575MOL0     C79242  12.795   0.356   2.074  0.0085 -0.6009 -0.4071
  575MOL0     O79243  12.900   0.356   1.990  0.2830  0.0629  0.1092
  575MOL0     C79244  13.026   0.368   2.045  0.2856 -0.6259 -0.2199
  575MOL0     C79245  13.101   0.257   2.071 -0.2715 -0.4431  0.0653
  575MOL0     C79246  13.230   0.263   2.129 -0.3606  1.0438  0.1975
  575MOL0     C79247  13.286   0.385   2.159  0.3416  0.1779  0.7538
  575MOL0     O79248  13.411   0.387   2.217 -0.3193  0.4643 -0.4573
  575MOL0     C79249  13.485   0.514   2.228 -0.1240  0.3027  0.0404
  575MOL0     C79250  13.637   0.490   2.222  0.2056  0.5036  0.4723
  575MOL0     C79251  13.725   0.603   2.272  0.2659 -0.7732 -0.0407
  575MOL0     C79252  13.874   0.573   2.271 -0.2113  0.5240 -0.2132
  575MOL0     C79253  13.942   0.532   2.135  0.3011 -0.1108  1.4218
  575MOL0     C79254  14.097   0.505   2.144  0.4185 -0.1556 -0.1742
  575MOL0     C79255  14.132   0.367   2.089 -0.4012 -1.5437 -0.1078
  575MOL0     C79256  14.277   0.338   2.095 -0.1538  0.9209 -0.1018
  575MOL0    Cl79257  14.361   0.462   1.993  0.1574 -0.2072  0.0677
  575MOL0     C79258  13.206   0.501   2.137 -0.5063  0.6907 -0.4179
  575MOL0     C79259  13.081   0.487   2.076  0.6221  0.4670  0.0611
  575MOL0     O79260  12.802   0.331   2.188 -0.6970  0.3920 -0.0505
  575MOL0     C79261  12.660   0.458   1.885  1.0483 -0.5438  0.5730
  575MOL0     C79262  12.535   0.492   1.826 -0.8713  0.5256 -0.9836
  575MOL0     N79263  12.028   0.769   1.277  0.5171 -0.2867  0.3830
  575MOL0     N79264  11.970   0.825   1.178 -0.4372 -0.5776 -1.0176
  575MOL0     C79265  10.807   1.426   0.987  0.1717  0.0652 -0.3184
  575MOL0     C79266  10.719   1.534   1.013 -0.6069 -0.6099  1.2197
  575MOL0     C79267  10.604   1.940   1.216 -0.5135 -0.0912 -1.2210
  575MOL0     C79268  10.562   2.000   1.103 -0.3757 -0.2711 -0.5382
  575MOL0     C79269  10.482   2.114   1.110  0.2580 -0.5981  0.3545
  575MOL0     C79270  10.440   2.172   1.225 -0.0012  0.1147 -0.5405
  575MOL0     O79271  10.384   2.302   1.214 -0.1688  0.8240 -0.2274
  575MOL0     C79272  10.364   2.375   1.333  0.2350  0.3151 -0.3237
  575MOL0     C79273  10.310   2.513   1.303  0.7525 -0.4567 -0.3238
  575MOL0     C79274  10.155   2.524   1.338  0.3644  0.3566 -0.0523
  575MOL0     C79275  10.104   2.659   1.288  0.9235  0.4170 -1.0033
  575MOL0     C79276   9.962   2.668   1.327  0.1618  0.7798 -0.4414
  575MOL0     C79277   9.842   2.662   1.345  0.5995 -0.0063 -0.7177
  575MOL0     C79278  10.480   2.114   1.345 -0.3757  0.6886 -0.5412
  575MOL0     C79279  10.552   1.994   1.340  0.0287  0.5576 -0.2686
  575MOL0     C79280  10.573   1.918   1.473 -0.6781 -0.4593 -0.3300
  575MOL0     H79281  10.948   1.756   1.119  1.0863 -1.0103  0.4843
  575MOL0     H79282  11.103   1.567   1.085 -1.0123  0.7424  2.9180
  575MOL0     H79283  10.944   1.249   0.833 -1.6854 -0.4420  1.8508
  575MOL0     H79284  10.962   1.154   0.982 -0.0140 -1.3736 -0.3180
  575MOL0     H79285  11.098   1.053   0.818  1.1522 -0.9810  0.2978
  575MOL0     H79286  11.191   1.200   0.800 -2.1697 -0.5087 -1.5616
  575MOL0     H79287  11.262   1.183   1.035 -1.6620  0.9250  0.0633
  575MOL0     H79288  11.166   1.041   1.072  0.6671 -3.1379 -0.9930
  575MOL0     H79289  11.290   0.901   0.913  2.3201 -1.3197  1.8177
  575MOL0     H79290  11.387   1.035   0.859  1.4856 -2.3372  0.5654
  575MOL0     H79291  11.383   0.887   1.125  0.8210 -1.3384  0.4924
  575MOL0     H79292  11.479   1.043   1.096  2.1337 -0.4530 -1.4142
  575MOL0     H79293  11.516   0.779   0.940  1.0865 -0.4389  1.7393
  575MOL0     H79294  11.600   0.923   0.913 -1.3411 -0.3952 -1.0685
  575MOL0     H79295  11.699   0.732   1.065 -0.8509  0.3051 -3.6408
  575MOL0     H79296  11.577   0.768   1.178 -2.0752  2.0063  0.8335
  575MOL0     H79297  11.784   0.957   1.051  0.4436 -2.5537 -1.4195
  575MOL0     H79298  11.679   0.996   1.193  0.6405 -1.6280  1.5548
  575MOL0     H79299  11.755   0.844   1.431  0.1178  2.0970 -0.0388
  575MOL0     H79300  11.910   0.649   1.577  1.6905 -1.2584 -0.2752
  575MOL0     H79301  11.987   0.806   1.608  0.9116 -1.2014  1.0082
  575MOL0     H79302  12.136   0.598   1.464 -0.9064  0.1340 -0.3201
  575MOL0     H79303  12.194   0.751   1.537 -1.3361  0.2950 -0.8693
  575MOL0     H79304  12.087   0.645   1.761 -0.6041 -0.2239  0.2242
  575MOL0     H79305  12.076   0.502   1.679 -1.5284  0.6714  0.3655
  575MOL0     H79306  12.317   0.486   1.639 -1.4754 -0.2344 -0.4895
  575MOL0     H79307  12.345   0.648   1.708  2.9122 -1.8003  2.3953
  575MOL0     H79308  12.334   0.426   2.084 -0.6428 -1.9109 -3.9745
  575MOL0     H79309  12.563   0.276   2.261  1.3784 -0.1863 -0.5976
  575MOL0     H79310  12.430   0.382   2.264  0.3299 -3.2484 -1.2271
  575MOL0     H79311  12.595   0.445   2.295  1.6042 -0.2598 -0.8357
  575MOL0     H79312  13.047   0.164   2.057 -1.5168  0.2651  0.0151
  575MOL0     H79313  13.292   0.174   2.131  0.3964  1.5559  2.0003
  575MOL0     H79314  13.467   0.576   2.139  1.4270  0.1446 -0.4106
  575MOL0     H79315  13.453   0.577   2.311 -0.7403  1.4149 -1.0038
  575MOL0     H79316  13.666   0.400   2.277  0.9748 -0.4371 -1.3942
  575MOL0     H79317  13.667   0.462   2.121 -1.7047 -2.3054  0.5719
  575MOL0     H79318  13.676   0.624   2.367  0.5247  3.4102 -0.6466
  575MOL0     H79319  13.697   0.689   2.211 -0.0050  0.9644  2.3755
  575MOL0     H79320  13.898   0.491   2.339  0.6019  2.7317  2.3406
  575MOL0     H79321  13.929   0.662   2.303 -0.8015  1.4670 -1.7273
  575MOL0     H79322  13.891   0.446   2.090  2.5833  0.1352 -2.0212
  575MOL0     H79323  13.933   0.615   2.066 -0.2733 -0.7275  0.7491
  575MOL0     H79324  14.132   0.509   2.248 -0.3181 -3.5376  0.3279
  575MOL0     H79325  14.144   0.580   2.080  3.2429 -1.0041  0.7611
  575MOL0     H79326  14.098   0.349   1.987  3.3195 -3.7756 -1.1894
  575MOL0     H79327  14.083   0.290   2.150 -0.4890 -1.7892 -0.4844
  575MOL0     H79328  14.294   0.241   2.047  2.4316  1.2600 -0.0214
  575MOL0     H79329  14.317   0.336   2.197  2.4406  0.3436 -1.0364
  575MOL0     H79330  13.244   0.598   2.167 -0.5442  1.6107 -3.0430
  575MOL0     H79331  13.008   0.568   2.076 -0.0068 -0.0641 -1.2069
  575MOL0     H79332  12.748   0.460   1.822  0.8412 -0.7492  0.2742
  575MOL0     H79333  12.553   0.520   1.722  4.2057 -1.7227 -0.9869
  575MOL0     H79334  10.753   1.336   0.962 -0.9067  0.6806 -0.2769
  575MOL0     H79335  10.612   1.526   0.993 -0.4989  1.3614 -0.5379
  575MOL0     H79336  10.594   1.961   1.007  1.5976 -2.7933  1.0233
  575MOL0     H79337  10.444   2.161   1.019  2.6017  1.8940  0.5276
  575MOL0     H79338  10.287   2.322   1.389 -0.5904  0.3182 -1.4372
  575MOL0     H79339  10.461   2.385   1.383 -0.3742  2.0792  0.5736
  575MOL0     H79340  10.323   2.540   1.198  3.2454  3.7927  0.8417
  575MOL0     H79341  10.357   2.590   1.364  0.6912 -0.3938 -0.3554
  575MOL0     H79342  10.102   2.432   1.312  0.7492  0.2169 -0.3565
  575MOL0     H79343  10.150   2.515   1.447 -3.8025 -1.7194 -0.2452
  575MOL0     H79344  10.129   2.670   1.182  1.8941  1.7148 -0.6663
  575MOL0     H79345  10.155   2.737   1.346  1.2545  0.0557 -0.8094
  575MOL0     H79346   9.737   2.647   1.364  0.1628  2.0050 -1.2779
  575MOL0     H79347  10.455   2.147   1.445  0.4014 -0.8220  0.1915
  575MOL0     H79348  10.551   1.811   1.466 -0.5759 -0.4267 -1.2278
  575MOL0     H79349  10.678   1.929   1.502 -0.5316 -0.8437 -0.7010
  575MOL0     H79350  10.529   1.972   1.557  0.4743  1.1498 -0.7099
  576MOL0     O79351   7.147   8.135   4.918 -0.4048  0.3058 -0.2453
  576MOL0     C79352   7.167   8.068   5.021  0.7951  0.3231  0.1479
  576MOL0     O79353   7.271   7.991   5.045  0.5535  0.0947  0.6968
  576MOL0     C79354   7.400   8.017   5.000 -0.3269  0.2128  0.9576
  576MOL0     C79355   7.507   7.952   5.056  0.4816  0.3677  0.1092
  576MOL0     C79356   7.635   7.967   4.996  0.1636 -0.1307  0.0649
  576MOL0     C79357   7.659   8.065   4.904  0.2622 -0.1753  0.9205
  576MOL0     O79358   7.789   8.075   4.861 -0.3559 -0.1124  1.2277
  576MOL0     C79359   7.805   8.119   4.721  0.3947  0.0418 -0.0001
  576MOL0     C79360   7.939   8.056   4.673  0.0389  0.0871 -0.2920
  576MOL0     C79361   7.941   7.910   4.705  0.3959  0.8732 -0.3103
  576MOL0     C79362   8.071   7.838   4.649 -0.2144  0.3498 -0.2395
  576MOL0     C79363   8.195   7.887   4.712  0.0490  0.9524 -0.4766
  576MOL0     C79364   8.321   7.805   4.690 -0.5402  0.1310 -0.1543
  576MOL0     C79365   8.441   7.864   4.761 -0.2697 -0.7216  0.1959
  576MOL0     C79366   8.561   7.926   4.682 -0.8262 -0.9063  0.0567
  576MOL0     N79367   8.525   8.046   4.607  0.2927 -0.2596 -0.5590
  576MOL0     C79368   8.526   8.170   4.665 -0.2497 -0.4254 -0.0468
  576MOL0     C79369   8.468   8.254   4.570  0.5862  0.7198 -0.9204
  576MOL0     C79370   8.439   8.394   4.591  0.3996 -0.6828 -0.4545
  576MOL0     C79371   8.452   8.479   4.462 -0.4802 -0.1066 -0.6470
  576MOL0     C79372   8.593   8.465   4.403  0.1773 -0.9097 -0.2361
  576MOL0     C79373   8.692   8.533   4.507  1.2172  0.4920  0.5850
  576MOL0     O79374   8.802   8.556   4.430 -1.0838 -0.0171  0.4533
  576MOL0     C79375   8.897   8.458   4.422  0.3885 -0.1428  0.6153
  576MOL0     C79376   8.896   8.329   4.479 -0.4151  0.0493 -0.7030
  576MOL0     C79377   9.000   8.235   4.453  1.2241 -0.4937 -0.7292
  576MOL0     C79378   8.971   8.093   4.498 -0.4526  0.1395 -0.2592
  576MOL0     C79379   9.108   8.269   4.378  0.1841  0.3851 -0.2971
  576MOL0     C79380   9.221   8.176   4.347  0.1126 -0.1955  0.0782
  576MOL0     O79381   9.180   8.045   4.327  0.2180  0.4747  0.5496
  576MOL0     C79382   9.262   7.935   4.289 -0.4456 -0.6637 -0.5011
  576MOL0     C79383   9.391   7.925   4.334 -0.0450  0.7474  0.5991
  576MOL0     C79384   9.482   7.823   4.293  0.4120 -0.3268  0.1887
  576MOL0     C79385   9.431   7.714   4.217 -0.7981 -0.5886 -0.2688
  576MOL0     O79386   9.505   7.607   4.169 -0.2908  0.1906  0.3572
  576MOL0     C79387   9.650   7.626   4.185 -0.8526  0.8527  1.1404
  576MOL0     C79388   9.729   7.520   4.105  0.2064 -0.7062 -0.1206
  576MOL0     C79389   9.874   7.529   4.123 -2.0131  0.2339  0.9020
  576MOL0     C79390   9.922   7.538   4.267 -0.8851  0.3678 -0.2812
  576MOL0     C79391  10.073   7.540   4.293  1.3751  0.3219  0.2442
  576MOL0     C79392  10.132   7.418   4.228  0.6537 -0.6253 -0.4816
  576MOL0     C79393  10.282   7.427   4.257 -0.1335 -0.4430 -0.4157
  576MOL0     C79394  10.367   7.330   4.194 -0.2353 -0.1353  0.7102
  576MOL0    Cl79395  10.543   7.363   4.235  0.4134  0.2980  0.4947
  576MOL0     C79396   9.295   7.718   4.183  0.5393 -0.6659  0.2641
  576MOL0     C79397   9.209   7.822   4.216 -0.0589 -0.8794 -0.1796
  576MOL0     O79398   9.335   8.221   4.338  0.0242  0.2761  0.4156
  576MOL0     C79399   9.117   8.399   4.327  0.1324  0.0998  0.6098
  576MOL0     C79400   9.001   8.487   4.344 -0.9549  0.2152  0.0240
  576MOL0     N79401   8.419   8.173   4.470  0.5290  0.0727 -0.2159
  576MOL0     N79402   8.458   8.053   4.494 -0.5894 -0.3237  0.1772
  576MOL0     C79403   7.560   8.148   4.857  0.4057  0.7753 -0.8318
  576MOL0     C79404   7.433   8.125   4.908 -0.0801 -0.0609 -0.2902
  576MOL0     C79405   7.053   8.056   5.107 -0.3434 -0.6931  0.0333
  576MOL0     C79406   6.968   8.167   5.113 -0.0949  0.6061  0.1301
  576MOL0     C79407   6.845   8.159   5.185  0.2262 -0.0851  0.2250
  576MOL0     C79408   6.815   8.045   5.259  0.3658 -0.0548  0.2328
  576MOL0     O79409   6.690   8.038   5.318  0.1265  0.6419  0.4804
  576MOL0     C79410   6.638   7.912   5.362  1.0011  0.2295 -0.0885
  576MOL0     C79411   6.597   7.823   5.238 -0.1804  0.7815 -0.4070
  576MOL0     C79412   6.525   7.905   5.130 -0.3541 -0.4376 -0.6946
  576MOL0     C79413   6.477   7.810   5.019 -0.6551  0.0990  0.1377
  576MOL0     C79414   6.489   7.892   4.895 -0.0897  0.6200  0.1013
  576MOL0     C79415   6.492   7.956   4.790  0.2690  0.1009  0.6984
  576MOL0     C79416   6.914   7.954   5.278 -1.2630  0.3425 -0.0184
  576MOL0     C79417   7.034   7.954   5.202 -0.3560  0.0885  0.4118
  576MOL0     C79418   7.121   7.827   5.216  0.2157  0.0854  0.4757
  576MOL0     H79419   7.502   7.887   5.143 -1.2664 -1.1351 -1.0655
  576MOL0     H79420   7.717   7.901   5.026 -1.7426 -3.7228 -1.9013
  576MOL0     H79421   7.811   8.228   4.709 -2.2604 -0.0231 -3.4448
  576MOL0     H79422   7.722   8.079   4.662 -0.6645  2.4155 -0.2430
  576MOL0     H79423   7.959   8.075   4.567 -0.9736 -0.5257 -0.6085
  576MOL0     H79424   8.016   8.115   4.723  1.5276 -2.7114  0.9361
  576MOL0     H79425   7.934   7.897   4.813 -0.4728  0.5816 -0.3939
  576MOL0     H79426   7.856   7.853   4.665 -0.5716  1.1940  1.2204
  576MOL0     H79427   8.056   7.736   4.687 -2.3478  1.2167  1.4254
  576MOL0     H79428   8.071   7.837   4.540 -3.0691 -2.2627 -0.3575
  576MOL0     H79429   8.189   7.893   4.821 -0.1901 -0.5911 -0.3743
  576MOL0     H79430   8.218   7.990   4.685 -2.8409  2.3650  1.8482
  576MOL0     H79431   8.325   7.698   4.715  2.3577  0.9381  3.6996
  576MOL0     H79432   8.348   7.818   4.584  0.9816  0.5326  0.2515
  576MOL0     H79433   8.489   7.789   4.824  1.1832  0.9740  1.2015
  576MOL0     H79434   8.408   7.941   4.831  0.5550  3.0068 -3.1357
  576MOL0     H79435   8.636   7.954   4.757 -2.9347  2.3574  1.1638
  576MOL0     H79436   8.596   7.844   4.619  0.2813  0.9664 -1.8981
  576MOL0     H79437   8.554   8.195   4.767 -4.0122 -1.2943  1.3489
  576MOL0     H79438   8.503   8.434   4.669  1.6717  4.6333 -3.7427
  576MOL0     H79439   8.336   8.412   4.623  1.1937  2.5137  0.6062
  576MOL0     H79440   8.381   8.444   4.386 -2.1595  0.1292  0.7470
  576MOL0     H79441   8.439   8.587   4.479  2.2275 -0.1020  2.1336
  576MOL0     H79442   8.616   8.362   4.375  1.0965 -1.0006  0.7637
  576MOL0     H79443   8.599   8.522   4.310 -0.5188 -0.3299  0.0634
  576MOL0     H79444   8.649   8.631   4.533 -2.0540 -1.1678  2.0401
  576MOL0     H79445   8.707   8.472   4.596  2.0160 -0.3674 -0.1262
  576MOL0     H79446   8.809   8.287   4.529  0.1967 -2.6359 -1.6945
  576MOL0     H79447   8.890   8.095   4.573 -0.0626  2.2825  0.1881
  576MOL0     H79448   9.058   8.039   4.535  0.0648  0.9713 -0.2396
  576MOL0     H79449   8.926   8.038   4.415  0.0805 -1.8112  0.6901
  576MOL0     H79450   9.432   8.005   4.395 -0.5806 -0.0281  2.0061
  576MOL0     H79451   9.585   7.837   4.323  1.3804 -2.2178 -1.9054
  576MOL0     H79452   9.677   7.726   4.148 -1.5848  1.5258  2.3612
  576MOL0     H79453   9.671   7.619   4.292 -3.2713  0.0814  1.6107
  576MOL0     H79454   9.687   7.424   4.134  0.9761 -1.1777 -0.5444
  576MOL0     H79455   9.720   7.527   3.996  2.9284 -1.3573 -0.4606
  576MOL0     H79456   9.930   7.600   4.061  1.0288 -4.1286 -1.8961
  576MOL0     H79457   9.907   7.434   4.081  0.8527  1.8431 -0.7881
  576MOL0     H79458   9.882   7.456   4.328  0.0686  0.9374  1.1879
  576MOL0     H79459   9.889   7.632   4.311 -1.4496 -1.8134  4.6575
  576MOL0     H79460  10.107   7.635   4.250  0.3292  0.6584  0.1503
  576MOL0     H79461  10.098   7.534   4.399 -0.5911 -1.9532  0.6519
  576MOL0     H79462  10.123   7.426   4.119  2.9295  0.3306 -0.6466
  576MOL0     H79463  10.085   7.326   4.265  0.0468  0.3245  1.2058
  576MOL0     H79464  10.303   7.408   4.363  2.4362 -0.9945 -0.9570
  576MOL0     H79465  10.321   7.528   4.240 -4.0071  1.6502  1.6338
  576MOL0     H79466  10.354   7.313   4.087  2.8025 -1.9808  0.5231
  576MOL0     H79467  10.337   7.238   4.245 -0.8744  1.7513  4.1025
  576MOL0     H79468   9.249   7.641   4.122 -0.3004 -1.1704  1.4846
  576MOL0     H79469   9.103   7.823   4.192 -0.1767  3.3006 -0.2815
  576MOL0     H79470   9.203   8.430   4.269  0.4168  0.3301  1.1412
  576MOL0     H79471   9.005   8.583   4.295 -0.3861  1.5897  2.5835
  576MOL0     H79472   7.559   8.236   4.794 -0.7431  1.6693  0.3802
  576MOL0     H79473   7.358   8.197   4.877 -2.2509 -2.6851 -1.5663
  576MOL0     H79474   6.997   8.257   5.059  2.4363  0.5760  1.3092
  576MOL0     H79475   6.785   8.249   5.177  0.0047 -0.3339 -1.2207
  576MOL0     H79476   6.697   7.853   5.433  1.4388  0.9450  0.1515
  576MOL0     H79477   6.547   7.944   5.414  0.0473  0.0228 -1.5818
  576MOL0     H79478   6.531   7.741   5.267 -0.8673  1.3342 -0.4058
  576MOL0     H79479   6.685   7.779   5.189 -0.4109  1.2150 -1.2316
  576MOL0     H79480   6.448   7.974   5.165  2.3538  4.1130 -2.7046
  576MOL0     H79481   6.595   7.981   5.093 -0.8239  0.1591 -0.3728
  576MOL0     H79482   6.372   7.787   5.041 -1.0867  2.6350  1.0180
  576MOL0     H79483   6.532   7.716   5.008  0.9617  0.7909  1.9444
  576MOL0     H79484   6.490   8.022   4.706 -1.2155 -1.7571 -0.8163
  576MOL0     H79485   6.903   7.866   5.341  1.5590  0.3718  0.6564
  576MOL0     H79486   7.071   7.742   5.262  0.5827 -0.3034  0.1700
  576MOL0     H79487   7.154   7.792   5.117 -0.6693 -1.5937  0.7462
  576MOL0     H79488   7.208   7.856   5.275  0.1888  0.2735  0.4254
  577MOL0     O79489   7.583   4.059   0.343  0.0583  0.2235  0.3358
  577MOL0     C79490   7.621   4.034   0.460 -0.7904  0.0565  0.5607
  577MOL0     O79491   7.730   3.954   0.490  0.0012 -0.7839 -0.0697
  577MOL0     C79492   7.826   3.921   0.396  0.1601 -0.2038 -0.2296
  577MOL0     C79493   7.795   3.825   0.302  0.5372  0.4615 -0.1440
  577MOL0     C79494   7.889   3.782   0.206 -0.3075 -0.5981 -0.2230
  577MOL0     C79495   8.019   3.845   0.198  0.5679 -0.0611  0.6512
  577MOL0     O79496   8.121   3.810   0.111 -0.2169 -0.2070 -0.6568
  577MOL0     C79497   8.094   3.697   0.030 -0.4053  0.9310  0.2095
  577MOL0     C79498   8.004   3.722  -0.092 -1.1355 -0.0182  0.5405
  577MOL0     C79499   8.101   3.790  -0.196  0.7168  0.2458 -0.1533
  577MOL0     C79500   8.036   3.823  -0.324 -0.3547  0.0042 -0.2927
  577MOL0     C79501   8.140   3.855  -0.436  0.9259  0.4876  0.8836
  577MOL0     C79502   8.249   3.951  -0.386 -0.0514 -0.0800 -0.0517
  577MOL0     C79503   8.326   4.008  -0.506  0.2105  0.4610 -0.1416
  577MOL0     C79504   8.378   3.902  -0.609 -0.6743  0.3240 -0.3542
  577MOL0     N79505   8.469   3.807  -0.543 -0.9860 -0.0509  0.3321
  577MOL0     C79506   8.501   3.679  -0.588  0.3107 -1.0299 -0.9074
  577MOL0     C79507   8.583   3.639  -0.497 -0.3501  0.7643 -0.0043
  577MOL0     C79508   8.631   3.497  -0.518  0.4221 -0.3014 -0.3349
  577MOL0     C79509   8.761   3.464  -0.451  0.9034 -0.2262  0.4889
  577MOL0     C79510   8.805   3.331  -0.505 -0.5273 -0.1979 -0.3899
  577MOL0     C79511   8.708   3.215  -0.463  0.3069  0.2403  0.3882
  577MOL0     O79512   8.681   3.230  -0.324 -0.0753 -0.3528 -0.0349
  577MOL0     C79513   8.754   3.137  -0.255  0.1414  0.2689  0.7238
  577MOL0     C79514   8.860   3.166  -0.178 -0.3983 -0.1073 -0.2396
  577MOL0     C79515   8.921   3.072  -0.093 -0.1222 -0.5005  0.1483
  577MOL0     C79516   9.020   3.130   0.001  0.5136  0.4437 -0.1484
  577MOL0     C79517   8.870   2.938  -0.083 -0.6685  0.1122  0.0345
  577MOL0     C79518   8.922   2.833   0.019 -0.0383  0.1392 -0.1551
  577MOL0     O79519   8.832   2.793   0.115 -0.5620  0.2761  0.3694
  577MOL0     C79520   8.875   2.698   0.213 -0.0556 -0.3376 -0.8464
  577MOL0     C79521   8.946   2.738   0.329  0.1014  0.4600  0.2514
  577MOL0     C79522   8.979   2.637   0.420 -0.6405  0.4419 -0.4576
  577MOL0     C79523   8.943   2.501   0.400 -0.1913  0.6828 -0.6575
  577MOL0     O79524   8.988   2.408   0.488  0.1243  0.1564 -0.7695
  577MOL0     C79525   8.879   2.339   0.546 -0.4288 -0.0069  0.4701
  577MOL0     C79526   8.916   2.254   0.669  0.7439 -1.2341 -0.7375
  577MOL0     C79527   8.938   2.113   0.637  0.9680  0.2478  0.2615
  577MOL0     C79528   9.069   2.104   0.548  0.5810  0.2363 -0.2674
  577MOL0     C79529   9.122   1.955   0.546  0.0691 -0.6520  0.4586
  577MOL0     C79530   9.025   1.865   0.460  0.5554  0.4412 -0.2278
  577MOL0     C79531   9.002   1.734   0.536  0.0737  1.0884  0.7843
  577MOL0     C79532   8.903   1.736   0.649  0.6803  0.5317  0.7219
  577MOL0    Cl79533   8.737   1.794   0.604  0.1022 -0.0506  0.0575
  577MOL0     C79534   8.868   2.461   0.280 -0.2023 -0.0309  0.2205
  577MOL0     C79535   8.827   2.564   0.188  0.0323  0.0138 -0.2356
  577MOL0     O79536   9.036   2.791   0.003  1.0736  0.1913  0.2798
  577MOL0     C79537   8.757   2.908  -0.156 -0.0367  0.2067  0.5802
  577MOL0     C79538   8.701   3.000  -0.243 -0.3471 -0.2889  0.7737
  577MOL0     N79539   8.607   3.731  -0.400 -0.8140  0.5262 -0.0513
  577MOL0     N79540   8.534   3.821  -0.431 -0.8080 -0.5265  0.1635
  577MOL0     C79541   8.049   3.935   0.299 -0.6365  0.1911 -0.1810
  577MOL0     C79542   7.953   3.977   0.391  0.3407 -0.0418 -0.3878
  577MOL0     C79543   7.545   4.094   0.574  0.4119  0.1827 -0.4000
  577MOL0     C79544   7.405   4.077   0.580 -0.0635 -0.7565  0.4328
  577MOL0     C79545   7.329   4.118   0.688 -1.0744 -0.1909 -0.5290
  577MOL0     C79546   7.382   4.210   0.783  0.2810 -0.4560 -0.8439
  577MOL0     O79547   7.284   4.250   0.871  0.3070 -0.5825 -0.1910
  577MOL0     C79548   7.304   4.368   0.945 -0.3331 -0.6074 -0.3697
  577MOL0     C79549   7.184   4.395   1.049 -1.0676  0.0728  0.0599
  577MOL0     C79550   7.172   4.275   1.139  0.3694  0.4530  0.2614
  577MOL0     C79551   7.033   4.274   1.211 -0.0457  0.3612  0.1873
  577MOL0     C79552   7.046   4.312   1.354 -0.1587  0.5507  0.2864
  577MOL0     C79553   7.044   4.355   1.468 -0.2447 -0.4104  0.2065
  577MOL0     C79554   7.523   4.225   0.777 -0.1145  0.6130  0.0599
  577MOL0     C79555   7.603   4.162   0.680  0.6193 -0.1865 -0.6738
  577MOL0     C79556   7.749   4.194   0.664 -0.1697 -0.5326 -0.6868
  577MOL0     H79557   7.698   3.778   0.320  0.6788 -0.4289 -1.5889
  577MOL0     H79558   7.853   3.702   0.142 -0.0255  0.3866 -1.6799
  577MOL0     H79559   8.050   3.611   0.080 -3.7076 -0.0611 -3.8471
  577MOL0     H79560   8.193   3.663  -0.002 -0.1028  0.6676  1.3778
  577MOL0     H79561   7.979   3.623  -0.131  0.9920  0.4490 -2.3616
  577MOL0     H79562   7.912   3.779  -0.074 -1.5371 -0.6920  0.6403
  577MOL0     H79563   8.135   3.877  -0.139 -1.8301 -1.5847  4.7068
  577MOL0     H79564   8.189   3.725  -0.207 -0.8977 -1.8201 -1.7130
  577MOL0     H79565   7.973   3.741  -0.361 -0.9399 -0.3610  1.4063
  577MOL0     H79566   7.955   3.894  -0.306 -2.5256 -2.1157 -1.0384
  577MOL0     H79567   8.096   3.894  -0.529 -1.7142 -2.5745  0.6932
  577MOL0     H79568   8.184   3.758  -0.461 -1.9266 -0.3388 -1.4628
  577MOL0     H79569   8.214   4.031  -0.320  0.0011 -1.7442  2.1215
  577MOL0     H79570   8.323   3.893  -0.329  0.6264  0.4943 -0.3312
  577MOL0     H79571   8.414   4.065  -0.475  0.4908  0.3626 -0.7476
  577MOL0     H79572   8.262   4.073  -0.566  0.9166  0.8436 -0.4884
  577MOL0     H79573   8.291   3.847  -0.647 -0.6152 -0.1850  0.2151
  577MOL0     H79574   8.425   3.960  -0.689 -3.7206  2.6082 -0.6816
  577MOL0     H79575   8.472   3.627  -0.679 -0.1213  0.1464 -1.4610
  577MOL0     H79576   8.636   3.481  -0.626  4.6707 -2.0872 -0.0440
  577MOL0     H79577   8.549   3.432  -0.486  0.4302 -2.0252 -3.4228
  577MOL0     H79578   8.841   3.534  -0.477  1.2100 -0.0699  1.7884
  577MOL0     H79579   8.759   3.475  -0.342  3.0660 -0.3683  0.5851
  577MOL0     H79580   8.824   3.326  -0.613  0.8698  0.1192 -0.1748
  577MOL0     H79581   8.902   3.312  -0.459  0.1052  1.3523 -1.0214
  577MOL0     H79582   8.612   3.222  -0.516  0.2779 -0.9209  0.2601
  577MOL0     H79583   8.759   3.123  -0.493  2.9833  1.3831  1.1110
  577MOL0     H79584   8.891   3.270  -0.179  1.4433 -0.5926  0.6878
  577MOL0     H79585   8.981   3.228   0.031  0.3184  0.3342 -0.0425
  577MOL0     H79586   9.115   3.149  -0.049  2.1413 -2.9232  1.3229
  577MOL0     H79587   9.032   3.062   0.087 -0.8196  0.1148 -0.2075
  577MOL0     H79588   8.995   2.834   0.343 -0.4256  0.5317  1.7737
  577MOL0     H79589   9.033   2.668   0.509 -2.4864 -1.0775  1.2781
  577MOL0     H79590   8.809   2.417   0.578 -1.5264 -1.0559  0.7041
  577MOL0     H79591   8.833   2.282   0.465 -2.8322  0.8177  1.1759
  577MOL0     H79592   9.001   2.292   0.727 -0.2897 -2.4359  1.7086
  577MOL0     H79593   8.829   2.268   0.733  1.8491  2.0448  0.2467
  577MOL0     H79594   8.846   2.079   0.588  1.3960 -0.8370  0.1757
  577MOL0     H79595   8.943   2.063   0.734  1.5258 -2.2504 -0.9627
  577MOL0     H79596   9.150   2.171   0.580 -1.5484  1.2289  3.8118
  577MOL0     H79597   9.040   2.131   0.446 -3.4995 -1.0566  0.3589
  577MOL0     H79598   9.221   1.955   0.501  0.4030  1.6151  1.0561
  577MOL0     H79599   9.136   1.922   0.649  0.3775  0.4189  0.7726
  577MOL0     H79600   9.078   1.855   0.365 -0.2712  0.1551 -0.6716
  577MOL0     H79601   8.928   1.915   0.450 -0.5427 -1.0547  2.1655
  577MOL0     H79602   9.101   1.702   0.569  0.3396 -2.5295 -2.6828
  577MOL0     H79603   8.969   1.657   0.465 -1.5640  0.4473  2.1774
  577MOL0     H79604   8.941   1.807   0.724  0.1586  0.5256  0.9994
  577MOL0     H79605   8.890   1.638   0.696 -0.5280 -0.0849 -0.8133
  577MOL0     H79606   8.827   2.362   0.261  0.6700 -0.2684 -0.4635
  577MOL0     H79607   8.773   2.547   0.095  0.0846  1.6870 -0.6054
  577MOL0     H79608   8.698   2.817  -0.151  2.8711 -1.9313 -0.6922
  577MOL0     H79609   8.607   2.975  -0.290 -1.6061  0.1915  2.8774
  577MOL0     H79610   8.151   3.970   0.288  0.3887 -1.8927  2.0055
  577MOL0     H79611   7.981   4.054   0.463 -2.3409  1.2743 -0.6335
  577MOL0     H79612   7.365   4.022   0.495  0.1315 -0.1157 -0.0815
  577MOL0     H79613   7.222   4.104   0.678 -1.7464  1.0263  3.2567
  577MOL0     H79614   7.398   4.354   0.999  0.7727  2.4337 -1.2999
  577MOL0     H79615   7.303   4.450   0.872  0.1371  0.9816  1.3253
  577MOL0     H79616   7.085   4.407   1.004 -1.7629 -1.0162  1.2273
  577MOL0     H79617   7.201   4.483   1.111 -1.3425 -0.4525  0.9041
  577MOL0     H79618   7.189   4.176   1.097 -0.5967  0.7655 -0.9400
  577MOL0     H79619   7.248   4.292   1.215  1.3156  4.0242 -1.2667
  577MOL0     H79620   6.997   4.171   1.218  0.7335  0.1440  1.3332
  577MOL0     H79621   6.966   4.347   1.165  0.4368  0.3657 -0.5363
  577MOL0     H79622   7.038   4.401   1.564  2.3294  0.2695  0.0978
  577MOL0     H79623   7.566   4.284   0.857 -2.7877  0.4780  1.7395
  577MOL0     H79624   7.786   4.252   0.749  2.9611 -0.8026 -1.7378
  577MOL0     H79625   7.805   4.101   0.675  1.3484  0.5167  1.0239
  577MOL0     H79626   7.758   4.256   0.573 -2.4325  2.8084  1.1455
  578MOL0     O79627   1.746   9.461   6.701 -0.5276  0.5438 -0.5332
  578MOL0     C79628   1.753   9.404   6.810  0.4973  0.5915  0.2338
  578MOL0     O79629   1.654   9.403   6.904  0.1852 -0.2861 -0.0038
  578MOL0     C79630   1.542   9.470   6.879  0.1732 -0.0382  0.6021
  578MOL0     C79631   1.546   9.612   6.891  0.3616  0.7275  0.5454
  578MOL0     C79632   1.433   9.692   6.865 -0.1878 -0.3579  0.3587
  578MOL0     C79633   1.306   9.636   6.840 -0.1124  0.6829  1.4699
  578MOL0     O79634   1.195   9.713   6.802 -0.3112 -0.0072 -0.8866
  578MOL0     C79635   1.213   9.849   6.783  0.2023  0.1511  0.1620
  578MOL0     C79636   1.118   9.904   6.675 -0.0938  0.4860  0.1141
  578MOL0     C79637   0.983   9.930   6.730 -0.6367 -0.0329  0.4476
  578MOL0     C79638   0.907  10.020   6.643  0.4665 -0.1147  0.3673
  578MOL0     C79639   0.862   9.950   6.508 -0.2069 -0.2417 -0.0933
  578MOL0     C79640   0.716   9.901   6.516 -0.1481 -0.2776  0.7180
  578MOL0     C79641   0.681   9.809   6.399 -0.4565 -0.1326 -0.4252
  578MOL0     C79642   0.528   9.780   6.401 -0.2877 -0.0843  0.3270
  578MOL0     N79643   0.452   9.902   6.376  0.0711 -0.3401 -0.2594
  578MOL0     C79644   0.338   9.946   6.440 -0.3346 -0.3585 -0.9041
  578MOL0     C79645   0.289  10.051   6.367 -0.0910 -0.5285  0.5947
  578MOL0     C79646   0.163  10.128   6.397 -0.5577 -0.1892  0.2715
  578MOL0     C79647   0.176  10.213   6.525  0.5648 -0.1018 -0.1929
  578MOL0     C79648   0.125  10.128   6.640 -0.0719 -0.2667 -0.1694
  578MOL0     C79649   0.178  10.178   6.775 -0.1982 -0.5999  0.7308
  578MOL0     O79650   0.321  10.152   6.772  0.1130 -0.8684  0.3110
  578MOL0     C79651   0.373  10.028   6.820 -0.5560  0.9163  0.3307
  578MOL0     C79652   0.298   9.910   6.845 -0.5353 -0.8165  0.3672
  578MOL0     C79653   0.346   9.785   6.884  0.0777 -0.1251 -0.1967
  578MOL0     C79654   0.248   9.669   6.897 -0.9051  0.6669 -0.3898
  578MOL0     C79655   0.484   9.771   6.905 -0.0484 -0.2347  0.2712
  578MOL0     C79656   0.557   9.654   6.950  0.0494  1.3103  0.5057
  578MOL0     O79657   0.691   9.660   6.938  0.0744 -0.0869 -0.0789
  578MOL0     C79658   0.791   9.557   6.978  0.3531 -0.3856  0.2037
  578MOL0     C79659   0.771   9.422   6.983  0.5173  0.8990 -0.2063
  578MOL0     C79660   0.876   9.334   7.004 -0.6817 -0.0191  0.5037
  578MOL0     C79661   1.006   9.385   7.021 -0.9767 -0.4094  0.2399
  578MOL0     O79662   1.111   9.305   7.043 -0.5790  0.3334  0.4231
  578MOL0     C79663   1.124   9.253   7.177  0.0030 -0.1581  0.1531
  578MOL0     C79664   1.222   9.136   7.178 -0.6850 -0.1062  0.2472
  578MOL0     C79665   1.371   9.190   7.163  0.7542  0.3088  0.4200
  578MOL0     C79666   1.480   9.076   7.191  0.7436  0.1856  0.0000
  578MOL0     C79667   1.626   9.130   7.155  0.5933 -0.0876  0.0178
  578MOL0     C79668   1.719   9.047   7.231  0.1445 -0.9926  0.5063
  578MOL0     C79669   1.864   9.095   7.202 -0.5175  0.2139  0.5575
  578MOL0     C79670   1.973   9.000   7.252  0.2471 -0.0110  0.2394
  578MOL0    Cl79671   1.986   8.836   7.161  0.1808 -0.1969 -0.1976
  578MOL0     C79672   1.029   9.523   7.032  0.3637 -0.3784 -0.3050
  578MOL0     C79673   0.921   9.603   7.002 -0.1691 -0.2334  0.7025
  578MOL0     O79674   0.492   9.557   6.989 -0.3422  0.9110  0.1631
  578MOL0     C79675   0.563   9.889   6.882  0.1200 -0.5410  0.0279
  578MOL0     C79676   0.509  10.012   6.842 -0.6018  0.0118 -0.8361
  578MOL0     N79677   0.371  10.067   6.255 -0.1189 -0.1938  0.1740
  578MOL0     N79678   0.463   9.982   6.261 -0.0033  0.2232 -0.5316
  578MOL0     C79679   1.301   9.490   6.835  0.2790  0.9337  0.0199
  578MOL0     C79680   1.417   9.414   6.854 -0.8799 -0.0903 -0.2214
  578MOL0     C79681   1.878   9.341   6.847  0.3039  0.4414 -0.2540
  578MOL0     C79682   1.927   9.364   6.976  0.7793  0.5126  0.0587
  578MOL0     C79683   2.027   9.289   7.027 -0.3097  0.2037 -1.1500
  578MOL0     C79684   2.103   9.196   6.953 -0.1604 -0.4812  0.2082
  578MOL0     O79685   2.209   9.129   7.015  0.3149 -0.1726  0.1465
  578MOL0     C79686   2.309   9.055   6.941  0.3946  0.1540  0.3415
  578MOL0     C79687   2.270   8.916   6.984 -0.2354 -0.5820  0.1195
  578MOL0     C79688   2.375   8.830   6.937 -1.2027  0.8304  0.0773
  578MOL0     C79689   2.354   8.693   6.975 -0.0028  0.6133  0.4464
  578MOL0     C79690   2.245   8.622   6.905 -0.5158  1.2265 -0.4455
  578MOL0     C79691   2.161   8.570   6.837  0.8916 -0.2275 -0.1588
  578MOL0     C79692   2.069   9.181   6.823  0.3302  0.4420 -0.3098
  578MOL0     C79693   1.955   9.253   6.767 -0.4888  0.4459 -0.2359
  578MOL0     C79694   1.913   9.242   6.621 -0.2470 -0.3947  0.4536
  578MOL0     H79695   1.642   9.662   6.900  0.7588 -0.2122  1.7591
  578MOL0     H79696   1.443   9.799   6.877 -1.7837  0.0086 -1.1595
  578MOL0     H79697   1.314   9.877   6.754  1.0132 -1.6564  1.1073
  578MOL0     H79698   1.193   9.896   6.880  2.0593  1.4381 -0.0431
  578MOL0     H79699   1.165   9.997   6.642  4.0570 -1.6616 -0.7221
  578MOL0     H79700   1.104   9.835   6.591  0.7972  3.2537 -2.4955
  578MOL0     H79701   0.926   9.837   6.744 -2.3069  0.8634 -0.0535
  578MOL0     H79702   0.976   9.978   6.829  1.2240 -2.5647  1.9187
  578MOL0     H79703   0.814  10.053   6.689 -0.6755 -0.4477 -1.5766
  578MOL0     H79704   0.980  10.102   6.636 -1.8579  2.1951  1.6058
  578MOL0     H79705   0.927   9.864   6.489  1.4608  1.2903 -1.7547
  578MOL0     H79706   0.857  10.017   6.422 -2.9230 -0.5112 -0.2489
  578MOL0     H79707   0.708   9.854   6.614 -0.6267 -1.2049  0.2520
  578MOL0     H79708   0.653   9.991   6.512  0.8005  0.4059  0.8061
  578MOL0     H79709   0.736   9.716   6.417  0.4451  0.2051 -1.3374
  578MOL0     H79710   0.706   9.834   6.295 -2.6259 -1.3628 -1.3237
  578MOL0     H79711   0.503   9.701   6.331  0.6287  1.5376 -1.9461
  578MOL0     H79712   0.499   9.736   6.497  0.2716 -0.8406  0.1563
  578MOL0     H79713   0.285   9.914   6.529  3.1082 -1.0455  1.0668
  578MOL0     H79714   0.082  10.057   6.415 -0.9446  0.6727  2.2215
  578MOL0     H79715   0.132  10.184   6.308 -1.2961 -3.7111 -1.8672
  578MOL0     H79716   0.274  10.261   6.538  0.3606  0.1068  0.5818
  578MOL0     H79717   0.100  10.290   6.509 -1.0680 -1.8550 -1.2494
  578MOL0     H79718   0.016  10.127   6.639 -0.0817  0.4109 -0.4090
  578MOL0     H79719   0.164  10.027   6.631  0.9730  0.1224 -0.1994
  578MOL0     H79720   0.147  10.282   6.784 -1.2468 -0.7998 -0.3741
  578MOL0     H79721   0.133  10.119   6.855  0.3671 -0.7096  0.9744
  578MOL0     H79722   0.191   9.911   6.829 -0.6407 -1.8929  0.9330
  578MOL0     H79723   0.286   9.577   6.852  2.8510  2.4034 -1.1578
  578MOL0     H79724   0.156   9.691   6.842 -0.8240 -0.6983 -1.1008
  578MOL0     H79725   0.225   9.649   7.002 -0.1397 -0.2541 -0.3829
  578MOL0     H79726   0.671   9.383   6.962  1.2574 -1.0375 -0.3196
  578MOL0     H79727   0.867   9.226   7.011  0.2231 -0.0970  0.6151
  578MOL0     H79728   1.165   9.335   7.236  1.6278  1.3603 -2.8700
  578MOL0     H79729   1.023   9.229   7.214  0.1937 -3.0577 -0.9047
  578MOL0     H79730   1.213   9.094   7.278 -1.0509 -1.6998 -0.4133
  578MOL0     H79731   1.189   9.057   7.110  0.3887 -0.0764 -0.3383
  578MOL0     H79732   1.387   9.270   7.236  0.2851 -0.0540  0.9283
  578MOL0     H79733   1.377   9.228   7.061  2.0886  2.4474  1.2324
  578MOL0     H79734   1.459   8.985   7.135 -0.4842  0.3860  0.1069
  578MOL0     H79735   1.474   9.047   7.296 -0.0379 -0.7465 -0.2898
  578MOL0     H79736   1.657   9.111   7.052  2.7125 -0.0110  0.5879
  578MOL0     H79737   1.646   9.235   7.180 -2.1499  0.2808  0.9242
  578MOL0     H79738   1.708   8.945   7.193  1.9774  0.1686 -3.8255
  578MOL0     H79739   1.704   9.052   7.339 -0.6943  1.0602  0.3479
  578MOL0     H79740   1.872   9.196   7.243  0.9181 -0.5822  2.4136
  578MOL0     H79741   1.877   9.081   7.094  1.7639  0.0733  0.7919
  578MOL0     H79742   1.955   8.996   7.360 -1.2201  2.0364  0.1404
  578MOL0     H79743   2.076   9.036   7.248  0.0427  0.5734  0.1553
  578MOL0     H79744   1.128   9.550   7.066 -0.0892 -0.4055  1.1188
  578MOL0     H79745   0.927   9.711   7.001  0.2386 -0.2192  2.5084
  578MOL0     H79746   0.670   9.897   6.899 -0.0249  0.1467  0.7021
  578MOL0     H79747   0.575  10.096   6.826  2.0145 -1.5786  0.9283
  578MOL0     H79748   1.200   9.451   6.830 -0.0979  1.8939 -0.1313
  578MOL0     H79749   1.402   9.307   6.864 -2.7789 -0.1301 -2.5117
  578MOL0     H79750   1.880   9.440   7.039 -0.5911  0.3876 -0.7627
  578MOL0     H79751   2.040   9.288   7.135 -2.1402 -0.4227 -0.8887
  578MOL0     H79752   2.314   9.074   6.834 -1.0525  0.7835  0.3564
  578MOL0     H79753   2.416   9.062   6.962  0.9870  2.1166 -2.7031
  578MOL0     H79754   2.170   8.884   6.952 -0.9126 -0.3654  1.9260
  578MOL0     H79755   2.270   8.916   7.093  0.7861 -0.3404  0.1310
  578MOL0     H79756   2.376   8.838   6.828 -4.0413  0.0323 -0.1074
  578MOL0     H79757   2.470   8.861   6.980 -0.9558 -0.0993  0.2117
  578MOL0     H79758   2.319   8.684   7.078 -3.0200 -0.7752 -0.5651
  578MOL0     H79759   2.450   8.643   6.961  1.1098  2.3769  1.5396
  578MOL0     H79760   2.083   8.527   6.777 -0.1506 -1.2321  1.8103
  578MOL0     H79761   2.122   9.115   6.754 -1.4439 -0.9339 -0.4351
  578MOL0     H79762   1.807   9.221   6.605 -0.2708  0.9892 -1.6395
  578MOL0     H79763   1.930   9.329   6.557 -3.7403  0.2176  0.1970
  578MOL0     H79764   1.964   9.159   6.571  0.6088  0.8821 -0.8914
  579MOL0     O79765   4.549   3.990   6.010  0.3458  0.4220 -0.4216
  579MOL0     C79766   4.546   4.068   5.917 -0.3397 -0.3858 -0.0617
  579MOL0     O79767   4.643   4.160   5.886 -0.3893 -0.4536 -0.2280
  579MOL0     C79768   4.755   4.181   5.967  0.2391  1.0156  0.5950
  579MOL0     C79769   4.795   4.305   6.001  0.0926 -0.4643 -0.3728
  579MOL0     C79770   4.932   4.325   6.048  0.0423 -0.2564 -0.7064
  579MOL0     C79771   5.022   4.219   6.065 -0.6723  0.8479 -0.8116
  579MOL0     O79772   5.157   4.246   6.108  0.3147  0.8871 -0.5366
  579MOL0     C79773   5.262   4.170   6.047  0.9637  0.0220  0.1934
  579MOL0     C79774   5.400   4.216   6.097  0.0952 -0.0390  0.6217
  579MOL0     C79775   5.512   4.147   6.014 -0.6180  0.3479 -0.1145
  579MOL0     C79776   5.645   4.147   6.090  0.3866 -0.1139  0.1497
  579MOL0     C79777   5.774   4.078   6.048  0.3420  0.7563  0.0553
  579MOL0     C79778   5.890   4.108   6.143  0.4522 -0.0952  0.1086
  579MOL0     C79779   6.027   4.051   6.093  0.7046  0.9922  0.3685
  579MOL0     C79780   6.132   4.068   6.196 -0.0106 -0.0603 -0.2927
  579MOL0     N79781   6.208   4.183   6.161  0.6693 -0.8052 -0.4357
  579MOL0     C79782   6.197   4.311   6.214  0.1114  0.8448  0.2949
  579MOL0     C79783   6.301   4.381   6.160  0.0552 -0.3083 -0.7492
  579MOL0     C79784   6.324   4.530   6.178 -0.7346  0.4095 -0.3951
  579MOL0     C79785   6.467   4.559   6.208 -0.3586 -0.5071  0.1151
  579MOL0     C79786   6.486   4.712   6.227  0.2178  0.3687 -0.0959
  579MOL0     C79787   6.625   4.741   6.285 -0.1997  0.2701  0.6134
  579MOL0     O79788   6.731   4.670   6.223 -0.0545 -0.2214 -0.6710
  579MOL0     C79789   6.859   4.674   6.264  0.0015 -0.8639  0.0243
  579MOL0     C79790   6.957   4.580   6.228 -0.2838  0.4552  0.1018
  579MOL0     C79791   7.092   4.587   6.262 -0.0554  1.0075  0.2595
  579MOL0     C79792   7.187   4.478   6.212 -0.2549 -0.2373  0.1481
  579MOL0     C79793   7.124   4.685   6.348 -0.2344 -0.6575 -0.6474
  579MOL0     C79794   7.260   4.688   6.415 -0.2566 -0.0413  0.8779
  579MOL0     O79795   7.291   4.589   6.511 -0.0781  0.5419  0.3993
  579MOL0     C79796   7.415   4.578   6.561 -0.3754 -0.2053 -0.5394
  579MOL0     C79797   7.423   4.561   6.697 -0.6712 -0.5385 -0.0633
  579MOL0     C79798   7.541   4.534   6.768  0.2017  1.0684 -0.9054
  579MOL0     C79799   7.666   4.531   6.693 -0.7307 -0.4061  0.2551
  579MOL0     O79800   7.790   4.506   6.753  0.7803  0.5609  0.7582
  579MOL0     C79801   7.884   4.436   6.677 -0.1637 -0.3087  0.6321
  579MOL0     C79802   8.003   4.400   6.769  0.7619 -1.2424 -0.5934
  579MOL0     C79803   8.112   4.326   6.696 -1.0450  0.3007  0.4110
  579MOL0     C79804   8.081   4.188   6.650 -0.3945  0.3234 -0.0729
  579MOL0     C79805   8.182   4.131   6.555 -0.1462 -0.0132 -0.1320
  579MOL0     C79806   8.149   3.995   6.508  0.3525  0.9707  0.0869
  579MOL0     C79807   8.139   3.884   6.618  0.0209  0.4154  1.0432
  579MOL0     C79808   8.118   3.753   6.547 -0.0306  0.5607  0.5039
  579MOL0    Cl79809   8.158   3.618   6.651 -0.1612 -0.0329 -0.0958
  579MOL0     C79810   7.663   4.568   6.561 -0.3414 -0.3628 -0.0749
  579MOL0     C79811   7.535   4.590   6.497 -0.3003 -0.8643 -0.5164
  579MOL0     O79812   7.330   4.788   6.392  0.5559 -0.0496  0.8160
  579MOL0     C79813   7.029   4.781   6.393 -0.8149  0.9037  0.1615
  579MOL0     C79814   6.898   4.777   6.353 -0.1781  0.8471  0.9924
  579MOL0     N79815   6.376   4.300   6.083  0.2840  0.6048  0.5774
  579MOL0     N79816   6.326   4.180   6.081 -0.0159  0.7522 -0.5520
  579MOL0     C79817   4.974   4.089   6.040  0.2591 -0.1262 -0.0152
  579MOL0     C79818   4.840   4.076   5.987 -0.6217  0.0846  0.2490
  579MOL0     C79819   4.461   4.036   5.805 -0.2739 -0.6164  0.8463
  579MOL0     C79820   4.502   4.063   5.670  1.6477  0.1369 -0.4713
  579MOL0     C79821   4.409   4.050   5.567 -0.3557 -0.5237  0.6669
  579MOL0     C79822   4.283   4.010   5.579  0.5050 -0.7711 -0.1537
  579MOL0     O79823   4.211   3.983   5.466  0.3961 -0.2776  0.0840
  579MOL0     C79824   4.076   3.923   5.490 -0.0343 -0.3870  0.1012
  579MOL0     C79825   4.004   3.896   5.363 -0.3701 -0.4092  0.2917
  579MOL0     C79826   3.882   3.808   5.385  0.3852  0.0676 -0.3332
  579MOL0     C79827   3.758   3.895   5.437 -0.7646 -0.1221  0.0676
  579MOL0     C79828   3.693   3.970   5.330  0.1461  0.0054  0.1099
  579MOL0     C79829   3.646   4.035   5.240  0.2990 -0.1482  0.6191
  579MOL0     C79830   4.244   3.977   5.718 -0.4269 -0.6570 -0.0704
  579MOL0     C79831   4.330   4.005   5.833 -0.7649 -0.8005 -0.1765
  579MOL0     C79832   4.260   3.985   5.970  0.3346 -0.4562  0.3519
  579MOL0     H79833   4.742   4.397   5.981  2.3149  1.1364  0.7843
  579MOL0     H79834   4.975   4.424   6.064 -2.6659  0.5850  2.3775
  579MOL0     H79835   5.251   4.170   5.938  2.9029  1.4400 -0.0696
  579MOL0     H79836   5.238   4.065   6.070 -0.7458 -1.0503 -5.1454
  579MOL0     H79837   5.417   4.324   6.099  1.1360 -0.1997  1.0686
  579MOL0     H79838   5.411   4.190   6.203  1.0233  2.1019  1.1055
  579MOL0     H79839   5.490   4.045   5.982  0.8830 -0.8098  2.2050
  579MOL0     H79840   5.528   4.202   5.921 -0.5424 -2.0561 -1.6325
  579MOL0     H79841   5.670   4.253   6.099 -3.2989  0.8504  0.6713
  579MOL0     H79842   5.620   4.108   6.189 -0.3409  0.2803  0.1237
  579MOL0     H79843   5.800   4.107   5.946  2.9548 -1.7242 -0.0823
  579MOL0     H79844   5.761   3.970   6.039  1.8841  0.0347  4.1989
  579MOL0     H79845   5.893   4.218   6.144 -3.2271  0.2008 -2.5961
  579MOL0     H79846   5.871   4.070   6.243 -0.8832  0.1207 -0.0555
  579MOL0     H79847   6.059   4.073   5.991 -1.0169  0.0023 -0.4293
  579MOL0     H79848   5.992   3.948   6.081 -1.1988  1.9196 -3.7881
  579MOL0     H79849   6.094   4.094   6.295 -0.8279  2.5391 -1.1957
  579MOL0     H79850   6.202   3.984   6.194 -0.9392 -0.8335 -1.2150
  579MOL0     H79851   6.115   4.347   6.275  1.6561 -1.8100  4.3341
  579MOL0     H79852   6.259   4.572   6.255  1.3955  3.7480 -0.2377
  579MOL0     H79853   6.318   4.578   6.080  2.5754  0.2317 -0.7724
  579MOL0     H79854   6.500   4.511   6.301 -0.6138 -0.3503  0.2893
  579MOL0     H79855   6.536   4.523   6.131 -0.2771  1.2791 -0.6798
  579MOL0     H79856   6.465   4.772   6.137 -4.5337  0.0163  0.5520
  579MOL0     H79857   6.420   4.751   6.304  2.7320  0.4371  2.1642
  579MOL0     H79858   6.641   4.848   6.268 -1.8193  0.4498  0.1025
  579MOL0     H79859   6.628   4.721   6.392 -1.0622 -1.8147  0.3010
  579MOL0     H79860   6.922   4.506   6.157 -2.5337  2.3063 -0.8443
  579MOL0     H79861   7.145   4.382   6.180  1.1453 -0.7880 -0.1139
  579MOL0     H79862   7.271   4.449   6.277 -2.2209 -1.6279  2.2524
  579MOL0     H79863   7.238   4.527   6.129  1.5942  0.7556  1.7836
  579MOL0     H79864   7.326   4.558   6.745 -0.7583  0.9673 -0.1143
  579MOL0     H79865   7.548   4.520   6.876  1.8909  1.6946 -0.8987
  579MOL0     H79866   7.833   4.355   6.623  1.7435 -0.9611 -0.2826
  579MOL0     H79867   7.923   4.505   6.601 -2.1912  1.0822  0.7447
  579MOL0     H79868   8.047   4.489   6.814  1.0208 -0.7800 -1.7230
  579MOL0     H79869   7.971   4.334   6.850  1.2420  0.7470  1.3143
  579MOL0     H79870   8.200   4.331   6.761  1.3552  1.6793 -2.6413
  579MOL0     H79871   8.148   4.384   6.611  1.1507 -0.2146  0.9259
  579MOL0     H79872   7.977   4.179   6.618  0.2191 -4.6001 -1.4205
  579MOL0     H79873   8.093   4.133   6.744 -0.7127 -0.5853 -0.5503
  579MOL0     H79874   8.190   4.204   6.474  0.7542  0.6005  0.4907
  579MOL0     H79875   8.283   4.127   6.597  1.7333  3.6437 -3.6281
  579MOL0     H79876   8.232   3.968   6.443 -0.0748  1.3815 -0.6545
  579MOL0     H79877   8.064   4.001   6.439  0.7840 -1.3324 -0.7027
  579MOL0     H79878   8.042   3.896   6.668 -0.6913 -0.6427 -0.0159
  579MOL0     H79879   8.223   3.884   6.688 -1.5022  0.7073  2.9727
  579MOL0     H79880   8.177   3.749   6.455  0.1266  1.9921  0.5140
  579MOL0     H79881   8.013   3.741   6.520  0.4015 -1.3081 -0.4821
  579MOL0     H79882   7.759   4.574   6.509 -0.5560 -1.1291 -0.5735
  579MOL0     H79883   7.534   4.618   6.392 -0.8502  2.6686  0.2946
  579MOL0     H79884   7.060   4.850   6.471  0.9140 -0.0240  0.3649
  579MOL0     H79885   6.827   4.851   6.388  0.2219  2.1729 -0.8320
  579MOL0     H79886   5.035   4.002   6.059  0.7613  0.1733 -0.2272
  579MOL0     H79887   4.801   3.978   5.959 -0.1732 -1.1904  3.5590
  579MOL0     H79888   4.599   4.105   5.647  2.8120 -0.2558  3.1259
  579MOL0     H79889   4.447   4.072   5.468 -2.5815  0.6823 -0.0114
  579MOL0     H79890   4.096   3.829   5.543  0.9100 -1.4962 -2.0515
  579MOL0     H79891   4.017   3.989   5.553  0.7577  0.1448  0.3021
  579MOL0     H79892   4.075   3.852   5.292  1.0591 -1.9040  2.5238
  579MOL0     H79893   3.972   3.993   5.324 -3.4068 -1.4685 -0.1463
  579MOL0     H79894   3.869   3.748   5.294  0.7396 -3.9232  2.0125
  579MOL0     H79895   3.905   3.736   5.464  1.0473 -0.4425 -0.9784
  579MOL0     H79896   3.790   3.971   5.509  1.0930 -1.2097  0.4385
  579MOL0     H79897   3.691   3.826   5.488  1.1341 -3.1467 -1.2498
  579MOL0     H79898   3.626   4.101   5.158  1.1965 -0.4067  0.1788
  579MOL0     H79899   4.146   3.931   5.733 -0.6891  0.0093  0.3031
  579MOL0     H79900   4.301   4.046   6.051 -0.1478  0.0343  0.2363
  579MOL0     H79901   4.154   4.010   5.962  0.4954 -0.0104 -0.6276
  579MOL0     H79902   4.269   3.879   5.993 -2.9014 -0.8285  0.3979
  580MOL0     O79903   7.712   8.664   6.673 -0.0118 -0.1617  0.3513
  580MOL0     C79904   7.728   8.660   6.552 -0.2553 -0.1947  0.1490
  580MOL0     O79905   7.834   8.685   6.482 -0.5196  0.0401  0.4371
  580MOL0     C79906   7.930   8.776   6.517  0.8713 -0.7619 -0.2377
  580MOL0     C79907   7.922   8.877   6.619 -0.5854 -0.3950 -0.6870
  580MOL0     C79908   8.039   8.962   6.635  1.4809 -0.3037 -0.5368
  580MOL0     C79909   8.145   8.949   6.541 -0.1026 -0.5802 -0.2156
  580MOL0     O79910   8.264   9.033   6.547 -0.0285 -0.2871 -0.7260
  580MOL0     C79911   8.288   9.089   6.677 -0.0457 -0.5916  0.1071
  580MOL0     C79912   8.432   9.133   6.688 -0.1252  1.0920  0.2839
  580MOL0     C79913   8.538   9.023   6.645 -0.7907 -0.7524  0.4310
  580MOL0     C79914   8.682   9.080   6.617  0.0489 -0.4614 -0.1430
  580MOL0     C79915   8.770   8.969   6.559 -0.3167 -0.5502  0.1597
  580MOL0     C79916   8.785   8.852   6.657  0.2303  0.1233 -0.1247
  580MOL0     C79917   8.904   8.757   6.621 -0.1259 -0.4302 -0.2171
  580MOL0     C79918   8.905   8.723   6.466  0.7456  0.7981 -1.0399
  580MOL0     N79919   9.041   8.662   6.443  0.8169  0.4866 -0.5879
  580MOL0     C79920   9.113   8.573   6.523  0.6610 -0.2863  0.5720
  580MOL0     C79921   9.243   8.576   6.486 -0.0964  0.2089 -0.1044
  580MOL0     C79922   9.353   8.489   6.537 -0.1450 -0.6488  1.0932
  580MOL0     C79923   9.479   8.581   6.570 -0.7669  0.7746 -0.3893
  580MOL0     C79924   9.588   8.492   6.636  1.0176  0.2317  0.5240
  580MOL0     C79925   9.723   8.538   6.597 -0.2057 -0.4436  0.5845
  580MOL0     O79926   9.739   8.672   6.646 -0.5884 -0.5624  0.1433
  580MOL0     C79927   9.841   8.714   6.727  0.0104  0.7838  0.2434
  580MOL0     C79928   9.809   8.809   6.826  0.0815 -0.6034  0.0068
  580MOL0     C79929   9.903   8.862   6.913 -0.4090  0.3047  0.6137
  580MOL0     C79930   9.857   8.951   7.024  0.9746 -0.4250  0.8655
  580MOL0     C79931  10.044   8.825   6.892  0.0284 -0.0570  0.5072
  580MOL0     C79932  10.163   8.886   6.963 -0.1323  0.6621 -0.1578
  580MOL0     O79933  10.287   8.819   6.949  0.6484 -0.2407 -0.7251
  580MOL0     C79934  10.392   8.879   7.013 -0.1382 -0.3604  0.0509
  580MOL0     C79935  10.418   8.866   7.151 -0.3690  0.8309 -0.5754
  580MOL0     C79936  10.532   8.927   7.204  0.0242 -0.1448 -0.2197
  580MOL0     C79937  10.622   8.985   7.114 -0.6628  0.0496  0.9941
  580MOL0     O79938  10.737   9.052   7.159  0.3119 -0.0475  0.2260
  580MOL0     C79939  10.852   8.974   7.192 -0.1010 -0.4547  0.4657
  580MOL0     C79940  10.895   9.020   7.324  0.1382  0.1678 -0.0999
  580MOL0     C79941  10.903   8.916   7.428 -0.2082  0.1851 -0.1706
  580MOL0     C79942  11.054   8.879   7.448 -0.4199  0.3266  0.2598
  580MOL0     C79943  11.065   8.762   7.554 -0.4543 -0.0863  0.4011
  580MOL0     C79944  11.210   8.748   7.599 -0.2713 -0.0475 -0.0470
  580MOL0     C79945  11.220   8.669   7.730  0.0552  0.7130  0.1436
  580MOL0     C79946  11.370   8.635   7.751  0.3781  0.1453 -0.0187
  580MOL0    Cl79947  11.455   8.777   7.793 -0.7296 -0.0094 -0.2039
  580MOL0     C79948  10.592   8.994   6.977 -0.1118  0.3883 -0.0693
  580MOL0     C79949  10.475   8.941   6.929 -1.4959  0.5616  0.0282
  580MOL0     O79950  10.143   8.975   7.042 -0.6720 -0.1572 -0.1075
  580MOL0     C79951  10.073   8.734   6.788  0.6089 -0.4448 -0.8540
  580MOL0     C79952   9.975   8.673   6.713 -0.5989 -0.3433  0.3783
  580MOL0     N79953   9.251   8.661   6.386  0.8744 -0.2519  0.5520
  580MOL0     N79954   9.135   8.710   6.351  0.5939  0.5785  0.7259
  580MOL0     C79955   8.148   8.845   6.446  0.6959 -0.6521 -0.6773
  580MOL0     C79956   8.040   8.758   6.441 -0.4208 -0.1038 -0.3252
  580MOL0     C79957   7.621   8.614   6.479  0.5227 -0.5239 -0.6962
  580MOL0     C79958   7.578   8.484   6.498 -1.1550  0.7765 -0.4829
  580MOL0     C79959   7.475   8.432   6.428  0.1257  0.1239 -0.0589
  580MOL0     C79960   7.398   8.512   6.340  0.4706 -0.3364  0.6419
  580MOL0     O79961   7.287   8.473   6.270  0.1867  0.0622 -0.1760
  580MOL0     C79962   7.265   8.330   6.279  0.3421  0.6009  0.2329
  580MOL0     C79963   7.140   8.299   6.203  0.1380  0.0711 -0.6591
  580MOL0     C79964   7.160   8.308   6.052 -0.6336  0.5029  0.7562
  580MOL0     C79965   7.195   8.446   6.007  0.4911  0.2472 -0.0968
  580MOL0     C79966   7.191   8.454   5.857  0.4880  0.0471 -0.1523
  580MOL0     C79967   7.183   8.473   5.740 -0.1389 -0.4856 -0.1816
  580MOL0     C79968   7.436   8.648   6.327 -0.7052  0.4321 -0.3775
  580MOL0     C79969   7.550   8.695   6.395  1.0761  0.5427 -0.5961
  580MOL0     C79970   7.581   8.842   6.375 -0.3048  0.7898 -0.2422
  580MOL0     H79971   7.836   8.896   6.682 -0.2018 -0.9619  0.0318
  580MOL0     H79972   8.038   9.039   6.713 -1.1222 -2.7788  2.1442
  580MOL0     H79973   8.272   9.013   6.754 -0.3984  0.0880  0.7192
  580MOL0     H79974   8.226   9.178   6.695  1.4428  0.6907 -0.8147
  580MOL0     H79975   8.438   9.227   6.633  0.5650  1.1561  0.4583
  580MOL0     H79976   8.446   9.165   6.792  0.5647 -0.8026  0.8132
  580MOL0     H79977   8.548   8.939   6.714  1.5535 -2.3519 -1.6981
  580MOL0     H79978   8.500   8.983   6.551 -0.5086  0.9039 -0.4226
  580MOL0     H79979   8.688   9.172   6.558 -3.5464  0.5065  0.7208
  580MOL0     H79980   8.720   9.110   6.715  1.9367 -2.5842 -0.1574
  580MOL0     H79981   8.871   9.008   6.544 -1.2019  1.9371  0.2013
  580MOL0     H79982   8.731   8.934   6.463 -0.4022  3.4772 -1.4685
  580MOL0     H79983   8.806   8.895   6.756 -2.3031  1.1999  0.0163
  580MOL0     H79984   8.693   8.793   6.657  0.2884  0.0324  0.0414
  580MOL0     H79985   8.899   8.666   6.681 -1.2883 -2.6133 -3.4021
  580MOL0     H79986   9.001   8.802   6.642  0.0039 -1.1543  0.8009
  580MOL0     H79987   8.824   8.651   6.460 -1.1264  2.2442  3.1341
  580MOL0     H79988   8.886   8.805   6.396 -0.7798  1.6024  0.2489
  580MOL0     H79989   9.073   8.506   6.599 -0.3371 -0.1197  0.2014
  580MOL0     H79990   9.376   8.409   6.466  1.0356  1.8450 -1.5336
  580MOL0     H79991   9.318   8.444   6.631 -1.4514  2.9147  2.5087
  580MOL0     H79992   9.505   8.632   6.477 -0.2750 -0.9899 -1.2830
  580MOL0     H79993   9.445   8.651   6.646 -0.4586  2.9358 -2.1572
  580MOL0     H79994   9.590   8.502   6.744  4.4013 -0.9127  0.6714
  580MOL0     H79995   9.567   8.389   6.606 -5.0345  1.0755  0.6885
  580MOL0     H79996   9.803   8.478   6.642  0.2817 -0.4613 -0.2970
  580MOL0     H79997   9.733   8.529   6.489 -2.6957 -0.2908  0.2804
  580MOL0     H79998   9.704   8.826   6.846 -0.1334 -2.6858  0.8832
  580MOL0     H79999   9.900   8.945   7.124  3.1131  0.0133  0.0506
  580MOL0     H80000   9.749   8.947   7.033  0.8717 -1.6188 -0.5388
  580MOL0     H80001   9.890   9.047   6.980  2.3340 -0.5319  1.5890
  580MOL0     H80002  10.354   8.806   7.215 -1.8050  1.9762 -0.8930
  580MOL0     H80003  10.562   8.918   7.308 -1.2616 -0.6878  0.1331
  580MOL0     H80004  10.825   8.868   7.183  1.8453 -1.4351  4.0279
  580MOL0     H80005  10.934   8.984   7.121 -2.8730  1.0135 -2.8188
  580MOL0     H80006  10.991   9.069   7.306  0.3745  0.7352  2.3574
  580MOL0     H80007  10.820   9.090   7.363  0.4835  0.1272  0.6429
  580MOL0     H80008  10.850   8.828   7.389  2.7476  0.0802 -4.5713
  580MOL0     H80009  10.869   8.957   7.524  0.3663  1.2433 -0.4045
  580MOL0     H80010  11.097   8.968   7.494 -1.0835  0.0823  1.3792
  580MOL0     H80011  11.094   8.849   7.351 -0.6374  2.7252 -0.6437
  580MOL0     H80012  11.001   8.779   7.642 -0.4365 -1.9711  0.8437
  580MOL0     H80013  11.027   8.674   7.500 -0.6026  0.2419 -0.0308
  580MOL0     H80014  11.262   8.844   7.606  0.4634 -0.5273  1.7206
  580MOL0     H80015  11.258   8.697   7.514  0.4801 -1.2656  1.0682
  580MOL0     H80016  11.165   8.575   7.722 -0.1426  0.8633 -0.2900
  580MOL0     H80017  11.183   8.718   7.821 -1.3212 -0.0883  0.0551
  580MOL0     H80018  11.416   8.594   7.661  0.1511  1.3504 -0.7091
  580MOL0     H80019  11.380   8.557   7.827  0.6733 -1.1598 -1.3484
  580MOL0     H80020  10.654   9.045   6.904 -0.4973  0.6483 -0.2208
  580MOL0     H80021  10.457   8.940   6.822  0.2848  1.9970 -0.3182
  580MOL0     H80022  10.177   8.706   6.774  1.3996  0.6614  1.9403
  580MOL0     H80023  10.017   8.607   6.638  1.9418 -1.1856  2.3686
  580MOL0     H80024   8.222   8.821   6.371 -0.0031 -0.3997 -1.4586
  580MOL0     H80025   8.034   8.686   6.359 -3.0709 -0.6832  0.2984
  580MOL0     H80026   7.636   8.427   6.570 -0.3794  2.3952  0.2230
  580MOL0     H80027   7.452   8.328   6.447  2.1132  0.1160  2.8498
  580MOL0     H80028   7.356   8.283   6.240  0.2031 -0.8220  1.5282
  580MOL0     H80029   7.250   8.300   6.383  2.7886  0.7443  0.7054
  580MOL0     H80030   7.057   8.363   6.234 -1.7601 -0.9583 -3.2548
  580MOL0     H80031   7.108   8.197   6.226  2.0592 -0.3900  0.1574
  580MOL0     H80032   7.244   8.245   6.024 -1.3656  0.5177 -1.6959
  580MOL0     H80033   7.068   8.268   6.008 -0.0216 -0.8515  0.6591
  580MOL0     H80034   7.293   8.481   6.041 -1.3379  2.5696  3.2591
  580MOL0     H80035   7.124   8.521   6.042  0.8225  0.7533 -0.4893
  580MOL0     H80036   7.190   8.484   5.634  0.6843 -1.6129 -0.2611
  580MOL0     H80037   7.365   8.698   6.261 -0.4896 -1.7275 -2.3798
  580MOL0     H80038   7.591   8.886   6.475 -0.1011 -1.8287  0.9659
  580MOL0     H80039   7.682   8.849   6.333 -0.4934  1.5785 -0.5801
  580MOL0     H80040   7.505   8.886   6.310  1.4272 -0.2194 -3.1232
  581MOL0     O80041  10.560   8.053   6.943  0.2649 -0.0501  0.4659
  581MOL0     C80042  10.546   7.957   6.867 -0.0190 -0.5903  0.0917
  581MOL0     O80043  10.633   7.924   6.762 -0.2220  0.3853 -0.1652
  581MOL0     C80044  10.748   7.997   6.756 -0.3639  0.4676 -0.6106
  581MOL0     C80045  10.865   7.945   6.808  0.4179  0.1602 -0.6047
  581MOL0     C80046  10.977   8.028   6.821 -0.3222  0.4055 -0.0085
  581MOL0     C80047  10.980   8.159   6.771 -0.2082 -0.4987 -0.4531
  581MOL0     O80048  11.099   8.235   6.762 -0.0446  0.3815 -0.6124
  581MOL0     C80049  11.112   8.373   6.735  0.1948  0.6091  0.2188
  581MOL0     C80050  11.200   8.429   6.841  0.3261 -0.3123 -0.1512
  581MOL0     C80051  11.352   8.390   6.821 -0.0704 -0.7895 -0.1732
  581MOL0     C80052  11.444   8.465   6.918  0.4874  0.7508 -0.2452
  581MOL0     C80053  11.593   8.422   6.899 -0.4219  0.1409 -0.2345
  581MOL0     C80054  11.693   8.508   6.987 -0.2412 -0.2227 -0.2027
  581MOL0     C80055  11.684   8.660   6.971  0.5338 -0.2221 -0.2614
  581MOL0     C80056  11.796   8.728   7.038 -0.6200 -0.0211 -0.4268
  581MOL0     N80057  11.931   8.694   6.981 -0.4509  0.3968  0.1415
  581MOL0     C80058  11.956   8.682   6.843 -0.9291 -0.2688 -0.4064
  581MOL0     C80059  12.083   8.641   6.841 -0.0346  0.5227  0.1351
  581MOL0     C80060  12.149   8.604   6.709  0.0913  0.2641  0.6472
  581MOL0     C80061  12.220   8.468   6.705 -0.2252 -0.2276 -0.1054
  581MOL0     C80062  12.354   8.470   6.783  1.0848 -0.3831  0.3794
  581MOL0     C80063  12.473   8.439   6.688  0.9364 -0.1683  0.0299
  581MOL0     O80064  12.474   8.530   6.583  0.6209  0.4426  0.1725
  581MOL0     C80065  12.563   8.514   6.480 -0.1701  0.9683 -0.1303
  581MOL0     C80066  12.652   8.406   6.466  0.1764 -0.0568 -0.9443
  581MOL0     C80067  12.755   8.417   6.372  0.6115  0.3321 -0.6827
  581MOL0     C80068  12.844   8.294   6.381 -0.4036  0.2963  1.3407
  581MOL0     C80069  12.769   8.530   6.287  0.8168 -0.3014 -0.7883
  581MOL0     C80070  12.877   8.544   6.195  0.1845 -1.3865  0.5200
  581MOL0     O80071  12.854   8.640   6.095  0.2137  0.1573 -0.4289
  581MOL0     C80072  12.924   8.663   5.979 -0.0436  0.4143 -0.0415
  581MOL0     C80073  13.041   8.594   5.932 -1.0003  0.0004  0.3355
  581MOL0     C80074  13.080   8.628   5.802 -0.1040 -0.2536 -1.0092
  581MOL0     C80075  13.009   8.723   5.725 -0.8178  0.1933 -0.3937
  581MOL0     O80076  13.053   8.771   5.603  0.4273 -0.0472 -0.3104
  581MOL0     C80077  13.084   8.667   5.511 -0.3689  0.8539 -0.2752
  581MOL0     C80078  13.078   8.711   5.365 -1.2684  0.0557  1.2247
  581MOL0     C80079  13.192   8.797   5.308  0.6607 -0.0117 -0.0981
  581MOL0     C80080  13.149   8.942   5.274  0.5580 -0.3895  0.4965
  581MOL0     C80081  13.265   9.032   5.220  0.2435  0.5696 -0.2924
  581MOL0     C80082  13.329   8.968   5.094  0.8213 -0.3182 -0.6794
  581MOL0     C80083  13.396   9.079   5.004  0.3965  0.4700 -0.7690
  581MOL0     C80084  13.508   9.161   5.070 -0.1786  0.3061 -0.2193
  581MOL0    Cl80085  13.630   9.035   5.108  0.2983 -0.0063  0.1836
  581MOL0     C80086  12.908   8.794   5.777  0.4944 -0.2135  0.0899
  581MOL0     C80087  12.859   8.762   5.903 -0.0742 -0.2221  0.5715
  581MOL0     O80088  12.968   8.461   6.187  0.0630 -0.4727  0.7614
  581MOL0     C80089  12.669   8.631   6.297  0.2549  0.3509 -0.0100
  581MOL0     C80090  12.571   8.622   6.397 -0.1764 -0.2722 -0.0120
  581MOL0     N80091  12.141   8.631   6.967  0.4205  0.8640  0.2031
  581MOL0     N80092  12.045   8.662   7.049 -0.7890 -0.7640  0.3968
  581MOL0     C80093  10.857   8.209   6.707  0.0481 -0.3043 -0.7942
  581MOL0     C80094  10.749   8.124   6.699  0.6764  0.1879  0.2760
  581MOL0     C80095  10.429   7.868   6.892  0.7178  0.1606 -0.4306
  581MOL0     C80096  10.323   7.926   6.961  0.5085  0.4914  0.2001
  581MOL0     C80097  10.201   7.849   6.981 -0.7641 -0.3048 -0.0922
  581MOL0     C80098  10.198   7.710   6.973  0.1440 -0.3277 -0.2260
  581MOL0     O80099  10.093   7.631   7.003 -0.8185 -0.0163  0.7715
  581MOL0     C80100   9.972   7.684   7.066 -0.6168  0.2633 -0.2273
  581MOL0     C80101   9.891   7.575   7.135 -0.3741 -0.2257  1.2606
  581MOL0     C80102   9.984   7.511   7.240 -0.3983 -0.2968  0.1225
  581MOL0     C80103   9.934   7.410   7.346 -0.2620  0.3805 -0.5345
  581MOL0     C80104   9.874   7.480   7.460  1.5170  0.5927  0.6093
  581MOL0     C80105   9.835   7.546   7.552 -0.2425  0.0589 -0.0414
  581MOL0     C80106  10.310   7.650   6.907  0.0484 -0.3233  0.1652
  581MOL0     C80107  10.425   7.724   6.868 -0.8423 -0.1675  0.2015
  581MOL0     C80108  10.545   7.648   6.813  0.0605 -0.5462 -0.8758
  581MOL0     H80109  10.864   7.844   6.849 -0.2809 -1.1457 -3.5581
  581MOL0     H80110  11.059   7.976   6.870 -0.9008  0.0935  0.6626
  581MOL0     H80111  11.020   8.432   6.734  0.6989  1.4128 -0.9968
  581MOL0     H80112  11.157   8.382   6.636 -0.6303 -1.9683 -0.4784
  581MOL0     H80113  11.189   8.538   6.846 -0.5595 -0.2551 -2.2714
  581MOL0     H80114  11.172   8.376   6.932  0.1813 -0.9107 -0.5358
  581MOL0     H80115  11.374   8.283   6.823  1.8778 -0.4828 -1.7045
  581MOL0     H80116  11.393   8.415   6.722 -0.4566 -0.1511 -0.1722
  581MOL0     H80117  11.416   8.570   6.904 -0.2161  0.8644  1.6463
  581MOL0     H80118  11.427   8.452   7.025  0.9218  0.2776 -0.2295
  581MOL0     H80119  11.629   8.435   6.797  0.7065  0.2121  0.1551
  581MOL0     H80120  11.618   8.318   6.924 -0.2572  0.7398  2.3814
  581MOL0     H80121  11.657   8.477   7.085  0.5745  0.8293  0.4593
  581MOL0     H80122  11.796   8.471   6.982  0.4498  1.5680  0.0351
  581MOL0     H80123  11.593   8.704   7.012  1.2163  0.5877  0.4213
  581MOL0     H80124  11.687   8.681   6.863  2.5573 -2.3838 -0.7214
  581MOL0     H80125  11.796   8.836   7.021  4.6939  0.6408  1.9456
  581MOL0     H80126  11.788   8.697   7.143 -1.3391 -0.7851 -0.7009
  581MOL0     H80127  11.900   8.705   6.753 -1.5903  1.6105  0.4168
  581MOL0     H80128  12.224   8.680   6.688  3.4396 -2.8208  0.4589
  581MOL0     H80129  12.067   8.594   6.637 -0.2759 -2.4219  1.3044
  581MOL0     H80130  12.166   8.391   6.760  0.1301  0.3158  1.0508
  581MOL0     H80131  12.234   8.433   6.603 -0.1246 -2.3056  0.5772
  581MOL0     H80132  12.357   8.571   6.825 -1.7878 -0.0840  0.0779
  581MOL0     H80133  12.363   8.410   6.874 -2.3629 -0.7400  0.6108
  581MOL0     H80134  12.571   8.458   6.732  1.5790 -0.8134 -1.0762
  581MOL0     H80135  12.462   8.337   6.651 -0.1106 -0.8287  2.0409
  581MOL0     H80136  12.642   8.315   6.525 -1.1042  0.4272 -0.3804
  581MOL0     H80137  12.952   8.304   6.385  0.0491  0.9185 -4.1426
  581MOL0     H80138  12.822   8.240   6.288 -1.2767  0.2699  1.5483
  581MOL0     H80139  12.814   8.223   6.458 -2.3937  1.1124  1.3985
  581MOL0     H80140  13.099   8.519   5.984 -0.3618 -0.8489 -1.5052
  581MOL0     H80141  13.152   8.560   5.759 -0.0808 -0.7363 -0.2225
  581MOL0     H80142  13.190   8.642   5.529  0.5580  2.5815 -2.8337
  581MOL0     H80143  13.037   8.568   5.518  0.6081  0.3393 -0.7384
  581MOL0     H80144  13.083   8.611   5.321 -3.7170 -0.9695  3.0695
  581MOL0     H80145  12.982   8.764   5.358 -1.1743  0.0409 -0.6738
  581MOL0     H80146  13.227   8.751   5.215 -0.6413  2.8661 -2.1666
  581MOL0     H80147  13.275   8.794   5.379 -0.1191  3.2189  1.1249
  581MOL0     H80148  13.105   8.989   5.362  2.0568  0.4549  0.8119
  581MOL0     H80149  13.088   8.952   5.183 -1.3320 -0.6472  1.6772
  581MOL0     H80150  13.211   9.120   5.184 -1.9882 -0.6810 -0.2205
  581MOL0     H80151  13.332   9.064   5.300 -2.4631 -0.2300  2.4954
  581MOL0     H80152  13.257   8.918   5.028 -0.4003 -1.4496  1.4137
  581MOL0     H80153  13.401   8.897   5.135 -0.3465 -1.1220  0.0125
  581MOL0     H80154  13.319   9.150   4.975  0.4642  0.4400 -1.0199
  581MOL0     H80155  13.432   9.034   4.911 -2.0724 -2.7487 -0.3567
  581MOL0     H80156  13.479   9.223   5.155  1.0631  2.7646 -1.4991
  581MOL0     H80157  13.548   9.236   5.001 -1.6385 -0.2705 -1.7829
  581MOL0     H80158  12.855   8.863   5.712  1.7474  1.1733  0.4685
  581MOL0     H80159  12.776   8.818   5.943 -0.5080  0.2653 -0.9635
  581MOL0     H80160  12.673   8.719   6.233 -0.8633 -0.6933 -1.6199
  581MOL0     H80161  12.498   8.702   6.405  0.0427  0.0891 -1.3830
  581MOL0     H80162  10.858   8.298   6.645  1.1448  1.2583  1.3533
  581MOL0     H80163  10.657   8.144   6.645  0.4536 -3.3920 -0.9487
  581MOL0     H80164  10.336   8.030   6.986  0.8796  0.8727 -1.4251
  581MOL0     H80165  10.124   7.918   7.016  1.7841  2.3112  0.7503
  581MOL0     H80166   9.997   7.759   7.141  0.3058  1.7259 -1.9317
  581MOL0     H80167   9.918   7.736   6.987  0.3424  1.2006 -0.2907
  581MOL0     H80168   9.851   7.507   7.059  0.4924 -0.7721  1.2826
  581MOL0     H80169   9.798   7.615   7.177 -0.9491 -0.8207  0.5824
  581MOL0     H80170  10.067   7.468   7.182 -0.0156  2.4164 -1.4926
  581MOL0     H80171  10.039   7.583   7.300 -0.5292 -0.6701  0.6985
  581MOL0     H80172  10.021   7.357   7.388  1.3758  1.4876 -2.4027
  581MOL0     H80173   9.861   7.335   7.314  0.1187 -1.5720  2.6947
  581MOL0     H80174   9.791   7.596   7.637  0.9318  0.5017  0.3242
  581MOL0     H80175  10.307   7.543   6.887 -0.6947 -0.0470 -1.4011
  581MOL0     H80176  10.552   7.681   6.709  1.0045 -0.5935 -0.8361
  581MOL0     H80177  10.634   7.664   6.874 -0.4262 -0.2007 -0.2419
  581MOL0     H80178  10.524   7.540   6.808 -2.7621 -0.1533  0.5034
  582MOL0     O80179   3.689   3.957   0.884 -0.2095 -0.5071 -0.5851
  582MOL0     C80180   3.673   3.849   0.840  0.0242 -0.1213  0.3869
  582MOL0     O80181   3.759   3.767   0.771  0.6607  0.3387  0.0317
  582MOL0     C80182   3.883   3.766   0.813 -0.1958  0.2936  0.1211
  582MOL0     C80183   3.977   3.736   0.717  0.4877  0.6034  0.0357
  582MOL0     C80184   4.110   3.712   0.755  0.7126 -0.5022 -0.4321
  582MOL0     C80185   4.152   3.746   0.886  0.0880 -0.4457  0.2195
  582MOL0     O80186   4.284   3.737   0.927 -0.1527 -0.0525 -0.1338
  582MOL0     C80187   4.388   3.713   0.824 -0.2128 -0.1870  0.8610
  582MOL0     C80188   4.519   3.712   0.887 -0.5867 -0.2980 -1.2618
  582MOL0     C80189   4.635   3.740   0.784  0.3479 -0.6303 -0.3415
  582MOL0     C80190   4.644   3.621   0.689  0.6800 -0.2936  0.2829
  582MOL0     C80191   4.727   3.663   0.569  0.3337  0.6200 -0.4508
  582MOL0     C80192   4.871   3.701   0.602 -1.1051  0.4797 -0.5257
  582MOL0     C80193   4.935   3.789   0.498  0.1217 -0.1496 -0.8876
  582MOL0     C80194   5.089   3.762   0.499 -0.2094  0.7047  0.3559
  582MOL0     N80195   5.123   3.649   0.400 -0.6511 -0.1784 -0.2837
  582MOL0     C80196   5.173   3.669   0.270 -0.5064  0.0725 -0.7407
  582MOL0     C80197   5.207   3.544   0.230 -0.7928 -0.0292 -0.5478
  582MOL0     C80198   5.258   3.515   0.086 -0.5511 -0.5009  0.2370
  582MOL0     C80199   5.180   3.411   0.016 -0.4110  0.0465  0.1432
  582MOL0     C80200   5.180   3.265   0.076  0.4172 -0.2800  0.5864
  582MOL0     C80201   5.311   3.205   0.112 -0.2173  0.1793  0.5829
  582MOL0     O80202   5.369   3.183  -0.018  0.5791  0.4141 -0.0300
  582MOL0     C80203   5.467   3.096  -0.037  0.9094  0.5574  0.4345
  582MOL0     C80204   5.528   3.008   0.054  0.6428 -0.2557  0.2426
  582MOL0     C80205   5.643   2.941   0.016  0.8442  0.5275  0.2690
  582MOL0     C80206   5.711   2.883   0.135  0.2760  0.7065  0.3305
  582MOL0     C80207   5.697   2.944  -0.120  0.9930  0.4714  0.5101
  582MOL0     C80208   5.812   2.866  -0.172  0.6067  0.5164 -0.0522
  582MOL0     O80209   5.834   2.866  -0.302 -0.6337 -0.6143  0.5755
  582MOL0     C80210   5.955   2.840  -0.356  0.2503  1.1424  0.6367
  582MOL0     C80211   6.065   2.927  -0.355  0.3813  0.3788 -0.4987
  582MOL0     C80212   6.183   2.902  -0.425  0.3970 -0.0122  0.7964
  582MOL0     C80213   6.196   2.784  -0.499 -0.4777  0.2308  0.7408
  582MOL0     O80214   6.312   2.755  -0.569  0.0250 -1.2845  0.4968
  582MOL0     C80215   6.305   2.745  -0.712 -0.4599  0.8159 -0.9367
  582MOL0     C80216   6.279   2.610  -0.780  0.2875  0.6294 -0.2105
  582MOL0     C80217   6.363   2.483  -0.737 -0.2231 -0.7856 -0.5242
  582MOL0     C80218   6.312   2.358  -0.809 -0.0249 -0.3137 -0.1512
  582MOL0     C80219   6.417   2.250  -0.808  0.5323 -1.1376  0.3561
  582MOL0     C80220   6.521   2.265  -0.919 -1.1581  0.0083 -0.1307
  582MOL0     C80221   6.605   2.143  -0.934 -0.0467  0.0685 -0.2293
  582MOL0     C80222   6.534   2.028  -0.999  0.0445 -0.0323 -0.3318
  582MOL0    Cl80223   6.619   1.868  -0.990  0.1411 -0.1941  0.2867
  582MOL0     C80224   6.077   2.710  -0.514 -0.5744  0.1369 -0.6473
  582MOL0     C80225   5.957   2.738  -0.445 -1.1064 -0.6566  0.3536
  582MOL0     O80226   5.891   2.828  -0.084  0.1149  0.0188  0.6317
  582MOL0     C80227   5.628   3.032  -0.207 -0.3132  0.4011 -0.2489
  582MOL0     C80228   5.516   3.103  -0.163 -0.1885 -0.0031  0.3995
  582MOL0     N80229   5.171   3.453   0.333  1.1465 -1.0398 -0.5873
  582MOL0     N80230   5.123   3.517   0.429 -0.2143 -0.5150  0.3607
  582MOL0     C80231   4.055   3.778   0.981  0.6518 -0.1880 -0.0450
  582MOL0     C80232   3.919   3.780   0.949  0.1209  0.3050  0.3569
  582MOL0     C80233   3.526   3.807   0.839  0.8366  0.1425 -0.0024
  582MOL0     C80234   3.498   3.699   0.749 -0.8778 -0.3659 -0.6443
  582MOL0     C80235   3.370   3.667   0.712  0.3913  1.0741  0.4103
  582MOL0     C80236   3.267   3.736   0.768  0.4201  0.0082  0.5187
  582MOL0     O80237   3.146   3.700   0.716  0.9169 -0.1098  0.3619
  582MOL0     C80238   3.032   3.752   0.786  0.8421 -0.2437 -0.5988
  582MOL0     C80239   2.917   3.680   0.719  0.7109  0.1129 -0.3583
  582MOL0     C80240   2.863   3.545   0.775  0.4218  0.6581  0.0713
  582MOL0     C80241   2.750   3.494   0.677 -0.2055 -0.3201  0.1036
  582MOL0     C80242   2.659   3.396   0.738 -0.3072 -0.3507 -1.7402
  582MOL0     C80243   2.575   3.333   0.790  0.5502  0.3666  0.3723
  582MOL0     C80244   3.290   3.831   0.862 -0.0131 -0.8006  0.7047
  582MOL0     C80245   3.416   3.873   0.898 -1.2773 -0.4755  0.0843
  582MOL0     C80246   3.427   3.997   0.980  0.2154 -0.0275 -0.6254
  582MOL0     H80247   3.950   3.708   0.615  1.0907 -0.7708  0.2263
  582MOL0     H80248   4.174   3.688   0.670 -0.2220  1.1194 -1.6542
  582MOL0     H80249   4.366   3.773   0.735  0.4336  1.3131  1.6857
  582MOL0     H80250   4.375   3.609   0.792 -0.6997  0.6398 -1.8842
  582MOL0     H80251   4.523   3.783   0.971  0.0089  0.3276 -1.8184
  582MOL0     H80252   4.533   3.616   0.936 -3.1357  0.3981  1.0990
  582MOL0     H80253   4.614   3.835   0.733 -0.9941 -1.5021 -1.4642
  582MOL0     H80254   4.729   3.759   0.837  0.3835  0.4545 -0.7635
  582MOL0     H80255   4.701   3.537   0.730  1.7115 -0.5853 -1.6244
  582MOL0     H80256   4.545   3.590   0.656  0.3872  1.6626 -0.8421
  582MOL0     H80257   4.676   3.750   0.526 -0.2225 -0.5540 -2.2485
  582MOL0     H80258   4.732   3.592   0.486 -0.8286  0.7730 -0.6808
  582MOL0     H80259   4.879   3.742   0.703  0.0278  0.5028 -0.6083
  582MOL0     H80260   4.924   3.605   0.605 -1.2265  0.4397  0.7014
  582MOL0     H80261   4.910   3.891   0.528 -1.9680 -0.8612 -0.0527
  582MOL0     H80262   4.902   3.766   0.396 -0.7132 -1.3105 -0.3877
  582MOL0     H80263   5.145   3.853   0.474 -1.2864  1.2660 -0.1182
  582MOL0     H80264   5.109   3.725   0.600  0.9121 -1.2011 -0.5213
  582MOL0     H80265   5.171   3.765   0.219 -3.6023 -0.1215 -1.1471
  582MOL0     H80266   5.360   3.477   0.098  0.4054  2.1274  1.1006
  582MOL0     H80267   5.249   3.608   0.030  0.2065 -0.3013  0.4376
  582MOL0     H80268   5.086   3.462  -0.010  0.1834 -0.3769 -3.3369
  582MOL0     H80269   5.223   3.403  -0.084 -1.2629 -0.4901 -0.1863
  582MOL0     H80270   5.118   3.262   0.166  1.7368 -1.6083  1.4920
  582MOL0     H80271   5.133   3.200   0.002 -0.0128  2.7068 -1.9968
  582MOL0     H80272   5.370   3.272   0.176 -1.1408 -2.0229  3.9956
  582MOL0     H80273   5.301   3.109   0.163 -0.2165 -1.1887 -1.8443
  582MOL0     H80274   5.489   2.988   0.154  1.8091  0.5299  0.8719
  582MOL0     H80275   5.721   2.775   0.122  1.1822  0.8129  0.0646
  582MOL0     H80276   5.660   2.890   0.231 -3.6336 -3.6416 -1.0148
  582MOL0     H80277   5.805   2.938   0.143  1.5200 -1.5168  1.8966
  582MOL0     H80278   6.062   3.019  -0.298 -1.8690  1.3813 -2.1251
  582MOL0     H80279   6.270   2.967  -0.430  0.0920  0.4028  0.7411
  582MOL0     H80280   6.229   2.817  -0.745 -1.6125  0.7414  1.3792
  582MOL0     H80281   6.394   2.791  -0.757 -1.5986  3.4761 -0.6315
  582MOL0     H80282   6.172   2.588  -0.781 -0.1301  2.3071  1.4327
  582MOL0     H80283   6.300   2.631  -0.886  0.7160 -0.8256 -0.4300
  582MOL0     H80284   6.352   2.478  -0.628  3.8855 -0.2112  0.0745
  582MOL0     H80285   6.464   2.512  -0.765 -0.6663 -1.6480 -3.3277
  582MOL0     H80286   6.287   2.388  -0.912 -2.5509 -0.9202  0.2272
  582MOL0     H80287   6.227   2.310  -0.761 -0.4989 -4.1489 -4.1658
  582MOL0     H80288   6.472   2.241  -0.714  1.4603 -0.9375 -0.1597
  582MOL0     H80289   6.362   2.157  -0.822  0.5372 -1.1892  0.6810
  582MOL0     H80290   6.577   2.355  -0.892 -3.0110  1.1564  0.0635
  582MOL0     H80291   6.475   2.287  -1.016 -0.9662 -0.6549 -0.3787
  582MOL0     H80292   6.648   2.106  -0.841  0.8758 -2.8078 -1.6839
  582MOL0     H80293   6.700   2.156  -0.988  0.1624  0.6800  0.2676
  582MOL0     H80294   6.505   2.047  -1.103  1.1432 -0.6205 -0.7670
  582MOL0     H80295   6.436   2.022  -0.952  0.2814  1.5104  0.4007
  582MOL0     H80296   6.078   2.616  -0.569 -0.6088 -0.9330  1.1021
  582MOL0     H80297   5.880   2.667  -0.473 -0.6821 -0.7798 -0.5738
  582MOL0     H80298   5.661   3.055  -0.307 -1.1046 -0.0079 -0.6116
  582MOL0     H80299   5.471   3.168  -0.238 -1.2074 -0.6710  0.4129
  582MOL0     H80300   4.083   3.804   1.083  1.1035 -0.9259  0.0260
  582MOL0     H80301   3.848   3.797   1.029 -1.3853 -0.0708 -0.8419
  582MOL0     H80302   3.568   3.632   0.701  1.0913  1.1185  0.0290
  582MOL0     H80303   3.342   3.574   0.663 -0.2708  1.8068 -0.6311
  582MOL0     H80304   3.031   3.727   0.893 -0.7595  1.8111 -0.0589
  582MOL0     H80305   3.014   3.859   0.779 -0.4825 -0.5143 -1.9150
  582MOL0     H80306   2.933   3.672   0.611  1.1683 -1.2113 -0.2056
  582MOL0     H80307   2.828   3.743   0.723  0.2230 -0.5729 -0.2632
  582MOL0     H80308   2.948   3.477   0.779  0.8728  1.2274  0.2689
  582MOL0     H80309   2.821   3.549   0.876  1.6999  2.2167  0.5736
  582MOL0     H80310   2.786   3.466   0.578 -0.7548  0.4736 -0.3271
  582MOL0     H80311   2.681   3.577   0.658  0.9036  1.4413  3.0286
  582MOL0     H80312   2.493   3.284   0.838 -1.2541  1.3485 -1.5704
  582MOL0     H80313   3.209   3.884   0.912  0.7501  2.4659 -1.2298
  582MOL0     H80314   3.454   4.080   0.914 -2.2466  0.3077 -1.3256
  582MOL0     H80315   3.326   4.019   1.016  1.1333  0.3787  1.8656
  582MOL0     H80316   3.489   3.989   1.070 -0.1306 -2.0888 -0.5169
  583MOL0     O80317   2.921   9.973   3.420 -0.3618 -0.1029 -0.3144
  583MOL0     C80318   2.867   9.890   3.344  0.3227 -0.9900 -0.1252
  583MOL0     O80319   2.905   9.756   3.322  0.5803  0.5474  0.2969
  583MOL0     C80320   3.005   9.712   3.406  0.4387  0.8915  0.0754
  583MOL0     C80321   2.982   9.679   3.545  0.0879  0.4114  0.0234
  583MOL0     C80322   3.084   9.619   3.619  0.3590 -0.1366  0.0225
  583MOL0     C80323   3.207   9.589   3.557 -0.3393  0.3536 -0.9434
  583MOL0     O80324   3.319   9.535   3.623  0.2915  0.0776 -0.1291
  583MOL0     C80325   3.338   9.583   3.757  0.3887 -0.9257 -0.3529
  583MOL0     C80326   3.455   9.506   3.816  0.1585  0.5067 -0.6597
  583MOL0     C80327   3.436   9.359   3.826 -0.2537  0.2546  0.3249
  583MOL0     C80328   3.334   9.328   3.919  0.7384 -0.1274  0.2993
  583MOL0     C80329   3.324   9.170   3.928  0.1155 -0.3341  0.1892
  583MOL0     C80330   3.215   9.135   4.037  0.2448  0.2703 -0.1537
  583MOL0     C80331   3.171   8.986   4.030 -0.3718 -0.3299 -0.4249
  583MOL0     C80332   3.272   8.874   4.069  0.0041  0.5777  0.4074
  583MOL0     N80333   3.215   8.786   4.165 -0.7087 -0.4844  0.2392
  583MOL0     C80334   3.169   8.821   4.289 -0.8104 -0.0187  0.4415
  583MOL0     C80335   3.144   8.704   4.346 -0.7849 -0.9520  0.6580
  583MOL0     C80336   3.123   8.692   4.486  0.7690 -0.0943 -0.0786
  583MOL0     C80337   2.992   8.767   4.515  0.0939  0.0436 -0.9095
  583MOL0     C80338   2.863   8.700   4.465 -0.3234 -1.7544  0.3753
  583MOL0     C80339   2.739   8.772   4.521 -0.1457 -0.2546  0.4883
  583MOL0     O80340   2.714   8.899   4.458  0.2384  0.2376  0.8197
  583MOL0     C80341   2.581   8.939   4.453  0.1029  0.2434 -0.0479
  583MOL0     C80342   2.492   8.893   4.548  0.8302  0.5048 -0.7553
  583MOL0     C80343   2.351   8.916   4.533  0.2578 -0.1996 -0.1063
  583MOL0     C80344   2.261   8.873   4.640 -0.1664  0.4119  0.2945
  583MOL0     C80345   2.311   8.988   4.421  0.0371  0.0275  0.3070
  583MOL0     C80346   2.170   9.016   4.385 -0.0066 -1.4555 -1.0728
  583MOL0     O80347   2.151   9.085   4.271  0.2726  0.0048 -0.1145
  583MOL0     C80348   2.032   9.146   4.238 -0.2892  1.0420  0.6273
  583MOL0     C80349   2.036   9.273   4.186 -0.1397  0.2790  0.4748
  583MOL0     C80350   1.919   9.338   4.149  0.9652  0.6337 -0.1703
  583MOL0     C80351   1.792   9.272   4.161  0.2185 -0.2714  0.0929
  583MOL0     O80352   1.680   9.352   4.117 -0.1637  0.0009 -0.7334
  583MOL0     C80353   1.551   9.321   4.166 -0.6873 -0.2721  0.1074
  583MOL0     C80354   1.449   9.399   4.089 -0.1405 -0.4918 -0.3444
  583MOL0     C80355   1.308   9.372   4.142  0.3663 -0.0592 -0.5872
  583MOL0     C80356   1.263   9.454   4.252 -0.7020 -0.6926  0.2932
  583MOL0     C80357   1.120   9.414   4.289  0.2184 -0.0573 -0.5959
  583MOL0     C80358   1.055   9.477   4.407  0.0167  0.3242 -0.1256
  583MOL0     C80359   0.927   9.393   4.445 -0.4444 -0.9420  0.2237
  583MOL0     C80360   0.835   9.381   4.325  0.7748 -0.8897  0.4638
  583MOL0    Cl80361   0.690   9.281   4.351 -0.0990  0.2591 -0.1893
  583MOL0     C80362   1.788   9.144   4.219  0.1980 -0.4012  0.2249
  583MOL0     C80363   1.905   9.080   4.249 -0.3129  0.8051 -0.0897
  583MOL0     O80364   2.077   8.992   4.466 -0.2856  0.3722  0.1786
  583MOL0     C80365   2.405   9.018   4.321 -0.1867  0.1803  0.3822
  583MOL0     C80366   2.538   8.991   4.334  0.4402 -0.1582  0.6664
  583MOL0     N80367   3.151   8.606   4.256 -0.1573  0.8612 -0.1702
  583MOL0     N80368   3.202   8.652   4.146  0.6490  0.0365 -0.0009
  583MOL0     C80369   3.224   9.612   3.422 -0.9499 -0.8319 -0.7299
  583MOL0     C80370   3.126   9.672   3.349  0.5563  1.2597 -0.1939
  583MOL0     C80371   2.749   9.928   3.264  0.4164  0.0858 -0.5081
  583MOL0     C80372   2.679   9.833   3.188 -0.3284  0.4174 -0.4085
  583MOL0     C80373   2.552   9.856   3.142 -0.2451 -0.1018 -0.2573
  583MOL0     C80374   2.493   9.982   3.143 -0.0568  0.1504 -0.2223
  583MOL0     O80375   2.378   9.995   3.071  0.8424  0.6085  0.5032
  583MOL0     C80376   2.289  10.108   3.099 -0.5776  0.1385 -0.5125
  583MOL0     C80377   2.151  10.079   3.030 -0.0927 -0.5464 -0.4230
  583MOL0     C80378   2.043  10.188   3.044  0.6359 -0.1385 -0.7319
  583MOL0     C80379   1.993  10.199   3.187 -0.3998  0.3153 -0.2383
  583MOL0     C80380   1.877  10.290   3.194  0.1463  0.6588  0.0718
  583MOL0     C80381   1.798  10.386   3.184 -0.1829  0.4194  0.3196
  583MOL0     C80382   2.573  10.089   3.198 -0.3340  0.0438 -0.2971
  583MOL0     C80383   2.702  10.067   3.257 -0.4432  0.8008 -0.1417
  583MOL0     C80384   2.762  10.178   3.339  0.2241 -0.0053 -0.0829
  583MOL0     H80385   2.896   9.698   3.609  0.9009  5.3031 -0.0021
  583MOL0     H80386   3.066   9.588   3.721 -0.1970  1.2593  0.3649
  583MOL0     H80387   3.242   9.564   3.806  1.3551  2.9268  3.6089
  583MOL0     H80388   3.359   9.690   3.756  0.0586 -0.8375  1.0828
  583MOL0     H80389   3.538   9.544   3.756  1.7803 -3.1944 -0.9929
  583MOL0     H80390   3.471   9.547   3.916  4.2310  0.8218 -1.2685
  583MOL0     H80391   3.409   9.320   3.727  1.4248 -1.0181  0.3204
  583MOL0     H80392   3.531   9.306   3.830 -0.0152  0.4262 -1.7330
  583MOL0     H80393   3.376   9.353   4.016  2.7673  0.2350 -0.6163
  583MOL0     H80394   3.233   9.363   3.897 -0.3836 -2.0884  2.0087
  583MOL0     H80395   3.420   9.119   3.936  0.3283 -0.1877 -1.1967
  583MOL0     H80396   3.278   9.148   3.831  0.5613  3.6634 -1.1127
  583MOL0     H80397   3.259   9.147   4.136 -0.3281 -1.4966  0.3477
  583MOL0     H80398   3.127   9.200   4.034  0.4282  0.5984  1.0854
  583MOL0     H80399   3.152   8.970   3.924  3.2376  0.8893 -1.3697
  583MOL0     H80400   3.082   8.978   4.094  2.3637  2.2633  4.3098
  583MOL0     H80401   3.302   8.815   3.982  0.2550  0.2301  0.7224
  583MOL0     H80402   3.359   8.918   4.119  0.7981 -0.9618  0.4377
  583MOL0     H80403   3.161   8.922   4.326 -0.5556 -0.6447  2.3379
  583MOL0     H80404   3.215   8.721   4.537  0.7735  1.2735 -0.8115
  583MOL0     H80405   3.114   8.585   4.509  0.9377 -1.0512 -3.7606
  583MOL0     H80406   2.993   8.779   4.624  1.3428 -1.8864 -0.6564
  583MOL0     H80407   3.002   8.869   4.476 -0.5247  0.3407 -0.3302
  583MOL0     H80408   2.845   8.707   4.357  0.7410 -0.9187  0.2407
  583MOL0     H80409   2.864   8.595   4.497  0.2703 -1.6581  0.6734
  583MOL0     H80410   2.656   8.708   4.488  1.1443 -1.5695 -0.2942
  583MOL0     H80411   2.735   8.803   4.625 -4.5479  1.1103  0.1305
  583MOL0     H80412   2.527   8.842   4.637  3.6137  4.6923  0.8461
  583MOL0     H80413   2.319   8.823   4.719 -0.9557  1.1020  1.3182
  583MOL0     H80414   2.193   8.806   4.586  1.7660 -0.3825 -1.2981
  583MOL0     H80415   2.209   8.956   4.687  2.2618  2.6777 -0.7543
  583MOL0     H80416   2.131   9.325   4.173 -1.1643  2.1220  0.0162
  583MOL0     H80417   1.917   9.438   4.107  1.9866 -0.4523 -3.0465
  583MOL0     H80418   1.533   9.213   4.169 -1.9485 -0.0704  0.5972
  583MOL0     H80419   1.549   9.354   4.270 -0.3317  2.3619 -0.6510
  583MOL0     H80420   1.489   9.500   4.079  0.7335 -0.7544  0.3547
  583MOL0     H80421   1.451   9.348   3.992  1.6806 -2.7037  0.7732
  583MOL0     H80422   1.298   9.265   4.160 -1.0542 -0.6134 -3.9175
  583MOL0     H80423   1.228   9.387   4.069 -2.1159  2.3367  2.2990
  583MOL0     H80424   1.276   9.561   4.235 -1.3317 -0.3800  1.6850
  583MOL0     H80425   1.336   9.435   4.331  0.3856  2.0220  0.0447
  583MOL0     H80426   1.066   9.438   4.197  1.2297 -0.6882 -1.3782
  583MOL0     H80427   1.112   9.305   4.294  5.0692 -0.8173 -3.0406
  583MOL0     H80428   1.035   9.583   4.386 -2.9624 -0.1806 -0.1915
  583MOL0     H80429   1.128   9.484   4.489 -0.7456  0.6735  0.5364
  583MOL0     H80430   0.886   9.459   4.522  2.0588  1.6797 -0.5165
  583MOL0     H80431   0.963   9.295   4.478  0.2265 -0.2602  1.6027
  583MOL0     H80432   0.888   9.322   4.250 -1.4786 -2.6704  0.1675
  583MOL0     H80433   0.801   9.483   4.302  1.7903  0.0903  2.9906
  583MOL0     H80434   1.694   9.092   4.236 -0.0704  0.0212  0.0333
  583MOL0     H80435   1.902   8.979   4.287  0.7870  1.1747  1.0819
  583MOL0     H80436   2.377   9.076   4.234 -0.2724  1.6113  1.3325
  583MOL0     H80437   2.602   9.012   4.249  2.0165 -4.6888  0.4607
  583MOL0     H80438   3.311   9.579   3.366 -0.1112 -2.7063  1.4853
  583MOL0     H80439   3.153   9.694   3.246  1.0826  0.6209 -0.1988
  583MOL0     H80440   2.701   9.727   3.175 -2.4516 -0.2884  1.2768
  583MOL0     H80441   2.490   9.777   3.100  1.2242  0.4562 -3.8296
  583MOL0     H80442   2.279  10.126   3.207  3.8431  1.0249 -0.0645
  583MOL0     H80443   2.336  10.195   3.053  2.0290 -1.0568 -0.3252
  583MOL0     H80444   2.113   9.984   3.067 -1.3422  0.1115  0.0340
  583MOL0     H80445   2.178  10.060   2.926 -0.1435 -1.7456 -0.2323
  583MOL0     H80446   2.089  10.277   3.000 -2.5670  1.5278 -1.0010
  583MOL0     H80447   1.958  10.164   2.980 -0.4705 -1.2334  1.0502
  583MOL0     H80448   2.069  10.236   3.257 -1.2726 -0.7584  1.3352
  583MOL0     H80449   1.964  10.097   3.216  3.5423 -1.5443 -1.9284
  583MOL0     H80450   1.736  10.471   3.166 -2.4654 -1.4203 -1.0354
  583MOL0     H80451   2.531  10.189   3.204  2.0339  1.0186  2.0909
  583MOL0     H80452   2.727  10.278   3.313 -0.1261  0.5451  2.2750
  583MOL0     H80453   2.739  10.164   3.445  5.5676 -0.9513  1.2483
  583MOL0     H80454   2.870  10.186   3.329  0.1044 -0.4279 -2.1866
  584MOL0     O80455   9.334   2.237  10.530  0.8296 -0.0100  0.0700
  584MOL0     C80456   9.330   2.237  10.652 -0.6296  0.8750  0.0039
  584MOL0     O80457   9.322   2.343  10.740 -0.0799 -0.0813  0.7008
  584MOL0     C80458   9.357   2.469  10.709 -0.7638 -0.0945  0.6091
  584MOL0     C80459   9.363   2.556  10.820 -0.0076 -0.0775  0.6252
  584MOL0     C80460   9.374   2.697  10.788 -0.7198  1.4077 -0.9645
  584MOL0     C80461   9.400   2.748  10.659  0.0788  0.3489  0.3790
  584MOL0     O80462   9.430   2.887  10.649 -0.3446  0.2280 -0.1695
  584MOL0     C80463   9.446   2.943  10.512  0.7549  0.4002 -0.0342
  584MOL0     C80464   9.498   3.086  10.505  0.1470  0.5806 -0.8101
  584MOL0     C80465   9.605   3.110  10.614 -0.1643 -0.4283 -0.7552
  584MOL0     C80466   9.570   3.236  10.697  0.4330  0.1183  0.2183
  584MOL0     C80467   9.614   3.366  10.619  0.4180  0.3482  0.2312
  584MOL0     C80468   9.585   3.488  10.697 -0.3130 -0.1523 -0.0755
  584MOL0     C80469   9.576   3.622  10.615 -0.2921  0.1045  0.5482
  584MOL0     C80470   9.502   3.732  10.694  0.4109 -0.0130  0.1508
  584MOL0     N80471   9.549   3.740  10.834  0.3631 -0.3903  0.8248
  584MOL0     C80472   9.635   3.827  10.891 -0.3634  0.1015  0.8559
  584MOL0     C80473   9.616   3.818  11.020  0.0258 -0.5312  0.4536
  584MOL0     C80474   9.693   3.895  11.121  0.1391 -0.1492 -0.0233
  584MOL0     C80475   9.786   3.800  11.193  0.2843  0.6069  0.2305
  584MOL0     C80476   9.711   3.767  11.328  0.0169  0.1412  0.3529
  584MOL0     C80477   9.779   3.654  11.401  0.4583  0.4162 -0.7772
  584MOL0     O80478   9.920   3.684  11.416  0.6400  0.1417  0.1887
  584MOL0     C80479  10.002   3.585  11.381 -0.4933 -0.8229  0.7044
  584MOL0     C80480  10.053   3.494  11.469 -0.4511  0.6687 -0.1070
  584MOL0     C80481  10.130   3.385  11.438  0.8719 -0.0162  0.7133
  584MOL0     C80482  10.169   3.282  11.545  0.3059 -0.4049 -0.1179
  584MOL0     C80483  10.182   3.385  11.297 -0.2455 -0.1944  0.2700
  584MOL0     C80484  10.264   3.273  11.251 -0.4073 -0.0117 -0.2162
  584MOL0     O80485  10.270   3.250  11.116 -0.3465  0.1834 -0.3931
  584MOL0     C80486  10.283   3.115  11.069 -0.7443 -0.2351  0.3504
  584MOL0     C80487  10.193   3.018  11.100 -0.0178  0.4160  0.3601
  584MOL0     C80488  10.192   2.889  11.052  0.4927  0.1111  0.2502
  584MOL0     C80489  10.302   2.858  10.963 -0.1622 -0.7373  0.0836
  584MOL0     O80490  10.316   2.735  10.898 -0.3209 -0.5848 -0.1580
  584MOL0     C80491  10.240   2.627  10.951  0.0553 -0.5793 -0.1333
  584MOL0     C80492  10.276   2.494  10.883  0.2642 -0.3386  0.0299
  584MOL0     C80493  10.205   2.379  10.940 -0.3837  0.1069 -0.4454
  584MOL0     C80494  10.212   2.263  10.835 -0.3334  0.8672  0.1611
  584MOL0     C80495  10.167   2.134  10.898 -0.5622  0.5401 -0.7361
  584MOL0     C80496  10.177   2.021  10.797 -0.4582 -0.2213  0.1334
  584MOL0     C80497  10.096   1.896  10.842  0.0919 -0.5788  0.8311
  584MOL0     C80498   9.943   1.917  10.876  0.9055 -0.1661 -0.8487
  584MOL0    Cl80499   9.850   1.956  10.737 -0.1123 -0.1701 -0.0925
  584MOL0     C80500  10.403   2.957  10.936  0.2359  0.0341 -0.7698
  584MOL0     C80501  10.387   3.084  10.979  0.2325 -0.2494  1.2337
  584MOL0     O80502  10.335   3.204  11.331  0.2477  0.1095  0.3899
  584MOL0     C80503  10.145   3.487  11.208  0.2663 -0.0991 -0.6756
  584MOL0     C80504  10.051   3.593  11.248  0.0341 -0.2167 -0.2454
  584MOL0     N80505   9.520   3.731  11.048  0.3876  0.0774  0.4634
  584MOL0     N80506   9.494   3.676  10.935  0.0635  0.6308  0.5518
  584MOL0     C80507   9.407   2.650  10.553 -0.2769  0.1443  0.3052
  584MOL0     C80508   9.377   2.513  10.577  0.3165 -0.8145 -0.6760
  584MOL0     C80509   9.296   2.108  10.715  0.1488  0.6076 -0.1518
  584MOL0     C80510   9.219   2.109  10.838 -0.3769  0.1884 -0.2123
  584MOL0     C80511   9.179   1.996  10.901  0.5962  0.1322 -0.2059
  584MOL0     C80512   9.222   1.867  10.864  0.8613  0.2056  0.0641
  584MOL0     O80513   9.160   1.763  10.940  0.0678  0.4923  0.7407
  584MOL0     C80514   9.137   1.635  10.871  0.2698  0.7150 -0.9546
  584MOL0     C80515   9.240   1.524  10.901 -0.1016  0.4520 -0.8860
  584MOL0     C80516   9.173   1.384  10.939  0.1534 -0.2329 -0.2291
  584MOL0     C80517   9.277   1.276  10.967 -0.4998  0.0919 -0.2369
  584MOL0     C80518   9.377   1.263  10.856 -0.4405  0.6392 -0.3779
  584MOL0     C80519   9.469   1.253  10.774  0.2003 -0.7903 -0.7064
  584MOL0     C80520   9.312   1.863  10.758  0.6920 -0.6223  0.4004
  584MOL0     C80521   9.346   1.982  10.685  0.2457  0.8019 -0.0959
  584MOL0     C80522   9.451   1.973  10.577 -0.0975  0.4297  0.0441
  584MOL0     H80523   9.346   2.504  10.914 -1.0846 -0.0066  0.4884
  584MOL0     H80524   9.383   2.757  10.878 -0.2111 -0.9867  0.6743
  584MOL0     H80525   9.346   2.934  10.469  1.1464 -0.1107 -0.8453
  584MOL0     H80526   9.512   2.883  10.449 -0.5809  0.3691 -1.4492
  584MOL0     H80527   9.543   3.111  10.408  1.1358  2.0700 -0.0007
  584MOL0     H80528   9.417   3.158  10.517  1.8011  2.5116 -0.5829
  584MOL0     H80529   9.614   3.021  10.678  3.3289 -0.4297 -1.0950
  584MOL0     H80530   9.702   3.125  10.567 -0.7247 -0.6630 -2.0363
  584MOL0     H80531   9.462   3.231  10.715  0.1015 -2.1341 -1.8927
  584MOL0     H80532   9.632   3.218  10.786  0.5435  1.6587  0.4689
  584MOL0     H80533   9.564   3.379  10.523  2.6195  2.1645 -0.7815
  584MOL0     H80534   9.723   3.366  10.604  0.2401 -3.2715 -2.3913
  584MOL0     H80535   9.490   3.472  10.749  1.0587  1.0905  3.1023
  584MOL0     H80536   9.661   3.503  10.775  0.0123  2.4619 -0.8063
  584MOL0     H80537   9.516   3.607  10.525  1.3760  2.7597 -1.1543
  584MOL0     H80538   9.673   3.665  10.588 -1.2940  1.7273 -0.6177
  584MOL0     H80539   9.520   3.827  10.641 -0.8395 -1.4337 -3.1033
  584MOL0     H80540   9.396   3.707  10.690  0.3411  0.0551 -5.0388
  584MOL0     H80541   9.711   3.896  10.856  2.4701 -4.1094 -2.4968
  584MOL0     H80542   9.616   3.941  11.183 -0.6983 -1.7592  0.1767
  584MOL0     H80543   9.747   3.976  11.070 -0.5170  1.8424  2.2314
  584MOL0     H80544   9.792   3.712  11.129  0.4394  0.4512  0.4541
  584MOL0     H80545   9.890   3.831  11.213  0.1545  1.4668 -0.3647
  584MOL0     H80546   9.701   3.857  11.389 -1.1148 -1.0818  2.0557
  584MOL0     H80547   9.615   3.726  11.296  0.5692  0.2843 -1.6262
  584MOL0     H80548   9.727   3.636  11.496  0.7114  1.9597 -0.3062
  584MOL0     H80549   9.775   3.563  11.341 -1.8731  0.9774 -1.5771
  584MOL0     H80550  10.025   3.499  11.574  2.0114  0.2028  0.6435
  584MOL0     H80551  10.142   3.321  11.644  0.9563  2.0332 -0.8441
  584MOL0     H80552  10.276   3.261  11.544  0.3448 -0.2348 -1.8373
  584MOL0     H80553  10.115   3.187  11.539 -0.6566  0.1805 -1.1344
  584MOL0     H80554  10.120   3.049  11.174 -0.8674 -2.2526  0.7393
  584MOL0     H80555  10.109   2.821  11.068  0.6772 -0.2924 -0.4727
  584MOL0     H80556  10.252   2.615  11.059  0.8546  2.8621  0.2821
  584MOL0     H80557  10.134   2.646  10.929 -0.5478 -2.2295  1.0777
  584MOL0     H80558  10.261   2.492  10.775 -1.3845  0.8257  0.1947
  584MOL0     H80559  10.384   2.480  10.897  0.3516 -0.2014 -0.5095
  584MOL0     H80560  10.099   2.393  10.962 -0.1207 -0.6864  1.4672
  584MOL0     H80561  10.264   2.352  11.027  0.2815 -0.2780 -1.0071
  584MOL0     H80562  10.312   2.249  10.792 -0.0286  2.1924  0.3776
  584MOL0     H80563  10.149   2.289  10.750 -0.0116  2.0545  0.2526
  584MOL0     H80564  10.229   2.117  10.986 -1.5234  2.4633  0.3785
  584MOL0     H80565  10.064   2.160  10.925 -0.2605  0.6338  0.3444
  584MOL0     H80566  10.280   1.986  10.787  0.6644  2.4670  1.3834
  584MOL0     H80567  10.131   2.049  10.702 -0.6741 -1.0923 -0.0326
  584MOL0     H80568  10.156   1.851  10.922  0.8838  0.1423  0.6532
  584MOL0     H80569  10.086   1.825  10.759 -0.7865 -0.9124  1.2095
  584MOL0     H80570   9.929   2.003  10.942  0.7666 -0.0838 -0.9845
  584MOL0     H80571   9.899   1.827  10.920 -2.2635  1.4981 -0.2294
  584MOL0     H80572  10.496   2.930  10.886 -0.6702 -2.3883 -1.2979
  584MOL0     H80573  10.457   3.155  10.935  0.1923 -0.0629  1.4680
  584MOL0     H80574  10.183   3.499  11.107  1.4511 -0.9027 -0.3453
  584MOL0     H80575  10.006   3.660  11.175 -2.5737 -0.6211  0.8670
  584MOL0     H80576   9.406   2.667  10.445 -2.3133 -5.3341 -0.8902
  584MOL0     H80577   9.365   2.457  10.485 -1.2825 -1.6163 -0.0194
  584MOL0     H80578   9.175   2.202  10.872 -2.0771 -0.5737 -0.2028
  584MOL0     H80579   9.106   2.000  10.980  0.6943 -0.3828 -0.0844
  584MOL0     H80580   9.042   1.591  10.901  0.9359 -1.0838 -1.3759
  584MOL0     H80581   9.138   1.656  10.764  0.5428  1.0271 -0.8940
  584MOL0     H80582   9.308   1.558  10.980 -0.6314  1.5279 -0.8864
  584MOL0     H80583   9.281   1.505  10.801 -0.5771 -1.2090 -0.7961
  584MOL0     H80584   9.094   1.393  11.013  0.1117 -1.6646 -0.0637
  584MOL0     H80585   9.116   1.340  10.856  0.6730 -2.3636  0.4757
  584MOL0     H80586   9.222   1.184  10.990 -4.0521  1.9851 -0.4886
  584MOL0     H80587   9.333   1.311  11.054 -0.3106  1.9687 -1.0651
  584MOL0     H80588   9.543   1.249  10.697  1.6909  3.4134  0.1945
  584MOL0     H80589   9.354   1.773  10.713 -2.3580 -1.9056 -0.1782
  584MOL0     H80590   9.421   2.020  10.483 -2.4450  1.8485  1.4036
  584MOL0     H80591   9.547   2.011  10.613  0.2527  0.5484 -0.9729
  584MOL0     H80592   9.476   1.867  10.560  0.4109  0.6268 -0.4737
  585MOL0     O80593   8.060   0.494   2.933  0.4015 -0.0438 -0.2771
  585MOL0     C80594   8.146   0.410   2.908  0.0604 -0.1987  0.6196
  585MOL0     O80595   8.279   0.435   2.901  0.4574  0.2091  0.2512
  585MOL0     C80596   8.327   0.559   2.860 -0.1407  1.0262  0.4428
  585MOL0     C80597   8.448   0.594   2.914 -0.7959  0.4021 -0.0394
  585MOL0     C80598   8.514   0.718   2.885  0.3617  0.5648  0.8857
  585MOL0     C80599   8.456   0.793   2.782  0.1501 -0.7683 -0.3279
  585MOL0     O80600   8.505   0.915   2.741  0.6336 -0.6228  0.0841
  585MOL0     C80601   8.649   0.957   2.762 -0.0536 -0.7631  0.0093
  585MOL0     C80602   8.677   1.096   2.703 -0.4163  0.2272 -0.4165
  585MOL0     C80603   8.820   1.108   2.649  0.9485 -0.9012 -0.1086
  585MOL0     C80604   8.929   1.088   2.754 -0.3518 -0.0214 -0.5331
  585MOL0     C80605   9.064   1.100   2.698 -0.3206  0.2016 -0.8294
  585MOL0     C80606   9.184   1.124   2.806  1.4539  0.1874  0.3925
  585MOL0     C80607   9.318   1.082   2.752 -0.0547 -0.9442  0.1866
  585MOL0     C80608   9.336   0.937   2.708 -0.4685 -1.6333 -0.4892
  585MOL0     N80609   9.476   0.915   2.668 -0.2456 -1.0079 -0.3495
  585MOL0     C80610   9.579   0.866   2.738 -0.1327  1.1225 -0.0308
  585MOL0     C80611   9.684   0.859   2.653 -0.2280  0.3747  0.7481
  585MOL0     C80612   9.823   0.806   2.687 -0.0701  0.0194 -0.5074
  585MOL0     C80613   9.932   0.914   2.676 -0.6677  0.0532 -0.6115
  585MOL0     C80614  10.059   0.848   2.732 -0.3106 -0.2897  0.1324
  585MOL0     C80615  10.142   0.750   2.640 -0.6356  0.0519 -0.0913
  585MOL0     O80616  10.250   0.705   2.718 -0.2927  0.0196  0.6185
  585MOL0     C80617  10.321   0.595   2.675  0.9091  0.6871  0.2218
  585MOL0     C80618  10.380   0.517   2.777  0.8259  0.0334 -0.2905
  585MOL0     C80619  10.467   0.410   2.745 -0.1367  0.0681 -0.8761
  585MOL0     C80620  10.544   0.354   2.866 -0.0184  0.4180  0.1024
  585MOL0     C80621  10.496   0.383   2.611  0.6548 -0.4718 -1.1596
  585MOL0     C80622  10.596   0.282   2.563 -0.6474  0.3435  0.0385
  585MOL0     O80623  10.628   0.294   2.423 -0.2356 -0.3367 -0.1975
  585MOL0     C80624  10.722   0.207   2.368  0.1991  0.2351  0.7219
  585MOL0     C80625  10.711   0.175   2.234 -0.0856 -0.1325 -0.1213
  585MOL0     C80626  10.797   0.085   2.173 -1.0178  0.1566 -0.7321
  585MOL0     C80627  10.914   0.044   2.236  0.8246 -0.0883  0.0702
  585MOL0     O80628  11.001  -0.025   2.155  0.2608  0.1724  0.3649
  585MOL0     C80629  11.131  -0.059   2.204 -0.3697  0.5233 -0.1419
  585MOL0     C80630  11.221  -0.113   2.091  0.2684 -0.0950 -1.0554
  585MOL0     C80631  11.254  -0.027   1.972  0.2314 -0.4933 -0.7773
  585MOL0     C80632  11.378  -0.080   1.904  0.0872 -0.0392  0.9568
  585MOL0     C80633  11.401   0.007   1.776 -0.2051  1.0704 -0.5830
  585MOL0     C80634  11.552   0.020   1.735 -0.6897  0.0995  0.2778
  585MOL0     C80635  11.628   0.131   1.818  0.4535 -0.1175 -0.8568
  585MOL0     C80636  11.777   0.145   1.784 -0.8833  0.6624  0.1158
  585MOL0    Cl80637  11.783   0.173   1.604  0.3881 -0.1937  0.6008
  585MOL0     C80638  10.931   0.079   2.366 -0.4884 -0.0881  0.1807
  585MOL0     C80639  10.842   0.164   2.439  0.4545 -0.0784  0.2573
  585MOL0     O80640  10.632   0.191   2.644 -0.1385  0.8777 -0.3058
  585MOL0     C80641  10.422   0.455   2.515 -0.3580  0.0967 -0.2112
  585MOL0     C80642  10.337   0.558   2.544 -1.4223 -0.8071  0.4304
  585MOL0     N80643   9.651   0.921   2.534  0.1196 -0.5704  0.3866
  585MOL0     N80644   9.525   0.946   2.545 -0.1452  0.7317  0.3883
  585MOL0     C80645   8.332   0.759   2.726 -0.2358  0.2564 -0.6412
  585MOL0     C80646   8.261   0.647   2.777  0.2638 -0.3116  0.7623
  585MOL0     C80647   8.120   0.266   2.896  0.5543  0.1394 -0.1789
  585MOL0     C80648   8.210   0.174   2.950 -0.1958 -0.3525  0.2749
  585MOL0     C80649   8.194   0.039   2.953 -0.5351 -0.1324  0.0986
  585MOL0     C80650   8.079  -0.020   2.897  1.2203 -0.0941  0.0620
  585MOL0     O80651   8.067  -0.156   2.918  0.1485  0.0585  0.0102
  585MOL0     C80652   7.943  -0.194   2.980 -0.1086  0.7920 -0.8296
  585MOL0     C80653   7.907  -0.138   3.119 -0.7243 -0.1287 -0.6125
  585MOL0     C80654   7.991  -0.205   3.220 -0.1413 -0.0086 -0.3006
  585MOL0     C80655   8.044  -0.116   3.331 -0.2039  0.5927  0.1376
  585MOL0     C80656   8.130  -0.193   3.423 -0.5116  0.8801  0.3972
  585MOL0     C80657   8.205  -0.259   3.492 -1.0033  0.1653  0.1750
  585MOL0     C80658   7.985   0.069   2.834  0.5140  0.2668 -0.5547
  585MOL0     C80659   8.005   0.212   2.843  0.8651  0.1756  0.3047
  585MOL0     C80660   7.895   0.299   2.782 -0.5532 -0.1653  0.0301
  585MOL0     H80661   8.490   0.515   2.975  2.1251  1.8253 -0.0405
  585MOL0     H80662   8.605   0.751   2.935  0.3640 -0.5415  1.6387
  585MOL0     H80663   8.714   0.886   2.711  2.5218  1.1570  0.4483
  585MOL0     H80664   8.685   0.950   2.865 -1.6997 -3.4876  0.5048
  585MOL0     H80665   8.607   1.122   2.624  1.1313 -0.2819 -2.0230
  585MOL0     H80666   8.653   1.167   2.783  2.0310  0.6844 -0.0027
  585MOL0     H80667   8.848   1.045   2.564  0.5590  0.3209 -1.1772
  585MOL0     H80668   8.832   1.211   2.613 -1.4840  0.3720  2.3599
  585MOL0     H80669   8.909   1.161   2.833  2.8991  2.6051 -1.9105
  585MOL0     H80670   8.916   0.991   2.804 -0.2958 -0.1594 -0.7857
  585MOL0     H80671   9.073   1.163   2.609  3.0591 -1.9568 -2.2466
  585MOL0     H80672   9.069   0.999   2.656  0.2772 -1.6563  3.1994
  585MOL0     H80673   9.176   1.232   2.821  2.2957  0.3931 -0.5086
  585MOL0     H80674   9.154   1.073   2.898 -0.3992 -2.4097 -1.4799
  585MOL0     H80675   9.390   1.089   2.833  0.3092 -1.0465 -0.1245
  585MOL0     H80676   9.343   1.155   2.674 -1.3486  0.4478  1.0200
  585MOL0     H80677   9.304   0.879   2.795 -0.8657 -0.0476  0.4651
  585MOL0     H80678   9.282   0.914   2.615 -1.6747 -0.3813 -0.1491
  585MOL0     H80679   9.570   0.843   2.844  0.6865 -0.9220 -0.3525
  585MOL0     H80680   9.846   0.730   2.612  0.3795 -0.3294 -0.0190
  585MOL0     H80681   9.823   0.756   2.784 -0.0923 -1.4441 -1.2341
  585MOL0     H80682   9.947   0.947   2.573  0.2903  2.7751  0.3105
  585MOL0     H80683   9.905   0.999   2.738 -0.0811 -1.7578  2.3212
  585MOL0     H80684  10.127   0.934   2.728  1.0011 -1.3169 -1.2908
  585MOL0     H80685  10.042   0.818   2.836  1.5815 -2.1797 -0.0067
  585MOL0     H80686  10.075   0.673   2.603 -1.4772  1.7610 -2.3520
  585MOL0     H80687  10.192   0.798   2.555  1.2041 -1.2304  0.2217
  585MOL0     H80688  10.359   0.548   2.879  1.6122  0.2154 -0.1724
  585MOL0     H80689  10.506   0.252   2.875 -1.9792  0.9440 -1.4873
  585MOL0     H80690  10.529   0.419   2.953 -2.1965 -1.3003  1.1075
  585MOL0     H80691  10.648   0.357   2.831 -0.2790 -2.0836 -1.1560
  585MOL0     H80692  10.624   0.218   2.186 -1.2976 -1.2258  0.9901
  585MOL0     H80693  10.768   0.048   2.075 -3.0563  0.0362 -0.1315
  585MOL0     H80694  11.181   0.023   2.256 -2.3325 -0.0997  2.9964
  585MOL0     H80695  11.125  -0.126   2.290  0.1976  0.9624  0.2371
  585MOL0     H80696  11.314  -0.153   2.131  0.2165 -1.4467 -2.2285
  585MOL0     H80697  11.174  -0.205   2.056 -1.7034  0.4902 -0.1175
  585MOL0     H80698  11.283   0.071   2.011  2.3764 -0.5665 -2.0238
  585MOL0     H80699  11.166  -0.019   1.907 -0.3857 -1.7923 -0.1422
  585MOL0     H80700  11.385  -0.188   1.892  0.1352  0.1244 -0.6256
  585MOL0     H80701  11.467  -0.071   1.967  2.5370 -0.1950 -2.2283
  585MOL0     H80702  11.346  -0.044   1.696  0.1263 -1.6119  0.7876
  585MOL0     H80703  11.363   0.110   1.782  2.8794  2.2337  1.8448
  585MOL0     H80704  11.561   0.058   1.633  2.1947  0.1130  0.4425
  585MOL0     H80705  11.601  -0.074   1.760  1.3849  0.7062 -1.2364
  585MOL0     H80706  11.616   0.112   1.925 -1.0225  1.4685 -0.7035
  585MOL0     H80707  11.576   0.224   1.795 -0.4457 -0.5231 -0.5093
  585MOL0     H80708  11.833   0.056   1.813 -0.6464  1.0180  0.7492
  585MOL0     H80709  11.812   0.237   1.831 -1.1619  1.2925 -0.8552
  585MOL0     H80710  11.022   0.037   2.409  0.0464  0.7562 -0.1042
  585MOL0     H80711  10.864   0.193   2.541  1.8032  0.8316 -0.2631
  585MOL0     H80712  10.435   0.422   2.413 -1.3744  3.0312 -1.3744
  585MOL0     H80713  10.295   0.611   2.459 -0.4346  1.8578  1.5049
  585MOL0     H80714   8.290   0.827   2.653 -2.7692  1.0154  1.4119
  585MOL0     H80715   8.160   0.618   2.747  0.3312  1.7514 -1.8206
  585MOL0     H80716   8.286   0.221   3.012 -1.0949 -1.1060  2.0516
  585MOL0     H80717   8.257  -0.036   3.001  0.1201  0.1476 -0.3257
  585MOL0     H80718   7.865  -0.166   2.909 -2.0392 -0.3624  0.7310
  585MOL0     H80719   7.922  -0.301   2.993 -0.1709  0.8379 -0.5408
  585MOL0     H80720   7.800  -0.152   3.139 -0.4195  0.7085  2.0463
  585MOL0     H80721   7.940  -0.034   3.126  1.2561 -0.8210  1.7614
  585MOL0     H80722   7.914  -0.269   3.263 -1.1622  0.1369 -1.8213
  585MOL0     H80723   8.069  -0.274   3.185  1.1890 -0.1248  2.6161
  585MOL0     H80724   7.957  -0.067   3.376 -0.2152 -0.1053  0.8929
  585MOL0     H80725   8.108  -0.042   3.282  0.7910 -0.9724 -0.9900
  585MOL0     H80726   8.290  -0.302   3.541 -0.3547 -0.3638 -1.3410
  585MOL0     H80727   7.906   0.020   2.779  1.5148 -0.0624 -1.7638
  585MOL0     H80728   7.936   0.363   2.703 -2.1008  1.9750  0.8720
  585MOL0     H80729   7.814   0.239   2.737 -0.9430  0.1360  0.3316
  585MOL0     H80730   7.845   0.354   2.862 -0.7642 -1.5028  0.8631
  586MOL0     O80731  10.926   5.859   7.856  0.0662  0.0445 -0.0664
  586MOL0     C80732  10.906   5.757   7.792  0.2956  0.0423 -0.9345
  586MOL0     O80733  10.997   5.657   7.792 -0.2082 -0.0513 -0.1724
  586MOL0     C80734  11.125   5.688   7.830  0.2643  0.5943 -0.0432
  586MOL0     C80735  11.205   5.790   7.779  0.0095  0.8324  0.1372
  586MOL0     C80736  11.337   5.795   7.836 -1.1491  0.0341  0.1268
  586MOL0     C80737  11.392   5.704   7.924 -0.1697  0.3230  0.0958
  586MOL0     O80738  11.530   5.689   7.949 -0.2769 -0.4874  0.2358
  586MOL0     C80739  11.627   5.774   7.881 -0.3956 -0.3208  0.2891
  586MOL0     C80740  11.761   5.746   7.957 -0.2903 -1.1740 -0.4298
  586MOL0     C80741  11.869   5.856   7.923  0.5671  0.3415  0.7493
  586MOL0     C80742  12.001   5.828   7.995 -0.6854  0.2000 -0.0963
  586MOL0     C80743  12.109   5.943   7.974  0.6334  1.0367 -0.4969
  586MOL0     C80744  12.240   5.896   8.046  0.8835 -1.2748 -0.6080
  586MOL0     C80745  12.353   6.006   8.044  0.4311  0.4306  0.4229
  586MOL0     C80746  12.483   5.964   8.117 -0.0742  0.1917 -0.2129
  586MOL0     N80747  12.595   6.053   8.119 -0.0047  0.4545  0.3064
  586MOL0     C80748  12.594   6.186   8.078 -0.2913 -1.1604 -0.3597
  586MOL0     C80749  12.722   6.228   8.099 -0.3229 -0.8269 -0.7679
  586MOL0     C80750  12.782   6.372   8.084 -0.8863  0.3387 -0.6686
  586MOL0     C80751  12.777   6.420   7.936  0.6415  0.3221 -0.6103
  586MOL0     C80752  12.841   6.319   7.835 -0.3463 -0.9916 -0.2059
  586MOL0     C80753  12.834   6.374   7.696 -0.4362  0.2934  0.3277
  586MOL0     O80754  12.909   6.495   7.682  0.0319 -0.2074 -0.1995
  586MOL0     C80755  12.943   6.533   7.553 -0.4230 -0.4558 -0.2644
  586MOL0     C80756  12.878   6.481   7.444 -0.1121 -0.2967  0.4990
  586MOL0     C80757  12.912   6.498   7.315 -0.8980 -0.1065  0.2240
  586MOL0     C80758  12.816   6.444   7.209 -0.4165 -0.9350  0.2669
  586MOL0     C80759  13.030   6.569   7.282  0.3179 -0.3132 -1.3210
  586MOL0     C80760  13.072   6.621   7.140 -0.5753 -0.0610  0.3487
  586MOL0     O80761  13.005   6.581   7.027  0.2447  0.0993 -0.1462
  586MOL0     C80762  13.075   6.569   6.906 -0.1343  0.1937 -0.6042
  586MOL0     C80763  13.216   6.564   6.874  0.7256  0.0432  1.3248
  586MOL0     C80764  13.254   6.549   6.737  0.6889 -0.5781 -0.1348
  586MOL0     C80765  13.169   6.520   6.635 -0.6375  0.6777  0.4079
  586MOL0     O80766  13.214   6.505   6.506  1.0473 -0.3448  0.4556
  586MOL0     C80767  13.139   6.566   6.394 -0.1411 -0.6754 -0.4472
  586MOL0     C80768  13.232   6.555   6.276 -1.1595 -0.1467  0.1219
  586MOL0     C80769  13.352   6.655   6.286 -0.1598  0.0934  0.3437
  586MOL0     C80770  13.438   6.629   6.164 -0.2097  0.4939  0.3796
  586MOL0     C80771  13.575   6.682   6.152  0.2258  0.3245  0.0783
  586MOL0     C80772  13.635   6.623   6.021 -0.5242 -0.1532 -0.7688
  586MOL0     C80773  13.773   6.680   5.975 -0.0244 -0.6566  0.6899
  586MOL0     C80774  13.880   6.644   6.074 -0.5258  0.6470 -0.2193
  586MOL0    Cl80775  13.884   6.750   6.214  0.1073  0.2634 -0.1223
  586MOL0     C80776  13.037   6.517   6.673 -0.4904  0.1809 -0.5961
  586MOL0     C80777  12.991   6.548   6.797  0.0996 -0.0028  0.0294
  586MOL0     O80778  13.157   6.713   7.131 -0.1869  0.0406 -0.1440
  586MOL0     C80779  13.108   6.619   7.391 -0.1914  0.1508 -1.3319
  586MOL0     C80780  13.068   6.595   7.524 -0.1193  0.0167  0.1942
  586MOL0     N80781  12.802   6.115   8.134 -0.5954  0.0837 -0.9835
  586MOL0     N80782  12.728   6.013   8.138  0.4593  0.2739  0.4616
  586MOL0     C80783  11.301   5.607   7.981  0.2484 -1.1216 -0.3787
  586MOL0     C80784  11.174   5.597   7.933 -0.9289  0.7753 -0.6856
  586MOL0     C80785  10.776   5.724   7.728 -0.0186  0.7707  0.8339
  586MOL0     C80786  10.759   5.588   7.696  0.0752  0.6340  0.5904
  586MOL0     C80787  10.634   5.551   7.635  0.5675  0.6750  0.2648
  586MOL0     C80788  10.537   5.649   7.599  0.8649  0.4021 -0.3689
  586MOL0     O80789  10.420   5.592   7.547 -0.1900  0.1690  0.2144
  586MOL0     C80790  10.394   5.634   7.412  0.2904 -0.0512 -0.0721
  586MOL0     C80791  10.289   5.534   7.351 -0.6099 -0.3176 -0.4115
  586MOL0     C80792  10.256   5.572   7.200 -0.3004  0.4414 -0.4579
  586MOL0     C80793  10.196   5.462   7.119  0.5319  0.1122 -0.3500
  586MOL0     C80794  10.314   5.366   7.099  0.4881 -1.0348  0.5389
  586MOL0     C80795  10.426   5.323   7.089  0.4925  0.0659 -0.1499
  586MOL0     C80796  10.553   5.787   7.628 -0.7862  1.1025  0.4887
  586MOL0     C80797  10.681   5.823   7.689 -0.0761  0.7986 -0.0380
  586MOL0     C80798  10.700   5.966   7.717 -0.0049 -0.0716  0.7103
  586MOL0     H80799  11.172   5.853   7.697 -2.4373  0.4726  0.7419
  586MOL0     H80800  11.398   5.873   7.792 -0.0338 -0.9486 -0.0996
  586MOL0     H80801  11.613   5.882   7.887  1.7000 -0.0181  0.5478
  586MOL0     H80802  11.633   5.751   7.774 -0.2734  1.3346 -0.0764
  586MOL0     H80803  11.740   5.747   8.064  0.1622 -2.1307 -0.3175
  586MOL0     H80804  11.805   5.652   7.921  3.8962  1.7156 -3.9516
  586MOL0     H80805  11.881   5.849   7.815  0.7214  0.5830  0.7503
  586MOL0     H80806  11.837   5.958   7.946  2.4820  1.2596 -0.4856
  586MOL0     H80807  11.990   5.808   8.102 -0.5682 -1.9930 -0.4462
  586MOL0     H80808  12.043   5.734   7.957 -1.3148 -0.8462  1.7155
  586MOL0     H80809  12.061   6.040   7.988  1.3885  1.9573 -3.5485
  586MOL0     H80810  12.128   5.940   7.866 -0.3519  2.4407 -0.7454
  586MOL0     H80811  12.220   5.869   8.150 -0.3874 -2.3644 -1.1064
  586MOL0     H80812  12.262   5.799   8.002 -0.4626 -2.1811  0.6343
  586MOL0     H80813  12.313   6.105   8.068 -0.7527  0.7028 -2.2274
  586MOL0     H80814  12.384   6.013   7.939 -0.2229 -1.0181  0.1109
  586MOL0     H80815  12.457   5.935   8.219 -0.7385 -1.4081 -0.7955
  586MOL0     H80816  12.523   5.878   8.061  1.7135  1.6642 -1.2992
  586MOL0     H80817  12.511   6.244   8.038  1.1224 -0.1398 -1.9153
  586MOL0     H80818  12.883   6.374   8.127 -1.4636  0.8834  0.7259
  586MOL0     H80819  12.727   6.440   8.150  0.6840 -1.3224  2.6006
  586MOL0     H80820  12.672   6.426   7.903 -0.2988  2.5602  2.3816
  586MOL0     H80821  12.822   6.519   7.936 -1.7111  1.6717  3.8389
  586MOL0     H80822  12.946   6.314   7.867  0.0266  1.5330 -0.8281
  586MOL0     H80823  12.791   6.223   7.847 -3.4739  0.7878  2.4910
  586MOL0     H80824  12.857   6.303   7.616 -3.5455  0.0963 -0.5107
  586MOL0     H80825  12.733   6.410   7.675 -0.6799  0.2137  1.3117
  586MOL0     H80826  12.778   6.440   7.457  0.1532 -2.2377 -2.5058
  586MOL0     H80827  12.874   6.377   7.146  0.5991  0.9901 -0.9431
  586MOL0     H80828  12.781   6.532   7.154 -3.0717 -1.2660  1.2697
  586MOL0     H80829  12.728   6.392   7.249 -1.9782  0.4235 -1.2498
  586MOL0     H80830  13.286   6.588   6.953  2.0130 -2.3968  1.0135
  586MOL0     H80831  13.359   6.568   6.715  0.2546  0.6411 -1.2833
  586MOL0     H80832  13.047   6.510   6.376 -0.3221 -0.2437 -0.8996
  586MOL0     H80833  13.094   6.665   6.408 -1.1548 -1.1931  0.0935
  586MOL0     H80834  13.278   6.456   6.265  1.7029  1.2290 -1.3273
  586MOL0     H80835  13.185   6.582   6.181  0.7074  4.2897  0.2365
  586MOL0     H80836  13.413   6.640   6.376 -1.3830 -0.3783  1.1203
  586MOL0     H80837  13.324   6.760   6.281  3.0271  1.1406  1.9158
  586MOL0     H80838  13.392   6.684   6.081  0.3921 -1.0464 -1.0270
  586MOL0     H80839  13.441   6.522   6.144  1.6305  0.8304 -1.5244
  586MOL0     H80840  13.577   6.791   6.150  0.4363  0.3224  0.1581
  586MOL0     H80841  13.633   6.655   6.241  2.4941  1.3829 -0.9980
  586MOL0     H80842  13.568   6.647   5.938 -2.5445 -3.0477 -0.1429
  586MOL0     H80843  13.639   6.515   6.037  1.8307 -0.3371 -2.1621
  586MOL0     H80844  13.779   6.786   5.949  0.3354 -0.6083  0.9628
  586MOL0     H80845  13.798   6.621   5.886 -3.3367 -0.9679 -0.1530
  586MOL0     H80846  13.975   6.649   6.020 -0.5415 -1.2784 -0.4905
  586MOL0     H80847  13.873   6.539   6.102 -0.7026  0.6007 -0.4337
  586MOL0     H80848  12.950   6.500   6.611 -0.3430  3.0411 -1.7154
  586MOL0     H80849  12.883   6.553   6.806  0.1156  3.9317 -0.1393
  586MOL0     H80850  13.204   6.666   7.371 -0.4207  1.1947 -0.0912
  586MOL0     H80851  13.126   6.631   7.609 -1.0956 -0.5450  1.1356
  586MOL0     H80852  11.340   5.529   8.046 -0.2148  0.2942  1.6738
  586MOL0     H80853  11.112   5.520   7.977  0.4684 -0.3840 -0.7049
  586MOL0     H80854  10.833   5.511   7.718  0.8000 -0.3561 -4.1892
  586MOL0     H80855  10.621   5.447   7.608  1.1071  1.1763 -2.1469
  586MOL0     H80856  10.351   5.734   7.404 -1.0287 -0.4844  1.1689
  586MOL0     H80857  10.488   5.627   7.358 -0.7184 -1.1678 -1.7778
  586MOL0     H80858  10.195   5.543   7.407 -0.2048 -3.6451  0.9866
  586MOL0     H80859  10.334   5.435   7.358 -0.5823 -0.2153  1.3557
  586MOL0     H80860  10.185   5.655   7.209 -0.5256  0.1583  0.4864
  586MOL0     H80861  10.349   5.606   7.154 -1.7228  1.7539 -2.5122
  586MOL0     H80862  10.158   5.493   7.021 -1.1662  2.7504  1.0311
  586MOL0     H80863  10.107   5.425   7.171  0.2739 -1.2248 -1.6767
  586MOL0     H80864  10.517   5.270   7.072  0.3158  0.0867 -1.3009
  586MOL0     H80865  10.494   5.875   7.604  2.1807  3.3789  1.0109
  586MOL0     H80866  10.754   6.003   7.629  1.2110 -0.6718  1.1816
  586MOL0     H80867  10.604   6.019   7.710 -0.9814 -1.8317  0.3011
  586MOL0     H80868  10.742   5.990   7.815 -0.9781  0.3363  1.0467
  587MOL0     O80869   7.543   9.700   5.785  0.4103 -0.1325  0.2560
  587MOL0     C80870   7.497   9.584   5.818 -1.1424 -0.5247  0.5352
  587MOL0     O80871   7.563   9.483   5.857 -0.9044  0.0467  0.6320
  587MOL0     C80872   7.697   9.484   5.892 -0.4430  0.7040  0.7488
  587MOL0     C80873   7.777   9.592   5.937  0.8953  0.4844 -0.5813
  587MOL0     C80874   7.912   9.574   5.956 -0.9607  0.5132  0.2688
  587MOL0     C80875   7.976   9.456   5.936  0.0447 -0.1606 -0.4129
  587MOL0     O80876   8.117   9.453   5.938  0.0258 -0.2656 -0.0742
  587MOL0     C80877   8.169   9.367   6.044 -1.2105 -0.1717 -1.1679
  587MOL0     C80878   8.313   9.331   6.004  0.2459 -0.4265  0.7390
  587MOL0     C80879   8.316   9.241   5.873 -0.8963 -0.5219  0.2239
  587MOL0     C80880   8.231   9.111   5.879 -0.2853 -0.9938 -0.2060
  587MOL0     C80881   8.274   9.021   5.773  0.2515  0.4912  0.7947
  587MOL0     C80882   8.244   8.876   5.805  0.5430  0.2938  0.5023
  587MOL0     C80883   8.266   8.774   5.692 -0.0339  0.1158  0.0721
  587MOL0     C80884   8.244   8.630   5.732  0.7125  0.0771  0.2745
  587MOL0     N80885   8.283   8.540   5.623  0.5147  0.2496 -1.0381
  587MOL0     C80886   8.412   8.525   5.575 -0.3640  1.2939 -0.2899
  587MOL0     C80887   8.412   8.398   5.526 -1.4622  0.3374  0.3416
  587MOL0     C80888   8.521   8.326   5.447  0.5997  0.5377  0.3445
  587MOL0     C80889   8.469   8.274   5.314  0.4744 -0.0772  0.0637
  587MOL0     C80890   8.591   8.216   5.230 -0.0408  0.1999  0.0015
  587MOL0     C80891   8.533   8.131   5.115 -0.4838 -0.2720 -0.3773
  587MOL0     O80892   8.642   8.107   5.020 -0.1357  0.3860  0.0708
  587MOL0     C80893   8.741   8.018   5.047  0.0919  0.2408  0.0099
  587MOL0     C80894   8.840   8.020   4.954  0.2286  0.9560  0.3212
  587MOL0     C80895   8.953   7.942   4.960  0.1898  0.4124 -0.6823
  587MOL0     C80896   9.044   7.954   4.839  0.6574 -0.7918 -1.6174
  587MOL0     C80897   8.977   7.874   5.083  0.7135  0.7831  0.4659
  587MOL0     C80898   9.109   7.802   5.104 -0.2329  0.1396  0.6025
  587MOL0     O80899   9.195   7.777   4.997  0.0628  0.0413  0.0603
  587MOL0     C80900   9.314   7.728   5.034  0.7290  0.1173 -0.0794
  587MOL0     C80901   9.332   7.594   5.017  0.3539 -0.5042  0.6077
  587MOL0     C80902   9.453   7.538   5.025  0.1505  0.9341  0.2999
  587MOL0     C80903   9.562   7.611   5.055 -1.5524 -0.1006 -0.1042
  587MOL0     O80904   9.690   7.560   5.057 -0.0576 -0.0821 -0.5262
  587MOL0     C80905   9.717   7.420   5.046 -0.0794 -0.9013  0.2144
  587MOL0     C80906   9.860   7.399   5.076 -0.3293 -0.3746 -0.3728
  587MOL0     C80907   9.876   7.399   5.231 -0.1946 -0.0040  0.5393
  587MOL0     C80908  10.029   7.410   5.273 -0.9848 -0.8740  0.9664
  587MOL0     C80909  10.038   7.444   5.427  0.3184 -0.6107  0.1699
  587MOL0     C80910  10.190   7.466   5.465  0.3950  0.8163  0.2781
  587MOL0     C80911  10.205   7.472   5.616  0.3368 -0.0856 -0.3347
  587MOL0     C80912  10.347   7.510   5.659  0.7784 -0.0653  0.2225
  587MOL0    Cl80913  10.381   7.684   5.648  0.1721  0.1149  0.1976
  587MOL0     C80914   9.543   7.750   5.083 -0.1285 -1.1331 -0.3641
  587MOL0     C80915   9.415   7.809   5.078  0.1544  0.6075  1.5041
  587MOL0     O80916   9.119   7.743   5.214 -0.3381  0.4705 -0.5621
  587MOL0     C80917   8.880   7.869   5.178 -0.5577  0.0634  0.5217
  587MOL0     C80918   8.758   7.934   5.159 -0.7092  0.1999 -0.5278
  587MOL0     N80919   8.283   8.356   5.522  0.5000  0.1447  0.2778
  587MOL0     N80920   8.205   8.446   5.576  0.0269 -0.3875 -0.3317
  587MOL0     C80921   7.895   9.350   5.907 -0.4849  0.0379  0.3599
  587MOL0     C80922   7.757   9.360   5.882 -0.3675 -0.9200 -0.3642
  587MOL0     C80923   7.344   9.581   5.816 -0.1752  1.2401  0.9100
  587MOL0     C80924   7.288   9.498   5.914  0.2666 -0.1913  0.3333
  587MOL0     C80925   7.144   9.492   5.913 -0.1088  0.1368  0.0828
  587MOL0     C80926   7.069   9.551   5.817 -0.4914 -1.2497  0.1665
  587MOL0     O80927   6.930   9.566   5.822  0.8090 -0.3003 -0.0940
  587MOL0     C80928   6.858   9.546   5.948 -0.4881  0.0789  0.1742
  587MOL0     C80929   6.711   9.586   5.940 -0.4249  0.1670 -0.1706
  587MOL0     C80930   6.700   9.740   5.907  0.0408  0.2008 -0.3674
  587MOL0     C80931   6.557   9.773   5.883  0.0749 -0.0481 -0.3818
  587MOL0     C80932   6.482   9.788   6.004 -0.0553  0.1580 -0.1210
  587MOL0     C80933   6.417   9.789   6.108 -0.0218 -0.1544 -0.3264
  587MOL0     C80934   7.133   9.627   5.722  0.1358  0.6707  0.4388
  587MOL0     C80935   7.268   9.638   5.713 -0.5058 -0.0962  0.3998
  587MOL0     C80936   7.324   9.712   5.590  0.0075  0.0023  0.0460
  587MOL0     H80937   7.713   9.679   5.950 -1.2842 -0.7351 -2.3748
  587MOL0     H80938   7.979   9.653   5.988  0.0620  1.1859 -3.1801
  587MOL0     H80939   8.112   9.275   6.061  0.0828 -0.7333  0.4428
  587MOL0     H80940   8.158   9.425   6.136  3.9355 -0.1968 -0.2439
  587MOL0     H80941   8.352   9.427   5.970 -0.4195 -0.7205 -0.9488
  587MOL0     H80942   8.358   9.283   6.091  0.2237 -1.9483 -0.0660
  587MOL0     H80943   8.287   9.310   5.793  0.9857  3.0577  2.4150
  587MOL0     H80944   8.422   9.216   5.869 -0.9481 -0.5957 -1.3274
  587MOL0     H80945   8.237   9.058   5.975 -2.6973  1.3486  1.3825
  587MOL0     H80946   8.124   9.133   5.873  0.0541  0.6729 -0.4024
  587MOL0     H80947   8.381   9.031   5.753 -0.1043 -0.5013 -2.2036
  587MOL0     H80948   8.222   9.052   5.682  0.6292 -0.2234  0.3249
  587MOL0     H80949   8.296   8.859   5.900  1.0933  2.3321  0.5962
  587MOL0     H80950   8.136   8.871   5.819  0.7111 -0.9069  1.5811
  587MOL0     H80951   8.373   8.785   5.675  0.1942 -0.4939  1.0100
  587MOL0     H80952   8.209   8.812   5.607 -0.0478  1.5623  0.6931
  587MOL0     H80953   8.300   8.607   5.823  2.4377  3.2960  0.1801
  587MOL0     H80954   8.140   8.601   5.751  0.0706  0.0864 -2.6908
  587MOL0     H80955   8.500   8.587   5.585  1.5812 -1.1714 -1.2846
  587MOL0     H80956   8.547   8.239   5.507 -1.9718 -1.4691 -1.2532
  587MOL0     H80957   8.609   8.392   5.442  2.3792 -1.4419  3.0316
  587MOL0     H80958   8.412   8.188   5.350 -0.5060  0.5584  0.0859
  587MOL0     H80959   8.407   8.349   5.263  2.1130  1.0149 -0.3823
  587MOL0     H80960   8.657   8.291   5.187  1.3249 -1.1520 -0.3501
  587MOL0     H80961   8.653   8.159   5.300  1.1261  0.5256 -0.7394
  587MOL0     H80962   8.490   8.038   5.153 -2.8284  0.8475 -0.0977
  587MOL0     H80963   8.451   8.176   5.059  1.7522  1.9642 -2.0699
  587MOL0     H80964   8.823   8.085   4.868  1.7822  2.5098  1.1360
  587MOL0     H80965   9.052   7.857   4.789 -0.8317 -0.9542 -1.6019
  587MOL0     H80966   9.139   7.998   4.869 -0.5965  1.3298 -0.4664
  587MOL0     H80967   9.009   8.028   4.766 -1.1626 -1.0075 -1.0209
  587MOL0     H80968   9.242   7.538   4.992 -0.4538  1.2031 -0.5597
  587MOL0     H80969   9.451   7.430   5.017 -0.9110  1.1135 -3.7762
  587MOL0     H80970   9.650   7.354   5.103 -0.8766 -1.6402 -1.5149
  587MOL0     H80971   9.701   7.392   4.942 -1.4631  2.2503 -0.5261
  587MOL0     H80972   9.915   7.315   5.033  3.6313  2.2196 -0.8848
  587MOL0     H80973   9.905   7.492   5.041 -0.8628 -0.3845 -1.0970
  587MOL0     H80974   9.833   7.312   5.281 -0.2283 -0.4032 -0.1691
  587MOL0     H80975   9.829   7.490   5.272 -1.2939 -0.8953  1.3332
  587MOL0     H80976  10.072   7.487   5.207 -1.3592 -1.3448  0.1517
  587MOL0     H80977  10.080   7.316   5.252  0.1497  0.0170 -0.5578
  587MOL0     H80978   9.979   7.530   5.459  0.2342 -0.4746 -0.3413
  587MOL0     H80979   9.999   7.367   5.495 -3.0782  0.5551 -0.2685
  587MOL0     H80980  10.221   7.560   5.418 -2.0753  0.7233 -1.7879
  587MOL0     H80981  10.249   7.388   5.415 -0.3890  1.1266 -1.2092
  587MOL0     H80982  10.192   7.371   5.654  0.4851 -0.2326 -0.6713
  587MOL0     H80983  10.122   7.529   5.659  1.7031  3.2253 -1.7419
  587MOL0     H80984  10.423   7.453   5.605  2.4470 -1.0102  3.3768
  587MOL0     H80985  10.360   7.493   5.766 -1.2077 -0.7968  0.3844
  587MOL0     H80986   9.623   7.822   5.100  0.3577 -1.5136 -0.9772
  587MOL0     H80987   9.393   7.914   5.095  0.2619  0.9467 -0.3201
  587MOL0     H80988   8.898   7.830   5.277 -0.8941 -1.7116 -0.0882
  587MOL0     H80989   8.672   7.933   5.225 -0.8348  0.0762 -0.6936
  587MOL0     H80990   7.945   9.256   5.888 -1.1924 -0.3432  0.3947
  587MOL0     H80991   7.698   9.274   5.852  1.2951 -1.2475 -3.0196
  587MOL0     H80992   7.340   9.466   6.004  1.8831  1.5482  0.0786
  587MOL0     H80993   7.099   9.437   5.995 -0.7440  1.8898  0.9597
  587MOL0     H80994   6.868   9.437   5.957 -1.8256 -0.4635 -3.5329
  587MOL0     H80995   6.910   9.583   6.037 -0.3303 -2.3011  1.1663
  587MOL0     H80996   6.662   9.557   6.034  0.2516  0.9736  0.4355
  587MOL0     H80997   6.663   9.532   5.858  1.4281  0.5592 -1.5853
  587MOL0     H80998   6.744   9.799   5.988 -0.5352 -0.2522  0.2947
  587MOL0     H80999   6.754   9.751   5.813  0.1625  0.6036 -0.2519
  587MOL0     H81000   6.515   9.701   5.812 -1.8858  0.6227  0.0274
  587MOL0     H81001   6.554   9.873   5.838 -1.7781 -1.0329 -2.6611
  587MOL0     H81002   6.361   9.806   6.198 -1.2962  0.5876 -1.2219
  587MOL0     H81003   7.076   9.694   5.658 -0.3435  1.4164  1.6256
  587MOL0     H81004   7.366   9.812   5.608 -0.6709  1.0001 -3.1889
  587MOL0     H81005   7.399   9.654   5.535  0.2793 -0.7696  1.2029
  587MOL0     H81006   7.251   9.730   5.510  0.8295  0.2086 -0.6721
  588MOL0     O81007   8.541  10.719   1.862 -0.2830  0.1371  0.6179
  588MOL0     C81008   8.607  10.694   1.967  0.2543 -0.2839  0.0942
  588MOL0     O81009   8.734  10.672   1.979 -0.1725  0.3479  0.1461
  588MOL0     C81010   8.812  10.681   1.865  0.1832 -0.2240  0.0943
  588MOL0     C81011   8.843  10.568   1.795 -0.2673  0.6627  1.0937
  588MOL0     C81012   8.923  10.574   1.671  0.6109  0.5313 -0.6128
  588MOL0     C81013   8.979  10.701   1.648  0.5631  0.6045  0.4650
  588MOL0     O81014   9.052  10.710   1.532 -0.6766 -0.2691  0.3307
  588MOL0     C81015   9.174  10.780   1.547 -0.7442 -0.2167 -0.1987
  588MOL0     C81016   9.280  10.714   1.452 -0.9135  0.3618  0.4184
  588MOL0     C81017   9.242  10.710   1.308  0.7079 -0.0278 -0.3321
  588MOL0     C81018   9.359  10.708   1.220 -0.1336  0.7493 -0.0187
  588MOL0     C81019   9.319  10.693   1.083 -0.3397  0.1128 -0.0072
  588MOL0     C81020   9.438  10.641   1.000 -0.2053 -0.1871 -0.8110
  588MOL0     C81021   9.421  10.652   0.850  0.2655 -0.1702  0.1239
  588MOL0     C81022   9.513  10.561   0.759  0.2584 -0.0443 -0.3406
  588MOL0     N81023   9.652  10.601   0.770 -0.5780 -0.4299 -0.3810
  588MOL0     C81024   9.693  10.727   0.735  0.2075  0.5201 -0.3099
  588MOL0     C81025   9.823  10.733   0.765 -0.3870  0.0312 -0.7711
  588MOL0     C81026   9.905  10.859   0.768 -0.1511 -0.0656 -0.5122
  588MOL0     C81027   9.962  10.882   0.622  0.1932  0.0049 -0.1239
  588MOL0     C81028  10.008  11.027   0.597  0.1552  0.1916  0.6328
  588MOL0     C81029  10.101  11.074   0.705 -0.0939 -0.0977  0.3488
  588MOL0     O81030  10.226  10.994   0.705  0.3024 -0.1176 -0.0275
  588MOL0     C81031  10.318  11.017   0.604  0.5284 -0.1178  0.2123
  588MOL0     C81032  10.306  11.107   0.494  0.0013 -0.3374 -0.8702
  588MOL0     C81033  10.411  11.135   0.397 -0.6968 -0.8714 -0.4143
  588MOL0     C81034  10.389  11.241   0.295  0.2589  0.6833  0.5713
  588MOL0     C81035  10.535  11.075   0.424 -1.3886  1.0497  0.3533
  588MOL0     C81036  10.666  11.107   0.357  0.3058 -0.4658 -0.6817
  588MOL0     O81037  10.767  11.014   0.351  0.4511  0.4761 -1.1464
  588MOL0     C81038  10.876  11.020   0.280 -0.1474 -0.3862 -0.8205
  588MOL0     C81039  10.894  10.926   0.184  0.2455  0.0043  0.8469
  588MOL0     C81040  11.018  10.908   0.123  0.0927 -0.5229 -0.0028
  588MOL0     C81041  11.128  10.983   0.153  0.1783 -0.4440 -0.0153
  588MOL0     O81042  11.244  10.956   0.087  0.1927  0.0110  0.0038
  588MOL0     C81043  11.309  11.071   0.033 -0.3331  0.5791 -0.0912
  588MOL0     C81044  11.362  11.042  -0.114 -0.6808 -0.5972  0.4213
  588MOL0     C81045  11.443  10.903  -0.116  0.5868  0.1029  0.7372
  588MOL0     C81046  11.555  10.897  -0.004  0.3051  0.0545 -0.3491
  588MOL0     C81047  11.631  10.759  -0.007  0.0105 -0.0242  0.0657
  588MOL0     C81048  11.728  10.745  -0.123 -0.3528 -0.3772 -0.7574
  588MOL0     C81049  11.809  10.616  -0.109  0.5006  0.4624  0.8170
  588MOL0     C81050  11.941  10.628  -0.186  0.1760 -0.2062 -0.5128
  588MOL0    Cl81051  12.013  10.469  -0.202 -0.0495 -0.0345  0.2232
  588MOL0     C81052  11.109  11.071   0.260 -0.4806 -0.6535 -0.2141
  588MOL0     C81053  10.985  11.098   0.315  0.0466  0.0701 -0.4116
  588MOL0     O81054  10.677  11.226   0.322  0.0058 -0.3072  0.0363
  588MOL0     C81055  10.546  10.975   0.525  0.6889  0.0232  0.2698
  588MOL0     C81056  10.437  10.946   0.615 -0.3287 -0.5500  0.6002
  588MOL0     N81057   9.861  10.616   0.828  0.0865 -1.0317  0.2260
  588MOL0     N81058   9.755  10.545   0.839 -0.1004 -0.8949 -0.8621
  588MOL0     C81059   8.958  10.810   1.733 -0.0246 -0.0752  0.4069
  588MOL0     C81060   8.876  10.803   1.839  0.8113 -0.3835 -0.8173
  588MOL0     C81061   8.530  10.693   2.099  0.5473  0.4904  0.2627
  588MOL0     C81062   8.604  10.684   2.219  1.1239  1.4316  0.0469
  588MOL0     C81063   8.543  10.690   2.344 -0.5375 -0.4509  0.0435
  588MOL0     C81064   8.405  10.700   2.352 -0.4063  0.2524 -0.2182
  588MOL0     O81065   8.336  10.699   2.476 -0.4299 -0.4539 -0.0099
  588MOL0     C81066   8.292  10.569   2.522 -1.2804  0.2308  0.7511
  588MOL0     C81067   8.234  10.584   2.660  0.5107 -0.6792 -0.8920
  588MOL0     C81068   8.176  10.459   2.724  0.6436  0.6080  0.4719
  588MOL0     C81069   8.068  10.484   2.832  0.5949 -0.4977  0.0544
  588MOL0     C81070   7.940  10.523   2.783  0.0082 -0.4464  0.5229
  588MOL0     C81071   7.837  10.559   2.720  0.7726 -0.0250  0.1312
  588MOL0     C81072   8.327  10.696   2.239  0.0050 -0.1827 -0.2250
  588MOL0     C81073   8.384  10.689   2.115 -0.3467 -0.1866  0.2704
  588MOL0     C81074   8.285  10.698   2.001 -0.4140 -0.1265  0.1781
  588MOL0     H81075   8.793  10.475   1.818 -0.0357  0.5229  1.0446
  588MOL0     H81076   8.937  10.489   1.606 -3.4404  0.1827 -1.2613
  588MOL0     H81077   9.207  10.792   1.651  1.0541  0.0259 -0.7661
  588MOL0     H81078   9.160  10.878   1.500 -3.3119 -0.2644  0.3608
  588MOL0     H81079   9.377  10.761   1.467 -0.1043 -1.1165  0.0943
  588MOL0     H81080   9.279  10.606   1.471  0.2614  0.0289 -1.1667
  588MOL0     H81081   9.182  10.620   1.293 -1.3484  0.9050  1.7631
  588MOL0     H81082   9.186  10.802   1.290  1.5530  1.0010  1.9505
  588MOL0     H81083   9.428  10.792   1.238  1.3761 -0.8757  2.4561
  588MOL0     H81084   9.421  10.621   1.245  2.2906  2.4333  0.2830
  588MOL0     H81085   9.280  10.789   1.050  2.3224  0.8131 -1.3099
  588MOL0     H81086   9.235  10.622   1.074  1.5630 -2.3464  0.4118
  588MOL0     H81087   9.526  10.703   1.020 -0.3168 -0.8424  2.1818
  588MOL0     H81088   9.471  10.543   1.036  1.4095 -0.2793 -2.4025
  588MOL0     H81089   9.451  10.753   0.820  2.3872 -2.0287 -5.2364
  588MOL0     H81090   9.317  10.637   0.818  0.7099  0.9856 -2.1136
  588MOL0     H81091   9.495  10.460   0.797  1.0616 -0.2669 -0.5484
  588MOL0     H81092   9.471  10.551   0.659  2.7408  1.0301 -1.5702
  588MOL0     H81093   9.639  10.814   0.698  0.8274  1.1538  0.2492
  588MOL0     H81094   9.993  10.840   0.831 -1.2261 -2.1222  0.4789
  588MOL0     H81095   9.838  10.940   0.798 -0.2660  0.7665 -2.8623
  588MOL0     H81096  10.048  10.816   0.604 -0.8839 -1.4858  0.0502
  588MOL0     H81097   9.885  10.855   0.549 -0.9842 -0.8586  1.3919
  588MOL0     H81098  10.058  11.040   0.500 -1.4474  2.3792  0.0031
  588MOL0     H81099   9.921  11.094   0.596 -0.4702 -0.5361  2.3295
  588MOL0     H81100  10.135  11.177   0.691 -1.5578  0.2216 -1.3066
  588MOL0     H81101  10.047  11.062   0.799 -0.3377  0.2218  0.2513
  588MOL0     H81102  10.212  11.161   0.488 -0.8588 -1.2193  2.6014
  588MOL0     H81103  10.434  11.337   0.318  0.8235  0.7519 -0.7419
  588MOL0     H81104  10.281  11.249   0.280  0.3610 -2.0724 -2.9645
  588MOL0     H81105  10.441  11.215   0.202 -0.4106  2.4351 -0.3425
  588MOL0     H81106  10.823  10.850   0.152  0.8219 -0.1758 -0.0318
  588MOL0     H81107  11.018  10.834   0.044 -0.2501  1.3359 -1.8248
  588MOL0     H81108  11.255  11.166   0.023  0.3998  0.8654 -1.5088
  588MOL0     H81109  11.386  11.105   0.103 -1.0102 -0.4977  1.2116
  588MOL0     H81110  11.277  11.056  -0.181  1.2363  1.6668 -1.7263
  588MOL0     H81111  11.432  11.118  -0.149 -0.9807 -1.0577 -1.2496
  588MOL0     H81112  11.488  10.901  -0.216  0.0796  0.0520  0.5078
  588MOL0     H81113  11.369  10.823  -0.110  1.6542 -1.5229 -3.8150
  588MOL0     H81114  11.493  10.887   0.086 -0.4296 -3.7687 -1.1056
  588MOL0     H81115  11.619  10.986  -0.001 -1.8095  1.6622 -0.3495
  588MOL0     H81116  11.672  10.759   0.094  0.9828 -1.0671 -0.3186
  588MOL0     H81117  11.564  10.673   0.001  0.7150 -0.5095  0.8908
  588MOL0     H81118  11.794  10.832  -0.123 -1.7007  0.7201 -2.8295
  588MOL0     H81119  11.673  10.739  -0.217 -0.2143  0.3921 -0.8913
  588MOL0     H81120  11.752  10.536  -0.157  0.7152 -1.7161  3.8739
  588MOL0     H81121  11.838  10.591  -0.007  0.5273  2.9826  1.4738
  588MOL0     H81122  12.012  10.690  -0.131 -1.2483  0.8228  0.2442
  588MOL0     H81123  11.914  10.663  -0.286  1.9577  2.6363 -0.1037
  588MOL0     H81124  11.196  11.115   0.308 -1.4421  0.1888  0.8391
  588MOL0     H81125  10.981  11.178   0.389 -1.1807 -0.0250 -0.3613
  588MOL0     H81126  10.637  10.924   0.555 -1.7221 -3.9847  1.5731
  588MOL0     H81127  10.451  10.875   0.696  0.6178 -6.3120 -3.9533
  588MOL0     H81128   8.996  10.907   1.702 -0.1131 -0.1895 -0.0658
  588MOL0     H81129   8.851  10.883   1.908 -2.1782 -2.3258  0.5768
  588MOL0     H81130   8.712  10.673   2.211  0.9641 -1.8646  0.8091
  588MOL0     H81131   8.595  10.702   2.438 -1.7831 -1.9158  0.9715
  588MOL0     H81132   8.216  10.533   2.452  2.0519 -3.2366 -1.5081
  588MOL0     H81133   8.366  10.488   2.515 -1.5918 -0.0576  0.7877
  588MOL0     H81134   8.153  10.657   2.667 -2.0938 -3.4576  0.1593
  588MOL0     H81135   8.313  10.627   2.722 -1.3294  3.5105 -1.1578
  588MOL0     H81136   8.139  10.407   2.635  3.0197 -1.3080  0.4895
  588MOL0     H81137   8.245  10.380   2.757 -0.2049 -1.4906 -2.3507
  588MOL0     H81138   8.110  10.554   2.905 -0.3602 -1.0486  1.1758
  588MOL0     H81139   8.043  10.396   2.891 -0.5111 -0.3453 -0.1604
  588MOL0     H81140   7.745  10.585   2.672  0.4789 -2.2368 -0.6539
  588MOL0     H81141   8.221  10.709   2.255  0.2125 -1.4390  2.9097
  588MOL0     H81142   8.313  10.630   1.920  2.8798 -1.7418  2.4406
  588MOL0     H81143   8.186  10.684   2.046  0.2766 -1.7739  1.2843
  588MOL0     H81144   8.298  10.799   1.961  3.7896  0.0485  1.5581
  589MOL0     O81145   4.350   4.063   1.716  0.0497 -0.3138  0.5813
  589MOL0     C81146   4.309   4.075   1.825  0.3546  0.4049 -0.3561
  589MOL0     O81147   4.385   4.116   1.934 -0.3349 -0.8058 -0.0156
  589MOL0     C81148   4.510   4.160   1.927  0.0132  0.3560 -0.3563
  589MOL0     C81149   4.586   4.134   2.036  0.0838 -0.0352  0.4678
  589MOL0     C81150   4.717   4.188   2.046  0.3328 -0.5562  0.1232
  589MOL0     C81151   4.769   4.275   1.954 -0.4249  0.0595 -0.9271
  589MOL0     O81152   4.900   4.318   1.954 -0.6454 -0.6038 -0.1735
  589MOL0     C81153   4.990   4.247   2.044  0.2510 -0.4485  1.1772
  589MOL0     C81154   5.128   4.282   1.996  0.0562  0.8699 -0.5656
  589MOL0     C81155   5.234   4.188   2.064  0.3953  0.2269 -0.2230
  589MOL0     C81156   5.366   4.257   2.047  0.2328  0.3609 -0.4203
  589MOL0     C81157   5.467   4.208   2.149 -0.1775 -0.0866 -0.1448
  589MOL0     C81158   5.489   4.061   2.138 -0.2270 -0.8939 -0.2196
  589MOL0     C81159   5.625   4.026   2.193 -0.2773 -0.5240  0.0509
  589MOL0     C81160   5.684   3.889   2.144 -0.5160  0.7401 -0.1985
  589MOL0     N81161   5.809   3.858   2.217 -0.0183  0.9943  0.1291
  589MOL0     C81162   5.797   3.759   2.310 -0.0731  0.9245  0.1596
  589MOL0     C81163   5.931   3.738   2.340  0.1652 -0.1200 -0.7359
  589MOL0     C81164   5.977   3.633   2.439  0.3550  0.1442  0.0087
  589MOL0     C81165   6.066   3.543   2.360  0.0918 -0.3418 -1.2210
  589MOL0     C81166   5.992   3.429   2.287  0.5038  0.2929  0.4613
  589MOL0     C81167   6.090   3.332   2.225 -0.0583 -0.2880 -0.9311
  589MOL0     O81168   6.105   3.375   2.093  0.0371 -0.5140 -0.1511
  589MOL0     C81169   6.206   3.322   2.018 -0.7740  0.5675  0.0291
  589MOL0     C81170   6.317   3.255   2.061 -0.3035  0.0747  0.4714
  589MOL0     C81171   6.420   3.213   1.976 -0.8834  0.5059 -0.1850
  589MOL0     C81172   6.538   3.164   2.041  0.1768 -0.1510  0.6338
  589MOL0     C81173   6.402   3.232   1.839 -0.0257  0.6406 -0.3005
  589MOL0     C81174   6.513   3.206   1.748 -0.4461  1.2220 -0.2955
  589MOL0     O81175   6.497   3.256   1.623 -0.0004 -0.0845  0.2421
  589MOL0     C81176   6.611   3.251   1.546  0.3881  0.5108  0.5713
  589MOL0     C81177   6.721   3.327   1.584  0.5142 -0.1006  0.1725
  589MOL0     C81178   6.839   3.335   1.515 -0.3344  0.2714  0.0985
  589MOL0     C81179   6.842   3.278   1.391  0.1710  0.2616 -0.3343
  589MOL0     O81180   6.952   3.310   1.314  0.6022  0.3566  1.5110
  589MOL0     C81181   6.973   3.246   1.179 -0.8658 -0.3615 -0.7821
  589MOL0     C81182   7.086   3.325   1.112  0.2651  0.0278 -0.6946
  589MOL0     C81183   7.213   3.233   1.083  0.8063  0.2914  0.1976
  589MOL0     C81184   7.312   3.299   0.980  0.2027  0.5355  0.9723
  589MOL0     C81185   7.419   3.193   0.939 -0.6660 -0.9277  0.0699
  589MOL0     C81186   7.510   3.244   0.833 -0.2713  1.0076 -0.6325
  589MOL0     C81187   7.625   3.136   0.823 -0.3764  0.1294  0.3181
  589MOL0     C81188   7.714   3.136   0.704 -0.0873 -0.1668 -0.1328
  589MOL0    Cl81189   7.869   3.052   0.736 -0.6782 -0.6259 -0.0073
  589MOL0     C81190   6.734   3.193   1.347 -0.1342  0.0085  0.7756
  589MOL0     C81191   6.621   3.184   1.425 -0.4356 -0.2348  0.3165
  589MOL0     O81192   6.584   3.112   1.770 -1.0803  0.1944 -0.0116
  589MOL0     C81193   6.285   3.288   1.791  0.2284 -1.4844 -0.1037
  589MOL0     C81194   6.197   3.337   1.880 -0.2020  1.0370  0.1463
  589MOL0     N81195   6.009   3.821   2.254  0.4126  0.3311 -0.3391
  589MOL0     N81196   5.934   3.901   2.189  0.3148  0.1416  0.1512
  589MOL0     C81197   4.689   4.306   1.847 -0.5160  0.7940  0.9822
  589MOL0     C81198   4.562   4.246   1.834  0.2182  0.4362 -0.2977
  589MOL0     C81199   4.170   4.027   1.868  0.6792  0.3478  0.7314
  589MOL0     C81200   4.152   3.986   1.997  0.7135 -0.3599 -0.1465
  589MOL0     C81201   4.023   3.955   2.035  0.7094  0.2593  0.0463
  589MOL0     C81202   3.913   3.953   1.950  0.4863 -0.1283  0.2933
  589MOL0     O81203   3.793   3.908   2.008  0.0421 -0.0293 -0.3726
  589MOL0     C81204   3.702   3.838   1.924  0.2130 -0.8896 -0.5525
  589MOL0     C81205   3.722   3.698   1.928  0.0893 -0.3273  0.0437
  589MOL0     C81206   3.715   3.653   2.073  0.8011 -0.1893  1.1827
  589MOL0     C81207   3.680   3.503   2.083  0.2977  0.6257 -0.6658
  589MOL0     C81208   3.795   3.418   2.062  0.1042 -0.7366  0.0477
  589MOL0     C81209   3.890   3.344   2.044  0.4158 -0.1359 -1.0108
  589MOL0     C81210   3.934   3.991   1.813  1.1371 -0.4099 -0.3966
  589MOL0     C81211   4.062   4.033   1.776 -0.6751  0.3210  0.8653
  589MOL0     C81212   4.076   4.088   1.635 -0.4393  0.6742 -0.1811
  589MOL0     H81213   4.562   4.060   2.111  0.7375 -0.8244 -0.0774
  589MOL0     H81214   4.775   4.173   2.136 -0.2219  3.0701  1.2752
  589MOL0     H81215   4.991   4.139   2.027  0.9124 -0.0224 -2.3323
  589MOL0     H81216   4.968   4.273   2.148 -4.4823  1.4130 -0.0086
  589MOL0     H81217   5.129   4.272   1.887  0.3969  1.7943 -0.6521
  589MOL0     H81218   5.143   4.387   2.021  0.3799  0.2436  2.1866
  589MOL0     H81219   5.209   4.155   2.165  2.7758 -0.8506  0.0761
  589MOL0     H81220   5.248   4.097   2.006  0.0760 -0.4644  0.7693
  589MOL0     H81221   5.411   4.251   1.947  2.8387 -0.3829  0.7283
  589MOL0     H81222   5.350   4.364   2.066 -0.9558  0.1705 -0.2649
  589MOL0     H81223   5.452   4.234   2.255  0.1927  0.7076 -0.2825
  589MOL0     H81224   5.568   4.240   2.123 -0.9080  1.8880 -0.7758
  589MOL0     H81225   5.404   4.022   2.195 -1.8418  1.5468 -0.7796
  589MOL0     H81226   5.487   4.030   2.033  1.6165 -0.9616 -0.2527
  589MOL0     H81227   5.622   4.026   2.303  2.8277 -0.8847  0.2027
  589MOL0     H81228   5.705   4.098   2.181  1.1199 -1.9979  0.1946
  589MOL0     H81229   5.610   3.810   2.159  1.1172 -0.9532 -0.7372
  589MOL0     H81230   5.693   3.890   2.035  1.8031 -0.7755 -0.0996
  589MOL0     H81231   5.720   3.711   2.369 -0.7248  3.9383  1.9774
  589MOL0     H81232   5.889   3.597   2.494 -2.0105  3.4446 -1.2618
  589MOL0     H81233   6.034   3.685   2.517  0.3511  0.1847 -0.0152
  589MOL0     H81234   6.131   3.608   2.300 -2.9219  3.9890 -0.2148
  589MOL0     H81235   6.133   3.494   2.431  1.7313 -0.2573 -2.6250
  589MOL0     H81236   5.927   3.368   2.350  0.8682 -0.3533  0.2166
  589MOL0     H81237   5.927   3.468   2.208  2.4263  1.8756 -0.4227
  589MOL0     H81238   6.183   3.340   2.283  1.1288  1.0646 -2.8987
  589MOL0     H81239   6.054   3.230   2.236 -1.5406  0.3394  0.4085
  589MOL0     H81240   6.335   3.245   2.168  1.2526  2.4511  0.5200
  589MOL0     H81241   6.633   3.174   1.987 -0.8663 -0.0937 -1.2414
  589MOL0     H81242   6.515   3.058   2.055 -2.6349  0.2763 -0.1369
  589MOL0     H81243   6.552   3.209   2.140 -0.9833 -0.7940  1.1128
  589MOL0     H81244   6.705   3.375   1.680  1.3331 -2.5087  1.5984
  589MOL0     H81245   6.916   3.402   1.552  0.7479 -1.2747  0.7636
  589MOL0     H81246   7.017   3.150   1.207 -0.5516  0.6997  2.8783
  589MOL0     H81247   6.888   3.247   1.110  0.6755  3.7917 -3.0094
  589MOL0     H81248   7.054   3.365   1.016  1.4267 -0.0013 -1.1035
  589MOL0     H81249   7.108   3.408   1.179 -3.0815 -0.1215  0.8041
  589MOL0     H81250   7.188   3.135   1.042 -1.2024  0.4918  0.7831
  589MOL0     H81251   7.266   3.229   1.179 -1.6701  1.3707  1.7345
  589MOL0     H81252   7.351   3.398   1.005 -1.5673  1.2303  1.0722
  589MOL0     H81253   7.248   3.306   0.891  1.2652 -1.1330  0.0250
  589MOL0     H81254   7.471   3.160   1.029  1.8328  0.8299 -0.6107
  589MOL0     H81255   7.362   3.111   0.896 -1.3144  0.0503 -0.9985
  589MOL0     H81256   7.544   3.344   0.861 -3.2715  1.5064  1.7454
  589MOL0     H81257   7.454   3.248   0.739  1.3508 -1.3103 -1.7852
  589MOL0     H81258   7.599   3.031   0.838  1.3258 -0.5618 -1.1414
  589MOL0     H81259   7.693   3.165   0.904  0.6377 -1.9866  0.2905
  589MOL0     H81260   7.734   3.242   0.688  3.0558 -1.0815 -3.9507
  589MOL0     H81261   7.666   3.097   0.613 -0.7255 -0.1358  0.1873
  589MOL0     H81262   6.734   3.129   1.260 -0.2540 -1.8033  2.0541
  589MOL0     H81263   6.531   3.141   1.382  0.3106 -0.9602 -0.5686
  589MOL0     H81264   6.270   3.315   1.687  0.7485 -1.2497 -0.1193
  589MOL0     H81265   6.118   3.398   1.838  1.1253  0.6882 -3.1673
  589MOL0     H81266   4.730   4.370   1.769 -2.9424  1.0348 -0.1986
  589MOL0     H81267   4.509   4.276   1.744 -0.7229  0.4729  0.2525
  589MOL0     H81268   4.239   3.985   2.061  0.9571 -0.8925 -0.4771
  589MOL0     H81269   4.021   3.906   2.132 -1.3831 -1.4144 -0.7869
  589MOL0     H81270   3.602   3.859   1.963 -0.1164 -0.7500 -1.4647
  589MOL0     H81271   3.693   3.879   1.824  0.2850 -0.8633 -0.5481
  589MOL0     H81272   3.826   3.673   1.906  0.5625 -0.8816  2.5695
  589MOL0     H81273   3.659   3.644   1.857 -0.9048  0.2593  0.4515
  589MOL0     H81274   3.814   3.672   2.116  1.4832 -1.3497  0.1654
  589MOL0     H81275   3.640   3.718   2.119 -3.2449 -1.5689 -2.7152
  589MOL0     H81276   3.595   3.476   2.020 -0.1384 -0.6707  0.4456
  589MOL0     H81277   3.648   3.494   2.188  1.0088 -0.7380 -0.5416
  589MOL0     H81278   3.978   3.283   2.035 -1.2974 -3.2160  1.0521
  589MOL0     H81279   3.856   4.006   1.739  0.3081  0.2297  0.5701
  589MOL0     H81280   3.981   4.084   1.582  0.1532 -0.7291 -1.1844
  589MOL0     H81281   4.124   4.187   1.643  1.9003 -0.4097  0.2782
  589MOL0     H81282   4.143   4.029   1.571  1.1418  0.7867  1.2672
  590MOL0     O81283   5.230   7.625   7.075 -0.0081  0.4318  0.2990
  590MOL0     C81284   5.149   7.713   7.098 -0.6322 -1.0515 -0.2958
  590MOL0     O81285   5.187   7.836   7.138  0.5790 -1.0881  0.5271
  590MOL0     C81286   5.316   7.881   7.147  0.5912  0.3678 -0.7750
  590MOL0     C81287   5.401   7.857   7.254 -0.3485 -0.4099 -1.0774
  590MOL0     C81288   5.527   7.923   7.265  0.1153 -0.0390 -0.3716
  590MOL0     C81289   5.559   8.022   7.172  0.0986 -0.1957 -0.6416
  590MOL0     O81290   5.679   8.083   7.170  0.0256 -0.9650 -0.1258
  590MOL0     C81291   5.722   8.175   7.275 -0.1873  1.0310  0.0509
  590MOL0     C81292   5.798   8.090   7.376 -0.2313  0.0077 -0.0826
  590MOL0     C81293   5.952   8.109   7.377 -0.3621 -0.1251  0.1130
  590MOL0     C81294   6.009   8.020   7.488  0.2309  0.2566  0.1605
  590MOL0     C81295   6.157   8.002   7.471  0.7323  0.8740  0.8098
  590MOL0     C81296   6.232   8.135   7.486 -0.5893  0.6992  0.8229
  590MOL0     C81297   6.383   8.104   7.497 -0.2050  0.0854 -0.3275
  590MOL0     C81298   6.421   8.076   7.651 -0.5306  0.2659  0.1096
  590MOL0     N81299   6.556   8.118   7.683 -0.0750  0.0735 -0.4583
  590MOL0     C81300   6.676   8.063   7.640  0.3914  0.1620 -0.4529
  590MOL0     C81301   6.769   8.099   7.733  0.6795 -0.0186  0.9872
  590MOL0     C81302   6.908   8.052   7.742  0.6418  0.7268 -0.5322
  590MOL0     C81303   6.985   8.080   7.615 -0.2888  0.4414  0.0985
  590MOL0     C81304   7.091   7.975   7.585 -0.6516  0.1251  0.1715
  590MOL0     C81305   7.196   7.947   7.694  1.0505  0.0148  0.5207
  590MOL0     O81306   7.141   7.856   7.795 -0.8453 -0.0962 -0.1128
  590MOL0     C81307   7.232   7.833   7.893  0.2619  0.5609 -0.1955
  590MOL0     C81308   7.261   7.703   7.928  0.3135  0.5894 -0.1639
  590MOL0     C81309   7.347   7.660   8.027  0.4034 -0.5199 -0.2988
  590MOL0     C81310   7.371   7.514   8.038 -0.8833  0.5346 -0.3615
  590MOL0     C81311   7.399   7.756   8.114 -0.4052  0.8865 -0.3948
  590MOL0     C81312   7.496   7.735   8.225  0.0747  0.0152 -0.1649
  590MOL0     O81313   7.521   7.838   8.301  0.1837 -0.0081  0.3542
  590MOL0     C81314   7.649   7.844   8.349  0.0760 -0.1775 -0.3157
  590MOL0     C81315   7.762   7.837   8.263  0.4515  0.1572 -0.9891
  590MOL0     C81316   7.889   7.841   8.317  0.9719 -0.5978  0.0541
  590MOL0     C81317   7.913   7.866   8.454 -0.2741  0.1244 -0.2223
  590MOL0     O81318   8.045   7.887   8.503 -0.1831 -0.0632  0.1744
  590MOL0     C81319   8.071   7.871   8.641  0.2377 -0.2661  0.1681
  590MOL0     C81320   8.221   7.880   8.667 -0.4609  0.4488 -0.3403
  590MOL0     C81321   8.291   8.012   8.668  0.4061  0.5222  0.5603
  590MOL0     C81322   8.440   8.020   8.715 -0.3752 -0.3626  1.3489
  590MOL0     C81323   8.505   8.139   8.647 -0.1997 -0.2356 -0.8193
  590MOL0     C81324   8.627   8.187   8.735 -0.4029  0.0221 -0.1441
  590MOL0     C81325   8.753   8.102   8.728  0.2799  0.3777  0.1658
  590MOL0     C81326   8.878   8.174   8.774 -0.1753  0.1219  0.7861
  590MOL0    Cl81327   9.018   8.071   8.805 -0.0158  0.2233 -0.1754
  590MOL0     C81328   7.797   7.875   8.540  0.4928 -0.4187 -0.5433
  590MOL0     C81329   7.667   7.859   8.487  0.4664 -0.5130 -0.0766
  590MOL0     O81330   7.557   7.625   8.232 -0.1160  0.2541  0.6916
  590MOL0     C81331   7.364   7.889   8.088  0.0614 -0.5960 -0.2127
  590MOL0     C81332   7.284   7.928   7.983  0.2486 -0.4619  0.4429
  590MOL0     N81333   6.704   8.162   7.837  0.0962 -0.3570 -0.2479
  590MOL0     N81334   6.578   8.172   7.809  0.1760  0.1171 -0.1374
  590MOL0     C81335   5.480   8.037   7.060 -0.2488  0.7303  0.2480
  590MOL0     C81336   5.361   7.967   7.051 -0.2383  0.5569  0.3304
  590MOL0     C81337   5.009   7.679   7.110 -0.5858 -0.4405 -0.1038
  590MOL0     C81338   4.956   7.564   7.039  0.1345  0.1340 -0.7243
  590MOL0     C81339   4.816   7.533   7.048  0.6634  0.4887  0.3146
  590MOL0     C81340   4.726   7.604   7.129  0.2370 -0.0836 -0.4497
  590MOL0     O81341   4.598   7.577   7.147  0.0110 -0.0042 -0.0614
  590MOL0     C81342   4.556   7.442   7.121 -0.3155  0.5103 -0.2464
  590MOL0     C81343   4.411   7.425   7.157  0.5448 -0.2306 -0.2678
  590MOL0     C81344   4.392   7.409   7.305  0.2786  0.4140  0.4238
  590MOL0     C81345   4.280   7.306   7.350 -0.3465 -0.0158 -1.2578
  590MOL0     C81346   4.327   7.165   7.329  0.2023 -0.5468 -0.7162
  590MOL0     C81347   4.361   7.048   7.318  0.3534 -0.6920  0.5578
  590MOL0     C81348   4.781   7.708   7.195  0.4290 -0.1671  0.4957
  590MOL0     C81349   4.917   7.752   7.193 -0.0088  0.1335 -0.0225
  590MOL0     C81350   4.953   7.876   7.261 -0.3342 -0.3180 -0.1266
  590MOL0     H81351   5.376   7.793   7.338  2.1012 -1.9912 -1.4518
  590MOL0     H81352   5.589   7.886   7.346 -1.6257 -2.7923 -0.1589
  590MOL0     H81353   5.634   8.226   7.315 -0.3250  1.4349 -0.7275
  590MOL0     H81354   5.787   8.250   7.227  0.9178 -0.1686 -0.3895
  590MOL0     H81355   5.776   8.118   7.480  2.9250  0.4440  0.5547
  590MOL0     H81356   5.774   7.985   7.357 -2.2340  0.1885  1.1390
  590MOL0     H81357   5.994   8.078   7.281  1.4769 -0.6778  1.0432
  590MOL0     H81358   5.984   8.214   7.374 -0.4891 -0.1106 -1.4388
  590MOL0     H81359   5.994   8.062   7.588  1.8415  2.8362 -0.6125
  590MOL0     H81360   5.967   7.919   7.480  1.4459 -0.1753 -1.2223
  590MOL0     H81361   6.176   7.960   7.371  0.5774  1.6031  0.4680
  590MOL0     H81362   6.188   7.926   7.543  0.2836  0.3709  0.4727
  590MOL0     H81363   6.225   8.199   7.397 -0.3194 -1.2662 -0.6793
  590MOL0     H81364   6.177   8.189   7.564 -1.0081 -0.3030  1.2319
  590MOL0     H81365   6.444   8.187   7.461  0.4012 -0.6458 -1.0296
  590MOL0     H81366   6.415   8.019   7.437  2.1227  0.8299 -0.2578
  590MOL0     H81367   6.350   8.125   7.718 -2.1279 -1.8347  0.0831
  590MOL0     H81368   6.415   7.967   7.665  2.1240  0.0474  0.0144
  590MOL0     H81369   6.705   8.008   7.551  0.7671  3.1841 -2.3228
  590MOL0     H81370   6.893   7.943   7.746 -0.5462  0.9015  2.3516
  590MOL0     H81371   6.959   8.085   7.833 -1.7823  0.7142  0.9318
  590MOL0     H81372   6.929   8.105   7.524  0.3013  1.6361  0.0343
  590MOL0     H81373   7.046   8.170   7.627  0.6115  0.2416 -2.4181
  590MOL0     H81374   7.032   7.887   7.562 -3.2272  1.1484  2.3084
  590MOL0     H81375   7.139   8.016   7.496 -2.5070  3.7434  0.6265
  590MOL0     H81376   7.279   7.901   7.640  0.0939  1.0714 -2.0069
  590MOL0     H81377   7.224   8.046   7.730  2.0986  0.1878 -0.7246
  590MOL0     H81378   7.202   7.635   7.867 -1.1160 -1.4691  3.2447
  590MOL0     H81379   7.296   7.464   7.976  0.0561  0.8304 -1.7796
  590MOL0     H81380   7.364   7.468   8.137  2.0176  0.7203  0.0065
  590MOL0     H81381   7.469   7.489   7.997 -1.2094 -0.4833 -0.5462
  590MOL0     H81382   7.752   7.836   8.155  1.3817  2.0991 -1.1362
  590MOL0     H81383   7.975   7.840   8.252  0.2832  0.5812 -0.9182
  590MOL0     H81384   8.037   7.954   8.704  0.0734  0.8671 -1.3389
  590MOL0     H81385   8.036   7.776   8.682  0.0563 -0.0264  0.5753
  590MOL0     H81386   8.245   7.830   8.761 -0.3967  2.0185  0.5074
  590MOL0     H81387   8.272   7.811   8.599  2.6067 -0.0037  2.2393
  590MOL0     H81388   8.238   8.075   8.740  0.5661  1.8167 -0.4127
  590MOL0     H81389   8.282   8.055   8.568  1.5711  1.1576  0.7181
  590MOL0     H81390   8.489   7.925   8.689 -2.2571 -1.3014  1.0799
  590MOL0     H81391   8.455   8.021   8.823  2.2000 -1.5832  1.0964
  590MOL0     H81392   8.541   8.118   8.546  0.9557  0.9880 -0.6924
  590MOL0     H81393   8.439   8.225   8.656 -0.8771 -0.9373  1.6354
  590MOL0     H81394   8.587   8.186   8.836  0.3124 -0.1677  0.1448
  590MOL0     H81395   8.648   8.288   8.699 -1.7965  0.0966 -0.8156
  590MOL0     H81396   8.768   8.063   8.627 -0.3464 -2.0303  0.9316
  590MOL0     H81397   8.739   8.014   8.792 -1.3968  0.4552 -0.0477
  590MOL0     H81398   8.851   8.233   8.862 -1.3926  1.5429 -0.4835
  590MOL0     H81399   8.907   8.247   8.698 -1.6276 -0.8626 -0.7989
  590MOL0     H81400   7.810   7.882   8.648  0.8485 -1.8866 -0.4761
  590MOL0     H81401   7.579   7.857   8.549 -0.3101  0.5090 -1.1028
  590MOL0     H81402   7.425   7.968   8.130  1.2969 -1.3482 -0.5483
  590MOL0     H81403   7.247   8.029   7.967  0.0120 -0.4179  1.1864
  590MOL0     H81404   5.507   8.100   6.975 -5.5343 -0.0670 -2.4859
  590MOL0     H81405   5.295   7.985   6.966  1.6674  0.6201 -1.1961
  590MOL0     H81406   5.029   7.506   6.984  3.9283  1.3676  2.5803
  590MOL0     H81407   4.766   7.452   6.996 -3.6680  3.7253 -1.1570
  590MOL0     H81408   4.564   7.422   7.014  2.2458 -2.6201  0.3543
  590MOL0     H81409   4.615   7.371   7.180  1.7630  1.6559 -0.8238
  590MOL0     H81410   4.372   7.336   7.106  2.8327  0.8383 -4.3038
  590MOL0     H81411   4.351   7.502   7.108 -0.2969 -0.4927  0.3256
  590MOL0     H81412   4.485   7.374   7.351  0.8487 -0.4906 -1.3039
  590MOL0     H81413   4.370   7.511   7.338 -3.3951  0.1432 -0.7050
  590MOL0     H81414   4.188   7.325   7.293 -1.3801  1.8289  0.8659
  590MOL0     H81415   4.256   7.320   7.456 -0.6809 -1.8570 -1.0652
  590MOL0     H81416   4.379   6.943   7.326 -0.8662 -0.7772  2.8201
  590MOL0     H81417   4.705   7.767   7.245  0.3433  0.3191 -0.1873
  590MOL0     H81418   4.969   7.955   7.187 -1.4230  0.0590  0.0197
  590MOL0     H81419   4.867   7.905   7.321 -0.0706 -0.4495  0.3189
  590MOL0     H81420   5.040   7.864   7.327 -0.3148 -1.7417 -0.3820
  591MOL0     O81421   6.178   7.185   3.932 -0.2900  0.2475 -0.0821
  591MOL0     C81422   6.132   7.071   3.947  0.8497  0.2055 -0.1477
  591MOL0     O81423   6.206   6.962   3.988 -0.0731  0.2180  0.4153
  591MOL0     C81424   6.345   6.979   3.978 -0.8552  0.2194 -0.4989
  591MOL0     C81425   6.407   6.983   3.852  1.4726  0.0028 -0.3782
  591MOL0     C81426   6.549   6.982   3.835  0.1363 -0.3569  0.4752
  591MOL0     C81427   6.624   6.988   3.950  0.0746 -0.1576 -0.3901
  591MOL0     O81428   6.759   6.995   3.934 -0.6248 -0.3512 -0.0079
  591MOL0     C81429   6.834   7.070   4.032 -0.2956  0.0953  0.5385
  591MOL0     C81430   6.975   7.066   3.991 -0.2323 -0.7205  0.3835
  591MOL0     C81431   7.077   7.105   4.096  0.1313  0.0216 -0.1838
  591MOL0     C81432   7.213   7.070   4.043 -0.2053 -0.0076  0.0739
  591MOL0     C81433   7.312   7.075   4.152  0.3245 -0.4558  0.6122
  591MOL0     C81434   7.335   7.207   4.213 -0.3757 -0.4109 -0.8841
  591MOL0     C81435   7.450   7.221   4.318  0.4541 -0.2539  0.3161
  591MOL0     C81436   7.453   7.117   4.434  0.1974  0.0380  0.3257
  591MOL0     N81437   7.571   7.143   4.520 -0.6055 -0.8781 -0.4396
  591MOL0     C81438   7.697   7.158   4.474 -0.2912 -0.1221 -0.4427
  591MOL0     C81439   7.768   7.195   4.589  0.0978 -0.0264 -0.1328
  591MOL0     C81440   7.922   7.222   4.596 -0.5154  0.2160 -0.5058
  591MOL0     C81441   7.938   7.361   4.642 -0.2056 -0.5226 -0.0176
  591MOL0     C81442   8.081   7.416   4.676  0.4094  0.4168  0.3167
  591MOL0     C81443   8.147   7.350   4.796 -0.1393  0.2118 -0.1630
  591MOL0     O81444   8.074   7.379   4.920  0.3483  0.2292  0.2866
  591MOL0     C81445   8.095   7.496   4.975 -0.0754 -0.3076  1.1941
  591MOL0     C81446   8.208   7.515   5.040  0.1238 -0.4384 -0.8331
  591MOL0     C81447   8.232   7.637   5.114 -0.1308 -0.2020  0.9193
  591MOL0     C81448   8.369   7.656   5.161  1.2015  0.1061  0.3912
  591MOL0     C81449   8.123   7.723   5.128 -0.2770 -0.2530 -0.3498
  591MOL0     C81450   8.115   7.846   5.217 -0.6464 -0.1485 -0.5872
  591MOL0     O81451   8.043   7.946   5.178  0.8061  0.1190  0.7968
  591MOL0     C81452   7.980   8.017   5.285 -0.1013  0.4705  0.5553
  591MOL0     C81453   7.840   8.015   5.287  0.2585 -0.1888  0.3944
  591MOL0     C81454   7.769   8.089   5.380 -0.3045  0.0982  0.1428
  591MOL0     C81455   7.846   8.170   5.472  1.2108  0.1752 -0.2959
  591MOL0     O81456   7.788   8.239   5.570 -0.5617  0.3591 -0.0341
  591MOL0     C81457   7.679   8.328   5.525 -0.1226 -0.1939  0.3715
  591MOL0     C81458   7.627   8.408   5.651  0.1822 -0.7593  0.4059
  591MOL0     C81459   7.565   8.303   5.755 -0.6831  0.9141 -0.0717
  591MOL0     C81460   7.664   8.277   5.872  0.1598 -0.7451  0.0892
  591MOL0     C81461   7.587   8.219   5.993 -0.1294 -0.1298  0.4284
  591MOL0     C81462   7.692   8.211   6.106  1.1045 -0.0287 -0.7208
  591MOL0     C81463   7.623   8.137   6.225  0.0085 -0.3851  0.2148
  591MOL0     C81464   7.733   8.087   6.312  0.1921 -0.0088 -0.2108
  591MOL0    Cl81465   7.840   8.210   6.376 -0.2620  0.3707 -0.0341
  591MOL0     C81466   7.988   8.168   5.468  0.2381  1.1799 -0.7586
  591MOL0     C81467   8.056   8.092   5.373 -0.3624 -0.5356  0.0962
  591MOL0     O81468   8.201   7.849   5.303 -0.1337 -0.5553  0.3779
  591MOL0     C81469   8.002   7.694   5.065 -0.3078 -0.2766  0.3532
  591MOL0     C81470   7.988   7.582   4.982  0.7879 -0.6516  0.4217
  591MOL0     N81471   7.686   7.191   4.697  0.8058 -0.0024  0.5972
  591MOL0     N81472   7.563   7.164   4.657 -0.1807 -0.3247 -0.2896
  591MOL0     C81473   6.564   6.972   4.077 -0.1526  1.0487  0.2325
  591MOL0     C81474   6.424   6.970   4.091 -0.3950 -0.2182 -0.0202
  591MOL0     C81475   5.996   7.040   3.899  0.2118 -0.4086 -0.4681
  591MOL0     C81476   5.978   6.918   3.834 -0.1487 -1.0314 -0.5033
  591MOL0     C81477   5.860   6.893   3.765 -0.2709 -0.2187  0.1791
  591MOL0     C81478   5.753   6.984   3.761  0.2124 -0.4293 -1.0453
  591MOL0     O81479   5.643   6.941   3.692  0.2308 -0.2383 -0.2311
  591MOL0     C81480   5.520   7.020   3.687 -0.1392  0.0928 -0.2963
  591MOL0     C81481   5.439   7.024   3.822 -0.7134 -0.5834 -0.1548
  591MOL0     C81482   5.333   7.139   3.821 -0.6675  0.1733  0.2740
  591MOL0     C81483   5.245   7.128   3.944  0.0969 -0.6839 -0.0088
  591MOL0     C81484   5.318   7.150   4.068 -0.2163  0.6479 -0.4877
  591MOL0     C81485   5.393   7.174   4.161  0.6787  0.5484 -0.0648
  591MOL0     C81486   5.771   7.106   3.832  0.3764 -0.3575  0.4741
  591MOL0     C81487   5.882   7.128   3.907 -0.2310 -0.5057  0.8401
  591MOL0     C81488   5.885   7.259   3.981 -0.5638  0.2086  0.0280
  591MOL0     H81489   6.340   6.997   3.768  2.1043 -0.4184 -0.9590
  591MOL0     H81490   6.596   6.992   3.738  3.5364  2.6977  2.2353
  591MOL0     H81491   6.834   7.025   4.132  3.6426 -4.3844 -1.0773
  591MOL0     H81492   6.801   7.174   4.028 -0.4802  0.0003 -0.8887
  591MOL0     H81493   6.998   6.965   3.954 -0.6173 -0.6854  0.0376
  591MOL0     H81494   6.991   7.128   3.902 -2.4906 -1.5118 -0.6467
  591MOL0     H81495   7.085   7.214   4.106  0.5466 -0.0260  0.0623
  591MOL0     H81496   7.053   7.064   4.195 -1.4749  0.1406 -0.4980
  591MOL0     H81497   7.216   6.969   4.002 -2.5149  0.1805 -0.7018
  591MOL0     H81498   7.243   7.137   3.962  0.5498  1.2455  1.3503
  591MOL0     H81499   7.407   7.047   4.106 -0.2156 -1.3787  0.0270
  591MOL0     H81500   7.281   6.999   4.224  0.9562  0.1975  1.5890
  591MOL0     H81501   7.335   7.295   4.148 -0.5802  0.2208 -0.0421
  591MOL0     H81502   7.247   7.214   4.278  2.0839 -0.6668  2.7485
  591MOL0     H81503   7.423   7.320   4.356 -0.9541  0.6305 -2.6673
  591MOL0     H81504   7.545   7.237   4.266  0.0037 -0.4667 -0.6022
  591MOL0     H81505   7.359   7.116   4.490 -0.6554 -1.0857 -1.0427
  591MOL0     H81506   7.449   7.019   4.386  0.1577  1.4671 -2.9006
  591MOL0     H81507   7.724   7.132   4.372 -1.2491 -0.2552 -0.6752
  591MOL0     H81508   7.960   7.217   4.494 -3.6660  0.9460 -1.8376
  591MOL0     H81509   7.976   7.150   4.659  0.7384  0.1434 -1.6176
  591MOL0     H81510   7.903   7.421   4.557  1.7290 -0.0175 -0.4945
  591MOL0     H81511   7.883   7.385   4.733  1.4043 -1.5746  1.2920
  591MOL0     H81512   8.145   7.410   4.587  0.3221  1.0705  0.2032
  591MOL0     H81513   8.062   7.523   4.688 -2.1645  0.6646 -4.0278
  591MOL0     H81514   8.149   7.243   4.771 -0.5653 -0.0147  0.7483
  591MOL0     H81515   8.251   7.383   4.806  0.4974 -1.7475  0.2537
  591MOL0     H81516   8.285   7.440   5.022  1.6123  0.0146  2.8251
  591MOL0     H81517   8.399   7.758   5.188  3.5953 -0.6571  0.8809
  591MOL0     H81518   8.447   7.628   5.089  0.7856 -0.2523  0.0723
  591MOL0     H81519   8.380   7.599   5.254 -0.6606 -0.1106  0.5117
  591MOL0     H81520   7.789   7.960   5.208  1.8415 -1.4919  0.2252
  591MOL0     H81521   7.664   8.092   5.407 -0.6248  4.3847 -0.7589
  591MOL0     H81522   7.714   8.402   5.452  0.6255 -1.7544 -0.9060
  591MOL0     H81523   7.596   8.270   5.484  0.7655 -3.0200  2.3461
  591MOL0     H81524   7.709   8.466   5.696  0.0402 -0.5918  0.4527
  591MOL0     H81525   7.559   8.491   5.627 -0.3002 -2.1560 -3.8376
  591MOL0     H81526   7.549   8.207   5.705 -0.3906  0.4545  0.7025
  591MOL0     H81527   7.467   8.331   5.793 -0.2711  1.2865  0.7233
  591MOL0     H81528   7.698   8.377   5.901  0.6094 -1.2091  1.2423
  591MOL0     H81529   7.751   8.218   5.841  0.4041  0.5254 -1.8149
  591MOL0     H81530   7.505   8.287   6.020  0.4854 -0.0272  2.1725
  591MOL0     H81531   7.543   8.122   5.969  0.0365 -0.6783  2.2263
  591MOL0     H81532   7.710   8.312   6.144  0.5508 -0.3162  0.3372
  591MOL0     H81533   7.780   8.152   6.080  1.0555 -0.4242  0.0005
  591MOL0     H81534   7.563   8.049   6.202 -2.7290  1.0969  1.2378
  591MOL0     H81535   7.561   8.210   6.279  0.7109  0.4729 -0.1066
  591MOL0     H81536   7.790   8.015   6.253  0.2719  0.7271 -1.0622
  591MOL0     H81537   7.693   8.028   6.394 -0.0130 -1.0962 -1.0835
  591MOL0     H81538   8.044   8.225   5.541  1.2627 -1.5803  0.7481
  591MOL0     H81539   8.163   8.102   5.362 -0.4467  2.5491  1.1922
  591MOL0     H81540   7.914   7.757   5.075 -0.3739  0.0335 -1.7447
  591MOL0     H81541   7.893   7.547   4.941  0.3014 -2.4980  2.9268
  591MOL0     H81542   6.622   6.972   4.169 -1.4893  0.2178  1.1070
  591MOL0     H81543   6.391   6.945   4.191  0.0148  0.5831  0.3281
  591MOL0     H81544   6.061   6.848   3.841 -0.0478 -0.7339  2.6304
  591MOL0     H81545   5.858   6.808   3.698  1.6066 -0.1697 -0.0065
  591MOL0     H81546   5.530   7.126   3.664 -0.8770  0.7849  2.3338
  591MOL0     H81547   5.452   6.979   3.612  0.2092 -0.5414 -0.2764
  591MOL0     H81548   5.513   7.054   3.896  0.2261  2.2169 -2.0401
  591MOL0     H81549   5.398   6.926   3.846  2.4700 -1.9317  0.1853
  591MOL0     H81550   5.374   7.240   3.819 -1.9835  0.7234 -0.6526
  591MOL0     H81551   5.264   7.145   3.736 -3.7441 -1.5317  2.4768
  591MOL0     H81552   5.201   7.028   3.947  2.9508 -2.1183 -1.6222
  591MOL0     H81553   5.161   7.197   3.944  1.6375  1.3816  2.2825
  591MOL0     H81554   5.456   7.203   4.243 -0.5308  0.5389  0.8964
  591MOL0     H81555   5.693   7.182   3.831  1.3613  0.6914  0.9987
  591MOL0     H81556   5.971   7.259   4.050  0.8088 -0.3840 -1.6116
  591MOL0     H81557   5.885   7.349   3.919 -1.6801 -0.4852 -1.0143
  591MOL0     H81558   5.801   7.271   4.051  0.5097  0.7721  1.2786
  592MOL0     O81559  11.416   6.986  11.241  0.5162 -0.2054  0.9005
  592MOL0     C81560  11.489   7.025  11.333 -0.0628  0.5943  0.1136
  592MOL0     O81561  11.450   7.027  11.467  0.2576 -0.5528 -0.4920
  592MOL0     C81562  11.321   7.008  11.504  0.2975 -0.5205  0.3527
  592MOL0     C81563  11.245   6.896  11.463 -0.4340 -0.0234  0.9840
  592MOL0     C81564  11.111   6.885  11.498 -0.2148  0.2027  0.2966
  592MOL0     C81565  11.052   6.977  11.587  0.3930  0.3712 -1.1112
  592MOL0     O81566  10.917   6.950  11.622 -0.5391 -0.2864  0.0673
  592MOL0     C81567  10.863   7.043  11.718 -0.2646  1.0445  0.5980
  592MOL0     C81568  10.723   7.022  11.775  0.4450  0.0619 -0.0030
  592MOL0     C81569  10.679   6.882  11.813 -0.1603  0.3857  0.3852
  592MOL0     C81570  10.533   6.875  11.854 -0.5434  0.4101 -0.4292
  592MOL0     C81571  10.517   6.740  11.915  0.4053  0.3523 -0.1464
  592MOL0     C81572  10.365   6.709  11.948  0.2082 -0.3696  1.4252
  592MOL0     C81573  10.284   6.656  11.831 -0.0010  0.2230  0.0775
  592MOL0     C81574  10.132   6.662  11.876  0.2666  0.1680  1.0590
  592MOL0     N81575  10.029   6.629  11.779  0.1794  0.4189 -0.4494
  592MOL0     C81576   9.962   6.508  11.776  1.0848 -0.4678 -0.0546
  592MOL0     C81577   9.860   6.518  11.691  0.2448  1.0212  0.2878
  592MOL0     C81578   9.760   6.412  11.660 -0.3451  0.4145 -0.1034
  592MOL0     C81579   9.743   6.361  11.511 -0.4843  0.7276 -0.2078
  592MOL0     C81580   9.870   6.285  11.461  0.3467  0.3579 -0.0850
  592MOL0     C81581   9.860   6.240  11.311  0.2062 -0.3557 -0.2154
  592MOL0     O81582   9.963   6.156  11.273  0.1676  0.1535 -0.3067
  592MOL0     C81583  10.090   6.191  11.229 -0.7785 -1.1150 -0.3295
  592MOL0     C81584  10.125   6.325  11.199 -0.1425 -0.1168  0.1801
  592MOL0     C81585  10.256   6.362  11.150  0.2713  0.2694 -0.6592
  592MOL0     C81586  10.270   6.498  11.081  0.7058  0.6582 -0.3710
  592MOL0     C81587  10.367   6.270  11.150  0.1008 -0.1554  0.0932
  592MOL0     C81588  10.509   6.295  11.115  0.0629 -0.7704 -0.0510
  592MOL0     O81589  10.598   6.182  11.107 -0.2491  0.1877 -0.4030
  592MOL0     C81590  10.733   6.192  11.078 -0.1057 -0.3303  0.1323
  592MOL0     C81591  10.787   6.212  10.951  0.6787  0.3275  0.1229
  592MOL0     C81592  10.925   6.224  10.932 -0.3072 -0.0556  0.4923
  592MOL0     C81593  11.013   6.215  11.037  0.0646 -0.1623 -0.9717
  592MOL0     O81594  11.140   6.229  10.996 -0.8446  0.3793 -0.3458
  592MOL0     C81595  11.253   6.203  11.081 -1.1196 -0.5554 -1.5366
  592MOL0     C81596  11.278   6.050  11.096 -0.2546  0.1129 -0.3718
  592MOL0     C81597  11.382   6.000  11.197  0.2241  0.0549  0.2883
  592MOL0     C81598  11.397   5.851  11.181  0.1395  0.1326  0.1754
  592MOL0     C81599  11.473   5.773  11.286 -0.2452 -0.6010 -0.6703
  592MOL0     C81600  11.403   5.756  11.420  0.2656 -0.7497  0.2804
  592MOL0     C81601  11.260   5.706  11.424  0.3334 -0.0940 -0.5676
  592MOL0     C81602  11.191   5.691  11.563  0.4400 -0.9041 -0.0896
  592MOL0    Cl81603  11.172   5.849  11.650  0.2752 -0.1116  0.0460
  592MOL0     C81604  10.970   6.207  11.170 -0.4065  0.3822  0.3878
  592MOL0     C81605  10.822   6.194  11.189  0.2896  0.8123 -0.5987
  592MOL0     O81606  10.550   6.413  11.091 -0.6273 -0.2932 -0.9723
  592MOL0     C81607  10.326   6.140  11.191 -0.2198 -0.0037  1.0248
  592MOL0     C81608  10.193   6.097  11.231 -0.4215  0.3181  0.2718
  592MOL0     N81609   9.876   6.637  11.631  0.0654 -0.0460 -0.4871
  592MOL0     N81610   9.976   6.701  11.687 -0.0264  0.6940  0.3673
  592MOL0     C81611  11.130   7.093  11.618  0.2864 -1.0221  0.4206
  592MOL0     C81612  11.266   7.099  11.580  0.7668 -0.0955 -0.6244
  592MOL0     C81613  11.630   7.088  11.306  0.2385 -0.2771  0.5068
  592MOL0     C81614  11.719   7.113  11.412 -0.9361  0.1306 -0.0504
  592MOL0     C81615  11.848   7.155  11.393  0.8872 -0.3333 -0.2541
  592MOL0     C81616  11.896   7.170  11.267  0.6095  0.4306  0.6870
  592MOL0     O81617  12.032   7.208  11.269 -0.6142  0.9879 -0.4012
  592MOL0     C81618  12.089   7.239  11.141 -0.2342 -0.2556  0.7673
  592MOL0     C81619  12.223   7.305  11.177 -0.4710 -0.4792  0.7888
  592MOL0     C81620  12.249   7.422  11.079  0.3155  0.5063  0.5081
  592MOL0     C81621  12.297   7.361  10.951  0.1814  0.4526 -0.4665
  592MOL0     C81622  12.331   7.461  10.858 -0.2702  0.5963  0.5080
  592MOL0     C81623  12.349   7.534  10.766  0.4532 -0.4731 -0.0343
  592MOL0     C81624  11.814   7.151  11.156  0.2078  0.2612 -0.7551
  592MOL0     C81625  11.678   7.120  11.168  0.0019  0.1224 -0.9294
  592MOL0     C81626  11.582   7.129  11.054  0.0028  0.2579  0.5404
  592MOL0     H81627  11.297   6.820  11.405 -0.2042 -0.4693  1.7591
  592MOL0     H81628  11.050   6.805  11.457 -0.1441 -0.8675  2.1694
  592MOL0     H81629  10.865   7.145  11.676 -2.3798  0.4259 -1.2439
  592MOL0     H81630  10.923   7.029  11.808  0.1688  2.7819  0.6204
  592MOL0     H81631  10.725   7.080  11.868 -2.6787  0.6199 -0.1703
  592MOL0     H81632  10.643   7.056  11.708  0.3174  1.2921  0.7367
  592MOL0     H81633  10.697   6.810  11.733  3.8231  1.0327  0.5099
  592MOL0     H81634  10.738   6.834  11.892  0.4885 -3.4582 -2.1930
  592MOL0     H81635  10.511   6.954  11.926 -0.9398  0.1544 -0.2683
  592MOL0     H81636  10.472   6.888  11.764  0.6764  0.9567 -1.2107
  592MOL0     H81637  10.565   6.737  12.014  0.6459  1.5941 -0.2086
  592MOL0     H81638  10.554   6.660  11.849 -1.2492  0.5223 -1.3328
  592MOL0     H81639  10.344   6.629  12.020 -1.1859  0.0765  1.5516
  592MOL0     H81640  10.321   6.795  12.000 -1.1447  0.0687 -0.3605
  592MOL0     H81641  10.306   6.551  11.809 -1.2775  0.1291 -0.8958
  592MOL0     H81642  10.304   6.705  11.735 -0.7502  0.5957  0.1036
  592MOL0     H81643  10.124   6.609  11.972 -0.9871 -2.6621 -0.4804
  592MOL0     H81644  10.104   6.766  11.892 -1.8813 -0.3537  0.8921
  592MOL0     H81645   9.981   6.422  11.841  2.7191 -0.7247 -0.8177
  592MOL0     H81646   9.666   6.458  11.694  0.2651  1.0239  0.8106
  592MOL0     H81647   9.794   6.329  11.723  3.2333  3.5032  2.5123
  592MOL0     H81648   9.653   6.300  11.499 -1.1885  1.9186 -1.3512
  592MOL0     H81649   9.731   6.454  11.454  0.0106  1.0336  0.1768
  592MOL0     H81650   9.959   6.348  11.465 -0.0239  1.1434 -2.4447
  592MOL0     H81651   9.891   6.192  11.514 -1.8973  0.7655  1.6711
  592MOL0     H81652   9.761   6.196  11.293 -0.3268  1.0019 -0.7902
  592MOL0     H81653   9.861   6.325  11.242 -2.0567 -1.6533 -1.9739
  592MOL0     H81654  10.048   6.401  11.195 -1.4685 -1.3982 -4.0012
  592MOL0     H81655  10.331   6.490  10.991 -0.5758  0.5534 -1.2573
  592MOL0     H81656  10.320   6.563  11.153  1.8780 -1.4864  0.8888
  592MOL0     H81657  10.172   6.540  11.056  0.3815  1.0450  1.4299
  592MOL0     H81658  10.729   6.212  10.860  0.3072 -0.3842  0.3558
  592MOL0     H81659  10.964   6.237  10.831 -0.4224  1.8139  0.6593
  592MOL0     H81660  11.343   6.246  11.036  1.5657 -0.5060  3.2909
  592MOL0     H81661  11.246   6.254  11.177 -0.1704  0.0352 -1.7681
  592MOL0     H81662  11.180   6.007  11.120  1.0480 -3.5370 -0.8198
  592MOL0     H81663  11.302   6.017  10.994 -1.0678  1.7547 -1.1346
  592MOL0     H81664  11.359   6.035  11.298  0.8523 -1.2160  0.8881
  592MOL0     H81665  11.478   6.047  11.173  0.7935 -1.0947  0.2569
  592MOL0     H81666  11.441   5.834  11.083  1.4795 -0.7524  0.8899
  592MOL0     H81667  11.300   5.803  11.167 -2.2157  4.0128  1.5561
  592MOL0     H81668  11.497   5.672  11.252 -0.2288 -0.8508  0.0662
  592MOL0     H81669  11.570   5.823  11.297 -0.3535 -0.2725 -1.2048
  592MOL0     H81670  11.412   5.850  11.475  2.1689  0.7090 -2.3291
  592MOL0     H81671  11.463   5.676  11.466  1.3660 -0.5466 -0.7677
  592MOL0     H81672  11.264   5.609  11.374  6.1145 -0.3986 -0.2221
  592MOL0     H81673  11.200   5.773  11.362  2.6957  0.5948 -2.2731
  592MOL0     H81674  11.239   5.619  11.630 -0.5612 -2.3357 -0.8604
  592MOL0     H81675  11.095   5.641  11.547  1.3099 -2.7568  0.2666
  592MOL0     H81676  11.038   6.203  11.255 -0.1159  0.2042  0.1476
  592MOL0     H81677  10.780   6.186  11.289  2.6603 -1.5301  0.3409
  592MOL0     H81678  10.401   6.063  11.209 -0.6963 -0.7096  0.0626
  592MOL0     H81679  10.165   5.992  11.224  0.4634  0.0973 -0.0649
  592MOL0     H81680  11.084   7.175  11.673 -0.7179 -1.7232  0.6721
  592MOL0     H81681  11.321   7.187  11.611  0.4213  0.3193 -1.1633
  592MOL0     H81682  11.687   7.098  11.515 -0.1220  1.1117  0.3505
  592MOL0     H81683  11.905   7.184  11.480 -3.3426  2.3221  1.9374
  592MOL0     H81684  12.109   7.146  11.088 -1.0517  0.7624 -1.4690
  592MOL0     H81685  12.018   7.306  11.092  1.8054  1.3974 -0.0776
  592MOL0     H81686  12.300   7.228  11.190 -1.3958 -1.5559  0.0075
  592MOL0     H81687  12.207   7.355  11.274  0.2659  3.3576 -0.8736
  592MOL0     H81688  12.156   7.478  11.066 -0.6263 -1.3897 -1.6941
  592MOL0     H81689  12.323   7.488  11.126  0.9018 -0.1750  0.5691
  592MOL0     H81690  12.229   7.281  10.922  0.2546 -1.1827  3.2371
  592MOL0     H81691  12.390   7.307  10.972 -1.7094 -1.6137  3.8727
  592MOL0     H81692  12.355   7.605  10.686 -0.3102 -1.8111 -1.3107
  592MOL0     H81693  11.857   7.161  11.057 -0.9382  2.8818 -1.0815
  592MOL0     H81694  11.492   7.189  11.072 -2.5400 -2.6722 -1.2908
  592MOL0     H81695  11.637   7.175  10.971  1.6956 -1.3004  0.7450
  592MOL0     H81696  11.544   7.034  11.015 -2.2918  1.4120 -0.2507
  593MOL0     O81697   0.986   7.279   9.948  0.0514  0.0718 -0.0079
  593MOL0     C81698   0.899   7.351   9.879 -0.1245  0.4428  0.3988
  593MOL0     O81699   0.926   7.464   9.804 -0.4093  0.0708 -0.3009
  593MOL0     C81700   1.054   7.484   9.753  0.4055  0.1162  0.0860
  593MOL0     C81701   1.180   7.472   9.821 -0.7055  0.1604 -0.2695
  593MOL0     C81702   1.297   7.505   9.761 -0.4536 -0.2593 -1.1255
  593MOL0     C81703   1.298   7.540   9.626  0.4591 -0.3815 -0.3488
  593MOL0     O81704   1.414   7.569   9.556 -0.2832 -0.1560 -0.1643
  593MOL0     C81705   1.548   7.552   9.596 -1.0907  0.2239  0.9155
  593MOL0     C81706   1.621   7.670   9.663 -0.0103  0.3673 -0.3759
  593MOL0     C81707   1.772   7.628   9.693  1.4067 -0.5942 -0.5361
  593MOL0     C81708   1.855   7.728   9.771 -0.6028  0.2681 -0.4305
  593MOL0     C81709   1.984   7.656   9.827 -0.0364 -0.3128 -0.2366
  593MOL0     C81710   2.080   7.755   9.888 -0.1447  0.4791 -0.2936
  593MOL0     C81711   2.214   7.691   9.928 -0.8774  0.5136 -0.1107
  593MOL0     C81712   2.323   7.801   9.966  0.8447  0.2248  0.1148
  593MOL0     N81713   2.456   7.744   9.985 -0.1771 -1.0622 -0.6500
  593MOL0     C81714   2.525   7.727  10.102 -0.1972 -0.1876  0.6169
  593MOL0     C81715   2.646   7.682  10.060  0.3022  0.5916 -0.0627
  593MOL0     C81716   2.765   7.649  10.147 -0.4732  0.8918  0.4598
  593MOL0     C81717   2.888   7.722  10.098  0.2481 -0.5393 -0.8338
  593MOL0     C81718   2.996   7.719  10.207 -0.6152  0.2159 -0.4010
  593MOL0     C81719   3.128   7.794  10.160 -0.3534  0.2226 -0.3011
  593MOL0     O81720   3.199   7.806  10.287  0.0239  0.0206  0.3012
  593MOL0     C81721   3.304   7.895  10.280  0.0409 -0.5144  0.0014
  593MOL0     C81722   3.348   7.973  10.167 -0.4368  0.3119 -0.4599
  593MOL0     C81723   3.463   8.063  10.174  0.0429  0.5431  0.6751
  593MOL0     C81724   3.497   8.138  10.044  0.5393  0.7506 -0.2997
  593MOL0     C81725   3.526   8.092  10.295  0.7007  0.2188 -0.0196
  593MOL0     C81726   3.653   8.172  10.315  0.0710 -0.2624  0.1849
  593MOL0     O81727   3.766   8.108  10.343 -0.0251  0.7177 -0.2039
  593MOL0     C81728   3.860   8.183  10.411 -0.3670 -0.6394  0.0025
  593MOL0     C81729   3.838   8.244  10.527  0.1185 -0.1862 -0.0874
  593MOL0     C81730   3.933   8.337  10.580  0.8696 -0.7288  0.0825
  593MOL0     C81731   4.061   8.359  10.522 -0.5608 -0.0168 -0.1198
  593MOL0     O81732   4.154   8.453  10.559 -0.2149 -0.5667 -0.1835
  593MOL0     C81733   4.124   8.552  10.652  0.9053  0.4947  0.7032
  593MOL0     C81734   4.144   8.495  10.796 -0.0413 -0.8624 -0.3661
  593MOL0     C81735   4.285   8.444  10.817  0.0912  0.3272  0.3373
  593MOL0     C81736   4.319   8.456  10.969  0.4330  0.4770  0.1660
  593MOL0     C81737   4.441   8.377  11.006 -0.1141  0.1838 -0.7038
  593MOL0     C81738   4.473   8.424  11.153 -0.1188  0.3916  0.4822
  593MOL0     C81739   4.601   8.366  11.215  0.3022 -0.1232 -0.2104
  593MOL0     C81740   4.724   8.448  11.160  0.7866  0.2693 -0.1015
  593MOL0    Cl81741   4.710   8.635  11.160  0.2608  0.3014  0.1693
  593MOL0     C81742   4.089   8.279  10.416  0.4011 -0.1249 -0.0405
  593MOL0     C81743   3.994   8.188  10.355 -0.6364 -0.0729 -0.7825
  593MOL0     O81744   3.645   8.297  10.305 -0.0087  0.6991  0.5869
  593MOL0     C81745   3.479   8.024  10.407 -0.1927 -0.3738 -0.1144
  593MOL0     C81746   3.372   7.929  10.402 -0.3899  0.3755  0.3359
  593MOL0     N81747   2.650   7.672   9.918  1.0569 -0.6674  0.3008
  593MOL0     N81748   2.533   7.706   9.877 -0.0247  0.1755  0.6472
  593MOL0     C81749   1.176   7.547   9.551 -0.0175 -0.1591 -0.2703
  593MOL0     C81750   1.057   7.523   9.618  0.1634 -0.0653  0.3705
  593MOL0     C81751   0.762   7.286   9.888 -0.1738 -0.5763 -0.3645
  593MOL0     C81752   0.742   7.149   9.935  0.0360 -0.3608 -0.1910
  593MOL0     C81753   0.614   7.101   9.956 -1.4839  0.4285  0.1947
  593MOL0     C81754   0.504   7.168   9.920  0.1561 -0.5932  0.6980
  593MOL0     O81755   0.382   7.102   9.936 -0.8538 -0.7263 -0.1894
  593MOL0     C81756   0.276   7.138   9.853  1.3465 -0.1630 -0.2328
  593MOL0     C81757   0.166   7.032   9.842  0.7836 -0.0969 -0.2215
  593MOL0     C81758   0.079   7.036   9.968  0.4069 -0.1244  0.3232
  593MOL0     C81759  -0.027   6.920   9.985 -0.3566 -0.4944  0.6627
  593MOL0     C81760   0.046   6.795   9.979 -0.4356 -0.2228 -0.3006
  593MOL0     C81761   0.113   6.702   9.982 -0.8263  0.2338 -0.0607
  593MOL0     C81762   0.523   7.296   9.867  0.0527  0.1194  0.1811
  593MOL0     C81763   0.648   7.361   9.851 -0.1505  0.6546 -0.3351
  593MOL0     C81764   0.640   7.504   9.815 -0.4670 -0.2591 -0.0453
  593MOL0     H81765   1.173   7.435   9.923 -0.2424 -1.4953 -0.8070
  593MOL0     H81766   1.391   7.505   9.817  0.4590  1.1059 -2.5670
  593MOL0     H81767   1.607   7.548   9.504 -2.3346 -1.1871  0.1497
  593MOL0     H81768   1.568   7.457   9.646 -0.7768 -1.7843 -2.7066
  593MOL0     H81769   1.616   7.750   9.588  1.5200  0.9282  0.0944
  593MOL0     H81770   1.569   7.694   9.756  0.3910 -2.0959  0.5546
  593MOL0     H81771   1.765   7.536   9.752  1.3106  1.0427  2.1890
  593MOL0     H81772   1.819   7.597   9.599  0.6728 -1.6447 -0.5742
  593MOL0     H81773   1.891   7.815   9.716 -0.4560 -0.2758 -1.2133
  593MOL0     H81774   1.787   7.763   9.849 -1.1300 -0.0911 -0.7199
  593MOL0     H81775   2.035   7.593   9.754  0.5424  0.0357 -0.1419
  593MOL0     H81776   1.954   7.589   9.907  3.9164  1.3556  3.0127
  593MOL0     H81777   2.103   7.820   9.803 -0.8459  0.9164 -0.1580
  593MOL0     H81778   2.031   7.808   9.970  1.5578 -2.4203  2.8578
  593MOL0     H81779   2.256   7.629   9.849  0.3891 -3.1580  3.1318
  593MOL0     H81780   2.198   7.630  10.017  1.1791 -1.1311 -0.7727
  593MOL0     H81781   2.328   7.875   9.885 -2.5309  1.5225  0.9175
  593MOL0     H81782   2.282   7.848  10.056  0.7932 -0.3548  0.3977
  593MOL0     H81783   2.500   7.748  10.205 -0.7324 -1.3988  0.7563
  593MOL0     H81784   2.779   7.541  10.143  0.1762  0.8528  2.4725
  593MOL0     H81785   2.739   7.682  10.248 -0.8432  1.2685  0.2416
  593MOL0     H81786   2.921   7.690   9.999  0.2717  1.6695 -1.5918
  593MOL0     H81787   2.852   7.825  10.095  1.1014 -0.2277 -0.6429
  593MOL0     H81788   2.958   7.779  10.290  0.3823 -0.6264  0.7026
  593MOL0     H81789   3.020   7.615  10.230 -1.6526 -0.2796 -1.4067
  593MOL0     H81790   3.191   7.748  10.083 -0.7311  0.4319 -0.7446
  593MOL0     H81791   3.084   7.889  10.128 -2.3709 -2.1077 -5.5506
  593MOL0     H81792   3.307   7.956  10.067  0.4575 -1.6150 -0.5456
  593MOL0     H81793   3.539   8.070   9.970 -1.6220 -1.0133  0.0031
  593MOL0     H81794   3.570   8.216  10.069 -1.2022  1.8995  1.4704
  593MOL0     H81795   3.409   8.192  10.009  0.1368 -0.0154 -0.4806
  593MOL0     H81796   3.746   8.228  10.581 -0.4244  2.9272  0.1255
  593MOL0     H81797   3.900   8.397  10.664  2.6821 -0.5266  0.6842
  593MOL0     H81798   4.192   8.636  10.636  1.5139 -0.4630 -2.6823
  593MOL0     H81799   4.023   8.592  10.635 -0.0173 -2.5716 -2.3889
  593MOL0     H81800   4.123   8.563  10.879  0.3139 -2.2714  0.9200
  593MOL0     H81801   4.085   8.403  10.800 -2.8931  0.8661  0.2229
  593MOL0     H81802   4.361   8.511  10.776  0.2959  0.9687  1.7296
  593MOL0     H81803   4.298   8.344  10.774 -2.0108  0.8593 -1.7831
  593MOL0     H81804   4.235   8.420  11.030 -1.5983  2.4096 -1.3160
  593MOL0     H81805   4.325   8.563  10.989  4.2856  0.5488 -0.6722
  593MOL0     H81806   4.411   8.272  11.002 -0.7866  0.3510 -0.1781
  593MOL0     H81807   4.533   8.403  10.952  0.3519 -0.9924 -0.4964
  593MOL0     H81808   4.386   8.388  11.209 -0.0897  1.9367  1.5895
  593MOL0     H81809   4.475   8.533  11.161  0.5151  0.6523 -2.1992
  593MOL0     H81810   4.613   8.261  11.186  1.6402 -0.2778  0.8373
  593MOL0     H81811   4.596   8.381  11.323 -4.0921 -0.3285 -0.1994
  593MOL0     H81812   4.736   8.410  11.058  0.9709  3.2703 -1.3068
  593MOL0     H81813   4.808   8.419  11.224  0.2458 -0.0777  0.4599
  593MOL0     H81814   4.175   8.301  10.353 -0.0528  1.3836 -0.1847
  593MOL0     H81815   4.012   8.125  10.269  0.8555 -0.1235 -0.4576
  593MOL0     H81816   3.526   8.042  10.503  0.7433 -1.9315 -0.2491
  593MOL0     H81817   3.334   7.899  10.499 -3.2805  0.1925 -0.7445
  593MOL0     H81818   1.172   7.596   9.455 -0.1730  0.7802  0.2087
  593MOL0     H81819   0.960   7.528   9.570 -0.7521 -3.1472  1.6436
  593MOL0     H81820   0.821   7.083   9.969  0.7817  0.1319 -0.9377
  593MOL0     H81821   0.603   6.998   9.989 -1.0876 -0.5246 -2.3563
  593MOL0     H81822   0.240   7.230   9.900 -3.4585 -2.4198  1.1363
  593MOL0     H81823   0.322   7.141   9.754  1.9222 -2.8459 -0.1396
  593MOL0     H81824   0.216   6.936   9.827  1.7100  0.5214 -1.2398
  593MOL0     H81825   0.089   7.043   9.765  1.7250 -0.7118 -1.2817
  593MOL0     H81826   0.147   7.033  10.053 -0.8243 -1.4956  1.3149
  593MOL0     H81827   0.017   7.126   9.963 -1.8220 -1.4836  1.7049
  593MOL0     H81828  -0.095   6.929   9.899 -0.6106  2.9498  1.0695
  593MOL0     H81829  -0.090   6.924  10.074 -1.9411 -0.8917 -0.3920
  593MOL0     H81830   0.174   6.614   9.980  0.1069  0.8636 -0.4898
  593MOL0     H81831   0.432   7.350   9.841 -0.4319 -0.0382  1.4835
  593MOL0     H81832   0.671   7.563   9.901  2.2136 -0.4622 -0.7650
  593MOL0     H81833   0.693   7.542   9.727 -1.4102 -0.1832 -0.5953
  593MOL0     H81834   0.534   7.529   9.805 -0.6854 -1.0854  0.1087
  594MOL0     O81835   9.038   0.642   1.719 -0.3497  0.4478  0.6247
  594MOL0     C81836   8.939   0.623   1.648 -0.0071 -1.1617 -0.7347
  594MOL0     O81837   8.907   0.697   1.536 -0.0486  0.2533 -0.2127
  594MOL0     C81838   8.998   0.794   1.493  0.6101  0.8085  0.1158
  594MOL0     C81839   9.112   0.753   1.435 -0.0683 -0.5027  0.4331
  594MOL0     C81840   9.219   0.847   1.405 -0.4868 -0.4789  0.0882
  594MOL0     C81841   9.207   0.986   1.425 -0.4633 -0.9421 -0.5061
  594MOL0     O81842   9.315   1.065   1.389  0.7775  0.3265 -0.2623
  594MOL0     C81843   9.322   1.200   1.430  0.5416 -0.5274 -0.0410
  594MOL0     C81844   9.456   1.257   1.387  0.3408 -0.1468  0.2084
  594MOL0     C81845   9.497   1.380   1.463  0.8069 -0.1340 -0.1143
  594MOL0     C81846   9.642   1.440   1.425  0.0013 -0.3281  0.3065
  594MOL0     C81847   9.688   1.525   1.537  0.3980 -0.2156  0.4102
  594MOL0     C81848   9.829   1.568   1.515  0.1083 -1.0102  0.1429
  594MOL0     C81849   9.891   1.656   1.624 -0.2967 -0.3536  1.3074
  594MOL0     C81850   9.836   1.800   1.622 -0.0598 -0.1924 -0.8124
  594MOL0     N81851   9.907   1.875   1.720 -0.3975  0.3370  0.5301
  594MOL0     C81852  10.030   1.921   1.699 -0.5446 -0.5820 -0.5619
  594MOL0     C81853  10.059   1.979   1.820 -0.1747 -0.3916  0.6894
  594MOL0     C81854  10.186   2.056   1.846 -0.1125  0.7692  0.3473
  594MOL0     C81855  10.167   2.206   1.848 -0.0541  0.3147  0.5692
  594MOL0     C81856  10.253   2.272   1.962  0.4192 -0.2022 -0.5142
  594MOL0     C81857  10.409   2.247   1.962 -0.3196  0.0444 -0.2873
  594MOL0     O81858  10.464   2.300   1.837 -0.0055  0.0740  0.1782
  594MOL0     C81859  10.594   2.258   1.803 -0.1543  0.8342  1.0110
  594MOL0     C81860  10.644   2.279   1.674  1.1362 -0.6444 -0.0804
  594MOL0     C81861  10.765   2.224   1.624  0.4538  0.5000  0.0072
  594MOL0     C81862  10.792   2.234   1.477  0.4748  0.3026  0.3967
  594MOL0     C81863  10.851   2.156   1.719 -0.4975  0.6915  0.1023
  594MOL0     C81864  10.986   2.092   1.683  0.6687  0.5594  0.0990
  594MOL0     O81865  11.054   2.024   1.775 -0.3399 -0.3992  0.5446
  594MOL0     C81866  11.179   1.976   1.739 -0.2232  0.3186 -0.1569
  594MOL0     C81867  11.219   1.877   1.828 -0.4060  0.1570 -0.4564
  594MOL0     C81868  11.346   1.822   1.820  1.5450  0.6251  0.5864
  594MOL0     C81869  11.445   1.864   1.734  0.0478 -0.1036 -0.0717
  594MOL0     O81870  11.566   1.800   1.714  0.1686 -0.1839  0.0027
  594MOL0     C81871  11.628   1.740   1.829 -0.1820 -1.3678 -0.0134
  594MOL0     C81872  11.660   1.848   1.944 -0.1956 -1.4376  0.2955
  594MOL0     C81873  11.790   1.930   1.925  0.5475 -0.3065 -0.2095
  594MOL0     C81874  11.822   2.015   2.052  0.5768  0.3123 -0.3003
  594MOL0     C81875  11.946   2.096   2.030  0.0898 -0.2594  0.5682
  594MOL0     C81876  11.976   2.184   2.149 -0.1514 -0.6001  0.1927
  594MOL0     C81877  12.089   2.289   2.116 -0.0997  1.4112 -0.4764
  594MOL0     C81878  12.164   2.349   2.230  1.1172 -0.9830  0.7105
  594MOL0    Cl81879  12.054   2.451   2.337  0.0505 -0.8882  0.5647
  594MOL0     C81880  11.402   1.949   1.636  0.0555 -0.8417 -1.1028
  594MOL0     C81881  11.280   2.016   1.647  0.3188 -0.5873  0.2670
  594MOL0     O81882  11.019   2.107   1.567 -0.6281 -0.6263 -0.1749
  594MOL0     C81883  10.806   2.149   1.849  1.2716  0.1712  0.0041
  594MOL0     C81884  10.676   2.188   1.894 -0.1162  0.1268 -0.6104
  594MOL0     N81885   9.951   1.954   1.907 -0.5206  0.2097 -0.1522
  594MOL0     N81886   9.851   1.902   1.844 -1.3081  0.1085  0.0714
  594MOL0     C81887   9.086   1.025   1.489 -0.4968 -0.0254 -0.2325
  594MOL0     C81888   8.979   0.928   1.519  0.5935 -0.3237  0.2316
  594MOL0     C81889   8.836   0.542   1.702 -0.2945  0.4287  0.2333
  594MOL0     C81890   8.708   0.591   1.693  0.0243 -0.6294 -0.1833
  594MOL0     C81891   8.597   0.524   1.750 -0.4053 -0.5429  0.3649
  594MOL0     C81892   8.623   0.411   1.827 -1.5047 -1.1982 -1.0780
  594MOL0     O81893   8.516   0.347   1.880  0.4020  0.3311  0.1315
  594MOL0     C81894   8.505   0.350   2.022  0.6429  0.8984 -1.3894
  594MOL0     C81895   8.407   0.248   2.091  0.3963  0.4939 -0.3536
  594MOL0     C81896   8.406   0.256   2.244  0.5514 -0.2310 -0.1357
  594MOL0     C81897   8.299   0.359   2.287 -0.0604  0.3845  0.7555
  594MOL0     C81898   8.294   0.373   2.431 -0.5639  0.3151 -0.8026
  594MOL0     C81899   8.300   0.369   2.555 -0.8668  0.0074 -0.3881
  594MOL0     C81900   8.750   0.354   1.824 -0.5348 -0.2693 -0.2090
  594MOL0     C81901   8.858   0.414   1.761 -0.8970  0.4179 -0.2434
  594MOL0     C81902   8.995   0.346   1.754 -0.4548  0.2889 -0.6045
  594MOL0     H81903   9.131   0.650   1.410  1.8536 -0.7516  2.6084
  594MOL0     H81904   9.312   0.821   1.356  0.8214  1.8880  1.1813
  594MOL0     H81905   9.292   1.218   1.533  0.3590  0.9465 -0.3215
  594MOL0     H81906   9.238   1.241   1.373 -1.0885 -3.2748  0.1904
  594MOL0     H81907   9.529   1.178   1.406 -1.0719 -1.1491  1.5964
  594MOL0     H81908   9.447   1.281   1.280 -0.2911 -1.3071 -0.0168
  594MOL0     H81909   9.423   1.459   1.476  2.3449  1.2533  0.6487
  594MOL0     H81910   9.509   1.345   1.566  1.2246  1.0510  0.2499
  594MOL0     H81911   9.716   1.361   1.411  0.0079 -0.0298 -1.6643
  594MOL0     H81912   9.627   1.493   1.331 -6.9610 -2.6990 -0.4712
  594MOL0     H81913   9.684   1.471   1.632 -2.0327  0.2175  0.6088
  594MOL0     H81914   9.618   1.609   1.539  1.6479  1.1925 -4.0041
  594MOL0     H81915   9.881   1.473   1.506 -1.4241 -1.9735  0.9235
  594MOL0     H81916   9.833   1.609   1.414 -1.5056 -0.7887  0.1364
  594MOL0     H81917   9.999   1.662   1.607 -0.6028  2.3841 -0.2068
  594MOL0     H81918   9.869   1.620   1.725  1.0202  0.5436  1.9468
  594MOL0     H81919   9.846   1.843   1.522  0.7573  0.6664 -0.3732
  594MOL0     H81920   9.729   1.793   1.645  0.1873 -3.0717 -0.0776
  594MOL0     H81921  10.100   1.913   1.616  1.5136 -0.7520  1.0927
  594MOL0     H81922  10.262   2.026   1.774  0.1869 -2.6272  1.8571
  594MOL0     H81923  10.223   2.022   1.943 -1.8013  1.7786  1.4080
  594MOL0     H81924  10.190   2.240   1.746  2.2338 -2.0512  0.2012
  594MOL0     H81925  10.060   2.222   1.860 -0.2188 -1.3290  1.5828
  594MOL0     H81926  10.226   2.378   1.969 -0.3962 -0.4945  1.7585
  594MOL0     H81927  10.223   2.226   2.056  0.7021 -0.9880 -0.8007
  594MOL0     H81928  10.444   2.291   2.055 -2.9937  3.2110 -0.6135
  594MOL0     H81929  10.413   2.138   1.963 -0.2138  0.0394 -0.7674
  594MOL0     H81930  10.567   2.318   1.609  0.1980 -0.0881  1.3280
  594MOL0     H81931  10.798   2.137   1.426 -1.4759 -0.3110  1.2690
  594MOL0     H81932  10.889   2.284   1.460  1.3244 -1.0557  1.1329
  594MOL0     H81933  10.715   2.293   1.426  1.3614 -0.1039 -1.5013
  594MOL0     H81934  11.144   1.828   1.889 -0.4990 -0.7093 -1.2324
  594MOL0     H81935  11.374   1.753   1.900  3.5297 -0.3670 -0.8761
  594MOL0     H81936  11.562   1.659   1.859 -1.0956 -1.4716 -2.1005
  594MOL0     H81937  11.722   1.700   1.792  0.0398 -1.6048  0.7937
  594MOL0     H81938  11.587   1.926   1.966 -1.5815 -1.4835 -3.4375
  594MOL0     H81939  11.674   1.801   2.042 -2.0155  1.0140  1.8343
  594MOL0     H81940  11.767   1.999   1.843 -0.5208  1.6303  1.6334
  594MOL0     H81941  11.871   1.865   1.891  1.3921  0.8775 -0.5115
  594MOL0     H81942  11.841   1.950   2.137 -0.8866  1.1628  0.7280
  594MOL0     H81943  11.739   2.080   2.079  0.2035 -0.1633 -0.2902
  594MOL0     H81944  12.027   2.023   2.029  0.3268 -0.0058  1.0513
  594MOL0     H81945  11.936   2.167   1.947  1.8271 -0.1596  0.4058
  594MOL0     H81946  11.999   2.119   2.234  0.0364 -2.8387 -1.4932
  594MOL0     H81947  11.887   2.244   2.171  0.1430  0.5761 -1.6105
  594MOL0     H81948  12.044   2.379   2.072 -1.5768  0.8236 -0.2187
  594MOL0     H81949  12.161   2.232   2.057 -2.1659 -0.6924 -1.1129
  594MOL0     H81950  12.250   2.408   2.197  0.4869  1.1319  2.5978
  594MOL0     H81951  12.198   2.263   2.288 -1.1764 -2.8004 -0.4684
  594MOL0     H81952  11.470   1.981   1.558 -0.6939  2.4014 -0.5819
  594MOL0     H81953  11.251   2.108   1.596 -0.0784 -0.1942  1.1869
  594MOL0     H81954  10.870   2.109   1.927  1.4971  1.8071  0.7210
  594MOL0     H81955  10.639   2.168   1.994  1.5937  1.4045  0.3232
  594MOL0     H81956   9.077   1.132   1.504 -0.7133  0.2150 -1.8747
  594MOL0     H81957   8.880   0.956   1.555  0.0635 -2.6795  0.7245
  594MOL0     H81958   8.700   0.690   1.651  2.2263  0.6833  2.1998
  594MOL0     H81959   8.499   0.567   1.732  0.4718  2.0126  1.2544
  594MOL0     H81960   8.603   0.340   2.069 -0.1040  0.6368  0.2068
  594MOL0     H81961   8.474   0.451   2.053  0.9912  1.0128 -1.4138
  594MOL0     H81962   8.437   0.149   2.055 -0.6648  0.9881 -2.8230
  594MOL0     H81963   8.303   0.257   2.058  0.8358 -0.8841 -2.3287
  594MOL0     H81964   8.379   0.163   2.296  0.5469  0.5022  1.2165
  594MOL0     H81965   8.506   0.276   2.283  2.3155 -5.1020 -1.3854
  594MOL0     H81966   8.200   0.328   2.251  0.6453 -1.0420 -0.0570
  594MOL0     H81967   8.318   0.450   2.230  4.1638 -2.2474 -2.6655
  594MOL0     H81968   8.288   0.350   2.660 -1.9763 -2.4179 -0.8804
  594MOL0     H81969   8.782   0.274   1.890  0.4319 -0.3716 -0.7901
  594MOL0     H81970   8.972   0.239   1.757 -1.6963  0.5286 -1.1146
  594MOL0     H81971   9.053   0.363   1.663 -0.9771 -0.9960 -1.1915
  594MOL0     H81972   9.053   0.375   1.843 -0.9236 -0.8254  0.0951
  595MOL0     O81973   5.499   2.737  10.800 -0.3111  0.3438 -0.3594
  595MOL0     C81974   5.377   2.741  10.803  0.5306 -0.3038 -0.0673
  595MOL0     O81975   5.293   2.639  10.771 -0.3997  0.6199  0.4078
  595MOL0     C81976   5.350   2.536  10.702  0.0174  0.2380  0.4251
  595MOL0     C81977   5.363   2.530  10.564 -0.3796  0.6028 -0.0359
  595MOL0     C81978   5.412   2.422  10.497  0.1407  0.8521 -0.0949
  595MOL0     C81979   5.435   2.301  10.570 -0.2261 -0.8844  0.6551
  595MOL0     O81980   5.451   2.188  10.492  0.2697 -0.2914 -0.0678
  595MOL0     C81981   5.505   2.072  10.555 -0.0987  0.3750 -0.2079
  595MOL0     C81982   5.380   1.985  10.606  0.9001 -0.4260 -0.1998
  595MOL0     C81983   5.433   1.859  10.657 -0.2046  0.6840 -0.4612
  595MOL0     C81984   5.516   1.881  10.786  0.8846  0.6042  0.4423
  595MOL0     C81985   5.663   1.854  10.766  0.6277  0.4757  0.0807
  595MOL0     C81986   5.749   1.824  10.894  0.1098 -0.4820  0.9357
  595MOL0     C81987   5.893   1.808  10.858 -0.8559  0.7624  0.5427
  595MOL0     C81988   5.959   1.770  10.992 -0.2572  0.2967 -0.5656
  595MOL0     N81989   6.108   1.775  10.980  0.0421 -0.9709 -0.3720
  595MOL0     C81990   6.186   1.719  10.887 -0.6714 -0.2175  0.5581
  595MOL0     C81991   6.314   1.745  10.925 -0.7689 -0.2223  0.8160
  595MOL0     C81992   6.436   1.737  10.834 -1.1835 -0.1765  1.6045
  595MOL0     C81993   6.434   1.606  10.752  0.3999 -0.8232 -0.8052
  595MOL0     C81994   6.558   1.579  10.672 -0.1593 -0.7135  0.5170
  595MOL0     C81995   6.546   1.443  10.604 -0.7880 -0.1129  0.0564
  595MOL0     O81996   6.682   1.407  10.582  0.3328 -0.3280 -0.1437
  595MOL0     C81997   6.710   1.294  10.512  0.0253 -0.0096  0.1284
  595MOL0     C81998   6.810   1.205  10.564 -0.2760 -1.5867  1.1709
  595MOL0     C81999   6.825   1.082  10.497 -0.2860  0.1914  0.3010
  595MOL0     C82000   6.922   0.986  10.557 -0.8495 -0.2922 -0.1304
  595MOL0     C82001   6.755   1.055  10.375 -0.6192  0.5964  1.1665
  595MOL0     C82002   6.765   0.924  10.289  0.2129 -0.1695  0.0529
  595MOL0     O82003   6.679   0.910  10.177 -0.0834  0.2612  0.2995
  595MOL0     C82004   6.673   0.800  10.104  0.3621 -0.1927  0.2831
  595MOL0     C82005   6.768   0.701  10.091  0.3856  0.3363 -0.1971
  595MOL0     C82006   6.748   0.602   9.991  1.1081 -0.4750  0.3812
  595MOL0     C82007   6.639   0.607   9.900 -0.0449 -1.0173  0.5180
  595MOL0     O82008   6.634   0.495   9.807 -1.0457 -0.0325 -0.3370
  595MOL0     C82009   6.551   0.497   9.697  0.2304  0.6570  0.0112
  595MOL0     C82010   6.594   0.588   9.575 -0.4263  0.6098 -0.6885
  595MOL0     C82011   6.677   0.491   9.474  1.2102  0.3137 -0.9658
  595MOL0     C82012   6.828   0.520   9.496 -0.1170 -0.9345 -0.1604
  595MOL0     C82013   6.933   0.469   9.402  0.2338 -0.4715  0.4478
  595MOL0     C82014   6.930   0.547   9.266 -0.6123 -0.6268  0.5291
  595MOL0     C82015   7.044   0.528   9.169  0.3930  0.7464  0.7675
  595MOL0     C82016   7.169   0.607   9.210  1.0116 -0.4518 -0.4503
  595MOL0    Cl82017   7.143   0.782   9.203  0.1695  0.2169 -0.0285
  595MOL0     C82018   6.550   0.713   9.908  0.2447  0.1691 -0.6514
  595MOL0     C82019   6.569   0.806  10.009 -0.5890 -0.4811 -0.7817
  595MOL0     O82020   6.857   0.849  10.312 -0.0591  0.4486 -0.8293
  595MOL0     C82021   6.692   1.153  10.317  0.8410 -1.0259 -0.3120
  595MOL0     C82022   6.657   1.267  10.388  0.0825 -0.7982  0.0716
  595MOL0     N82023   6.314   1.809  11.044 -0.1822 -0.4039 -0.1318
  595MOL0     N82024   6.190   1.829  11.067  0.3465 -0.1007  0.4867
  595MOL0     C82025   5.417   2.299  10.707 -0.3445 -0.4385 -0.0678
  595MOL0     C82026   5.379   2.415  10.778 -0.5167  0.3532 -0.6244
  595MOL0     C82027   5.302   2.853  10.863  0.3704 -0.3181 -0.3813
  595MOL0     C82028   5.165   2.829  10.882 -0.8345  0.7393  0.5336
  595MOL0     C82029   5.083   2.926  10.944  0.1495  0.7975  0.5529
  595MOL0     C82030   5.140   3.046  10.988  0.2255 -0.3235 -0.0696
  595MOL0     O82031   5.055   3.145  11.036 -0.5229  0.3413  0.6656
  595MOL0     C82032   5.114   3.264  11.103  0.8206  0.7016  0.2228
  595MOL0     C82033   5.002   3.370  11.133  0.2028  0.0218 -0.2869
  595MOL0     C82034   4.873   3.309  11.188 -0.2353  0.1147 -0.2598
  595MOL0     C82035   4.765   3.417  11.224  0.7246 -0.0074  1.0660
  595MOL0     C82036   4.663   3.420  11.114 -0.3328 -0.0688 -1.2478
  595MOL0     C82037   4.583   3.423  11.029  0.6601  0.6370  0.6516
  595MOL0     C82038   5.276   3.068  10.971  0.5480  0.1380  0.4513
  595MOL0     C82039   5.357   2.973  10.911 -0.2242 -0.6542 -0.6512
  595MOL0     C82040   5.498   3.027  10.867  0.7666 -0.2211 -0.6356
  595MOL0     H82041   5.338   2.623  10.513  1.2372  1.8907  1.4044
  595MOL0     H82042   5.437   2.430  10.392 -2.5218  0.7259 -0.7876
  595MOL0     H82043   5.576   2.099  10.633  0.2607  5.0837 -1.8489
  595MOL0     H82044   5.560   2.005  10.488  1.8716 -0.3551  2.0127
  595MOL0     H82045   5.322   2.033  10.686  2.0326 -1.1244  1.0765
  595MOL0     H82046   5.324   1.966  10.514  0.5976  1.6816 -0.4970
  595MOL0     H82047   5.345   1.799  10.683 -1.3567  2.5790  0.2296
  595MOL0     H82048   5.489   1.808  10.578  0.2541  0.9955 -0.3403
  595MOL0     H82049   5.500   1.983  10.821 -1.6050 -0.0846  1.5252
  595MOL0     H82050   5.469   1.809  10.854  1.0088  0.9576  0.9108
  595MOL0     H82051   5.721   1.930  10.713 -1.2861  1.2809 -0.9078
  595MOL0     H82052   5.666   1.765  10.702 -2.9116  1.4256 -1.6521
  595MOL0     H82053   5.736   1.903  10.968 -2.0359 -1.1262  1.2944
  595MOL0     H82054   5.711   1.731  10.937 -1.5186 -0.1177  0.3381
  595MOL0     H82055   5.929   1.894  10.802  0.3622 -0.7250 -1.0455
  595MOL0     H82056   5.904   1.717  10.798 -2.0105  1.5963 -1.0058
  595MOL0     H82057   5.934   1.844  11.069 -1.2343 -1.7552  1.2139
  595MOL0     H82058   5.928   1.670  11.025  2.7641 -0.7597 -0.5841
  595MOL0     H82059   6.153   1.665  10.799 -2.0598  0.1997  0.8025
  595MOL0     H82060   6.529   1.744  10.890 -0.5162  1.3010  0.3909
  595MOL0     H82061   6.435   1.818  10.760 -2.1915 -0.7555  0.9586
  595MOL0     H82062   6.420   1.523  10.823 -0.1616 -1.2066 -1.3603
  595MOL0     H82063   6.343   1.603  10.692 -0.0950 -3.1978 -0.0258
  595MOL0     H82064   6.568   1.659  10.597 -0.8643 -1.4449 -0.3903
  595MOL0     H82065   6.647   1.586  10.735 -0.3477 -0.4635  0.7609
  595MOL0     H82066   6.490   1.361  10.649  0.8957 -2.6670 -2.2351
  595MOL0     H82067   6.490   1.460  10.511 -2.2875 -1.9029  0.5753
  595MOL0     H82068   6.859   1.214  10.661 -0.9143 -0.5286  1.4187
  595MOL0     H82069   7.016   1.007  10.505 -1.2105  0.1792 -0.6071
  595MOL0     H82070   6.892   0.882  10.542  3.1585 -1.6401  0.1127
  595MOL0     H82071   6.931   1.013  10.662 -0.2116  2.5167 -0.8095
  595MOL0     H82072   6.850   0.691  10.161 -0.4130  0.2488  0.7468
  595MOL0     H82073   6.826   0.528   9.974  0.0294 -1.5137 -0.2005
  595MOL0     H82074   6.535   0.396   9.658  1.9969 -0.2721  1.5423
  595MOL0     H82075   6.458   0.533   9.743  0.3643  0.3150  0.5585
  595MOL0     H82076   6.501   0.618   9.526 -2.6985 -0.8382  2.3867
  595MOL0     H82077   6.649   0.673   9.618 -1.8017 -0.1849  3.1037
  595MOL0     H82078   6.642   0.513   9.373 -2.5645 -0.9923 -0.1148
  595MOL0     H82079   6.664   0.384   9.494 -0.6459  0.4015 -1.5342
  595MOL0     H82080   6.859   0.478   9.592  2.0157  0.1961 -0.3133
  595MOL0     H82081   6.850   0.627   9.506 -1.8357 -0.4886 -0.7581
  595MOL0     H82082   7.035   0.478   9.440  1.1465 -0.9671 -1.6902
  595MOL0     H82083   6.923   0.361   9.383  1.6826 -0.8405  1.6006
  595MOL0     H82084   6.919   0.655   9.281  1.0584 -0.3860  0.2372
  595MOL0     H82085   6.841   0.513   9.214  0.8744 -1.9919 -1.2521
  595MOL0     H82086   7.014   0.550   9.066 -0.2070 -1.2459  0.4803
  595MOL0     H82087   7.064   0.421   9.165 -2.0264  0.2395  0.5809
  595MOL0     H82088   7.249   0.591   9.136 -0.5231  2.1872 -2.8643
  595MOL0     H82089   7.203   0.584   9.311  1.8630 -0.8914 -0.8242
  595MOL0     H82090   6.453   0.707   9.859 -0.2765 -1.0744  0.4689
  595MOL0     H82091   6.492   0.883  10.009  1.2062  1.4429  1.1016
  595MOL0     H82092   6.642   1.143  10.221  1.3739  3.6408 -1.3202
  595MOL0     H82093   6.594   1.345  10.347 -0.8961 -0.5262  1.9691
  595MOL0     H82094   5.454   2.221  10.773  1.0835 -0.1612 -0.4872
  595MOL0     H82095   5.368   2.419  10.886  4.0617  0.0388  0.0477
  595MOL0     H82096   5.114   2.740  10.847  0.5949  0.5096 -1.1259
  595MOL0     H82097   4.976   2.910  10.954  0.5806 -2.9817  0.6733
  595MOL0     H82098   5.167   3.246  11.198  0.1147 -1.6263  0.2249
  595MOL0     H82099   5.182   3.313  11.033  0.8946  1.0487  0.5362
  595MOL0     H82100   4.977   3.424  11.042 -1.8827 -2.4939 -1.3188
  595MOL0     H82101   5.038   3.435  11.214 -0.9564 -2.4680  2.4103
  595MOL0     H82102   4.839   3.242  11.109  0.5237  0.3194 -0.7692
  595MOL0     H82103   4.895   3.236  11.266 -0.9285 -3.1824 -2.9346
  595MOL0     H82104   4.812   3.514  11.243  0.2510  0.5198 -0.3534
  595MOL0     H82105   4.706   3.389  11.312  0.2263 -1.7378  0.2329
  595MOL0     H82106   4.517   3.411  10.945  0.0022 -2.5027  1.4844
  595MOL0     H82107   5.313   3.161  11.012 -2.0597  0.8991  1.3082
  595MOL0     H82108   5.575   2.980  10.929  0.5241  0.2554  0.0450
  595MOL0     H82109   5.525   2.996  10.766  1.4706  0.3100 -0.6136
  595MOL0     H82110   5.519   3.133  10.885  0.6589 -0.5329  1.7016
  596MOL0     O82111   9.842  10.831   9.641 -0.0399 -0.5496  0.6353
  596MOL0     C82112   9.837  10.722   9.698 -0.6379 -0.6278  0.8739
  596MOL0     O82113   9.925  10.619   9.679  0.2086 -0.4898  0.6918
  596MOL0     C82114  10.020  10.626   9.578 -1.0959  0.5889 -0.1601
  596MOL0     C82115  10.112  10.728   9.559  0.2653  0.7203 -0.4187
  596MOL0     C82116  10.213  10.728   9.468 -1.0170 -0.3488 -0.6315
  596MOL0     C82117  10.233  10.611   9.390 -0.7463  0.6107  0.7064
  596MOL0     O82118  10.339  10.622   9.306  0.4692  1.5406 -0.7224
  596MOL0     C82119  10.394  10.498   9.269  0.2619  0.5736  0.0151
  596MOL0     C82120  10.523  10.528   9.209  0.4432 -0.2630  1.0408
  596MOL0     C82121  10.509  10.553   9.055  0.1535  0.3094 -0.6047
  596MOL0     C82122  10.645  10.590   8.999 -0.7767  1.2653  0.2978
  596MOL0     C82123  10.637  10.642   8.854 -0.9864  1.3408 -0.2094
  596MOL0     C82124  10.779  10.658   8.805  0.0762 -0.0155 -0.4776
  596MOL0     C82125  10.768  10.704   8.664 -1.0193  0.0763  0.8348
  596MOL0     C82126  10.894  10.673   8.580 -0.8309 -0.7490  0.7700
  596MOL0     N82127  11.014  10.755   8.615  0.1842  0.5308  0.2167
  596MOL0     C82128  11.124  10.728   8.696  0.0630  0.6405 -0.0679
  596MOL0     C82129  11.212  10.823   8.666 -0.0336 -1.2414 -0.6196
  596MOL0     C82130  11.340  10.858   8.740  0.8666  0.3644  0.3696
  596MOL0     C82131  11.301  10.881   8.891 -0.3526 -0.4030 -0.3550
  596MOL0     C82132  11.419  10.861   8.979  0.9187  0.3778 -0.0456
  596MOL0     C82133  11.393  10.920   9.118 -0.3991  0.0460 -0.3789
  596MOL0     O82134  11.478  10.829   9.197  0.7145  0.5017 -0.1849
  596MOL0     C82135  11.463  10.837   9.337  1.0895 -0.3065  0.8637
  596MOL0     C82136  11.389  10.932   9.411 -0.1407  0.5395 -0.5119
  596MOL0     C82137  11.365  10.920   9.551  0.0598  0.0343  0.1991
  596MOL0     C82138  11.287  11.029   9.613 -0.6326 -0.4563  0.0044
  596MOL0     C82139  11.402  10.804   9.616  0.1461  0.6504 -0.1262
  596MOL0     C82140  11.358  10.770   9.750  0.5141  0.3083 -0.5748
  596MOL0     O82141  11.319  10.647   9.767 -0.8338 -0.0863  0.2245
  596MOL0     C82142  11.208  10.612   9.838 -0.5209  0.0299  0.2294
  596MOL0     C82143  11.224  10.567   9.972  0.3475 -0.1580  0.1584
  596MOL0     C82144  11.121  10.511  10.045  0.5491 -0.7083 -0.0163
  596MOL0     C82145  10.993  10.490   9.979  0.2124 -0.8759 -0.9103
  596MOL0     O82146  10.889  10.438  10.054  0.3886  0.1378  0.3623
  596MOL0     C82147  10.756  10.434   9.992 -0.9898  0.3262  0.6820
  596MOL0     C82148  10.656  10.363  10.086 -0.3318 -0.0577  0.2886
  596MOL0     C82149  10.653  10.448  10.210 -0.8829 -0.4140 -0.4996
  596MOL0     C82150  10.596  10.367  10.334 -0.4513 -0.6271 -0.1106
  596MOL0     C82151  10.456  10.314  10.306 -0.0789  0.5040  1.0150
  596MOL0     C82152  10.383  10.248  10.426  0.7087 -0.2070 -0.2383
  596MOL0     C82153  10.331  10.350  10.527  0.0844  1.0066 -1.3039
  596MOL0     C82154  10.254  10.284  10.641  1.1498 -0.8610 -0.9601
  596MOL0    Cl82155  10.217  10.423  10.759 -0.2169  0.3494  0.1643
  596MOL0     C82156  10.977  10.542   9.847 -0.4676  0.2263 -0.1555
  596MOL0     C82157  11.088  10.592   9.771 -0.0741 -0.7073 -0.0140
  596MOL0     O82158  11.358  10.855   9.842  0.1060  0.5300 -0.0455
  596MOL0     C82159  11.483  10.716   9.548  0.1864 -0.5119  0.6589
  596MOL0     C82160  11.521  10.740   9.407  0.0525  0.3978 -0.3562
  596MOL0     N82161  11.144  10.913   8.576  0.2067  0.0993  1.1901
  596MOL0     N82162  11.026  10.867   8.550  0.1271  0.8161  0.2010
  596MOL0     C82163  10.149  10.500   9.411  0.1057 -0.5308  0.6106
  596MOL0     C82164  10.040  10.508   9.497  0.3623  0.0824  0.1772
  596MOL0     C82165   9.733  10.704   9.820 -0.8214  0.0311  0.5569
  596MOL0     C82166   9.763  10.595   9.904 -0.4170 -0.2612  0.6106
  596MOL0     C82167   9.692  10.573  10.016  0.1177 -0.3456 -0.1212
  596MOL0     C82168   9.581  10.654  10.050  0.1160 -0.2252 -0.1861
  596MOL0     O82169   9.510  10.632  10.162  0.5956  0.0243  0.0957
  596MOL0     C82170   9.554  10.699  10.277 -0.5899 -0.2599  0.1095
  596MOL0     C82171   9.499  10.643  10.409 -0.1078 -0.3006 -0.3826
  596MOL0     C82172   9.354  10.664  10.422  0.1424 -0.4053  0.2186
  596MOL0     C82173   9.293  10.568  10.516 -0.3700  0.2987 -0.3554
  596MOL0     C82174   9.155  10.614  10.536 -1.2256  0.6287  0.3850
  596MOL0     C82175   9.048  10.653  10.564 -0.1644  0.3472 -0.0701
  596MOL0     C82176   9.547  10.758   9.972 -0.2830 -0.0400 -0.5533
  596MOL0     C82177   9.624  10.780   9.856 -0.0227  0.0746 -0.2143
  596MOL0     C82178   9.603  10.919   9.791 -0.3190 -1.0511  1.1486
  596MOL0     H82179  10.096  10.811   9.628 -2.1129  0.5977 -0.7295
  596MOL0     H82180  10.279  10.815   9.468 -1.3056  0.3570  5.8707
  596MOL0     H82181  10.331  10.449   9.194  1.8452 -1.6939  0.0757
  596MOL0     H82182  10.405  10.436   9.359 -1.5232  0.8789  0.4910
  596MOL0     H82183  10.567  10.613   9.261 -1.0042  0.9912  0.2804
  596MOL0     H82184  10.581  10.437   9.227  1.1132  0.3587  2.1590
  596MOL0     H82185  10.457  10.478   8.995 -0.3484  1.0824 -1.1573
  596MOL0     H82186  10.459  10.650   9.048 -1.2929 -0.2530  1.0297
  596MOL0     H82187  10.687  10.662   9.070  3.3059  0.3920 -0.9827
  596MOL0     H82188  10.710  10.502   9.005 -2.8677 -0.2870  1.8656
  596MOL0     H82189  10.583  10.736   8.866  0.8074  2.2559  1.1506
  596MOL0     H82190  10.592  10.563   8.792 -0.4201  1.7659 -1.1798
  596MOL0     H82191  10.842  10.730   8.857  1.3777 -2.2181  1.1331
  596MOL0     H82192  10.827  10.560   8.806  0.1464  0.0034 -1.1430
  596MOL0     H82193  10.755  10.812   8.660  0.9977  0.3195 -1.4764
  596MOL0     H82194  10.685  10.659   8.608 -0.1284 -1.4988  0.7079
  596MOL0     H82195  10.924  10.568   8.590 -1.7648 -1.1749 -0.5356
  596MOL0     H82196  10.881  10.697   8.474  1.1054 -1.0544  0.4156
  596MOL0     H82197  11.135  10.647   8.768 -0.3887 -0.6771 -1.4060
  596MOL0     H82198  11.384  10.941   8.684 -2.3388  0.4617 -2.3329
  596MOL0     H82199  11.420  10.783   8.747  0.4089 -0.0160  1.7920
  596MOL0     H82200  11.276  10.986   8.907  2.1670  0.1674  0.2830
  596MOL0     H82201  11.217  10.817   8.919 -0.9517 -0.9453 -3.0510
  596MOL0     H82202  11.436  10.753   8.983  2.3950  0.6257  1.6426
  596MOL0     H82203  11.503  10.921   8.941  0.3413  1.6272  0.5886
  596MOL0     H82204  11.423  11.024   9.132  0.0632 -0.1276 -0.0800
  596MOL0     H82205  11.290  10.910   9.154 -0.1055 -2.5459 -0.0898
  596MOL0     H82206  11.337  11.007   9.353  0.7663 -0.9326 -3.4455
  596MOL0     H82207  11.290  11.123   9.557  0.8857 -0.5683 -0.1174
  596MOL0     H82208  11.352  11.052   9.698  0.2583  1.7090 -1.1926
  596MOL0     H82209  11.189  11.001   9.655 -0.7373  1.7499  1.4028
  596MOL0     H82210  11.326  10.573  10.008  0.2416  0.0757  0.4278
  596MOL0     H82211  11.132  10.469  10.145 -2.0498 -1.4614  0.0316
  596MOL0     H82212  10.712  10.529   9.962 -3.4364 -1.3701 -1.4967
  596MOL0     H82213  10.766  10.367   9.906  1.1058  1.3515  0.0513
  596MOL0     H82214  10.557  10.360  10.038 -0.6001  1.6142  0.7001
  596MOL0     H82215  10.689  10.262  10.111  0.4460  0.4408  1.3207
  596MOL0     H82216  10.590  10.538  10.205 -2.5387 -1.3939  1.1172
  596MOL0     H82217  10.756  10.472  10.239 -0.2377 -0.6680 -2.4840
  596MOL0     H82218  10.591  10.426  10.426  1.1270  1.2032 -1.1153
  596MOL0     H82219  10.661  10.283  10.360 -1.4229 -0.5535  2.8420
  596MOL0     H82220  10.399  10.400  10.271 -1.8173 -0.2806  1.8398
  596MOL0     H82221  10.463  10.248  10.219  2.7719  3.3059 -1.1109
  596MOL0     H82222  10.461  10.186  10.470  1.9595  2.8638  2.3008
  596MOL0     H82223  10.298  10.194  10.384  1.6492 -1.4001 -0.6822
  596MOL0     H82224  10.264  10.418  10.474 -4.2978 -0.7392  1.4450
  596MOL0     H82225  10.411  10.409  10.575 -1.2375 -0.2509  2.9230
  596MOL0     H82226  10.312  10.208  10.693  0.8834  0.7486  1.9330
  596MOL0     H82227  10.156  10.249  10.607 -1.0393  0.6766  3.0253
  596MOL0     H82228  10.881  10.535   9.795 -0.6482  0.7903  0.0929
  596MOL0     H82229  11.076  10.627   9.669 -0.6966  1.0471  0.6206
  596MOL0     H82230  11.509  10.627   9.604  1.4894 -1.0987 -0.8308
  596MOL0     H82231  11.571  10.663   9.349 -0.7514  0.7316 -1.5376
  596MOL0     H82232  10.168  10.404   9.363  2.1273  0.1484 -0.0742
  596MOL0     H82233   9.960  10.435   9.495  0.6752 -0.2934 -2.6188
  596MOL0     H82234   9.851  10.536   9.879 -1.1373 -0.2062 -2.3927
  596MOL0     H82235   9.721  10.511  10.100  1.8724  3.7055  2.5841
  596MOL0     H82236   9.662  10.707  10.286 -0.7718  0.6827  1.8169
  596MOL0     H82237   9.520  10.803  10.275 -0.8135 -0.3361 -0.1191
  596MOL0     H82238   9.542  10.685  10.500 -0.2676 -3.5975  1.3417
  596MOL0     H82239   9.521  10.536  10.410  1.7269 -0.0540 -3.0084
  596MOL0     H82240   9.337  10.769  10.449  0.1258 -0.9522  2.4972
  596MOL0     H82241   9.299  10.652  10.328 -1.9334 -2.0513  1.5494
  596MOL0     H82242   9.348  10.584  10.610  0.2150  2.9638 -1.0661
  596MOL0     H82243   9.297  10.464  10.484 -1.0550 -0.0537  0.6466
  596MOL0     H82244   8.950  10.676  10.598 -0.1000 -1.5182  1.5480
  596MOL0     H82245   9.466  10.825   9.998  0.0613  0.0226  0.3809
  596MOL0     H82246   9.688  10.980   9.823 -0.6822  0.4500 -0.5607
  596MOL0     H82247   9.609  10.909   9.682  2.7142  1.2347  0.9814
  596MOL0     H82248   9.510  10.968   9.821 -1.4517 -0.3628 -2.9170
  597MOL0     O82249  10.640   2.471   6.138  0.4710  0.0711  0.4863
  597MOL0     C82250  10.710   2.509   6.044  0.3042  0.2079 -0.0236
  597MOL0     O82251  10.686   2.624   5.973 -0.1734  0.6499 -0.4010
  597MOL0     C82252  10.579   2.701   5.997 -1.1487 -0.4852  0.1445
  597MOL0     C82253  10.585   2.784   6.111  1.3518  0.9398  0.7332
  597MOL0     C82254  10.475   2.872   6.132 -1.4813  0.2479 -0.1667
  597MOL0     C82255  10.370   2.884   6.040  0.5653 -0.0504 -1.0665
  597MOL0     O82256  10.272   2.983   6.072  0.0401  0.7086  0.3268
  597MOL0     C82257  10.161   2.932   6.148 -0.2052 -0.1773 -0.2609
  597MOL0     C82258  10.049   3.024   6.196  0.5280 -0.5974  0.1707
  597MOL0     C82259   9.993   3.115   6.087 -0.1170 -0.4696 -0.4826
  597MOL0     C82260   9.901   3.217   6.148  0.2884  0.2557 -0.5676
  597MOL0     C82261   9.889   3.337   6.055  0.1593 -0.0765 -0.2274
  597MOL0     C82262   9.845   3.324   5.910  0.2448 -0.3906 -0.1630
  597MOL0     C82263   9.690   3.285   5.917 -0.2513  0.7984 -0.4902
  597MOL0     C82264   9.633   3.292   5.769 -0.6959  0.8900  0.3078
  597MOL0     N82265   9.714   3.212   5.677  0.2365  0.2548  0.1372
  597MOL0     C82266   9.698   3.082   5.632  0.5130 -0.1744 -0.7151
  597MOL0     C82267   9.760   3.075   5.517  0.4433 -0.7373  1.0314
  597MOL0     C82268   9.764   2.955   5.426  0.7344 -0.3896  0.0547
  597MOL0     C82269   9.887   2.950   5.337  0.5865 -0.0872 -0.1032
  597MOL0     C82270   9.876   3.023   5.202 -0.4302  0.1883 -0.3794
  597MOL0     C82271   9.875   3.173   5.210 -0.3209  0.0367 -0.3250
  597MOL0     O82272   9.921   3.225   5.091 -0.6383  0.3148  0.0508
  597MOL0     C82273   9.962   3.355   5.090  0.2115  0.7372  0.2765
  597MOL0     C82274   9.972   3.439   5.200  0.1571 -0.1204 -0.2094
  597MOL0     C82275  10.031   3.566   5.192  0.6754 -0.5461  0.3003
  597MOL0     C82276  10.042   3.660   5.314 -0.4172 -0.1696 -0.7966
  597MOL0     C82277  10.065   3.619   5.060 -0.8093  0.5713 -0.0333
  597MOL0     C82278  10.142   3.747   5.028 -0.7123 -0.3447  0.4161
  597MOL0     O82279  10.239   3.749   4.922  0.5714  0.4279  0.5388
  597MOL0     C82280  10.335   3.848   4.926  0.5524  0.5798  0.8260
  597MOL0     C82281  10.439   3.843   5.014 -0.1992  0.4826  1.2504
  597MOL0     C82282  10.544   3.938   5.014  0.2295  0.3030 -0.2993
  597MOL0     C82283  10.537   4.052   4.932 -0.2380  0.4967 -0.8978
  597MOL0     O82284  10.619   4.158   4.946  0.0857  0.5205  0.6331
  597MOL0     C82285  10.692   4.187   4.824  0.8683 -0.2591 -0.9003
  597MOL0     C82286  10.803   4.287   4.847 -0.1627  0.2786  0.4196
  597MOL0     C82287  10.758   4.418   4.917 -0.2358 -0.3823 -0.4026
  597MOL0     C82288  10.879   4.491   4.979 -0.4906  0.4985  0.3190
  597MOL0     C82289  10.934   4.422   5.115  0.2536 -0.7808 -0.7288
  597MOL0     C82290  11.034   4.518   5.196  0.3818 -0.2428  1.3721
  597MOL0     C82291  11.089   4.453   5.319  0.1834  1.1534  0.1917
  597MOL0     C82292  11.199   4.532   5.390  0.1820  0.6981  0.1939
  597MOL0    Cl82293  11.143   4.690   5.444 -0.0805 -0.0068  0.8844
  597MOL0     C82294  10.425   4.066   4.850 -0.3649 -0.1655  0.4557
  597MOL0     C82295  10.325   3.960   4.838  0.3288  0.5678  0.4545
  597MOL0     O82296  10.133   3.841   5.110  0.3065 -0.4542  0.0869
  597MOL0     C82297  10.049   3.525   4.950 -0.3292 -0.5510  1.1291
  597MOL0     C82298   9.996   3.402   4.965 -0.5531  0.1138 -0.3572
  597MOL0     N82299   9.819   3.195   5.499 -0.0461 -0.7286 -0.1928
  597MOL0     N82300   9.788   3.276   5.592 -0.5309 -0.7162 -0.4219
  597MOL0     C82301  10.366   2.786   5.935  0.8187  0.3867  0.3996
  597MOL0     C82302  10.476   2.694   5.910 -0.4982 -0.5123 -0.5525
  597MOL0     C82303  10.829   2.436   6.011 -0.2104 -0.1828 -0.5339
  597MOL0     C82304  10.906   2.377   6.105  1.1754  0.1264 -0.4572
  597MOL0     C82305  11.020   2.301   6.077  1.3480  0.4201 -0.2766
  597MOL0     C82306  11.073   2.298   5.949 -0.6689  0.3303 -0.3899
  597MOL0     O82307  11.182   2.219   5.922  0.2235 -0.4742 -0.2139
  597MOL0     C82308  11.264   2.248   5.805  0.2536  0.0617 -0.1500
  597MOL0     C82309  11.327   2.390   5.814 -0.2953 -0.2640  0.1486
  597MOL0     C82310  11.462   2.406   5.751  0.2367  0.0326  0.4159
  597MOL0     C82311  11.499   2.552   5.719 -0.2633 -0.2780  0.1798
  597MOL0     C82312  11.622   2.554   5.634  0.2453  0.1666  0.4252
  597MOL0     C82313  11.722   2.541   5.573 -0.2383  0.6535  0.3328
  597MOL0     C82314  11.006   2.374   5.850 -0.1163 -0.0307  0.1377
  597MOL0     C82315  10.874   2.422   5.874  0.2505  0.3353  0.2468
  597MOL0     C82316  10.799   2.465   5.752 -0.8275 -1.2836  0.1369
  597MOL0     H82317  10.670   2.772   6.176  0.2673 -0.4242  1.9769
  597MOL0     H82318  10.490   2.931   6.222 -0.0840 -1.9672  1.1434
  597MOL0     H82319  10.199   2.891   6.242  1.0970  1.4880 -0.0092
  597MOL0     H82320  10.115   2.857   6.084 -0.6934 -0.8452  0.8458
  597MOL0     H82321   9.970   2.962   6.239 -1.0300 -0.7762 -2.7158
  597MOL0     H82322  10.097   3.094   6.265  0.4930  1.4474 -1.7548
  597MOL0     H82323  10.083   3.163   6.048 -0.7788  0.9764 -0.2941
  597MOL0     H82324   9.937   3.057   6.013  0.2401  1.1932 -2.1435
  597MOL0     H82325   9.803   3.174   6.170  0.6542 -2.5333 -3.5617
  597MOL0     H82326   9.948   3.250   6.242  0.3589  2.1317 -1.2287
  597MOL0     H82327   9.983   3.393   6.049 -1.5798  3.0431 -0.2716
  597MOL0     H82328   9.821   3.404   6.108  1.4987  0.7280  0.5191
  597MOL0     H82329   9.853   3.422   5.862 -1.9792 -0.0409  0.1013
  597MOL0     H82330   9.909   3.257   5.850  2.2289  1.5579 -0.3397
  597MOL0     H82331   9.643   3.357   5.984 -0.8911 -1.8135  2.0549
  597MOL0     H82332   9.667   3.181   5.944 -1.2968  0.4400 -2.5038
  597MOL0     H82333   9.533   3.249   5.764 -0.4323  0.2319  0.4614
  597MOL0     H82334   9.630   3.395   5.734  2.4642  0.3788 -1.8762
  597MOL0     H82335   9.639   3.000   5.672 -1.7615  0.7482 -1.9607
  597MOL0     H82336   9.675   2.948   5.363  1.1995  0.1786 -0.6787
  597MOL0     H82337   9.764   2.866   5.490 -0.7403 -0.6467 -0.2708
  597MOL0     H82338   9.973   2.979   5.398 -0.7156  0.7537  1.4242
  597MOL0     H82339   9.907   2.849   5.301  3.1119  0.2052  0.3144
  597MOL0     H82340   9.965   2.987   5.149  1.9728  0.3390  3.2376
  597MOL0     H82341   9.786   2.982   5.154  0.4550 -1.5798 -0.6354
  597MOL0     H82342   9.772   3.208   5.226  0.0533  0.3932  1.4126
  597MOL0     H82343   9.929   3.205   5.299  1.4197 -0.6536 -1.0743
  597MOL0     H82344   9.944   3.416   5.302  0.0648 -0.3605 -0.2874
  597MOL0     H82345   9.988   3.751   5.288  0.0614  1.2146  2.5088
  597MOL0     H82346  10.149   3.678   5.327 -0.6608  0.5177  0.4347
  597MOL0     H82347   9.997   3.626   5.408  0.8806  2.1703  0.7567
  597MOL0     H82348  10.438   3.764   5.088 -2.6769  0.6652  1.5058
  597MOL0     H82349  10.617   3.938   5.093  1.0122  1.2129 -1.0033
  597MOL0     H82350  10.738   4.093   4.795  1.1563 -0.4979  0.2674
  597MOL0     H82351  10.623   4.222   4.746  1.2204  3.5609  0.2904
  597MOL0     H82352  10.877   4.233   4.907 -0.6745 -1.9981 -0.8637
  597MOL0     H82353  10.859   4.317   4.758 -3.0616  3.3034 -0.5971
  597MOL0     H82354  10.684   4.394   4.995 -0.1444 -0.2532 -0.2753
  597MOL0     H82355  10.704   4.480   4.845 -2.2170  0.8067  1.9226
  597MOL0     H82356  10.843   4.591   5.003  1.7357  0.8334  2.7214
  597MOL0     H82357  10.948   4.494   4.894 -1.9436  2.4256 -0.8671
  597MOL0     H82358  10.849   4.385   5.173  0.6313  0.0209  0.3553
  597MOL0     H82359  10.996   4.336   5.087  0.0310 -1.0623 -0.3620
  597MOL0     H82360  10.993   4.617   5.220  0.1627  0.5360 -1.7507
  597MOL0     H82361  11.114   4.548   5.126  0.0170 -2.7414 -0.2214
  597MOL0     H82362  11.138   4.357   5.303  0.5477  1.3007  0.4115
  597MOL0     H82363  11.003   4.438   5.385  2.1845  0.9219  2.9185
  597MOL0     H82364  11.287   4.542   5.326  0.0763  1.4794  0.1552
  597MOL0     H82365  11.241   4.490   5.482 -0.1041  1.5866  0.7534
  597MOL0     H82366  10.428   4.158   4.792 -1.5055 -0.7297 -0.5523
  597MOL0     H82367  10.245   3.960   4.764 -0.1402 -3.4126  0.7032
  597MOL0     H82368  10.096   3.546   4.854 -1.7373  1.4484  0.8107
  597MOL0     H82369   9.994   3.336   4.879  2.1327  0.9848 -1.1845
  597MOL0     H82370  10.273   2.782   5.879  0.0322  0.7813  1.6356
  597MOL0     H82371  10.488   2.635   5.820  3.1707 -0.0083 -0.5348
  597MOL0     H82372  10.876   2.386   6.209  0.4033 -1.9522 -0.4510
  597MOL0     H82373  11.063   2.247   6.160 -2.2487  0.8569  2.0720
  597MOL0     H82374  11.350   2.181   5.805  0.8522  0.7171  2.9816
  597MOL0     H82375  11.205   2.236   5.713  1.6096 -1.5304 -0.8826
  597MOL0     H82376  11.332   2.423   5.918 -1.7300  0.4076  0.0253
  597MOL0     H82377  11.253   2.448   5.759  0.6336  0.5220 -0.2879
  597MOL0     H82378  11.536   2.352   5.810 -1.1823 -2.4494  0.0482
  597MOL0     H82379  11.455   2.349   5.658 -0.5492 -0.2646  0.6498
  597MOL0     H82380  11.519   2.614   5.806 -1.5090  1.5919 -0.7867
  597MOL0     H82381  11.420   2.598   5.658  0.7934 -0.7922 -1.6796
  597MOL0     H82382  11.816   2.525   5.525 -1.0581 -1.4250 -0.7475
  597MOL0     H82383  11.049   2.377   5.750  3.2775 -2.0830  1.3498
  597MOL0     H82384  10.829   2.570   5.749  5.2857 -2.7294 -1.2560
  597MOL0     H82385  10.828   2.412   5.662  3.2419  0.5829  0.1654
  597MOL0     H82386  10.690   2.455   5.750 -0.8245 -1.1304 -1.3515
  598MOL0     O82387   3.630   2.039  10.883  0.0972  0.0376 -0.4772
  598MOL0     C82388   3.706   1.932  10.898 -0.7037  0.1370  0.0616
  598MOL0     O82389   3.664   1.802  10.891 -0.4344  0.0880  0.5520
  598MOL0     C82390   3.535   1.771  10.852  0.2780  0.4733 -0.2575
  598MOL0     C82391   3.519   1.658  10.785 -0.0113 -0.4001  0.6506
  598MOL0     C82392   3.392   1.604  10.768 -0.1895 -0.7369 -0.4490
  598MOL0     C82393   3.280   1.680  10.805  0.1453  0.3400 -0.7439
  598MOL0     O82394   3.170   1.617  10.772  0.0529 -0.3002  0.3637
  598MOL0     C82395   3.043   1.669  10.802  1.1916 -0.9517  0.2020
  598MOL0     C82396   2.994   1.619  10.942 -0.0899 -0.9713 -0.4228
  598MOL0     C82397   2.853   1.668  10.986  0.3206  0.1547 -0.1927
  598MOL0     C82398   2.756   1.634  10.864  0.3873  0.5367 -0.2830
  598MOL0     C82399   2.619   1.629  10.918  0.0781  0.1901 -0.1279
  598MOL0     C82400   2.568   1.491  10.955 -1.0617  0.0942 -0.6454
  598MOL0     C82401   2.426   1.501  11.002 -0.3509 -1.3253 -0.3586
  598MOL0     C82402   2.421   1.490  11.162 -0.3531  0.4282  0.1248
  598MOL0     N82403   2.456   1.618  11.222 -0.3685 -0.1552 -0.1542
  598MOL0     C82404   2.573   1.653  11.297  0.5782  0.9911  0.3087
  598MOL0     C82405   2.532   1.775  11.348 -0.0741  0.2704 -0.4923
  598MOL0     C82406   2.617   1.866  11.425  0.2615 -1.1019 -0.2679
  598MOL0     C82407   2.667   1.986  11.357 -0.0587 -0.7179 -1.0265
  598MOL0     C82408   2.771   1.955  11.246 -0.0143  0.2533 -1.3035
  598MOL0     C82409   2.917   1.956  11.306  0.7053  0.2758  0.2086
  598MOL0     O82410   3.009   1.906  11.198  0.0840  0.3162  0.6072
  598MOL0     C82411   3.138   1.915  11.233  0.4292  0.7536 -0.4586
  598MOL0     C82412   3.207   2.016  11.166  0.5056 -0.4637  1.0707
  598MOL0     C82413   3.334   2.044  11.216 -0.1844  0.5016 -0.9380
  598MOL0     C82414   3.392   2.164  11.148 -0.1558  0.3459 -0.2221
  598MOL0     C82415   3.399   1.972  11.317 -0.5337  0.5637 -0.3359
  598MOL0     C82416   3.537   1.995  11.362 -0.1314 -0.2292 -0.4719
  598MOL0     O82417   3.612   2.090  11.303  0.4323 -0.8920 -0.6462
  598MOL0     C82418   3.744   2.110  11.339  0.0490  0.7630  0.2465
  598MOL0     C82419   3.772   2.215  11.422  0.2323 -0.2786 -0.2056
  598MOL0     C82420   3.902   2.256  11.444  0.6013 -0.2379  0.5366
  598MOL0     C82421   4.006   2.182  11.384 -0.6936 -0.5584  0.3835
  598MOL0     O82422   4.132   2.248  11.392  0.1741  0.4174  0.5823
  598MOL0     C82423   4.237   2.210  11.295 -0.2626 -0.1123  0.0644
  598MOL0     C82424   4.361   2.309  11.298  1.1229 -0.2312  0.6230
  598MOL0     C82425   4.469   2.268  11.212  0.0392  0.2629 -0.4618
  598MOL0     C82426   4.577   2.385  11.196  0.4292  0.2516 -0.4300
  598MOL0     C82427   4.695   2.357  11.105  0.4289 -0.6581  0.7480
  598MOL0     C82428   4.827   2.405  11.158 -0.0991  0.8755  0.0682
  598MOL0     C82429   4.938   2.345  11.074 -0.1511  0.3100 -0.4241
  598MOL0     C82430   5.066   2.331  11.164 -0.3453 -0.8146 -0.1819
  598MOL0    Cl82431   5.215   2.270  11.068 -0.0318 -0.1384  0.4864
  598MOL0     C82432   3.975   2.066  11.310 -0.4075  0.2639  0.0336
  598MOL0     C82433   3.845   2.028  11.286  0.5043  0.9336 -0.0526
  598MOL0     O82434   3.582   1.918  11.443 -0.4532 -0.7100  0.5064
  598MOL0     C82435   3.336   1.854  11.363 -0.5302 -0.3890  0.6026
  598MOL0     C82436   3.201   1.822  11.324  0.1233 -0.3274 -0.4794
  598MOL0     N82437   2.399   1.808  11.316 -0.4921 -0.4107 -0.3992
  598MOL0     N82438   2.362   1.720  11.233  1.2142 -0.0198 -0.2184
  598MOL0     C82439   3.293   1.798  10.871 -0.3118 -0.4454 -1.2397
  598MOL0     C82440   3.423   1.846  10.898 -0.3335 -0.3525 -0.1191
  598MOL0     C82441   3.851   1.953  10.928 -0.4358  0.1338  0.0084
  598MOL0     C82442   3.917   1.839  10.974  0.7578 -0.3343 -0.1573
  598MOL0     C82443   4.058   1.837  11.002  0.3025 -0.9188 -0.0251
  598MOL0     C82444   4.130   1.952  10.987  1.0290 -0.9249  0.6211
  598MOL0     O82445   4.264   1.954  10.988  0.1315 -0.2827 -0.8992
  598MOL0     C82446   4.338   1.940  10.871 -0.0361  1.1590 -0.0998
  598MOL0     C82447   4.469   2.010  10.906  0.4056 -0.3280  0.5606
  598MOL0     C82448   4.540   2.023  10.765  0.6142 -0.2390 -1.0372
  598MOL0     C82449   4.632   2.142  10.785  0.8910  0.6045  0.4841
  598MOL0     C82450   4.573   2.272  10.757  0.0635 -0.8010 -0.1842
  598MOL0     C82451   4.530   2.383  10.742  0.0161 -0.0495 -0.1999
  598MOL0     C82452   4.061   2.067  10.950 -1.3997 -0.5322  0.2446
  598MOL0     C82453   3.926   2.072  10.914 -0.2933 -0.2782 -0.2372
  598MOL0     C82454   3.873   2.200  10.856  0.3326  0.6800  0.1284
  598MOL0     H82455   3.616   1.622  10.752  0.6593  2.8230 -1.4257
  598MOL0     H82456   3.375   1.508  10.719 -1.5679 -0.2525 -0.9758
  598MOL0     H82457   2.985   1.630  10.718 -0.5222 -1.2852  1.4854
  598MOL0     H82458   3.038   1.778  10.796  2.5762 -0.8888 -0.2625
  598MOL0     H82459   2.989   1.510  10.950 -0.9009 -0.7925  3.2730
  598MOL0     H82460   3.065   1.649  11.020  0.2253  0.9155 -1.3906
  598MOL0     H82461   2.815   1.607  11.069 -0.5637 -1.1507 -1.5021
  598MOL0     H82462   2.852   1.775  11.007  2.5311  0.0908  0.4715
  598MOL0     H82463   2.755   1.709  10.784 -4.9234  2.6454  1.3374
  598MOL0     H82464   2.788   1.544  10.812  0.0852  0.9617 -1.2268
  598MOL0     H82465   2.555   1.673  10.841  0.0342 -1.6271 -1.1978
  598MOL0     H82466   2.602   1.686  11.009 -3.2835  1.1026 -1.1981
  598MOL0     H82467   2.572   1.439  10.859  0.7290  0.8633 -1.0119
  598MOL0     H82468   2.642   1.449  11.024  0.9707  0.5175 -2.4806
  598MOL0     H82469   2.381   1.410  10.962 -1.0256  0.0690 -3.0408
  598MOL0     H82470   2.373   1.587  10.960 -3.6131 -2.0672  1.8600
  598MOL0     H82471   2.318   1.458  11.179  0.1932 -2.9216 -2.0536
  598MOL0     H82472   2.478   1.405  11.201 -1.2421 -0.6940 -0.9270
  598MOL0     H82473   2.668   1.603  11.284  0.2148  0.7861 -1.9152
  598MOL0     H82474   2.705   1.814  11.463  0.6602 -1.1502 -1.2258
  598MOL0     H82475   2.558   1.904  11.509  2.7004  2.5037  0.0223
  598MOL0     H82476   2.591   2.038  11.298 -0.5833 -0.3288 -0.0254
  598MOL0     H82477   2.708   2.056  11.431 -0.6258  0.6087 -1.9093
  598MOL0     H82478   2.743   1.860  11.200  1.7407 -0.2172 -1.4505
  598MOL0     H82479   2.768   2.021  11.159  0.5236  0.5790 -1.0815
  598MOL0     H82480   2.927   2.060  11.336 -0.3512  0.7732 -1.0618
  598MOL0     H82481   2.929   1.893  11.395 -2.1144 -3.3548 -1.7074
  598MOL0     H82482   3.151   2.070  11.090  3.0679  1.7894  0.6317
  598MOL0     H82483   3.315   2.224  11.098 -1.7530  0.4537  2.2179
  598MOL0     H82484   3.480   2.142  11.086  0.8237  1.8922  0.5689
  598MOL0     H82485   3.428   2.230  11.227  1.1479 -1.5872  0.8848
  598MOL0     H82486   3.689   2.268  11.468  1.4531 -0.1089  1.9597
  598MOL0     H82487   3.922   2.342  11.507  0.4297 -0.1702  0.5011
  598MOL0     H82488   4.275   2.112  11.325 -3.6933 -1.8282 -0.7350
  598MOL0     H82489   4.207   2.214  11.189  0.9107 -0.0772 -0.2842
  598MOL0     H82490   4.334   2.404  11.251 -0.5268 -2.0562 -2.4483
  598MOL0     H82491   4.394   2.326  11.401  2.2187  0.0497  0.2417
  598MOL0     H82492   4.429   2.250  11.112  0.4716 -1.0217 -0.4216
  598MOL0     H82493   4.506   2.166  11.229 -2.5532 -0.6099  0.5030
  598MOL0     H82494   4.625   2.384  11.294 -0.0024  3.2311 -0.0783
  598MOL0     H82495   4.527   2.481  11.178 -1.2089  0.2527  3.2380
  598MOL0     H82496   4.717   2.250  11.093  2.6704 -0.3569  1.6846
  598MOL0     H82497   4.691   2.392  11.001  3.2692 -1.2550  0.3591
  598MOL0     H82498   4.836   2.374  11.263  3.0468  2.0027  0.2089
  598MOL0     H82499   4.835   2.514  11.158  1.0780  0.7952  0.4356
  598MOL0     H82500   4.966   2.416  10.996  2.2548 -0.2216 -0.1193
  598MOL0     H82501   4.908   2.253  11.024 -0.3883  0.5376 -0.7030
  598MOL0     H82502   5.055   2.252  11.240  0.3234 -0.4037  0.3603
  598MOL0     H82503   5.078   2.427  11.216 -1.0374 -0.1051 -1.2999
  598MOL0     H82504   4.056   2.002  11.277 -1.1829 -0.1329 -1.1764
  598MOL0     H82505   3.823   1.940  11.225  3.3041 -0.5001  0.8302
  598MOL0     H82506   3.382   1.791  11.438  1.7823 -0.2886 -0.6456
  598MOL0     H82507   3.142   1.745  11.370  1.3484 -0.9713  0.0592
  598MOL0     H82508   3.207   1.856  10.903 -1.0331 -1.6257 -0.9899
  598MOL0     H82509   3.437   1.937  10.956 -1.5710  1.3831 -2.3876
  598MOL0     H82510   3.860   1.748  10.984 -4.0771  2.4748  1.0358
  598MOL0     H82511   4.115   1.748  11.030  2.8782  0.9793  1.2008
  598MOL0     H82512   4.368   1.837  10.847  1.8964  1.6959 -0.1782
  598MOL0     H82513   4.287   1.983  10.785 -1.7213 -0.4296  0.0366
  598MOL0     H82514   4.523   1.950  10.980 -0.9346 -0.5844  1.3725
  598MOL0     H82515   4.436   2.107  10.945 -2.6943  0.2954 -2.9932
  598MOL0     H82516   4.597   1.932  10.746 -2.2010 -2.0503 -1.2646
  598MOL0     H82517   4.476   2.042  10.679 -2.0539  3.0392  1.3761
  598MOL0     H82518   4.718   2.134  10.717  1.1132 -1.1067  0.9012
  598MOL0     H82519   4.668   2.154  10.887  2.1861  4.2757 -0.2651
  598MOL0     H82520   4.493   2.481  10.720  1.0820  0.2293 -0.7962
  598MOL0     H82521   4.134   2.143  10.924 -0.1311 -1.9448 -0.4959
  598MOL0     H82522   3.831   2.263  10.936  0.2961 -2.3017  2.6121
  598MOL0     H82523   3.958   2.249  10.809  2.2239 -0.7831  1.8512
  598MOL0     H82524   3.794   2.181  10.782  0.6727  0.2088 -0.1103
  599MOL0     O82525   6.077   8.042   9.438 -0.3139 -0.2052  0.3108
  599MOL0     C82526   5.966   8.034   9.484 -0.5230  0.1835  0.1333
  599MOL0     O82527   5.936   8.027   9.622 -0.0899 -0.5113  0.3064
  599MOL0     C82528   6.015   8.042   9.726 -0.5719  0.2205 -0.8446
  599MOL0     C82529   6.158   8.052   9.709 -0.1693  0.6542 -0.0356
  599MOL0     C82530   6.234   8.056   9.820 -0.5892 -0.3448  0.3792
  599MOL0     C82531   6.186   8.063   9.950 -1.3705 -0.7901  0.5745
  599MOL0     O82532   6.280   8.077  10.051 -0.0368  0.1913 -0.5608
  599MOL0     C82533   6.259   7.993  10.162 -0.3663  0.3452  0.2157
  599MOL0     C82534   6.382   8.000  10.257 -0.1405  0.0876 -0.6971
  599MOL0     C82535   6.524   7.988  10.190 -0.2599 -0.4157 -0.1537
  599MOL0     C82536   6.541   7.840  10.160 -0.1092 -0.6971 -0.1590
  599MOL0     C82537   6.635   7.815  10.042 -0.4093  0.6484  0.0502
  599MOL0     C82538   6.655   7.668  10.040 -0.3074  0.6201 -0.2107
  599MOL0     C82539   6.740   7.608   9.919  0.5674  0.2621  0.4843
  599MOL0     C82540   6.884   7.658   9.922 -0.1378 -0.3121  0.6477
  599MOL0     N82541   6.969   7.616   9.811  0.6521  0.4357 -0.7524
  599MOL0     C82542   6.961   7.649   9.685  0.4800 -0.3399 -0.8013
  599MOL0     C82543   7.061   7.584   9.623 -0.1367  0.0518 -0.0951
  599MOL0     C82544   7.092   7.592   9.477 -0.4963  0.4991  0.4800
  599MOL0     C82545   7.211   7.692   9.458  0.0841 -0.2900  0.8611
  599MOL0     C82546   7.346   7.629   9.422 -0.0990  0.4412 -0.1166
  599MOL0     C82547   7.461   7.724   9.433 -0.2566  0.0181 -0.3904
  599MOL0     O82548   7.480   7.758   9.574  0.3841 -0.4930  0.5260
  599MOL0     C82549   7.582   7.842   9.608 -0.8124 -0.3328  0.4748
  599MOL0     C82550   7.687   7.882   9.528 -0.2958 -0.7803 -0.3185
  599MOL0     C82551   7.778   7.971   9.582 -0.6418  0.1440 -0.9716
  599MOL0     C82552   7.850   8.052   9.481 -0.7391 -0.5587  0.3520
  599MOL0     C82553   7.793   7.989   9.720 -0.7518 -1.3401 -0.4518
  599MOL0     C82554   7.908   8.066   9.779 -0.5508  0.8695  0.8955
  599MOL0     O82555   8.019   8.100   9.690  0.0819 -0.4852  0.2736
  599MOL0     C82556   8.127   8.161   9.756 -0.4024  0.2923  1.0053
  599MOL0     C82557   8.190   8.087   9.855  1.0517 -0.1464 -0.9161
  599MOL0     C82558   8.295   8.143   9.925  0.4981  0.6997  0.6814
  599MOL0     C82559   8.344   8.268   9.883  0.1748  0.0950 -0.3143
  599MOL0     O82560   8.423   8.330   9.974  0.4464  0.5427  0.3483
  599MOL0     C82561   8.546   8.393   9.931 -0.3459 -0.9968  0.6391
  599MOL0     C82562   8.615   8.481  10.035 -0.2948 -0.6209  0.1223
  599MOL0     C82563   8.530   8.610  10.054  0.2585  0.4023  0.4345
  599MOL0     C82564   8.558   8.723   9.957 -0.0065 -0.3460 -0.0165
  599MOL0     C82565   8.460   8.840   9.986  0.0492  0.0960 -0.2605
  599MOL0     C82566   8.415   8.909   9.860  0.0431 -0.3445  0.4032
  599MOL0     C82567   8.284   8.973   9.875 -0.1484  0.7995 -1.0013
  599MOL0     C82568   8.233   9.025   9.745  0.1283  0.4447  0.1407
  599MOL0    Cl82569   8.126   9.160   9.772  0.4477  0.0146  0.0691
  599MOL0     C82570   8.285   8.334   9.766 -0.5656 -0.1960 -0.9335
  599MOL0     C82571   8.180   8.278   9.703  0.4279 -0.3585  0.6144
  599MOL0     O82572   7.912   8.084   9.899  0.1760  0.7459 -0.3251
  599MOL0     C82573   7.697   7.926   9.797 -0.2302 -0.7999 -0.0205
  599MOL0     C82574   7.589   7.865   9.744 -0.1283 -1.4488 -0.2822
  599MOL0     N82575   7.131   7.503   9.714  0.3594 -0.2354  0.1438
  599MOL0     N82576   7.082   7.529   9.829 -0.3559  0.1888  0.0787
  599MOL0     C82577   6.050   8.039   9.966 -0.5122  1.1163 -0.3124
  599MOL0     C82578   5.965   8.037   9.854  0.1975 -0.0394 -0.0723
  599MOL0     C82579   5.863   8.031   9.377  0.7165  0.7485  0.4236
  599MOL0     C82580   5.890   7.976   9.252  0.3029  0.3121 -0.6996
  599MOL0     C82581   5.791   7.969   9.156 -0.1563  0.2263  0.5786
  599MOL0     C82582   5.668   8.027   9.174  0.1486 -0.0699 -1.2410
  599MOL0     O82583   5.566   8.032   9.081  0.1938  0.1808 -0.2261
  599MOL0     C82584   5.517   7.910   9.015 -0.4647  0.0781 -1.0380
  599MOL0     C82585   5.389   7.943   8.942 -0.0954  0.1915  0.9169
  599MOL0     C82586   5.411   8.003   8.802 -0.4985 -0.2918 -0.0198
  599MOL0     C82587   5.297   8.102   8.760  0.6935  0.0826 -0.7488
  599MOL0     C82588   5.314   8.146   8.617  1.1211 -0.2518 -0.3569
  599MOL0     C82589   5.327   8.189   8.504  0.5044 -1.1040  0.4022
  599MOL0     C82590   5.646   8.082   9.301 -0.1224 -0.8573  0.3967
  599MOL0     C82591   5.735   8.088   9.403 -0.6891  0.2860  0.1170
  599MOL0     C82592   5.700   8.155   9.532 -0.2420  0.1825 -0.6519
  599MOL0     H82593   6.209   8.052   9.613 -1.4907 -0.8222 -0.7859
  599MOL0     H82594   6.341   8.070   9.815 -0.9072  1.9937 -1.3317
  599MOL0     H82595   6.244   7.888  10.135  2.4696  0.2261 -1.2424
  599MOL0     H82596   6.170   8.031  10.213  0.6893  1.1212  1.5468
  599MOL0     H82597   6.376   8.095  10.312 -2.4516 -1.0771  1.2698
  599MOL0     H82598   6.361   7.921  10.329 -0.2016 -3.1445 -4.0119
  599MOL0     H82599   6.517   8.039  10.093 -1.6659  1.1756  0.7345
  599MOL0     H82600   6.605   8.032  10.249  0.3971 -2.2353  0.3604
  599MOL0     H82601   6.581   7.805  10.256 -1.5879 -1.0622  0.3559
  599MOL0     H82602   6.448   7.791  10.131 -1.5304  0.9006  1.4506
  599MOL0     H82603   6.732   7.859  10.065 -0.5072  0.4156  0.9444
  599MOL0     H82604   6.602   7.863   9.949 -0.3040  3.2471  1.2407
  599MOL0     H82605   6.705   7.646  10.135  1.2392  0.3298 -1.0679
  599MOL0     H82606   6.554   7.627  10.040 -1.0987  2.4637 -0.7596
  599MOL0     H82607   6.699   7.646   9.826  0.1700  1.8391  1.2797
  599MOL0     H82608   6.737   7.499   9.929  0.5377 -0.1520 -2.8704
  599MOL0     H82609   6.865   7.765   9.915 -0.0867 -0.3807 -0.7415
  599MOL0     H82610   6.933   7.638  10.018 -2.2844  1.7834  2.3057
  599MOL0     H82611   6.883   7.706   9.634  2.4073 -1.3800 -5.3730
  599MOL0     H82612   7.008   7.626   9.417 -0.0901  0.2029 -0.2599
  599MOL0     H82613   7.118   7.489   9.451 -1.8508 -0.1915  1.7110
  599MOL0     H82614   7.185   7.748   9.368  1.9637 -0.8783 -0.0989
  599MOL0     H82615   7.217   7.756   9.547  0.2644  0.2778  0.4526
  599MOL0     H82616   7.365   7.544   9.489  0.6595  0.0135 -0.8491
  599MOL0     H82617   7.342   7.596   9.318  2.4306  0.4800 -0.2949
  599MOL0     H82618   7.552   7.680   9.391 -0.5336 -1.1471  0.1730
  599MOL0     H82619   7.439   7.813   9.374 -0.9931  0.0036 -0.1523
  599MOL0     H82620   7.683   7.868   9.421  0.6326  0.7624 -0.5835
  599MOL0     H82621   7.801   8.041   9.384  0.5052  1.2564 -0.5478
  599MOL0     H82622   7.956   8.031   9.468 -0.6199 -0.4573  1.1347
  599MOL0     H82623   7.839   8.157   9.512  2.0373  1.3612 -4.1579
  599MOL0     H82624   8.155   7.987   9.878  1.3920 -0.0760 -0.0437
  599MOL0     H82625   8.328   8.088  10.013 -2.8931 -0.3968  1.4173
  599MOL0     H82626   8.612   8.321   9.881  2.1063  0.3565  1.7567
  599MOL0     H82627   8.505   8.444   9.843 -1.4606 -1.8672  0.6270
  599MOL0     H82628   8.613   8.435  10.135  0.1940  1.1883  0.9963
  599MOL0     H82629   8.718   8.501  10.005 -0.0753 -1.3874  0.3283
  599MOL0     H82630   8.529   8.652  10.155 -0.5109  1.1359  0.1383
  599MOL0     H82631   8.428   8.570  10.047 -0.7739  3.0744 -2.8074
  599MOL0     H82632   8.538   8.686   9.856 -2.2906  2.2061 -0.6046
  599MOL0     H82633   8.660   8.762   9.957 -0.9316  2.2159  0.4467
  599MOL0     H82634   8.373   8.800  10.039  0.4577  1.0697  1.2034
  599MOL0     H82635   8.506   8.911  10.056 -1.0226  0.7402 -0.1841
  599MOL0     H82636   8.397   8.834   9.783 -1.4054 -0.9331  1.2836
  599MOL0     H82637   8.492   8.983   9.834 -1.1542  0.0279 -2.4401
  599MOL0     H82638   8.298   9.055   9.946 -1.3903  2.5208 -2.6495
  599MOL0     H82639   8.210   8.905   9.919  0.7477 -0.5118 -1.4593
  599MOL0     H82640   8.169   8.955   9.691 -0.5097  0.0710  1.3399
  599MOL0     H82641   8.313   9.062   9.681 -2.2960  1.2774 -2.6432
  599MOL0     H82642   8.315   8.436   9.747 -2.0859  0.4143 -0.2888
  599MOL0     H82643   8.114   8.335   9.639  0.1873 -0.3529  0.8602
  599MOL0     H82644   7.705   7.938   9.905 -0.5543 -0.2227 -0.0581
  599MOL0     H82645   7.514   7.817   9.806 -0.4043 -1.5832 -0.7117
  599MOL0     H82646   6.009   8.033  10.067  2.3131  0.4615  0.8992
  599MOL0     H82647   5.858   8.022   9.846  0.1359  0.6483 -0.7593
  599MOL0     H82648   5.992   7.952   9.224  1.3256  0.1189  2.7867
  599MOL0     H82649   5.803   7.923   9.058 -2.7437 -3.7075  1.8584
  599MOL0     H82650   5.604   7.876   8.958  0.7896 -1.4647  1.6142
  599MOL0     H82651   5.485   7.834   9.087  0.5043 -0.7966 -1.5199
  599MOL0     H82652   5.340   8.019   9.004  2.4946 -0.6034  4.2468
  599MOL0     H82653   5.329   7.852   8.931  0.1326 -0.0387  1.5358
  599MOL0     H82654   5.502   8.064   8.793  1.0251 -2.3161  0.8956
  599MOL0     H82655   5.426   7.929   8.724  1.0518  2.5856 -2.6725
  599MOL0     H82656   5.288   8.190   8.826 -2.6114  0.2576 -1.2901
  599MOL0     H82657   5.201   8.051   8.764 -0.2595  1.8109 -0.0293
  599MOL0     H82658   5.351   8.234   8.410  2.6468  0.2173  1.5196
  599MOL0     H82659   5.548   8.129   9.309 -0.4315 -1.3206 -0.4966
  599MOL0     H82660   5.622   8.228   9.508 -0.1570  0.3135 -0.5331
  599MOL0     H82661   5.653   8.082   9.597 -0.6021  0.4607 -0.5975
  599MOL0     H82662   5.786   8.205   9.579  0.7017 -0.7210 -1.3693
  600MOL0     O82663   2.654   3.060   8.042  0.1782  0.3009  0.3482
  600MOL0     C82664   2.588   3.107   8.133 -0.3680  0.4556  0.2588
  600MOL0     O82665   2.606   3.222   8.199  0.5168  0.5959  0.7084
  600MOL0     C82666   2.699   3.311   8.150  0.3597 -0.2144  0.3017
  600MOL0     C82667   2.665   3.423   8.063  0.1099  0.7051 -0.0168
  600MOL0     C82668   2.763   3.497   7.999  0.6576 -1.0578 -0.3687
  600MOL0     C82669   2.895   3.485   8.034 -0.5816 -1.3531  0.1246
  600MOL0     O82670   2.976   3.566   7.955  0.3611 -0.3381 -0.0666
  600MOL0     C82671   3.114   3.565   7.967 -0.2589 -0.5690  0.1146
  600MOL0     C82672   3.148   3.626   7.835 -0.4972  0.3047 -0.2944
  600MOL0     C82673   3.127   3.517   7.729  0.0432  0.2276 -0.7845
  600MOL0     C82674   3.177   3.555   7.582  0.1077 -1.1219 -0.0024
  600MOL0     C82675   3.099   3.481   7.460  0.1213 -0.8652  0.5065
  600MOL0     C82676   3.131   3.333   7.469  0.3546  1.1491  0.3987
  600MOL0     C82677   3.046   3.261   7.362 -0.4686 -0.3871 -0.1302
  600MOL0     C82678   3.067   3.109   7.355  1.1948  0.1286  0.4908
  600MOL0     N82679   3.200   3.071   7.293  0.8495 -0.3372 -0.8561
  600MOL0     C82680   3.230   3.053   7.167 -0.0504  0.6674  0.6283
  600MOL0     C82681   3.354   3.011   7.162 -0.0719 -0.3567 -0.3392
  600MOL0     C82682   3.432   2.992   7.037  0.3396  0.2151  0.2770
  600MOL0     C82683   3.524   2.867   7.047  0.1563  0.1240 -0.3330
  600MOL0     C82684   3.593   2.830   6.915 -0.1006  0.7189 -0.8996
  600MOL0     C82685   3.656   2.693   6.926  0.5098 -1.2990  0.1840
  600MOL0     O82686   3.730   2.657   6.806  0.1219  0.3326  0.5828
  600MOL0     C82687   3.788   2.529   6.805  0.2324 -0.7740  0.7681
  600MOL0     C82688   3.884   2.513   6.703  0.3912 -0.5543 -0.1364
  600MOL0     C82689   3.948   2.390   6.680  0.1145 -0.4780 -0.3220
  600MOL0     C82690   4.047   2.372   6.573  0.1902 -0.6865  0.9678
  600MOL0     C82691   3.918   2.279   6.758  0.8807  0.7349  0.0525
  600MOL0     C82692   3.978   2.151   6.751  1.2150  0.4611 -0.0408
  600MOL0     O82693   4.108   2.134   6.724  0.0608  0.6802  0.3435
  600MOL0     C82694   4.144   2.001   6.701  0.3014 -0.4188  0.3710
  600MOL0     C82695   4.157   1.968   6.569 -0.1231  0.1914  0.0897
  600MOL0     C82696   4.216   1.845   6.537  0.1152  0.0619  0.3697
  600MOL0     C82697   4.274   1.755   6.630 -0.0719  0.1057  0.5733
  600MOL0     O82698   4.348   1.646   6.587  0.3038 -0.4995 -0.0885
  600MOL0     C82699   4.356   1.542   6.680 -0.3890  0.9535 -0.2560
  600MOL0     C82700   4.406   1.413   6.619  0.2968 -0.2900 -0.4444
  600MOL0     C82701   4.332   1.292   6.689  0.1208 -0.8133  1.1898
  600MOL0     C82702   4.398   1.244   6.819  0.1410 -0.4344  1.0848
  600MOL0     C82703   4.314   1.140   6.881 -0.6279  0.6356 -0.7962
  600MOL0     C82704   4.386   1.073   7.001 -0.2545 -0.7993  0.5422
  600MOL0     C82705   4.400   1.163   7.120 -0.2577  0.1843  0.3568
  600MOL0     C82706   4.456   1.083   7.240  0.2143 -0.2364 -0.2896
  600MOL0    Cl82707   4.425   1.187   7.391  0.4724 -0.1577  0.1299
  600MOL0     C82708   4.263   1.799   6.764 -0.4754 -0.3673 -0.4078
  600MOL0     C82709   4.185   1.915   6.795  0.3979  0.2487 -0.3843
  600MOL0     O82710   3.898   2.058   6.772  0.2379 -0.2288 -0.1646
  600MOL0     C82711   3.814   2.297   6.854 -0.7692 -0.0642 -0.6210
  600MOL0     C82712   3.750   2.414   6.880 -1.0679 -1.0054  0.4585
  600MOL0     N82713   3.411   3.018   7.288  0.1896  0.6573  0.2205
  600MOL0     N82714   3.310   3.045   7.365  0.1041 -1.1173 -0.4720
  600MOL0     C82715   2.931   3.368   8.108 -0.5641  1.4730  0.9317
  600MOL0     C82716   2.838   3.283   8.165  1.3906 -0.2585  0.0746
  600MOL0     C82717   2.467   3.033   8.183 -0.8343  1.0318  0.5122
  600MOL0     C82718   2.345   3.105   8.212 -0.1067  0.9015  0.4989
  600MOL0     C82719   2.228   3.043   8.250  0.3491 -0.4062  0.1476
  600MOL0     C82720   2.227   2.901   8.267 -0.0367 -0.5659  1.0750
  600MOL0     O82721   2.109   2.845   8.309  0.0501 -0.1863  0.4737
  600MOL0     C82722   2.082   2.708   8.303 -1.0370  0.1587 -0.7652
  600MOL0     C82723   1.940   2.691   8.363  0.1210  0.7728  0.7393
  600MOL0     C82724   1.842   2.756   8.265  1.0295  0.4359  0.3761
  600MOL0     C82725   1.693   2.710   8.261 -0.4351 -0.0825 -0.6806
  600MOL0     C82726   1.692   2.582   8.202  0.3639  0.2621  0.5356
  600MOL0     C82727   1.661   2.476   8.137 -0.0761  0.2295 -0.2361
  600MOL0     C82728   2.345   2.831   8.243 -0.9475  0.1680 -0.0601
  600MOL0     C82729   2.462   2.892   8.196  0.2337 -0.6317  0.2412
  600MOL0     C82730   2.587   2.806   8.174  0.4657 -0.5419  0.1523
  600MOL0     H82731   2.563   3.449   8.040  0.9520  2.2361 -2.3415
  600MOL0     H82732   2.742   3.572   7.924  2.0417  0.3883  0.6413
  600MOL0     H82733   3.165   3.468   7.968  0.5685 -0.2315 -2.1952
  600MOL0     H82734   3.159   3.622   8.048 -0.1771 -0.0464 -0.2954
  600MOL0     H82735   3.091   3.716   7.808 -1.8576 -0.9665 -1.9027
  600MOL0     H82736   3.249   3.667   7.825 -0.9127  1.5801  0.5013
  600MOL0     H82737   3.171   3.424   7.767  1.5093  2.1121  2.4883
  600MOL0     H82738   3.020   3.493   7.734  0.2246 -0.2989  2.0291
  600MOL0     H82739   3.137   3.656   7.567  1.2914 -0.8546 -1.5851
  600MOL0     H82740   3.284   3.543   7.566  0.5592  1.9590  0.1089
  600MOL0     H82741   3.136   3.522   7.365  0.7133 -0.0504  1.0674
  600MOL0     H82742   2.990   3.487   7.469  0.2465  0.5656  1.5485
  600MOL0     H82743   3.238   3.313   7.461  0.7021  0.5584  4.4320
  600MOL0     H82744   3.105   3.281   7.562  0.6136 -0.5947 -0.4445
  600MOL0     H82745   3.073   3.298   7.262  0.1382 -0.2375  0.0877
  600MOL0     H82746   2.940   3.278   7.382 -0.4884  0.2976 -0.7598
  600MOL0     H82747   3.071   3.061   7.454  2.3376  1.0337  0.9004
  600MOL0     H82748   2.995   3.051   7.297  1.2261 -1.2186  1.7360
  600MOL0     H82749   3.159   3.082   7.090 -0.2264 -1.2304  0.0362
  600MOL0     H82750   3.486   3.085   7.015 -0.5662  1.3782  2.5464
  600MOL0     H82751   3.362   2.971   6.956 -0.2299  1.8229  0.3068
  600MOL0     H82752   3.616   2.891   7.101  1.3151 -0.5065 -1.9617
  600MOL0     H82753   3.471   2.784   7.095  0.4284 -1.7320 -3.0110
  600MOL0     H82754   3.516   2.834   6.838 -1.4779 -2.9990  0.0492
  600MOL0     H82755   3.674   2.903   6.905  0.4171  0.6170  1.7250
  600MOL0     H82756   3.709   2.687   7.021 -0.1285  1.7843  0.8419
  600MOL0     H82757   3.574   2.621   6.927  0.1845 -0.9242  0.8415
  600MOL0     H82758   3.892   2.599   6.638  0.6709 -0.8358 -0.4757
  600MOL0     H82759   4.034   2.275   6.525 -1.8720 -1.2334  2.4816
  600MOL0     H82760   4.148   2.394   6.608  0.2980  2.1657 -0.8523
  600MOL0     H82761   4.024   2.444   6.494  1.0460 -1.3093  0.1227
  600MOL0     H82762   4.118   2.026   6.486 -1.9033 -0.9573  0.0586
  600MOL0     H82763   4.218   1.830   6.429 -1.9534  1.7850  0.0189
  600MOL0     H82764   4.438   1.564   6.750 -0.4406  0.7792 -0.1407
  600MOL0     H82765   4.268   1.515   6.739  0.0616  0.5369  0.2449
  600MOL0     H82766   4.384   1.416   6.512 -1.7571 -1.4798 -0.0992
  600MOL0     H82767   4.514   1.407   6.637  0.7493  2.4725 -1.6868
  600MOL0     H82768   4.341   1.208   6.620  3.9545  0.6780 -0.4374
  600MOL0     H82769   4.225   1.312   6.692 -0.3581 -3.1008  0.8705
  600MOL0     H82770   4.427   1.328   6.883 -0.9684  1.6373 -1.0017
  600MOL0     H82771   4.489   1.200   6.777 -0.0736  1.2735 -1.4183
  600MOL0     H82772   4.225   1.188   6.923  0.9234  1.4568  1.7735
  600MOL0     H82773   4.295   1.054   6.816  1.3412 -1.7292  1.5274
  600MOL0     H82774   4.482   1.036   6.963 -0.4103 -1.2239  0.5502
  600MOL0     H82775   4.332   0.981   7.024 -1.6421 -0.4426 -1.1482
  600MOL0     H82776   4.305   1.210   7.148 -0.1985  0.4999  0.0401
  600MOL0     H82777   4.475   1.241   7.104 -1.3159  1.6462  2.1118
  600MOL0     H82778   4.565   1.078   7.231  0.3595  0.1839  0.9285
  600MOL0     H82779   4.404   0.989   7.261 -0.3419  0.3202  0.9257
  600MOL0     H82780   4.305   1.739   6.844  1.4588 -1.6867 -2.2729
  600MOL0     H82781   4.168   1.933   6.901 -1.0749  0.0541 -0.5650
  600MOL0     H82782   3.773   2.210   6.905  0.7310 -2.4560 -3.1799
  600MOL0     H82783   3.685   2.417   6.967 -1.2128  0.5838  0.3256
  600MOL0     H82784   3.034   3.333   8.111 -0.3079  2.2740  2.2494
  600MOL0     H82785   2.870   3.193   8.216  2.3131 -0.7138 -1.2388
  600MOL0     H82786   2.332   3.212   8.199  0.1686  0.6969 -1.8054
  600MOL0     H82787   2.138   3.099   8.272  0.3103  0.2893 -1.6285
  600MOL0     H82788   2.084   2.670   8.201  1.5243  1.0411 -1.1290
  600MOL0     H82789   2.154   2.659   8.371 -0.5871  1.9241  0.1002
  600MOL0     H82790   1.923   2.725   8.466 -0.9145 -0.1227  0.8811
  600MOL0     H82791   1.923   2.584   8.371 -0.6628  0.7625 -0.6690
  600MOL0     H82792   1.849   2.859   8.300 -0.1822 -0.0693  2.2811
  600MOL0     H82793   1.880   2.732   8.165 -3.0689 -1.6547 -0.9142
  600MOL0     H82794   1.625   2.777   8.206  0.2828  1.3661  0.1434
  600MOL0     H82795   1.649   2.710   8.361 -0.3329  2.5259 -0.5523
  600MOL0     H82796   1.629   2.389   8.083 -1.2628  0.7302 -0.3719
  600MOL0     H82797   2.354   2.725   8.264 -1.1041  0.3749  1.1177
  600MOL0     H82798   2.556   2.752   8.085 -1.6811  2.6637 -1.2606
  600MOL0     H82799   2.677   2.861   8.145  0.7762 -1.5653 -0.8697
  600MOL0     H82800   2.604   2.728   8.249 -1.6810 -0.2861  0.9800
  601MOL0     O82801   4.165   3.843   8.940 -0.2628  0.1449  0.0640
  601MOL0     C82802   4.122   3.738   8.899  0.0033  0.6639  0.1707
  601MOL0     O82803   4.187   3.666   8.801 -0.3504  0.4075 -0.4629
  601MOL0     C82804   4.318   3.693   8.784 -0.6972 -0.9249  0.4674
  601MOL0     C82805   4.419   3.616   8.844 -0.0388  1.2439 -0.5777
  601MOL0     C82806   4.555   3.646   8.835  0.6498  0.6010 -0.9001
  601MOL0     C82807   4.603   3.757   8.764  0.3860  0.2228  0.8667
  601MOL0     O82808   4.737   3.797   8.754 -0.3575  0.2015  0.0872
  601MOL0     C82809   4.828   3.745   8.847 -0.5539  0.6306 -0.1804
  601MOL0     C82810   4.963   3.799   8.801  0.7550 -0.3300 -0.2392
  601MOL0     C82811   5.085   3.727   8.842 -0.0989  0.7745  0.3204
  601MOL0     C82812   5.195   3.767   8.753  0.7014  0.3011  0.3907
  601MOL0     C82813   5.334   3.719   8.801 -0.0626  0.2139 -0.7510
  601MOL0     C82814   5.433   3.697   8.679  0.2897  0.1434  0.1892
  601MOL0     C82815   5.533   3.816   8.661  0.0418 -0.1727 -0.6035
  601MOL0     C82816   5.635   3.796   8.545  0.2342 -0.1408  0.5030
  601MOL0     N82817   5.563   3.756   8.424  0.3823 -0.4174  0.8137
  601MOL0     C82818   5.558   3.625   8.379  0.0285  0.5178  0.0789
  601MOL0     C82819   5.479   3.630   8.262 -0.4563 -0.4444 -0.5447
  601MOL0     C82820   5.448   3.529   8.150  0.0984  0.4419  0.2721
  601MOL0     C82821   5.315   3.543   8.077  0.0168 -0.1278  0.4064
  601MOL0     C82822   5.254   3.413   8.013  0.6585  0.5880  0.5933
  601MOL0     C82823   5.318   3.400   7.874  0.4242  0.4539 -0.7520
  601MOL0     O82824   5.446   3.353   7.902 -0.2103 -0.0284  0.1896
  601MOL0     C82825   5.523   3.307   7.792 -0.1079 -0.4557  0.2575
  601MOL0     C82826   5.648   3.253   7.829 -0.3253 -1.3503  0.1722
  601MOL0     C82827   5.739   3.203   7.735 -0.5775 -0.5258  0.3707
  601MOL0     C82828   5.865   3.140   7.781  0.1225 -0.2698  0.7617
  601MOL0     C82829   5.712   3.229   7.597  0.4135 -0.3339  0.2250
  601MOL0     C82830   5.823   3.227   7.499  0.2806  0.5641  0.8568
  601MOL0     O82831   5.826   3.321   7.400  0.2053 -0.6832 -0.4654
  601MOL0     C82832   5.944   3.343   7.339 -0.5916  0.9881  0.1576
  601MOL0     C82833   5.924   3.375   7.204  0.1631 -0.1558 -0.4500
  601MOL0     C82834   6.034   3.410   7.124 -0.5557  0.1353 -0.3514
  601MOL0     C82835   6.167   3.389   7.168 -0.2445 -0.7192 -0.0368
  601MOL0     O82836   6.284   3.430   7.097  0.3409 -0.4469 -0.1989
  601MOL0     C82837   6.263   3.511   6.974 -1.7486  0.1732 -0.2588
  601MOL0     C82838   6.392   3.570   6.924 -0.1389 -0.1967 -1.1869
  601MOL0     C82839   6.453   3.689   7.011  0.5110  0.3922 -0.6278
  601MOL0     C82840   6.586   3.733   6.948  0.6945 -0.2050  0.4754
  601MOL0     C82841   6.640   3.867   6.986  0.0980 -0.7672 -0.4854
  601MOL0     C82842   6.783   3.896   6.932 -0.1256  0.2103 -0.0331
  601MOL0     C82843   6.787   3.923   6.777 -0.6612 -0.0363 -0.0620
  601MOL0     C82844   6.924   3.964   6.730 -0.3013  0.7728 -0.2614
  601MOL0    Cl82845   6.979   4.113   6.813 -0.1172  0.1788 -0.4634
  601MOL0     C82846   6.188   3.353   7.301 -0.0913  0.5454  0.0853
  601MOL0     C82847   6.078   3.331   7.390 -0.1964 -0.0415 -0.0978
  601MOL0     O82848   5.882   3.124   7.490  0.0084  0.7119 -1.0819
  601MOL0     C82849   5.591   3.297   7.554 -0.4396 -0.3186 -0.7414
  601MOL0     C82850   5.497   3.330   7.652 -0.8869 -0.9556  0.2531
  601MOL0     N82851   5.435   3.760   8.243 -0.9451 -0.2831  0.1363
  601MOL0     N82852   5.489   3.834   8.340 -0.6968  0.5440 -0.1587
  601MOL0     C82853   4.504   3.832   8.689 -0.6183  0.5406 -0.3321
  601MOL0     C82854   4.365   3.795   8.699 -0.4227  0.3918 -0.0771
  601MOL0     C82855   3.979   3.702   8.938  0.2099  0.8145  1.2927
  601MOL0     C82856   3.911   3.628   8.835  0.8541  0.5583 -0.4153
  601MOL0     C82857   3.772   3.599   8.837 -1.0602  0.0437  0.0391
  601MOL0     C82858   3.701   3.643   8.948  0.4761 -1.2115  1.4815
  601MOL0     O82859   3.577   3.604   8.963  0.4522  0.0533  0.8394
  601MOL0     C82860   3.563   3.494   9.051  0.7328 -0.0982 -0.4117
  601MOL0     C82861   3.433   3.502   9.130  0.2714 -0.0126 -0.4746
  601MOL0     C82862   3.316   3.445   9.054 -0.4058 -0.1006  0.4744
  601MOL0     C82863   3.189   3.534   9.054  0.6354 -0.3415 -0.5779
  601MOL0     C82864   3.093   3.514   8.948  1.1177  0.6193  0.7627
  601MOL0     C82865   3.024   3.528   8.848 -0.0143  0.5212  1.1042
  601MOL0     C82866   3.760   3.731   9.045 -0.4064  0.6730 -0.5105
  601MOL0     C82867   3.896   3.753   9.041 -0.3800  0.0801 -0.3006
  601MOL0     C82868   3.941   3.860   9.138  0.2129  0.0113  0.9817
  601MOL0     H82869   4.394   3.533   8.909  3.9552 -0.9558 -1.5755
  601MOL0     H82870   4.621   3.570   8.875  0.5737  0.0275 -1.8364
  601MOL0     H82871   4.829   3.637   8.832  1.6757  0.0620  3.0763
  601MOL0     H82872   4.804   3.765   8.952 -0.2386  0.6913 -0.1173
  601MOL0     H82873   4.971   3.795   8.692 -1.4440 -0.9331 -0.4263
  601MOL0     H82874   4.950   3.901   8.839 -2.1141 -1.2159  1.5346
  601MOL0     H82875   5.103   3.761   8.944  1.2141  0.0957  0.3439
  601MOL0     H82876   5.066   3.619   8.835 -1.8688  1.0580  0.3924
  601MOL0     H82877   5.172   3.722   8.656  1.0635 -0.9432  0.8586
  601MOL0     H82878   5.197   3.876   8.743  2.4938  0.3331  0.7705
  601MOL0     H82879   5.327   3.621   8.850 -2.5984 -0.3507 -2.0242
  601MOL0     H82880   5.384   3.793   8.864  1.5102 -2.0589  0.8160
  601MOL0     H82881   5.486   3.602   8.690  2.1072  1.1900  0.8244
  601MOL0     H82882   5.376   3.692   8.586 -1.0395  1.0412  0.9269
  601MOL0     H82883   5.589   3.820   8.754  1.6338 -1.4416 -1.4579
  601MOL0     H82884   5.473   3.907   8.648 -0.2696 -0.4273 -0.9737
  601MOL0     H82885   5.686   3.890   8.520 -2.7618  1.4850 -0.0890
  601MOL0     H82886   5.710   3.721   8.573  1.0265  0.4715  0.0654
  601MOL0     H82887   5.587   3.530   8.424 -0.4812  0.3825  0.1310
  601MOL0     H82888   5.468   3.427   8.182 -1.5835  0.0440  0.1192
  601MOL0     H82889   5.526   3.540   8.074 -0.5238 -2.4196 -0.8786
  601MOL0     H82890   5.237   3.572   8.148  0.7566 -0.8061  1.5288
  601MOL0     H82891   5.318   3.629   8.009 -2.4107 -0.4024 -0.1247
  601MOL0     H82892   5.276   3.325   8.075  2.1000 -0.4517 -1.2833
  601MOL0     H82893   5.147   3.424   7.998  0.4311 -0.3504  1.4057
  601MOL0     H82894   5.256   3.322   7.828  1.2952  0.0184 -1.2070
  601MOL0     H82895   5.317   3.492   7.815 -0.3822 -0.5074 -2.3312
  601MOL0     H82896   5.657   3.218   7.932 -1.8548 -0.1660  0.7450
  601MOL0     H82897   5.876   3.129   7.889 -2.8486  1.1943  1.3077
  601MOL0     H82898   5.954   3.184   7.735 -1.3272  2.6489  0.5401
  601MOL0     H82899   5.863   3.036   7.748 -1.8142  0.7976 -3.0406
  601MOL0     H82900   5.821   3.387   7.172 -0.1124 -2.0319 -0.3922
  601MOL0     H82901   5.999   3.446   7.028  0.4218  2.3864  0.0674
  601MOL0     H82902   6.222   3.451   6.892 -1.9371  0.6640 -0.5239
  601MOL0     H82903   6.196   3.593   7.000 -1.2138 -0.1082  2.3136
  601MOL0     H82904   6.464   3.489   6.910  0.2040 -0.0432 -0.3827
  601MOL0     H82905   6.374   3.600   6.820 -1.3379  0.0803 -0.9046
  601MOL0     H82906   6.481   3.652   7.110  1.4581  0.2597 -0.9333
  601MOL0     H82907   6.382   3.771   7.024 -0.3469 -0.4099 -0.1860
  601MOL0     H82908   6.558   3.732   6.842  0.9094  0.7195  0.3973
  601MOL0     H82909   6.652   3.652   6.980  0.1692 -0.7649  0.1626
  601MOL0     H82910   6.571   3.939   6.941  1.3505 -0.1874 -1.5603
  601MOL0     H82911   6.635   3.871   7.095 -1.0586 -2.4163 -0.4406
  601MOL0     H82912   6.846   3.809   6.958 -1.1207 -0.4605  0.1964
  601MOL0     H82913   6.804   3.992   6.978 -3.0005  1.8337 -1.8143
  601MOL0     H82914   6.720   4.005   6.751 -1.0324 -0.0260  0.8917
  601MOL0     H82915   6.766   3.831   6.721  1.1352  1.6277 -3.8107
  601MOL0     H82916   6.912   3.983   6.623 -0.7181  1.5384 -0.0899
  601MOL0     H82917   6.987   3.876   6.743 -2.8219 -0.8141  2.3822
  601MOL0     H82918   6.288   3.344   7.343 -0.5352  0.0644  1.0770
  601MOL0     H82919   6.098   3.315   7.496 -0.3480 -0.1197 -0.0803
  601MOL0     H82920   5.583   3.321   7.449  2.3308  1.9289 -0.5641
  601MOL0     H82921   5.415   3.394   7.622 -0.0779  0.3479  0.7174
  601MOL0     H82922   4.538   3.919   8.635  3.0806  0.0774  0.9416
  601MOL0     H82923   4.294   3.863   8.654 -0.6700 -0.1025 -0.4444
  601MOL0     H82924   3.961   3.591   8.746 -1.6680  2.1408 -2.6392
  601MOL0     H82925   3.718   3.547   8.758  1.4238 -0.7362 -1.2636
  601MOL0     H82926   3.568   3.402   8.992  1.6387  0.6371 -1.5312
  601MOL0     H82927   3.643   3.494   9.126  1.6743  2.2858 -1.2856
  601MOL0     H82928   3.424   3.607   9.160 -2.0502 -0.6414  1.2654
  601MOL0     H82929   3.439   3.446   9.223  0.5200 -0.2072 -0.6078
  601MOL0     H82930   3.353   3.433   8.952 -0.2498 -0.5387  0.5798
  601MOL0     H82931   3.299   3.345   9.096  1.5963  0.4819  2.9487
  601MOL0     H82932   3.224   3.637   9.043  2.0172 -0.9012 -1.5725
  601MOL0     H82933   3.137   3.544   9.150 -0.4063 -1.5113 -0.9948
  601MOL0     H82934   2.985   3.548   8.750 -0.3392 -2.3445  0.5502
  601MOL0     H82935   3.690   3.770   9.118 -1.0616 -1.1808 -0.0830
  601MOL0     H82936   3.962   3.951   9.083  2.1476  0.4340  2.2870
  601MOL0     H82937   3.861   3.888   9.208 -2.2094 -1.0735 -1.2018
  601MOL0     H82938   4.034   3.830   9.188  1.6205  0.5227 -1.1960
  602MOL0     O82939   1.182   6.408  10.205 -0.0634  0.4775 -0.1069
  602MOL0     C82940   1.209   6.307  10.267  0.2555 -0.2995  0.3002
  602MOL0     O82941   1.122   6.236  10.351 -0.3213 -0.0566  0.0798
  602MOL0     C82942   0.988   6.223  10.335  0.2979 -0.5358  0.2242
  602MOL0     C82943   0.923   6.173  10.447 -0.1852 -0.4768 -0.0665
  602MOL0     C82944   0.786   6.151  10.446 -0.0817  0.2073 -0.0218
  602MOL0     C82945   0.711   6.173  10.332  0.0278  0.7260  0.1849
  602MOL0     O82946   0.586   6.130  10.335 -0.4168  0.0723  0.6464
  602MOL0     C82947   0.487   6.189  10.257  0.5328  1.0683 -0.2723
  602MOL0     C82948   0.358   6.162  10.329 -0.3043  0.4763 -0.1450
  602MOL0     C82949   0.235   6.230  10.262  0.6983 -0.2256  0.4080
  602MOL0     C82950   0.218   6.174  10.121 -0.0481  1.2766 -0.5818
  602MOL0     C82951   0.074   6.224  10.064 -0.0296  0.5513 -1.2699
  602MOL0     C82952  -0.034   6.120  10.106 -0.6558 -0.5993 -1.0031
  602MOL0     C82953  -0.174   6.156  10.037 -0.1294  0.5869 -0.2296
  602MOL0     C82954  -0.217   6.290  10.087  0.3093  0.1987 -0.1083
  602MOL0     N82955  -0.353   6.326  10.027 -0.1223 -0.0524  0.4305
  602MOL0     C82956  -0.393   6.324   9.892 -0.1811 -0.7852 -1.1262
  602MOL0     C82957  -0.523   6.306   9.896 -0.5067 -0.7437  0.5647
  602MOL0     C82958  -0.612   6.323   9.772  0.6829  0.2423 -0.5048
  602MOL0     C82959  -0.708   6.201   9.755  0.2262  1.2765  0.0415
  602MOL0     C82960  -0.764   6.179   9.619  0.0666 -0.2237  0.0516
  602MOL0     C82961  -0.672   6.096   9.525  0.5497 -0.1488 -0.0257
  602MOL0     O82962  -0.546   6.169   9.511 -0.5787  0.7941  0.0242
  602MOL0     C82963  -0.424   6.108   9.506 -0.5939  0.5581  0.2396
  602MOL0     C82964  -0.328   6.188   9.444 -0.0645 -0.0207  0.0110
  602MOL0     C82965  -0.195   6.156   9.449 -0.0029  0.0178  0.6343
  602MOL0     C82966  -0.115   6.265   9.378  0.1784 -0.3799  0.6843
  602MOL0     C82967  -0.155   6.037   9.511  0.0483 -0.5187  1.0336
  602MOL0     C82968  -0.014   5.987   9.530 -0.1810 -0.6536 -0.4172
  602MOL0     O82969   0.009   5.912   9.647  0.5577  1.0948 -0.4570
  602MOL0     C82970   0.140   5.891   9.680 -0.4174  0.4038  0.0486
  602MOL0     C82971   0.212   5.788   9.615  0.6391 -0.0793  0.1980
  602MOL0     C82972   0.342   5.767   9.649 -0.0161  0.3782 -0.0290
  602MOL0     C82973   0.394   5.829   9.759 -0.6412 -0.2063 -0.1875
  602MOL0     O82974   0.515   5.795   9.814  0.1593 -0.8804 -0.5755
  602MOL0     C82975   0.609   5.732   9.733  0.1786  0.7526 -0.4998
  602MOL0     C82976   0.751   5.748   9.787 -1.2354  0.7962  0.8578
  602MOL0     C82977   0.801   5.887   9.760 -0.0925 -0.5721  0.1276
  602MOL0     C82978   0.956   5.888   9.787 -0.1443  0.4988  0.8873
  602MOL0     C82979   1.015   6.026   9.758  0.7296 -0.2748  0.4299
  602MOL0     C82980   1.164   6.024   9.793 -0.7075  0.0405 -0.8417
  602MOL0     C82981   1.222   6.166   9.785 -0.1762 -0.5858  0.1439
  602MOL0     C82982   1.378   6.179   9.768  0.0230  0.7220  0.2433
  602MOL0    Cl82983   1.421   6.355   9.763 -0.4191 -0.3266  0.2892
  602MOL0     C82984   0.332   5.935   9.826  0.2251  0.5520  0.0759
  602MOL0     C82985   0.203   5.963   9.779  0.3049 -0.6184  0.1266
  602MOL0     O82986   0.069   6.037   9.456  0.2606  0.2962 -0.7996
  602MOL0     C82987  -0.258   5.953   9.564 -0.5255 -0.9117 -0.3580
  602MOL0     C82988  -0.391   5.990   9.572 -0.6702  0.3608  0.5644
  602MOL0     N82989  -0.575   6.296  10.025 -0.2470  0.2201  0.2449
  602MOL0     N82990  -0.464   6.293  10.095  0.0742 -0.2431 -0.2414
  602MOL0     C82991   0.776   6.211  10.216 -0.6411  0.1852  0.1570
  602MOL0     C82992   0.914   6.236  10.220  0.6088 -1.1278 -0.2431
  602MOL0     C82993   1.342   6.251  10.245  0.1466 -1.0385  0.5026
  602MOL0     C82994   1.405   6.278  10.124 -0.4151 -0.2981 -0.7847
  602MOL0     C82995   1.534   6.227  10.103 -0.4307 -0.0333 -0.4687
  602MOL0     C82996   1.604   6.150  10.197 -1.0153 -0.3568  0.3239
  602MOL0     O82997   1.732   6.121  10.160  0.4115 -0.4163 -0.4565
  602MOL0     C82998   1.816   6.055  10.252 -0.1468 -0.7941 -0.1435
  602MOL0     C82999   1.953   6.022  10.186  0.2980 -0.7622  0.2246
  602MOL0     C83000   1.944   5.905  10.086  0.1890  0.1811 -0.3614
  602MOL0     C83001   2.083   5.882  10.021  0.5829  0.5287 -0.0461
  602MOL0     C83002   2.063   5.767   9.930  0.0265  0.5404  0.2490
  602MOL0     C83003   2.043   5.671   9.856  0.1692  0.5659  0.0799
  602MOL0     C83004   1.547   6.127  10.328 -0.2939  0.8901  0.3310
  602MOL0     C83005   1.416   6.180  10.348  0.5793  0.4683 -0.2579
  602MOL0     C83006   1.361   6.185  10.490 -0.2514 -0.3487 -0.5743
  602MOL0     H83007   0.964   6.171  10.548 -0.6753  0.5911  0.1725
  602MOL0     H83008   0.730   6.117  10.533 -1.5775  0.8390 -0.6939
  602MOL0     H83009   0.479   6.153  10.154 -0.1022  1.1105 -0.2407
  602MOL0     H83010   0.503   6.297  10.243  2.4755  0.5276 -3.0441
  602MOL0     H83011   0.337   6.056  10.340  2.6031 -0.4350 -2.3116
  602MOL0     H83012   0.370   6.211  10.427  3.3091 -3.7779  1.8511
  602MOL0     H83013   0.146   6.215  10.325  1.2873 -0.7190  1.1355
  602MOL0     H83014   0.251   6.337  10.248 -1.4596  0.3214  1.5914
  602MOL0     H83015   0.302   6.192  10.053  0.1736 -0.0581 -0.6916
  602MOL0     H83016   0.212   6.065  10.121  2.0614  1.1037 -1.4659
  602MOL0     H83017   0.069   6.222   9.955  1.0919  1.1487 -1.3429
  602MOL0     H83018   0.054   6.327  10.097 -0.4423  0.7773 -2.1914
  602MOL0     H83019  -0.005   6.016  10.090 -0.3814 -1.0408  1.7719
  602MOL0     H83020  -0.045   6.134  10.214 -0.7062  3.7913 -1.3903
  602MOL0     H83021  -0.253   6.088  10.068 -4.0223  4.0571 -1.6165
  602MOL0     H83022  -0.168   6.150   9.928 -2.2874 -1.0976 -0.3116
  602MOL0     H83023  -0.230   6.278  10.195 -3.5835  0.3466 -0.4294
  602MOL0     H83024  -0.144   6.369  10.064  0.5120 -0.1545 -0.7176
  602MOL0     H83025  -0.328   6.344   9.807 -0.8933 -0.2162 -1.5475
  602MOL0     H83026  -0.552   6.339   9.682  0.2319  3.7018 -0.3220
  602MOL0     H83027  -0.670   6.415   9.781 -2.1548 -1.2913 -1.6945
  602MOL0     H83028  -0.653   6.111   9.786 -1.0232  0.5614  0.2415
  602MOL0     H83029  -0.799   6.197   9.815 -1.2067 -1.7022 -2.0993
  602MOL0     H83030  -0.855   6.118   9.626  0.6198 -1.1950 -0.9263
  602MOL0     H83031  -0.789   6.270   9.564  3.6321 -0.4697 -2.3200
  602MOL0     H83032  -0.661   5.992   9.559 -2.0842  0.4366  3.1516
  602MOL0     H83033  -0.725   6.090   9.429  0.3511 -0.9018  0.1260
  602MOL0     H83034  -0.365   6.270   9.384 -0.6894 -0.4032 -0.1342
  602MOL0     H83035  -0.142   6.365   9.413  0.8524  1.0844 -2.6282
  602MOL0     H83036  -0.132   6.255   9.270  0.6758 -0.8643  0.6445
  602MOL0     H83037  -0.008   6.256   9.398  0.3454  0.0395  0.0130
  602MOL0     H83038   0.171   5.726   9.536  3.1311 -2.0783  0.3216
  602MOL0     H83039   0.396   5.690   9.595  0.7961  0.4466  0.6699
  602MOL0     H83040   0.581   5.627   9.724  0.9647  0.5540 -0.7600
  602MOL0     H83041   0.593   5.782   9.637  1.2525  2.3164  0.0912
  602MOL0     H83042   0.766   5.715   9.890 -0.3904 -2.3855 -0.1709
  602MOL0     H83043   0.813   5.680   9.728 -0.8595  1.1116  0.8856
  602MOL0     H83044   0.748   5.957   9.826 -1.0453 -1.4580  0.3230
  602MOL0     H83045   0.778   5.914   9.656 -0.7221  1.3081  0.7048
  602MOL0     H83046   1.008   5.810   9.732 -2.0392  0.4196 -0.8976
  602MOL0     H83047   0.970   5.869   9.894  0.2693 -2.6777  0.3488
  602MOL0     H83048   0.985   6.060   9.659 -3.0381 -1.2690  1.0734
  602MOL0     H83049   0.960   6.089   9.828 -2.3737 -1.0050 -1.1844
  602MOL0     H83050   1.211   5.957   9.720 -0.8434 -2.2598  1.0630
  602MOL0     H83051   1.191   5.986   9.892 -0.9080  2.7271  0.3267
  602MOL0     H83052   1.187   6.208   9.879 -2.4585  1.6214 -1.5666
  602MOL0     H83053   1.165   6.222   9.710 -1.1524  0.2274  1.4523
  602MOL0     H83054   1.400   6.145   9.666 -1.7757  1.5326 -0.4480
  602MOL0     H83055   1.438   6.116   9.836  0.2698 -1.6854 -2.0338
  602MOL0     H83056   0.381   5.976   9.914  0.4125 -0.1181  0.2905
  602MOL0     H83057   0.149   6.040   9.834  1.9437  0.6059  0.0816
  602MOL0     H83058  -0.233   5.860   9.613 -2.4261  0.1728  2.9481
  602MOL0     H83059  -0.465   5.927   9.621 -0.4973  0.4935  0.9963
  602MOL0     H83060   0.729   6.215  10.118 -3.1051  0.2255  1.2578
  602MOL0     H83061   0.969   6.260  10.129  2.4276  0.7829  1.2520
  602MOL0     H83062   1.363   6.330  10.038  0.4522  2.6076  0.3956
  602MOL0     H83063   1.582   6.255  10.010  4.7163 -0.8286  1.6292
  602MOL0     H83064   1.843   6.126  10.330 -1.4736  1.8253 -1.9294
  602MOL0     H83065   1.763   5.971  10.298  0.0820  0.3837  2.3873
  602MOL0     H83066   2.030   6.001  10.261 -0.1165 -0.4893  0.7376
  602MOL0     H83067   1.989   6.113  10.139  0.6105 -0.2072  1.4837
  602MOL0     H83068   1.898   5.825  10.146 -0.4009  1.2941  0.7088
  602MOL0     H83069   1.869   5.930  10.010 -0.4444 -1.1308 -0.2110
  602MOL0     H83070   2.159   5.850  10.092 -2.6762 -3.3705  2.1271
  602MOL0     H83071   2.106   5.973   9.965 -2.4407  2.0804  1.0061
  602MOL0     H83072   1.999   5.597   9.792 -2.6711  1.1836  1.1745
  602MOL0     H83073   1.601   6.083  10.411  1.6172  0.6245 -0.9638
  602MOL0     H83074   1.272   6.122  10.496 -0.4810 -0.1898 -1.9152
  602MOL0     H83075   1.432   6.134  10.556  0.6894 -0.2459 -1.4772
  602MOL0     H83076   1.352   6.285  10.531  0.6970 -1.5919  2.9961
  603MOL0     O83077   3.891   7.469   5.330  0.2459  0.0184 -0.2212
  603MOL0     C83078   3.830   7.527   5.240 -0.4480  0.2237  0.0204
  603MOL0     O83079   3.895   7.576   5.136  0.5311  0.1168 -0.0919
  603MOL0     C83080   4.030   7.576   5.149 -0.0441 -0.9563 -0.3669
  603MOL0     C83081   4.087   7.704   5.156 -0.5662 -0.2374  0.0063
  603MOL0     C83082   4.228   7.721   5.158 -0.2921  0.7396  0.3871
  603MOL0     C83083   4.311   7.601   5.148  0.2180 -0.1232 -0.1366
  603MOL0     O83084   4.452   7.604   5.139  0.2103  0.0780 -0.7457
  603MOL0     C83085   4.510   7.691   5.235  0.0383 -0.5064 -0.4013
  603MOL0     C83086   4.642   7.639   5.277 -0.9032  1.1073  1.1490
  603MOL0     C83087   4.713   7.738   5.356 -0.5774  0.1417  1.1595
  603MOL0     C83088   4.855   7.690   5.387  0.1659  0.4834  1.1990
  603MOL0     C83089   4.908   7.764   5.515  0.8967 -0.7837  0.7184
  603MOL0     C83090   5.042   7.717   5.560 -0.8584  0.1954 -0.3378
  603MOL0     C83091   5.100   7.827   5.648 -0.1442  0.2567 -0.0404
  603MOL0     C83092   5.204   7.775   5.766 -0.3788  0.1546  0.0437
  603MOL0     N83093   5.321   7.725   5.694 -0.0170 -0.2157 -0.3436
  603MOL0     C83094   5.360   7.595   5.695  0.5929 -0.1779  0.4324
  603MOL0     C83095   5.475   7.594   5.622  0.6663 -0.3687 -0.5143
  603MOL0     C83096   5.553   7.474   5.596 -0.1001  0.4566 -0.2762
  603MOL0     C83097   5.676   7.500   5.503  0.2802  0.4057 -0.2876
  603MOL0     C83098   5.752   7.374   5.465 -0.1986  0.0889 -0.0024
  603MOL0     C83099   5.883   7.396   5.388 -0.1917  0.0296 -0.7345
  603MOL0     O83100   5.963   7.276   5.397  0.2452 -0.0409  0.6119
  603MOL0     C83101   6.064   7.271   5.488  0.0091 -0.7648  0.5623
  603MOL0     C83102   6.169   7.195   5.449  0.7983  0.1641  1.7078
  603MOL0     C83103   6.279   7.174   5.535 -0.2422 -0.8775 -0.5629
  603MOL0     C83104   6.396   7.094   5.487 -0.4757  0.4608  0.0347
  603MOL0     C83105   6.284   7.249   5.662  0.9978 -1.0763 -0.4540
  603MOL0     C83106   6.400   7.262   5.755 -0.1838  0.3962  0.1489
  603MOL0     O83107   6.495   7.171   5.752  0.6640  0.8193  0.4136
  603MOL0     C83108   6.606   7.183   5.829 -0.8981  0.3807  0.0953
  603MOL0     C83109   6.623   7.077   5.927  0.1173  0.0398 -0.1230
  603MOL0     C83110   6.739   7.082   6.006 -0.4848 -0.2910  0.1226
  603MOL0     C83111   6.830   7.186   5.992  0.7491 -0.5796 -0.0433
  603MOL0     O83112   6.937   7.210   6.076  0.4991  0.5723 -1.0766
  603MOL0     C83113   6.905   7.249   6.212 -1.1328 -0.6367  0.1576
  603MOL0     C83114   7.018   7.265   6.315 -0.6070  0.3251  1.2738
  603MOL0     C83115   7.088   7.398   6.310  0.4368  0.4800 -0.1102
  603MOL0     C83116   7.191   7.405   6.413  0.1385  0.4270  0.7905
  603MOL0     C83117   7.290   7.521   6.417 -0.7947 -0.6515  0.0170
  603MOL0     C83118   7.234   7.641   6.510 -0.5822  0.3830  0.5895
  603MOL0     C83119   7.310   7.768   6.488 -0.3877 -0.6873  0.0965
  603MOL0     C83120   7.260   7.888   6.568  0.6176  0.1162 -0.0906
  603MOL0    Cl83121   7.340   8.045   6.531  0.1517  0.2040  0.4064
  603MOL0     C83122   6.823   7.266   5.883 -0.3255  0.6096 -0.0280
  603MOL0     C83123   6.718   7.269   5.800  0.3627 -1.1422 -0.8107
  603MOL0     O83124   6.405   7.362   5.823 -0.9874  0.0292 -0.0922
  603MOL0     C83125   6.168   7.327   5.704 -0.8487 -1.1874  0.9127
  603MOL0     C83126   6.065   7.340   5.616 -0.6116  0.1161 -0.2735
  603MOL0     N83127   5.503   7.727   5.591  0.1004  0.7716  0.1250
  603MOL0     N83128   5.415   7.806   5.641  0.1634  0.2330  0.4477
  603MOL0     C83129   4.250   7.482   5.129 -0.1107  0.0101 -0.0814
  603MOL0     C83130   4.111   7.465   5.135 -0.4651 -0.2902  0.2339
  603MOL0     C83131   3.691   7.503   5.247  1.0079  0.6612 -0.4214
  603MOL0     C83132   3.644   7.371   5.225  0.3797  0.2908  0.0951
  603MOL0     C83133   3.510   7.346   5.207 -0.2797  0.6345 -0.1634
  603MOL0     C83134   3.416   7.443   5.230 -0.4267 -0.1688  0.5648
  603MOL0     O83135   3.281   7.425   5.197  0.0745 -0.0196 -0.2125
  603MOL0     C83136   3.256   7.438   5.058  0.1149 -0.3040  0.0143
  603MOL0     C83137   3.116   7.408   5.021  0.8041 -0.8881 -0.6937
  603MOL0     C83138   3.013   7.487   5.112 -0.3122  0.1722  0.9745
  603MOL0     C83139   2.876   7.508   5.043 -1.1090  0.1034  0.7162
  603MOL0     C83140   2.808   7.373   5.030  0.3816 -0.0695 -0.0549
  603MOL0     C83141   2.733   7.277   5.028 -0.6158  0.0423 -0.1675
  603MOL0     C83142   3.463   7.573   5.278 -0.5012  0.3883 -0.1101
  603MOL0     C83143   3.598   7.599   5.292 -0.2545 -0.2281 -1.0045
  603MOL0     C83144   3.651   7.730   5.345  0.1111 -0.1833  0.0873
  603MOL0     H83145   4.024   7.792   5.147  0.0488  0.3914  1.4610
  603MOL0     H83146   4.283   7.812   5.181  2.7688 -1.0572  0.7356
  603MOL0     H83147   4.448   7.711   5.323 -0.3359 -0.8703 -0.5792
  603MOL0     H83148   4.525   7.786   5.183  4.7499  0.4590  2.1569
  603MOL0     H83149   4.617   7.547   5.331 -3.1105 -0.5108 -2.2417
  603MOL0     H83150   4.706   7.608   5.194 -1.0385  1.9204  0.7311
  603MOL0     H83151   4.722   7.837   5.313 -0.0311 -0.4922 -0.2261
  603MOL0     H83152   4.654   7.748   5.448  0.4100  0.3275  1.7993
  603MOL0     H83153   4.876   7.583   5.387  4.5998  1.1498  1.8296
  603MOL0     H83154   4.923   7.727   5.311 -0.3691 -0.0902  0.4286
  603MOL0     H83155   4.834   7.744   5.594  1.5279  0.4315  1.6444
  603MOL0     H83156   4.914   7.872   5.499 -1.0917 -0.9314 -1.5807
  603MOL0     H83157   5.038   7.616   5.600  2.2080  0.5846  1.2644
  603MOL0     H83158   5.097   7.704   5.466 -2.5735 -1.1305 -1.2153
  603MOL0     H83159   5.022   7.878   5.706  1.4650  2.4393  0.3663
  603MOL0     H83160   5.152   7.903   5.589  3.0062 -1.5057  0.2282
  603MOL0     H83161   5.227   7.855   5.836 -4.5068  0.9101  0.7696
  603MOL0     H83162   5.147   7.698   5.818  0.3265 -0.1158  0.4251
  603MOL0     H83163   5.312   7.519   5.755  0.3675 -0.2035  0.2211
  603MOL0     H83164   5.493   7.398   5.545 -0.1811  1.1296 -1.2120
  603MOL0     H83165   5.583   7.435   5.694 -1.7042 -1.1176 -0.3663
  603MOL0     H83166   5.649   7.563   5.418  0.1071  2.7962  1.4322
  603MOL0     H83167   5.746   7.569   5.550 -0.1523  0.5747  0.1206
  603MOL0     H83168   5.779   7.324   5.559 -2.2684  0.7329  1.0170
  603MOL0     H83169   5.692   7.312   5.398 -1.5027  0.4084  0.8180
  603MOL0     H83170   5.861   7.424   5.284 -1.8113 -0.5096 -0.5532
  603MOL0     H83171   5.931   7.487   5.424 -2.8884  0.6225  1.7049
  603MOL0     H83172   6.173   7.144   5.354  0.0563 -2.7665  3.1338
  603MOL0     H83173   6.493   7.138   5.512 -0.8059 -0.4996  3.5150
  603MOL0     H83174   6.390   7.067   5.382  0.9559  1.3298 -0.2888
  603MOL0     H83175   6.396   7.003   5.548  2.0842  1.6922  2.0863
  603MOL0     H83176   6.540   7.009   5.943 -1.8404  1.7242 -2.3772
  603MOL0     H83177   6.770   7.010   6.081  0.8576 -1.1373 -1.1853
  603MOL0     H83178   6.852   7.345   6.200  1.9178  1.2575  0.8272
  603MOL0     H83179   6.837   7.174   6.252 -1.1096 -1.1345 -0.7160
  603MOL0     H83180   6.987   7.241   6.417 -1.4366  0.2874  1.0165
  603MOL0     H83181   7.094   7.187   6.304  0.4234  1.0658  2.7776
  603MOL0     H83182   7.016   7.478   6.330 -0.2083  0.1884 -1.1881
  603MOL0     H83183   7.137   7.410   6.213  0.5697 -1.4296 -0.3192
  603MOL0     H83184   7.247   7.313   6.394 -1.1050  0.0812 -1.5756
  603MOL0     H83185   7.142   7.397   6.511 -3.2487  1.0707 -0.7354
  603MOL0     H83186   7.388   7.494   6.457 -0.7208 -0.5268 -0.0805
  603MOL0     H83187   7.303   7.544   6.311  2.5810 -2.7298 -0.1580
  603MOL0     H83188   7.251   7.621   6.616  0.2615 -1.5843  0.1315
  603MOL0     H83189   7.126   7.646   6.496 -0.5835 -2.0004 -0.7493
  603MOL0     H83190   7.306   7.799   6.383  1.1586  1.8388  0.7084
  603MOL0     H83191   7.419   7.772   6.500 -0.0278  0.7779 -2.8701
  603MOL0     H83192   7.277   7.869   6.675 -2.3892  0.3011  0.5047
  603MOL0     H83193   7.154   7.900   6.547  0.4007 -0.2852  0.7061
  603MOL0     H83194   6.910   7.327   5.858 -0.4774 -0.4617 -3.8040
  603MOL0     H83195   6.702   7.345   5.724 -0.1617  1.6992  1.9337
  603MOL0     H83196   6.156   7.377   5.800  0.0114  1.4268 -0.2457
  603MOL0     H83197   5.977   7.387   5.660  0.0776 -0.9754  2.5131
  603MOL0     H83198   4.312   7.393   5.127  1.1276  0.8287  0.5260
  603MOL0     H83199   4.061   7.369   5.127  0.6915 -1.1303  2.4409
  603MOL0     H83200   3.705   7.290   5.186 -3.8432 -2.0784 -2.3636
  603MOL0     H83201   3.475   7.246   5.183  1.3207 -0.2502  1.0309
  603MOL0     H83202   3.280   7.539   5.022  1.4690 -1.1125 -1.4709
  603MOL0     H83203   3.318   7.370   4.999  2.2029  0.0258  1.6892
  603MOL0     H83204   3.091   7.301   5.018 -0.4249 -0.6161 -0.8826
  603MOL0     H83205   3.108   7.452   4.921  2.0450 -1.7682 -1.1997
  603MOL0     H83206   3.003   7.439   5.209  1.6839  1.1532  1.7308
  603MOL0     H83207   3.059   7.581   5.145  0.4368  0.9477 -1.9407
  603MOL0     H83208   2.878   7.560   4.947 -3.2276  1.1880  1.1942
  603MOL0     H83209   2.819   7.575   5.107  0.4291 -0.7365  3.0573
  603MOL0     H83210   2.662   7.197   5.017  0.1323 -1.1421  2.7605
  603MOL0     H83211   3.376   7.636   5.293  0.4316  1.9683 -1.1346
  603MOL0     H83212   3.733   7.725   5.418 -0.9966  1.3301  1.5110
  603MOL0     H83213   3.690   7.782   5.257  0.8655  0.3106  0.7013
  603MOL0     H83214   3.566   7.790   5.380 -0.7014 -0.4196 -1.3791
  604MOL0     O83215   2.553   1.374   5.044 -0.3138  0.2698 -0.6603
  604MOL0     C83216   2.580   1.448   5.136 -0.1223  0.7606  0.3436
  604MOL0     O83217   2.702   1.441   5.209  0.0131 -0.3279 -0.1590
  604MOL0     C83218   2.826   1.422   5.149 -0.6696  0.4316  0.8181
  604MOL0     C83219   2.950   1.407   5.221  0.1196  0.5223 -0.6246
  604MOL0     C83220   3.075   1.389   5.152  0.3861 -0.3812  1.1798
  604MOL0     C83221   3.085   1.390   5.007 -0.2267  0.2940 -0.7231
  604MOL0     O83222   3.201   1.373   4.938  0.2440 -1.0017  0.3410
  604MOL0     C83223   3.327   1.391   5.001 -0.5247  0.1168 -1.1412
  604MOL0     C83224   3.443   1.377   4.898 -0.1610  0.3401 -0.5713
  604MOL0     C83225   3.575   1.445   4.954 -0.9518 -0.3207 -0.1902
  604MOL0     C83226   3.647   1.369   5.065 -0.0913  0.4160  0.4441
  604MOL0     C83227   3.793   1.397   5.069 -0.5993 -0.1788  1.0927
  604MOL0     C83228   3.861   1.314   5.179 -0.8105  0.5015 -0.2511
  604MOL0     C83229   4.007   1.339   5.199 -0.3908 -0.6859 -0.1504
  604MOL0     C83230   4.099   1.298   5.082 -0.6086  0.3787  0.5120
  604MOL0     N83231   4.239   1.339   5.100 -0.4968  0.5665  0.3397
  604MOL0     C83232   4.285   1.432   5.185  0.2359  0.0061  0.8990
  604MOL0     C83233   4.412   1.457   5.143 -0.4096 -0.7125  0.9005
  604MOL0     C83234   4.513   1.547   5.202  0.5185 -0.0790  0.2614
  604MOL0     C83235   4.594   1.481   5.321  0.6038  0.7185  0.0069
  604MOL0     C83236   4.739   1.522   5.349  0.0014  0.0760 -0.1419
  604MOL0     C83237   4.740   1.674   5.375 -1.1972 -0.9377 -0.4560
  604MOL0     O83238   4.856   1.708   5.455 -0.2587 -0.2436 -0.3593
  604MOL0     C83239   4.978   1.697   5.392 -0.0036 -0.2937  0.5256
  604MOL0     C83240   5.038   1.570   5.395 -0.6843 -0.1123  1.2030
  604MOL0     C83241   5.175   1.562   5.351  0.2543 -0.7470 -0.0870
  604MOL0     C83242   5.233   1.425   5.371  0.3265  0.7848  0.4851
  604MOL0     C83243   5.253   1.675   5.308 -0.0203  0.4990  0.2103
  604MOL0     C83244   5.402   1.686   5.290 -0.1250  0.8788  0.3039
  604MOL0     O83245   5.439   1.796   5.223 -0.4261  0.2978  0.0943
  604MOL0     C83246   5.576   1.801   5.210  1.0861  0.3190 -0.1750
  604MOL0     C83247   5.637   1.908   5.277 -0.4561 -0.1139  0.3127
  604MOL0     C83248   5.778   1.931   5.266  0.2544  0.3840  0.1663
  604MOL0     C83249   5.860   1.842   5.185  0.0364  0.5270  0.2063
  604MOL0     O83250   5.995   1.877   5.175  0.4413 -0.0803 -0.0161
  604MOL0     C83251   6.068   1.790   5.090 -0.2596  0.1557 -0.2582
  604MOL0     C83252   6.215   1.825   5.092  0.4466  0.4927 -0.6642
  604MOL0     C83253   6.283   1.759   4.974 -0.0699 -0.5849 -0.1263
  604MOL0     C83254   6.437   1.789   4.971  0.4367 -0.2820  0.2873
  604MOL0     C83255   6.500   1.696   4.874 -0.0996  0.1370  0.0251
  604MOL0     C83256   6.651   1.685   4.896  0.2180  0.3267  0.2009
  604MOL0     C83257   6.715   1.580   4.801  0.3085 -0.4849 -0.0570
  604MOL0     C83258   6.837   1.525   4.877 -1.2636  0.2736 -0.3363
  604MOL0    Cl83259   6.945   1.665   4.895  0.0782  0.0179  0.1051
  604MOL0     C83260   5.785   1.739   5.117 -0.5619 -0.1701  0.3368
  604MOL0     C83261   5.647   1.725   5.125 -1.1624  0.0231  1.0507
  604MOL0     O83262   5.471   1.591   5.337  0.1947 -0.3211  0.0293
  604MOL0     C83263   5.184   1.796   5.302  0.7519 -0.3001  0.9384
  604MOL0     C83264   5.045   1.814   5.344 -0.3450  0.1568 -0.0880
  604MOL0     N83265   4.439   1.367   5.049  0.3369  0.0270  0.0192
  604MOL0     N83266   4.336   1.293   5.022 -0.3346  0.9888  0.0762
  604MOL0     C83267   2.974   1.416   4.940 -0.1833 -0.0901  0.5758
  604MOL0     C83268   2.845   1.434   5.007  0.3461  1.1152  0.4491
  604MOL0     C83269   2.465   1.519   5.199  0.3659 -0.6046 -0.4626
  604MOL0     C83270   2.472   1.541   5.341  0.2780  0.3560  0.3267
  604MOL0     C83271   2.377   1.618   5.410  0.2184 -0.7210  0.0567
  604MOL0     C83272   2.265   1.677   5.338  0.7698 -0.0112 -0.4988
  604MOL0     O83273   2.166   1.744   5.404 -0.0711 -0.3595  0.6284
  604MOL0     C83274   2.097   1.654   5.491 -0.3548 -0.1955  0.0839
  604MOL0     C83275   1.963   1.732   5.524  0.2739  0.6691  0.3992
  604MOL0     C83276   1.887   1.674   5.643  0.3750 -0.0040 -0.2530
  604MOL0     C83277   1.950   1.698   5.783  0.0842 -0.0926 -0.5775
  604MOL0     C83278   1.886   1.606   5.879  0.4426 -0.2279 -0.1168
  604MOL0     C83279   1.846   1.532   5.966  0.5652 -0.3428  0.4311
  604MOL0     C83280   2.262   1.651   5.208 -0.5183  0.1161 -0.0119
  604MOL0     C83281   2.349   1.572   5.135 -0.6678 -0.4550 -0.2156
  604MOL0     C83282   2.310   1.551   4.990  0.2752 -0.5184  0.5084
  604MOL0     H83283   2.949   1.407   5.329  0.9541  0.7617 -0.6150
  604MOL0     H83284   3.169   1.380   5.205 -0.1889 -0.5032  2.2092
  604MOL0     H83285   3.343   1.320   5.082  0.5069  2.1312  0.5120
  604MOL0     H83286   3.345   1.489   5.045 -0.6643  0.0350 -0.9029
  604MOL0     H83287   3.450   1.269   4.882  1.4862 -0.0070  1.9445
  604MOL0     H83288   3.417   1.414   4.799 -1.8465 -1.9199 -1.0617
  604MOL0     H83289   3.632   1.456   4.861 -0.3831  0.1025  0.2052
  604MOL0     H83290   3.549   1.546   4.987 -1.9459 -0.4976 -0.4038
  604MOL0     H83291   3.597   1.370   5.162 -1.4676  1.5997 -0.2427
  604MOL0     H83292   3.642   1.262   5.039  1.7841  0.2653  0.5329
  604MOL0     H83293   3.798   1.505   5.085 -1.8171  0.1127 -0.2484
  604MOL0     H83294   3.844   1.388   4.972 -0.4799  0.2942  1.1103
  604MOL0     H83295   3.813   1.333   5.276  0.4907 -1.1654  0.7717
  604MOL0     H83296   3.847   1.210   5.151  0.0449  0.1250  0.6640
  604MOL0     H83297   4.050   1.276   5.278 -0.3341 -1.0827 -0.4921
  604MOL0     H83298   4.033   1.443   5.220  1.9050 -0.7560 -2.1174
  604MOL0     H83299   4.088   1.189   5.078 -0.1461  0.2514  1.9766
  604MOL0     H83300   4.054   1.337   4.990 -0.0669 -0.9605 -0.3512
  604MOL0     H83301   4.233   1.485   5.264 -2.5307  0.2270 -0.9262
  604MOL0     H83302   4.460   1.633   5.244  3.0455  1.1237  1.1971
  604MOL0     H83303   4.576   1.587   5.122  1.1723  0.2149  0.9102
  604MOL0     H83304   4.528   1.499   5.406  1.4218  1.1189  0.5737
  604MOL0     H83305   4.597   1.374   5.302 -4.0506  0.5117 -0.7269
  604MOL0     H83306   4.771   1.456   5.431 -2.4569 -0.8769  0.1528
  604MOL0     H83307   4.813   1.502   5.271  0.5770  1.3805  0.0408
  604MOL0     H83308   4.734   1.728   5.280  0.1906  1.0051  0.4779
  604MOL0     H83309   4.656   1.705   5.437  0.9272  2.2203  1.1773
  604MOL0     H83310   4.986   1.487   5.442 -2.1574 -1.0854 -1.9008
  604MOL0     H83311   5.299   1.431   5.459  0.6456 -3.3962  0.7460
  604MOL0     H83312   5.291   1.393   5.284 -2.7741 -1.2693 -1.0079
  604MOL0     H83313   5.151   1.357   5.394  1.1094  0.4823  2.6929
  604MOL0     H83314   5.579   1.981   5.333 -2.6798  0.5960 -2.6529
  604MOL0     H83315   5.826   2.020   5.303 -0.7972  0.8697  0.4120
  604MOL0     H83316   6.062   1.684   5.116  1.0041 -0.1018 -0.9230
  604MOL0     H83317   6.029   1.801   4.988  0.0275 -3.1073 -0.8466
  604MOL0     H83318   6.220   1.934   5.092  1.0921  0.5271 -3.5503
  604MOL0     H83319   6.267   1.779   5.177 -0.6141 -1.4174 -0.9920
  604MOL0     H83320   6.227   1.781   4.883 -1.3145 -3.7575 -0.2297
  604MOL0     H83321   6.280   1.651   4.990  0.4446 -0.4711  0.8267
  604MOL0     H83322   6.479   1.786   5.072  1.6221 -1.4654 -0.2100
  604MOL0     H83323   6.452   1.890   4.932 -0.6302 -0.4772 -0.6660
  604MOL0     H83324   6.450   1.599   4.886 -0.5208  0.0880 -1.7839
  604MOL0     H83325   6.468   1.718   4.771 -2.1272 -0.2258  0.5204
  604MOL0     H83326   6.668   1.653   4.999  1.7856  1.7327  0.4288
  604MOL0     H83327   6.699   1.783   4.892  1.7477 -0.3383  1.2486
  604MOL0     H83328   6.748   1.625   4.707  2.5188  0.8740  1.3055
  604MOL0     H83329   6.644   1.499   4.782  0.5914 -1.0623  1.2456
  604MOL0     H83330   6.887   1.457   4.809  0.7929  0.9123  0.4732
  604MOL0     H83331   6.817   1.477   4.974  0.1370 -1.5808 -0.9275
  604MOL0     H83332   5.831   1.666   5.051 -2.9082 -0.5131 -1.0328
  604MOL0     H83333   5.608   1.642   5.066  0.9429 -0.5403  0.3509
  604MOL0     H83334   5.232   1.890   5.280 -1.6327  0.7868  0.0803
  604MOL0     H83335   5.000   1.912   5.357 -2.0321 -0.4767 -0.8611
  604MOL0     H83336   2.987   1.429   4.833  1.5601 -2.3122  0.4532
  604MOL0     H83337   2.756   1.443   4.946  1.3681  0.3497 -1.2371
  604MOL0     H83338   2.555   1.509   5.403 -1.2406 -0.4986  2.0235
  604MOL0     H83339   2.391   1.629   5.517 -1.8626  0.5015  0.2636
  604MOL0     H83340   2.080   1.561   5.438 -1.2115  0.5592 -1.0053
  604MOL0     H83341   2.151   1.619   5.580 -1.8870 -2.1862  0.2910
  604MOL0     H83342   1.898   1.731   5.436 -1.0157  0.1846  1.3265
  604MOL0     H83343   1.990   1.832   5.562 -0.8140 -0.2573  4.0022
  604MOL0     H83344   1.787   1.719   5.637  1.2142  1.9014 -0.5609
  604MOL0     H83345   1.874   1.569   5.613  1.7746 -0.1059 -0.5887
  604MOL0     H83346   1.933   1.803   5.810  0.6383 -0.7970  2.9972
  604MOL0     H83347   2.057   1.675   5.779  0.4494  0.9123  1.9484
  604MOL0     H83348   1.818   1.458   6.039 -1.7159 -1.8573 -1.7819
  604MOL0     H83349   2.170   1.693   5.167  0.3136 -0.3697 -2.5094
  604MOL0     H83350   2.237   1.621   4.948  0.8728 -0.0532  0.2276
  604MOL0     H83351   2.400   1.555   4.928 -0.7826 -0.7934 -1.1113
  604MOL0     H83352   2.274   1.450   4.971  0.5857 -0.3082 -1.4388
  605MOL0     O83353  10.325   1.156   9.044 -0.6778  0.4608  0.1905
  605MOL0     C83354  10.399   1.212   9.121  0.4371  0.1694 -0.6391
  605MOL0     O83355  10.532   1.210   9.119 -0.1864  0.4252  1.1434
  605MOL0     C83356  10.597   1.145   9.015 -0.0622 -0.1760 -0.7430
  605MOL0     C83357  10.616   1.219   8.894 -0.1225  0.0191  0.4996
  605MOL0     C83358  10.686   1.166   8.788 -0.4785  0.5685  0.1101
  605MOL0     C83359  10.751   1.041   8.796  0.5407 -0.4162 -0.8181
  605MOL0     O83360  10.820   1.009   8.679  1.1355 -0.0724 -0.2703
  605MOL0     C83361  10.908   0.891   8.694  0.2802 -0.8180 -0.1225
  605MOL0     C83362  10.817   0.786   8.648  0.0201  0.6091  0.4009
  605MOL0     C83363  10.913   0.672   8.610  0.1763  0.0558 -0.0601
  605MOL0     C83364  10.836   0.556   8.535  0.5449  0.0987  0.5684
  605MOL0     C83365  10.921   0.436   8.522  0.1181  0.4766 -0.7224
  605MOL0     C83366  10.854   0.315   8.472  0.6038  0.3266  0.5760
  605MOL0     C83367  10.952   0.203   8.458  0.8906 -0.3117  0.1650
  605MOL0     C83368  11.034   0.215   8.338 -1.4817 -0.6964 -1.0639
  605MOL0     N83369  10.971   0.204   8.209  0.0661  0.0104 -0.0816
  605MOL0     C83370  10.872   0.122   8.169 -0.2304  0.0876 -0.2681
  605MOL0     C83371  10.845   0.157   8.043  0.9095  0.1852  0.6194
  605MOL0     C83372  10.733   0.106   7.953  0.4361  0.4632 -0.4824
  605MOL0     C83373  10.737   0.172   7.814  0.2287  0.4343  0.5334
  605MOL0     C83374  10.642   0.104   7.712 -0.0226 -0.3613  0.1317
  605MOL0     C83375  10.499   0.083   7.758  0.3092  0.3622 -0.7495
  605MOL0     O83376  10.449   0.219   7.779 -0.1671  0.1792 -0.4962
  605MOL0     C83377  10.326   0.238   7.829 -0.2407  0.1299 -0.6489
  605MOL0     C83378  10.232   0.141   7.870 -0.0510  0.3219  0.5805
  605MOL0     C83379  10.098   0.177   7.901 -0.5663  0.1054 -0.2771
  605MOL0     C83380  10.016   0.065   7.959 -0.3939  0.3250 -0.5206
  605MOL0     C83381  10.052   0.313   7.904  0.6393  0.3214  1.2185
  605MOL0     C83382   9.920   0.357   7.953  0.4061  0.1520  0.1326
  605MOL0     O83383   9.905   0.491   7.956 -0.2159  0.0914 -0.3301
  605MOL0     C83384   9.782   0.555   7.958 -0.2110  0.1187  0.1252
  605MOL0     C83385   9.792   0.685   7.918  0.3214 -0.7566  0.2775
  605MOL0     C83386   9.675   0.764   7.902  0.2135 -0.7415 -0.8923
  605MOL0     C83387   9.549   0.707   7.939 -0.3171 -1.1021  0.5545
  605MOL0     O83388   9.431   0.782   7.927  0.4729 -1.2222 -0.1517
  605MOL0     C83389   9.431   0.904   7.848 -0.1139  0.0201 -0.9960
  605MOL0     C83390   9.299   0.965   7.859 -0.1262  0.0610 -0.0312
  605MOL0     C83391   9.278   1.027   8.002  0.1928  0.1524 -0.5651
  605MOL0     C83392   9.131   1.005   8.049 -0.0241 -0.3599  0.0499
  605MOL0     C83393   9.100   1.105   8.163  0.3564  0.7382 -0.0380
  605MOL0     C83394   9.155   1.057   8.297  0.4890 -0.3546 -0.7997
  605MOL0     C83395   9.077   0.938   8.371 -0.1268 -0.1725 -0.1269
  605MOL0     C83396   8.922   0.938   8.354  0.2860  0.4458  0.4897
  605MOL0    Cl83397   8.878   0.862   8.196  0.0995 -0.5901  0.2435
  605MOL0     C83398   9.538   0.582   7.984  0.5265  0.7213  0.2053
  605MOL0     C83399   9.658   0.506   7.996  0.5773  0.4159 -0.2452
  605MOL0     O83400   9.837   0.271   7.987 -0.1051  0.1036  0.4899
  605MOL0     C83401  10.152   0.406   7.863  0.7797 -0.0892 -0.4460
  605MOL0     C83402  10.282   0.369   7.831 -0.2802  1.0123  0.0629
  605MOL0     N83403  10.936   0.252   8.004 -0.6051 -0.4296 -0.4744
  605MOL0     N83404  11.000   0.290   8.109 -0.2250 -0.6903 -0.0571
  605MOL0     C83405  10.734   0.972   8.924 -0.0943 -0.3641  0.1782
  605MOL0     C83406  10.660   1.024   9.027  0.3301 -0.4507 -0.4101
  605MOL0     C83407  10.342   1.298   9.218 -0.1857 -0.1630  0.1491
  605MOL0     C83408  10.411   1.423   9.253  0.7296  0.0663  0.3790
  605MOL0     C83409  10.351   1.509   9.351 -0.0808  0.4784  0.5739
  605MOL0     C83410  10.243   1.475   9.426  0.1945  0.6463 -0.2009
  605MOL0     O83411  10.218   1.566   9.531 -0.6999  0.6230 -0.8824
  605MOL0     C83412  10.130   1.527   9.642  0.2844 -0.0587  0.1342
  605MOL0     C83413  10.194   1.479   9.768  0.1061 -0.2000  0.3324
  605MOL0     C83414  10.099   1.407   9.869  0.2893  0.3631 -0.3540
  605MOL0     C83415  10.161   1.269   9.909 -0.3457 -0.2580 -0.0289
  605MOL0     C83416  10.297   1.278   9.959 -1.0375  0.2928  0.0491
  605MOL0     C83417  10.415   1.278   9.992  0.4606  0.5001 -0.5989
  605MOL0     C83418  10.174   1.355   9.393  0.0137  0.2348 -0.5609
  605MOL0     C83419  10.223   1.273   9.290  0.2797 -0.6301 -0.0801
  605MOL0     C83420  10.143   1.145   9.262 -0.2804 -0.0016  0.6878
  605MOL0     H83421  10.552   1.307   8.888 -1.6416 -1.1351 -2.6326
  605MOL0     H83422  10.690   1.234   8.703  0.5146  1.6681  0.9987
  605MOL0     H83423  10.957   0.866   8.788  0.4745  0.0389  0.0105
  605MOL0     H83424  10.995   0.904   8.628  1.2542 -2.8032  0.6803
  605MOL0     H83425  10.748   0.753   8.727  0.1825 -1.2846 -0.1913
  605MOL0     H83426  10.748   0.818   8.569  0.5610  0.7811 -0.0080
  605MOL0     H83427  10.991   0.717   8.549  1.6942 -0.1472  1.6629
  605MOL0     H83428  10.952   0.638   8.706  2.4668  0.8929 -0.6377
  605MOL0     H83429  10.738   0.531   8.578  0.1999  1.2759  0.4993
  605MOL0     H83430  10.822   0.589   8.432 -0.9928 -3.3360 -0.4579
  605MOL0     H83431  10.969   0.416   8.618  0.9191 -0.4094 -1.2865
  605MOL0     H83432  10.998   0.460   8.448  1.8234  1.2533  1.2381
  605MOL0     H83433  10.774   0.295   8.543  0.5605  1.5758  0.8981
  605MOL0     H83434  10.806   0.332   8.375  0.5899  1.0563  0.7044
  605MOL0     H83435  10.881   0.121   8.443 -2.5813  2.2956  1.2112
  605MOL0     H83436  11.019   0.193   8.544  3.3905 -0.7668 -1.7187
  605MOL0     H83437  11.104   0.298   8.345  2.1219 -3.5530  0.0284
  605MOL0     H83438  11.102   0.129   8.334 -0.2960  0.0711  1.0394
  605MOL0     H83439  10.820   0.039   8.216  0.5918 -0.3153 -0.0333
  605MOL0     H83440  10.638   0.135   7.997  0.1346 -0.9299 -0.1430
  605MOL0     H83441  10.723  -0.003   7.948 -0.4416  0.4739  0.6663
  605MOL0     H83442  10.727   0.281   7.816 -0.0437  0.3991  2.2312
  605MOL0     H83443  10.839   0.150   7.782  0.3776  0.9240  0.6630
  605MOL0     H83444  10.646   0.176   7.629  0.7762 -0.2890  0.2264
  605MOL0     H83445  10.678   0.013   7.663  3.3432 -0.7558  2.9980
  605MOL0     H83446  10.445   0.025   7.682  0.1697 -0.6415  0.1069
  605MOL0     H83447  10.494   0.022   7.848  0.7340  0.8312 -0.4081
  605MOL0     H83448  10.262   0.039   7.892 -0.0114  0.3479  0.6483
  605MOL0     H83449   9.917   0.052   7.916 -0.7047 -0.4688  0.3947
  605MOL0     H83450  10.011   0.082   8.067 -0.1568 -3.3541  0.1881
  605MOL0     H83451  10.066  -0.032   7.951 -2.3517 -0.7420 -0.5293
  605MOL0     H83452   9.887   0.727   7.888 -0.6265  0.7488 -0.7650
  605MOL0     H83453   9.693   0.862   7.858  0.8879  0.1437  1.2220
  605MOL0     H83454   9.509   0.970   7.885 -1.8306  0.6989  1.7655
  605MOL0     H83455   9.453   0.881   7.744  1.3164  0.2050 -0.7500
  605MOL0     H83456   9.282   1.032   7.775  2.1298 -0.2149 -0.7576
  605MOL0     H83457   9.226   0.884   7.845 -0.6335  0.1898  1.5682
  605MOL0     H83458   9.297   1.134   7.995 -1.6437  0.5001 -0.6486
  605MOL0     H83459   9.347   0.983   8.074  0.1191  2.3332  0.9267
  605MOL0     H83460   9.119   0.903   8.085 -3.4435  0.1299  0.5916
  605MOL0     H83461   9.072   1.017   7.958 -1.2215 -2.5992  0.4810
  605MOL0     H83462   9.139   1.203   8.134  1.1398  0.3052 -0.4650
  605MOL0     H83463   8.994   1.131   8.174  0.8386  1.8930  2.6799
  605MOL0     H83464   9.160   1.137   8.371  0.9971 -0.5281 -0.6396
  605MOL0     H83465   9.260   1.030   8.283  0.9947  1.6438 -1.1439
  605MOL0     H83466   9.100   0.956   8.477 -0.3160  0.6633 -0.2202
  605MOL0     H83467   9.115   0.842   8.335 -3.2571 -1.7414  0.4359
  605MOL0     H83468   8.886   1.041   8.347 -1.2166  0.1702  3.0854
  605MOL0     H83469   8.883   0.871   8.432  1.9480 -3.0803 -1.4326
  605MOL0     H83470   9.448   0.534   8.022  1.5940 -0.9788  0.7004
  605MOL0     H83471   9.654   0.406   8.038  0.6455  0.2207 -0.6954
  605MOL0     H83472  10.128   0.512   7.875 -0.2256 -0.3734  0.1825
  605MOL0     H83473  10.358   0.432   7.785  2.0458 -1.7215 -0.0986
  605MOL0     H83474  10.792   0.882   8.942 -0.6319 -0.3784  2.0057
  605MOL0     H83475  10.658   0.975   9.124  0.6120 -1.5234 -0.9329
  605MOL0     H83476  10.508   1.457   9.218  0.5457  0.0909 -0.1117
  605MOL0     H83477  10.398   1.603   9.378 -0.1675  0.5467  0.4866
  605MOL0     H83478  10.064   1.612   9.661 -0.1962 -0.6916  1.4179
  605MOL0     H83479  10.062   1.444   9.621 -1.2246  0.3915  2.7587
  605MOL0     H83480  10.242   1.564   9.816 -2.2986  2.2177 -1.2293
  605MOL0     H83481  10.267   1.403   9.738  0.0081  0.3594 -1.4831
  605MOL0     H83482  10.103   1.472   9.957  2.4826 -0.7342  0.4268
  605MOL0     H83483   9.996   1.386   9.839  1.0022 -1.8902 -1.4479
  605MOL0     H83484  10.155   1.209   9.818 -1.9846  2.0388 -1.5477
  605MOL0     H83485  10.095   1.234   9.989  1.7334 -4.3573  0.1370
  605MOL0     H83486  10.517   1.282  10.024  0.9604  1.9563 -2.2032
  605MOL0     H83487  10.095   1.317   9.457  0.3205  3.1628  1.7461
  605MOL0     H83488  10.058   1.135   9.331  0.9446 -2.7685  1.9285
  605MOL0     H83489  10.114   1.135   9.157  2.6261  0.8431 -0.2866
  605MOL0     H83490  10.205   1.055   9.266  1.1748  0.8316 -1.2249
  606MOL0     O83491   1.657   8.734   4.137  0.7438 -0.4847  0.8913
  606MOL0     C83492   1.654   8.697   4.252  0.2088 -0.5291  0.4238
  606MOL0     O83493   1.764   8.675   4.329 -0.6184  0.1708  0.2415
  606MOL0     C83494   1.885   8.647   4.280 -0.1763 -0.0063 -0.6808
  606MOL0     C83495   1.994   8.669   4.362 -0.9903 -0.2648 -0.4748
  606MOL0     C83496   2.125   8.644   4.324  0.1573 -0.1976 -0.6614
  606MOL0     C83497   2.149   8.599   4.194  0.0414  0.4376  0.3491
  606MOL0     O83498   2.269   8.557   4.151  0.7769 -0.2132 -0.2678
  606MOL0     C83499   2.390   8.622   4.196 -0.3861 -0.1963  0.7134
  606MOL0     C83500   2.452   8.690   4.071  0.7738 -0.5577  0.2639
  606MOL0     C83501   2.603   8.692   4.094  0.6527  0.0621 -0.9226
  606MOL0     C83502   2.659   8.783   3.988  0.9799 -0.2018 -0.3102
  606MOL0     C83503   2.809   8.762   3.964  0.1084  0.0677  0.3936
  606MOL0     C83504   2.860   8.820   3.828 -0.1904 -0.2833 -0.2171
  606MOL0     C83505   2.977   8.729   3.766 -0.4182  0.1012  0.3942
  606MOL0     C83506   3.018   8.744   3.617  0.2704 -0.3922 -1.0984
  606MOL0     N83507   3.083   8.876   3.602 -0.5926 -0.7541  0.4630
  606MOL0     C83508   3.022   9.000   3.600 -1.0026 -0.3987 -0.2637
  606MOL0     C83509   3.122   9.096   3.582  0.1162 -1.0506  0.6746
  606MOL0     C83510   3.093   9.241   3.575 -0.3574 -0.0592  0.2202
  606MOL0     C83511   3.038   9.272   3.432 -1.0223 -0.2865  0.0349
  606MOL0     C83512   2.905   9.203   3.383 -0.2212 -0.3137  0.5177
  606MOL0     C83513   2.885   9.240   3.235 -0.6590 -0.5927  0.5835
  606MOL0     O83514   2.863   9.382   3.219  0.4762  0.0551  0.1995
  606MOL0     C83515   2.739   9.423   3.259  0.2339  0.6608  0.8644
  606MOL0     C83516   2.723   9.497   3.374 -0.9383 -0.5683 -0.6123
  606MOL0     C83517   2.601   9.543   3.408  0.0553  0.4547  0.1973
  606MOL0     C83518   2.573   9.592   3.543  0.7611 -0.3669 -0.6859
  606MOL0     C83519   2.492   9.528   3.315  0.0122 -0.0927  0.2626
  606MOL0     C83520   2.343   9.572   3.336  0.4378 -0.0054 -0.2783
  606MOL0     O83521   2.259   9.572   3.232 -0.3245 -0.0982 -0.5265
  606MOL0     C83522   2.120   9.602   3.244 -0.9848 -0.0236 -0.8656
  606MOL0     C83523   2.021   9.510   3.205  0.1106  0.1360  0.4835
  606MOL0     C83524   1.884   9.547   3.201 -0.1652  0.1208 -0.5122
  606MOL0     C83525   1.846   9.673   3.259  0.1228  0.7017  0.7198
  606MOL0     O83526   1.705   9.687   3.259  0.2328  0.5895 -0.1809
  606MOL0     C83527   1.646   9.806   3.327 -0.7951  0.0006 -0.0555
  606MOL0     C83528   1.660   9.934   3.236 -0.2848  0.1768  0.0881
  606MOL0     C83529   1.533  10.020   3.261 -0.7678 -0.6659  1.1794
  606MOL0     C83530   1.534  10.171   3.234  0.8270 -0.4937  0.6891
  606MOL0     C83531   1.383  10.226   3.200 -0.4802 -0.1663 -0.1585
  606MOL0     C83532   1.384  10.365   3.134 -0.1101 -0.7172  0.4464
  606MOL0     C83533   1.246  10.436   3.120  0.2290 -0.2227 -0.3114
  606MOL0     C83534   1.263  10.561   3.035  0.0111  0.2397  0.3150
  606MOL0    Cl83535   1.101  10.632   3.015  0.2493 -0.1120 -0.4683
  606MOL0     C83536   1.950   9.762   3.306  0.2841  0.2155  0.2078
  606MOL0     C83537   2.086   9.727   3.288 -0.3214  0.1025 -0.7417
  606MOL0     O83538   2.309   9.615   3.448 -0.2673  0.7556 -0.1898
  606MOL0     C83539   2.508   9.455   3.199 -0.1133  0.0087  0.3942
  606MOL0     C83540   2.635   9.404   3.173  0.4610  0.3505 -0.1679
  606MOL0     N83541   3.234   9.028   3.570 -0.0276  0.6686 -0.7302
  606MOL0     N83542   3.217   8.896   3.583 -0.2373 -0.5857 -0.2038
  606MOL0     C83543   2.036   8.571   4.104 -0.2052 -0.3092  0.7065
  606MOL0     C83544   1.907   8.600   4.145  0.0393 -0.1992  0.4260
  606MOL0     C83545   1.525   8.686   4.323 -0.2922 -0.6230  0.1899
  606MOL0     C83546   1.519   8.637   4.456  0.0443  0.6550 -0.1297
  606MOL0     C83547   1.402   8.594   4.521 -0.1567 -0.2013  0.5707
  606MOL0     C83548   1.285   8.623   4.459 -0.0521 -0.1535  0.2667
  606MOL0     O83549   1.159   8.591   4.501  0.0391 -0.1931 -0.5953
  606MOL0     C83550   1.125   8.540   4.631  0.6034  0.3685  0.4378
  606MOL0     C83551   0.978   8.558   4.663  0.6733 -0.1653 -0.6102
  606MOL0     C83552   0.930   8.702   4.637  0.4724  0.4603  0.0619
  606MOL0     C83553   0.778   8.709   4.650  1.2981  0.5714 -0.3066
  606MOL0     C83554   0.737   8.687   4.793 -0.2801  0.7623  0.7353
  606MOL0     C83555   0.716   8.687   4.918 -0.0374 -0.6545 -0.2350
  606MOL0     C83556   1.282   8.683   4.330  0.2392  0.0206  0.4122
  606MOL0     C83557   1.399   8.703   4.259  0.5822 -0.9568 -0.1670
  606MOL0     C83558   1.378   8.721   4.117 -0.1196  0.0172  0.6955
  606MOL0     H83559   1.976   8.722   4.455 -0.2983  1.2892 -1.1996
  606MOL0     H83560   2.200   8.667   4.399 -1.4289 -0.6348  1.1248
  606MOL0     H83561   2.455   8.551   4.247  0.9193  1.1685  1.0194
  606MOL0     H83562   2.380   8.706   4.265 -1.2232  0.7090 -0.4690
  606MOL0     H83563   2.449   8.626   3.982 -0.7854 -0.4650  0.2223
  606MOL0     H83564   2.399   8.785   4.062 -1.7014 -1.4569  3.5450
  606MOL0     H83565   2.626   8.731   4.193  0.4350 -0.2380 -0.7522
  606MOL0     H83566   2.642   8.590   4.084 -0.2445 -0.3138 -0.7275
  606MOL0     H83567   2.606   8.764   3.895  3.6851 -2.0001 -1.6110
  606MOL0     H83568   2.637   8.887   4.013  0.0990 -0.5081  0.2438
  606MOL0     H83569   2.821   8.653   3.965 -2.5035 -0.3415 -1.3741
  606MOL0     H83570   2.873   8.815   4.034  1.8404  1.4556 -2.0725
  606MOL0     H83571   2.780   8.837   3.755 -0.0156  0.7872 -0.1766
  606MOL0     H83572   2.888   8.922   3.857 -1.5989  0.8110 -2.4518
  606MOL0     H83573   2.968   8.623   3.789 -0.0257  0.0800  0.4479
  606MOL0     H83574   3.068   8.765   3.815  0.5296 -1.5218 -0.1094
  606MOL0     H83575   3.090   8.668   3.584 -0.6023 -0.5157 -2.8753
  606MOL0     H83576   2.934   8.741   3.546  0.9326  1.1083 -1.9860
  606MOL0     H83577   2.916   9.013   3.624 -1.6171  2.5384 -3.7889
  606MOL0     H83578   3.186   9.291   3.603  0.4306 -0.8683 -0.8253
  606MOL0     H83579   3.017   9.275   3.646 -0.7485  1.7202 -0.9745
  606MOL0     H83580   3.020   9.380   3.431 -0.0354 -0.0869  1.3644
  606MOL0     H83581   3.124   9.251   3.368  0.1129  0.3370  1.3223
  606MOL0     H83582   2.913   9.094   3.393  1.5290  0.0049  4.3146
  606MOL0     H83583   2.814   9.240   3.432 -0.2427  3.9266 -2.2740
  606MOL0     H83584   2.973   9.211   3.177 -0.6718  3.2288 -1.7364
  606MOL0     H83585   2.795   9.190   3.200 -1.5721  1.4529 -0.1630
  606MOL0     H83586   2.809   9.488   3.439  0.3287  1.4825 -1.9192
  606MOL0     H83587   2.483   9.554   3.592  0.9139 -0.7659 -0.7123
  606MOL0     H83588   2.585   9.700   3.556 -2.3238 -0.1418  1.3373
  606MOL0     H83589   2.651   9.549   3.606  0.4741  0.7687  0.4871
  606MOL0     H83590   2.050   9.412   3.168  2.0461  1.4751 -1.8315
  606MOL0     H83591   1.809   9.472   3.175 -3.9495  3.2980  0.2238
  606MOL0     H83592   1.539   9.789   3.335 -0.4415 -2.7361 -0.1536
  606MOL0     H83593   1.694   9.826   3.423 -0.9993 -1.5413  0.3908
  606MOL0     H83594   1.759   9.973   3.262  0.4850 -1.4043 -0.3366
  606MOL0     H83595   1.659   9.893   3.135  0.6029 -0.2821  0.2477
  606MOL0     H83596   1.507  10.013   3.367  2.9361 -0.3462  2.2491
  606MOL0     H83597   1.458   9.963   3.205 -0.3147 -0.7830  0.6737
  606MOL0     H83598   1.593  10.189   3.143  0.5930  0.0506  0.6412
  606MOL0     H83599   1.582  10.223   3.317  2.7531 -2.8150  1.1274
  606MOL0     H83600   1.328  10.154   3.138 -0.8677 -1.8039  1.9919
  606MOL0     H83601   1.318  10.215   3.287  0.4751  0.9114  0.7170
  606MOL0     H83602   1.413  10.356   3.029  0.9804  0.1237  0.6591
  606MOL0     H83603   1.457  10.431   3.181  0.9533 -1.9001  0.5215
  606MOL0     H83604   1.216  10.472   3.219  0.1318  1.3648 -0.8919
  606MOL0     H83605   1.174  10.368   3.073 -2.1689  0.4877  2.0988
  606MOL0     H83606   1.302  10.543   2.935 -1.1453  0.2262 -0.1570
  606MOL0     H83607   1.333  10.631   3.082  1.3001 -0.6753 -0.1871
  606MOL0     H83608   1.926   9.861   3.344 -0.8437 -1.2213  3.6190
  606MOL0     H83609   2.166   9.795   3.317  0.8125 -1.1742 -0.7522
  606MOL0     H83610   2.428   9.438   3.128 -0.4682 -2.3764  1.2632
  606MOL0     H83611   2.655   9.346   3.083 -1.8972 -1.4126  0.3601
  606MOL0     H83612   2.055   8.548   4.000 -2.4998 -3.1884  0.7969
  606MOL0     H83613   1.832   8.587   4.068 -0.9823 -0.3261  1.4218
  606MOL0     H83614   1.603   8.599   4.514 -2.0173 -2.4548  1.1227
  606MOL0     H83615   1.417   8.545   4.617  1.3252  0.0464  0.4785
  606MOL0     H83616   1.160   8.437   4.635  0.2336  0.2030 -0.3483
  606MOL0     H83617   1.188   8.588   4.707 -0.3389  0.0821  1.4184
  606MOL0     H83618   0.962   8.526   4.767 -2.0438 -0.6537 -1.0973
  606MOL0     H83619   0.918   8.491   4.600  0.2951  1.2038 -1.7452
  606MOL0     H83620   0.978   8.763   4.714 -1.1872 -0.5740  2.0053
  606MOL0     H83621   0.961   8.735   4.537 -0.5685 -0.6800 -0.6797
  606MOL0     H83622   0.725   8.639   4.584 -0.0717  0.9001  0.4135
  606MOL0     H83623   0.750   8.806   4.609 -1.5362  0.7538  1.7708
  606MOL0     H83624   0.682   8.688   5.020  2.0570  1.5492  0.5458
  606MOL0     H83625   1.190   8.707   4.280 -0.3409 -2.3273  0.2298
  606MOL0     H83626   1.391   8.624   4.068 -1.1864  1.1131 -1.9119
  606MOL0     H83627   1.279   8.759   4.091  0.0189  0.8863  1.3817
  606MOL0     H83628   1.454   8.793   4.085 -0.5922  0.1369 -0.1723
  607MOL0     O83629   2.273   0.611   0.995 -0.1608 -0.2898 -0.3190
  607MOL0     C83630   2.375   0.675   0.949 -0.1884  0.7802 -0.9017
  607MOL0     O83631   2.403   0.806   0.981 -0.6179 -0.4901  0.1596
  607MOL0     C83632   2.290   0.878   1.023 -0.4391 -0.0509  0.1096
  607MOL0     C83633   2.264   0.897   1.163  0.4341 -0.0823 -0.6403
  607MOL0     C83634   2.153   0.971   1.200 -0.0732  0.3699 -0.1545
  607MOL0     C83635   2.066   1.026   1.109  0.6603  1.3005  0.5950
  607MOL0     O83636   1.953   1.086   1.152  0.3685 -0.3515  0.3666
  607MOL0     C83637   1.824   1.072   1.081 -0.6171 -0.8014 -0.0042
  607MOL0     C83638   1.764   0.938   1.116  0.2144  0.5839 -0.2636
  607MOL0     C83639   1.703   0.950   1.257  1.5159  0.1297  0.2940
  607MOL0     C83640   1.684   0.807   1.321 -0.1866 -0.5130 -0.0037
  607MOL0     C83641   1.614   0.702   1.238  0.5643 -0.2017  0.6189
  607MOL0     C83642   1.477   0.739   1.171  1.1304  0.1793 -0.0256
  607MOL0     C83643   1.368   0.758   1.278  0.4831 -0.5370 -0.4929
  607MOL0     C83644   1.216   0.758   1.237  0.3291  0.3763 -1.0471
  607MOL0     N83645   1.130   0.795   1.349  0.2415 -0.7399 -0.5123
  607MOL0     C83646   1.087   0.923   1.370 -0.3486  0.0528  0.5185
  607MOL0     C83647   1.047   0.930   1.499 -0.4700 -0.5851 -0.3407
  607MOL0     C83648   1.013   1.055   1.577 -0.2037 -0.3805  1.3005
  607MOL0     C83649   1.125   1.161   1.579  0.2639  0.0281 -0.0437
  607MOL0     C83650   1.249   1.130   1.658  0.4478 -0.9222 -0.1841
  607MOL0     C83651   1.334   1.257   1.699  0.1543  0.6954 -0.1019
  607MOL0     O83652   1.420   1.225   1.804 -0.5399  0.3534 -0.7123
  607MOL0     C83653   1.537   1.145   1.789 -0.7401 -0.2401 -0.3334
  607MOL0     C83654   1.586   1.091   1.897  0.0963  0.3229  0.0412
  607MOL0     C83655   1.712   1.037   1.897 -0.5565  0.3087  0.5207
  607MOL0     C83656   1.765   0.986   2.030  0.3149 -0.4841 -0.5803
  607MOL0     C83657   1.792   1.030   1.775  0.4984  1.2290 -0.0603
  607MOL0     C83658   1.919   0.974   1.762 -0.3262 -0.6230  0.4551
  607MOL0     O83659   1.984   0.998   1.640 -0.1340 -0.0275  0.4930
  607MOL0     C83660   2.116   0.971   1.622 -0.0295  0.4094 -0.9791
  607MOL0     C83661   2.201   1.082   1.605 -0.4636  0.3529 -0.1415
  607MOL0     C83662   2.339   1.057   1.575  0.6072 -0.3760 -0.2319
  607MOL0     C83663   2.388   0.932   1.575 -0.9555  0.0645 -0.2803
  607MOL0     O83664   2.517   0.899   1.533 -0.4819 -0.7662  0.3908
  607MOL0     C83665   2.609   1.004   1.507  0.6608 -0.1959  0.8221
  607MOL0     C83666   2.746   0.950   1.460 -0.0690  0.5325  0.6345
  607MOL0     C83667   2.732   0.891   1.313  0.4868 -0.2619  0.2588
  607MOL0     C83668   2.867   0.819   1.267 -0.4102 -0.4365  0.2352
  607MOL0     C83669   2.851   0.781   1.116  0.0066  0.1026 -0.9655
  607MOL0     C83670   2.987   0.798   1.050 -0.2566 -0.3127  0.1383
  607MOL0     C83671   2.994   0.752   0.899  0.2694  0.3576  0.0001
  607MOL0     C83672   2.959   0.855   0.793 -0.4537 -0.3790 -0.4799
  607MOL0    Cl83673   2.897   0.779   0.638 -0.6291 -0.1028  0.2576
  607MOL0     C83674   2.305   0.822   1.587 -0.1149 -0.6773  0.4784
  607MOL0     C83675   2.171   0.838   1.618  0.0688  0.3815  0.7551
  607MOL0     O83676   1.961   0.891   1.841  0.4373  0.3364 -0.0490
  607MOL0     C83677   1.733   1.094   1.663 -0.4407 -0.2282 -0.1511
  607MOL0     C83678   1.604   1.142   1.674  0.0435  0.5705  0.0549
  607MOL0     N83679   1.075   0.801   1.555  0.6060 -0.5952  0.1773
  607MOL0     N83680   1.132   0.721   1.467  0.3339  0.2410 -0.2924
  607MOL0     C83681   2.096   1.012   0.971 -0.4504 -0.1327 -0.1658
  607MOL0     C83682   2.212   0.939   0.934  0.1003  0.1255  0.4610
  607MOL0     C83683   2.475   0.599   0.875 -0.4721 -0.7809  0.0820
  607MOL0     C83684   2.520   0.486   0.934 -0.1467  0.5897  0.3093
  607MOL0     C83685   2.613   0.408   0.867  0.8045  0.5761 -0.1310
  607MOL0     C83686   2.678   0.443   0.745 -0.2639 -0.8163 -0.6321
  607MOL0     O83687   2.788   0.387   0.686 -0.4326  0.1643  0.7157
  607MOL0     C83688   2.832   0.257   0.730  0.6424 -0.2775 -0.2468
  607MOL0     C83689   2.922   0.262   0.853  0.5555 -0.7609 -0.4412
  607MOL0     C83690   3.030   0.375   0.849 -0.7827  0.2589 -0.8062
  607MOL0     C83691   3.131   0.359   0.736  0.7716 -0.2489 -1.0520
  607MOL0     C83692   3.252   0.439   0.729 -0.8724  0.2034 -0.3616
  607MOL0     C83693   3.356   0.489   0.710 -0.3127  0.7301 -0.0512
  607MOL0     C83694   2.641   0.567   0.697  0.1738  0.6632  0.2217
  607MOL0     C83695   2.539   0.652   0.756  0.4394 -0.7376  0.3390
  607MOL0     C83696   2.490   0.778   0.682 -0.6436  0.3296  0.1088
  607MOL0     H83697   2.326   0.849   1.237  0.2018 -1.2401 -1.1650
  607MOL0     H83698   2.125   0.995   1.302 -1.2407  0.5308 -0.5020
  607MOL0     H83699   1.832   1.072   0.972  2.2126 -0.6848  0.1322
  607MOL0     H83700   1.752   1.152   1.102  2.4455  1.7762  1.5167
  607MOL0     H83701   1.691   0.914   1.038  0.9519 -0.3221 -0.6847
  607MOL0     H83702   1.842   0.863   1.123 -0.3800  0.0129  0.4107
  607MOL0     H83703   1.782   1.003   1.311 -0.2980  0.6447  2.6174
  607MOL0     H83704   1.607   1.003   1.259  0.1901 -2.0300 -1.2069
  607MOL0     H83705   1.784   0.768   1.344 -0.8795 -1.8603  0.8999
  607MOL0     H83706   1.628   0.813   1.414 -0.8243  0.9949 -0.4659
  607MOL0     H83707   1.584   0.612   1.293 -3.7953 -0.1382 -1.2426
  607MOL0     H83708   1.683   0.661   1.164 -2.7396 -5.4510 -0.0674
  607MOL0     H83709   1.484   0.827   1.107  1.0345  0.4702  0.3637
  607MOL0     H83710   1.459   0.654   1.103  2.7826 -0.1307 -0.1052
  607MOL0     H83711   1.393   0.850   1.332  0.8426  0.0659 -1.6651
  607MOL0     H83712   1.377   0.671   1.344 -2.1260  0.2940  1.1409
  607MOL0     H83713   1.205   0.827   1.153  0.3699  1.2797 -0.3318
  607MOL0     H83714   1.187   0.660   1.200 -0.5474 -0.3024  1.2415
  607MOL0     H83715   1.083   1.003   1.297 -2.3326  0.0152  0.5243
  607MOL0     H83716   0.998   1.022   1.680 -3.9876 -0.5936  0.8126
  607MOL0     H83717   0.927   1.112   1.543  0.2694 -0.3279  0.1452
  607MOL0     H83718   1.164   1.173   1.478  0.6503 -0.0344  0.0929
  607MOL0     H83719   1.076   1.251   1.617 -1.7372  0.2061 -2.7431
  607MOL0     H83720   1.213   1.093   1.755 -0.5322  0.9565  0.2166
  607MOL0     H83721   1.304   1.044   1.621  1.3728 -1.0372  1.3411
  607MOL0     H83722   1.387   1.298   1.613  2.4834 -1.0296  0.4088
  607MOL0     H83723   1.267   1.331   1.744  0.2115  0.6082  0.1268
  607MOL0     H83724   1.528   1.093   1.989  0.6624 -0.7752  0.4360
  607MOL0     H83725   1.868   1.021   2.048 -0.9561  3.1325  0.4876
  607MOL0     H83726   1.769   0.877   2.039  0.0823 -0.4922 -0.5871
  607MOL0     H83727   1.690   1.019   2.102 -0.3453 -0.2592 -1.3555
  607MOL0     H83728   2.153   1.179   1.609 -1.7349 -0.1666 -1.7593
  607MOL0     H83729   2.416   1.133   1.578  0.8053 -0.6014  1.7817
  607MOL0     H83730   2.572   1.068   1.427 -0.0889 -1.3477  0.2223
  607MOL0     H83731   2.634   1.067   1.593 -0.2390  1.5412 -0.1307
  607MOL0     H83732   2.832   1.017   1.462  0.6620 -0.3452 -0.3432
  607MOL0     H83733   2.760   0.862   1.524 -3.0376  0.7790  1.7744
  607MOL0     H83734   2.695   0.965   1.242  2.1043  1.9462  1.5857
  607MOL0     H83735   2.657   0.811   1.311  0.4492 -0.2352  0.5923
  607MOL0     H83736   2.880   0.725   1.322  1.8340  0.3934  1.2780
  607MOL0     H83737   2.961   0.874   1.280 -1.4193  0.8456  2.8102
  607MOL0     H83738   2.808   0.682   1.099 -0.4605  0.1708 -0.2430
  607MOL0     H83739   2.781   0.853   1.073  1.2192  1.2588 -1.0813
  607MOL0     H83740   3.055   0.729   1.100 -2.0609 -1.0583  1.7102
  607MOL0     H83741   3.035   0.896   1.062 -0.7116 -0.1659  0.8155
  607MOL0     H83742   2.922   0.673   0.877 -2.1895  2.8687 -1.5095
  607MOL0     H83743   3.087   0.705   0.865  1.4955  1.1595  2.0184
  607MOL0     H83744   3.052   0.911   0.777 -0.0272 -1.5013 -2.2169
  607MOL0     H83745   2.872   0.913   0.825 -1.3777 -1.6720 -0.5756
  607MOL0     H83746   2.340   0.719   1.594 -2.4486 -1.4455  2.4353
  607MOL0     H83747   2.104   0.753   1.625 -1.8589  1.9098  2.3834
  607MOL0     H83748   1.784   1.088   1.567 -0.4332 -2.3268 -0.0639
  607MOL0     H83749   1.574   1.189   1.581  1.4605  2.0368  0.2873
  607MOL0     H83750   2.042   1.067   0.894  1.2005  0.9532 -0.6020
  607MOL0     H83751   2.236   0.923   0.829  2.4042  1.1519  0.7758
  607MOL0     H83752   2.470   0.449   1.023 -1.0787  0.8091 -0.1121
  607MOL0     H83753   2.649   0.314   0.907  3.5314  2.0156  1.0592
  607MOL0     H83754   2.747   0.193   0.757  0.6382  0.7965  2.7303
  607MOL0     H83755   2.891   0.217   0.647 -0.1347 -1.4099 -0.2810
  607MOL0     H83756   2.978   0.168   0.845  1.3151 -0.2680 -1.1047
  607MOL0     H83757   2.875   0.256   0.951 -1.6664 -1.5354 -1.4893
  607MOL0     H83758   2.983   0.473   0.842 -2.6685 -0.6316 -1.2371
  607MOL0     H83759   3.085   0.364   0.943 -2.5861  0.0991  0.2665
  607MOL0     H83760   3.063   0.397   0.659 -0.2458  2.3022  0.9301
  607MOL0     H83761   3.142   0.251   0.723 -0.4706 -0.8787  2.0888
  607MOL0     H83762   3.448   0.538   0.682 -0.2295  0.1752 -0.7624
  607MOL0     H83763   2.675   0.610   0.604 -1.2626  1.1407 -0.1125
  607MOL0     H83764   2.548   0.866   0.710 -0.2372 -0.2477  1.1689
  607MOL0     H83765   2.513   0.767   0.576  2.3180  2.9278  0.3463
  607MOL0     H83766   2.382   0.792   0.684 -0.8759 -1.2381 -0.1695
  608MOL0     O83767   3.230   3.991   7.828  0.0701  0.3256  0.3687
  608MOL0     C83768   3.263   4.021   7.713 -0.7337 -1.1291  0.1553
  608MOL0     O83769   3.375   4.090   7.675 -0.2117  0.5391 -0.2765
  608MOL0     C83770   3.460   4.134   7.777  0.2516  0.5138 -0.1603
  608MOL0     C83771   3.524   4.031   7.860 -0.7048 -0.9564  0.2679
  608MOL0     C83772   3.614   4.077   7.953 -0.3978 -0.2412 -0.6696
  608MOL0     C83773   3.647   4.211   7.976  0.9733  0.5528  0.1149
  608MOL0     O83774   3.737   4.226   8.078 -0.2264  0.0221 -0.5321
  608MOL0     C83775   3.754   4.356   8.132 -0.4878 -0.4523  0.4706
  608MOL0     C83776   3.863   4.369   8.236  0.2590  0.9535 -0.9150
  608MOL0     C83777   3.905   4.506   8.279  0.5938 -0.6031 -0.2506
  608MOL0     C83778   3.985   4.501   8.399 -0.5434  0.5194 -0.0759
  608MOL0     C83779   4.038   4.640   8.435 -0.2622 -0.6311  0.2763
  608MOL0     C83780   4.099   4.662   8.570  0.3658 -0.0531 -0.7288
  608MOL0     C83781   4.197   4.558   8.609 -0.1298  0.0697  0.2110
  608MOL0     C83782   4.273   4.604   8.737 -0.1329  0.1578 -0.4744
  608MOL0     N83783   4.385   4.700   8.712 -0.7777  1.1231 -0.5911
  608MOL0     C83784   4.502   4.677   8.641 -0.3717  0.4727  0.9472
  608MOL0     C83785   4.568   4.800   8.636 -0.6715 -0.1716  0.1842
  608MOL0     C83786   4.694   4.830   8.567 -0.2280 -0.4749 -0.1266
  608MOL0     C83787   4.812   4.851   8.663  0.0280  0.0559 -1.4736
  608MOL0     C83788   4.950   4.871   8.598 -0.3077 -1.0409  0.7360
  608MOL0     C83789   5.064   4.869   8.698  0.0977 -0.3392  0.2284
  608MOL0     O83790   5.186   4.903   8.619  0.9661  0.3002 -0.0317
  608MOL0     C83791   5.269   4.797   8.578  0.7487  0.2648 -0.7138
  608MOL0     C83792   5.360   4.823   8.479  0.2636  0.0277  0.2246
  608MOL0     C83793   5.457   4.717   8.437 -0.1049  0.0956  0.5565
  608MOL0     C83794   5.551   4.751   8.323 -0.1838 -1.1973 -0.0506
  608MOL0     C83795   5.455   4.585   8.495  1.0506 -1.1850 -0.4899
  608MOL0     C83796   5.532   4.457   8.464 -0.4306 -0.9842 -0.0769
  608MOL0     O83797   5.634   4.474   8.385  0.4400  0.2788  0.8608
  608MOL0     C83798   5.724   4.371   8.355  0.2519 -0.6743  0.1433
  608MOL0     C83799   5.857   4.398   8.349  0.6084 -0.1659 -0.1729
  608MOL0     C83800   5.943   4.294   8.323  1.2095 -0.2965  0.2636
  608MOL0     C83801   5.908   4.161   8.299  0.5112 -0.1694 -0.3377
  608MOL0     O83802   6.016   4.077   8.282 -0.3392  0.1319  0.0312
  608MOL0     C83803   6.019   3.937   8.252  0.3630 -0.0877 -0.6872
  608MOL0     C83804   5.979   3.841   8.359  0.3503 -0.3560 -0.1839
  608MOL0     C83805   5.965   3.692   8.302  0.1905 -1.3459  0.0200
  608MOL0     C83806   5.932   3.595   8.416  0.0475 -0.0100 -0.1401
  608MOL0     C83807   6.019   3.471   8.401 -0.4196  0.8007 -0.2275
  608MOL0     C83808   6.009   3.401   8.265 -0.4070  0.6520 -0.9184
  608MOL0     C83809   5.949   3.254   8.276 -0.0361  0.2953 -0.3132
  608MOL0     C83810   5.807   3.233   8.327 -0.0799 -1.0085  0.2460
  608MOL0    Cl83811   5.708   3.316   8.206 -0.5755  0.3532 -0.0438
  608MOL0     C83812   5.768   4.130   8.297 -0.2254  0.8046  0.3209
  608MOL0     C83813   5.677   4.237   8.327 -0.9399  0.2614  0.2835
  608MOL0     O83814   5.513   4.358   8.536 -0.4452 -0.6597 -0.1933
  608MOL0     C83815   5.373   4.576   8.607 -1.3696  0.4833 -0.0631
  608MOL0     C83816   5.284   4.679   8.645  0.2031  0.0783  0.1480
  608MOL0     N83817   4.483   4.892   8.690 -0.8186 -0.3735  0.6703
  608MOL0     N83818   4.373   4.832   8.713 -0.5576 -0.9278 -0.0793
  608MOL0     C83819   3.578   4.309   7.898 -0.0259  1.0258  0.0256
  608MOL0     C83820   3.489   4.265   7.797  0.4337 -0.1982 -1.4012
  608MOL0     C83821   3.182   3.968   7.605  0.3847 -0.5433  0.0729
  608MOL0     C83822   3.248   3.911   7.491  0.5396 -0.4476  0.6271
  608MOL0     C83823   3.174   3.845   7.391  0.5438 -0.1155 -0.0119
  608MOL0     C83824   3.030   3.842   7.394  0.1277  0.4410  0.2403
  608MOL0     O83825   2.971   3.776   7.281  0.3271 -0.0160 -0.7006
  608MOL0     C83826   2.838   3.746   7.288  0.3077 -0.1464 -0.0654
  608MOL0     C83827   2.723   3.851   7.292  0.6608  0.5653  0.5797
  608MOL0     C83828   2.761   3.980   7.237 -0.5110 -0.7839  0.6470
  608MOL0     C83829   2.649   4.040   7.145  0.0719  0.2044  0.1796
  608MOL0     C83830   2.668   4.189   7.114 -0.2138 -0.2835  0.2776
  608MOL0     C83831   2.677   4.317   7.114 -1.0696 -0.1797 -0.1404
  608MOL0     C83832   2.963   3.904   7.500 -0.6318 -0.1709 -0.8642
  608MOL0     C83833   3.037   3.964   7.609  1.0157  0.3084 -0.7166
  608MOL0     C83834   2.959   4.023   7.730 -0.6910  1.0369 -0.2770
  608MOL0     H83835   3.499   3.926   7.858  0.9873 -1.4428  1.9137
  608MOL0     H83836   3.669   4.001   8.008  1.8481  1.0905 -0.9487
  608MOL0     H83837   3.657   4.377   8.178 -0.7576 -0.2404 -0.1850
  608MOL0     H83838   3.771   4.430   8.053 -1.8479 -0.4158  0.1721
  608MOL0     H83839   3.850   4.312   8.329  1.2859  3.1755  0.6649
  608MOL0     H83840   3.956   4.327   8.197  0.8815  1.3654  0.0952
  608MOL0     H83841   3.945   4.562   8.195 -1.9098 -0.9256 -1.7709
  608MOL0     H83842   3.822   4.564   8.322  0.9511 -0.0938 -0.2451
  608MOL0     H83843   3.931   4.464   8.487 -1.5732  1.1248 -0.4280
  608MOL0     H83844   4.068   4.435   8.374 -0.4825  0.4001  0.4430
  608MOL0     H83845   3.960   4.715   8.426  1.9758  1.6193 -2.2489
  608MOL0     H83846   4.114   4.671   8.362 -0.5558  1.8384  0.9373
  608MOL0     H83847   4.150   4.759   8.572  2.4349 -1.0666 -1.3821
  608MOL0     H83848   4.018   4.669   8.644  0.9583 -0.6351 -0.0058
  608MOL0     H83849   4.257   4.543   8.519  1.9920  1.1390  1.3635
  608MOL0     H83850   4.140   4.467   8.629 -1.7995  1.2929  1.2913
  608MOL0     H83851   4.202   4.642   8.812 -0.5026 -1.1356 -0.1527
  608MOL0     H83852   4.307   4.511   8.782 -2.9025 -0.5900  0.2986
  608MOL0     H83853   4.539   4.578   8.616 -2.7317 -0.0551 -0.7837
  608MOL0     H83854   4.668   4.919   8.509 -0.2226  0.7274  1.6602
  608MOL0     H83855   4.722   4.758   8.489  2.3199  1.8622 -1.5676
  608MOL0     H83856   4.791   4.931   8.734 -0.6181 -1.0310 -0.4140
  608MOL0     H83857   4.822   4.761   8.724  0.4840  1.9998  1.5527
  608MOL0     H83858   4.966   4.787   8.530  0.4933  0.1358 -0.5831
  608MOL0     H83859   4.950   4.960   8.534  1.8005 -2.7285 -1.8475
  608MOL0     H83860   5.043   4.948   8.772  1.7542  0.4000 -0.0511
  608MOL0     H83861   5.068   4.770   8.745 -0.6590 -1.7230 -2.4308
  608MOL0     H83862   5.363   4.918   8.427 -2.3813 -0.9931 -2.0676
  608MOL0     H83863   5.536   4.854   8.287  1.8621 -0.5494  0.8524
  608MOL0     H83864   5.539   4.680   8.241 -0.2095 -0.2725 -0.8751
  608MOL0     H83865   5.647   4.746   8.375 -0.4129 -4.9968  0.2601
  608MOL0     H83866   5.902   4.497   8.360  0.5008 -0.1841  0.4534
  608MOL0     H83867   6.052   4.304   8.323  1.3631 -1.7432 -0.8321
  608MOL0     H83868   5.954   3.923   8.164  1.9162 -1.6345 -1.6462
  608MOL0     H83869   6.119   3.904   8.221  0.7627  1.2597 -0.8944
  608MOL0     H83870   6.059   3.830   8.433 -0.6135  1.4561  1.1938
  608MOL0     H83871   5.890   3.871   8.413  2.3553  0.1844  3.0964
  608MOL0     H83872   6.064   3.670   8.260 -0.5762 -0.0166 -2.6388
  608MOL0     H83873   5.889   3.696   8.224  1.7706  1.5199 -1.5343
  608MOL0     H83874   5.827   3.565   8.406  0.2003 -1.2983  1.5516
  608MOL0     H83875   5.961   3.630   8.515  0.3919  0.4891 -0.4153
  608MOL0     H83876   6.123   3.500   8.416  0.7278 -1.2543 -3.1175
  608MOL0     H83877   5.995   3.397   8.478  1.4448  1.1633  0.7755
  608MOL0     H83878   6.112   3.380   8.236 -0.7235 -0.5138 -1.2588
  608MOL0     H83879   5.956   3.463   8.193 -2.8656 -0.7386 -0.4112
  608MOL0     H83880   5.999   3.196   8.354 -3.3910  0.2863  2.0313
  608MOL0     H83881   5.951   3.208   8.176 -0.3863  0.9693 -0.6416
  608MOL0     H83882   5.778   3.287   8.418 -0.7310  1.5254 -1.3453
  608MOL0     H83883   5.778   3.128   8.336  0.2750 -0.9197  3.7876
  608MOL0     H83884   5.722   4.034   8.279 -0.6466  1.4925 -2.7949
  608MOL0     H83885   5.570   4.223   8.322 -0.6618 -1.9024 -0.9975
  608MOL0     H83886   5.378   4.486   8.669  1.9011 -1.7487 -3.1916
  608MOL0     H83887   5.219   4.644   8.724  0.3228  0.9855  0.6564
  608MOL0     H83888   3.599   4.414   7.918  2.4516  0.1149  3.0641
  608MOL0     H83889   3.443   4.337   7.730  1.6575  0.9793 -1.0190
  608MOL0     H83890   3.354   3.929   7.478  0.6893 -1.2565  0.6911
  608MOL0     H83891   3.218   3.794   7.306 -0.4065  1.7985 -1.7421
  608MOL0     H83892   2.822   3.669   7.212 -0.8404  1.3010 -1.3544
  608MOL0     H83893   2.824   3.687   7.379  2.7162  3.1937  2.7339
  608MOL0     H83894   2.678   3.850   7.392 -1.3220 -2.5553 -0.1984
  608MOL0     H83895   2.639   3.817   7.230  0.8678  2.6865 -1.0052
  608MOL0     H83896   2.776   4.050   7.320  2.9411  2.7174 -2.5188
  608MOL0     H83897   2.857   3.990   7.184  0.2597  0.2780  2.1654
  608MOL0     H83898   2.557   4.025   7.204  0.4653 -1.3060  0.4518
  608MOL0     H83899   2.644   3.984   7.052  0.4815 -2.6720  1.7792
  608MOL0     H83900   2.686   4.422   7.131  1.3386 -0.0285 -1.8467
  608MOL0     H83901   2.855   3.911   7.496 -0.6988 -1.3894 -3.8296
  608MOL0     H83902   3.026   4.096   7.777  3.1230  0.1442 -3.7265
  608MOL0     H83903   2.863   4.065   7.701 -0.4256  1.3427 -0.7229
  608MOL0     H83904   2.930   3.947   7.803  0.1966  0.0764 -0.9015
  609MOL0     O83905   2.809  10.925   0.844  0.4603 -0.0021 -0.2406
  609MOL0     C83906   2.759  10.811   0.852  0.6875 -0.2216  0.3702
  609MOL0     O83907   2.830  10.706   0.884 -0.1455  0.4023 -0.1944
  609MOL0     C83908   2.952  10.735   0.943 -0.3592  0.3474  0.0695
  609MOL0     C83909   3.073  10.708   0.875  1.0363  0.6413  0.0710
  609MOL0     C83910   3.196  10.735   0.935 -0.5432  0.6180 -0.8878
  609MOL0     C83911   3.196  10.774   1.071 -0.2064  0.4784  0.1767
  609MOL0     O83912   3.297  10.785   1.155 -0.3562  0.1672  0.2827
  609MOL0     C83913   3.426  10.751   1.121 -0.9870 -0.0850 -0.6860
  609MOL0     C83914   3.450  10.604   1.083  0.9817 -0.7557 -0.3981
  609MOL0     C83915   3.381  10.518   1.180  0.7765  1.3635 -0.6503
  609MOL0     C83916   3.391  10.366   1.133  0.2111  0.2590  0.8052
  609MOL0     C83917   3.309  10.268   1.214 -0.3171  0.2423  0.4367
  609MOL0     C83918   3.348  10.265   1.365  0.2103  0.2834 -0.1618
  609MOL0     C83919   3.273  10.155   1.448  0.2037 -0.1227 -1.3296
  609MOL0     C83920   3.279  10.155   1.604 -0.7943  0.5275 -0.3390
  609MOL0     N83921   3.421  10.167   1.644 -0.1644  0.1752  0.4818
  609MOL0     C83922   3.518  10.080   1.604  0.1625  0.0444  0.8955
  609MOL0     C83923   3.637  10.138   1.637  0.2015  0.3242 -0.2592
  609MOL0     C83924   3.769  10.078   1.595 -0.5014  0.2459  0.3856
  609MOL0     C83925   3.874  10.123   1.687  0.4476  0.3112  0.2250
  609MOL0     C83926   4.013  10.083   1.641 -0.2521 -0.1764 -0.4769
  609MOL0     C83927   4.111  10.094   1.761 -1.1536 -0.2775 -1.1447
  609MOL0     O83928   4.074   9.992   1.860  0.1335  0.1640  0.7522
  609MOL0     C83929   4.168   9.941   1.947 -0.7429 -0.7433  0.1834
  609MOL0     C83930   4.124   9.834   2.034 -0.2725  0.1906  0.6217
  609MOL0     C83931   4.213   9.756   2.113  0.6180 -0.4702  0.3692
  609MOL0     C83932   4.145   9.644   2.185 -0.0753  0.1548 -0.6166
  609MOL0     C83933   4.350   9.796   2.118 -0.3311 -0.6300  0.1819
  609MOL0     C83934   4.451   9.725   2.196  0.2036 -0.2568 -0.2275
  609MOL0     O83935   4.580   9.761   2.184 -0.3133 -0.1937  0.1342
  609MOL0     C83936   4.679   9.684   2.231  0.5327 -0.1358 -0.5098
  609MOL0     C83937   4.688   9.544   2.209 -0.7003 -0.0858 -0.3596
  609MOL0     C83938   4.795   9.470   2.274 -0.2945 -0.0302  0.9823
  609MOL0     C83939   4.893   9.521   2.356 -0.3541  0.1825 -0.3826
  609MOL0     O83940   4.987   9.441   2.425 -0.5873  0.6491  0.3513
  609MOL0     C83941   5.085   9.503   2.516 -0.6254  0.2962 -0.3007
  609MOL0     C83942   5.160   9.388   2.590  0.1137 -0.2944 -0.6920
  609MOL0     C83943   5.250   9.310   2.487  0.0388  0.5542  0.1636
  609MOL0     C83944   5.341   9.211   2.560 -0.1276 -0.0029 -1.0608
  609MOL0     C83945   5.469   9.176   2.488  0.1171  0.4301  0.0924
  609MOL0     C83946   5.550   9.079   2.574  0.0321  0.1078 -0.1142
  609MOL0     C83947   5.664   9.019   2.491  0.6023 -0.6164 -0.7830
  609MOL0     C83948   5.714   8.899   2.559  0.4556 -0.8550  0.0788
  609MOL0    Cl83949   5.828   8.810   2.459  0.1437 -0.1773 -0.3211
  609MOL0     C83950   4.886   9.660   2.366 -0.6825 -0.1772  0.6538
  609MOL0     C83951   4.784   9.742   2.303 -0.9558  0.5544  0.7016
  609MOL0     O83952   4.412   9.652   2.286  0.0324 -0.3834 -0.2493
  609MOL0     C83953   4.389   9.909   2.044 -0.4875 -0.4003  0.2681
  609MOL0     C83954   4.306   9.979   1.955 -0.3934 -0.4823 -0.6755
  609MOL0     N83955   3.609  10.255   1.709  0.6730 -0.0665 -0.5451
  609MOL0     N83956   3.477  10.272   1.704 -0.8664 -0.6869 -0.7128
  609MOL0     C83957   3.076  10.793   1.141 -0.4087 -0.7967  0.4407
  609MOL0     C83958   2.955  10.778   1.074 -0.0836  0.3048  0.5627
  609MOL0     C83959   2.623  10.796   0.787 -0.0885  0.4993 -0.4187
  609MOL0     C83960   2.579  10.667   0.763 -0.2708 -0.0282 -0.2587
  609MOL0     C83961   2.458  10.636   0.699 -0.1143 -0.8204 -0.5064
  609MOL0     C83962   2.372  10.739   0.673  0.3922 -0.0008  1.6591
  609MOL0     O83963   2.244  10.705   0.621  0.0134 -0.4447 -0.1020
  609MOL0     C83964   2.183  10.805   0.530  0.7217 -0.1026 -0.2128
  609MOL0     C83965   2.035  10.833   0.565  0.7570  0.7879 -0.1989
  609MOL0     C83966   2.015  10.863   0.715  0.2997 -0.4917 -0.0821
  609MOL0     C83967   1.886  10.933   0.747  0.8500 -0.0281  0.7309
  609MOL0     C83968   1.766  10.861   0.696 -0.0258  0.2056  0.3985
  609MOL0     C83969   1.678  10.801   0.641  0.1649  0.1991 -0.2342
  609MOL0     C83970   2.409  10.866   0.705 -0.1003 -0.8804  0.3705
  609MOL0     C83971   2.534  10.907   0.752 -0.1062  0.3487 -0.6017
  609MOL0     C83972   2.566  11.053   0.787  0.4993 -0.0583  0.0918
  609MOL0     H83973   3.078  10.669   0.773 -1.3211 -0.5668  0.3443
  609MOL0     H83974   3.286  10.726   0.875  0.5469 -1.3541  0.8999
  609MOL0     H83975   3.483  10.775   1.211 -1.2504 -0.4550 -0.4199
  609MOL0     H83976   3.445  10.811   1.031 -3.0133 -0.0035 -1.1077
  609MOL0     H83977   3.409  10.577   0.986  0.6374  0.2970 -0.5528
  609MOL0     H83978   3.558  10.585   1.073  0.8113 -2.6641  0.8479
  609MOL0     H83979   3.424  10.524   1.280 -1.8162  1.8241  0.5176
  609MOL0     H83980   3.273  10.533   1.172  0.8204  1.0431 -2.3650
  609MOL0     H83981   3.372  10.348   1.027  0.5319 -0.9786  0.9404
  609MOL0     H83982   3.493  10.331   1.152 -0.0292 -0.5799  0.5966
  609MOL0     H83983   3.321  10.167   1.175  0.6844  0.5985 -0.2227
  609MOL0     H83984   3.202  10.292   1.206 -0.6203 -1.1293  0.1701
  609MOL0     H83985   3.453  10.234   1.366  0.3734  0.8155 -0.0513
  609MOL0     H83986   3.340  10.357   1.425  1.8072 -1.3204  2.7394
  609MOL0     H83987   3.311  10.056   1.418  0.0661 -1.6991  2.9489
  609MOL0     H83988   3.168  10.162   1.420 -1.3555 -4.0862  2.3553
  609MOL0     H83989   3.219  10.233   1.652 -0.1206  0.8697 -0.0346
  609MOL0     H83990   3.242  10.057   1.637  1.7189 -0.2857  0.3163
  609MOL0     H83991   3.507   9.993   1.540  0.6330  1.1284 -0.7283
  609MOL0     H83992   3.788  10.115   1.494 -0.8276 -0.2657  0.1302
  609MOL0     H83993   3.755   9.969   1.595  0.6413  0.0841  0.6149
  609MOL0     H83994   3.869  10.232   1.687  2.8659  0.4683  1.1401
  609MOL0     H83995   3.852  10.088   1.788 -0.5241 -0.5721 -0.2601
  609MOL0     H83996   4.016   9.979   1.608 -1.5515 -0.4276  0.1276
  609MOL0     H83997   4.051  10.143   1.559  2.5114  0.2541  0.9953
  609MOL0     H83998   4.213  10.075   1.726 -0.8924 -1.1837  0.0290
  609MOL0     H83999   4.113  10.198   1.797  0.5082 -0.0653 -1.7482
  609MOL0     H84000   4.019   9.812   2.019 -0.0724 -1.3974  1.3794
  609MOL0     H84001   4.040   9.629   2.161  0.3423 -3.7518 -0.6258
  609MOL0     H84002   4.144   9.667   2.292 -0.0696 -0.1695 -0.5485
  609MOL0     H84003   4.208   9.557   2.165  0.5623 -0.2473  2.6273
  609MOL0     H84004   4.610   9.502   2.146 -0.6179  0.6870 -1.0071
  609MOL0     H84005   4.793   9.362   2.264  3.1603 -0.0474 -1.0027
  609MOL0     H84006   5.166   9.555   2.464  0.2332 -0.2508  0.4618
  609MOL0     H84007   5.053   9.566   2.600  5.8381  1.9492  1.5540
  609MOL0     H84008   5.220   9.427   2.672  0.2770  4.0919 -2.6427
  609MOL0     H84009   5.082   9.324   2.631  0.6612 -1.7566 -1.8199
  609MOL0     H84010   5.308   9.382   2.428  0.4186  1.1908  1.2749
  609MOL0     H84011   5.192   9.254   2.413  1.4006  1.8539 -1.9858
  609MOL0     H84012   5.283   9.120   2.577  1.5912 -0.9070  0.1509
  609MOL0     H84013   5.364   9.255   2.658 -3.3383 -1.4919  0.5180
  609MOL0     H84014   5.432   9.140   2.391  1.5683  1.7654 -1.0070
  609MOL0     H84015   5.525   9.268   2.469 -2.2142  1.5770 -1.7355
  609MOL0     H84016   5.492   8.999   2.620 -0.5386  0.2683 -0.5480
  609MOL0     H84017   5.596   9.138   2.654 -2.0330  1.9258 -0.1659
  609MOL0     H84018   5.743   9.093   2.476  0.4722 -0.7535 -2.3583
  609MOL0     H84019   5.622   8.988   2.394  0.3868 -0.0776 -0.8664
  609MOL0     H84020   5.636   8.834   2.599  1.2340 -0.6433  2.0634
  609MOL0     H84021   5.773   8.921   2.648  4.8420 -2.3037 -2.1423
  609MOL0     H84022   4.965   9.704   2.426  0.0901 -0.3630 -0.1888
  609MOL0     H84023   4.799   9.846   2.327  4.0851  0.5367 -1.1434
  609MOL0     H84024   4.485   9.954   2.067 -1.3707  0.7955  1.8756
  609MOL0     H84025   4.344  10.066   1.903  0.0769 -0.6998 -0.7041
  609MOL0     H84026   3.061  10.813   1.246  0.4088  0.3627  0.3577
  609MOL0     H84027   2.856  10.789   1.117 -0.6286 -1.9223 -0.0223
  609MOL0     H84028   2.633  10.581   0.802 -0.9093  0.3269  1.4974
  609MOL0     H84029   2.422  10.535   0.679 -2.6301 -0.2285  0.6824
  609MOL0     H84030   2.234  10.900   0.512  3.6696 -1.1708  1.7903
  609MOL0     H84031   2.183  10.757   0.432  3.7626  0.6256 -0.6896
  609MOL0     H84032   1.980  10.742   0.537  4.2414 -1.9788  1.1271
  609MOL0     H84033   1.998  10.917   0.506  1.6553 -0.1037 -2.1271
  609MOL0     H84034   2.020  10.772   0.775  0.2203  0.5432  1.5514
  609MOL0     H84035   2.087  10.936   0.754 -1.1722  1.1358 -0.2799
  609MOL0     H84036   1.890  11.039   0.721  0.6326  0.2461  1.8036
  609MOL0     H84037   1.875  10.938   0.855 -0.4676  0.4734  0.5843
  609MOL0     H84038   1.595  10.746   0.603  1.4141 -1.5443 -0.5412
  609MOL0     H84039   2.337  10.945   0.686 -0.3896 -0.6428  2.2523
  609MOL0     H84040   2.577  11.071   0.894 -1.4019 -1.0892  0.5089
  609MOL0     H84041   2.645  11.095   0.724 -0.3567  0.4468 -0.6696
  609MOL0     H84042   2.476  11.111   0.764  0.6426  0.3393  0.5165
  610MOL0     O84043  10.596   6.989   8.598 -0.3641 -0.4462  0.0216
  610MOL0     C84044  10.666   6.905   8.638  0.6770 -0.5202  1.0084
  610MOL0     O84045  10.786   6.872   8.584 -0.3989 -0.7343  0.1337
  610MOL0     C84046  10.811   6.928   8.461 -0.1220  0.0911 -0.6372
  610MOL0     C84047  10.816   6.844   8.346 -0.1401  1.2491 -0.0993
  610MOL0     C84048  10.875   6.894   8.233 -0.1704 -0.4167  0.0827
  610MOL0     C84049  10.931   7.023   8.235  0.2118  0.5814 -0.0489
  610MOL0     O84050  10.988   7.053   8.118  0.0629 -0.3515 -0.0356
  610MOL0     C84051  11.071   7.171   8.095  0.5932 -0.3507 -0.3499
  610MOL0     C84052  11.104   7.153   7.949 -0.1195 -0.0336 -0.1740
  610MOL0     C84053  11.173   7.283   7.895  0.4563  0.0212  0.5818
  610MOL0     C84054  11.191   7.281   7.743  0.0372 -0.4280 -0.3011
  610MOL0     C84055  11.224   7.419   7.690  0.3408  0.0883 -0.9354
  610MOL0     C84056  11.176   7.416   7.556  0.4756 -0.4041  0.2404
  610MOL0     C84057  11.245   7.520   7.471  0.0276  0.3133  0.1854
  610MOL0     C84058  11.187   7.511   7.322  0.4242  0.8310  0.9282
  610MOL0     N84059  11.237   7.611   7.234  0.2714 -0.3679 -0.6792
  610MOL0     C84060  11.183   7.740   7.210 -0.3782  0.1653  0.1670
  610MOL0     C84061  11.284   7.804   7.138  0.9163 -0.0540  0.9551
  610MOL0     C84062  11.291   7.948   7.113 -0.7481  0.5053  0.3285
  610MOL0     C84063  11.376   8.030   7.209 -0.5419 -0.5505 -0.1228
  610MOL0     C84064  11.487   8.098   7.134  0.4934 -0.3059 -0.0534
  610MOL0     C84065  11.582   8.174   7.226  0.3509  0.2693 -0.5852
  610MOL0     O84066  11.531   8.294   7.276  0.0371  0.0284 -0.1218
  610MOL0     C84067  11.623   8.382   7.323  0.0654  0.0509 -0.5390
  610MOL0     C84068  11.762   8.364   7.342  0.4318  0.6634  1.2726
  610MOL0     C84069  11.837   8.476   7.380 -0.2613 -0.5708  0.5776
  610MOL0     C84070  12.000   8.467   7.374  0.4243  0.0299 -0.3661
  610MOL0     C84071  11.774   8.599   7.424  0.6724  0.6174  0.1052
  610MOL0     C84072  11.849   8.721   7.478 -0.4060 -1.4262 -0.0090
  610MOL0     O84073  11.758   8.811   7.540  0.0482  0.2300 -0.0174
  610MOL0     C84074  11.811   8.937   7.587  0.3494  0.5154  0.3016
  610MOL0     C84075  11.925   9.002   7.526 -0.0192 -1.0410  0.4611
  610MOL0     C84076  11.979   9.119   7.583  0.4050 -0.1464  0.4955
  610MOL0     C84077  11.929   9.162   7.707  0.0945 -0.5431  0.6122
  610MOL0     O84078  11.996   9.260   7.776  0.1915 -0.3816  0.4701
  610MOL0     C84079  12.128   9.230   7.793 -0.1180 -0.4664 -0.2393
  610MOL0     C84080  12.161   9.337   7.891  0.2286  0.6242  0.1855
  610MOL0     C84081  12.316   9.354   7.915  0.5969  0.4220  0.1646
  610MOL0     C84082  12.369   9.216   7.948  1.0296 -0.4329  0.5720
  610MOL0     C84083  12.513   9.224   8.003 -0.6622  0.0993  0.1698
  610MOL0     C84084  12.573   9.091   8.052 -0.7301  0.4592  0.2595
  610MOL0     C84085  12.707   9.124   8.102 -0.2967  1.0421 -0.3281
  610MOL0     C84086  12.785   8.992   8.133 -0.5941  0.2624 -1.0418
  610MOL0    Cl84087  12.849   8.920   7.978  0.8026  0.0819  0.0895
  610MOL0     C84088  11.807   9.112   7.749 -0.4718 -0.4338  0.2662
  610MOL0     C84089  11.747   9.000   7.695 -0.2877  0.8290  0.0770
  610MOL0     O84090  11.974   8.728   7.479  0.8576 -0.4467  0.0800
  610MOL0     C84091  11.634   8.601   7.420  0.3024 -0.7631  0.1476
  610MOL0     C84092  11.558   8.496   7.372 -1.4432 -0.7784  0.1922
  610MOL0     N84093  11.399   7.723   7.133  0.1343 -1.1220  0.4045
  610MOL0     N84094  11.364   7.610   7.183 -0.6360 -0.4273 -0.0854
  610MOL0     C84095  10.937   7.097   8.347  0.4673  0.3382 -0.6030
  610MOL0     C84096  10.871   7.053   8.463 -0.6983 -0.5521  0.0549
  610MOL0     C84097  10.611   6.828   8.749  0.7650  0.6427  0.1066
  610MOL0     C84098  10.535   6.897   8.847 -0.5652  1.3952 -0.7739
  610MOL0     C84099  10.497   6.822   8.960  1.0138 -0.0441 -0.6306
  610MOL0     C84100  10.528   6.681   8.971 -0.4556 -0.1573 -0.1771
  610MOL0     O84101  10.487   6.594   9.070 -0.3783 -0.1736 -0.0725
  610MOL0     C84102  10.399   6.652   9.168 -0.1421  0.0307 -0.3610
  610MOL0     C84103  10.354   6.534   9.244 -0.3453  0.0466 -0.1589
  610MOL0     C84104  10.288   6.429   9.157  0.2895  0.9522 -0.0743
  610MOL0     C84105  10.189   6.331   9.224  0.6926  0.2570 -0.3852
  610MOL0     C84106  10.237   6.272   9.348 -0.6413  0.9304 -0.6103
  610MOL0     C84107  10.264   6.211   9.453 -1.0417  0.1691  0.3839
  610MOL0     C84108  10.599   6.614   8.869 -0.5982 -0.0918  0.4440
  610MOL0     C84109  10.632   6.689   8.757  0.2257  0.5192  0.3094
  610MOL0     C84110  10.718   6.611   8.648 -0.1296  0.1720  0.7343
  610MOL0     H84111  10.792   6.739   8.342  1.8789  0.7403 -4.2630
  610MOL0     H84112  10.876   6.839   8.139  1.4083 -0.0060 -0.1720
  610MOL0     H84113  11.153   7.187   8.166 -0.8114  1.4307  0.9942
  610MOL0     H84114  11.012   7.263   8.109 -0.7868 -1.6872  4.2889
  610MOL0     H84115  11.163   7.061   7.951 -0.9243 -0.5917 -1.0978
  610MOL0     H84116  11.017   7.140   7.883  0.7153 -0.5828 -1.1948
  610MOL0     H84117  11.104   7.368   7.909 -2.8009 -1.8674 -2.3128
  610MOL0     H84118  11.265   7.310   7.947 -0.4161  0.1945  2.1081
  610MOL0     H84119  11.267   7.205   7.723 -1.3284 -1.6285 -1.0942
  610MOL0     H84120  11.098   7.245   7.699  1.1836 -1.2491 -2.2074
  610MOL0     H84121  11.332   7.433   7.700  0.1361  0.0982  2.8543
  610MOL0     H84122  11.178   7.500   7.747  1.0354 -2.0897  3.1272
  610MOL0     H84123  11.196   7.320   7.508 -1.3572 -0.5505 -0.2833
  610MOL0     H84124  11.068   7.432   7.552  0.8013  2.2199  0.0243
  610MOL0     H84125  11.354   7.513   7.471  0.1046  1.1577  1.1810
  610MOL0     H84126  11.226   7.624   7.502  0.1237 -0.3945  2.9081
  610MOL0     H84127  11.204   7.408   7.288  0.1536  0.9719  0.3520
  610MOL0     H84128  11.078   7.525   7.320  0.1185 -1.2100  1.2799
  610MOL0     H84129  11.101   7.784   7.267  2.5792  4.3862  1.6051
  610MOL0     H84130  11.193   7.998   7.116 -0.7434  0.5178  0.2946
  610MOL0     H84131  11.337   7.972   7.017  6.3039  0.7519  3.1921
  610MOL0     H84132  11.318   8.099   7.271  0.5255  0.5768 -0.3318
  610MOL0     H84133  11.416   7.960   7.283 -1.2614 -4.1638 -2.8751
  610MOL0     H84134  11.540   8.021   7.077  2.4612  1.7875 -1.2215
  610MOL0     H84135  11.450   8.173   7.064  1.4790  0.6405  0.4094
  610MOL0     H84136  11.609   8.109   7.310 -0.4331  1.3916  0.5711
  610MOL0     H84137  11.675   8.194   7.170  3.4671 -2.2602  3.1794
  610MOL0     H84138  11.808   8.272   7.306 -2.3391 -0.9290  1.5332
  610MOL0     H84139  12.044   8.370   7.347 -1.6789 -1.5649  1.5941
  610MOL0     H84140  12.035   8.490   7.475  1.0582 -0.0688 -0.5576
  610MOL0     H84141  12.037   8.531   7.293 -1.7670 -1.4127 -2.6590
  610MOL0     H84142  11.958   8.971   7.427  0.0615  0.0718  0.1267
  610MOL0     H84143  12.067   9.174   7.550  1.6671 -1.2133  1.9357
  610MOL0     H84144  12.135   9.130   7.838  0.4597 -0.1389  0.4204
  610MOL0     H84145  12.188   9.240   7.702  1.6295 -0.6579  0.8395
  610MOL0     H84146  12.119   9.425   7.841 -1.8188 -1.2935 -1.7072
  610MOL0     H84147  12.110   9.313   7.985  2.1519  1.1583  1.4333
  610MOL0     H84148  12.334   9.419   8.001 -1.8493  1.1443  0.2132
  610MOL0     H84149  12.361   9.404   7.829  0.7723  0.2864  0.1772
  610MOL0     H84150  12.374   9.157   7.857 -0.3255 -0.0145  0.2132
  610MOL0     H84151  12.301   9.171   8.021 -0.5480  1.4982  0.3822
  610MOL0     H84152  12.575   9.278   7.931  1.0808 -1.2432  0.6144
  610MOL0     H84153  12.514   9.294   8.087 -1.2523  2.7142 -1.8785
  610MOL0     H84154  12.587   9.020   7.971  1.9894 -2.7210  3.1797
  610MOL0     H84155  12.509   9.043   8.127 -1.3307  2.0235  0.8025
  610MOL0     H84156  12.688   9.175   8.197  2.1379 -0.3361  1.0148
  610MOL0     H84157  12.766   9.193   8.039  1.7901  1.8263  2.2776
  610MOL0     H84158  12.724   8.919   8.188  1.0102 -0.6325 -0.3599
  610MOL0     H84159  12.865   9.016   8.204  0.8741 -1.1145 -2.1497
  610MOL0     H84160  11.769   9.156   7.840  0.7334  0.1632  0.4967
  610MOL0     H84161  11.658   8.959   7.741  1.1755  0.7312  3.0124
  610MOL0     H84162  11.575   8.687   7.451  2.8456  1.8117 -1.6516
  610MOL0     H84163  11.450   8.502   7.376 -1.3688 -0.0326  2.9962
  610MOL0     H84164  11.004   7.182   8.342  1.1649 -0.1102  0.6880
  610MOL0     H84165  10.881   7.120   8.547  0.1215  0.4031 -0.7656
  610MOL0     H84166  10.519   7.004   8.835  2.5766  1.8255 -1.9653
  610MOL0     H84167  10.428   6.861   9.034  1.9905  0.7252 -0.1085
  610MOL0     H84168  10.450   6.727   9.230  4.1127 -2.1013 -0.9327
  610MOL0     H84169  10.317   6.682   9.101 -0.4879 -1.2935 -0.5541
  610MOL0     H84170  10.289   6.576   9.321  0.1102 -0.5606  0.5649
  610MOL0     H84171  10.435   6.493   9.306  0.1156  2.1250  0.7065
  610MOL0     H84172  10.229   6.481   9.081  1.3028  1.3063 -0.6315
  610MOL0     H84173  10.366   6.365   9.115 -0.0824  0.4220  0.0408
  610MOL0     H84174  10.165   6.248   9.157 -0.9457  1.0839 -0.8527
  610MOL0     H84175  10.095   6.385   9.239 -0.2391 -1.3910 -0.0621
  610MOL0     H84176  10.273   6.138   9.531  1.8720  1.0528  0.9679
  610MOL0     H84177  10.615   6.507   8.876  1.0455  0.1811  1.0889
  610MOL0     H84178  10.822   6.639   8.664  0.2535 -0.6879 -0.1524
  610MOL0     H84179  10.717   6.503   8.665  1.2481 -0.0738 -0.5485
  610MOL0     H84180  10.690   6.626   8.543  1.2508 -0.4014  0.2584
  611MOL0     O84181   0.614   2.745   1.816  0.1440 -0.3272 -0.0828
  611MOL0     C84182   0.694   2.838   1.820 -0.4832  0.3159 -0.0810
  611MOL0     O84183   0.682   2.955   1.760  0.6240 -0.1774  0.5216
  611MOL0     C84184   0.561   2.971   1.698  0.4283 -0.4868  0.6552
  611MOL0     C84185   0.534   2.911   1.573  0.5483 -0.6229  0.3143
  611MOL0     C84186   0.418   2.941   1.494  0.0367 -0.1393  0.9213
  611MOL0     C84187   0.326   3.033   1.536 -0.4720 -0.2275  0.0709
  611MOL0     O84188   0.225   3.091   1.465  0.3763  0.2403 -0.3332
  611MOL0     C84189   0.187   3.028   1.339 -0.0595  0.3177 -0.0507
  611MOL0     C84190   0.045   3.075   1.297  0.1617  1.5366  0.0255
  611MOL0     C84191  -0.056   3.018   1.403  0.9617 -0.2129 -0.7614
  611MOL0     C84192  -0.209   3.018   1.353 -0.4599 -0.0162  1.1502
  611MOL0     C84193  -0.311   2.987   1.462 -0.3316  0.1844  0.4476
  611MOL0     C84194  -0.455   2.990   1.423 -0.2610  0.0622  0.0366
  611MOL0     C84195  -0.506   2.854   1.379 -0.6884  0.6233 -0.2004
  611MOL0     C84196  -0.653   2.844   1.339  0.3622  0.6658  0.4778
  611MOL0     N84197  -0.681   2.709   1.290  0.2312 -0.0012 -0.1257
  611MOL0     C84198  -0.640   2.655   1.170  0.1276 -0.9189 -0.5686
  611MOL0     C84199  -0.701   2.534   1.171 -0.0110  0.2425  0.1116
  611MOL0     C84200  -0.701   2.435   1.061 -0.4815  0.5377 -0.3691
  611MOL0     C84201  -0.624   2.313   1.116 -0.1810 -0.5720 -0.5348
  611MOL0     C84202  -0.585   2.203   1.015 -0.4955 -1.3546 -0.7143
  611MOL0     C84203  -0.470   2.246   0.927 -0.4958 -0.7074  0.1526
  611MOL0     O84204  -0.366   2.303   1.007 -0.1530  0.1611  0.2977
  611MOL0     C84205  -0.251   2.315   0.935  0.7481  0.7628 -0.0171
  611MOL0     C84206  -0.249   2.343   0.796 -0.2295 -0.3043  0.3814
  611MOL0     C84207  -0.125   2.378   0.736  0.3311  1.0018  0.9484
  611MOL0     C84208  -0.131   2.413   0.590  0.6911 -0.5835 -0.4147
  611MOL0     C84209  -0.006   2.380   0.811 -0.7483  0.0574  0.8663
  611MOL0     C84210   0.121   2.418   0.743  0.0924 -0.5831  0.5104
  611MOL0     O84211   0.210   2.471   0.832 -0.1127  0.3972  0.7680
  611MOL0     C84212   0.328   2.531   0.786  0.5830  0.1881 -0.8704
  611MOL0     C84213   0.443   2.521   0.867 -0.0391  0.2547 -0.4884
  611MOL0     C84214   0.567   2.570   0.830 -0.6307  0.8401 -0.6061
  611MOL0     C84215   0.577   2.640   0.707 -0.7099 -0.5856 -0.6072
  611MOL0     O84216   0.686   2.690   0.657 -0.6144 -0.0492 -0.0503
  611MOL0     C84217   0.805   2.696   0.737 -1.2438  0.6825 -0.7287
  611MOL0     C84218   0.883   2.563   0.717  0.0501 -0.1570  0.6847
  611MOL0     C84219   1.031   2.596   0.686  0.4557  0.1335 -0.3508
  611MOL0     C84220   1.098   2.458   0.687 -0.3037  0.7923 -0.2707
  611MOL0     C84221   1.250   2.446   0.674 -0.4442 -1.2546  0.4619
  611MOL0     C84222   1.298   2.445   0.526 -0.0916 -1.4084  0.2347
  611MOL0     C84223   1.454   2.444   0.515 -0.4046  0.5110 -0.3446
  611MOL0     C84224   1.515   2.471   0.378  0.0979 -0.8472  0.1549
  611MOL0    Cl84225   1.440   2.625   0.307  0.1458  0.1778  0.1879
  611MOL0     C84226   0.465   2.648   0.625 -0.5207 -0.6510  0.0017
  611MOL0     C84227   0.340   2.595   0.659 -0.0741  0.4359 -0.2338
  611MOL0     O84228   0.141   2.398   0.623  0.2415  0.5915 -0.1460
  611MOL0     C84229  -0.010   2.341   0.946 -0.3065  0.2772 -0.1186
  611MOL0     C84230  -0.132   2.321   1.007 -0.5168 -0.2908 -0.3837
  611MOL0     N84231  -0.777   2.524   1.281  0.7614  0.0869 -0.1868
  611MOL0     N84232  -0.764   2.625   1.356  0.2104 -0.3379 -0.5243
  611MOL0     C84233   0.349   3.087   1.663 -0.1589 -0.8000  0.0046
  611MOL0     C84234   0.466   3.064   1.742  0.0481 -0.0455 -0.0307
  611MOL0     C84235   0.822   2.804   1.895 -1.0305 -0.4987 -0.1677
  611MOL0     C84236   0.944   2.818   1.831 -0.0847  0.2109 -0.7499
  611MOL0     C84237   1.063   2.784   1.890  0.7137  0.4806 -0.0896
  611MOL0     C84238   1.066   2.744   2.023 -0.5543 -0.5679  0.9478
  611MOL0     O84239   1.183   2.724   2.087 -0.2175 -0.0000  0.7319
  611MOL0     C84240   1.256   2.843   2.125  0.5242 -0.0063  0.4697
  611MOL0     C84241   1.389   2.789   2.179 -0.5515 -0.1724  0.5812
  611MOL0     C84242   1.469   2.899   2.251  0.5283  0.5239 -0.0803
  611MOL0     C84243   1.590   2.852   2.318 -0.8421  0.6053 -0.3598
  611MOL0     C84244   1.705   2.812   2.231 -0.4840 -0.2634 -0.1119
  611MOL0     C84245   1.804   2.785   2.159  0.4820 -0.7164 -0.1647
  611MOL0     C84246   0.949   2.718   2.086  0.1785 -0.2624 -0.6013
  611MOL0     C84247   0.827   2.738   2.022 -0.0443  0.6897  0.3321
  611MOL0     C84248   0.704   2.712   2.104 -0.2902  0.2809 -0.2852
  611MOL0     H84249   0.599   2.834   1.534 -1.7129 -2.3311 -0.3163
  611MOL0     H84250   0.420   2.894   1.397  1.6299 -0.5803  1.1418
  611MOL0     H84251   0.189   2.920   1.358 -1.9201  0.3189  0.3690
  611MOL0     H84252   0.255   3.047   1.256 -0.0770 -0.6481 -0.3007
  611MOL0     H84253   0.046   3.184   1.289 -0.3604  1.6469  1.2675
  611MOL0     H84254   0.024   3.028   1.200 -0.2426  1.2476  0.2502
  611MOL0     H84255  -0.025   2.918   1.437 -1.6619 -0.6838  0.4665
  611MOL0     H84256  -0.046   3.092   1.482  0.9215 -0.3650 -0.6134
  611MOL0     H84257  -0.220   3.122   1.321 -1.5956 -0.0375  1.4282
  611MOL0     H84258  -0.219   2.943   1.274  1.0627  0.3463  0.5820
  611MOL0     H84259  -0.298   3.060   1.542 -1.9031 -0.5663  1.4416
  611MOL0     H84260  -0.291   2.884   1.493  0.4286 -0.2100 -1.2624
  611MOL0     H84261  -0.518   3.018   1.508 -1.8593 -1.3435 -0.6250
  611MOL0     H84262  -0.468   3.061   1.340 -0.1411  2.9338  2.3094
  611MOL0     H84263  -0.487   2.780   1.457 -0.8643  0.7339 -0.0486
  611MOL0     H84264  -0.451   2.830   1.288  0.6195  0.5656  0.5829
  611MOL0     H84265  -0.714   2.858   1.429 -2.7385  1.6625 -1.6207
  611MOL0     H84266  -0.675   2.922   1.267 -1.3477 -0.1224  0.1002
  611MOL0     H84267  -0.565   2.695   1.103 -0.0519  1.5568  0.5603
  611MOL0     H84268  -0.646   2.494   0.987  3.1864  0.3079  1.9260
  611MOL0     H84269  -0.803   2.407   1.035  0.4674 -2.4370 -1.2417
  611MOL0     H84270  -0.545   2.332   1.190 -0.9372 -0.9189  0.3785
  611MOL0     H84271  -0.709   2.280   1.176 -0.1724  3.7007  2.2057
  611MOL0     H84272  -0.557   2.113   1.071 -1.6536 -0.9647  0.5605
  611MOL0     H84273  -0.673   2.177   0.954 -1.3434  2.5930 -1.4731
  611MOL0     H84274  -0.431   2.158   0.874 -0.6972 -2.0045  2.0345
  611MOL0     H84275  -0.505   2.329   0.866  2.7097  1.5620  1.1255
  611MOL0     H84276  -0.346   2.350   0.748 -0.1764  2.0528  0.4697
  611MOL0     H84277  -0.079   2.506   0.563  0.9749 -0.6622 -0.1457
  611MOL0     H84278  -0.230   2.436   0.548  1.9360  1.1754 -2.6331
  611MOL0     H84279  -0.089   2.332   0.530 -1.8171 -1.5219 -1.0071
  611MOL0     H84280   0.423   2.474   0.963  0.9978  3.1528  1.2534
  611MOL0     H84281   0.649   2.527   0.887 -0.7125 -0.6871 -1.5821
  611MOL0     H84282   0.870   2.777   0.701 -1.2783  0.4163 -1.4015
  611MOL0     H84283   0.781   2.712   0.843 -2.6408  3.5848 -1.3883
  611MOL0     H84284   0.877   2.499   0.805 -1.8888 -1.9145 -0.6027
  611MOL0     H84285   0.838   2.511   0.632 -1.7940  1.2710  0.7274
  611MOL0     H84286   1.071   2.664   0.762  1.4061 -0.6704 -0.1110
  611MOL0     H84287   1.038   2.636   0.585 -0.0713  1.1840  0.0221
  611MOL0     H84288   1.061   2.387   0.612  1.9709  1.1538 -1.8467
  611MOL0     H84289   1.067   2.422   0.785 -0.5170 -1.5365 -1.1276
  611MOL0     H84290   1.296   2.521   0.738 -2.3266 -0.5357  1.0641
  611MOL0     H84291   1.279   2.348   0.712  0.8160 -0.5380  1.4138
  611MOL0     H84292   1.257   2.536   0.481  1.4612 -1.0504 -0.5058
  611MOL0     H84293   1.255   2.352   0.485 -0.4431 -0.2838 -2.1025
  611MOL0     H84294   1.502   2.353   0.552 -0.0425  0.6628 -0.4350
  611MOL0     H84295   1.494   2.522   0.581  0.9960  0.1312 -0.7124
  611MOL0     H84296   1.487   2.389   0.311 -2.4436 -0.2677  0.3797
  611MOL0     H84297   1.624   2.473   0.373  0.0443  0.6160 -2.1803
  611MOL0     H84298   0.477   2.698   0.529  1.5968 -0.5504  0.2680
  611MOL0     H84299   0.261   2.607   0.586  1.2915 -0.9935 -2.0164
  611MOL0     H84300   0.087   2.353   0.992  1.1361 -0.1758 -2.8493
  611MOL0     H84301  -0.129   2.318   1.115 -1.0523 -2.8276 -0.3834
  611MOL0     H84302   0.286   3.162   1.708  1.0486 -0.0427  0.4767
  611MOL0     H84303   0.476   3.095   1.845  1.0834 -1.6228  0.3697
  611MOL0     H84304   0.932   2.841   1.725 -1.2284  0.9703 -0.4690
  611MOL0     H84305   1.153   2.787   1.829 -0.0935  2.6323 -1.2831
  611MOL0     H84306   1.281   2.903   2.036 -0.9576  1.9299  1.2727
  611MOL0     H84307   1.198   2.908   2.192 -1.1992 -1.5584  0.5681
  611MOL0     H84308   1.448   2.750   2.097  1.7638  1.5054  1.3546
  611MOL0     H84309   1.358   2.705   2.243  0.2027 -1.2181 -0.3921
  611MOL0     H84310   1.493   2.981   2.183 -2.5174 -0.3526 -2.4531
  611MOL0     H84311   1.405   2.954   2.320  0.6695 -0.3059  0.7240
  611MOL0     H84312   1.566   2.775   2.392  1.9178 -0.3742 -0.3692
  611MOL0     H84313   1.628   2.932   2.383  1.2025 -1.1195  0.6879
  611MOL0     H84314   1.877   2.748   2.090 -0.0658 -0.6979 -0.7633
  611MOL0     H84315   0.949   2.698   2.193 -2.4662  0.0243 -0.4799
  611MOL0     H84316   0.627   2.789   2.099  0.5971  1.1564 -0.7515
  611MOL0     H84317   0.651   2.625   2.064 -3.3633  2.0611 -0.4368
  611MOL0     H84318   0.742   2.692   2.205 -1.8483 -0.9462  0.0967
  612MOL0     O84319   0.231   5.100   6.096  0.0406  0.5401 -0.3798
  612MOL0     C84320   0.220   5.149   6.214 -0.3674  0.2913 -0.2258
  612MOL0     O84321   0.105   5.193   6.269  1.0089 -0.3800 -0.3161
  612MOL0     C84322  -0.009   5.183   6.186  0.3809  1.0682 -1.0643
  612MOL0     C84323  -0.039   5.274   6.082 -0.3838 -0.4267 -0.4406
  612MOL0     C84324  -0.158   5.258   6.016  0.3784  0.6443  0.6221
  612MOL0     C84325  -0.259   5.159   6.055  0.0787 -0.4779  0.7540
  612MOL0     O84326  -0.373   5.130   5.983  0.0727 -0.4358  0.0887
  612MOL0     C84327  -0.417   5.232   5.887  0.2400 -0.2698 -0.4456
  612MOL0     C84328  -0.564   5.213   5.835  0.4141 -0.0339 -0.7806
  612MOL0     C84329  -0.603   5.291   5.713  1.1635  0.0449  0.5034
  612MOL0     C84330  -0.728   5.378   5.723 -0.5050  0.1963  1.1558
  612MOL0     C84331  -0.757   5.452   5.587 -0.1239  0.4317 -0.7981
  612MOL0     C84332  -0.900   5.491   5.582  0.1041  0.4701 -0.5564
  612MOL0     C84333  -0.940   5.560   5.455  0.0492  0.2995 -0.1527
  612MOL0     C84334  -1.084   5.613   5.473  0.6587  0.3265 -0.2380
  612MOL0     N84335  -1.158   5.621   5.346  0.5525  0.3458 -0.3130
  612MOL0     C84336  -1.285   5.572   5.309  0.4160 -0.5413  0.3570
  612MOL0     C84337  -1.311   5.631   5.180  0.1393 -0.0155 -0.8591
  612MOL0     C84338  -1.440   5.605   5.100 -0.5206  0.0707 -0.0600
  612MOL0     C84339  -1.440   5.465   5.025 -0.5570  0.1843  0.4437
  612MOL0     C84340  -1.310   5.434   4.949 -0.4521  0.0704 -1.2659
  612MOL0     C84341  -1.300   5.320   4.839  0.5077 -0.0775 -0.9286
  612MOL0     O84342  -1.164   5.299   4.818 -0.4606  0.4588 -0.1979
  612MOL0     C84343  -1.128   5.204   4.722  0.1321 -0.3111 -0.9469
  612MOL0     C84344  -1.214   5.114   4.661  0.0976  1.0027 -0.6257
  612MOL0     C84345  -1.169   5.024   4.565  0.6125  0.3566 -1.1745
  612MOL0     C84346  -1.267   4.934   4.505  0.9365 -0.0685  1.2836
  612MOL0     C84347  -1.028   5.007   4.544  0.9611 -0.0478  0.1659
  612MOL0     C84348  -0.965   4.908   4.457 -0.1056  0.1677  0.0008
  612MOL0     O84349  -0.849   4.852   4.502  0.6804 -0.3124 -0.1149
  612MOL0     C84350  -0.797   4.735   4.450 -0.5851  0.8430 -0.3641
  612MOL0     C84351  -0.773   4.719   4.312  0.6534 -0.2226  0.4024
  612MOL0     C84352  -0.734   4.599   4.257  0.5150  0.6161  0.5320
  612MOL0     C84353  -0.712   4.483   4.337 -0.8896  0.0112  0.4675
  612MOL0     O84354  -0.677   4.355   4.287  0.2261 -0.9817 -0.7700
  612MOL0     C84355  -0.781   4.260   4.286 -0.0627  0.0561  0.7240
  612MOL0     C84356  -0.762   4.172   4.171  0.4222 -0.1811  0.3586
  612MOL0     C84357  -0.897   4.136   4.101 -1.0455 -0.5484  0.0841
  612MOL0     C84358  -0.994   4.051   4.188  0.3720 -0.3741 -0.5068
  612MOL0     C84359  -1.132   4.019   4.112 -0.4216 -0.3863  0.4158
  612MOL0     C84360  -1.205   4.151   4.080  1.4135 -0.1207  0.1578
  612MOL0     C84361  -1.352   4.122   4.042 -0.5603  0.3237  0.1255
  612MOL0     C84362  -1.427   4.057   4.148  0.0128  0.6647  0.3335
  612MOL0    Cl84363  -1.599   4.053   4.089  0.0232  0.4270  0.2258
  612MOL0     C84364  -0.731   4.502   4.474  0.0810  0.9881  0.2816
  612MOL0     C84365  -0.783   4.625   4.527  0.4672 -0.7854 -0.1569
  612MOL0     O84366  -1.023   4.887   4.351 -0.1412 -0.1421 -0.6322
  612MOL0     C84367  -0.941   5.101   4.610 -0.2678 -0.4504  0.2476
  612MOL0     C84368  -0.995   5.205   4.694  0.2753  0.8520  0.1631
  612MOL0     N84369  -1.209   5.707   5.150 -0.1130 -0.4962 -0.1957
  612MOL0     N84370  -1.122   5.700   5.243 -0.4325 -0.3689 -0.5542
  612MOL0     C84371  -0.233   5.080   6.168 -0.4403  0.3104 -0.0513
  612MOL0     C84372  -0.107   5.088   6.227 -0.4249  0.2770 -0.3909
  612MOL0     C84373   0.335   5.141   6.301  0.4508  0.1227 -0.3197
  612MOL0     C84374   0.317   5.153   6.439  0.1159 -0.7641 -0.2005
  612MOL0     C84375   0.424   5.149   6.526  0.2445 -0.2024 -0.1395
  612MOL0     C84376   0.551   5.114   6.481 -0.0349  0.6311 -0.5110
  612MOL0     O84377   0.642   5.091   6.584  0.4876 -0.3862 -0.6179
  612MOL0     C84378   0.777   5.049   6.558  0.9427 -0.0318  0.1072
  612MOL0     C84379   0.842   5.010   6.696  0.4001  0.3675 -0.1048
  612MOL0     C84380   0.862   5.137   6.774 -0.0692 -0.0653 -0.8329
  612MOL0     C84381   0.934   5.109   6.910  0.1230 -0.9503  0.0898
  612MOL0     C84382   1.074   5.139   6.921  0.5744  0.6965  0.0896
  612MOL0     C84383   1.193   5.182   6.931  0.6318 -0.8179  0.7049
  612MOL0     C84384   0.565   5.082   6.348 -0.1336 -0.0308 -0.1124
  612MOL0     C84385   0.469   5.101   6.254  0.4335  0.3523  0.1194
  612MOL0     C84386   0.519   5.109   6.115  0.2613 -0.4671 -0.3734
  612MOL0     H84387   0.034   5.349   6.055  0.0863 -0.3642  0.9146
  612MOL0     H84388  -0.179   5.322   5.930  2.3591 -0.7868 -1.0101
  612MOL0     H84389  -0.340   5.230   5.808 -0.4089 -0.3320 -1.0888
  612MOL0     H84390  -0.407   5.332   5.929  2.8241 -0.9953  0.8965
  612MOL0     H84391  -0.586   5.109   5.811  1.3829 -0.1105 -1.3642
  612MOL0     H84392  -0.621   5.231   5.927 -0.7754 -0.7827 -1.3409
  612MOL0     H84393  -0.514   5.346   5.681  1.2492 -0.2767  0.1937
  612MOL0     H84394  -0.617   5.213   5.638 -3.7182 -1.7534  2.8434
  612MOL0     H84395  -0.811   5.307   5.730  0.9320 -1.6852  0.1070
  612MOL0     H84396  -0.714   5.444   5.809  1.3054 -0.1874  1.1949
  612MOL0     H84397  -0.730   5.383   5.507  2.4898  0.3548  0.0321
  612MOL0     H84398  -0.691   5.539   5.573 -0.3751  0.5905 -0.9988
  612MOL0     H84399  -0.947   5.393   5.595 -0.9813  1.1795  1.3759
  612MOL0     H84400  -0.924   5.545   5.674 -0.1861 -1.7833  0.7818
  612MOL0     H84401  -0.927   5.488   5.374  0.2519  0.5490 -0.3421
  612MOL0     H84402  -0.876   5.646   5.434  2.7992 -1.8877 -1.2633
  612MOL0     H84403  -1.142   5.548   5.540 -0.1388  0.3082 -0.9246
  612MOL0     H84404  -1.085   5.713   5.519  1.9347 -0.9849  2.9134
  612MOL0     H84405  -1.347   5.510   5.374  2.6296 -2.4034  0.8495
  612MOL0     H84406  -1.467   5.681   5.026 -1.8056 -3.6218 -3.7687
  612MOL0     H84407  -1.524   5.597   5.169 -1.8896 -1.7765 -1.8362
  612MOL0     H84408  -1.467   5.383   5.092  1.6765 -1.2181 -0.2579
  612MOL0     H84409  -1.521   5.464   4.951 -0.5281 -3.9125  0.2343
  612MOL0     H84410  -1.278   5.525   4.897 -1.5995  0.7975 -0.7497
  612MOL0     H84411  -1.245   5.401   5.030 -2.3444  1.3449  0.8817
  612MOL0     H84412  -1.350   5.233   4.881 -0.3073  1.3033  1.1363
  612MOL0     H84413  -1.335   5.343   4.738  0.8133  0.1081 -0.9953
  612MOL0     H84414  -1.315   5.107   4.701  1.2994 -3.1220  2.3781
  612MOL0     H84415  -1.367   4.947   4.548 -0.1094  1.0867 -1.2811
  612MOL0     H84416  -1.239   4.833   4.535  1.0480 -0.9857 -1.5816
  612MOL0     H84417  -1.267   4.936   4.396  2.2376 -0.4118  1.2666
  612MOL0     H84418  -0.772   4.811   4.253  0.4987  0.8839  2.0692
  612MOL0     H84419  -0.698   4.595   4.155  3.0155 -0.4919  1.3503
  612MOL0     H84420  -0.787   4.207   4.382  0.2964 -0.9088  0.2196
  612MOL0     H84421  -0.879   4.308   4.273 -1.0078 -1.9748 -0.1617
  612MOL0     H84422  -0.697   4.222   4.098  1.3627 -1.6860  0.1171
  612MOL0     H84423  -0.715   4.079   4.205 -1.3427 -1.1016  0.3945
  612MOL0     H84424  -0.867   4.072   4.017 -0.9307  0.1855 -0.4441
  612MOL0     H84425  -0.949   4.225   4.063  1.6304  1.1209  0.1189
  612MOL0     H84426  -1.024   4.102   4.280 -3.8333 -1.6759 -0.9441
  612MOL0     H84427  -0.945   3.956   4.209  1.0251 -0.0621 -0.6163
  612MOL0     H84428  -1.113   3.968   4.017  1.8023  1.1933 -0.0504
  612MOL0     H84429  -1.187   3.962   4.188 -0.6128 -0.7472  0.0092
  612MOL0     H84430  -1.159   4.211   4.001 -1.9678  2.2136 -0.2148
  612MOL0     H84431  -1.211   4.223   4.163  0.5965  0.7879 -0.6640
  612MOL0     H84432  -1.353   4.065   3.948 -1.0865 -0.0522  0.3563
  612MOL0     H84433  -1.405   4.213   4.014 -0.2844  0.1185 -1.1319
  612MOL0     H84434  -1.437   4.113   4.242 -0.4749  0.2561  0.5323
  612MOL0     H84435  -1.383   3.960   4.170  0.2816  0.5522 -0.6549
  612MOL0     H84436  -0.729   4.422   4.547  0.1479  2.0036  1.4153
  612MOL0     H84437  -0.793   4.644   4.633 -1.0819 -0.3277 -0.3653
  612MOL0     H84438  -0.833   5.089   4.605 -0.0962  0.0808  1.9718
  612MOL0     H84439  -0.930   5.275   4.746  3.2944 -2.4282  1.1532
  612MOL0     H84440  -0.299   5.007   6.214  0.7616 -1.3455 -0.8570
  612MOL0     H84441  -0.082   5.019   6.306  0.6293  1.2341  0.1458
  612MOL0     H84442   0.223   5.185   6.483  0.5687 -1.6384  1.4477
  612MOL0     H84443   0.417   5.192   6.625  1.1565 -1.9862  0.7460
  612MOL0     H84444   0.781   4.961   6.493 -1.6393  0.3087 -0.6286
  612MOL0     H84445   0.821   5.128   6.496  0.2324 -1.0419 -1.7615
  612MOL0     H84446   0.935   4.957   6.670  0.0723 -0.5573  0.5479
  612MOL0     H84447   0.790   4.937   6.759  0.8383 -0.5449 -0.7753
  612MOL0     H84448   0.927   5.199   6.710  1.4508  1.2841  1.8274
  612MOL0     H84449   0.766   5.185   6.792 -0.1564 -1.1446  2.1585
  612MOL0     H84450   0.923   5.007   6.948 -1.2741 -0.7351  0.2958
  612MOL0     H84451   0.894   5.170   6.991  0.7777 -0.0629 -0.2429
  612MOL0     H84452   1.292   5.219   6.944 -0.0979  0.3514  3.9808
  612MOL0     H84453   0.667   5.051   6.324 -0.3300  0.4147 -1.6433
  612MOL0     H84454   0.478   5.202   6.075 -3.0824 -1.8063 -0.4131
  612MOL0     H84455   0.627   5.098   6.102  0.8126  2.5046  0.8793
  612MOL0     H84456   0.475   5.022   6.066  2.7449 -0.9232 -1.9662
  613MOL0     O84457   2.775   0.190   3.263 -0.1357 -0.1022  0.8802
  613MOL0     C84458   2.750   0.278   3.177  0.0923 -0.0446 -0.3755
  613MOL0     O84459   2.647   0.282   3.089  0.2325 -0.1333 -0.3881
  613MOL0     C84460   2.564   0.187   3.077 -0.3592 -0.0072 -0.4423
  613MOL0     C84461   2.614   0.051   3.069 -0.6996  0.0853  0.4704
  613MOL0     C84462   2.520  -0.051   3.072 -0.4707  0.5853 -0.9424
  613MOL0     C84463   2.390  -0.021   3.082  0.1102  1.4343  0.5427
  613MOL0     O84464   2.303  -0.134   3.066  0.4896 -0.3283 -0.2827
  613MOL0     C84465   2.169  -0.123   3.100  0.4039  0.1704 -0.3207
  613MOL0     C84466   2.132  -0.081   3.237  0.2072 -0.2240 -0.0385
  613MOL0     C84467   2.198  -0.160   3.350  1.1372 -0.1873  0.9020
  613MOL0     C84468   2.153  -0.117   3.499 -0.2351  0.1869  0.2185
  613MOL0     C84469   2.203  -0.230   3.594 -0.1533  0.4137 -0.0026
  613MOL0     C84470   2.110  -0.216   3.720  0.1061 -0.5897  0.4901
  613MOL0     C84471   2.161  -0.311   3.832  0.7414 -1.1487  0.1208
  613MOL0     C84472   2.107  -0.456   3.819 -0.8177 -0.4856  0.5994
  613MOL0     N84473   2.182  -0.557   3.902  0.9108 -0.8073  0.1844
  613MOL0     C84474   2.198  -0.560   4.034 -0.6947 -0.2742 -0.3558
  613MOL0     C84475   2.285  -0.662   4.061  0.2085 -0.5476 -0.2816
  613MOL0     C84476   2.325  -0.726   4.195  0.2756 -0.6036  0.5021
  613MOL0     C84477   2.391  -0.635   4.295  0.2512 -0.1555 -0.3053
  613MOL0     C84478   2.281  -0.560   4.375 -0.2248  0.0590 -0.7728
  613MOL0     C84479   2.333  -0.444   4.459 -0.1642  0.2511 -0.1745
  613MOL0     O84480   2.452  -0.481   4.524 -0.4148  0.2137  0.5334
  613MOL0     C84481   2.523  -0.374   4.581 -0.1237  0.2735 -0.2971
  613MOL0     C84482   2.644  -0.342   4.527  0.1628 -1.3410  0.1196
  613MOL0     C84483   2.717  -0.236   4.583  0.1110 -0.3477  0.0086
  613MOL0     C84484   2.851  -0.204   4.521 -0.1842  0.3189  0.6317
  613MOL0     C84485   2.666  -0.171   4.695  0.2188  0.0599 -0.8455
  613MOL0     C84486   2.749  -0.066   4.765 -0.8490 -0.3268  0.6291
  613MOL0     O84487   2.683   0.043   4.801 -0.0204 -0.1730 -0.2865
  613MOL0     C84488   2.740   0.134   4.871 -0.1387 -1.1518 -0.2618
  613MOL0     C84489   2.812   0.248   4.813  0.1218 -0.5125  0.0022
  613MOL0     C84490   2.869   0.345   4.898  0.2641  0.1589 -0.1112
  613MOL0     C84491   2.863   0.333   5.037  0.1755 -0.2564 -0.2736
  613MOL0     O84492   2.905   0.439   5.110  0.3961  0.3769 -0.1568
  613MOL0     C84493   2.836   0.487   5.234 -0.1522  0.3726 -0.5812
  613MOL0     C84494   2.943   0.499   5.340 -0.5182 -0.9501 -0.3917
  613MOL0     C84495   3.025   0.372   5.361  0.4198  0.4984  0.3045
  613MOL0     C84496   3.077   0.363   5.505 -0.7598 -0.1231  0.3583
  613MOL0     C84497   3.169   0.241   5.527 -0.6125 -0.1654  0.7238
  613MOL0     C84498   3.247   0.250   5.655  0.4286 -0.2686 -0.5331
  613MOL0     C84499   3.318   0.118   5.688 -0.0986  0.0924  0.7405
  613MOL0     C84500   3.437   0.093   5.599 -0.5626  0.5730 -0.8254
  613MOL0    Cl84501   3.551  -0.048   5.659  0.1474  0.0523  0.2704
  613MOL0     C84502   2.806   0.219   5.090  0.5677  0.0666 -0.3261
  613MOL0     C84503   2.750   0.123   5.007  0.1153 -0.2586 -0.5788
  613MOL0     O84504   2.869  -0.085   4.776  0.2975  0.3266 -0.4917
  613MOL0     C84505   2.543  -0.210   4.745  0.1374  0.5615  0.1616
  613MOL0     C84506   2.474  -0.308   4.685  0.1961  0.6237 -0.8781
  613MOL0     N84507   2.327  -0.709   3.943 -0.0244  0.5682  0.4106
  613MOL0     N84508   2.272  -0.647   3.844  0.1257  0.4365  0.7199
  613MOL0     C84509   2.339   0.107   3.093  0.1175 -0.1491 -0.3463
  613MOL0     C84510   2.432   0.219   3.093  0.3263  0.1178 -0.2354
  613MOL0     C84511   2.845   0.380   3.179 -0.3407 -0.2440 -0.8413
  613MOL0     C84512   2.893   0.416   3.309  0.7637 -0.7688  0.1998
  613MOL0     C84513   2.965   0.529   3.328  0.4209  0.2657 -0.9240
  613MOL0     C84514   2.993   0.612   3.218 -0.1877  0.3693  0.0350
  613MOL0     O84515   3.053   0.733   3.246 -0.8725 -0.2641  0.2019
  613MOL0     C84516   3.126   0.752   3.370  0.1102  0.2696  0.1295
  613MOL0     C84517   3.155   0.904   3.369  0.1733 -0.3886  0.5304
  613MOL0     C84518   3.050   0.996   3.427  0.3794 -0.7189  0.2217
  613MOL0     C84519   3.116   1.132   3.459 -0.2366  0.1547 -0.1627
  613MOL0     C84520   3.019   1.218   3.522  0.2106 -0.4474  0.6944
  613MOL0     C84521   2.958   1.304   3.587  0.7291 -0.1102  0.2904
  613MOL0     C84522   2.964   0.570   3.092 -1.0971  0.2410 -0.5447
  613MOL0     C84523   2.882   0.464   3.074 -0.3411  0.4155  0.7524
  613MOL0     C84524   2.829   0.442   2.934  0.0876  0.8208  0.3282
  613MOL0     H84525   2.720   0.032   3.057 -0.3739  0.3440  2.5968
  613MOL0     H84526   2.551  -0.153   3.048 -0.2268  0.2705  0.6034
  613MOL0     H84527   2.125  -0.218   3.071  0.9655  0.1114 -1.0044
  613MOL0     H84528   2.118  -0.040   3.050 -1.2355  0.3427  1.4951
  613MOL0     H84529   2.148   0.026   3.250  0.5617 -0.0362 -1.8223
  613MOL0     H84530   2.027  -0.107   3.248  0.6197 -2.8679 -1.4718
  613MOL0     H84531   2.175  -0.265   3.332 -4.5110  1.0426 -0.8981
  613MOL0     H84532   2.307  -0.163   3.347  1.1203 -0.9706  0.8692
  613MOL0     H84533   2.180  -0.016   3.532  1.1594 -0.6993  1.9473
  613MOL0     H84534   2.044  -0.121   3.494 -0.2849  1.3244  0.0338
  613MOL0     H84535   2.309  -0.219   3.618  0.3254 -1.1637 -1.2561
  613MOL0     H84536   2.183  -0.325   3.544  0.1837 -0.0067  0.6481
  613MOL0     H84537   2.122  -0.111   3.747  1.9388  0.1920 -2.7873
  613MOL0     H84538   2.009  -0.242   3.688 -0.4676 -0.3068  1.9928
  613MOL0     H84539   2.134  -0.275   3.932  2.1194  2.3886 -0.6462
  613MOL0     H84540   2.269  -0.323   3.825  0.5525 -3.0295 -0.1450
  613MOL0     H84541   2.003  -0.471   3.849 -1.5033 -1.7674 -2.1277
  613MOL0     H84542   2.117  -0.497   3.718 -2.0037  1.8906 -0.5600
  613MOL0     H84543   2.155  -0.495   4.109  2.5753 -1.9390  3.3092
  613MOL0     H84544   2.393  -0.807   4.168 -1.4318 -1.6238 -0.9162
  613MOL0     H84545   2.235  -0.766   4.242  0.2505 -2.2468 -0.8677
  613MOL0     H84546   2.445  -0.709   4.355  0.8117  0.7659  0.3601
  613MOL0     H84547   2.461  -0.565   4.246  0.9751 -1.5121 -1.3002
  613MOL0     H84548   2.209  -0.523   4.301 -1.1759 -3.2035 -1.6650
  613MOL0     H84549   2.228  -0.628   4.441  0.5222  0.4808  0.2869
  613MOL0     H84550   2.345  -0.363   4.387 -0.5583  0.1827 -0.3218
  613MOL0     H84551   2.255  -0.409   4.528  0.4400  1.2551  0.0113
  613MOL0     H84552   2.695  -0.399   4.450  0.7107  0.9980 -1.3618
  613MOL0     H84553   2.852  -0.244   4.420 -0.3932  1.5782  0.1202
  613MOL0     H84554   2.929  -0.249   4.584 -0.6815 -1.4179  0.0458
  613MOL0     H84555   2.864  -0.095   4.522 -2.2652  0.6419  3.0068
  613MOL0     H84556   2.812   0.258   4.705  3.2536 -0.0606 -0.0452
  613MOL0     H84557   2.892   0.439   4.849  2.7487 -0.6899 -0.6964
  613MOL0     H84558   2.803   0.591   5.225 -0.3627  0.5308  1.5493
  613MOL0     H84559   2.746   0.434   5.267 -1.7827  2.1723 -1.9039
  613MOL0     H84560   3.015   0.575   5.309 -1.2371 -2.1599 -6.0676
  613MOL0     H84561   2.891   0.531   5.431  1.2190  0.2877  0.2099
  613MOL0     H84562   3.115   0.375   5.298  0.5825  2.7399  0.5530
  613MOL0     H84563   2.967   0.282   5.344  2.5827 -0.6208 -1.6993
  613MOL0     H84564   2.991   0.353   5.571 -0.0576  0.4362  1.3792
  613MOL0     H84565   3.123   0.457   5.536  2.1114  0.0389 -3.5737
  613MOL0     H84566   3.104   0.153   5.529 -1.3595  0.3557  0.2262
  613MOL0     H84567   3.245   0.222   5.451  1.8472 -1.9174  3.4120
  613MOL0     H84568   3.168   0.266   5.730 -1.7278  0.1730 -2.7612
  613MOL0     H84569   3.321   0.330   5.661  0.7834 -0.6328  0.1452
  613MOL0     H84570   3.255   0.030   5.672 -0.6716  0.8532 -1.5655
  613MOL0     H84571   3.349   0.118   5.792 -1.1420 -0.4972  1.0636
  613MOL0     H84572   3.496   0.182   5.580 -0.1996  0.6674  0.6164
  613MOL0     H84573   3.401   0.056   5.503  0.4796 -1.0795 -0.6339
  613MOL0     H84574   2.814   0.199   5.196  2.9232  2.8699  0.1411
  613MOL0     H84575   2.711   0.032   5.052 -1.7747  1.2847  1.1263
  613MOL0     H84576   2.505  -0.170   4.839  0.2252 -0.4754  0.6546
  613MOL0     H84577   2.376  -0.340   4.718 -0.0205  0.4126 -1.6837
  613MOL0     H84578   2.234   0.132   3.097  0.7056  2.7567 -0.7913
  613MOL0     H84579   2.394   0.320   3.103 -2.8726 -0.6752 -2.6880
  613MOL0     H84580   2.862   0.352   3.390 -2.2202 -2.6889 -2.1946
  613MOL0     H84581   2.986   0.548   3.432  0.7914 -2.8452 -0.3543
  613MOL0     H84582   3.067   0.730   3.459 -0.9909  0.9963 -0.4006
  613MOL0     H84583   3.215   0.689   3.380 -0.2181 -0.2486 -0.1351
  613MOL0     H84584   3.187   0.928   3.267  1.1846 -1.0635  0.6728
  613MOL0     H84585   3.240   0.921   3.435 -0.4781 -0.3808  1.3839
  613MOL0     H84586   2.976   1.010   3.348  3.0062  0.5229 -2.2284
  613MOL0     H84587   2.995   0.954   3.511 -1.8848  0.2439 -0.7033
  613MOL0     H84588   3.153   1.174   3.365  0.3408 -1.8363 -0.8678
  613MOL0     H84589   3.207   1.126   3.519  0.7513  0.1908 -1.6122
  613MOL0     H84590   2.909   1.377   3.647  2.1022 -0.7600  2.3172
  613MOL0     H84591   3.001   0.629   3.009 -3.5610  0.3384 -1.6536
  613MOL0     H84592   2.809   0.335   2.922 -0.5168  0.7979  1.4246
  613MOL0     H84593   2.736   0.494   2.911  0.7875  2.2571  0.5906
  613MOL0     H84594   2.906   0.476   2.864 -1.7129  2.7441 -0.8234
  614MOL0     O84595   6.794   5.896   4.610  1.1063  0.0007 -0.5515
  614MOL0     C84596   6.743   5.930   4.507  0.5205  0.3977  0.6530
  614MOL0     O84597   6.806   5.959   4.395 -0.1744 -0.2865  0.8189
  614MOL0     C84598   6.941   5.949   4.399  0.2742 -1.0607 -0.5285
  614MOL0     C84599   7.001   6.073   4.409 -0.8125 -0.5590  1.0562
  614MOL0     C84600   7.140   6.065   4.418  0.9326 -0.1071 -0.0886
  614MOL0     C84601   7.214   5.944   4.409 -0.5167  1.0434  0.0158
  614MOL0     O84602   7.353   5.960   4.431 -0.4924  0.3920 -0.5830
  614MOL0     C84603   7.417   5.846   4.497 -0.1714 -0.8598 -0.3069
  614MOL0     C84604   7.563   5.882   4.503 -0.6195 -0.6705 -0.3951
  614MOL0     C84605   7.646   5.870   4.379 -0.9649 -0.6511  0.9548
  614MOL0     C84606   7.799   5.885   4.420  0.2482  0.1789  0.2307
  614MOL0     C84607   7.880   5.845   4.296  0.2028  0.1742  0.2254
  614MOL0     C84608   8.033   5.844   4.346  1.4862 -0.2136  0.8444
  614MOL0     C84609   8.132   5.907   4.254 -0.9256 -0.5044  0.1821
  614MOL0     C84610   8.159   5.825   4.133 -0.3606  0.6501 -0.4976
  614MOL0     N84611   8.240   5.893   4.039 -0.7503 -0.8306  0.3418
  614MOL0     C84612   8.213   5.984   3.939 -0.6153 -0.4343  0.5530
  614MOL0     C84613   8.329   6.047   3.916  0.4971  0.3924 -0.3001
  614MOL0     C84614   8.339   6.175   3.839 -0.1812  0.3493  0.1379
  614MOL0     C84615   8.296   6.283   3.934 -0.6524 -0.0076  0.3795
  614MOL0     C84616   8.340   6.425   3.891 -0.1273 -0.2182  1.0210
  614MOL0     C84617   8.492   6.448   3.844  0.6952  0.5209  0.9694
  614MOL0     O84618   8.514   6.585   3.836 -0.1809  0.3335  0.1998
  614MOL0     C84619   8.640   6.619   3.785 -0.5989  0.1760  0.9707
  614MOL0     C84620   8.657   6.721   3.696 -0.4372 -0.1685  0.0158
  614MOL0     C84621   8.788   6.767   3.649  0.4229 -0.5494 -0.5935
  614MOL0     C84622   8.775   6.884   3.560 -0.6095  0.5671 -0.5175
  614MOL0     C84623   8.906   6.715   3.715 -0.3936 -0.6438  0.7987
  614MOL0     C84624   9.032   6.792   3.705  0.4638 -0.4931  0.3098
  614MOL0     O84625   9.043   6.895   3.607 -0.0936 -0.1513 -0.5158
  614MOL0     C84626   9.165   6.957   3.589  0.0338  0.2489  0.3877
  614MOL0     C84627   9.242   7.010   3.694 -0.8181  0.2896  0.1050
  614MOL0     C84628   9.361   7.076   3.657 -0.1340  0.7934 -0.7609
  614MOL0     C84629   9.413   7.082   3.528  0.1888  0.4695  0.3368
  614MOL0     O84630   9.534   7.150   3.507  0.5411  0.8419 -0.1721
  614MOL0     C84631   9.615   7.097   3.400 -0.0192 -0.1488 -0.0235
  614MOL0     C84632   9.647   6.951   3.420  0.0889 -0.0475  0.0883
  614MOL0     C84633   9.757   6.892   3.331 -0.5334 -0.2100  0.6962
  614MOL0     C84634   9.897   6.953   3.360 -0.7200  0.0252 -0.5542
  614MOL0     C84635   9.935   6.949   3.510  0.3079 -0.6266 -0.1836
  614MOL0     C84636  10.093   6.969   3.525  0.1015 -0.5181 -0.2218
  614MOL0     C84637  10.130   6.964   3.670  0.1999  0.9169  0.2221
  614MOL0     C84638  10.280   6.958   3.692 -0.2193 -0.3200  0.2017
  614MOL0    Cl84639  10.380   7.088   3.631  0.2058  0.3900  0.0052
  614MOL0     C84640   9.327   7.042   3.424 -0.2377 -0.2054 -0.0212
  614MOL0     C84641   9.207   6.978   3.454  0.1697 -0.2286 -0.4381
  614MOL0     O84642   9.116   6.756   3.787  0.6728 -0.0566 -0.6734
  614MOL0     C84643   8.888   6.602   3.797 -0.6492  0.1311  0.1612
  614MOL0     C84644   8.761   6.562   3.827 -0.9322  0.6049 -0.1169
  614MOL0     N84645   8.432   5.984   3.990  0.8405 -0.3894 -0.1108
  614MOL0     N84646   8.375   5.897   4.060  0.2043 -0.3543 -1.5261
  614MOL0     C84647   7.143   5.823   4.392 -0.7724  0.3160  0.0218
  614MOL0     C84648   7.003   5.832   4.381 -0.7969 -0.3639 -0.4130
  614MOL0     C84649   6.596   5.946   4.510 -0.1973 -0.2662  0.1004
  614MOL0     C84650   6.523   5.949   4.634 -0.4046 -0.2599  0.1103
  614MOL0     C84651   6.387   5.951   4.643  0.5845  0.0463 -0.4425
  614MOL0     C84652   6.309   5.937   4.532 -0.1845 -1.2357 -0.4251
  614MOL0     O84653   6.169   5.941   4.528  0.2512 -0.4694  0.1425
  614MOL0     C84654   6.089   5.921   4.644 -0.3210  0.2503 -0.1866
  614MOL0     C84655   5.949   5.888   4.585 -0.3027  1.6455 -0.1110
  614MOL0     C84656   5.946   5.771   4.479 -0.5937  0.5887 -0.7230
  614MOL0     C84657   5.812   5.695   4.495  0.2725 -0.4097  0.8007
  614MOL0     C84658   5.704   5.770   4.423  0.2464 -0.4293  0.1238
  614MOL0     C84659   5.604   5.811   4.363 -0.1914  0.3995 -0.2310
  614MOL0     C84660   6.373   5.928   4.406 -0.4157  0.8904  0.9709
  614MOL0     C84661   6.516   5.935   4.387 -0.1236 -0.1992 -0.7116
  614MOL0     C84662   6.568   5.938   4.246 -0.3067 -0.5983 -0.0200
  614MOL0     H84663   6.948   6.167   4.408 -1.5882 -0.9870 -0.6104
  614MOL0     H84664   7.195   6.156   4.442  1.3672 -0.6121  0.8632
  614MOL0     H84665   7.405   5.751   4.444 -0.1272 -1.4526  0.7220
  614MOL0     H84666   7.377   5.849   4.599  1.1382  2.8353  0.2657
  614MOL0     H84667   7.570   5.988   4.530 -0.4937 -0.8873  0.4374
  614MOL0     H84668   7.616   5.820   4.575  0.9245  1.6319  0.5749
  614MOL0     H84669   7.637   5.765   4.349  1.8091 -1.3634  2.3049
  614MOL0     H84670   7.617   5.921   4.287 -4.0838 -2.2054  0.9234
  614MOL0     H84671   7.815   5.990   4.447  3.2176  0.0003 -0.5321
  614MOL0     H84672   7.816   5.828   4.512 -1.2707 -2.2443 -0.9035
  614MOL0     H84673   7.867   5.912   4.211 -0.4165 -0.9293 -0.5845
  614MOL0     H84674   7.840   5.749   4.261 -4.2622  2.2193 -0.9990
  614MOL0     H84675   8.034   5.907   4.435  0.7484  0.5650  0.3189
  614MOL0     H84676   8.060   5.740   4.367 -1.8000 -1.1568  0.9152
  614MOL0     H84677   8.222   5.940   4.307 -1.0334 -0.2596  0.2136
  614MOL0     H84678   8.093   6.001   4.216 -3.0323 -0.9511  1.1029
  614MOL0     H84679   8.214   5.737   4.169  1.8040  2.4869  0.9914
  614MOL0     H84680   8.070   5.787   4.082  1.0132 -1.0322 -1.7636
  614MOL0     H84681   8.117   6.013   3.897 -1.8678  0.0141  3.4973
  614MOL0     H84682   8.278   6.183   3.748 -1.1882  2.9117  0.9222
  614MOL0     H84683   8.441   6.183   3.800 -0.3899 -1.5999 -0.9117
  614MOL0     H84684   8.187   6.282   3.926 -0.6856 -4.4391 -1.2611
  614MOL0     H84685   8.329   6.263   4.037 -2.7086 -0.7660  0.9443
  614MOL0     H84686   8.290   6.463   3.802  0.6408  2.0338  1.4772
  614MOL0     H84687   8.325   6.487   3.980 -3.3279 -0.1681  0.5379
  614MOL0     H84688   8.564   6.405   3.915 -0.2510  0.1843  1.7593
  614MOL0     H84689   8.513   6.397   3.750  3.7609  0.3962  1.6219
  614MOL0     H84690   8.566   6.775   3.673  0.8552  1.5054 -1.4500
  614MOL0     H84691   8.671   6.898   3.528 -0.8475 -0.1240 -0.0802
  614MOL0     H84692   8.825   6.865   3.464  1.5158  2.2621  0.1654
  614MOL0     H84693   8.817   6.967   3.617  3.3894 -0.7370 -1.2370
  614MOL0     H84694   9.224   6.998   3.801  0.4290 -1.1365  0.1841
  614MOL0     H84695   9.428   7.105   3.737  0.7131 -1.6368 -0.5138
  614MOL0     H84696   9.578   7.115   3.298  0.7182  2.8571  0.1399
  614MOL0     H84697   9.708   7.154   3.405 -0.8495  1.2832 -0.0791
  614MOL0     H84698   9.676   6.941   3.525  0.0752  2.0041  0.3275
  614MOL0     H84699   9.557   6.894   3.396 -0.0721 -0.5744  1.8068
  614MOL0     H84700   9.734   6.915   3.227 -0.7678 -0.6237  0.6538
  614MOL0     H84701   9.755   6.782   3.334 -3.2024 -0.2115  1.1095
  614MOL0     H84702   9.899   7.060   3.334  2.7506  0.7679  2.0699
  614MOL0     H84703   9.970   6.899   3.300 -1.7085  0.7157 -2.4816
  614MOL0     H84704   9.888   7.031   3.566 -0.1982  0.1110 -1.6257
  614MOL0     H84705   9.906   6.853   3.554  2.3475 -2.4565 -2.5532
  614MOL0     H84706  10.111   7.065   3.476 -1.0285  0.0330  0.3954
  614MOL0     H84707  10.139   6.887   3.469  1.9432  2.5921 -3.6353
  614MOL0     H84708  10.084   6.874   3.712  0.0682  0.6824 -0.4227
  614MOL0     H84709  10.099   7.050   3.730  1.4764  1.5866 -0.0357
  614MOL0     H84710  10.309   6.865   3.642  0.1951 -0.0146 -0.1333
  614MOL0     H84711  10.297   6.942   3.799 -3.4833 -3.6323  0.4550
  614MOL0     H84712   9.350   7.062   3.319 -1.8269  0.7939 -0.2120
  614MOL0     H84713   9.134   6.948   3.379 -1.0635  1.9449 -0.1840
  614MOL0     H84714   8.968   6.564   3.859 -1.8027  1.0361  2.3196
  614MOL0     H84715   8.752   6.471   3.886  2.1205 -1.7885 -2.9675
  614MOL0     H84716   7.174   5.719   4.389 -2.9171 -0.4245  1.2768
  614MOL0     H84717   6.943   5.742   4.373 -0.5299 -0.9214  2.6463
  614MOL0     H84718   6.572   5.941   4.730 -2.3933 -0.3524  1.1693
  614MOL0     H84719   6.344   5.936   4.742 -0.5184 -0.0068 -0.9202
  614MOL0     H84720   6.125   5.841   4.709  1.7290  1.9942  0.9522
  614MOL0     H84721   6.075   6.009   4.707 -2.3805 -1.0529  1.3307
  614MOL0     H84722   5.905   5.977   4.539  1.1780  4.8725  4.0834
  614MOL0     H84723   5.885   5.848   4.664  0.7115  0.9355  0.3779
  614MOL0     H84724   5.948   5.808   4.376 -2.1600  2.6586 -0.0724
  614MOL0     H84725   6.029   5.700   4.490 -1.1400  0.3723  3.3965
  614MOL0     H84726   5.793   5.664   4.598  0.3655 -1.7737  0.4234
  614MOL0     H84727   5.821   5.599   4.443 -1.0646  0.4631 -1.1534
  614MOL0     H84728   5.510   5.851   4.329 -0.6015 -0.5545 -0.2381
  614MOL0     H84729   6.315   5.915   4.315  1.3641  1.0186 -0.2406
  614MOL0     H84730   6.650   6.009   4.234  0.3488 -1.2910  0.2608
  614MOL0     H84731   6.600   5.842   4.205  0.9734 -0.9416  1.6879
  614MOL0     H84732   6.502   5.981   4.170  1.0708 -0.3621 -1.1265
  615MOL0     O84733   4.982   3.744   6.047 -0.0950  0.6436  0.3854
  615MOL0     C84734   5.019   3.739   5.936 -0.1821 -0.4243 -0.7635
  615MOL0     O84735   5.149   3.715   5.892  0.6025  0.1214 -0.5892
  615MOL0     C84736   5.264   3.706   5.965 -0.7280 -0.2021 -0.6486
  615MOL0     C84737   5.278   3.769   6.094  0.2338  0.3439  0.8928
  615MOL0     C84738   5.402   3.759   6.167  0.1009 -0.4878  0.2817
  615MOL0     C84739   5.518   3.700   6.102  0.4576 -0.5359  0.9600
  615MOL0     O84740   5.649   3.688   6.145  0.1264 -0.0562  0.1594
  615MOL0     C84741   5.688   3.745   6.274  0.2793  0.0399 -0.6243
  615MOL0     C84742   5.783   3.644   6.336  0.2717 -0.4826 -0.0609
  615MOL0     C84743   5.916   3.680   6.277 -0.0884  1.4110  0.3856
  615MOL0     C84744   6.031   3.602   6.354 -0.5930 -1.1368  0.3119
  615MOL0     C84745   6.163   3.639   6.284  0.2635  0.0067  0.3811
  615MOL0     C84746   6.289   3.552   6.329 -0.3101  0.2150  0.3909
  615MOL0     C84747   6.420   3.629   6.309 -0.5029 -0.8394 -1.0556
  615MOL0     C84748   6.540   3.556   6.377  0.9112 -0.2414  1.0385
  615MOL0     N84749   6.668   3.625   6.361  0.3109 -0.2742 -0.1767
  615MOL0     C84750   6.740   3.612   6.249 -0.1163  0.7634  0.0091
  615MOL0     C84751   6.845   3.692   6.272 -0.0386 -0.0250 -1.0609
  615MOL0     C84752   6.970   3.684   6.188  0.4854 -0.6455 -0.2340
  615MOL0     C84753   6.993   3.819   6.124  1.1515  0.6824 -0.3770
  615MOL0     C84754   7.119   3.847   6.048 -0.4119 -0.3952  0.4122
  615MOL0     C84755   7.234   3.880   6.142 -0.1343  0.1662 -0.6476
  615MOL0     O84756   7.351   3.899   6.056  0.3795 -0.2178 -0.6307
  615MOL0     C84757   7.394   4.028   6.022  0.5456  1.0996  0.7229
  615MOL0     C84758   7.525   4.030   5.967 -0.1900  0.2382 -0.1703
  615MOL0     C84759   7.599   4.150   5.960 -0.7459 -0.4815  0.2326
  615MOL0     C84760   7.744   4.131   5.927 -0.4089 -0.3303 -0.6403
  615MOL0     C84761   7.538   4.274   5.977 -0.7096 -0.0595 -0.8200
  615MOL0     C84762   7.602   4.409   5.956 -0.7572  0.3794 -0.1586
  615MOL0     O84763   7.531   4.507   6.019 -1.0859 -0.0384 -0.1293
  615MOL0     C84764   7.590   4.627   6.054 -0.2512 -0.3872 -0.4055
  615MOL0     C84765   7.495   4.714   6.116 -0.7067 -0.8183  0.8335
  615MOL0     C84766   7.542   4.837   6.174  0.0160 -0.1863  0.5154
  615MOL0     C84767   7.677   4.864   6.174  0.2342  0.2164  0.0093
  615MOL0     O84768   7.711   4.977   6.248  0.4798  0.2384  0.0229
  615MOL0     C84769   7.773   5.079   6.176 -0.1700 -0.0518 -0.0596
  615MOL0     C84770   7.799   5.213   6.248 -0.0937 -0.5621  0.8573
  615MOL0     C84771   7.666   5.286   6.274 -0.4333  0.1703  0.8338
  615MOL0     C84772   7.668   5.419   6.356 -0.7039  0.2661  0.7559
  615MOL0     C84773   7.528   5.463   6.404 -0.2711 -0.8632  0.3121
  615MOL0     C84774   7.544   5.600   6.464  0.8432 -0.4146  0.2680
  615MOL0     C84775   7.408   5.650   6.519  0.9415 -0.4742 -0.5912
  615MOL0     C84776   7.308   5.670   6.401  0.6422 -0.2748 -0.4150
  615MOL0    Cl84777   7.186   5.524   6.406  0.1030  0.0502 -0.2270
  615MOL0     C84778   7.769   4.775   6.111  0.2093 -0.5775 -0.1853
  615MOL0     C84779   7.727   4.663   6.046  0.5678  0.3712 -0.2133
  615MOL0     O84780   7.696   4.415   5.872 -0.7901  0.1928 -0.4445
  615MOL0     C84781   7.402   4.272   6.008  0.0778 -0.0407 -0.2075
  615MOL0     C84782   7.335   4.150   6.044 -0.5961 -0.5663  0.4677
  615MOL0     N84783   6.830   3.751   6.397  0.1290  0.7031  0.3516
  615MOL0     N84784   6.722   3.710   6.449  0.2979 -0.8798 -0.4265
  615MOL0     C84785   5.494   3.653   5.980 -0.9299 -0.3156  0.5869
  615MOL0     C84786   5.371   3.646   5.917 -0.1927  0.4608 -0.1185
  615MOL0     C84787   4.910   3.743   5.828 -0.7740  0.2131 -0.5161
  615MOL0     C84788   4.959   3.740   5.701 -1.0291  0.4534 -0.9333
  615MOL0     C84789   4.879   3.724   5.591  0.0293  0.0069  0.6727
  615MOL0     C84790   4.740   3.731   5.604 -0.0466 -0.3924  0.0120
  615MOL0     O84791   4.666   3.709   5.488  0.6059  0.5459  0.3516
  615MOL0     C84792   4.527   3.699   5.493 -0.3681  0.2406 -0.1960
  615MOL0     C84793   4.486   3.560   5.550  0.3641  0.3967 -0.3341
  615MOL0     C84794   4.510   3.444   5.451 -0.2984 -0.3522  0.5942
  615MOL0     C84795   4.391   3.393   5.367  0.2162  0.5827  0.4526
  615MOL0     C84796   4.348   3.498   5.273 -0.1274 -0.4315 -0.5926
  615MOL0     C84797   4.295   3.587   5.203  0.4170 -0.1550  0.0982
  615MOL0     C84798   4.688   3.755   5.735  0.0462  0.5035 -1.0961
  615MOL0     C84799   4.769   3.752   5.855  0.2640 -0.0035 -0.3646
  615MOL0     C84800   4.704   3.725   5.985 -0.2982  0.6198  0.0225
  615MOL0     H84801   5.190   3.801   6.149 -0.8789 -2.3852  0.8558
  615MOL0     H84802   5.412   3.801   6.267  1.2656  0.1780 -0.0939
  615MOL0     H84803   5.606   3.768   6.342 -0.3588 -0.5200 -1.1968
  615MOL0     H84804   5.734   3.840   6.245 -1.6032  0.6794 -1.6156
  615MOL0     H84805   5.785   3.640   6.446  4.6108 -3.9216 -0.0133
  615MOL0     H84806   5.756   3.544   6.300  1.9437 -0.5234 -1.2976
  615MOL0     H84807   5.916   3.635   6.177  1.5762  0.9706  0.5578
  615MOL0     H84808   5.955   3.780   6.260  4.0816 -0.2355 -0.9048
  615MOL0     H84809   6.032   3.635   6.459  0.2405 -2.1256  0.6340
  615MOL0     H84810   6.008   3.495   6.355  1.4408 -1.8342 -4.2993
  615MOL0     H84811   6.172   3.742   6.321  2.4817 -1.1321  3.3448
  615MOL0     H84812   6.144   3.628   6.176 -3.2558  1.1541  0.7410
  615MOL0     H84813   6.271   3.531   6.435  1.2555 -0.9261  0.4797
  615MOL0     H84814   6.296   3.456   6.277  3.0395  0.6637 -0.2291
  615MOL0     H84815   6.411   3.729   6.354  0.4402 -2.1249  2.3575
  615MOL0     H84816   6.444   3.639   6.203 -0.1650 -0.4188 -0.9450
  615MOL0     H84817   6.507   3.531   6.478  0.1819 -0.6173  0.7164
  615MOL0     H84818   6.554   3.456   6.333  0.0011  0.9049 -2.0830
  615MOL0     H84819   6.714   3.543   6.169  1.0659  0.6041 -0.2562
  615MOL0     H84820   6.949   3.603   6.118 -2.6547 -0.9512  0.8668
  615MOL0     H84821   7.051   3.652   6.255  2.2105  0.0005 -1.9239
  615MOL0     H84822   6.909   3.820   6.054  1.9432  1.8782 -1.3621
  615MOL0     H84823   6.979   3.899   6.197  1.2634  0.9714 -0.6719
  615MOL0     H84824   7.149   3.767   5.979 -1.0546 -1.1667  1.0088
  615MOL0     H84825   7.101   3.940   5.993  0.0020 -0.1700  0.6527
  615MOL0     H84826   7.216   3.970   6.201  0.8953  0.6147 -0.9908
  615MOL0     H84827   7.251   3.797   6.212 -1.6060  0.1868 -0.2368
  615MOL0     H84828   7.564   3.931   5.947  0.4016  0.8391 -2.2085
  615MOL0     H84829   7.780   4.031   5.955  1.0173  1.1251  3.4898
  615MOL0     H84830   7.815   4.204   5.966 -1.3440 -0.5961  1.7459
  615MOL0     H84831   7.756   4.146   5.819 -2.6574 -0.9465 -1.0142
  615MOL0     H84832   7.390   4.688   6.123 -1.5299  0.9570 -2.6503
  615MOL0     H84833   7.470   4.896   6.230 -1.3217 -1.8293  0.6273
  615MOL0     H84834   7.869   5.043   6.137  0.8425 -4.0513  5.0161
  615MOL0     H84835   7.706   5.111   6.096 -0.9991  3.1375  1.7518
  615MOL0     H84836   7.845   5.187   6.344 -0.3249  1.4813  1.5731
  615MOL0     H84837   7.861   5.287   6.195 -1.6323 -0.0992 -0.3819
  615MOL0     H84838   7.596   5.222   6.330 -1.2977 -2.3254 -2.7191
  615MOL0     H84839   7.621   5.297   6.175 -2.3853 -3.8430  1.0699
  615MOL0     H84840   7.700   5.494   6.283  0.7803  1.6703  2.7504
  615MOL0     H84841   7.742   5.409   6.435 -0.5876 -0.9880  0.5084
  615MOL0     H84842   7.461   5.456   6.317 -1.7807 -1.9379  1.5159
  615MOL0     H84843   7.495   5.399   6.486  4.3213 -1.3886  2.0463
  615MOL0     H84844   7.585   5.669   6.389  0.1059  0.2183  0.4315
  615MOL0     H84845   7.612   5.605   6.549  0.5417  0.1331  0.4837
  615MOL0     H84846   7.423   5.750   6.561 -0.3300 -0.8971  0.9491
  615MOL0     H84847   7.359   5.591   6.597 -1.4522  0.6413 -1.1485
  615MOL0     H84848   7.355   5.671   6.302  2.3393  0.3216  0.3496
  615MOL0     H84849   7.235   5.751   6.411 -0.8411 -1.7805  1.6947
  615MOL0     H84850   7.874   4.800   6.102  0.4297 -0.0613  2.7522
  615MOL0     H84851   7.792   4.589   5.999 -2.3741 -3.3916  1.1433
  615MOL0     H84852   7.351   4.366   6.026  1.6817  1.2860 -2.2113
  615MOL0     H84853   7.230   4.157   6.073 -1.1847  0.9151 -1.7236
  615MOL0     H84854   5.573   3.603   5.924  0.0106 -0.1969  1.7788
  615MOL0     H84855   5.360   3.593   5.824 -2.8631  1.6932 -0.6181
  615MOL0     H84856   5.064   3.746   5.675 -0.8525  0.9096 -0.1361
  615MOL0     H84857   4.914   3.731   5.489 -2.7659 -0.0361 -0.3798
  615MOL0     H84858   4.498   3.772   5.569  3.4807 -0.5114  2.3184
  615MOL0     H84859   4.478   3.714   5.397  0.0672  2.6354 -0.1172
  615MOL0     H84860   4.384   3.555   5.588  0.0852  2.0778 -0.8082
  615MOL0     H84861   4.549   3.531   5.635 -0.0406  0.7552  0.0907
  615MOL0     H84862   4.595   3.465   5.385 -1.2259  1.3450 -0.1262
  615MOL0     H84863   4.540   3.358   5.512  0.3338 -0.2272  0.4723
  615MOL0     H84864   4.310   3.371   5.437 -0.3298  3.7905  0.9820
  615MOL0     H84865   4.405   3.304   5.305 -1.7715  0.4582  0.1296
  615MOL0     H84866   4.233   3.661   5.156 -2.0745 -2.3676 -0.3183
  615MOL0     H84867   4.582   3.755   5.756  0.3958  1.9189  0.9254
  615MOL0     H84868   4.597   3.743   5.978  0.1388  2.9605 -2.4124
  615MOL0     H84869   4.720   3.621   6.015 -1.4147  0.8424  1.4801
  615MOL0     H84870   4.743   3.790   6.063 -2.8876 -1.3145  3.1887
  616MOL0     O84871   7.270   3.760   7.564 -0.4296  0.0363 -0.1186
  616MOL0     C84872   7.166   3.697   7.555 -0.3443  0.1088 -0.6444
  616MOL0     O84873   7.165   3.560   7.568  0.0609 -0.2644 -0.1033
  616MOL0     C84874   7.279   3.494   7.587  0.5215 -0.1306  0.8700
  616MOL0     C84875   7.391   3.522   7.499 -0.0881 -0.4051 -0.0362
  616MOL0     C84876   7.506   3.442   7.497 -0.5930  0.4403  0.4200
  616MOL0     C84877   7.509   3.326   7.582  0.1437 -0.1091 -0.7587
  616MOL0     O84878   7.619   3.245   7.579 -0.9424 -1.1163  0.1569
  616MOL0     C84879   7.669   3.213   7.715  0.6226  1.7877 -0.0915
  616MOL0     C84880   7.819   3.182   7.698 -0.1884 -0.1300  0.6211
  616MOL0     C84881   7.893   3.314   7.658  0.1219 -0.7079  0.1417
  616MOL0     C84882   8.036   3.278   7.620  0.4423  0.1158  0.3334
  616MOL0     C84883   8.093   3.404   7.564 -0.4439 -0.8050  0.3599
  616MOL0     C84884   8.243   3.377   7.532  0.1339 -0.2896  0.1497
  616MOL0     C84885   8.323   3.505   7.510 -0.7715  0.5524  0.1729
  616MOL0     C84886   8.461   3.478   7.489 -0.0814  0.0709  0.2189
  616MOL0     N84887   8.538   3.604   7.473  0.3648  0.3211 -0.0629
  616MOL0     C84888   8.523   3.698   7.374  1.3678  0.0239 -0.0117
  616MOL0     C84889   8.638   3.775   7.381  0.2007  0.4610 -0.1983
  616MOL0     C84890   8.675   3.896   7.300  0.9378 -0.9215  0.1652
  616MOL0     C84891   8.812   3.909   7.247  0.2609 -0.0902  0.4447
  616MOL0     C84892   8.873   3.777   7.196  0.1593  0.6833  1.5201
  616MOL0     C84893   9.024   3.788   7.175 -0.1575  0.3925  0.1238
  616MOL0     O84894   9.073   3.653   7.180  0.4418  0.0562  0.2376
  616MOL0     C84895   9.210   3.639   7.183  0.4362  0.8264 -0.5389
  616MOL0     C84896   9.261   3.508   7.208  0.4190 -0.1418 -0.3041
  616MOL0     C84897   9.401   3.472   7.205 -0.0665 -0.0107 -0.1043
  616MOL0     C84898   9.433   3.330   7.227  0.1011  0.1640 -0.8133
  616MOL0     C84899   9.497   3.575   7.196 -0.0609 -0.6149 -0.5702
  616MOL0     C84900   9.647   3.558   7.207  0.3675  0.0261  0.5999
  616MOL0     O84901   9.727   3.674   7.219 -1.0943  0.2800 -0.2356
  616MOL0     C84902   9.862   3.663   7.182 -0.2690 -0.2190  0.0308
  616MOL0     C84903   9.900   3.635   7.049 -0.5622  0.2031  0.7427
  616MOL0     C84904  10.040   3.640   7.006  0.6360 -0.8115 -0.1963
  616MOL0     C84905  10.138   3.686   7.092  0.2825  0.0906 -1.0021
  616MOL0     O84906  10.267   3.704   7.060  0.1565 -0.3298  0.1841
  616MOL0     C84907  10.307   3.711   6.925 -0.3011  0.3057 -0.7895
  616MOL0     C84908  10.269   3.837   6.840 -0.0948  0.7898  0.1607
  616MOL0     C84909  10.300   3.961   6.915  0.0016 -0.1660  0.0964
  616MOL0     C84910  10.273   4.086   6.827  0.0490  0.5086 -0.3777
  616MOL0     C84911  10.312   4.217   6.897  0.3956 -0.1991  0.1259
  616MOL0     C84912  10.470   4.247   6.894  0.3162  0.0023  0.6526
  616MOL0     C84913  10.523   4.352   7.000  1.1868 -0.2901 -0.6525
  616MOL0     C84914  10.672   4.386   6.985 -0.3099  0.4970  1.0850
  616MOL0    Cl84915  10.691   4.474   6.828 -0.3436  0.2616  0.1835
  616MOL0     C84916  10.104   3.716   7.226  1.3946  0.6468  0.1508
  616MOL0     C84917   9.964   3.708   7.268  0.2187  0.5806  0.0885
  616MOL0     O84918   9.687   3.444   7.198 -0.4091 -0.5264 -0.6822
  616MOL0     C84919   9.442   3.709   7.177 -0.0032  0.4693 -0.3633
  616MOL0     C84920   9.308   3.742   7.156  0.4677 -0.0956 -0.6166
  616MOL0     N84921   8.717   3.728   7.488  1.0227 -0.3790 -0.0446
  616MOL0     N84922   8.648   3.626   7.542 -0.2169 -0.3853  0.0760
  616MOL0     C84923   7.398   3.304   7.668  0.2621  0.3696 -0.4888
  616MOL0     C84924   7.280   3.376   7.663 -1.4653 -0.4395 -0.1006
  616MOL0     C84925   7.034   3.766   7.544 -0.1482 -0.3294  0.0857
  616MOL0     C84926   6.919   3.691   7.536 -0.5698  0.3421  0.0415
  616MOL0     C84927   6.792   3.747   7.519 -0.1831  0.4069  0.5266
  616MOL0     C84928   6.769   3.886   7.529  0.3459  0.4013  0.1987
  616MOL0     O84929   6.653   3.953   7.518  0.5004  0.1354 -0.5279
  616MOL0     C84930   6.528   3.884   7.544 -0.0453  0.2640  0.8774
  616MOL0     C84931   6.465   3.856   7.407  0.6508  1.1246  0.6735
  616MOL0     C84932   6.332   3.779   7.402 -0.0201 -0.2108  0.6519
  616MOL0     C84933   6.238   3.834   7.296 -0.3888 -0.7331  0.4493
  616MOL0     C84934   6.135   3.903   7.373  0.1563  0.8909  0.0411
  616MOL0     C84935   6.036   3.940   7.439 -0.1707  0.3412  0.1606
  616MOL0     C84936   6.883   3.961   7.553 -0.5267 -0.6090 -0.3204
  616MOL0     C84937   7.017   3.905   7.557 -0.7488  0.1136  0.3248
  616MOL0     C84938   7.129   4.013   7.574 -0.2072 -0.9210  0.4198
  616MOL0     H84939   7.402   3.609   7.434  2.3694  0.7012  1.6850
  616MOL0     H84940   7.593   3.466   7.437 -1.1422  2.2817  0.2999
  616MOL0     H84941   7.624   3.122   7.756  1.3105  1.7820  0.6866
  616MOL0     H84942   7.652   3.296   7.784  1.7254  1.1363  1.0004
  616MOL0     H84943   7.864   3.136   7.786 -3.8293 -0.9709  2.2303
  616MOL0     H84944   7.825   3.109   7.616 -3.0836  0.1867 -0.0012
  616MOL0     H84945   7.844   3.376   7.582  1.6939 -0.3782 -0.6430
  616MOL0     H84946   7.891   3.383   7.743  3.1854  1.2939 -1.2407
  616MOL0     H84947   8.099   3.243   7.703 -0.2343  0.2569  0.9097
  616MOL0     H84948   8.034   3.198   7.544 -1.6354 -2.1457  2.5792
  616MOL0     H84949   8.070   3.478   7.641 -1.1916 -2.1509  1.4731
  616MOL0     H84950   8.048   3.445   7.473 -2.0158  3.3283  2.7146
  616MOL0     H84951   8.283   3.313   7.611 -0.4425  1.3589  1.8409
  616MOL0     H84952   8.252   3.310   7.446  1.2182  0.2171 -0.1569
  616MOL0     H84953   8.322   3.563   7.603  1.4921 -0.7639  1.0890
  616MOL0     H84954   8.292   3.558   7.419 -2.1315  0.3495  0.4979
  616MOL0     H84955   8.495   3.427   7.580 -0.9755  0.8056  0.9831
  616MOL0     H84956   8.477   3.420   7.398  4.1356  1.8319 -0.3933
  616MOL0     H84957   8.451   3.726   7.298  0.7973  0.0551  0.5312
  616MOL0     H84958   8.657   3.985   7.361 -0.5109  0.6872 -2.4460
  616MOL0     H84959   8.609   3.901   7.213 -1.4476  1.5204  1.9355
  616MOL0     H84960   8.820   3.987   7.171  1.3126  0.3695  1.0002
  616MOL0     H84961   8.864   3.940   7.338 -0.8585  0.3071  0.9628
  616MOL0     H84962   8.867   3.690   7.261  1.9972 -1.4433 -0.9543
  616MOL0     H84963   8.817   3.743   7.108  1.7577 -1.2209  1.1783
  616MOL0     H84964   9.055   3.827   7.077  0.5835 -0.5774 -0.0464
  616MOL0     H84965   9.062   3.856   7.253  0.4126 -0.2113  0.3835
  616MOL0     H84966   9.183   3.434   7.227 -1.1592  1.4526 -0.3111
  616MOL0     H84967   9.485   3.301   7.135  0.6276 -2.1732  0.1603
  616MOL0     H84968   9.343   3.267   7.227  0.0964  0.1665 -0.4900
  616MOL0     H84969   9.493   3.316   7.317 -0.5984 -1.0443 -0.5096
  616MOL0     H84970   9.819   3.607   6.982 -2.0248 -2.4202  3.3777
  616MOL0     H84971  10.064   3.614   6.904 -1.6138 -0.2942 -0.9190
  616MOL0     H84972  10.416   3.707   6.939 -0.5596  2.3512  3.1738
  616MOL0     H84973  10.273   3.618   6.877 -0.8334  1.0923 -1.9662
  616MOL0     H84974  10.322   3.833   6.744 -1.9922 -3.0110 -0.9470
  616MOL0     H84975  10.161   3.837   6.820 -0.7645  0.4455  3.2800
  616MOL0     H84976  10.399   3.960   6.962 -0.4745 -2.2957  1.1350
  616MOL0     H84977  10.231   3.965   7.000  1.8868 -1.4404  1.7664
  616MOL0     H84978  10.169   4.089   6.794  0.0200 -1.4054 -0.5554
  616MOL0     H84979  10.328   4.070   6.733  0.0482 -0.5225 -0.2106
  616MOL0     H84980  10.260   4.296   6.842  1.5250 -0.0995 -0.8487
  616MOL0     H84981  10.274   4.213   6.999  0.4931  1.3335  0.2573
  616MOL0     H84982  10.488   4.286   6.794 -2.9361  1.3783  0.4912
  616MOL0     H84983  10.528   4.155   6.903 -0.8957 -1.4087 -3.6290
  616MOL0     H84984  10.515   4.325   7.105  1.7502  1.7680 -0.0317
  616MOL0     H84985  10.456   4.435   6.977 -0.8195 -1.5428  0.4540
  616MOL0     H84986  10.738   4.300   6.971 -2.2787 -0.8717 -0.0970
  616MOL0     H84987  10.700   4.438   7.077  0.8693 -0.6528  1.4012
  616MOL0     H84988  10.183   3.735   7.298  2.9327 -2.0489 -0.6818
  616MOL0     H84989   9.924   3.732   7.366  0.9767  0.4393  0.4373
  616MOL0     H84990   9.519   3.785   7.168  3.3399 -2.4295  1.2290
  616MOL0     H84991   9.289   3.845   7.128  0.5314  0.1136  0.0915
  616MOL0     H84992   7.394   3.221   7.737 -1.4534  1.2175  0.5136
  616MOL0     H84993   7.204   3.359   7.738 -0.4316  1.0611  1.3605
  616MOL0     H84994   6.930   3.583   7.533 -0.8962  0.3357 -1.7555
  616MOL0     H84995   6.707   3.679   7.515  0.0597  0.0581  1.2170
  616MOL0     H84996   6.538   3.797   7.610 -1.2380  0.8518  1.8723
  616MOL0     H84997   6.461   3.953   7.595 -2.6303 -2.4245  1.4217
  616MOL0     H84998   6.538   3.806   7.343 -1.1178  0.4291 -0.8856
  616MOL0     H84999   6.447   3.953   7.359  2.1726  1.5150  0.8242
  616MOL0     H85000   6.351   3.676   7.372  2.7247  0.1915  0.7758
  616MOL0     H85001   6.282   3.793   7.499 -1.6525  1.6228 -0.3759
  616MOL0     H85002   6.199   3.756   7.230  0.4727 -1.2042  0.4787
  616MOL0     H85003   6.287   3.911   7.234  2.8879 -1.1819  2.2221
  616MOL0     H85004   5.959   3.968   7.507  1.4764 -1.8153  3.1256
  616MOL0     H85005   6.864   4.068   7.562  1.3986 -0.1912 -0.7381
  616MOL0     H85006   7.088   4.111   7.599  3.6755  1.5294 -1.7644
  616MOL0     H85007   7.209   3.985   7.644  0.3926  0.1809  0.1856
  616MOL0     H85008   7.189   4.029   7.484  0.5531  0.1769  1.1016
  617MOL0     O85009   2.618  10.463   2.756  0.2295  0.6324 -1.1928
  617MOL0     C85010   2.676  10.562   2.806  0.1828  0.8449  0.3456
  617MOL0     O85011   2.786  10.549   2.879 -0.2272  0.6321  0.0949
  617MOL0     C85012   2.849  10.437   2.918  0.3693  0.0493 -0.1405
  617MOL0     C85013   2.833  10.308   2.876 -0.8588 -1.4590 -0.3535
  617MOL0     C85014   2.912  10.209   2.927  0.0997 -0.2567 -0.3284
  617MOL0     C85015   3.003  10.234   3.031  0.8418  0.8857  0.5290
  617MOL0     O85016   3.075  10.135   3.100 -0.1067  0.0690  0.0027
  617MOL0     C85017   3.052   9.993   3.084  0.2055 -0.7685  0.4967
  617MOL0     C85018   3.129   9.928   2.964 -0.8199 -0.4853 -0.5006
  617MOL0     C85019   3.283   9.909   2.996 -0.3653 -0.3737 -0.0578
  617MOL0     C85020   3.364   9.889   2.864 -0.1865 -0.2289  0.5692
  617MOL0     C85021   3.505   9.831   2.874  0.0054  0.3856  0.6229
  617MOL0     C85022   3.605   9.914   2.946 -0.6235  0.8120 -0.2724
  617MOL0     C85023   3.746   9.858   2.948 -0.1750  0.2966 -0.7627
  617MOL0     C85024   3.843   9.936   3.041  0.3334 -0.1805  0.1503
  617MOL0     N85025   3.974   9.889   3.021 -0.5196 -0.1896  0.1700
  617MOL0     C85026   4.073   9.901   3.115  0.7241  0.3756  0.0271
  617MOL0     C85027   4.185   9.872   3.043 -0.4701  0.5157 -0.3519
  617MOL0     C85028   4.322   9.877   3.102  0.5223 -0.1457 -0.3092
  617MOL0     C85029   4.409   9.758   3.044  0.4443  0.4523  0.1952
  617MOL0     C85030   4.516   9.696   3.130 -0.8220 -0.0296  0.5951
  617MOL0     C85031   4.614   9.808   3.183  0.3050 -0.0376 -0.6048
  617MOL0     O85032   4.660   9.869   3.076 -0.6230 -0.4856 -0.0733
  617MOL0     C85033   4.777   9.844   3.011  0.0994  0.3716  0.0296
  617MOL0     C85034   4.798   9.910   2.896  0.6110  0.0329 -0.5874
  617MOL0     C85035   4.916   9.892   2.819  0.5100 -0.1404 -0.2097
  617MOL0     C85036   4.910   9.984   2.691  0.6426 -0.3536  0.3789
  617MOL0     C85037   5.019   9.808   2.860  0.1412 -0.8297  0.4624
  617MOL0     C85038   5.137   9.784   2.764  0.9316  0.1680  0.0271
  617MOL0     O85039   5.239   9.711   2.819  0.1642  0.1275  0.3873
  617MOL0     C85040   5.352   9.680   2.748  0.6110  0.0314 -0.0382
  617MOL0     C85041   5.400   9.736   2.627 -0.7012 -0.0781  0.0633
  617MOL0     C85042   5.502   9.673   2.558 -1.0665  0.2047  0.0013
  617MOL0     C85043   5.571   9.567   2.615 -0.1001  1.2612 -1.0617
  617MOL0     O85044   5.686   9.520   2.551  0.0646  0.5982  0.2638
  617MOL0     C85045   5.761   9.406   2.604  0.2493 -0.3659  0.0616
  617MOL0     C85046   5.873   9.375   2.506  0.9425 -0.1443 -0.5357
  617MOL0     C85047   5.977   9.286   2.568 -0.0020  0.1946  0.5134
  617MOL0     C85048   6.088   9.246   2.473  0.4927 -1.0598 -0.5404
  617MOL0     C85049   6.140   9.104   2.498 -0.5805 -0.4948 -0.7313
  617MOL0     C85050   6.224   9.101   2.630 -0.3254  0.0451 -0.2142
  617MOL0     C85051   6.250   8.955   2.661  0.4925  0.4767  0.3549
  617MOL0     C85052   6.342   8.884   2.554  0.0778 -0.5342 -0.6593
  617MOL0    Cl85053   6.492   8.974   2.521  0.2006 -0.2764 -0.3594
  617MOL0     C85054   5.519   9.511   2.735  0.3367  0.4671 -0.6206
  617MOL0     C85055   5.417   9.574   2.806 -0.3766 -0.4628  0.1368
  617MOL0     O85056   5.117   9.800   2.643 -0.4255  0.0216  0.4740
  617MOL0     C85057   5.002   9.750   2.988 -0.3545 -0.2495 -0.1311
  617MOL0     C85058   4.880   9.763   3.060 -0.2437  0.2669  0.1038
  617MOL0     N85059   4.150   9.843   2.913  0.4976 -0.5732  0.7544
  617MOL0     N85060   4.025   9.853   2.900  0.5315  0.0349  0.2138
  617MOL0     C85061   3.025  10.369   3.067  0.7127  0.8112 -0.9772
  617MOL0     C85062   2.945  10.466   3.017  0.0724  1.2298  0.0360
  617MOL0     C85063   2.612  10.694   2.791 -0.1277  0.3142 -0.6773
  617MOL0     C85064   2.532  10.708   2.674 -0.3247 -0.3800 -0.0189
  617MOL0     C85065   2.464  10.833   2.652 -0.3327 -0.6010 -0.9790
  617MOL0     C85066   2.476  10.944   2.740  0.7168 -0.3038  0.3609
  617MOL0     O85067   2.427  11.072   2.717  0.4472 -0.0249  0.4144
  617MOL0     C85068   2.311  11.075   2.628  0.6301 -0.1447  0.2998
  617MOL0     C85069   2.244  11.204   2.646  0.3209  0.2191 -0.3657
  617MOL0     C85070   2.332  11.331   2.633 -0.4020  0.4813  0.4043
  617MOL0     C85071   2.252  11.463   2.675 -0.4957  0.7460  1.2958
  617MOL0     C85072   2.147  11.498   2.576  1.0586  0.5956  0.5646
  617MOL0     C85073   2.069  11.524   2.488 -0.0036  1.0012  0.3303
  617MOL0     C85074   2.553  10.923   2.859 -0.0373 -0.0832  0.2816
  617MOL0     C85075   2.617  10.800   2.885  0.3619 -0.2196  0.6350
  617MOL0     C85076   2.683  10.790   3.020  0.3382 -0.2645  0.5245
  617MOL0     H85077   2.767  10.281   2.793 -0.2617  1.3488 -1.8543
  617MOL0     H85078   2.893  10.107   2.896  2.2106 -1.1046  0.9595
  617MOL0     H85079   2.943   9.990   3.071 -0.1992  4.2872  0.6299
  617MOL0     H85080   3.084   9.948   3.178  0.4939  1.3381  1.4714
  617MOL0     H85081   3.086   9.832   2.934  1.9093 -1.4139 -1.7386
  617MOL0     H85082   3.127   9.998   2.880  0.0107  0.3850  0.1711
  617MOL0     H85083   3.320   9.991   3.057  1.2048  1.2524 -3.0068
  617MOL0     H85084   3.295   9.816   3.053  1.7088  0.2532  0.6000
  617MOL0     H85085   3.306   9.831   2.791 -0.6032  3.8281 -2.6703
  617MOL0     H85086   3.358   9.988   2.817  2.2246  0.2294  1.0957
  617MOL0     H85087   3.547   9.789   2.782  0.0444  2.2645 -0.2813
  617MOL0     H85088   3.489   9.742   2.934  1.1109  0.5865  1.2596
  617MOL0     H85089   3.621  10.009   2.894  0.4200  2.5137  2.9155
  617MOL0     H85090   3.567   9.937   3.046  2.8360  3.5759  0.5821
  617MOL0     H85091   3.795   9.863   2.850  0.5877  1.3603 -0.3451
  617MOL0     H85092   3.737   9.753   2.976  0.6539 -0.4814 -3.1223
  617MOL0     H85093   3.841  10.044   3.023  2.3923 -0.0142  0.6049
  617MOL0     H85094   3.821   9.922   3.147  0.3152  0.5001  0.2431
  617MOL0     H85095   4.075   9.926   3.220  1.0917  1.8382 -0.3039
  617MOL0     H85096   4.296   9.872   3.209 -4.1339 -0.6887 -1.2669
  617MOL0     H85097   4.363   9.974   3.073 -2.8092  1.9565  1.3901
  617MOL0     H85098   4.335   9.678   3.035 -1.6272  2.2372  0.3921
  617MOL0     H85099   4.456   9.782   2.949  2.3019 -2.3043  0.2999
  617MOL0     H85100   4.482   9.647   3.222  2.1816 -1.7440  0.9279
  617MOL0     H85101   4.571   9.617   3.079 -1.0472 -1.1857  2.0983
  617MOL0     H85102   4.554   9.879   3.241 -1.2994  0.3589 -2.6565
  617MOL0     H85103   4.698   9.775   3.245  1.2579  1.0108 -1.2965
  617MOL0     H85104   4.718   9.974   2.860  0.9725 -0.2862 -2.0318
  617MOL0     H85105   4.832  10.060   2.698  1.7742  0.9327 -0.3609
  617MOL0     H85106   4.869   9.917   2.615 -0.5712 -0.3418  1.0059
  617MOL0     H85107   5.004  10.028   2.657  0.8456 -0.3481  0.9313
  617MOL0     H85108   5.355   9.827   2.588 -1.6062 -0.2872  0.5796
  617MOL0     H85109   5.551   9.715   2.471 -0.5199  2.6427  1.3779
  617MOL0     H85110   5.808   9.443   2.696 -0.2416  4.3508 -1.2910
  617MOL0     H85111   5.701   9.316   2.618  0.0813 -0.0275  1.7052
  617MOL0     H85112   5.836   9.327   2.415  0.1471 -1.2874  0.3485
  617MOL0     H85113   5.927   9.468   2.486  0.0116  0.9495  1.6620
  617MOL0     H85114   5.920   9.199   2.603 -3.1941  1.5626 -0.8736
  617MOL0     H85115   6.011   9.342   2.656  0.5207  1.9047 -0.7373
  617MOL0     H85116   6.170   9.314   2.498  1.4553 -1.7561 -1.6598
  617MOL0     H85117   6.053   9.255   2.369  0.4528  1.5749 -0.3651
  617MOL0     H85118   6.061   9.028   2.493 -1.4979  0.3672  0.2012
  617MOL0     H85119   6.209   9.087   2.415 -0.3952  0.6504 -0.8245
  617MOL0     H85120   6.165   9.153   2.706 -0.1818 -1.6563  1.1073
  617MOL0     H85121   6.318   9.155   2.618  0.2451 -0.3235  2.1809
  617MOL0     H85122   6.157   8.898   2.670  0.6771 -0.2223 -1.6871
  617MOL0     H85123   6.298   8.947   2.759 -0.6194 -0.1574  0.8628
  617MOL0     H85124   6.284   8.861   2.465  0.1089  0.5082 -0.9708
  617MOL0     H85125   6.379   8.789   2.593 -1.4251 -1.1556 -0.6820
  617MOL0     H85126   5.565   9.423   2.779 -1.7080 -1.2818 -1.7672
  617MOL0     H85127   5.373   9.536   2.898  2.0882 -1.1148  1.1321
  617MOL0     H85128   5.065   9.681   3.044  0.5246 -0.0011 -0.7912
  617MOL0     H85129   4.853   9.706   3.148 -0.4943  2.3178  1.4403
  617MOL0     H85130   3.106  10.390   3.136  0.7448  2.3461 -1.4375
  617MOL0     H85131   2.975  10.565   3.050 -0.7601  0.7725  2.3631
  617MOL0     H85132   2.526  10.629   2.601 -2.0323 -0.9592  0.7030
  617MOL0     H85133   2.410  10.854   2.560 -0.6174 -0.7674 -0.8502
  617MOL0     H85134   2.331  11.059   2.522 -1.4647  1.3511 -0.3792
  617MOL0     H85135   2.242  10.992   2.645  0.1374 -1.0592 -4.7044
  617MOL0     H85136   2.194  11.205   2.744 -0.6725 -0.3703 -0.8466
  617MOL0     H85137   2.163  11.215   2.574  0.4965  2.5543 -0.2603
  617MOL0     H85138   2.423  11.331   2.693 -1.2937  0.6190  1.8295
  617MOL0     H85139   2.356  11.334   2.527 -2.0063 -1.0156 -0.0519
  617MOL0     H85140   2.317  11.550   2.690  1.8576 -0.9694  1.5916
  617MOL0     H85141   2.208  11.450   2.774  1.0198 -2.3946  1.6688
  617MOL0     H85142   2.008  11.551   2.405 -0.3929 -0.4121  0.1249
  617MOL0     H85143   2.571  11.003   2.930  3.1515 -1.0283  0.6863
  617MOL0     H85144   2.681  10.686   3.053 -2.1669 -1.0396 -1.7443
  617MOL0     H85145   2.781  10.839   3.024  0.1383  0.2046 -0.0954
  617MOL0     H85146   2.614  10.840   3.089 -0.3887 -1.2065  0.4849
  618MOL0     O85147   5.752   7.227   6.997  0.8038 -0.5939 -0.1928
  618MOL0     C85148   5.667   7.298   7.061  0.3541  0.7137  0.2862
  618MOL0     O85149   5.699   7.417   7.114  0.0214 -0.3476  0.0121
  618MOL0     C85150   5.819   7.459   7.157  0.2684  0.7466 -0.0504
  618MOL0     C85151   5.951   7.404   7.136 -0.2079 -1.0870 -0.2945
  618MOL0     C85152   6.065   7.462   7.186 -0.6414  0.1411 -0.1318
  618MOL0     C85153   6.056   7.575   7.264  0.6093 -0.9694 -0.3490
  618MOL0     O85154   6.167   7.652   7.296  0.0013 -0.0088 -0.7706
  618MOL0     C85155   6.205   7.632   7.439 -0.2405 -0.2714 -0.7069
  618MOL0     C85156   6.352   7.679   7.454  0.0588  0.3053 -0.1182
  618MOL0     C85157   6.397   7.681   7.600 -0.0826 -1.1430  0.0718
  618MOL0     C85158   6.544   7.730   7.619  0.3744  0.2992  0.1499
  618MOL0     C85159   6.647   7.624   7.574 -0.2374  0.5537  1.2729
  618MOL0     C85160   6.780   7.694   7.548  0.8168  0.1579 -0.2040
  618MOL0     C85161   6.891   7.590   7.516  0.2445  0.8344 -0.7316
  618MOL0     C85162   6.970   7.584   7.637  0.0587 -0.7246 -0.7770
  618MOL0     N85163   7.084   7.500   7.599 -0.3151 -0.5626 -1.1068
  618MOL0     C85164   7.087   7.363   7.597  0.4095  0.8478 -0.3150
  618MOL0     C85165   7.220   7.339   7.562  0.5684  0.8387  0.2867
  618MOL0     C85166   7.280   7.201   7.533 -0.2733  0.8226 -0.4705
  618MOL0     C85167   7.410   7.212   7.459 -0.3911  0.3525 -0.0350
  618MOL0     C85168   7.508   7.243   7.569  0.0116  0.3939 -0.4145
  618MOL0     C85169   7.612   7.336   7.522 -0.0699  0.2205  0.5506
  618MOL0     O85170   7.690   7.273   7.416  0.0105  0.1843 -0.5354
  618MOL0     C85171   7.795   7.348   7.360 -0.2410 -0.3804  0.6219
  618MOL0     C85172   7.823   7.483   7.384  0.1965 -0.1435 -0.6181
  618MOL0     C85173   7.929   7.547   7.318 -0.4979 -0.6396 -0.5451
  618MOL0     C85174   7.958   7.696   7.364 -0.2739 -0.7919  0.2364
  618MOL0     C85175   8.027   7.474   7.241 -0.9708 -0.5401 -0.1658
  618MOL0     C85176   8.153   7.526   7.186  0.3548 -0.2836 -0.6077
  618MOL0     O85177   8.174   7.662   7.195  0.0368 -0.5847  0.6467
  618MOL0     C85178   8.282   7.706   7.128 -0.0062  0.1828  0.2684
  618MOL0     C85179   8.278   7.754   6.999 -0.7331 -0.2968 -0.2560
  618MOL0     C85180   8.395   7.796   6.932  0.5638 -0.6333  0.6235
  618MOL0     C85181   8.517   7.777   6.983 -0.4965 -0.5980 -0.2643
  618MOL0     O85182   8.624   7.824   6.911 -0.4371 -0.1501  0.2021
  618MOL0     C85183   8.753   7.766   6.938 -0.0794  0.1231  0.3720
  618MOL0     C85184   8.850   7.828   6.840  0.0508  0.6016  0.1208
  618MOL0     C85185   8.977   7.742   6.822  0.4373 -0.9706 -0.5785
  618MOL0     C85186   9.044   7.721   6.949  0.1449  0.2808  0.1601
  618MOL0     C85187   9.171   7.636   6.935 -0.5617  0.0516  0.2657
  618MOL0     C85188   9.237   7.586   7.071 -0.4190 -0.1837  0.5186
  618MOL0     C85189   9.393   7.592   7.066  0.6438 -0.3198 -0.1087
  618MOL0     C85190   9.451   7.728   7.115  0.0523  0.0086  0.0233
  618MOL0    Cl85191   9.615   7.750   7.066  0.4807  0.6372  0.0075
  618MOL0     C85192   8.529   7.731   7.118 -0.1640 -0.8129 -0.2114
  618MOL0     C85193   8.411   7.693   7.182 -0.1658 -0.1551 -0.6636
  618MOL0     O85194   8.230   7.449   7.130  0.7134  0.9157  0.2400
  618MOL0     C85195   7.996   7.341   7.222 -0.8964  0.1156 -0.8107
  618MOL0     C85196   7.881   7.283   7.276  0.5183 -0.2114 -0.2480
  618MOL0     N85197   7.278   7.459   7.517 -0.3427  0.8976 -0.5723
  618MOL0     N85198   7.201   7.552   7.553  0.4878  0.3129  0.4269
  618MOL0     C85199   5.932   7.621   7.296 -1.0039  0.5711 -0.3441
  618MOL0     C85200   5.810   7.569   7.238 -0.1521 -1.0415 -0.2136
  618MOL0     C85201   5.526   7.251   7.075  0.0727 -0.4412  0.5797
  618MOL0     C85202   5.414   7.336   7.052  0.4901  0.1492  0.6642
  618MOL0     C85203   5.287   7.287   7.044 -0.1390 -0.6852  0.3415
  618MOL0     C85204   5.259   7.155   7.078  0.9489 -0.1469  1.0808
  618MOL0     O85205   5.128   7.103   7.085  0.5956  0.2366  0.5579
  618MOL0     C85206   5.039   7.166   7.174  0.7314 -0.9278  0.0300
  618MOL0     C85207   4.894   7.190   7.122 -0.4735 -0.3066  0.5828
  618MOL0     C85208   4.822   7.058   7.124  0.4630 -0.0092 -0.6331
  618MOL0     C85209   4.671   7.068   7.099 -0.4190 -0.4596  0.3475
  618MOL0     C85210   4.647   7.145   6.968 -0.5167  0.9258  0.1933
  618MOL0     C85211   4.611   7.202   6.864 -0.6804  0.6560  0.2001
  618MOL0     C85212   5.361   7.064   7.107 -0.5328 -0.1090  0.2906
  618MOL0     C85213   5.497   7.113   7.092  0.4426  0.4353  0.4944
  618MOL0     C85214   5.607   7.005   7.102  0.1507  0.1695  0.8828
  618MOL0     H85215   5.965   7.316   7.074  1.2248 -0.3006 -1.1478
  618MOL0     H85216   6.161   7.426   7.150 -0.0351 -0.0944  1.6377
  618MOL0     H85217   6.193   7.527   7.466  0.0333  0.2629  1.7134
  618MOL0     H85218   6.135   7.686   7.503 -2.5781 -3.7032 -0.1297
  618MOL0     H85219   6.418   7.611   7.400  0.7048 -0.5305  1.6368
  618MOL0     H85220   6.369   7.776   7.406  0.9892 -0.0341 -0.5004
  618MOL0     H85221   6.341   7.755   7.658  1.4943 -0.5312  0.8889
  618MOL0     H85222   6.366   7.583   7.636 -0.4131 -1.2752 -0.5608
  618MOL0     H85223   6.551   7.808   7.543 -0.3538  0.9974  0.7896
  618MOL0     H85224   6.566   7.757   7.723  0.7730 -0.6185  0.3153
  618MOL0     H85225   6.620   7.560   7.489 -0.4299  0.6695  1.2469
  618MOL0     H85226   6.660   7.551   7.654 -2.4637 -1.3152  0.0742
  618MOL0     H85227   6.785   7.769   7.469  0.8670 -1.2622 -1.5883
  618MOL0     H85228   6.808   7.743   7.643  0.3311  1.2018 -0.5862
  618MOL0     H85229   6.949   7.634   7.435  0.9539  1.1281 -0.0794
  618MOL0     H85230   6.865   7.489   7.484  0.7810  0.8134 -1.1199
  618MOL0     H85231   7.007   7.686   7.651 -0.9235 -0.3891 -0.5003
  618MOL0     H85232   6.914   7.547   7.723 -1.0974 -1.1464 -1.6850
  618MOL0     H85233   7.008   7.292   7.616 -0.6018  2.4036  1.7025
  618MOL0     H85234   7.212   7.150   7.465 -0.2227  0.6740 -0.4101
  618MOL0     H85235   7.292   7.142   7.624 -1.6846 -3.1978 -2.6517
  618MOL0     H85236   7.436   7.115   7.417 -0.1620  0.1313  0.5932
  618MOL0     H85237   7.408   7.292   7.385  2.7995  2.0423  1.4995
  618MOL0     H85238   7.472   7.272   7.668  0.7951  0.9887 -0.2971
  618MOL0     H85239   7.555   7.145   7.581 -1.1614 -0.5305 -2.7298
  618MOL0     H85240   7.550   7.422   7.494 -0.0146  0.2372  0.4791
  618MOL0     H85241   7.690   7.366   7.591  2.3804 -0.9175 -1.5587
  618MOL0     H85242   7.759   7.543   7.448 -2.6323 -1.6969 -1.7935
  618MOL0     H85243   7.934   7.757   7.276  1.0174  2.6523  2.1131
  618MOL0     H85244   8.060   7.703   7.401 -0.4849  1.9535  0.4534
  618MOL0     H85245   7.888   7.731   7.441 -2.7801 -2.4183 -1.1296
  618MOL0     H85246   8.182   7.758   6.949 -1.0904 -3.0179  0.0624
  618MOL0     H85247   8.385   7.826   6.828  0.0136 -0.4902  0.7161
  618MOL0     H85248   8.778   7.798   7.040 -1.3537  4.4312 -0.4521
  618MOL0     H85249   8.754   7.657   6.926 -0.5034 -0.3322  3.6318
  618MOL0     H85250   8.811   7.820   6.738  1.3102 -0.5197 -0.3036
  618MOL0     H85251   8.877   7.928   6.874 -1.9826  0.0099  4.0058
  618MOL0     H85252   9.040   7.797   6.751  0.2195 -1.4383 -1.1438
  618MOL0     H85253   8.947   7.651   6.769 -1.0300  0.2846 -2.0292
  618MOL0     H85254   8.974   7.670   7.017  0.1415  0.7990  0.5517
  618MOL0     H85255   9.063   7.822   6.984 -1.5960  2.2144 -3.8062
  618MOL0     H85256   9.149   7.544   6.880  0.9295 -1.2624  1.7417
  618MOL0     H85257   9.242   7.694   6.875 -0.4505 -0.0807  0.2696
  618MOL0     H85258   9.205   7.481   7.076  1.5939 -0.7837  2.7696
  618MOL0     H85259   9.189   7.645   7.150  0.3616  1.9286 -0.5292
  618MOL0     H85260   9.423   7.583   6.961 -4.1034 -1.5102 -1.6052
  618MOL0     H85261   9.429   7.507   7.126  0.1727 -0.0173  0.6164
  618MOL0     H85262   9.447   7.729   7.224  1.0556  0.7981  0.0584
  618MOL0     H85263   9.399   7.819   7.083  0.9991  1.0747  1.4142
  618MOL0     H85264   8.627   7.719   7.163  1.2354  1.2606 -2.4359
  618MOL0     H85265   8.432   7.642   7.276  0.6019 -0.3751 -0.9471
  618MOL0     H85266   8.064   7.276   7.169  0.4340 -1.3232  2.3961
  618MOL0     H85267   7.862   7.177   7.268 -0.0260 -0.4517  2.9262
  618MOL0     H85268   5.924   7.713   7.354 -4.2295  2.2033 -3.0576
  618MOL0     H85269   5.719   7.616   7.273  1.3754  0.7836  1.5193
  618MOL0     H85270   5.429   7.440   7.023  1.4295  0.2823  1.5372
  618MOL0     H85271   5.204   7.355   7.027 -1.4131 -1.7535  2.0053
  618MOL0     H85272   5.037   7.114   7.270 -1.0447  0.8458  1.0305
  618MOL0     H85273   5.072   7.267   7.200 -1.8114 -0.3680  1.3730
  618MOL0     H85274   4.903   7.213   7.015  1.3746 -0.2795  0.7132
  618MOL0     H85275   4.846   7.271   7.179  0.2307  0.5459 -0.0030
  618MOL0     H85276   4.871   6.990   7.054  2.3580 -0.9734  1.4839
  618MOL0     H85277   4.825   7.009   7.222 -0.5441 -0.8376 -0.9915
  618MOL0     H85278   4.612   7.111   7.181 -2.4546 -1.2082 -0.6400
  618MOL0     H85279   4.644   6.962   7.101 -2.6015  0.0193 -0.3276
  618MOL0     H85280   4.593   7.232   6.763  0.5347  0.9747  0.0597
  618MOL0     H85281   5.341   6.959   7.121  1.0398 -0.1872  2.2932
  618MOL0     H85282   5.567   6.920   7.157  0.4796 -2.6512 -2.8302
  618MOL0     H85283   5.638   6.974   7.001 -2.9974  4.3315 -1.7189
  618MOL0     H85284   5.689   7.047   7.160 -0.3380  0.8066  1.1291
  619MOL0     O85285   8.623   8.609   3.062 -0.1429 -0.0597 -0.1559
  619MOL0     C85286   8.524   8.651   3.118 -0.4155  0.0583 -0.0388
  619MOL0     O85287   8.528   8.767   3.178  0.2164  0.2452  0.1868
  619MOL0     C85288   8.629   8.852   3.155 -0.5899  1.1563  0.1581
  619MOL0     C85289   8.755   8.834   3.227  0.1393  0.6423  0.0248
  619MOL0     C85290   8.859   8.924   3.208  0.1083 -1.0542  0.0860
  619MOL0     C85291   8.846   9.042   3.142 -0.5889  0.3609  0.4075
  619MOL0     O85292   8.950   9.132   3.134  0.3766  0.0407 -0.7366
  619MOL0     C85293   9.026   9.155   3.254 -0.3772 -1.2208  0.1532
  619MOL0     C85294   8.937   9.194   3.374  0.1356 -0.3040 -0.6453
  619MOL0     C85295   8.856   9.321   3.353  0.1615 -0.2007  0.4245
  619MOL0     C85296   8.818   9.385   3.495  0.4234  0.0009 -0.2498
  619MOL0     C85297   8.842   9.539   3.507  0.3150 -0.6288  0.6716
  619MOL0     C85298   8.988   9.580   3.539 -0.7027 -0.3155  0.4507
  619MOL0     C85299   9.092   9.536   3.441 -0.7973 -0.1967  0.6739
  619MOL0     C85300   9.234   9.580   3.459  0.5074 -0.4322  0.2059
  619MOL0     N85301   9.247   9.725   3.454  0.1806 -0.1551 -0.5707
  619MOL0     C85302   9.246   9.789   3.335  0.3437 -0.1038 -0.0335
  619MOL0     C85303   9.259   9.923   3.365  0.4044 -0.8919  0.3670
  619MOL0     C85304   9.256  10.019   3.247 -0.3357 -0.0085 -0.1767
  619MOL0     C85305   9.401  10.059   3.207  0.1302  0.9288 -0.5339
  619MOL0     C85306   9.481   9.944   3.144  0.6180  0.5274  0.3017
  619MOL0     C85307   9.612   9.978   3.084 -0.3834 -0.1989  0.1975
  619MOL0     O85308   9.701   9.861   3.075  1.1311 -0.0850 -0.0197
  619MOL0     C85309   9.789   9.836   3.181  1.3562 -0.1438  0.5846
  619MOL0     C85310   9.780   9.897   3.308  0.3739  0.9219 -0.3161
  619MOL0     C85311   9.862   9.855   3.417 -0.0778 -0.0871  0.2395
  619MOL0     C85312   9.851   9.932   3.549  0.4003 -0.3997  0.2800
  619MOL0     C85313   9.957   9.749   3.402  0.6561 -0.6247  0.2798
  619MOL0     C85314  10.051   9.701   3.506  0.1178  1.0942 -0.4833
  619MOL0     O85315  10.183   9.692   3.474 -0.3538 -0.2051 -0.0720
  619MOL0     C85316  10.283   9.631   3.550  0.6769  0.0960 -0.7352
  619MOL0     C85317  10.405   9.646   3.492  0.6945  0.6175 -0.8725
  619MOL0     C85318  10.521   9.598   3.559  0.5148  0.6958 -0.4703
  619MOL0     C85319  10.505   9.541   3.687  0.2020  0.4725 -0.1002
  619MOL0     O85320  10.601   9.486   3.759  0.1283 -0.1585 -0.2076
  619MOL0     C85321  10.668   9.389   3.676 -0.4134 -0.5497  0.3600
  619MOL0     C85322  10.777   9.310   3.751  0.0495 -0.2330  0.5598
  619MOL0     C85323  10.888   9.241   3.667 -0.4830  0.3925 -0.0743
  619MOL0     C85324  10.963   9.145   3.755  0.2782 -0.9983  0.9258
  619MOL0     C85325  11.023   9.021   3.692 -0.0118  0.5591 -0.1226
  619MOL0     C85326  11.131   9.047   3.585  0.5723 -0.6201 -0.5866
  619MOL0     C85327  11.209   8.914   3.559 -0.0462 -0.1991 -0.5872
  619MOL0     C85328  11.137   8.836   3.456 -0.0621 -0.7592  0.0332
  619MOL0    Cl85329  11.202   8.890   3.290  0.2550  0.3218 -0.0418
  619MOL0     C85330  10.376   9.526   3.749 -0.0148 -0.3645  0.0833
  619MOL0     C85331  10.269   9.581   3.681 -0.1572 -0.0714 -0.6116
  619MOL0     O85332   9.996   9.690   3.618  0.0165 -0.5941 -0.1345
  619MOL0     C85333   9.967   9.699   3.274 -0.0626 -0.2285 -0.3061
  619MOL0     C85334   9.884   9.742   3.168 -1.0201 -0.4586  0.1778
  619MOL0     N85335   9.265   9.934   3.504  0.4349  0.1449  1.1984
  619MOL0     N85336   9.265   9.815   3.556  0.5050 -0.5397  0.2568
  619MOL0     C85337   8.731   9.047   3.060 -0.8545 -0.2724  0.7696
  619MOL0     C85338   8.625   8.956   3.062 -0.2067  0.2829 -0.3345
  619MOL0     C85339   8.394   8.572   3.114 -0.3840 -0.6625 -0.4334
  619MOL0     C85340   8.278   8.639   3.107 -0.3104  0.1329  0.3853
  619MOL0     C85341   8.150   8.580   3.098  1.1720  0.1083  0.1588
  619MOL0     C85342   8.143   8.435   3.108 -1.1702 -0.8536  0.7084
  619MOL0     O85343   8.033   8.354   3.101  0.3890 -0.5426  0.9328
  619MOL0     C85344   7.904   8.409   3.063  0.6867 -0.1367 -0.4944
  619MOL0     C85345   7.820   8.286   3.029  0.0256  0.5171  0.0364
  619MOL0     C85346   7.814   8.175   3.133  0.3293  0.1773  0.1384
  619MOL0     C85347   7.748   8.209   3.275  0.0703 -0.8718  0.4735
  619MOL0     C85348   7.607   8.236   3.258 -0.1292 -0.2566  0.6780
  619MOL0     C85349   7.482   8.244   3.258  0.0329 -0.9578  0.1600
  619MOL0     C85350   8.263   8.365   3.112 -0.3486  0.1963  0.1885
  619MOL0     C85351   8.383   8.431   3.114  0.1360 -0.6601  0.7258
  619MOL0     C85352   8.497   8.337   3.135  0.3064 -0.5002 -0.3875
  619MOL0     H85353   8.779   8.744   3.282 -0.6606 -0.0696 -0.7783
  619MOL0     H85354   8.947   8.893   3.262  0.3428  0.1592  0.4224
  619MOL0     H85355   9.079   9.245   3.220 -0.3763 -2.6618 -4.2442
  619MOL0     H85356   9.100   9.078   3.277  0.1367 -1.5418 -2.3236
  619MOL0     H85357   8.882   9.108   3.410  3.1797 -1.9094  0.5690
  619MOL0     H85358   9.011   9.222   3.450 -1.1032 -0.1461  0.5265
  619MOL0     H85359   8.897   9.402   3.291 -2.4303 -0.1506 -1.3741
  619MOL0     H85360   8.761   9.286   3.311  0.2046  0.3245 -0.1188
  619MOL0     H85361   8.711   9.371   3.513  0.3329 -2.2228 -2.0931
  619MOL0     H85362   8.868   9.329   3.573 -2.6404  0.9312  2.6344
  619MOL0     H85363   8.776   9.588   3.579 -0.8096 -2.0378  0.6469
  619MOL0     H85364   8.822   9.596   3.416  2.4951  1.8683  1.6428
  619MOL0     H85365   8.993   9.689   3.547  2.3152 -0.3486  0.4656
  619MOL0     H85366   9.021   9.548   3.638 -0.6519  0.0495  0.5548
  619MOL0     H85367   9.068   9.565   3.338  4.0565 -0.4455 -0.7654
  619MOL0     H85368   9.082   9.427   3.440 -0.1326 -0.2646 -0.1922
  619MOL0     H85369   9.268   9.544   3.556  1.5024  0.1838  0.0924
  619MOL0     H85370   9.289   9.532   3.377 -0.7976 -1.8165  0.0936
  619MOL0     H85371   9.234   9.743   3.238  0.5516  1.6469 -0.9297
  619MOL0     H85372   9.200  10.110   3.271 -2.2605 -1.2645  0.3520
  619MOL0     H85373   9.201   9.982   3.160 -0.5794  0.5168 -0.2494
  619MOL0     H85374   9.393  10.140   3.134 -0.8994  0.0372 -1.4346
  619MOL0     H85375   9.457  10.093   3.294  2.8043 -1.9033 -0.9640
  619MOL0     H85376   9.506   9.862   3.213 -1.9899 -0.9848 -0.4138
  619MOL0     H85377   9.419   9.905   3.063 -0.1895 -0.2896  1.2814
  619MOL0     H85378   9.601  10.028   2.987 -0.4368 -0.4528  0.0719
  619MOL0     H85379   9.656  10.051   3.153 -0.6765 -0.3662  0.5651
  619MOL0     H85380   9.716   9.983   3.318  0.4935  0.9484  0.2730
  619MOL0     H85381   9.807   9.871   3.628 -0.3764 -1.0606 -0.6372
  619MOL0     H85382   9.785  10.019   3.536  1.0933  0.2489  1.0289
  619MOL0     H85383   9.946   9.961   3.594  0.1372 -1.6618  1.7339
  619MOL0     H85384  10.415   9.682   3.390 -1.9743 -0.8422 -1.7217
  619MOL0     H85385  10.616   9.610   3.509  1.0336 -1.3907 -0.0560
  619MOL0     H85386  10.591   9.317   3.645 -2.4910  1.9487 -0.6526
  619MOL0     H85387  10.718   9.439   3.592  1.7996 -2.1729  0.6189
  619MOL0     H85388  10.824   9.371   3.828  1.2514 -2.6196  1.8045
  619MOL0     H85389  10.715   9.241   3.809  1.5387  0.7829  3.5574
  619MOL0     H85390  10.961   9.313   3.630  0.9229 -1.5049 -1.1586
  619MOL0     H85391  10.859   9.194   3.573  1.3214 -0.4124 -0.2797
  619MOL0     H85392  10.903   9.134   3.846  1.3921 -2.1754  1.5544
  619MOL0     H85393  11.049   9.199   3.796  0.1577  0.2335 -0.3993
  619MOL0     H85394  11.053   8.952   3.771 -2.8832 -1.1823 -0.3906
  619MOL0     H85395  10.943   8.967   3.639 -0.1410 -0.2562  0.8714
  619MOL0     H85396  11.205   9.118   3.625  0.8706 -1.3713  0.2272
  619MOL0     H85397  11.075   9.090   3.502  1.2605  1.3819 -0.0962
  619MOL0     H85398  11.221   8.866   3.657 -0.5300  0.5055 -0.1668
  619MOL0     H85399  11.308   8.932   3.517  0.3922  2.9608  1.4466
  619MOL0     H85400  11.028   8.844   3.459  0.0331  1.3234 -0.6189
  619MOL0     H85401  11.169   8.732   3.468 -1.3043 -1.6533 -3.3329
  619MOL0     H85402  10.349   9.484   3.845  2.2514 -3.5177 -0.4847
  619MOL0     H85403  10.178   9.575   3.740  0.3316  1.7097  0.3885
  619MOL0     H85404  10.048   9.632   3.247 -0.2287 -0.9575  0.9399
  619MOL0     H85405   9.889   9.696   3.070 -1.2162 -1.3020  0.5503
  619MOL0     H85406   8.731   9.139   3.002  0.5384 -1.0522 -0.5556
  619MOL0     H85407   8.538   8.975   3.001 -1.8697  3.5518  2.6651
  619MOL0     H85408   8.300   8.745   3.106  1.0502 -0.1028 -1.6814
  619MOL0     H85409   8.058   8.636   3.095 -0.3501 -2.2939 -0.9498
  619MOL0     H85410   7.865   8.461   3.151  0.2834  0.3715 -0.9553
  619MOL0     H85411   7.906   8.470   2.971  0.4926  2.2143  0.9728
  619MOL0     H85412   7.845   8.242   2.933 -1.5050  0.0004 -0.1614
  619MOL0     H85413   7.722   8.334   3.015  1.3883  4.4595  2.3878
  619MOL0     H85414   7.757   8.097   3.083 -0.8522  1.6245 -0.8702
  619MOL0     H85415   7.918   8.148   3.151  0.4382  1.5134  1.7620
  619MOL0     H85416   7.803   8.294   3.318  0.5365 -0.1100 -1.5347
  619MOL0     H85417   7.770   8.114   3.326 -0.1542 -0.8899  0.5359
  619MOL0     H85418   7.378   8.262   3.240  0.7407  0.8411 -3.1235
  619MOL0     H85419   8.250   8.258   3.126  1.5253 -0.6545 -3.2871
  619MOL0     H85420   8.454   8.244   3.174  1.6506 -0.5858  0.9477
  619MOL0     H85421   8.557   8.324   3.045 -0.5576 -1.7010 -0.8241
  619MOL0     H85422   8.564   8.369   3.215 -1.7128  2.4935  0.2918
  620MOL0     O85423   2.458   8.503  10.239  0.0927 -0.1061 -0.2266
  620MOL0     C85424   2.492   8.623  10.244  0.1828  0.1711  0.4541
  620MOL0     O85425   2.618   8.657  10.248  0.0777 -0.7660  0.0956
  620MOL0     C85426   2.703   8.559  10.283 -0.1224 -0.2467  1.2936
  620MOL0     C85427   2.773   8.478  10.188  0.8214 -0.3041 -0.0657
  620MOL0     C85428   2.848   8.364  10.223 -0.3578 -0.0474  0.0539
  620MOL0     C85429   2.858   8.329  10.365  0.5281 -0.6586  0.6136
  620MOL0     O85430   2.917   8.210  10.396 -0.4208  0.3757  0.3289
  620MOL0     C85431   3.045   8.190  10.339  0.7823 -0.6317  0.4337
  620MOL0     C85432   3.158   8.281  10.381  0.4711  0.0547  0.1293
  620MOL0     C85433   3.171   8.302  10.535  0.0603  0.2348 -0.2562
  620MOL0     C85434   3.248   8.440  10.564  0.9322  0.0695 -0.0006
  620MOL0     C85435   3.402   8.418  10.581 -0.6812  0.5550  0.0936
  620MOL0     C85436   3.472   8.549  10.612 -0.5684  0.5457  0.3000
  620MOL0     C85437   3.618   8.530  10.593 -0.3286  0.2173 -0.1841
  620MOL0     C85438   3.695   8.650  10.641 -0.3791 -0.2177 -1.3496
  620MOL0     N85439   3.699   8.666  10.792  0.9529  0.0145  0.0577
  620MOL0     C85440   3.677   8.782  10.860  0.2980  0.4263 -0.5802
  620MOL0     C85441   3.646   8.748  10.987  0.6468  0.4702  0.7051
  620MOL0     C85442   3.622   8.838  11.103  0.2669 -0.7396 -0.0406
  620MOL0     C85443   3.703   8.973  11.099 -0.5064  1.2666  0.7869
  620MOL0     C85444   3.673   9.055  11.214  0.4947  0.1261 -1.0021
  620MOL0     C85445   3.698   8.990  11.348  0.0685 -0.1451  0.9645
  620MOL0     O85446   3.739   9.082  11.450 -1.0276 -0.7968  0.1079
  620MOL0     C85447   3.860   9.140  11.439  0.3026 -0.0193  0.1596
  620MOL0     C85448   3.871   9.260  11.514  0.1664 -0.6635  0.1448
  620MOL0     C85449   3.993   9.327  11.522  1.1227 -0.5222  0.3984
  620MOL0     C85450   4.006   9.438  11.624  0.1686  0.2657 -0.5256
  620MOL0     C85451   4.105   9.276  11.451  0.1092 -0.9999  0.1104
  620MOL0     C85452   4.232   9.344  11.447 -0.3454  0.0563 -0.1255
  620MOL0     O85453   4.343   9.262  11.458  0.4236  0.2399  0.4924
  620MOL0     C85454   4.467   9.307  11.487  0.5672 -0.0809  0.1955
  620MOL0     C85455   4.504   9.400  11.580 -1.8063 -0.1702  0.1086
  620MOL0     C85456   4.648   9.430  11.594  0.4967 -0.2650  1.1812
  620MOL0     C85457   4.744   9.372  11.512 -0.0675 -0.5962  0.3922
  620MOL0     O85458   4.872   9.413  11.542  0.3116 -0.0251  0.9160
  620MOL0     C85459   4.969   9.306  11.541 -0.6575  0.6224 -0.6064
  620MOL0     C85460   5.099   9.350  11.605 -0.5113  0.1196  0.4280
  620MOL0     C85461   5.097   9.367  11.752  0.2203  0.6363 -0.9529
  620MOL0     C85462   5.148   9.233  11.817  0.0501  0.0894 -0.1341
  620MOL0     C85463   5.118   9.227  11.970 -0.2645 -0.2533  1.0725
  620MOL0     C85464   4.968   9.238  12.013 -0.1954 -0.7925  0.4238
  620MOL0     C85465   4.953   9.218  12.161  0.3764 -0.3133  0.2349
  620MOL0     C85466   4.995   9.333  12.242 -1.0167  0.8573 -1.2176
  620MOL0    Cl85467   4.876   9.471  12.246 -0.1047 -0.0127  0.0302
  620MOL0     C85468   4.701   9.287  11.413 -0.0045  0.3712 -0.6671
  620MOL0     C85469   4.567   9.253  11.401  0.6280 -0.0562  0.0739
  620MOL0     O85470   4.235   9.465  11.444 -0.2636 -0.0894 -0.6857
  620MOL0     C85471   4.091   9.160  11.372  0.1943  0.1388  0.1884
  620MOL0     C85472   3.968   9.093  11.366  0.4109  0.2137  0.1558
  620MOL0     N85473   3.663   8.607  10.992  0.1482 -0.9917 -0.1643
  620MOL0     N85474   3.685   8.562  10.869 -0.0929  0.7784 -0.5042
  620MOL0     C85475   2.801   8.412  10.460 -0.6922 -0.1667  0.2196
  620MOL0     C85476   2.727   8.526  10.423  0.6811  0.1691  0.1020
  620MOL0     C85477   2.389   8.727  10.238 -0.2114  1.0232 -0.0223
  620MOL0     C85478   2.446   8.858  10.242  0.3105 -0.3278 -0.0692
  620MOL0     C85479   2.368   8.972  10.246 -0.2794  0.0260 -0.2849
  620MOL0     C85480   2.226   8.954  10.249 -0.4073 -0.0131 -0.9833
  620MOL0     O85481   2.162   9.077  10.258 -0.1081  0.0658 -0.1348
  620MOL0     C85482   2.026   9.076  10.293 -0.4856 -0.2927 -0.5316
  620MOL0     C85483   1.925   9.030  10.186  0.0833  0.1869 -0.8446
  620MOL0     C85484   1.932   9.089  10.045 -0.7628  0.4959  0.4569
  620MOL0     C85485   1.847   9.005   9.944  0.0915  0.3172  0.3885
  620MOL0     C85486   1.709   9.036   9.961  0.2131  0.1962 -0.1790
  620MOL0     C85487   1.585   9.054   9.965 -0.0723 -0.2170 -0.5870
  620MOL0     C85488   2.169   8.824  10.240 -0.6564  0.6735 -0.0283
  620MOL0     C85489   2.248   8.706  10.233 -0.0299  0.2234  0.4132
  620MOL0     C85490   2.180   8.577  10.245  0.6278 -0.2076 -0.1558
  620MOL0     H85491   2.759   8.501  10.083 -1.6115 -0.5778  0.1387
  620MOL0     H85492   2.882   8.294  10.147 -2.0302  0.2166 -0.9856
  620MOL0     H85493   3.043   8.173  10.231 -3.4325 -1.0069  0.4152
  620MOL0     H85494   3.063   8.088  10.374 -1.1936 -0.6220  1.6114
  620MOL0     H85495   3.253   8.249  10.339 -0.1913  1.2523 -2.4862
  620MOL0     H85496   3.141   8.375  10.328  0.9234 -0.0658 -0.2234
  620MOL0     H85497   3.075   8.306  10.586  0.5597  1.4963  0.6339
  620MOL0     H85498   3.225   8.215  10.575  1.0924 -0.7204 -3.3914
  620MOL0     H85499   3.231   8.508  10.480  2.1155  0.4881  0.0652
  620MOL0     H85500   3.211   8.489  10.654 -1.2963  0.5230 -1.0923
  620MOL0     H85501   3.438   8.379  10.485  1.9102  0.7304  0.9421
  620MOL0     H85502   3.425   8.339  10.652  3.7752 -0.1112 -1.7586
  620MOL0     H85503   3.438   8.625  10.541  1.3078  0.7191 -0.4897
  620MOL0     H85504   3.450   8.567  10.717 -0.4930 -0.5550  0.5187
  620MOL0     H85505   3.643   8.501  10.490 -1.8097 -1.3468 -0.1441
  620MOL0     H85506   3.640   8.440  10.652 -1.0915  1.0108  1.3809
  620MOL0     H85507   3.799   8.625  10.616  0.5929  0.3924  1.7258
  620MOL0     H85508   3.657   8.741  10.593 -0.7452  0.9100  0.9830
  620MOL0     H85509   3.682   8.880  10.814  1.4628 -0.0520 -1.5465
  620MOL0     H85510   3.644   8.772  11.187  2.4596 -2.1260 -1.6079
  620MOL0     H85511   3.518   8.871  11.114  0.4887  0.1958 -0.5560
  620MOL0     H85512   3.811   8.956  11.104 -0.9532 -3.8768 -0.5289
  620MOL0     H85513   3.682   9.022  11.004 -2.3389 -0.0323  0.4825
  620MOL0     H85514   3.724   9.151  11.201  0.7082  0.3591  1.1305
  620MOL0     H85515   3.566   9.076  11.225  0.6705 -0.3081  3.0271
  620MOL0     H85516   3.611   8.936  11.386 -1.0552 -0.2214 -1.5705
  620MOL0     H85517   3.782   8.920  11.339  1.4536  1.7572 -3.5268
  620MOL0     H85518   3.779   9.299  11.556 -0.8297 -2.9482  0.2546
  620MOL0     H85519   4.091   9.426  11.692 -1.6932  0.2463  1.9197
  620MOL0     H85520   3.915   9.439  11.684  0.9217 -1.8334  0.7695
  620MOL0     H85521   4.025   9.534  11.575 -1.1832  2.0962  2.2990
  620MOL0     H85522   4.437   9.447  11.651  0.9105  1.0518  2.0752
  620MOL0     H85523   4.687   9.499  11.668 -0.8596  0.6959  1.0434
  620MOL0     H85524   4.924   9.230  11.606  1.3327  2.1492  2.8470
  620MOL0     H85525   4.993   9.277  11.439 -0.8821  3.5254 -1.5680
  620MOL0     H85526   5.185   9.291  11.571  0.7456  2.4782 -0.7628
  620MOL0     H85527   5.110   9.454  11.574 -0.2521  0.1060  0.4745
  620MOL0     H85528   4.995   9.393  11.784  0.8654  0.7292  1.1992
  620MOL0     H85529   5.157   9.450  11.791  1.5340 -0.7836  0.2003
  620MOL0     H85530   5.255   9.232  11.793 -0.1016  0.2063 -0.8312
  620MOL0     H85531   5.110   9.141  11.770  1.7195 -0.4309 -0.5324
  620MOL0     H85532   5.149   9.137  12.024  0.1423 -0.4293  0.5579
  620MOL0     H85533   5.171   9.311  12.015  0.3826 -0.0182 -0.0679
  620MOL0     H85534   4.903   9.167  11.962 -0.4626 -2.3315  2.7551
  620MOL0     H85535   4.925   9.337  11.997 -1.6108 -1.6854 -1.6066
  620MOL0     H85536   4.999   9.124  12.191 -0.5811 -0.7915  0.2563
  620MOL0     H85537   4.846   9.198  12.176  0.1061  1.1606  0.5029
  620MOL0     H85538   5.088   9.378  12.206 -0.5884  0.7727 -0.2416
  620MOL0     H85539   5.012   9.307  12.346  0.6398 -0.7090 -1.8389
  620MOL0     H85540   4.777   9.230  11.362 -0.6547  0.1009 -1.3538
  620MOL0     H85541   4.537   9.179  11.327 -2.7183  0.7711  0.4175
  620MOL0     H85542   4.176   9.122  11.316  0.7491 -0.8549  1.6394
  620MOL0     H85543   3.964   8.997  11.316  1.9653 -0.4071  1.1636
  620MOL0     H85544   2.816   8.394  10.566  1.2760 -0.8778 -0.1393
  620MOL0     H85545   2.674   8.580  10.500  0.0807 -0.5360  0.1973
  620MOL0     H85546   2.551   8.884  10.231 -0.5342  2.7371 -2.5238
  620MOL0     H85547   2.411   9.072  10.242 -0.6331  0.1757 -0.3179
  620MOL0     H85548   2.014   9.025  10.389  0.2049  3.8707  2.0221
  620MOL0     H85549   1.995   9.178  10.316 -2.9114 -0.6917 -1.6232
  620MOL0     H85550   1.827   9.051  10.230 -0.2028 -0.3802 -1.2011
  620MOL0     H85551   1.931   8.922  10.170  0.5901  0.4515 -2.5701
  620MOL0     H85552   1.904   9.193  10.027  1.0102  0.4940 -3.3443
  620MOL0     H85553   2.034   9.078  10.006 -0.9521 -2.6823  0.5870
  620MOL0     H85554   1.856   8.897   9.961 -2.2989 -0.5149 -2.8293
  620MOL0     H85555   1.861   9.037   9.840 -4.2988 -1.2754 -0.9020
  620MOL0     H85556   1.485   9.092   9.962 -0.3529 -0.9795 -0.9885
  620MOL0     H85557   2.065   8.808  10.265 -0.8619  3.0714  0.9478
  620MOL0     H85558   2.229   8.497  10.300 -2.4101 -2.4957 -0.5232
  620MOL0     H85559   2.084   8.602  10.291  0.9550  3.2872 -1.0334
  620MOL0     H85560   2.157   8.547  10.142 -0.0827  1.5490 -0.5589
  621MOL0     O85561   0.627   5.691   0.370 -0.2975 -0.4313 -0.4172
  621MOL0     C85562   0.679   5.621   0.460  0.0847  0.8151  0.2264
  621MOL0     O85563   0.813   5.577   0.459 -0.0243 -0.3760  0.1628
  621MOL0     C85564   0.888   5.648   0.368  0.8866  0.2367 -0.0093
  621MOL0     C85565   0.913   5.578   0.245  1.0223 -0.6121  0.2686
  621MOL0     C85566   1.005   5.624   0.147  0.2432 -0.3863  0.1184
  621MOL0     C85567   1.066   5.752   0.166 -0.8742  0.1269 -0.0645
  621MOL0     O85568   1.150   5.798   0.070  0.5369 -0.0439  0.4208
  621MOL0     C85569   1.277   5.819   0.127 -0.2299 -0.4190 -0.0831
  621MOL0     C85570   1.379   5.838   0.016 -0.7008 -0.4101 -0.1154
  621MOL0     C85571   1.380   5.728  -0.093  0.3037 -0.4125 -0.5929
  621MOL0     C85572   1.427   5.792  -0.225 -0.3477  0.2009  0.3263
  621MOL0     C85573   1.569   5.842  -0.233  0.3099  0.0955 -0.0758
  621MOL0     C85574   1.677   5.732  -0.219  0.5121 -0.4982  0.8698
  621MOL0     C85575   1.822   5.798  -0.250  0.3248 -0.2766  0.1031
  621MOL0     C85576   1.934   5.689  -0.274 -0.2014 -0.5577  0.4104
  621MOL0     N85577   2.062   5.762  -0.283 -0.3275  0.1752 -0.4302
  621MOL0     C85578   2.133   5.818  -0.181 -0.2198  0.1897 -0.4534
  621MOL0     C85579   2.261   5.821  -0.226 -0.5679 -0.9850 -0.7216
  621MOL0     C85580   2.384   5.858  -0.150  0.2069 -0.1315  0.0950
  621MOL0     C85581   2.381   5.813  -0.009  0.0042 -0.5877 -0.3377
  621MOL0     C85582   2.511   5.785   0.065 -0.7404  0.0529 -0.2459
  621MOL0     C85583   2.566   5.916   0.130  0.7560  1.2066 -0.3023
  621MOL0     O85584   2.502   5.944   0.247  0.7741  0.0947 -0.6207
  621MOL0     C85585   2.446   6.060   0.273 -0.1714 -0.2907  0.5271
  621MOL0     C85586   2.448   6.105   0.400 -0.1290  0.4140 -0.4071
  621MOL0     C85587   2.404   6.231   0.439  0.0857 -0.5319 -0.6401
  621MOL0     C85588   2.415   6.250   0.592  0.0621 -1.2045  0.0356
  621MOL0     C85589   2.335   6.313   0.338  0.2398 -0.3425 -0.2496
  621MOL0     C85590   2.276   6.444   0.372  0.0002 -0.5127 -0.0241
  621MOL0     O85591   2.196   6.489   0.278  0.4517  0.7485 -0.7035
  621MOL0     C85592   2.147   6.614   0.301  0.2487 -0.4364 -0.5995
  621MOL0     C85593   2.057   6.658   0.404 -0.1074  0.2636 -0.2384
  621MOL0     C85594   2.020   6.796   0.416 -0.2169 -0.3708  0.1166
  621MOL0     C85595   2.067   6.890   0.322  0.3662 -0.1806  0.2943
  621MOL0     O85596   2.027   7.020   0.330 -0.0579 -0.6449  0.4300
  621MOL0     C85597   2.037   7.104   0.217  0.4070 -0.5610  1.1063
  621MOL0     C85598   1.955   7.234   0.231 -0.0976  0.7825  0.0115
  621MOL0     C85599   1.828   7.219   0.313  0.2133  0.4993  0.6275
  621MOL0     C85600   1.773   7.367   0.318 -0.2171 -0.6811  0.3077
  621MOL0     C85601   1.649   7.388   0.407  0.2114  0.1586 -0.5926
  621MOL0     C85602   1.532   7.296   0.390  0.5490 -0.4913  1.0515
  621MOL0     C85603   1.403   7.373   0.430 -0.3184 -0.5589 -0.1535
  621MOL0     C85604   1.275   7.313   0.374 -0.2068  0.0926  0.3890
  621MOL0    Cl85605   1.116   7.388   0.444 -0.1694 -0.3187 -0.1890
  621MOL0     C85606   2.151   6.843   0.213  0.0802  0.3966 -0.1232
  621MOL0     C85607   2.176   6.703   0.201  0.3808 -0.8889 -0.0345
  621MOL0     O85608   2.307   6.497   0.474 -0.6050 -0.2209  0.1265
  621MOL0     C85609   2.324   6.255   0.208 -0.2286  0.3561  0.1538
  621MOL0     C85610   2.382   6.136   0.172 -0.0894  0.4188 -0.1807
  621MOL0     N85611   2.267   5.778  -0.359 -0.3661 -0.7875 -0.0105
  621MOL0     N85612   2.147   5.739  -0.389 -0.1643 -0.1785 -0.3358
  621MOL0     C85613   1.035   5.824   0.281 -0.0387  0.1605 -0.0060
  621MOL0     C85614   0.944   5.772   0.380 -0.9236  0.1259 -0.7634
  621MOL0     C85615   0.597   5.561   0.572 -0.1327  0.5801 -0.6085
  621MOL0     C85616   0.653   5.455   0.653 -0.3653  0.3100  0.0399
  621MOL0     C85617   0.585   5.392   0.760 -0.2901 -0.8238  0.4415
  621MOL0     C85618   0.459   5.448   0.794 -0.2591 -0.9072 -0.2174
  621MOL0     O85619   0.390   5.391   0.899  0.7422 -0.2613  0.3211
  621MOL0     C85620   0.407   5.241   0.916 -0.2373  0.5662  0.2900
  621MOL0     C85621   0.296   5.185   1.007 -0.2919 -1.0080 -0.3914
  621MOL0     C85622   0.280   5.257   1.140 -0.6154  1.0271  0.4635
  621MOL0     C85623   0.179   5.175   1.228  0.1087  0.0741 -0.1914
  621MOL0     C85624   0.174   5.238   1.366  0.9077 -0.2281 -0.2795
  621MOL0     C85625   0.167   5.298   1.467 -0.0842 -0.0427 -0.3868
  621MOL0     C85626   0.403   5.557   0.718 -0.1588  0.3031 -0.9785
  621MOL0     C85627   0.475   5.616   0.625  0.6342  0.6000  0.4841
  621MOL0     C85628   0.392   5.710   0.545 -0.0342 -0.2943  1.2924
  621MOL0     H85629   0.868   5.480   0.236  1.8906 -0.9322 -0.7616
  621MOL0     H85630   1.032   5.563   0.062  1.7376  1.0194 -0.4565
  621MOL0     H85631   1.311   5.756   0.209  0.4415  1.5795  1.2566
  621MOL0     H85632   1.268   5.916   0.178 -1.4703 -0.8033  0.4622
  621MOL0     H85633   1.357   5.930  -0.041 -0.3224 -0.2388  0.0166
  621MOL0     H85634   1.476   5.841   0.066  1.4594  0.9060 -3.9728
  621MOL0     H85635   1.435   5.641  -0.058 -0.4602 -0.6842 -0.0353
  621MOL0     H85636   1.273   5.703  -0.100  0.1780 -0.0844  0.0352
  621MOL0     H85637   1.417   5.723  -0.309 -0.3980 -0.1302  0.6002
  621MOL0     H85638   1.356   5.870  -0.253 -0.4168  0.0196 -0.0103
  621MOL0     H85639   1.577   5.907  -0.145 -2.7000 -0.5470  0.7824
  621MOL0     H85640   1.582   5.891  -0.330 -0.4978  0.4513 -0.0096
  621MOL0     H85641   1.673   5.686  -0.120 -0.8467 -0.8477  0.6767
  621MOL0     H85642   1.662   5.653  -0.293  2.7521 -0.5321  0.3964
  621MOL0     H85643   1.858   5.869  -0.175 -0.7015 -0.2218  0.5633
  621MOL0     H85644   1.818   5.860  -0.340 -0.7030  1.7610  1.4825
  621MOL0     H85645   1.947   5.620  -0.190 -1.0267 -1.2673 -0.0251
  621MOL0     H85646   1.913   5.623  -0.359 -0.5893  0.1885 -0.0841
  621MOL0     H85647   2.103   5.839  -0.078  0.5682 -0.6240 -0.0455
  621MOL0     H85648   2.397   5.967  -0.144  3.1003 -0.2721 -1.6831
  621MOL0     H85649   2.483   5.827  -0.184  1.2027  1.4870  1.3123
  621MOL0     H85650   2.309   5.875   0.045 -1.3126 -0.7605 -1.8359
  621MOL0     H85651   2.331   5.716  -0.008 -1.1581 -0.0100  1.1077
  621MOL0     H85652   2.494   5.704   0.137  2.5718 -1.3227 -0.8493
  621MOL0     H85653   2.567   5.742  -0.019 -1.8515  1.4630 -1.7780
  621MOL0     H85654   2.672   5.907   0.154  0.0914 -1.1454  2.0914
  621MOL0     H85655   2.564   5.995   0.054  0.2648  0.4577 -1.0930
  621MOL0     H85656   2.498   6.045   0.476  0.4151 -0.6504 -1.5637
  621MOL0     H85657   2.323   6.243   0.650 -0.0157 -2.2689 -0.1859
  621MOL0     H85658   2.446   6.354   0.604 -3.7433  0.0076  0.5808
  621MOL0     H85659   2.483   6.181   0.643 -0.6680 -1.0486  1.2390
  621MOL0     H85660   2.008   6.579   0.460 -2.4735 -0.0978 -2.6235
  621MOL0     H85661   1.948   6.830   0.489  1.2240  0.2021  1.3094
  621MOL0     H85662   2.140   7.126   0.188  0.1476  1.0476  1.3082
  621MOL0     H85663   1.986   7.045   0.140 -0.1756  2.1285 -0.6971
  621MOL0     H85664   2.023   7.300   0.286 -1.2615 -0.8440  3.7759
  621MOL0     H85665   1.944   7.274   0.130  2.7381 -1.6928 -1.4262
  621MOL0     H85666   1.847   7.186   0.415 -0.9153  1.8013  1.2873
  621MOL0     H85667   1.748   7.151   0.284 -0.4172  0.0211  3.2713
  621MOL0     H85668   1.737   7.388   0.216  0.2585 -2.3011 -0.2265
  621MOL0     H85669   1.849   7.445   0.334 -1.8885  0.9921  0.4512
  621MOL0     H85670   1.682   7.376   0.510 -1.7651 -1.0324 -0.0617
  621MOL0     H85671   1.613   7.490   0.393 -2.2531 -0.8448 -2.1282
  621MOL0     H85672   1.541   7.217   0.465 -0.2844 -0.5932  1.0562
  621MOL0     H85673   1.526   7.257   0.288 -1.3695  1.7366  0.2122
  621MOL0     H85674   1.396   7.479   0.406 -3.1299 -1.1169 -2.5022
  621MOL0     H85675   1.410   7.368   0.539 -0.8506 -2.5863 -0.1700
  621MOL0     H85676   1.269   7.204   0.387 -0.0288  0.2422  1.9104
  621MOL0     H85677   1.279   7.335   0.267 -0.9618  2.5045  0.8013
  621MOL0     H85678   2.190   6.909   0.137  2.7063 -3.2945 -2.3008
  621MOL0     H85679   2.222   6.652   0.117 -0.2578 -1.7356  0.1182
  621MOL0     H85680   2.280   6.321   0.135  1.7375 -0.2005 -1.6114
  621MOL0     H85681   2.384   6.089   0.074  2.5790 -1.9056  0.8626
  621MOL0     H85682   1.079   5.919   0.309  1.8007 -1.0464  1.5319
  621MOL0     H85683   0.944   5.824   0.475  1.6920 -1.0384 -0.0382
  621MOL0     H85684   0.758   5.431   0.641 -0.2692  0.9170 -0.3879
  621MOL0     H85685   0.632   5.318   0.824  0.0153 -0.2485  0.8905
  621MOL0     H85686   0.393   5.193   0.819  1.3420 -2.1053  1.2897
  621MOL0     H85687   0.505   5.209   0.953  0.2153 -0.0905 -1.4280
  621MOL0     H85688   0.316   5.079   1.026 -1.3619 -0.9642  1.1119
  621MOL0     H85689   0.203   5.199   0.951 -0.8274  1.3436  0.9518
  621MOL0     H85690   0.376   5.254   1.192 -1.1941  1.5961  1.5951
  621MOL0     H85691   0.252   5.360   1.119 -1.0995  0.7504 -0.2840
  621MOL0     H85692   0.189   5.066   1.238  2.6148  0.4161  2.9486
  621MOL0     H85693   0.076   5.185   1.195 -0.7925  3.7094  2.9877
  621MOL0     H85694   0.140   5.351   1.556  0.9110 -0.0318 -0.0895
  621MOL0     H85695   0.302   5.577   0.753 -0.4977  0.2494 -1.8977
  621MOL0     H85696   0.454   5.796   0.519 -0.4832 -0.5462 -0.7621
  621MOL0     H85697   0.365   5.674   0.445  0.5707 -1.8618  1.6624
  621MOL0     H85698   0.305   5.752   0.597 -1.4704 -0.1329 -1.1042
  622MOL0     O85699   3.947   9.093   5.321 -0.2687 -0.1796  1.1523
  622MOL0     C85700   3.919   9.078   5.436 -0.1462  0.3238 -0.2650
  622MOL0     O85701   4.022   9.074   5.539  0.6205  0.0813 -0.5066
  622MOL0     C85702   4.148   9.043   5.507 -0.0348  0.2334 -0.9155
  622MOL0     C85703   4.253   9.066   5.595  0.0105  0.1667  0.3599
  622MOL0     C85704   4.388   9.035   5.576  0.5054  0.0256  0.7237
  622MOL0     C85705   4.417   8.949   5.466  0.1394  0.4012 -0.1544
  622MOL0     O85706   4.539   8.910   5.430  0.1091 -0.2162  0.5514
  622MOL0     C85707   4.658   8.934   5.510 -0.2025  0.2536 -0.0189
  622MOL0     C85708   4.772   8.918   5.411  0.6277 -0.4136  0.4754
  622MOL0     C85709   4.905   8.886   5.476 -0.3368 -0.1885  0.0343
  622MOL0     C85710   4.999   8.823   5.369  0.1243 -0.3516 -1.0943
  622MOL0     C85711   5.124   8.786   5.446 -0.7972 -0.2108 -0.2949
  622MOL0     C85712   5.242   8.760   5.349 -0.1877  0.7243 -0.1721
  622MOL0     C85713   5.357   8.688   5.413  0.0036  0.4109  0.0596
  622MOL0     C85714   5.420   8.779   5.517  0.1324  0.2397 -0.8961
  622MOL0     N85715   5.553   8.721   5.553  0.5127  0.5114  0.2532
  622MOL0     C85716   5.657   8.689   5.470  0.1289  0.2448 -0.5283
  622MOL0     C85717   5.750   8.632   5.548 -0.0224  0.2829 -0.0793
  622MOL0     C85718   5.886   8.591   5.509 -0.6408  0.4164  1.0805
  622MOL0     C85719   5.989   8.656   5.611 -0.9971 -0.1427 -0.3569
  622MOL0     C85720   6.125   8.581   5.605 -0.8595 -0.3546 -0.5343
  622MOL0     C85721   6.236   8.660   5.678 -0.4108  0.1097 -0.2840
  622MOL0     O85722   6.345   8.570   5.726  0.3398  0.0318 -0.6253
  622MOL0     C85723   6.449   8.616   5.809 -0.1719  0.7128 -0.7169
  622MOL0     C85724   6.549   8.515   5.830  0.2621 -0.9803 -0.1780
  622MOL0     C85725   6.664   8.530   5.913 -0.3292 -0.0079 -0.4856
  622MOL0     C85726   6.768   8.420   5.919  0.7366 -0.4863  0.3340
  622MOL0     C85727   6.661   8.641   6.002 -0.4861  0.1295 -0.9557
  622MOL0     C85728   6.761   8.666   6.110  0.0664 -0.2422  0.1526
  622MOL0     O85729   6.753   8.799   6.157 -0.4820 -0.1070  0.2852
  622MOL0     C85730   6.851   8.824   6.244 -0.7728 -1.3063 -0.8434
  622MOL0     C85731   6.841   8.807   6.382 -0.4257  0.3908 -0.4562
  622MOL0     C85732   6.944   8.819   6.471 -0.6707 -0.6131  0.0295
  622MOL0     C85733   7.060   8.875   6.416 -1.1450 -0.2027 -1.0209
  622MOL0     O85734   7.163   8.924   6.498  0.1007  0.0676  0.0057
  622MOL0     C85735   7.154   8.924   6.644  0.0670  0.8224  0.5843
  622MOL0     C85736   7.285   8.982   6.693 -1.0028  0.2727  0.1674
  622MOL0     C85737   7.312   9.119   6.631  0.5929  0.6941 -0.1653
  622MOL0     C85738   7.405   9.222   6.703  0.0366  0.1468  0.1793
  622MOL0     C85739   7.547   9.190   6.684 -0.2067 -0.8081 -0.0492
  622MOL0     C85740   7.634   9.281   6.776 -0.7424 -0.6421  0.2230
  622MOL0     C85741   7.797   9.270   6.765  0.3270  0.1607  0.7133
  622MOL0     C85742   7.872   9.324   6.899 -0.1268  0.3879  0.6844
  622MOL0    Cl85743   8.038   9.261   6.887 -0.5047 -0.1265 -0.0963
  622MOL0     C85744   7.073   8.903   6.281  0.5406 -0.0753 -0.6840
  622MOL0     C85745   6.969   8.877   6.194 -0.0817 -0.1742 -0.2120
  622MOL0     O85746   6.843   8.576   6.146 -1.0166  0.0091 -0.5198
  622MOL0     C85747   6.557   8.730   5.990 -0.3955 -0.6755  0.6168
  622MOL0     C85748   6.469   8.737   5.877  0.4073  0.4458 -0.3017
  622MOL0     N85749   5.704   8.630   5.672 -0.2339 -0.4174 -0.3325
  622MOL0     N85750   5.587   8.684   5.682 -0.3930  0.3200 -0.6597
  622MOL0     C85751   4.314   8.912   5.384  0.8151  0.1276 -0.7404
  622MOL0     C85752   4.179   8.958   5.406 -0.1573 -0.3159  0.3631
  622MOL0     C85753   3.776   9.061   5.476  0.4614 -0.2033  0.5308
  622MOL0     C85754   3.757   8.985   5.596  0.1224 -0.1606 -0.1431
  622MOL0     C85755   3.628   8.957   5.643  0.0858 -0.5275  0.1737
  622MOL0     C85756   3.523   9.018   5.579  0.1316  0.4789 -0.0016
  622MOL0     O85757   3.395   8.990   5.644  0.2492  0.4809  0.2518
  622MOL0     C85758   3.282   9.077   5.619  0.0724  0.5040 -0.0991
  622MOL0     C85759   3.211   9.032   5.495  0.5785 -0.7945  0.3413
  622MOL0     C85760   3.078   9.114   5.478  0.6668  0.3423  0.2920
  622MOL0     C85761   2.955   9.025   5.527 -0.1283  0.3881 -0.1375
  622MOL0     C85762   2.937   8.899   5.458 -0.0969  0.4032  0.7581
  622MOL0     C85763   2.900   8.801   5.397  0.1307  0.1150 -0.4915
  622MOL0     C85764   3.544   9.095   5.460  0.2205  0.1723 -0.2704
  622MOL0     C85765   3.668   9.116   5.408  0.5002  0.0987 -0.1150
  622MOL0     C85766   3.682   9.190   5.276  0.5480  0.4659  0.1474
  622MOL0     H85767   4.230   9.129   5.681 -2.1977  1.5354 -1.1238
  622MOL0     H85768   4.463   9.067   5.648  1.3051  1.2593 -0.6010
  622MOL0     H85769   4.669   8.861   5.591  1.3101 -0.8894 -1.1938
  622MOL0     H85770   4.660   9.031   5.561  0.0366 -0.1553  0.7665
  622MOL0     H85771   4.752   8.848   5.329 -0.3142  2.3295 -1.7880
  622MOL0     H85772   4.776   9.012   5.356 -3.5588  0.3728  1.1888
  622MOL0     H85773   4.952   8.978   5.512  2.0201 -0.7369 -1.4351
  622MOL0     H85774   4.892   8.816   5.558  1.7265 -1.2750 -0.4991
  622MOL0     H85775   4.957   8.729   5.331 -0.4712  0.1134 -1.6117
  622MOL0     H85776   5.024   8.889   5.285  1.3571  0.9005  0.2110
  622MOL0     H85777   5.107   8.692   5.499  0.4268 -0.8304 -0.9480
  622MOL0     H85778   5.154   8.863   5.518 -1.9744 -0.2830  0.2961
  622MOL0     H85779   5.208   8.712   5.257  1.1507 -0.5715 -0.0272
  622MOL0     H85780   5.259   8.860   5.309 -0.1479 -0.1317 -2.4371
  622MOL0     H85781   5.425   8.645   5.340  0.1288  0.2983  0.2423
  622MOL0     H85782   5.317   8.602   5.468  1.4466 -0.1586  0.2574
  622MOL0     H85783   5.447   8.880   5.486  3.3347  0.9065  3.1055
  622MOL0     H85784   5.353   8.776   5.604  0.9677 -2.3597 -0.2506
  622MOL0     H85785   5.664   8.700   5.362 -1.8085  0.0536 -0.7049
  622MOL0     H85786   5.906   8.610   5.404 -0.5987 -3.4539  0.2185
  622MOL0     H85787   5.885   8.482   5.524 -0.5262  0.7098  3.7187
  622MOL0     H85788   6.003   8.762   5.589  0.1727  0.1011  1.3516
  622MOL0     H85789   5.945   8.639   5.710 -0.0106  2.7202  0.6896
  622MOL0     H85790   6.113   8.484   5.654 -2.5458  0.3150  0.4614
  622MOL0     H85791   6.160   8.561   5.504 -1.0053  0.1323 -0.6855
  622MOL0     H85792   6.284   8.725   5.604  0.1405 -1.4665 -1.3532
  622MOL0     H85793   6.202   8.740   5.745  0.3318  0.2325 -0.0385
  622MOL0     H85794   6.541   8.421   5.777  1.5086 -2.0831  1.4812
  622MOL0     H85795   6.758   8.355   6.006  0.7167 -1.2885 -0.2512
  622MOL0     H85796   6.871   8.457   5.913  0.2492  0.7115 -2.0990
  622MOL0     H85797   6.759   8.353   5.833 -0.3828  0.0659  0.0046
  622MOL0     H85798   6.745   8.789   6.430  0.3597  3.8352  2.9548
  622MOL0     H85799   6.914   8.786   6.570  1.0901  0.2317  0.8899
  622MOL0     H85800   7.067   8.981   6.678  0.1530 -0.5336  3.3597
  622MOL0     H85801   7.147   8.824   6.688  0.1910  0.5745  0.0567
  622MOL0     H85802   7.297   8.984   6.802  2.1625  0.2768 -0.0926
  622MOL0     H85803   7.357   8.916   6.644  0.0914  2.1245 -0.8411
  622MOL0     H85804   7.216   9.167   6.608  0.0674 -1.2748 -2.6376
  622MOL0     H85805   7.357   9.110   6.532 -3.1688  0.4978 -2.0624
  622MOL0     H85806   7.371   9.228   6.807 -1.0754 -1.1160 -0.0804
  622MOL0     H85807   7.378   9.309   6.642  1.5280  0.3082 -0.2866
  622MOL0     H85808   7.576   9.089   6.715  1.0185 -0.0351  1.4607
  622MOL0     H85809   7.584   9.191   6.580  2.5857 -2.4866  0.8075
  622MOL0     H85810   7.610   9.252   6.878 -2.3373 -2.0108 -0.5112
  622MOL0     H85811   7.611   9.387   6.759 -1.4034 -0.6806  0.8725
  622MOL0     H85812   7.833   9.321   6.676  1.3469  0.9627  1.5558
  622MOL0     H85813   7.820   9.163   6.765  1.3291  0.3676 -0.2517
  622MOL0     H85814   7.818   9.299   6.991 -1.4215 -1.7351 -0.5586
  622MOL0     H85815   7.877   9.433   6.890 -0.6476  0.2753 -2.2338
  622MOL0     H85816   7.167   8.946   6.247  0.9113  0.0980  0.4907
  622MOL0     H85817   6.976   8.903   6.089 -0.3186 -1.0671 -0.4577
  622MOL0     H85818   6.545   8.823   6.045 -0.5050 -0.8633  0.9126
  622MOL0     H85819   6.404   8.822   5.861 -1.5674 -0.6541  1.2776
  622MOL0     H85820   4.328   8.838   5.306 -0.0910 -0.3873 -0.4383
  622MOL0     H85821   4.099   8.915   5.346 -0.8349  1.4106 -0.0079
  622MOL0     H85822   3.836   8.927   5.644  0.5985  0.6188  0.0312
  622MOL0     H85823   3.607   8.891   5.726 -2.1987  1.0718  0.9699
  622MOL0     H85824   3.226   9.054   5.711  2.0617 -3.7067  0.3069
  622MOL0     H85825   3.320   9.178   5.604  4.6709 -1.3832 -3.4182
  622MOL0     H85826   3.195   8.923   5.496 -1.3618 -0.5585  1.9089
  622MOL0     H85827   3.269   9.052   5.404  0.2620 -0.1622  0.2772
  622MOL0     H85828   3.088   9.202   5.543 -0.0780  0.6899 -0.0540
  622MOL0     H85829   3.060   9.139   5.373  1.6539 -0.3781 -0.0658
  622MOL0     H85830   2.868   9.090   5.512  0.6012  1.3989 -0.1133
  622MOL0     H85831   2.954   9.005   5.634 -0.4098  1.5392  0.0890
  622MOL0     H85832   2.879   8.714   5.337  0.8870 -2.5842  2.8784
  622MOL0     H85833   3.466   9.162   5.427 -0.5323 -0.3515  0.4041
  622MOL0     H85834   3.720   9.116   5.204  2.7308 -0.4568  2.0912
  622MOL0     H85835   3.583   9.228   5.250 -0.8289 -1.2208  2.5915
  622MOL0     H85836   3.752   9.274   5.280 -0.3643  1.1951  1.7512
  623MOL0     O85837   4.906  10.077   7.673  0.2311 -0.2964  0.1047
  623MOL0     C85838   4.969  10.158   7.742  0.4301  0.0095  0.2060
  623MOL0     O85839   4.937  10.292   7.762  0.3964  0.4863  0.5876
  623MOL0     C85840   4.812  10.351   7.741 -0.0561  0.2867  0.2215
  623MOL0     C85841   4.689  10.288   7.768  0.2725  0.6002 -0.6504
  623MOL0     C85842   4.567  10.361   7.762 -0.1858 -0.1635  0.2384
  623MOL0     C85843   4.560  10.493   7.726 -0.3486  0.6095 -1.2852
  623MOL0     O85844   4.447  10.562   7.727  0.0111  0.7848  0.2208
  623MOL0     C85845   4.355  10.531   7.629 -0.3900 -0.4430 -0.2835
  623MOL0     C85846   4.413  10.559   7.491  0.1983 -0.2946  0.4126
  623MOL0     C85847   4.302  10.576   7.395  0.0610  0.1689  0.2920
  623MOL0     C85848   4.236  10.444   7.350 -0.4676  1.0524 -0.1504
  623MOL0     C85849   4.109  10.475   7.271  0.2568  0.0364  0.3295
  623MOL0     C85850   4.026  10.346   7.241 -0.2527  0.3244  0.0008
  623MOL0     C85851   3.923  10.373   7.138 -0.0897  0.2546  0.5858
  623MOL0     C85852   3.872  10.249   7.065 -0.4994  0.4053  0.0480
  623MOL0     N85853   3.980  10.179   7.004  0.2632 -0.1637  0.4199
  623MOL0     C85854   4.076  10.237   6.926 -0.1125 -0.5424 -0.4577
  623MOL0     C85855   4.185  10.153   6.929 -0.5993  0.3114 -0.5907
  623MOL0     C85856   4.318  10.198   6.872 -0.0889 -0.0315 -0.5336
  623MOL0     C85857   4.440  10.117   6.928  1.0463 -0.3099 -0.2443
  623MOL0     C85858   4.571  10.191   6.924 -0.7666 -0.9605  0.1632
  623MOL0     C85859   4.697  10.102   6.962  0.6005 -0.5873  1.0457
  623MOL0     O85860   4.810  10.190   6.960 -0.7999 -0.1325 -0.2451
  623MOL0     C85861   4.890  10.186   7.069  0.4820  0.2015 -0.1450
  623MOL0     C85862   4.883  10.285   7.165  0.0317 -0.6739 -0.1659
  623MOL0     C85863   4.976  10.286   7.272  0.0218  0.0444 -0.2276
  623MOL0     C85864   4.960  10.392   7.379  0.4638 -0.7518  0.6088
  623MOL0     C85865   5.084  10.191   7.277  0.8765 -1.2455  0.0064
  623MOL0     C85866   5.185  10.179   7.384  0.1894 -0.6040 -0.1012
  623MOL0     O85867   5.315  10.207   7.354  0.1055  0.6703  0.3343
  623MOL0     C85868   5.413  10.216   7.451 -0.0744 -0.2371 -0.1926
  623MOL0     C85869   5.443  10.107   7.526  0.0135  0.3105 -0.1540
  623MOL0     C85870   5.545  10.115   7.628 -0.3758  0.6128 -0.8229
  623MOL0     C85871   5.604  10.237   7.654  0.4533 -0.5173  0.9147
  623MOL0     O85872   5.705  10.237   7.746 -0.3182  0.1537  0.9316
  623MOL0     C85873   5.842  10.236   7.693  0.4065 -0.5983  0.7035
  623MOL0     C85874   5.935  10.172   7.787  1.2127 -0.3415 -1.0884
  623MOL0     C85875   5.895  10.022   7.822  0.6339 -0.2127  0.4152
  623MOL0     C85876   5.994   9.943   7.916  0.5376 -1.2666  0.0253
  623MOL0     C85877   5.965   9.793   7.898  0.0901 -0.0280 -0.1986
  623MOL0     C85878   6.065   9.712   7.981 -0.7604 -0.4311 -0.3594
  623MOL0     C85879   6.032   9.705   8.124  0.2765 -0.3915  0.3358
  623MOL0     C85880   6.110   9.617   8.207  0.4214  0.5739 -0.0949
  623MOL0    Cl85881   6.122   9.447   8.152 -0.1996  0.2214  0.6039
  623MOL0     C85882   5.569  10.348   7.577  0.1541  0.9113  0.3914
  623MOL0     C85883   5.476  10.339   7.476 -0.6881 -0.0808 -0.3910
  623MOL0     O85884   5.142  10.150   7.497  0.0873  0.3090  0.3715
  623MOL0     C85885   5.088  10.087   7.181  0.3693 -0.3090  0.2803
  623MOL0     C85886   4.990  10.088   7.076 -0.6719 -0.5063  0.0824
  623MOL0     N85887   4.158  10.045   7.008  0.0681 -0.2238  0.2720
  623MOL0     N85888   4.034  10.063   7.052  0.5073 -0.0079  0.7517
  623MOL0     C85889   4.680  10.554   7.691 -0.0722 -0.5238 -0.2866
  623MOL0     C85890   4.807  10.490   7.702 -0.2986 -0.0892 -0.2558
  623MOL0     C85891   5.094  10.116   7.820  0.3726  0.4433  0.1167
  623MOL0     C85892   5.193  10.204   7.835 -0.1923 -0.8200  0.2238
  623MOL0     C85893   5.305  10.179   7.906  0.1018 -0.2908  0.4504
  623MOL0     C85894   5.331  10.051   7.964 -0.2054 -0.0473  0.4574
  623MOL0     O85895   5.445  10.017   8.035  0.2188  0.4481  0.4003
  623MOL0     C85896   5.548  10.118   8.047  0.9911  0.8057  0.9882
  623MOL0     C85897   5.677  10.047   8.113 -0.0650 -0.7903  1.0953
  623MOL0     C85898   5.661   9.999   8.256  0.8489  0.3638  1.2956
  623MOL0     C85899   5.769   9.932   8.330  0.7093 -0.1270  0.0262
  623MOL0     C85900   5.885  10.017   8.351 -0.1719 -0.1712  0.2356
  623MOL0     C85901   5.986  10.074   8.361 -0.9822  0.8051 -0.3203
  623MOL0     C85902   5.235   9.955   7.939  0.4951 -0.0876 -0.0595
  623MOL0     C85903   5.111   9.989   7.879  0.2764 -0.0849  0.2220
  623MOL0     C85904   5.015   9.880   7.860  0.3078  0.6179  0.3224
  623MOL0     H85905   4.701  10.186   7.803 -2.4475 -0.2537 -1.9279
  623MOL0     H85906   4.470  10.315   7.780  0.3062 -0.6728  1.6602
  623MOL0     H85907   4.273  10.598   7.657 -0.7889 -1.4111  0.9432
  623MOL0     H85908   4.331  10.425   7.632 -0.1578 -0.5105 -0.7078
  623MOL0     H85909   4.465  10.655   7.494  1.3895 -0.8460 -0.9739
  623MOL0     H85910   4.474  10.471   7.466 -1.4509 -1.0845 -0.9972
  623MOL0     H85911   4.227  10.651   7.421  0.2653  0.9296 -1.1975
  623MOL0     H85912   4.349  10.626   7.310 -2.0811 -1.0811 -1.7654
  623MOL0     H85913   4.303  10.382   7.290 -1.0812  0.6850 -0.4604
  623MOL0     H85914   4.200  10.391   7.439 -0.3871 -1.0351 -1.2970
  623MOL0     H85915   4.156  10.511   7.178  0.7693 -0.7025  0.2943
  623MOL0     H85916   4.037  10.544   7.314  0.7297  1.6353 -1.3039
  623MOL0     H85917   4.096  10.268   7.210 -1.1874 -1.2593  1.6792
  623MOL0     H85918   3.982  10.301   7.331 -0.7313  0.6884 -0.0494
  623MOL0     H85919   3.964  10.445   7.067 -0.6342  0.9883  1.0047
  623MOL0     H85920   3.837  10.431   7.172  0.9215  0.4844  2.9831
  623MOL0     H85921   3.829  10.179   7.137 -0.5615 -1.9179 -2.1242
  623MOL0     H85922   3.797  10.269   6.988  1.7455  1.4591 -2.0028
  623MOL0     H85923   4.068  10.325   6.862  3.2316  1.0725  1.1194
  623MOL0     H85924   4.323  10.303   6.903 -0.4445 -0.6929  2.0543
  623MOL0     H85925   4.323  10.195   6.763  3.4393  1.4499 -0.5511
  623MOL0     H85926   4.424  10.088   7.032  0.2194  0.9903  0.0226
  623MOL0     H85927   4.443  10.036   6.856 -2.3468 -0.3505 -0.4703
  623MOL0     H85928   4.588  10.237   6.826  3.0608  0.3928  1.2764
  623MOL0     H85929   4.579  10.276   6.992  2.0358 -0.6404 -0.4238
  623MOL0     H85930   4.697  10.047   7.056  3.2885 -1.5354  0.5931
  623MOL0     H85931   4.716  10.037   6.876  1.0105  1.0620 -0.1624
  623MOL0     H85932   4.813  10.367   7.163  1.1878  0.4441  1.7523
  623MOL0     H85933   4.905  10.349   7.462 -0.3145 -2.5002 -0.7470
  623MOL0     H85934   4.914  10.480   7.333  1.6865 -1.3286 -1.9377
  623MOL0     H85935   5.056  10.425   7.421  0.1729 -0.3907  0.9920
  623MOL0     H85936   5.394  10.012   7.507  1.3788 -0.0703 -2.0191
  623MOL0     H85937   5.565  10.028   7.689  0.5944  1.6617  0.4152
  623MOL0     H85938   5.843  10.180   7.599  0.4087  4.2867 -2.5688
  623MOL0     H85939   5.881  10.332   7.659  2.3148 -2.0742 -1.5953
  623MOL0     H85940   6.031  10.167   7.735  0.6770  0.0159 -2.1510
  623MOL0     H85941   5.939  10.238   7.874  2.4755  0.1982 -1.5423
  623MOL0     H85942   5.875   9.962   7.732 -1.3759  0.8515  0.0814
  623MOL0     H85943   5.800  10.021   7.876  2.1032  0.1481  3.1865
  623MOL0     H85944   5.973   9.976   8.018 -0.0464  0.5602 -0.6396
  623MOL0     H85945   6.097   9.963   7.885 -0.2465 -2.5977 -4.0958
  623MOL0     H85946   5.864   9.771   7.935  0.9565 -2.2833  1.0513
  623MOL0     H85947   5.959   9.772   7.791  0.7016 -1.4405  0.0256
  623MOL0     H85948   6.160   9.765   7.972 -0.8931  0.1145  1.2283
  623MOL0     H85949   6.083   9.614   7.937 -0.7013 -0.6368  0.1217
  623MOL0     H85950   5.930   9.667   8.134 -1.6047  3.3351 -2.1735
  623MOL0     H85951   6.031   9.809   8.159 -1.6903 -0.2208 -0.1398
  623MOL0     H85952   6.052   9.616   8.300 -2.1070 -2.3701 -1.4856
  623MOL0     H85953   6.208   9.664   8.214  1.5756 -1.7001  0.0837
  623MOL0     H85954   5.611  10.443   7.607  0.1842  0.8559  0.5249
  623MOL0     H85955   5.454  10.418   7.405  1.8152  0.5916 -0.5003
  623MOL0     H85956   5.167  10.014   7.192  2.1878  1.5010 -0.2687
  623MOL0     H85957   5.001  10.020   6.992  0.1731 -2.5778  1.7655
  623MOL0     H85958   4.669  10.662   7.685 -1.1345 -0.6457 -0.7595
  623MOL0     H85959   4.896  10.549   7.683  0.0213 -0.4463  0.1255
  623MOL0     H85960   5.175  10.300   7.788  1.5268 -1.7853 -2.6453
  623MOL0     H85961   5.370  10.266   7.905 -2.1982  1.5609  1.5071
  623MOL0     H85962   5.578  10.154   7.947 -1.2789  0.2675  0.0439
  623MOL0     H85963   5.503  10.200   8.103 -2.9220 -0.5496  0.1565
  623MOL0     H85964   5.748  10.130   8.110 -0.9758 -0.0117 -1.4252
  623MOL0     H85965   5.701   9.965   8.044 -0.2914  1.3584 -1.7208
  623MOL0     H85966   5.631  10.091   8.306 -2.1738 -1.1964  2.5674
  623MOL0     H85967   5.573   9.935   8.256  0.2655  0.8481 -3.0236
  623MOL0     H85968   5.808   9.842   8.280  2.8660  0.1716  1.0490
  623MOL0     H85969   5.741   9.897   8.429  1.8418  0.7295  0.6725
  623MOL0     H85970   6.078  10.125   8.378 -0.3467 -0.4112  0.0516
  623MOL0     H85971   5.258   9.857   7.980  0.1768 -0.6418 -1.1655
  623MOL0     H85972   5.037   9.796   7.926 -1.3842 -1.3290 -1.4133
  623MOL0     H85973   4.916   9.921   7.883  1.0316  1.2582  2.4878
  623MOL0     H85974   5.020   9.852   7.754 -1.9960  0.2504  0.2547
  624MOL0     O85975  10.128   5.710  10.078  0.0570 -0.3893  0.3142
  624MOL0     C85976  10.065   5.657  10.170  0.5542 -0.6424 -0.2745
  624MOL0     O85977  10.112   5.620  10.291 -0.2652 -1.1263  0.6197
  624MOL0     C85978  10.234   5.663  10.323 -0.1642  0.5956  0.1243
  624MOL0     C85979  10.243   5.770  10.408  0.6265 -0.0176  0.5117
  624MOL0     C85980  10.372   5.804  10.448 -0.7965 -1.1267  0.0754
  624MOL0     C85981  10.489   5.739  10.400 -0.0058  0.1607  0.4150
  624MOL0     O85982  10.613   5.791  10.431 -0.1430 -0.5756  0.2481
  624MOL0     C85983  10.725   5.707  10.423  0.4505  0.1350 -0.6343
  624MOL0     C85984  10.729   5.615  10.555 -0.5896 -0.4163  0.5596
  624MOL0     C85985  10.845   5.522  10.546  0.5686  0.4156  0.2984
  624MOL0     C85986  10.826   5.411  10.653  0.1309  0.0362  0.2087
  624MOL0     C85987  10.916   5.293  10.630 -0.1915  0.7551  0.3725
  624MOL0     C85988  11.056   5.332  10.686 -0.3266 -0.3858  0.9529
  624MOL0     C85989  11.145   5.201  10.661 -1.0698  0.6059 -0.9181
  624MOL0     C85990  11.285   5.228  10.713 -0.6478 -0.4620  0.0351
  624MOL0     N85991  11.365   5.102  10.716  0.5553 -0.3983  1.1770
  624MOL0     C85992  11.371   5.008  10.811  0.2307  0.3149 -0.1712
  624MOL0     C85993  11.478   4.930  10.781  0.4971  0.5128  0.5288
  624MOL0     C85994  11.523   4.809  10.869  0.4733 -0.5929  0.0336
  624MOL0     C85995  11.669   4.785  10.840 -0.8442  1.0391  0.1326
  624MOL0     C85996  11.714   4.678  10.941  0.0766 -0.3013 -0.2798
  624MOL0     C85997  11.841   4.603  10.888 -0.4011  0.0175  0.1765
  624MOL0     O85998  11.953   4.688  10.863 -0.0912 -0.1343  0.1535
  624MOL0     C85999  12.053   4.639  10.783 -0.3542  0.2408  0.8448
  624MOL0     C86000  12.032   4.543  10.679  0.7517  0.1807 -0.0939
  624MOL0     C86001  12.131   4.512  10.582 -0.3360  0.4704  0.1873
  624MOL0     C86002  12.089   4.438  10.462 -0.0129  0.0733 -0.9750
  624MOL0     C86003  12.256   4.569  10.583 -0.2562 -0.1439  0.3433
  624MOL0     C86004  12.370   4.567  10.484  0.7648  0.7885 -0.1549
  624MOL0     O86005  12.445   4.683  10.478  0.1140  0.3232 -0.2410
  624MOL0     C86006  12.553   4.705  10.396 -0.1281 -0.3773  0.8052
  624MOL0     C86007  12.583   4.644  10.272 -0.7223 -0.4378 -0.4445
  624MOL0     C86008  12.703   4.664  10.207  0.4453 -0.5851 -0.5840
  624MOL0     C86009  12.792   4.762  10.251  0.1245 -0.0069  0.1507
  624MOL0     O86010  12.908   4.776  10.182  0.6144 -0.0078 -0.0738
  624MOL0     C86011  12.995   4.870  10.230  0.3372 -0.2417 -0.0133
  624MOL0     C86012  13.112   4.873  10.128  0.2307 -0.7165 -0.7549
  624MOL0     C86013  13.214   4.753  10.136  1.1708 -0.0755  0.1858
  624MOL0     C86014  13.334   4.775  10.049  1.2322 -0.5107 -1.6210
  624MOL0     C86015  13.437   4.666  10.074  0.1144  0.1807  0.6391
  624MOL0     C86016  13.575   4.715  10.025 -0.3138 -0.2649  0.6312
  624MOL0     C86017  13.682   4.627  10.075 -1.2186  0.4719 -0.1823
  624MOL0     C86018  13.828   4.685  10.058  0.0586  0.7678  0.3084
  624MOL0    Cl86019  13.835   4.818   9.932  0.2009  0.3011 -0.0135
  624MOL0     C86020  12.745   4.844  10.343  0.6204  0.6667  0.4115
  624MOL0     C86021  12.628   4.814  10.423 -1.1380  0.1000 -0.0090
  624MOL0     O86022  12.389   4.461  10.423  0.2958 -0.4579  0.1880
  624MOL0     C86023  12.286   4.662  10.687 -0.2493  0.4971 -0.0184
  624MOL0     C86024  12.183   4.693  10.777  0.0759 -0.0819  0.1469
  624MOL0     N86025  11.527   4.963  10.651  0.5408 -0.5657 -0.6795
  624MOL0     N86026  11.458   5.071  10.619  0.4876  0.5835 -0.1996
  624MOL0     C86027  10.478   5.630  10.312  0.6640 -0.2886 -0.3397
  624MOL0     C86028  10.347   5.598  10.273 -0.5282  0.0724  0.5933
  624MOL0     C86029   9.925   5.620  10.137 -0.2135 -0.3159  0.0556
  624MOL0     C86030   9.877   5.489  10.148 -0.2913  0.0574 -0.6062
  624MOL0     C86031   9.742   5.460  10.133  0.4049 -0.5328 -0.4455
  624MOL0     C86032   9.643   5.551  10.108  0.5476  0.6403  0.7316
  624MOL0     O86033   9.508   5.532  10.127  0.5592  0.5800 -0.5592
  624MOL0     C86034   9.454   5.474  10.012  0.8029 -0.1786  0.3754
  624MOL0     C86035   9.309   5.464  10.035  0.5359 -0.6458  0.3331
  624MOL0     C86036   9.236   5.394   9.921  0.1042 -0.0075 -0.3431
  624MOL0     C86037   9.257   5.242   9.920  1.0106 -0.1039  0.3582
  624MOL0     C86038   9.176   5.166  10.012  0.7377 -0.5923 -0.4757
  624MOL0     C86039   9.111   5.097  10.096 -0.4759  0.4998  0.5164
  624MOL0     C86040   9.691   5.677  10.077 -0.9106 -0.7893 -0.2113
  624MOL0     C86041   9.830   5.714  10.085 -0.2567 -0.2317 -0.6548
  624MOL0     C86042   9.866   5.858  10.084  1.0006  0.1265  0.7166
  624MOL0     H86043  10.150   5.814  10.441 -0.5770 -1.5547 -0.6699
  624MOL0     H86044  10.389   5.881  10.523  1.1076 -3.8621  2.7001
  624MOL0     H86045  10.815   5.769  10.429 -1.6791  3.4375 -0.7208
  624MOL0     H86046  10.732   5.661  10.324  0.6400  2.5320 -1.7918
  624MOL0     H86047  10.738   5.685  10.638 -1.4707 -0.2793  0.5440
  624MOL0     H86048  10.633   5.563  10.563 -1.8234  1.1314 -2.4596
  624MOL0     H86049  10.847   5.474  10.447 -1.1574 -1.5592  1.1533
  624MOL0     H86050  10.940   5.576  10.554  1.4642 -1.2480  1.3306
  624MOL0     H86051  10.837   5.450  10.755 -1.0593  2.4822 -0.5179
  624MOL0     H86052  10.721   5.380  10.664  0.1458  0.4447  1.7216
  624MOL0     H86053  10.916   5.272  10.523 -1.0961  0.5485  0.4052
  624MOL0     H86054  10.878   5.203  10.680 -0.3114  1.6243  1.8931
  624MOL0     H86055  11.092   5.423  10.638 -0.8319  0.2562  1.7600
  624MOL0     H86056  11.053   5.354  10.793  2.7061  2.2139  0.6472
  624MOL0     H86057  11.147   5.175  10.555  0.4832  1.7331 -1.2124
  624MOL0     H86058  11.101   5.114  10.711  2.0086 -0.5371  0.0762
  624MOL0     H86059  11.333   5.293  10.639 -2.7545  1.4438  0.2164
  624MOL0     H86060  11.283   5.284  10.807  1.3699 -0.9911  0.4460
  624MOL0     H86061  11.304   5.005  10.897 -1.7918  2.2723 -1.5536
  624MOL0     H86062  11.469   4.723  10.826  1.2456 -0.5018 -1.1710
  624MOL0     H86063  11.502   4.831  10.974 -1.0573  0.1206 -0.3964
  624MOL0     H86064  11.675   4.762  10.733 -0.4434  4.5349 -0.7199
  624MOL0     H86065  11.723   4.878  10.856  1.8808 -0.2416 -0.9908
  624MOL0     H86066  11.722   4.728  11.038 -1.4994 -1.3986  0.4533
  624MOL0     H86067  11.634   4.604  10.957 -0.3314  0.3718  0.9031
  624MOL0     H86068  11.872   4.526  10.960 -0.9851 -0.8871 -0.5287
  624MOL0     H86069  11.810   4.549  10.799  1.3718 -0.5024 -0.1610
  624MOL0     H86070  11.933   4.511  10.650  0.5090 -1.2148  2.0947
  624MOL0     H86071  12.169   4.372  10.426  0.5389  0.7181 -0.9656
  624MOL0     H86072  12.070   4.505  10.377 -0.7934 -0.2229 -1.0343
  624MOL0     H86073  11.998   4.378  10.466 -0.6008  0.5846 -3.8723
  624MOL0     H86074  12.517   4.565  10.237 -1.5524 -0.3169  0.7805
  624MOL0     H86075  12.725   4.616  10.113 -0.9316  1.6208 -2.1367
  624MOL0     H86076  12.952   4.970  10.241 -1.8775 -0.8613 -2.1305
  624MOL0     H86077  13.025   4.837  10.329 -0.2124 -1.4743 -0.2425
  624MOL0     H86078  13.068   4.885  10.028 -2.9131  2.6112  0.7972
  624MOL0     H86079  13.164   4.966  10.150 -1.0424  0.0370 -0.8102
  624MOL0     H86080  13.170   4.656  10.114 -1.7899  0.7573  1.8229
  624MOL0     H86081  13.251   4.743  10.239 -2.3797 -1.0937  1.5244
  624MOL0     H86082  13.377   4.867  10.089  1.8143 -2.1264  1.8862
  624MOL0     H86083  13.308   4.776   9.943  1.4413 -0.2184 -1.6727
  624MOL0     H86084  13.440   4.634  10.178 -2.0114 -2.8655 -0.0975
  624MOL0     H86085  13.399   4.583  10.014  0.4196  1.5513 -1.5992
  624MOL0     H86086  13.601   4.818  10.050 -1.4351 -0.2055  1.6318
  624MOL0     H86087  13.574   4.715   9.915 -2.7962 -1.9251  0.5561
  624MOL0     H86088  13.675   4.530  10.025  3.0064 -0.6410  0.9527
  624MOL0     H86089  13.677   4.613  10.183 -1.2642 -0.4025 -0.2865
  624MOL0     H86090  13.902   4.610  10.028 -1.5645  0.1427 -2.5173
  624MOL0     H86091  13.856   4.725  10.155 -4.6453 -1.3251  2.8603
  624MOL0     H86092  12.812   4.921  10.381 -0.1222  1.6912 -0.3140
  624MOL0     H86093  12.592   4.874  10.506  0.8362  2.7671 -0.9359
  624MOL0     H86094  12.385   4.703  10.703 -0.3602  0.4595  0.8110
  624MOL0     H86095  12.207   4.781  10.837  1.0038  1.7267 -2.6681
  624MOL0     H86096  10.561   5.579  10.265  2.7834  1.6214  1.1259
  624MOL0     H86097  10.344   5.516  10.202  0.3727 -0.0108  0.6426
  624MOL0     H86098   9.948   5.411  10.176 -0.0059  0.2652 -0.7474
  624MOL0     H86099   9.708   5.362  10.163  0.6531 -0.4044  0.2706
  624MOL0     H86100   9.468   5.530   9.919 -0.8590  0.2587  0.3689
  624MOL0     H86101   9.500   5.375  10.000  1.4796  0.1396  0.2489
  624MOL0     H86102   9.271   5.567  10.035  2.3690  0.0720 -0.0849
  624MOL0     H86103   9.291   5.413  10.130  1.8977  0.0934  1.0279
  624MOL0     H86104   9.128   5.404   9.935  0.0975 -0.5676  0.0029
  624MOL0     H86105   9.268   5.437   9.825 -0.0715 -1.2773 -0.9890
  624MOL0     H86106   9.363   5.217   9.916  0.8417 -0.8782  0.5654
  624MOL0     H86107   9.208   5.215   9.826 -0.5055  2.2863  0.3686
  624MOL0     H86108   9.076   5.025  10.166  0.5164 -0.6701 -0.1574
  624MOL0     H86109   9.621   5.752  10.041  0.6358  2.1918  2.4336
  624MOL0     H86110   9.781   5.926  10.075 -0.2731 -1.6283 -1.5440
  624MOL0     H86111   9.925   5.886  10.172 -0.2455  4.3518  0.4293
  624MOL0     H86112   9.933   5.871   9.998  1.2553 -0.3878  0.8293
  625MOL0     O86113   8.430   8.074   9.063  0.4288 -0.2224  0.2510
  625MOL0     C86114   8.376   8.086   9.172 -0.1821 -0.1862  0.6542
  625MOL0     O86115   8.239   8.098   9.179  0.1147  0.3138 -0.1534
  625MOL0     C86116   8.161   8.130   9.070 -0.4985  0.3674 -0.2522
  625MOL0     C86117   8.042   8.066   9.047  0.5109 -0.2035  0.3536
  625MOL0     C86118   7.955   8.098   8.942 -0.0571 -0.3931  0.2023
  625MOL0     C86119   7.981   8.186   8.849  0.0866  0.1837  0.7225
  625MOL0     O86120   7.898   8.210   8.742  0.2954 -0.3744  0.6438
  625MOL0     C86121   7.934   8.295   8.628  0.2270  0.3141 -0.3170
  625MOL0     C86122   8.001   8.210   8.523 -0.0004  0.1951  0.1843
  625MOL0     C86123   8.035   8.292   8.395 -0.2373  0.0372  0.2488
  625MOL0     C86124   8.140   8.224   8.321  0.3544  0.4064  0.4840
  625MOL0     C86125   8.170   8.301   8.188  0.1079  0.6829  0.1806
  625MOL0     C86126   8.232   8.438   8.198 -0.5063  1.3365 -0.1669
  625MOL0     C86127   8.368   8.419   8.274 -0.0689  0.3862  0.1887
  625MOL0     C86128   8.471   8.528   8.239 -0.7365  0.4026 -0.1202
  625MOL0     N86129   8.603   8.503   8.308  0.0406 -0.1467  0.8250
  625MOL0     C86130   8.720   8.558   8.263  0.0091  0.7192 -0.1195
  625MOL0     C86131   8.813   8.516   8.355  0.0344  0.4048  0.6376
  625MOL0     C86132   8.961   8.548   8.325  0.0074 -0.0642 -0.0903
  625MOL0     C86133   9.053   8.458   8.405  0.7812  0.7808  0.6283
  625MOL0     C86134   9.067   8.492   8.553 -0.2150 -0.1761 -0.3197
  625MOL0     C86135   9.113   8.636   8.578  0.3867  0.3457 -0.6055
  625MOL0     O86136   9.226   8.660   8.503 -0.9519 -0.3240 -0.1924
  625MOL0     C86137   9.296   8.777   8.528 -0.1768 -0.3341  1.0414
  625MOL0     C86138   9.238   8.894   8.578  1.2945  0.5086 -0.2125
  625MOL0     C86139   9.308   9.012   8.583  0.6408  0.0697  0.6135
  625MOL0     C86140   9.232   9.145   8.598  0.2365  0.2045  0.0056
  625MOL0     C86141   9.452   9.008   8.562  0.7530 -0.0607 -0.2011
  625MOL0     C86142   9.543   9.134   8.547  0.4397  1.2221  0.1684
  625MOL0     O86143   9.671   9.103   8.506  0.0405 -0.3734 -0.0425
  625MOL0     C86144   9.752   9.198   8.450 -0.4093 -0.7763 -0.4126
  625MOL0     C86145   9.888   9.182   8.473  0.0625 -0.4578  0.7406
  625MOL0     C86146   9.985   9.279   8.444 -1.2024  0.1106  0.7714
  625MOL0     C86147   9.948   9.400   8.386  0.3357 -0.3484 -0.0431
  625MOL0     O86148  10.029   9.499   8.361 -0.0062  0.0816 -0.0534
  625MOL0     C86149  10.162   9.458   8.310  0.1820 -0.0225 -0.3648
  625MOL0     C86150  10.242   9.578   8.274  0.4406  0.0719  0.7090
  625MOL0     C86151  10.283   9.669   8.396  0.1629  0.0903  0.4450
  625MOL0     C86152  10.411   9.617   8.458  0.5901  0.1613  0.1768
  625MOL0     C86153  10.468   9.685   8.584 -0.8285  0.5467  0.1238
  625MOL0     C86154  10.379   9.666   8.709  0.7661  0.2541  0.5398
  625MOL0     C86155  10.465   9.658   8.840  0.6518 -0.7578 -0.3952
  625MOL0     C86156  10.554   9.784   8.853  0.6211  0.1966 -0.0037
  625MOL0    Cl86157  10.632   9.799   9.017 -0.1657 -0.6368  0.4975
  625MOL0     C86158   9.812   9.411   8.345 -0.4429  0.0175 -0.4945
  625MOL0     C86159   9.721   9.311   8.374 -0.4306 -1.0735 -0.3731
  625MOL0     O86160   9.501   9.247   8.583  0.2751 -0.0334  0.5097
  625MOL0     C86161   9.512   8.889   8.527  0.2368 -0.2881  0.5278
  625MOL0     C86162   9.439   8.771   8.517 -0.3496 -0.6136 -1.0788
  625MOL0     N86163   8.751   8.447   8.454  0.4601  0.9330 -0.6636
  625MOL0     N86164   8.628   8.445   8.432 -0.5506  0.2207 -0.3244
  625MOL0     C86165   8.102   8.257   8.868  0.9456 -1.0313  0.4300
  625MOL0     C86166   8.187   8.234   8.979 -1.3137  0.9350  0.4763
  625MOL0     C86167   8.453   8.081   9.303 -0.0928 -0.9732  0.3032
  625MOL0     C86168   8.378   8.077   9.426 -0.1273  0.0362  0.0027
  625MOL0     C86169   8.452   8.080   9.545  0.3247  0.8840 -0.0979
  625MOL0     C86170   8.596   8.078   9.553  0.2585  0.4862  0.1650
  625MOL0     O86171   8.682   8.069   9.661 -0.0440  0.2022 -0.1409
  625MOL0     C86172   8.683   7.935   9.717  0.1820  0.0217 -0.5775
  625MOL0     C86173   8.621   7.959   9.864 -0.5209  0.6042  0.2107
  625MOL0     C86174   8.726   8.029   9.952 -0.2237  0.5395 -0.4544
  625MOL0     C86175   8.672   8.056  10.094  1.2290 -0.7031 -0.1854
  625MOL0     C86176   8.783   8.111  10.164 -0.1783 -0.7598  0.2666
  625MOL0     C86177   8.890   8.119  10.223  0.1284 -0.3266  0.9628
  625MOL0     C86178   8.662   8.075   9.432  0.6156 -0.1419  0.7216
  625MOL0     C86179   8.591   8.083   9.304  0.2097  0.6628 -0.2402
  625MOL0     C86180   8.674   8.134   9.195 -0.6996 -1.0874  0.0713
  625MOL0     H86181   8.017   7.984   9.114  1.5270  0.3245  1.4134
  625MOL0     H86182   7.864   8.041   8.924  0.1547 -0.1511 -1.9050
  625MOL0     H86183   8.000   8.378   8.654  0.7401 -0.6591  1.6633
  625MOL0     H86184   7.839   8.338   8.597  0.3014  1.2950  0.7717
  625MOL0     H86185   8.094   8.170   8.566  1.5060  2.0590 -1.1483
  625MOL0     H86186   7.941   8.121   8.501  0.8499  0.3940 -3.7893
  625MOL0     H86187   7.942   8.293   8.338  1.0087 -0.5967 -1.8891
  625MOL0     H86188   8.064   8.394   8.424 -1.9550  0.9662 -1.1395
  625MOL0     H86189   8.230   8.188   8.371 -1.0892 -4.4908  0.0933
  625MOL0     H86190   8.086   8.135   8.286 -1.7118  2.2845 -1.4467
  625MOL0     H86191   8.076   8.307   8.132  0.6887  1.1342 -0.7818
  625MOL0     H86192   8.237   8.238   8.129 -1.9478 -1.8883  0.4065
  625MOL0     H86193   8.266   8.471   8.099  2.3843 -1.6202 -0.3430
  625MOL0     H86194   8.170   8.508   8.254 -2.0573 -1.5120  1.9196
  625MOL0     H86195   8.414   8.324   8.244  2.3891  2.3895 -2.9583
  625MOL0     H86196   8.351   8.422   8.382  1.4260 -0.4778  0.4720
  625MOL0     H86197   8.490   8.521   8.132 -1.9726 -2.6055 -0.2593
  625MOL0     H86198   8.431   8.626   8.266 -1.2126  0.7125 -1.8511
  625MOL0     H86199   8.728   8.622   8.176 -1.4856  0.7794 -0.2472
  625MOL0     H86200   8.988   8.651   8.351  0.4156 -0.9680  3.6714
  625MOL0     H86201   8.973   8.538   8.217 -1.2009  1.7668 -0.4392
  625MOL0     H86202   9.005   8.361   8.397 -2.1882  2.3122 -3.2741
  625MOL0     H86203   9.151   8.458   8.358  1.8256 -2.1287  2.5313
  625MOL0     H86204   8.970   8.485   8.603 -0.3070  2.1044 -0.0750
  625MOL0     H86205   9.141   8.432   8.607  0.0416 -0.8862 -1.4192
  625MOL0     H86206   9.027   8.702   8.559  1.1520  1.0317 -1.8201
  625MOL0     H86207   9.138   8.645   8.684 -0.3313  0.0464 -0.4010
  625MOL0     H86208   9.130   8.888   8.591  1.3646 -2.8935 -0.1191
  625MOL0     H86209   9.122   9.140   8.600  0.2211  0.6548  0.5914
  625MOL0     H86210   9.256   9.218   8.520  1.9732  0.7060  0.9649
  625MOL0     H86211   9.250   9.193   8.695 -3.7897  1.2744  0.4031
  625MOL0     H86212   9.917   9.089   8.521  1.0245 -0.9013 -0.6550
  625MOL0     H86213  10.089   9.254   8.463 -0.9745 -0.1678 -0.6837
  625MOL0     H86214  10.215   9.407   8.391 -1.2923  1.2103  1.4496
  625MOL0     H86215  10.145   9.384   8.231 -1.8801  0.8571 -0.8063
  625MOL0     H86216  10.329   9.548   8.214  0.8889 -1.4668  2.0224
  625MOL0     H86217  10.180   9.633   8.203  0.0349  1.2017  1.9035
  625MOL0     H86218  10.206   9.677   8.474  0.1717 -0.3004  0.4946
  625MOL0     H86219  10.306   9.768   8.354  2.2690  0.6286  2.6458
  625MOL0     H86220  10.497   9.614   8.391  0.2908 -0.9420 -0.1866
  625MOL0     H86221  10.396   9.514   8.492  3.2446 -0.5027 -0.4569
  625MOL0     H86222  10.565   9.638   8.602 -0.1644  1.8493  0.0544
  625MOL0     H86223  10.504   9.788   8.581  2.1249 -0.3086  1.8326
  625MOL0     H86224  10.316   9.577   8.705 -0.1971  0.7863  2.4312
  625MOL0     H86225  10.309   9.749   8.724  0.0413 -0.2376 -0.0474
  625MOL0     H86226  10.518   9.563   8.834 -1.9872 -2.4524  1.1392
  625MOL0     H86227  10.407   9.659   8.932  2.8121  4.0451  1.2565
  625MOL0     H86228  10.480   9.864   8.843  2.4347  1.7540 -2.0838
  625MOL0     H86229  10.630   9.795   8.775  1.1351  3.1790  0.7972
  625MOL0     H86230   9.772   9.496   8.290 -0.8279 -0.0125 -0.2680
  625MOL0     H86231   9.619   9.321   8.341 -0.4855 -0.5487 -0.0581
  625MOL0     H86232   9.618   8.876   8.509  0.6144  2.9295 -0.1413
  625MOL0     H86233   9.487   8.678   8.487 -1.0359 -1.6428  0.8560
  625MOL0     H86234   8.129   8.332   8.795 -0.7266  0.7325  1.5203
  625MOL0     H86235   8.275   8.298   8.987 -0.5378 -0.1752  1.0459
  625MOL0     H86236   8.270   8.069   9.431 -0.3042 -1.0470 -3.2438
  625MOL0     H86237   8.380   8.070   9.625 -1.0728 -1.8955 -1.5596
  625MOL0     H86238   8.628   7.869   9.650  0.6848  1.3936 -2.4173
  625MOL0     H86239   8.781   7.887   9.728 -0.5202 -1.2870  0.3721
  625MOL0     H86240   8.595   7.860   9.903  0.7422  1.1562  2.6938
  625MOL0     H86241   8.522   8.006   9.860 -1.7746 -1.8209  0.6000
  625MOL0     H86242   8.819   7.974   9.969  0.6911  2.5222  1.6281
  625MOL0     H86243   8.753   8.122   9.901  0.2960  1.9431  2.1967
  625MOL0     H86244   8.627   7.965  10.135  1.5705 -1.5045 -1.4986
  625MOL0     H86245   8.597   8.134  10.084 -1.1432 -3.0630 -2.3769
  625MOL0     H86246   8.983   8.117  10.276  0.2202  2.6283  1.0832
  625MOL0     H86247   8.770   8.075   9.431  0.6178 -0.8551 -0.5466
  625MOL0     H86248   8.674   8.059   9.115 -1.9364 -0.2361 -0.7760
  625MOL0     H86249   8.626   8.221   9.147 -0.0648  0.2791  1.8093
  625MOL0     H86250   8.776   8.150   9.230 -0.7679  2.2686 -0.8661
  626MOL0     O86251   5.721   7.425  10.875 -0.4925  0.8015 -0.3645
  626MOL0     C86252   5.714   7.507  10.963  0.4020  0.6583 -0.5015
  626MOL0     O86253   5.797   7.509  11.075 -0.1262 -0.1996  0.1002
  626MOL0     C86254   5.907   7.431  11.082  0.1967  0.0855 -0.3456
  626MOL0     C86255   6.035   7.473  11.055  0.1886  0.1537  0.1235
  626MOL0     C86256   6.145   7.382  11.049 -0.6202 -0.3859 -0.3086
  626MOL0     C86257   6.127   7.251  11.070 -0.0932  0.8639  0.1238
  626MOL0     O86258   6.218   7.144  11.081  0.5568  0.1360 -0.1658
  626MOL0     C86259   6.351   7.170  11.031  0.1465 -0.4164 -0.0188
  626MOL0     C86260   6.411   7.026  11.011 -0.2682  0.3577  0.2888
  626MOL0     C86261   6.559   7.038  10.978 -0.7582  0.1643  0.0426
  626MOL0     C86262   6.607   6.909  10.909  0.2203 -0.1581  0.0550
  626MOL0     C86263   6.760   6.913  10.892 -0.3920 -0.3993 -0.1754
  626MOL0     C86264   6.806   6.988  10.760  0.7012 -0.1115 -0.7702
  626MOL0     C86265   6.956   6.988  10.735  0.1574  0.9906 -0.7764
  626MOL0     C86266   6.998   6.852  10.679  0.2910  0.3223  0.2748
  626MOL0     N86267   7.135   6.835  10.684 -0.6932 -0.2175 -0.4771
  626MOL0     C86268   7.217   6.908  10.598 -0.3924 -0.1577 -0.7456
  626MOL0     C86269   7.339   6.864  10.622  0.0032  0.4282 -1.4095
  626MOL0     C86270   7.474   6.885  10.550  0.6343 -0.4909  0.6716
  626MOL0     C86271   7.595   6.844  10.633 -0.6690 -0.1606 -0.9048
  626MOL0     C86272   7.712   6.869  10.538  0.0607  1.1591  0.0950
  626MOL0     C86273   7.836   6.805  10.601 -0.4730  0.7396  0.3755
  626MOL0     O86274   7.886   6.887  10.709  0.3684 -0.3655  0.1897
  626MOL0     C86275   7.988   6.833  10.789 -0.1266 -0.2711 -0.2967
  626MOL0     C86276   8.049   6.930  10.877  0.5064  0.3260 -0.5797
  626MOL0     C86277   8.161   6.887  10.954  0.6754 -0.4003 -0.2408
  626MOL0     C86278   8.224   6.992  11.034  0.5554  0.4914 -0.7050
  626MOL0     C86279   8.203   6.750  10.959 -0.1704 -0.4644 -0.6937
  626MOL0     C86280   8.304   6.687  11.050 -0.0259  0.0452  0.4426
  626MOL0     O86281   8.289   6.560  11.081  0.1451  0.0982  0.4775
  626MOL0     C86282   8.383   6.478  11.144 -0.7101  0.0203  0.7505
  626MOL0     C86283   8.524   6.501  11.156 -0.3758 -0.2827  1.0349
  626MOL0     C86284   8.617   6.416  11.220  0.7947 -0.8087  0.1405
  626MOL0     C86285   8.562   6.292  11.265 -0.2716  1.0865 -0.1717
  626MOL0     O86286   8.627   6.183  11.330 -0.3620 -0.1008 -0.5238
  626MOL0     C86287   8.768   6.199  11.352  0.0886 -0.3642  0.1382
  626MOL0     C86288   8.822   6.068  11.381 -0.2010  0.0805 -0.4026
  626MOL0     C86289   8.973   6.091  11.398 -0.7740  0.1345 -0.0754
  626MOL0     C86290   9.042   5.975  11.463  1.3217  0.0680  0.3031
  626MOL0     C86291   9.187   5.991  11.481  0.1795 -0.2869  0.5374
  626MOL0     C86292   9.243   5.880  11.563  0.3856  0.0679 -0.3056
  626MOL0     C86293   9.397   5.888  11.558 -0.2355 -0.2585 -0.3145
  626MOL0     C86294   9.462   5.771  11.636 -0.4553 -0.6877  0.6325
  626MOL0    Cl86295   9.410   5.766  11.803 -0.2383  0.5597 -0.0979
  626MOL0     C86296   8.426   6.262  11.248  1.3870 -0.1798  1.3466
  626MOL0     C86297   8.342   6.347  11.177  0.8698 -0.0824  0.3841
  626MOL0     O86298   8.396   6.754  11.088  0.9319 -0.5653  0.0573
  626MOL0     C86299   8.132   6.664  10.878  0.4031 -0.1851  0.6749
  626MOL0     C86300   8.032   6.705  10.781 -0.5408 -1.1759 -0.2896
  626MOL0     N86301   7.326   6.771  10.732 -0.0966 -0.2104  0.1694
  626MOL0     N86302   7.203   6.753  10.772  1.1689  0.1354 -0.3792
  626MOL0     C86303   5.994   7.206  11.098  1.2156 -0.3665  0.7688
  626MOL0     C86304   5.888   7.297  11.103 -0.3968  0.5807 -0.2770
  626MOL0     C86305   5.599   7.593  10.967  0.1208  0.4112  0.0634
  626MOL0     C86306   5.591   7.703  11.048 -0.9447 -0.4945 -0.3401
  626MOL0     C86307   5.483   7.792  11.045  1.1337 -0.2419 -0.9811
  626MOL0     C86308   5.374   7.770  10.968  0.3164 -0.3512 -0.4325
  626MOL0     O86309   5.258   7.844  10.989 -0.0692 -0.4269  0.2906
  626MOL0     C86310   5.129   7.795  10.945  0.9233  0.7183  0.5791
  626MOL0     C86311   5.018   7.883  10.998  0.1752 -0.5741  0.2723
  626MOL0     C86312   4.878   7.837  10.952  0.1554  0.2978 -0.5209
  626MOL0     C86313   4.768   7.933  11.003  0.1664 -0.1496  0.3900
  626MOL0     C86314   4.792   8.059  10.932  0.0196  0.1661  0.5139
  626MOL0     C86315   4.820   8.168  10.877  0.5821  0.8766 -0.5147
  626MOL0     C86316   5.372   7.649  10.897 -0.4339 -0.6375  0.1994
  626MOL0     C86317   5.485   7.564  10.888  0.1680 -0.1820 -0.2900
  626MOL0     C86318   5.464   7.452  10.783  0.5864 -0.2806  0.8940
  626MOL0     H86319   6.046   7.578  11.030  1.2246  0.2169  0.7727
  626MOL0     H86320   6.247   7.420  11.046 -0.1373 -1.6496 -0.4578
  626MOL0     H86321   6.411   7.231  11.099 -0.9845  3.0928 -1.9406
  626MOL0     H86322   6.354   7.222  10.935  0.7227  1.2138  0.8350
  626MOL0     H86323   6.395   6.981  11.109  2.2477  1.9497  1.5352
  626MOL0     H86324   6.354   6.980  10.929 -2.7600  0.4145  1.8782
  626MOL0     H86325   6.569   7.108  10.894 -3.1040 -0.8111 -1.1476
  626MOL0     H86326   6.607   7.074  11.069  0.5549  0.0746 -0.5903
  626MOL0     H86327   6.580   6.824  10.973 -2.2976  0.3184 -0.2488
  626MOL0     H86328   6.559   6.902  10.811 -1.0361  2.0206  0.4379
  626MOL0     H86329   6.804   6.813  10.882 -2.1166 -0.9436 -4.2973
  626MOL0     H86330   6.803   6.959  10.981 -1.0926  1.6993 -0.8716
  626MOL0     H86331   6.757   6.949  10.670 -3.5829  1.4470  0.6455
  626MOL0     H86332   6.767   7.090  10.764  1.9268  0.3188  1.7224
  626MOL0     H86333   7.003   7.011  10.832 -0.6400 -0.2954 -0.0530
  626MOL0     H86334   6.980   7.070  10.667  1.2083  0.9374 -0.4948
  626MOL0     H86335   6.952   6.774  10.741 -1.6504  0.8192 -0.4779
  626MOL0     H86336   6.972   6.856  10.573  2.2157 -0.7802 -0.2907
  626MOL0     H86337   7.191   6.975  10.517 -0.7058 -1.2571 -1.5806
  626MOL0     H86338   7.479   6.990  10.522  2.5882 -0.7915 -0.3003
  626MOL0     H86339   7.471   6.833  10.453  0.0494 -0.7311  0.8145
  626MOL0     H86340   7.610   6.904  10.724  0.7334 -2.1752  0.2512
  626MOL0     H86341   7.585   6.740  10.666  3.8084 -0.1042  1.3667
  626MOL0     H86342   7.695   6.815  10.445 -0.8375 -0.0718  0.9482
  626MOL0     H86343   7.722   6.976  10.514  2.4211  1.2153  1.0481
  626MOL0     H86344   7.802   6.706  10.635  0.1161  0.5660  0.4785
  626MOL0     H86345   7.906   6.793  10.518 -1.6487  0.2535 -0.5616
  626MOL0     H86346   8.015   7.032  10.863  2.0722  0.8216 -1.0006
  626MOL0     H86347   8.158   7.079  11.045  2.7169  2.1987 -0.4622
  626MOL0     H86348   8.313   7.030  10.981 -0.4867  2.0434 -1.4225
  626MOL0     H86349   8.246   6.953  11.134 -1.9863  0.3637 -0.1479
  626MOL0     H86350   8.571   6.580  11.099  2.1758 -0.4831  2.7076
  626MOL0     H86351   8.722   6.441  11.230 -0.0961  2.7329  2.9356
  626MOL0     H86352   8.817   6.227  11.258  1.1823 -2.8910 -0.1285
  626MOL0     H86353   8.791   6.275  11.428  1.7574  0.8034 -1.4464
  626MOL0     H86354   8.770   6.028  11.468 -1.2341 -2.0370 -1.9079
  626MOL0     H86355   8.802   5.998  11.300  1.8462 -0.2516 -0.6785
  626MOL0     H86356   9.000   6.182  11.451  2.5772 -0.6306 -0.2876
  626MOL0     H86357   9.020   6.106  11.300  0.7506 -1.3625  0.3744
  626MOL0     H86358   9.013   5.891  11.399 -0.9451  1.6899 -0.9283
  626MOL0     H86359   8.995   5.961  11.560 -0.9848  0.1589 -0.7376
  626MOL0     H86360   9.244   5.988  11.388  1.3850  0.1191  1.2328
  626MOL0     H86361   9.199   6.087  11.532 -2.1974  1.0107 -1.1772
  626MOL0     H86362   9.209   5.791  11.509  3.9754 -1.2548 -0.6501
  626MOL0     H86363   9.205   5.899  11.664  1.6002 -0.0578  0.1823
  626MOL0     H86364   9.425   5.979  11.611  0.9969  0.4456 -2.0809
  626MOL0     H86365   9.433   5.887  11.455 -0.4161  1.1841 -0.4117
  626MOL0     H86366   9.571   5.784  11.630 -0.7898  2.4853 -1.1927
  626MOL0     H86367   9.430   5.681  11.583 -0.4113 -0.1131 -0.4022
  626MOL0     H86368   8.395   6.161  11.275 -1.5137  0.7758  1.9516
  626MOL0     H86369   8.239   6.317  11.155  0.1132 -1.5690  4.9158
  626MOL0     H86370   8.165   6.561  10.876  0.5737 -0.1199 -0.2438
  626MOL0     H86371   7.996   6.631  10.711 -0.5677 -3.2204  1.7876
  626MOL0     H86372   5.976   7.105  11.132 -1.1541 -0.0796  0.4973
  626MOL0     H86373   5.786   7.267  11.124 -0.8382 -0.0903 -3.0481
  626MOL0     H86374   5.680   7.718  11.109  1.3164 -2.1562 -2.9760
  626MOL0     H86375   5.477   7.881  11.107  3.0925 -0.4353 -0.4381
  626MOL0     H86376   5.128   7.795  10.835 -2.7356  2.9452  0.4480
  626MOL0     H86377   5.112   7.692  10.978 -2.3947  0.6571 -0.9092
  626MOL0     H86378   5.048   7.987  10.980  1.9269 -1.1890 -0.6293
  626MOL0     H86379   5.020   7.885  11.107  1.4149  0.1155  0.2556
  626MOL0     H86380   4.876   7.810  10.846  2.5933 -3.2914  0.1676
  626MOL0     H86381   4.851   7.743  11.001 -1.6863  1.6031  1.1864
  626MOL0     H86382   4.767   7.928  11.113  1.2346  1.6699  0.5335
  626MOL0     H86383   4.675   7.880  10.984  1.6141 -2.5135 -0.5741
  626MOL0     H86384   4.835   8.263  10.830 -3.4736  0.2897 -3.5962
  626MOL0     H86385   5.284   7.625  10.839 -0.1179  0.8386 -0.9664
  626MOL0     H86386   5.359   7.454  10.752 -0.5450  1.2939  4.3122
  626MOL0     H86387   5.529   7.483  10.700  0.5664  1.0139  1.3322
  626MOL0     H86388   5.498   7.355  10.819  3.8197  1.1829  2.0965
  627MOL0     O86389   0.782   3.493   1.039  0.4399 -0.0771  0.3924
  627MOL0     C86390   0.803   3.614   1.017  0.3802  0.1725  0.4702
  627MOL0     O86391   0.929   3.676   1.022 -1.0828 -0.0838  1.2540
  627MOL0     C86392   1.028   3.602   1.073  0.2862  0.2851 -0.4807
  627MOL0     C86393   1.015   3.521   1.191  0.3860 -0.1961  0.2025
  627MOL0     C86394   1.131   3.466   1.248 -0.1452 -0.4526 -0.2955
  627MOL0     C86395   1.260   3.499   1.197 -0.2777 -0.1853 -1.0703
  627MOL0     O86396   1.380   3.446   1.229 -0.5291  1.0109  0.7254
  627MOL0     C86397   1.381   3.378   1.359 -0.7451  0.3552 -0.6223
  627MOL0     C86398   1.529   3.339   1.376 -0.4055  0.0201 -0.0528
  627MOL0     C86399   1.558   3.275   1.517 -0.4473 -0.1464 -0.3570
  627MOL0     C86400   1.692   3.196   1.501 -0.2586  0.2765 -0.4150
  627MOL0     C86401   1.819   3.280   1.477  0.2846 -0.2301 -0.1269
  627MOL0     C86402   1.940   3.184   1.476 -0.9109 -0.7406 -0.0158
  627MOL0     C86403   2.049   3.249   1.389 -0.5397  0.1533 -0.1367
  627MOL0     C86404   2.185   3.188   1.431 -0.1715 -0.6738 -0.3884
  627MOL0     N86405   2.293   3.278   1.391  0.7645  0.3138  0.9460
  627MOL0     C86406   2.329   3.299   1.258  0.0719 -0.0883 -0.8311
  627MOL0     C86407   2.446   3.368   1.261 -0.2447  0.2024 -0.3858
  627MOL0     C86408   2.537   3.389   1.142  0.0770 -0.2287 -0.1502
  627MOL0     C86409   2.661   3.470   1.180 -0.6002  0.5533  0.5380
  627MOL0     C86410   2.785   3.388   1.224 -0.2993  0.7799  1.3265
  627MOL0     C86411   2.887   3.478   1.295 -0.8976  0.2433 -0.7591
  627MOL0     O86412   2.938   3.563   1.198  0.5716  0.0332 -0.9539
  627MOL0     C86413   3.075   3.585   1.204  0.1711 -0.5071 -0.3621
  627MOL0     C86414   3.145   3.624   1.317  0.2431 -0.0810  0.8796
  627MOL0     C86415   3.283   3.657   1.318 -0.0421  0.5456  0.5678
  627MOL0     C86416   3.339   3.720   1.444  0.7029  0.5202  0.1020
  627MOL0     C86417   3.354   3.629   1.201  0.9363 -0.1638  0.9549
  627MOL0     C86418   3.501   3.644   1.194 -0.0103 -1.1733  0.0074
  627MOL0     O86419   3.578   3.563   1.119  0.2182 -0.0524 -0.1526
  627MOL0     C86420   3.703   3.528   1.163  0.3828 -0.0601  0.6469
  627MOL0     C86421   3.768   3.565   1.282  0.3691 -0.2292  0.0771
  627MOL0     C86422   3.897   3.523   1.307 -0.4080  0.8945 -0.9081
  627MOL0     C86423   3.969   3.439   1.217 -0.6109 -0.2627 -0.1299
  627MOL0     O86424   4.095   3.407   1.237  0.1368  0.4778  0.1618
  627MOL0     C86425   4.184   3.458   1.141 -0.1183 -0.5075  0.5916
  627MOL0     C86426   4.313   3.382   1.151  0.2089  1.1130  0.6462
  627MOL0     C86427   4.375   3.428   1.282  0.7372  0.2136  0.7007
  627MOL0     C86428   4.506   3.352   1.313 -0.1186  0.3015  0.6666
  627MOL0     C86429   4.574   3.433   1.426  0.3349 -0.5952 -0.4342
  627MOL0     C86430   4.711   3.364   1.478 -0.3990  0.0625 -0.0677
  627MOL0     C86431   4.747   3.437   1.599  0.7589  0.3429  0.2666
  627MOL0     C86432   4.880   3.387   1.646 -0.6845 -0.1426 -0.0698
  627MOL0    Cl86433   4.943   3.495   1.770  0.3665  0.4732 -0.4507
  627MOL0     C86434   3.902   3.391   1.107  0.9401  0.6226 -0.5587
  627MOL0     C86435   3.769   3.441   1.081  0.3379 -0.3903  0.3646
  627MOL0     O86436   3.535   3.755   1.234  0.0116  0.0861 -0.7003
  627MOL0     C86437   3.279   3.588   1.087 -0.5276 -0.1004  0.7542
  627MOL0     C86438   3.145   3.563   1.088  0.5092 -0.6192 -0.8295
  627MOL0     N86439   2.490   3.375   1.392  0.7009 -0.2703 -1.0291
  627MOL0     N86440   2.392   3.327   1.465  0.2242 -0.1194  0.2374
  627MOL0     C86441   1.267   3.578   1.087 -0.4284  0.2979  0.3470
  627MOL0     C86442   1.152   3.621   1.024  1.0331 -0.2215  0.9664
  627MOL0     C86443   0.691   3.694   0.965 -0.0173  0.0148 -0.2318
  627MOL0     C86444   0.720   3.820   0.908  0.2879 -0.1278  0.6481
  627MOL0     C86445   0.626   3.898   0.840 -0.5485 -0.2215  0.1222
  627MOL0     C86446   0.489   3.848   0.834  0.2163 -0.8457 -0.4209
  627MOL0     O86447   0.401   3.925   0.759  0.5223 -0.8101  0.3238
  627MOL0     C86448   0.270   3.874   0.750 -0.1866  0.3951 -0.2225
  627MOL0     C86449   0.188   3.901   0.875 -0.1207 -1.0779  0.2385
  627MOL0     C86450   0.077   3.795   0.900 -0.7085  0.0759 -0.7563
  627MOL0     C86451  -0.035   3.779   0.802 -0.6675 -0.3944  0.1170
  627MOL0     C86452  -0.088   3.917   0.766 -0.4834  0.3676 -0.9327
  627MOL0     C86453  -0.139   4.014   0.729  0.8847 -0.4427  0.1662
  627MOL0     C86454   0.463   3.736   0.910 -0.0156 -0.6630 -0.7898
  627MOL0     C86455   0.556   3.652   0.972  0.9414  0.2984  0.1363
  627MOL0     C86456   0.500   3.527   1.025  0.8897  1.0638 -1.1981
  627MOL0     H86457   0.920   3.504   1.241  0.0028 -0.7291 -0.6925
  627MOL0     H86458   1.116   3.397   1.330 -1.7614  2.1509  1.7804
  627MOL0     H86459   1.307   3.298   1.355 -3.5946  2.6675  1.4950
  627MOL0     H86460   1.356   3.440   1.445 -0.5228 -0.6618  0.1849
  627MOL0     H86461   1.569   3.274   1.296  0.5574  0.2655  0.2109
  627MOL0     H86462   1.579   3.436   1.372  1.4414 -0.8711 -0.2833
  627MOL0     H86463   1.578   3.344   1.599 -3.3111  0.2736  0.1005
  627MOL0     H86464   1.484   3.204   1.555  0.9789 -0.2880  2.4474
  627MOL0     H86465   1.715   3.131   1.585  1.1939  1.6006  0.2752
  627MOL0     H86466   1.681   3.128   1.416 -0.7757 -2.8176  1.9755
  627MOL0     H86467   1.838   3.344   1.563 -0.1385 -1.2083  0.7217
  627MOL0     H86468   1.810   3.353   1.396 -1.8625  0.2271  0.4542
  627MOL0     H86469   1.976   3.171   1.579  1.3526  0.4205 -0.6049
  627MOL0     H86470   1.911   3.086   1.435 -0.6664 -0.8998  0.1854
  627MOL0     H86471   2.062   3.354   1.418  1.3825 -0.6578  2.3425
  627MOL0     H86472   2.028   3.229   1.284 -0.0185 -0.5683 -0.1119
  627MOL0     H86473   2.183   3.168   1.539  1.1131 -1.1244 -0.4289
  627MOL0     H86474   2.195   3.092   1.379  1.8778 -0.9602  0.4678
  627MOL0     H86475   2.267   3.268   1.174 -0.8507  1.0910 -0.6246
  627MOL0     H86476   2.480   3.442   1.065 -0.4436 -1.1161 -0.3933
  627MOL0     H86477   2.562   3.290   1.103  0.7291 -0.6965  1.3943
  627MOL0     H86478   2.682   3.537   1.096  0.6190 -0.5657 -0.0743
  627MOL0     H86479   2.636   3.544   1.257 -0.8883  0.5127  0.4846
  627MOL0     H86480   2.759   3.309   1.295 -3.0946  0.9866  0.6412
  627MOL0     H86481   2.827   3.351   1.130 -1.6388  0.0616  0.9931
  627MOL0     H86482   2.829   3.525   1.375 -0.1946  0.1721 -0.2020
  627MOL0     H86483   2.971   3.420   1.334 -0.3517  2.5562  1.8630
  627MOL0     H86484   3.095   3.639   1.412 -1.4208 -1.0001  0.1708
  627MOL0     H86485   3.387   3.812   1.411  3.8349 -1.2205 -0.5849
  627MOL0     H86486   3.412   3.649   1.485  1.4943 -1.0372 -3.6287
  627MOL0     H86487   3.265   3.741   1.521  1.6531  1.8685  0.6877
  627MOL0     H86488   3.725   3.639   1.349  1.2368 -0.5168  0.9673
  627MOL0     H86489   3.947   3.566   1.393  0.1619 -1.6961  0.1785
  627MOL0     H86490   4.170   3.433   1.035  2.9599  1.7049 -0.4798
  627MOL0     H86491   4.187   3.567   1.141 -1.8822 -0.4241  0.3192
  627MOL0     H86492   4.300   3.274   1.154  0.5070  1.0021 -0.9386
  627MOL0     H86493   4.375   3.406   1.064 -1.4800 -0.1823 -0.9963
  627MOL0     H86494   4.297   3.417   1.358 -0.3830  1.4700 -0.2241
  627MOL0     H86495   4.400   3.534   1.277  1.3537  0.2180  2.9747
  627MOL0     H86496   4.569   3.361   1.224  1.4381  0.2505  1.7284
  627MOL0     H86497   4.493   3.245   1.335 -0.4849 -0.0657 -1.2025
  627MOL0     H86498   4.596   3.537   1.397  1.3318 -0.3414  1.1103
  627MOL0     H86499   4.500   3.448   1.505 -0.8595  0.0628 -1.6390
  627MOL0     H86500   4.797   3.376   1.412  0.4902  0.8949  1.1978
  627MOL0     H86501   4.711   3.261   1.514  5.5605  0.7635  3.1869
  627MOL0     H86502   4.677   3.413   1.679  1.8917 -3.4061  0.3351
  627MOL0     H86503   4.743   3.543   1.574  1.7676  0.0959 -1.0581
  627MOL0     H86504   4.952   3.393   1.564  2.3183  0.5082  2.4317
  627MOL0     H86505   4.882   3.278   1.661 -2.0238 -0.5391 -2.3348
  627MOL0     H86506   3.944   3.318   1.039  0.6218  0.3049 -0.4142
  627MOL0     H86507   3.714   3.416   0.991 -0.7280  1.9455  0.2920
  627MOL0     H86508   3.339   3.561   1.001 -1.4525 -1.2493  0.4508
  627MOL0     H86509   3.097   3.534   0.995 -3.4598  2.3483  0.0221
  627MOL0     H86510   1.368   3.584   1.049  0.2511  2.2267  2.2318
  627MOL0     H86511   1.157   3.679   0.932 -1.7133 -3.2918 -1.3854
  627MOL0     H86512   0.821   3.859   0.912  0.3327 -0.0992 -0.4877
  627MOL0     H86513   0.657   3.986   0.783  3.1248 -0.8528  0.9009
  627MOL0     H86514   0.220   3.914   0.662 -0.2320  0.3255 -0.2284
  627MOL0     H86515   0.267   3.766   0.733  1.5977  0.3873 -0.6881
  627MOL0     H86516   0.133   3.994   0.860  0.6294 -0.5937  0.4366
  627MOL0     H86517   0.245   3.907   0.968  0.0528 -0.5385  0.1012
  627MOL0     H86518   0.138   3.705   0.899  3.0603  2.4323 -0.9270
  627MOL0     H86519   0.013   3.821   0.986 -0.2652  2.4172 -1.0499
  627MOL0     H86520  -0.113   3.711   0.837 -0.2557 -1.3742 -0.8379
  627MOL0     H86521   0.004   3.730   0.713  2.4328 -0.2193  1.2847
  627MOL0     H86522  -0.190   4.098   0.687 -0.2959 -1.0795  0.2643
  627MOL0     H86523   0.359   3.707   0.904 -0.8283  2.0836 -1.2127
  627MOL0     H86524   0.391   3.519   1.015  0.8313  0.4593 -0.1415
  627MOL0     H86525   0.553   3.443   0.981  4.1246  3.5145 -2.3802
  627MOL0     H86526   0.524   3.517   1.131 -0.1932 -1.1246 -1.1197
  628MOL0     O86527   8.417   2.133   2.090  0.4451  0.6416 -0.1302
  628MOL0     C86528   8.375   2.065   2.182  0.6394 -0.3835  0.1219
  628MOL0     O86529   8.433   2.048   2.303  0.4502 -0.2181  0.3445
  628MOL0     C86530   8.566   2.095   2.321  0.6294  0.3095 -0.2134
  628MOL0     C86531   8.673   2.064   2.233 -0.6668  0.3682 -0.2082
  628MOL0     C86532   8.794   2.128   2.239  0.4377 -0.5255 -0.4342
  628MOL0     C86533   8.821   2.210   2.347  0.0358 -0.5387 -0.3259
  628MOL0     O86534   8.936   2.286   2.359  0.6127 -0.1156 -0.3633
  628MOL0     C86535   9.061   2.227   2.332  0.7321  0.0065  0.4784
  628MOL0     C86536   9.171   2.293   2.406  0.2702 -0.0196 -0.4547
  628MOL0     C86537   9.318   2.244   2.369 -0.2166  0.3665  0.3442
  628MOL0     C86538   9.412   2.339   2.441 -0.2304 -0.9369  0.3154
  628MOL0     C86539   9.553   2.285   2.427  0.3195 -0.1355  0.1756
  628MOL0     C86540   9.654   2.395   2.455 -0.0962  1.0383  0.6013
  628MOL0     C86541   9.806   2.344   2.443  0.1028  0.4040 -0.3431
  628MOL0     C86542   9.901   2.447   2.389  0.4614  0.0715  0.6411
  628MOL0     N86543  10.041   2.388   2.372  0.3069 -1.2235  0.8020
  628MOL0     C86544  10.119   2.343   2.470  0.0552  0.3352 -0.5497
  628MOL0     C86545  10.240   2.325   2.416 -0.0112  0.6815  0.5400
  628MOL0     C86546  10.356   2.250   2.462  0.8515  0.2934 -0.3390
  628MOL0     C86547  10.304   2.140   2.558 -0.0381 -0.7147 -0.3492
  628MOL0     C86548  10.405   2.042   2.602  0.4091 -0.4349  0.1134
  628MOL0     C86549  10.364   1.959   2.716  0.6206  0.6248  0.3855
  628MOL0     O86550  10.445   1.840   2.721  0.3643  0.0445 -0.2423
  628MOL0     C86551  10.551   1.841   2.804 -0.1140 -0.2202  0.6541
  628MOL0     C86552  10.538   1.839   2.944  0.5361 -0.2007  0.1231
  628MOL0     C86553  10.649   1.818   3.030  0.5681 -0.3876 -0.1703
  628MOL0     C86554  10.615   1.793   3.173 -0.4799  0.1334 -0.1365
  628MOL0     C86555  10.772   1.808   2.974  0.5787  0.0078 -0.1023
  628MOL0     C86556  10.890   1.774   3.051  0.3671  0.0147 -0.6650
  628MOL0     O86557  11.010   1.812   2.985  0.4141 -0.0319  0.2350
  628MOL0     C86558  11.131   1.756   3.027 -0.1917  0.6579  0.2667
  628MOL0     C86559  11.204   1.818   3.127 -0.2157  0.2005  0.4376
  628MOL0     C86560  11.308   1.751   3.189 -0.2505 -0.2219 -0.0119
  628MOL0     C86561  11.343   1.627   3.154 -0.3890 -0.3753  0.0045
  628MOL0     O86562  11.447   1.580   3.225  0.8801 -1.0225 -0.2535
  628MOL0     C86563  11.466   1.440   3.222 -0.3941  0.6242  1.3455
  628MOL0     C86564  11.567   1.393   3.317  0.8820  0.2035 -0.3106
  628MOL0     C86565  11.714   1.419   3.269 -0.5109 -0.2305  0.6376
  628MOL0     C86566  11.801   1.419   3.394  0.5121 -1.1804 -0.1018
  628MOL0     C86567  11.946   1.464   3.353 -0.2581 -0.1894 -0.6484
  628MOL0     C86568  12.064   1.427   3.437 -0.2842  0.2431 -0.6755
  628MOL0     C86569  12.189   1.504   3.391  0.0741 -0.0221 -0.9680
  628MOL0     C86570  12.315   1.448   3.458  0.4168  0.3855 -0.5738
  628MOL0    Cl86571  12.304   1.463   3.640  0.2055 -0.2068 -0.3668
  628MOL0     C86572  11.261   1.553   3.066  0.4045 -0.6973 -0.2843
  628MOL0     C86573  11.155   1.618   3.008  0.3830 -0.0860  1.1918
  628MOL0     O86574  10.883   1.712   3.159  0.1903  0.4881  0.2980
  628MOL0     C86575  10.788   1.833   2.834 -0.2126 -0.0986  0.7537
  628MOL0     C86576  10.674   1.849   2.752 -0.0916  0.5223  0.4652
  628MOL0     N86577  10.224   2.358   2.283 -0.1284 -0.4067 -0.3739
  628MOL0     N86578  10.105   2.396   2.256  0.0545  0.2480 -0.0299
  628MOL0     C86579   8.730   2.227   2.448  0.2550  0.6530  0.2335
  628MOL0     C86580   8.601   2.169   2.438 -0.0039  0.2891 -0.0249
  628MOL0     C86581   8.247   1.988   2.160 -1.1610 -0.8018 -0.1073
  628MOL0     C86582   8.211   1.936   2.037  0.5744  0.2301  0.1475
  628MOL0     C86583   8.078   1.875   2.012 -0.7110 -0.1735 -0.2677
  628MOL0     C86584   7.987   1.868   2.120  0.1635  0.0859 -0.2742
  628MOL0     O86585   7.859   1.824   2.110 -0.3131 -0.5637 -0.0160
  628MOL0     C86586   7.817   1.778   1.982  0.6891  0.0639 -0.3471
  628MOL0     C86587   7.673   1.730   1.986  0.3995 -0.1843 -0.2943
  628MOL0     C86588   7.594   1.732   1.853 -0.5728  0.0182 -0.4194
  628MOL0     C86589   7.446   1.679   1.872  0.2781  0.6691 -0.1691
  628MOL0     C86590   7.457   1.546   1.933 -0.0864  0.2216  0.4665
  628MOL0     C86591   7.449   1.440   1.996 -0.4161  0.1510 -0.0845
  628MOL0     C86592   8.028   1.924   2.242 -0.0921 -0.7878  0.0801
  628MOL0     C86593   8.157   1.981   2.263  0.0280  0.2856 -0.0707
  628MOL0     C86594   8.178   2.041   2.401 -0.2067 -0.0243 -0.4299
  628MOL0     H86595   8.659   2.004   2.143  0.1745  0.4690 -0.4085
  628MOL0     H86596   8.866   2.102   2.163  1.1500  0.0281  0.0408
  628MOL0     H86597   9.072   2.227   2.223  0.0193 -1.5126  0.3794
  628MOL0     H86598   9.055   2.122   2.365 -3.4633  0.2600  1.0891
  628MOL0     H86599   9.157   2.398   2.378 -0.7126  0.3150  1.1498
  628MOL0     H86600   9.156   2.287   2.515  1.6520  2.0982 -0.0795
  628MOL0     H86601   9.340   2.142   2.401 -0.0673 -0.0770 -1.0834
  628MOL0     H86602   9.345   2.254   2.263  0.6626  2.2579  0.7133
  628MOL0     H86603   9.402   2.434   2.389  1.3295 -1.3300 -0.7503
  628MOL0     H86604   9.396   2.352   2.549  1.9423 -0.8520  0.6783
  628MOL0     H86605   9.561   2.245   2.325 -0.6946 -1.1915  0.4928
  628MOL0     H86606   9.563   2.201   2.496  1.7427  0.9952  1.4194
  628MOL0     H86607   9.651   2.471   2.376  3.3723  1.2574  0.5174
  628MOL0     H86608   9.626   2.444   2.548 -0.3711  2.5273 -0.2226
  628MOL0     H86609   9.806   2.273   2.359  1.4983  1.3688 -1.2000
  628MOL0     H86610   9.845   2.305   2.537  0.4663  0.4437 -0.4791
  628MOL0     H86611   9.867   2.461   2.286 -0.7500 -1.2793  0.8235
  628MOL0     H86612   9.898   2.538   2.449 -1.1951 -1.2960  2.7927
  628MOL0     H86613  10.100   2.312   2.572 -0.8807 -3.0164 -1.6212
  628MOL0     H86614  10.432   2.311   2.512  1.0122  0.7750 -1.1485
  628MOL0     H86615  10.403   2.194   2.381  1.2555  0.4651 -0.2294
  628MOL0     H86616  10.265   2.186   2.649 -2.2883  0.0497 -1.6187
  628MOL0     H86617  10.223   2.085   2.508 -0.6655  0.7333 -0.9850
  628MOL0     H86618  10.414   1.975   2.516 -3.2840 -2.0435  0.7854
  628MOL0     H86619  10.503   2.089   2.618  1.1363 -1.2525 -1.6632
  628MOL0     H86620  10.359   2.016   2.810  1.7722 -0.7801  1.3510
  628MOL0     H86621  10.260   1.931   2.694  1.4174 -2.8093  0.4145
  628MOL0     H86622  10.435   1.848   2.976  0.0846 -2.2242 -0.6070
  628MOL0     H86623  10.672   1.855   3.244  3.1051  0.4020 -2.9672
  628MOL0     H86624  10.649   1.694   3.204 -0.2978  0.6473  1.3856
  628MOL0     H86625  10.507   1.808   3.187 -0.7432  0.8938 -2.4826
  628MOL0     H86626  11.170   1.913   3.167  1.7184  0.7375  0.9129
  628MOL0     H86627  11.376   1.792   3.264 -1.4701  0.5486  0.7136
  628MOL0     H86628  11.372   1.389   3.246 -0.7217  0.3517 -0.4084
  628MOL0     H86629  11.494   1.408   3.122 -0.2544  1.9431  0.9403
  628MOL0     H86630  11.551   1.437   3.416 -2.1525 -3.7832  1.2347
  628MOL0     H86631  11.559   1.288   3.345  0.9198  0.8208  2.2195
  628MOL0     H86632  11.734   1.513   3.217 -0.7711  0.6240  2.0314
  628MOL0     H86633  11.733   1.339   3.197 -0.7921  4.2562 -5.2040
  628MOL0     H86634  11.816   1.319   3.436  1.0369 -2.5463 -3.1915
  628MOL0     H86635  11.759   1.485   3.470 -2.2411 -0.4401 -2.1002
  628MOL0     H86636  11.963   1.420   3.254 -1.6036  1.0068 -1.4498
  628MOL0     H86637  11.949   1.571   3.331 -0.0049  0.0002  0.2997
  628MOL0     H86638  12.077   1.318   3.443  0.7601  0.4214  3.1768
  628MOL0     H86639  12.053   1.449   3.544  1.4638 -1.4906 -0.0650
  628MOL0     H86640  12.177   1.610   3.418 -0.6676 -0.8650  2.4394
  628MOL0     H86641  12.199   1.479   3.285 -0.6034 -1.7651 -0.6501
  628MOL0     H86642  12.404   1.497   3.419  0.8802 -2.2866 -3.1684
  628MOL0     H86643  12.315   1.342   3.430 -2.4310  0.5326 -1.4549
  628MOL0     H86644  11.283   1.448   3.048 -1.1073 -0.5833 -3.6821
  628MOL0     H86645  11.099   1.558   2.936  1.1342 -1.9193  2.0560
  628MOL0     H86646  10.880   1.821   2.777 -0.6768  1.2784 -0.3512
  628MOL0     H86647  10.685   1.873   2.647 -2.5971 -0.5715 -0.1114
  628MOL0     H86648   8.753   2.298   2.526  4.9677  0.0314 -0.2730
  628MOL0     H86649   8.544   2.187   2.528  1.0372  2.6278  0.2439
  628MOL0     H86650   8.279   1.953   1.954  0.9941 -0.9999  0.2106
  628MOL0     H86651   8.045   1.855   1.911  0.7279  1.9231 -1.2301
  628MOL0     H86652   7.826   1.851   1.901  1.2575  1.1357  0.6504
  628MOL0     H86653   7.876   1.690   1.951  1.1172  0.9679 -2.2656
  628MOL0     H86654   7.616   1.798   2.049  1.5111  1.2133 -0.7498
  628MOL0     H86655   7.679   1.626   2.021  2.2988 -1.2150 -3.2756
  628MOL0     H86656   7.589   1.834   1.816  1.3845  0.6217  0.7825
  628MOL0     H86657   7.643   1.672   1.775 -0.0813 -0.0519 -0.0633
  628MOL0     H86658   7.399   1.672   1.773 -1.8149 -1.3002  0.8825
  628MOL0     H86659   7.373   1.736   1.929 -0.3602  0.0237 -0.3217
  628MOL0     H86660   7.436   1.353   2.056 -0.3613 -0.7551 -1.3461
  628MOL0     H86661   7.966   1.923   2.331  0.7498  1.5021  0.7569
  628MOL0     H86662   8.205   1.966   2.476 -0.5431 -1.0444 -1.2949
  628MOL0     H86663   8.255   2.118   2.411 -0.9387  0.6401  0.2736
  628MOL0     H86664   8.089   2.097   2.431  0.1781  0.5264 -0.3064
  629MOL0     O86665   9.877   4.724   3.796 -0.5186  0.0006 -0.5096
  629MOL0     C86666   9.853   4.757   3.915 -0.0455 -0.2846 -0.1153
  629MOL0     O86667   9.938   4.737   4.016 -0.0941  0.9568  0.0297
  629MOL0     C86668  10.058   4.675   4.007  0.0507  0.9915  0.8048
  629MOL0     C86669  10.093   4.565   3.922  0.2086 -0.8942 -0.2840
  629MOL0     C86670  10.228   4.517   3.926 -0.4111 -0.8079 -0.0971
  629MOL0     C86671  10.325   4.575   4.008  0.1602 -0.6735 -0.0797
  629MOL0     O86672  10.461   4.568   3.993 -0.2376  0.2830 -0.2784
  629MOL0     C86673  10.530   4.505   3.879 -0.4522  0.1410  0.1720
  629MOL0     C86674  10.673   4.475   3.909 -0.5698  0.1083 -0.1698
  629MOL0     C86675  10.733   4.409   3.783 -0.9260 -0.4365  1.3629
  629MOL0     C86676  10.786   4.260   3.810  0.5303 -0.8032 -0.3443
  629MOL0     C86677  10.856   4.199   3.693  0.9274  0.4883  0.2179
  629MOL0     C86678  10.890   4.045   3.698 -0.5285 -0.2903 -0.0491
  629MOL0     C86679  11.018   4.014   3.781  0.6961  0.4568 -0.8681
  629MOL0     C86680  11.144   4.025   3.696 -0.0684 -0.4198 -0.2055
  629MOL0     N86681  11.166   4.131   3.595  0.0746 -0.4784  0.1384
  629MOL0     C86682  11.234   4.244   3.619 -0.6693  0.5609  0.0961
  629MOL0     C86683  11.276   4.293   3.498  0.7034  0.5008 -0.4152
  629MOL0     C86684  11.366   4.411   3.463  0.4643  0.0113 -0.5480
  629MOL0     C86685  11.503   4.359   3.492 -0.2563  0.0550  1.4691
  629MOL0     C86686  11.599   4.456   3.420  0.0001  0.3230  0.0571
  629MOL0     C86687  11.743   4.425   3.459 -0.1971  0.5111  0.2328
  629MOL0     O86688  11.783   4.302   3.395 -0.0781  0.1524  0.0795
  629MOL0     C86689  11.881   4.220   3.447 -0.6864  0.2328 -0.1490
  629MOL0     C86690  11.890   4.086   3.404  0.3841  0.1401 -0.7921
  629MOL0     C86691  11.974   3.997   3.473 -0.0582  0.4414  0.3104
  629MOL0     C86692  11.977   3.858   3.413 -0.0538  0.7158  0.3949
  629MOL0     C86693  12.054   4.037   3.584 -0.0683 -0.5338  0.8550
  629MOL0     C86694  12.117   3.960   3.689  0.5781  0.0955  0.5079
  629MOL0     O86695  12.166   4.031   3.793 -0.1217 -0.0579  0.4386
  629MOL0     C86696  12.252   3.966   3.871  0.0366 -0.0403 -0.4352
  629MOL0     C86697  12.367   3.893   3.837  0.4971  0.1205 -0.0775
  629MOL0     C86698  12.451   3.844   3.938  0.2511  0.3537  0.9657
  629MOL0     C86699  12.417   3.859   4.066 -0.1671 -0.1147 -0.1959
  629MOL0     O86700  12.484   3.800   4.171 -0.0822  0.4528  0.3359
  629MOL0     C86701  12.541   3.669   4.165 -0.3421 -0.0975  0.1393
  629MOL0     C86702  12.572   3.596   4.300 -0.2255  0.0705 -0.3780
  629MOL0     C86703  12.461   3.624   4.392  0.5221  0.0150 -0.0664
  629MOL0     C86704  12.490   3.550   4.529 -0.2667 -0.0392 -0.2415
  629MOL0     C86705  12.593   3.607   4.618  0.0995  0.5109  0.3276
  629MOL0     C86706  12.532   3.737   4.680  0.8549 -0.2230 -0.9145
  629MOL0     C86707  12.635   3.789   4.793 -0.4729 -0.0397 -1.1825
  629MOL0     C86708  12.573   3.921   4.851 -0.7417  0.5011 -0.0726
  629MOL0    Cl86709  12.531   4.036   4.709 -0.2772  0.3558  0.5123
  629MOL0     C86710  12.308   3.941   4.104  0.9445 -0.3713  0.0169
  629MOL0     C86711  12.224   3.995   4.007 -0.1487  0.4078 -0.0008
  629MOL0     O86712  12.135   3.840   3.664  0.3478  0.0562  0.2779
  629MOL0     C86713  12.059   4.176   3.601  0.1492 -0.5374 -0.1061
  629MOL0     C86714  11.973   4.262   3.547  0.0392  0.1804 -0.0775
  629MOL0     N86715  11.210   4.215   3.412 -0.4013 -0.0487 -0.0454
  629MOL0     N86716  11.150   4.119   3.462 -0.3841 -0.1521  0.1235
  629MOL0     C86717  10.282   4.668   4.101 -0.0833  0.2919  0.3096
  629MOL0     C86718  10.152   4.720   4.095 -0.2236 -0.0634 -0.5849
  629MOL0     C86719   9.732   4.830   3.950  0.0165  0.5862  0.5722
  629MOL0     C86720   9.687   4.826   4.079  0.5884  0.1770  0.2832
  629MOL0     C86721   9.578   4.893   4.121  0.1338 -0.6811  0.1982
  629MOL0     C86722   9.496   4.968   4.033 -0.4449  0.0563 -0.8760
  629MOL0     O86723   9.370   5.027   4.066 -1.0042 -0.2196 -0.3624
  629MOL0     C86724   9.315   4.982   4.190  0.2904 -0.1398 -0.1391
  629MOL0     C86725   9.163   4.986   4.188 -0.0730 -0.8757  0.1936
  629MOL0     C86726   9.106   4.922   4.312  0.3559  0.1561 -0.3697
  629MOL0     C86727   8.950   4.906   4.320  0.1518 -0.4584  0.3483
  629MOL0     C86728   8.904   4.840   4.442  0.0860  0.2011 -0.9261
  629MOL0     C86729   8.866   4.785   4.539 -0.3291 -0.2410  0.0129
  629MOL0     C86730   9.534   4.976   3.903 -0.2750 -0.5163  0.0260
  629MOL0     C86731   9.656   4.912   3.861  0.0397 -0.1415 -0.0505
  629MOL0     C86732   9.715   4.942   3.725 -1.1023 -0.1017  0.6262
  629MOL0     H86733  10.020   4.512   3.862 -1.7949 -4.8416  4.9451
  629MOL0     H86734  10.247   4.449   3.844 -3.1201  0.6138 -2.0734
  629MOL0     H86735  10.514   4.557   3.785 -1.8872 -0.1615  0.2297
  629MOL0     H86736  10.482   4.409   3.858 -0.8322  0.7770 -2.0581
  629MOL0     H86737  10.733   4.564   3.927  0.3148  0.3300 -3.5081
  629MOL0     H86738  10.676   4.407   3.995 -0.6048  0.5517  0.1816
  629MOL0     H86739  10.660   4.407   3.702 -0.0440  2.3715  0.3590
  629MOL0     H86740  10.810   4.465   3.729  0.7471 -2.8953  1.0538
  629MOL0     H86741  10.864   4.265   3.886 -0.0093 -3.3757  0.4674
  629MOL0     H86742  10.709   4.189   3.841 -0.1431 -0.2802 -0.7994
  629MOL0     H86743  10.949   4.246   3.661 -0.5252  1.8178 -2.4446
  629MOL0     H86744  10.791   4.209   3.604 -0.5574 -1.6571  0.9679
  629MOL0     H86745  10.805   3.982   3.725  0.4520 -1.0211  1.4631
  629MOL0     H86746  10.912   4.026   3.592 -0.6689 -1.3174  0.1010
  629MOL0     H86747  11.007   3.910   3.812 -0.1188  1.0430  0.8961
  629MOL0     H86748  11.028   4.073   3.872 -0.3646  0.0474 -0.4717
  629MOL0     H86749  11.219   4.049   3.772 -0.9446  3.4205 -0.3448
  629MOL0     H86750  11.161   3.927   3.651  3.2015  0.5057 -1.2525
  629MOL0     H86751  11.269   4.279   3.715 -1.1874 -0.7693  0.8012
  629MOL0     H86752  11.348   4.497   3.529  1.8020 -0.8895  1.0860
  629MOL0     H86753  11.348   4.442   3.360 -3.1317  1.8043  0.4755
  629MOL0     H86754  11.520   4.379   3.598 -1.8247  2.5103  1.3252
  629MOL0     H86755  11.516   4.257   3.455  0.9836  0.5773  0.3740
  629MOL0     H86756  11.592   4.448   3.311 -0.7087  0.2450  0.0997
  629MOL0     H86757  11.573   4.560   3.443 -1.9807 -0.3968  1.4318
  629MOL0     H86758  11.804   4.514   3.443 -1.6304  2.3976  3.9181
  629MOL0     H86759  11.740   4.401   3.566  1.1257 -1.1923 -0.0677
  629MOL0     H86760  11.823   4.064   3.322 -1.9294  1.0693  0.7631
  629MOL0     H86761  12.079   3.818   3.421 -0.8544 -1.5608 -0.1755
  629MOL0     H86762  11.936   3.850   3.312  0.3120 -1.0145  0.3628
  629MOL0     H86763  11.918   3.796   3.481  0.2627  0.8664  0.8106
  629MOL0     H86764  12.388   3.876   3.732 -0.8738  1.0674 -0.5331
  629MOL0     H86765  12.537   3.785   3.910 -2.2922 -2.0623 -2.7003
  629MOL0     H86766  12.472   3.605   4.109  0.0134 -0.1525 -0.2390
  629MOL0     H86767  12.634   3.679   4.109  0.0355 -0.1653  0.7530
  629MOL0     H86768  12.565   3.488   4.280 -1.3540 -0.1481  1.0041
  629MOL0     H86769  12.668   3.610   4.351  0.5091 -3.1425 -0.6641
  629MOL0     H86770  12.369   3.583   4.349 -1.0525  2.1579  1.0459
  629MOL0     H86771  12.453   3.731   4.413 -1.9986 -0.3311  1.1043
  629MOL0     H86772  12.498   3.446   4.497 -1.8321  0.4532 -2.5165
  629MOL0     H86773  12.396   3.550   4.586  2.7290  2.7731  5.5358
  629MOL0     H86774  12.615   3.537   4.699  0.9259 -3.0149 -2.7011
  629MOL0     H86775  12.682   3.635   4.561 -0.0322  3.0683  1.2265
  629MOL0     H86776  12.442   3.711   4.737 -0.2295  1.6289 -1.6851
  629MOL0     H86777  12.500   3.806   4.600 -0.1553  0.1607 -0.2043
  629MOL0     H86778  12.729   3.818   4.745 -0.6286 -2.8141 -3.4433
  629MOL0     H86779  12.653   3.712   4.870  2.7464  0.2469 -1.5376
  629MOL0     H86780  12.653   3.958   4.916  2.2163 -1.5631 -2.2306
  629MOL0     H86781  12.482   3.900   4.907 -3.6940  2.1389 -3.8054
  629MOL0     H86782  12.295   3.972   4.207  2.1983 -0.7857  0.3243
  629MOL0     H86783  12.137   4.056   4.026 -2.0470 -2.0568 -0.3130
  629MOL0     H86784  12.126   4.232   3.666 -1.4742  1.5808 -0.1234
  629MOL0     H86785  11.964   4.365   3.579  1.8104  0.4766 -0.4482
  629MOL0     H86786  10.349   4.705   4.179  0.5918 -0.2000 -0.0259
  629MOL0     H86787  10.118   4.801   4.159 -0.3928 -0.4735 -0.1497
  629MOL0     H86788   9.750   4.772   4.149 -1.4323 -1.1771  1.1241
  629MOL0     H86789   9.566   4.883   4.228  3.4723 -1.9477  0.5922
  629MOL0     H86790   9.352   4.882   4.214  0.2542  0.4962  3.0665
  629MOL0     H86791   9.351   5.050   4.268 -1.9423  2.0140 -0.8695
  629MOL0     H86792   9.124   4.935   4.099 -1.6606  1.4071 -0.5014
  629MOL0     H86793   9.122   5.087   4.192 -1.8766 -1.5574  0.0902
  629MOL0     H86794   9.161   4.832   4.338  1.5206  0.8018 -0.5013
  629MOL0     H86795   9.121   4.992   4.395 -1.2772 -2.2463  2.1078
  629MOL0     H86796   8.916   4.835   4.244  1.7692 -1.6136  0.6616
  629MOL0     H86797   8.906   5.004   4.296  1.5327  0.2192  0.4744
  629MOL0     H86798   8.829   4.736   4.627 -0.9208 -1.3047 -0.8082
  629MOL0     H86799   9.484   5.039   3.830  1.0746 -1.1714 -1.5295
  629MOL0     H86800   9.669   5.023   3.667  1.8051  2.1654  1.2264
  629MOL0     H86801   9.816   4.983   3.727 -0.7466 -0.8063 -1.0804
  629MOL0     H86802   9.720   4.852   3.664 -1.1444  0.5473 -0.3651
  630MOL0     O86803   6.914   4.585   7.542  0.0614  0.7888  0.2426
  630MOL0     C86804   6.871   4.472   7.533 -0.9464 -0.8874 -0.1217
  630MOL0     O86805   6.944   4.370   7.485  0.2086  0.7273 -0.1267
  630MOL0     C86806   7.083   4.364   7.502  0.2745 -0.3563 -0.5674
  630MOL0     C86807   7.162   4.291   7.412  0.0574  0.1842 -0.1134
  630MOL0     C86808   7.301   4.292   7.435 -0.2828  0.2066 -0.0736
  630MOL0     C86809   7.367   4.353   7.542 -0.0180 -0.0056  0.2768
  630MOL0     O86810   7.503   4.332   7.560  0.0945 -0.1313 -0.0626
  630MOL0     C86811   7.574   4.413   7.651  0.0081 -0.1542 -0.5138
  630MOL0     C86812   7.723   4.397   7.647 -0.7412 -0.6699 -0.1737
  630MOL0     C86813   7.765   4.251   7.676 -0.9047  0.2984 -0.6149
  630MOL0     C86814   7.912   4.226   7.634  0.4452  0.1554 -0.1873
  630MOL0     C86815   7.982   4.107   7.678  0.4694  0.5082 -0.0966
  630MOL0     C86816   7.950   4.050   7.822 -0.1564 -0.3986  0.2205
  630MOL0     C86817   8.061   3.958   7.860  0.9917  0.3060  0.1493
  630MOL0     C86818   8.030   3.906   8.002 -0.1217 -0.0228 -0.4406
  630MOL0     N86819   8.058   4.000   8.107 -0.7207  0.3040 -0.0277
  630MOL0     C86820   8.048   3.987   8.243 -0.7762  0.4864  0.1708
  630MOL0     C86821   8.097   4.104   8.296  0.6288  0.4337 -0.1490
  630MOL0     C86822   8.113   4.136   8.443  0.1854 -1.1867 -0.1783
  630MOL0     C86823   8.029   4.258   8.484  0.6097  0.0553 -0.9483
  630MOL0     C86824   7.882   4.237   8.491  0.4022  0.6610 -0.7100
  630MOL0     C86825   7.851   4.113   8.576  0.6082  0.0767 -0.2027
  630MOL0     O86826   7.835   3.996   8.499  0.7347  0.1750 -0.3113
  630MOL0     C86827   7.845   3.870   8.558  0.1686 -0.0018  0.1192
  630MOL0     C86828   7.820   3.750   8.479  0.1787  0.5293 -0.5254
  630MOL0     C86829   7.830   3.623   8.544 -0.1586 -0.6796  0.5170
  630MOL0     C86830   7.815   3.510   8.447 -0.3295  0.2961  0.6374
  630MOL0     C86831   7.843   3.615   8.685 -0.4429 -0.6527 -0.0761
  630MOL0     C86832   7.833   3.488   8.756 -0.9650  0.5203 -0.9780
  630MOL0     O86833   7.809   3.373   8.692 -0.5799 -0.0037  0.0318
  630MOL0     C86834   7.758   3.269   8.770 -0.1632 -0.0785  0.7776
  630MOL0     C86835   7.665   3.279   8.873 -0.0040 -0.0731  0.2196
  630MOL0     C86836   7.619   3.170   8.950  0.4432  0.0602 -1.2904
  630MOL0     C86837   7.666   3.041   8.916  0.2310 -0.5139 -0.5371
  630MOL0     O86838   7.605   2.928   8.975  0.2972 -0.7861 -0.3598
  630MOL0     C86839   7.665   2.801   8.976  0.0769 -0.1203  0.8178
  630MOL0     C86840   7.601   2.697   9.070  0.5244  0.1538 -0.6264
  630MOL0     C86841   7.671   2.557   9.062 -1.0841  0.5878 -0.1359
  630MOL0     C86842   7.576   2.441   9.071 -0.1350 -0.2558  0.5855
  630MOL0     C86843   7.654   2.309   9.094  0.8003  0.2624  0.1218
  630MOL0     C86844   7.565   2.185   9.120 -0.8319 -0.2569  0.0936
  630MOL0     C86845   7.495   2.141   8.994 -0.0820 -0.4418 -0.5078
  630MOL0     C86846   7.381   2.051   9.026 -0.6927  0.2500 -1.0785
  630MOL0    Cl86847   7.455   1.880   9.055 -0.4044 -0.2668  0.0917
  630MOL0     C86848   7.764   3.022   8.814 -0.3780  0.1632 -0.6047
  630MOL0     C86849   7.801   3.136   8.733 -1.0184 -0.0604 -1.0098
  630MOL0     O86850   7.851   3.505   8.878 -0.5895  0.2167 -0.0115
  630MOL0     C86851   7.864   3.734   8.752 -0.8999  0.9488  0.1841
  630MOL0     C86852   7.870   3.856   8.693 -0.3538 -0.1397  0.1519
  630MOL0     N86853   8.121   4.197   8.191 -0.8539  0.7701  0.0041
  630MOL0     N86854   8.108   4.125   8.082 -0.4045  0.3143 -0.0410
  630MOL0     C86855   7.282   4.426   7.623  0.1688 -1.1265 -0.2935
  630MOL0     C86856   7.143   4.426   7.614 -0.0907  0.6014  0.1663
  630MOL0     C86857   6.727   4.453   7.554 -0.2898  0.3706  0.2288
  630MOL0     C86858   6.659   4.352   7.489  0.6282  0.3315  0.1897
  630MOL0     C86859   6.528   4.314   7.519 -0.2443 -0.4976 -0.3570
  630MOL0     C86860   6.466   4.388   7.621  0.4196  0.4881  0.5662
  630MOL0     O86861   6.337   4.374   7.668 -0.0887  0.4157  0.1509
  630MOL0     C86862   6.256   4.273   7.618 -0.3553 -0.1369 -0.0532
  630MOL0     C86863   6.202   4.304   7.476  0.6284 -0.2759 -0.6049
  630MOL0     C86864   6.097   4.423   7.471 -0.9792 -0.0893 -0.5566
  630MOL0     C86865   5.952   4.382   7.502  0.0107  0.1643  0.1258
  630MOL0     C86866   5.873   4.502   7.529  0.6918 -0.2902 -0.2758
  630MOL0     C86867   5.804   4.598   7.558  0.3981  0.7577  0.0437
  630MOL0     C86868   6.527   4.501   7.682 -0.1752  0.0285 -0.2675
  630MOL0     C86869   6.658   4.536   7.653 -0.6527  0.1227 -0.5439
  630MOL0     C86870   6.710   4.637   7.746  1.2515  0.6319  0.8612
  630MOL0     H86871   7.123   4.235   7.328 -0.4436  1.8265 -1.0009
  630MOL0     H86872   7.362   4.245   7.358  0.6587 -2.3981  2.1125
  630MOL0     H86873   7.538   4.388   7.751 -3.1988 -3.8806 -2.3043
  630MOL0     H86874   7.562   4.518   7.624  3.7129  0.7383  0.7764
  630MOL0     H86875   7.767   4.414   7.548  1.2920  0.8445  0.9098
  630MOL0     H86876   7.788   4.451   7.717 -1.4190  0.9483 -0.7556
  630MOL0     H86877   7.749   4.222   7.780  1.8974  0.2803 -0.0956
  630MOL0     H86878   7.709   4.180   7.615 -2.8732  1.1851  0.0786
  630MOL0     H86879   7.917   4.229   7.524  0.0700 -0.7512 -0.2350
  630MOL0     H86880   7.979   4.306   7.667  1.7816 -1.6970  1.8431
  630MOL0     H86881   8.089   4.126   7.666  0.9322 -1.0977  1.0886
  630MOL0     H86882   7.968   4.016   7.619 -0.3913  1.2431 -1.0718
  630MOL0     H86883   7.928   4.128   7.896  2.6753  2.0465 -1.2621
  630MOL0     H86884   7.857   3.994   7.807  1.2740 -2.5950 -0.9852
  630MOL0     H86885   8.162   3.998   7.865  0.2446  2.3422 -0.0689
  630MOL0     H86886   8.068   3.875   7.790 -1.7864  0.0031  0.1175
  630MOL0     H86887   7.924   3.881   8.018 -0.4404 -0.7083 -3.1629
  630MOL0     H86888   8.083   3.813   8.025  1.2709  0.2963 -2.1701
  630MOL0     H86889   8.003   3.904   8.296  1.6365 -2.3731 -1.9343
  630MOL0     H86890   8.220   4.155   8.458 -0.3163  1.3325  0.5992
  630MOL0     H86891   8.085   4.050   8.506  0.8992  0.0472  1.9488
  630MOL0     H86892   8.057   4.276   8.589  0.5778 -2.9718 -0.3244
  630MOL0     H86893   8.064   4.334   8.414 -0.5673  0.9650 -0.5727
  630MOL0     H86894   7.832   4.322   8.539 -0.6328  1.3211 -2.8345
  630MOL0     H86895   7.832   4.226   8.395 -2.9742 -0.0043  0.9753
  630MOL0     H86896   7.933   4.095   8.647 -0.9664 -2.3339  1.1565
  630MOL0     H86897   7.760   4.127   8.636  1.2414  0.5047  0.6876
  630MOL0     H86898   7.802   3.771   8.374 -2.4590  0.0547 -0.2492
  630MOL0     H86899   7.820   3.546   8.344  1.8471  1.5562  1.1219
  630MOL0     H86900   7.717   3.468   8.472  0.3088 -0.2877  2.2819
  630MOL0     H86901   7.906   3.452   8.458 -0.9542 -1.3680 -2.1000
  630MOL0     H86902   7.634   3.379   8.904 -1.7534 -0.1932 -1.0152
  630MOL0     H86903   7.553   3.189   9.033  0.2316 -1.5654 -1.0435
  630MOL0     H86904   7.679   2.768   8.873  4.1499 -1.8720  1.7022
  630MOL0     H86905   7.771   2.804   9.006  0.5992  0.4410 -0.9564
  630MOL0     H86906   7.603   2.739   9.171 -2.7999 -0.2713 -0.2994
  630MOL0     H86907   7.500   2.665   9.046  0.3606  1.7744 -2.3679
  630MOL0     H86908   7.742   2.549   9.144  0.4968  0.2176 -1.4961
  630MOL0     H86909   7.728   2.549   8.969 -1.7962  2.8505 -0.8591
  630MOL0     H86910   7.515   2.431   8.981  1.2782  0.3297 -0.4744
  630MOL0     H86911   7.526   2.449   9.168 -1.2409  0.2639 -0.0074
  630MOL0     H86912   7.713   2.285   9.005 -0.7579 -1.3578 -0.5419
  630MOL0     H86913   7.732   2.318   9.170 -0.2232 -1.5711  1.4733
  630MOL0     H86914   7.491   2.207   9.198 -0.9295  1.0631 -0.3494
  630MOL0     H86915   7.631   2.103   9.150  2.1281  1.2636 -1.8369
  630MOL0     H86916   7.567   2.080   8.938 -1.1528 -3.8014  1.5004
  630MOL0     H86917   7.454   2.220   8.929 -0.4787 -0.2835 -0.0674
  630MOL0     H86918   7.319   2.034   8.938 -0.7679 -2.3785 -0.6123
  630MOL0     H86919   7.315   2.101   9.097 -0.4253 -1.4675  0.4564
  630MOL0     H86920   7.797   2.920   8.794 -0.7425  0.1055 -0.9332
  630MOL0     H86921   7.872   3.124   8.652 -0.1186  2.7571 -0.7611
  630MOL0     H86922   7.887   3.733   8.858 -0.2992  1.8461  0.0772
  630MOL0     H86923   7.881   3.944   8.756  0.8611  1.6104 -2.3563
  630MOL0     H86924   7.334   4.476   7.705  0.9710 -0.2937 -1.2809
  630MOL0     H86925   7.086   4.461   7.699 -1.6188 -1.3666  0.0131
  630MOL0     H86926   6.706   4.289   7.414 -0.1766 -0.5919  0.4300
  630MOL0     H86927   6.478   4.232   7.467  1.1616 -1.4506 -0.2612
  630MOL0     H86928   6.308   4.177   7.614 -0.1068 -0.0922  1.6282
  630MOL0     H86929   6.168   4.261   7.681 -0.4800 -3.3265 -0.6617
  630MOL0     H86930   6.161   4.217   7.424  0.4302 -1.0094  0.7282
  630MOL0     H86931   6.281   4.335   7.407 -0.1568  0.7845 -1.0502
  630MOL0     H86932   6.138   4.490   7.547 -0.0736 -0.2271 -0.9085
  630MOL0     H86933   6.101   4.467   7.371 -0.0124 -1.6511 -1.2430
  630MOL0     H86934   5.949   4.318   7.591 -0.4499  0.7258  0.5158
  630MOL0     H86935   5.915   4.332   7.412  1.1143 -1.2908  0.4450
  630MOL0     H86936   5.747   4.682   7.593 -2.8136 -0.5917 -1.5428
  630MOL0     H86937   6.466   4.554   7.755 -3.3945 -4.0990  0.4298
  630MOL0     H86938   6.818   4.652   7.752  1.2560  0.2743  1.7506
  630MOL0     H86939   6.663   4.731   7.718  1.8376  0.6592 -0.0810
  630MOL0     H86940   6.672   4.621   7.847 -0.5768  0.5477  0.2008
  631MOL0     O86941   1.070   1.559   7.381 -0.4932  0.3928 -0.4182
  631MOL0     C86942   0.990   1.639   7.430 -0.8568 -0.6281  0.1639
  631MOL0     O86943   1.020   1.718   7.539  0.5910 -0.7013 -0.6638
  631MOL0     C86944   1.135   1.708   7.622  0.4329 -0.1453  0.2445
  631MOL0     C86945   1.127   1.731   7.759  0.3037 -0.8935 -0.6772
  631MOL0     C86946   1.232   1.730   7.849 -0.7274 -0.1897 -0.1146
  631MOL0     C86947   1.359   1.691   7.806  0.1894 -0.1385 -0.8267
  631MOL0     O86948   1.468   1.656   7.883 -0.0648 -0.4129  0.3670
  631MOL0     C86949   1.433   1.631   8.022  0.8398 -0.7522  0.7653
  631MOL0     C86950   1.526   1.525   8.082 -0.6191  0.6831 -1.1088
  631MOL0     C86951   1.673   1.580   8.088 -0.1959  0.7078  0.4753
  631MOL0     C86952   1.772   1.462   8.095 -0.3542  0.2789 -0.6517
  631MOL0     C86953   1.921   1.508   8.120  0.2240 -0.9207 -0.2602
  631MOL0     C86954   2.009   1.381   8.128  0.0755  0.2015  0.5826
  631MOL0     C86955   2.158   1.418   8.141 -0.1166 -0.8390 -0.0678
  631MOL0     C86956   2.189   1.529   8.246 -1.0693 -0.6009 -0.3007
  631MOL0     N86957   2.337   1.544   8.266  0.0142 -0.0042 -0.2273
  631MOL0     C86958   2.417   1.616   8.187  0.6003 -0.5963 -0.0868
  631MOL0     C86959   2.539   1.571   8.215 -0.5847  0.1389 -0.3031
  631MOL0     C86960   2.658   1.615   8.129  0.0856  0.4335 -0.0755
  631MOL0     C86961   2.743   1.496   8.109 -0.5124 -0.3283 -0.4471
  631MOL0     C86962   2.868   1.527   8.020  0.6454  0.9902  0.5129
  631MOL0     C86963   2.962   1.630   8.078  0.5376 -0.2419  0.0078
  631MOL0     O86964   2.993   1.597   8.210  0.2544 -0.1627 -0.4106
  631MOL0     C86965   3.088   1.672   8.274 -0.9329  0.5085 -0.0635
  631MOL0     C86966   3.077   1.678   8.416 -1.1165  0.1660 -0.5075
  631MOL0     C86967   3.175   1.751   8.489  0.2177 -0.1027  0.2031
  631MOL0     C86968   3.144   1.753   8.635 -0.8670 -0.2828 -0.0551
  631MOL0     C86969   3.274   1.820   8.419 -0.2525 -1.0753 -0.3438
  631MOL0     C86970   3.384   1.903   8.488  0.8217  0.5483 -0.7200
  631MOL0     O86971   3.467   1.973   8.407  0.1744 -0.5358  0.2261
  631MOL0     C86972   3.572   2.047   8.457  0.2161  0.1474  0.3914
  631MOL0     C86973   3.558   2.137   8.559  0.4523  0.5175  0.1039
  631MOL0     C86974   3.665   2.216   8.601 -0.7012 -0.2826  0.2625
  631MOL0     C86975   3.788   2.207   8.539  0.1525 -0.2927 -0.9376
  631MOL0     O86976   3.896   2.292   8.573 -0.4578  0.3254 -0.3703
  631MOL0     C86977   3.869   2.425   8.526 -0.7973 -0.2706 -0.5016
  631MOL0     C86978   3.993   2.508   8.500 -0.3677  0.5750 -0.1538
  631MOL0     C86979   4.076   2.476   8.376 -0.4923 -0.2228 -0.3744
  631MOL0     C86980   4.160   2.603   8.343  0.2960 -0.0134 -0.2388
  631MOL0     C86981   4.224   2.592   8.207  0.0359 -0.7627  0.4332
  631MOL0     C86982   4.124   2.605   8.092  0.0809  0.2843 -0.0861
  631MOL0     C86983   4.182   2.586   7.947  0.4660 -0.0004 -0.2857
  631MOL0     C86984   4.070   2.582   7.849  0.0320 -0.3547  0.8644
  631MOL0    Cl86985   4.143   2.607   7.684 -0.1627 -0.1425 -0.1398
  631MOL0     C86986   3.801   2.115   8.435 -0.3179 -0.0479  1.0745
  631MOL0     C86987   3.692   2.030   8.393 -0.6983  0.0318  0.5110
  631MOL0     O86988   3.394   1.895   8.613  0.4547 -0.3061  0.4247
  631MOL0     C86989   3.276   1.824   8.277 -0.7830 -0.8040 -0.6619
  631MOL0     C86990   3.188   1.749   8.204 -0.3426  0.6903 -0.3849
  631MOL0     N86991   2.535   1.490   8.326  0.4109 -0.2381 -0.1488
  631MOL0     N86992   2.410   1.480   8.363 -0.2674 -0.3383 -0.5846
  631MOL0     C86993   1.373   1.692   7.664  0.7733  0.7161 -0.2738
  631MOL0     C86994   1.262   1.699   7.574 -0.6121  0.2848 -0.0858
  631MOL0     C86995   0.851   1.645   7.377 -0.0230  0.0305 -0.7182
  631MOL0     C86996   0.748   1.706   7.458 -0.6638  0.3340  0.3790
  631MOL0     C86997   0.611   1.715   7.419 -0.2358  0.7169  0.5678
  631MOL0     C86998   0.573   1.677   7.293 -0.6828 -0.8277  0.1249
  631MOL0     O86999   0.451   1.708   7.250  0.2275  0.0903 -0.3660
  631MOL0     C87000   0.348   1.602   7.252  0.1029 -0.0201  0.4875
  631MOL0     C87001   0.407   1.452   7.259  0.0821 -1.6262 -0.3158
  631MOL0     C87002   0.290   1.351   7.287  0.0620 -0.0684  0.1813
  631MOL0     C87003   0.189   1.330   7.172  0.1913 -0.3172  0.1490
  631MOL0     C87004   0.110   1.212   7.180  0.0233  0.7817  0.9339
  631MOL0     C87005   0.040   1.114   7.184  0.3360 -0.6958  0.5438
  631MOL0     C87006   0.673   1.633   7.210  0.2906  0.1178 -0.1712
  631MOL0     C87007   0.807   1.604   7.249  0.1709  0.5550  0.0908
  631MOL0     C87008   0.899   1.554   7.139 -0.4409 -0.0233 -1.3282
  631MOL0     H87009   1.032   1.759   7.804  1.7547 -0.2955  2.2782
  631MOL0     H87010   1.197   1.741   7.952  0.5026  0.2497  0.2734
  631MOL0     H87011   1.328   1.605   8.040  0.4064  1.3108  1.4907
  631MOL0     H87012   1.448   1.714   8.092 -2.9643 -0.2005  1.1834
  631MOL0     H87013   1.498   1.494   8.183 -1.5991  1.5697 -1.0954
  631MOL0     H87014   1.520   1.437   8.016  0.2338 -0.8796  0.7830
  631MOL0     H87015   1.705   1.637   8.000  0.1984  0.7948  0.6704
  631MOL0     H87016   1.689   1.646   8.173  1.9493  0.7992  0.0690
  631MOL0     H87017   1.739   1.405   8.182 -3.5907  1.0269 -1.2357
  631MOL0     H87018   1.760   1.391   8.012 -1.4145  0.5214 -0.7179
  631MOL0     H87019   1.916   1.568   8.211 -0.6276  1.4052 -1.7314
  631MOL0     H87020   1.947   1.568   8.032  1.0755  0.0344  0.6163
  631MOL0     H87021   1.981   1.322   8.215  1.6808  0.2925  1.1818
  631MOL0     H87022   2.007   1.329   8.032  1.4418  0.1119  0.5842
  631MOL0     H87023   2.194   1.456   8.045  0.4486 -0.6629  0.2103
  631MOL0     H87024   2.215   1.327   8.160 -0.0726 -0.9469 -0.7036
  631MOL0     H87025   2.156   1.626   8.208 -1.8688 -2.2067 -4.2078
  631MOL0     H87026   2.140   1.509   8.341 -0.5159 -1.9508 -0.2749
  631MOL0     H87027   2.378   1.668   8.100 -2.1106 -0.4443  1.1142
  631MOL0     H87028   2.711   1.684   8.194 -1.5294  2.3552 -0.6992
  631MOL0     H87029   2.639   1.663   8.033 -0.6514 -2.1845 -1.3369
  631MOL0     H87030   2.762   1.457   8.209 -0.5896 -0.0500 -0.3241
  631MOL0     H87031   2.678   1.427   8.055 -1.7649 -0.5238  1.2309
  631MOL0     H87032   2.926   1.435   8.009  0.8439  1.3627 -2.5049
  631MOL0     H87033   2.834   1.552   7.919 -2.5089 -3.4231  0.1863
  631MOL0     H87034   3.047   1.636   8.010 -0.1878 -0.8430 -0.9748
  631MOL0     H87035   2.910   1.727   8.075  1.7658  0.4445 -0.0691
  631MOL0     H87036   3.005   1.611   8.463 -0.6196 -2.7243 -3.5098
  631MOL0     H87037   3.153   1.853   8.677  1.8418  0.5185 -2.1964
  631MOL0     H87038   3.222   1.692   8.681 -1.9193  0.7726  3.3839
  631MOL0     H87039   3.040   1.724   8.649 -1.9145  2.8659 -0.4521
  631MOL0     H87040   3.465   2.152   8.612  1.9479  1.8191  2.5304
  631MOL0     H87041   3.649   2.295   8.674  2.9405  1.3692 -0.4938
  631MOL0     H87042   3.803   2.428   8.438  0.7685  3.5295 -1.7610
  631MOL0     H87043   3.821   2.460   8.618 -0.1325 -0.7077  0.0196
  631MOL0     H87044   3.946   2.607   8.491  0.2350  0.8721 -0.1242
  631MOL0     H87045   4.051   2.508   8.593  0.8348 -3.2155 -0.7602
  631MOL0     H87046   4.016   2.440   8.292 -0.2374  0.2312 -0.7550
  631MOL0     H87047   4.156   2.410   8.409  0.9773  2.3331  1.5036
  631MOL0     H87048   4.246   2.605   8.410 -0.1576 -1.1516  0.3955
  631MOL0     H87049   4.104   2.697   8.354  1.9668  1.0866 -0.8124
  631MOL0     H87050   4.294   2.676   8.194 -1.6065  0.3713 -1.7652
  631MOL0     H87051   4.281   2.499   8.207 -0.2495 -0.9577 -1.0680
  631MOL0     H87052   4.082   2.706   8.093  0.1992  0.4181 -2.3073
  631MOL0     H87053   4.047   2.528   8.106  2.5255 -3.7355 -5.1260
  631MOL0     H87054   4.229   2.488   7.941 -1.6564 -1.0606 -0.5625
  631MOL0     H87055   4.245   2.675   7.935 -1.8176  1.8861  0.7435
  631MOL0     H87056   3.991   2.656   7.863  0.3384  0.5613 -1.7914
  631MOL0     H87057   4.030   2.480   7.852 -0.1360 -0.4088 -1.5581
  631MOL0     H87058   3.900   2.103   8.393 -0.5666  2.7553 -0.5524
  631MOL0     H87059   3.704   1.939   8.336 -2.6313 -0.3801  0.6947
  631MOL0     H87060   3.352   1.872   8.217 -1.4617  0.4313 -0.5808
  631MOL0     H87061   3.189   1.742   8.095 -1.9482 -2.3155 -0.3167
  631MOL0     H87062   1.477   1.688   7.633  0.4523  0.2559 -1.3419
  631MOL0     H87063   1.283   1.699   7.467 -0.2551  1.0331 -0.0222
  631MOL0     H87064   0.758   1.749   7.556  0.6596 -1.4576  1.0944
  631MOL0     H87065   0.556   1.770   7.494 -1.7786 -0.5084  0.3885
  631MOL0     H87066   0.278   1.637   7.328 -0.9480 -0.4795 -0.2387
  631MOL0     H87067   0.292   1.616   7.159  0.1085  4.4001  0.9520
  631MOL0     H87068   0.474   1.457   7.345 -1.7725 -2.0898  1.2359
  631MOL0     H87069   0.465   1.408   7.178  2.2647 -2.4268  1.5645
  631MOL0     H87070   0.336   1.259   7.324  2.0323  0.4105 -0.9161
  631MOL0     H87071   0.232   1.389   7.371 -2.4595  0.4487 -1.6707
  631MOL0     H87072   0.225   1.340   7.070 -1.8852 -0.9258 -0.7090
  631MOL0     H87073   0.117   1.411   7.190  0.5978 -0.1755  1.1922
  631MOL0     H87074  -0.014   1.022   7.191  0.7281 -1.1006 -1.2061
  631MOL0     H87075   0.629   1.608   7.114 -0.0801  2.0540 -0.5544
  631MOL0     H87076   0.857   1.582   7.042 -0.3572 -0.0768 -1.3796
  631MOL0     H87077   1.000   1.595   7.140 -0.9869  1.3543 -0.8638
  631MOL0     H87078   0.904   1.445   7.134  0.5689 -0.4599  3.9121
  632MOL0     O87079   9.406   5.614   6.102 -0.0278  0.4654 -0.0532
  632MOL0     C87080   9.414   5.508   6.033 -0.2928 -0.2598  0.3189
  632MOL0     O87081   9.521   5.421   6.025  0.8093 -0.5271 -0.6748
  632MOL0     C87082   9.615   5.445   6.128  0.8634  0.8607  1.2742
  632MOL0     C87083   9.627   5.355   6.229  0.4633 -0.0500  0.3098
  632MOL0     C87084   9.743   5.352   6.310  1.0991 -0.8557 -0.6407
  632MOL0     C87085   9.831   5.465   6.307  0.6553 -0.2469 -0.3444
  632MOL0     O87086   9.939   5.470   6.391 -0.5162 -0.1640  1.0213
  632MOL0     C87087   9.951   5.574   6.492  0.2483 -0.4115  0.2805
  632MOL0     C87088  10.041   5.522   6.608  0.5101 -0.4652 -0.0998
  632MOL0     C87089  10.020   5.614   6.731 -0.4224  0.7077 -0.3952
  632MOL0     C87090  10.078   5.750   6.730 -0.1157 -0.1854 -1.0722
  632MOL0     C87091  10.109   5.807   6.875  0.3639 -0.7961  0.3202
  632MOL0     C87092  10.143   5.960   6.870  0.1113 -0.4342 -0.2902
  632MOL0     C87093  10.173   6.018   7.007  0.8117 -1.1094  0.1020
  632MOL0     C87094  10.185   6.172   6.990 -0.0610 -0.0181  0.1536
  632MOL0     N87095  10.229   6.238   7.114 -0.0562 -0.0285  0.2632
  632MOL0     C87096  10.192   6.194   7.241  0.0487 -0.2828  0.2763
  632MOL0     C87097  10.273   6.269   7.326 -0.8394 -0.2253  0.4160
  632MOL0     C87098  10.277   6.258   7.469  0.6134  0.2551 -0.8504
  632MOL0     C87099  10.404   6.313   7.532  0.1960 -0.0157  0.0978
  632MOL0     C87100  10.391   6.310   7.681 -0.3738  0.2140  0.1795
  632MOL0     C87101  10.503   6.392   7.750 -0.4831  0.5013 -0.3595
  632MOL0     O87102  10.627   6.316   7.746  0.3026 -0.1962  0.0455
  632MOL0     C87103  10.749   6.370   7.794 -0.0343  0.1522  0.0155
  632MOL0     C87104  10.850   6.283   7.844 -0.3153 -0.8107  0.9189
  632MOL0     C87105  10.969   6.322   7.907 -0.4806  0.3228 -0.2779
  632MOL0     C87106  11.039   6.209   7.988  0.1599 -0.4239 -0.5976
  632MOL0     C87107  10.989   6.463   7.922  0.6390  0.0428 -0.7546
  632MOL0     C87108  11.102   6.527   8.000  0.1441  0.3548  0.3795
  632MOL0     O87109  11.206   6.443   8.025 -0.4359 -0.1278 -0.2464
  632MOL0     C87110  11.318   6.489   8.089 -0.1866  0.8975 -0.1119
  632MOL0     C87111  11.374   6.403   8.187  0.7971  0.2188 -0.2558
  632MOL0     C87112  11.490   6.448   8.251  0.1225 -0.2454  0.3962
  632MOL0     C87113  11.551   6.566   8.217 -0.6409  0.0468  0.9230
  632MOL0     O87114  11.675   6.599   8.274 -0.5925  0.8743 -0.0592
  632MOL0     C87115  11.677   6.722   8.342  0.6829 -0.5756 -0.4371
  632MOL0     C87116  11.801   6.807   8.300 -0.8545  0.0799 -0.3603
  632MOL0     C87117  11.809   6.867   8.157  0.1989 -0.4326  0.1917
  632MOL0     C87118  11.928   6.964   8.148 -0.4193 -0.3581  0.2857
  632MOL0     C87119  11.942   6.996   7.996  0.1878 -1.1559  0.0519
  632MOL0     C87120  12.068   7.084   7.963  0.3490  0.3709  1.0854
  632MOL0     C87121  12.196   7.021   8.008 -0.6532  0.4465 -0.3856
  632MOL0     C87122  12.311   7.091   7.942  0.2275 -0.1535 -0.0117
  632MOL0    Cl87123  12.460   6.990   7.947 -0.3232  0.0116 -0.1905
  632MOL0     C87124  11.501   6.636   8.112  0.6573 -0.0840 -0.3701
  632MOL0     C87125  11.393   6.590   8.034 -0.5050  0.2789  0.4942
  632MOL0     O87126  11.090   6.642   8.047 -0.5044  0.2641  0.7826
  632MOL0     C87127  10.898   6.555   7.858 -0.1979  0.4479  0.1924
  632MOL0     C87128  10.784   6.503   7.792  0.1174 -0.6846 -0.4058
  632MOL0     N87129  10.341   6.360   7.240  0.0033 -0.8425 -0.2199
  632MOL0     N87130  10.318   6.332   7.117 -0.7060 -0.5760  0.3737
  632MOL0     C87131   9.814   5.565   6.205  0.5904  0.1572 -1.0173
  632MOL0     C87132   9.715   5.541   6.106  0.1620 -0.0722 -0.3805
  632MOL0     C87133   9.290   5.476   5.952  0.2459  0.3395  0.1109
  632MOL0     C87134   9.307   5.376   5.856  0.4697  0.7650 -0.2406
  632MOL0     C87135   9.195   5.334   5.778 -0.4885  0.4406  0.7410
  632MOL0     C87136   9.071   5.397   5.793  0.8309  1.0924  0.7104
  632MOL0     O87137   8.970   5.366   5.708 -0.2635  0.6630 -0.0282
  632MOL0     C87138   8.878   5.267   5.763  0.0065 -0.3101  0.4577
  632MOL0     C87139   8.741   5.309   5.718  0.5934  0.3631  0.3100
  632MOL0     C87140   8.726   5.291   5.557 -0.6531  0.0061 -0.5183
  632MOL0     C87141   8.581   5.262   5.515  0.8290 -0.2565  0.2055
  632MOL0     C87142   8.519   5.387   5.495  0.1013 -0.0909  1.1644
  632MOL0     C87143   8.464   5.492   5.471 -0.2449  0.4305 -0.3197
  632MOL0     C87144   9.059   5.502   5.889  0.2200 -1.2829  0.1005
  632MOL0     C87145   9.166   5.539   5.967 -0.4605 -0.5982  0.4190
  632MOL0     C87146   9.140   5.670   6.046  0.9107 -1.4864 -0.0108
  632MOL0     H87147   9.556   5.273   6.235  0.7796 -0.2798  1.1715
  632MOL0     H87148   9.755   5.277   6.388 -2.8413  0.3875  1.4281
  632MOL0     H87149   9.854   5.614   6.522 -0.9098 -1.7579 -1.4226
  632MOL0     H87150  10.008   5.658   6.452 -0.7075  0.4268  0.6414
  632MOL0     H87151  10.013   5.419   6.632  0.3687 -0.1276  1.3032
  632MOL0     H87152  10.145   5.526   6.576 -0.0602  1.6087 -1.9817
  632MOL0     H87153   9.914   5.622   6.755 -0.8595  2.5982 -2.6002
  632MOL0     H87154  10.067   5.561   6.815 -0.5789 -1.4596 -1.6046
  632MOL0     H87155  10.171   5.743   6.674  1.4330 -0.7280  1.3912
  632MOL0     H87156  10.018   5.821   6.673 -0.3186  2.3913  2.0888
  632MOL0     H87157  10.194   5.753   6.920  0.3113 -1.0715  0.0942
  632MOL0     H87158  10.023   5.785   6.939  0.7756  0.2946  1.2778
  632MOL0     H87159  10.235   5.975   6.813 -0.3373  3.7008 -0.2289
  632MOL0     H87160  10.064   6.011   6.814  1.8540  2.3425 -0.4094
  632MOL0     H87161  10.256   5.968   7.059  1.0938 -1.4037 -0.6269
  632MOL0     H87162  10.085   5.991   7.066 -1.5018  2.5548 -1.3635
  632MOL0     H87163  10.257   6.194   6.910 -0.3684  0.9128  0.1250
  632MOL0     H87164  10.095   6.231   6.970  1.2984  2.4555  0.9345
  632MOL0     H87165  10.122   6.118   7.275  1.2138 -0.7308  1.7909
  632MOL0     H87166  10.264   6.154   7.500  0.6932  0.8420  1.2640
  632MOL0     H87167  10.197   6.321   7.509 -1.2493 -2.0347 -0.7289
  632MOL0     H87168  10.498   6.260   7.510  0.3449  0.8895 -1.6325
  632MOL0     H87169  10.423   6.412   7.489  0.5176 -1.6063 -3.9252
  632MOL0     H87170  10.298   6.356   7.713 -1.3472  0.6589 -2.9920
  632MOL0     H87171  10.412   6.209   7.719  4.6124  1.8954  2.9656
  632MOL0     H87172  10.513   6.490   7.703 -0.4568  0.7351  0.1272
  632MOL0     H87173  10.471   6.414   7.852 -2.3836 -0.5058 -0.6866
  632MOL0     H87174  10.826   6.177   7.847 -1.0864 -0.6459  0.6770
  632MOL0     H87175  10.995   6.195   8.088 -1.6112 -5.0743 -1.7761
  632MOL0     H87176  11.147   6.221   7.995  0.3344 -2.3797  0.8170
  632MOL0     H87177  11.013   6.118   7.933  3.3503 -0.5404 -2.1231
  632MOL0     H87178  11.335   6.304   8.211 -0.1598  0.8962  1.1019
  632MOL0     H87179  11.541   6.382   8.321  2.3488  0.2533 -0.6611
  632MOL0     H87180  11.593   6.788   8.320  1.7084  0.3870 -1.6340
  632MOL0     H87181  11.683   6.715   8.451 -1.0855  3.4795  0.0848
  632MOL0     H87182  11.814   6.890   8.370 -0.7756  2.5382 -3.0940
  632MOL0     H87183  11.891   6.748   8.315 -0.5627  0.6068 -0.0219
  632MOL0     H87184  11.710   6.912   8.138  1.0130  1.6431  0.5466
  632MOL0     H87185  11.824   6.779   8.095 -0.5900 -1.2869  1.1800
  632MOL0     H87186  12.025   6.925   8.180 -0.1328  1.2032  1.4518
  632MOL0     H87187  11.909   7.045   8.219 -3.3762 -1.8849  1.4285
  632MOL0     H87188  11.938   6.905   7.936 -0.9461 -3.0328  2.7323
  632MOL0     H87189  11.868   7.067   7.958  4.0307  1.3352 -3.6295
  632MOL0     H87190  12.054   7.182   8.010  2.0892  0.6166  1.1676
  632MOL0     H87191  12.063   7.097   7.854 -0.0949  2.9332  1.3394
  632MOL0     H87192  12.196   6.917   7.973  0.7156  0.6328 -0.9992
  632MOL0     H87193  12.207   7.016   8.116 -5.5324  1.4555  0.3995
  632MOL0     H87194  12.335   7.184   7.995  1.1492 -1.0367  1.1768
  632MOL0     H87195  12.285   7.112   7.838  1.0547  2.1036  0.1908
  632MOL0     H87196  11.554   6.726   8.083  0.8611 -0.3966 -0.9923
  632MOL0     H87197  11.358   6.638   7.943  3.2805 -0.3816 -1.4903
  632MOL0     H87198  10.923   6.660   7.856 -0.2791  0.4635 -1.1697
  632MOL0     H87199  10.711   6.574   7.754  0.8164  0.3039  0.0893
  632MOL0     H87200   9.895   5.634   6.181  0.9308 -0.1878 -0.8722
  632MOL0     H87201   9.717   5.585   6.006  3.2101  0.6242 -0.1108
  632MOL0     H87202   9.407   5.333   5.850  0.4074  0.7094 -0.9086
  632MOL0     H87203   9.211   5.248   5.715 -3.4247  0.4178 -0.1200
  632MOL0     H87204   8.898   5.161   5.746 -2.7264 -0.5509 -1.9432
  632MOL0     H87205   8.875   5.279   5.872  1.0299  0.5406  0.4088
  632MOL0     H87206   8.713   5.410   5.749 -2.1956 -0.6107  1.2846
  632MOL0     H87207   8.675   5.234   5.762 -1.8529  1.8153 -0.6911
  632MOL0     H87208   8.757   5.386   5.511  0.6778  0.0317  0.3667
  632MOL0     H87209   8.787   5.210   5.516  1.0985  1.0310 -0.0677
  632MOL0     H87210   8.539   5.207   5.600  1.7536  1.0705  1.5854
  632MOL0     H87211   8.585   5.206   5.422 -0.2816  2.0169 -1.2946
  632MOL0     H87212   8.420   5.589   5.463  2.3974  1.5683 -2.5476
  632MOL0     H87213   8.971   5.565   5.884 -1.6475 -3.8109 -1.7689
  632MOL0     H87214   9.035   5.696   6.038  0.9690 -1.4735 -0.8031
  632MOL0     H87215   9.156   5.656   6.153 -1.0024  3.0113  1.1055
  632MOL0     H87216   9.205   5.749   6.007  0.6970 -0.9054  0.8077
  633MOL0     O87217   8.835   1.702   2.502 -0.3663  0.2323 -0.5147
  633MOL0     C87218   8.935   1.627   2.524  0.1613 -0.3986  1.0122
  633MOL0     O87219   8.931   1.522   2.615 -0.3252 -0.3776  0.4509
  633MOL0     C87220   8.799   1.492   2.653 -0.2768 -0.4118 -0.4351
  633MOL0     C87221   8.767   1.529   2.791  0.0801  0.7756 -0.3757
  633MOL0     C87222   8.636   1.505   2.832 -0.2236  0.0134 -0.8865
  633MOL0     C87223   8.547   1.447   2.752  0.5063  0.4312  0.4268
  633MOL0     O87224   8.425   1.419   2.817 -0.9055  0.1507  0.1974
  633MOL0     C87225   8.328   1.356   2.739 -0.1226 -0.1612 -0.2526
  633MOL0     C87226   8.219   1.299   2.831 -0.2031  0.5434 -0.7186
  633MOL0     C87227   8.130   1.203   2.756 -0.7467 -0.2473 -0.1145
  633MOL0     C87228   8.003   1.159   2.841 -0.3235  0.1995  0.1497
  633MOL0     C87229   7.913   1.056   2.770  0.0751 -0.6213 -0.2066
  633MOL0     C87230   7.974   0.918   2.785 -0.0447  0.1373 -0.6552
  633MOL0     C87231   7.886   0.797   2.734 -0.1905  0.3211 -0.7221
  633MOL0     C87232   7.845   0.817   2.596 -0.0650  0.4338  0.5475
  633MOL0     N87233   7.955   0.807   2.496 -0.4116 -0.3630  0.4542
  633MOL0     C87234   8.050   0.907   2.459 -0.0643 -0.0925  0.9403
  633MOL0     C87235   8.082   0.875   2.330  0.9784 -0.0913  0.2468
  633MOL0     C87236   8.173   0.950   2.240 -0.4698  0.7050  0.5493
  633MOL0     C87237   8.319   0.935   2.263  0.4816 -0.0338  0.4691
  633MOL0     C87238   8.367   0.788   2.280  0.2474  0.7880  0.2015
  633MOL0     C87239   8.510   0.793   2.303  0.1144  0.6958  0.5037
  633MOL0     O87240   8.575   0.663   2.280 -0.3259 -0.7449 -0.2079
  633MOL0     C87241   8.709   0.675   2.240  1.4578 -0.0694  0.3933
  633MOL0     C87242   8.796   0.734   2.330  0.0705  0.2188 -0.9190
  633MOL0     C87243   8.933   0.750   2.305  0.1629 -0.8099  0.8069
  633MOL0     C87244   9.019   0.815   2.403 -0.0844 -0.5996 -1.0397
  633MOL0     C87245   8.973   0.719   2.174 -0.3808 -0.4691 -0.2509
  633MOL0     C87246   9.109   0.743   2.121  1.2174  0.6380  0.8901
  633MOL0     O87247   9.118   0.854   2.046 -0.1240  0.2227  0.1645
  633MOL0     C87248   9.237   0.884   1.988 -0.5591 -0.4280 -0.2568
  633MOL0     C87249   9.253   0.889   1.848 -0.3463  0.0084 -0.2247
  633MOL0     C87250   9.371   0.932   1.791 -0.0839  0.2315 -0.3850
  633MOL0     C87251   9.475   0.972   1.881  0.4944 -0.0557  0.6740
  633MOL0     O87252   9.605   1.001   1.841 -0.3397  0.6717 -0.2157
  633MOL0     C87253   9.611   1.081   1.733  0.2462  0.3753  0.1106
  633MOL0     C87254   9.735   1.170   1.754 -0.4378 -0.6575 -0.2433
  633MOL0     C87255   9.731   1.273   1.873 -0.9602 -0.4868  0.4820
  633MOL0     C87256   9.863   1.349   1.880  0.6415  0.0021 -1.2273
  633MOL0     C87257   9.839   1.461   1.981 -0.4420 -0.4254  0.5624
  633MOL0     C87258   9.979   1.509   2.029  0.1271  0.2341 -0.4719
  633MOL0     C87259   9.957   1.618   2.140  0.8832  0.2262  0.2571
  633MOL0     C87260  10.068   1.706   2.160  0.0513 -0.0778 -0.2877
  633MOL0    Cl87261  10.200   1.617   2.256  0.2755  0.1886 -0.1207
  633MOL0     C87262   9.448   0.987   2.020 -0.7384  0.4902  0.1623
  633MOL0     C87263   9.338   0.935   2.071 -0.0180 -0.4988 -0.6707
  633MOL0     O87264   9.196   0.663   2.150 -0.1186  0.1515 -0.0050
  633MOL0     C87265   8.892   0.644   2.087  0.8687 -0.5345  0.3463
  633MOL0     C87266   8.751   0.625   2.116 -0.4571 -0.3565  0.0379
  633MOL0     N87267   8.031   0.744   2.303  0.7085  0.4272  0.8004
  633MOL0     N87268   7.963   0.705   2.408 -0.6855 -0.0098  0.3286
  633MOL0     C87269   8.588   1.416   2.620  0.5349 -0.1886  0.3083
  633MOL0     C87270   8.715   1.435   2.572  0.3015 -0.3518  0.8422
  633MOL0     C87271   9.061   1.681   2.483 -0.1578  0.5826 -0.3090
  633MOL0     C87272   9.172   1.629   2.552 -0.2642 -0.7298  0.0949
  633MOL0     C87273   9.302   1.680   2.533 -0.4134  0.3990 -0.2640
  633MOL0     C87274   9.328   1.770   2.432  0.6994  0.0990 -0.2650
  633MOL0     O87275   9.444   1.822   2.384 -0.4327  0.0721  0.7489
  633MOL0     C87276   9.565   1.792   2.453 -0.9333 -0.3856 -0.3803
  633MOL0     C87277   9.681   1.859   2.379 -0.1120 -0.3874 -0.2303
  633MOL0     C87278   9.815   1.847   2.460 -0.4898  0.2310  0.0222
  633MOL0     C87279   9.890   1.980   2.463  0.0397 -0.2782 -0.5134
  633MOL0     C87280   9.945   2.025   2.338  0.4413 -0.4628  0.4274
  633MOL0     C87281   9.978   2.069   2.229 -0.6798 -0.8096 -0.8376
  633MOL0     C87282   9.218   1.815   2.357  0.9069  0.4949  0.5101
  633MOL0     C87283   9.083   1.781   2.378 -0.0705 -0.7731  0.3318
  633MOL0     C87284   8.987   1.841   2.290  0.9555 -1.0306  0.0373
  633MOL0     H87285   8.837   1.568   2.864 -2.4761  1.8612  1.6177
  633MOL0     H87286   8.612   1.533   2.934  0.1908  0.0147 -0.7842
  633MOL0     H87287   8.368   1.264   2.694  1.8428  0.8076 -0.5830
  633MOL0     H87288   8.273   1.421   2.671 -0.0097 -1.7966 -1.9842
  633MOL0     H87289   8.271   1.253   2.916  2.7772  1.0521 -2.1069
  633MOL0     H87290   8.153   1.379   2.865 -3.1721 -0.7062 -3.1347
  633MOL0     H87291   8.099   1.252   2.663  0.1586 -1.6122 -1.1630
  633MOL0     H87292   8.196   1.121   2.726 -0.3369 -0.2918  0.8681
  633MOL0     H87293   8.044   1.125   2.936  1.1442  2.0349  0.2426
  633MOL0     H87294   7.943   1.246   2.869  2.7685  1.9061  2.1927
  633MOL0     H87295   7.905   1.080   2.663  0.2178  0.5391  0.0321
  633MOL0     H87296   7.811   1.057   2.809  0.8582  1.5215  2.0363
  633MOL0     H87297   8.071   0.906   2.735 -0.9430 -1.1716 -2.1562
  633MOL0     H87298   7.984   0.896   2.892 -2.9455 -1.2823 -0.5829
  633MOL0     H87299   7.797   0.783   2.797 -1.9902  1.3277 -2.9256
  633MOL0     H87300   7.929   0.696   2.742  1.2561  0.8973 -0.9103
  633MOL0     H87301   7.788   0.725   2.581  1.3407 -0.3370 -0.2442
  633MOL0     H87302   7.797   0.914   2.586  1.9272  1.4584  0.4888
  633MOL0     H87303   8.072   1.007   2.495  1.2550  1.4680 -3.5081
  633MOL0     H87304   8.152   1.057   2.242  2.4093  1.3493  2.5660
  633MOL0     H87305   8.149   0.909   2.141 -0.8940  0.3594  0.7890
  633MOL0     H87306   8.367   0.968   2.170  0.8871  1.3682  1.1463
  633MOL0     H87307   8.356   0.995   2.347 -0.3720  0.3319  0.5928
  633MOL0     H87308   8.308   0.742   2.360  1.3825 -2.3434 -0.5966
  633MOL0     H87309   8.347   0.733   2.187 -0.2927 -1.4939  1.5803
  633MOL0     H87310   8.563   0.869   2.245  0.1795 -1.3188 -2.2947
  633MOL0     H87311   8.515   0.818   2.409 -0.4706  2.1329  0.2155
  633MOL0     H87312   8.755   0.768   2.424  1.0565  1.1547 -0.8126
  633MOL0     H87313   9.019   0.753   2.493 -0.4861  1.8885  0.7750
  633MOL0     H87314   8.968   0.903   2.443 -0.0383 -1.0351  0.0257
  633MOL0     H87315   9.122   0.836   2.375  0.3841 -0.4149  0.7302
  633MOL0     H87316   9.167   0.865   1.786 -0.4837  0.5938 -0.2732
  633MOL0     H87317   9.373   0.929   1.683  0.0026 -2.0229 -0.3694
  633MOL0     H87318   9.623   1.022   1.642 -0.2182 -0.4667  0.5779
  633MOL0     H87319   9.513   1.126   1.712  0.2034  0.1455 -0.1824
  633MOL0     H87320   9.827   1.111   1.764 -0.3275 -0.2693  1.1856
  633MOL0     H87321   9.740   1.231   1.663  0.7901  0.4308  0.5068
  633MOL0     H87322   9.708   1.216   1.964 -1.8113  0.9085  1.1798
  633MOL0     H87323   9.653   1.346   1.851  0.9894  2.3421  2.2323
  633MOL0     H87324   9.892   1.401   1.788 -0.9769 -2.2809 -3.1371
  633MOL0     H87325   9.933   1.274   1.917 -0.8066 -1.2120 -0.8776
  633MOL0     H87326   9.765   1.535   1.951 -0.4087 -0.8895 -0.7151
  633MOL0     H87327   9.794   1.413   2.068  0.9147 -3.6072 -0.3268
  633MOL0     H87328  10.013   1.561   1.939  2.2264  0.4423  0.3951
  633MOL0     H87329  10.039   1.429   2.073  0.6604  0.5690 -0.5756
  633MOL0     H87330   9.950   1.579   2.242  1.2634  0.7581  0.4936
  633MOL0     H87331   9.859   1.666   2.130  0.9981  0.5064  0.4499
  633MOL0     H87332  10.033   1.793   2.215 -0.9834  0.6991 -2.0803
  633MOL0     H87333  10.107   1.757   2.071  0.9463  2.7538  1.6034
  633MOL0     H87334   9.524   1.024   2.087 -0.5060  0.0758  0.1293
  633MOL0     H87335   9.321   0.933   2.178  2.9317  0.4308 -0.0699
  633MOL0     H87336   8.929   0.610   1.990  0.5468 -2.7862  0.9687
  633MOL0     H87337   8.681   0.578   2.047 -0.0843  0.6569 -1.0520
  633MOL0     H87338   8.510   1.380   2.554  2.8008  0.0048 -2.6880
  633MOL0     H87339   8.745   1.419   2.469 -1.8331 -0.1420  0.1328
  633MOL0     H87340   9.161   1.542   2.617  3.6856  0.3789  2.6350
  633MOL0     H87341   9.383   1.637   2.591 -0.0583  0.8172 -0.4518
  633MOL0     H87342   9.559   1.838   2.552 -0.2170  0.3571 -0.6804
  633MOL0     H87343   9.575   1.683   2.463  0.0445 -0.5434 -2.4647
  633MOL0     H87344   9.655   1.964   2.364  1.3694  0.3068  1.7333
  633MOL0     H87345   9.693   1.817   2.279 -2.7613  0.3275 -0.9258
  633MOL0     H87346   9.785   1.806   2.557 -0.7756 -2.8389 -1.2396
  633MOL0     H87347   9.868   1.769   2.406 -1.8109 -0.1528 -0.7713
  633MOL0     H87348   9.984   1.948   2.511  2.1480  3.1440 -1.9474
  633MOL0     H87349   9.836   2.060   2.515  1.0050 -0.2515  0.5145
  633MOL0     H87350   9.994   2.096   2.127  1.0333  0.3596 -0.3068
  633MOL0     H87351   9.238   1.890   2.281  0.8087 -1.5710 -1.6862
  633MOL0     H87352   9.036   1.922   2.235  0.2862 -1.7531 -1.6928
  633MOL0     H87353   8.949   1.765   2.222  1.4519  0.2616 -1.7745
  633MOL0     H87354   8.905   1.891   2.343  0.5393 -2.1934  0.5135
  634MOL0     O87355   0.199   7.265   8.030 -0.2418 -0.0434 -0.2208
  634MOL0     C87356   0.156   7.150   8.007  0.1658  0.6616 -0.4954
  634MOL0     O87357   0.176   7.090   7.889 -0.4843 -0.1015 -0.2326
  634MOL0     C87358   0.222   7.157   7.775  0.2719  0.6537  0.2854
  634MOL0     C87359   0.316   7.093   7.688  0.5774 -0.2705 -0.4299
  634MOL0     C87360   0.347   7.140   7.567 -0.2850 -1.4144 -0.0927
  634MOL0     C87361   0.289   7.255   7.515 -0.2955 -0.5137  0.8949
  634MOL0     O87362   0.308   7.291   7.378 -0.4527  0.4049 -0.2540
  634MOL0     C87363   0.226   7.386   7.310  0.6803  0.1413 -0.7732
  634MOL0     C87364   0.248   7.376   7.164  0.4248  0.1879  0.3472
  634MOL0     C87365   0.358   7.468   7.134 -0.3130 -0.1033  0.6730
  634MOL0     C87366   0.423   7.436   7.000  0.1913  0.8522 -0.4610
  634MOL0     C87367   0.512   7.537   6.946 -0.2088 -0.0946  0.3835
  634MOL0     C87368   0.629   7.574   7.030 -0.1140  0.8551  0.5319
  634MOL0     C87369   0.723   7.665   6.955 -0.3502  0.3480 -0.5002
  634MOL0     C87370   0.671   7.808   6.976  0.2250  0.1078  0.4779
  634MOL0     N87371   0.754   7.902   6.900  0.2035 -0.0408 -0.3366
  634MOL0     C87372   0.734   7.911   6.770 -0.5667  0.2009 -0.0925
  634MOL0     C87373   0.820   8.008   6.733  0.1284  0.9836  0.5034
  634MOL0     C87374   0.811   8.086   6.603 -0.4679  0.5460  0.1398
  634MOL0     C87375   0.933   8.043   6.515  0.5251 -0.4600 -0.5353
  634MOL0     C87376   0.899   7.901   6.461 -0.1111 -0.2511 -0.5032
  634MOL0     C87377   0.999   7.861   6.350 -0.7683  0.1872 -0.0208
  634MOL0     O87378   1.104   7.790   6.411  0.0791  0.5782 -0.1209
  634MOL0     C87379   1.229   7.807   6.353 -0.0698  0.0177 -0.3047
  634MOL0     C87380   1.247   7.806   6.219  0.3536  0.3158  0.6639
  634MOL0     C87381   1.372   7.844   6.150  0.8864 -0.0608 -0.4017
  634MOL0     C87382   1.387   7.818   6.001  0.0045  0.1813  0.5040
  634MOL0     C87383   1.467   7.911   6.229 -0.5436 -0.1251  0.3242
  634MOL0     C87384   1.599   7.966   6.175  1.5333 -0.9563  0.0371
  634MOL0     O87385   1.674   8.042   6.263 -0.2464 -0.3719  0.1780
  634MOL0     C87386   1.791   8.081   6.228  0.3503  0.0060 -0.1467
  634MOL0     C87387   1.823   8.219   6.235 -0.3862  0.2289 -0.0882
  634MOL0     C87388   1.955   8.256   6.206 -0.1724 -0.7870  0.2442
  634MOL0     C87389   2.048   8.160   6.161  0.4088 -0.0607  0.1010
  634MOL0     O87390   2.183   8.200   6.151 -0.1365 -0.6679  0.4802
  634MOL0     C87391   2.216   8.298   6.049 -0.1292 -1.3009  0.2082
  634MOL0     C87392   2.317   8.407   6.109  0.9111  0.5713 -0.0600
  634MOL0     C87393   2.236   8.494   6.200  0.4463 -0.0877 -0.4632
  634MOL0     C87394   2.143   8.603   6.132  1.1144 -0.0078  0.1460
  634MOL0     C87395   2.068   8.687   6.241 -0.6279  0.6940 -0.7377
  634MOL0     C87396   2.150   8.776   6.332  0.2998 -0.4702  0.7785
  634MOL0     C87397   2.061   8.843   6.436  0.5159 -0.6748 -0.4216
  634MOL0     C87398   2.140   8.909   6.551  0.2620  0.0442 -0.4157
  634MOL0    Cl87399   2.218   9.063   6.501 -0.1202 -0.3304 -0.3443
  634MOL0     C87400   2.013   8.027   6.160 -0.0210  0.5821  0.0226
  634MOL0     C87401   1.890   7.986   6.196 -0.1746 -0.5401 -1.2345
  634MOL0     O87402   1.628   7.943   6.059 -0.9901 -0.5276 -0.9136
  634MOL0     C87403   1.450   7.904   6.371 -0.9605 -1.9293  0.0431
  634MOL0     C87404   1.336   7.854   6.428 -0.3023 -0.3780 -0.5017
  634MOL0     N87405   0.895   8.055   6.849  0.0097 -0.5943  0.6370
  634MOL0     N87406   0.850   7.986   6.949 -0.7609 -0.5696  0.2811
  634MOL0     C87407   0.198   7.326   7.598  0.0982 -0.7807  0.0036
  634MOL0     C87408   0.161   7.277   7.727 -1.4760 -0.1980 -0.6460
  634MOL0     C87409   0.065   7.082   8.108 -0.2613  0.3381  0.1640
  634MOL0     C87410  -0.023   6.981   8.059  0.4649 -0.5257  0.6259
  634MOL0     C87411  -0.111   6.915   8.147 -0.0925  1.0383 -0.1329
  634MOL0     C87412  -0.099   6.943   8.287 -0.6709 -0.2368  0.2161
  634MOL0     O87413  -0.150   6.874   8.387  1.0394  0.2747  0.4123
  634MOL0     C87414  -0.227   6.758   8.344  0.8190 -1.2338 -0.6866
  634MOL0     C87415  -0.263   6.674   8.469  0.0757  0.7138  0.1731
  634MOL0     C87416  -0.148   6.585   8.507 -0.1988  1.1334  0.1202
  634MOL0     C87417  -0.153   6.572   8.659 -0.0211 -0.5506 -0.1608
  634MOL0     C87418  -0.282   6.516   8.702  0.7351 -0.3749  1.4390
  634MOL0     C87419  -0.391   6.480   8.744 -0.3980  0.2170 -0.3673
  634MOL0     C87420  -0.006   7.029   8.336  0.5713  0.2308  0.3956
  634MOL0     C87421   0.072   7.103   8.246 -0.2112 -0.7757  0.4611
  634MOL0     C87422   0.175   7.189   8.314  0.0870  0.9085 -0.2872
  634MOL0     H87423   0.366   7.002   7.719  1.8033 -0.1641 -1.9703
  634MOL0     H87424   0.415   7.084   7.504 -1.0397 -1.3266 -1.0178
  634MOL0     H87425   0.254   7.483   7.352  2.5119 -0.1990 -1.1056
  634MOL0     H87426   0.119   7.373   7.329  0.6910 -0.1731 -0.9233
  634MOL0     H87427   0.267   7.273   7.135  1.6892  0.9678 -1.8204
  634MOL0     H87428   0.153   7.409   7.120 -0.4989 -0.9790  1.3919
  634MOL0     H87429   0.329   7.572   7.122 -1.2581 -0.6184 -2.2540
  634MOL0     H87430   0.435   7.458   7.212  0.0421 -0.1333  0.3210
  634MOL0     H87431   0.472   7.338   7.007 -0.9060  0.3472  0.4231
  634MOL0     H87432   0.354   7.410   6.919  1.5021 -3.6855 -0.4089
  634MOL0     H87433   0.452   7.623   6.916  1.4249  1.2934  0.9208
  634MOL0     H87434   0.555   7.493   6.855 -2.0549  1.5575 -1.3910
  634MOL0     H87435   0.604   7.619   7.127 -0.6969  0.1751  0.7043
  634MOL0     H87436   0.685   7.483   7.053  2.6687  2.1283 -0.7568
  634MOL0     H87437   0.731   7.629   6.852  1.8134 -1.1598  0.1196
  634MOL0     H87438   0.825   7.644   6.985 -1.2450 -3.3209  0.5347
  634MOL0     H87439   0.566   7.823   6.949  0.2606 -0.2458  0.1268
  634MOL0     H87440   0.679   7.815   7.085 -3.2471  0.4865  0.8437
  634MOL0     H87441   0.657   7.856   6.717 -0.1746 -1.9119  1.4043
  634MOL0     H87442   0.801   8.191   6.633  0.5585  0.4502  0.8480
  634MOL0     H87443   0.714   8.062   6.559 -0.0790  0.6002 -0.7542
  634MOL0     H87444   0.942   8.113   6.431 -1.8546  2.4486  1.4340
  634MOL0     H87445   1.019   8.029   6.581 -1.2451 -2.2543  1.5620
  634MOL0     H87446   0.908   7.838   6.550  1.1912  1.2470  0.4794
  634MOL0     H87447   0.799   7.895   6.417 -0.2672 -0.9393 -0.0703
  634MOL0     H87448   0.938   7.798   6.285 -1.3620  1.6153 -0.8860
  634MOL0     H87449   1.027   7.953   6.299 -1.2316  0.3081 -0.0630
  634MOL0     H87450   1.163   7.777   6.156  2.3320 -2.4583 -0.9707
  634MOL0     H87451   1.310   7.749   5.966 -0.0547  0.3017  0.3936
  634MOL0     H87452   1.485   7.771   5.987  2.1061  3.6151  2.2483
  634MOL0     H87453   1.392   7.911   5.943 -1.2292  0.9397  1.5765
  634MOL0     H87454   1.743   8.289   6.254 -0.9883 -0.2296 -0.8914
  634MOL0     H87455   1.979   8.361   6.214  1.4514 -0.9528 -1.5506
  634MOL0     H87456   2.255   8.245   5.961 -0.3457  2.0966 -2.1265
  634MOL0     H87457   2.128   8.355   6.018 -0.4119  0.9972  4.5856
  634MOL0     H87458   2.400   8.362   6.163  0.1059  1.4311  1.9862
  634MOL0     H87459   2.362   8.464   6.026  3.4397  0.9369  1.4612
  634MOL0     H87460   2.313   8.541   6.261 -0.4560 -1.1303  1.5794
  634MOL0     H87461   2.168   8.440   6.267  1.1030  0.6338  0.8086
  634MOL0     H87462   2.070   8.551   6.071 -1.3060  0.0191  2.8143
  634MOL0     H87463   2.186   8.672   6.058  0.2919 -2.6343 -3.0164
  634MOL0     H87464   1.994   8.753   6.195  0.9195  2.9044 -0.1933
  634MOL0     H87465   2.021   8.624   6.317  0.5809 -1.3674 -1.5988
  634MOL0     H87466   2.195   8.849   6.263  2.0566 -2.0524  0.1850
  634MOL0     H87467   2.227   8.717   6.381 -1.2487 -3.0048  0.3135
  634MOL0     H87468   2.000   8.766   6.483  0.3888 -2.2938 -3.0210
  634MOL0     H87469   1.997   8.909   6.378 -1.1265 -1.3698  0.5502
  634MOL0     H87470   2.213   8.833   6.581 -0.5645  0.3725  2.6964
  634MOL0     H87471   2.079   8.928   6.640 -1.6165  0.8600 -1.8051
  634MOL0     H87472   2.097   7.967   6.128  1.1560  1.6472  0.9741
  634MOL0     H87473   1.867   7.882   6.218  1.5421 -0.4195  1.6240
  634MOL0     H87474   1.532   7.939   6.432  0.2109 -1.7993 -1.5413
  634MOL0     H87475   1.322   7.862   6.536  0.9089 -4.8777  0.1660
  634MOL0     H87476   0.155   7.416   7.554 -0.9499 -1.2170  0.0877
  634MOL0     H87477   0.083   7.330   7.781 -0.6313  0.1453  0.2746
  634MOL0     H87478  -0.044   6.980   7.952 -0.4314  0.4352  0.7860
  634MOL0     H87479  -0.187   6.845   8.113  1.1486  0.8084 -2.6243
  634MOL0     H87480  -0.323   6.792   8.303  1.2683  2.4534  0.9612
  634MOL0     H87481  -0.178   6.705   8.261  1.3635 -0.4335 -0.8939
  634MOL0     H87482  -0.350   6.612   8.442 -0.2295  1.6593 -1.1108
  634MOL0     H87483  -0.311   6.727   8.552 -0.5645  0.0997  0.2105
  634MOL0     H87484  -0.159   6.491   8.452 -2.7363  1.0167  0.7215
  634MOL0     H87485  -0.050   6.624   8.478  1.2915 -1.9868  0.5687
  634MOL0     H87486  -0.153   6.671   8.704 -5.1077 -0.6257  0.5847
  634MOL0     H87487  -0.065   6.526   8.705  0.9020  1.9007  0.6700
  634MOL0     H87488  -0.485   6.460   8.791 -0.2827  2.2486  0.8241
  634MOL0     H87489   0.005   7.042   8.443  1.0953  3.4016  0.0446
  634MOL0     H87490   0.162   7.210   8.420  0.3292 -1.3125  0.2296
  634MOL0     H87491   0.278   7.156   8.297  0.1766  1.3573 -0.6521
  634MOL0     H87492   0.161   7.293   8.281 -1.3204  1.8293  2.8249
  635MOL0     O87493   9.510   7.136   7.804  0.0123  0.0599 -0.1761
  635MOL0     C87494   9.552   7.188   7.906  0.3336  0.0870  0.4481
  635MOL0     O87495   9.692   7.205   7.937  0.2316  0.3722 -0.5463
  635MOL0     C87496   9.785   7.195   7.841  0.1923  0.1756  0.0965
  635MOL0     C87497   9.825   7.073   7.784 -0.4610 -0.7542 -0.0161
  635MOL0     C87498   9.933   7.070   7.689  0.0174 -0.1074  0.4845
  635MOL0     C87499  10.004   7.181   7.646  0.4733 -0.6991 -0.6683
  635MOL0     O87500  10.099   7.161   7.551 -0.3348  0.4050 -0.0700
  635MOL0     C87501  10.229   7.208   7.594 -1.1955 -0.0837 -0.9558
  635MOL0     C87502  10.334   7.102   7.557  0.0841 -0.4211 -1.1301
  635MOL0     C87503  10.349   7.091   7.410  0.4998 -0.9977  0.4050
  635MOL0     C87504  10.444   6.973   7.363 -0.3361  0.3400  0.2798
  635MOL0     C87505  10.378   6.831   7.373  0.1037  0.2876 -0.8891
  635MOL0     C87506  10.233   6.822   7.318 -0.0954  0.2439 -1.0129
  635MOL0     C87507  10.201   6.671   7.311 -0.8627  0.2132  0.1167
  635MOL0     C87508  10.069   6.638   7.255 -0.9067 -0.3753 -0.2003
  635MOL0     N87509   9.962   6.641   7.362 -0.4331 -0.1133  0.1490
  635MOL0     C87510   9.919   6.741   7.438  0.4685  0.2456  0.0716
  635MOL0     C87511   9.831   6.683   7.524  0.8817 -0.6685  0.6748
  635MOL0     C87512   9.750   6.760   7.625  0.3128 -0.1768 -0.2318
  635MOL0     C87513   9.595   6.736   7.606  0.3184 -0.1091  0.1371
  635MOL0     C87514   9.544   6.772   7.465 -0.5406  0.1328  0.1653
  635MOL0     C87515   9.559   6.925   7.450 -0.0021 -0.3636 -0.0916
  635MOL0     O87516   9.557   6.946   7.316  0.1481 -0.7988 -0.3762
  635MOL0     C87517   9.679   6.978   7.251  0.1189 -1.0680 -0.2777
  635MOL0     C87518   9.703   6.905   7.131 -0.0315  0.0707 -0.7496
  635MOL0     C87519   9.823   6.928   7.061  0.3645 -0.2209 -0.3935
  635MOL0     C87520   9.809   6.865   6.924  0.0036 -0.2758 -0.1367
  635MOL0     C87521   9.928   7.012   7.104 -1.3745 -1.2821  0.2868
  635MOL0     C87522  10.053   7.050   7.030 -0.1949  0.9591  0.5150
  635MOL0     O87523  10.141   7.127   7.093 -0.0477  0.1655  0.2107
  635MOL0     C87524  10.273   7.156   7.050 -0.8961 -0.3175  0.8549
  635MOL0     C87525  10.350   7.096   6.945 -0.1358  0.1417  0.1939
  635MOL0     C87526  10.471   7.158   6.907 -1.6876  0.0706 -0.0857
  635MOL0     C87527  10.526   7.268   6.975 -0.2419  0.4355  0.3509
  635MOL0     O87528  10.645   7.328   6.932 -0.0910 -0.4439 -0.4712
  635MOL0     C87529  10.732   7.274   6.830 -1.5587  0.9759 -0.2131
  635MOL0     C87530  10.824   7.377   6.783  0.2939 -0.0152 -0.5738
  635MOL0     C87531  10.931   7.405   6.883 -0.3111 -0.2369 -0.9647
  635MOL0     C87532  11.061   7.431   6.819 -0.4824 -0.4747  1.3242
  635MOL0     C87533  11.175   7.446   6.920  0.1532 -0.1469 -0.1180
  635MOL0     C87534  11.315   7.434   6.842 -0.7286  0.1557 -0.4182
  635MOL0     C87535  11.353   7.286   6.806  0.7055  0.2084  0.0757
  635MOL0     C87536  11.503   7.261   6.826 -0.5202  0.0028  0.1525
  635MOL0    Cl87537  11.559   7.098   6.785  0.2252 -0.1391 -0.6236
  635MOL0     C87538  10.446   7.314   7.082  0.6950  0.5317  0.8280
  635MOL0     C87539  10.330   7.258   7.127 -0.3894  0.0664  0.3992
  635MOL0     O87540  10.075   6.990   6.925 -0.0621 -0.7301  0.4474
  635MOL0     C87541   9.904   7.073   7.225  0.2070  0.4061 -0.0114
  635MOL0     C87542   9.786   7.059   7.297  0.0429  0.2988  0.6414
  635MOL0     N87543   9.837   6.544   7.507  0.1200 -0.4714  0.1352
  635MOL0     N87544   9.921   6.523   7.408 -1.0459  0.1699 -0.3532
  635MOL0     C87545   9.975   7.307   7.711 -0.2873 -1.1596 -0.5356
  635MOL0     C87546   9.859   7.313   7.796  0.1781  0.7671 -1.3099
  635MOL0     C87547   9.456   7.251   7.998 -0.4178 -0.6032  0.1238
  635MOL0     C87548   9.515   7.346   8.091 -0.6212 -0.4393 -0.6594
  635MOL0     C87549   9.441   7.413   8.186 -0.0820 -0.6107 -0.3411
  635MOL0     C87550   9.304   7.392   8.187 -0.4712 -0.2923 -0.0822
  635MOL0     O87551   9.234   7.461   8.287 -0.2188  0.5790 -0.6159
  635MOL0     C87552   9.129   7.543   8.252 -0.3564 -0.1072 -0.7344
  635MOL0     C87553   9.186   7.684   8.220 -0.1556 -0.0288  0.2832
  635MOL0     C87554   9.248   7.748   8.340  0.0642  0.7744 -0.2087
  635MOL0     C87555   9.279   7.897   8.329 -0.0586  0.2299  0.5939
  635MOL0     C87556   9.191   7.971   8.413  1.0132  0.5766 -1.1991
  635MOL0     C87557   9.120   8.056   8.454 -0.8048  0.1259  0.2620
  635MOL0     C87558   9.252   7.300   8.102 -0.0654 -0.2211  1.0034
  635MOL0     C87559   9.319   7.236   8.003  1.4130  0.0564 -0.8706
  635MOL0     C87560   9.247   7.145   7.902  0.4704 -0.5135 -0.6226
  635MOL0     H87561   9.793   6.985   7.838  0.1450  1.7659  5.1240
  635MOL0     H87562   9.965   6.973   7.652  1.8766  1.1204 -1.4008
  635MOL0     H87563  10.235   7.230   7.701  1.2575 -2.1883 -0.5748
  635MOL0     H87564  10.238   7.306   7.547  2.3120  0.7886  1.2234
  635MOL0     H87565  10.428   7.143   7.596  1.2195 -1.6959 -2.4155
  635MOL0     H87566  10.309   7.005   7.599  1.2493 -0.3713 -0.2692
  635MOL0     H87567  10.253   7.078   7.358  0.5182 -2.4870  0.6913
  635MOL0     H87568  10.395   7.182   7.372 -2.7591  0.2368 -0.9951
  635MOL0     H87569  10.476   6.983   7.259 -0.4288 -0.0059  0.2176
  635MOL0     H87570  10.530   6.989   7.428 -0.0668  0.1640 -0.0337
  635MOL0     H87571  10.371   6.810   7.480 -0.4649  0.7113 -0.8389
  635MOL0     H87572  10.445   6.760   7.322  0.4168  0.0813 -0.1994
  635MOL0     H87573  10.164   6.873   7.387  0.4949  2.7407 -2.1667
  635MOL0     H87574  10.224   6.866   7.218 -1.1328  0.2335 -0.9409
  635MOL0     H87575  10.214   6.632   7.413 -2.9549  2.7583  1.4816
  635MOL0     H87576  10.280   6.633   7.246 -1.2519 -0.4149  0.0066
  635MOL0     H87577  10.056   6.709   7.173 -0.1460  1.2302  0.9873
  635MOL0     H87578  10.082   6.539   7.212 -1.3562 -1.0125  1.0647
  635MOL0     H87579   9.938   6.847   7.427  0.2296  0.2664 -0.1521
  635MOL0     H87580   9.770   6.867   7.617  1.3939 -0.3072  0.4981
  635MOL0     H87581   9.784   6.732   7.726 -0.7757 -2.7844 -0.5018
  635MOL0     H87582   9.561   6.633   7.619 -3.5613  1.1527  1.5916
  635MOL0     H87583   9.540   6.793   7.682 -2.1354 -1.8412 -0.2309
  635MOL0     H87584   9.590   6.715   7.384 -2.8565  0.8432 -1.7587
  635MOL0     H87585   9.436   6.756   7.463 -0.7762  1.5428 -2.1377
  635MOL0     H87586   9.490   6.984   7.510 -0.2992 -0.7736 -0.0253
  635MOL0     H87587   9.656   6.951   7.493 -1.4961  0.2064  3.2611
  635MOL0     H87588   9.625   6.839   7.094  0.2647 -0.1808 -0.9361
  635MOL0     H87589   9.732   6.911   6.861  1.0769  1.5579 -0.2098
  635MOL0     H87590   9.777   6.761   6.936 -1.9489  0.3366  0.3853
  635MOL0     H87591   9.904   6.869   6.870  1.8884  1.8611  3.0514
  635MOL0     H87592  10.310   7.010   6.892 -0.9234  0.5994  0.0204
  635MOL0     H87593  10.518   7.124   6.815 -2.0887  2.3582 -1.1994
  635MOL0     H87594  10.776   7.182   6.870 -2.6805  0.6057  0.2123
  635MOL0     H87595  10.682   7.233   6.742  0.5795 -1.4225 -0.4288
  635MOL0     H87596  10.869   7.348   6.688 -1.9266 -0.1048 -1.6640
  635MOL0     H87597  10.776   7.471   6.755 -2.0031 -0.9286  0.0426
  635MOL0     H87598  10.944   7.320   6.951 -3.9718  0.0775  0.3543
  635MOL0     H87599  10.910   7.491   6.947 -2.2356 -2.1366  1.1720
  635MOL0     H87600  11.045   7.527   6.770  0.8555 -1.1734 -0.5680
  635MOL0     H87601  11.084   7.357   6.742  2.6728  3.2060 -1.6610
  635MOL0     H87602  11.160   7.539   6.975  0.4012  0.7875 -1.5742
  635MOL0     H87603  11.167   7.369   6.998  0.4225  0.5816  0.6394
  635MOL0     H87604  11.389   7.474   6.911 -0.3295 -1.4415  0.1192
  635MOL0     H87605  11.301   7.494   6.751  0.9866 -1.0591 -1.5350
  635MOL0     H87606  11.311   7.245   6.713  1.4174  2.1080 -1.1411
  635MOL0     H87607  11.298   7.223   6.877  1.8000  1.2272  1.8776
  635MOL0     H87608  11.540   7.279   6.927 -2.6792 -0.7629  1.1357
  635MOL0     H87609  11.542   7.341   6.762 -4.1909  2.4338  0.6601
  635MOL0     H87610  10.491   7.401   7.129 -3.1042  2.1577  1.8225
  635MOL0     H87611  10.277   7.289   7.217  1.0467 -0.3922  1.4351
  635MOL0     H87612   9.979   7.132   7.277  0.6843  1.1607 -1.4997
  635MOL0     H87613   9.784   7.092   7.401  1.4801 -2.0435  1.5003
  635MOL0     H87614  10.030   7.399   7.695 -0.8789 -0.7116 -0.0690
  635MOL0     H87615   9.836   7.404   7.850  2.5142  1.6336 -1.6670
  635MOL0     H87616   9.623   7.358   8.091 -0.3582 -2.3965  0.6144
  635MOL0     H87617   9.485   7.475   8.264  1.0449  1.3077 -2.3815
  635MOL0     H87618   9.082   7.515   8.157 -0.2538 -0.7817 -0.5927
  635MOL0     H87619   9.051   7.552   8.328 -0.2761 -0.4661 -0.6091
  635MOL0     H87620   9.106   7.751   8.186 -0.0484 -0.1214 -0.1551
  635MOL0     H87621   9.262   7.670   8.144 -0.8744 -1.7197 -0.1545
  635MOL0     H87622   9.185   7.731   8.428  0.2118  0.7242 -0.1106
  635MOL0     H87623   9.345   7.700   8.356  0.3970  1.9373  1.5859
  635MOL0     H87624   9.263   7.925   8.224  0.9333  2.0728  0.8912
  635MOL0     H87625   9.380   7.927   8.358 -0.6493  0.9869  1.9335
  635MOL0     H87626   9.061   8.132   8.501 -4.4373 -1.3026 -1.6225
  635MOL0     H87627   9.148   7.275   8.119  0.0722 -0.3330  1.7064
  635MOL0     H87628   9.214   7.200   7.814  1.0486  0.5207 -0.2046
  635MOL0     H87629   9.313   7.060   7.881  0.0101 -2.3635  4.0488
  635MOL0     H87630   9.153   7.095   7.932 -1.8485  3.8519  0.2124
  636MOL0     O87631   1.331   0.537   6.310 -0.0069 -0.5673 -0.3985
  636MOL0     C87632   1.378   0.428   6.281  0.0726  0.3092  0.7060
  636MOL0     O87633   1.501   0.391   6.296 -0.0281 -0.5206  0.4791
  636MOL0     C87634   1.612   0.475   6.306  0.8962 -1.2295  0.5200
  636MOL0     C87635   1.709   0.442   6.391 -0.5772  0.2770  0.0974
  636MOL0     C87636   1.833   0.516   6.402  0.5471 -0.3545 -0.0954
  636MOL0     C87637   1.856   0.629   6.316  1.3569 -0.4524 -0.7092
  636MOL0     O87638   1.958   0.718   6.321  0.2765  0.2662  0.1483
  636MOL0     C87639   2.063   0.687   6.419 -0.2410 -0.1026  0.4188
  636MOL0     C87640   2.186   0.779   6.410 -0.0683  0.7026 -0.1861
  636MOL0     C87641   2.304   0.740   6.500  0.3935  0.2124 -0.2991
  636MOL0     C87642   2.430   0.825   6.479 -0.1447 -0.1128  0.6137
  636MOL0     C87643   2.565   0.744   6.512 -0.1755  0.6734  0.0617
  636MOL0     C87644   2.609   0.650   6.400  0.7422  1.0288  0.4208
  636MOL0     C87645   2.756   0.620   6.381  0.2734  0.8258  0.4027
  636MOL0     C87646   2.822   0.537   6.490  0.3242  0.2119  0.0157
  636MOL0     N87647   2.953   0.507   6.447  0.1084  0.5442 -1.4503
  636MOL0     C87648   3.002   0.377   6.438 -0.2955  0.3002 -0.8793
  636MOL0     C87649   3.134   0.401   6.407  0.2221  0.0248 -0.1276
  636MOL0     C87650   3.242   0.291   6.389 -0.7441  0.3554  0.7931
  636MOL0     C87651   3.361   0.336   6.461 -0.0356  0.4172 -0.6142
  636MOL0     C87652   3.480   0.238   6.447  0.5003 -0.6839 -0.2438
  636MOL0     C87653   3.614   0.306   6.491 -0.4584  0.3207  0.7820
  636MOL0     O87654   3.725   0.217   6.456 -0.7997 -0.1238 -0.2293
  636MOL0     C87655   3.845   0.271   6.458 -0.3793 -0.0723 -0.0345
  636MOL0     C87656   3.880   0.395   6.507 -0.7233  1.0603  0.0210
  636MOL0     C87657   4.019   0.442   6.500  0.6493 -0.2124  1.0122
  636MOL0     C87658   4.047   0.574   6.565  0.1231  0.6588 -0.4471
  636MOL0     C87659   4.120   0.366   6.430 -0.6959  0.1861 -0.6971
  636MOL0     C87660   4.269   0.404   6.412  0.0840  0.0763 -0.1313
  636MOL0     O87661   4.347   0.303   6.355  0.6992 -0.1977 -0.5789
  636MOL0     C87662   4.472   0.342   6.318  0.4748  0.3269  0.4344
  636MOL0     C87663   4.487   0.437   6.208  0.5657  0.1873  0.5236
  636MOL0     C87664   4.618   0.461   6.157 -0.3757 -0.1706  0.2420
  636MOL0     C87665   4.729   0.402   6.219 -1.2027  0.6376  0.1302
  636MOL0     O87666   4.855   0.429   6.175 -0.3251 -0.0446 -0.6816
  636MOL0     C87667   4.887   0.505   6.064 -0.2816 -0.2036  0.6630
  636MOL0     C87668   5.037   0.474   6.022 -0.3082  0.0926  0.4673
  636MOL0     C87669   5.146   0.479   6.133  0.2126 -0.4384  0.5588
  636MOL0     C87670   5.286   0.461   6.059 -0.0753  0.0708 -0.4682
  636MOL0     C87671   5.399   0.465   6.165  0.6592 -0.7214 -0.1897
  636MOL0     C87672   5.543   0.453   6.114  0.2111 -0.7837  0.3343
  636MOL0     C87673   5.649   0.476   6.219  0.5503 -0.0377 -0.3063
  636MOL0     C87674   5.636   0.606   6.287  0.1870 -0.1175 -0.4193
  636MOL0    Cl87675   5.761   0.601   6.414 -0.0409 -0.5373  0.0591
  636MOL0     C87676   4.703   0.322   6.330 -0.8179  0.0654 -0.8796
  636MOL0     C87677   4.580   0.280   6.371 -1.0029 -0.4168  0.1962
  636MOL0     O87678   4.303   0.522   6.426  0.2458 -0.2021  0.6592
  636MOL0     C87679   4.083   0.238   6.390  0.2363 -1.1575 -1.6118
  636MOL0     C87680   3.945   0.198   6.396  1.0451 -0.0479 -0.5082
  636MOL0     N87681   3.151   0.531   6.377  0.3359  0.4454  0.5958
  636MOL0     N87682   3.054   0.594   6.405 -0.5318  0.9997 -0.1860
  636MOL0     C87683   1.756   0.660   6.226  0.0792  0.9600  0.9988
  636MOL0     C87684   1.631   0.590   6.224  0.1653  0.5911 -0.4400
  636MOL0     C87685   1.281   0.316   6.277 -0.1094 -0.4060  1.2615
  636MOL0     C87686   1.321   0.201   6.201 -0.2309  0.8110 -0.5356
  636MOL0     C87687   1.236   0.093   6.177 -0.5875 -0.6021 -0.0255
  636MOL0     C87688   1.107   0.093   6.229 -0.0560  0.6939  0.5595
  636MOL0     O87689   1.031  -0.019   6.181  0.5469  0.3078 -0.1169
  636MOL0     C87690   0.888  -0.002   6.195  0.4040 -0.1691 -1.3641
  636MOL0     C87691   0.816  -0.049   6.066  0.0384 -0.1141  0.1884
  636MOL0     C87692   0.668  -0.000   6.044 -0.5062  0.5787 -0.2580
  636MOL0     C87693   0.624  -0.061   5.919  0.9274  0.8608 -0.8277
  636MOL0     C87694   0.479  -0.033   5.887  0.3945 -0.1248  0.5405
  636MOL0     C87695   0.359  -0.038   5.856 -0.0377  0.3034 -0.6223
  636MOL0     C87696   1.072   0.200   6.313 -0.6658  0.1265  0.4172
  636MOL0     C87697   1.156   0.312   6.343  0.6022  0.0724 -0.2995
  636MOL0     C87698   1.092   0.410   6.442  0.0959 -0.0456  0.1942
  636MOL0     H87699   1.704   0.358   6.460  0.3136  0.3644  0.2827
  636MOL0     H87700   1.902   0.499   6.484 -0.4418 -2.8798  0.2998
  636MOL0     H87701   2.094   0.582   6.413  0.8061  0.2071  0.2717
  636MOL0     H87702   2.021   0.707   6.518  0.2959  3.3606  0.0635
  636MOL0     H87703   2.227   0.772   6.309  0.7563  0.9156  0.1233
  636MOL0     H87704   2.151   0.881   6.430 -2.9055 -0.5567  2.1043
  636MOL0     H87705   2.274   0.743   6.605 -2.4830  1.0512 -1.0612
  636MOL0     H87706   2.325   0.633   6.490  1.4479  0.5595 -2.2791
  636MOL0     H87707   2.442   0.873   6.381  0.1811 -2.8320 -0.7808
  636MOL0     H87708   2.423   0.908   6.550 -1.1688 -0.1738  0.6018
  636MOL0     H87709   2.557   0.677   6.598  0.3338 -1.9505 -1.7883
  636MOL0     H87710   2.641   0.820   6.531 -0.3200  0.4041  1.8758
  636MOL0     H87711   2.552   0.559   6.378  0.6913  1.7936 -3.3453
  636MOL0     H87712   2.589   0.714   6.313 -2.0145  1.5176  1.3346
  636MOL0     H87713   2.806   0.718   6.379  5.4284 -1.4311  2.3151
  636MOL0     H87714   2.773   0.579   6.281  1.0415 -0.3546  0.9922
  636MOL0     H87715   2.823   0.597   6.582 -0.4692  0.8917 -0.3985
  636MOL0     H87716   2.771   0.442   6.509 -3.6872  2.1221 -0.0164
  636MOL0     H87717   2.945   0.287   6.457  2.3985 -1.3620 -0.0686
  636MOL0     H87718   3.270   0.286   6.283  1.7251  1.3169  1.3407
  636MOL0     H87719   3.212   0.195   6.431 -0.1272 -0.4748 -0.6075
  636MOL0     H87720   3.401   0.432   6.427 -0.3004  0.9339  0.4821
  636MOL0     H87721   3.331   0.347   6.566  1.8842  0.5457 -0.0297
  636MOL0     H87722   3.468   0.154   6.517 -3.0394  1.0438  1.4506
  636MOL0     H87723   3.498   0.199   6.346 -0.5983 -3.0363  0.3948
  636MOL0     H87724   3.622   0.397   6.430 -1.7203  0.6356  1.0684
  636MOL0     H87725   3.609   0.327   6.598 -2.1052 -0.9923  0.9905
  636MOL0     H87726   3.799   0.454   6.547 -2.4218 -3.1153  3.4850
  636MOL0     H87727   3.976   0.578   6.648 -0.8568 -0.9520 -1.1545
  636MOL0     H87728   4.032   0.655   6.494 -1.1876  1.5710  0.8240
  636MOL0     H87729   4.151   0.584   6.597 -1.0953 -0.3519  4.6658
  636MOL0     H87730   4.398   0.478   6.163 -0.6356 -0.9754  1.7346
  636MOL0     H87731   4.621   0.523   6.067 -0.6524  0.4695  0.6667
  636MOL0     H87732   4.841   0.473   5.970  1.9872  1.0074 -0.9673
  636MOL0     H87733   4.871   0.612   6.082 -2.1121 -0.4717  0.7933
  636MOL0     H87734   5.041   0.371   5.984 -1.4115 -0.2382  1.2233
  636MOL0     H87735   5.073   0.547   5.949  3.0600 -1.6039  0.2275
  636MOL0     H87736   5.150   0.403   6.212  4.5978 -0.6664  0.3467
  636MOL0     H87737   5.155   0.579   6.178 -3.8321 -0.6566  2.3115
  636MOL0     H87738   5.296   0.541   5.985 -3.1428  1.2438  0.2246
  636MOL0     H87739   5.274   0.371   5.998 -1.1689  0.3934 -0.7603
  636MOL0     H87740   5.386   0.566   6.205 -2.3016 -1.3025  0.5496
  636MOL0     H87741   5.388   0.379   6.231 -0.6548 -2.1620 -2.1435
  636MOL0     H87742   5.570   0.529   6.041  4.1189 -2.0523  0.2662
  636MOL0     H87743   5.551   0.353   6.072  1.7751  0.2425 -1.9748
  636MOL0     H87744   5.748   0.470   6.174  0.7363 -0.7731  0.1824
  636MOL0     H87745   5.639   0.399   6.296  0.7577  0.7128  0.4847
  636MOL0     H87746   5.549   0.618   6.351  1.1593  2.0974  0.5866
  636MOL0     H87747   5.639   0.694   6.222  4.4152  1.9358  2.1304
  636MOL0     H87748   4.788   0.286   6.388 -1.5912 -0.3941 -0.0174
  636MOL0     H87749   4.561   0.213   6.454 -2.6021  1.1826  1.1801
  636MOL0     H87750   4.152   0.169   6.344  1.5325 -0.2206 -1.1441
  636MOL0     H87751   3.932   0.093   6.374 -0.7981 -0.4026  1.9173
  636MOL0     H87752   1.763   0.744   6.158  0.6691  0.3913  0.3422
  636MOL0     H87753   1.562   0.619   6.145 -0.2645  0.9170  0.0419
  636MOL0     H87754   1.423   0.195   6.164 -0.1690 -3.7191 -0.2234
  636MOL0     H87755   1.265   0.013   6.110 -1.8574  0.6774 -2.2550
  636MOL0     H87756   0.850  -0.066   6.275 -4.1912  2.0368 -1.3984
  636MOL0     H87757   0.852   0.093   6.236  0.4744 -1.0474  0.8756
  636MOL0     H87758   0.813  -0.158   6.069  2.9698 -0.3002 -0.3122
  636MOL0     H87759   0.877  -0.023   5.979  2.1415 -3.4773  0.4643
  636MOL0     H87760   0.605  -0.044   6.123  1.8606 -0.4937  1.1237
  636MOL0     H87761   0.661   0.108   6.030  2.1641  0.8970  0.3335
  636MOL0     H87762   0.621  -0.169   5.936  3.4863  0.8275 -0.3088
  636MOL0     H87763   0.686  -0.030   5.834  1.4795  0.2482 -0.6494
  636MOL0     H87764   0.253  -0.040   5.842  0.0037  1.0082 -1.0789
  636MOL0     H87765   0.972   0.196   6.355 -0.4315 -1.0344  0.9127
  636MOL0     H87766   1.028   0.480   6.387  2.2247  1.0085 -1.0553
  636MOL0     H87767   1.035   0.355   6.518 -0.9933  1.7121  0.7275
  636MOL0     H87768   1.168   0.469   6.494  0.6574  0.9447 -1.6438
  637MOL0     O87769   4.322   7.783   6.129  0.2887 -0.2345 -0.4603
  637MOL0     C87770   4.208   7.788   6.083  0.2902  0.2463  0.3621
  637MOL0     O87771   4.161   7.906   6.034  0.3450  0.1687  0.8823
  637MOL0     C87772   4.227   8.021   6.057 -0.1807  0.1314 -0.0202
  637MOL0     C87773   4.232   8.091   6.177  0.3038  0.7824 -0.3770
  637MOL0     C87774   4.316   8.209   6.185 -0.3410 -0.4478 -0.0369
  637MOL0     C87775   4.398   8.255   6.078  0.5657 -0.4738  0.4227
  637MOL0     O87776   4.489   8.365   6.100  0.8614  0.4645 -0.2681
  637MOL0     C87777   4.548   8.427   5.987  0.2611 -0.1291  0.3599
  637MOL0     C87778   4.610   8.565   6.016 -0.0857  0.1092 -0.2896
  637MOL0     C87779   4.735   8.560   6.104  0.8652 -0.1330 -0.0555
  637MOL0     C87780   4.767   8.705   6.131 -0.2255 -0.0967  0.0945
  637MOL0     C87781   4.906   8.707   6.204 -0.1616  0.6051  0.5437
  637MOL0     C87782   4.964   8.852   6.188  0.2033  0.6887 -0.1562
  637MOL0     C87783   5.095   8.882   6.274  0.5841 -0.2612  0.7655
  637MOL0     C87784   5.144   9.027   6.269  0.7749  0.4869 -0.7351
  637MOL0     N87785   5.288   9.013   6.236 -0.5412 -0.4467  0.0444
  637MOL0     C87786   5.341   8.966   6.119  0.1650  0.1713  0.5237
  637MOL0     C87787   5.476   8.961   6.142  0.2173  0.0640 -0.3110
  637MOL0     C87788   5.555   8.909   6.035 -0.7909  0.4966  0.3350
  637MOL0     C87789   5.687   8.984   6.032  0.4545  0.2958  0.0301
  637MOL0     C87790   5.782   8.930   5.926  0.7790  0.5687 -0.0479
  637MOL0     C87791   5.907   9.013   5.954  0.0707  0.4970  0.0195
  637MOL0     O87792   5.982   8.994   5.833  0.2014 -0.3102 -0.1677
  637MOL0     C87793   6.116   9.033   5.834  0.1073 -0.3652 -0.6940
  637MOL0     C87794   6.190   9.029   5.712 -0.3298  0.8024  0.3739
  637MOL0     C87795   6.323   9.077   5.701 -0.3480  0.5511  0.6952
  637MOL0     C87796   6.382   9.078   5.563  0.2734 -0.3015 -1.0108
  637MOL0     C87797   6.391   9.112   5.822  0.1782 -0.2012 -0.2577
  637MOL0     C87798   6.542   9.132   5.817  0.5758 -0.9762 -0.7876
  637MOL0     O87799   6.613   9.044   5.743 -0.1882  0.4233  0.4477
  637MOL0     C87800   6.748   9.031   5.762  0.1498 -0.0013  0.4946
  637MOL0     C87801   6.804   8.899   5.754 -1.0442  1.3682 -0.3183
  637MOL0     C87802   6.945   8.872   5.756  0.8938 -0.3264  0.4971
  637MOL0     C87803   7.035   8.973   5.794  0.2961 -0.3810  0.2215
  637MOL0     O87804   7.162   8.941   5.815  0.4548  0.3264  0.2026
  637MOL0     C87805   7.242   9.019   5.914 -0.2086  0.5258 -0.2974
  637MOL0     C87806   7.330   8.919   5.995  0.5142  0.4067  0.4395
  637MOL0     C87807   7.439   8.845   5.914 -0.1261 -0.5929  1.0179
  637MOL0     C87808   7.562   8.933   5.874  0.4954 -0.2395  0.4867
  637MOL0     C87809   7.656   8.872   5.768 -0.7244  0.7859 -1.3218
  637MOL0     C87810   7.798   8.928   5.772  0.8583 -0.2899 -0.6209
  637MOL0     C87811   7.870   8.891   5.642 -1.2399 -0.4749 -0.6033
  637MOL0     C87812   7.851   8.746   5.601  0.3909 -0.4378 -0.4328
  637MOL0    Cl87813   7.957   8.719   5.462 -0.4293 -0.0535  0.1746
  637MOL0     C87814   6.977   9.103   5.813  0.6256 -0.9198  0.8421
  637MOL0     C87815   6.842   9.131   5.793 -0.0396  0.3392 -0.6155
  637MOL0     O87816   6.582   9.210   5.898  0.1452  0.8012 -0.8075
  637MOL0     C87817   6.324   9.111   5.945 -0.7574 -0.7519 -0.3192
  637MOL0     C87818   6.187   9.081   5.950  0.1983  0.3403  0.3677
  637MOL0     N87819   5.504   9.012   6.271  0.0472  0.9806 -0.3450
  637MOL0     N87820   5.394   9.037   6.327 -0.6872 -0.0921  0.4702
  637MOL0     C87821   4.384   8.184   5.958  0.2454 -0.1631  0.8485
  637MOL0     C87822   4.306   8.065   5.953 -0.1590 -0.3088  0.2312
  637MOL0     C87823   4.115   7.675   6.085 -0.5638  0.2605 -0.5130
  637MOL0     C87824   3.989   7.692   6.031 -0.5344 -0.8357 -0.6840
  637MOL0     C87825   3.899   7.589   6.028 -0.7450  0.2674 -0.8775
  637MOL0     C87826   3.930   7.471   6.092  0.7606  0.3924 -0.4875
  637MOL0     O87827   3.822   7.381   6.095  0.3600  0.0292  0.0455
  637MOL0     C87828   3.783   7.316   6.216 -0.6710  0.6822  0.0914
  637MOL0     C87829   3.661   7.382   6.265  0.1300 -0.6178  0.4663
  637MOL0     C87830   3.532   7.369   6.172 -0.6394  0.6690 -0.4677
  637MOL0     C87831   3.408   7.449   6.225 -0.0981 -0.2065  0.5174
  637MOL0     C87832   3.352   7.398   6.355  0.6939 -0.4035  0.0808
  637MOL0     C87833   3.303   7.353   6.456  0.7964 -0.1846  0.0435
  637MOL0     C87834   4.052   7.446   6.154 -0.1663  0.0626  0.5244
  637MOL0     C87835   4.146   7.551   6.142 -0.1749  0.3318 -0.4663
  637MOL0     C87836   4.290   7.519   6.198 -0.9316  0.0154 -0.2425
  637MOL0     H87837   4.169   8.064   6.261  1.6062 -1.1705  0.0531
  637MOL0     H87838   4.305   8.270   6.274  0.3718  0.4268 -0.5241
  637MOL0     H87839   4.476   8.439   5.905  1.7131 -0.1641 -0.9632
  637MOL0     H87840   4.629   8.367   5.947 -0.1030  1.0317 -2.3182
  637MOL0     H87841   4.634   8.596   5.914  0.0440  1.0812  0.0274
  637MOL0     H87842   4.531   8.633   6.047  0.9285  2.1663 -1.9474
  637MOL0     H87843   4.703   8.505   6.193  0.0293 -1.9388 -1.4050
  637MOL0     H87844   4.821   8.514   6.055 -0.5509 -1.2895 -1.6037
  637MOL0     H87845   4.773   8.756   6.035 -0.6409  1.9404  1.1043
  637MOL0     H87846   4.692   8.764   6.185  1.0975  2.0320 -0.2924
  637MOL0     H87847   4.972   8.641   6.146  0.3050  2.4538 -1.1785
  637MOL0     H87848   4.900   8.666   6.305 -1.2428  0.9090  0.6146
  637MOL0     H87849   4.983   8.862   6.081  0.1392  0.6275 -0.1737
  637MOL0     H87850   4.890   8.928   6.215 -0.2620  0.4560 -0.7659
  637MOL0     H87851   5.168   8.809   6.236  0.6751  1.1096 -1.9027
  637MOL0     H87852   5.075   8.854   6.378  1.1087 -0.8164  0.7250
  637MOL0     H87853   5.096   9.086   6.190  2.4946  0.8366 -1.5817
  637MOL0     H87854   5.115   9.076   6.362 -0.0173 -3.6688  1.3910
  637MOL0     H87855   5.286   8.931   6.032 -0.4255  1.5640  0.3068
  637MOL0     H87856   5.503   8.928   5.941 -0.2143  0.8249  0.0727
  637MOL0     H87857   5.568   8.801   6.040  0.6482  0.6829  1.1718
  637MOL0     H87858   5.668   9.087   6.001  0.3070  0.8619  1.9234
  637MOL0     H87859   5.744   8.987   6.125  1.4706  1.2586 -0.6001
  637MOL0     H87860   5.803   8.823   5.933  0.0265  0.2941 -1.4916
  637MOL0     H87861   5.746   8.949   5.825 -1.6092 -0.9967  0.4250
  637MOL0     H87862   5.886   9.120   5.961  1.1487  0.7278 -0.1190
  637MOL0     H87863   5.950   8.982   6.050  1.3201  2.3702  0.1153
  637MOL0     H87864   6.145   8.987   5.623  2.0729  0.2487 -0.6669
  637MOL0     H87865   6.305   9.088   5.485 -1.6990  0.4077  0.9351
  637MOL0     H87866   6.445   8.989   5.554  0.0273 -0.6184  0.2062
  637MOL0     H87867   6.445   9.167   5.557 -0.6620  0.3644 -1.2612
  637MOL0     H87868   6.742   8.819   5.716 -0.4274  0.4981  0.4805
  637MOL0     H87869   6.982   8.774   5.727 -1.8492 -0.8719 -1.5877
  637MOL0     H87870   7.289   9.101   5.859  0.8469 -0.4231 -0.8597
  637MOL0     H87871   7.174   9.064   5.987  0.6883  3.9910 -1.4179
  637MOL0     H87872   7.383   8.974   6.073  2.4855 -1.6145  0.6382
  637MOL0     H87873   7.273   8.843   6.049  2.0475  0.0150  1.5770
  637MOL0     H87874   7.391   8.822   5.818  0.1101  0.2645  0.6882
  637MOL0     H87875   7.465   8.760   5.977  2.0732  1.4015  3.0079
  637MOL0     H87876   7.614   8.949   5.969  1.9777 -0.9095 -0.1704
  637MOL0     H87877   7.521   9.025   5.833 -0.5992 -1.4645 -1.2879
  637MOL0     H87878   7.666   8.765   5.789 -0.0931  1.1325  0.2881
  637MOL0     H87879   7.607   8.886   5.672  1.0950  0.8116 -2.3005
  637MOL0     H87880   7.843   8.884   5.861 -0.2169 -0.6466 -0.2406
  637MOL0     H87881   7.806   9.037   5.782 -0.7439 -0.3267  1.8538
  637MOL0     H87882   7.976   8.915   5.657 -1.6624  1.9159 -1.0565
  637MOL0     H87883   7.831   8.958   5.565 -1.7054  0.2154  0.2214
  637MOL0     H87884   7.748   8.722   5.574  0.0729 -1.0530  1.2152
  637MOL0     H87885   7.887   8.690   5.688  1.7440  1.7092  0.4760
  637MOL0     H87886   7.057   9.172   5.838 -0.0429  0.9451 -1.8230
  637MOL0     H87887   6.820   9.237   5.785 -0.2712  0.1746 -2.9375
  637MOL0     H87888   6.370   9.136   6.040 -0.1510 -2.2687 -0.1816
  637MOL0     H87889   6.133   9.097   6.043 -1.4899  2.0494 -0.8497
  637MOL0     H87890   4.436   8.196   5.864 -1.4668 -3.1968 -0.6529
  637MOL0     H87891   4.300   8.011   5.859 -0.1250  3.0218 -1.8544
  637MOL0     H87892   3.958   7.790   5.996  2.5090  0.2890 -0.5419
  637MOL0     H87893   3.798   7.599   5.991 -1.3119  0.9810  0.7764
  637MOL0     H87894   3.765   7.214   6.181  1.9181 -0.5656  2.0906
  637MOL0     H87895   3.862   7.313   6.291  1.2842  0.5132 -1.8763
  637MOL0     H87896   3.679   7.484   6.299  1.9168 -1.1451  1.2179
  637MOL0     H87897   3.624   7.332   6.355  0.4154  0.0939  0.9854
  637MOL0     H87898   3.556   7.418   6.078 -2.6060  0.7125 -0.9822
  637MOL0     H87899   3.511   7.262   6.160 -0.5937  0.0930  3.2338
  637MOL0     H87900   3.335   7.437   6.144 -0.7264  2.8963  0.5086
  637MOL0     H87901   3.436   7.555   6.220 -0.7001 -0.0014  1.3056
  637MOL0     H87902   3.262   7.313   6.546 -0.2532  0.3513 -0.1921
  637MOL0     H87903   4.082   7.355   6.205  0.5247  0.7017  1.2747
  637MOL0     H87904   4.308   7.579   6.287 -2.5585 -2.7844  2.1586
  637MOL0     H87905   4.293   7.417   6.238  0.9039  1.0648  2.5895
  637MOL0     H87906   4.367   7.541   6.123  0.7611  0.0885  1.4565
  638MOL0     O87907   2.573   8.317   1.210 -0.3867  0.1278 -0.4042
  638MOL0     C87908   2.463   8.260   1.195 -0.0258 -0.2474 -0.7060
  638MOL0     O87909   2.435   8.146   1.130  0.4580 -0.0480  0.4268
  638MOL0     C87910   2.538   8.100   1.055 -0.1648  0.5841  0.0853
  638MOL0     C87911   2.534   8.126   0.914  0.0506 -0.2134 -0.6600
  638MOL0     C87912   2.635   8.076   0.829 -0.1550  0.0126  0.3687
  638MOL0     C87913   2.741   8.000   0.875  0.1439 -0.3943  0.1304
  638MOL0     O87914   2.818   7.943   0.779 -0.2672  0.2454  0.8630
  638MOL0     C87915   2.963   7.951   0.803  0.2072 -0.2910 -0.5542
  638MOL0     C87916   3.010   8.095   0.769  0.1195 -0.5322 -0.1732
  638MOL0     C87917   3.158   8.094   0.791 -0.4720 -0.0837  0.0275
  638MOL0     C87918   3.206   8.236   0.780 -0.0195  0.2179  0.2644
  638MOL0     C87919   3.348   8.254   0.830  0.2932 -0.5002 -0.4473
  638MOL0     C87920   3.385   8.199   0.969  0.7859  0.0807  0.5587
  638MOL0     C87921   3.529   8.218   1.005  0.5447 -0.3695 -0.4518
  638MOL0     C87922   3.581   8.113   1.107 -0.4649 -0.0627  0.1726
  638MOL0     N87923   3.722   8.097   1.085 -0.5987 -0.0073  0.1677
  638MOL0     C87924   3.822   8.178   1.139 -0.3693 -0.3812 -0.5658
  638MOL0     C87925   3.924   8.151   1.059 -0.0583  0.4895 -0.5131
  638MOL0     C87926   4.047   8.228   1.065  0.0950  0.3087  0.3740
  638MOL0     C87927   4.170   8.140   1.102 -0.2960  0.5189 -0.3915
  638MOL0     C87928   4.123   8.004   1.167  0.3744  0.1516 -0.0570
  638MOL0     C87929   4.241   7.930   1.242 -0.5607  0.1895 -0.0944
  638MOL0     O87930   4.210   7.788   1.257  0.0490  0.4689  0.4085
  638MOL0     C87931   4.241   7.701   1.152 -0.6890 -0.3461 -1.0295
  638MOL0     C87932   4.304   7.732   1.030 -0.7070 -0.0104  0.7393
  638MOL0     C87933   4.343   7.646   0.927 -0.3135  0.4806 -0.4220
  638MOL0     C87934   4.417   7.701   0.807  0.0294  0.4082 -0.2657
  638MOL0     C87935   4.322   7.508   0.952  1.4739  0.8087 -0.3663
  638MOL0     C87936   4.327   7.405   0.838 -0.7230 -0.3459 -0.6477
  638MOL0     O87937   4.231   7.318   0.831 -0.1890 -0.2134  0.2005
  638MOL0     C87938   4.233   7.219   0.734 -1.3586  0.0712 -0.0876
  638MOL0     C87939   4.112   7.182   0.670 -1.0204  0.4327  0.2778
  638MOL0     C87940   4.115   7.074   0.580 -0.1312  0.4264  0.3947
  638MOL0     C87941   4.226   6.994   0.550  0.2159  0.0686  0.1932
  638MOL0     O87942   4.222   6.881   0.471  0.2079 -0.4263 -0.0642
  638MOL0     C87943   4.112   6.872   0.387  0.0773 -0.3722 -0.5169
  638MOL0     C87944   4.166   6.780   0.272 -0.3637  0.3061 -0.8931
  638MOL0     C87945   4.060   6.734   0.172  0.0506 -0.7243 -0.0500
  638MOL0     C87946   4.089   6.592   0.114 -0.0967 -0.0363  0.0117
  638MOL0     C87947   3.974   6.552   0.022 -0.1473  0.1850  0.3314
  638MOL0     C87948   3.971   6.635  -0.107 -0.3948  0.4302  0.1003
  638MOL0     C87949   3.858   6.571  -0.190  0.1339  0.7747 -1.0101
  638MOL0     C87950   3.838   6.635  -0.331  0.0654  0.0148  0.9584
  638MOL0    Cl87951   3.727   6.544  -0.441 -0.2601  0.4998  0.1832
  638MOL0     C87952   4.340   7.022   0.627  0.1981  0.3065  0.2767
  638MOL0     C87953   4.355   7.138   0.720  0.9876 -0.0130  0.6642
  638MOL0     O87954   4.424   7.419   0.759  0.3530  0.0994  0.2120
  638MOL0     C87955   4.255   7.470   1.074 -0.2567  0.0210 -0.1082
  638MOL0     C87956   4.221   7.560   1.177  1.0149  0.4141  0.2632
  638MOL0     N87957   3.888   8.065   0.962 -0.1372 -0.2973  0.6180
  638MOL0     N87958   3.769   8.033   0.975  0.0594  0.0707  1.0131
  638MOL0     C87959   2.750   7.970   1.016 -1.3223 -0.0741  1.0887
  638MOL0     C87960   2.649   8.023   1.106  0.6943 -0.4936  0.5172
  638MOL0     C87961   2.348   8.327   1.274 -0.9731 -0.2911  0.5506
  638MOL0     C87962   2.217   8.306   1.220 -0.0678  0.7087  0.5540
  638MOL0     C87963   2.107   8.365   1.268  0.3543 -0.0286 -0.3163
  638MOL0     C87964   2.120   8.456   1.369 -0.1860 -0.4604  0.5835
  638MOL0     O87965   2.020   8.530   1.426  0.0647  0.3702 -0.2735
  638MOL0     C87966   1.927   8.571   1.319  0.1411 -0.5655 -0.2144
  638MOL0     C87967   1.856   8.696   1.357  0.0828 -0.0608 -0.5428
  638MOL0     C87968   1.805   8.692   1.499  0.0024 -0.1191 -0.3704
  638MOL0     C87969   1.707   8.801   1.535  1.0971 -0.0028  0.8090
  638MOL0     C87970   1.577   8.778   1.463 -0.0353  0.5187 -0.5751
  638MOL0     C87971   1.468   8.765   1.408  0.5280  0.5250  0.2119
  638MOL0     C87972   2.252   8.487   1.416 -0.1226  0.2409 -0.6578
  638MOL0     C87973   2.366   8.419   1.381  0.2478 -0.3011  0.0030
  638MOL0     C87974   2.491   8.431   1.459 -1.1061  0.2260 -0.8257
  638MOL0     H87975   2.457   8.192   0.875  0.5684  2.0403  1.8323
  638MOL0     H87976   2.626   8.100   0.723  0.6517 -2.4043 -0.3299
  638MOL0     H87977   3.003   7.878   0.732 -1.0276 -0.1899 -1.3849
  638MOL0     H87978   3.000   7.922   0.902  1.6213 -1.0707 -1.2745
  638MOL0     H87979   2.987   8.118   0.664 -2.6099  1.7953  0.8039
  638MOL0     H87980   2.963   8.170   0.834 -0.0191 -0.8352  0.0762
  638MOL0     H87981   3.166   8.064   0.896  1.8425  1.1583  0.2603
  638MOL0     H87982   3.220   8.041   0.717  2.7625  2.2782  0.8347
  638MOL0     H87983   3.202   8.280   0.680  4.3454  1.5301  0.4862
  638MOL0     H87984   3.141   8.304   0.836  1.0268  0.1117  1.6629
  638MOL0     H87985   3.374   8.361   0.833 -3.0961  0.4518  0.1309
  638MOL0     H87986   3.418   8.213   0.757  1.9727  4.5723 -2.0982
  638MOL0     H87987   3.325   8.230   1.055  2.5146 -0.1887  1.9099
  638MOL0     H87988   3.365   8.094   0.946  1.6109  0.3139 -1.4777
  638MOL0     H87989   3.538   8.316   1.052  0.3453 -0.7969  0.5025
  638MOL0     H87990   3.594   8.215   0.917  2.9554  0.7610  1.1511
  638MOL0     H87991   3.576   8.146   1.212  1.6755  1.5845 -0.1810
  638MOL0     H87992   3.520   8.024   1.091 -1.0256  0.1649  0.9556
  638MOL0     H87993   3.808   8.249   1.220 -0.3428 -1.8023  0.7226
  638MOL0     H87994   4.042   8.306   1.141  0.6687  0.4204  0.2985
  638MOL0     H87995   4.048   8.273   0.965 -0.3410  1.6386  0.9521
  638MOL0     H87996   4.239   8.115   1.021  0.0687  3.5071 -1.1074
  638MOL0     H87997   4.234   8.190   1.176  0.7614  2.1380 -2.3038
  638MOL0     H87998   4.043   8.029   1.237 -1.4795 -2.5201 -1.0610
  638MOL0     H87999   4.089   7.937   1.088  2.0879 -0.0443 -0.6761
  638MOL0     H88000   4.329   7.947   1.179  0.9376 -0.9942  1.6077
  638MOL0     H88001   4.260   7.978   1.339  0.1194  1.2681 -0.7369
  638MOL0     H88002   4.318   7.838   1.011 -2.7084  0.6084  2.3117
  638MOL0     H88003   4.421   7.811   0.808 -0.5334  0.5638 -3.8305
  638MOL0     H88004   4.364   7.663   0.720 -0.6475 -1.7686  1.0215
  638MOL0     H88005   4.516   7.655   0.806  0.7006  1.7661 -1.8398
  638MOL0     H88006   4.029   7.244   0.702 -2.4236 -0.6134 -1.1264
  638MOL0     H88007   4.018   7.056   0.534  0.2980  0.9984 -0.7603
  638MOL0     H88008   4.027   6.826   0.437 -0.7498  1.3031 -0.3073
  638MOL0     H88009   4.083   6.969   0.345  0.2402  0.5077  1.2981
  638MOL0     H88010   4.248   6.834   0.224 -0.3267 -0.3877 -1.6430
  638MOL0     H88011   4.203   6.686   0.315 -0.5138  0.0179 -1.3780
  638MOL0     H88012   4.049   6.809   0.094 -1.4231 -2.3324 -1.4770
  638MOL0     H88013   3.963   6.741   0.223  0.9551  3.1397  1.5017
  638MOL0     H88014   4.102   6.527   0.201 -2.3771  1.2019  1.3821
  638MOL0     H88015   4.178   6.590   0.052 -0.2780 -3.1492 -0.3444
  638MOL0     H88016   3.993   6.448  -0.005  0.4406  0.2431  0.5044
  638MOL0     H88017   3.880   6.547   0.078 -0.4262 -2.6578 -0.2493
  638MOL0     H88018   4.067   6.641  -0.158 -1.2024  0.3519 -1.5025
  638MOL0     H88019   3.931   6.736  -0.092 -0.6663  0.0491  2.1710
  638MOL0     H88020   3.772   6.576  -0.123  0.9565 -2.9279  0.5616
  638MOL0     H88021   3.875   6.464  -0.204 -0.8245  0.5292 -0.3700
  638MOL0     H88022   3.942   6.638  -0.366 -0.6146 -1.3887 -1.4091
  638MOL0     H88023   3.787   6.731  -0.320 -3.0544 -1.5176  0.8039
  638MOL0     H88024   4.425   6.955   0.628 -0.0535 -0.0348  2.1715
  638MOL0     H88025   4.436   7.139   0.792  1.4760 -0.9318  0.1464
  638MOL0     H88026   4.214   7.371   1.088 -2.9688  1.1553  0.5787
  638MOL0     H88027   4.179   7.513   1.266  2.9253 -0.6927  0.6192
  638MOL0     H88028   2.832   7.915   1.060 -0.8372 -1.1021 -0.9609
  638MOL0     H88029   2.659   8.008   1.213  0.7795 -3.3879  0.1655
  638MOL0     H88030   2.202   8.245   1.132  2.7364  1.6958 -0.7327
  638MOL0     H88031   2.013   8.334   1.224 -0.8381  0.3106  1.8456
  638MOL0     H88032   1.984   8.601   1.230 -1.3072  0.7784 -0.7228
  638MOL0     H88033   1.862   8.489   1.289  0.5276 -0.3278 -1.8180
  638MOL0     H88034   1.774   8.709   1.285  0.1891 -0.9067 -0.8269
  638MOL0     H88035   1.937   8.769   1.353  1.3833 -1.1603  2.8332
  638MOL0     H88036   1.770   8.590   1.520 -0.2877 -0.2139 -1.2826
  638MOL0     H88037   1.888   8.704   1.570  0.4917 -2.5011 -0.4366
  638MOL0     H88038   1.745   8.896   1.498 -0.2170  1.2628  2.5491
  638MOL0     H88039   1.700   8.816   1.643  1.7471  0.7963  0.7485
  638MOL0     H88040   1.373   8.770   1.359  0.7809  0.7099 -0.2731
  638MOL0     H88041   2.252   8.553   1.502 -1.4980 -0.5536 -0.0239
  638MOL0     H88042   2.584   8.459   1.408  0.8001 -0.8328  1.8199
  638MOL0     H88043   2.482   8.510   1.535  0.4893 -1.2502  0.9988
  638MOL0     H88044   2.516   8.336   1.506 -1.6417 -0.5821 -2.1383
  639MOL0     O88045   2.481   3.682   0.110 -0.2150 -0.3404 -0.5155
  639MOL0     C88046   2.486   3.600   0.206 -0.6796 -0.0062  0.3935
  639MOL0     O88047   2.592   3.589   0.299  0.1975  0.0455  0.6163
  639MOL0     C88048   2.687   3.686   0.315  0.1342  0.1695  0.0472
  639MOL0     C88049   2.815   3.639   0.356  0.5721 -0.5020  0.7284
  639MOL0     C88050   2.924   3.725   0.375 -0.4628  0.2926  0.3070
  639MOL0     C88051   2.913   3.858   0.345  0.3573  0.5375 -0.0198
  639MOL0     O88052   3.026   3.942   0.344  0.1448 -0.0003 -0.5232
  639MOL0     C88053   3.131   3.904   0.427 -0.5641  0.4293  0.3245
  639MOL0     C88054   3.227   4.021   0.440  0.5852  0.0055 -0.2375
  639MOL0     C88055   3.342   3.994   0.533 -0.3028 -0.3451 -1.0672
  639MOL0     C88056   3.459   4.072   0.487 -0.6213  0.2832  0.3073
  639MOL0     C88057   3.578   4.028   0.573  0.6775  0.5133 -0.0880
  639MOL0     C88058   3.711   4.109   0.538 -0.0818 -0.0075  0.4405
  639MOL0     C88059   3.830   4.018   0.572  0.0220 -0.1177  0.3109
  639MOL0     C88060   3.958   4.033   0.488 -0.1634 -0.2213 -0.1553
  639MOL0     N88061   4.034   4.160   0.525  0.0296  0.2544  0.3871
  639MOL0     C88062   4.054   4.203   0.655  0.0879 -0.0300 -0.1289
  639MOL0     C88063   4.148   4.306   0.648 -1.1613  0.3637  0.1264
  639MOL0     C88064   4.192   4.387   0.762  0.0800 -0.5811  0.1266
  639MOL0     C88065   4.081   4.465   0.827 -0.1861 -0.4813 -0.3251
  639MOL0     C88066   4.118   4.555   0.948 -0.3562  0.2347 -0.4891
  639MOL0     C88067   4.211   4.487   1.048  0.1356  0.0127  0.0366
  639MOL0     O88068   4.353   4.486   1.012 -0.2487  0.2634 -0.6609
  639MOL0     C88069   4.445   4.446   1.109  0.2832 -0.5810  0.6118
  639MOL0     C88070   4.409   4.407   1.243  0.4321 -0.0747  0.2902
  639MOL0     C88071   4.514   4.390   1.334  0.1850  0.6239 -0.2294
  639MOL0     C88072   4.478   4.355   1.482 -0.3540 -0.3395  0.8641
  639MOL0     C88073   4.648   4.405   1.297 -0.0005  0.1729 -0.1783
  639MOL0     C88074   4.762   4.397   1.388 -1.4697 -0.5051 -0.8857
  639MOL0     O88075   4.868   4.480   1.353 -0.6603 -0.0786  0.0502
  639MOL0     C88076   4.984   4.470   1.417  0.2556 -0.5777  1.0433
  639MOL0     C88077   5.021   4.561   1.515  0.3185  0.0255 -0.7796
  639MOL0     C88078   5.149   4.552   1.579  0.5461 -0.1815  0.6157
  639MOL0     C88079   5.229   4.443   1.557 -0.1886  0.4023 -0.4247
  639MOL0     O88080   5.337   4.420   1.631  0.0238 -0.7778  0.3936
  639MOL0     C88081   5.461   4.466   1.568 -0.4528 -0.4053 -0.0447
  639MOL0     C88082   5.572   4.385   1.638  0.9532 -0.6468 -0.8548
  639MOL0     C88083   5.694   4.355   1.551  0.1302  0.1552  0.2295
  639MOL0     C88084   5.732   4.474   1.450  0.5024  0.0472 -0.5844
  639MOL0     C88085   5.879   4.449   1.395  0.2288  0.0255  0.8742
  639MOL0     C88086   5.987   4.443   1.490  0.1553 -0.1631 -0.2999
  639MOL0     C88087   6.123   4.418   1.427  0.6825  0.2014  0.1309
  639MOL0     C88088   6.234   4.416   1.540  0.2761 -0.1086  0.0683
  639MOL0    Cl88089   6.270   4.583   1.599 -0.0650  0.1028  0.1794
  639MOL0     C88090   5.193   4.362   1.451 -0.0283 -0.0795  0.0113
  639MOL0     C88091   5.081   4.376   1.373  0.2793 -0.3938 -0.6335
  639MOL0     O88092   4.771   4.313   1.474 -0.0040  0.0211  0.1105
  639MOL0     C88093   4.676   4.440   1.163  0.5862 -0.4179  0.6992
  639MOL0     C88094   4.573   4.463   1.072  0.2390  0.2471 -0.1519
  639MOL0     N88095   4.179   4.325   0.514 -0.0546  0.1647 -1.3826
  639MOL0     N88096   4.118   4.228   0.447 -0.0913 -0.2779 -0.7008
  639MOL0     C88097   2.786   3.904   0.309 -0.3139 -0.1031  0.2354
  639MOL0     C88098   2.676   3.822   0.289  1.0842  0.6196 -0.6514
  639MOL0     C88099   2.371   3.508   0.216 -0.5913 -0.2052  0.0556
  639MOL0     C88100   2.275   3.515   0.117  0.3454 -0.0576  0.1843
  639MOL0     C88101   2.156   3.440   0.122 -0.6245  0.9140 -0.5971
  639MOL0     C88102   2.143   3.336   0.215 -0.0996  0.0225  0.8466
  639MOL0     O88103   2.027   3.260   0.216  0.4484 -0.7385  0.1169
  639MOL0     C88104   2.031   3.114   0.219  0.3998 -0.2516 -0.5413
  639MOL0     C88105   1.895   3.041   0.192  0.8794 -0.1361  0.1215
  639MOL0     C88106   1.784   3.049   0.302 -0.3377  0.6176 -1.2059
  639MOL0     C88107   1.669   2.941   0.282  0.1418 -0.8119  0.0273
  639MOL0     C88108   1.603   2.966   0.157  0.5575 -0.6581  0.3281
  639MOL0     C88109   1.550   2.971   0.044 -0.6248  0.2516  0.2900
  639MOL0     C88110   2.238   3.330   0.319  0.0577 -0.4220  0.7001
  639MOL0     C88111   2.348   3.415   0.322 -0.5167 -0.2644  0.6920
  639MOL0     C88112   2.421   3.414   0.454  1.4671 -0.1894  0.3379
  639MOL0     H88113   2.835   3.536   0.386  1.5043 -0.4467  0.3214
  639MOL0     H88114   3.011   3.679   0.422  1.0950  2.8166  0.0559
  639MOL0     H88115   3.188   3.830   0.369  0.0458  0.7940  0.4508
  639MOL0     H88116   3.099   3.868   0.525  0.9092 -1.2159  0.2554
  639MOL0     H88117   3.252   4.059   0.341 -1.4467  1.9711 -0.1004
  639MOL0     H88118   3.167   4.094   0.496  0.2883 -1.7668  1.8706
  639MOL0     H88119   3.311   4.019   0.635  1.5570  1.7545 -0.9425
  639MOL0     H88120   3.374   3.890   0.524  0.5639 -0.2121  0.3036
  639MOL0     H88121   3.478   4.045   0.383  2.2313 -1.2582  1.1158
  639MOL0     H88122   3.429   4.177   0.486  0.2520  0.5372 -0.5330
  639MOL0     H88123   3.593   3.921   0.561 -2.3346 -0.3505  2.4725
  639MOL0     H88124   3.554   4.036   0.680  2.6097 -1.1979  0.5494
  639MOL0     H88125   3.708   4.130   0.430 -0.0952  0.2673  0.4917
  639MOL0     H88126   3.706   4.204   0.592  0.7332 -1.0682  2.4592
  639MOL0     H88127   3.791   3.918   0.552  0.0239 -0.1213  0.3247
  639MOL0     H88128   3.856   4.020   0.678  1.9237 -1.8307 -0.0629
  639MOL0     H88129   4.021   3.946   0.507  0.4518  0.5420  1.5611
  639MOL0     H88130   3.950   4.051   0.381  2.1413  5.1355  0.2254
  639MOL0     H88131   4.003   4.158   0.739 -0.1273 -0.8545 -0.6839
  639MOL0     H88132   4.271   4.455   0.729 -1.9387  1.7501 -0.1844
  639MOL0     H88133   4.214   4.310   0.837  0.0356 -0.7825 -0.0661
  639MOL0     H88134   4.046   4.541   0.757  2.5766  2.4036  1.1777
  639MOL0     H88135   4.001   4.396   0.855 -1.2484  0.9777  0.3598
  639MOL0     H88136   4.159   4.652   0.919 -0.6786  1.3803  2.4489
  639MOL0     H88137   4.023   4.576   0.999 -1.3607 -0.1928 -2.1117
  639MOL0     H88138   4.194   4.539   1.143  1.6020  1.0243 -0.2248
  639MOL0     H88139   4.174   4.384   1.059  0.3117  0.1651  2.9015
  639MOL0     H88140   4.308   4.396   1.282  1.0009  1.0444  2.2132
  639MOL0     H88141   4.537   4.420   1.547 -0.4062  2.1516 -1.4066
  639MOL0     H88142   4.503   4.250   1.501  1.9814 -1.0130 -4.3520
  639MOL0     H88143   4.372   4.369   1.504 -0.3935  0.6663  0.1002
  639MOL0     H88144   4.960   4.646   1.543  1.6791  0.0880  2.3111
  639MOL0     H88145   5.160   4.627   1.656 -0.7317  2.2405 -1.4173
  639MOL0     H88146   5.449   4.455   1.460 -1.8115  2.3591 -0.2684
  639MOL0     H88147   5.462   4.574   1.585 -1.4577 -0.3259 -0.4671
  639MOL0     H88148   5.585   4.444   1.729  1.6779 -0.9331 -0.7690
  639MOL0     H88149   5.536   4.292   1.682  4.0113 -0.7878  1.6454
  639MOL0     H88150   5.671   4.261   1.501 -0.9067  0.4919  0.0680
  639MOL0     H88151   5.776   4.335   1.622 -0.4412  1.9201  1.4662
  639MOL0     H88152   5.721   4.573   1.497 -1.3738  0.0681 -0.9779
  639MOL0     H88153   5.665   4.466   1.364 -0.0338 -0.2994 -0.1362
  639MOL0     H88154   5.869   4.352   1.345 -5.3699  0.6141  0.2138
  639MOL0     H88155   5.894   4.518   1.311 -2.1238 -0.7512 -0.2887
  639MOL0     H88156   5.968   4.373   1.572 -0.7046  1.7015  1.1671
  639MOL0     H88157   5.986   4.537   1.547 -2.4767 -0.5552  0.4168
  639MOL0     H88158   6.150   4.486   1.346  2.3127  1.0909  1.3590
  639MOL0     H88159   6.124   4.318   1.382  2.7015 -0.5242  1.5945
  639MOL0     H88160   6.330   4.390   1.493  0.0012 -1.7781  0.3555
  639MOL0     H88161   6.219   4.342   1.619 -0.5538  0.9530  0.9312
  639MOL0     H88162   5.259   4.279   1.430  2.3105  0.6559  3.5369
  639MOL0     H88163   5.056   4.318   1.285 -0.3618  0.4969 -1.0466
  639MOL0     H88164   4.778   4.462   1.134 -0.0171  0.7689 -0.6013
  639MOL0     H88165   4.596   4.510   0.977 -0.2918  1.7055  0.3967
  639MOL0     H88166   2.772   4.010   0.291 -1.0883 -0.2646 -0.1531
  639MOL0     H88167   2.580   3.859   0.255  0.6940 -1.3918 -1.8993
  639MOL0     H88168   2.294   3.574   0.028  0.8874  1.2371  1.1314
  639MOL0     H88169   2.074   3.449   0.051 -1.8266 -1.4736  0.4045
  639MOL0     H88170   2.105   3.080   0.146  0.3098 -0.5848 -0.4767
  639MOL0     H88171   2.062   3.089   0.321  0.2107 -0.0767 -0.4390
  639MOL0     H88172   1.918   2.935   0.178 -0.7139 -0.1399 -4.0724
  639MOL0     H88173   1.853   3.070   0.095  1.1311  3.6450  0.9761
  639MOL0     H88174   1.828   3.031   0.400 -0.2205  0.6352 -1.2549
  639MOL0     H88175   1.741   3.150   0.305 -0.0925  0.7095  1.1579
  639MOL0     H88176   1.595   2.961   0.360  2.0593  0.5033  1.6510
  639MOL0     H88177   1.704   2.838   0.295 -0.1133 -1.1097 -1.5109
  639MOL0     H88178   1.501   2.973  -0.051 -1.6218  0.3333  0.7894
  639MOL0     H88179   2.215   3.264   0.402  0.4353 -2.3923 -0.6745
  639MOL0     H88180   2.444   3.515   0.489  0.4330  0.3146 -0.4116
  639MOL0     H88181   2.368   3.350   0.526  0.1383 -0.4809 -0.8686
  639MOL0     H88182   2.512   3.357   0.433  0.6795 -1.5269  0.4461
  640MOL0     O88183   7.144   4.683  11.002  0.8563 -0.5731 -0.2870
  640MOL0     C88184   7.044   4.688  10.933 -0.1511  0.5960 -0.0744
  640MOL0     O88185   7.046   4.686  10.796 -0.5290 -0.3772  0.9262
  640MOL0     C88186   7.149   4.615  10.739 -0.2810  0.5730  0.0597
  640MOL0     C88187   7.237   4.678  10.655 -0.0073  0.6386 -0.2695
  640MOL0     C88188   7.356   4.622  10.608  0.2229 -0.7885 -0.2129
  640MOL0     C88189   7.390   4.491  10.637 -0.5779 -0.1612  0.4301
  640MOL0     O88190   7.511   4.442  10.585 -0.6022  0.2095  0.2584
  640MOL0     C88191   7.528   4.304  10.559  0.0282 -0.2990 -0.2563
  640MOL0     C88192   7.615   4.242  10.664 -0.2119 -0.5002  0.6355
  640MOL0     C88193   7.624   4.090  10.622  1.0606  0.1821 -0.3693
  640MOL0     C88194   7.739   4.035  10.695 -0.5994 -0.7537 -0.5142
  640MOL0     C88195   7.762   3.891  10.648  0.7647  0.2323  1.0008
  640MOL0     C88196   7.885   3.831  10.702  0.1936 -0.2036 -0.4120
  640MOL0     C88197   7.916   3.701  10.635  0.7160 -0.1980  0.5137
  640MOL0     C88198   8.040   3.627  10.696 -0.9983 -0.0035 -1.0392
  640MOL0     N88199   8.049   3.489  10.678 -0.2386  0.0458  0.6867
  640MOL0     C88200   7.996   3.426  10.566 -0.4409 -0.2437 -0.2211
  640MOL0     C88201   8.058   3.306  10.561  0.2478  0.3081  0.5530
  640MOL0     C88202   8.068   3.205  10.444 -0.6846 -0.7333 -0.0425
  640MOL0     C88203   8.150   3.236  10.316 -0.0003 -0.2287 -0.8044
  640MOL0     C88204   8.096   3.356  10.238 -0.1105  0.7922 -0.4926
  640MOL0     C88205   7.962   3.323  10.174 -0.3491  0.2642  0.2580
  640MOL0     O88206   7.844   3.378  10.230  0.6388  0.6525 -0.7552
  640MOL0     C88207   7.822   3.512  10.214  0.5760 -0.0977 -0.2714
  640MOL0     C88208   7.883   3.590  10.114 -0.0580 -0.2805 -1.1580
  640MOL0     C88209   7.851   3.729  10.107  0.4226 -0.1810 -0.5873
  640MOL0     C88210   7.920   3.808   9.998  0.4582 -0.1264 -0.0693
  640MOL0     C88211   7.764   3.786  10.212 -0.3069  0.2294 -0.6294
  640MOL0     C88212   7.739   3.928  10.215 -0.2716  0.3448 -0.1924
  640MOL0     O88213   7.845   4.005  10.184 -0.0993  0.0949 -0.1938
  640MOL0     C88214   7.828   4.136  10.209  0.1690 -0.2101 -0.0759
  640MOL0     C88215   7.791   4.223  10.104 -1.0359 -0.3244  0.4615
  640MOL0     C88216   7.798   4.364  10.126 -0.3531  0.2490  0.7211
  640MOL0     C88217   7.834   4.411  10.258 -0.5475  0.6722  0.1155
  640MOL0     O88218   7.868   4.544  10.286 -0.3864  0.0431 -0.1373
  640MOL0     C88219   7.865   4.652  10.201 -0.3391  0.6616 -0.3798
  640MOL0     C88220   7.994   4.659  10.120  0.7426  0.3810 -0.4289
  640MOL0     C88221   8.002   4.805  10.065 -0.0437  1.0199 -0.8277
  640MOL0     C88222   8.132   4.850   9.998 -0.0492 -0.2945  0.2490
  640MOL0     C88223   8.261   4.825  10.062 -0.0188 -0.7311 -0.0650
  640MOL0     C88224   8.380   4.899   9.994  0.8313  0.0097 -0.2189
  640MOL0     C88225   8.506   4.839  10.057  0.0718 -0.2306 -0.7125
  640MOL0     C88226   8.612   4.937  10.037  0.0204  1.0589  0.8527
  640MOL0    Cl88227   8.768   4.893  10.100 -0.0163  0.3867  0.0152
  640MOL0     C88228   7.844   4.328  10.364  0.0205  0.3992 -0.8941
  640MOL0     C88229   7.839   4.185  10.341 -1.0914 -0.6683  0.9543
  640MOL0     O88230   7.634   3.966  10.268  0.3133  0.3464  0.3789
  640MOL0     C88231   7.702   3.692  10.302 -0.0885  0.2322 -0.1689
  640MOL0     C88232   7.736   3.559  10.305  0.2007 -0.6080  0.6496
  640MOL0     N88233   8.140   3.291  10.680 -0.5624 -0.6635  0.5854
  640MOL0     N88234   8.128   3.402  10.748  0.1357 -0.0669 -0.2559
  640MOL0     C88235   7.308   4.425  10.725 -0.1639  0.6255  0.0479
  640MOL0     C88236   7.183   4.485  10.774 -0.4445 -0.4704 -0.0555
  640MOL0     C88237   6.914   4.735  10.994  0.2195  0.2203 -0.0481
  640MOL0     C88238   6.901   4.771  11.134  0.5176  0.2202 -0.4055
  640MOL0     C88239   6.775   4.798  11.191 -0.5251  0.6377  0.5026
  640MOL0     C88240   6.663   4.807  11.113  0.6789 -0.5812  0.2985
  640MOL0     O88241   6.538   4.844  11.160 -0.8804  1.1020  0.3818
  640MOL0     C88242   6.505   4.818  11.297  0.4003 -0.0286 -0.1767
  640MOL0     C88243   6.468   4.680  11.345 -0.3772  0.7159  0.8835
  640MOL0     C88244   6.342   4.630  11.283 -0.5150 -0.0596  0.3082
  640MOL0     C88245   6.217   4.687  11.330 -0.3329 -0.0036 -0.7951
  640MOL0     C88246   6.211   4.687  11.480 -0.0894  0.8543  1.0172
  640MOL0     C88247   6.206   4.675  11.599 -0.0647  0.2247  0.2300
  640MOL0     C88248   6.672   4.789  10.976  0.0583  0.4625  0.0550
  640MOL0     C88249   6.798   4.744  10.918  0.7964 -0.0248 -0.7969
  640MOL0     C88250   6.783   4.693  10.771 -0.3682 -0.5967 -0.3965
  640MOL0     H88251   7.225   4.781  10.624 -4.8780  0.4222  0.0636
  640MOL0     H88252   7.424   4.690  10.556  0.6177 -1.3149 -0.3884
  640MOL0     H88253   7.580   4.289  10.464  1.2295 -0.1376  0.3613
  640MOL0     H88254   7.437   4.244  10.560 -1.2451  1.5172  0.9642
  640MOL0     H88255   7.715   4.287  10.665 -0.6894  0.7948 -1.9777
  640MOL0     H88256   7.566   4.257  10.761 -3.0948  4.5512 -1.2437
  640MOL0     H88257   7.527   4.049  10.654  0.3600  2.7113  1.0071
  640MOL0     H88258   7.627   4.068  10.514 -0.3213  0.2052 -0.4325
  640MOL0     H88259   7.821   4.104  10.672 -0.2093  0.2775  3.3944
  640MOL0     H88260   7.730   4.034  10.804  0.1757  1.7800 -0.3573
  640MOL0     H88261   7.781   3.903  10.541  2.0354 -0.5201  1.1256
  640MOL0     H88262   7.678   3.823  10.667  0.6766 -0.2626 -1.0205
  640MOL0     H88263   7.967   3.900  10.678 -0.3003  0.9574  1.0641
  640MOL0     H88264   7.875   3.825  10.811  3.6424 -0.2246  0.0165
  640MOL0     H88265   7.934   3.711  10.528  1.1788 -0.0434  0.6064
  640MOL0     H88266   7.842   3.623  10.657  1.4273 -0.8355  0.7255
  640MOL0     H88267   8.129   3.671  10.651 -0.6646  0.8916  0.4268
  640MOL0     H88268   8.033   3.647  10.804 -0.1562  0.3143 -1.0387
  640MOL0     H88269   7.946   3.474  10.483  0.2511 -1.2449 -1.2479
  640MOL0     H88270   7.964   3.182  10.419 -1.4943  1.8717  0.6153
  640MOL0     H88271   8.116   3.115  10.483  0.3552 -1.6711 -3.1760
  640MOL0     H88272   8.250   3.263  10.350 -0.0680  1.2768 -1.7128
  640MOL0     H88273   8.170   3.148  10.254  0.4720 -0.2310 -0.6480
  640MOL0     H88274   8.085   3.448  10.297  0.0323  1.4102 -1.4167
  640MOL0     H88275   8.167   3.386  10.161 -1.1134  1.2463 -1.2698
  640MOL0     H88276   7.977   3.359  10.072  0.7078 -0.1351  0.2570
  640MOL0     H88277   7.955   3.215  10.163  0.6829  0.3482 -1.6222
  640MOL0     H88278   7.949   3.555  10.035  1.1828  1.4586 -0.9542
  640MOL0     H88279   8.006   3.861  10.040  0.1535  0.9590 -0.7712
  640MOL0     H88280   7.860   3.891   9.961  1.9982  0.0710 -2.3454
  640MOL0     H88281   7.956   3.754   9.910  1.5598 -1.0250  0.9074
  640MOL0     H88282   7.758   4.190  10.006  1.0138 -0.5140 -0.2096
  640MOL0     H88283   7.787   4.440  10.050 -2.9461  1.4579  2.1517
  640MOL0     H88284   7.778   4.666  10.136 -0.3240  0.8720 -0.3570
  640MOL0     H88285   7.874   4.739  10.267  2.3231 -0.4127  0.8241
  640MOL0     H88286   8.082   4.640  10.183  2.9159 -0.9695 -3.6510
  640MOL0     H88287   7.996   4.585  10.040  1.6954 -1.6503  1.3865
  640MOL0     H88288   7.976   4.878  10.142  0.0924  1.0578 -0.8179
  640MOL0     H88289   7.927   4.822   9.988 -0.9772  1.5035  0.1571
  640MOL0     H88290   8.121   4.955   9.970 -0.3440 -0.2897  0.3813
  640MOL0     H88291   8.148   4.797   9.904  0.5012  1.0802 -0.4596
  640MOL0     H88292   8.261   4.864  10.165 -2.8438  1.2331 -0.6836
  640MOL0     H88293   8.285   4.718  10.063  2.5201 -0.2510 -0.7498
  640MOL0     H88294   8.368   5.006  10.011  0.2562 -0.5601  3.8152
  640MOL0     H88295   8.390   4.875   9.887 -0.7810 -0.2280 -0.3396
  640MOL0     H88296   8.528   4.748  10.000 -0.3317 -2.5500  2.5904
  640MOL0     H88297   8.500   4.830  10.166 -3.3578 -0.1067 -0.7914
  640MOL0     H88298   8.597   5.039  10.074 -0.5559  0.8072  1.3216
  640MOL0     H88299   8.619   4.938   9.928 -1.4077 -1.6781  0.6617
  640MOL0     H88300   7.852   4.360  10.468  0.2582 -3.8297  0.5759
  640MOL0     H88301   7.850   4.121  10.428  1.0797 -0.3850  0.9504
  640MOL0     H88302   7.628   3.722  10.376 -0.5839  1.2330 -1.0476
  640MOL0     H88303   7.688   3.497  10.381  2.0522 -2.9629  0.0184
  640MOL0     H88304   7.329   4.324  10.758 -4.0370 -0.2132  0.4414
  640MOL0     H88305   7.116   4.421  10.832  0.0267 -2.2151 -1.3615
  640MOL0     H88306   6.982   4.747  11.202 -1.5418 -0.3187  2.0161
  640MOL0     H88307   6.775   4.810  11.299  2.2731 -0.6331  0.7405
  640MOL0     H88308   6.581   4.846  11.370 -2.0648  0.9252  2.2043
  640MOL0     H88309   6.413   4.877  11.308  2.1337  2.7832  0.2441
  640MOL0     H88310   6.480   4.670  11.453  1.1532 -1.3332  0.5944
  640MOL0     H88311   6.546   4.613  11.308 -1.9694 -2.3609  2.6731
  640MOL0     H88312   6.345   4.658  11.178  2.1214  0.1084  0.3527
  640MOL0     H88313   6.332   4.521  11.287  0.8673 -0.2129  0.2594
  640MOL0     H88314   6.129   4.630  11.299 -0.8468  0.1914  0.2614
  640MOL0     H88315   6.207   4.791  11.297 -0.7513 -0.1647 -1.1946
  640MOL0     H88316   6.206   4.672  11.706  1.9832 -0.1326  0.2516
  640MOL0     H88317   6.583   4.801  10.915  0.5675  1.4032 -0.5229
  640MOL0     H88318   6.847   4.751  10.702 -1.6567 -1.8279 -2.7567
  640MOL0     H88319   6.804   4.588  10.753 -3.1605 -1.7293  2.1470
  640MOL0     H88320   6.679   4.708  10.740  0.2753 -0.5858 -2.7698
  641MOL0     O88321   1.989  10.597   3.498  0.0565  0.9065 -0.6892
  641MOL0     C88322   1.908  10.677   3.451 -0.3171 -0.8273 -0.2009
  641MOL0     O88323   1.946  10.786   3.382  0.3747 -0.1724  0.2726
  641MOL0     C88324   2.080  10.813   3.366  0.1592 -0.6107  0.2214
  641MOL0     C88325   2.162  10.813   3.483 -0.3126  0.1326  0.5904
  641MOL0     C88326   2.305  10.839   3.475 -0.1466 -0.1403 -0.0438
  641MOL0     C88327   2.359  10.850   3.348 -0.2963  0.0543 -0.0160
  641MOL0     O88328   2.487  10.873   3.315 -0.5612 -0.1945 -0.4512
  641MOL0     C88329   2.571  10.936   3.410  0.2266 -0.1677  0.1334
  641MOL0     C88330   2.700  10.995   3.335 -0.2626 -0.3894 -0.5928
  641MOL0     C88331   2.760  11.124   3.408 -0.1652 -0.6565  0.2013
  641MOL0     C88332   2.847  11.209   3.320  0.3953 -0.1702  0.6967
  641MOL0     C88333   2.930  11.316   3.400 -0.5580  0.7431  0.4172
  641MOL0     C88334   3.035  11.377   3.323 -0.1394  0.6661  0.9001
  641MOL0     C88335   3.143  11.450   3.406 -0.3344  0.4597  0.7205
  641MOL0     C88336   3.091  11.573   3.486  0.2601 -0.4152  0.1034
  641MOL0     N88337   3.157  11.578   3.621  0.5518 -0.1468  0.3755
  641MOL0     C88338   3.256  11.666   3.658  0.4574  0.0764  0.1993
  641MOL0     C88339   3.266  11.648   3.793  0.2019  0.3707  0.7113
  641MOL0     C88340   3.360  11.717   3.879 -0.3026 -0.4176  0.1028
  641MOL0     C88341   3.493  11.638   3.900 -0.2383 -0.0125  0.1953
  641MOL0     C88342   3.593  11.720   3.988  0.1840  0.1763 -0.7643
  641MOL0     C88343   3.746  11.663   3.992  0.5906 -0.1513 -0.0899
  641MOL0     O88344   3.830  11.741   4.085 -0.2662 -0.3679 -0.8546
  641MOL0     C88345   3.961  11.721   4.076 -0.4629  1.0523 -0.6664
  641MOL0     C88346   4.027  11.611   4.016  0.5276  0.2349  0.0539
  641MOL0     C88347   4.159  11.595   4.031 -0.4757  0.1204 -0.2896
  641MOL0     C88348   4.224  11.471   3.973 -1.0854  0.5930 -0.3027
  641MOL0     C88349   4.248  11.684   4.101 -0.1988  0.3675 -0.0060
  641MOL0     C88350   4.401  11.674   4.111 -0.4630  0.0822  0.0853
  641MOL0     O88351   4.458  11.751   4.209 -0.0188 -0.4001  0.1367
  641MOL0     C88352   4.594  11.750   4.237 -0.8072 -0.4387  0.7127
  641MOL0     C88353   4.694  11.747   4.139 -0.3760  0.5092 -0.3993
  641MOL0     C88354   4.836  11.746   4.174  0.0206  0.0966  0.4435
  641MOL0     C88355   4.873  11.748   4.308  0.2729  0.9095  0.6589
  641MOL0     O88356   5.007  11.742   4.337 -0.5479  0.3635  0.1683
  641MOL0     C88357   5.054  11.708   4.467 -0.3760  0.1763  0.7631
  641MOL0     C88358   5.157  11.810   4.494 -0.0509  0.2517 -0.4385
  641MOL0     C88359   5.090  11.943   4.545 -0.0398 -0.6610  0.0523
  641MOL0     C88360   5.183  12.064   4.557 -0.4864  0.1974 -0.9453
  641MOL0     C88361   5.274  12.047   4.682  0.8202  0.6043 -0.4167
  641MOL0     C88362   5.388  12.141   4.681 -0.3999 -0.6787  0.1240
  641MOL0     C88363   5.466  12.158   4.816  0.3835  0.5450 -0.4908
  641MOL0     C88364   5.402  12.235   4.924 -0.5007 -0.4358  0.2004
  641MOL0    Cl88365   5.523  12.326   5.025 -0.1907 -0.0356  0.3466
  641MOL0     C88366   4.779  11.743   4.405  0.8919 -0.1254  0.2787
  641MOL0     C88367   4.642  11.758   4.366 -0.3001 -0.1629 -0.5476
  641MOL0     O88368   4.460  11.580   4.065  0.9643 -0.2698  0.0366
  641MOL0     C88369   4.182  11.799   4.153  0.4662  0.5253 -0.5879
  641MOL0     C88370   4.040  11.820   4.149 -0.1567 -0.2240  0.0825
  641MOL0     N88371   3.185  11.534   3.824 -0.1102 -0.1960 -0.3820
  641MOL0     N88372   3.118  11.497   3.720  0.1582 -0.6759 -0.4692
  641MOL0     C88373   2.280  10.854   3.230 -0.5800  0.7512  0.1424
  641MOL0     C88374   2.141  10.835   3.241  0.4078  1.0850 -0.1172
  641MOL0     C88375   1.760  10.646   3.465 -0.4047  0.0851  0.0356
  641MOL0     C88376   1.668  10.702   3.369 -0.2575 -0.7995  0.2084
  641MOL0     C88377   1.535  10.663   3.373  0.4887  0.2405 -0.7074
  641MOL0     C88378   1.484  10.573   3.469  0.8885  0.3675  0.0158
  641MOL0     O88379   1.354  10.530   3.465  0.2397 -0.2523 -0.0587
  641MOL0     C88380   1.298  10.437   3.557 -0.9032 -0.9981 -0.7303
  641MOL0     C88381   1.145  10.434   3.543 -0.7638  0.6172 -0.2910
  641MOL0     C88382   1.077  10.572   3.547  0.1283  0.5477 -0.1036
  641MOL0     C88383   0.928  10.544   3.515  0.4620  0.1759 -0.0123
  641MOL0     C88384   0.828  10.613   3.599 -0.5261 -0.4296  1.1869
  641MOL0     C88385   0.750  10.671   3.662  0.0899 -0.4807 -0.3008
  641MOL0     C88386   1.576  10.533   3.565 -0.0728 -0.2083 -0.3739
  641MOL0     C88387   1.711  10.564   3.570  0.6118 -0.1790  0.2774
  641MOL0     C88388   1.785  10.521   3.685  0.5533  0.0562 -0.5512
  641MOL0     H88389   2.108  10.791   3.575  0.9630  0.2800  1.3918
  641MOL0     H88390   2.357  10.858   3.568 -3.4501 -1.1416  2.2101
  641MOL0     H88391   2.603  10.851   3.471  3.4074  0.5907 -0.3022
  641MOL0     H88392   2.506  11.006   3.462 -2.6989 -1.1745 -1.9377
  641MOL0     H88393   2.772  10.913   3.327 -2.6116 -2.6916  0.6038
  641MOL0     H88394   2.671  11.022   3.233  0.0595  0.0505 -0.5711
  641MOL0     H88395   2.683  11.195   3.439 -0.1935  0.4959 -2.2407
  641MOL0     H88396   2.824  11.097   3.492  2.2352  4.7527  0.5261
  641MOL0     H88397   2.921  11.140   3.278 -0.2553 -1.0036  0.8876
  641MOL0     H88398   2.789  11.247   3.236 -1.8302 -1.1812  1.7000
  641MOL0     H88399   2.979  11.265   3.483  0.8393  3.1584  1.1748
  641MOL0     H88400   2.858  11.391   3.435 -1.0964 -0.1368  1.2627
  641MOL0     H88401   3.092  11.319   3.250  1.4068  3.1077  0.0487
  641MOL0     H88402   2.991  11.458   3.265 -1.0336  0.2755  1.0129
  641MOL0     H88403   3.223  11.484   3.339 -0.2915  1.7348  1.4039
  641MOL0     H88404   3.195  11.374   3.466 -4.0684 -2.4449  0.6703
  641MOL0     H88405   3.114  11.669   3.439  0.0810 -0.2080  0.4314
  641MOL0     H88406   2.984  11.579   3.509  0.1049  2.3021 -0.9611
  641MOL0     H88407   3.304  11.742   3.597 -1.6213  1.0606 -0.3375
  641MOL0     H88408   3.319  11.723   3.980 -1.9450  1.5285 -0.6077
  641MOL0     H88409   3.380  11.812   3.829 -0.4324  0.2397  1.2623
  641MOL0     H88410   3.472  11.545   3.953 -1.5747  0.5881  0.7790
  641MOL0     H88411   3.542  11.630   3.803  1.2761  1.3788  0.7915
  641MOL0     H88412   3.607  11.823   3.951 -0.8394  0.9502  0.8983
  641MOL0     H88413   3.570  11.731   4.094 -1.2739  1.2828 -1.1663
  641MOL0     H88414   3.757  11.560   4.026 -0.3264 -0.0907  0.4454
  641MOL0     H88415   3.775  11.694   3.891 -3.2147  0.2059 -1.2592
  641MOL0     H88416   3.971  11.547   3.948  0.0804 -0.4817  1.0575
  641MOL0     H88417   4.283  11.511   3.890  0.2050  0.1418  0.3689
  641MOL0     H88418   4.150  11.401   3.934 -1.5611  1.5181 -1.1240
  641MOL0     H88419   4.292  11.410   4.032 -1.3304 -1.1353 -1.7322
  641MOL0     H88420   4.650  11.752   4.040 -0.8858  0.9267 -0.1619
  641MOL0     H88421   4.914  11.745   4.099 -0.6409 -0.4837 -0.2460
  641MOL0     H88422   4.981  11.700   4.548 -0.6997 -1.5838  0.3288
  641MOL0     H88423   5.090  11.606   4.450 -1.9599  0.0751 -3.4214
  641MOL0     H88424   5.215  11.777   4.581 -0.9249 -1.2023 -0.3741
  641MOL0     H88425   5.220  11.822   4.406  0.5268 -0.7464 -0.1794
  641MOL0     H88426   5.031  11.939   4.637  0.0828  0.3492  0.1862
  641MOL0     H88427   5.016  11.972   4.471  0.5815 -1.7604 -1.0482
  641MOL0     H88428   5.122  12.151   4.578 -0.0516  0.0323  1.2632
  641MOL0     H88429   5.247  12.084   4.470 -1.3295 -2.3853 -2.2926
  641MOL0     H88430   5.207  12.065   4.767  3.1331  0.2286  1.6017
  641MOL0     H88431   5.307  11.943   4.691 -1.1970  0.0644  2.0404
  641MOL0     H88432   5.357  12.234   4.633 -2.4820 -0.9319  0.8731
  641MOL0     H88433   5.462  12.097   4.613  1.3361  3.5328 -1.0714
  641MOL0     H88434   5.559  12.212   4.797 -0.6562  1.8486 -2.3048
  641MOL0     H88435   5.491  12.057   4.849 -3.1112 -0.8063 -1.5322
  641MOL0     H88436   5.330  12.167   4.970 -0.9203  0.6316  1.1652
  641MOL0     H88437   5.338  12.314   4.884 -1.7929 -1.5520 -0.0181
  641MOL0     H88438   4.806  11.708   4.505  1.2604 -2.9538 -0.7187
  641MOL0     H88439   4.566  11.747   4.443 -1.5120 -1.2745 -1.8425
  641MOL0     H88440   4.241  11.873   4.205 -0.6825  0.3574  1.0223
  641MOL0     H88441   3.994  11.905   4.198  0.3833 -0.2258  0.6042
  641MOL0     H88442   2.319  10.876   3.132 -0.0167  0.7310  0.3597
  641MOL0     H88443   2.088  10.838   3.146  1.4440  1.1854 -0.7070
  641MOL0     H88444   1.701  10.766   3.288  2.2551 -2.9297 -0.6181
  641MOL0     H88445   1.465  10.708   3.304 -0.8693 -1.2668 -0.3843
  641MOL0     H88446   1.343  10.339   3.535 -0.0226 -1.1937  1.6000
  641MOL0     H88447   1.309  10.470   3.661  1.5827 -0.6802 -1.0382
  641MOL0     H88448   1.102  10.375   3.624 -0.5214  1.2883  0.3378
  641MOL0     H88449   1.123  10.382   3.449  0.4678  0.8427 -0.7278
  641MOL0     H88450   1.094  10.627   3.640  1.5900 -0.6408  0.3590
  641MOL0     H88451   1.110  10.635   3.464 -0.0743 -2.5610 -2.7306
  641MOL0     H88452   0.908  10.438   3.530 -1.2182  0.3160 -0.9562
  641MOL0     H88453   0.910  10.569   3.410  1.3299 -1.1437 -0.4873
  641MOL0     H88454   0.682  10.719   3.730  2.1695  1.5531  0.4768
  641MOL0     H88455   1.544  10.471   3.648  1.3383 -1.2668 -0.5719
  641MOL0     H88456   1.868  10.455   3.658  1.7648  1.2551  0.1513
  641MOL0     H88457   1.816  10.609   3.742  0.9282 -1.2693  1.3887
  641MOL0     H88458   1.721  10.466   3.754  1.7297  0.8623  1.2371
  642MOL0     O88459   3.498   5.835   1.614 -0.2672  0.4538  0.4340
  642MOL0     C88460   3.413   5.804   1.692 -0.0524 -0.7148 -0.2449
  642MOL0     O88461   3.409   5.845   1.830 -0.3115  0.4870 -0.4971
  642MOL0     C88462   3.528   5.911   1.857 -0.0596 -0.6984  0.3020
  642MOL0     C88463   3.541   6.047   1.852  0.9822  0.3809  0.6806
  642MOL0     C88464   3.646   6.105   1.905  0.1370 -0.6950 -0.1978
  642MOL0     C88465   3.747   6.038   1.972 -0.2448  0.0547 -0.3716
  642MOL0     O88466   3.843   6.125   2.036 -0.0922  0.1536  0.5198
  642MOL0     C88467   3.926   6.057   2.143 -0.2613 -0.0652  0.6779
  642MOL0     C88468   4.053   5.995   2.080 -0.0267  0.9273 -0.3443
  642MOL0     C88469   4.141   5.912   2.172  0.5248  0.5900 -0.5552
  642MOL0     C88470   4.283   5.892   2.117 -0.6917 -0.5882  0.5596
  642MOL0     C88471   4.347   5.769   2.181 -1.0161  0.1660 -0.6876
  642MOL0     C88472   4.506   5.767   2.180  0.7148 -0.2638  0.7755
  642MOL0     C88473   4.547   5.633   2.232  0.0521 -0.4175 -0.0479
  642MOL0     C88474   4.695   5.602   2.187  0.1379  0.1952  0.7037
  642MOL0     N88475   4.789   5.701   2.238 -0.2526  0.0741 -0.6413
  642MOL0     C88476   4.840   5.689   2.366  0.1441 -1.0000  0.3996
  642MOL0     C88477   4.920   5.794   2.377  0.1864  0.0067  0.4243
  642MOL0     C88478   4.981   5.826   2.506 -0.1119  0.0797 -0.7567
  642MOL0     C88479   5.132   5.807   2.525  0.0719  0.4674  1.3431
  642MOL0     C88480   5.161   5.657   2.505  0.0810 -0.6711  0.0314
  642MOL0     C88481   5.310   5.647   2.502  0.3415  1.1057  0.2131
  642MOL0     O88482   5.364   5.668   2.631 -0.4296  0.0507  0.0092
  642MOL0     C88483   5.504   5.688   2.632 -0.2040 -0.6819  0.2101
  642MOL0     C88484   5.593   5.588   2.601  0.1675 -0.3674  0.3089
  642MOL0     C88485   5.735   5.607   2.606 -0.2030 -0.5254  0.0234
  642MOL0     C88486   5.816   5.485   2.569  0.8903  0.8301  0.1639
  642MOL0     C88487   5.785   5.738   2.642  0.4525  0.0734 -0.2645
  642MOL0     C88488   5.926   5.786   2.656  0.5361 -0.1683  0.2554
  642MOL0     O88489   6.001   5.679   2.640 -0.4381  0.4629 -0.6566
  642MOL0     C88490   6.138   5.694   2.635  0.0170  0.5162 -0.0283
  642MOL0     C88491   6.218   5.752   2.742  0.0374  1.2567  0.1209
  642MOL0     C88492   6.357   5.736   2.741  0.0455 -0.1367  0.3036
  642MOL0     C88493   6.418   5.673   2.636 -0.4671 -0.3171  0.0565
  642MOL0     O88494   6.544   5.623   2.645 -0.4860 -0.4547  0.0918
  642MOL0     C88495   6.652   5.698   2.711  0.1806  0.1514  0.7786
  642MOL0     C88496   6.793   5.643   2.687  0.0921 -0.0287 -0.8637
  642MOL0     C88497   6.909   5.708   2.761 -0.2290  0.2632 -0.1767
  642MOL0     C88498   7.025   5.601   2.792  0.3422 -0.6468  0.2692
  642MOL0     C88499   7.160   5.666   2.784  0.3087 -0.8204 -0.5442
  642MOL0     C88500   7.264   5.565   2.826 -0.3499  0.6488  0.3475
  642MOL0     C88501   7.391   5.620   2.777 -0.3172  0.8650 -0.1270
  642MOL0     C88502   7.505   5.514   2.770 -0.1590  0.2106  0.2073
  642MOL0    Cl88503   7.477   5.420   2.624 -0.2512  0.3476 -0.1074
  642MOL0     C88504   6.350   5.631   2.519  0.4484  0.0101 -0.8294
  642MOL0     C88505   6.210   5.635   2.520  0.0538  0.2184  1.1719
  642MOL0     O88506   5.970   5.896   2.696  0.2444 -0.2001 -0.4610
  642MOL0     C88507   5.684   5.836   2.668 -0.2621 -0.6736  0.2112
  642MOL0     C88508   5.549   5.814   2.671 -0.4315  0.9346  0.5800
  642MOL0     N88509   4.929   5.866   2.259  0.1457 -0.1690 -0.2009
  642MOL0     N88510   4.852   5.803   2.171 -0.5469  0.3005  0.4020
  642MOL0     C88511   3.746   5.903   1.968  0.3426 -0.6662  0.2684
  642MOL0     C88512   3.636   5.839   1.911  0.4116 -0.5495 -0.3138
  642MOL0     C88513   3.297   5.728   1.637  0.3781  0.9204  0.1617
  642MOL0     C88514   3.214   5.667   1.738  0.0560  0.0893 -0.1564
  642MOL0     C88515   3.114   5.573   1.704  0.9780 -0.3774  0.6326
  642MOL0     C88516   3.096   5.531   1.570 -0.4645 -0.2398  0.9579
  642MOL0     O88517   2.989   5.451   1.546  0.2279  0.4170  0.0237
  642MOL0     C88518   2.934   5.431   1.414  0.4222 -0.2041 -0.1190
  642MOL0     C88519   2.852   5.553   1.363 -0.0899  0.6839  0.6938
  642MOL0     C88520   2.728   5.579   1.441  0.3664  0.0091  0.0682
  642MOL0     C88521   2.641   5.708   1.391  0.6374 -0.5596  0.6968
  642MOL0     C88522   2.585   5.676   1.255  0.3380 -0.6901  0.9058
  642MOL0     C88523   2.557   5.648   1.136 -0.7313  0.0778  0.1037
  642MOL0     C88524   3.174   5.594   1.466 -0.7402  0.3801 -0.0575
  642MOL0     C88525   3.274   5.691   1.497 -0.1869 -0.1268  0.1378
  642MOL0     C88526   3.364   5.725   1.377 -1.1415 -0.1543 -0.3292
  642MOL0     H88527   3.453   6.095   1.810 -2.2202 -3.5416  2.0964
  642MOL0     H88528   3.653   6.213   1.902  0.7656 -0.7386 -2.2519
  642MOL0     H88529   3.868   5.979   2.193  2.6587 -2.9015 -0.0697
  642MOL0     H88530   3.963   6.127   2.219 -1.1531  0.7509  0.3806
  642MOL0     H88531   4.017   5.914   2.016 -0.2113 -0.1234  1.0349
  642MOL0     H88532   4.120   6.068   2.034  1.8668 -0.9298 -0.7126
  642MOL0     H88533   4.146   5.954   2.272  2.0974 -1.2244  0.2017
  642MOL0     H88534   4.100   5.813   2.192  2.8404 -0.2112  0.5869
  642MOL0     H88535   4.277   5.885   2.008 -0.9070  2.1181  0.3340
  642MOL0     H88536   4.353   5.971   2.144 -0.0674 -1.3359  1.1691
  642MOL0     H88537   4.311   5.685   2.121  0.3339 -1.1518  0.2510
  642MOL0     H88538   4.325   5.771   2.288  3.7190 -0.8598  0.5278
  642MOL0     H88539   4.541   5.779   2.077 -2.0212 -0.1667 -0.2485
  642MOL0     H88540   4.547   5.845   2.245 -0.2497  1.0491 -0.1268
  642MOL0     H88541   4.483   5.553   2.194  3.0144 -1.0640 -4.2885
  642MOL0     H88542   4.544   5.632   2.342  0.5157  0.0054 -0.0255
  642MOL0     H88543   4.719   5.507   2.235  3.3599  1.4133  1.7613
  642MOL0     H88544   4.711   5.590   2.079  0.6830  0.3198  0.7662
  642MOL0     H88545   4.821   5.610   2.438 -2.9562 -1.3197 -0.6285
  642MOL0     H88546   4.931   5.776   2.590 -1.4522  1.2836 -0.8019
  642MOL0     H88547   4.953   5.927   2.536  0.8401 -0.6556  3.1447
  642MOL0     H88548   5.179   5.847   2.435 -1.4597 -1.7727 -0.5548
  642MOL0     H88549   5.166   5.859   2.615  2.1165  0.0632  0.8555
  642MOL0     H88550   5.122   5.611   2.596  0.2503  0.6082  0.7761
  642MOL0     H88551   5.121   5.613   2.413  0.4690 -0.9513 -0.0052
  642MOL0     H88552   5.348   5.548   2.478  0.3927  1.0973  0.3260
  642MOL0     H88553   5.350   5.710   2.422  1.6373  1.9434  1.4619
  642MOL0     H88554   5.556   5.487   2.587 -2.0688  0.5817 -1.1891
  642MOL0     H88555   5.900   5.497   2.500  1.7665 -2.3305  0.5410
  642MOL0     H88556   5.752   5.411   2.521 -0.7581  1.4805  1.2427
  642MOL0     H88557   5.858   5.438   2.658  0.4299 -1.5461 -0.8083
  642MOL0     H88558   6.172   5.783   2.836 -0.4018 -0.3823  0.4880
  642MOL0     H88559   6.419   5.763   2.826  0.8430  0.2172 -0.3731
  642MOL0     H88560   6.659   5.795   2.660 -1.3983  0.9393  1.9712
  642MOL0     H88561   6.624   5.707   2.817 -1.4124  0.5548  0.3442
  642MOL0     H88562   6.796   5.538   2.719 -1.0599  0.7422  2.0813
  642MOL0     H88563   6.804   5.648   2.578  0.5227  0.4187 -0.7959
  642MOL0     H88564   6.865   5.732   2.858 -1.3358  2.1929 -1.0877
  642MOL0     H88565   6.934   5.804   2.715  1.0271 -0.0375 -0.1491
  642MOL0     H88566   7.025   5.516   2.723  2.6700  0.0120 -0.6326
  642MOL0     H88567   7.017   5.564   2.894 -1.5108 -2.3924 -0.4463
  642MOL0     H88568   7.179   5.689   2.679  2.4278 -1.6637 -0.3896
  642MOL0     H88569   7.165   5.751   2.852 -0.3379 -0.9963 -0.2699
  642MOL0     H88570   7.233   5.471   2.780 -1.2819  1.1033  0.0407
  642MOL0     H88571   7.268   5.548   2.934  1.7979  2.0695  0.5509
  642MOL0     H88572   7.424   5.711   2.829  0.1703  1.1869 -0.9816
  642MOL0     H88573   7.374   5.651   2.673 -0.5705 -2.7098 -1.2824
  642MOL0     H88574   7.499   5.457   2.864 -0.0429  0.1246  0.1628
  642MOL0     H88575   7.603   5.562   2.764 -1.2491  2.5833  0.1917
  642MOL0     H88576   6.412   5.591   2.440  0.1164  1.7616 -2.0253
  642MOL0     H88577   6.143   5.613   2.438 -1.3276 -1.2341  2.5947
  642MOL0     H88578   5.715   5.938   2.687  0.5369 -0.1682 -3.2310
  642MOL0     H88579   5.481   5.891   2.705 -1.3360 -0.4263  1.9893
  642MOL0     H88580   3.827   5.846   2.012  2.3954  1.8818  0.0139
  642MOL0     H88581   3.617   5.734   1.930 -2.2805 -0.2957 -1.1632
  642MOL0     H88582   3.239   5.679   1.843 -2.0558  1.2422  0.2696
  642MOL0     H88583   3.048   5.527   1.776 -0.9202 -1.6672 -1.7833
  642MOL0     H88584   3.015   5.400   1.348  0.1069  0.5526 -0.8836
  642MOL0     H88585   2.858   5.352   1.414  1.1932 -0.9913 -1.5915
  642MOL0     H88586   2.826   5.531   1.259  0.6117  0.3991  0.5773
  642MOL0     H88587   2.904   5.650   1.364 -1.2811  1.4177 -1.5635
  642MOL0     H88588   2.670   5.487   1.453 -1.7976  0.8044 -2.8892
  642MOL0     H88589   2.763   5.617   1.537 -3.4083 -0.5315  1.8371
  642MOL0     H88590   2.699   5.801   1.386 -0.2635 -0.0261 -2.6883
  642MOL0     H88591   2.557   5.731   1.457  0.1719  1.3201 -0.4633
  642MOL0     H88592   2.520   5.626   1.038 -2.3885 -0.1051  0.7354
  642MOL0     H88593   3.166   5.570   1.361 -0.4049  1.1191 -0.2575
  642MOL0     H88594   3.330   5.676   1.285 -0.5659 -1.0382 -0.0857
  642MOL0     H88595   3.381   5.832   1.366 -1.2518 -0.0291  0.6343
  642MOL0     H88596   3.462   5.682   1.402 -1.3344  1.1654  3.2324
  643MOL0     O88597   4.953   5.225   6.186  0.4839 -0.1112 -0.4568
  643MOL0     C88598   4.964   5.189   6.067 -0.2434  0.3400 -0.9295
  643MOL0     O88599   5.087   5.180   6.013  0.4464  0.3193  0.3857
  643MOL0     C88600   5.212   5.208   6.076  0.2844  0.3917  0.6309
  643MOL0     C88601   5.326   5.148   6.015  0.5800  0.2036 -0.5823
  643MOL0     C88602   5.457   5.173   6.052  0.3660 -0.3870 -1.0185
  643MOL0     C88603   5.475   5.267   6.153  0.5275 -0.1438  0.1079
  643MOL0     O88604   5.602   5.307   6.188  0.4619  0.4397  0.0157
  643MOL0     C88605   5.681   5.360   6.092 -1.1444 -0.5379  0.1090
  643MOL0     C88606   5.775   5.452   6.170 -0.2401 -1.1753 -0.7101
  643MOL0     C88607   5.878   5.509   6.075 -0.4214 -0.1752 -0.3907
  643MOL0     C88608   5.958   5.623   6.148  1.1894  0.0984  0.2249
  643MOL0     C88609   6.090   5.669   6.079 -1.0548 -0.7770  0.7600
  643MOL0     C88610   6.175   5.742   6.184  0.3301 -0.8050 -1.1456
  643MOL0     C88611   6.311   5.788   6.134 -0.2072  0.8186  0.5982
  643MOL0     C88612   6.301   5.913   6.067  0.1052  0.1955  0.2738
  643MOL0     N88613   6.430   5.976   6.029 -0.1157  0.3222 -0.3354
  643MOL0     C88614   6.479   5.995   5.907 -0.3427  0.1788 -0.5544
  643MOL0     C88615   6.600   6.056   5.918  0.6654  0.4997  0.6136
  643MOL0     C88616   6.683   6.094   5.808 -0.2765  0.2908 -0.0361
  643MOL0     C88617   6.817   6.027   5.809  0.3125 -0.4280  0.4870
  643MOL0     C88618   6.915   6.034   5.691 -0.4398  0.2695  0.4046
  643MOL0     C88619   7.041   5.947   5.706 -0.8855  0.0664 -0.3339
  643MOL0     O88620   6.998   5.815   5.671  0.1768 -0.6890 -0.6417
  643MOL0     C88621   7.095   5.726   5.619  0.7611 -0.6535 -0.1008
  643MOL0     C88622   7.048   5.595   5.629  0.8946  0.1523  0.5102
  643MOL0     C88623   7.135   5.492   5.599  0.4661  0.4663 -0.7816
  643MOL0     C88624   7.078   5.348   5.623 -0.5897  0.0360  0.1728
  643MOL0     C88625   7.260   5.517   5.553 -0.0382 -1.2699 -0.4547
  643MOL0     C88626   7.367   5.414   5.530 -0.7238  0.3111 -0.1156
  643MOL0     O88627   7.467   5.462   5.450 -0.8116  0.6750 -0.8467
  643MOL0     C88628   7.591   5.400   5.456 -0.7120  0.0766 -0.8683
  643MOL0     C88629   7.714   5.481   5.485 -0.0421  0.0494 -1.0010
  643MOL0     C88630   7.837   5.420   5.506 -0.2050 -0.0496  0.0895
  643MOL0     C88631   7.855   5.284   5.509 -0.5032  0.0641  0.3266
  643MOL0     O88632   7.975   5.232   5.541  0.3377 -0.1620  0.4335
  643MOL0     C88633   7.976   5.192   5.679 -0.1769  0.8303 -0.0627
  643MOL0     C88634   8.120   5.135   5.733  0.8770 -0.4088  0.2600
  643MOL0     C88635   8.239   5.227   5.721 -0.8609 -0.2765  0.1763
  643MOL0     C88636   8.208   5.365   5.775 -0.6671 -0.1224  0.1130
  643MOL0     C88637   8.338   5.442   5.809  0.7916 -0.2987 -0.6716
  643MOL0     C88638   8.366   5.407   5.954 -0.0777 -0.5355  0.0429
  643MOL0     C88639   8.501   5.486   5.986 -0.0587  0.3880  0.0431
  643MOL0     C88640   8.563   5.456   6.116  1.0471  0.3739  0.1430
  643MOL0    Cl88641   8.724   5.527   6.096  0.1681  0.2032 -0.2568
  643MOL0     C88642   7.741   5.202   5.489 -0.0091  0.6551  0.2072
  643MOL0     C88643   7.615   5.258   5.455  0.7418  0.2925  1.0140
  643MOL0     O88644   7.365   5.305   5.591  0.4850 -0.0473  0.1556
  643MOL0     C88645   7.302   5.657   5.536 -0.1237  1.0200  0.1586
  643MOL0     C88646   7.225   5.767   5.571 -0.0286 -0.3058  0.0013
  643MOL0     N88647   6.631   6.070   6.052  0.4758 -0.4048 -0.3401
  643MOL0     N88648   6.525   6.025   6.119 -0.2588  0.3258  0.9418
  643MOL0     C88649   5.366   5.329   6.212  0.2696 -0.4162 -0.2331
  643MOL0     C88650   5.238   5.308   6.174  0.0612 -0.7845  0.0042
  643MOL0     C88651   4.833   5.147   5.991  0.2452  0.1616  0.0421
  643MOL0     C88652   4.713   5.161   6.051  0.3191  0.0629 -0.3831
  643MOL0     C88653   4.593   5.134   5.989 -0.7134 -0.3654 -1.1482
  643MOL0     C88654   4.596   5.080   5.865 -0.4764 -0.3422  0.6325
  643MOL0     O88655   4.475   5.051   5.795 -0.2874 -0.0915  0.5528
  643MOL0     C88656   4.357   5.037   5.874  0.2743 -0.5068  0.6395
  643MOL0     C88657   4.241   4.983   5.789  1.1461  0.3038  0.6362
  643MOL0     C88658   4.111   4.972   5.876 -0.7810  1.1277  0.2652
  643MOL0     C88659   3.992   4.920   5.795 -0.0459  0.0614 -0.2825
  643MOL0     C88660   3.865   4.915   5.869  0.1166 -0.5736  0.1580
  643MOL0     C88661   3.767   4.921   5.931 -0.4003  0.3086  0.3247
  643MOL0     C88662   4.712   5.082   5.793 -0.3545  0.7488 -0.3877
  643MOL0     C88663   4.841   5.116   5.855  0.4377 -0.1123 -0.4802
  643MOL0     C88664   4.964   5.093   5.767  0.1193 -0.0613  0.2266
  643MOL0     H88665   5.315   5.087   5.925 -1.0269 -0.0055 -0.2753
  643MOL0     H88666   5.548   5.126   6.015  1.6400  1.5875 -0.5627
  643MOL0     H88667   5.622   5.413   6.016 -1.7503 -0.6835  0.4693
  643MOL0     H88668   5.738   5.278   6.047  1.1461  1.0176  0.0322
  643MOL0     H88669   5.716   5.532   6.215 -0.0188 -0.5180 -1.5596
  643MOL0     H88670   5.822   5.391   6.248  3.0264  1.5000 -0.3644
  643MOL0     H88671   5.932   5.428   6.025 -0.0987  0.2024 -0.6544
  643MOL0     H88672   5.828   5.571   6.001 -1.3255 -1.4958 -0.9349
  643MOL0     H88673   5.884   5.702   6.162 -0.6046 -1.3309 -0.7265
  643MOL0     H88674   5.975   5.590   6.251  1.2053 -2.0594 -0.4272
  643MOL0     H88675   6.072   5.739   5.997 -0.4023  0.7172  1.8301
  643MOL0     H88676   6.144   5.579   6.050 -0.4456 -0.6251  1.4059
  643MOL0     H88677   6.121   5.820   6.240  2.4477 -1.3954  2.0137
  643MOL0     H88678   6.198   5.668   6.261 -2.0120 -0.1959  0.2434
  643MOL0     H88679   6.353   5.712   6.067  1.8204  1.9339  0.5180
  643MOL0     H88680   6.381   5.797   6.218  0.5421  0.8432 -0.0096
  643MOL0     H88681   6.250   5.890   5.972  0.5812  0.3750 -0.0296
  643MOL0     H88682   6.234   5.987   6.112  0.2599  1.1999 -1.0822
  643MOL0     H88683   6.437   5.959   5.813 -2.0630  0.0626  0.2306
  643MOL0     H88684   6.695   6.203   5.809 -0.9328  0.3673  0.8166
  643MOL0     H88685   6.629   6.082   5.714 -3.0388  2.8203  1.0734
  643MOL0     H88686   6.861   6.063   5.903 -0.4343 -0.7876  0.9894
  643MOL0     H88687   6.812   5.920   5.830  4.6305 -0.8226  0.4350
  643MOL0     H88688   6.862   6.013   5.598  1.2227 -0.7071 -0.3806
  643MOL0     H88689   6.952   6.135   5.674 -1.9821  0.8671  0.5130
  643MOL0     H88690   7.127   5.986   5.651  0.4516 -2.6300 -0.3114
  643MOL0     H88691   7.067   5.941   5.812  0.2687 -0.9754 -0.6590
  643MOL0     H88692   6.942   5.574   5.637  0.9974 -0.1450  1.1107
  643MOL0     H88693   7.068   5.300   5.525 -3.1579  0.3674  0.1982
  643MOL0     H88694   6.977   5.352   5.664 -0.6481 -1.7268  0.2985
  643MOL0     H88695   7.138   5.279   5.683  1.0405  0.4829 -0.8920
  643MOL0     H88696   7.695   5.588   5.486 -0.8594 -0.0953 -0.1704
  643MOL0     H88697   7.928   5.479   5.519  0.4729 -0.9263 -0.5464
  643MOL0     H88698   7.933   5.273   5.737  0.2328 -0.5058  2.2463
  643MOL0     H88699   7.904   5.110   5.685  0.6389 -0.0393 -1.4557
  643MOL0     H88700   8.121   5.092   5.834 -0.4000 -1.4327 -0.1371
  643MOL0     H88701   8.136   5.046   5.672 -1.3279 -1.3613  0.9610
  643MOL0     H88702   8.268   5.235   5.616 -1.5808 -1.6083 -0.1427
  643MOL0     H88703   8.321   5.197   5.787 -1.6390 -1.5185  0.6126
  643MOL0     H88704   8.142   5.358   5.861 -1.0565  0.3010 -0.1475
  643MOL0     H88705   8.157   5.426   5.700 -2.2738 -0.9760  0.4759
  643MOL0     H88706   8.429   5.420   5.751  1.7432 -0.4831  0.8143
  643MOL0     H88707   8.320   5.549   5.795  1.1037 -0.2603 -0.7962
  643MOL0     H88708   8.386   5.303   5.979  2.0384 -0.4119 -0.8799
  643MOL0     H88709   8.289   5.446   6.021  2.3482 -0.0864  2.8003
  643MOL0     H88710   8.477   5.593   5.995 -0.9612  0.1097  1.0847
  643MOL0     H88711   8.569   5.457   5.905 -0.1023  3.4532 -1.2524
  643MOL0     H88712   8.563   5.348   6.133 -0.6320 -0.0558 -2.1326
  643MOL0     H88713   8.507   5.502   6.198  0.4463  0.9960 -0.6037
  643MOL0     H88714   7.766   5.097   5.491  1.9926  1.1044  1.2062
  643MOL0     H88715   7.532   5.196   5.423  1.7941 -0.8497  0.3902
  643MOL0     H88716   7.397   5.673   5.484 -0.3441 -3.7402 -2.2583
  643MOL0     H88717   7.254   5.865   5.535  0.3605 -0.9399 -1.5213
  643MOL0     H88718   5.377   5.396   6.296 -1.6213 -0.4974  0.1256
  643MOL0     H88719   5.160   5.370   6.218  1.7619  2.1209 -0.7781
  643MOL0     H88720   4.705   5.208   6.149 -1.8792 -0.0843 -0.4411
  643MOL0     H88721   4.505   5.180   6.032 -0.0053  1.0834 -1.1927
  643MOL0     H88722   4.364   4.968   5.959 -0.6745 -2.1018 -0.5339
  643MOL0     H88723   4.330   5.134   5.917  0.1122  0.6694 -1.9580
  643MOL0     H88724   4.269   4.886   5.746 -0.2483  0.5898 -1.0323
  643MOL0     H88725   4.233   5.046   5.699  0.8963 -1.8509 -0.9314
  643MOL0     H88726   4.127   4.910   5.965  0.5881 -1.6948 -1.7800
  643MOL0     H88727   4.079   5.068   5.918  0.1873  1.6978 -0.2551
  643MOL0     H88728   4.014   4.822   5.751 -1.7366 -0.9672  1.0238
  643MOL0     H88729   3.976   4.985   5.709 -1.2731 -3.3689 -2.8807
  643MOL0     H88730   3.682   4.933   5.995 -0.8083  2.4981 -0.5233
  643MOL0     H88731   4.707   5.032   5.697  1.7330 -0.6331  0.1519
  643MOL0     H88732   5.010   5.189   5.744 -0.7713  0.3044 -0.0903
  643MOL0     H88733   5.036   5.026   5.814 -0.0462 -0.3660  0.0575
  643MOL0     H88734   4.948   5.050   5.667 -0.8880 -2.2230  1.2494
  644MOL0     O88735   8.575   4.714  10.612 -0.1857  0.1144  0.1354
  644MOL0     C88736   8.679   4.677  10.667 -0.9562  0.3411  0.1119
  644MOL0     O88737   8.687   4.570  10.759 -0.9824 -0.7725 -0.1142
  644MOL0     C88738   8.574   4.516  10.803 -0.6635  0.5129 -0.1484
  644MOL0     C88739   8.472   4.594  10.861 -0.9234  0.1097  0.2713
  644MOL0     C88740   8.354   4.537  10.919 -0.1001 -0.8895  0.5918
  644MOL0     C88741   8.333   4.397  10.892 -0.1388 -0.0079 -0.6366
  644MOL0     O88742   8.216   4.334  10.933  0.2040  0.2020 -1.0712
  644MOL0     C88743   8.092   4.390  10.893 -0.1529  0.2702 -1.0449
  644MOL0     C88744   7.976   4.291  10.909 -0.1809  0.9280 -0.7847
  644MOL0     C88745   7.943   4.267  11.055  0.1573 -0.6862  0.0561
  644MOL0     C88746   7.813   4.178  11.077  0.3093 -0.5772 -0.9418
  644MOL0     C88747   7.796   4.150  11.230 -0.1298 -0.0477  0.0401
  644MOL0     C88748   7.683   4.049  11.265  0.5380 -0.1055  0.7030
  644MOL0     C88749   7.689   4.002  11.409 -0.3910 -0.7978 -1.0624
  644MOL0     C88750   7.578   3.897  11.453 -0.1821  0.3703  0.3099
  644MOL0     N88751   7.437   3.925  11.449  0.0993 -0.2007  0.2942
  644MOL0     C88752   7.354   3.966  11.552 -0.3536 -0.1658  0.4739
  644MOL0     C88753   7.240   3.999  11.493  0.1698 -0.5081  0.7210
  644MOL0     C88754   7.118   4.051  11.562 -0.7719  0.4320 -0.0622
  644MOL0     C88755   7.145   4.132  11.691  0.0381 -0.6090 -0.5341
  644MOL0     C88756   7.005   4.174  11.739 -0.4351  0.1954 -0.1208
  644MOL0     C88757   7.006   4.275  11.851  0.1602 -0.2212 -0.0096
  644MOL0     O88758   6.995   4.220  11.982  0.3905  0.2516 -0.2732
  644MOL0     C88759   6.876   4.166  12.033  0.7225  0.3329  0.4251
  644MOL0     C88760   6.876   4.135  12.164 -0.3664  0.1487 -0.4518
  644MOL0     C88761   6.759   4.090  12.218 -0.4837  0.2967 -0.0048
  644MOL0     C88762   6.753   4.067  12.363 -0.7952  0.3151 -0.6076
  644MOL0     C88763   6.647   4.053  12.144  0.3551 -0.3109 -0.1190
  644MOL0     C88764   6.529   3.974  12.189  0.3914 -0.6476 -0.1617
  644MOL0     O88765   6.407   4.013  12.141  0.1284  0.3194  0.2821
  644MOL0     C88766   6.292   3.929  12.169 -0.6822  0.5528 -0.6115
  644MOL0     C88767   6.255   3.833  12.068 -0.5611  0.3844  0.5516
  644MOL0     C88768   6.151   3.755  12.085  0.6510  0.0554 -0.3094
  644MOL0     C88769   6.069   3.753  12.199  0.3981 -0.2350  0.0102
  644MOL0     O88770   5.965   3.664  12.211 -0.1715  0.3418 -0.1681
  644MOL0     C88771   5.852   3.700  12.278 -0.4590  0.4779  0.2797
  644MOL0     C88772   5.815   3.603  12.389  0.3573 -0.1023  0.8352
  644MOL0     C88773   5.683   3.660  12.454 -0.2660  1.1356  0.4088
  644MOL0     C88774   5.574   3.689  12.347 -0.0299  0.3375 -0.3411
  644MOL0     C88775   5.439   3.713  12.418  0.1690  0.3282  0.2543
  644MOL0     C88776   5.335   3.719  12.314  0.0918  0.1627 -0.6596
  644MOL0     C88777   5.209   3.753  12.391  0.5453 -0.3393 -0.6271
  644MOL0     C88778   5.092   3.784  12.292 -0.8664 -0.5180 -0.4433
  644MOL0    Cl88779   5.121   3.928  12.188  0.7071 -0.3270  0.1430
  644MOL0     C88780   6.105   3.850  12.298 -0.5096 -0.2942  0.1364
  644MOL0     C88781   6.215   3.942  12.286  0.3397 -0.6190  0.0615
  644MOL0     O88782   6.549   3.880  12.267  0.4879  0.1282  0.1966
  644MOL0     C88783   6.652   4.081  12.002  0.6824 -0.1898 -0.1154
  644MOL0     C88784   6.762   4.157  11.951 -0.5992  0.5317 -0.4475
  644MOL0     N88785   7.246   3.985  11.356  0.0038 -0.6134  0.7309
  644MOL0     N88786   7.372   3.952  11.331  0.0692 -0.9271  0.5300
  644MOL0     C88787   8.439   4.320  10.829  0.3886 -0.1337 -0.1736
  644MOL0     C88788   8.555   4.381  10.794 -0.2101 -0.0514 -0.3471
  644MOL0     C88789   8.803   4.748  10.618  1.1282 -0.2830 -0.9845
  644MOL0     C88790   8.801   4.818  10.491  0.6942  0.7199  0.1195
  644MOL0     C88791   8.916   4.876  10.437 -0.1023  0.3288 -0.4845
  644MOL0     C88792   9.037   4.873  10.505  0.3606 -0.5164 -1.2565
  644MOL0     O88793   9.146   4.928  10.444  0.1557  0.3807  0.1399
  644MOL0     C88794   9.273   4.895  10.509  0.7057 -0.6096 -0.6628
  644MOL0     C88795   9.385   4.945  10.421  0.3769 -0.2651  0.4211
  644MOL0     C88796   9.392   5.100  10.408  0.4821 -0.6940 -0.5575
  644MOL0     C88797   9.526   5.145  10.343  0.1557 -0.3994 -1.3704
  644MOL0     C88798   9.551   5.107  10.204  0.2439 -0.0095  0.7362
  644MOL0     C88799   9.561   5.062  10.090  0.4109 -0.5591 -0.6363
  644MOL0     C88800   9.031   4.807  10.626 -0.6128 -0.8513 -0.4937
  644MOL0     C88801   8.922   4.742  10.687  0.4635 -0.4376  0.0423
  644MOL0     C88802   8.947   4.673  10.819  0.4991  0.1361  0.1368
  644MOL0     H88803   8.483   4.702  10.869 -1.3401  0.2751 -1.0746
  644MOL0     H88804   8.280   4.605  10.960 -0.4393 -0.9991  0.1729
  644MOL0     H88805   8.103   4.419  10.788  1.9031  0.9700 -0.6770
  644MOL0     H88806   8.068   4.479  10.953  2.2268  0.4217 -0.2409
  644MOL0     H88807   7.886   4.322  10.856  0.2637  2.0303 -0.9187
  644MOL0     H88808   8.005   4.198  10.858 -0.8774 -1.1942  2.4391
  644MOL0     H88809   8.022   4.212  11.107 -0.8950 -2.9509 -0.6009
  644MOL0     H88810   7.920   4.365  11.098 -0.0271 -0.5727 -0.2981
  644MOL0     H88811   7.727   4.242  11.055  1.3427  1.1594 -0.0950
  644MOL0     H88812   7.813   4.101  11.000  1.5910 -0.4353 -1.0997
  644MOL0     H88813   7.765   4.245  11.275 -0.6154 -0.4606  0.5956
  644MOL0     H88814   7.895   4.119  11.263  0.7940 -0.2047 -2.6520
  644MOL0     H88815   7.588   4.092  11.232  1.2984  1.5896  0.6260
  644MOL0     H88816   7.694   3.959  11.203 -0.5488  1.0113 -1.2375
  644MOL0     H88817   7.682   4.086  11.478  2.1153 -1.7098  0.4543
  644MOL0     H88818   7.784   3.951  11.426 -2.0753 -4.1340 -0.6944
  644MOL0     H88819   7.594   3.816  11.381 -1.0999  0.6264 -0.1963
  644MOL0     H88820   7.604   3.865  11.554  0.4422 -0.2380 -0.0222
  644MOL0     H88821   7.376   3.975  11.658 -0.0824  1.5778  0.2976
  644MOL0     H88822   7.050   3.966  11.572 -1.3505  1.0417  1.4818
  644MOL0     H88823   7.060   4.118  11.498 -2.4429  0.1873  1.1285
  644MOL0     H88824   7.191   4.065  11.763  0.5775 -0.5051 -0.7768
  644MOL0     H88825   7.203   4.225  11.682 -1.4779  0.6718  1.8404
  644MOL0     H88826   6.949   4.223  11.658  3.6140  1.2797 -2.5460
  644MOL0     H88827   6.959   4.082  11.775  0.6749 -0.5511 -0.5849
  644MOL0     H88828   7.105   4.319  11.862  0.2570 -0.4146 -0.1013
  644MOL0     H88829   6.932   4.354  11.836  1.1465  1.1370  1.8081
  644MOL0     H88830   6.972   4.152  12.212  0.1607  0.5143 -1.5860
  644MOL0     H88831   6.666   4.125  12.397 -1.9390 -1.3478 -0.6091
  644MOL0     H88832   6.834   4.117  12.417 -1.2398 -0.6253  1.0081
  644MOL0     H88833   6.753   3.960  12.386  0.8496  0.4029 -0.0903
  644MOL0     H88834   6.317   3.816  11.980 -0.1461 -2.6922  1.3238
  644MOL0     H88835   6.127   3.684  12.006 -2.5330  0.9927 -0.3434
  644MOL0     H88836   5.845   3.802  12.317 -1.2612  0.9984 -1.1546
  644MOL0     H88837   5.785   3.697  12.192  2.5512 -1.4225 -2.1832
  644MOL0     H88838   5.801   3.500  12.355  0.5072 -0.7583  2.6460
  644MOL0     H88839   5.888   3.595  12.470  0.2016 -0.1452  0.9708
  644MOL0     H88840   5.699   3.743  12.523 -1.4744  0.9515  0.9296
  644MOL0     H88841   5.653   3.576  12.517 -1.5625  0.8002 -0.6105
  644MOL0     H88842   5.568   3.617  12.265 -0.2150  0.0702 -0.0969
  644MOL0     H88843   5.598   3.791  12.315  3.9695  1.2804  4.3144
  644MOL0     H88844   5.416   3.628  12.483 -2.0418 -0.5539 -1.5374
  644MOL0     H88845   5.451   3.798  12.485  0.2055  2.0861 -1.8828
  644MOL0     H88846   5.338   3.620  12.268 -1.2680  0.4567 -1.4539
  644MOL0     H88847   5.357   3.792  12.235 -3.5722 -1.4031 -3.4449
  644MOL0     H88848   5.224   3.835  12.462 -0.4422 -2.4486  2.2274
  644MOL0     H88849   5.177   3.663  12.445 -1.2728 -0.3454 -1.6350
  644MOL0     H88850   5.004   3.803  12.355 -0.0608 -2.5198  1.4523
  644MOL0     H88851   5.082   3.697  12.227 -0.3368  1.4692 -3.3370
  644MOL0     H88852   6.036   3.858  12.382 -0.6375 -1.2534  0.1423
  644MOL0     H88853   6.233   4.016  12.364 -0.4162 -4.2166  4.0310
  644MOL0     H88854   6.570   4.055  11.935 -0.7657 -3.6450  2.7085
  644MOL0     H88855   6.769   4.187  11.847  0.1079 -2.9349 -1.5588
  644MOL0     H88856   8.424   4.214  10.809  1.6320 -0.4518  0.4812
  644MOL0     H88857   8.627   4.314  10.748 -0.8645 -0.5044 -0.7269
  644MOL0     H88858   8.715   4.822  10.425 -1.1139 -2.2245  2.0601
  644MOL0     H88859   8.922   4.911  10.334  0.1488 -1.1276 -0.9875
  644MOL0     H88860   9.288   4.952  10.601  3.0685 -0.1647 -1.2701
  644MOL0     H88861   9.280   4.791  10.539  0.4032  0.1780  2.4272
  644MOL0     H88862   9.369   4.918  10.316 -0.2347  2.2937 -0.2049
  644MOL0     H88863   9.477   4.898  10.457  0.4577  1.1649  2.1586
  644MOL0     H88864   9.309   5.142  10.350 -1.0418 -1.1089  1.2336
  644MOL0     H88865   9.378   5.153  10.502 -0.1710  1.3623 -1.7604
  644MOL0     H88866   9.610   5.120  10.409 -1.3801  0.0965  0.8852
  644MOL0     H88867   9.508   5.253  10.335 -0.9008 -0.6635 -2.9690
  644MOL0     H88868   9.574   5.021   9.992  3.7479 -0.9810 -0.1283
  644MOL0     H88869   9.123   4.806  10.685  0.7645 -0.8689 -2.5334
  644MOL0     H88870   8.922   4.567  10.807 -1.0688  0.6273 -1.2937
  644MOL0     H88871   9.051   4.683  10.849  0.5685 -2.9696  1.3635
  644MOL0     H88872   8.875   4.705  10.895 -2.2623  0.2306 -2.3117
  645MOL0     O88873  10.087   4.156   0.965 -0.6878  0.1930 -0.2120
  645MOL0     C88874  10.045   4.044   0.925  0.7029 -0.4374  0.3615
  645MOL0     O88875  10.120   3.947   0.878  0.2181 -0.2199 -0.3845
  645MOL0     C88876  10.255   3.943   0.924  0.2407  0.2360 -0.1251
  645MOL0     C88877  10.305   3.972   1.052 -0.7710 -1.1137 -0.2995
  645MOL0     C88878  10.441   3.979   1.080 -0.5085 -0.7442 -0.0468
  645MOL0     C88879  10.533   3.945   0.976 -0.8686 -0.1240 -0.5098
  645MOL0     O88880  10.670   3.956   1.002 -0.5165 -0.4060  1.0439
  645MOL0     C88881  10.725   3.867   1.100  1.1767 -0.1875 -0.2152
  645MOL0     C88882  10.800   3.756   1.028  0.7964 -0.4931  0.6371
  645MOL0     C88883  10.913   3.825   0.941  0.5354  0.2854  0.6788
  645MOL0     C88884  10.881   3.808   0.788 -0.3462  0.6987 -0.0637
  645MOL0     C88885  10.994   3.850   0.706 -0.5006  0.6745  0.6935
  645MOL0     C88886  10.972   3.805   0.560  0.2704  0.9045  0.7917
  645MOL0     C88887  11.095   3.826   0.467 -0.2059 -0.0197  0.0297
  645MOL0     C88888  11.197   3.727   0.470  0.3922  0.6822  0.4549
  645MOL0     N88889  11.317   3.764   0.392  0.8143  0.1293  0.2327
  645MOL0     C88890  11.361   3.684   0.276  0.6935 -0.9363 -0.9120
  645MOL0     C88891  11.461   3.756   0.227  0.9258  0.2726 -0.6327
  645MOL0     C88892  11.533   3.717   0.103 -0.4424 -0.0536  0.2074
  645MOL0     C88893  11.656   3.622   0.114  0.8559 -0.0702  0.6935
  645MOL0     C88894  11.748   3.648  -0.009  0.3316  0.3038  0.8217
  645MOL0     C88895  11.876   3.551  -0.023  0.4538  0.0416 -0.7036
  645MOL0     O88896  11.821   3.428  -0.057  0.1093 -0.3930  0.3210
  645MOL0     C88897  11.901   3.315  -0.092  0.1671  0.0188  0.3809
  645MOL0     C88898  12.047   3.328  -0.102  0.2661  1.1070 -0.0733
  645MOL0     C88899  12.130   3.225  -0.131 -0.4445  1.3111 -0.7249
  645MOL0     C88900  12.272   3.252  -0.161  0.1620  0.3326 -0.5347
  645MOL0     C88901  12.074   3.096  -0.161  0.0600 -0.2998  0.0034
  645MOL0     C88902  12.157   2.979  -0.170 -0.1369 -0.0130  0.1673
  645MOL0     O88903  12.273   2.964  -0.095  0.2010  0.2068 -0.2313
  645MOL0     C88904  12.362   2.863  -0.118  0.0998  0.0409 -0.6855
  645MOL0     C88905  12.387   2.797  -0.244  0.1938 -0.1199 -0.1799
  645MOL0     C88906  12.490   2.703  -0.245  0.4732 -0.4564 -0.4448
  645MOL0     C88907  12.566   2.672  -0.128 -0.0284 -0.1607  0.6230
  645MOL0     O88908  12.662   2.576  -0.144  0.1272 -0.3060  0.2797
  645MOL0     C88909  12.767   2.567  -0.049  0.3393 -0.4785 -0.1420
  645MOL0     C88910  12.862   2.460  -0.081 -0.0559  0.0857  0.7275
  645MOL0     C88911  12.977   2.515  -0.175  0.1946  0.5771  0.4207
  645MOL0     C88912  13.089   2.593  -0.087  0.5134  0.0746  0.6197
  645MOL0     C88913  13.149   2.702  -0.168 -0.5212  0.0748  1.0555
  645MOL0     C88914  13.273   2.769  -0.095  0.5173 -0.2163 -0.3782
  645MOL0     C88915  13.313   2.888  -0.180 -0.0475 -0.9417  0.1976
  645MOL0     C88916  13.469   2.873  -0.218 -1.4454  0.4413 -0.2594
  645MOL0    Cl88917  13.508   2.718  -0.304 -0.2457 -0.0274 -0.1456
  645MOL0     C88918  12.539   2.738  -0.006 -0.0381  0.8011  0.4165
  645MOL0     C88919  12.443   2.834  -0.007  0.3818 -0.2271 -0.5076
  645MOL0     O88920  12.115   2.895  -0.247 -0.8080 -0.9520  0.2185
  645MOL0     C88921  11.933   3.080  -0.170 -0.3994  0.0406 -1.4131
  645MOL0     C88922  11.845   3.189  -0.128  0.0502 -0.1363  0.7444
  645MOL0     N88923  11.481   3.869   0.298  0.2455 -0.5607  0.0094
  645MOL0     N88924  11.396   3.872   0.401  0.4155  0.2176  0.0998
  645MOL0     C88925  10.486   3.898   0.849  0.4636  0.7762 -0.2191
  645MOL0     C88926  10.345   3.894   0.822 -0.4199 -0.4378 -0.4701
  645MOL0     C88927   9.899   4.024   0.903  0.4362  0.8590 -1.0360
  645MOL0     C88928   9.857   3.938   0.801 -0.4938 -0.1518 -0.0006
  645MOL0     C88929   9.726   3.913   0.775  0.0045  0.1626  0.0186
  645MOL0     C88930   9.623   3.962   0.860 -0.2963  0.4198  0.1633
  645MOL0     O88931   9.498   3.901   0.848  0.0881  0.6729  0.6232
  645MOL0     C88932   9.400   3.920   0.953  0.2063 -0.4443 -0.6704
  645MOL0     C88933   9.309   3.797   0.948  0.3956  0.0130 -0.7165
  645MOL0     C88934   9.197   3.817   1.055  0.2474 -1.1343 -0.0539
  645MOL0     C88935   9.069   3.883   1.010  1.1990 -0.5338 -0.5179
  645MOL0     C88936   9.018   3.798   0.908  0.2946 -0.0866  0.1320
  645MOL0     C88937   8.948   3.732   0.826  1.0161 -0.9908  0.1722
  645MOL0     C88938   9.662   4.037   0.971  1.1823 -0.4799  0.5219
  645MOL0     C88939   9.797   4.076   0.988  0.1309 -0.4345  0.8012
  645MOL0     C88940   9.826   4.180   1.103  0.2296  0.5900 -0.0640
  645MOL0     H88941  10.234   4.015   1.122  0.2764  0.7322 -0.2990
  645MOL0     H88942  10.488   4.007   1.174  0.9703 -2.2918 -0.2702
  645MOL0     H88943  10.645   3.818   1.156 -1.1544  1.1818 -2.1838
  645MOL0     H88944  10.795   3.922   1.164  0.2448  2.6298 -1.4751
  645MOL0     H88945  10.848   3.691   1.102  3.0125  0.5253  0.1964
  645MOL0     H88946  10.729   3.701   0.966  1.6602  1.0386 -1.9045
  645MOL0     H88947  10.930   3.930   0.964  1.1796  0.8236 -1.9624
  645MOL0     H88948  11.002   3.764   0.957  0.1613 -0.7431 -0.8464
  645MOL0     H88949  10.868   3.701   0.770  2.7305  0.4243 -1.0946
  645MOL0     H88950  10.788   3.863   0.772 -0.2962  0.9218  0.4077
  645MOL0     H88951  11.085   3.803   0.744 -1.8469 -1.9078  0.9336
  645MOL0     H88952  10.990   3.960   0.706 -3.0555  0.6672 -0.2128
  645MOL0     H88953  10.946   3.699   0.547 -2.7802  1.5082  1.1108
  645MOL0     H88954  10.884   3.856   0.519  0.3720  1.4113  1.1966
  645MOL0     H88955  11.138   3.924   0.487  2.3098 -0.3442 -2.9555
  645MOL0     H88956  11.058   3.821   0.364  1.1951 -0.6222 -0.4711
  645MOL0     H88957  11.231   3.698   0.570  0.2637 -0.0182  0.3060
  645MOL0     H88958  11.148   3.637   0.430  0.2104  1.4991 -1.2559
  645MOL0     H88959  11.313   3.595   0.237 -0.1170 -0.2296 -1.5725
  645MOL0     H88960  11.578   3.811   0.069  2.4379 -1.3538  0.1774
  645MOL0     H88961  11.463   3.682   0.027  1.4744 -0.7517 -1.3315
  645MOL0     H88962  11.712   3.641   0.206  2.3263 -2.2884  0.3249
  645MOL0     H88963  11.624   3.518   0.108 -3.1803  0.9137  2.1123
  645MOL0     H88964  11.680   3.641  -0.095 -1.7056  1.1848  2.2618
  645MOL0     H88965  11.772   3.754   0.002  0.2556  0.1657  2.6032
  645MOL0     H88966  11.944   3.604  -0.090 -1.4541  3.1449 -0.4261
  645MOL0     H88967  11.928   3.533   0.072  0.6584 -1.1914 -1.0293
  645MOL0     H88968  12.096   3.422  -0.080 -2.8474  3.1869 -1.3371
  645MOL0     H88969  12.300   3.184  -0.241 -2.6928 -0.1600 -1.2485
  645MOL0     H88970  12.327   3.243  -0.067  1.4500  0.4020 -1.2605
  645MOL0     H88971  12.278   3.358  -0.188  1.1298  0.6592  0.8354
  645MOL0     H88972  12.318   2.797  -0.328  0.7081  0.1292 -0.6064
  645MOL0     H88973  12.517   2.663  -0.342 -1.4190  0.1851 -1.2886
  645MOL0     H88974  12.806   2.669  -0.041 -2.6973  0.7950 -0.3541
  645MOL0     H88975  12.723   2.545   0.049  2.6055  0.3512  1.1484
  645MOL0     H88976  12.898   2.416   0.012 -2.5372  0.3215  1.8731
  645MOL0     H88977  12.799   2.382  -0.124  0.8567  0.0461 -0.6032
  645MOL0     H88978  12.935   2.584  -0.249 -2.6090  0.3578  1.6661
  645MOL0     H88979  13.032   2.440  -0.233 -0.3888  0.8865 -0.5513
  645MOL0     H88980  13.161   2.519  -0.051  0.5532  1.3845  3.6114
  645MOL0     H88981  13.047   2.638   0.004  0.8867  0.0596  0.8019
  645MOL0     H88982  13.172   2.660  -0.266 -1.7406 -0.9873  1.1987
  645MOL0     H88983  13.079   2.782  -0.193  0.2183 -0.4852 -3.7104
  645MOL0     H88984  13.358   2.702  -0.084  1.4174  0.9987  0.3352
  645MOL0     H88985  13.244   2.800   0.006 -0.4479 -3.0295  0.2860
  645MOL0     H88986  13.301   2.979  -0.122 -0.3298 -0.4444 -0.6222
  645MOL0     H88987  13.255   2.888  -0.273  0.6670  1.6744 -0.3239
  645MOL0     H88988  13.520   2.879  -0.121 -0.0551 -1.3277 -0.8378
  645MOL0     H88989  13.501   2.955  -0.283  0.9338 -1.1541 -1.2386
  645MOL0     H88990  12.581   2.716   0.091  3.5123 -0.7380 -1.2833
  645MOL0     H88991  12.432   2.885   0.088  1.0694 -3.4177  1.4357
  645MOL0     H88992  11.883   2.988  -0.196 -0.1141 -0.3614 -0.5921
  645MOL0     H88993  11.738   3.178  -0.115  0.2800 -1.0084  2.2001
  645MOL0     H88994  10.560   3.861   0.779  2.6294  2.5022  1.0054
  645MOL0     H88995  10.312   3.854   0.727 -4.6976 -1.0709  1.0661
  645MOL0     H88996   9.935   3.905   0.732 -0.1146  1.5261 -0.4194
  645MOL0     H88997   9.714   3.865   0.679  1.8071 -0.2027 -0.0664
  645MOL0     H88998   9.436   3.928   1.056 -5.4037 -2.0688  1.8206
  645MOL0     H88999   9.336   4.008   0.944 -2.7285 -2.4822 -1.1271
  645MOL0     H89000   9.368   3.710   0.979 -0.7304 -0.2132  0.9132
  645MOL0     H89001   9.272   3.792   0.845  0.8691  2.6269 -1.0667
  645MOL0     H89002   9.179   3.719   1.100  1.4426 -1.2330  0.2525
  645MOL0     H89003   9.228   3.888   1.132 -1.9364  0.2841 -0.4093
  645MOL0     H89004   9.083   3.987   0.977 -1.1688 -0.3195 -0.9889
  645MOL0     H89005   9.004   3.881   1.098  0.3442 -1.0442 -1.1574
  645MOL0     H89006   8.887   3.675   0.759  2.1994 -0.4367 -1.4470
  645MOL0     H89007   9.589   4.086   1.033  2.9423  3.4203 -0.1654
  645MOL0     H89008   9.919   4.175   1.161 -0.1192 -0.0397  0.4562
  645MOL0     H89009   9.822   4.277   1.054 -2.4839 -0.2149 -1.6721
  645MOL0     H89010   9.741   4.169   1.171  0.5813  1.9327  0.6219
  646MOL0     O89011   8.860   2.704   6.710  0.2901  0.5843 -0.3620
  646MOL0     C89012   8.764   2.637   6.685 -0.3499  0.1478  0.0536
  646MOL0     O89013   8.761   2.547   6.576 -0.1614 -0.7221  0.6063
  646MOL0     C89014   8.876   2.479   6.534 -0.7760  0.2600 -0.1013
  646MOL0     C89015   8.998   2.457   6.603  0.0042 -0.0044  1.0970
  646MOL0     C89016   9.109   2.392   6.543 -0.0799  0.4662 -0.5132
  646MOL0     C89017   9.103   2.366   6.405 -0.0545  0.0532 -0.0987
  646MOL0     O89018   9.220   2.319   6.335  0.6675 -0.0982 -0.1793
  646MOL0     C89019   9.355   2.328   6.400  0.2536 -0.4661  0.2340
  646MOL0     C89020   9.457   2.263   6.301  0.0221  0.7312  0.2633
  646MOL0     C89021   9.590   2.236   6.368 -0.1279 -0.8330 -0.7710
  646MOL0     C89022   9.696   2.209   6.258 -0.1655  0.6474 -0.3678
  646MOL0     C89023   9.826   2.145   6.320 -0.2736 -0.0897  0.9219
  646MOL0     C89024   9.937   2.156   6.215 -0.4726 -0.0627 -0.0638
  646MOL0     C89025  10.066   2.126   6.283 -0.5300 -0.5668  0.5583
  646MOL0     C89026  10.178   2.155   6.193 -0.5080 -0.5725  0.8068
  646MOL0     N89027  10.303   2.127   6.250  0.8079 -0.1960  0.3639
  646MOL0     C89028  10.392   2.219   6.302  0.0665  0.2575  0.0087
  646MOL0     C89029  10.497   2.146   6.354  0.1047 -0.2820  0.5746
  646MOL0     C89030  10.609   2.201   6.431  0.0488  0.1007 -0.1244
  646MOL0     C89031  10.734   2.148   6.364 -0.2151 -1.3022 -0.1324
  646MOL0     C89032  10.861   2.203   6.440 -0.2535  0.0967  0.6028
  646MOL0     C89033  10.875   2.179   6.593 -0.2581 -1.8104 -0.6051
  646MOL0     O89034  10.796   2.279   6.672  0.2547 -0.7497  0.5703
  646MOL0     C89035  10.771   2.262   6.804  0.2431 -0.0134 -0.1108
  646MOL0     C89036  10.657   2.316   6.863  0.2468 -0.2691  0.4636
  646MOL0     C89037  10.613   2.274   6.989 -0.0774 -0.3794  0.9040
  646MOL0     C89038  10.487   2.338   7.037  0.1463 -0.4154 -0.3629
  646MOL0     C89039  10.685   2.171   7.059  0.2345 -0.4673  0.9192
  646MOL0     C89040  10.643   2.120   7.189  0.6855 -0.8004 -0.5582
  646MOL0     O89041  10.707   2.020   7.248  0.9242 -0.0441  0.1847
  646MOL0     C89042  10.626   1.918   7.300 -0.4009  0.3545 -0.0081
  646MOL0     C89043  10.508   1.860   7.240  0.0820 -0.1144 -0.3223
  646MOL0     C89044  10.442   1.752   7.290 -0.0855  0.0740 -0.4479
  646MOL0     C89045  10.486   1.691   7.409 -0.9585 -0.4433 -0.6179
  646MOL0     O89046  10.421   1.604   7.490  0.0593  0.1905  0.4299
  646MOL0     C89047  10.346   1.519   7.406 -0.9725 -0.1699 -0.6016
  646MOL0     C89048  10.302   1.404   7.495  0.4191 -0.3329 -0.6206
  646MOL0     C89049  10.181   1.451   7.580  0.0596 -0.4800 -0.1750
  646MOL0     C89050  10.176   1.385   7.715 -1.1027 -0.2381  0.0666
  646MOL0     C89051  10.128   1.241   7.724  0.0138 -0.6075  0.5395
  646MOL0     C89052  10.108   1.203   7.874  0.9574 -1.2065 -0.4611
  646MOL0     C89053   9.975   1.264   7.931  0.1502 -0.7679  0.5236
  646MOL0     C89054   9.939   1.205   8.068  0.2445 -0.2777  0.1458
  646MOL0    Cl89055   9.858   1.043   8.050 -0.1062 -0.2591 -0.0396
  646MOL0     C89056  10.607   1.744   7.460  0.5877  0.0430 -0.8306
  646MOL0     C89057  10.675   1.850   7.411 -0.4721 -0.3866  0.7693
  646MOL0     O89058  10.535   2.162   7.237 -0.5186 -0.6193 -1.4931
  646MOL0     C89059  10.804   2.118   6.999  0.2562  0.0010  0.0367
  646MOL0     C89060  10.847   2.169   6.875 -0.0701  0.8813 -0.7297
  646MOL0     N89061  10.468   2.011   6.331 -0.6688  0.1563 -0.1107
  646MOL0     N89062  10.347   2.000   6.283  0.3778 -0.3735  0.4784
  646MOL0     C89063   8.977   2.384   6.339 -0.7076  0.1184 -0.4469
  646MOL0     C89064   8.873   2.445   6.407  0.1396  0.3932 -0.0750
  646MOL0     C89065   8.633   2.679   6.733  0.7714  0.0353 -0.9334
  646MOL0     C89066   8.611   2.814   6.778 -0.1158  0.0140  1.0266
  646MOL0     C89067   8.484   2.856   6.814 -0.5981  0.3669  0.0582
  646MOL0     C89068   8.377   2.765   6.829 -0.1659 -1.4737  0.7466
  646MOL0     O89069   8.265   2.794   6.900 -0.3213  0.0150  0.2699
  646MOL0     C89070   8.208   2.923   6.886 -0.0242 -0.4862  0.4561
  646MOL0     C89071   8.056   2.919   6.836 -1.0008 -0.7900  0.9437
  646MOL0     C89072   7.963   2.832   6.923  0.1520  0.9923 -0.5704
  646MOL0     C89073   7.832   2.904   6.932 -1.3902  0.2773  0.2827
  646MOL0     C89074   7.758   2.824   7.029  0.3133 -0.4607 -0.7368
  646MOL0     C89075   7.695   2.755   7.099 -1.1131  1.1190  0.1617
  646MOL0     C89076   8.404   2.633   6.791 -0.4293 -1.3267 -1.1504
  646MOL0     C89077   8.526   2.586   6.750  0.9228 -0.3746  0.0553
  646MOL0     C89078   8.553   2.437   6.747 -0.2660 -0.6964 -0.1172
  646MOL0     H89079   8.993   2.493   6.705 -0.8201  0.6776  0.8251
  646MOL0     H89080   9.193   2.365   6.606 -1.1067 -3.5520 -0.5995
  646MOL0     H89081   9.365   2.265   6.489 -2.0337 -3.9136 -1.6764
  646MOL0     H89082   9.391   2.429   6.418  1.7082 -0.8568 -0.3986
  646MOL0     H89083   9.409   2.171   6.263  1.2893  0.7016 -1.3838
  646MOL0     H89084   9.461   2.333   6.217 -0.2808 -1.3649 -1.6182
  646MOL0     H89085   9.623   2.324   6.424  0.4728 -0.4167 -1.7566
  646MOL0     H89086   9.588   2.153   6.440  2.1619 -0.7321 -0.5072
  646MOL0     H89087   9.651   2.134   6.194 -3.8554  1.7435  0.7088
  646MOL0     H89088   9.717   2.288   6.185 -0.5513  1.3414  0.2527
  646MOL0     H89089   9.808   2.044   6.356 -1.1845 -0.2903 -0.0608
  646MOL0     H89090   9.856   2.210   6.403 -1.2024  0.9157  0.5071
  646MOL0     H89091   9.908   2.080   6.141 -2.5263  1.0952 -0.5199
  646MOL0     H89092   9.947   2.254   6.169  0.4093 -0.3908 -0.6211
  646MOL0     H89093  10.070   2.024   6.322  3.6880 -1.3073 -1.1793
  646MOL0     H89094  10.072   2.204   6.360 -3.4279  0.5961 -0.2656
  646MOL0     H89095  10.168   2.093   6.103 -0.3830 -0.1135  0.4720
  646MOL0     H89096  10.165   2.254   6.149 -1.8704 -1.0390  0.0840
  646MOL0     H89097  10.390   2.328   6.302  0.6495  0.2906  1.4834
  646MOL0     H89098  10.606   2.174   6.537 -1.9910 -0.8726 -0.3717
  646MOL0     H89099  10.599   2.310   6.427  1.2353  0.2354  0.3572
  646MOL0     H89100  10.726   2.040   6.353 -4.2628 -1.0470 -1.7659
  646MOL0     H89101  10.730   2.197   6.266  0.2868 -2.6709 -0.8633
  646MOL0     H89102  10.951   2.167   6.389 -1.0198  1.2233 -1.6951
  646MOL0     H89103  10.871   2.311   6.421  0.3306 -0.3612 -2.0657
  646MOL0     H89104  10.847   2.075   6.614 -1.3488 -0.8665  3.7360
  646MOL0     H89105  10.979   2.188   6.626  0.2311 -0.8491 -2.3392
  646MOL0     H89106  10.594   2.373   6.795  1.7542  0.6256 -0.2309
  646MOL0     H89107  10.500   2.370   7.141  1.9632 -0.9028 -0.4087
  646MOL0     H89108  10.400   2.272   7.029  0.7049 -1.1111 -0.8128
  646MOL0     H89109  10.462   2.433   6.988 -0.8540 -1.0011 -1.0226
  646MOL0     H89110  10.470   1.907   7.150 -2.1845  1.4150  1.3060
  646MOL0     H89111  10.349   1.726   7.240  1.5516 -1.5821 -2.8297
  646MOL0     H89112  10.262   1.577   7.369 -0.4413  1.0884  0.1220
  646MOL0     H89113  10.406   1.486   7.321 -0.8706  0.0962 -0.6312
  646MOL0     H89114  10.262   1.327   7.428 -1.3131 -1.4282  1.5199
  646MOL0     H89115  10.386   1.367   7.554 -0.8278  1.7393  2.7018
  646MOL0     H89116  10.084   1.438   7.530 -0.2445  2.8324 -0.6828
  646MOL0     H89117  10.191   1.559   7.590 -2.2328  0.1302 -3.0559
  646MOL0     H89118  10.132   1.453   7.789 -1.1214 -0.8211  0.6053
  646MOL0     H89119  10.278   1.392   7.754 -1.9650  1.6881  2.2431
  646MOL0     H89120  10.037   1.225   7.666  1.1567 -2.9662 -0.7577
  646MOL0     H89121  10.206   1.178   7.679 -0.2967 -0.8116  0.2847
  646MOL0     H89122  10.185   1.244   7.940  1.7337  1.9059 -3.0495
  646MOL0     H89123  10.100   1.094   7.883 -3.7135 -0.9587  1.2861
  646MOL0     H89124   9.891   1.238   7.866 -0.2751 -0.8471  1.1037
  646MOL0     H89125   9.990   1.370   7.949  0.4818 -0.8327  0.6340
  646MOL0     H89126   9.868   1.270   8.120  1.2772 -0.3725  1.7321
  646MOL0     H89127  10.026   1.195   8.134  1.6999 -0.8636 -1.7732
  646MOL0     H89128  10.643   1.686   7.545  0.9044 -0.3465 -1.2236
  646MOL0     H89129  10.773   1.878   7.448  0.2599  2.1901 -2.5916
  646MOL0     H89130  10.865   2.044   7.052  2.5031  0.9140 -1.1289
  646MOL0     H89131  10.938   2.134   6.826 -1.1469 -0.8838 -1.5525
  646MOL0     H89132   8.961   2.360   6.234  1.6166 -1.5563 -0.4914
  646MOL0     H89133   8.784   2.466   6.349 -0.5153  2.4860  1.5726
  646MOL0     H89134   8.693   2.885   6.785  0.4840 -0.6090  0.5047
  646MOL0     H89135   8.488   2.955   6.859  0.1516  0.8168 -0.9550
  646MOL0     H89136   8.213   2.978   6.981  0.0183 -1.0391  0.7812
  646MOL0     H89137   8.269   2.977   6.813 -0.6495  0.8175  0.8590
  646MOL0     H89138   8.061   2.878   6.734  2.3904  0.3345  0.5170
  646MOL0     H89139   8.021   3.022   6.823  0.7143 -0.2749  0.0009
  646MOL0     H89140   7.951   2.740   6.865 -2.1169 -0.7209  2.3394
  646MOL0     H89141   8.020   2.817   7.015  1.3418 -0.0020 -1.4268
  646MOL0     H89142   7.789   2.901   6.832 -0.8193  1.8967 -0.0417
  646MOL0     H89143   7.851   3.002   6.976 -1.2480 -0.1161  1.1131
  646MOL0     H89144   7.624   2.711   7.166 -3.4575 -0.3169 -3.0497
  646MOL0     H89145   8.313   2.578   6.817  0.6333 -1.9749  1.5920
  646MOL0     H89146   8.643   2.418   6.806 -0.2078  2.1855  0.8761
  646MOL0     H89147   8.466   2.393   6.795 -0.5169  0.4485  0.5352
  646MOL0     H89148   8.566   2.400   6.645 -0.8617 -0.4176 -0.3002
  647MOL0     O89149   5.144   1.076   2.236  0.1138 -0.0889  0.1774
  647MOL0     C89150   5.065   0.983   2.220  0.0996 -0.0954  0.1703
  647MOL0     O89151   5.105   0.854   2.198 -0.7831 -0.0884  0.0056
  647MOL0     C89152   5.241   0.826   2.206 -0.2560  0.3500 -0.0401
  647MOL0     C89153   5.294   0.736   2.304 -0.7428 -0.2812  0.2070
  647MOL0     C89154   5.430   0.711   2.300  0.0615  0.4198 -0.7339
  647MOL0     C89155   5.519   0.777   2.212  0.0985 -0.4701  0.2131
  647MOL0     O89156   5.649   0.760   2.217  0.3162  0.4145  0.4824
  647MOL0     C89157   5.690   0.624   2.188  0.1102  0.6903 -0.1827
  647MOL0     C89158   5.788   0.614   2.066 -0.5554  0.5327 -0.2396
  647MOL0     C89159   5.739   0.703   1.952  0.2292  0.3257 -0.6279
  647MOL0     C89160   5.841   0.730   1.834  0.1177  0.1064  0.1505
  647MOL0     C89161   5.796   0.840   1.738  0.2384  0.6940 -0.3773
  647MOL0     C89162   5.638   0.841   1.711 -0.4408 -0.9870 -0.7547
  647MOL0     C89163   5.596   0.945   1.603 -0.4918 -0.4003  0.0397
  647MOL0     C89164   5.661   0.934   1.457 -0.5439  0.1506  0.6503
  647MOL0     N89165   5.566   0.997   1.364 -0.1484  0.7170  0.4042
  647MOL0     C89166   5.516   1.125   1.369  0.1589  0.5997  0.5741
  647MOL0     C89167   5.421   1.127   1.269  0.1494 -0.7139 -0.2876
  647MOL0     C89168   5.336   1.243   1.221 -0.2130  0.7074 -0.2114
  647MOL0     C89169   5.203   1.231   1.290 -0.1175 -0.5288 -0.6669
  647MOL0     C89170   5.205   1.282   1.437  0.0041  0.5017  0.7871
  647MOL0     C89171   5.228   1.434   1.453  0.0200 -0.3989  0.5981
  647MOL0     O89172   5.185   1.468   1.583 -0.5967  0.3624 -0.7079
  647MOL0     C89173   5.165   1.601   1.612  0.3109 -0.1208  0.5441
  647MOL0     C89174   5.050   1.664   1.567  0.1242 -0.0083 -0.1195
  647MOL0     C89175   5.022   1.801   1.602  0.3821  0.4267 -0.1783
  647MOL0     C89176   4.889   1.852   1.546  0.6854  0.7466  0.3353
  647MOL0     C89177   5.115   1.877   1.683  0.2686 -0.6628 -0.6205
  647MOL0     C89178   5.086   2.018   1.730  0.6046 -0.1183 -1.1013
  647MOL0     O89179   5.021   2.112   1.651 -0.2290  0.2938 -0.8700
  647MOL0     C89180   4.967   2.219   1.726  0.6641 -0.0276 -0.0227
  647MOL0     C89181   4.945   2.330   1.650  0.0246 -0.2180 -0.2337
  647MOL0     C89182   4.914   2.453   1.707  0.0631 -0.2597 -0.6000
  647MOL0     C89183   4.890   2.461   1.842  0.2984 -0.0677 -0.4591
  647MOL0     O89184   4.860   2.586   1.886 -0.1013  0.1371  0.4016
  647MOL0     C89185   4.853   2.615   2.025 -0.0004 -0.5700 -0.1191
  647MOL0     C89186   4.902   2.768   2.042 -0.2840  0.1908 -0.8301
  647MOL0     C89187   4.879   2.858   1.916 -0.2552 -0.0004 -0.7148
  647MOL0     C89188   5.001   2.873   1.821  0.5979 -0.3631 -0.0712
  647MOL0     C89189   4.944   2.938   1.690  0.7054 -0.2691  0.0419
  647MOL0     C89190   5.053   2.996   1.611 -0.2299 -1.0875 -0.4621
  647MOL0     C89191   5.008   3.015   1.467  0.6838 -0.4177 -0.0834
  647MOL0     C89192   5.092   3.110   1.391  0.1823  0.3412  0.4271
  647MOL0    Cl89193   5.260   3.060   1.411  0.2657  0.4691  0.4692
  647MOL0     C89194   4.894   2.345   1.922 -0.1451 -0.7977  0.8911
  647MOL0     C89195   4.928   2.221   1.860  0.2756  0.3142  0.1197
  647MOL0     O89196   5.155   2.048   1.830 -0.6159  0.4391 -0.0684
  647MOL0     C89197   5.228   1.804   1.723  0.6871 -0.2994 -0.1814
  647MOL0     C89198   5.247   1.667   1.698  0.3466 -0.3983  1.2881
  647MOL0     N89199   5.398   0.998   1.219 -0.4864  0.2871 -0.7352
  647MOL0     N89200   5.487   0.922   1.280  0.6902 -0.2421  0.1335
  647MOL0     C89201   5.468   0.873   2.125 -0.1380 -0.1176  0.0423
  647MOL0     C89202   5.328   0.887   2.115  0.4421  0.2923  0.8430
  647MOL0     C89203   4.922   1.021   2.223  0.1434 -0.4239  1.4561
  647MOL0     C89204   4.883   1.149   2.185  0.4398  0.1782 -0.1854
  647MOL0     C89205   4.756   1.200   2.205 -0.3717 -0.0775  0.2694
  647MOL0     C89206   4.652   1.123   2.245  0.6007 -0.0283 -0.1916
  647MOL0     O89207   4.526   1.188   2.264 -0.1889  0.0710  0.0242
  647MOL0     C89208   4.402   1.107   2.270  0.1848  0.0456 -0.4094
  647MOL0     C89209   4.285   1.191   2.230 -0.3370 -0.9285 -0.8669
  647MOL0     C89210   4.298   1.282   2.112  0.3335  0.1168  0.2843
  647MOL0     C89211   4.324   1.198   1.983 -0.1704 -0.4283 -0.0571
  647MOL0     C89212   4.347   1.274   1.855  0.1135  0.7871 -0.0350
  647MOL0     C89213   4.353   1.330   1.748  0.6793  0.3997 -0.0808
  647MOL0     C89214   4.681   0.991   2.284 -0.6298 -0.8130 -0.0734
  647MOL0     C89215   4.815   0.940   2.276  0.2986 -0.5186  0.1973
  647MOL0     C89216   4.852   0.798   2.317 -0.1505  0.1605  0.0910
  647MOL0     H89217   5.226   0.684   2.370  0.0995 -2.3683 -0.4918
  647MOL0     H89218   5.471   0.639   2.371  0.3946 -1.3166 -2.5935
  647MOL0     H89219   5.604   0.564   2.159 -0.5432 -0.9181  4.3535
  647MOL0     H89220   5.738   0.582   2.277  2.2695  1.5933 -0.8516
  647MOL0     H89221   5.895   0.634   2.079  1.2257  0.7807 -8.9455
  647MOL0     H89222   5.789   0.508   2.040  3.0324  0.0711  1.1720
  647MOL0     H89223   5.639   0.669   1.923 -0.1753 -1.8303  2.7746
  647MOL0     H89224   5.727   0.806   1.988  0.7687 -0.1813  1.0976
  647MOL0     H89225   5.939   0.764   1.870  0.1001  1.5169 -1.0627
  647MOL0     H89226   5.848   0.637   1.777 -1.9021 -0.3819  0.6311
  647MOL0     H89227   5.855   0.836   1.646  0.8880  4.3770 -0.2731
  647MOL0     H89228   5.827   0.936   1.779  0.3279  1.1682 -1.5267
  647MOL0     H89229   5.605   0.744   1.675 -1.5857 -0.5135 -1.0308
  647MOL0     H89230   5.597   0.877   1.806  1.2557  2.8447 -1.2476
  647MOL0     H89231   5.628   1.039   1.649 -0.7120 -1.2388  1.9864
  647MOL0     H89232   5.487   0.944   1.590 -0.4554 -1.2122 -0.3022
  647MOL0     H89233   5.758   0.985   1.455  0.0052 -0.7905  1.8359
  647MOL0     H89234   5.670   0.827   1.437 -6.4775 -0.9522  1.9088
  647MOL0     H89235   5.550   1.202   1.439 -0.0959 -0.8285  2.3273
  647MOL0     H89236   5.336   1.227   1.113  2.9287 -1.7261  0.0010
  647MOL0     H89237   5.372   1.346   1.226  1.4405  0.2364 -1.4281
  647MOL0     H89238   5.127   1.290   1.238 -0.2451  0.0316  0.1342
  647MOL0     H89239   5.163   1.130   1.299 -2.3636  0.4260  0.8548
  647MOL0     H89240   5.112   1.249   1.483 -0.3838 -1.4717 -1.2227
  647MOL0     H89241   5.287   1.234   1.492 -0.4063 -3.0154 -1.3491
  647MOL0     H89242   5.335   1.456   1.442 -0.6670  2.3004 -2.1977
  647MOL0     H89243   5.170   1.496   1.384 -0.2173  0.7680  1.8194
  647MOL0     H89244   4.981   1.609   1.505 -2.7507  1.2868  1.7100
  647MOL0     H89245   4.843   1.774   1.486 -1.4861  2.7889 -0.8177
  647MOL0     H89246   4.907   1.939   1.482 -0.4366  0.1357 -0.8342
  647MOL0     H89247   4.823   1.893   1.623 -0.6394 -0.5447 -0.0693
  647MOL0     H89248   4.964   2.325   1.544  1.2092  0.3229 -0.0624
  647MOL0     H89249   4.900   2.543   1.649 -1.8762  1.6206  2.5393
  647MOL0     H89250   4.749   2.611   2.059  0.3409 -3.0873  0.8265
  647MOL0     H89251   4.905   2.547   2.093  1.5233  2.2172  1.6879
  647MOL0     H89252   4.858   2.805   2.134  2.3915  0.0127  0.6156
  647MOL0     H89253   5.010   2.764   2.062 -0.8123 -4.0113  2.9752
  647MOL0     H89254   4.858   2.960   1.947 -0.9745 -1.0213  2.4941
  647MOL0     H89255   4.792   2.827   1.857  0.2266  0.4380 -1.6921
  647MOL0     H89256   5.042   2.774   1.801 -0.5868 -0.6697 -1.0838
  647MOL0     H89257   5.076   2.939   1.868 -0.9106  0.1227  1.7890
  647MOL0     H89258   4.891   2.857   1.639  1.0793  0.5496 -1.6955
  647MOL0     H89259   4.857   3.000   1.711  0.9778  0.0572  0.2190
  647MOL0     H89260   5.130   2.921   1.627  1.0216  0.7446  3.1611
  647MOL0     H89261   5.092   3.092   1.644 -2.2863  0.4490 -2.1604
  647MOL0     H89262   4.905   3.050   1.481  0.7541 -0.9875  2.2665
  647MOL0     H89263   5.010   2.920   1.414  0.4106  0.1091 -1.0722
  647MOL0     H89264   5.081   3.214   1.423 -0.7207  0.2860  0.3191
  647MOL0     H89265   5.082   3.105   1.283  1.5624 -1.9125  0.3442
  647MOL0     H89266   4.863   2.338   2.026  0.1446 -2.7441  0.8828
  647MOL0     H89267   4.923   2.126   1.913  1.2071 -0.8251 -1.7479
  647MOL0     H89268   5.304   1.844   1.790 -1.4919  0.2427  2.1093
  647MOL0     H89269   5.329   1.612   1.743  1.2727  0.3763  0.5947
  647MOL0     H89270   5.544   0.928   2.071  0.4032  1.0365  1.8935
  647MOL0     H89271   5.291   0.943   2.030  0.2828 -2.5178 -1.0792
  647MOL0     H89272   4.960   1.217   2.151 -0.4719  0.5571 -1.5931
  647MOL0     H89273   4.734   1.306   2.196 -0.6699  0.3653  4.3971
  647MOL0     H89274   4.393   1.024   2.200  1.0961  0.3872 -0.9560
  647MOL0     H89275   4.379   1.064   2.368 -0.6986 -2.4421 -1.6349
  647MOL0     H89276   4.267   1.248   2.322  0.7328 -0.0327 -1.1980
  647MOL0     H89277   4.194   1.132   2.217 -0.9228 -0.4026  0.6404
  647MOL0     H89278   4.201   1.331   2.107  0.3541  0.0798 -0.7256
  647MOL0     H89279   4.385   1.347   2.125  0.5954  0.2458 -1.7355
  647MOL0     H89280   4.242   1.126   1.972  0.6847 -1.1412 -2.3138
  647MOL0     H89281   4.407   1.129   2.005 -1.0727 -1.2750  0.7822
  647MOL0     H89282   4.358   1.370   1.648  5.4311 -2.4543 -1.2815
  647MOL0     H89283   4.598   0.933   2.322 -0.6676 -0.7414 -0.0457
  647MOL0     H89284   4.773   0.732   2.355  1.7479 -0.9859  2.2889
  647MOL0     H89285   4.893   0.742   2.233 -1.7977  0.8611 -1.2465
  647MOL0     H89286   4.918   0.799   2.404 -0.0737 -1.2833  0.0678
  648MOL0     O89287   7.099   6.829   0.335 -0.3983  0.3150 -0.4037
  648MOL0     C89288   7.102   6.846   0.454  0.5436  0.7361  0.1726
  648MOL0     O89289   6.993   6.889   0.530 -1.1160  0.7767 -0.4069
  648MOL0     C89290   6.860   6.875   0.497 -0.1214 -0.0960 -0.5629
  648MOL0     C89291   6.816   6.797   0.386 -0.1778 -0.2204  0.4590
  648MOL0     C89292   6.679   6.792   0.356  0.2219 -0.5509  0.3304
  648MOL0     C89293   6.588   6.853   0.442  0.5310 -0.4712  0.2900
  648MOL0     O89294   6.456   6.824   0.412  0.4285  0.1209 -0.1296
  648MOL0     C89295   6.356   6.926   0.400  1.3715  1.1649 -0.3855
  648MOL0     C89296   6.212   6.869   0.408  0.0258  1.0933  0.5619
  648MOL0     C89297   6.105   6.983   0.383  0.1195 -0.2487 -0.0535
  648MOL0     C89298   5.963   6.946   0.372 -0.2120 -0.5052 -1.0487
  648MOL0     C89299   5.871   7.061   0.330 -0.1290  1.0064 -0.1962
  648MOL0     C89300   5.735   7.039   0.390  0.2983 -0.7238  0.1871
  648MOL0     C89301   5.673   6.891   0.380  0.0244  0.4496  0.4496
  648MOL0     C89302   5.622   6.857   0.240 -0.4942  0.5388  0.2511
  648MOL0     N89303   5.700   6.883   0.120 -0.6351 -0.2075  0.1571
  648MOL0     C89304   5.797   6.803   0.065  0.8244  0.5289  1.0057
  648MOL0     C89305   5.852   6.876  -0.034 -0.9075 -0.2925  0.0306
  648MOL0     C89306   5.975   6.839  -0.119 -0.1411 -0.2772  0.0183
  648MOL0     C89307   6.102   6.858  -0.052 -0.6931 -0.2083 -0.0615
  648MOL0     C89308   6.155   6.762   0.056  0.6121  0.5134  0.5768
  648MOL0     C89309   6.165   6.614   0.020  0.1466  0.3980 -0.0609
  648MOL0     O89310   6.036   6.560   0.000 -0.2776 -0.4241  0.4845
  648MOL0     C89311   6.023   6.423   0.010 -0.1215  0.0630  0.7062
  648MOL0     C89312   6.116   6.330  -0.026  0.0334  1.1263 -0.2714
  648MOL0     C89313   6.095   6.190  -0.012  0.7613 -0.1854 -0.2763
  648MOL0     C89314   6.195   6.095  -0.065  0.1700 -0.5370  0.5328
  648MOL0     C89315   5.976   6.139   0.042  0.0968  0.7754 -0.0667
  648MOL0     C89316   5.928   5.992   0.053  0.1873 -0.4098 -0.1388
  648MOL0     O89317   5.794   5.966   0.079  0.2323 -1.1746  0.8606
  648MOL0     C89318   5.744   5.848   0.122 -0.8912  0.2446 -0.2327
  648MOL0     C89319   5.612   5.817   0.095 -0.2423 -0.2333 -0.5053
  648MOL0     C89320   5.560   5.701   0.138  0.3434  0.3213  0.8896
  648MOL0     C89321   5.630   5.604   0.209 -0.1854  0.4742 -0.1934
  648MOL0     O89322   5.575   5.484   0.253 -0.9109  0.3305 -0.4960
  648MOL0     C89323   5.435   5.464   0.237  0.5850 -0.2840  0.4704
  648MOL0     C89324   5.412   5.391   0.108  0.0759  0.2431  0.6522
  648MOL0     C89325   5.259   5.397   0.078  0.6695  0.7554  0.2992
  648MOL0     C89326   5.220   5.284  -0.013  0.0373  0.3017  0.7614
  648MOL0     C89327   5.074   5.287  -0.036  0.0607 -0.6325 -0.6879
  648MOL0     C89328   5.012   5.157  -0.086 -0.0428  0.1670 -0.7498
  648MOL0     C89329   4.855   5.158  -0.093  0.0643  0.0199 -0.5968
  648MOL0     C89330   4.806   5.227  -0.221 -0.2541 -0.1188  1.1128
  648MOL0    Cl89331   4.840   5.130  -0.355 -0.3074  0.0946 -0.1862
  648MOL0     C89332   5.772   5.622   0.233  0.6921 -0.2610 -0.8903
  648MOL0     C89333   5.824   5.742   0.176 -0.1370 -0.3398  0.6443
  648MOL0     O89334   6.016   5.910   0.042  0.0027  0.1587 -0.1903
  648MOL0     C89335   5.884   6.232   0.083  0.2046 -0.1052  0.0874
  648MOL0     C89336   5.905   6.367   0.072 -0.1573 -0.2106  0.3961
  648MOL0     N89337   5.777   6.985  -0.050 -0.0096  0.6948  0.6169
  648MOL0     N89338   5.683   6.992   0.041  0.3986  0.0001 -0.6784
  648MOL0     C89339   6.628   6.927   0.551  0.5906 -0.6468  0.0391
  648MOL0     C89340   6.767   6.929   0.578  0.5946 -0.2874  0.4676
  648MOL0     C89341   7.239   6.837   0.512  1.4122 -0.5659  0.3148
  648MOL0     C89342   7.268   6.922   0.626  0.1684  0.6563  0.2380
  648MOL0     C89343   7.397   6.918   0.688  0.0933  0.1898 -0.3058
  648MOL0     C89344   7.495   6.838   0.641  0.2717 -0.2356  0.5966
  648MOL0     O89345   7.616   6.828   0.688 -0.1844 -0.4209  0.9211
  648MOL0     C89346   7.665   6.893   0.804  0.6311 -0.5619 -0.1691
  648MOL0     C89347   7.763   6.785   0.871  0.6674  0.6984 -0.0478
  648MOL0     C89348   7.896   6.772   0.793  0.6551  0.2467 -0.8355
  648MOL0     C89349   7.971   6.655   0.855  0.2842 -0.0890 -0.3304
  648MOL0     C89350   8.108   6.683   0.814  0.0939  0.6492 -0.0862
  648MOL0     C89351   8.219   6.716   0.774  0.3844  0.9710  0.5183
  648MOL0     C89352   7.473   6.750   0.535 -0.6559  0.7603 -0.9208
  648MOL0     C89353   7.347   6.751   0.466  0.5914 -0.6413  0.6140
  648MOL0     C89354   7.340   6.653   0.357 -0.1486  0.1934  0.2000
  648MOL0     H89355   6.880   6.744   0.316  0.2868  0.4663  0.3600
  648MOL0     H89356   6.639   6.748   0.265 -2.3315 -0.0077  1.1138
  648MOL0     H89357   6.363   6.958   0.296 -0.3351  0.0225 -0.9006
  648MOL0     H89358   6.370   7.006   0.473  1.4097  0.4303  0.4320
  648MOL0     H89359   6.199   6.787   0.336 -0.8055  1.8889 -0.2203
  648MOL0     H89360   6.196   6.834   0.510  0.1541  0.2502  0.3077
  648MOL0     H89361   6.126   7.065   0.453 -1.4719  0.8047 -0.7666
  648MOL0     H89362   6.141   7.020   0.286  0.9310 -2.5210 -0.6805
  648MOL0     H89363   5.947   6.873   0.292 -2.2040 -0.9107 -0.3468
  648MOL0     H89364   5.932   6.899   0.466  2.1437 -2.8367 -1.3073
  648MOL0     H89365   5.866   7.060   0.220  0.2409  2.2653 -0.2390
  648MOL0     H89366   5.911   7.155   0.369 -0.1163 -0.1138  2.6907
  648MOL0     H89367   5.742   7.073   0.494  0.3145  3.2852 -0.9529
  648MOL0     H89368   5.666   7.098   0.329  0.4259 -0.8928 -0.1213
  648MOL0     H89369   5.594   6.884   0.455 -0.6180  2.1587 -0.0192
  648MOL0     H89370   5.753   6.819   0.401 -0.0188  0.7644  1.8197
  648MOL0     H89371   5.611   6.749   0.245 -4.4384  0.7362 -0.6105
  648MOL0     H89372   5.519   6.894   0.226 -1.2835 -0.6070  2.4198
  648MOL0     H89373   5.823   6.705   0.102  0.2064 -0.6913 -1.5748
  648MOL0     H89374   5.971   6.898  -0.211 -0.6304  0.0433  0.2375
  648MOL0     H89375   5.956   6.735  -0.145 -1.5761 -0.1072  0.2862
  648MOL0     H89376   6.177   6.855  -0.131  1.5567 -1.4479  1.9913
  648MOL0     H89377   6.118   6.954  -0.002 -0.9514 -0.3075  0.2143
  648MOL0     H89378   6.257   6.798   0.070  0.2392  1.7237  0.2690
  648MOL0     H89379   6.088   6.767   0.142 -1.6679 -1.3369 -0.9707
  648MOL0     H89380   6.228   6.593  -0.067 -1.4964  0.2872 -1.2845
  648MOL0     H89381   6.202   6.560   0.107  0.5516 -1.4395 -1.2945
  648MOL0     H89382   6.207   6.360  -0.078 -0.3347  4.2096  0.7197
  648MOL0     H89383   6.150   6.050  -0.154 -1.5283  2.6249 -0.3393
  648MOL0     H89384   6.230   6.010  -0.005 -0.0238 -3.2311 -2.9058
  648MOL0     H89385   6.283   6.145  -0.106 -0.9655 -0.6348 -2.2385
  648MOL0     H89386   5.551   5.892   0.046 -1.7844  0.2361  1.9482
  648MOL0     H89387   5.457   5.681   0.110  1.0946 -2.1029 -0.4791
  648MOL0     H89388   5.387   5.412   0.321  0.1729  2.2016  1.8781
  648MOL0     H89389   5.380   5.559   0.234  1.4214  0.3188  2.4147
  648MOL0     H89390   5.475   5.447   0.038 -1.3568  1.1892  0.0575
  648MOL0     H89391   5.448   5.288   0.110  0.4234  0.3660  0.7438
  648MOL0     H89392   5.234   5.489   0.024  0.4264  2.0662  2.5396
  648MOL0     H89393   5.196   5.391   0.168 -0.7404 -0.4556 -0.7075
  648MOL0     H89394   5.237   5.193   0.045  1.0153  1.3175  2.1450
  648MOL0     H89395   5.278   5.281  -0.105  0.5622 -0.2860  1.1069
  648MOL0     H89396   5.023   5.315   0.056 -0.4843 -1.6011 -0.6793
  648MOL0     H89397   5.052   5.365  -0.109 -0.0802  1.9852  1.9693
  648MOL0     H89398   5.036   5.074  -0.019 -2.8571 -1.4569 -1.5685
  648MOL0     H89399   5.038   5.119  -0.185  2.1926 -2.6881  0.7907
  648MOL0     H89400   4.813   5.214  -0.009 -2.0284  0.2340 -1.7236
  648MOL0     H89401   4.804   5.061  -0.091  0.6751 -0.2912  0.3648
  648MOL0     H89402   4.850   5.327  -0.226  0.6376 -0.5469  0.1367
  648MOL0     H89403   4.697   5.233  -0.226 -0.3132 -0.4274  1.8261
  648MOL0     H89404   5.824   5.554   0.299  0.6372  0.8122  0.2882
  648MOL0     H89405   5.931   5.761   0.188 -0.0008  2.1472 -3.0780
  648MOL0     H89406   5.794   6.197   0.132  1.8951 -0.7658  2.9974
  648MOL0     H89407   5.826   6.432   0.107 -1.6154  0.6846 -3.9347
  648MOL0     H89408   6.552   6.981   0.607 -1.9679 -0.8143 -2.9808
  648MOL0     H89409   6.805   6.988   0.661  1.4871  1.5569 -1.1637
  648MOL0     H89410   7.206   7.001   0.666 -0.6445 -0.7002  1.7694
  648MOL0     H89411   7.431   6.983   0.768 -0.6471 -1.0046  1.0061
  648MOL0     H89412   7.719   6.981   0.769 -1.0473  0.3071 -0.7002
  648MOL0     H89413   7.592   6.931   0.876 -0.5643 -0.0931 -1.5738
  648MOL0     H89414   7.707   6.692   0.879 -0.2445  1.0296 -1.8878
  648MOL0     H89415   7.781   6.804   0.977 -2.4928  1.0099  0.5170
  648MOL0     H89416   7.879   6.746   0.688  1.7345 -0.2673 -0.8952
  648MOL0     H89417   7.951   6.866   0.802  2.5307 -1.0119  3.6555
  648MOL0     H89418   7.932   6.559   0.821 -2.0854  1.5526 -2.6895
  648MOL0     H89419   7.967   6.653   0.964 -0.8370 -2.7124 -0.3516
  648MOL0     H89420   8.317   6.741   0.736  0.1628  0.9116 -0.1029
  648MOL0     H89421   7.551   6.683   0.501  1.3656  2.3506  0.3340
  648MOL0     H89422   7.298   6.695   0.265  1.8730 -1.2776 -1.4789
  648MOL0     H89423   7.444   6.624   0.342 -0.1712 -1.0110  2.0213
  648MOL0     H89424   7.275   6.574   0.395  0.4317 -0.9914 -1.1766
  649MOL0     O89425   3.287   6.666   7.048  0.4604  0.9308  1.0704
  649MOL0     C89426   3.227   6.579   7.115 -0.9137  1.1016 -0.0486
  649MOL0     O89427   3.262   6.541   7.239  0.5110  0.5054  0.5870
  649MOL0     C89428   3.369   6.596   7.300  0.8884 -0.2931  0.9769
  649MOL0     C89429   3.463   6.510   7.364 -0.0445  0.4298  0.1088
  649MOL0     C89430   3.568   6.551   7.445  0.1205 -0.3153  0.3125
  649MOL0     C89431   3.583   6.684   7.459 -0.8391 -0.5291 -0.3519
  649MOL0     O89432   3.690   6.720   7.537 -0.1265  0.2307 -0.5236
  649MOL0     C89433   3.768   6.832   7.480  0.1951  0.6312 -0.1528
  649MOL0     C89434   3.901   6.825   7.566  0.3582  0.3425  0.0933
  649MOL0     C89435   3.986   6.695   7.544 -1.1349  0.0305  0.2439
  649MOL0     C89436   4.136   6.724   7.565 -0.7201  1.2243 -0.0817
  649MOL0     C89437   4.213   6.588   7.585 -0.0747 -0.5896 -0.5121
  649MOL0     C89438   4.353   6.638   7.630  0.1125  0.3520 -0.1367
  649MOL0     C89439   4.453   6.524   7.597  0.3410 -0.0614 -0.2126
  649MOL0     C89440   4.491   6.525   7.450  0.1235  0.2693  0.5661
  649MOL0     N89441   4.598   6.617   7.417 -0.4323 -0.1040 -0.1307
  649MOL0     C89442   4.699   6.583   7.328 -0.7276  0.1989  0.5207
  649MOL0     C89443   4.756   6.701   7.296  1.0683 -0.6149  0.2784
  649MOL0     C89444   4.875   6.723   7.219 -1.0308  0.1552  0.4964
  649MOL0     C89445   4.960   6.600   7.165  0.4341  0.1067  1.0692
  649MOL0     C89446   5.036   6.512   7.265 -0.2961  0.5226 -0.0739
  649MOL0     C89447   5.174   6.559   7.298 -0.0629 -0.1870 -0.5334
  649MOL0     O89448   5.163   6.693   7.361 -0.5849 -0.6862 -1.1078
  649MOL0     C89449   5.287   6.757   7.385 -0.1992  0.3761  0.3170
  649MOL0     C89450   5.282   6.887   7.425  0.2343  0.3595 -0.0738
  649MOL0     C89451   5.396   6.969   7.446 -0.5290  0.5530 -0.6111
  649MOL0     C89452   5.365   7.117   7.457  0.8535 -0.0747 -0.1347
  649MOL0     C89453   5.524   6.911   7.442 -0.2430 -0.2158  0.2457
  649MOL0     C89454   5.648   6.986   7.445  0.6795  0.0810 -0.3357
  649MOL0     O89455   5.760   6.941   7.385  0.0600  0.1639  0.0636
  649MOL0     C89456   5.878   7.013   7.405  0.6594 -0.2518  0.0376
  649MOL0     C89457   5.945   7.072   7.294  0.0694  0.8912 -0.0278
  649MOL0     C89458   6.074   7.114   7.312  0.0186 -0.4593  0.3725
  649MOL0     C89459   6.133   7.120   7.435 -0.5943  0.9652  0.0742
  649MOL0     O89460   6.256   7.180   7.446 -0.5202 -0.0702  0.0097
  649MOL0     C89461   6.371   7.097   7.421 -0.1932  0.5398  0.5195
  649MOL0     C89462   6.497   7.186   7.380 -0.0078  0.7581 -0.5620
  649MOL0     C89463   6.548   7.275   7.491  0.5077  0.1981 -0.2622
  649MOL0     C89464   6.616   7.192   7.602  0.3387 -0.2952  0.2466
  649MOL0     C89465   6.703   7.274   7.697 -1.1686  0.2471 -0.7088
  649MOL0     C89466   6.770   7.195   7.807  0.3571 -0.1080  0.4676
  649MOL0     C89467   6.861   7.293   7.890 -0.2464 -0.4027 -0.0515
  649MOL0     C89468   6.889   7.230   8.026  0.1928 -1.1266 -0.5402
  649MOL0    Cl89469   7.021   7.317   8.127  0.0013 -0.0770  0.0825
  649MOL0     C89470   6.062   7.075   7.549 -0.1520  0.6520  0.2924
  649MOL0     C89471   5.943   7.012   7.530  0.4737  0.0685 -0.4725
  649MOL0     O89472   5.647   7.089   7.520  0.2312  0.3392  0.1127
  649MOL0     C89473   5.531   6.774   7.404  0.0811 -0.3678  0.5767
  649MOL0     C89474   5.417   6.699   7.371  0.2698  0.5354 -0.3470
  649MOL0     N89475   4.674   6.801   7.343 -0.1061  0.0552 -0.2046
  649MOL0     N89476   4.590   6.753   7.424 -0.3896  0.2084  0.3685
  649MOL0     C89477   3.493   6.773   7.403  0.7267  0.3572 -0.3549
  649MOL0     C89478   3.383   6.731   7.327  0.1019 -0.4477 -0.1148
  649MOL0     C89479   3.117   6.508   7.049 -0.6620 -0.1289  0.3547
  649MOL0     C89480   3.048   6.563   6.940  0.5778  0.0427  0.2926
  649MOL0     C89481   2.957   6.490   6.863 -0.1508  0.7408 -0.9683
  649MOL0     C89482   2.920   6.358   6.894  0.5106 -0.1511  0.2526
  649MOL0     O89483   2.821   6.303   6.814 -0.0959 -0.2821  0.7407
  649MOL0     C89484   2.783   6.163   6.821 -0.3031  0.7317 -0.7534
  649MOL0     C89485   2.662   6.151   6.904  0.6725  0.3724 -0.5547
  649MOL0     C89486   2.685   6.136   7.054 -0.6291 -0.2000 -0.9376
  649MOL0     C89487   2.550   6.103   7.133 -0.4794  0.3414  0.1700
  649MOL0     C89488   2.472   6.221   7.158  0.1136 -0.1018  0.2602
  649MOL0     C89489   2.400   6.309   7.177  0.2594 -1.3671 -0.4903
  649MOL0     C89490   2.976   6.304   7.002 -0.3824  0.2165 -0.3227
  649MOL0     C89491   3.084   6.370   7.072  0.1432 -0.8060 -0.0045
  649MOL0     C89492   3.156   6.273   7.180  0.9762 -0.6762  0.5927
  649MOL0     H89493   3.444   6.403   7.357 -3.5306  0.9116  0.4712
  649MOL0     H89494   3.640   6.493   7.501  1.3035  2.3723  1.7444
  649MOL0     H89495   3.724   6.932   7.472  1.4437  1.5321  2.9417
  649MOL0     H89496   3.796   6.807   7.377  0.2347  2.1608 -0.5389
  649MOL0     H89497   3.951   6.918   7.536 -1.2674  0.6680 -1.8277
  649MOL0     H89498   3.896   6.831   7.675  1.5782  0.2414  0.1667
  649MOL0     H89499   3.940   6.622   7.611 -0.6872  0.3186  0.8776
  649MOL0     H89500   3.978   6.671   7.438 -1.1652  1.5342 -0.1205
  649MOL0     H89501   4.194   6.770   7.484  0.7005 -0.8513 -0.3343
  649MOL0     H89502   4.138   6.796   7.647 -0.5678  2.6216 -1.2560
  649MOL0     H89503   4.233   6.545   7.486  3.5447  1.2900 -0.7812
  649MOL0     H89504   4.169   6.519   7.658  2.4168 -1.6180  0.1143
  649MOL0     H89505   4.389   6.723   7.571  4.3909 -1.1390  0.0316
  649MOL0     H89506   4.363   6.671   7.734  5.4571  1.5622 -0.7410
  649MOL0     H89507   4.413   6.432   7.642  0.8758  0.8540  2.2852
  649MOL0     H89508   4.542   6.552   7.652 -0.7649  1.6069  0.8210
  649MOL0     H89509   4.531   6.425   7.428  3.5951  0.7361  3.7618
  649MOL0     H89510   4.399   6.548   7.395 -0.7588 -3.0624  0.3935
  649MOL0     H89511   4.748   6.492   7.294  0.3799  1.8468 -2.7763
  649MOL0     H89512   4.941   6.792   7.273 -1.3303  0.6172  0.2778
  649MOL0     H89513   4.837   6.768   7.127 -2.9236 -1.8706  0.2007
  649MOL0     H89514   4.901   6.534   7.100  3.2167 -0.5710 -0.9832
  649MOL0     H89515   5.028   6.639   7.089 -2.9521 -0.6041 -2.6428
  649MOL0     H89516   4.988   6.522   7.363 -0.5850  0.5081 -0.2123
  649MOL0     H89517   5.039   6.406   7.240  0.3900  0.2713  0.9962
  649MOL0     H89518   5.226   6.491   7.367  2.0413  2.0641  0.2387
  649MOL0     H89519   5.246   6.564   7.216  1.5586 -1.4032  0.7455
  649MOL0     H89520   5.180   6.926   7.429 -0.3948 -1.2807  0.9263
  649MOL0     H89521   5.318   7.143   7.552 -2.5452 -3.5737 -0.5915
  649MOL0     H89522   5.281   7.139   7.392 -0.2815 -2.2709  0.4910
  649MOL0     H89523   5.455   7.171   7.426  0.9920 -1.0939 -1.5713
  649MOL0     H89524   5.907   7.068   7.192  0.8231 -1.7111 -0.2821
  649MOL0     H89525   6.133   7.153   7.229 -0.9616 -1.6248 -0.9270
  649MOL0     H89526   6.405   7.041   7.508  5.3002  1.1666 -0.8370
  649MOL0     H89527   6.345   7.029   7.340  0.3160  0.6540  0.2578
  649MOL0     H89528   6.573   7.115   7.348  0.9622  1.0517  0.9718
  649MOL0     H89529   6.476   7.246   7.291  0.0467  2.0133  0.2400
  649MOL0     H89530   6.472   7.340   7.537  1.3452  1.2655 -0.3365
  649MOL0     H89531   6.624   7.350   7.465  1.1185  0.0955  1.1416
  649MOL0     H89532   6.681   7.122   7.549 -1.1049 -0.9851 -0.6618
  649MOL0     H89533   6.535   7.134   7.646 -1.6431  0.7240 -1.8671
  649MOL0     H89534   6.783   7.332   7.650  1.0674  1.1486  3.6697
  649MOL0     H89535   6.638   7.351   7.741 -2.1670 -1.5844  1.2033
  649MOL0     H89536   6.831   7.110   7.775  0.4990  0.1051  0.1729
  649MOL0     H89537   6.684   7.157   7.863 -0.6634  1.8685  0.3461
  649MOL0     H89538   6.821   7.393   7.904 -2.1382 -1.3370  1.7009
  649MOL0     H89539   6.955   7.304   7.834  0.3395 -1.8568  0.5892
  649MOL0     H89540   6.909   7.124   8.009 -0.3480 -1.1371 -1.1855
  649MOL0     H89541   6.793   7.241   8.077  0.3793  0.4396 -0.4781
  649MOL0     H89542   6.117   7.077   7.643  2.2929  0.9886 -1.0509
  649MOL0     H89543   5.893   6.958   7.610  0.0535  0.0263 -0.7612
  649MOL0     H89544   5.630   6.731   7.392 -0.7772 -1.9404 -1.4038
  649MOL0     H89545   5.432   6.595   7.345  2.3430  0.7828 -0.2963
  649MOL0     H89546   3.510   6.880   7.413  1.6069  0.1593  0.3816
  649MOL0     H89547   3.319   6.812   7.291  1.2455  1.4504  1.8642
  649MOL0     H89548   3.070   6.660   6.896 -2.5716 -0.0430 -1.7449
  649MOL0     H89549   2.898   6.538   6.786 -3.8060 -2.0133 -0.1756
  649MOL0     H89550   2.748   6.128   6.723 -3.0417 -0.1681  0.4353
  649MOL0     H89551   2.863   6.095   6.850 -0.3903  0.4040 -1.2821
  649MOL0     H89552   2.593   6.075   6.866 -0.2896  0.3899  1.0600
  649MOL0     H89553   2.622   6.252   6.892 -0.7471 -0.2142 -1.0718
  649MOL0     H89554   2.765   6.064   7.075 -0.7194 -0.1562 -0.4307
  649MOL0     H89555   2.727   6.233   7.084  1.4531 -1.4952  0.5834
  649MOL0     H89556   2.587   6.066   7.230  2.8281  2.6834 -0.0313
  649MOL0     H89557   2.491   6.027   7.082 -1.1804  0.7228  0.4027
  649MOL0     H89558   2.331   6.391   7.175 -0.4991 -1.9392  0.5978
  649MOL0     H89559   2.950   6.201   7.023 -1.1341  0.2574 -1.0375
  649MOL0     H89560   3.116   6.171   7.178 -2.8804  0.6739 -1.5772
  649MOL0     H89561   3.262   6.260   7.157  1.3778  1.6830  0.8742
  649MOL0     H89562   3.143   6.319   7.279  0.3376 -2.1027  1.1932
  650MOL0     O89563   8.260   4.720   4.681 -0.4586 -0.1272 -0.0906
  650MOL0     C89564   8.260   4.837   4.722  0.0450  0.4587 -0.7009
  650MOL0     O89565   8.170   4.884   4.820 -0.5284 -0.0644  0.0988
  650MOL0     C89566   8.055   4.808   4.822  0.7784 -0.3269 -0.6279
  650MOL0     C89567   7.942   4.851   4.760 -0.4496  0.5901 -0.0827
  650MOL0     C89568   7.830   4.777   4.773  0.1779 -0.3349 -0.0320
  650MOL0     C89569   7.819   4.666   4.859  0.2748 -0.2155  0.2187
  650MOL0     O89570   7.707   4.600   4.885  0.1988 -0.1456  0.3798
  650MOL0     C89571   7.607   4.686   4.937 -0.4934  0.5081  0.3706
  650MOL0     C89572   7.479   4.607   4.968 -0.3260  0.5474  0.0183
  650MOL0     C89573   7.368   4.714   4.980 -0.0457 -0.3055  0.2168
  650MOL0     C89574   7.313   4.766   4.841  0.0607  0.6025  1.1431
  650MOL0     C89575   7.156   4.782   4.829  0.0667 -1.1222 -0.8559
  650MOL0     C89576   7.082   4.645   4.830  0.7202 -0.0509 -0.3530
  650MOL0     C89577   6.927   4.681   4.810 -0.0663  0.5255  0.0048
  650MOL0     C89578   6.841   4.556   4.809  0.0312 -0.8563  0.2221
  650MOL0     N89579   6.701   4.576   4.773 -0.2492 -0.3014  0.3378
  650MOL0     C89580   6.647   4.663   4.682 -0.3347  0.2338 -0.7669
  650MOL0     C89581   6.527   4.692   4.713 -0.2833  0.2958  0.2714
  650MOL0     C89582   6.418   4.784   4.663  0.5463  0.3947 -0.6615
  650MOL0     C89583   6.466   4.923   4.648 -0.7008  0.2588  0.0311
  650MOL0     C89584   6.511   4.989   4.777 -0.2299  0.7467  0.2305
  650MOL0     C89585   6.549   5.135   4.751  0.3305 -0.5435  1.0604
  650MOL0     O89586   6.607   5.163   4.623  0.1828  0.3237  0.4697
  650MOL0     C89587   6.742   5.131   4.598  0.5066 -0.7494 -0.4352
  650MOL0     C89588   6.788   5.141   4.469  0.0805  0.3022 -0.1331
  650MOL0     C89589   6.921   5.107   4.432  0.1003 -0.2245  0.5960
  650MOL0     C89590   6.960   5.092   4.291 -0.6066 -0.7580 -0.2281
  650MOL0     C89591   7.019   5.081   4.530  0.0237  0.2260 -0.2893
  650MOL0     C89592   7.160   5.040   4.506 -0.2932 -0.2255  0.3139
  650MOL0     O89593   7.251   5.118   4.566  0.4971 -0.5175  0.1729
  650MOL0     C89594   7.387   5.103   4.562  0.0679 -0.0155 -0.0212
  650MOL0     C89595   7.458   5.192   4.652  0.0458  0.1620 -1.3379
  650MOL0     C89596   7.594   5.197   4.656  0.7147  0.3460 -0.2909
  650MOL0     C89597   7.671   5.121   4.577  0.2195 -0.2322  0.0153
  650MOL0     O89598   7.806   5.121   4.575  0.2659 -0.2327  0.5438
  650MOL0     C89599   7.869   5.132   4.452 -1.1515 -0.4127 -0.6146
  650MOL0     C89600   8.018   5.146   4.490 -0.0661 -0.0811  0.5609
  650MOL0     C89601   8.099   5.178   4.361  0.6758 -0.2343 -0.7613
  650MOL0     C89602   8.251   5.140   4.372 -0.5170 -0.6687  0.6061
  650MOL0     C89603   8.328   5.204   4.252 -1.2842  0.5658 -0.4266
  650MOL0     C89604   8.469   5.148   4.247  0.3839 -0.2052 -0.8706
  650MOL0     C89605   8.513   5.178   4.113  0.1258  0.2147 -0.2060
  650MOL0     C89606   8.669   5.170   4.110  0.2232  0.0171 -0.0216
  650MOL0    Cl89607   8.732   5.296   3.998 -0.5992  0.4532  0.1055
  650MOL0     C89608   7.606   5.020   4.499 -0.0625  0.0161 -0.5951
  650MOL0     C89609   7.468   5.011   4.493 -0.5876  1.0019  0.3317
  650MOL0     O89610   7.188   4.940   4.441 -0.2980 -0.2710 -0.4887
  650MOL0     C89611   6.973   5.079   4.672 -0.0433 -0.1334  1.2155
  650MOL0     C89612   6.838   5.097   4.695 -0.3559 -0.3175  0.3659
  650MOL0     N89613   6.496   4.614   4.828 -1.0620  0.0072  0.4065
  650MOL0     N89614   6.604   4.551   4.857  0.2071 -0.1200  0.3093
  650MOL0     C89615   7.933   4.620   4.915 -0.9435  0.1397  0.4119
  650MOL0     C89616   8.053   4.691   4.898 -0.0548  0.6649 -0.1221
  650MOL0     C89617   8.364   4.924   4.682  1.1266 -0.7775  0.2263
  650MOL0     C89618   8.368   5.055   4.743 -0.2889  0.6591  1.0288
  650MOL0     C89619   8.477   5.134   4.737  0.4658 -0.0080 -0.5202
  650MOL0     C89620   8.579   5.095   4.664  0.1959  0.4900  0.3569
  650MOL0     O89621   8.686   5.179   4.653 -0.5158  0.6062  0.3707
  650MOL0     C89622   8.811   5.129   4.611  1.1773  0.1182  0.2866
  650MOL0     C89623   8.914   5.215   4.676 -0.6535 -0.1808  0.2514
  650MOL0     C89624   9.052   5.216   4.607 -0.2386  0.7928 -0.2712
  650MOL0     C89625   9.064   5.325   4.496  0.3402 -0.1620  0.0480
  650MOL0     C89626   9.187   5.304   4.419  0.2140  0.3914  0.8571
  650MOL0     C89627   9.294   5.296   4.353  0.3495  0.4918  0.6421
  650MOL0     C89628   8.578   4.972   4.584  0.8449  0.8551 -0.3730
  650MOL0     C89629   8.466   4.888   4.583 -0.8042  0.6533  0.5705
  650MOL0     C89630   8.478   4.769   4.489  0.6144  1.5213  0.8093
  650MOL0     H89631   7.932   4.935   4.692 -0.5454  2.3170  1.9561
  650MOL0     H89632   7.743   4.809   4.716  0.8682 -0.4119 -1.1705
  650MOL0     H89633   7.588   4.770   4.869  1.5068  1.2208  0.6352
  650MOL0     H89634   7.632   4.729   5.034 -2.4016  1.5938  0.4399
  650MOL0     H89635   7.458   4.540   4.884  2.7433 -0.7562  0.1216
  650MOL0     H89636   7.490   4.558   5.066  0.9572  0.2232 -0.2594
  650MOL0     H89637   7.287   4.671   5.040 -0.6746  2.8711  1.8563
  650MOL0     H89638   7.377   4.807   5.036 -1.0273  0.5868 -1.0503
  650MOL0     H89639   7.354   4.860   4.803 -1.8373  1.4141  0.9831
  650MOL0     H89640   7.343   4.698   4.760  2.0851  1.9114  0.7243
  650MOL0     H89641   7.143   4.829   4.731 -1.0724  3.0672  1.0780
  650MOL0     H89642   7.121   4.855   4.903  0.0945  1.4152 -3.2084
  650MOL0     H89643   7.126   4.580   4.753  0.4834  0.1156 -0.6333
  650MOL0     H89644   7.090   4.600   4.929 -5.5242  1.7118  1.4317
  650MOL0     H89645   6.914   4.730   4.713  0.7135 -2.1289 -1.5364
  650MOL0     H89646   6.904   4.750   4.892 -0.5222  1.0986 -0.5982
  650MOL0     H89647   6.869   4.488   4.728 -0.1282  0.1122 -0.6631
  650MOL0     H89648   6.851   4.512   4.909  1.2811  1.9277  1.4102
  650MOL0     H89649   6.700   4.723   4.608  1.3883 -0.0712  0.1529
  650MOL0     H89650   6.331   4.772   4.729  2.0439 -0.3321  1.2858
  650MOL0     H89651   6.384   4.750   4.565  1.0660 -0.4834 -0.5464
  650MOL0     H89652   6.549   4.914   4.577 -0.0742 -2.1283  0.9679
  650MOL0     H89653   6.388   4.981   4.599 -0.1542  0.0726 -1.0819
  650MOL0     H89654   6.431   4.976   4.850 -0.0372 -0.2777  0.2816
  650MOL0     H89655   6.603   4.947   4.819 -0.2491  1.3533  0.8992
  650MOL0     H89656   6.458   5.196   4.749 -0.4287 -1.6589 -1.0560
  650MOL0     H89657   6.614   5.170   4.831  2.8178 -1.1710 -0.5676
  650MOL0     H89658   6.725   5.175   4.387  0.2567  1.1801  0.0876
  650MOL0     H89659   6.973   4.986   4.266 -1.7304 -1.1558  0.8231
  650MOL0     H89660   7.049   5.150   4.266 -0.9885  0.4417  1.0747
  650MOL0     H89661   6.879   5.131   4.229 -0.4292 -0.9477 -0.5801
  650MOL0     H89662   7.394   5.263   4.703 -0.3033 -0.7578 -0.4422
  650MOL0     H89663   7.646   5.269   4.718 -1.7562  1.5133  0.5457
  650MOL0     H89664   7.863   5.049   4.381  3.8547 -0.7491 -1.0015
  650MOL0     H89665   7.826   5.222   4.408 -1.9833 -0.6410 -0.2803
  650MOL0     H89666   8.041   5.219   4.568 -1.3505  0.0033  0.8816
  650MOL0     H89667   8.036   5.045   4.528 -2.7855 -2.3427 -3.3811
  650MOL0     H89668   8.097   5.287   4.358  0.6476 -0.2503 -1.5539
  650MOL0     H89669   8.054   5.136   4.271  1.4216 -0.6090 -0.9614
  650MOL0     H89670   8.263   5.032   4.376  2.5885 -0.5872 -2.2879
  650MOL0     H89671   8.291   5.176   4.467 -1.0624  1.1522  0.1960
  650MOL0     H89672   8.273   5.175   4.162  0.4501  1.0468 -1.6975
  650MOL0     H89673   8.334   5.313   4.262  0.9284  0.5268 -0.6917
  650MOL0     H89674   8.469   5.040   4.265 -0.6006 -0.5735 -2.7890
  650MOL0     H89675   8.525   5.194   4.329  0.9162 -1.0800 -0.7256
  650MOL0     H89676   8.490   5.283   4.092  0.7003  0.4203  0.1597
  650MOL0     H89677   8.470   5.117   4.033 -0.0434  0.5885 -0.4020
  650MOL0     H89678   8.693   5.068   4.081  1.7165  0.5140 -0.6211
  650MOL0     H89679   8.705   5.188   4.211 -0.3235 -1.6987  0.5142
  650MOL0     H89680   7.659   4.947   4.439  0.0611  1.4032 -2.2703
  650MOL0     H89681   7.432   4.940   4.419  0.4667  2.1597 -1.3892
  650MOL0     H89682   7.051   5.045   4.740  0.2763 -1.0709  0.4051
  650MOL0     H89683   6.809   5.083   4.799 -1.8706  1.0986  0.1786
  650MOL0     H89684   7.922   4.530   4.975 -3.1959  0.0287 -0.0554
  650MOL0     H89685   8.148   4.657   4.937  0.3183 -1.3386 -2.5445
  650MOL0     H89686   8.286   5.095   4.802  0.1630 -0.5312  2.5412
  650MOL0     H89687   8.476   5.234   4.780 -3.0521 -0.4259  0.7225
  650MOL0     H89688   8.839   5.026   4.637  0.3688 -0.0045  0.6941
  650MOL0     H89689   8.805   5.134   4.502 -0.6575 -0.2696  0.3376
  650MOL0     H89690   8.931   5.176   4.777  2.5032 -0.7762 -0.4100
  650MOL0     H89691   8.874   5.317   4.682  2.0183  1.1101 -1.6118
  650MOL0     H89692   9.133   5.221   4.680 -0.5021  0.4956  0.0454
  650MOL0     H89693   9.066   5.118   4.561 -2.6462  0.6690 -0.8697
  650MOL0     H89694   9.079   5.426   4.535 -1.0215  1.4357 -3.2384
  650MOL0     H89695   8.983   5.317   4.422  0.8150 -0.8832 -0.4055
  650MOL0     H89696   9.381   5.301   4.290 -0.8553  4.3058 -1.0423
  650MOL0     H89697   8.660   4.960   4.514  0.7445  1.1381 -0.5407
  650MOL0     H89698   8.494   4.812   4.390  0.8388 -2.9809 -1.3690
  650MOL0     H89699   8.554   4.698   4.524  0.0014 -0.3331 -1.3789
  650MOL0     H89700   8.385   4.714   4.474  1.9465 -0.9638  1.1358
  651MOL0     O89701   0.854   5.087   5.688 -0.2423  0.0194  0.1797
  651MOL0     C89702   0.749   5.064   5.752 -0.5008  0.6202  0.1490
  651MOL0     O89703   0.732   5.105   5.879  0.6937  0.1919  0.0188
  651MOL0     C89704   0.846   5.148   5.947  0.9424  0.1937 -0.6540
  651MOL0     C89705   0.887   5.272   5.945 -0.9480 -1.0755 -0.0929
  651MOL0     C89706   1.003   5.305   6.013  0.5593 -0.2813  0.1837
  651MOL0     C89707   1.070   5.215   6.103 -0.3679 -0.3540  0.2584
  651MOL0     O89708   1.191   5.251   6.158  0.3868  0.2654 -0.0014
  651MOL0     C89709   1.260   5.166   6.237  0.2826  0.3456  0.4414
  651MOL0     C89710   1.407   5.226   6.251  0.0728 -0.4214 -0.1734
  651MOL0     C89711   1.503   5.192   6.131  0.0973 -0.0051  0.4383
  651MOL0     C89712   1.553   5.047   6.118  0.0569  0.2352  0.0142
  651MOL0     C89713   1.658   4.993   6.215  0.3330 -0.4649 -0.1538
  651MOL0     C89714   1.793   5.070   6.195  0.3305  0.6288  0.0579
  651MOL0     C89715   1.901   5.001   6.281  0.2643  0.1086  0.2662
  651MOL0     C89716   1.884   5.020   6.429  0.3608  0.0550  0.3223
  651MOL0     N89717   2.006   4.967   6.499 -0.0252  0.1143 -0.5811
  651MOL0     C89718   2.122   5.041   6.534  0.0476 -0.4224  0.5677
  651MOL0     C89719   2.201   4.947   6.588 -0.3233 -0.0089  0.0993
  651MOL0     C89720   2.347   4.946   6.639 -0.5259 -0.5133  0.0553
  651MOL0     C89721   2.409   5.082   6.638 -0.1765 -0.6953  0.1948
  651MOL0     C89722   2.364   5.165   6.748  0.7045  0.0903 -0.4383
  651MOL0     C89723   2.427   5.302   6.747  0.4079  0.2460  0.2280
  651MOL0     O89724   2.576   5.300   6.744  0.2665 -0.0303  1.0387
  651MOL0     C89725   2.640   5.419   6.782 -0.3945 -0.8509  0.0535
  651MOL0     C89726   2.584   5.534   6.835  0.2448 -0.5089  0.6473
  651MOL0     C89727   2.665   5.648   6.871 -0.2492  0.4369 -0.2504
  651MOL0     C89728   2.591   5.759   6.947 -0.0460  0.6882 -0.0338
  651MOL0     C89729   2.803   5.637   6.855  0.0007 -0.1013  0.2248
  651MOL0     C89730   2.901   5.738   6.890  0.4864 -0.1288 -0.0702
  651MOL0     O89731   3.034   5.716   6.853  0.3730  0.5386 -0.6065
  651MOL0     C89732   3.137   5.782   6.915  0.2221  0.8599 -0.3878
  651MOL0     C89733   3.271   5.779   6.848 -0.0951  0.2037 -0.6884
  651MOL0     C89734   3.374   5.851   6.912 -0.4096 -0.0739 -0.5792
  651MOL0     C89735   3.357   5.905   7.041 -0.8136 -0.2433  0.2966
  651MOL0     O89736   3.453   5.974   7.110 -0.0344  0.7656 -0.2119
  651MOL0     C89737   3.566   6.010   7.032 -0.2357 -0.5846 -0.3702
  651MOL0     C89738   3.669   6.101   7.112  0.9653  0.3699  0.1026
  651MOL0     C89739   3.648   6.246   7.068 -0.3675  1.0274  0.2405
  651MOL0     C89740   3.742   6.334   7.148  0.0834 -0.2414  0.4401
  651MOL0     C89741   3.752   6.481   7.097  0.0837  0.1004 -0.2995
  651MOL0     C89742   3.812   6.494   6.956 -0.0860 -0.7240 -0.0023
  651MOL0     C89743   3.853   6.641   6.914 -0.3280 -0.7800  0.6714
  651MOL0     C89744   3.949   6.635   6.788  0.7029  0.3846 -0.1051
  651MOL0    Cl89745   3.849   6.622   6.649 -0.0890  0.3468  0.3030
  651MOL0     C89746   3.234   5.892   7.104  0.1916 -0.2584 -0.2275
  651MOL0     C89747   3.126   5.839   7.038 -0.6209 -0.3736  0.3556
  651MOL0     O89748   2.853   5.835   6.951  0.4126  0.2924  0.4941
  651MOL0     C89749   2.850   5.521   6.791 -0.9891 -0.8723  0.9900
  651MOL0     C89750   2.770   5.421   6.754 -0.1786 -0.3441 -0.2058
  651MOL0     N89751   2.138   4.826   6.584  0.6003 -0.1220  0.5002
  651MOL0     N89752   2.021   4.836   6.527 -0.2861 -0.4270 -0.4283
  651MOL0     C89753   1.015   5.084   6.119  0.3648 -0.4564  0.0122
  651MOL0     C89754   0.898   5.053   6.039 -0.0573  0.2923 -0.1177
  651MOL0     C89755   0.638   4.996   5.674  0.6054 -0.1612  0.1591
  651MOL0     C89756   0.506   4.998   5.732 -0.0863  0.4421 -0.0790
  651MOL0     C89757   0.393   4.932   5.677  0.1041  0.4843 -0.2594
  651MOL0     C89758   0.413   4.843   5.572 -0.7996 -0.3110  0.0744
  651MOL0     O89759   0.313   4.755   5.520  0.2466 -0.8196  0.9623
  651MOL0     C89760   0.173   4.779   5.554  0.1451 -0.3293  0.5181
  651MOL0     C89761   0.064   4.705   5.480  0.2652  0.4614  0.1815
  651MOL0     C89762   0.090   4.711   5.330 -0.1443  0.8722  0.3267
  651MOL0     C89763   0.188   4.607   5.273 -0.8645  0.6378 -0.2321
  651MOL0     C89764   0.133   4.474   5.290  0.4059 -0.1864  0.2979
  651MOL0     C89765   0.096   4.365   5.313 -0.2778  0.3197  0.1102
  651MOL0     C89766   0.545   4.840   5.520 -1.0261 -0.1776 -0.1881
  651MOL0     C89767   0.649   4.908   5.562  0.0452  1.2693  0.0824
  651MOL0     C89768   0.784   4.863   5.513  0.1799 -0.9592  0.4913
  651MOL0     H89769   0.830   5.349   5.892  0.5557  0.1365 -0.0261
  651MOL0     H89770   1.035   5.407   5.998 -0.0676  0.4370  3.0938
  651MOL0     H89771   1.278   5.071   6.185 -0.7502 -0.1256  0.8972
  651MOL0     H89772   1.201   5.153   6.328  0.4140 -0.0728  0.4700
  651MOL0     H89773   1.402   5.334   6.259  0.8867 -0.1932 -2.0888
  651MOL0     H89774   1.458   5.189   6.341  1.1698  0.7946 -0.2796
  651MOL0     H89775   1.455   5.214   6.035 -1.4210 -0.0001  1.1678
  651MOL0     H89776   1.588   5.260   6.141  2.2588 -2.3775 -0.7046
  651MOL0     H89777   1.468   4.978   6.129 -1.4638  2.2136  1.3595
  651MOL0     H89778   1.573   5.026   6.012 -0.1142  1.2993 -0.2358
  651MOL0     H89779   1.674   4.888   6.190 -0.5968 -0.4646 -0.8223
  651MOL0     H89780   1.621   5.004   6.317  0.7049 -0.6807  0.0055
  651MOL0     H89781   1.828   5.061   6.092  2.4849 -0.8375  0.8627
  651MOL0     H89782   1.788   5.177   6.219  1.3192  0.9270 -0.9536
  651MOL0     H89783   1.993   5.058   6.261 -0.3428  0.4304 -1.9940
  651MOL0     H89784   1.918   4.899   6.243  1.8843  1.2124 -2.3209
  651MOL0     H89785   1.859   5.122   6.459  2.1886  1.5339 -2.6112
  651MOL0     H89786   1.797   4.958   6.452 -0.1154  0.7488  0.4080
  651MOL0     H89787   2.138   5.147   6.518  2.7830 -0.5512  1.9858
  651MOL0     H89788   2.414   4.883   6.580  0.7673 -0.9289  1.8626
  651MOL0     H89789   2.342   4.915   6.744 -1.7498  0.6500  0.3638
  651MOL0     H89790   2.516   5.061   6.643 -0.0547 -0.3994 -0.9561
  651MOL0     H89791   2.386   5.130   6.543  3.1449  0.8411  0.0639
  651MOL0     H89792   2.256   5.177   6.735  0.7782  0.0634 -1.1253
  651MOL0     H89793   2.382   5.125   6.848 -1.0998 -0.4980 -0.3109
  651MOL0     H89794   2.385   5.367   6.669  2.5904  0.2539 -1.0265
  651MOL0     H89795   2.394   5.350   6.839 -1.8650  1.7700 -1.2685
  651MOL0     H89796   2.477   5.538   6.848 -0.0772  0.2301 -1.8041
  651MOL0     H89797   2.482   5.743   6.947  0.1206 -0.7789 -1.7624
  651MOL0     H89798   2.622   5.860   6.919 -0.6375  1.4148  1.7969
  651MOL0     H89799   2.620   5.759   7.052 -2.1137 -0.9007  0.6000
  651MOL0     H89800   3.286   5.725   6.755  1.4962  0.1529 -0.4247
  651MOL0     H89801   3.470   5.868   6.865  0.8595 -2.5955  0.9298
  651MOL0     H89802   3.618   5.921   6.996  0.9043 -0.2087  0.2754
  651MOL0     H89803   3.520   6.056   6.945 -1.1063 -2.1004 -0.7343
  651MOL0     H89804   3.665   6.085   7.220  1.3555 -0.3570  0.0195
  651MOL0     H89805   3.767   6.066   7.077 -0.9721 -2.4495 -3.0552
  651MOL0     H89806   3.547   6.281   7.090 -0.6283  2.0510 -2.2621
  651MOL0     H89807   3.669   6.241   6.961  0.7577 -0.9464  0.5078
  651MOL0     H89808   3.841   6.288   7.148 -0.2142 -0.9451  1.5347
  651MOL0     H89809   3.702   6.331   7.250 -3.5422  0.9155 -0.7793
  651MOL0     H89810   3.653   6.528   7.108  0.7098  1.0401  1.9596
  651MOL0     H89811   3.816   6.539   7.165 -2.4164  1.2989  1.1737
  651MOL0     H89812   3.737   6.453   6.888  1.2497  0.5216 -2.3463
  651MOL0     H89813   3.904   6.435   6.951  1.1198  0.9362  1.3870
  651MOL0     H89814   3.909   6.690   6.995 -3.8350  0.6670  2.4018
  651MOL0     H89815   3.778   6.716   6.887 -1.4500 -1.9033  0.6180
  651MOL0     H89816   4.012   6.546   6.794 -1.0304 -0.8422  0.8662
  651MOL0     H89817   4.009   6.725   6.770 -0.2077  1.2149  0.8758
  651MOL0     H89818   3.225   5.921   7.209 -1.4567  5.1870 -1.5597
  651MOL0     H89819   3.032   5.842   7.091 -0.0264 -2.0857  1.5838
  651MOL0     H89820   2.957   5.511   6.778 -0.8480  1.2359  0.0739
  651MOL0     H89821   2.809   5.341   6.692  0.7407 -0.0820  0.0039
  651MOL0     H89822   1.062   5.017   6.190  3.3268  1.6373  0.2276
  651MOL0     H89823   0.849   4.959   6.062  1.1716  0.1324  2.1851
  651MOL0     H89824   0.491   5.057   5.822  1.7607 -0.5110  0.9010
  651MOL0     H89825   0.295   4.940   5.723  0.2245 -1.9155  0.5281
  651MOL0     H89826   0.160   4.757   5.661  0.7319  2.1683  1.1643
  651MOL0     H89827   0.154   4.885   5.540 -0.5187 -0.4555  0.4101
  651MOL0     H89828  -0.023   4.767   5.504 -0.5829 -0.1931 -1.1152
  651MOL0     H89829   0.049   4.604   5.517 -1.7792  1.3464  1.9505
  651MOL0     H89830   0.001   4.709   5.267  1.1442  3.9228 -1.8569
  651MOL0     H89831   0.140   4.805   5.306  0.8267 -0.0801 -1.6669
  651MOL0     H89832   0.286   4.611   5.322  0.4632  1.7772 -2.8068
  651MOL0     H89833   0.219   4.617   5.169  3.3004 -3.4528  0.2945
  651MOL0     H89834   0.057   4.265   5.322  2.5740 -1.1325 -2.1783
  651MOL0     H89835   0.551   4.766   5.440  3.2852  0.9336 -1.1435
  651MOL0     H89836   0.838   4.839   5.604 -1.9046 -0.7042  1.8663
  651MOL0     H89837   0.780   4.779   5.443  0.5583  0.3124 -1.1179
  651MOL0     H89838   0.840   4.947   5.472  0.6798  0.0358  3.0446
  652MOL0     O89839   7.053   4.029   1.618 -0.0698  0.3967  0.2472
  652MOL0     C89840   7.028   3.966   1.515  0.2815  1.4271 -0.3583
  652MOL0     O89841   6.898   3.911   1.489  0.8564 -1.2640 -0.6364
  652MOL0     C89842   6.795   3.923   1.577 -0.0153 -0.4615 -0.5684
  652MOL0     C89843   6.720   3.813   1.612 -0.0203  0.3141 -0.3856
  652MOL0     C89844   6.608   3.833   1.702 -0.1148 -0.4933 -0.2202
  652MOL0     C89845   6.588   3.963   1.759  0.9042 -0.9225 -0.5175
  652MOL0     O89846   6.479   3.976   1.848 -0.3080 -0.4760  0.7088
  652MOL0     C89847   6.363   4.021   1.780  0.2635  0.2500 -0.5725
  652MOL0     C89848   6.261   4.058   1.889 -0.2614  0.1816 -0.0256
  652MOL0     C89849   6.311   4.177   1.971 -0.0660 -0.3727 -0.5135
  652MOL0     C89850   6.323   4.308   1.889 -0.4159 -0.3833  0.5636
  652MOL0     C89851   6.418   4.409   1.935 -0.1192  0.2557 -0.2595
  652MOL0     C89852   6.381   4.458   2.076  0.0440 -0.8471  0.0396
  652MOL0     C89853   6.436   4.606   2.097 -0.2682  0.1006  0.1850
  652MOL0     C89854   6.582   4.615   2.159  0.2154  0.1181  0.8348
  652MOL0     N89855   6.644   4.747   2.176  0.4202 -0.3818 -0.2182
  652MOL0     C89856   6.678   4.827   2.069  0.3342  0.4700 -0.6316
  652MOL0     C89857   6.705   4.949   2.119 -0.5361  0.0989  0.3203
  652MOL0     C89858   6.723   5.075   2.042 -0.4882 -0.2344  0.7763
  652MOL0     C89859   6.856   5.138   2.062 -0.2814 -0.1141 -0.5923
  652MOL0     C89860   6.984   5.048   2.065  0.6441 -0.1544  0.5723
  652MOL0     C89861   7.114   5.122   2.098 -0.2532 -0.2846  0.9773
  652MOL0     O89862   7.145   5.201   1.974 -0.0651 -0.1299 -0.2056
  652MOL0     C89863   7.245   5.157   1.896 -0.6245 -0.7295  0.3184
  652MOL0     C89864   7.214   5.182   1.764  0.2283 -0.1548  0.8041
  652MOL0     C89865   7.317   5.162   1.665 -0.2085 -0.6354 -0.6714
  652MOL0     C89866   7.280   5.212   1.527 -0.4218 -0.0754 -0.3682
  652MOL0     C89867   7.437   5.088   1.700 -0.3778  0.7506  0.4077
  652MOL0     C89868   7.534   5.035   1.599  0.0395  0.2605  0.3251
  652MOL0     O89869   7.535   5.082   1.472 -0.1456  0.0678  0.2173
  652MOL0     C89870   7.597   5.019   1.366 -0.4749  0.0722  0.1459
  652MOL0     C89871   7.619   5.095   1.254 -1.0938 -0.9712 -1.4111
  652MOL0     C89872   7.688   5.053   1.136 -0.4350  0.0361 -0.6435
  652MOL0     C89873   7.735   4.925   1.136 -0.3344  0.5592  0.4242
  652MOL0     O89874   7.805   4.889   1.022  0.1288 -0.1326  0.1685
  652MOL0     C89875   7.915   4.801   1.041  0.8842  1.1712 -0.4268
  652MOL0     C89876   7.973   4.750   0.915  0.6312 -0.4204  0.9213
  652MOL0     C89877   8.044   4.609   0.923  0.6292 -1.0009 -0.2725
  652MOL0     C89878   8.139   4.586   0.798  0.0509  0.6663 -0.3270
  652MOL0     C89879   8.195   4.448   0.812 -0.6763 -0.7580 -0.3445
  652MOL0     C89880   8.298   4.424   0.702  0.7435 -0.7950 -0.0408
  652MOL0     C89881   8.392   4.314   0.750  0.1021  0.8489 -0.5327
  652MOL0     C89882   8.503   4.290   0.645 -0.1500  0.6718 -0.0891
  652MOL0    Cl89883   8.646   4.378   0.679  0.2659  0.0683  0.6785
  652MOL0     C89884   7.713   4.840   1.241  0.0010  0.1162 -0.2705
  652MOL0     C89885   7.642   4.883   1.361  0.2599 -1.0536  0.0143
  652MOL0     O89886   7.609   4.950   1.636  0.0205  0.2064 -0.4357
  652MOL0     C89887   7.461   5.073   1.838  0.6342  0.2162  0.2618
  652MOL0     C89888   7.374   5.109   1.934  0.3807 -0.3546  0.4567
  652MOL0     N89889   6.698   4.939   2.257 -0.1647 -0.7625  0.0776
  652MOL0     N89890   6.661   4.812   2.294  0.4242  0.1151 -0.7843
  652MOL0     C89891   6.663   4.067   1.725 -0.2087  0.5811  0.4267
  652MOL0     C89892   6.766   4.048   1.629 -0.9965 -0.0641 -0.0235
  652MOL0     C89893   7.127   3.945   1.404 -0.4370  0.9471  0.1842
  652MOL0     C89894   7.088   3.872   1.291 -0.1020 -0.2039 -0.8919
  652MOL0     C89895   7.174   3.857   1.183  0.0271  0.1406  0.2051
  652MOL0     C89896   7.304   3.892   1.186  0.4390  0.2628 -0.3892
  652MOL0     O89897   7.395   3.858   1.092 -0.0761  0.1387  0.3617
  652MOL0     C89898   7.345   3.853   0.957 -0.4052 -0.0199  0.0540
  652MOL0     C89899   7.463   3.834   0.866  0.1737  1.6861 -0.1465
  652MOL0     C89900   7.558   3.725   0.899  0.6465  0.4404  0.1939
  652MOL0     C89901   7.685   3.724   0.807  0.6995 -0.3026 -0.5746
  652MOL0     C89902   7.653   3.662   0.680 -0.3735  0.3607  0.2751
  652MOL0     C89903   7.608   3.607   0.576  0.1226  0.5325 -0.4221
  652MOL0     C89904   7.346   3.953   1.305  0.1169 -1.3901 -0.7511
  652MOL0     C89905   7.262   3.991   1.414  0.1999  0.3097  0.9582
  652MOL0     C89906   7.318   4.067   1.530  0.7612 -0.3914 -0.3413
  652MOL0     H89907   6.741   3.713   1.573  0.2944  0.9844 -2.0272
  652MOL0     H89908   6.544   3.751   1.732  1.2440 -0.8813  1.7779
  652MOL0     H89909   6.332   3.929   1.730  1.5676 -1.3893  1.4931
  652MOL0     H89910   6.378   4.097   1.703  2.3839  0.1610 -0.3093
  652MOL0     H89911   6.163   4.078   1.845 -0.3765  0.3030  0.2854
  652MOL0     H89912   6.260   3.975   1.959  2.9950 -0.0344 -0.0883
  652MOL0     H89913   6.247   4.197   2.057  1.8518 -1.4028  1.2383
  652MOL0     H89914   6.410   4.153   2.009  0.6401  0.6395 -1.6371
  652MOL0     H89915   6.348   4.281   1.786  1.5165 -0.0079  0.8842
  652MOL0     H89916   6.221   4.348   1.883 -0.9663 -1.8591 -0.4346
  652MOL0     H89917   6.421   4.484   1.855 -2.1412  0.2701 -0.3753
  652MOL0     H89918   6.515   4.359   1.927 -0.0438  0.1531  1.0447
  652MOL0     H89919   6.272   4.470   2.083  0.3320  1.5538  1.3367
  652MOL0     H89920   6.409   4.380   2.147  0.4577 -1.2888 -0.5978
  652MOL0     H89921   6.359   4.657   2.156 -0.1209  0.5017  0.0392
  652MOL0     H89922   6.440   4.658   2.001 -0.5431  3.4919  1.8379
  652MOL0     H89923   6.575   4.571   2.259 -0.8480  0.5870  0.9852
  652MOL0     H89924   6.656   4.555   2.106  0.2620  1.1942 -0.3547
  652MOL0     H89925   6.661   4.795   1.967 -2.6234 -2.0783  0.4942
  652MOL0     H89926   6.637   5.140   2.059 -0.7999 -0.2834 -0.4801
  652MOL0     H89927   6.707   5.050   1.936  0.2524  1.6807  0.1616
  652MOL0     H89928   6.872   5.198   1.972  1.6865  1.4114  0.6869
  652MOL0     H89929   6.860   5.201   2.152  1.4856 -0.7437 -0.1780
  652MOL0     H89930   6.972   4.962   2.132 -1.2239 -0.4560 -0.0973
  652MOL0     H89931   6.999   5.005   1.965 -0.3594 -1.2752  0.8722
  652MOL0     H89932   7.097   5.178   2.191 -2.7380 -1.0803  1.0850
  652MOL0     H89933   7.186   5.041   2.113 -1.4480 -0.9473  3.9116
  652MOL0     H89934   7.121   5.227   1.730 -0.6197  1.5339  4.7672
  652MOL0     H89935   7.276   5.125   1.461  1.5498 -1.4387  1.1772
  652MOL0     H89936   7.363   5.275   1.493  0.4856  0.4562  2.5547
  652MOL0     H89937   7.181   5.260   1.524 -0.7197 -0.7135 -1.0996
  652MOL0     H89938   7.584   5.198   1.260  1.6996 -0.0157  2.6624
  652MOL0     H89939   7.690   5.120   1.051 -1.8504  1.8579  0.7003
  652MOL0     H89940   7.997   4.845   1.098 -0.1189  2.2572  0.2278
  652MOL0     H89941   7.877   4.711   1.090  0.3087  0.6694 -1.7692
  652MOL0     H89942   7.887   4.744   0.847  0.4831 -0.7309  1.1318
  652MOL0     H89943   8.042   4.825   0.876 -2.8898  2.4655 -0.3344
  652MOL0     H89944   7.972   4.526   0.926 -0.7963  0.0983 -2.1305
  652MOL0     H89945   8.105   4.599   1.014  2.7342  0.0585 -1.4823
  652MOL0     H89946   8.212   4.667   0.788  0.8146 -0.0279 -0.4942
  652MOL0     H89947   8.071   4.597   0.713 -2.1384 -1.7542  0.9662
  652MOL0     H89948   8.243   4.435   0.910 -0.3382 -0.5884 -0.4856
  652MOL0     H89949   8.112   4.377   0.809  0.2145 -2.0424  2.2269
  652MOL0     H89950   8.353   4.517   0.683  1.6536 -1.0947  1.0755
  652MOL0     H89951   8.241   4.409   0.609 -0.6577  1.4083  0.3613
  652MOL0     H89952   8.331   4.223   0.758  1.0373  0.3595  1.8725
  652MOL0     H89953   8.426   4.317   0.854 -0.6446  2.4835 -0.2998
  652MOL0     H89954   8.452   4.326   0.555  0.7960 -1.3028 -1.4784
  652MOL0     H89955   8.536   4.186   0.642  1.2257  1.1054 -1.3779
  652MOL0     H89956   7.744   4.736   1.250  1.2134  0.4047 -0.8752
  652MOL0     H89957   7.619   4.817   1.444 -1.1178 -0.2238  0.3270
  652MOL0     H89958   7.560   5.038   1.866 -0.5122 -4.0453 -0.2811
  652MOL0     H89959   7.394   5.107   2.040 -1.4729  2.9968  1.0111
  652MOL0     H89960   6.644   4.155   1.786  1.2498  0.6945  0.7657
  652MOL0     H89961   6.820   4.137   1.598 -0.3971 -0.8794 -1.4516
  652MOL0     H89962   6.987   3.835   1.283 -0.8213  1.9016 -2.4207
  652MOL0     H89963   7.131   3.802   1.100 -1.1386  0.2106  0.7367
  652MOL0     H89964   7.263   3.782   0.940  0.5811 -1.0958 -0.3289
  652MOL0     H89965   7.312   3.955   0.936 -1.2166  0.4441  3.1419
  652MOL0     H89966   7.522   3.926   0.877  0.7048  1.4066 -0.6113
  652MOL0     H89967   7.420   3.811   0.768  2.8662  0.9194 -1.2282
  652MOL0     H89968   7.593   3.735   1.003  1.6160 -0.0650 -0.0763
  652MOL0     H89969   7.512   3.627   0.886  0.9246  0.6039 -2.5086
  652MOL0     H89970   7.751   3.657   0.863 -0.1249 -0.8569 -0.2593
  652MOL0     H89971   7.721   3.826   0.789 -0.5027  0.4646  1.0845
  652MOL0     H89972   7.569   3.550   0.494 -1.8168 -1.4383  1.7015
  652MOL0     H89973   7.447   3.990   1.315 -1.2486  2.5023  0.6320
  652MOL0     H89974   7.419   4.095   1.497 -0.1962 -0.6095 -3.8546
  652MOL0     H89975   7.260   4.155   1.558  2.3953  0.6957 -0.2545
  652MOL0     H89976   7.318   4.004   1.619 -2.4461  1.1837  0.9066
  653MOL0     O89977   8.977   9.968   0.191 -0.2110 -0.1708  0.2775
  653MOL0     C89978   9.002   9.974   0.314  0.2827 -0.4024  0.3236
  653MOL0     O89979   9.120   9.990   0.372  0.0466  0.5863 -0.3580
  653MOL0     C89980   9.240   9.976   0.301  0.7506  0.1870  0.2936
  653MOL0     C89981   9.344   9.940   0.385 -0.0373  0.5681 -0.4763
  653MOL0     C89982   9.469   9.908   0.335 -0.5535  0.0254  0.4248
  653MOL0     C89983   9.490   9.912   0.193 -0.5476 -0.5440  0.5491
  653MOL0     O89984   9.622   9.888   0.147  0.2069  0.2731 -0.5721
  653MOL0     C89985   9.666   9.765   0.183  0.8122  0.4452 -0.9285
  653MOL0     C89986   9.779   9.723   0.089  0.2004  0.1809 -0.8344
  653MOL0     C89987   9.915   9.791   0.107 -0.8356 -0.5653  0.4124
  653MOL0     C89988  10.025   9.707   0.021 -0.3321  0.2037 -0.2894
  653MOL0     C89989  10.105   9.601   0.098  0.0751  0.0769 -1.2590
  653MOL0     C89990  10.226   9.552   0.025 -1.2701 -0.9763  0.2202
  653MOL0     C89991  10.329   9.495   0.127 -0.2231  0.4451 -0.1771
  653MOL0     C89992  10.446   9.433   0.039  0.2845 -0.6884 -0.6643
  653MOL0     N89993  10.413   9.316  -0.046  0.6766 -0.4163  0.6490
  653MOL0     C89994  10.490   9.280  -0.159  1.4275  0.8866  0.1170
  653MOL0     C89995  10.419   9.174  -0.205 -0.4834  0.5995 -0.4648
  653MOL0     C89996  10.456   9.110  -0.330 -0.1341 -0.4008 -0.3919
  653MOL0     C89997  10.380   9.169  -0.452 -0.5302  0.2272  0.4535
  653MOL0     C89998  10.448   9.123  -0.581 -0.0207 -0.5145 -1.1555
  653MOL0     C89999  10.356   9.156  -0.702  0.1489 -0.0942 -1.2729
  653MOL0     O90000  10.390   9.274  -0.767  0.7516  0.3066  0.1933
  653MOL0     C90001  10.509   9.309  -0.824  0.3844 -0.6768 -0.5632
  653MOL0     C90002  10.500   9.434  -0.895  0.4482  0.1771 -1.1547
  653MOL0     C90003  10.607   9.483  -0.973 -0.5189 -0.1539 -1.0702
  653MOL0     C90004  10.589   9.620  -1.039 -0.0534 -0.0884 -0.1852
  653MOL0     C90005  10.729   9.411  -0.969 -0.2948 -0.6449 -0.4575
  653MOL0     C90006  10.849   9.466  -1.044 -0.5502 -0.0849 -0.6027
  653MOL0     O90007  10.896   9.594  -1.032  0.1735 -0.3651 -0.0202
  653MOL0     C90008  11.004   9.644  -1.104 -0.3131 -0.9501  0.2275
  653MOL0     C90009  11.046   9.597  -1.232  0.1016 -0.5492  0.8982
  653MOL0     C90010  11.157   9.644  -1.301 -0.3654  0.0179 -1.4620
  653MOL0     C90011  11.226   9.751  -1.249 -1.0563 -0.4729 -0.0667
  653MOL0     O90012  11.335   9.811  -1.300  0.1306  1.0530 -0.4729
  653MOL0     C90013  11.360   9.788  -1.441  0.5706  0.4916 -0.1296
  653MOL0     C90014  11.483   9.861  -1.503 -0.4690  0.5815 -0.0163
  653MOL0     C90015  11.615   9.818  -1.442 -0.1555  0.5275 -0.4423
  653MOL0     C90016  11.731   9.868  -1.525  0.4494  0.4044 -0.2206
  653MOL0     C90017  11.762  10.025  -1.516  0.3944  0.3537 -0.6753
  653MOL0     C90018  11.805  10.068  -1.370  0.0057 -0.5542  1.0590
  653MOL0     C90019  11.838  10.218  -1.358 -0.2182 -0.2893 -0.1405
  653MOL0     C90020  11.919  10.236  -1.233  0.5718  0.2848 -0.2948
  653MOL0    Cl90021  11.819  10.187  -1.092 -0.0388  0.6356  0.8326
  653MOL0     C90022  11.179   9.803  -1.129  0.0673 -0.4477  0.1199
  653MOL0     C90023  11.068   9.758  -1.062 -0.6869 -0.1408 -0.2772
  653MOL0     O90024  10.911   9.370  -1.097  0.4649 -0.7132  0.0040
  653MOL0     C90025  10.733   9.287  -0.901 -0.1840 -0.4664 -0.4278
  653MOL0     C90026  10.622   9.235  -0.826 -0.4702 -0.0799 -0.2131
  653MOL0     N90027  10.313   9.145  -0.121  0.0876  0.1063  0.5053
  653MOL0     N90028  10.305   9.236  -0.025 -0.0867 -0.5916  0.2978
  653MOL0     C90029   9.387   9.960   0.108 -0.4239  0.1862 -0.3891
  653MOL0     C90030   9.260   9.981   0.164  0.1578  0.2365 -0.3452
  653MOL0     C90031   8.885   9.964   0.406 -0.5060 -0.0833 -0.7083
  653MOL0     C90032   8.899   9.897   0.532  0.4335 -0.3943 -0.0299
  653MOL0     C90033   8.788   9.896   0.618 -0.7204  0.3464  0.4599
  653MOL0     C90034   8.669   9.953   0.591  0.0407 -0.0628  0.7598
  653MOL0     O90035   8.563   9.951   0.679 -0.3023 -0.4678 -0.2811
  653MOL0     C90036   8.455   9.865   0.644  0.5787  0.3836 -0.3814
  653MOL0     C90037   8.381   9.824   0.767  0.2982 -0.1194 -0.0141
  653MOL0     C90038   8.468   9.779   0.890 -0.4473 -0.1620  0.2516
  653MOL0     C90039   8.520   9.636   0.900  0.5807 -0.1029 -0.0405
  653MOL0     C90040   8.608   9.587   0.792  0.1257  1.3163 -0.2773
  653MOL0     C90041   8.678   9.533   0.707 -0.2641 -0.4391 -0.1398
  653MOL0     C90042   8.653  10.004   0.461  0.2982  0.1624 -0.5182
  653MOL0     C90043   8.759  10.012   0.370  0.0565  0.0555  0.5813
  653MOL0     C90044   8.718  10.070   0.230  0.9073 -0.1892 -0.4084
  653MOL0     H90045   9.321   9.923   0.490 -1.5176  1.3167 -0.6568
  653MOL0     H90046   9.548   9.880   0.404  0.0570  0.5915 -0.0338
  653MOL0     H90047   9.587   9.689   0.174  0.6454  0.7139 -1.8726
  653MOL0     H90048   9.699   9.760   0.287  0.3175  0.8664 -0.7495
  653MOL0     H90049   9.787   9.614   0.087 -5.2839 -0.5309 -2.2250
  653MOL0     H90050   9.741   9.738  -0.012  1.8380 -0.6024 -1.6026
  653MOL0     H90051   9.908   9.892   0.065 -3.5793 -0.3729  1.1534
  653MOL0     H90052   9.946   9.802   0.211  1.7525 -1.1193 -0.2135
  653MOL0     H90053   9.985   9.671  -0.074 -0.8310  2.0579 -0.8252
  653MOL0     H90054  10.109   9.776   0.007  1.2581 -1.7028 -0.7497
  653MOL0     H90055  10.047   9.515   0.133  2.1294 -1.4152 -1.3183
  653MOL0     H90056  10.139   9.652   0.189 -5.0904 -0.0871  1.1108
  653MOL0     H90057  10.182   9.473  -0.037 -3.2213  0.6327 -0.5884
  653MOL0     H90058  10.264   9.627  -0.044 -0.9194 -1.6294 -0.3050
  653MOL0     H90059  10.287   9.421   0.196  0.9471 -1.5418 -1.5076
  653MOL0     H90060  10.358   9.583   0.186 -1.6689 -0.9413  2.8359
  653MOL0     H90061  10.488   9.516  -0.018 -3.0869  0.3524 -1.8904
  653MOL0     H90062  10.511   9.395   0.118 -1.4526  2.3951  2.5444
  653MOL0     H90063  10.578   9.329  -0.201  0.9523  0.4700 -1.4621
  653MOL0     H90064  10.445   9.001  -0.326  0.8761 -0.4803  1.5117
  653MOL0     H90065  10.564   9.123  -0.341 -0.2719  0.4005 -0.8067
  653MOL0     H90066  10.282   9.122  -0.444 -0.2180 -0.7589 -1.0792
  653MOL0     H90067  10.362   9.277  -0.461  1.6230  0.6367  0.3507
  653MOL0     H90068  10.542   9.176  -0.595 -0.0929 -0.0214  0.1239
  653MOL0     H90069  10.460   9.014  -0.576  3.1314 -0.2690 -1.5119
  653MOL0     H90070  10.373   9.072  -0.769  2.3264 -0.9155  0.1636
  653MOL0     H90071  10.250   9.162  -0.675  0.1401 -1.1655 -1.0225
  653MOL0     H90072  10.412   9.495  -0.880 -0.5297 -0.9231 -2.2303
  653MOL0     H90073  10.490   9.640  -1.082 -1.6731 -1.9073  2.3886
  653MOL0     H90074  10.658   9.624  -1.124 -1.7066 -3.1649 -1.8671
  653MOL0     H90075  10.614   9.688  -0.958  0.2193 -1.1650  0.6601
  653MOL0     H90076  10.992   9.515  -1.278  1.6157 -1.3371  0.4274
  653MOL0     H90077  11.173   9.592  -1.395  0.3008 -3.0393  0.1958
  653MOL0     H90078  11.381   9.681  -1.449 -3.0047 -0.6380  2.7505
  653MOL0     H90079  11.266   9.801  -1.496 -0.3787  0.2946  1.3648
  653MOL0     H90080  11.482   9.824  -1.606  1.3470 -0.5792  0.3304
  653MOL0     H90081  11.466   9.968  -1.495  1.3020  1.0868 -2.1740
  653MOL0     H90082  11.624   9.710  -1.451  1.6284  0.3503  2.3097
  653MOL0     H90083  11.626   9.853  -1.339  1.8795 -1.1884 -0.0107
  653MOL0     H90084  11.709   9.846  -1.630 -0.1358  0.4149 -0.1062
  653MOL0     H90085  11.816   9.801  -1.513 -0.3070 -1.2482 -2.9971
  653MOL0     H90086  11.847  10.047  -1.581  0.9480  1.6795  0.4529
  653MOL0     H90087  11.669  10.077  -1.542 -0.1888 -0.8941 -1.1866
  653MOL0     H90088  11.898  10.015  -1.348  1.0308  0.8201  0.2383
  653MOL0     H90089  11.722  10.037  -1.306 -0.7491  0.7387  0.7473
  653MOL0     H90090  11.752  10.285  -1.352  0.7098  1.0025 -0.8169
  653MOL0     H90091  11.900  10.255  -1.441 -2.0250  3.3050 -0.0799
  653MOL0     H90092  11.945  10.342  -1.225  1.4365  0.0399  0.3413
  653MOL0     H90093  12.010  10.177  -1.248 -0.9357 -1.7208 -2.0507
  653MOL0     H90094  11.236   9.891  -1.102 -0.2285  0.4916 -2.1509
  653MOL0     H90095  11.025   9.804  -0.973 -3.7734 -1.2314 -1.0602
  653MOL0     H90096  10.820   9.221  -0.901 -0.4731 -0.8883  1.1681
  653MOL0     H90097  10.626   9.130  -0.797  1.3214 -0.4146 -1.4422
  653MOL0     H90098   9.420   9.976   0.006  0.1279  0.6158 -0.1481
  653MOL0     H90099   9.192  10.019   0.088  0.2649 -0.7967 -0.9809
  653MOL0     H90100   8.989   9.870   0.586  0.7688  1.6450  0.5337
  653MOL0     H90101   8.795   9.833   0.705  2.9960  0.6180  0.5091
  653MOL0     H90102   8.390   9.921   0.577  0.1681 -0.7432 -0.9519
  653MOL0     H90103   8.484   9.773   0.591 -1.2392  0.2262 -1.1878
  653MOL0     H90104   8.319   9.738   0.742  3.8919 -2.7089 -0.7654
  653MOL0     H90105   8.316   9.903   0.805 -1.3168 -2.2029  1.7867
  653MOL0     H90106   8.557   9.840   0.905 -0.1829 -0.0241 -1.6356
  653MOL0     H90107   8.402   9.803   0.974 -0.9414  1.5005 -0.5760
  653MOL0     H90108   8.425   9.581   0.903 -0.3975  1.4727 -0.5231
  653MOL0     H90109   8.574   9.615   0.992  3.5019  2.4876 -1.0091
  653MOL0     H90110   8.731   9.481   0.630  1.1357  1.3358 -0.4397
  653MOL0     H90111   8.556  10.048   0.437  0.4147  0.5991 -0.1837
  653MOL0     H90112   8.614  10.104   0.230  0.4784 -0.6653  4.7094
  653MOL0     H90113   8.777  10.150   0.185  0.1946 -1.8237 -4.7327
  653MOL0     H90114   8.718   9.986   0.160  2.3247 -0.1638 -0.4544
  654MOL0     O90115   5.507   8.282   2.740  0.1318  0.4534  1.2044
  654MOL0     C90116   5.412   8.355   2.766  0.1805 -0.1642  0.1987
  654MOL0     O90117   5.286   8.327   2.734  0.1711 -0.1516 -0.1893
  654MOL0     C90118   5.234   8.226   2.666 -0.2128  0.5092  0.5491
  654MOL0     C90119   5.294   8.099   2.643  0.0430  0.3830 -0.8296
  654MOL0     C90120   5.230   8.008   2.565  0.3749  0.3167 -0.5897
  654MOL0     C90121   5.103   8.029   2.510 -0.3668 -0.6245  0.4324
  654MOL0     O90122   5.059   7.934   2.424  0.7761 -0.0012 -0.3418
  654MOL0     C90123   4.957   7.961   2.325 -0.4973 -0.8105  0.3299
  654MOL0     C90124   4.961   7.852   2.225 -0.3299 -0.1868 -0.3156
  654MOL0     C90125   4.830   7.848   2.129 -0.2201  0.3005 -0.0946
  654MOL0     C90126   4.810   7.700   2.084 -0.4782 -0.0679 -0.2857
  654MOL0     C90127   4.679   7.693   2.000  0.5245  0.5362  0.0226
  654MOL0     C90128   4.637   7.562   1.942  0.2807 -0.0083 -0.5981
  654MOL0     C90129   4.655   7.437   2.033 -0.8598  0.1268  0.3264
  654MOL0     C90130   4.576   7.317   1.991  0.9188 -0.1584  0.6827
  654MOL0     N90131   4.433   7.321   2.035 -0.0574 -0.1130 -0.2116
  654MOL0     C90132   4.329   7.379   1.974 -0.2052 -0.5182  0.7305
  654MOL0     C90133   4.225   7.369   2.064 -0.6061 -0.6974  0.1516
  654MOL0     C90134   4.085   7.431   2.061  0.1366  0.4753 -0.2806
  654MOL0     C90135   3.996   7.331   1.984  1.0003 -0.5787 -0.5683
  654MOL0     C90136   3.858   7.393   1.952  0.7141  0.0403 -0.0194
  654MOL0     C90137   3.786   7.296   1.854 -0.4335  0.2315  0.4839
  654MOL0     O90138   3.652   7.345   1.839  0.2359 -0.0778  0.7553
  654MOL0     C90139   3.558   7.300   1.751  0.3997  0.2358  0.2822
  654MOL0     C90140   3.432   7.355   1.738  0.4821 -0.9739  1.2825
  654MOL0     C90141   3.333   7.297   1.661  0.1065  0.5835 -0.5163
  654MOL0     C90142   3.201   7.379   1.649 -0.3916 -0.4106 -0.2213
  654MOL0     C90143   3.358   7.176   1.587  0.4008  0.1609  0.6118
  654MOL0     C90144   3.248   7.101   1.510 -1.0928  0.2687 -0.4801
  654MOL0     O90145   3.289   6.999   1.428 -0.0509  0.2272 -0.3981
  654MOL0     C90146   3.199   6.904   1.387  0.3582 -0.1566  0.5612
  654MOL0     C90147   3.211   6.850   1.257  0.1916 -0.5351  0.2998
  654MOL0     C90148   3.116   6.763   1.206  0.6643  1.0448  0.2826
  654MOL0     C90149   3.014   6.712   1.292 -0.5582  0.1361  0.1728
  654MOL0     O90150   2.927   6.612   1.245 -0.8684  0.5180 -0.8559
  654MOL0     C90151   2.789   6.615   1.293 -0.6583  0.1010 -0.0780
  654MOL0     C90152   2.693   6.546   1.199  0.0074 -0.5129 -0.6807
  654MOL0     C90153   2.699   6.621   1.062  0.2209  0.2495  0.5249
  654MOL0     C90154   2.585   6.584   0.967  0.1764  0.3983  0.3177
  654MOL0     C90155   2.603   6.660   0.836 -0.0327 -0.6211  0.5692
  654MOL0     C90156   2.506   6.777   0.826 -0.0455 -0.5993  0.8586
  654MOL0     C90157   2.359   6.740   0.795 -0.3422  0.0590  0.4669
  654MOL0     C90158   2.280   6.869   0.792  0.0257  0.1046  0.5868
  654MOL0    Cl90159   2.113   6.802   0.790  0.0164 -0.4410  0.4268
  654MOL0     C90160   3.002   6.762   1.421  0.4337 -0.2047  0.1558
  654MOL0     C90161   3.094   6.852   1.469 -0.0798 -0.7578  0.1959
  654MOL0     O90162   3.136   7.142   1.512  0.1473  0.2783  1.1925
  654MOL0     C90163   3.489   7.121   1.591  0.8617 -1.1142 -0.1219
  654MOL0     C90164   3.580   7.177   1.684 -0.0208 -0.2491 -0.5161
  654MOL0     N90165   4.275   7.312   2.178  0.4052  0.2826 -0.1013
  654MOL0     N90166   4.400   7.278   2.160  0.1046 -1.0016 -0.4315
  654MOL0     C90167   5.049   8.159   2.517  0.1837  0.5517  0.1247
  654MOL0     C90168   5.112   8.254   2.604  0.2285 -0.1461  0.3932
  654MOL0     C90169   5.442   8.491   2.810  0.0060 -0.4060 -0.0692
  654MOL0     C90170   5.364   8.602   2.762  0.6004 -0.0132 -1.4184
  654MOL0     C90171   5.374   8.734   2.815 -0.1361  0.2429  0.4740
  654MOL0     C90172   5.477   8.756   2.909  0.1498 -1.6726 -0.0030
  654MOL0     O90173   5.501   8.882   2.962 -0.0386 -0.4866 -0.8580
  654MOL0     C90174   5.414   8.993   2.953  0.2796 -0.1766 -0.0839
  654MOL0     C90175   5.293   8.972   3.048 -0.8664 -0.5135 -0.1351
  654MOL0     C90176   5.190   9.069   3.014  0.4490  0.2228  0.5225
  654MOL0     C90177   5.209   9.198   3.092  0.5068  0.3559  0.0325
  654MOL0     C90178   5.147   9.315   3.022  0.0341 -0.5113  0.1281
  654MOL0     C90179   5.104   9.409   2.969  0.0463 -0.3656  0.1670
  654MOL0     C90180   5.567   8.656   2.936  0.0650  0.0256  0.5193
  654MOL0     C90181   5.555   8.522   2.892  0.3044 -0.3248  0.1562
  654MOL0     C90182   5.658   8.419   2.941 -0.2749 -0.3384 -0.4039
  654MOL0     H90183   5.381   8.073   2.702 -1.1308 -0.1934  0.7116
  654MOL0     H90184   5.288   7.917   2.557  0.0431 -0.3667  3.0433
  654MOL0     H90185   4.979   8.058   2.280  1.4671  0.8206  4.2490
  654MOL0     H90186   4.855   7.960   2.365 -0.2275  0.4522  1.1217
  654MOL0     H90187   5.051   7.861   2.163 -1.1686  2.3809 -1.3078
  654MOL0     H90188   4.980   7.753   2.268  3.4442  0.0045 -1.1717
  654MOL0     H90189   4.739   7.883   2.177 -0.4247  1.1065 -1.0388
  654MOL0     H90190   4.846   7.911   2.041  1.9236 -1.0949 -0.7876
  654MOL0     H90191   4.893   7.670   2.019 -2.6215  0.5442 -3.5313
  654MOL0     H90192   4.801   7.625   2.164  0.1630 -0.5223 -0.6308
  654MOL0     H90193   4.695   7.759   1.914 -1.0495  1.6738  0.5565
  654MOL0     H90194   4.603   7.731   2.069  1.4162  1.4617  0.5280
  654MOL0     H90195   4.535   7.583   1.908  0.6294  1.8338 -0.6187
  654MOL0     H90196   4.695   7.546   1.852 -0.1781 -0.7975 -0.7639
  654MOL0     H90197   4.641   7.459   2.139  2.7661 -0.2106  0.9960
  654MOL0     H90198   4.763   7.420   2.034 -0.8484  0.1508  1.6566
  654MOL0     H90199   4.575   7.309   1.882  2.7204 -0.4687  0.6647
  654MOL0     H90200   4.617   7.226   2.036  1.6399 -0.3367 -0.3065
  654MOL0     H90201   4.312   7.427   1.878 -2.7704 -1.0724  0.8517
  654MOL0     H90202   4.093   7.529   2.014  0.2523  0.5133 -0.1824
  654MOL0     H90203   4.042   7.448   2.160 -0.9248 -2.9987  0.0159
  654MOL0     H90204   4.033   7.304   1.884 -0.0833 -1.3383 -0.7863
  654MOL0     H90205   3.989   7.235   2.035  2.4381  0.3550  1.5098
  654MOL0     H90206   3.807   7.400   2.048 -1.9051  2.2731 -1.4580
  654MOL0     H90207   3.872   7.490   1.905  1.8566 -0.3477 -0.5310
  654MOL0     H90208   3.835   7.310   1.757  0.9401  2.8443  1.4575
  654MOL0     H90209   3.782   7.189   1.876  0.2212  0.0113 -0.4087
  654MOL0     H90210   3.413   7.455   1.775  0.7513 -1.6629  3.4223
  654MOL0     H90211   3.182   7.406   1.545  3.6658 -0.5673 -1.1369
  654MOL0     H90212   3.208   7.477   1.698 -0.5315 -0.7285  0.4406
  654MOL0     H90213   3.120   7.320   1.693 -0.1073 -1.8840 -1.5921
  654MOL0     H90214   3.292   6.885   1.194  1.9876 -2.1534  1.6034
  654MOL0     H90215   3.135   6.725   1.106 -0.5039 -1.8029  1.0501
  654MOL0     H90216   2.784   6.571   1.393 -1.3832  2.1541  0.8671
  654MOL0     H90217   2.755   6.719   1.294 -1.8038 -0.2556 -0.5013
  654MOL0     H90218   2.693   6.437   1.188 -2.4706 -0.7662  1.0929
  654MOL0     H90219   2.590   6.552   1.236 -0.7490 -0.0303 -2.7383
  654MOL0     H90220   2.796   6.606   1.013  0.0156  0.0509  0.1781
  654MOL0     H90221   2.687   6.727   1.083  0.2651  1.0382 -2.8692
  654MOL0     H90222   2.499   6.622   1.024  1.5780 -0.0677  2.8849
  654MOL0     H90223   2.573   6.478   0.941 -2.0685  0.8352 -0.7094
  654MOL0     H90224   2.701   6.708   0.830 -0.0744 -0.7211 -2.8443
  654MOL0     H90225   2.601   6.601   0.744  1.7108  2.8823 -1.9559
  654MOL0     H90226   2.546   6.841   0.747  0.2284 -0.6748  0.9330
  654MOL0     H90227   2.518   6.830   0.921  1.7878  0.2825  0.1959
  654MOL0     H90228   2.313   6.666   0.861 -0.7391 -1.7062 -1.6346
  654MOL0     H90229   2.370   6.696   0.695 -0.5707 -2.6978  1.5697
  654MOL0     H90230   2.290   6.932   0.703 -0.6445 -1.2592 -0.4882
  654MOL0     H90231   2.295   6.928   0.883  1.2963 -0.0709  0.4981
  654MOL0     H90232   2.926   6.731   1.492 -2.9382  4.7315 -0.8109
  654MOL0     H90233   3.090   6.892   1.570  2.0709  0.5873 -0.1763
  654MOL0     H90234   3.516   7.032   1.534  0.8117 -1.0958 -0.1742
  654MOL0     H90235   3.680   7.134   1.684 -0.1110 -0.6058 -2.9493
  654MOL0     H90236   4.954   8.181   2.469  0.2119  1.0667  0.3012
  654MOL0     H90237   5.068   8.347   2.636  0.9628 -0.2615  1.7962
  654MOL0     H90238   5.285   8.568   2.697 -0.7782 -0.8390  0.5894
  654MOL0     H90239   5.306   8.810   2.781 -0.5572 -0.2561  0.1918
  654MOL0     H90240   5.473   9.076   2.993  1.2465 -1.4015  1.1117
  654MOL0     H90241   5.390   9.013   2.848 -2.1926  1.2621  0.6865
  654MOL0     H90242   5.341   8.988   3.144  0.1316  0.8979 -0.8378
  654MOL0     H90243   5.271   8.865   3.043  3.4060 -1.6084  0.8872
  654MOL0     H90244   5.182   9.092   2.907  0.7279  1.5738  0.7719
  654MOL0     H90245   5.096   9.026   3.051  0.3907  1.8727  2.4951
  654MOL0     H90246   5.316   9.222   3.103  0.2453  3.0250 -2.1808
  654MOL0     H90247   5.166   9.190   3.192  0.7320  2.9617  0.4108
  654MOL0     H90248   5.063   9.494   2.918 -0.8155 -1.1445 -0.4890
  654MOL0     H90249   5.651   8.684   2.998  1.2281 -0.5983 -0.7158
  654MOL0     H90250   5.624   8.331   2.997  0.4176 -0.4509 -0.1503
  654MOL0     H90251   5.708   8.382   2.851 -1.4223 -2.2811 -0.3102
  654MOL0     H90252   5.724   8.478   3.005 -3.0424  3.8593 -1.0046
  655MOL0     O90253  11.266   3.882  11.076  0.2432  0.3027 -0.3559
  655MOL0     C90254  11.303   3.906  11.194  1.2546  0.2983  0.1121
  655MOL0     O90255  11.434   3.909  11.231  0.2951  0.2894 -0.2805
  655MOL0     C90256  11.536   3.840  11.163 -0.2283 -0.0341 -0.4739
  655MOL0     C90257  11.661   3.893  11.156  0.2475 -0.2861 -1.0212
  655MOL0     C90258  11.759   3.827  11.083 -0.6563  0.1880  0.0641
  655MOL0     C90259  11.747   3.696  11.040 -0.0033  0.8909 -0.5546
  655MOL0     O90260  11.860   3.631  10.991 -0.0073 -0.6055 -0.2441
  655MOL0     C90261  11.865   3.482  10.993  0.5851 -0.7425 -0.1844
  655MOL0     C90262  11.992   3.441  10.932 -0.0260 -0.4141 -0.5396
  655MOL0     C90263  12.114   3.494  11.005  0.4137 -0.3042 -0.3012
  655MOL0     C90264  12.227   3.541  10.910  0.4473 -0.5950 -0.1195
  655MOL0     C90265  12.325   3.638  10.977 -0.7936 -0.4137 -0.0719
  655MOL0     C90266  12.387   3.573  11.100  0.0971 -0.5445 -0.0982
  655MOL0     C90267  12.504   3.665  11.152  0.4612  0.2085 -0.6635
  655MOL0     C90268  12.584   3.590  11.261  0.5881 -0.0084 -0.6091
  655MOL0     N90269  12.699   3.667  11.313 -0.5979 -0.7415  0.3099
  655MOL0     C90270  12.766   3.655  11.433  0.2941  0.7818  0.8927
  655MOL0     C90271  12.851   3.760  11.434  0.1809  1.5175 -0.4195
  655MOL0     C90272  12.944   3.785  11.542  0.3155 -0.6566 -0.0009
  655MOL0     C90273  12.890   3.893  11.639 -0.0102 -0.8662 -0.5184
  655MOL0     C90274  12.852   4.035  11.588  0.0116 -0.2088 -0.1448
  655MOL0     C90275  12.967   4.101  11.517  0.1743  0.4284 -0.2526
  655MOL0     O90276  12.953   4.245  11.495  0.2173  0.1884  0.4769
  655MOL0     C90277  13.049   4.308  11.430  0.0186 -0.5824  0.4586
  655MOL0     C90278  13.177   4.254  11.399  0.0332 -0.5225 -0.1773
  655MOL0     C90279  13.267   4.333  11.330 -0.6976 -0.3629 -0.4480
  655MOL0     C90280  13.405   4.268  11.302  0.2283  0.0082  0.5593
  655MOL0     C90281  13.228   4.462  11.280  0.5325 -0.6089 -0.0883
  655MOL0     C90282  13.322   4.556  11.215  0.1222 -0.5462 -0.2468
  655MOL0     O90283  13.456   4.531  11.223 -0.3798  0.1618  0.2406
  655MOL0     C90284  13.553   4.629  11.207 -0.4575  0.4029 -0.0876
  655MOL0     C90285  13.685   4.577  11.197 -0.4561 -0.2494 -0.0596
  655MOL0     C90286  13.802   4.656  11.174  0.1955 -0.1043  0.3602
  655MOL0     C90287  13.771   4.794  11.163 -0.0651 -0.7801  0.1696
  655MOL0     O90288  13.878   4.879  11.140 -0.1697  0.5101  0.3244
  655MOL0     C90289  13.931   4.930  11.265  0.0296  0.6043  0.8451
  655MOL0     C90290  14.063   4.994  11.242  0.2141  0.3425  0.3124
  655MOL0     C90291  14.118   5.057  11.363  0.3127  0.5565  0.2640
  655MOL0     C90292  14.268   5.100  11.352 -0.0709  1.2592  1.4102
  655MOL0     C90293  14.323   5.141  11.483 -0.9861 -1.0445  0.5346
  655MOL0     C90294  14.463   5.203  11.448 -0.2092  1.1778  0.2724
  655MOL0     C90295  14.543   5.260  11.573  0.2296 -0.7170  0.3589
  655MOL0     C90296  14.467   5.381  11.629 -0.2772  0.7816  0.4218
  655MOL0    Cl90297  14.550   5.409  11.784  0.2216 -0.2330 -0.2954
  655MOL0     C90298  13.641   4.855  11.170  0.8623  0.1052 -0.8340
  655MOL0     C90299  13.538   4.768  11.197 -0.4234  0.3342 -0.6122
  655MOL0     O90300  13.276   4.652  11.157  0.2929  0.0514  0.1598
  655MOL0     C90301  13.100   4.520  11.313 -0.0412  0.8359  0.7993
  655MOL0     C90302  13.015   4.442  11.389  0.3460  0.2161  0.4141
  655MOL0     N90303  12.831   3.833  11.317 -0.3724 -0.7985 -0.0241
  655MOL0     N90304  12.748   3.780  11.243  0.2405  0.4039 -0.7460
  655MOL0     C90305  11.622   3.639  11.053  1.1380  0.4798 -0.2052
  655MOL0     C90306  11.513   3.706  11.120 -0.2771 -1.0098 -0.1217
  655MOL0     C90307  11.203   3.932  11.295 -0.4784  0.1766 -0.5984
  655MOL0     C90308  11.247   3.972  11.417  0.3818 -0.2880  0.3027
  655MOL0     C90309  11.161   3.981  11.526 -0.1303  0.4187  0.8074
  655MOL0     C90310  11.023   3.962  11.511  0.1907 -0.4616  0.2744
  655MOL0     O90311  10.940   3.984  11.619 -0.0911 -0.7207 -0.1908
  655MOL0     C90312  10.801   4.002  11.589 -0.3920 -0.1501 -0.0531
  655MOL0     C90313  10.732   3.858  11.621 -0.9880 -0.6528 -0.1845
  655MOL0     C90314  10.584   3.874  11.622 -0.0922 -0.5608 -0.2870
  655MOL0     C90315  10.496   3.753  11.679  0.8512 -0.0515 -0.8206
  655MOL0     C90316  10.506   3.760  11.827  0.4028  0.2828  1.2964
  655MOL0     C90317  10.537   3.754  11.945 -0.7962 -1.0416 -0.0037
  655MOL0     C90318  10.977   3.920  11.381 -0.7910 -0.6872 -0.3478
  655MOL0     C90319  11.068   3.897  11.281 -0.0867 -1.0179  1.0612
  655MOL0     C90320  11.002   3.864  11.148 -0.6807  0.1829 -0.2650
  655MOL0     H90321  11.682   3.997  11.177 -1.4790 -0.0008 -0.5326
  655MOL0     H90322  11.856   3.873  11.069 -1.0363  1.2858  0.8963
  655MOL0     H90323  11.776   3.436  10.949  0.2732 -0.0988 -0.2330
  655MOL0     H90324  11.872   3.446  11.096 -0.7323  1.3615  0.7118
  655MOL0     H90325  11.994   3.333  10.947  3.9060 -0.3652  0.3066
  655MOL0     H90326  11.981   3.478  10.829 -3.9454  2.3054  0.6094
  655MOL0     H90327  12.087   3.571  11.078  0.8598 -0.2096 -0.2326
  655MOL0     H90328  12.139   3.403  11.059 -2.4081 -0.5293  0.8191
  655MOL0     H90329  12.271   3.453  10.863  2.9520  1.5068 -2.0743
  655MOL0     H90330  12.179   3.595  10.828  2.2731 -0.6262 -1.2630
  655MOL0     H90331  12.256   3.720  10.998 -1.4825 -0.9341 -0.2625
  655MOL0     H90332  12.395   3.673  10.901 -1.6576  0.5997 -0.4222
  655MOL0     H90333  12.304   3.567  11.170 -0.6493  1.2656 -0.7883
  655MOL0     H90334  12.427   3.476  11.066 -3.7459 -1.9632 -1.0830
  655MOL0     H90335  12.469   3.764  11.183  0.3322 -0.5153  1.6836
  655MOL0     H90336  12.582   3.686  11.078  1.9296  1.2180  1.0880
  655MOL0     H90337  12.514   3.572  11.343 -1.0076  2.1444 -1.4170
  655MOL0     H90338  12.621   3.495  11.221  0.6247 -0.7344  1.0599
  655MOL0     H90339  12.755   3.592  11.521 -1.0219 -0.3309 -0.0349
  655MOL0     H90340  13.046   3.809  11.510  0.5395 -1.1208  0.3555
  655MOL0     H90341  12.972   3.692  11.594  2.1694  0.8955  2.0013
  655MOL0     H90342  12.813   3.849  11.703 -0.4576  4.8154  3.6154
  655MOL0     H90343  12.966   3.906  11.717 -0.8878 -1.2879  0.4236
  655MOL0     H90344  12.757   4.044  11.534 -0.5575  0.1813  0.8824
  655MOL0     H90345  12.831   4.100  11.674 -0.8776 -0.0075 -0.5025
  655MOL0     H90346  13.046   4.079  11.590 -1.0462 -1.0303  0.6828
  655MOL0     H90347  12.997   4.036  11.434  1.1530  0.9198 -0.3070
  655MOL0     H90348  13.201   4.155  11.436 -0.0205  0.1519  1.7537
  655MOL0     H90349  13.484   4.327  11.347  0.7909  1.4327 -2.0994
  655MOL0     H90350  13.416   4.256  11.194 -0.9792  3.4776 -0.0751
  655MOL0     H90351  13.410   4.166  11.343 -1.3542  0.4984  2.0594
  655MOL0     H90352  13.703   4.470  11.193  0.4723 -0.1797  1.3038
  655MOL0     H90353  13.902   4.613  11.168  0.8155  0.8561  2.7666
  655MOL0     H90354  13.856   4.998  11.308  0.0369  1.1180  0.0679
  655MOL0     H90355  13.937   4.845  11.334  0.1192  0.8168  1.1043
  655MOL0     H90356  14.130   4.916  11.205  0.1272  0.5466 -0.2911
  655MOL0     H90357  14.058   5.073  11.167 -2.8061  0.8059  0.8454
  655MOL0     H90358  14.098   4.987  11.445 -0.8767  1.7673  1.0426
  655MOL0     H90359  14.066   5.151  11.384  0.3257  0.2801  1.6213
  655MOL0     H90360  14.290   5.169  11.270  1.1948 -0.4347  0.2504
  655MOL0     H90361  14.331   5.017  11.319 -1.1443  1.1398 -0.4751
  655MOL0     H90362  14.250   5.213  11.521 -1.0213 -1.0630  0.5025
  655MOL0     H90363  14.329   5.057  11.553  0.5325 -0.7927  0.7288
  655MOL0     H90364  14.460   5.291  11.383  1.2843  0.7750 -0.3891
  655MOL0     H90365  14.525   5.120  11.414 -2.9337 -0.2820 -1.4734
  655MOL0     H90366  14.646   5.293  11.556 -0.0773  0.4466  0.6680
  655MOL0     H90367  14.548   5.187  11.655 -2.3692  0.1530  1.3821
  655MOL0     H90368  14.362   5.371  11.655 -0.5353 -1.1457 -1.1495
  655MOL0     H90369  14.480   5.465  11.559  1.7902  0.4797  0.3690
  655MOL0     H90370  13.623   4.961  11.158  0.2989  0.2629  1.0822
  655MOL0     H90371  13.436   4.806  11.202 -0.1943  0.9539 -0.5951
  655MOL0     H90372  13.073   4.621  11.283 -2.4156 -0.0996 -0.4434
  655MOL0     H90373  12.920   4.490  11.412 -0.3783 -0.8262 -0.3179
  655MOL0     H90374  11.607   3.538  11.018 -1.9947  0.7196  0.1684
  655MOL0     H90375  11.426   3.643  11.138 -0.7768 -0.4523 -0.5462
  655MOL0     H90376  11.349   3.996  11.448 -0.1090  0.1222  1.6496
  655MOL0     H90377  11.203   4.017  11.620  2.2799 -1.2824  0.4956
  655MOL0     H90378  10.765   4.070  11.666  2.3476  0.5660  0.7282
  655MOL0     H90379  10.782   4.034  11.486  0.8060 -0.4784 -0.3971
  655MOL0     H90380  10.765   3.804  11.710  1.5027 -0.0345 -0.6369
  655MOL0     H90381  10.770   3.796  11.539  1.6656  0.8815 -0.2304
  655MOL0     H90382  10.555   3.966  11.674  2.1679 -1.4891  2.9111
  655MOL0     H90383  10.549   3.885  11.519  0.6561 -1.0510 -0.5981
  655MOL0     H90384  10.534   3.654  11.653  1.4823 -1.1046  3.3971
  655MOL0     H90385  10.392   3.765  11.648  0.5579 -1.3523 -0.3723
  655MOL0     H90386  10.577   3.733  12.042  2.2240 -2.6472 -1.4651
  655MOL0     H90387  10.875   3.888  11.363 -1.6715  0.7208  1.8047
  655MOL0     H90388  11.010   3.949  11.079 -1.9995  0.4403 -0.1162
  655MOL0     H90389  11.045   3.779  11.093 -0.6236  1.8539 -3.0311
  655MOL0     H90390  10.897   3.838  11.159 -0.8295 -0.0406 -1.8992
  656MOL0     O90391   4.039   8.673   1.256  0.3048  1.0714  0.1110
  656MOL0     C90392   3.998   8.772   1.306  0.1802  0.0873 -0.1923
  656MOL0     O90393   4.066   8.863   1.388 -0.0328 -0.4857  0.2324
  656MOL0     C90394   4.198   8.833   1.412 -0.3409 -0.0230 -0.1710
  656MOL0     C90395   4.231   8.807   1.544  0.7456 -0.9188 -0.1616
  656MOL0     C90396   4.359   8.763   1.579  0.9591  0.4338 -1.0608
  656MOL0     C90397   4.448   8.739   1.476  0.4399 -0.0940 -0.1689
  656MOL0     O90398   4.561   8.675   1.502  0.2540 -0.0039  0.3729
  656MOL0     C90399   4.681   8.750   1.495  0.4884  0.2584 -0.3949
  656MOL0     C90400   4.780   8.742   1.611  0.2859 -0.3952  0.4371
  656MOL0     C90401   4.922   8.788   1.572 -0.4963 -0.2936 -0.8350
  656MOL0     C90402   4.933   8.933   1.546 -0.5874  0.6349 -0.9017
  656MOL0     C90403   5.084   8.967   1.516 -0.1194  1.0723  0.1245
  656MOL0     C90404   5.093   9.114   1.452 -0.3676  0.0857  0.6099
  656MOL0     C90405   5.240   9.165   1.464  0.5819 -0.2941  0.2793
  656MOL0     C90406   5.255   9.301   1.389 -0.1127  0.7732 -0.2632
  656MOL0     N90407   5.278   9.283   1.245  0.1701 -0.2568 -0.1954
  656MOL0     C90408   5.390   9.250   1.176  0.6154 -0.2022  0.9141
  656MOL0     C90409   5.361   9.228   1.050 -1.1062 -0.0133  0.2776
  656MOL0     C90410   5.469   9.222   0.941 -0.0260 -0.1244 -0.2135
  656MOL0     C90411   5.412   9.254   0.802  1.1602  0.4490  0.1890
  656MOL0     C90412   5.503   9.232   0.689 -0.1646 -0.0251 -0.5673
  656MOL0     C90413   5.596   9.353   0.659 -0.3119  0.0410  0.0415
  656MOL0     O90414   5.514   9.471   0.639  0.3031 -0.1605 -0.2521
  656MOL0     C90415   5.550   9.547   0.531 -0.0038  0.3285 -0.0690
  656MOL0     C90416   5.462   9.576   0.416  0.3754  1.0776  0.6295
  656MOL0     C90417   5.496   9.667   0.318  0.5079 -0.0903 -0.5916
  656MOL0     C90418   5.396   9.679   0.210  0.0846 -0.1721  0.3530
  656MOL0     C90419   5.626   9.730   0.325 -0.0763  0.8102 -0.2438
  656MOL0     C90420   5.672   9.840   0.235  0.7110 -0.0458  0.6724
  656MOL0     O90421   5.581   9.902   0.151  0.0767 -1.0898  0.2675
  656MOL0     C90422   5.636   9.955   0.030  0.0567  0.9121 -0.0503
  656MOL0     C90423   5.724   9.893  -0.047 -1.3031 -0.0253 -0.0020
  656MOL0     C90424   5.776   9.951  -0.166  0.7378 -0.4092 -0.4985
  656MOL0     C90425   5.730  10.069  -0.211 -0.2704 -0.2233 -0.0317
  656MOL0     O90426   5.768  10.131  -0.332 -0.0473 -0.6020 -0.3962
  656MOL0     C90427   5.789  10.056  -0.453 -0.6564 -0.8208  0.8582
  656MOL0     C90428   5.940  10.048  -0.499  0.1457 -0.2744 -1.1864
  656MOL0     C90429   5.952  10.065  -0.645 -0.1401 -0.8084  0.1612
  656MOL0     C90430   5.895   9.946  -0.725 -0.2707  1.1912  1.0694
  656MOL0     C90431   5.947   9.948  -0.876  0.1864  0.2040 -0.1855
  656MOL0     C90432   5.885  10.073  -0.931  0.5189 -0.9241  0.3893
  656MOL0     C90433   5.936  10.105  -1.077  0.1769  0.2017 -0.1524
  656MOL0     C90434   5.854  10.202  -1.161  0.1646  0.8996 -0.8743
  656MOL0    Cl90435   5.685  10.132  -1.188 -0.5005 -0.2515 -0.1704
  656MOL0     C90436   5.642  10.138  -0.132  0.6073  0.3028 -0.8257
  656MOL0     C90437   5.597  10.081  -0.011 -0.0735 -0.6002 -0.8159
  656MOL0     O90438   5.796   9.871   0.240 -0.2366 -0.5119  0.0609
  656MOL0     C90439   5.715   9.682   0.425 -0.3170  0.4948 -0.0515
  656MOL0     C90440   5.681   9.596   0.527  0.0070 -0.6827  0.0787
  656MOL0     N90441   5.227   9.249   1.042 -0.2727  0.7670 -0.6968
  656MOL0     N90442   5.173   9.286   1.156 -0.2202 -0.3694 -0.6830
  656MOL0     C90443   4.419   8.771   1.343  0.7248  0.5351 -0.1624
  656MOL0     C90444   4.288   8.822   1.311 -0.2221  0.4355 -0.4468
  656MOL0     C90445   3.852   8.805   1.275  0.1076 -0.0749 -0.6734
  656MOL0     C90446   3.799   8.929   1.321 -0.0690 -0.3186  0.3461
  656MOL0     C90447   3.665   8.962   1.308 -0.4071  0.9308 -1.0145
  656MOL0     C90448   3.578   8.888   1.234  0.2998  0.7124  0.3196
  656MOL0     O90449   3.450   8.918   1.200 -0.8101 -0.7762 -0.0532
  656MOL0     C90450   3.369   8.990   1.298 -0.6691  0.1747  0.7800
  656MOL0     C90451   3.227   8.947   1.291 -1.4489  0.4988  0.3399
  656MOL0     C90452   3.132   9.060   1.331 -0.1907 -0.8203  0.9535
  656MOL0     C90453   3.127   9.175   1.236  0.3461 -0.1154 -0.1644
  656MOL0     C90454   3.056   9.283   1.295 -0.7882 -0.4102 -0.5836
  656MOL0     C90455   2.992   9.377   1.344 -0.3801 -0.5089 -0.1524
  656MOL0     C90456   3.631   8.764   1.188 -0.3777 -0.2722 -0.4070
  656MOL0     C90457   3.757   8.721   1.201 -0.7201 -0.4657 -1.5021
  656MOL0     C90458   3.801   8.601   1.124 -0.3775  0.1312  0.0352
  656MOL0     H90459   4.161   8.824   1.626  0.5182 -1.5102 -0.2278
  656MOL0     H90460   4.381   8.738   1.682 -0.2568  1.3176 -0.5581
  656MOL0     H90461   4.666   8.856   1.471  3.0703  0.4758 -1.4021
  656MOL0     H90462   4.735   8.707   1.409 -0.9252 -3.9242  0.5939
  656MOL0     H90463   4.738   8.785   1.702 -0.4860  0.0636 -0.1239
  656MOL0     H90464   4.796   8.636   1.631  3.0126 -0.3229 -0.8766
  656MOL0     H90465   4.982   8.760   1.659 -1.3717  0.4239  0.0261
  656MOL0     H90466   4.958   8.736   1.482 -0.6543 -2.0736  0.0871
  656MOL0     H90467   4.878   8.963   1.457 -0.9195  1.2937 -0.4843
  656MOL0     H90468   4.898   8.989   1.634  1.8598 -0.7737  1.1170
  656MOL0     H90469   5.122   8.899   1.439 -0.2635  2.2220 -1.0181
  656MOL0     H90470   5.150   8.953   1.602 -0.2384 -0.8024 -0.0532
  656MOL0     H90471   5.062   9.120   1.347 -1.3423  0.8211  0.9198
  656MOL0     H90472   5.024   9.182   1.503  0.4992  0.6337  1.0918
  656MOL0     H90473   5.292   9.089   1.405 -0.3927 -0.7407 -0.0310
  656MOL0     H90474   5.278   9.168   1.566  1.0520  1.6073  0.0819
  656MOL0     H90475   5.158   9.351   1.397 -0.2935  0.1858  1.5061
  656MOL0     H90476   5.322   9.373   1.436 -2.5632  2.8230  0.2883
  656MOL0     H90477   5.491   9.253   1.216 -1.0084  1.4302  5.5841
  656MOL0     H90478   5.518   9.125   0.952  0.6298 -0.3148 -3.6891
  656MOL0     H90479   5.545   9.297   0.964 -0.4089  0.2350 -0.1067
  656MOL0     H90480   5.320   9.196   0.790 -1.3292  3.2823  3.4361
  656MOL0     H90481   5.370   9.355   0.798 -1.3334 -0.4466  1.5862
  656MOL0     H90482   5.565   9.146   0.717 -0.6078  0.2010  1.1584
  656MOL0     H90483   5.443   9.216   0.599  0.0473  2.3856 -1.2041
  656MOL0     H90484   5.661   9.377   0.744  2.3785 -3.4263 -0.8009
  656MOL0     H90485   5.658   9.322   0.574  1.4330 -0.2771  1.3700
  656MOL0     H90486   5.363   9.534   0.402  0.6791 -0.8833  3.4955
  656MOL0     H90487   5.329   9.766   0.222 -1.7015 -0.7774 -3.4837
  656MOL0     H90488   5.333   9.594   0.181 -0.8511  1.0871 -1.5939
  656MOL0     H90489   5.452   9.699   0.118 -0.4890  0.0208  0.0346
  656MOL0     H90490   5.757   9.795  -0.015 -0.3921  0.4609  0.5963
  656MOL0     H90491   5.842   9.888  -0.225  0.6403 -0.3101 -0.7169
  656MOL0     H90492   5.756   9.952  -0.443  1.4581 -1.6178  0.1486
  656MOL0     H90493   5.727  10.103  -0.530 -0.6144 -0.3477  1.1140
  656MOL0     H90494   5.991  10.133  -0.452 -1.3297  0.6012 -1.1225
  656MOL0     H90495   5.992   9.955  -0.472 -0.4553 -0.3834 -0.3949
  656MOL0     H90496   6.054  10.092  -0.673 -0.6618  0.4433 -0.5995
  656MOL0     H90497   5.894  10.155  -0.667  0.2308  0.1038  2.5775
  656MOL0     H90498   5.786   9.950  -0.722 -0.3822 -0.3528  0.1679
  656MOL0     H90499   5.920   9.845  -0.692 -0.9594  1.4411  2.4065
  656MOL0     H90500   6.056   9.948  -0.875  0.2444  2.8126 -0.5429
  656MOL0     H90501   5.899   9.866  -0.931 -4.3261  1.3170  1.5906
  656MOL0     H90502   5.915  10.163  -0.876  0.2647 -1.4444  1.3953
  656MOL0     H90503   5.777  10.061  -0.924  0.1107  1.0747 -1.3113
  656MOL0     H90504   5.926  10.009  -1.130  3.0586  0.1310 -0.7034
  656MOL0     H90505   6.036  10.148  -1.082 -0.8558  2.5730 -2.5880
  656MOL0     H90506   5.892  10.205  -1.264 -2.6364  0.5047 -2.0093
  656MOL0     H90507   5.864  10.300  -1.115  0.8222  1.0463 -1.3124
  656MOL0     H90508   5.618  10.241  -0.155  0.6033  0.7604  1.0088
  656MOL0     H90509   5.527  10.137   0.051 -0.1661 -1.9461  0.3406
  656MOL0     H90510   5.812   9.731   0.423 -1.2924  2.6563 -3.2314
  656MOL0     H90511   5.751   9.584   0.610 -0.9647 -3.2090  0.6212
  656MOL0     H90512   4.492   8.750   1.265 -1.0330 -0.6465 -1.5502
  656MOL0     H90513   4.252   8.855   1.214 -1.0049  0.0842 -0.2820
  656MOL0     H90514   3.863   9.000   1.373 -1.5985  1.3011  0.1155
  656MOL0     H90515   3.636   9.062   1.340  2.2997  1.6456 -0.4814
  656MOL0     H90516   3.399   8.941   1.392 -1.3726 -2.1068 -0.1113
  656MOL0     H90517   3.380   9.098   1.303  0.4518  0.0363  1.6821
  656MOL0     H90518   3.209   8.862   1.358 -2.1961  0.6307  0.3148
  656MOL0     H90519   3.210   8.919   1.187  4.4253 -2.6334 -0.2336
  656MOL0     H90520   3.039   9.004   1.318  0.1739 -0.9274 -1.5011
  656MOL0     H90521   3.137   9.088   1.437  0.8492 -1.1524  1.0028
  656MOL0     H90522   3.086   9.138   1.142 -1.7739  2.0578 -0.1979
  656MOL0     H90523   3.231   9.201   1.214  0.7936 -2.0103 -0.3965
  656MOL0     H90524   2.945   9.462   1.388  3.2533  0.7409  1.7606
  656MOL0     H90525   3.570   8.716   1.114 -0.7993  3.0843 -2.4442
  656MOL0     H90526   3.840   8.532   1.199  2.7148 -0.2358 -1.7456
  656MOL0     H90527   3.713   8.561   1.072 -1.8488 -0.3015  2.7179
  656MOL0     H90528   3.883   8.638   1.062  1.8814 -0.3593  2.5710
  657MOL0     O90529   2.539   9.761   0.756  0.0070 -0.7103 -0.2355
  657MOL0     C90530   2.588   9.661   0.694  0.5163  0.0245 -0.8947
  657MOL0     O90531   2.692   9.665   0.606 -0.5399  0.6490  0.0838
  657MOL0     C90532   2.762   9.783   0.591  0.2680  0.3939  0.1440
  657MOL0     C90533   2.705   9.892   0.531 -0.2119 -0.5462  0.2383
  657MOL0     C90534   2.777  10.006   0.483  1.1276 -0.1827  0.0380
  657MOL0     C90535   2.912  10.010   0.496  0.2388  0.1033 -0.3102
  657MOL0     O90536   2.982  10.123   0.458 -0.5022  0.0302  0.4458
  657MOL0     C90537   3.125  10.115   0.454 -0.0751  1.1202 -0.1664
  657MOL0     C90538   3.165  10.025   0.337 -0.4294  0.0249  0.3415
  657MOL0     C90539   3.317   9.986   0.330 -0.5747  0.3414 -0.5266
  657MOL0     C90540   3.407  10.108   0.313  1.3375  0.2777  0.0036
  657MOL0     C90541   3.545  10.078   0.271  0.7471  1.0342 -0.1069
  657MOL0     C90542   3.621  10.205   0.253 -0.4634 -0.4313  0.6455
  657MOL0     C90543   3.771  10.180   0.237 -0.0760 -0.3267  0.0671
  657MOL0     C90544   3.840  10.318   0.225  0.3123  0.8869  0.4907
  657MOL0     N90545   3.865  10.392   0.349 -1.1543  0.2341 -0.2361
  657MOL0     C90546   3.982  10.368   0.436  0.0254  0.1284  1.3140
  657MOL0     C90547   3.995  10.479   0.506 -0.1093  0.6141 -0.2754
  657MOL0     C90548   4.099  10.500   0.609  1.0475  0.3005 -0.3626
  657MOL0     C90549   4.152  10.646   0.614 -0.1614 -0.0118  0.0721
  657MOL0     C90550   4.187  10.702   0.468 -0.4076  0.0378  0.3661
  657MOL0     C90551   4.267  10.597   0.385  1.0968 -0.3800  0.7395
  657MOL0     O90552   4.322  10.658   0.264 -0.0815 -0.2310 -0.1916
  657MOL0     C90553   4.449  10.710   0.258 -0.0293  0.2456  0.3440
  657MOL0     C90554   4.520  10.742   0.372  0.4328 -0.2380  0.1164
  657MOL0     C90555   4.653  10.773   0.378  0.1850 -0.2176  0.4814
  657MOL0     C90556   4.716  10.785   0.516  0.0199 -0.2511 -0.7991
  657MOL0     C90557   4.720  10.811   0.257 -0.4450 -0.7670 -0.0587
  657MOL0     C90558   4.864  10.853   0.252  0.7883 -0.2331  0.4827
  657MOL0     O90559   4.909  10.874   0.124  0.1496 -0.0703 -0.5788
  657MOL0     C90560   5.040  10.910   0.096 -0.4886  0.7030  0.2587
  657MOL0     C90561   5.098  10.849  -0.014  0.3958  0.6612 -0.1692
  657MOL0     C90562   5.231  10.892  -0.046  0.2278 -0.3174 -0.0064
  657MOL0     C90563   5.291  10.999   0.020  0.8656  0.4933  0.4158
  657MOL0     O90564   5.427  11.028  -0.022  0.7000  0.2097  0.5669
  657MOL0     C90565   5.489  11.138   0.051  0.3809 -0.4844  0.2070
  657MOL0     C90566   5.620  11.174  -0.008 -0.8919 -0.1505  0.2509
  657MOL0     C90567   5.671  11.301   0.071 -0.6742 -0.7322 -0.1103
  657MOL0     C90568   5.813  11.342   0.025 -0.7467  0.2041 -0.6600
  657MOL0     C90569   5.822  11.420  -0.109 -0.3884 -1.3399 -0.2309
  657MOL0     C90570   5.974  11.464  -0.130  0.7285 -0.4033 -0.2442
  657MOL0     C90571   6.066  11.339  -0.141 -0.4037  0.6242 -0.0091
  657MOL0     C90572   6.200  11.364  -0.219  0.8384 -0.4596 -0.1380
  657MOL0    Cl90573   6.169  11.334  -0.389 -0.3609  0.5190  0.3629
  657MOL0     C90574   5.226  11.050   0.135 -0.2875 -1.2853 -0.1027
  657MOL0     C90575   5.108  11.001   0.176 -1.1428  0.1109 -0.8385
  657MOL0     O90576   4.937  10.839   0.344  0.1592 -0.3736 -0.2132
  657MOL0     C90577   4.642  10.798   0.138 -0.1357 -0.4934 -0.1458
  657MOL0     C90578   4.510  10.746   0.139  0.0933 -0.0020  0.2135
  657MOL0     N90579   3.884  10.555   0.474 -0.5046 -0.4463  1.1615
  657MOL0     N90580   3.812  10.510   0.381 -0.3346 -0.8266 -0.3663
  657MOL0     C90581   2.967   9.903   0.563  0.4618  0.2331 -0.4148
  657MOL0     C90582   2.896   9.788   0.603  0.6055  0.3567 -0.0325
  657MOL0     C90583   2.504   9.540   0.704  0.4895  0.5642  0.9473
  657MOL0     C90584   2.378   9.549   0.628 -0.5113  0.5343 -0.2516
  657MOL0     C90585   2.285   9.448   0.624  0.5556  0.3492 -0.1709
  657MOL0     C90586   2.316   9.338   0.694  0.7846  0.2030  0.2390
  657MOL0     O90587   2.242   9.222   0.688 -0.2953  0.6814  0.7116
  657MOL0     C90588   2.171   9.207   0.566  0.6902  1.0997  0.3001
  657MOL0     C90589   2.140   9.054   0.542 -0.4727 -0.2187 -0.3212
  657MOL0     C90590   1.995   9.018   0.597 -0.0811 -0.1057 -0.0345
  657MOL0     C90591   1.982   8.867   0.605  0.0945  0.7225 -0.4096
  657MOL0     C90592   1.977   8.810   0.471 -0.0053  0.0039  1.0399
  657MOL0     C90593   1.984   8.742   0.369  0.1331 -0.4275 -0.6041
  657MOL0     C90594   2.432   9.325   0.776  1.1518 -0.1229  0.7730
  657MOL0     C90595   2.532   9.428   0.787 -1.0063 -0.2252  0.8350
  657MOL0     C90596   2.663   9.406   0.857  0.6287 -0.1961 -0.2652
  657MOL0     H90597   2.602   9.882   0.500 -0.4699 -0.4565  1.0359
  657MOL0     H90598   2.720  10.087   0.440 -0.3430 -1.5391 -0.6826
  657MOL0     H90599   3.169  10.075   0.545 -0.3513 -0.9745 -0.8821
  657MOL0     H90600   3.154  10.219   0.440 -0.0429  0.8264 -2.9409
  657MOL0     H90601   3.108   9.932   0.332 -0.7683  0.2973 -1.1858
  657MOL0     H90602   3.137  10.079   0.246  1.9780 -0.2419 -0.6489
  657MOL0     H90603   3.333   9.918   0.415  2.3673  2.0282  0.4052
  657MOL0     H90604   3.335   9.928   0.238 -2.3835  0.2662 -0.8772
  657MOL0     H90605   3.367  10.182   0.243 -0.6905 -0.1902  0.5855
  657MOL0     H90606   3.404  10.150   0.414 -2.1262 -2.0968  1.0526
  657MOL0     H90607   3.549  10.033   0.171 -2.3173 -1.6230  0.7726
  657MOL0     H90608   3.596  10.010   0.340 -2.3056  0.0209  1.3676
  657MOL0     H90609   3.572  10.251   0.166 -3.7810 -0.1516  2.4642
  657MOL0     H90610   3.603  10.272   0.337 -3.0587  0.1099 -0.2175
  657MOL0     H90611   3.771  10.126   0.142 -1.8350 -1.4062  0.6288
  657MOL0     H90612   3.815  10.123   0.320 -1.8138 -0.6944  0.7902
  657MOL0     H90613   3.940  10.305   0.183  0.0776  1.9087 -0.4393
  657MOL0     H90614   3.781  10.374   0.152  0.5363 -2.3473 -2.4319
  657MOL0     H90615   4.042  10.278   0.441 -0.9510 -0.4854  2.3880
  657MOL0     H90616   4.185  10.440   0.577  0.4626 -0.9758  0.3937
  657MOL0     H90617   4.064  10.461   0.705  2.7763 -1.3331 -0.3444
  657MOL0     H90618   4.076  10.710   0.660 -1.2515 -1.1335 -0.0968
  657MOL0     H90619   4.247  10.656   0.667 -1.3664  3.4230  1.9096
  657MOL0     H90620   4.094  10.714   0.412  0.1675 -2.2632 -1.2054
  657MOL0     H90621   4.245  10.791   0.494  2.4944 -2.0934  1.8541
  657MOL0     H90622   4.339  10.544   0.449  4.0869 -1.9159 -3.4218
  657MOL0     H90623   4.198  10.522   0.344  1.4780  0.5333 -1.7524
  657MOL0     H90624   4.466  10.724   0.465 -0.5118 -0.8146 -0.5172
  657MOL0     H90625   4.753  10.887   0.532 -3.1105  0.6851  1.6337
  657MOL0     H90626   4.799  10.715   0.528  1.5854  1.7661  0.7599
  657MOL0     H90627   4.641  10.778   0.597 -0.5397 -1.1500 -1.3801
  657MOL0     H90628   5.040  10.770  -0.059 -0.2791 -0.3984  2.3668
  657MOL0     H90629   5.277  10.843  -0.132 -0.1273  1.3138 -1.1671
  657MOL0     H90630   5.421  11.223   0.056  0.5950 -0.3654  1.3213
  657MOL0     H90631   5.493  11.103   0.155 -2.7499 -2.0330 -0.0602
  657MOL0     H90632   5.686  11.090   0.016  1.2514  1.1839 -0.6094
  657MOL0     H90633   5.624  11.177  -0.117 -0.7030 -0.0885  0.2585
  657MOL0     H90634   5.678  11.278   0.177 -0.3860  0.0799  0.0556
  657MOL0     H90635   5.595  11.378   0.057 -0.1456 -0.3475 -0.9811
  657MOL0     H90636   5.875  11.253   0.011 -2.3360 -0.7975 -1.5521
  657MOL0     H90637   5.857  11.399   0.108 -2.4410  0.6204  0.0053
  657MOL0     H90638   5.793  11.367  -0.200 -0.6504 -1.6102  0.0043
  657MOL0     H90639   5.762  11.511  -0.107  0.3154 -0.8777 -0.1962
  657MOL0     H90640   6.005  11.542  -0.059 -0.7931  1.1935 -1.2691
  657MOL0     H90641   5.969  11.505  -0.231  0.1293  0.2343  0.0415
  657MOL0     H90642   5.999  11.268  -0.190 -3.2073  2.9916  0.1205
  657MOL0     H90643   6.083  11.306  -0.039 -1.1658 -0.2768 -0.1622
  657MOL0     H90644   6.269  11.284  -0.193  1.9559  0.3387 -0.5805
  657MOL0     H90645   6.242  11.463  -0.199 -0.9211 -0.0772  2.0761
  657MOL0     H90646   5.273  11.131   0.190 -0.4813 -0.5464 -1.0078
  657MOL0     H90647   5.068  11.031   0.272  1.5995  0.9104  0.1727
  657MOL0     H90648   4.685  10.811   0.039 -3.5781 -2.5761 -2.1030
  657MOL0     H90649   4.461  10.737   0.043  3.0867 -2.1506 -1.2962
  657MOL0     H90650   3.072   9.900   0.592  0.6954  0.3934 -1.2093
  657MOL0     H90651   2.937   9.689   0.624 -3.6859 -1.1381  2.5628
  657MOL0     H90652   2.362   9.637   0.567 -2.1534  3.2020  3.6339
  657MOL0     H90653   2.201   9.451   0.556  0.3571  2.2037  0.1220
  657MOL0     H90654   2.084   9.272   0.561  1.4599  2.2935  1.7022
  657MOL0     H90655   2.229   9.238   0.478 -0.7068  0.6677 -0.7993
  657MOL0     H90656   2.202   8.988   0.602 -1.8940 -0.2357  1.2095
  657MOL0     H90657   2.149   9.031   0.435 -1.0327 -1.5483 -0.1042
  657MOL0     H90658   1.980   9.067   0.694  0.5509  1.2101 -0.5718
  657MOL0     H90659   1.915   9.059   0.536 -1.4950 -1.2538  0.9844
  657MOL0     H90660   1.896   8.834   0.664  1.2911  0.3252  1.1810
  657MOL0     H90661   2.063   8.831   0.669 -1.9858 -1.4789  1.1795
  657MOL0     H90662   1.990   8.680   0.281 -0.3061 -0.3732 -0.6730
  657MOL0     H90663   2.448   9.230   0.828  0.2894 -2.2869 -2.5894
  657MOL0     H90664   2.655   9.372   0.960  1.2626  0.1362 -0.0989
  657MOL0     H90665   2.704   9.320   0.803 -1.9672 -0.2830 -2.2983
  657MOL0     H90666   2.734   9.488   0.841  0.2652 -0.1868 -2.0808
  658MOL0     O90667   7.027   7.643   0.151 -0.9877  0.0761  0.5235
  658MOL0     C90668   6.920   7.685   0.203  0.0097 -0.6419 -0.7931
  658MOL0     O90669   6.902   7.733   0.336 -0.2957  0.4495  0.2183
  658MOL0     C90670   7.013   7.742   0.420  0.2124 -0.4186 -0.6169
  658MOL0     C90671   7.004   7.700   0.550  0.3329 -0.3335  0.0169
  658MOL0     C90672   7.112   7.701   0.633  0.2491  0.4662 -0.3231
  658MOL0     C90673   7.236   7.733   0.587 -0.0589 -0.8469  0.2484
  658MOL0     O90674   7.342   7.715   0.673  0.2503 -0.8758 -0.2443
  658MOL0     C90675   7.458   7.803   0.644 -0.0069 -0.3025 -0.0026
  658MOL0     C90676   7.552   7.762   0.744  0.0259 -0.0048  0.2439
  658MOL0     C90677   7.685   7.839   0.736 -0.9905  0.2847 -0.2091
  658MOL0     C90678   7.792   7.800   0.834 -0.9765  0.0968  0.0186
  658MOL0     C90679   7.917   7.894   0.838  0.0816 -0.6653 -0.4346
  658MOL0     C90680   7.984   7.921   0.710 -0.4703  0.2378 -0.3738
  658MOL0     C90681   8.022   7.795   0.631  0.6167 -0.4564 -0.2619
  658MOL0     C90682   8.108   7.808   0.505  0.0509 -0.3715  0.4464
  658MOL0     N90683   8.030   7.887   0.403 -0.5949  0.9235 -0.2765
  658MOL0     C90684   7.940   7.827   0.323  0.3095 -0.0537  0.3629
  658MOL0     C90685   7.868   7.934   0.283 -0.3403  0.3879  0.1892
  658MOL0     C90686   7.748   7.917   0.203  0.1552 -0.0198  0.4235
  658MOL0     C90687   7.752   8.022   0.086  0.9061 -0.6456  0.0969
  658MOL0     C90688   7.834   7.989  -0.034  0.3324  1.0987  0.3189
  658MOL0     C90689   7.799   8.094  -0.141  0.6962 -0.5093  0.8638
  658MOL0     O90690   7.675   8.066  -0.214  0.2136 -0.7590 -0.5597
  658MOL0     C90691   7.636   8.159  -0.304  0.3199 -0.5186 -0.2553
  658MOL0     C90692   7.695   8.285  -0.332  0.1713 -0.5920  0.0431
  658MOL0     C90693   7.640   8.377  -0.425 -0.3546  0.3206 -0.6664
  658MOL0     C90694   7.711   8.514  -0.436  0.9609  0.3866  0.3046
  658MOL0     C90695   7.514   8.345  -0.494  0.6798  0.5042 -0.0873
  658MOL0     C90696   7.432   8.435  -0.586 -0.5964  0.7254 -0.1247
  658MOL0     O90697   7.330   8.381  -0.658 -0.2795  0.4932  0.6258
  658MOL0     C90698   7.259   8.467  -0.738 -0.1846 -0.1019 -0.4445
  658MOL0     C90699   7.258   8.429  -0.876  0.2000 -0.1902 -0.0557
  658MOL0     C90700   7.190   8.503  -0.976 -0.3064 -0.1381 -0.1700
  658MOL0     C90701   7.136   8.629  -0.944 -0.2766 -0.1921  0.4732
  658MOL0     O90702   7.076   8.721  -1.025 -0.0264  0.3569 -0.1440
  658MOL0     C90703   7.043   8.677  -1.157  0.0442 -0.3559 -0.9318
  658MOL0     C90704   6.976   8.782  -1.240  0.6593  0.0273 -0.4502
  658MOL0     C90705   6.950   8.729  -1.383  0.0441 -0.4440  0.5997
  658MOL0     C90706   6.968   8.844  -1.489 -0.8342 -0.7550  0.9528
  658MOL0     C90707   7.110   8.874  -1.535  0.0601 -0.2321 -0.6390
  658MOL0     C90708   7.116   8.942  -1.676  0.1748 -0.3942 -0.1425
  658MOL0     C90709   7.241   8.884  -1.738  0.1459 -0.1592 -0.8876
  658MOL0     C90710   7.280   8.962  -1.855 -0.5213  1.0084  0.5173
  658MOL0    Cl90711   7.145   8.976  -1.982 -0.1435  0.0446  0.1311
  658MOL0     C90712   7.147   8.667  -0.810 -0.0993  0.5431  0.5423
  658MOL0     C90713   7.197   8.586  -0.710  0.1274  0.5235 -0.4711
  658MOL0     O90714   7.464   8.552  -0.585  0.0991 -0.2068 -0.0728
  658MOL0     C90715   7.453   8.224  -0.462  0.2694 -0.5300  0.9362
  658MOL0     C90716   7.510   8.137  -0.366  0.0542 -0.4822 -0.9260
  658MOL0     N90717   7.923   8.058   0.326 -0.5003 -1.0201  0.4264
  658MOL0     N90718   8.016   8.023   0.405 -0.3401  0.2418  0.0057
  658MOL0     C90719   7.249   7.784   0.458 -0.5274 -0.0168 -0.3695
  658MOL0     C90720   7.142   7.790   0.379  0.0650 -0.2325 -0.3143
  658MOL0     C90721   6.804   7.677   0.113  0.4939  0.8446 -0.6875
  658MOL0     C90722   6.709   7.772   0.124 -0.1546 -0.4296 -0.8386
  658MOL0     C90723   6.605   7.785   0.040 -0.3362  0.3737  0.7183
  658MOL0     C90724   6.578   7.682  -0.056  0.2744 -0.9339  0.5243
  658MOL0     O90725   6.477   7.702  -0.146  0.5627 -0.1268 -0.1785
  658MOL0     C90726   6.375   7.596  -0.176  0.3663 -1.0164 -0.3331
  658MOL0     C90727   6.313   7.538  -0.045 -0.1047  0.1437 -0.3112
  658MOL0     C90728   6.389   7.412  -0.005 -0.2860  0.3566 -0.2953
  658MOL0     C90729   6.316   7.325   0.093 -0.5298 -1.2109 -0.1274
  658MOL0     C90730   6.192   7.267   0.036 -0.1243 -0.5492 -0.0585
  658MOL0     C90731   6.089   7.234  -0.017  0.3517 -0.8218 -0.4734
  658MOL0     C90732   6.678   7.584  -0.069  0.0852  0.1016  0.1859
  658MOL0     C90733   6.781   7.575   0.020  0.7214 -0.1257 -1.3203
  658MOL0     C90734   6.857   7.446   0.018 -0.5309 -0.5114  0.0054
  658MOL0     H90735   6.919   7.643   0.586  0.1197 -0.0724 -0.0781
  658MOL0     H90736   7.124   7.651   0.729 -2.9278 -1.1908 -0.6405
  658MOL0     H90737   7.435   7.909   0.660  2.7442  0.5243 -1.1095
  658MOL0     H90738   7.494   7.790   0.542  2.6062 -0.1625  0.8497
  658MOL0     H90739   7.509   7.790   0.841  2.6309  0.3716  1.4087
  658MOL0     H90740   7.563   7.653   0.738  1.7241  0.1488 -0.2211
  658MOL0     H90741   7.716   7.814   0.634 -0.9753 -3.6138  0.6171
  658MOL0     H90742   7.657   7.944   0.751  1.0675  1.1592 -2.0348
  658MOL0     H90743   7.738   7.811   0.929 -0.4398 -0.1730  0.3561
  658MOL0     H90744   7.822   7.696   0.821  0.7480  0.3806  1.3354
  658MOL0     H90745   7.981   7.859   0.920  1.2062 -1.3887 -1.5731
  658MOL0     H90746   7.876   7.988   0.875 -0.1601 -1.1143  0.4684
  658MOL0     H90747   7.930   7.986   0.640 -1.1091  0.3282  0.1889
  658MOL0     H90748   8.072   7.982   0.730 -1.1067  0.0505  4.1174
  658MOL0     H90749   7.929   7.749   0.595  0.1958 -0.6814  1.0456
  658MOL0     H90750   8.080   7.735   0.702  0.4245  0.4762  0.7039
  658MOL0     H90751   8.201   7.853   0.540 -0.0627 -0.5172  0.9460
  658MOL0     H90752   8.127   7.709   0.462  1.2001 -0.6848  1.6138
  658MOL0     H90753   7.924   7.720   0.310  1.8889 -0.3657  0.7181
  658MOL0     H90754   7.657   7.938   0.261 -0.5553  2.4024 -1.4168
  658MOL0     H90755   7.735   7.821   0.154 -1.0769  1.3496 -2.1141
  658MOL0     H90756   7.650   8.031   0.048 -0.2091 -0.2253  2.9593
  658MOL0     H90757   7.783   8.122   0.115  2.0237 -0.2186 -2.3298
  658MOL0     H90758   7.941   7.988  -0.012  0.2623 -1.9092  0.8243
  658MOL0     H90759   7.808   7.892  -0.077 -0.4553  2.2840 -2.0811
  658MOL0     H90760   7.784   8.185  -0.082 -3.0212 -0.6618  0.3880
  658MOL0     H90761   7.888   8.109  -0.202  2.1627 -1.2218  2.7308
  658MOL0     H90762   7.782   8.317  -0.276  0.2966 -1.8565  0.5959
  658MOL0     H90763   7.708   8.560  -0.535 -2.0973 -0.3855 -0.0434
  658MOL0     H90764   7.819   8.502  -0.421  0.6655  0.3692  2.7987
  658MOL0     H90765   7.675   8.582  -0.358  0.9885 -0.4050  1.0188
  658MOL0     H90766   7.318   8.344  -0.908 -0.7506 -0.9987  0.2505
  658MOL0     H90767   7.206   8.476  -1.080  0.6971  2.1448 -0.6728
  658MOL0     H90768   7.129   8.651  -1.219 -0.2207 -2.2227 -0.5868
  658MOL0     H90769   6.978   8.589  -1.158 -0.9522  0.3154  0.3342
  658MOL0     H90770   6.876   8.801  -1.200  0.1600 -1.1769 -1.0731
  658MOL0     H90771   7.049   8.864  -1.236  0.9258 -0.2370  2.5963
  658MOL0     H90772   6.853   8.682  -1.400  1.4446 -3.1938 -0.5100
  658MOL0     H90773   7.026   8.651  -1.393 -0.4347 -1.1687  2.1826
  658MOL0     H90774   6.926   8.938  -1.452 -0.8976 -0.6079  0.5187
  658MOL0     H90775   6.913   8.809  -1.578 -0.3094 -0.2371  0.4149
  658MOL0     H90776   7.153   8.942  -1.461 -3.1079  1.4606 -0.1763
  658MOL0     H90777   7.166   8.780  -1.535 -1.0471 -0.9804  2.0249
  658MOL0     H90778   7.127   9.051  -1.684  0.0566 -0.4679 -1.5337
  658MOL0     H90779   7.032   8.912  -1.740 -1.0185  3.2211 -0.5006
  658MOL0     H90780   7.208   8.781  -1.756  1.4378 -0.7825  0.0953
  658MOL0     H90781   7.316   8.884  -1.658 -3.2482  1.4968  2.5947
  658MOL0     H90782   7.380   8.932  -1.886 -0.3826 -0.6875  2.3943
  658MOL0     H90783   7.288   9.064  -1.818 -1.2208 -0.0140  3.7746
  658MOL0     H90784   7.101   8.764  -0.795  3.2402  2.0994  1.8704
  658MOL0     H90785   7.185   8.626  -0.610  0.0176 -0.4086 -0.1073
  658MOL0     H90786   7.369   8.180  -0.514  1.3661 -0.8588 -0.6349
  658MOL0     H90787   7.456   8.043  -0.359 -0.7609 -0.1594 -2.3997
  658MOL0     H90788   7.338   7.817   0.406  0.2467 -1.1393  0.2218
  658MOL0     H90789   7.161   7.829   0.280  0.3421  0.4423 -0.0022
  658MOL0     H90790   6.720   7.855   0.192 -1.3005  0.1882 -1.3793
  658MOL0     H90791   6.540   7.871   0.049 -0.5466  0.3832 -0.7113
  658MOL0     H90792   6.298   7.647  -0.233  0.0046 -0.4660  0.6140
  658MOL0     H90793   6.413   7.523  -0.247 -3.9048 -0.7093 -3.2763
  658MOL0     H90794   6.213   7.515  -0.082 -0.2556 -2.1953  1.3585
  658MOL0     H90795   6.315   7.613   0.035 -1.1285  0.3956 -0.5138
  658MOL0     H90796   6.433   7.354  -0.086  3.0263 -0.0829  1.6707
  658MOL0     H90797   6.474   7.450   0.052  1.0828 -0.0248 -2.0073
  658MOL0     H90798   6.292   7.382   0.183  0.9513  0.9819 -1.0464
  658MOL0     H90799   6.377   7.242   0.132  2.0366  0.6713  0.1018
  658MOL0     H90800   5.995   7.210  -0.062 -0.5053  1.0999  0.1867
  658MOL0     H90801   6.660   7.510  -0.147 -0.5915 -1.8502  2.1139
  658MOL0     H90802   6.964   7.468   0.010  0.1318 -3.4409 -0.2204
  658MOL0     H90803   6.847   7.396   0.114 -0.3726  0.0012  0.2915
  658MOL0     H90804   6.837   7.378  -0.066  1.2864  0.7307 -1.5087
  659MOL0     O90805   8.334   8.414   0.046 -0.2769 -0.5347 -0.2100
  659MOL0     C90806   8.268   8.467  -0.046  0.0747  0.2770 -0.1262
  659MOL0     O90807   8.320   8.559  -0.128  0.0753  0.4147  0.1657
  659MOL0     C90808   8.452   8.594  -0.123  0.3236 -0.1768  0.0968
  659MOL0     C90809   8.506   8.688  -0.029  0.3928 -0.8648  0.3066
  659MOL0     C90810   8.643   8.709  -0.035  0.3463 -0.2972 -0.3463
  659MOL0     C90811   8.727   8.635  -0.115  0.4072 -0.2079 -0.0496
  659MOL0     O90812   8.861   8.644  -0.123  0.4607  0.9237 -0.5917
  659MOL0     C90813   8.923   8.653   0.006  0.3633 -0.6638 -0.4868
  659MOL0     C90814   9.071   8.605  -0.008  0.5902 -0.2013 -0.2211
  659MOL0     C90815   9.152   8.696  -0.087  0.0829  1.0225  0.6700
  659MOL0     C90816   9.211   8.812  -0.003  0.3441  0.1939 -0.8720
  659MOL0     C90817   9.311   8.896  -0.074 -0.2966  0.7340  1.2056
  659MOL0     C90818   9.365   9.021  -0.002  0.4104 -0.7067 -1.1993
  659MOL0     C90819   9.413   9.133  -0.088 -0.3309 -0.3618 -0.9432
  659MOL0     C90820   9.539   9.102  -0.179  0.6682 -0.8442  0.0672
  659MOL0     N90821   9.664   9.052  -0.120  0.5985 -0.1516 -0.7851
  659MOL0     C90822   9.730   8.931  -0.132 -0.2356  0.9371  0.2821
  659MOL0     C90823   9.839   8.936  -0.051 -0.0551 -0.0541  0.4740
  659MOL0     C90824   9.952   8.829  -0.029 -0.7642 -0.3913  0.2133
  659MOL0     C90825  10.090   8.874  -0.105  0.0022 -0.3986 -0.0254
  659MOL0     C90826  10.183   8.743  -0.122  0.3540 -0.6718  0.3866
  659MOL0     C90827  10.310   8.802  -0.164  0.1001  0.5223  0.2025
  659MOL0     O90828  10.397   8.688  -0.169  0.7528 -0.1225  0.0159
  659MOL0     C90829  10.515   8.699  -0.240 -0.3499 -0.1979  0.3735
  659MOL0     C90830  10.548   8.599  -0.336  1.0283  0.0253  0.1831
  659MOL0     C90831  10.662   8.605  -0.410 -0.4097 -0.9284  0.5433
  659MOL0     C90832  10.681   8.491  -0.514  0.2800 -0.6581 -0.8823
  659MOL0     C90833  10.759   8.707  -0.389 -0.2609  0.6711  0.8348
  659MOL0     C90834  10.897   8.704  -0.453  1.6149 -0.0541  0.6675
  659MOL0     O90835  11.000   8.771  -0.390 -0.4517  0.4063  0.0111
  659MOL0     C90836  11.122   8.769  -0.452 -0.1167 -0.7531 -0.2531
  659MOL0     C90837  11.194   8.890  -0.472  0.3517  0.2587 -0.2340
  659MOL0     C90838  11.316   8.894  -0.534  0.2259  0.7913 -0.1042
  659MOL0     C90839  11.383   8.782  -0.586  0.0603  0.7830 -0.8059
  659MOL0     O90840  11.497   8.799  -0.660  0.1993 -0.0923  0.4832
  659MOL0     C90841  11.594   8.710  -0.622 -0.0457  0.7950 -0.1015
  659MOL0     C90842  11.725   8.779  -0.650 -0.6779 -0.3725 -0.0928
  659MOL0     C90843  11.847   8.718  -0.576  0.2529 -0.5648  0.3704
  659MOL0     C90844  11.970   8.786  -0.635  0.8543 -0.1940 -0.8395
  659MOL0     C90845  12.088   8.755  -0.550  0.0472 -0.2929 -0.5992
  659MOL0     C90846  12.213   8.833  -0.601 -0.5470  0.2908 -0.2907
  659MOL0     C90847  12.336   8.823  -0.519  0.1914 -0.2569  0.0217
  659MOL0     C90848  12.419   8.951  -0.531  0.2419 -0.0463  0.8874
  659MOL0    Cl90849  12.585   8.920  -0.462 -0.0718  0.0239 -0.4869
  659MOL0     C90850  11.313   8.662  -0.570 -0.7084 -0.4450 -0.0009
  659MOL0     C90851  11.192   8.654  -0.504  0.8550 -0.6528 -0.7927
  659MOL0     O90852  10.901   8.652  -0.564  0.1867 -0.2054 -0.3086
  659MOL0     C90853  10.730   8.812  -0.301  0.6943  0.3363  0.1659
  659MOL0     C90854  10.603   8.810  -0.232 -1.1154  0.4161  0.1656
  659MOL0     N90855   9.839   9.057   0.014 -0.7801 -0.5795  0.4129
  659MOL0     N90856   9.736   9.119  -0.022  0.2845  0.6221 -0.4123
  659MOL0     C90857   8.666   8.537  -0.191 -0.7365  0.1669  0.4808
  659MOL0     C90858   8.533   8.516  -0.199  0.1447  0.0891  0.5559
  659MOL0     C90859   8.118   8.451  -0.037 -0.3468 -0.0179  0.1239
  659MOL0     C90860   8.052   8.360   0.048  0.5631 -0.2702 -0.1395
  659MOL0     C90861   7.912   8.360   0.071  0.3693 -0.8208  0.3750
  659MOL0     C90862   7.830   8.443  -0.006 -1.2966  0.7883 -0.8671
  659MOL0     O90863   7.700   8.462   0.004  0.4277 -0.4579 -0.3600
  659MOL0     C90864   7.629   8.412   0.116 -0.6737  0.7366  1.1376
  659MOL0     C90865   7.471   8.426   0.076  0.1733 -0.1315  0.1548
  659MOL0     C90866   7.442   8.306  -0.022 -0.3595 -0.7571 -0.7677
  659MOL0     C90867   7.306   8.321  -0.092 -0.6714  0.1945 -0.5132
  659MOL0     C90868   7.310   8.436  -0.187  0.3496  0.2980 -0.2069
  659MOL0     C90869   7.306   8.508  -0.285  0.0955  0.0112 -0.2566
  659MOL0     C90870   7.893   8.509  -0.108 -0.3578 -0.4899  0.3433
  659MOL0     C90871   8.032   8.517  -0.128 -0.0196  0.2640  0.7833
  659MOL0     C90872   8.066   8.588  -0.255 -0.8831 -0.0249  1.1242
  659MOL0     H90873   8.449   8.740   0.048  1.2767 -0.0294  0.4244
  659MOL0     H90874   8.691   8.779   0.032 -1.6865  0.2635  0.5958
  659MOL0     H90875   8.876   8.587   0.080  2.4037  1.3551  2.8713
  659MOL0     H90876   8.915   8.751   0.054 -1.1136 -1.3263  0.7074
  659MOL0     H90877   9.118   8.583   0.088  2.1342  0.1276 -0.8684
  659MOL0     H90878   9.064   8.511  -0.063 -4.6704 -0.2374 -0.0049
  659MOL0     H90879   9.227   8.622  -0.117 -1.8111 -1.0913  0.9468
  659MOL0     H90880   9.094   8.729  -0.174 -1.2286 -0.4749  0.9282
  659MOL0     H90881   9.133   8.871   0.046 -0.1077 -1.2237  0.1841
  659MOL0     H90882   9.257   8.776   0.089 -0.1701  3.2895  0.7522
  659MOL0     H90883   9.268   8.912  -0.173  2.7378  0.8018 -0.2233
  659MOL0     H90884   9.399   8.835  -0.097 -0.8178  0.3709  0.0645
  659MOL0     H90885   9.285   9.055   0.064  1.7498  0.5336 -0.1367
  659MOL0     H90886   9.442   8.995   0.071 -1.8126 -1.0511  1.1673
  659MOL0     H90887   9.439   9.219  -0.025 -3.8717 -0.5286  1.0077
  659MOL0     H90888   9.324   9.162  -0.146 -3.1198 -0.4770  2.8705
  659MOL0     H90889   9.514   9.028  -0.255  2.9394 -1.6352  0.0199
  659MOL0     H90890   9.554   9.196  -0.233  0.0284 -0.1939  0.9846
  659MOL0     H90891   9.706   8.852  -0.202  3.1940  0.7291 -0.8701
  659MOL0     H90892   9.923   8.733  -0.070 -1.2226 -0.8595  1.5793
  659MOL0     H90893   9.986   8.800   0.071  0.5932 -2.3736 -0.7599
  659MOL0     H90894  10.066   8.913  -0.204  3.9948  2.7004 -0.0432
  659MOL0     H90895  10.135   8.946  -0.035 -1.6591  2.2324 -1.4821
  659MOL0     H90896  10.193   8.692  -0.026 -2.7747 -1.7123  0.2662
  659MOL0     H90897  10.148   8.670  -0.195  0.5959  2.5729 -3.2942
  659MOL0     H90898  10.304   8.838  -0.267  0.3708 -0.1412 -0.0503
  659MOL0     H90899  10.356   8.883  -0.107 -0.0552  2.5189 -2.3323
  659MOL0     H90900  10.469   8.524  -0.343  0.8298  0.1915  0.6389
  659MOL0     H90901  10.778   8.441  -0.503  0.3537 -0.3836 -0.1948
  659MOL0     H90902  10.654   8.524  -0.614 -1.1882 -0.4505 -0.4489
  659MOL0     H90903  10.600   8.424  -0.483 -1.9438  2.8180  1.6266
  659MOL0     H90904  11.138   8.978  -0.442  1.3495  0.8036  0.0685
  659MOL0     H90905  11.355   8.992  -0.559 -0.0455  0.7777 -0.5945
  659MOL0     H90906  11.595   8.692  -0.514 -1.0945  0.9971 -0.0388
  659MOL0     H90907  11.582   8.616  -0.678 -0.6204 -0.0219  1.3197
  659MOL0     H90908  11.747   8.768  -0.756 -0.0247 -2.2575  0.2043
  659MOL0     H90909  11.712   8.886  -0.633 -0.0255  0.3556 -3.4616
  659MOL0     H90910  11.849   8.609  -0.592 -1.1344 -0.7095  1.0621
  659MOL0     H90911  11.850   8.741  -0.469  1.4639 -1.3473  0.5329
  659MOL0     H90912  11.971   8.896  -0.640 -2.3586  0.0227  0.2540
  659MOL0     H90913  11.988   8.748  -0.736 -0.1996 -1.4492 -0.5856
  659MOL0     H90914  12.076   8.783  -0.445 -0.7831 -0.3917 -0.6631
  659MOL0     H90915  12.100   8.648  -0.567 -0.5340 -0.1664 -1.9339
  659MOL0     H90916  12.184   8.938  -0.599  0.6832  0.6474  1.9700
  659MOL0     H90917  12.237   8.819  -0.707  1.4922  1.6574 -0.0656
  659MOL0     H90918  12.395   8.738  -0.556  3.3198  1.6383  0.3233
  659MOL0     H90919  12.299   8.816  -0.416  0.2779  0.0228  0.0713
  659MOL0     H90920  12.371   9.038  -0.486  1.7433 -0.7173  4.0689
  659MOL0     H90921  12.434   8.985  -0.634 -1.8509  2.4231  1.3045
  659MOL0     H90922  11.338   8.572  -0.626  0.0147 -0.8814  0.9940
  659MOL0     H90923  11.143   8.558  -0.496  1.2184 -0.8744 -1.2021
  659MOL0     H90924  10.804   8.891  -0.294  1.4268 -0.2237 -0.8896
  659MOL0     H90925  10.580   8.891  -0.163 -1.7153 -1.1454  1.8910
  659MOL0     H90926   8.721   8.477  -0.263 -1.0035  0.2070  0.2451
  659MOL0     H90927   8.496   8.433  -0.258 -2.5856 -0.1415  2.4158
  659MOL0     H90928   8.098   8.292   0.120 -2.4599 -0.4407  1.7850
  659MOL0     H90929   7.879   8.303   0.157  0.0541  0.1216  0.8792
  659MOL0     H90930   7.646   8.308   0.145 -0.1124  1.1230  2.2589
  659MOL0     H90931   7.650   8.478   0.201 -0.7720 -1.0859  2.6319
  659MOL0     H90932   7.465   8.522   0.025  3.6899  0.3695  0.4306
  659MOL0     H90933   7.408   8.431   0.165  0.7571  0.9226  0.5235
  659MOL0     H90934   7.519   8.298  -0.099  0.9257 -2.9443  0.6500
  659MOL0     H90935   7.450   8.213   0.035  1.0680 -0.0581  0.2410
  659MOL0     H90936   7.227   8.337  -0.018  2.0781  1.3858  2.3723
  659MOL0     H90937   7.289   8.231  -0.152  3.2168 -1.7161  0.9244
  659MOL0     H90938   7.311   8.566  -0.375  0.8697  4.4612  2.3550
  659MOL0     H90939   7.828   8.564  -0.176 -1.3173 -1.6595  0.2978
  659MOL0     H90940   8.076   8.694  -0.229  1.4814  0.4616 -1.3334
  659MOL0     H90941   8.157   8.561  -0.309 -1.4521  2.5378 -1.3903
  659MOL0     H90942   7.988   8.582  -0.332  0.0021 -4.0732  0.3354
  660MOL0     O90943   7.617  10.202  10.357 -0.4252 -0.2609  0.0611
  660MOL0     C90944   7.716  10.258  10.302 -0.4477  0.9254  0.4462
  660MOL0     O90945   7.795  10.341  10.377  0.7388  0.1951  1.0028
  660MOL0     C90946   7.906  10.396  10.317  0.0807 -0.0138  0.3598
  660MOL0     C90947   8.026  10.316  10.299  0.3811  0.1352 -0.1895
  660MOL0     C90948   8.144  10.370  10.249 -0.5391 -0.1025 -0.7850
  660MOL0     C90949   8.151  10.507  10.230  1.1746 -0.2073  0.7387
  660MOL0     O90950   8.279  10.547  10.200  0.3612 -0.2831  0.2646
  660MOL0     C90951   8.291  10.674  10.140  0.3728 -0.2301  0.4598
  660MOL0     C90952   8.439  10.697  10.104 -0.8275 -0.6756  0.0239
  660MOL0     C90953   8.528  10.729  10.221 -0.6169 -0.3805 -0.3757
  660MOL0     C90954   8.647  10.818  10.182 -1.0755  0.1075  0.5100
  660MOL0     C90955   8.728  10.767  10.054  0.6706 -1.1106 -0.0048
  660MOL0     C90956   8.832  10.868  10.012  0.0376  0.4043  0.3266
  660MOL0     C90957   8.905  10.781   9.904  1.7523 -0.4013  0.4582
  660MOL0     C90958   9.021  10.845   9.835  0.7150 -0.4424 -1.0066
  660MOL0     N90959   9.100  10.755   9.752  0.9385 -0.4247 -0.0666
  660MOL0     C90960   9.235  10.751   9.749  0.1281 -0.8008  0.0226
  660MOL0     C90961   9.258  10.680   9.633  0.0029  0.0007 -0.1751
  660MOL0     C90962   9.400  10.665   9.576 -0.0345  0.6212  1.0267
  660MOL0     C90963   9.417  10.734   9.444  0.7728 -0.7551 -0.8441
  660MOL0     C90964   9.567  10.713   9.398  0.4767  0.1202 -0.0189
  660MOL0     C90965   9.599  10.799   9.281 -0.4272 -0.4356  0.6155
  660MOL0     O90966   9.713  10.742   9.210  0.2920  0.6504 -0.5565
  660MOL0     C90967   9.826  10.814   9.178  0.0901  0.4813  0.2422
  660MOL0     C90968   9.952  10.754   9.170  0.4054  0.3011 -0.2704
  660MOL0     C90969  10.063  10.825   9.122  0.5087 -0.6412 -0.3406
  660MOL0     C90970  10.185  10.751   9.086 -0.8661  0.4501 -0.2266
  660MOL0     C90971  10.040  10.961   9.080 -1.3044  0.6286  0.3187
  660MOL0     C90972  10.137  11.048   9.006  0.2743 -0.0217 -0.1300
  660MOL0     O90973  10.092  11.177   8.970  0.0974 -0.2854 -0.6586
  660MOL0     C90974  10.192  11.260   8.934 -0.1311 -1.3346 -0.5890
  660MOL0     C90975  10.314  11.283   9.002  0.2061  0.3321 -0.1898
  660MOL0     C90976  10.408  11.371   8.946 -0.2009  0.0712 -0.4387
  660MOL0     C90977  10.371  11.465   8.845  0.3600  1.0765 -0.8253
  660MOL0     O90978  10.456  11.552   8.801  0.6829 -0.4867  0.0592
  660MOL0     C90979  10.527  11.526   8.680 -0.8292  0.5118 -0.0981
  660MOL0     C90980  10.657  11.450   8.704  1.2384  0.6263 -0.2873
  660MOL0     C90981  10.760  11.511   8.793 -0.2781 -0.1033  0.4065
  660MOL0     C90982  10.898  11.444   8.774  0.4423  0.4372  0.3734
  660MOL0     C90983  10.999  11.514   8.866 -0.0440 -0.3682  0.2741
  660MOL0     C90984  11.141  11.483   8.817  0.5283 -0.6910 -1.9174
  660MOL0     C90985  11.204  11.337   8.839  0.7830 -0.7267 -0.0295
  660MOL0     C90986  11.348  11.340   8.908  0.1149 -0.6717  0.5428
  660MOL0    Cl90987  11.357  11.432   9.051 -0.0702 -0.1173 -0.3614
  660MOL0     C90988  10.244  11.454   8.788  0.7071  0.5101 -0.7789
  660MOL0     C90989  10.150  11.353   8.835 -0.4930  0.3563 -0.2017
  660MOL0     O90990  10.251  11.007   8.992  0.5525 -0.1003  0.3269
  660MOL0     C90991   9.915  11.024   9.102 -0.3252  0.2858 -0.6580
  660MOL0     C90992   9.812  10.952   9.154 -0.3861  0.7972 -0.9087
  660MOL0     N90993   9.136  10.643   9.572  0.2532 -0.2904 -0.5302
  660MOL0     N90994   9.041  10.704   9.638 -0.1643  0.4024 -0.3798
  660MOL0     C90995   8.041  10.595  10.244 -0.2228  0.8903  0.3560
  660MOL0     C90996   7.917  10.534  10.289 -0.2280 -0.2527 -0.9234
  660MOL0     C90997   7.737  10.229  10.158 -0.1268 -0.1125 -0.3332
  660MOL0     C90998   7.810  10.120  10.116 -0.3361  0.0600  0.0912
  660MOL0     C90999   7.808  10.076   9.985  0.2382  0.2562 -0.0744
  660MOL0     C91000   7.749  10.150   9.880 -0.0798  0.7490 -0.5199
  660MOL0     O91001   7.777  10.111   9.754 -0.0624 -0.0621 -0.1791
  660MOL0     C91002   7.695  10.145   9.639  0.2523 -0.1216  0.3220
  660MOL0     C91003   7.544  10.104   9.655 -0.4619 -0.1341  0.3282
  660MOL0     C91004   7.511   9.955   9.691  0.2734  0.6488 -0.1691
  660MOL0     C91005   7.531   9.854   9.573  0.8095 -0.8038  0.6869
  660MOL0     C91006   7.492   9.727   9.625  0.5430 -0.7117  0.5899
  660MOL0     C91007   7.452   9.617   9.663 -0.1603 -0.3849 -0.2493
  660MOL0     C91008   7.670  10.257   9.926 -0.1844  0.7235  0.2300
  660MOL0     C91009   7.656  10.290  10.059 -0.0084 -0.4293 -0.2817
  660MOL0     C91010   7.563  10.403  10.094  0.9296 -0.3411  0.3572
  660MOL0     H91011   8.023  10.212  10.330  3.1651 -0.8485 -2.7000
  660MOL0     H91012   8.238  10.319  10.230 -1.4890 -0.8485 -4.0062
  660MOL0     H91013   8.266  10.755  10.210  2.1666  0.3546  0.4713
  660MOL0     H91014   8.223  10.671  10.054  0.9042 -2.7117  0.0689
  660MOL0     H91015   8.487  10.615  10.049 -1.9439 -0.1706 -1.7834
  660MOL0     H91016   8.454  10.781  10.036  1.4944  0.4369  1.7643
  660MOL0     H91017   8.470  10.780  10.299  4.2689  1.6079  2.3940
  660MOL0     H91018   8.572  10.640  10.266 -0.2766  0.1751  0.4040
  660MOL0     H91019   8.632  10.926  10.171 -0.8367  0.0059 -1.0802
  660MOL0     H91020   8.722  10.809  10.261  1.6119 -0.5325 -1.9443
  660MOL0     H91021   8.660  10.762   9.969 -0.5487 -5.2773  0.9926
  660MOL0     H91022   8.759  10.666  10.084 -1.4745 -1.7959  0.0858
  660MOL0     H91023   8.779  10.955   9.971  0.0137  0.3442  0.2267
  660MOL0     H91024   8.901  10.891  10.094 -1.1074 -0.9202  1.7110
  660MOL0     H91025   8.830  10.768   9.825 -0.9867  0.9255  2.6652
  660MOL0     H91026   8.932  10.691   9.960 -0.5494 -1.0339  0.6320
  660MOL0     H91027   8.989  10.935   9.781  1.9143  0.4708 -0.2504
  660MOL0     H91028   9.095  10.877   9.909  0.4167 -0.8872 -0.5058
  660MOL0     H91029   9.309  10.788   9.819  2.1174 -3.1540 -0.7307
  660MOL0     H91030   9.416  10.558   9.562  2.7293  0.9755  0.9388
  660MOL0     H91031   9.481  10.694   9.645  1.7875 -0.9430 -0.3400
  660MOL0     H91032   9.342  10.694   9.375 -1.8784  1.5753  0.4832
  660MOL0     H91033   9.396  10.842   9.450 -1.6497 -1.1406 -1.3602
  660MOL0     H91034   9.630  10.718   9.487 -0.6057 -0.2881  0.8055
  660MOL0     H91035   9.579  10.609   9.368  0.3374  0.2394 -0.5100
  660MOL0     H91036   9.512  10.798   9.215  0.4584 -5.5883 -0.9408
  660MOL0     H91037   9.627  10.898   9.317  1.6130 -0.1860 -1.4307
  660MOL0     H91038   9.953  10.648   9.192 -0.9871 -0.0062 -1.5276
  660MOL0     H91039  10.260  10.803   9.147 -0.8277  0.0175  0.0975
  660MOL0     H91040  10.212  10.741   8.981 -0.5044 -2.5508  0.0726
  660MOL0     H91041  10.181  10.647   9.119 -0.2629 -0.0800 -1.7383
  660MOL0     H91042  10.338  11.240   9.099  0.7265  3.6132  1.2698
  660MOL0     H91043  10.508  11.377   8.988 -0.2132  3.9486 -0.6012
  660MOL0     H91044  10.472  11.460   8.613  1.1129 -1.5183  0.1846
  660MOL0     H91045  10.541  11.620   8.625  0.1547  0.9206  0.8149
  660MOL0     H91046  10.624  11.361   8.758 -1.4808  1.9333  0.3868
  660MOL0     H91047  10.706  11.418   8.611 -0.9321 -1.1961 -0.9298
  660MOL0     H91048  10.724  11.499   8.896  0.8371  1.1244  0.9704
  660MOL0     H91049  10.780  11.616   8.772  0.9195 -0.3611  0.1908
  660MOL0     H91050  10.919  11.457   8.667 -1.3137  0.1545 -0.0438
  660MOL0     H91051  10.896  11.337   8.793 -0.6630 -0.1654 -2.5289
  660MOL0     H91052  10.985  11.621   8.850  3.1608  0.0729 -0.1835
  660MOL0     H91053  10.984  11.493   8.972  1.5729  0.1272  0.6248
  660MOL0     H91054  11.198  11.562   8.868  1.4741 -1.6807 -1.4208
  660MOL0     H91055  11.149  11.500   8.709  0.5573 -2.1616 -2.1691
  660MOL0     H91056  11.207  11.288   8.741 -3.6723 -3.6752  0.9971
  660MOL0     H91057  11.140  11.273   8.901 -0.3138  2.1917  2.0513
  660MOL0     H91058  11.404  11.402   8.838  2.4576 -2.4742  0.7116
  660MOL0     H91059  11.396  11.243   8.920  2.2396  0.3310  0.5464
  660MOL0     H91060  10.212  11.517   8.706 -0.1377 -0.6022 -1.3242
  660MOL0     H91061  10.049  11.347   8.796 -0.0292 -1.3914 -1.2611
  660MOL0     H91062   9.894  11.130   9.091  1.3603  0.8150  0.6142
  660MOL0     H91063   9.719  11.001   9.180 -1.0107  0.2641 -2.0716
  660MOL0     H91064   8.051  10.703  10.240  0.3453  0.9439  2.2487
  660MOL0     H91065   7.830  10.598  10.294  1.4066  2.0929 -0.4926
  660MOL0     H91066   7.875  10.068  10.185 -1.8940 -3.8956 -1.1342
  660MOL0     H91067   7.881  10.000   9.958  0.9401  0.9469 -0.1688
  660MOL0     H91068   7.703  10.252   9.620 -0.8445  0.0795  0.9330
  660MOL0     H91069   7.748  10.102   9.553  1.2569 -3.0893  2.2542
  660MOL0     H91070   7.506  10.119   9.553  0.5667 -3.9217 -0.7750
  660MOL0     H91071   7.498  10.164   9.734  1.3576 -1.8834  2.8494
  660MOL0     H91072   7.586   9.929   9.766  0.2101  1.1205  0.0636
  660MOL0     H91073   7.407   9.938   9.721  0.7901  0.2925  1.5050
  660MOL0     H91074   7.638   9.845   9.549  0.1578 -0.4782 -2.8480
  660MOL0     H91075   7.470   9.877   9.485  1.4446 -0.6051  0.2935
  660MOL0     H91076   7.405   9.527   9.696 -0.6169 -1.4631 -3.4967
  660MOL0     H91077   7.616  10.327   9.863  1.9756  1.5781 -0.7770
  660MOL0     H91078   7.618  10.493  10.123  0.8341  1.0731 -3.3439
  660MOL0     H91079   7.485  10.419  10.019  2.1341 -3.0761 -1.6755
  660MOL0     H91080   7.497  10.374  10.176 -1.2429  1.9727 -0.4750
  661MOL0     O91081   3.221   2.800   3.513 -0.4919  0.4095 -0.1024
  661MOL0     C91082   3.172   2.747   3.418  0.0877  0.2579  0.1819
  661MOL0     O91083   3.239   2.739   3.301 -0.3236  0.6784  0.2961
  661MOL0     C91084   3.357   2.801   3.278 -0.2853 -0.6717  1.1526
  661MOL0     C91085   3.468   2.724   3.247  0.6348  0.3766 -1.1398
  661MOL0     C91086   3.590   2.783   3.216  0.4796  0.8754  0.0127
  661MOL0     C91087   3.599   2.924   3.209 -0.4617 -0.3317 -0.2144
  661MOL0     O91088   3.719   2.974   3.166 -0.9418  0.6178 -0.4415
  661MOL0     C91089   3.745   3.110   3.185  0.5389 -0.9129  0.5736
  661MOL0     C91090   3.891   3.151   3.180 -0.3427 -0.3299  0.0686
  661MOL0     C91091   3.935   3.200   3.046  0.0991  0.1718  0.8410
  661MOL0     C91092   4.088   3.249   3.044 -0.8817 -0.1893 -0.1187
  661MOL0     C91093   4.110   3.340   2.930 -0.0881  0.1939  0.7081
  661MOL0     C91094   4.256   3.397   2.928  0.6575 -0.4451  0.8471
  661MOL0     C91095   4.353   3.282   2.951 -0.3386 -0.3742  0.2925
  661MOL0     C91096   4.498   3.341   2.948 -0.1783 -0.0885 -0.1808
  661MOL0     N91097   4.535   3.384   3.078 -0.0857 -0.1598  0.0576
  661MOL0     C91098   4.632   3.323   3.157  0.2361  0.0909 -0.3123
  661MOL0     C91099   4.648   3.394   3.271  0.3563  0.0754 -0.6138
  661MOL0     C91100   4.720   3.355   3.403 -1.3403 -0.4618  0.2146
  661MOL0     C91101   4.834   3.453   3.427  0.2688  0.9831 -0.2167
  661MOL0     C91102   4.954   3.428   3.329 -0.2201  0.2312  0.6958
  661MOL0     C91103   5.006   3.288   3.320 -0.4235  0.8746  0.1283
  661MOL0     O91104   5.043   3.235   3.453 -0.1102 -0.1407  0.4728
  661MOL0     C91105   5.163   3.260   3.501 -0.4999 -1.1010 -0.6293
  661MOL0     C91106   5.187   3.382   3.563  0.0646 -0.4167 -0.7723
  661MOL0     C91107   5.316   3.420   3.601  0.3152 -0.5941  0.5365
  661MOL0     C91108   5.323   3.546   3.682  0.4436  0.1175 -0.3642
  661MOL0     C91109   5.425   3.326   3.579 -0.0159  0.2525  0.6369
  661MOL0     C91110   5.565   3.356   3.627  0.1740  0.0007  0.4310
  661MOL0     O91111   5.594   3.488   3.655  0.4892 -0.1654  0.1192
  661MOL0     C91112   5.721   3.514   3.702  0.6517  0.5694 -0.3751
  661MOL0     C91113   5.773   3.439   3.809  0.5708 -0.2786  0.0474
  661MOL0     C91114   5.902   3.461   3.857  0.3072  0.1863 -0.0957
  661MOL0     C91115   5.983   3.550   3.781  0.4936 -0.2489 -0.1147
  661MOL0     O91116   6.114   3.573   3.808 -0.1739  0.3701  1.0315
  661MOL0     C91117   6.162   3.534   3.943 -0.2962 -0.8593  0.1898
  661MOL0     C91118   6.275   3.624   3.986  0.1810 -0.2047 -0.0753
  661MOL0     C91119   6.403   3.589   3.904  0.2215 -0.1789  0.1789
  661MOL0     C91120   6.525   3.665   3.958 -0.4689  0.3903 -0.1384
  661MOL0     C91121   6.653   3.612   3.892 -0.0991  0.2593 -0.5523
  661MOL0     C91122   6.759   3.719   3.880 -0.1623  0.4770  0.7832
  661MOL0     C91123   6.890   3.648   3.835  1.2617 -0.6107  0.1618
  661MOL0     C91124   6.975   3.730   3.741 -0.1882 -0.4320 -0.8885
  661MOL0    Cl91125   7.120   3.643   3.685 -0.0321  0.2172 -0.1794
  661MOL0     C91126   5.933   3.622   3.678  0.2586  0.2344 -0.5348
  661MOL0     C91127   5.801   3.606   3.638  0.7852  0.5685  0.8049
  661MOL0     O91128   5.647   3.267   3.631 -0.8083 -0.2430  0.4233
  661MOL0     C91129   5.403   3.197   3.528 -0.0493  0.6219 -0.4645
  661MOL0     C91130   5.273   3.165   3.492 -0.8431  0.1605  0.1349
  661MOL0     N91131   4.564   3.505   3.263 -0.5328 -0.2863 -0.4811
  661MOL0     N91132   4.506   3.493   3.141 -0.2732  0.0384  0.0925
  661MOL0     C91133   3.486   3.001   3.241  0.7099 -0.2680  0.7654
  661MOL0     C91134   3.362   2.936   3.274  0.4069  0.2029  0.0009
  661MOL0     C91135   3.045   2.676   3.437  0.3985  0.2034 -0.0651
  661MOL0     C91136   2.982   2.629   3.329 -0.2460 -0.6016  0.5064
  661MOL0     C91137   2.869   2.548   3.334 -1.2078 -0.1962 -0.1635
  661MOL0     C91138   2.803   2.528   3.455 -0.0863  0.7008  0.4501
  661MOL0     O91139   2.687   2.461   3.464  0.3157  0.1750  0.2376
  661MOL0     C91140   2.623   2.371   3.364 -0.4337 -0.0501 -0.0766
  661MOL0     C91141   2.496   2.304   3.424 -0.0309  0.3355  0.3120
  661MOL0     C91142   2.506   2.259   3.566  0.0407  0.3123  0.9966
  661MOL0     C91143   2.617   2.163   3.605 -0.2393  0.9642 -0.1730
  661MOL0     C91144   2.613   2.037   3.530  0.1718 -1.0512 -0.0797
  661MOL0     C91145   2.621   1.919   3.491 -0.1714 -0.6692  0.0081
  661MOL0     C91146   2.867   2.572   3.573 -0.6950 -0.4881  1.2691
  661MOL0     C91147   2.990   2.639   3.570 -0.0690  0.5759 -0.2764
  661MOL0     C91148   3.054   2.674   3.711  0.2506 -0.6872  0.2128
  661MOL0     H91149   3.456   2.616   3.253 -2.7713  0.6816  3.1390
  661MOL0     H91150   3.679   2.726   3.192  0.1590  1.1264 -1.8862
  661MOL0     H91151   3.727   3.130   3.291  1.1338 -0.1766  0.5440
  661MOL0     H91152   3.687   3.171   3.115  0.2878 -0.5697  1.0735
  661MOL0     H91153   3.918   3.228   3.253  1.8354 -0.5964 -0.3731
  661MOL0     H91154   3.953   3.063   3.204  2.2662  1.1809 -0.6865
  661MOL0     H91155   3.935   3.112   2.981  1.6226 -0.1751  1.2702
  661MOL0     H91156   3.875   3.279   3.000 -1.5327 -2.1957 -1.4080
  661MOL0     H91157   4.106   3.308   3.134 -0.3838  1.8511 -1.4918
  661MOL0     H91158   4.150   3.159   3.056  0.7772  1.2409  3.7546
  661MOL0     H91159   4.054   3.434   2.942 -0.8841  0.5796 -4.2117
  661MOL0     H91160   4.083   3.284   2.841  0.4437  0.9965  0.0203
  661MOL0     H91161   4.271   3.441   2.829 -0.8318 -1.7523  0.0049
  661MOL0     H91162   4.266   3.458   3.018  0.2662 -0.6436  1.0251
  661MOL0     H91163   4.334   3.206   2.875 -2.5903  1.4987 -1.1660
  661MOL0     H91164   4.345   3.234   3.049  1.5104 -0.2207  0.5412
  661MOL0     H91165   4.570   3.267   2.911 -1.2625 -1.5632  0.5742
  661MOL0     H91166   4.494   3.419   2.872  1.8916 -0.1171 -0.3754
  661MOL0     H91167   4.684   3.229   3.140 -1.4463 -1.2229  1.3988
  661MOL0     H91168   4.767   3.257   3.392 -1.8795 -0.5569 -1.5128
  661MOL0     H91169   4.653   3.354   3.490  1.4131  0.2726  2.4912
  661MOL0     H91170   4.805   3.557   3.410 -1.0607  0.5478 -0.7293
  661MOL0     H91171   4.871   3.451   3.530  2.7350  1.6715 -1.0107
  661MOL0     H91172   4.925   3.456   3.227 -0.3420 -2.0843  0.0544
  661MOL0     H91173   5.026   3.507   3.354 -2.2111  2.6584 -0.7569
  661MOL0     H91174   4.945   3.214   3.267  1.5457 -0.6090 -0.2080
  661MOL0     H91175   5.091   3.294   3.251 -1.0349 -1.6367 -0.9496
  661MOL0     H91176   5.101   3.446   3.581 -0.9741 -2.4986  2.6722
  661MOL0     H91177   5.353   3.513   3.782  1.7796 -1.0962 -1.1203
  661MOL0     H91178   5.227   3.599   3.689  1.7862  2.5485  1.1749
  661MOL0     H91179   5.393   3.619   3.640 -0.8057  0.4403 -2.0110
  661MOL0     H91180   5.710   3.364   3.856  0.3926  0.4230  0.9644
  661MOL0     H91181   5.920   3.406   3.949  0.7564  0.4656 -0.0105
  661MOL0     H91182   6.084   3.553   4.017  0.8493  1.0701  0.9798
  661MOL0     H91183   6.189   3.428   3.946 -0.0382 -0.8037 -0.1375
  661MOL0     H91184   6.245   3.729   3.980 -1.5328 -0.7382 -1.6612
  661MOL0     H91185   6.290   3.587   4.088 -0.1435 -3.8226 -1.2160
  661MOL0     H91186   6.378   3.619   3.802 -0.7896 -1.3615  0.0496
  661MOL0     H91187   6.404   3.480   3.911 -3.0634 -0.3754 -0.6076
  661MOL0     H91188   6.529   3.668   4.068  0.4644  1.2976 -0.1822
  661MOL0     H91189   6.520   3.773   3.940 -1.8381  0.6450  1.4661
  661MOL0     H91190   6.704   3.534   3.950 -0.4005 -1.2433 -2.2103
  661MOL0     H91191   6.625   3.559   3.801  0.5305 -0.8752 -0.1175
  661MOL0     H91192   6.783   3.759   3.979  3.0817  2.9715 -0.8108
  661MOL0     H91193   6.739   3.804   3.815 -0.3698 -0.6979 -0.7498
  661MOL0     H91194   6.869   3.550   3.793 -3.0966 -0.9590  2.6601
  661MOL0     H91195   6.954   3.626   3.921  1.1979 -3.4796 -0.4425
  661MOL0     H91196   7.019   3.821   3.781  0.6739 -2.5034  3.4460
  661MOL0     H91197   6.917   3.755   3.652 -0.1791 -0.6410 -0.9556
  661MOL0     H91198   6.002   3.690   3.631  1.1359  0.7382  1.3848
  661MOL0     H91199   5.766   3.666   3.555 -0.2363 -1.6205 -0.4527
  661MOL0     H91200   5.479   3.120   3.531  2.9465  3.1519  5.3794
  661MOL0     H91201   5.260   3.072   3.439  4.5762 -1.0871  0.4696
  661MOL0     H91202   3.498   3.108   3.229  0.9691 -0.3970 -0.3190
  661MOL0     H91203   3.270   2.985   3.303 -0.1175  0.0716 -1.4128
  661MOL0     H91204   3.029   2.642   3.232  2.3903 -0.7025  1.6860
  661MOL0     H91205   2.824   2.498   3.248  2.2907 -0.9695 -1.7258
  661MOL0     H91206   2.597   2.423   3.272 -0.9838 -2.9946 -1.7345
  661MOL0     H91207   2.700   2.299   3.333 -0.3318 -0.8062  1.7595
  661MOL0     H91208   2.459   2.217   3.369  0.4648  0.5452 -0.3728
  661MOL0     H91209   2.413   2.375   3.427  0.2323  0.6153  1.5445
  661MOL0     H91210   2.525   2.349   3.626  2.4312  0.3173  0.3015
  661MOL0     H91211   2.408   2.224   3.600 -0.8535  2.9387  1.3605
  661MOL0     H91212   2.633   2.157   3.713  1.4738  2.3491 -0.3010
  661MOL0     H91213   2.715   2.209   3.593 -0.3205  1.3487  0.6117
  661MOL0     H91214   2.647   1.826   3.446  2.5287  0.0847 -0.1472
  661MOL0     H91215   2.813   2.548   3.664 -4.0637 -0.3017 -0.5149
  661MOL0     H91216   3.026   2.776   3.737  1.1488  0.4209 -2.7555
  661MOL0     H91217   3.024   2.601   3.787 -0.5621 -2.1250 -1.3999
  661MOL0     H91218   3.163   2.663   3.711  0.0905 -2.8526 -0.8174
  662MOL0     O91219   4.198  11.120   2.119 -0.2437  0.4606 -0.4951
  662MOL0     C91220   4.175  11.002   2.122 -0.5930 -0.1531  0.3154
  662MOL0     O91221   4.274  10.901   2.140  0.8398  0.1867  0.0690
  662MOL0     C91222   4.402  10.932   2.174  0.3452 -0.5114  0.2909
  662MOL0     C91223   4.502  10.852   2.113  0.7134 -0.4545 -0.5821
  662MOL0     C91224   4.629  10.854   2.159  0.2768 -0.7939 -0.6147
  662MOL0     C91225   4.671  10.943   2.256 -0.1768 -0.8570  0.2334
  662MOL0     O91226   4.803  10.947   2.303 -0.1230 -0.2360  0.1703
  662MOL0     C91227   4.852  11.048   2.392  0.3187 -0.3175  0.5334
  662MOL0     C91228   5.004  11.021   2.399  0.6312 -0.1793  0.2508
  662MOL0     C91229   5.076  11.088   2.517  0.8172 -0.6710 -0.0286
  662MOL0     C91230   5.227  11.072   2.509 -0.5486  0.0061  1.2726
  662MOL0     C91231   5.288  11.130   2.632 -0.3430 -0.2187  0.6220
  662MOL0     C91232   5.281  11.281   2.638 -0.3334 -0.5133 -0.6946
  662MOL0     C91233   5.401  11.336   2.722 -0.0331 -0.6066 -1.0930
  662MOL0     C91234   5.396  11.301   2.877  0.4085 -0.2958  0.4934
  662MOL0     N91235   5.509  11.349   2.947  0.5185  0.3549  0.1636
  662MOL0     C91236   5.589  11.271   3.031 -0.0223  0.0748 -0.5394
  662MOL0     C91237   5.653  11.354   3.114 -0.8554 -1.3377  0.0305
  662MOL0     C91238   5.728  11.309   3.232 -0.1707 -0.6285  0.1226
  662MOL0     C91239   5.649  11.336   3.362 -1.0200  0.1412 -0.1477
  662MOL0     C91240   5.525  11.258   3.390  0.6475 -0.5361 -0.1414
  662MOL0     C91241   5.545  11.108   3.411 -0.2926 -0.9197  0.5958
  662MOL0     O91242   5.578  11.053   3.281 -0.2172  0.2353 -0.1081
  662MOL0     C91243   5.638  10.931   3.286  0.1908 -0.5299  0.0921
  662MOL0     C91244   5.572  10.831   3.356  0.1348 -0.2061  0.3310
  662MOL0     C91245   5.634  10.705   3.369 -0.2720 -0.6814  0.2151
  662MOL0     C91246   5.564  10.612   3.467  0.2266 -0.0036 -0.0332
  662MOL0     C91247   5.759  10.667   3.310  0.3801  0.0494  0.2654
  662MOL0     C91248   5.837  10.541   3.341  0.2808  0.2347 -0.6760
  662MOL0     O91249   5.945  10.531   3.265  0.6424  0.2881  0.2844
  662MOL0     C91250   6.015  10.418   3.257 -0.1657 -0.1501  0.5531
  662MOL0     C91251   6.145  10.443   3.211 -0.0326  0.5783  0.2362
  662MOL0     C91252   6.239  10.338   3.202 -0.2902  1.0342  0.0932
  662MOL0     C91253   6.199  10.207   3.222  0.5298  0.9834 -0.1647
  662MOL0     O91254   6.294  10.104   3.197  0.1137  0.5588 -0.0452
  662MOL0     C91255   6.243   9.968   3.183  1.3336 -0.0577 -0.3377
  662MOL0     C91256   6.343   9.872   3.125  0.2254 -0.6770  0.0785
  662MOL0     C91257   6.312   9.746   3.059 -0.4367  0.7250  0.0006
  662MOL0     C91258   6.167   9.700   3.079  0.5247  0.3667  0.5846
  662MOL0     C91259   6.127   9.572   3.012  0.1542  0.7522 -1.3956
  662MOL0     C91260   5.989   9.520   3.061 -0.1440  0.1936 -0.0291
  662MOL0     C91261   5.939   9.428   2.960  0.0619  0.0366  0.2223
  662MOL0     C91262   5.806   9.366   2.992  0.3679 -0.4284 -0.0514
  662MOL0    Cl91263   5.785   9.229   2.884 -0.0161 -0.2752 -0.5765
  662MOL0     C91264   6.069  10.177   3.265 -0.5960  0.2301 -0.2561
  662MOL0     C91265   5.975  10.281   3.279  0.4290 -0.2064 -0.4120
  662MOL0     O91266   5.808  10.466   3.436  0.0100  0.4954  0.1569
  662MOL0     C91267   5.820  10.778   3.228 -0.3912 -0.0007  0.3938
  662MOL0     C91268   5.755  10.901   3.218  0.1628 -0.2385  0.0775
  662MOL0     N91269   5.609  11.481   3.080  0.6863 -0.6706  0.1502
  662MOL0     N91270   5.515  11.476   2.991 -0.2856 -0.5792  0.7155
  662MOL0     C91271   4.570  11.029   2.318 -0.1742 -0.0249 -0.3392
  662MOL0     C91272   4.437  11.018   2.275 -0.4947 -0.7889  0.3691
  662MOL0     C91273   4.041  10.959   2.073  0.5599 -0.9056  0.1164
  662MOL0     C91274   4.023  10.822   2.067 -0.4115  1.4467 -0.3980
  662MOL0     C91275   3.909  10.766   2.011 -0.4935  0.1683 -0.5159
  662MOL0     C91276   3.811  10.845   1.956  0.6281  0.1954  0.8489
  662MOL0     O91277   3.697  10.795   1.888 -0.4272  0.3198  0.0308
  662MOL0     C91278   3.699  10.655   1.854  0.1661 -0.3894 -0.3137
  662MOL0     C91279   3.580  10.613   1.767  0.3834 -0.7168 -0.3634
  662MOL0     C91280   3.442  10.648   1.835  0.2572  0.7725  0.5826
  662MOL0     C91281   3.331  10.599   1.752  1.2463  0.0588  0.2403
  662MOL0     C91282   3.332  10.663   1.616 -0.6268  0.2367 -0.3371
  662MOL0     C91283   3.340  10.717   1.514 -0.0418  0.3389  0.0375
  662MOL0     C91284   3.824  10.990   1.964  0.2729  0.3942 -0.2174
  662MOL0     C91285   3.936  11.048   2.024  0.7916  0.3999 -0.1055
  662MOL0     C91286   3.942  11.198   2.035 -0.4751  0.0505  0.2314
  662MOL0     H91287   4.489  10.800   2.018  1.8012 -2.5295  0.3326
  662MOL0     H91288   4.707  10.789   2.121 -0.3062 -2.0370  0.2425
  662MOL0     H91289   4.799  11.025   2.484 -4.7709  0.8108 -1.7578
  662MOL0     H91290   4.836  11.147   2.348 -0.3048 -0.4360  0.4825
  662MOL0     H91291   5.019  10.915   2.421 -1.6395 -0.7689 -0.7299
  662MOL0     H91292   5.056  11.051   2.307 -1.7194 -1.4898 -1.6138
  662MOL0     H91293   5.048  11.194   2.507 -0.1075 -0.7428  1.5264
  662MOL0     H91294   5.030  11.048   2.608  2.7355 -1.2468  0.7279
  662MOL0     H91295   5.250  10.965   2.511 -2.1061 -0.4870 -1.4114
  662MOL0     H91296   5.279  11.114   2.422  0.6984 -2.7324  0.5930
  662MOL0     H91297   5.393  11.100   2.627 -0.0784  0.7712 -2.9750
  662MOL0     H91298   5.239  11.095   2.723  0.0043 -0.5913  0.6657
  662MOL0     H91299   5.296  11.321   2.538  1.8673 -0.0417 -0.2298
  662MOL0     H91300   5.185  11.321   2.673  0.7343  1.5886  0.0053
  662MOL0     H91301   5.407  11.444   2.705 -2.4316 -0.4119 -1.0664
  662MOL0     H91302   5.498  11.294   2.693  0.6032  0.4322 -0.5287
  662MOL0     H91303   5.307  11.357   2.906  1.3498  2.3210 -1.3354
  662MOL0     H91304   5.374  11.195   2.896  0.8302 -0.6100 -0.6835
  662MOL0     H91305   5.577  11.163   3.031 -2.1473  0.1890 -3.2193
  662MOL0     H91306   5.820  11.368   3.237 -1.0252  0.8577 -0.8042
  662MOL0     H91307   5.754  11.203   3.228 -2.0781 -1.1117 -1.0564
  662MOL0     H91308   5.718  11.317   3.444  0.7675  4.4565 -0.3846
  662MOL0     H91309   5.629  11.444   3.358 -1.1374  0.1001 -0.7260
  662MOL0     H91310   5.470  11.302   3.474  2.9566 -1.2335  1.8568
  662MOL0     H91311   5.449  11.275   3.314 -0.6045 -2.0040  0.7215
  662MOL0     H91312   5.627  11.103   3.482  2.2426  4.2126 -1.4402
  662MOL0     H91313   5.457  11.057   3.451 -0.9109 -1.1713 -0.9914
  662MOL0     H91314   5.477  10.859   3.400  1.3479  4.5628  0.4093
  662MOL0     H91315   5.483  10.664   3.518 -2.1071 -0.8472 -2.6779
  662MOL0     H91316   5.635  10.567   3.538  2.2930 -0.7076 -2.3926
  662MOL0     H91317   5.526  10.527   3.409  0.9681  0.8935 -1.9200
  662MOL0     H91318   6.161  10.548   3.185  0.1102  0.7767  1.1087
  662MOL0     H91319   6.341  10.369   3.179 -0.2629  0.5613 -0.4492
  662MOL0     H91320   6.213   9.918   3.275 -2.1371 -0.5437 -1.5941
  662MOL0     H91321   6.156   9.966   3.117  1.2648 -1.0965 -0.2248
  662MOL0     H91322   6.387   9.938   3.050 -0.8969 -1.9790 -1.8207
  662MOL0     H91323   6.409   9.847   3.208 -0.5326 -1.6493  0.4013
  662MOL0     H91324   6.383   9.669   3.093  1.9928  1.5194 -2.8643
  662MOL0     H91325   6.331   9.760   2.952  1.4386 -0.4274  0.1256
  662MOL0     H91326   6.109   9.775   3.023  0.7916 -1.3667 -2.2157
  662MOL0     H91327   6.142   9.692   3.185  3.1354 -3.2798  1.0984
  662MOL0     H91328   6.129   9.584   2.903 -0.9511  2.0516 -1.2902
  662MOL0     H91329   6.205   9.508   3.055 -1.4733 -0.7023 -0.5098
  662MOL0     H91330   5.909   9.595   3.060 -0.0350  0.3316 -1.7916
  662MOL0     H91331   5.985   9.476   3.160 -0.3357  0.8547  0.2673
  662MOL0     H91332   6.016   9.352   2.945  1.4505  1.5672 -0.7670
  662MOL0     H91333   5.921   9.481   2.866  0.1925 -0.6238 -0.1825
  662MOL0     H91334   5.724   9.437   3.004  1.0641  0.3601  0.2015
  662MOL0     H91335   5.813   9.311   3.086 -0.4347  1.5367  1.2194
  662MOL0     H91336   6.036  10.077   3.291 -1.8343  1.0490  1.5245
  662MOL0     H91337   5.878  10.246   3.311  0.5589 -1.0097 -0.8575
  662MOL0     H91338   5.915  10.769   3.177 -0.5748  1.4304 -0.2480
  662MOL0     H91339   5.796  10.976   3.152 -2.0799 -0.2892 -1.4631
  662MOL0     H91340   4.611  11.090   2.398  2.1652  1.4791 -2.5237
  662MOL0     H91341   4.362  11.063   2.340 -1.2360  0.1095 -1.0582
  662MOL0     H91342   4.083  10.749   2.119 -2.0956 -0.1492 -0.5841
  662MOL0     H91343   3.900  10.658   2.020  2.2338  0.0337  1.7417
  662MOL0     H91344   3.797  10.634   1.811  1.0894 -0.5298  1.7530
  662MOL0     H91345   3.695  10.605   1.951 -0.7100  1.0361  0.4167
  662MOL0     H91346   3.583  10.504   1.756  0.0492 -0.5854 -1.8894
  662MOL0     H91347   3.602  10.655   1.668  2.3170 -5.1742 -2.0826
  662MOL0     H91348   3.432  10.603   1.935 -1.5578  1.4932  0.7759
  662MOL0     H91349   3.423  10.755   1.848 -1.5718  0.3771  1.5178
  662MOL0     H91350   3.233  10.621   1.796 -0.5884 -1.8662 -2.5218
  662MOL0     H91351   3.321  10.491   1.736 -0.2152 -0.0994  1.8837
  662MOL0     H91352   3.350  10.770   1.421  0.6395  0.4093  0.1458
  662MOL0     H91353   3.739  11.048   1.930 -1.5845 -0.3198  2.8550
  662MOL0     H91354   3.953  11.228   2.140 -1.2103  2.0696 -0.2301
  662MOL0     H91355   4.020  11.234   1.968  0.2947 -0.3875  0.8793
  662MOL0     H91356   3.847  11.246   2.006 -1.1314  0.4834  2.7914
  663MOL0     O91357   6.959   8.927  11.094  0.1960  0.2755  0.5496
  663MOL0     C91358   7.055   8.930  11.167 -0.6764  0.3101  0.0234
  663MOL0     O91359   7.151   9.029  11.172  0.7128 -0.2371 -0.2146
  663MOL0     C91360   7.169   9.115  11.058 -0.1723  0.6845  0.0384
  663MOL0     C91361   7.199   9.250  11.086 -0.1144  0.3538 -0.6185
  663MOL0     C91362   7.229   9.343  10.990 -0.4567 -0.2037 -0.0530
  663MOL0     C91363   7.239   9.307  10.852 -0.0937 -0.1188 -0.4616
  663MOL0     O91364   7.270   9.404  10.765 -0.2932 -0.1357 -0.4451
  663MOL0     C91365   7.222   9.406  10.636 -0.2168 -0.9977 -0.3663
  663MOL0     C91366   7.257   9.540  10.583 -0.6085 -0.4116  0.2358
  663MOL0     C91367   7.230   9.547  10.433  0.7602 -0.3541  0.4548
  663MOL0     C91368   7.290   9.661  10.355  0.7486  0.1570  0.7558
  663MOL0     C91369   7.272   9.648  10.203  0.0487 -0.4150  0.0006
  663MOL0     C91370   7.354   9.762  10.120 -0.4665  0.1284 -0.6915
  663MOL0     C91371   7.297   9.904  10.138 -0.1464 -0.0711  0.2056
  663MOL0     C91372   7.393  10.019  10.092 -0.7756 -0.2493  0.5526
  663MOL0     N91373   7.327  10.147  10.074 -0.2008 -0.2375 -0.4560
  663MOL0     C91374   7.270  10.214  10.185 -0.9168 -0.9106 -0.1870
  663MOL0     C91375   7.181  10.302  10.132  0.3114 -0.9139 -0.6106
  663MOL0     C91376   7.090  10.376  10.220  0.5701  0.2866  0.2416
  663MOL0     C91377   7.167  10.491  10.281  0.3518  0.6486 -0.3065
  663MOL0     C91378   7.200  10.605  10.174  0.3505  0.5344 -0.3592
  663MOL0     C91379   7.273  10.726  10.238 -0.2376  0.1756 -1.6806
  663MOL0     O91380   7.393  10.675  10.309 -0.0603  0.0062  0.3808
  663MOL0     C91381   7.424  10.752  10.425  0.5762 -0.1275 -0.1455
  663MOL0     C91382   7.518  10.854  10.423  0.8790 -0.0740  0.4422
  663MOL0     C91383   7.540  10.935  10.534  0.1084 -0.3232 -0.0770
  663MOL0     C91384   7.639  11.039  10.503 -0.2372  0.3743  0.1351
  663MOL0     C91385   7.480  10.909  10.659  0.2341  1.0568 -0.2502
  663MOL0     C91386   7.491  10.991  10.782 -0.3238 -0.1503  0.1875
  663MOL0     O91387   7.465  10.934  10.901  0.2956  0.1908 -0.1462
  663MOL0     C91388   7.466  11.019  11.015 -0.2867 -0.5390 -0.3733
  663MOL0     C91389   7.524  11.140  11.042 -0.4765 -0.6531 -0.7486
  663MOL0     C91390   7.521  11.197  11.166  0.8956 -0.1746 -0.5012
  663MOL0     C91391   7.466  11.144  11.280  0.3344  0.3079 -0.1975
  663MOL0     O91392   7.482  11.218  11.402 -0.2389 -0.0986  0.4277
  663MOL0     C91393   7.430  11.145  11.516  1.4411  0.3576 -0.6194
  663MOL0     C91394   7.496  11.209  11.633 -0.4784 -0.0968  0.0208
  663MOL0     C91395   7.653  11.187  11.631 -0.3647 -0.6156  0.0082
  663MOL0     C91396   7.702  11.048  11.656 -0.5461  0.1537  0.1392
  663MOL0     C91397   7.852  11.029  11.621  0.1307  0.3531  0.2047
  663MOL0     C91398   7.887  10.881  11.625  0.6816 -0.0116  0.2728
  663MOL0     C91399   8.029  10.856  11.569 -0.0254  0.3789 -0.3824
  663MOL0     C91400   8.080  10.723  11.622  0.4218 -1.1420  0.5334
  663MOL0    Cl91401   7.994  10.586  11.551 -0.3622  0.0457 -0.3164
  663MOL0     C91402   7.393  11.021  11.255  0.2502  0.1119 -0.9482
  663MOL0     C91403   7.384  10.967  11.121 -0.0150 -0.5513  0.3688
  663MOL0     O91404   7.505  11.113  10.765 -0.5659  0.2899 -0.3958
  663MOL0     C91405   7.384  10.794  10.661 -1.4414  0.5017 -0.3260
  663MOL0     C91406   7.360  10.720  10.543  0.1720 -0.0018 -0.0219
  663MOL0     N91407   7.189  10.290   9.993  0.3453 -0.3784  0.2594
  663MOL0     N91408   7.273  10.196   9.959  0.5531 -0.3892 -0.3689
  663MOL0     C91409   7.212   9.171  10.824 -0.9557  0.2980 -0.0837
  663MOL0     C91410   7.189   9.075  10.928  0.1779 -0.3373  0.1883
  663MOL0     C91411   7.053   8.819  11.268  0.5366  0.3647 -1.2339
  663MOL0     C91412   6.946   8.724  11.264 -0.3079 -0.4131 -0.0037
  663MOL0     C91413   6.938   8.616  11.347  1.6559 -0.0141  0.9349
  663MOL0     C91414   7.041   8.585  11.436 -0.2218 -0.8049 -0.5676
  663MOL0     O91415   7.051   8.480  11.529 -0.0842 -0.2244 -0.4283
  663MOL0     C91416   6.948   8.381  11.538 -0.4561 -1.0441 -1.1051
  663MOL0     C91417   6.965   8.290  11.666  0.5165  0.2387  0.0882
  663MOL0     C91418   7.101   8.215  11.673 -0.6787  0.1870  0.2769
  663MOL0     C91419   7.146   8.165  11.808  0.5637  0.1570  0.5567
  663MOL0     C91420   7.292   8.137  11.800  0.1730 -0.7009  0.1863
  663MOL0     C91421   7.410   8.107  11.786 -0.4978  0.0159  0.1827
  663MOL0     C91422   7.149   8.671  11.433 -0.4471  0.0785 -0.0791
  663MOL0     C91423   7.162   8.790  11.362 -0.3300  0.1896 -0.4919
  663MOL0     C91424   7.290   8.870  11.369 -0.7160 -0.3694  0.5611
  663MOL0     H91425   7.192   9.277  11.191 -0.7391 -0.8864 -0.3151
  663MOL0     H91426   7.262   9.442  11.018  2.6985 -0.9819 -0.6024
  663MOL0     H91427   7.113   9.395  10.645 -0.2339  0.0484  1.0751
  663MOL0     H91428   7.261   9.324  10.575 -0.3793 -1.4658  0.1517
  663MOL0     H91429   7.216   9.625  10.638  2.5384  0.4840  1.3899
  663MOL0     H91430   7.365   9.555  10.588 -0.9517  2.3820  1.0063
  663MOL0     H91431   7.276   9.463  10.381 -0.6043  0.1216 -1.6138
  663MOL0     H91432   7.121   9.553  10.420  1.0361 -0.8691 -3.0078
  663MOL0     H91433   7.253   9.759  10.388 -0.4900  1.4209 -3.6501
  663MOL0     H91434   7.394   9.675  10.386  1.2691  3.6841 -1.9063
  663MOL0     H91435   7.166   9.659  10.175 -0.0096  1.6513  0.8484
  663MOL0     H91436   7.287   9.545  10.171 -2.2430 -1.4598  1.9545
  663MOL0     H91437   7.461   9.760  10.141 -0.8317 -1.5267  1.3315
  663MOL0     H91438   7.340   9.749  10.013 -1.0997 -1.0988 -0.4745
  663MOL0     H91439   7.266   9.921  10.242 -3.0268 -1.4464 -0.3184
  663MOL0     H91440   7.206   9.926  10.081 -0.1277  1.3245  0.6711
  663MOL0     H91441   7.478  10.030  10.160  1.5512  3.3356 -2.5022
  663MOL0     H91442   7.433   9.990   9.994 -2.2743 -1.4548  0.2554
  663MOL0     H91443   7.297  10.192  10.288 -1.1018  0.0375  0.0679
  663MOL0     H91444   7.041  10.314  10.295  0.3460  4.5064  4.0120
  663MOL0     H91445   7.004  10.417  10.167  0.3370 -0.7391 -0.1984
  663MOL0     H91446   7.106  10.539  10.359  1.4808  1.7501 -0.0612
  663MOL0     H91447   7.262  10.462  10.328  3.0737  1.6234 -4.6519
  663MOL0     H91448   7.267  10.563  10.099  3.1379  1.6887  1.3491
  663MOL0     H91449   7.106  10.641  10.129  0.0085  0.9771  0.6802
  663MOL0     H91450   7.275  10.804  10.161 -1.4955 -0.3708 -2.3028
  663MOL0     H91451   7.201  10.774  10.305 -0.9208  0.9127 -2.8950
  663MOL0     H91452   7.579  10.863  10.334  0.0515 -0.1147 -0.1444
  663MOL0     H91453   7.713  11.008  10.427 -2.4709  0.1216 -2.0585
  663MOL0     H91454   7.686  11.071  10.597 -0.1606 -2.1174  1.0319
  663MOL0     H91455   7.586  11.126  10.464  1.6333  1.5338  0.0586
  663MOL0     H91456   7.595  11.192  10.980 -0.3196  2.4105  1.7334
  663MOL0     H91457   7.598  11.272  11.182 -0.7039  1.8613 -1.7553
  663MOL0     H91458   7.326  11.177  11.525  2.1424  2.4449  0.9479
  663MOL0     H91459   7.439  11.037  11.509 -0.1307  0.2132 -0.7205
  663MOL0     H91460   7.484  11.318  11.632  1.2349  0.1132 -0.9292
  663MOL0     H91461   7.467  11.157  11.725 -0.6762  0.4683  0.2809
  663MOL0     H91462   7.690  11.253  11.710 -1.0419 -0.3246  0.0968
  663MOL0     H91463   7.686  11.227  11.534 -2.0262 -1.4789 -0.9597
  663MOL0     H91464   7.648  10.984  11.586  0.7255  1.1717 -1.8380
  663MOL0     H91465   7.681  11.019  11.760  1.8315 -3.6908 -0.2811
  663MOL0     H91466   7.874  11.068  11.521  4.1243 -3.1393 -0.5819
  663MOL0     H91467   7.909  11.087  11.693  0.5835 -1.3758  1.2990
  663MOL0     H91468   7.809  10.821  11.577 -1.7048  1.5252  1.9533
  663MOL0     H91469   7.879  10.839  11.726 -0.1678  0.0761  0.2556
  663MOL0     H91470   8.100  10.932  11.602 -0.1197 -0.4496  1.9912
  663MOL0     H91471   8.016  10.866  11.461 -1.9129  0.5915 -0.1755
  663MOL0     H91472   8.088  10.725  11.731 -0.6263  0.7572  0.6297
  663MOL0     H91473   8.182  10.718  11.582  1.6377 -1.9967  3.5072
  663MOL0     H91474   7.331  10.979  11.334 -1.4904  4.1394  0.0765
  663MOL0     H91475   7.323  10.879  11.108  4.2682 -3.9726  0.9263
  663MOL0     H91476   7.333  10.765  10.752  1.3357 -1.7172  0.6993
  663MOL0     H91477   7.306  10.626  10.552  1.2794 -0.9884 -2.7679
  663MOL0     H91478   7.217   9.140  10.721 -0.8800 -0.1145  0.0395
  663MOL0     H91479   7.190   8.972  10.895 -2.7521 -0.7187  1.0160
  663MOL0     H91480   6.862   8.734  11.196 -0.4022  0.6200  0.2492
  663MOL0     H91481   6.856   8.546  11.335 -1.0054  3.0766 -0.2880
  663MOL0     H91482   6.846   8.420  11.541  0.5798  1.9393 -1.3717
  663MOL0     H91483   6.962   8.305  11.460  0.7976 -2.0037  0.0047
  663MOL0     H91484   6.890   8.210  11.661  1.6166 -0.8118 -0.0194
  663MOL0     H91485   6.949   8.345  11.760 -0.6139 -0.7774  0.5299
  663MOL0     H91486   7.100   8.136  11.598  0.0830  1.0765 -0.7133
  663MOL0     H91487   7.170   8.294  11.639 -0.1151 -0.8677 -1.1213
  663MOL0     H91488   7.093   8.075  11.840 -0.1944 -0.3492 -1.8580
  663MOL0     H91489   7.137   8.247  11.879 -0.8844  0.5391 -0.0411
  663MOL0     H91490   7.514   8.083  11.780 -0.3511  0.5134  0.6478
  663MOL0     H91491   7.232   8.642  11.497 -1.5367 -0.7262  1.0229
  663MOL0     H91492   7.267   8.963  11.423 -1.2111 -0.6284  0.7996
  663MOL0     H91493   7.375   8.824  11.422  2.1250  2.4286 -1.2116
  663MOL0     H91494   7.323   8.894  11.268 -1.0026  2.6435  1.0747
  664MOL0     O91495  11.122   2.809   9.605  0.2301 -0.3808 -0.7954
  664MOL0     C91496  11.065   2.750   9.518  0.5069 -0.4567  0.1504
  664MOL0     O91497  11.126   2.678   9.424 -0.6836  0.3624 -0.7277
  664MOL0     C91498  11.248   2.719   9.365 -0.4022 -0.3144 -0.6739
  664MOL0     C91499  11.287   2.857   9.360 -0.9364 -0.7322  0.9081
  664MOL0     C91500  11.410   2.894   9.311  0.4400  0.4843  0.1174
  664MOL0     C91501  11.498   2.792   9.259  0.5019 -0.3574 -0.6090
  664MOL0     O91502  11.619   2.807   9.196  0.4905  0.6232 -0.2501
  664MOL0     C91503  11.691   2.932   9.196 -0.3736 -0.6773  0.1610
  664MOL0     C91504  11.834   2.904   9.139 -0.0443  0.1113  0.0765
  664MOL0     C91505  11.833   2.906   8.985 -0.0801  0.4397  0.7920
  664MOL0     C91506  11.834   3.045   8.930 -1.0201 -1.1740 -0.1666
  664MOL0     C91507  11.833   3.035   8.774  0.7277  0.2569 -0.7528
  664MOL0     C91508  11.861   3.164   8.693 -0.0668  0.7315  0.3680
  664MOL0     C91509  12.003   3.224   8.722  0.0570 -0.4141  1.1417
  664MOL0     C91510  12.124   3.143   8.682 -0.0328  0.3939 -0.0545
  664MOL0     N91511  12.244   3.226   8.716  0.5401 -0.4307 -0.1752
  664MOL0     C91512  12.301   3.250   8.845  1.0737  0.2775  1.3864
  664MOL0     C91513  12.384   3.349   8.829 -0.2980 -0.0734  0.5300
  664MOL0     C91514  12.433   3.424   8.948 -0.5889 -0.8068 -0.1860
  664MOL0     C91515  12.496   3.562   8.906  0.3589 -0.4138 -1.1708
  664MOL0     C91516  12.595   3.599   9.015 -0.4085  0.2691 -0.8124
  664MOL0     C91517  12.647   3.743   8.998  0.6958  0.0818 -0.8149
  664MOL0     O91518  12.741   3.776   9.106  0.6584  0.2139  0.1033
  664MOL0     C91519  12.857   3.835   9.076 -0.5498  0.6734  0.2164
  664MOL0     C91520  12.955   3.813   9.157  0.0417 -0.8227 -0.9266
  664MOL0     C91521  13.092   3.852   9.138  0.3401 -0.3017 -0.6366
  664MOL0     C91522  13.202   3.806   9.232 -0.8201  0.4875  0.9110
  664MOL0     C91523  13.118   3.950   9.033  0.7825 -0.6363 -1.6497
  664MOL0     C91524  13.246   4.017   9.010  0.2640 -0.4146 -0.1332
  664MOL0     O91525  13.245   4.116   8.916 -0.0257 -0.4080  0.1450
  664MOL0     C91526  13.361   4.155   8.852 -0.9462 -0.2027 -0.7783
  664MOL0     C91527  13.451   4.073   8.781 -0.0371 -0.5889 -0.8246
  664MOL0     C91528  13.561   4.127   8.708  0.4624  0.9022 -0.0699
  664MOL0     C91529  13.594   4.263   8.720 -0.2423 -0.1248  0.0586
  664MOL0     O91530  13.712   4.294   8.667 -1.4259 -0.8775  0.1602
  664MOL0     C91531  13.751   4.437   8.660  0.4293  0.5152  0.5078
  664MOL0     C91532  13.859   4.458   8.554  0.2414 -0.4224  0.1116
  664MOL0     C91533  14.003   4.429   8.614  0.2538 -0.5079 -0.1481
  664MOL0     C91534  14.116   4.454   8.515  0.7393 -0.2495  0.5365
  664MOL0     C91535  14.253   4.409   8.575 -0.0459 -0.1720 -0.3192
  664MOL0     C91536  14.284   4.484   8.707 -0.8804  0.0683 -0.6288
  664MOL0     C91537  14.422   4.430   8.760 -0.7094  0.5194  0.5586
  664MOL0     C91538  14.431   4.443   8.914 -0.3088 -0.7602 -0.1226
  664MOL0    Cl91539  14.314   4.332   8.985  0.0565 -0.2148  0.2629
  664MOL0     C91540  13.512   4.350   8.788  0.4199  0.2294 -0.2306
  664MOL0     C91541  13.396   4.298   8.851  0.4430 -0.1291 -0.2094
  664MOL0     O91542  13.347   3.985   9.066 -1.2271  0.4793  0.5050
  664MOL0     C91543  13.012   3.976   8.944  0.1702  0.0320  0.0313
  664MOL0     C91544  12.883   3.919   8.965 -1.0524  0.0189  0.5468
  664MOL0     N91545  12.392   3.387   8.691  0.3707 -0.5875  0.1919
  664MOL0     N91546  12.314   3.309   8.631  0.8906  0.9802  0.3692
  664MOL0     C91547  11.452   2.660   9.273 -0.5381 -0.7470  0.4523
  664MOL0     C91548  11.330   2.624   9.316  0.5484  0.7867  0.3277
  664MOL0     C91549  10.916   2.751   9.529 -0.3031  0.3103 -0.1701
  664MOL0     C91550  10.855   2.869   9.574  1.0540  0.5281 -1.0365
  664MOL0     C91551  10.716   2.872   9.594  0.0532 -1.1913  0.3145
  664MOL0     C91552  10.635   2.763   9.552 -0.0270 -0.6519  0.1710
  664MOL0     O91553  10.499   2.769   9.549  0.2374  0.0884 -0.2493
  664MOL0     C91554  10.429   2.889   9.513  0.5018  0.3585 -0.9782
  664MOL0     C91555  10.461   2.953   9.376  0.3714  1.0704  0.2039
  664MOL0     C91556  10.500   2.849   9.264  0.1680 -0.6763 -0.0634
  664MOL0     C91557  10.546   2.932   9.139 -0.5618  0.1577 -0.7517
  664MOL0     C91558  10.682   2.973   9.162 -0.9737  0.3555  0.4560
  664MOL0     C91559  10.805   2.991   9.181 -0.2986 -0.6137  0.5479
  664MOL0     C91560  10.698   2.650   9.505  1.4132 -0.5741 -0.4729
  664MOL0     C91561  10.836   2.644   9.493 -0.6983  0.2635 -0.5597
  664MOL0     C91562  10.896   2.508   9.465  0.3614  0.3807  0.1259
  664MOL0     H91563  11.222   2.934   9.400 -0.5879 -0.0558  0.1903
  664MOL0     H91564  11.421   3.001   9.299 -3.5779  0.8283 -2.2828
  664MOL0     H91565  11.703   2.959   9.301  2.5052 -1.8855  0.2253
  664MOL0     H91566  11.643   3.008   9.135 -0.4566 -1.0603 -0.2598
  664MOL0     H91567  11.911   2.977   9.167  2.0392 -1.3959 -1.4274
  664MOL0     H91568  11.861   2.808   9.184  0.4232  0.5589  0.7742
  664MOL0     H91569  11.925   2.855   8.955  0.3793  1.7288 -0.0959
  664MOL0     H91570  11.740   2.859   8.952  0.9884 -0.8187 -0.5750
  664MOL0     H91571  11.752   3.105   8.969  0.7336 -0.6601  3.0040
  664MOL0     H91572  11.924   3.101   8.956 -2.7181  0.7695  1.9013
  664MOL0     H91573  11.733   3.007   8.742  0.4843  2.0165 -1.6710
  664MOL0     H91574  11.903   2.953   8.753  0.2564 -0.9294  1.9211
  664MOL0     H91575  11.852   3.150   8.585 -0.4990 -0.4407  0.5354
  664MOL0     H91576  11.786   3.239   8.719 -0.5490 -0.1934  1.8129
  664MOL0     H91577  12.011   3.259   8.825  1.6282  0.3968  0.7857
  664MOL0     H91578  12.001   3.317   8.665  1.4915 -1.3112 -0.4559
  664MOL0     H91579  12.122   3.046   8.732  0.4643  1.0063  1.1852
  664MOL0     H91580  12.121   3.119   8.575 -0.0036  0.9766 -0.1902
  664MOL0     H91581  12.267   3.209   8.939 -2.0589 -1.5163 -0.3908
  664MOL0     H91582  12.510   3.373   9.007 -0.5995  0.5757  1.0706
  664MOL0     H91583  12.352   3.439   9.020  0.1185  1.3136  0.2308
  664MOL0     H91584  12.545   3.570   8.809  1.2221  2.1130 -0.6057
  664MOL0     H91585  12.419   3.638   8.926 -0.1260 -1.3098  0.6327
  664MOL0     H91586  12.556   3.591   9.117  0.3682 -2.8899 -0.6555
  664MOL0     H91587  12.679   3.530   9.027 -0.9750 -0.1925  0.7705
  664MOL0     H91588  12.683   3.749   8.895  1.1074 -2.5064 -0.8887
  664MOL0     H91589  12.555   3.802   8.996  1.8988  1.9945 -1.2157
  664MOL0     H91590  12.936   3.757   9.248  0.5929  2.2708  1.2634
  664MOL0     H91591  13.278   3.755   9.172 -3.3441 -2.4754 -0.0329
  664MOL0     H91592  13.172   3.731   9.307  1.5129 -1.3294  0.1676
  664MOL0     H91593  13.232   3.895   9.288  1.6721  0.2400  0.1097
  664MOL0     H91594  13.431   3.967   8.775  0.5701 -0.7077 -0.8359
  664MOL0     H91595  13.623   4.059   8.650 -2.3696 -0.5921 -1.5098
  664MOL0     H91596  13.667   4.503   8.641 -2.5305 -2.4141  2.3518
  664MOL0     H91597  13.785   4.478   8.756 -0.5844 -1.2746  1.6998
  664MOL0     H91598  13.833   4.390   8.472  1.5506 -3.3578  1.9894
  664MOL0     H91599  13.863   4.564   8.527  1.5039 -0.2055  1.0516
  664MOL0     H91600  14.001   4.326   8.648  0.6092 -0.2628  0.6467
  664MOL0     H91601  14.022   4.498   8.697  0.1271  2.5777 -2.4795
  664MOL0     H91602  14.109   4.560   8.492  3.5964 -0.0754  0.1562
  664MOL0     H91603  14.093   4.394   8.427  2.8935 -0.1355 -0.1498
  664MOL0     H91604  14.240   4.302   8.594 -1.2026 -0.2178 -1.2015
  664MOL0     H91605  14.335   4.416   8.504 -0.0138 -1.4543 -0.4281
  664MOL0     H91606  14.204   4.458   8.778 -0.0462 -0.8166  0.0050
  664MOL0     H91607  14.302   4.588   8.677  2.8381 -0.6301 -1.2162
  664MOL0     H91608  14.508   4.488   8.724  0.8176 -1.8494  0.1768
  664MOL0     H91609  14.435   4.324   8.735 -0.9117  0.7413 -0.5600
  664MOL0     H91610  14.419   4.549   8.941 -0.5247 -0.1788 -2.3121
  664MOL0     H91611  14.526   4.401   8.948  0.3768  0.9396  0.1746
  664MOL0     H91612  13.527   4.458   8.786 -2.0365  0.6556  0.8274
  664MOL0     H91613  13.327   4.368   8.898 -0.5699 -0.9994 -0.3790
  664MOL0     H91614  13.022   4.029   8.850 -2.3102 -1.0091 -0.9305
  664MOL0     H91615  12.803   3.939   8.895 -1.2083 -1.6206  0.2144
  664MOL0     H91616  11.510   2.579   9.230 -0.5466 -0.9135  0.7543
  664MOL0     H91617  11.303   2.519   9.313  1.7173  0.4049  1.9872
  664MOL0     H91618  10.921   2.950   9.603 -0.1263  1.4211 -0.7754
  664MOL0     H91619  10.667   2.949   9.653  2.7370 -1.3538  3.0569
  664MOL0     H91620  10.324   2.857   9.514  0.8762 -0.8940 -1.0148
  664MOL0     H91621  10.438   2.971   9.585 -0.4058 -0.7849  0.4763
  664MOL0     H91622  10.545   3.021   9.393  1.1014  0.8276 -2.0616
  664MOL0     H91623  10.375   3.011   9.339 -2.0075 -2.4058 -0.1870
  664MOL0     H91624  10.580   2.780   9.294  2.0481  1.5206  0.2589
  664MOL0     H91625  10.414   2.784   9.245  0.5796 -1.2360 -0.0219
  664MOL0     H91626  10.485   3.020   9.116  2.5594  3.3767  1.9536
  664MOL0     H91627  10.547   2.862   9.055 -0.6674 -0.4512 -0.2488
  664MOL0     H91628  10.909   2.994   9.205 -0.7184  0.3042  2.4657
  664MOL0     H91629  10.634   2.564   9.485 -1.7216  0.6823  3.0226
  664MOL0     H91630  10.976   2.487   9.538  0.1598 -1.1495 -0.0486
  664MOL0     H91631  10.833   2.419   9.467  1.6146 -0.5871  3.5257
  664MOL0     H91632  10.931   2.510   9.361  1.1414  2.3104  0.3840
  665MOL0     O91633   7.314  11.354   4.042 -0.1696 -0.2719  0.2079
  665MOL0     C91634   7.271  11.337   4.157  0.2092  0.1909  0.3646
  665MOL0     O91635   7.339  11.353   4.266  0.0315 -0.2235 -0.4267
  665MOL0     C91636   7.473  11.373   4.263  0.8672 -1.1098 -0.4056
  665MOL0     C91637   7.566  11.297   4.185 -0.0287  0.4727  0.0068
  665MOL0     C91638   7.699  11.331   4.203 -0.2541  0.5632  1.2369
  665MOL0     C91639   7.744  11.423   4.281 -0.6542 -0.3276 -0.7245
  665MOL0     O91640   7.876  11.458   4.295 -1.2509 -0.8107  0.3859
  665MOL0     C91641   7.936  11.486   4.166 -0.4915  0.4180  0.0235
  665MOL0     C91642   8.081  11.539   4.199  0.7068 -0.2909 -0.3119
  665MOL0     C91643   8.190  11.434   4.196 -0.7394  0.4135 -0.5060
  665MOL0     C91644   8.323  11.498   4.246  0.0047 -0.2839  0.3182
  665MOL0     C91645   8.436  11.404   4.240  0.6787 -0.8176  0.5814
  665MOL0     C91646   8.571  11.477   4.242 -0.9045  0.3392  0.0691
  665MOL0     C91647   8.686  11.391   4.189  0.7135  0.9506  0.4883
  665MOL0     C91648   8.688  11.366   4.041  0.0747 -0.9301  0.2582
  665MOL0     N91649   8.810  11.300   4.000 -0.5469 -0.1447  0.1273
  665MOL0     C91650   8.906  11.356   3.920  0.2069  0.4330  0.4133
  665MOL0     C91651   9.000  11.260   3.912 -0.2795  0.5121  0.2829
  665MOL0     C91652   9.133  11.274   3.837 -0.1631  0.0872  0.0165
  665MOL0     C91653   9.196  11.144   3.797  0.3396 -0.2453  0.5162
  665MOL0     C91654   9.338  11.157   3.739 -0.2411  0.3612  0.2808
  665MOL0     C91655   9.368  11.078   3.609 -0.5168 -0.8519  0.2252
  665MOL0     O91656   9.508  11.108   3.575 -0.3781  0.3950 -0.4240
  665MOL0     C91657   9.572  11.041   3.471  1.0843  0.1249 -0.2320
  665MOL0     C91658   9.505  10.952   3.380 -0.5380 -0.0608  0.4378
  665MOL0     C91659   9.591  10.887   3.288  0.4859  1.0327 -0.0597
  665MOL0     C91660   9.512  10.794   3.196  0.5614  0.1565  0.3607
  665MOL0     C91661   9.730  10.911   3.276 -0.0254 -0.0382 -0.1072
  665MOL0     C91662   9.821  10.850   3.185 -0.0307 -0.1263  0.1643
  665MOL0     O91663   9.955  10.850   3.213  0.2976 -0.0909  0.5472
  665MOL0     C91664  10.027  10.758   3.141  0.4919 -0.1779 -0.1980
  665MOL0     C91665  10.133  10.801   3.058 -0.3398  0.7541  0.0449
  665MOL0     C91666  10.213  10.707   2.994  0.3563 -0.1325 -0.5117
  665MOL0     C91667  10.195  10.566   3.007 -0.5697  0.0372 -0.2435
  665MOL0     O91668  10.269  10.493   2.926  0.0839 -0.1388 -0.6868
  665MOL0     C91669  10.214  10.374   2.875  0.0000 -0.8241 -0.0253
  665MOL0     C91670  10.311  10.294   2.800  0.6307  0.2632  0.4628
  665MOL0     C91671  10.438  10.261   2.877  0.1538  1.0796 -0.5337
  665MOL0     C91672  10.510  10.149   2.808 -0.3020  0.0099 -0.9494
  665MOL0     C91673  10.566  10.180   2.666  0.5262 -0.4128  0.4634
  665MOL0     C91674  10.639  10.055   2.606  0.3399  0.0442  0.6604
  665MOL0     C91675  10.679  10.065   2.454  0.3086  0.4227 -0.4334
  665MOL0     C91676  10.784   9.968   2.400 -0.1225 -0.2387  0.7384
  665MOL0    Cl91677  10.740   9.795   2.407  0.1959 -0.1206  0.4976
  665MOL0     C91678  10.099  10.523   3.104 -0.2549  0.3317  0.4717
  665MOL0     C91679  10.017  10.622   3.177 -0.2317 -0.7696  0.1359
  665MOL0     O91680   9.770  10.816   3.071 -0.2798 -0.0050 -0.0018
  665MOL0     C91681   9.785  11.016   3.358  0.2776  0.6977 -0.6319
  665MOL0     C91682   9.708  11.071   3.464  0.5905  1.0081 -0.5247
  665MOL0     N91683   8.983  11.164   4.006  0.1006  0.4074 -0.2508
  665MOL0     N91684   8.864  11.186   4.052  0.7342 -0.0074 -0.1837
  665MOL0     C91685   7.659  11.484   4.369 -0.8688  0.4603  0.2880
  665MOL0     C91686   7.524  11.462   4.355 -0.1170 -0.1979  0.5531
  665MOL0     C91687   7.129  11.287   4.172  0.1980  0.0061  0.2842
  665MOL0     C91688   7.057  11.324   4.287  0.5583 -0.1343 -0.2297
  665MOL0     C91689   6.934  11.273   4.320  1.1391  0.0086 -0.0975
  665MOL0     C91690   6.865  11.193   4.230  0.2756  0.2053  0.5267
  665MOL0     O91691   6.735  11.171   4.264  0.2542 -0.3738 -0.6611
  665MOL0     C91692   6.647  11.093   4.177 -0.1826  0.8947 -0.2213
  665MOL0     C91693   6.499  11.088   4.218 -0.2981 -0.3208  0.2751
  665MOL0     C91694   6.474  11.082   4.370 -0.3030  0.3025 -0.0788
  665MOL0     C91695   6.326  11.080   4.401 -0.6679  0.6210  0.8017
  665MOL0     C91696   6.288  11.127   4.533  0.0581 -0.0949  0.6854
  665MOL0     C91697   6.272  11.158   4.649 -0.1337 -0.5149  0.1189
  665MOL0     C91698   6.923  11.177   4.104 -1.0063 -0.5963 -1.2479
  665MOL0     C91699   7.052  11.224   4.066 -0.2521 -0.5281  0.3106
  665MOL0     C91700   7.115  11.180   3.934  0.0976 -0.1586  0.4851
  665MOL0     H91701   7.543  11.207   4.129 -1.1321 -0.3129  1.6093
  665MOL0     H91702   7.770  11.277   4.140 -1.0260  0.7672  0.1541
  665MOL0     H91703   7.883  11.568   4.116 -0.3581  0.5003  0.0160
  665MOL0     H91704   7.939  11.395   4.106 -0.7208  0.4374 -0.0184
  665MOL0     H91705   8.108  11.607   4.118  0.8213 -0.3192 -0.2978
  665MOL0     H91706   8.073  11.589   4.296  0.7857  1.4593 -1.1855
  665MOL0     H91707   8.179  11.352   4.267  3.7497  0.4999  0.5835
  665MOL0     H91708   8.204  11.389   4.098 -0.3998 -0.2242 -0.1637
  665MOL0     H91709   8.351  11.590   4.194  2.0605 -2.6136 -3.1407
  665MOL0     H91710   8.317  11.528   4.351 -1.2465 -0.4802  0.3173
  665MOL0     H91711   8.425  11.325   4.165 -0.6125 -2.0127  1.9867
  665MOL0     H91712   8.427  11.339   4.327 -1.6859  0.1207  1.1095
  665MOL0     H91713   8.562  11.555   4.166 -0.4759 -1.8767 -2.3931
  665MOL0     H91714   8.608  11.526   4.332 -0.7385  0.8424 -0.2671
  665MOL0     H91715   8.687  11.293   4.238  3.6334  0.7068  0.1547
  665MOL0     H91716   8.779  11.439   4.221 -0.0590  1.0728  2.7464
  665MOL0     H91717   8.603  11.307   4.006 -1.2635  1.4814 -0.7219
  665MOL0     H91718   8.681  11.467   4.000  1.9849 -0.1287  1.7261
  665MOL0     H91719   8.887  11.443   3.858 -0.3303 -0.9965 -1.5505
  665MOL0     H91720   9.199  11.317   3.913 -0.8585  0.6879  0.2958
  665MOL0     H91721   9.124  11.339   3.750 -1.9230  0.2957  0.3046
  665MOL0     H91722   9.190  11.070   3.877 -3.0234  0.6248  1.2317
  665MOL0     H91723   9.133  11.104   3.717 -2.2849  1.7036  1.4449
  665MOL0     H91724   9.351  11.263   3.720 -3.0778  0.3473 -2.8324
  665MOL0     H91725   9.405  11.121   3.817  0.7937 -0.8642 -1.0951
  665MOL0     H91726   9.358  10.971   3.628  2.8244 -1.1855  0.6672
  665MOL0     H91727   9.300  11.104   3.528  0.4349 -1.5644 -0.8353
  665MOL0     H91728   9.399  10.928   3.372 -0.4352  0.0379 -2.3504
  665MOL0     H91729   9.523  10.833   3.094  0.2214 -1.2147 -0.2362
  665MOL0     H91730   9.406  10.778   3.215  0.3497 -3.2838 -2.5323
  665MOL0     H91731   9.543  10.689   3.195 -0.6137 -0.2271  1.7111
  665MOL0     H91732  10.151  10.908   3.054 -2.3912  1.1427  0.0906
  665MOL0     H91733  10.286  10.728   2.917 -0.4755  2.2541 -0.7508
  665MOL0     H91734  10.181  10.315   2.960 -0.7610  2.6540  2.3005
  665MOL0     H91735  10.123  10.408   2.825 -0.4915  1.6117  2.3383
  665MOL0     H91736  10.252  10.203   2.788  0.7882  0.1645  0.4426
  665MOL0     H91737  10.349  10.345   2.711  1.1076 -1.7820 -0.5681
  665MOL0     H91738  10.409  10.227   2.977 -2.3034  0.8610 -1.2468
  665MOL0     H91739  10.501  10.348   2.893  1.6274  0.0625 -0.6385
  665MOL0     H91740  10.446  10.060   2.797 -2.1716  1.3465 -1.4121
  665MOL0     H91741  10.596  10.130   2.873 -1.3611  1.1213  0.8653
  665MOL0     H91742  10.472  10.193   2.613 -0.5970 -1.3889  2.1205
  665MOL0     H91743  10.627  10.270   2.654  0.5383 -0.2572  1.5304
  665MOL0     H91744  10.570   9.970   2.609  0.2022  0.1601  0.7876
  665MOL0     H91745  10.730  10.028   2.661  1.2874 -2.5548 -1.8366
  665MOL0     H91746  10.717  10.167   2.442 -0.4693  1.1940  2.7259
  665MOL0     H91747  10.596  10.050   2.384  1.2354 -0.1163 -1.4512
  665MOL0     H91748  10.888   9.984   2.430  0.3268 -0.7229 -0.4562
  665MOL0     H91749  10.791   9.991   2.293 -0.0758  0.5543  0.9118
  665MOL0     H91750  10.096  10.418   3.131 -1.9319  0.1018 -0.4659
  665MOL0     H91751   9.946  10.578   3.247  0.4976 -1.2720  0.5718
  665MOL0     H91752   9.888  11.045   3.343  1.4927 -2.6472  0.4311
  665MOL0     H91753   9.746  11.146   3.532 -2.7408  3.0086 -0.6436
  665MOL0     H91754   7.694  11.546   4.451 -3.8073 -0.3798  2.3350
  665MOL0     H91755   7.452  11.511   4.420  1.7884  0.4399  2.2945
  665MOL0     H91756   7.107  11.380   4.365 -0.2295  1.0755 -0.5653
  665MOL0     H91757   6.893  11.304   4.416 -2.0719  1.2489 -1.7336
  665MOL0     H91758   6.648  11.115   4.069 -0.5595 -3.8295 -1.4009
  665MOL0     H91759   6.685  10.993   4.199  0.2421  1.1349  0.1544
  665MOL0     H91760   6.450  11.004   4.169 -4.3912  1.6678  0.5649
  665MOL0     H91761   6.450  11.175   4.175  2.5612 -0.3266 -3.6404
  665MOL0     H91762   6.511  10.984   4.401  1.2831  1.4374  1.8502
  665MOL0     H91763   6.530  11.162   4.420 -0.0574  1.0974 -1.5672
  665MOL0     H91764   6.294  10.976   4.389 -2.3888  0.9857  1.8361
  665MOL0     H91765   6.267  11.140   4.331 -0.2926  0.7030  0.5535
  665MOL0     H91766   6.264  11.189   4.752  1.1201  1.3457 -0.2909
  665MOL0     H91767   6.870  11.128   4.022 -1.3891  0.5760 -1.7140
  665MOL0     H91768   7.155  11.264   3.875  3.2821 -0.6497  1.7475
  665MOL0     H91769   7.207  11.132   3.967  2.4483  3.9109  0.5884
  665MOL0     H91770   7.046  11.116   3.879  0.2893  0.3100 -0.3140
  666MOL0     O91771   9.747   7.617   9.994  0.3169 -0.2948 -0.0359
  666MOL0     C91772   9.730   7.500  10.022  0.0907 -0.0691 -0.1771
  666MOL0     O91773   9.820   7.398  10.006 -0.2709 -0.4500  0.0854
  666MOL0     C91774   9.940   7.425   9.947 -0.3604 -0.3825 -0.6276
  666MOL0     C91775   9.957   7.484   9.822  0.7338  0.0237  0.1199
  666MOL0     C91776  10.073   7.504   9.756  0.5005  0.0737  0.1964
  666MOL0     C91777  10.189   7.464   9.826 -0.9588  0.5927 -0.5489
  666MOL0     O91778  10.316   7.479   9.784 -0.0466 -0.2204  0.0432
  666MOL0     C91779  10.332   7.503   9.643  0.2209 -1.1537 -0.0731
  666MOL0     C91780  10.483   7.485   9.608  0.2927 -0.0006 -0.3983
  666MOL0     C91781  10.481   7.447   9.459  0.4797  0.5047  0.0587
  666MOL0     C91782  10.612   7.376   9.413 -0.4680 -0.6431 -0.9849
  666MOL0     C91783  10.717   7.489   9.393  0.7446  0.3798 -0.0050
  666MOL0     C91784  10.834   7.426   9.327 -0.4247 -0.1800 -0.0853
  666MOL0     C91785  10.961   7.441   9.417 -0.3007 -0.1413  0.3121
  666MOL0     C91786  11.093   7.412   9.349 -0.1638  0.4838  0.2680
  666MOL0     N91787  11.139   7.521   9.260 -0.4757  0.1609  0.5328
  666MOL0     C91788  11.183   7.643   9.299  0.0709 -0.5954 -0.4902
  666MOL0     C91789  11.229   7.700   9.186  0.2263 -0.7448 -0.3887
  666MOL0     C91790  11.264   7.848   9.173  0.2601 -0.6713 -0.4925
  666MOL0     C91791  11.408   7.879   9.137 -0.4758  0.0752 -0.2198
  666MOL0     C91792  11.510   7.837   9.247 -0.5705 -0.0126 -0.2211
  666MOL0     C91793  11.651   7.893   9.202 -0.2988  0.5732 -0.1559
  666MOL0     O91794  11.648   8.040   9.195 -0.3502  0.2625 -0.3534
  666MOL0     C91795  11.756   8.096   9.128 -0.4302  0.0849  0.1693
  666MOL0     C91796  11.765   8.229   9.146  0.1776 -0.0421 -0.2761
  666MOL0     C91797  11.871   8.301   9.102  0.6354  0.7367  0.6040
  666MOL0     C91798  11.871   8.447   9.139 -0.1250 -0.3140  0.1640
  666MOL0     C91799  11.976   8.235   9.027 -0.5538  0.4010 -0.7199
  666MOL0     C91800  12.094   8.304   8.972  0.1532  0.1420 -0.6666
  666MOL0     O91801  12.145   8.227   8.865 -0.7993  0.4110 -0.3814
  666MOL0     C91802  12.265   8.252   8.808  0.1457 -0.0534  0.0959
  666MOL0     C91803  12.338   8.140   8.764 -0.9779 -0.5168  0.6135
  666MOL0     C91804  12.456   8.149   8.697  0.1150  0.5997  0.0982
  666MOL0     C91805  12.507   8.271   8.654 -0.6835  0.4240 -0.1156
  666MOL0     O91806  12.624   8.271   8.588  0.1851 -0.0868 -0.8593
  666MOL0     C91807  12.718   8.377   8.631 -0.4635 -0.2866  0.0692
  666MOL0     C91808  12.848   8.362   8.563 -0.1642  0.1114 -0.0369
  666MOL0     C91809  12.935   8.235   8.609 -0.6949 -0.1419 -0.0199
  666MOL0     C91810  13.072   8.240   8.547  0.5024  0.3225  0.2982
  666MOL0     C91811  13.169   8.318   8.639  0.9628 -0.6788 -0.2899
  666MOL0     C91812  13.318   8.296   8.594  0.4175  0.3852  0.2070
  666MOL0     C91813  13.424   8.372   8.680  0.4941  0.2294  0.1504
  666MOL0     C91814  13.568   8.335   8.662  0.5233 -0.2375  0.6820
  666MOL0    Cl91815  13.681   8.387   8.787  0.1316  0.0994  0.0228
  666MOL0     C91816  12.436   8.385   8.700 -0.0027  1.2928  0.1792
  666MOL0     C91817  12.315   8.378   8.776 -0.1698 -0.9104  0.0003
  666MOL0     O91818  12.150   8.389   9.039 -0.0268  0.4607 -0.3156
  666MOL0     C91819  11.960   8.090   9.004 -0.5342 -0.4462 -0.0193
  666MOL0     C91820  11.851   8.020   9.050 -0.0977  0.1678  0.5982
  666MOL0     N91821  11.220   7.612   9.080  0.2822 -0.0018  0.2489
  666MOL0     N91822  11.162   7.502   9.128 -0.9176 -0.5488 -0.5078
  666MOL0     C91823  10.180   7.405   9.954  0.1706  0.3094  0.1850
  666MOL0     C91824  10.052   7.374  10.011 -0.8010 -0.4339  0.5437
  666MOL0     C91825   9.597   7.453  10.073 -0.3684 -0.6036  0.4145
  666MOL0     C91826   9.590   7.324  10.122 -0.5172 -0.5028  0.5014
  666MOL0     C91827   9.468   7.277  10.177 -0.0793 -0.3882 -0.5115
  666MOL0     C91828   9.354   7.363  10.187 -0.9288 -0.9489  0.4836
  666MOL0     O91829   9.233   7.337  10.244  0.3237 -0.3325  0.4248
  666MOL0     C91830   9.216   7.206  10.302 -0.4536 -0.1989 -0.2139
  666MOL0     C91831   9.166   7.097  10.206 -0.0558  0.5912  1.1532
  666MOL0     C91832   9.178   6.956  10.257 -0.6530  0.8492 -0.8419
  666MOL0     C91833   9.129   6.844  10.169 -0.2256  0.3830 -0.2252
  666MOL0     C91834   9.159   6.708  10.221 -0.3251  0.4325 -0.2645
  666MOL0     C91835   9.178   6.591  10.248  0.8791  0.3250  0.7476
  666MOL0     C91836   9.365   7.491  10.132  0.2404  0.0292  0.6576
  666MOL0     C91837   9.480   7.543  10.078 -0.2897 -0.1697 -0.7490
  666MOL0     C91838   9.475   7.688  10.025 -0.3464  0.3405 -0.3576
  666MOL0     H91839   9.866   7.525   9.777  0.2579 -0.0553  0.9871
  666MOL0     H91840  10.076   7.544   9.655 -3.7731 -0.8598 -0.5117
  666MOL0     H91841  10.291   7.602   9.622  0.1272 -0.6312  2.2208
  666MOL0     H91842  10.266   7.432   9.593 -0.6921  0.3875 -1.1050
  666MOL0     H91843  10.530   7.578   9.640 -1.4111 -0.2322  3.3639
  666MOL0     H91844  10.526   7.400   9.663  2.7289  0.4550 -1.5031
  666MOL0     H91845  10.405   7.373   9.433 -0.5196  1.8347 -0.9359
  666MOL0     H91846  10.462   7.535   9.397  1.6909  0.4817 -0.3701
  666MOL0     H91847  10.641   7.307   9.493  0.2381  1.6053  0.8323
  666MOL0     H91848  10.586   7.329   9.318 -0.2260 -0.9509 -0.8993
  666MOL0     H91849  10.745   7.536   9.488  0.0433 -0.5635  0.6816
  666MOL0     H91850  10.671   7.566   9.330  3.0007  1.4546 -0.4759
  666MOL0     H91851  10.821   7.319   9.310  0.5186 -0.3653  0.2830
  666MOL0     H91852  10.852   7.465   9.226  1.7717 -0.4497  0.1450
  666MOL0     H91853  10.945   7.366   9.495 -0.5255 -0.3749  0.0415
  666MOL0     H91854  10.963   7.538   9.467  1.2202 -0.5611  1.1263
  666MOL0     H91855  11.179   7.413   9.417  0.6795 -0.8064 -0.7140
  666MOL0     H91856  11.075   7.316   9.298  0.4035  0.7838 -0.5201
  666MOL0     H91857  11.187   7.672   9.404  0.3124  2.2889 -1.2002
  666MOL0     H91858  11.226   7.911   9.254  1.1062  1.5466 -1.7639
  666MOL0     H91859  11.209   7.889   9.088  0.5986  1.0115  0.0720
  666MOL0     H91860  11.421   7.833   9.039  1.9569  1.1009 -0.4682
  666MOL0     H91861  11.405   7.988   9.129 -3.2042  0.0602 -0.1074
  666MOL0     H91862  11.501   7.888   9.343  3.1073  1.0202 -0.2881
  666MOL0     H91863  11.515   7.729   9.265 -1.6790 -0.1090 -0.4056
  666MOL0     H91864  11.733   7.859   9.266 -2.1212 -3.2777  0.4331
  666MOL0     H91865  11.649   7.848   9.103 -2.9652  0.2111 -0.0158
  666MOL0     H91866  11.700   8.280   9.217  0.2941 -0.2501 -0.0171
  666MOL0     H91867  11.960   8.470   9.198 -0.0213  2.0138 -0.8026
  666MOL0     H91868  11.785   8.479   9.199  1.1354  0.7055  1.4918
  666MOL0     H91869  11.870   8.506   9.047  6.3306  1.0828  0.5583
  666MOL0     H91870  12.298   8.043   8.793  0.4148 -0.7618  1.8545
  666MOL0     H91871  12.496   8.055   8.659 -0.0694  1.3876 -2.2124
  666MOL0     H91872  12.681   8.477   8.609  0.3522 -0.3685 -1.8659
  666MOL0     H91873  12.741   8.368   8.738  0.6845  0.3926 -0.1159
  666MOL0     H91874  12.844   8.360   8.454  1.9188  2.5153 -0.2326
  666MOL0     H91875  12.917   8.445   8.578  0.3280  0.2019 -2.4357
  666MOL0     H91876  12.891   8.140   8.576  2.4009 -1.3735 -1.0321
  666MOL0     H91877  12.938   8.223   8.717 -1.3166 -3.1567 -0.2530
  666MOL0     H91878  13.082   8.284   8.448  2.0228  0.9492  0.7154
  666MOL0     H91879  13.102   8.135   8.550 -0.5944  0.0115  2.1801
  666MOL0     H91880  13.147   8.425   8.646 -0.6480 -0.9623 -0.6603
  666MOL0     H91881  13.156   8.278   8.740  0.0762  0.9554  0.2671
  666MOL0     H91882  13.335   8.333   8.492  2.5463 -1.6000 -0.2564
  666MOL0     H91883  13.335   8.188   8.597 -2.0453 -0.0305  1.3712
  666MOL0     H91884  13.402   8.350   8.784  1.9539 -0.8767  0.2530
  666MOL0     H91885  13.414   8.477   8.651 -0.5453 -0.2161 -1.2209
  666MOL0     H91886  13.591   8.373   8.562  0.0845  0.0666  0.6949
  666MOL0     H91887  13.576   8.226   8.654 -1.5253 -0.3754  0.0743
  666MOL0     H91888  12.480   8.479   8.667  1.5876 -0.2316 -2.4396
  666MOL0     H91889  12.267   8.471   8.804  1.4724 -0.3528  1.1193
  666MOL0     H91890  12.045   8.035   8.965 -0.6915  0.9267 -2.5335
  666MOL0     H91891  11.854   7.913   9.035  2.4234 -0.0899  2.2932
  666MOL0     H91892  10.269   7.387  10.014 -0.4752  0.0026  1.0814
  666MOL0     H91893  10.046   7.352  10.117  0.6233  1.2027  1.0262
  666MOL0     H91894   9.672   7.254  10.110 -0.4786 -0.1150 -1.9792
  666MOL0     H91895   9.464   7.177  10.218 -0.1128 -0.2896 -0.2729
  666MOL0     H91896   9.310   7.177  10.349 -1.1238 -0.0396  1.2836
  666MOL0     H91897   9.132   7.206  10.372 -2.1713  2.4774 -2.0772
  666MOL0     H91898   9.216   7.098  10.110  0.1969  1.4852  1.2854
  666MOL0     H91899   9.066   7.123  10.169  0.5561 -2.5435 -3.5580
  666MOL0     H91900   9.282   6.925  10.268 -1.2184 -0.6242  0.7025
  666MOL0     H91901   9.129   6.943  10.354 -0.2864 -1.3997 -0.9196
  666MOL0     H91902   9.185   6.851  10.075  0.1953 -0.8664 -0.0911
  666MOL0     H91903   9.022   6.862  10.156  0.0446  1.4680 -1.0804
  666MOL0     H91904   9.181   6.492  10.287  0.4928  0.0761  0.1574
  666MOL0     H91905   9.271   7.545  10.131  0.5140  0.5280 -0.7410
  666MOL0     H91906   9.539   7.759  10.077 -1.2275  0.6264  0.3670
  666MOL0     H91907   9.498   7.677   9.919  1.2831 -2.4659  0.1579
  666MOL0     H91908   9.376   7.735  10.031  0.3568  1.7182  0.9647
  667MOL0     O91909   7.812   7.780   1.831 -0.1324  0.3761  0.2295
  667MOL0     C91910   7.705   7.756   1.779 -1.0345  0.4190 -0.0726
  667MOL0     O91911   7.685   7.665   1.677  0.3262  0.0572  0.4396
  667MOL0     C91912   7.790   7.608   1.608 -0.3064  0.4151 -0.1530
  667MOL0     C91913   7.887   7.679   1.533 -0.0329  0.0565  0.3760
  667MOL0     C91914   7.997   7.615   1.482  0.1909 -0.3291 -1.1157
  667MOL0     C91915   8.005   7.473   1.490 -0.9760 -0.2476  0.1740
  667MOL0     O91916   8.106   7.398   1.439 -0.4659  0.3320  0.0885
  667MOL0     C91917   8.233   7.451   1.416  0.4265 -0.6158  0.7987
  667MOL0     C91918   8.325   7.355   1.350 -0.1375  0.3631 -0.2091
  667MOL0     C91919   8.464   7.405   1.308 -1.0385  0.6909  0.2691
  667MOL0     C91920   8.572   7.397   1.415  0.3275 -0.0479  0.1865
  667MOL0     C91921   8.705   7.446   1.348 -0.2277  0.2704  0.2020
  667MOL0     C91922   8.814   7.471   1.447  0.1286  0.1550 -1.7958
  667MOL0     C91923   8.955   7.495   1.393  0.2820  0.0711  0.2981
  667MOL0     C91924   8.964   7.609   1.295  0.0540 -0.3437  0.7719
  667MOL0     N91925   9.093   7.606   1.231  0.0069  0.8364  0.4890
  667MOL0     C91926   9.151   7.525   1.131  0.8119 -0.1446  0.5237
  667MOL0     C91927   9.273   7.576   1.107  0.0441  0.8075 -0.6986
  667MOL0     C91928   9.359   7.522   0.999 -0.4361  0.3154 -0.2327
  667MOL0     C91929   9.396   7.646   0.919  0.1651 -1.2207 -0.1353
  667MOL0     C91930   9.507   7.625   0.820 -0.3469 -0.6480  0.8913
  667MOL0     C91931   9.651   7.633   0.879 -0.0734 -1.0944 -0.7493
  667MOL0     O91932   9.741   7.552   0.797 -0.5265 -0.0159  0.1472
  667MOL0     C91933   9.874   7.563   0.804 -0.5099 -0.1975  0.5149
  667MOL0     C91934   9.958   7.509   0.707  0.0770  0.4618 -0.0682
  667MOL0     C91935  10.100   7.502   0.716 -0.6474  0.0004 -0.3127
  667MOL0     C91936  10.171   7.423   0.601 -0.4455 -0.5720 -0.0461
  667MOL0     C91937  10.160   7.592   0.817  0.6266  0.1452 -0.8181
  667MOL0     C91938  10.304   7.615   0.830  0.2398 -0.1236  0.4851
  667MOL0     O91939  10.395   7.542   0.759 -0.6659  0.0479  0.4600
  667MOL0     C91940  10.523   7.527   0.803  0.4457  0.5809 -0.6668
  667MOL0     C91941  10.553   7.513   0.937  0.4983 -1.1936  0.5959
  667MOL0     C91942  10.679   7.502   0.981 -0.6081  0.0028 -0.3364
  667MOL0     C91943  10.788   7.498   0.890  0.9110 -0.2362  0.4482
  667MOL0     O91944  10.915   7.505   0.944  0.5100 -0.0747 -0.8552
  667MOL0     C91945  11.018   7.523   0.855  0.1515  0.2205  0.4260
  667MOL0     C91946  11.150   7.507   0.938  0.3376  0.3783  0.4096
  667MOL0     C91947  11.268   7.453   0.855  0.6357 -1.0343 -0.2788
  667MOL0     C91948  11.387   7.411   0.939 -0.4513  0.2022  0.2648
  667MOL0     C91949  11.494   7.363   0.840  0.7475 -0.4283  0.0716
  667MOL0     C91950  11.632   7.365   0.889 -0.2607 -0.5693 -0.3030
  667MOL0     C91951  11.727   7.333   0.785  0.2024  0.6262 -0.3141
  667MOL0     C91952  11.732   7.175   0.759 -0.4368  0.3303  0.1573
  667MOL0    Cl91953  11.806   7.091   0.890  0.5915  0.2625 -0.1287
  667MOL0     C91954  10.758   7.505   0.754  0.6737  0.3543  0.0035
  667MOL0     C91955  10.623   7.519   0.712  0.1019 -0.4145  0.2814
  667MOL0     O91956  10.326   7.714   0.895 -0.7903  0.5936  0.1000
  667MOL0     C91957  10.074   7.644   0.919 -0.1795  0.3458  0.2603
  667MOL0     C91958   9.937   7.625   0.915  1.1841  1.2968  0.3018
  667MOL0     N91959   9.295   7.687   1.178  0.0754 -0.0862 -0.2397
  667MOL0     N91960   9.177   7.705   1.252  0.1618 -0.1864 -0.8076
  667MOL0     C91961   7.893   7.408   1.545 -0.1307 -0.1111  0.5708
  667MOL0     C91962   7.787   7.469   1.601 -0.4627 -0.3143 -0.0380
  667MOL0     C91963   7.592   7.802   1.857 -0.6810 -0.0039 -0.5751
  667MOL0     C91964   7.479   7.723   1.880 -0.3132  0.0274 -0.4712
  667MOL0     C91965   7.377   7.764   1.963 -0.3384  0.2325  0.6864
  667MOL0     C91966   7.369   7.891   2.009 -0.0502  0.2353  0.6145
  667MOL0     O91967   7.277   7.952   2.094 -0.0264  0.2928 -0.3373
  667MOL0     C91968   7.161   7.883   2.136 -0.3909 -0.6290 -0.3229
  667MOL0     C91969   7.102   7.949   2.250  0.1518 -0.2706  0.1176
  667MOL0     C91970   7.032   8.083   2.206 -0.1612 -0.0186 -0.0944
  667MOL0     C91971   6.921   8.151   2.293 -0.0706  0.7151  0.8469
  667MOL0     C91972   6.805   8.059   2.289 -0.0023  0.2175 -0.0965
  667MOL0     C91973   6.711   7.976   2.284 -0.4502  0.1741 -0.5318
  667MOL0     C91974   7.468   7.974   1.978 -0.2769 -0.7866 -0.1027
  667MOL0     C91975   7.580   7.937   1.900 -0.4443  0.4446 -0.5436
  667MOL0     C91976   7.680   8.050   1.860  0.4687 -0.2110  0.2304
  667MOL0     H91977   7.885   7.787   1.529  1.0903  0.0666 -0.3225
  667MOL0     H91978   8.070   7.682   1.438  1.5471 -1.3582 -0.5122
  667MOL0     H91979   8.262   7.483   1.516  1.0885  0.7842  0.1858
  667MOL0     H91980   8.225   7.532   1.343  4.1445 -2.7315 -2.3728
  667MOL0     H91981   8.336   7.269   1.417  3.0005 -0.2957 -1.3813
  667MOL0     H91982   8.276   7.311   1.263 -1.1480  0.2910  0.3730
  667MOL0     H91983   8.502   7.335   1.233  2.0287  1.1529  1.2448
  667MOL0     H91984   8.465   7.503   1.259  0.4521  0.0207 -1.1383
  667MOL0     H91985   8.548   7.453   1.506  0.9953 -0.8529  0.8734
  667MOL0     H91986   8.571   7.295   1.454  2.5003  0.7856  2.7582
  667MOL0     H91987   8.679   7.531   1.284 -2.4367 -1.4370 -1.3041
  667MOL0     H91988   8.749   7.373   1.280 -2.1315  1.0152 -1.9209
  667MOL0     H91989   8.782   7.553   1.513  0.3528  1.5477 -3.3769
  667MOL0     H91990   8.825   7.376   1.501 -2.1919  0.0334 -1.4147
  667MOL0     H91991   8.991   7.402   1.348  4.0202  0.9272  1.2057
  667MOL0     H91992   9.027   7.506   1.474 -0.8085 -3.8412  2.0675
  667MOL0     H91993   8.899   7.601   1.207  2.0276  2.0615 -1.0614
  667MOL0     H91994   8.943   7.702   1.349  3.6680  0.6884  0.6227
  667MOL0     H91995   9.110   7.436   1.085 -0.0901 -0.1002  1.2182
  667MOL0     H91996   9.311   7.437   0.949  0.0333 -2.8564  4.1463
  667MOL0     H91997   9.446   7.475   1.045 -1.1955 -1.2476 -0.3445
  667MOL0     H91998   9.311   7.666   0.854  0.7744 -3.6604 -1.8012
  667MOL0     H91999   9.409   7.740   0.974 -0.2805 -0.9405 -0.5037
  667MOL0     H92000   9.496   7.533   0.762  1.3397  0.0289 -0.6273
  667MOL0     H92001   9.503   7.716   0.760  0.9537 -0.5305  0.9528
  667MOL0     H92002   9.684   7.737   0.889  0.0141 -1.0953 -1.0083
  667MOL0     H92003   9.650   7.586   0.978  0.1596 -0.1416 -0.2831
  667MOL0     H92004   9.914   7.449   0.628 -0.4951  2.4755 -1.3567
  667MOL0     H92005  10.246   7.360   0.648  0.1817  0.7401  0.7851
  667MOL0     H92006  10.207   7.497   0.530 -3.6924  1.2180 -0.0387
  667MOL0     H92007  10.101   7.374   0.533 -0.7880  2.6216 -2.2097
  667MOL0     H92008  10.486   7.514   1.022 -0.7240  0.9394 -0.3152
  667MOL0     H92009  10.702   7.497   1.087 -2.5221  1.2286  0.1945
  667MOL0     H92010  11.026   7.444   0.780  3.4753 -1.0454  1.8870
  667MOL0     H92011  11.013   7.619   0.802 -0.8007  0.6415  1.2513
  667MOL0     H92012  11.188   7.608   0.955  1.7064  0.0014 -0.2636
  667MOL0     H92013  11.132   7.451   1.030 -1.1029  0.3836  0.1596
  667MOL0     H92014  11.311   7.524   0.785  0.5980  0.3995  1.0991
  667MOL0     H92015  11.234   7.367   0.796  2.2225 -1.8454 -0.0608
  667MOL0     H92016  11.358   7.326   1.002 -0.1308 -2.1618 -2.5512
  667MOL0     H92017  11.437   7.489   0.997 -0.2748  0.9338 -0.8277
  667MOL0     H92018  11.461   7.259   0.833  0.8190 -0.6304  2.0569
  667MOL0     H92019  11.496   7.418   0.745  0.7267  2.5302  1.6426
  667MOL0     H92020  11.651   7.290   0.966  0.4334  0.3893  0.4833
  667MOL0     H92021  11.649   7.467   0.924 -1.5229  0.4816 -2.5179
  667MOL0     H92022  11.830   7.352   0.817 -0.5758  0.6014  2.4263
  667MOL0     H92023  11.703   7.384   0.691  1.7046  0.0921 -1.0224
  667MOL0     H92024  11.786   7.152   0.667 -0.0231 -0.4691  0.5776
  667MOL0     H92025  11.632   7.136   0.741 -0.5920  1.5056 -1.7000
  667MOL0     H92026  10.832   7.505   0.674 -0.7391 -1.2805 -1.4185
  667MOL0     H92027  10.603   7.543   0.608  0.8431  0.2315  0.2720
  667MOL0     H92028  10.115   7.698   1.004  2.6656  0.3643 -1.0146
  667MOL0     H92029   9.880   7.665   0.999  0.6958 -1.1805  1.2331
  667MOL0     H92030   7.894   7.301   1.556  3.0388 -0.4778 -1.5755
  667MOL0     H92031   7.711   7.412   1.653  0.4083 -1.5880 -0.1333
  667MOL0     H92032   7.479   7.618   1.850 -0.2199 -0.3480  0.7830
  667MOL0     H92033   7.294   7.699   1.989 -0.1573 -2.1290 -3.6663
  667MOL0     H92034   7.091   7.886   2.052 -1.4434  0.5358  0.5620
  667MOL0     H92035   7.195   7.782   2.159  1.0760  0.5496  3.6472
  667MOL0     H92036   7.175   7.966   2.330  0.8223 -0.9134 -0.3377
  667MOL0     H92037   7.038   7.878   2.304  1.3775 -0.2729  1.6438
  667MOL0     H92038   7.107   8.162   2.196  0.4436 -0.6272 -0.4096
  667MOL0     H92039   6.989   8.059   2.109 -1.4674 -0.2515  0.5195
  667MOL0     H92040   6.887   8.245   2.247 -1.0302 -0.9498 -2.1039
  667MOL0     H92041   6.953   8.172   2.396 -1.0657  2.8355  0.7782
  667MOL0     H92042   6.647   7.890   2.279 -1.9563  0.6553  4.6960
  667MOL0     H92043   7.471   8.075   2.020  0.1019 -0.0532 -1.8375
  667MOL0     H92044   7.630   8.143   1.831  0.0148  1.1046  4.5458
  667MOL0     H92045   7.738   8.071   1.951 -2.8959  1.2676  2.1990
  667MOL0     H92046   7.737   8.018   1.772 -1.9145 -1.3431 -0.9776
  668MOL0     O92047   2.690   5.070   6.359 -0.2455 -0.3679  0.4727
  668MOL0     C92048   2.579   5.079   6.302 -0.7847  0.0554  0.1649
  668MOL0     O92049   2.520   5.197   6.260 -0.3162 -0.0783  0.4214
  668MOL0     C92050   2.583   5.325   6.281  1.2573  0.4738 -0.3639
  668MOL0     C92051   2.589   5.424   6.177  0.8175  0.4106 -0.2928
  668MOL0     C92052   2.635   5.553   6.199 -0.9357 -0.4140  0.3411
  668MOL0     C92053   2.686   5.591   6.318  0.0042  0.6749 -0.2947
  668MOL0     O92054   2.738   5.716   6.341  0.8769  0.2429 -0.1484
  668MOL0     C92055   2.817   5.734   6.461 -1.2269 -0.9627 -0.4469
  668MOL0     C92056   2.891   5.874   6.453 -0.3023  0.7356  0.1576
  668MOL0     C92057   2.977   5.903   6.570  0.4415  0.4036  0.5133
  668MOL0     C92058   3.040   6.047   6.563 -0.2714 -0.1683  0.6533
  668MOL0     C92059   3.125   6.075   6.685 -1.2267 -0.7779  0.5661
  668MOL0     C92060   3.192   6.220   6.693  0.5063 -0.0060 -0.7253
  668MOL0     C92061   3.301   6.238   6.803  0.8318 -0.3046 -0.7838
  668MOL0     C92062   3.376   6.371   6.788 -0.1937  0.1983  0.2986
  668MOL0     N92063   3.475   6.355   6.677 -0.2889  0.4410  0.1818
  668MOL0     C92064   3.488   6.439   6.566  0.3216  0.3080  0.6435
  668MOL0     C92065   3.602   6.394   6.503 -0.3122  0.0795 -1.1733
  668MOL0     C92066   3.668   6.448   6.370 -0.4546  0.7216 -0.2434
  668MOL0     C92067   3.564   6.511   6.277 -0.7897 -0.0087 -0.2290
  668MOL0     C92068   3.635   6.522   6.142 -0.3907  0.1382  0.9914
  668MOL0     C92069   3.563   6.597   6.034 -0.7336 -0.2002  0.0117
  668MOL0     O92070   3.431   6.540   6.021 -0.1675  0.3691 -0.0343
  668MOL0     C92071   3.333   6.587   5.935 -0.5135 -0.2711  0.3450
  668MOL0     C92072   3.359   6.704   5.847 -0.3545  0.2164 -0.4402
  668MOL0     C92073   3.259   6.750   5.757  0.5886  0.6644 -0.6725
  668MOL0     C92074   3.301   6.856   5.654  0.0311  0.8898  0.3884
  668MOL0     C92075   3.139   6.672   5.747  0.0180 -0.9202 -0.2589
  668MOL0     C92076   3.023   6.717   5.670 -0.2960  0.7213 -0.2576
  668MOL0     O92077   2.897   6.675   5.724  0.2276 -0.4562 -0.4976
  668MOL0     C92078   2.784   6.720   5.668 -0.7054  0.4851 -0.3411
  668MOL0     C92079   2.745   6.693   5.534 -0.2710  0.5550 -0.0551
  668MOL0     C92080   2.638   6.755   5.477  0.1116  0.4934  0.0760
  668MOL0     C92081   2.567   6.851   5.551 -0.6113 -0.4497  0.4591
  668MOL0     O92082   2.458   6.918   5.497  0.3798  0.2148  0.2324
  668MOL0     C92083   2.399   6.857   5.372  0.0629 -0.5181  0.2398
  668MOL0     C92084   2.263   6.919   5.344 -0.0276  0.1401 -0.6561
  668MOL0     C92085   2.162   6.806   5.372  0.6971 -1.6544  0.2524
  668MOL0     C92086   2.032   6.873   5.383 -0.0539  0.5432  0.0994
  668MOL0     C92087   1.933   6.777   5.446  0.9537 -0.5845  0.1972
  668MOL0     C92088   1.783   6.819   5.440  0.2968 -1.2318  0.0894
  668MOL0     C92089   1.736   6.823   5.295 -0.2465  0.0130 -0.1352
  668MOL0     C92090   1.593   6.858   5.284 -0.0488 -0.4199 -0.0478
  668MOL0    Cl92091   1.502   6.703   5.282  0.3085 -0.0794 -0.0260
  668MOL0     C92092   2.606   6.870   5.684  0.0335 -0.8484 -0.5302
  668MOL0     C92093   2.713   6.805   5.742  0.5597 -0.4530  0.6984
  668MOL0     O92094   3.042   6.797   5.578  0.0191 -0.0880 -0.2284
  668MOL0     C92095   3.124   6.551   5.820  0.3552  0.0526 -0.2498
  668MOL0     C92096   3.222   6.512   5.912 -0.8846  0.5109  0.7063
  668MOL0     N92097   3.652   6.286   6.564 -0.4545  0.3823  0.2110
  668MOL0     N92098   3.583   6.269   6.675 -0.0248 -0.0255  0.5694
  668MOL0     C92099   2.691   5.490   6.422  0.8231  0.4037  0.5418
  668MOL0     C92100   2.637   5.359   6.400  0.2953  0.4092 -0.0167
  668MOL0     C92101   2.491   4.964   6.294  0.1669  0.2764  0.1859
  668MOL0     C92102   2.350   4.980   6.295 -1.1425 -0.0223 -0.5059
  668MOL0     C92103   2.263   4.878   6.262 -0.2350  0.1744  0.5056
  668MOL0     C92104   2.308   4.744   6.243  0.6024  0.3201 -0.4189
  668MOL0     O92105   2.212   4.647   6.235 -0.2380  0.1370 -0.1071
  668MOL0     C92106   2.261   4.524   6.200  0.1473  1.1129  0.3105
  668MOL0     C92107   2.163   4.414   6.173  0.0714  0.3869  0.0920
  668MOL0     C92108   2.223   4.277   6.147 -0.5851 -0.0598 -0.2002
  668MOL0     C92109   2.127   4.162   6.157  0.1107 -0.2135 -0.0573
  668MOL0     C92110   2.198   4.028   6.149 -0.0002 -0.1375 -0.2658
  668MOL0     C92111   2.261   3.929   6.139  0.5964  0.1807  0.0126
  668MOL0     C92112   2.443   4.728   6.257 -0.2426  0.5873  0.5788
  668MOL0     C92113   2.542   4.829   6.274  0.2690 -0.5730 -0.3207
  668MOL0     C92114   2.684   4.785   6.275  0.2127 -0.3608 -0.4332
  668MOL0     H92115   2.550   5.403   6.078 -0.0397  4.1993 -0.9125
  668MOL0     H92116   2.638   5.623   6.115 -2.0455 -3.2356 -2.2440
  668MOL0     H92117   2.894   5.657   6.472  0.5537  0.5550 -1.6986
  668MOL0     H92118   2.745   5.727   6.544  0.0252 -1.4132  0.6336
  668MOL0     H92119   2.952   5.884   6.363  0.4022  1.9029  0.7431
  668MOL0     H92120   2.817   5.953   6.437  1.2770  1.5892 -4.7915
  668MOL0     H92121   2.917   5.898   6.661 -2.2704  0.8950 -1.1428
  668MOL0     H92122   3.055   5.827   6.584  0.7020  0.3541 -1.0478
  668MOL0     H92123   3.113   6.052   6.482 -1.1258  0.7339 -0.0883
  668MOL0     H92124   2.964   6.123   6.540  0.2180 -0.2070 -1.2490
  668MOL0     H92125   3.214   6.012   6.685  0.6547  1.7197 -0.6939
  668MOL0     H92126   3.060   6.059   6.772 -2.6380 -1.1312 -0.5144
  668MOL0     H92127   3.230   6.238   6.592  1.1148 -0.5795 -0.6025
  668MOL0     H92128   3.108   6.289   6.703  0.7011  0.3313 -1.3281
  668MOL0     H92129   3.381   6.163   6.803  1.5092  0.3598  1.2750
  668MOL0     H92130   3.255   6.249   6.901  1.6057  2.5473 -0.6428
  668MOL0     H92131   3.309   6.454   6.762  0.1714  1.3948  2.9040
  668MOL0     H92132   3.428   6.382   6.883 -2.0862 -1.5823  1.6180
  668MOL0     H92133   3.410   6.508   6.534 -0.4095 -1.4600 -1.6455
  668MOL0     H92134   3.716   6.362   6.322 -2.9838 -1.1452  0.3450
  668MOL0     H92135   3.739   6.523   6.405  0.7521 -0.5754  0.1472
  668MOL0     H92136   3.463   6.470   6.269 -1.5291  1.8373 -0.7183
  668MOL0     H92137   3.545   6.611   6.316 -2.1945  0.4644 -2.0264
  668MOL0     H92138   3.723   6.587   6.152 -1.1214  1.0818  1.4670
  668MOL0     H92139   3.659   6.426   6.097 -0.4610  0.4030  0.3891
  668MOL0     H92140   3.564   6.704   6.056  0.7480 -0.4974  1.5785
  668MOL0     H92141   3.617   6.568   5.943 -0.3058  1.7025 -0.3889
  668MOL0     H92142   3.453   6.755   5.864 -0.6951  0.8231 -0.3308
  668MOL0     H92143   3.409   6.866   5.667  0.1174 -1.9955  2.7852
  668MOL0     H92144   3.239   6.946   5.661  0.9516  1.4874  1.2072
  668MOL0     H92145   3.282   6.809   5.557  1.8997 -1.1473  0.9296
  668MOL0     H92146   2.801   6.629   5.466 -0.4889 -0.6814  0.8922
  668MOL0     H92147   2.625   6.733   5.371  1.2458 -0.2400  0.0703
  668MOL0     H92148   2.463   6.887   5.289 -2.8815 -1.2952 -2.5037
  668MOL0     H92149   2.386   6.748   5.368 -1.6685 -0.2926 -2.0192
  668MOL0     H92150   2.250   7.003   5.413  0.9189  0.5512 -0.9573
  668MOL0     H92151   2.248   6.960   5.244 -0.8398 -0.2944 -0.7153
  668MOL0     H92152   2.178   6.748   5.463 -0.8252  0.0496  1.6685
  668MOL0     H92153   2.164   6.727   5.296  2.1625 -1.8976  0.5107
  668MOL0     H92154   2.000   6.895   5.280  0.9140 -0.9234 -0.5459
  668MOL0     H92155   2.039   6.966   5.439 -0.0306  1.5853 -1.5494
  668MOL0     H92156   1.940   6.678   5.400  1.4637 -0.5508  0.1985
  668MOL0     H92157   1.959   6.754   5.550  0.2766 -2.8351 -0.0815
  668MOL0     H92158   1.773   6.914   5.494  2.9431  0.6535 -2.4344
  668MOL0     H92159   1.733   6.738   5.494 -0.5828 -0.1267  0.9822
  668MOL0     H92160   1.752   6.727   5.246  3.0580  0.5988 -0.4085
  668MOL0     H92161   1.786   6.906   5.245 -0.0130  1.1182  1.8440
  668MOL0     H92162   1.573   6.908   5.189 -3.5148 -0.3559  0.5938
  668MOL0     H92163   1.570   6.911   5.377  1.1995  0.5292 -0.2507
  668MOL0     H92164   2.553   6.945   5.742  0.4376 -1.0777  0.1521
  668MOL0     H92165   2.742   6.827   5.845 -0.0744  1.5825  0.4906
  668MOL0     H92166   3.039   6.487   5.801 -0.3628  0.5401  1.1804
  668MOL0     H92167   3.217   6.419   5.967 -2.0718 -0.2967 -0.6978
  668MOL0     H92168   2.737   5.498   6.520  1.9102 -0.3192  0.1031
  668MOL0     H92169   2.637   5.280   6.475  0.8430  0.0388 -0.3946
  668MOL0     H92170   2.313   5.081   6.314  1.9473  0.8297  1.7641
  668MOL0     H92171   2.156   4.895   6.269 -0.0452  2.5290 -1.0260
  668MOL0     H92172   2.314   4.540   6.105 -1.7369 -1.1090 -1.2123
  668MOL0     H92173   2.328   4.499   6.283 -0.9022  2.6256  1.6777
  668MOL0     H92174   2.103   4.444   6.086  1.3263 -1.4093 -1.4604
  668MOL0     H92175   2.091   4.404   6.255 -1.4280  0.2522 -1.1980
  668MOL0     H92176   2.251   4.271   6.042 -0.4496 -1.4079 -0.0977
  668MOL0     H92177   2.313   4.266   6.208  0.0984 -2.3074 -1.5298
  668MOL0     H92178   2.046   4.166   6.083 -1.1974  0.7845  1.3742
  668MOL0     H92179   2.083   4.161   6.257  0.1409  3.7954  0.1558
  668MOL0     H92180   2.318   3.838   6.136 -2.5206 -2.0907  2.1669
  668MOL0     H92181   2.487   4.629   6.248  0.4487  1.0601 -1.8329
  668MOL0     H92182   2.710   4.682   6.251  0.8134 -0.2613 -0.2219
  668MOL0     H92183   2.748   4.853   6.218 -1.7761  1.6036 -0.4797
  668MOL0     H92184   2.728   4.798   6.375  0.3638  0.9923 -0.6455
  669MOL0     O92185   2.118   0.634   7.253 -0.4251  0.8958 -0.9058
  669MOL0     C92186   2.020   0.576   7.316  0.5315 -0.7619  0.7211
  669MOL0     O92187   1.934   0.654   7.390  0.1782 -0.3091  0.5008
  669MOL0     C92188   1.907   0.785   7.350  0.0039  0.3661 -0.2072
  669MOL0     C92189   1.851   0.816   7.227 -0.5265  0.4901 -0.4774
  669MOL0     C92190   1.818   0.948   7.203  0.0952 -0.5843 -0.5396
  669MOL0     C92191   1.842   1.050   7.295  0.2568 -0.7175  0.0247
  669MOL0     O92192   1.792   1.180   7.267  0.2477  0.4472 -0.1388
  669MOL0     C92193   1.898   1.279   7.274  0.3557 -0.5583 -0.6275
  669MOL0     C92194   1.845   1.401   7.195 -0.5097  0.0459  0.0974
  669MOL0     C92195   1.950   1.510   7.172  0.2373 -0.2040  0.0516
  669MOL0     C92196   2.034   1.559   7.293 -0.7992  0.1510 -0.9762
  669MOL0     C92197   2.155   1.631   7.248 -1.1012 -1.1328  0.3704
  669MOL0     C92198   2.281   1.547   7.216 -0.4997  0.4068 -0.1097
  669MOL0     C92199   2.339   1.502   7.355 -0.2786 -0.6340 -0.2603
  669MOL0     C92200   2.459   1.411   7.339  0.2236  0.5896  0.1439
  669MOL0     N92201   2.430   1.280   7.273  0.3376 -0.1876  0.1814
  669MOL0     C92202   2.341   1.191   7.326  1.0740  0.0878 -0.4534
  669MOL0     C92203   2.344   1.084   7.245 -0.0758 -0.5714 -0.2439
  669MOL0     C92204   2.260   0.967   7.284  0.1107  0.4420  0.0198
  669MOL0     C92205   2.325   0.878   7.387 -0.0624  0.3313  0.0917
  669MOL0     C92206   2.427   0.787   7.328 -0.0741  0.2904 -0.1562
  669MOL0     C92207   2.474   0.671   7.416 -0.4657  0.2387  0.3281
  669MOL0     O92208   2.560   0.585   7.335  0.4425 -0.3646 -0.2257
  669MOL0     C92209   2.694   0.586   7.367 -0.1232  0.1960  0.1703
  669MOL0     C92210   2.789   0.648   7.284 -0.0474  0.5015  0.2423
  669MOL0     C92211   2.921   0.634   7.321  0.7801  0.7899  0.6977
  669MOL0     C92212   3.015   0.705   7.226  0.3163 -0.8123  0.2318
  669MOL0     C92213   2.956   0.572   7.439  0.1550 -0.7043 -0.9871
  669MOL0     C92214   3.089   0.592   7.509 -0.8848  0.0294  1.3010
  669MOL0     O92215   3.178   0.688   7.462 -0.3523 -0.3573  0.1820
  669MOL0     C92216   3.318   0.693   7.499  0.7369 -0.8142  0.4716
  669MOL0     C92217   3.402   0.797   7.450 -0.1767 -0.1730  0.1698
  669MOL0     C92218   3.541   0.802   7.477 -0.4241  0.3153 -0.1467
  669MOL0     C92219   3.606   0.700   7.553  0.0925 -0.0445  0.8159
  669MOL0     O92220   3.735   0.696   7.591  0.1409  1.0617 -0.3719
  669MOL0     C92221   3.830   0.788   7.535  0.6217 -0.3568  0.0270
  669MOL0     C92222   3.841   0.908   7.636 -0.6466 -0.3323  0.3579
  669MOL0     C92223   3.958   0.997   7.589 -0.2302 -0.6789 -0.5370
  669MOL0     C92224   3.914   1.091   7.469 -0.5082  0.7060 -0.3770
  669MOL0     C92225   4.041   1.168   7.428  0.7892  0.1096 -0.2947
  669MOL0     C92226   4.035   1.228   7.286  0.0862  0.8298 -0.5890
  669MOL0     C92227   3.891   1.270   7.237 -0.0656 -0.1047 -0.5554
  669MOL0     C92228   3.830   1.394   7.306 -0.0966  0.5409  0.4615
  669MOL0    Cl92229   3.949   1.539   7.313  0.7138  0.1657 -0.1393
  669MOL0     C92230   3.526   0.602   7.603 -0.2550  0.3291  0.1806
  669MOL0     C92231   3.380   0.598   7.582  0.1359 -0.8814  0.4982
  669MOL0     O92232   3.109   0.503   7.590 -0.3911 -0.1369 -0.0849
  669MOL0     C92233   2.856   0.496   7.507 -0.1625 -0.1406  0.7867
  669MOL0     C92234   2.728   0.508   7.470 -0.5042 -0.0704  0.4849
  669MOL0     N92235   2.423   1.116   7.139 -0.3815  0.2436 -0.5037
  669MOL0     N92236   2.473   1.234   7.153 -0.4876 -0.2738  0.0280
  669MOL0     C92237   1.896   1.015   7.422  0.5731  0.6774 -0.4429
  669MOL0     C92238   1.924   0.882   7.445 -0.5092 -0.0497  0.6779
  669MOL0     C92239   1.996   0.429   7.314  0.2599 -0.3718  0.0462
  669MOL0     C92240   1.888   0.383   7.388  0.2588  0.3245  1.5287
  669MOL0     C92241   1.844   0.247   7.380 -0.5283 -0.8369 -0.7482
  669MOL0     C92242   1.923   0.155   7.302  0.3746 -0.4587 -0.4449
  669MOL0     O92243   1.887   0.026   7.288 -0.1752 -0.0425 -0.4389
  669MOL0     C92244   1.937  -0.053   7.393 -0.0412  1.3818 -0.4102
  669MOL0     C92245   1.865  -0.194   7.398  0.1327 -0.1129 -0.0395
  669MOL0     C92246   1.909  -0.286   7.280 -0.9314 -0.2930 -0.4394
  669MOL0     C92247   1.931  -0.434   7.316  0.1087  0.0113  0.7986
  669MOL0     C92248   1.999  -0.492   7.200  0.0555 -0.4769 -0.9831
  669MOL0     C92249   2.035  -0.546   7.106 -0.9400 -0.3412  0.4120
  669MOL0     C92250   2.050   0.199   7.248 -0.0734  0.4171  0.1805
  669MOL0     C92251   2.087   0.334   7.249 -0.2191 -0.8552 -0.3288
  669MOL0     C92252   2.224   0.381   7.191  0.4826  0.0629  0.1438
  669MOL0     H92253   1.834   0.735   7.156 -0.9855 -0.5059  0.7390
  669MOL0     H92254   1.784   0.983   7.106  0.7891  2.3020  0.1406
  669MOL0     H92255   1.987   1.232   7.231 -0.6666 -2.1211 -1.0813
  669MOL0     H92256   1.922   1.295   7.379 -1.0897 -0.3417 -0.3128
  669MOL0     H92257   1.816   1.365   7.096 -0.3261  0.8457 -0.2643
  669MOL0     H92258   1.759   1.445   7.247 -1.4522 -0.7384 -0.7620
  669MOL0     H92259   2.015   1.482   7.089 -2.3892 -2.1556 -1.5239
  669MOL0     H92260   1.899   1.597   7.130 -0.5704  0.0263  1.4478
  669MOL0     H92261   1.971   1.626   7.352 -1.4789 -0.4507 -1.0011
  669MOL0     H92262   2.058   1.477   7.362 -1.7243  1.6356  1.2298
  669MOL0     H92263   2.178   1.715   7.313  1.5719 -0.8256 -0.8357
  669MOL0     H92264   2.140   1.676   7.149  2.4456 -1.0138 -0.2596
  669MOL0     H92265   2.284   1.462   7.147  1.5874 -1.5499  2.1827
  669MOL0     H92266   2.350   1.621   7.172  2.5780 -2.0295  0.2614
  669MOL0     H92267   2.261   1.448   7.410  0.5833 -0.2496  1.3699
  669MOL0     H92268   2.368   1.581   7.424 -0.1382  0.8835 -1.9849
  669MOL0     H92269   2.541   1.455   7.282 -1.4396  2.6167 -0.8519
  669MOL0     H92270   2.508   1.392   7.434  1.1223  2.3362  0.0672
  669MOL0     H92271   2.289   1.213   7.418  2.1690  0.9316 -0.0110
  669MOL0     H92272   2.226   0.904   7.201  1.0056 -2.2916  1.6029
  669MOL0     H92273   2.172   1.004   7.337  1.5321  1.4601  1.7833
  669MOL0     H92274   2.366   0.935   7.471 -2.5126  1.6572  0.4938
  669MOL0     H92275   2.257   0.808   7.436  2.9313 -0.2066  3.9755
  669MOL0     H92276   2.394   0.729   7.242 -0.4334 -1.7060  1.2422
  669MOL0     H92277   2.510   0.853   7.300 -1.1217  2.1820  0.9592
  669MOL0     H92278   2.523   0.708   7.506 -1.8028  2.2818  0.2801
  669MOL0     H92279   2.385   0.615   7.446 -1.6471  1.9625  0.2063
  669MOL0     H92280   2.761   0.698   7.192 -0.9959 -1.4828 -0.6040
  669MOL0     H92281   2.976   0.718   7.125 -2.2735  1.6299  1.4001
  669MOL0     H92282   3.114   0.659   7.223  0.2142 -1.1108  1.2034
  669MOL0     H92283   3.028   0.806   7.266 -3.2991 -0.2412  0.3139
  669MOL0     H92284   3.363   0.881   7.393  0.2344 -0.2635 -0.2524
  669MOL0     H92285   3.605   0.886   7.451  0.8457 -0.6227 -0.0951
  669MOL0     H92286   3.930   0.747   7.522  0.3710 -2.3818  3.3767
  669MOL0     H92287   3.795   0.812   7.434 -0.2990 -0.7986  0.2265
  669MOL0     H92288   3.750   0.968   7.643 -0.0884  0.6895 -0.7013
  669MOL0     H92289   3.863   0.859   7.731 -0.1950  1.0487  0.9782
  669MOL0     H92290   4.046   0.934   7.570  0.3918  0.2125 -0.6752
  669MOL0     H92291   3.967   1.070   7.670 -3.9389  0.2704 -0.8238
  669MOL0     H92292   3.831   1.153   7.506 -1.7868 -1.3137  0.3105
  669MOL0     H92293   3.872   1.031   7.388  1.1983 -1.0148 -0.0491
  669MOL0     H92294   4.060   1.251   7.497  0.6016 -0.2352  0.1781
  669MOL0     H92295   4.128   1.103   7.442  1.8239  0.8936 -2.6091
  669MOL0     H92296   4.069   1.140   7.230 -2.1628 -0.9829  0.7351
  669MOL0     H92297   4.109   1.307   7.272  2.0108 -0.6924  0.4621
  669MOL0     H92298   3.823   1.185   7.243  1.9418 -1.7429  0.8099
  669MOL0     H92299   3.898   1.312   7.137 -0.5239  1.1067 -0.0950
  669MOL0     H92300   3.806   1.351   7.403  0.8018  2.4145  1.5752
  669MOL0     H92301   3.732   1.430   7.273  0.3808  1.7234  0.2525
  669MOL0     H92302   3.566   0.514   7.653 -1.0526 -2.4208 -3.6213
  669MOL0     H92303   3.323   0.520   7.633  0.0848 -1.2795 -0.1532
  669MOL0     H92304   2.878   0.449   7.602  2.4948  0.0409  0.3178
  669MOL0     H92305   2.650   0.457   7.526  0.1136 -0.0168  1.4324
  669MOL0     H92306   1.909   1.092   7.499 -0.4341  2.6104 -2.1087
  669MOL0     H92307   1.955   0.866   7.548  1.4734  3.1406  0.7272
  669MOL0     H92308   1.824   0.447   7.448 -0.9711 -0.1758  0.7940
  669MOL0     H92309   1.761   0.228   7.447 -0.2164  1.9980  0.5900
  669MOL0     H92310   2.044  -0.062   7.375 -0.4181 -0.9201 -1.9857
  669MOL0     H92311   1.912  -0.010   7.490 -2.1762 -0.6510  0.0513
  669MOL0     H92312   1.757  -0.175   7.395 -0.7511 -3.6317  2.4674
  669MOL0     H92313   1.881  -0.240   7.496 -1.8012  0.0451  0.3995
  669MOL0     H92314   1.840  -0.272   7.196  0.1979 -0.0873 -1.3523
  669MOL0     H92315   2.001  -0.245   7.238 -0.8806  1.4936  1.2782
  669MOL0     H92316   1.839  -0.490   7.334 -1.2713  2.2340  0.9740
  669MOL0     H92317   1.995  -0.450   7.403  1.0587 -1.8215 -0.1666
  669MOL0     H92318   2.056  -0.606   7.020 -1.7220 -5.3103  3.2536
  669MOL0     H92319   2.111   0.128   7.194  1.1191  0.9959  0.7322
  669MOL0     H92320   2.296   0.407   7.269 -0.0645  1.8403  0.0878
  669MOL0     H92321   2.263   0.291   7.143  0.8219 -0.7148  1.7875
  669MOL0     H92322   2.226   0.447   7.104 -0.9679 -3.0156 -2.4541
  670MOL0     O92323   7.377   3.825   3.980  0.0760  0.5691 -0.2269
  670MOL0     C92324   7.312   3.720   4.001  0.0336 -0.0514 -1.2162
  670MOL0     O92325   7.338   3.597   3.959 -0.4278 -0.2850 -0.2241
  670MOL0     C92326   7.458   3.565   3.906 -0.2795 -0.0046 -0.0188
  670MOL0     C92327   7.577   3.608   3.958  0.4435 -0.9818 -0.2966
  670MOL0     C92328   7.696   3.579   3.896  0.0757 -0.4050 -0.1197
  670MOL0     C92329   7.702   3.493   3.790 -1.0731 -0.0332  0.2084
  670MOL0     O92330   7.822   3.475   3.744  0.7432  0.3906 -0.0099
  670MOL0     C92331   7.853   3.384   3.631  0.7026  0.3019  0.3365
  670MOL0     C92332   7.843   3.458   3.497  0.5943 -0.0949  0.3195
  670MOL0     C92333   7.943   3.577   3.504  0.0647 -0.4715 -0.2403
  670MOL0     C92334   7.940   3.643   3.366  0.6808 -0.2810  0.0620
  670MOL0     C92335   8.027   3.775   3.357  0.1149 -0.3502  0.2073
  670MOL0     C92336   8.065   3.825   3.212 -0.1403 -0.2713 -0.0779
  670MOL0     C92337   7.941   3.855   3.114  0.5647 -0.5998 -0.5676
  670MOL0     C92338   7.867   3.990   3.145  0.1006 -0.4723 -0.2059
  670MOL0     N92339   7.736   3.989   3.092  0.2429  0.3193 -0.3011
  670MOL0     C92340   7.634   4.054   3.161 -0.4886 -0.4294 -0.0866
  670MOL0     C92341   7.530   4.026   3.087 -0.2333  1.3518 -0.1806
  670MOL0     C92342   7.396   4.071   3.108 -0.3759 -0.7119 -0.0788
  670MOL0     C92343   7.321   3.972   3.204  0.7111 -0.5317  0.2667
  670MOL0     C92344   7.256   3.853   3.136 -0.0389 -0.4216  0.2881
  670MOL0     C92345   7.171   3.775   3.237 -0.0647 -0.1584 -0.1123
  670MOL0     O92346   7.064   3.858   3.283 -0.3252  0.8472  0.7692
  670MOL0     C92347   6.951   3.806   3.337  0.3089 -0.2594  0.0033
  670MOL0     C92348   6.838   3.888   3.340 -0.7858 -0.9850 -0.1717
  670MOL0     C92349   6.715   3.845   3.393  0.5001 -0.7234 -0.0526
  670MOL0     C92350   6.608   3.950   3.404 -0.6043  0.1170  0.2646
  670MOL0     C92351   6.711   3.715   3.454  0.8494  0.7821  0.6418
  670MOL0     C92352   6.583   3.654   3.503 -0.6709  1.0175  0.5020
  670MOL0     O92353   6.581   3.508   3.498 -0.0263  0.4328 -0.1619
  670MOL0     C92354   6.474   3.449   3.549 -0.2731  0.3722 -0.6103
  670MOL0     C92355   6.345   3.462   3.495 -0.6979 -1.0910 -0.2110
  670MOL0     C92356   6.242   3.394   3.552  0.6258 -0.1393  0.7374
  670MOL0     C92357   6.262   3.299   3.656  0.3443  0.3774 -1.1004
  670MOL0     O92358   6.164   3.214   3.707  0.2434 -0.2423  0.6459
  670MOL0     C92359   6.034   3.193   3.646  0.4812  0.1660  0.6310
  670MOL0     C92360   5.966   3.058   3.686 -0.5881  0.3137 -0.4675
  670MOL0     C92361   6.064   2.940   3.664  0.5775  0.2669  0.0630
  670MOL0     C92362   6.048   2.887   3.521 -0.7521  0.2058  0.1859
  670MOL0     C92363   6.158   2.781   3.493  0.2295  0.4056 -0.2449
  670MOL0     C92364   6.310   2.820   3.496  0.3435  1.0608 -0.0759
  670MOL0     C92365   6.330   2.943   3.397 -0.9604 -0.3318 -0.3259
  670MOL0     C92366   6.451   3.020   3.450  0.3440 -0.0830 -0.1500
  670MOL0    Cl92367   6.507   3.142   3.331  0.1846  0.1845  0.4695
  670MOL0     C92368   6.383   3.287   3.713 -0.7060 -0.1459 -0.1470
  670MOL0     C92369   6.487   3.356   3.655  0.0410  0.9901 -0.2439
  670MOL0     O92370   6.512   3.719   3.575  0.8320 -0.3760 -0.0270
  670MOL0     C92371   6.820   3.632   3.432  0.3226 -0.0959  0.2131
  670MOL0     C92372   6.939   3.681   3.390  0.3604  0.4377 -1.1207
  670MOL0     N92373   7.570   3.948   2.979 -0.2772  0.0680 -0.0214
  670MOL0     N92374   7.698   3.934   2.976 -0.1210  0.4517  0.4628
  670MOL0     C92375   7.586   3.442   3.740 -0.1239 -0.2103  0.5020
  670MOL0     C92376   7.463   3.470   3.800  0.3421  0.3235  0.2366
  670MOL0     C92377   7.201   3.723   4.093 -0.3173  0.0331  0.0913
  670MOL0     C92378   7.099   3.830   4.079 -0.1645  0.0260 -0.0697
  670MOL0     C92379   6.996   3.844   4.173 -0.7897  0.0777  0.8823
  670MOL0     C92380   6.980   3.748   4.276 -0.4021  0.5408  0.1647
  670MOL0     O92381   6.874   3.739   4.360 -0.3469  0.4665  0.1383
  670MOL0     C92382   6.738   3.762   4.328  0.5918  0.8343  0.2457
  670MOL0     C92383   6.688   3.894   4.378  0.3670 -0.1541  0.0013
  670MOL0     C92384   6.535   3.896   4.373 -0.7664  0.3162 -0.1664
  670MOL0     C92385   6.482   4.021   4.433 -0.1207 -0.6861 -0.0079
  670MOL0     C92386   6.338   4.042   4.416 -0.0992 -0.2782 -0.7303
  670MOL0     C92387   6.219   4.047   4.389 -0.7446  0.0140 -0.3599
  670MOL0     C92388   7.080   3.647   4.289 -0.0697  0.1806  0.0336
  670MOL0     C92389   7.193   3.632   4.206  0.2028  0.1945 -0.8465
  670MOL0     C92390   7.295   3.521   4.243 -0.2892 -0.1998 -0.2382
  670MOL0     H92391   7.572   3.683   4.036 -2.4460 -0.5042 -0.8388
  670MOL0     H92392   7.788   3.618   3.937  0.8249  0.3779 -2.3767
  670MOL0     H92393   7.786   3.297   3.636 -1.7939  2.1685  1.4970
  670MOL0     H92394   7.955   3.348   3.643  0.8715  0.9133  0.7375
  670MOL0     H92395   7.861   3.396   3.409  0.3675  3.6684 -2.6327
  670MOL0     H92396   7.744   3.497   3.472  0.4591 -2.1781 -2.9445
  670MOL0     H92397   7.920   3.639   3.591 -1.5882 -0.3708 -0.7004
  670MOL0     H92398   8.043   3.546   3.536  0.9054  3.1027  0.9880
  670MOL0     H92399   7.966   3.571   3.288  0.3771  1.6608 -1.9392
  670MOL0     H92400   7.836   3.669   3.344  0.7385 -0.3979 -0.3506
  670MOL0     H92401   8.125   3.756   3.400  0.2949  0.7668  0.3308
  670MOL0     H92402   7.975   3.855   3.410 -1.1148 -1.0325  0.0856
  670MOL0     H92403   8.115   3.920   3.231  1.1720 -0.5957 -1.7263
  670MOL0     H92404   8.139   3.756   3.169 -2.2999 -1.1861 -2.5457
  670MOL0     H92405   7.860   3.783   3.130 -0.7004  0.6031 -1.3801
  670MOL0     H92406   7.985   3.843   3.014  1.1793 -3.6257 -0.0407
  670MOL0     H92407   7.866   3.993   3.255  2.5118  0.2003 -0.1449
  670MOL0     H92408   7.915   4.078   3.102 -0.1127 -0.8504 -1.2286
  670MOL0     H92409   7.640   4.111   3.252 -0.3146 -1.2452  0.4266
  670MOL0     H92410   7.343   4.098   3.016  0.3648  1.8574  0.1561
  670MOL0     H92411   7.411   4.172   3.149  1.6059 -0.1385 -2.0304
  670MOL0     H92412   7.399   3.929   3.267 -0.3182 -1.0478  1.2300
  670MOL0     H92413   7.254   4.027   3.271 -0.4683  0.0484 -1.3109
  670MOL0     H92414   7.187   3.884   3.057 -1.5293 -1.4926  1.1139
  670MOL0     H92415   7.329   3.778   3.107 -0.3852 -0.1044 -1.5045
  670MOL0     H92416   7.141   3.684   3.184  1.7565 -2.3952  2.3844
  670MOL0     H92417   7.235   3.749   3.322  0.3519  0.8376 -0.1064
  670MOL0     H92418   6.837   3.993   3.312 -3.8512 -0.7757  0.2822
  670MOL0     H92419   6.512   3.917   3.363 -1.0858  1.7767 -0.0187
  670MOL0     H92420   6.630   4.033   3.337  3.2252 -1.6687 -0.9833
  670MOL0     H92421   6.606   3.992   3.505  1.7935 -1.5756  1.1078
  670MOL0     H92422   6.329   3.504   3.396  1.2065 -1.1576 -0.5850
  670MOL0     H92423   6.149   3.408   3.499  1.2267 -0.1973 -0.3547
  670MOL0     H92424   5.968   3.272   3.681 -1.9332 -2.4245  2.3478
  670MOL0     H92425   6.049   3.208   3.538 -1.5934 -1.6900  0.0069
  670MOL0     H92426   5.928   3.067   3.788 -1.9339 -2.0615 -0.6827
  670MOL0     H92427   5.873   3.049   3.630 -0.4489  3.3220 -1.3733
  670MOL0     H92428   6.041   2.858   3.733 -0.6381 -2.6577 -3.4715
  670MOL0     H92429   6.168   2.963   3.690  1.3005 -2.0898 -0.4757
  670MOL0     H92430   6.054   2.975   3.457  0.6399 -1.6991 -2.4986
  670MOL0     H92431   5.952   2.836   3.505  0.5728 -2.7002  0.7120
  670MOL0     H92432   6.137   2.712   3.575  1.1376  0.8458  0.3704
  670MOL0     H92433   6.131   2.743   3.394  0.5378 -0.4816  0.0074
  670MOL0     H92434   6.360   2.728   3.466 -1.6788  0.2572 -1.2009
  670MOL0     H92435   6.348   2.840   3.597  0.6283  3.2066 -0.5532
  670MOL0     H92436   6.240   3.006   3.393 -1.3749 -0.9703 -2.9510
  670MOL0     H92437   6.342   2.905   3.295  1.2577  0.5818 -0.4655
  670MOL0     H92438   6.530   2.944   3.455 -0.1280 -0.5580  0.2334
  670MOL0     H92439   6.438   3.077   3.543  4.4086 -0.4611  0.8577
  670MOL0     H92440   6.408   3.226   3.799 -0.9148 -2.0119 -1.3590
  670MOL0     H92441   6.582   3.337   3.704  0.8958  3.2001 -0.8950
  670MOL0     H92442   6.810   3.527   3.459 -1.0365 -0.0031  0.1354
  670MOL0     H92443   7.021   3.610   3.384 -0.2942 -0.4794  0.2419
  670MOL0     H92444   7.599   3.389   3.646  1.4680  2.5036 -0.9113
  670MOL0     H92445   7.372   3.437   3.752  0.1954  1.7792 -0.5308
  670MOL0     H92446   7.104   3.894   3.991  0.3403  1.5807  1.0322
  670MOL0     H92447   6.925   3.924   4.158  0.1325  0.8907  0.8012
  670MOL0     H92448   6.728   3.756   4.219  0.0554 -1.2101  0.3602
  670MOL0     H92449   6.680   3.684   4.377  1.6989 -1.5303 -1.9625
  670MOL0     H92450   6.738   3.983   4.338 -0.1816  0.0571 -0.2163
  670MOL0     H92451   6.705   3.896   4.486 -1.8160 -0.7697  0.4032
  670MOL0     H92452   6.491   3.881   4.274 -0.5068  1.9406 -0.5533
  670MOL0     H92453   6.501   3.817   4.441 -2.1821  0.8311 -0.2461
  670MOL0     H92454   6.524   4.101   4.371  0.3774 -2.9523 -2.7509
  670MOL0     H92455   6.495   4.036   4.541 -0.9518  1.0944 -0.1123
  670MOL0     H92456   6.117   4.041   4.356  0.2790  0.2588 -3.9732
  670MOL0     H92457   7.060   3.585   4.377 -0.6649  0.8514  0.3800
  670MOL0     H92458   7.397   3.558   4.231 -0.7101  0.8461 -0.7617
  670MOL0     H92459   7.290   3.477   4.343 -0.6277  1.5673  0.5617
  670MOL0     H92460   7.271   3.431   4.186 -0.0339  0.8126 -2.0121
  671MOL0     O92461   3.953   4.634   6.148 -0.1113 -0.0594  0.4150
  671MOL0     C92462   4.026   4.540   6.125  0.4556  0.1534  0.6579
  671MOL0     O92463   4.123   4.491   6.208 -0.0976 -0.6517 -0.0193
  671MOL0     C92464   4.136   4.555   6.330 -0.2176 -0.1774  0.2423
  671MOL0     C92465   4.214   4.671   6.339  0.1626 -0.2392  0.5021
  671MOL0     C92466   4.216   4.735   6.458 -0.1462  0.1609 -0.6890
  671MOL0     C92467   4.128   4.699   6.561 -0.1887  0.1373  0.0585
  671MOL0     O92468   4.125   4.779   6.672 -0.5061  1.0702  0.0764
  671MOL0     C92469   4.034   4.756   6.779  0.4054  0.1930 -0.0584
  671MOL0     C92470   4.073   4.864   6.884 -0.0964 -0.6605  0.2812
  671MOL0     C92471   4.195   4.818   6.955  0.5052 -0.4382  0.0891
  671MOL0     C92472   4.240   4.907   7.075  0.1993  0.1146 -0.2768
  671MOL0     C92473   4.346   4.850   7.154 -0.3337  0.0517 -0.6601
  671MOL0     C92474   4.397   4.943   7.254  0.4550  0.6007 -0.5563
  671MOL0     C92475   4.504   4.873   7.340  0.2090  0.3867 -0.4742
  671MOL0     C92476   4.575   4.966   7.439  0.2260 -0.2482  0.3609
  671MOL0     N92477   4.657   4.890   7.530 -0.1499  0.0823  0.3177
  671MOL0     C92478   4.785   4.846   7.508 -0.0993 -0.0648  0.0984
  671MOL0     C92479   4.824   4.782   7.619 -0.6835 -0.5807 -0.4535
  671MOL0     C92480   4.965   4.734   7.638 -0.4348  0.4908  0.5732
  671MOL0     C92481   4.980   4.589   7.587 -0.1760 -0.2595  0.2771
  671MOL0     C92482   5.124   4.541   7.621 -0.1106  1.0669  0.4757
  671MOL0     C92483   5.135   4.391   7.578  0.3295  0.0277 -0.2880
  671MOL0     O92484   5.119   4.375   7.431 -0.1341 -0.1171  0.2777
  671MOL0     C92485   5.229   4.404   7.348  1.1415  0.4649  0.5072
  671MOL0     C92486   5.358   4.426   7.384 -0.0890  0.2658  0.4006
  671MOL0     C92487   5.453   4.455   7.278  0.5594  0.2311  0.8705
  671MOL0     C92488   5.595   4.490   7.327 -0.2851 -0.1022  0.2495
  671MOL0     C92489   5.412   4.442   7.140 -0.7002 -0.3559  0.4484
  671MOL0     C92490   5.502   4.453   7.025  0.0740 -0.0781  0.3572
  671MOL0     O92491   5.626   4.390   7.045  0.0984  0.0764 -0.1065
  671MOL0     C92492   5.731   4.423   6.956  0.1635  0.2171  0.7240
  671MOL0     C92493   5.816   4.321   6.912 -0.4151 -0.2731 -0.2439
  671MOL0     C92494   5.939   4.350   6.840 -0.6672  0.5191  0.2854
  671MOL0     C92495   5.972   4.478   6.798  0.1539 -0.3913  0.1581
  671MOL0     O92496   6.079   4.520   6.721 -0.6289 -0.3823 -0.0693
  671MOL0     C92497   6.160   4.424   6.662 -0.4545  0.1346 -1.2991
  671MOL0     C92498   6.296   4.502   6.654 -0.3058  0.0526  0.6841
  671MOL0     C92499   6.412   4.408   6.600  0.2232  0.6733 -0.2001
  671MOL0     C92500   6.547   4.485   6.599  0.1668  0.6665  0.0590
  671MOL0     C92501   6.656   4.408   6.534  1.1508  0.2605 -0.2107
  671MOL0     C92502   6.786   4.466   6.547 -1.0512 -0.0637  1.3662
  671MOL0     C92503   6.863   4.435   6.682  0.7503 -0.5260 -0.2305
  671MOL0     C92504   7.006   4.482   6.680  0.1442  0.7779 -1.1395
  671MOL0    Cl92505   7.018   4.661   6.713  0.1785  0.0910  0.2549
  671MOL0     C92506   5.885   4.574   6.840  0.6633 -0.3824 -0.3044
  671MOL0     C92507   5.771   4.551   6.919 -0.1679 -0.3397  0.4346
  671MOL0     O92508   5.445   4.496   6.919  0.0335  0.1448 -1.4574
  671MOL0     C92509   5.281   4.409   7.114  0.8775  0.2105  0.1505
  671MOL0     C92510   5.185   4.396   7.210  0.4761  0.4357 -0.7762
  671MOL0     N92511   4.723   4.781   7.713 -0.2271 -0.1655 -0.7555
  671MOL0     N92512   4.623   4.848   7.656 -0.4302 -0.0502  0.2754
  671MOL0     C92513   4.038   4.593   6.543 -0.5089 -0.4931  0.2871
  671MOL0     C92514   4.055   4.515   6.424  0.2169  0.1290  0.1067
  671MOL0     C92515   3.985   4.457   6.006 -0.5467 -0.4288 -0.5249
  671MOL0     C92516   3.959   4.527   5.888 -0.1867 -0.6435 -0.7069
  671MOL0     C92517   3.923   4.466   5.773  1.0310 -0.6775 -0.2951
  671MOL0     C92518   3.914   4.330   5.765 -0.6080 -0.6173 -0.6909
  671MOL0     O92519   3.890   4.251   5.657 -0.2025  0.3023 -0.0926
  671MOL0     C92520   3.883   4.311   5.523  0.9087 -0.4437 -0.6437
  671MOL0     C92521   3.741   4.357   5.487  0.1996 -0.1847 -0.6650
  671MOL0     C92522   3.739   4.444   5.362  0.7496 -0.1995  0.1350
  671MOL0     C92523   3.749   4.586   5.397 -0.5826  0.0134  0.0405
  671MOL0     C92524   3.654   4.647   5.491 -0.1395 -1.1276  0.1470
  671MOL0     C92525   3.571   4.704   5.554  0.4934 -0.0575  0.4561
  671MOL0     C92526   3.923   4.258   5.881 -0.4728 -0.2778 -0.2448
  671MOL0     C92527   3.958   4.316   6.004  0.2063 -0.6544 -0.4484
  671MOL0     C92528   3.970   4.227   6.127  0.0355 -0.0434 -0.5085
  671MOL0     H92529   4.269   4.710   6.254 -2.1242  0.3037 -0.8009
  671MOL0     H92530   4.279   4.823   6.470  1.7584 -1.3340  1.0024
  671MOL0     H92531   4.046   4.656   6.824 -2.2755 -1.0651 -1.8827
  671MOL0     H92532   3.934   4.753   6.736  0.0936 -0.1570  0.6585
  671MOL0     H92533   4.089   4.959   6.833 -1.9278 -1.0993 -1.2402
  671MOL0     H92534   3.986   4.874   6.950  1.0151 -2.0725  2.0585
  671MOL0     H92535   4.166   4.722   6.997  0.6939 -0.9192 -0.8434
  671MOL0     H92536   4.281   4.801   6.889 -0.1213 -0.0377 -0.8616
  671MOL0     H92537   4.274   5.000   7.028  1.4636 -1.0644 -1.8519
  671MOL0     H92538   4.159   4.935   7.143  0.5664 -0.8271  0.5751
  671MOL0     H92539   4.426   4.811   7.090  0.8165 -0.2512  0.8875
  671MOL0     H92540   4.307   4.761   7.203  1.1118 -0.2143  0.0860
  671MOL0     H92541   4.444   5.024   7.199 -0.6454  1.3144 -0.4828
  671MOL0     H92542   4.321   4.995   7.313 -0.3017 -0.3384 -0.6713
  671MOL0     H92543   4.577   4.817   7.280 -1.4759 -3.1504  0.4916
  671MOL0     H92544   4.461   4.796   7.405  2.2125  0.1688  0.7020
  671MOL0     H92545   4.650   5.020   7.380  1.5597 -0.9499  1.3487
  671MOL0     H92546   4.513   5.035   7.496 -1.5158 -0.2739 -1.3902
  671MOL0     H92547   4.843   4.865   7.419 -1.8848 -0.8315 -1.2760
  671MOL0     H92548   5.000   4.730   7.742  4.4738 -1.2235 -0.8298
  671MOL0     H92549   5.034   4.801   7.586  1.0619 -0.9292  0.6468
  671MOL0     H92550   4.908   4.526   7.640  1.3650 -0.8610  1.7453
  671MOL0     H92551   4.952   4.591   7.481  0.7101 -0.5558  0.0274
  671MOL0     H92552   5.197   4.599   7.564  1.8978  1.3786  3.1700
  671MOL0     H92553   5.146   4.543   7.728 -0.6344 -1.0276  0.6629
  671MOL0     H92554   5.236   4.358   7.604  0.1348  1.3085  2.3809
  671MOL0     H92555   5.060   4.332   7.632 -1.7355  2.6907 -0.0527
  671MOL0     H92556   5.387   4.438   7.488 -1.7206 -3.7600  1.5072
  671MOL0     H92557   5.663   4.412   7.292  2.1264  1.3702  1.3548
  671MOL0     H92558   5.607   4.491   7.436 -0.3862 -0.5043  0.2670
  671MOL0     H92559   5.633   4.584   7.285  0.7829 -0.7059 -0.1764
  671MOL0     H92560   5.798   4.217   6.935  0.1897 -0.4366 -0.4996
  671MOL0     H92561   6.002   4.265   6.815 -0.1689  0.5227  1.4400
  671MOL0     H92562   6.175   4.330   6.716 -0.6719 -0.0411 -1.5396
  671MOL0     H92563   6.115   4.395   6.566 -0.1490  1.3586 -1.8241
  671MOL0     H92564   6.300   4.584   6.581 -0.4182  2.1970  2.9456
  671MOL0     H92565   6.317   4.554   6.748 -2.4030  3.8251 -0.6923
  671MOL0     H92566   6.398   4.374   6.497  1.0661  2.7634 -1.0734
  671MOL0     H92567   6.417   4.314   6.654  2.1457 -0.0028 -1.4710
  671MOL0     H92568   6.575   4.506   6.702 -1.4604 -0.1474  0.6925
  671MOL0     H92569   6.538   4.582   6.548 -0.7064 -0.1218 -1.3340
  671MOL0     H92570   6.651   4.309   6.580  0.3216  0.2610 -0.2886
  671MOL0     H92571   6.629   4.389   6.430 -0.0071  0.5299  0.0265
  671MOL0     H92572   6.774   4.574   6.535 -0.2329 -0.1867 -0.8903
  671MOL0     H92573   6.847   4.432   6.463  1.0631  1.7925  2.0727
  671MOL0     H92574   6.854   4.328   6.705  1.4965 -0.6247 -0.3796
  671MOL0     H92575   6.810   4.496   6.755  1.3165  1.9985 -1.8039
  671MOL0     H92576   7.041   4.467   6.577 -0.1241  2.7797 -1.5698
  671MOL0     H92577   7.055   4.428   6.761 -2.4246 -1.5330 -0.9937
  671MOL0     H92578   5.915   4.674   6.811 -0.7651  0.5958  1.4112
  671MOL0     H92579   5.715   4.633   6.962  2.3882  2.0084 -0.4665
  671MOL0     H92580   5.243   4.393   7.014  1.2351  1.5246 -0.2111
  671MOL0     H92581   5.078   4.380   7.201  0.4870 -1.4357  1.4794
  671MOL0     H92582   3.963   4.561   6.614  0.0489  2.8955  2.6480
  671MOL0     H92583   3.994   4.426   6.416 -1.2764  1.1440 -0.1580
  671MOL0     H92584   3.963   4.635   5.888  0.1812 -0.6429  0.5547
  671MOL0     H92585   3.892   4.520   5.684 -1.6101 -3.9676 -1.5636
  671MOL0     H92586   3.964   4.382   5.506  0.0824  0.8580  0.6350
  671MOL0     H92587   3.902   4.226   5.456 -1.9313 -0.1589 -1.9876
  671MOL0     H92588   3.696   4.406   5.574 -2.3733 -3.1190 -0.1180
  671MOL0     H92589   3.681   4.266   5.476  1.5236 -1.4770  2.0198
  671MOL0     H92590   3.811   4.412   5.286  1.7007  0.3393  0.7935
  671MOL0     H92591   3.639   4.426   5.321  0.9044  1.4292 -1.0727
  671MOL0     H92592   3.733   4.647   5.307  0.4008  0.7711  0.3577
  671MOL0     H92593   3.849   4.599   5.440 -0.8992  2.3406  0.1817
  671MOL0     H92594   3.504   4.751   5.623  1.6460  1.8646  0.3329
  671MOL0     H92595   3.890   4.156   5.866 -0.0162 -0.6803  1.3010
  671MOL0     H92596   4.001   4.126   6.100 -1.8217 -0.0565 -3.0768
  671MOL0     H92597   4.037   4.267   6.203 -1.6697  3.0520 -0.4644
  671MOL0     H92598   3.878   4.217   6.186 -0.0259 -1.2981 -0.7952
  672MOL0     O92599   7.519  10.069   4.918  0.0752 -0.4873 -0.6735
  672MOL0     C92600   7.543  10.115   5.029 -0.7945  0.0372 -0.2826
  672MOL0     O92601   7.650  10.197   5.063 -0.3538  0.5263  0.1006
  672MOL0     C92602   7.732  10.224   4.960  0.1356 -0.3412  0.6438
  672MOL0     C92603   7.838  10.145   4.922  0.1179  0.4217 -0.2732
  672MOL0     C92604   7.919  10.172   4.815  0.2424 -0.1987  0.0714
  672MOL0     C92605   7.911  10.292   4.754 -0.0700 -0.3343  0.1773
  672MOL0     O92606   7.999  10.306   4.652 -0.4535 -0.4181  0.7961
  672MOL0     C92607   8.038  10.447   4.624 -0.8878  0.2118 -0.1923
  672MOL0     C92608   8.169  10.439   4.549 -0.1234 -0.8749  0.0974
  672MOL0     C92609   8.282  10.385   4.642 -0.5119 -0.0317 -0.1669
  672MOL0     C92610   8.394  10.304   4.570 -0.0547 -0.1447  0.1251
  672MOL0     C92611   8.507  10.381   4.497 -0.6764 -0.5065 -0.0334
  672MOL0     C92612   8.444  10.431   4.368  0.0944 -0.2523 -0.9534
  672MOL0     C92613   8.561  10.459   4.267  0.7648  0.3196  0.2215
  672MOL0     C92614   8.502  10.539   4.153 -0.1262  0.1710 -0.6263
  672MOL0     N92615   8.604  10.599   4.061  0.2588 -0.4911 -0.5782
  672MOL0     C92616   8.699  10.698   4.086 -0.9390  0.7208  0.0910
  672MOL0     C92617   8.754  10.725   3.961 -0.0828  1.0299 -0.5896
  672MOL0     C92618   8.861  10.823   3.934  0.0396 -0.8921  0.8640
  672MOL0     C92619   8.979  10.759   3.847  0.4203  0.6127 -1.1240
  672MOL0     C92620   8.960  10.760   3.696  0.1379  0.0952 -0.3025
  672MOL0     C92621   9.092  10.787   3.622 -0.5111  0.6250  0.8264
  672MOL0     O92622   9.197  10.705   3.684 -0.3378  0.6214  0.2192
  672MOL0     C92623   9.264  10.623   3.596  0.1786 -0.0016 -0.3644
  672MOL0     C92624   9.242  10.490   3.576  0.1276  0.8245 -0.4157
  672MOL0     C92625   9.336  10.401   3.518  0.1922 -0.4838 -0.4377
  672MOL0     C92626   9.299  10.253   3.517 -0.2002 -0.7168  0.0751
  672MOL0     C92627   9.461  10.451   3.475 -0.0777 -0.7053  0.0549
  672MOL0     C92628   9.581  10.379   3.427  0.3165  0.4433 -0.4335
  672MOL0     O92629   9.693  10.443   3.376  0.6977  0.0632  0.0052
  672MOL0     C92630   9.793  10.363   3.338 -0.3337  0.6639  0.0588
  672MOL0     C92631   9.783  10.302   3.212 -0.1343  0.4252 -0.0013
  672MOL0     C92632   9.885  10.217   3.161 -0.6759 -0.2928 -0.4576
  672MOL0     C92633   9.998  10.196   3.241 -0.4245 -0.8680  0.3063
  672MOL0     O92634  10.103  10.131   3.182  0.6777 -0.8849  0.2221
  672MOL0     C92635  10.227  10.112   3.250 -0.6839 -0.4071 -0.3279
  672MOL0     C92636  10.326  10.021   3.171 -0.1382 -0.0841 -0.1027
  672MOL0     C92637  10.256   9.898   3.112  0.4648  0.3444 -0.1732
  672MOL0     C92638  10.356   9.781   3.086 -0.2267 -0.1071 -0.3831
  672MOL0     C92639  10.465   9.823   2.989 -0.8033  0.1829 -0.1055
  672MOL0     C92640  10.540   9.696   2.954  0.5884 -0.1167 -0.2878
  672MOL0     C92641  10.661   9.724   2.864 -0.4760  0.5424 -0.2616
  672MOL0     C92642  10.688   9.606   2.776  0.1669 -0.3901  0.5646
  672MOL0    Cl92643  10.843   9.613   2.693 -0.1811 -0.1553 -0.4878
  672MOL0     C92644  10.007  10.253   3.365  0.3135  0.7327  0.3332
  672MOL0     C92645   9.905  10.332   3.414 -0.1874 -0.0041 -0.2806
  672MOL0     O92646   9.580  10.255   3.448  0.6399 -0.5265  0.3710
  672MOL0     C92647   9.482  10.591   3.496 -0.3862  0.2608 -0.1051
  672MOL0     C92648   9.391  10.675   3.554  0.7632  0.4311  0.2960
  672MOL0     N92649   8.692  10.636   3.872 -0.6663 -0.6717  0.0697
  672MOL0     N92650   8.608  10.564   3.928  0.1074  0.7851 -0.9269
  672MOL0     C92651   7.807  10.382   4.780  0.3792 -0.2845  0.1911
  672MOL0     C92652   7.714  10.342   4.882  0.5921  0.9454  0.4026
  672MOL0     C92653   7.458  10.074   5.138 -0.3149  0.0517  0.3275
  672MOL0     C92654   7.519  10.056   5.258  0.0706 -0.2157  0.5565
  672MOL0     C92655   7.432  10.033   5.369  0.5089  0.4024  0.9952
  672MOL0     C92656   7.287  10.029   5.354 -0.4130  0.4680 -0.0306
  672MOL0     O92657   7.217  10.017   5.471  0.5822 -0.2076  0.7332
  672MOL0     C92658   7.071  10.025   5.472 -0.8286 -0.1209 -0.1575
  672MOL0     C92659   7.014  10.030   5.611  0.5006  0.1022  0.1324
  672MOL0     C92660   6.869  10.071   5.603  0.5180 -0.3230  0.0382
  672MOL0     C92661   6.818  10.081   5.747 -0.7132  0.3282 -0.8197
  672MOL0     C92662   6.676  10.118   5.756 -0.6569 -0.5339  0.1041
  672MOL0     C92663   6.562  10.159   5.746 -0.1504 -0.5795  0.4061
  672MOL0     C92664   7.242  10.028   5.225  0.4186 -0.1073 -0.6133
  672MOL0     C92665   7.324  10.048   5.116  0.1292  0.1128  1.0195
  672MOL0     C92666   7.246  10.059   4.985 -1.2508 -0.0595  0.1212
  672MOL0     H92667   7.851  10.061   4.990 -0.3847  2.8176  3.0293
  672MOL0     H92668   7.991  10.095   4.789 -3.1241 -3.4291 -0.4946
  672MOL0     H92669   8.048  10.501   4.719  0.5408 -0.4918  0.0843
  672MOL0     H92670   7.963  10.489   4.556 -0.2962 -1.0984 -1.7085
  672MOL0     H92671   8.156  10.383   4.457 -1.8318  2.9049 -2.2383
  672MOL0     H92672   8.204  10.538   4.517 -0.9432 -0.6403 -0.1102
  672MOL0     H92673   8.330  10.460   4.706  0.3613 -0.9130  0.2490
  672MOL0     H92674   8.238  10.318   4.717 -1.3300 -0.7956 -1.3004
  672MOL0     H92675   8.448  10.240   4.641 -0.8291 -1.0732 -0.1070
  672MOL0     H92676   8.346  10.232   4.503  1.8819  1.8913 -3.7417
  672MOL0     H92677   8.582  10.311   4.459 -0.6595  0.4502 -1.8488
  672MOL0     H92678   8.552  10.462   4.555 -1.1354 -0.0140 -0.3576
  672MOL0     H92679   8.378  10.355   4.323  1.0511 -0.1009 -2.6843
  672MOL0     H92680   8.372  10.508   4.398 -0.2669 -1.5278  1.8167
  672MOL0     H92681   8.615  10.372   4.228 -1.1728 -1.2555  0.8740
  672MOL0     H92682   8.623  10.529   4.324 -2.1184  1.5640  2.0659
  672MOL0     H92683   8.437  10.477   4.091 -0.8057 -1.2532  1.4111
  672MOL0     H92684   8.432  10.616   4.189 -3.7167 -3.1799  0.2767
  672MOL0     H92685   8.730  10.750   4.176 -2.6340  2.1913 -0.1163
  672MOL0     H92686   8.907  10.864   4.024 -1.7866  0.2843  1.3185
  672MOL0     H92687   8.813  10.893   3.865  1.6904 -2.4076 -2.0229
  672MOL0     H92688   9.067  10.820   3.870 -0.4190  0.5230  3.4094
  672MOL0     H92689   8.999  10.659   3.886 -0.6115  0.7418 -0.1799
  672MOL0     H92690   8.938  10.656   3.669  2.1992 -1.3307  2.8745
  672MOL0     H92691   8.881  10.829   3.665 -0.7706  0.0356  1.7206
  672MOL0     H92692   9.075  10.749   3.521  1.8601  1.1527  0.1750
  672MOL0     H92693   9.105  10.896   3.625  0.6809  0.4746  2.7041
  672MOL0     H92694   9.145  10.454   3.607  1.5711 -3.2434 -0.0047
  672MOL0     H92695   9.192  10.242   3.537  0.1541 -1.0086  2.0295
  672MOL0     H92696   9.355  10.215   3.604 -2.7839 -0.3541  2.0197
  672MOL0     H92697   9.332  10.203   3.425 -1.5738 -1.7076  0.0882
  672MOL0     H92698   9.694  10.322   3.152 -0.2418 -1.3930 -0.4832
  672MOL0     H92699   9.872  10.169   3.065 -1.9944 -0.4181 -0.2326
  672MOL0     H92700  10.272  10.210   3.266  0.5239 -1.1436  0.9724
  672MOL0     H92701  10.200  10.075   3.349 -1.0976  1.7816  0.4345
  672MOL0     H92702  10.372  10.085   3.095  2.1024  0.3518  1.5121
  672MOL0     H92703  10.411   9.980   3.227  0.3506  0.2802 -0.5717
  672MOL0     H92704  10.216   9.931   3.015 -1.5224 -2.1090 -0.2970
  672MOL0     H92705  10.172   9.858   3.170  0.0848 -1.0236 -1.5776
  672MOL0     H92706  10.300   9.699   3.038  1.3719 -0.8618 -1.0175
  672MOL0     H92707  10.399   9.742   3.179  0.2123  1.1660 -0.0294
  672MOL0     H92708  10.414   9.865   2.902 -3.4448 -1.2331  0.6428
  672MOL0     H92709  10.532   9.892   3.040 -2.0041  0.6024  0.9719
  672MOL0     H92710  10.474   9.622   2.909  0.0067  0.5348 -0.5115
  672MOL0     H92711  10.581   9.639   3.038 -2.3449 -0.7294  0.8403
  672MOL0     H92712  10.744   9.751   2.930 -0.0942 -3.3148  1.0955
  672MOL0     H92713  10.652   9.814   2.802  1.8448 -0.5137 -2.2950
  672MOL0     H92714  10.613   9.592   2.697 -1.4516  0.6015  1.8714
  672MOL0     H92715  10.689   9.515   2.837 -1.5477 -1.8450 -1.4127
  672MOL0     H92716  10.088  10.221   3.430 -0.4641 -2.8000 -0.2180
  672MOL0     H92717   9.919  10.367   3.516 -2.2314 -1.6905  0.6429
  672MOL0     H92718   9.581  10.631   3.479  0.9081 -2.3288  0.7482
  672MOL0     H92719   9.402  10.782   3.552  0.0173  0.5214 -1.8804
  672MOL0     H92720   7.792  10.471   4.719  0.9885 -2.5186 -3.5153
  672MOL0     H92721   7.634  10.408   4.916 -0.8204 -0.0557 -0.8798
  672MOL0     H92722   7.626  10.053   5.275  0.9512 -0.1639 -3.8227
  672MOL0     H92723   7.463  10.014   5.471 -1.5953  1.5058  1.9130
  672MOL0     H92724   7.031  10.101   5.404  0.1490 -0.3773 -1.0517
  672MOL0     H92725   7.036   9.932   5.425  3.4734 -1.8909 -0.2479
  672MOL0     H92726   7.069  10.104   5.670 -0.7116  1.6840 -0.6434
  672MOL0     H92727   7.029   9.928   5.648  0.2194 -0.5623 -1.4981
  672MOL0     H92728   6.844  10.162   5.548 -2.3390 -0.2916  1.1843
  672MOL0     H92729   6.817   9.986   5.556  0.6275 -1.6027  2.1028
  672MOL0     H92730   6.870  10.164   5.797  0.7774 -0.7382 -0.5149
  672MOL0     H92731   6.838   9.987   5.800  3.4020 -0.3609 -3.1589
  672MOL0     H92732   6.463  10.198   5.741 -0.0419 -0.2254  0.9960
  672MOL0     H92733   7.136  10.023   5.202  0.1327  1.8221  0.0896
  672MOL0     H92734   7.140  10.034   4.993 -1.5905  0.8728 -1.2633
  672MOL0     H92735   7.258  10.161   4.949 -0.7956 -0.5511 -1.1751
  672MOL0     H92736   7.292   9.989   4.914  4.4411  2.4654  0.7258
  673MOL0     O92737   1.355  10.308   0.968  0.5041  0.0906 -0.0735
  673MOL0     C92738   1.280  10.358   1.051  0.7897  0.5531  0.2240
  673MOL0     O92739   1.277  10.333   1.190 -0.0385  0.1123 -0.2424
  673MOL0     C92740   1.390  10.284   1.259 -0.3933 -0.2589  0.6052
  673MOL0     C92741   1.366  10.228   1.388  0.4248 -0.2711  0.0711
  673MOL0     C92742   1.468  10.180   1.467  0.2409  0.5878 -0.1399
  673MOL0     C92743   1.605  10.204   1.433  0.1835  0.0620  0.4618
  673MOL0     O92744   1.688  10.178   1.536 -0.5175 -0.4441  0.2326
  673MOL0     C92745   1.824  10.222   1.514  0.1540 -0.6851  0.3273
  673MOL0     C92746   1.890  10.191   1.648 -0.2370 -0.7180  0.7509
  673MOL0     C92747   2.037  10.174   1.628  0.2610  0.4728 -0.6759
  673MOL0     C92748   2.099  10.140   1.772  0.1147  0.3468  0.2521
  673MOL0     C92749   2.243  10.087   1.747  0.3194 -0.5319 -0.6107
  673MOL0     C92750   2.301  10.031   1.878 -0.6585 -0.0513  0.1091
  673MOL0     C92751   2.418   9.933   1.844  0.8278 -0.7120  0.7392
  673MOL0     C92752   2.466   9.856   1.967  0.3480  0.4180  0.6992
  673MOL0     N92753   2.583   9.763   1.956  0.7416 -0.0668 -0.3678
  673MOL0     C92754   2.596   9.646   1.882 -0.2923 -0.0068 -0.2960
  673MOL0     C92755   2.728   9.615   1.881 -0.2597 -0.7267 -0.3949
  673MOL0     C92756   2.796   9.504   1.801 -0.3766  0.1377  0.2842
  673MOL0     C92757   2.780   9.371   1.878  0.5135  0.4504 -0.0568
  673MOL0     C92758   2.887   9.377   1.982  0.7297 -0.1033 -0.0215
  673MOL0     C92759   2.884   9.270   2.095  0.1487 -0.1966  0.5906
  673MOL0     O92760   2.950   9.149   2.069  0.0092  0.3163 -0.3536
  673MOL0     C92761   3.075   9.137   2.118 -0.4823  0.0086 -0.3821
  673MOL0     C92762   3.096   9.043   2.217  0.1846  0.5220  0.2067
  673MOL0     C92763   3.230   9.013   2.262 -0.1203 -0.0092  0.2790
  673MOL0     C92764   3.246   8.897   2.359 -0.4629  0.0363 -0.2946
  673MOL0     C92765   3.340   9.086   2.205  0.4727 -0.6816 -0.3033
  673MOL0     C92766   3.485   9.048   2.239  0.4946  0.2649 -0.1684
  673MOL0     O92767   3.518   8.977   2.352 -0.0366  0.0150 -0.4144
  673MOL0     C92768   3.648   8.979   2.397 -0.2783  0.1337 -0.3434
  673MOL0     C92769   3.752   8.928   2.328 -0.1370  0.9320  0.4055
  673MOL0     C92770   3.876   8.931   2.390  0.3327  0.5057 -0.1821
  673MOL0     C92771   3.895   8.984   2.517  0.6838 -1.0701 -0.6385
  673MOL0     O92772   4.025   8.989   2.558  0.3222  0.0343 -0.3933
  673MOL0     C92773   4.058   8.986   2.693 -0.3009 -0.4023 -0.2840
  673MOL0     C92774   4.210   8.976   2.720 -0.4783  0.6602  1.0379
  673MOL0     C92775   4.256   8.826   2.718  0.3774  1.0125  0.1493
  673MOL0     C92776   4.410   8.799   2.723 -0.5728 -0.1425  0.4030
  673MOL0     C92777   4.440   8.652   2.696 -0.5643 -0.1810 -0.5827
  673MOL0     C92778   4.588   8.630   2.695 -0.8661  0.4955 -0.2111
  673MOL0     C92779   4.612   8.474   2.686  0.4202 -0.9636 -0.5754
  673MOL0     C92780   4.748   8.438   2.635  0.0072  0.4959  0.5739
  673MOL0    Cl92781   4.770   8.468   2.463  0.2783 -0.1268  0.1499
  673MOL0     C92782   3.785   9.037   2.596  0.2982 -0.1420  0.7639
  673MOL0     C92783   3.664   9.029   2.527 -0.6720  0.1622 -0.1189
  673MOL0     O92784   3.571   9.082   2.159  0.4859 -0.7477 -0.5020
  673MOL0     C92785   3.314   9.200   2.120 -0.7589 -0.1329 -0.3759
  673MOL0     C92786   3.184   9.216   2.075 -0.2189 -0.0555 -0.4279
  673MOL0     N92787   2.799   9.715   1.960 -0.4687  0.0097  0.2969
  673MOL0     N92788   2.706   9.796   2.005 -0.1516  0.2758 -0.3337
  673MOL0     C92789   1.630  10.250   1.305 -0.0785 -0.4946 -0.6004
  673MOL0     C92790   1.528  10.292   1.216 -0.6537 -0.6901  0.2675
  673MOL0     C92791   1.175  10.447   0.991 -0.1833  0.0182  0.7353
  673MOL0     C92792   1.208  10.508   0.870 -0.5480 -0.6552  0.5998
  673MOL0     C92793   1.124  10.593   0.805 -0.0453 -0.1821 -0.3947
  673MOL0     C92794   1.010  10.633   0.875  0.5235  0.1074  0.5216
  673MOL0     O92795   0.934  10.748   0.828  0.5207  0.3488  0.5673
  673MOL0     C92796   0.796  10.764   0.878  0.0020  1.3639 -0.3665
  673MOL0     C92797   0.714  10.836   0.774 -0.5363  0.1171 -0.2526
  673MOL0     C92798   0.664  10.779   0.643 -0.0018 -0.1589 -0.7883
  673MOL0     C92799   0.567  10.870   0.568 -0.9287 -0.0045  0.5657
  673MOL0     C92800   0.431  10.839   0.607 -0.4572 -0.3131 -0.3804
  673MOL0     C92801   0.330  10.801   0.653 -0.5868  0.3377  0.3853
  673MOL0     C92802   0.976  10.574   0.993 -0.1367 -0.0068 -0.8030
  673MOL0     C92803   1.053  10.479   1.051  0.2200  0.7912 -0.1191
  673MOL0     C92804   1.002  10.420   1.174 -0.2383 -0.5480 -0.2243
  673MOL0     H92805   1.264  10.216   1.421 -0.0589  2.1659 -0.3559
  673MOL0     H92806   1.440  10.123   1.555 -2.0641  0.9447 -0.5846
  673MOL0     H92807   1.839  10.328   1.492  0.7508 -0.7506  0.4021
  673MOL0     H92808   1.861  10.161   1.431 -0.4114 -0.3892 -0.1414
  673MOL0     H92809   1.859  10.278   1.706  0.6751  0.9871 -1.1823
  673MOL0     H92810   1.851  10.094   1.681 -0.1501 -1.9833 -2.5194
  673MOL0     H92811   2.056  10.104   1.546 -0.2854 -0.2193 -0.2257
  673MOL0     H92812   2.085  10.268   1.597 -1.6894  1.2036 -1.6516
  673MOL0     H92813   2.107  10.229   1.835 -1.9495 -1.3997  3.2168
  673MOL0     H92814   2.038  10.060   1.813  0.2254 -1.0185 -2.0433
  673MOL0     H92815   2.308  10.173   1.732 -0.3341  0.3258  1.2213
  673MOL0     H92816   2.245  10.011   1.668 -0.3382  0.8916 -2.0625
  673MOL0     H92817   2.337  10.118   1.934  0.5824 -0.7380  0.4437
  673MOL0     H92818   2.225   9.971   1.928 -3.2471  1.9237 -1.2671
  673MOL0     H92819   2.509   9.981   1.805  0.1386  0.6997  0.8142
  673MOL0     H92820   2.382   9.860   1.771  0.7840 -0.6834  0.7329
  673MOL0     H92821   2.491   9.927   2.046 -0.3709 -0.0107  1.3215
  673MOL0     H92822   2.382   9.789   1.985  1.6882 -2.8945 -3.6218
  673MOL0     H92823   2.513   9.597   1.832  0.6662  0.5635 -2.5969
  673MOL0     H92824   2.900   9.526   1.777 -0.3368 -0.5123 -0.1530
  673MOL0     H92825   2.741   9.505   1.706  0.3841 -1.4602 -0.1930
  673MOL0     H92826   2.680   9.366   1.921 -0.1923  1.4411 -1.4769
  673MOL0     H92827   2.799   9.286   1.812  1.7970 -0.5649  1.5551
  673MOL0     H92828   2.981   9.358   1.930  0.5995  0.1444 -0.3504
  673MOL0     H92829   2.889   9.474   2.034 -0.8553 -0.5997  1.0722
  673MOL0     H92830   2.936   9.307   2.184  0.1174  2.6710 -0.4667
  673MOL0     H92831   2.782   9.241   2.120  1.4225 -3.5902  2.4708
  673MOL0     H92832   3.008   8.987   2.246  0.5085  1.3920  3.1576
  673MOL0     H92833   3.275   8.936   2.457 -0.6246 -0.9233  0.1537
  673MOL0     H92834   3.319   8.821   2.329 -3.1309 -3.3605  1.0926
  673MOL0     H92835   3.157   8.837   2.378 -0.9120 -0.0788 -2.4974
  673MOL0     H92836   3.740   8.892   2.226 -0.5959 -0.8824  1.0724
  673MOL0     H92837   3.964   8.898   2.336  0.2220  1.2147 -0.8156
  673MOL0     H92838   4.034   9.084   2.736 -2.2058 -0.6499 -0.7132
  673MOL0     H92839   3.998   8.914   2.750 -1.5415 -1.0478 -2.3372
  673MOL0     H92840   4.260   9.033   2.642  1.8353 -1.2605  0.9981
  673MOL0     H92841   4.240   9.007   2.820  1.0436  1.0284  0.4889
  673MOL0     H92842   4.211   8.780   2.630 -3.4495  3.0108  0.8336
  673MOL0     H92843   4.206   8.764   2.793  0.2035 -0.0411 -0.8120
  673MOL0     H92844   4.445   8.831   2.821 -0.7195  3.4699 -0.5872
  673MOL0     H92845   4.468   8.851   2.646  3.4283 -0.9198  2.5969
  673MOL0     H92846   4.402   8.596   2.782  0.1059  2.3865  1.5065
  673MOL0     H92847   4.396   8.619   2.601  2.8794 -0.8262 -2.1113
  673MOL0     H92848   4.628   8.657   2.793 -1.4564  0.1213  0.1413
  673MOL0     H92849   4.630   8.682   2.608 -1.0287  1.9118  0.5131
  673MOL0     H92850   4.539   8.420   2.626 -2.2270 -1.0970  2.4944
  673MOL0     H92851   4.604   8.437   2.789 -1.2249  0.7411 -0.0374
  673MOL0     H92852   4.777   8.334   2.652 -3.1163 -0.1114  3.0945
  673MOL0     H92853   4.823   8.500   2.685  0.6176 -0.2666  0.6324
  673MOL0     H92854   3.802   9.081   2.694  1.3732  1.0579  0.0723
  673MOL0     H92855   3.569   9.056   2.573  0.8119  2.1905  1.9781
  673MOL0     H92856   3.393   9.268   2.092  1.9151 -1.7063  2.7239
  673MOL0     H92857   3.166   9.289   1.997  2.1515  3.2313  1.7926
  673MOL0     H92858   1.732  10.246   1.266  0.2825 -1.2343  0.3765
  673MOL0     H92859   1.564  10.337   1.123 -0.1521 -0.9172  0.3490
  673MOL0     H92860   1.301  10.476   0.824  2.1458  0.3307  4.8105
  673MOL0     H92861   1.150  10.634   0.708 -1.3572  3.5921  0.6868
  673MOL0     H92862   0.749  10.666   0.888 -0.2977  1.5879  0.4606
  673MOL0     H92863   0.795  10.828   0.966  1.7265 -0.3829  1.0323
  673MOL0     H92864   0.768  10.925   0.740 -2.9375  1.0180 -2.0374
  673MOL0     H92865   0.629  10.875   0.831 -1.4750 -0.7070 -1.0473
  673MOL0     H92866   0.748  10.762   0.575 -0.3667 -0.9657 -1.0550
  673MOL0     H92867   0.612  10.685   0.665 -2.9142  0.9293 -2.4575
  673MOL0     H92868   0.579  10.854   0.460  1.2379 -0.7796  0.8581
  673MOL0     H92869   0.596  10.975   0.576  2.6785 -0.5781 -2.1213
  673MOL0     H92870   0.236  10.774   0.697 -1.5995  0.6946 -1.4601
  673MOL0     H92871   0.892  10.603   1.055  0.0079  2.5196 -1.6950
  673MOL0     H92872   0.893  10.413   1.164 -0.1994 -1.2864 -0.1411
  673MOL0     H92873   1.032  10.315   1.178  0.3956 -0.4788 -2.0531
  673MOL0     H92874   1.027  10.470   1.268 -1.0000  2.9349 -1.7046
  674MOL0     O92875   6.242   1.707   0.769 -0.2225  0.0903 -0.0098
  674MOL0     C92876   6.303   1.798   0.718 -0.2120 -0.7542 -0.4805
  674MOL0     O92877   6.437   1.809   0.711 -0.5158 -0.8120  0.3497
  674MOL0     C92878   6.508   1.706   0.751 -0.4080  0.4026  0.6516
  674MOL0     C92879   6.513   1.657   0.881 -0.2309  0.9817  0.1985
  674MOL0     C92880   6.601   1.548   0.913 -0.0992 -0.2957 -0.4416
  674MOL0     C92881   6.697   1.504   0.821 -0.4596 -0.3045 -1.0010
  674MOL0     O92882   6.802   1.428   0.874  0.8339 -0.0663  0.1800
  674MOL0     C92883   6.916   1.497   0.900 -0.5866 -0.2242 -0.7189
  674MOL0     C92884   7.018   1.402   0.967 -0.3332 -0.1951 -0.5916
  674MOL0     C92885   7.153   1.463   1.001  0.3230  0.4589 -0.4525
  674MOL0     C92886   7.252   1.355   1.041 -1.4745  0.3086 -0.5387
  674MOL0     C92887   7.367   1.411   1.124  0.7449  0.1355  0.1621
  674MOL0     C92888   7.484   1.307   1.135 -0.4068 -0.0669 -0.5811
  674MOL0     C92889   7.596   1.356   1.239  0.7781  0.4702 -0.2934
  674MOL0     C92890   7.653   1.489   1.207 -0.2905  0.7681 -0.6533
  674MOL0     N92891   7.738   1.542   1.314  0.2521 -0.5774  0.0589
  674MOL0     C92892   7.859   1.485   1.340 -0.8310  0.6775  0.2763
  674MOL0     C92893   7.893   1.539   1.460  0.3116  0.0867 -0.2594
  674MOL0     C92894   8.028   1.530   1.526 -0.7201 -0.2570  0.2486
  674MOL0     C92895   8.029   1.588   1.671  0.4032 -0.1708 -0.2079
  674MOL0     C92896   8.127   1.526   1.764 -0.3773  0.9520  0.8095
  674MOL0     C92897   8.277   1.534   1.722 -0.0626  0.2225  0.4974
  674MOL0     O92898   8.317   1.654   1.660  0.0575 -0.2034 -0.3157
  674MOL0     C92899   8.451   1.683   1.656 -0.4750 -0.0523  0.0903
  674MOL0     C92900   8.495   1.798   1.725  0.1017 -0.0033  0.4232
  674MOL0     C92901   8.631   1.835   1.734  0.2420 -0.1388  0.5832
  674MOL0     C92902   8.684   1.938   1.838  0.5615 -0.4926  0.1482
  674MOL0     C92903   8.725   1.744   1.677 -0.7922  0.5875 -0.5032
  674MOL0     C92904   8.877   1.764   1.676  0.0673 -0.3930  0.9865
  674MOL0     O92905   8.923   1.885   1.686 -0.9293 -0.4080  0.4430
  674MOL0     C92906   9.053   1.914   1.735 -0.1691  0.9967  1.0160
  674MOL0     C92907   9.097   1.845   1.844 -0.4425 -0.1377 -0.8567
  674MOL0     C92908   9.225   1.864   1.888 -0.6638 -0.2280  0.4104
  674MOL0     C92909   9.309   1.957   1.825  0.1590  0.0525 -0.4298
  674MOL0     O92910   9.430   1.995   1.879  0.0117 -0.1538 -0.6235
  674MOL0     C92911   9.428   2.034   2.020 -0.1723 -0.2737  0.0336
  674MOL0     C92912   9.555   2.119   2.042  0.1858 -0.2093  0.0127
  674MOL0     C92913   9.530   2.252   1.966  0.4587 -0.8700  0.5271
  674MOL0     C92914   9.666   2.330   1.954  0.1527  0.0552 -0.6282
  674MOL0     C92915   9.669   2.448   1.864 -0.5392 -1.0840  0.6439
  674MOL0     C92916   9.630   2.421   1.720  0.6637  0.0378 -0.0619
  674MOL0     C92917   9.728   2.341   1.632 -0.5519 -0.7108  0.1220
  674MOL0     C92918   9.747   2.187   1.644 -0.0841  0.6810 -1.0272
  674MOL0    Cl92919   9.829   2.130   1.506 -0.3922 -0.0187 -0.0839
  674MOL0     C92920   9.268   2.017   1.702  0.4698  0.1088  1.1311
  674MOL0     C92921   9.139   2.000   1.661 -0.5066 -0.3556 -1.1929
  674MOL0     O92922   8.945   1.665   1.674 -0.7292  0.3953 -0.1461
  674MOL0     C92923   8.680   1.629   1.605  0.5087  0.6141  0.5555
  674MOL0     C92924   8.543   1.602   1.594 -0.3250  0.6723  0.2671
  674MOL0     N92925   7.797   1.622   1.512 -0.2946 -0.7130  0.1732
  674MOL0     N92926   7.707   1.631   1.418 -1.0156  0.5918 -1.1690
  674MOL0     C92927   6.696   1.556   0.690 -0.7856 -0.3865  0.0792
  674MOL0     C92928   6.606   1.654   0.659  0.4261  0.1401  0.0606
  674MOL0     C92929   6.231   1.915   0.673 -0.2193  0.8595  0.7588
  674MOL0     C92930   6.154   1.987   0.767 -0.2616  0.0702 -0.4794
  674MOL0     C92931   6.077   2.096   0.728 -0.6130  0.1602  0.4993
  674MOL0     C92932   6.095   2.154   0.599  0.1224 -0.5936  0.2434
  674MOL0     O92933   6.030   2.268   0.559  0.3558 -0.6067 -0.4193
  674MOL0     C92934   5.965   2.357   0.652 -0.5750  0.2694  0.2453
  674MOL0     C92935   5.819   2.336   0.664  0.5595  0.1277  0.7821
  674MOL0     C92936   5.738   2.381   0.530  0.0610 -0.9452  0.1168
  674MOL0     C92937   5.730   2.536   0.517  0.3508 -0.2235  0.2834
  674MOL0     C92938   5.635   2.565   0.407 -0.5146  0.3825  0.8921
  674MOL0     C92939   5.575   2.599   0.306  1.7443  0.0111  0.1467
  674MOL0     C92940   6.161   2.086   0.512  0.0350  0.1989  0.0877
  674MOL0     C92941   6.233   1.968   0.544 -0.2235  0.7042  0.7619
  674MOL0     C92942   6.321   1.911   0.445  0.2773 -0.5595 -0.0706
  674MOL0     H92943   6.438   1.692   0.950 -1.0735  1.0541 -0.7350
  674MOL0     H92944   6.606   1.494   1.007 -0.2205 -0.1602 -0.3573
  674MOL0     H92945   6.898   1.570   0.979  2.5582 -2.1405  2.0449
  674MOL0     H92946   6.972   1.547   0.820  2.1535 -3.8552 -1.3281
  674MOL0     H92947   6.968   1.369   1.059 -2.4025 -0.7282 -1.8472
  674MOL0     H92948   7.032   1.312   0.906 -1.4721 -0.9626  0.2301
  674MOL0     H92949   7.181   1.516   0.910 -1.6665 -0.9490 -1.9784
  674MOL0     H92950   7.152   1.536   1.082  6.1664 -0.1013  0.5784
  674MOL0     H92951   7.195   1.281   1.098  1.9935 -0.2815  2.5412
  674MOL0     H92952   7.300   1.312   0.952  1.3793 -1.3896  1.6291
  674MOL0     H92953   7.335   1.424   1.228  0.5234 -0.2947  0.1497
  674MOL0     H92954   7.402   1.503   1.077  0.2480  0.5918  0.6657
  674MOL0     H92955   7.437   1.213   1.164  1.1657 -1.3583 -2.0464
  674MOL0     H92956   7.516   1.308   1.031 -3.3453  1.6478 -1.5966
  674MOL0     H92957   7.670   1.277   1.232 -1.4892 -1.6731 -1.8986
  674MOL0     H92958   7.567   1.351   1.344  2.4872  1.7480  0.2940
  674MOL0     H92959   7.711   1.478   1.115  3.7155  0.4176  1.6615
  674MOL0     H92960   7.573   1.562   1.194 -1.9574 -1.1225 -1.4099
  674MOL0     H92961   7.919   1.416   1.282 -0.7516 -1.3312  2.5635
  674MOL0     H92962   8.094   1.588   1.461 -2.1945  1.7200  0.4333
  674MOL0     H92963   8.080   1.433   1.521 -0.5132 -0.0791 -1.3729
  674MOL0     H92964   8.047   1.694   1.653 -0.8320  0.5065  2.1779
  674MOL0     H92965   7.926   1.588   1.709  0.4077 -2.4480 -0.0170
  674MOL0     H92966   8.105   1.582   1.856 -4.2472  1.3350 -0.1657
  674MOL0     H92967   8.102   1.420   1.768 -1.1805  1.1690  2.0199
  674MOL0     H92968   8.335   1.503   1.810 -0.5533 -0.3737  0.6201
  674MOL0     H92969   8.280   1.450   1.652  0.9280  0.0873  0.6874
  674MOL0     H92970   8.436   1.852   1.799 -2.2260 -0.2289 -1.1564
  674MOL0     H92971   8.723   2.023   1.781 -0.4796  0.1830  0.4186
  674MOL0     H92972   8.769   1.900   1.895  1.0911  1.0657  0.4318
  674MOL0     H92973   8.612   1.969   1.914  1.9669  1.0746  0.9098
  674MOL0     H92974   9.027   1.778   1.893  0.0710 -0.8316 -1.0577
  674MOL0     H92975   9.267   1.814   1.974  1.8720  1.5279  0.3077
  674MOL0     H92976   9.348   2.103   2.050 -1.5905 -2.0493  0.4860
  674MOL0     H92977   9.433   1.945   2.083  3.3574 -0.3339 -0.1296
  674MOL0     H92978   9.575   2.146   2.146 -0.3289  2.6034 -0.5202
  674MOL0     H92979   9.643   2.068   2.001  0.1944  1.1279 -1.7473
  674MOL0     H92980   9.445   2.308   2.006  0.7890 -0.3321  0.4715
  674MOL0     H92981   9.497   2.226   1.865  0.3389 -1.2715  0.6658
  674MOL0     H92982   9.744   2.257   1.930 -1.4106 -1.8574 -0.1759
  674MOL0     H92983   9.695   2.369   2.052 -2.0506 -1.6344  0.8092
  674MOL0     H92984   9.601   2.526   1.899 -0.0705 -0.2328 -0.3139
  674MOL0     H92985   9.767   2.496   1.863 -1.4832  0.9947  1.4028
  674MOL0     H92986   9.629   2.522   1.680  0.5706  1.0552  2.3385
  674MOL0     H92987   9.530   2.378   1.715  0.0150  1.5439 -0.4075
  674MOL0     H92988   9.822   2.393   1.653 -1.0063  0.8841 -1.5497
  674MOL0     H92989   9.702   2.368   1.529 -2.0218  0.5028  0.7665
  674MOL0     H92990   9.649   2.137   1.650 -0.9409  1.9062 -3.4367
  674MOL0     H92991   9.806   2.172   1.735  0.0175  1.1869 -1.0091
  674MOL0     H92992   9.334   2.083   1.647 -0.7211 -0.5457 -1.2048
  674MOL0     H92993   9.101   2.053   1.574  0.7875  0.5072 -1.2637
  674MOL0     H92994   8.734   1.554   1.548  1.5842  0.4277  1.7712
  674MOL0     H92995   8.499   1.514   1.548  1.6109 -0.5216  0.5551
  674MOL0     H92996   6.775   1.522   0.624 -0.6216 -1.1485  0.6550
  674MOL0     H92997   6.604   1.697   0.559 -0.7583 -0.6595 -0.2812
  674MOL0     H92998   6.166   1.954   0.869  0.6606  2.4838  0.2865
  674MOL0     H92999   6.019   2.146   0.806 -0.7240  2.1976 -0.8152
  674MOL0     H93000   6.019   2.345   0.746  0.5986  0.1691 -0.4170
  674MOL0     H93001   5.983   2.459   0.618  1.3935 -0.4546 -1.0280
  674MOL0     H93002   5.776   2.391   0.748 -0.7325  0.6666 -0.1876
  674MOL0     H93003   5.800   2.230   0.684  0.1024  0.3760  1.7166
  674MOL0     H93004   5.799   2.339   0.450  0.7546  1.3882 -0.6664
  674MOL0     H93005   5.636   2.343   0.537 -0.4849  0.7400  3.0494
  674MOL0     H93006   5.829   2.573   0.488  0.0654 -1.2283 -2.1955
  674MOL0     H93007   5.685   2.586   0.603  0.6918  1.2821 -0.3726
  674MOL0     H93008   5.504   2.638   0.237 -0.8426 -0.5102  2.3148
  674MOL0     H93009   6.168   2.131   0.414  1.2353 -0.5157 -0.1751
  674MOL0     H93010   6.308   1.933   0.339  1.1596 -0.8182 -0.2429
  674MOL0     H93011   6.418   1.954   0.471 -1.6371  3.4511  1.2131
  674MOL0     H93012   6.326   1.802   0.457 -0.6291 -0.7730 -1.4118
  675MOL0     O93013  10.988   4.453   7.257  0.3066 -0.1360 -0.0102
  675MOL0     C93014  11.045   4.348   7.290 -1.4154  0.5397 -0.9243
  675MOL0     O93015  11.170   4.330   7.349 -0.8612 -0.0708 -0.7057
  675MOL0     C93016  11.243   4.441   7.390 -0.0621 -0.1700  0.4488
  675MOL0     C93017  11.175   4.544   7.461  0.5050 -1.1259 -0.1676
  675MOL0     C93018  11.246   4.662   7.501 -0.5081 -0.3866  0.0929
  675MOL0     C93019  11.383   4.670   7.481  0.5044 -1.2191  0.2688
  675MOL0     O93020  11.451   4.777   7.532  0.5762 -0.0995 -0.1019
  675MOL0     C93021  11.595   4.804   7.527  0.2468  0.2658  0.5415
  675MOL0     C93022  11.638   4.867   7.663 -0.0509 -0.2509  0.5488
  675MOL0     C93023  11.751   4.955   7.651 -0.2752  0.3680  0.1780
  675MOL0     C93024  11.775   5.026   7.780 -0.0524  0.3410  0.1471
  675MOL0     C93025  11.848   5.163   7.756 -0.9836  0.3667  0.7046
  675MOL0     C93026  11.980   5.155   7.686 -0.0870 -0.0638 -0.1955
  675MOL0     C93027  12.066   5.061   7.767 -0.8362  0.1197  0.4633
  675MOL0     C93028  12.220   5.087   7.733 -0.0585  0.6770  0.3439
  675MOL0     N93029  12.276   5.223   7.762 -0.1280  0.8963 -0.8724
  675MOL0     C93030  12.397   5.264   7.751 -0.5756 -0.5178  0.5054
  675MOL0     C93031  12.407   5.386   7.806  0.0837  0.1808 -0.2504
  675MOL0     C93032  12.523   5.480   7.807  0.1151  0.2549 -0.7202
  675MOL0     C93033  12.515   5.622   7.871 -0.0451 -0.1000 -0.2321
  675MOL0     C93034  12.469   5.728   7.762  1.1782  0.1002  0.0467
  675MOL0     C93035  12.333   5.695   7.707 -0.1628  0.2172  0.1690
  675MOL0     O93036  12.270   5.806   7.629  0.2458 -0.0463 -0.1105
  675MOL0     C93037  12.135   5.797   7.586 -0.0646  0.7351 -0.6088
  675MOL0     C93038  12.068   5.917   7.557  0.6708 -0.1747 -0.1833
  675MOL0     C93039  11.932   5.929   7.526  0.1160  0.6160 -0.1045
  675MOL0     C93040  11.883   6.076   7.513 -0.7012 -0.3300  0.4307
  675MOL0     C93041  11.858   5.807   7.513 -0.0493 -0.7138  0.6881
  675MOL0     C93042  11.716   5.796   7.475  0.6504 -0.4675  0.2292
  675MOL0     O93043  11.656   5.680   7.507  0.2167  0.1192 -0.9834
  675MOL0     C93044  11.521   5.657   7.479  0.2560  0.4729  0.3775
  675MOL0     C93045  11.451   5.713   7.372  0.0210 -0.2514  0.4244
  675MOL0     C93046  11.313   5.688   7.353  0.2164 -0.1863 -0.6309
  675MOL0     C93047  11.253   5.605   7.450  0.0978 -0.6682 -0.1418
  675MOL0     O93048  11.114   5.576   7.455  0.2435  0.7177  0.4294
  675MOL0     C93049  11.056   5.540   7.328  0.0217  0.5067 -0.1595
  675MOL0     C93050  10.915   5.482   7.335  0.5586  0.1486  0.8861
  675MOL0     C93051  10.905   5.351   7.408 -0.8953 -0.0940 -0.2866
  675MOL0     C93052  10.771   5.280   7.395 -0.1843  0.4067  0.2387
  675MOL0     C93053  10.733   5.199   7.265  0.3995 -0.7370  1.0064
  675MOL0     C93054  10.800   5.070   7.214  0.3829 -0.1512  0.2622
  675MOL0     C93055  10.815   4.959   7.320  0.5310  0.8247 -0.0651
  675MOL0     C93056  10.893   4.838   7.262  0.3339  0.3088 -0.0268
  675MOL0    Cl93057  10.839   4.774   7.100  0.1580  0.3138 -0.1489
  675MOL0     C93058  11.323   5.560   7.563 -0.0904 -0.0285 -0.0305
  675MOL0     C93059  11.453   5.583   7.569 -0.5997 -0.2797 -0.1515
  675MOL0     O93060  11.657   5.893   7.434 -0.4290 -0.0211  0.3660
  675MOL0     C93061  11.935   5.686   7.530  0.5801  0.5058  0.1798
  675MOL0     C93062  12.069   5.677   7.577  0.3688  0.1554 -0.0183
  675MOL0     N93063  12.279   5.408   7.865 -0.4059  0.2275  0.3645
  675MOL0     N93064  12.205   5.318   7.830 -0.4219  0.2074  0.4047
  675MOL0     C93065  11.445   4.574   7.407 -0.1349  0.4475 -0.0546
  675MOL0     C93066  11.378   4.461   7.361 -0.0240  0.2447  0.4974
  675MOL0     C93067  10.991   4.224   7.244  0.4961  0.2205 -0.8345
  675MOL0     C93068  10.846   4.211   7.265 -0.3774 -1.5506  0.2596
  675MOL0     C93069  10.777   4.096   7.210  0.0812 -0.2179 -0.0410
  675MOL0     C93070  10.850   3.992   7.152  0.1502 -0.3072 -0.0189
  675MOL0     O93071  10.796   3.881   7.094  0.8022  0.1995  0.3151
  675MOL0     C93072  10.770   3.774   7.183  1.3408  0.5581 -0.1964
  675MOL0     C93073  10.895   3.721   7.252 -0.8265  0.3115  0.0521
  675MOL0     C93074  10.997   3.664   7.155 -0.2650  0.2751 -0.8428
  675MOL0     C93075  11.005   3.513   7.163  0.6535 -1.2159 -1.1236
  675MOL0     C93076  11.054   3.462   7.291  0.4414 -0.3185  0.7579
  675MOL0     C93077  11.097   3.449   7.405  0.0821  0.4401 -0.8403
  675MOL0     C93078  10.986   4.010   7.130  0.1196 -0.3139 -0.3048
  675MOL0     C93079  11.061   4.122   7.171  0.3019 -0.4929 -0.0026
  675MOL0     C93080  11.205   4.143   7.128  0.8265  0.6083 -0.2560
  675MOL0     H93081  11.071   4.545   7.491  0.3835 -1.3707 -0.5682
  675MOL0     H93082  11.191   4.747   7.540  1.5899  0.4941  1.2865
  675MOL0     H93083  11.600   4.869   7.439 -3.1467 -0.0607 -0.0281
  675MOL0     H93084  11.663   4.721   7.509 -0.6346 -0.4320  0.3190
  675MOL0     H93085  11.557   4.928   7.703 -2.5720 -3.2560  0.4451
  675MOL0     H93086  11.662   4.794   7.742  0.9079  0.2221  0.7085
  675MOL0     H93087  11.843   4.903   7.622  0.0712  1.4019 -0.6696
  675MOL0     H93088  11.758   5.028   7.570 -0.0198  1.5215  1.2019
  675MOL0     H93089  11.680   5.043   7.831 -0.9998  2.6983 -2.2192
  675MOL0     H93090  11.830   4.955   7.844  1.7251  1.1494 -0.4204
  675MOL0     H93091  11.873   5.211   7.851 -1.6681 -1.4651  1.8726
  675MOL0     H93092  11.789   5.234   7.698  0.0805 -0.5395 -1.6230
  675MOL0     H93093  11.970   5.134   7.579 -2.8493  0.7279 -0.1713
  675MOL0     H93094  12.025   5.255   7.680 -1.1190  0.3467 -1.5269
  675MOL0     H93095  12.042   4.958   7.740  0.8725 -0.4006  0.8459
  675MOL0     H93096  12.048   5.078   7.873 -1.8203  0.0359  0.3216
  675MOL0     H93097  12.281   5.012   7.783 -0.2689 -0.5999 -1.2392
  675MOL0     H93098  12.236   5.077   7.625  1.5368 -2.1066  0.7582
  675MOL0     H93099  12.486   5.217   7.712  1.0629  0.5684  2.6826
  675MOL0     H93100  12.559   5.492   7.704 -0.1847  3.2553 -0.5813
  675MOL0     H93101  12.596   5.420   7.862 -3.2555 -2.0254  1.6794
  675MOL0     H93102  12.446   5.620   7.956 -1.0824  0.4472 -1.0297
  675MOL0     H93103  12.611   5.658   7.907 -1.3294  2.4112  0.9625
  675MOL0     H93104  12.470   5.828   7.808  1.1356  0.1221  0.0004
  675MOL0     H93105  12.542   5.724   7.680  1.4351  1.4081  0.1809
  675MOL0     H93106  12.335   5.603   7.649  3.1431  0.6816 -0.6798
  675MOL0     H93107  12.266   5.683   7.793  0.6149  1.8933  1.0563
  675MOL0     H93108  12.125   6.009   7.570  1.4373 -0.8545  1.5797
  675MOL0     H93109  11.957   6.154   7.535 -3.7206  4.5293 -4.0555
  675MOL0     H93110  11.795   6.091   7.576 -1.4191  0.4417 -0.7102
  675MOL0     H93111  11.840   6.091   7.413  2.2367 -3.0921 -1.4146
  675MOL0     H93112  11.495   5.784   7.303 -1.9475 -0.7230 -1.4277
  675MOL0     H93113  11.260   5.715   7.263 -2.0923 -1.0407  0.3986
  675MOL0     H93114  11.051   5.622   7.255 -1.9088  0.1979 -0.4132
  675MOL0     H93115  11.121   5.465   7.281  1.3767  1.4436  0.1366
  675MOL0     H93116  10.835   5.544   7.374 -0.9816 -1.5530  0.5595
  675MOL0     H93117  10.881   5.455   7.234  0.7693 -1.4037  1.1951
  675MOL0     H93118  10.930   5.368   7.513  1.4841  0.7398 -0.9097
  675MOL0     H93119  10.985   5.293   7.360  0.8962  4.3725 -3.3741
  675MOL0     H93120  10.694   5.357   7.385  0.1216  0.5167 -1.6171
  675MOL0     H93121  10.760   5.211   7.479  2.5076 -1.8334 -1.0844
  675MOL0     H93122  10.627   5.183   7.286  0.4506  0.4606  2.3361
  675MOL0     H93123  10.736   5.266   7.179 -0.5398 -0.6895  1.0056
  675MOL0     H93124  10.903   5.090   7.181  1.1419 -1.6882  1.5396
  675MOL0     H93125  10.741   5.026   7.133  0.9323 -0.0220 -0.2208
  675MOL0     H93126  10.720   4.916   7.353  2.0003 -2.1863  0.6321
  675MOL0     H93127  10.871   5.001   7.404 -3.2764  1.7702  2.2137
  675MOL0     H93128  10.889   4.761   7.340 -1.8764  1.0305  0.6674
  675MOL0     H93129  10.994   4.878   7.259  0.0150  1.0821 -3.1776
  675MOL0     H93130  11.283   5.504   7.647  2.0344 -1.4295  0.1435
  675MOL0     H93131  11.491   5.545   7.664 -3.0966 -3.4280 -0.2115
  675MOL0     H93132  11.887   5.591   7.507 -2.8684  1.8685  1.2053
  675MOL0     H93133  12.121   5.583   7.596  1.9524  1.1300  0.6849
  675MOL0     H93134  11.551   4.565   7.388  0.0279 -2.1407  1.5180
  675MOL0     H93135  11.420   4.379   7.303 -1.1490 -0.1386  0.1824
  675MOL0     H93136  10.784   4.297   7.289 -0.3698 -0.8413 -2.0152
  675MOL0     H93137  10.670   4.079   7.213  0.0728  0.0367  1.3520
  675MOL0     H93138  10.696   3.812   7.253  2.1447 -0.1515  1.0781
  675MOL0     H93139  10.726   3.691   7.126  2.7008 -1.4945  1.6020
  675MOL0     H93140  10.865   3.644   7.322  1.4627 -0.3839  0.3547
  675MOL0     H93141  10.941   3.798   7.314 -0.9513 -1.3478  2.3229
  675MOL0     H93142  10.961   3.689   7.055 -2.6247  0.6209  0.0282
  675MOL0     H93143  11.097   3.705   7.173  0.0125 -1.7700  3.3390
  675MOL0     H93144  11.063   3.478   7.077  0.3048 -1.7853 -1.1273
  675MOL0     H93145  10.903   3.481   7.145  0.0580 -2.1106  2.9281
  675MOL0     H93146  11.125   3.431   7.507  1.3333 -1.3816 -1.4693
  675MOL0     H93147  11.026   3.924   7.076  1.1252  0.4707 -0.8437
  675MOL0     H93148  11.279   4.121   7.205  1.1294 -0.9952 -0.9788
  675MOL0     H93149  11.223   4.084   7.038  0.7223  1.1832 -0.6573
  675MOL0     H93150  11.224   4.245   7.093 -1.4173  0.3221 -2.6361
  676MOL0     O93151   3.870   6.735   1.332  0.0120  0.0206 -0.2509
  676MOL0     C93152   3.837   6.626   1.283 -0.1435 -0.0104  0.2597
  676MOL0     O93153   3.902   6.507   1.293 -0.0073 -0.2228  0.2762
  676MOL0     C93154   3.978   6.473   1.407  0.4879 -0.3494 -0.3573
  676MOL0     C93155   3.957   6.349   1.470 -0.2618  0.7835  0.8576
  676MOL0     C93156   4.045   6.305   1.571  0.5510 -0.2517 -0.2707
  676MOL0     C93157   4.150   6.377   1.622 -0.6945 -0.0554 -0.2757
  676MOL0     O93158   4.225   6.325   1.724  0.5003  0.5725 -0.6359
  676MOL0     C93159   4.307   6.418   1.802 -0.5286 -0.3412  0.0552
  676MOL0     C93160   4.357   6.340   1.928 -1.0133  0.1560  0.2816
  676MOL0     C93161   4.449   6.235   1.872  0.1506  0.6144 -0.2347
  676MOL0     C93162   4.552   6.191   1.980 -1.2114  0.1048  0.2174
  676MOL0     C93163   4.680   6.153   1.906 -0.2695  0.6375  0.3644
  676MOL0     C93164   4.786   6.116   2.014  0.1490  0.1440 -0.3776
  676MOL0     C93165   4.932   6.093   1.972 -0.3520 -0.1025 -0.0976
  676MOL0     C93166   5.003   6.209   1.884 -1.1302  0.4275 -0.3189
  676MOL0     N93167   5.140   6.179   1.846  0.7106 -0.5312  0.3052
  676MOL0     C93168   5.203   6.061   1.862  0.1036  0.6876 -0.4618
  676MOL0     C93169   5.341   6.087   1.857  0.1742 -0.2545  0.4171
  676MOL0     C93170   5.456   5.996   1.875  0.0661 -0.1908 -0.1325
  676MOL0     C93171   5.419   5.859   1.806 -0.1089 -0.4367  0.4651
  676MOL0     C93172   5.535   5.765   1.808 -0.5923  0.0767  0.9393
  676MOL0     C93173   5.646   5.797   1.710  0.3528  1.0173 -0.4385
  676MOL0     O93174   5.604   5.830   1.576  0.2795 -0.7951  0.0017
  676MOL0     C93175   5.715   5.898   1.515  0.0184  0.5249  0.1899
  676MOL0     C93176   5.700   6.038   1.493 -0.1361  0.2384  0.3084
  676MOL0     C93177   5.806   6.105   1.431 -0.8172  1.3277  0.8655
  676MOL0     C93178   5.785   6.252   1.418 -0.4521  1.1100  0.3213
  676MOL0     C93179   5.918   6.033   1.391 -0.1551  0.3393 -0.3174
  676MOL0     C93180   6.029   6.095   1.316 -0.4075  0.5057  0.3909
  676MOL0     O93181   6.138   6.008   1.303 -0.5749 -0.9561 -0.6038
  676MOL0     C93182   6.216   6.025   1.186  0.6702  0.6914  0.0701
  676MOL0     C93183   6.184   5.959   1.064  0.3163 -0.3883 -0.0860
  676MOL0     C93184   6.273   5.990   0.958 -0.5128 -0.2367 -0.8953
  676MOL0     C93185   6.393   6.066   0.974  0.2324 -0.2139  0.3756
  676MOL0     O93186   6.472   6.079   0.868  0.5641  0.3758  0.1241
  676MOL0     C93187   6.579   6.180   0.853 -0.7073 -0.2121  0.1348
  676MOL0     C93188   6.642   6.154   0.712 -0.2173 -0.7484  0.4621
  676MOL0     C93189   6.763   6.233   0.684 -0.3476  0.0311 -0.0763
  676MOL0     C93190   6.815   6.210   0.541  0.1896  0.4357  0.7323
  676MOL0     C93191   6.925   6.314   0.513  0.7118  0.5060  0.2971
  676MOL0     C93192   6.957   6.327   0.365  0.2872  0.4919  0.1947
  676MOL0     C93193   6.885   6.444   0.305  0.4185  0.0418  0.1163
  676MOL0     C93194   6.867   6.438   0.152  0.0446 -0.6641  0.3262
  676MOL0    Cl93195   6.791   6.591   0.096 -0.1704  0.5094  0.1802
  676MOL0     C93196   6.441   6.102   1.093  0.0894 -0.8592  0.0599
  676MOL0     C93197   6.345   6.094   1.196  0.3884  0.0801 -0.2152
  676MOL0     O93198   6.033   6.209   1.267  0.1722 -0.3547  0.4359
  676MOL0     C93199   5.926   5.891   1.406  0.3999  0.9166 -0.5596
  676MOL0     C93200   5.819   5.825   1.464 -0.4103  0.0958 -0.0231
  676MOL0     N93201   5.352   6.223   1.836 -0.0992  0.0428 -0.3434
  676MOL0     N93202   5.236   6.276   1.839 -0.0475  0.3887  0.6754
  676MOL0     C93203   4.165   6.503   1.565  0.6338  0.0777 -0.5456
  676MOL0     C93204   4.080   6.552   1.468 -0.5803  0.1638  0.4062
  676MOL0     C93205   3.709   6.618   1.195 -0.4774  0.1759 -0.4500
  676MOL0     C93206   3.659   6.489   1.170  0.0560  0.2675 -1.3043
  676MOL0     C93207   3.535   6.466   1.105 -0.4831 -0.4275  0.1271
  676MOL0     C93208   3.475   6.569   1.041  0.0359  0.5224  0.7297
  676MOL0     O93209   3.369   6.558   0.951 -0.4491  0.8206 -0.8426
  676MOL0     C93210   3.279   6.442   0.950 -0.5333  0.4132  0.2026
  676MOL0     C93211   3.184   6.439   0.828 -0.1847  0.0709 -0.6640
  676MOL0     C93212   3.079   6.555   0.838  0.8687  0.5511  0.5584
  676MOL0     C93213   3.133   6.698   0.816  0.3253  1.0741 -1.0577
  676MOL0     C93214   3.195   6.712   0.686  0.1849 -0.0727  0.5922
  676MOL0     C93215   3.237   6.723   0.577 -0.0345  0.4719  1.2020
  676MOL0     C93216   3.526   6.701   1.057 -0.7568 -0.5810  0.4383
  676MOL0     C93217   3.636   6.727   1.141 -0.0464  0.4162  0.2199
  676MOL0     C93218   3.678   6.869   1.167  0.7056 -1.1340 -0.6223
  676MOL0     H93219   3.867   6.296   1.442  0.0232  0.6889  0.0867
  676MOL0     H93220   4.039   6.203   1.609  0.2678 -0.0817  0.1485
  676MOL0     H93221   4.262   6.517   1.822  1.6051  1.2696 -2.5027
  676MOL0     H93222   4.392   6.443   1.738 -1.8768  0.1212 -1.6067
  676MOL0     H93223   4.410   6.406   1.997 -0.0875 -0.8132  0.5348
  676MOL0     H93224   4.283   6.287   1.989 -0.6428  0.0104  0.6102
  676MOL0     H93225   4.391   6.154   1.826  0.7651  1.6071 -2.8883
  676MOL0     H93226   4.501   6.273   1.784  1.3354  1.6779  0.8766
  676MOL0     H93227   4.573   6.278   2.043  1.7282 -0.9644  0.8927
  676MOL0     H93228   4.511   6.108   2.039 -1.2351 -0.5037 -0.6285
  676MOL0     H93229   4.721   6.237   1.849  1.3552 -0.7932 -0.6509
  676MOL0     H93230   4.663   6.069   1.839 -0.5156  1.1476 -0.2294
  676MOL0     H93231   4.789   6.191   2.094 -0.3413 -0.1984 -0.0345
  676MOL0     H93232   4.751   6.026   2.065 -2.0061  0.8955 -0.4017
  676MOL0     H93233   4.943   5.995   1.925 -1.9157  0.0690 -0.8845
  676MOL0     H93234   4.984   6.090   2.069  0.6206 -0.7941 -0.6233
  676MOL0     H93235   4.946   6.230   1.793 -2.3580 -1.6735 -0.1110
  676MOL0     H93236   5.010   6.293   1.954  2.7900 -1.0641  1.3448
  676MOL0     H93237   5.171   5.959   1.877  3.1896 -0.0629  1.9093
  676MOL0     H93238   5.480   5.983   1.981 -0.9683 -0.2039  0.1092
  676MOL0     H93239   5.543   6.033   1.821 -0.4915  2.7408  0.8206
  676MOL0     H93240   5.328   5.823   1.857 -1.6290  1.6133 -0.6540
  676MOL0     H93241   5.392   5.892   1.706  0.5608 -2.1639 -0.3339
  676MOL0     H93242   5.585   5.748   1.903  1.0306  1.1956  0.3196
  676MOL0     H93243   5.490   5.670   1.777  0.2886  0.3230 -1.2697
  676MOL0     H93244   5.706   5.880   1.749  1.1264  0.4004 -0.3012
  676MOL0     H93245   5.706   5.706   1.711 -0.4127  0.5054  0.3291
  676MOL0     H93246   5.613   6.085   1.538 -1.5474  0.9600 -2.8846
  676MOL0     H93247   5.878   6.308   1.423 -0.2075  0.5946  2.0832
  676MOL0     H93248   5.723   6.293   1.498 -2.1498 -0.3755 -0.1492
  676MOL0     H93249   5.725   6.271   1.328 -1.0588 -1.0850  0.1986
  676MOL0     H93250   6.100   5.891   1.055 -1.4708  1.4093  1.8773
  676MOL0     H93251   6.255   5.931   0.869  1.3944  0.7932 -2.0072
  676MOL0     H93252   6.540   6.281   0.864  1.4371  0.6150  0.6122
  676MOL0     H93253   6.658   6.172   0.927 -0.9516  3.3227  0.9469
  676MOL0     H93254   6.668   6.048   0.706 -3.5476 -1.6656  0.3435
  676MOL0     H93255   6.567   6.168   0.634 -0.4120 -0.5083  0.6909
  676MOL0     H93256   6.846   6.216   0.753 -0.9642 -1.1339  0.3931
  676MOL0     H93257   6.728   6.336   0.680 -0.5214  0.0081  0.7196
  676MOL0     H93258   6.735   6.229   0.469  1.0483  0.1095 -0.3310
  676MOL0     H93259   6.864   6.116   0.516  1.5159  2.0728 -4.0804
  676MOL0     H93260   6.904   6.414   0.551  1.2517  1.2379 -1.2500
  676MOL0     H93261   7.013   6.273   0.563  3.0099  3.0545 -1.3436
  676MOL0     H93262   6.932   6.233   0.315  1.2773  0.9529 -1.2392
  676MOL0     H93263   7.064   6.341   0.352 -0.0341  4.2628  0.5281
  676MOL0     H93264   6.936   6.539   0.325  0.4245  0.0793 -0.0778
  676MOL0     H93265   6.782   6.451   0.340  0.8071  3.4564  0.9583
  676MOL0     H93266   6.803   6.353   0.128  0.5848 -1.0397  0.1897
  676MOL0     H93267   6.957   6.422   0.092 -0.1540  0.6179 -0.3464
  676MOL0     H93268   6.519   6.170   1.125 -1.9341  1.0559  1.2169
  676MOL0     H93269   6.355   6.138   1.295 -2.2112 -0.9746  0.6215
  676MOL0     H93270   5.999   5.819   1.370 -0.0985  0.1817 -0.1434
  676MOL0     H93271   5.827   5.716   1.466 -1.5397 -0.1458 -3.2219
  676MOL0     H93272   4.252   6.556   1.602 -0.0068  0.0988  1.0074
  676MOL0     H93273   4.094   6.650   1.425  0.2437  0.0512  0.4077
  676MOL0     H93274   3.705   6.399   1.209 -0.0340  1.2109  1.2332
  676MOL0     H93275   3.501   6.363   1.100  1.2402 -1.1248  1.7098
  676MOL0     H93276   3.339   6.351   0.945 -0.3834  0.5498 -0.5511
  676MOL0     H93277   3.220   6.442   1.042 -1.4963  1.2797 -0.3945
  676MOL0     H93278   3.137   6.341   0.836 -0.4931  0.1733 -1.1499
  676MOL0     H93279   3.231   6.458   0.730  0.0395  1.4171 -0.3149
  676MOL0     H93280   3.012   6.543   0.752  1.2306 -2.4297  0.5732
  676MOL0     H93281   3.016   6.555   0.927 -1.1184 -1.0402 -0.7533
  676MOL0     H93282   3.198   6.729   0.898  0.3153 -0.9301 -0.2535
  676MOL0     H93283   3.041   6.756   0.825 -0.3120  0.2830 -2.0997
  676MOL0     H93284   3.283   6.726   0.480 -1.2815  0.4824  0.5825
  676MOL0     H93285   3.470   6.785   1.015  0.6486 -0.1607 -0.6828
  676MOL0     H93286   3.780   6.880   1.129  0.6860  0.6970 -0.2399
  676MOL0     H93287   3.607   6.944   1.131  0.1889 -0.5708  1.4858
  676MOL0     H93288   3.687   6.899   1.271 -1.6036  4.3535 -1.6744
  677MOL0     O93289   1.230   4.432   1.101 -0.5411 -0.8507 -0.1398
  677MOL0     C93290   1.347   4.427   1.128 -0.3666 -0.1006 -0.3664
  677MOL0     O93291   1.391   4.421   1.261 -0.0549 -0.4782  0.3639
  677MOL0     C93292   1.295   4.376   1.355 -0.3368 -0.8926  0.1904
  677MOL0     C93293   1.234   4.245   1.338  0.1840  1.2810  0.1450
  677MOL0     C93294   1.155   4.187   1.444  1.3163  0.2329 -0.1188
  677MOL0     C93295   1.133   4.271   1.555 -0.1587 -0.2411 -0.2959
  677MOL0     O93296   1.052   4.246   1.660  0.0878  0.1124 -0.0948
  677MOL0     C93297   0.947   4.147   1.654  0.0620  0.3291  0.0452
  677MOL0     C93298   0.930   4.092   1.801 -0.7671  0.2356  0.4517
  677MOL0     C93299   0.861   4.190   1.886 -1.0407  0.3075 -0.5486
  677MOL0     C93300   0.864   4.153   2.027  0.1389  0.0352  0.3424
  677MOL0     C93301   0.815   4.267   2.115  0.2772  0.7673  0.5448
  677MOL0     C93302   0.806   4.203   2.256 -0.0271 -0.0847  0.4603
  677MOL0     C93303   0.728   4.298   2.345  0.9296  0.0563 -0.4247
  677MOL0     C93304   0.785   4.433   2.376  0.0033  0.1650  0.0922
  677MOL0     N93305   0.858   4.424   2.495 -0.0548  0.0051  0.0805
  677MOL0     C93306   0.810   4.441   2.616 -0.8537 -0.0605 -0.0348
  677MOL0     C93307   0.919   4.423   2.701 -0.4575  0.5488  0.4959
  677MOL0     C93308   0.905   4.464   2.843 -0.2448 -0.2224 -0.0849
  677MOL0     C93309   0.909   4.612   2.874  0.4032  0.0772  0.4575
  677MOL0     C93310   1.045   4.654   2.916 -0.2237  1.2699  0.3792
  677MOL0     C93311   1.143   4.664   2.795  0.7161  0.2635  0.2156
  677MOL0     O93312   1.268   4.662   2.856 -0.2255 -0.7029 -0.1397
  677MOL0     C93313   1.385   4.632   2.790 -0.5242 -0.2541 -0.4290
  677MOL0     C93314   1.390   4.572   2.666  0.1636  0.5805 -0.2659
  677MOL0     C93315   1.511   4.525   2.614 -0.5433  0.1065 -0.1517
  677MOL0     C93316   1.492   4.418   2.506 -0.1916 -0.3923 -0.1997
  677MOL0     C93317   1.629   4.562   2.683 -0.2185 -0.5745  0.3993
  677MOL0     C93318   1.772   4.528   2.629 -0.3324  0.3037 -1.0767
  677MOL0     O93319   1.872   4.593   2.695  0.3413 -0.7183 -0.3826
  677MOL0     C93320   2.000   4.593   2.639 -0.6816  0.7082 -0.1789
  677MOL0     C93321   2.020   4.625   2.505  0.3134 -0.2716 -1.1357
  677MOL0     C93322   2.136   4.614   2.430  0.4079 -0.8253 -0.3064
  677MOL0     C93323   2.251   4.571   2.507 -0.2948 -0.5778 -0.1765
  677MOL0     O93324   2.363   4.571   2.427 -0.4464  0.0607 -0.1795
  677MOL0     C93325   2.491   4.521   2.474  0.1471 -0.4156 -0.0007
  677MOL0     C93326   2.580   4.634   2.542 -0.1662 -0.5406 -0.5069
  677MOL0     C93327   2.732   4.587   2.563  0.2784  0.3310 -0.0624
  677MOL0     C93328   2.818   4.696   2.632  0.3735 -0.2769 -0.7869
  677MOL0     C93329   2.971   4.661   2.611 -0.2340  0.7865  0.3439
  677MOL0     C93330   3.060   4.761   2.671 -1.0122 -1.1757  0.0067
  677MOL0     C93331   3.217   4.725   2.682 -0.0354 -0.8309 -0.1388
  677MOL0     C93332   3.309   4.845   2.718 -0.2511 -0.3675 -0.4561
  677MOL0    Cl93333   3.481   4.835   2.667  0.0663 -0.1428 -0.1335
  677MOL0     C93334   2.239   4.534   2.643 -0.0580  0.5364  0.1084
  677MOL0     C93335   2.112   4.550   2.717 -1.2239 -0.3616  0.1086
  677MOL0     O93336   1.792   4.452   2.533 -0.1144 -0.2334  0.3303
  677MOL0     C93337   1.624   4.632   2.805  0.2429  0.0784 -0.3417
  677MOL0     C93338   1.502   4.660   2.869  0.0439 -0.0631 -0.3685
  677MOL0     N93339   1.031   4.394   2.625 -0.6498 -0.3247  0.3978
  677MOL0     N93340   0.990   4.388   2.501  0.5785  0.1603 -0.0644
  677MOL0     C93341   1.199   4.394   1.566 -0.0639  0.1049  0.0847
  677MOL0     C93342   1.272   4.456   1.462 -0.0419  0.2929 -0.5982
  677MOL0     C93343   1.447   4.423   1.023  1.2879 -0.2633  0.9534
  677MOL0     C93344   1.576   4.378   1.063  0.0106 -0.0180  0.4826
  677MOL0     C93345   1.679   4.386   0.970 -0.0703  0.6267  0.6653
  677MOL0     C93346   1.662   4.433   0.847  0.6222 -0.2225  1.0086
  677MOL0     O93347   1.775   4.423   0.770 -0.2815 -0.4230 -0.0170
  677MOL0     C93348   1.776   4.492   0.641 -0.0026 -0.7702  0.6803
  677MOL0     C93349   1.801   4.637   0.680  0.6624 -0.3390 -0.5338
  677MOL0     C93350   1.754   4.734   0.564 -0.3301 -0.3472  0.0881
  677MOL0     C93351   1.715   4.867   0.609  0.2577  0.6904 -0.7051
  677MOL0     C93352   1.572   4.869   0.650 -0.0313 -0.1205  0.1304
  677MOL0     C93353   1.456   4.877   0.670 -0.4200  0.3509 -0.2376
  677MOL0     C93354   1.539   4.483   0.809 -0.8736 -0.9976  0.1892
  677MOL0     C93355   1.426   4.482   0.889 -0.7060  0.9423 -0.0242
  677MOL0     C93356   1.306   4.559   0.863  0.6371 -0.5059  1.1445
  677MOL0     H93357   1.267   4.194   1.248  0.2850  0.7407  0.4846
  677MOL0     H93358   1.102   4.093   1.431 -2.0130  1.3794  3.3643
  677MOL0     H93359   0.983   4.053   1.610 -0.6483 -1.3598  2.7733
  677MOL0     H93360   0.858   4.184   1.602  0.2549  1.8885  0.7644
  677MOL0     H93361   0.883   3.993   1.796  0.5702 -0.4585  1.0935
  677MOL0     H93362   1.029   4.074   1.844 -0.8123  0.5835  0.7054
  677MOL0     H93363   0.924   4.278   1.874  1.4478 -1.4197 -1.0467
  677MOL0     H93364   0.757   4.212   1.859 -0.7571 -0.4617 -2.4266
  677MOL0     H93365   0.804   4.063   2.040  0.9225 -1.0810 -2.8855
  677MOL0     H93366   0.960   4.111   2.058  1.0015  0.4776 -1.5714
  677MOL0     H93367   0.720   4.307   2.079 -0.4388  0.5345  2.1269
  677MOL0     H93368   0.899   4.336   2.104  3.7639 -3.1052  0.2537
  677MOL0     H93369   0.768   4.101   2.242  2.0964 -0.7593 -0.8446
  677MOL0     H93370   0.910   4.191   2.286  1.1028  0.9835 -2.6870
  677MOL0     H93371   0.695   4.237   2.429  1.7096 -0.7649 -0.6921
  677MOL0     H93372   0.636   4.323   2.291  1.3029 -1.7968 -2.0424
  677MOL0     H93373   0.840   4.480   2.295 -2.2081 -1.6275 -2.6444
  677MOL0     H93374   0.698   4.496   2.398 -0.6409 -1.1310  1.5274
  677MOL0     H93375   0.716   4.477   2.655 -0.4307 -0.2973  1.2484
  677MOL0     H93376   0.970   4.405   2.908  0.3305  1.6753  1.1058
  677MOL0     H93377   0.803   4.431   2.864 -0.0272 -0.1941  1.0350
  677MOL0     H93378   0.876   4.679   2.794 -0.8609 -2.4288 -1.2875
  677MOL0     H93379   0.844   4.631   2.961 -0.7053  1.9246 -0.6974
  677MOL0     H93380   1.049   4.752   2.964  4.6429  1.0368  0.9448
  677MOL0     H93381   1.078   4.577   2.986 -3.2611 -1.4715 -0.9326
  677MOL0     H93382   1.125   4.586   2.720  1.0147  0.5566 -0.1645
  677MOL0     H93383   1.128   4.751   2.731 -1.5637 -1.3008 -1.5495
  677MOL0     H93384   1.297   4.553   2.613  0.4760  3.4246 -2.0666
  677MOL0     H93385   1.528   4.457   2.411  0.5375 -0.3180  0.1026
  677MOL0     H93386   1.386   4.390   2.505 -0.6143  1.1075 -1.3429
  677MOL0     H93387   1.542   4.324   2.530  0.1558  0.2175  1.6618
  677MOL0     H93388   1.926   4.647   2.455  0.4640  1.6611 -0.6624
  677MOL0     H93389   2.141   4.641   2.326  0.5988  1.9113  0.3484
  677MOL0     H93390   2.482   4.428   2.530 -0.6617 -2.1377 -2.8112
  677MOL0     H93391   2.554   4.495   2.388 -0.8295 -0.1088 -0.8239
  677MOL0     H93392   2.580   4.725   2.481  0.5097 -0.2571 -0.0882
  677MOL0     H93393   2.543   4.660   2.641  2.1170  0.1754  0.2154
  677MOL0     H93394   2.773   4.564   2.464  3.6900  3.0058  0.5148
  677MOL0     H93395   2.732   4.493   2.618  0.5620  0.2009 -0.2835
  677MOL0     H93396   2.790   4.720   2.735  1.0458 -1.5134 -0.2927
  677MOL0     H93397   2.801   4.793   2.583  3.7950  1.1357  0.4747
  677MOL0     H93398   2.992   4.568   2.665  1.1506  0.8993  0.0441
  677MOL0     H93399   2.997   4.652   2.505  1.4122  0.1889  0.7650
  677MOL0     H93400   3.018   4.790   2.768 -0.3045 -1.0067  0.2661
  677MOL0     H93401   3.051   4.845   2.603  1.2028 -0.2823  0.7310
  677MOL0     H93402   3.249   4.681   2.586 -2.9071 -1.5088 -0.8980
  677MOL0     H93403   3.219   4.655   2.766 -0.4943  2.3578  2.7455
  677MOL0     H93404   3.298   4.859   2.826  0.3454 -0.3428 -0.3986
  677MOL0     H93405   3.266   4.938   2.681 -2.3255 -1.0330  0.1405
  677MOL0     H93406   2.321   4.493   2.700  0.8380  3.1191  0.8197
  677MOL0     H93407   2.102   4.527   2.822  1.9241  2.0322  1.1015
  677MOL0     H93408   1.720   4.649   2.852  0.8951 -1.5601 -0.9955
  677MOL0     H93409   1.494   4.700   2.969  1.7675  2.3380 -1.1011
  677MOL0     H93410   1.177   4.441   1.662  0.9687  0.9880 -0.0834
  677MOL0     H93411   1.334   4.544   1.481 -1.3943  1.7004 -2.3180
  677MOL0     H93412   1.590   4.336   1.162 -0.1415  0.8929  0.9026
  677MOL0     H93413   1.772   4.339   1.002  0.1831  0.5860 -0.1083
  677MOL0     H93414   1.868   4.464   0.588  2.4803  1.1210  3.6276
  677MOL0     H93415   1.684   4.483   0.583 -1.8483  2.2064  2.8812
  677MOL0     H93416   1.904   4.650   0.715  0.9968  1.4790 -1.9772
  677MOL0     H93417   1.741   4.658   0.769 -2.6852 -2.3503 -2.1051
  677MOL0     H93418   1.829   4.747   0.486  1.9543  1.1485  2.3660
  677MOL0     H93419   1.659   4.686   0.538 -0.9259  1.1952 -0.6983
  677MOL0     H93420   1.728   4.932   0.523  0.9236  1.3338 -0.1282
  677MOL0     H93421   1.770   4.905   0.695 -3.0744  0.5742  1.7158
  677MOL0     H93422   1.349   4.880   0.678 -0.3391  0.1489  0.9694
  677MOL0     H93423   1.512   4.526   0.713 -2.3623  1.6095  1.6884
  677MOL0     H93424   1.306   4.598   0.761  1.7524 -1.5613  0.7169
  677MOL0     H93425   1.211   4.506   0.869 -0.5405  0.9483 -2.3622
  677MOL0     H93426   1.304   4.648   0.926 -1.6382  1.2355 -1.1900
  678MOL0     O93427   8.550   7.855   2.934 -0.2249 -0.5999 -0.7976
  678MOL0     C93428   8.538   7.766   3.016 -0.2278 -0.0401  0.6618
  678MOL0     O93429   8.642   7.722   3.097  0.4981 -0.2084 -0.0499
  678MOL0     C93430   8.737   7.817   3.118 -0.5271 -0.2992 -0.0200
  678MOL0     C93431   8.871   7.786   3.107 -0.3319 -0.1359  0.0179
  678MOL0     C93432   8.975   7.880   3.145  1.1467 -0.5795 -0.0369
  678MOL0     C93433   8.937   8.001   3.210  0.2747  0.0354  0.2900
  678MOL0     O93434   9.026   8.101   3.260 -0.0445 -0.1155  0.3061
  678MOL0     C93435   9.144   8.052   3.324 -0.3409  0.2348 -0.3430
  678MOL0     C93436   9.252   8.075   3.219  1.0558  0.1880 -0.2636
  678MOL0     C93437   9.400   8.054   3.264 -0.6272 -0.3772  0.0721
  678MOL0     C93438   9.425   7.916   3.307  0.0367  0.3218  0.7728
  678MOL0     C93439   9.565   7.888   3.345  0.1570 -0.0156  0.5034
  678MOL0     C93440   9.579   7.738   3.350  0.4502  0.3778 -0.4803
  678MOL0     C93441   9.703   7.675   3.425 -0.0308 -0.4426  0.4664
  678MOL0     C93442   9.700   7.527   3.412  0.1195  0.2730 -0.4472
  678MOL0     N93443   9.822   7.470   3.472 -0.5609 -0.1212 -0.3440
  678MOL0     C93444   9.858   7.480   3.608  0.4459 -0.4338  0.8703
  678MOL0     C93445   9.978   7.417   3.612  0.8693 -0.3047 -0.2515
  678MOL0     C93446  10.067   7.393   3.732 -0.1361  0.2725  0.5814
  678MOL0     C93447  10.217   7.447   3.731 -0.1822  0.5610 -0.9515
  678MOL0     C93448  10.294   7.399   3.847 -0.1254 -0.0438 -0.6712
  678MOL0     C93449  10.445   7.429   3.823 -0.5945  0.9032 -0.0690
  678MOL0     O93450  10.484   7.564   3.833  0.3328  0.2114 -0.3899
  678MOL0     C93451  10.593   7.600   3.767 -0.1202  0.6697  0.0942
  678MOL0     C93452  10.716   7.545   3.805  0.9460 -0.1090 -1.0910
  678MOL0     C93453  10.836   7.582   3.752 -0.6381  0.2259  0.7487
  678MOL0     C93454  10.956   7.523   3.811  0.9602  0.5781  1.0388
  678MOL0     C93455  10.834   7.667   3.636  0.1864  0.2998 -0.1070
  678MOL0     C93456  10.948   7.723   3.556 -0.1771  1.2885 -0.5068
  678MOL0     O93457  10.930   7.832   3.474  0.0855  0.7423 -0.0818
  678MOL0     C93458  11.027   7.850   3.377 -0.4615 -0.6968 -0.4051
  678MOL0     C93459  11.162   7.877   3.406 -0.4710 -0.3346 -0.4659
  678MOL0     C93460  11.260   7.893   3.312  0.4004 -0.3401  0.7091
  678MOL0     C93461  11.225   7.887   3.178  0.5504  0.1346 -0.6400
  678MOL0     O93462  11.328   7.901   3.090 -1.0708  0.6470 -0.0976
  678MOL0     C93463  11.302   7.955   2.954  0.2843 -0.1495 -1.4362
  678MOL0     C93464  11.438   7.989   2.885 -0.7351  0.8149 -0.0925
  678MOL0     C93465  11.513   8.089   2.973 -0.1764 -0.3224 -0.7333
  678MOL0     C93466  11.605   8.193   2.903 -0.5702 -0.0917  0.5639
  678MOL0     C93467  11.712   8.118   2.814 -0.5574  0.5206  0.4016
  678MOL0     C93468  11.796   8.021   2.905 -0.5984 -0.0932  1.1956
  678MOL0     C93469  11.925   7.966   2.830 -0.1315 -0.5634 -1.1063
  678MOL0     C93470  12.042   7.941   2.926  0.1519  0.5451 -0.4233
  678MOL0    Cl93471  12.182   7.900   2.831 -0.2060 -0.9311 -0.5878
  678MOL0     C93472  11.093   7.868   3.141 -0.0809  0.0051  0.3745
  678MOL0     C93473  10.994   7.847   3.241  0.2890  0.4644  0.5720
  678MOL0     O93474  11.052   7.662   3.577 -0.4889  0.2673 -0.5566
  678MOL0     C93475  10.706   7.716   3.598 -0.6431  0.7717 -0.4595
  678MOL0     C93476  10.592   7.691   3.667 -0.4093 -0.1382  0.1215
  678MOL0     N93477  10.006   7.362   3.479  0.1891 -0.6226 -0.6987
  678MOL0     N93478   9.915   7.406   3.404  0.7526  0.5445  0.5382
  678MOL0     C93479   8.798   8.029   3.214  0.7319  0.4073 -0.4345
  678MOL0     C93480   8.702   7.940   3.173  0.0164  0.3296 -0.1609
  678MOL0     C93481   8.410   7.701   3.038  0.1184  1.0038  0.6659
  678MOL0     C93482   8.366   7.676   3.173 -0.4271  0.6435  0.5771
  678MOL0     C93483   8.255   7.598   3.195 -0.4808 -1.4193  0.3987
  678MOL0     C93484   8.180   7.545   3.087  0.4067 -0.2592  0.8391
  678MOL0     O93485   8.058   7.481   3.119 -0.1333 -0.3024 -0.1029
  678MOL0     C93486   7.968   7.453   3.015 -0.3260  0.4573  0.1971
  678MOL0     C93487   7.840   7.412   3.090 -0.0489  0.2973  0.6042
  678MOL0     C93488   7.718   7.387   2.996  0.3966 -0.2828 -0.2775
  678MOL0     C93489   7.599   7.318   3.070  0.4773 -0.0875  0.2666
  678MOL0     C93490   7.482   7.328   2.982  0.7763  0.0917  0.4700
  678MOL0     C93491   7.367   7.331   2.934 -0.5268  0.2295 -0.0716
  678MOL0     C93492   8.220   7.570   2.958 -1.3891 -0.7526  0.9341
  678MOL0     C93493   8.329   7.646   2.933  0.1597  0.2130 -0.2478
  678MOL0     C93494   8.373   7.661   2.791 -0.0711 -0.4166  0.0952
  678MOL0     H93495   8.898   7.690   3.063 -0.6583 -0.9983  1.6157
  678MOL0     H93496   9.080   7.857   3.127  0.4622 -2.3790 -2.1807
  678MOL0     H93497   9.125   7.949   3.358 -1.1429  1.0771  1.9249
  678MOL0     H93498   9.166   8.110   3.414  2.5037 -0.1964 -0.6732
  678MOL0     H93499   9.229   8.015   3.130 -0.6271 -2.1662  1.6243
  678MOL0     H93500   9.240   8.181   3.194 -0.4138 -0.3560 -2.1352
  678MOL0     H93501   9.472   8.090   3.189  0.6340 -2.6168  0.1198
  678MOL0     H93502   9.416   8.116   3.352  1.4970  0.5166 -0.8577
  678MOL0     H93503   9.360   7.895   3.393  0.4049 -0.3214  0.9020
  678MOL0     H93504   9.398   7.853   3.221  1.1472  0.9894 -0.0907
  678MOL0     H93505   9.586   7.939   3.440  2.6174  1.8456 -0.9059
  678MOL0     H93506   9.621   7.947   3.272 -3.3084  1.2025 -1.4199
  678MOL0     H93507   9.493   7.701   3.405 -0.6185  1.8205 -1.1115
  678MOL0     H93508   9.581   7.711   3.244  1.3179  0.0058 -0.3794
  678MOL0     H93509   9.717   7.706   3.529  1.0890  2.5645 -0.4637
  678MOL0     H93510   9.794   7.715   3.379 -0.7293  1.0301  0.3126
  678MOL0     H93511   9.613   7.479   3.459 -0.0780 -1.4530 -2.3817
  678MOL0     H93512   9.698   7.491   3.308 -1.5257  0.2699 -0.4478
  678MOL0     H93513   9.796   7.518   3.688  1.4352  0.6547  1.1463
  678MOL0     H93514  10.068   7.285   3.748  2.8681  0.3147  1.1581
  678MOL0     H93515  10.015   7.433   3.820  0.4998 -0.8930  1.5168
  678MOL0     H93516  10.261   7.401   3.641 -1.1202 -1.8998 -0.2279
  678MOL0     H93517  10.217   7.556   3.734 -0.9612  0.5477 -0.1498
  678MOL0     H93518  10.265   7.460   3.934 -3.5161  2.2917 -3.1889
  678MOL0     H93519  10.268   7.298   3.878 -4.9994  2.2121  4.4819
  678MOL0     H93520  10.496   7.366   3.897 -1.6581  1.4127  1.1554
  678MOL0     H93521  10.469   7.388   3.725 -3.2496  1.2520 -0.9385
  678MOL0     H93522  10.702   7.473   3.885 -0.9956 -0.1044 -1.3630
  678MOL0     H93523  10.994   7.445   3.744 -0.2239 -0.1323  1.1649
  678MOL0     H93524  10.939   7.466   3.902  1.7271 -2.0189 -0.3318
  678MOL0     H93525  11.027   7.601   3.838  0.9830  0.2787  1.8562
  678MOL0     H93526  11.191   7.896   3.509 -2.3473  1.6542 -0.2377
  678MOL0     H93527  11.368   7.897   3.316  0.3656  1.4256  0.4134
  678MOL0     H93528  11.246   7.882   2.895 -1.3260 -2.6534  2.7949
  678MOL0     H93529  11.238   8.043   2.965 -1.3877 -1.5784  1.4751
  678MOL0     H93530  11.495   7.896   2.876 -0.7848  0.6224  1.3608
  678MOL0     H93531  11.413   8.041   2.793  1.0713  0.1615 -0.9981
  678MOL0     H93532  11.565   8.042   3.057  1.2481 -1.4582 -2.1846
  678MOL0     H93533  11.439   8.160   3.013  2.0888  1.1362  1.0967
  678MOL0     H93534  11.658   8.249   2.981 -0.5775 -1.0494  1.2742
  678MOL0     H93535  11.541   8.259   2.843 -0.8061 -1.8009 -1.1519
  678MOL0     H93536  11.666   8.062   2.733  0.2324 -1.5316  1.3103
  678MOL0     H93537  11.788   8.187   2.775 -1.5159  0.6771 -1.2511
  678MOL0     H93538  11.737   7.938   2.946 -0.8155  0.7838  2.7387
  678MOL0     H93539  11.825   8.084   2.989  0.0763  1.4675 -0.1553
  678MOL0     H93540  11.959   8.040   2.757 -0.5556  1.6593  0.8176
  678MOL0     H93541  11.910   7.873   2.776 -1.9181 -1.6695  1.1354
  678MOL0     H93542  12.029   7.843   2.972 -0.9375  1.1745  0.6494
  678MOL0     H93543  12.066   8.017   3.001  2.0538 -0.0482 -0.3827
  678MOL0     H93544  11.063   7.867   3.036 -0.1749  2.0909  0.3300
  678MOL0     H93545  10.890   7.844   3.212 -0.0727  0.6516  1.8052
  678MOL0     H93546  10.719   7.791   3.521  2.4593  0.7543 -0.0789
  678MOL0     H93547  10.507   7.747   3.630  0.8635  1.5112 -0.4408
  678MOL0     H93548   8.757   8.117   3.261  1.0509 -1.7007  4.4008
  678MOL0     H93549   8.602   7.973   3.200  0.1653 -0.2205  1.1795
  678MOL0     H93550   8.412   7.718   3.262 -4.8114  1.9087  2.5715
  678MOL0     H93551   8.223   7.590   3.298  0.0092 -4.0901  0.4207
  678MOL0     H93552   7.935   7.546   2.967 -0.7365  0.6510  0.8478
  678MOL0     H93553   7.997   7.377   2.941  2.4046  1.4898  0.1227
  678MOL0     H93554   7.811   7.475   3.175 -1.8150 -1.6820  1.5825
  678MOL0     H93555   7.885   7.322   3.132  1.1217  0.8962  0.6658
  678MOL0     H93556   7.684   7.472   2.937 -0.5459 -1.9005 -2.1875
  678MOL0     H93557   7.751   7.315   2.921  2.8067 -0.4317  0.8207
  678MOL0     H93558   7.568   7.361   3.165 -3.0524 -2.2855  0.2963
  678MOL0     H93559   7.621   7.211   3.084  0.0504  0.1135  2.9022
  678MOL0     H93560   7.269   7.345   2.892 -0.6924  2.1522  0.8346
  678MOL0     H93561   8.174   7.525   2.871  2.1367 -0.2604 -1.4435
  678MOL0     H93562   8.480   7.640   2.785 -0.5809 -2.8695 -2.9749
  678MOL0     H93563   8.322   7.592   2.724  0.2994  0.6096 -1.2839
  678MOL0     H93564   8.353   7.760   2.749  2.2119  0.1122  0.1600
  679MOL0     O93565   6.750   7.024   2.390  0.4350 -0.8783  0.2964
  679MOL0     C93566   6.745   6.957   2.497  0.6260  0.2250  0.4624
  679MOL0     O93567   6.849   6.889   2.558  0.0412 -0.2011  0.4903
  679MOL0     C93568   6.967   6.963   2.556  0.1020  0.7065 -0.4717
  679MOL0     C93569   7.082   6.883   2.542 -0.4988 -1.2856 -0.6071
  679MOL0     C93570   7.202   6.944   2.534 -0.4849 -0.6554 -0.5922
  679MOL0     C93571   7.215   7.083   2.543 -0.1634  0.4865  0.2472
  679MOL0     O93572   7.340   7.141   2.542  0.3321 -0.4793 -0.0725
  679MOL0     C93573   7.453   7.084   2.476 -0.0273  0.9456 -0.2262
  679MOL0     C93574   7.542   7.014   2.581  0.5243 -0.1428 -0.1471
  679MOL0     C93575   7.632   6.904   2.525 -0.2279  0.5253 -0.5925
  679MOL0     C93576   7.724   6.838   2.627  0.9284  1.0416  0.0425
  679MOL0     C93577   7.827   6.924   2.688  1.0071 -0.5370  0.4036
  679MOL0     C93578   7.921   6.987   2.586 -0.0991  0.0575 -0.6150
  679MOL0     C93579   8.045   7.043   2.652  0.5098 -0.0224  0.4562
  679MOL0     C93580   8.164   7.039   2.549 -0.0261 -0.0939  1.3871
  679MOL0     N93581   8.298   7.058   2.601  0.8884 -0.2048 -0.0349
  679MOL0     C93582   8.340   7.168   2.669 -0.3568  0.1299 -0.4065
  679MOL0     C93583   8.473   7.175   2.650 -0.3851 -0.6604 -0.7696
  679MOL0     C93584   8.566   7.289   2.700 -0.3981 -0.3985 -0.5420
  679MOL0     C93585   8.567   7.296   2.858  0.8250 -0.6469 -0.2950
  679MOL0     C93586   8.666   7.388   2.918 -0.3450 -0.0960 -0.0149
  679MOL0     C93587   8.799   7.315   2.925 -0.4139 -0.2474 -0.7011
  679MOL0     O93588   8.864   7.292   2.804  0.2199  0.6340  0.0015
  679MOL0     C93589   8.969   7.206   2.803  0.5026 -0.3890 -0.7726
  679MOL0     C93590   8.974   7.088   2.881  0.3332  0.3451  0.2831
  679MOL0     C93591   9.109   7.031   2.910  1.1639  0.6579 -0.5651
  679MOL0     C93592   9.106   6.921   3.013  0.0497  0.0740 -0.2219
  679MOL0     C93593   9.224   7.074   2.837  0.0823 -0.3158 -0.0723
  679MOL0     C93594   9.363   7.028   2.862  0.2948 -0.8311  0.1135
  679MOL0     O93595   9.450   7.059   2.765  0.0238  0.6733 -0.3245
  679MOL0     C93596   9.589   7.048   2.770 -0.7650 -0.4179 -0.5868
  679MOL0     C93597   9.671   7.153   2.721  0.3619  0.2027  0.0860
  679MOL0     C93598   9.809   7.131   2.708  0.4518 -0.1291  0.6500
  679MOL0     C93599   9.878   7.018   2.759  0.0776 -0.2729  0.4814
  679MOL0     O93600  10.011   6.999   2.758  0.3831  0.4233  0.5607
  679MOL0     C93601  10.081   7.046   2.633 -0.0753  0.0750 -0.6898
  679MOL0     C93602  10.232   7.027   2.634 -0.5281  0.0205 -1.8632
  679MOL0     C93603  10.292   6.892   2.671 -0.3984  0.4039 -0.2426
  679MOL0     C93604  10.437   6.886   2.640  0.9289  0.2791  0.3214
  679MOL0     C93605  10.515   6.767   2.706  0.5082  0.5198  0.1467
  679MOL0     C93606  10.438   6.633   2.722 -0.3522 -0.9496  0.8283
  679MOL0     C93607  10.545   6.531   2.754  0.7102  0.2618  0.2912
  679MOL0     C93608  10.472   6.393   2.753  0.7514  0.0795 -0.4467
  679MOL0    Cl93609  10.566   6.266   2.847 -0.2643 -0.0844 -0.1711
  679MOL0     C93610   9.800   6.918   2.805 -0.1007  0.1966  0.2519
  679MOL0     C93611   9.662   6.937   2.812 -0.0080 -0.2552  0.0159
  679MOL0     O93612   9.390   6.992   2.979  0.8100  0.3315  0.2758
  679MOL0     C93613   9.205   7.173   2.744  0.2443 -0.1227  0.2314
  679MOL0     C93614   9.079   7.241   2.722 -0.3331 -0.8416 -0.5020
  679MOL0     N93615   8.502   7.078   2.563  0.1540  0.2131  0.3407
  679MOL0     N93616   8.397   7.020   2.518 -0.1768 -0.8938 -0.2926
  679MOL0     C93617   7.098   7.152   2.578 -0.2257  0.1949 -0.0779
  679MOL0     C93618   6.973   7.100   2.580 -0.4720  0.5685  0.6002
  679MOL0     C93619   6.612   6.948   2.549  0.9535 -0.0652 -0.4815
  679MOL0     C93620   6.499   6.914   2.468  0.0735 -1.1948  0.6786
  679MOL0     C93621   6.372   6.917   2.515  0.3336 -0.0951 -0.3633
  679MOL0     C93622   6.343   6.959   2.650 -0.2996  0.3143 -0.0103
  679MOL0     O93623   6.219   6.943   2.707 -0.5846 -1.0170  0.3661
  679MOL0     C93624   6.159   7.062   2.767  0.5096  0.1723 -0.9033
  679MOL0     C93625   6.043   7.126   2.692 -0.2858 -0.1787  0.0506
  679MOL0     C93626   5.927   7.038   2.671 -0.7022 -0.0197 -0.5932
  679MOL0     C93627   5.955   6.919   2.579 -0.3946 -0.9819 -0.6131
  679MOL0     C93628   5.846   6.871   2.500 -0.2661  0.6501  0.7417
  679MOL0     C93629   5.756   6.816   2.444 -0.3236  0.0257  0.6514
  679MOL0     C93630   6.448   6.993   2.732  0.6817  0.0438  0.5464
  679MOL0     C93631   6.581   6.980   2.679 -0.5917 -0.0001 -0.2014
  679MOL0     C93632   6.694   7.003   2.782  0.7828  0.0082  0.4332
  679MOL0     H93633   7.070   6.776   2.546  1.6538 -1.7484 -3.4567
  679MOL0     H93634   7.286   6.877   2.522 -1.4667 -1.9520 -0.4209
  679MOL0     H93635   7.505   7.160   2.418 -1.1454 -0.7552 -3.7696
  679MOL0     H93636   7.417   7.009   2.404  1.5867  0.2262 -0.3281
  679MOL0     H93637   7.612   7.081   2.632  1.2792 -1.6480  0.8502
  679MOL0     H93638   7.467   6.977   2.651 -0.7552  2.0220 -0.2737
  679MOL0     H93639   7.566   6.834   2.473 -0.9087  1.1144 -0.5243
  679MOL0     H93640   7.697   6.944   2.447 -0.4598  3.2429  0.5141
  679MOL0     H93641   7.656   6.795   2.701  1.7149 -1.8161 -0.7576
  679MOL0     H93642   7.769   6.746   2.588 -2.2748 -1.7661  2.3554
  679MOL0     H93643   7.888   6.857   2.749  1.5601 -0.3391  0.0758
  679MOL0     H93644   7.788   7.008   2.746  0.9375  0.2881 -0.7832
  679MOL0     H93645   7.956   6.906   2.522  1.2812  0.7496 -0.7568
  679MOL0     H93646   7.878   7.067   2.526  0.6875  0.5665 -0.5130
  679MOL0     H93647   8.064   6.985   2.742 -1.3275 -1.8137 -0.2325
  679MOL0     H93648   8.037   7.149   2.678  1.5181  0.3307 -0.6036
  679MOL0     H93649   8.164   6.942   2.498  1.0417 -0.3485  1.8500
  679MOL0     H93650   8.149   7.125   2.483  0.5919  0.3092  1.7676
  679MOL0     H93651   8.289   7.248   2.722  0.6641  0.1308  0.6228
  679MOL0     H93652   8.535   7.386   2.659 -1.3517 -0.2275  0.5292
  679MOL0     H93653   8.667   7.258   2.672  0.3063  0.3197  1.0596
  679MOL0     H93654   8.465   7.330   2.880  1.3598  1.3670 -0.7420
  679MOL0     H93655   8.587   7.194   2.892  0.4783 -0.7383 -0.3522
  679MOL0     H93656   8.675   7.471   2.848  0.3231 -0.6276 -0.5775
  679MOL0     H93657   8.636   7.424   3.016  0.0550  1.8947 -0.5921
  679MOL0     H93658   8.866   7.376   2.986 -0.3722 -0.6600 -0.3336
  679MOL0     H93659   8.786   7.230   2.992 -0.5464  0.6585  0.4580
  679MOL0     H93660   8.885   7.047   2.926  0.1357 -1.5588 -1.6491
  679MOL0     H93661   9.151   6.952   3.107 -3.0537  2.2949  0.6596
  679MOL0     H93662   9.162   6.834   2.975 -0.5161 -1.6790  2.6706
  679MOL0     H93663   9.011   6.875   3.041  0.4893 -0.2161  0.8305
  679MOL0     H93664   9.628   7.247   2.687  0.5333 -0.2817 -1.5384
  679MOL0     H93665   9.866   7.220   2.683  2.2996 -0.7835  2.2804
  679MOL0     H93666  10.048   6.982   2.551  1.6898 -1.4752 -0.2556
  679MOL0     H93667  10.056   7.152   2.626 -2.4868 -0.3267  0.5552
  679MOL0     H93668  10.276   7.061   2.540 -2.0144  3.6187 -1.4329
  679MOL0     H93669  10.278   7.100   2.702 -1.2520  0.9583 -2.3616
  679MOL0     H93670  10.234   6.817   2.616 -0.2765  0.3880 -0.3499
  679MOL0     H93671  10.268   6.871   2.775 -3.5216  2.6395 -0.3603
  679MOL0     H93672  10.495   6.978   2.657 -0.8317  1.3788  0.6997
  679MOL0     H93673  10.452   6.866   2.533  2.5726  0.8959  0.3963
  679MOL0     H93674  10.596   6.748   2.634  0.0804 -1.8163  0.1998
  679MOL0     H93675  10.557   6.799   2.802  0.1447 -0.6901  0.7274
  679MOL0     H93676  10.373   6.609   2.638 -2.9613 -1.4673  2.8623
  679MOL0     H93677  10.373   6.649   2.809  0.3917  1.6510  0.9873
  679MOL0     H93678  10.592   6.557   2.850  0.1973 -1.5424  1.0724
  679MOL0     H93679  10.620   6.524   2.675 -0.2357  0.1509 -0.6081
  679MOL0     H93680  10.446   6.369   2.650  0.7140  1.5907 -0.8205
  679MOL0     H93681  10.379   6.404   2.810  0.3770 -0.1152 -1.0124
  679MOL0     H93682   9.857   6.837   2.849  0.1613 -0.1821 -0.7596
  679MOL0     H93683   9.606   6.852   2.850  0.6720 -0.4089  0.6938
  679MOL0     H93684   9.286   7.214   2.685  0.3620  1.0877  1.2013
  679MOL0     H93685   9.098   7.323   2.654 -0.7324  0.2420  0.6705
  679MOL0     H93686   7.110   7.259   2.595 -0.6298  0.3844 -0.9276
  679MOL0     H93687   6.887   7.158   2.610 -1.7305 -0.7108 -0.3738
  679MOL0     H93688   6.516   6.893   2.363 -0.8323 -2.6481  0.7960
  679MOL0     H93689   6.281   6.886   2.465 -0.7723  0.7482  1.0345
  679MOL0     H93690   6.117   7.037   2.865  1.3571  1.0558 -0.2944
  679MOL0     H93691   6.224   7.148   2.785 -0.0428  0.1646  1.3666
  679MOL0     H93692   6.080   7.171   2.599  1.4547  1.9285  1.6707
  679MOL0     H93693   6.008   7.211   2.752 -5.0956 -1.1430 -0.9786
  679MOL0     H93694   5.895   6.996   2.767  0.4134 -0.4943 -0.4042
  679MOL0     H93695   5.849   7.103   2.630  0.7978  1.1339 -1.7578
  679MOL0     H93696   6.000   6.837   2.634  2.1041  1.1084  0.6852
  679MOL0     H93697   6.031   6.958   2.510 -1.3188  6.3903  1.6199
  679MOL0     H93698   5.670   6.766   2.404 -0.4926  0.6658  0.1891
  679MOL0     H93699   6.446   7.048   2.826  2.0617  1.6676 -0.3356
  679MOL0     H93700   6.767   6.922   2.781 -0.0091 -0.7504  1.6399
  679MOL0     H93701   6.755   7.088   2.748 -2.2583  2.0517 -0.3367
  679MOL0     H93702   6.666   7.020   2.886  1.6844  0.9317  0.5456
  680MOL0     O93703   6.546   6.879   8.022  0.0933 -0.1916  0.0981
  680MOL0     C93704   6.489   6.854   7.917 -0.0773  0.1179 -0.1747
  680MOL0     O93705   6.559   6.800   7.803  0.0310 -1.1365  0.0265
  680MOL0     C93706   6.701   6.810   7.793  0.1058  0.9784 -0.3172
  680MOL0     C93707   6.789   6.789   7.897 -0.9022 -0.0153 -0.6497
  680MOL0     C93708   6.922   6.826   7.889 -0.1430  0.4434  0.6924
  680MOL0     C93709   6.975   6.874   7.766  0.5614  0.5782 -0.3201
  680MOL0     O93710   7.106   6.912   7.753  0.6600 -0.3954  0.8225
  680MOL0     C93711   7.200   6.899   7.862 -0.0069  0.6670  0.3978
  680MOL0     C93712   7.181   7.020   7.955 -0.4774  0.3193  0.8103
  680MOL0     C93713   7.310   7.061   8.032  0.0112  0.2637 -0.1913
  680MOL0     C93714   7.404   7.138   7.947  0.3698 -0.5415 -0.2309
  680MOL0     C93715   7.523   7.195   8.032  0.3701  0.7126 -0.0305
  680MOL0     C93716   7.642   7.218   7.935  0.0304 -0.9074  0.7428
  680MOL0     C93717   7.763   7.265   8.014 -0.0899 -0.1246 -0.7694
  680MOL0     C93718   7.765   7.417   8.035 -0.0999  0.9155  0.1732
  680MOL0     N93719   7.760   7.496   7.907 -0.1022 -0.3172 -0.1274
  680MOL0     C93720   7.698   7.619   7.894  0.3049 -0.9875 -0.3893
  680MOL0     C93721   7.714   7.644   7.764 -0.3628 -0.4625 -0.9131
  680MOL0     C93722   7.660   7.761   7.699  0.1964 -0.4812  0.5346
  680MOL0     C93723   7.550   7.717   7.596 -0.1999 -0.5326  0.2669
  680MOL0     C93724   7.533   7.828   7.493 -0.5967  0.0792  0.2441
  680MOL0     C93725   7.427   7.783   7.391 -0.4775 -0.1008  0.3213
  680MOL0     O93726   7.392   7.904   7.315  0.1780  0.0901 -0.0870
  680MOL0     C93727   7.295   7.882   7.226 -0.7803  0.6138 -0.1078
  680MOL0     C93728   7.270   8.001   7.155 -0.6396 -1.2199  1.2162
  680MOL0     C93729   7.193   8.007   7.038  0.1014 -0.7309  1.1688
  680MOL0     C93730   7.191   8.138   6.959  0.1303 -0.2058 -0.2359
  680MOL0     C93731   7.128   7.886   6.995 -0.5463 -0.0486 -1.0451
  680MOL0     C93732   7.056   7.885   6.867 -0.0451  0.5567  0.6084
  680MOL0     O93733   6.989   7.996   6.826 -0.2082  0.6699  0.0495
  680MOL0     C93734   6.924   7.990   6.704  0.5070 -0.5287  0.9633
  680MOL0     C93735   6.811   7.914   6.678 -0.6388  0.4157  0.3063
  680MOL0     C93736   6.740   7.924   6.558  0.8998  0.1694  0.6108
  680MOL0     C93737   6.764   8.022   6.466  0.6687 -0.3322 -0.0250
  680MOL0     O93738   6.686   8.021   6.344  0.5719 -0.6361  0.4039
  680MOL0     C93739   6.705   8.129   6.241  0.1794  0.0946 -0.3326
  680MOL0     C93740   6.623   8.104   6.122  1.1651  0.5750  0.2606
  680MOL0     C93741   6.478   8.135   6.147 -0.7708 -0.2134 -0.0532
  680MOL0     C93742   6.401   8.091   6.023 -0.6818  0.4543 -1.5650
  680MOL0     C93743   6.397   8.199   5.908 -0.1132  0.1785  0.1522
  680MOL0     C93744   6.291   8.152   5.814  0.2126  1.1272 -0.2331
  680MOL0     C93745   6.323   8.203   5.668  0.5483  0.6507  0.4269
  680MOL0     C93746   6.230   8.140   5.561 -0.9008  0.5418  0.1930
  680MOL0    Cl93747   6.055   8.195   5.580 -0.0919 -0.2720 -0.1541
  680MOL0     C93748   6.867   8.108   6.488 -0.1282  0.0923 -0.8176
  680MOL0     C93749   6.943   8.096   6.612  0.5057  0.1546  0.3170
  680MOL0     O93750   7.037   7.770   6.812 -1.0171 -0.1643  0.1377
  680MOL0     C93751   7.138   7.770   7.080  0.1990  0.6571 -0.0036
  680MOL0     C93752   7.223   7.771   7.185 -0.9332 -0.3757  0.6168
  680MOL0     N93753   7.811   7.555   7.706 -0.6614 -0.6883 -0.3989
  680MOL0     N93754   7.832   7.464   7.793  0.7799 -0.0708  0.7273
  680MOL0     C93755   6.890   6.884   7.656 -0.4800  0.1418 -0.3861
  680MOL0     C93756   6.760   6.845   7.669 -0.0831 -0.2325 -0.4101
  680MOL0     C93757   6.339   6.883   7.901 -1.2329  0.2598 -0.2421
  680MOL0     C93758   6.265   6.803   7.812 -0.0641 -1.1939  0.2819
  680MOL0     C93759   6.127   6.808   7.793 -0.2521 -0.3285  0.5475
  680MOL0     C93760   6.062   6.897   7.871  0.2471  0.3506 -0.4190
  680MOL0     O93761   5.921   6.892   7.869  0.0499  0.4227  0.3628
  680MOL0     C93762   5.845   7.011   7.886  0.5567 -0.0286  0.3257
  680MOL0     C93763   5.700   6.982   7.836  0.0400 -0.6392  0.5958
  680MOL0     C93764   5.604   7.104   7.819 -0.0125  0.4233 -0.6535
  680MOL0     C93765   5.568   7.191   7.936  0.4847  0.7741  0.5189
  680MOL0     C93766   5.534   7.321   7.890 -0.4937  0.6587 -0.7095
  680MOL0     C93767   5.544   7.436   7.855 -0.3618  0.4411 -0.4524
  680MOL0     C93768   6.128   6.973   7.973  0.1945  0.1229  1.2305
  680MOL0     C93769   6.267   6.964   7.987 -0.0581 -0.0754 -1.1896
  680MOL0     C93770   6.321   7.014   8.119  0.8767  0.3759  0.3647
  680MOL0     H93771   6.751   6.756   7.993 -2.0550  4.2810  0.5810
  680MOL0     H93772   6.978   6.816   7.982 -0.0940  0.2682  0.6450
  680MOL0     H93773   7.306   6.899   7.835  0.2615  1.0750  1.3972
  680MOL0     H93774   7.182   6.806   7.917 -1.1791 -0.0531 -1.1233
  680MOL0     H93775   7.148   7.108   7.900  0.7275  1.4563  1.8461
  680MOL0     H93776   7.111   6.993   8.035  3.0289 -3.6397  2.9146
  680MOL0     H93777   7.286   7.133   8.111 -0.0851 -0.8715  0.8460
  680MOL0     H93778   7.357   6.980   8.088  1.5065  2.5086  1.9773
  680MOL0     H93779   7.445   7.066   7.875  0.7160 -1.3276  0.7201
  680MOL0     H93780   7.364   7.223   7.891  2.2766  0.4805 -0.1039
  680MOL0     H93781   7.557   7.119   8.103  2.2809  2.1518  0.6884
  680MOL0     H93782   7.495   7.282   8.091  1.6246  1.6835 -0.8099
  680MOL0     H93783   7.680   7.134   7.878  3.0858  1.0896 -0.4392
  680MOL0     H93784   7.616   7.294   7.861  0.2047  0.2216  1.7914
  680MOL0     H93785   7.852   7.239   7.957 -1.7601 -0.8781 -3.1728
  680MOL0     H93786   7.775   7.220   8.114 -0.8062  1.1931 -0.0627
  680MOL0     H93787   7.674   7.450   8.086 -0.4837  2.9852 -1.7091
  680MOL0     H93788   7.845   7.447   8.102  0.5746 -2.1237  0.8894
  680MOL0     H93789   7.645   7.670   7.974  0.4807 -1.1705 -0.1564
  680MOL0     H93790   7.736   7.819   7.646 -1.8474 -0.7099 -3.0067
  680MOL0     H93791   7.620   7.828   7.776  0.7739  0.8307 -0.2696
  680MOL0     H93792   7.580   7.619   7.558 -1.1871  0.2806 -2.8762
  680MOL0     H93793   7.452   7.692   7.639 -2.1854  0.7143 -3.1593
  680MOL0     H93794   7.509   7.913   7.557  1.0124  0.0634  0.9084
  680MOL0     H93795   7.622   7.848   7.433  0.1970  0.6440  1.5837
  680MOL0     H93796   7.463   7.698   7.333 -1.7143 -1.0657  0.9081
  680MOL0     H93797   7.345   7.737   7.446  0.9737 -0.5574  2.2078
  680MOL0     H93798   7.321   8.090   7.190 -2.2370 -0.3430  1.4286
  680MOL0     H93799   7.086   8.168   6.953 -0.3072 -0.8758  2.4510
  680MOL0     H93800   7.235   8.109   6.863  1.6944 -1.0606  0.6872
  680MOL0     H93801   7.244   8.218   7.011 -0.7370 -0.0630  0.4600
  680MOL0     H93802   6.785   7.835   6.747 -1.2609 -2.8890 -3.3920
  680MOL0     H93803   6.668   7.846   6.535  2.7895 -1.0461 -1.6405
  680MOL0     H93804   6.690   8.228   6.284 -1.8478 -1.3714  2.6949
  680MOL0     H93805   6.808   8.136   6.204  1.6926 -0.1806  3.3961
  680MOL0     H93806   6.659   8.155   6.032  0.5593 -1.9626 -1.5160
  680MOL0     H93807   6.621   8.000   6.091 -3.0593  0.6784 -0.3886
  680MOL0     H93808   6.472   8.242   6.169 -1.6665 -0.4648  0.9689
  680MOL0     H93809   6.442   8.079   6.234 -0.1734  0.5542  0.7015
  680MOL0     H93810   6.300   8.094   6.066  1.1977 -1.5171  3.7982
  680MOL0     H93811   6.418   7.989   5.987  0.6926  0.1869 -0.2490
  680MOL0     H93812   6.369   8.302   5.933  0.3499  0.8765 -1.9674
  680MOL0     H93813   6.493   8.193   5.857 -0.3897  0.6367 -0.4463
  680MOL0     H93814   6.192   8.188   5.845  0.9096  2.6374  0.3598
  680MOL0     H93815   6.287   8.043   5.806  1.5358  1.2001 -3.1377
  680MOL0     H93816   6.426   8.179   5.640 -0.6044 -1.4307 -2.5970
  680MOL0     H93817   6.311   8.311   5.657 -3.1823  0.7285  3.1175
  680MOL0     H93818   6.239   8.031   5.559 -1.0116  0.5374 -0.1051
  680MOL0     H93819   6.251   8.164   5.456  1.3615  3.1068  1.1188
  680MOL0     H93820   6.882   8.184   6.412 -3.5925 -1.9127 -3.8133
  680MOL0     H93821   7.020   8.170   6.633 -0.2947  0.5815  1.9025
  680MOL0     H93822   7.091   7.680   7.042 -0.3565  0.4098  1.2473
  680MOL0     H93823   7.244   7.678   7.237  0.3679 -0.8793 -0.7267
  680MOL0     H93824   6.919   6.894   7.552  3.6807  1.2242  0.7010
  680MOL0     H93825   6.696   6.857   7.582  0.1512 -1.4853 -0.7748
  680MOL0     H93826   6.324   6.739   7.747  2.7698  1.6940 -0.2657
  680MOL0     H93827   6.075   6.753   7.715  0.1701  0.7806 -0.5538
  680MOL0     H93828   5.846   7.046   7.989 -1.6173  1.8142 -0.1920
  680MOL0     H93829   5.883   7.093   7.824  2.0240  1.3943  2.9568
  680MOL0     H93830   5.658   6.927   7.920 -0.9402 -0.6144  0.1340
  680MOL0     H93831   5.706   6.933   7.738 -0.2667  2.6034 -1.1845
  680MOL0     H93832   5.659   7.174   7.755  2.2723  0.5904  1.3387
  680MOL0     H93833   5.507   7.082   7.775 -0.5304  0.2626  0.5298
  680MOL0     H93834   5.656   7.198   8.000  0.6304  0.7418  0.3247
  680MOL0     H93835   5.486   7.144   7.992 -0.3149  2.4685  0.8325
  680MOL0     H93836   5.545   7.536   7.815 -2.8188  0.6223 -0.2261
  680MOL0     H93837   6.056   7.018   8.041 -3.0010 -0.4973 -1.4806
  680MOL0     H93838   6.243   7.063   8.178 -1.0060 -2.2537  0.2663
  680MOL0     H93839   6.350   6.927   8.180  1.4490  1.2433  1.3634
  680MOL0     H93840   6.396   7.089   8.096 -0.5069  1.2020 -1.7032
  681MOL0     O93841   3.781   3.065   3.519 -0.9824 -0.0251 -0.8002
  681MOL0     C93842   3.802   3.002   3.629 -0.1996  0.3105  0.3265
  681MOL0     O93843   3.922   2.944   3.659 -0.5402 -0.1525 -0.1548
  681MOL0     C93844   4.022   2.948   3.568 -0.1435 -0.1811 -0.0371
  681MOL0     C93845   4.016   2.906   3.432  0.2186 -1.1309  0.2165
  681MOL0     C93846   4.125   2.921   3.347  0.5385  0.7877  0.5137
  681MOL0     C93847   4.244   2.985   3.396  0.4765 -0.6510  0.2890
  681MOL0     O93848   4.345   3.011   3.315 -0.6564 -0.0175 -0.6371
  681MOL0     C93849   4.396   2.892   3.240  0.0127 -0.0169  0.8444
  681MOL0     C93850   4.537   2.922   3.178  0.2566  0.6198  0.0728
  681MOL0     C93851   4.646   2.896   3.285  0.0046  0.2940 -0.1634
  681MOL0     C93852   4.783   2.925   3.247 -1.0305  0.2126  0.3145
  681MOL0     C93853   4.880   2.934   3.367 -0.4814 -0.1045  0.4461
  681MOL0     C93854   4.878   2.805   3.438 -0.3870  0.9864 -1.0912
  681MOL0     C93855   4.980   2.805   3.554  0.1233 -0.1703 -0.1320
  681MOL0     C93856   4.973   2.668   3.619 -0.3332  0.4935  0.1013
  681MOL0     N93857   5.083   2.615   3.694  0.4702 -0.6726 -0.6041
  681MOL0     C93858   5.086   2.589   3.834 -0.6119 -0.7179  0.7240
  681MOL0     C93859   5.195   2.510   3.858 -0.0000 -0.5397  1.0679
  681MOL0     C93860   5.235   2.451   3.985  0.1178  0.0928 -0.3208
  681MOL0     C93861   5.286   2.566   4.077 -0.6856  0.5513  0.4125
  681MOL0     C93862   5.393   2.649   4.013 -0.5605 -0.3486  0.0842
  681MOL0     C93863   5.421   2.766   4.109 -0.0370 -0.5800  0.1101
  681MOL0     O93864   5.529   2.750   4.191  0.0708 -0.0198  0.4606
  681MOL0     C93865   5.661   2.757   4.141  0.0470  0.1293  0.0690
  681MOL0     C93866   5.751   2.739   4.240 -0.0347  0.2739 -0.7729
  681MOL0     C93867   5.891   2.738   4.214 -0.2423 -0.9818  0.4653
  681MOL0     C93868   5.976   2.719   4.329  0.1720  0.4359 -0.3461
  681MOL0     C93869   5.936   2.742   4.080 -0.4076 -0.1317 -0.3796
  681MOL0     C93870   6.082   2.728   4.043  0.3886 -0.0821 -0.8359
  681MOL0     O93871   6.138   2.816   3.953  0.2199  0.4015  0.2328
  681MOL0     C93872   6.271   2.817   3.929 -0.6403  0.1772 -0.5289
  681MOL0     C93873   6.340   2.713   3.862 -0.1156  0.1255 -0.4943
  681MOL0     C93874   6.479   2.727   3.840  0.8869  0.7947  0.8332
  681MOL0     C93875   6.540   2.851   3.862  0.0172  0.4351  0.1213
  681MOL0     O93876   6.675   2.862   3.851 -0.0140  0.2727  0.1239
  681MOL0     C93877   6.716   2.964   3.759  0.1423  0.3084  0.1321
  681MOL0     C93878   6.865   2.994   3.793 -0.0856  0.0282 -0.1247
  681MOL0     C93879   6.888   3.079   3.918  0.2045  0.1157  0.2958
  681MOL0     C93880   6.847   3.228   3.910 -0.1588  0.5661 -0.0371
  681MOL0     C93881   6.911   3.307   4.028  0.8150  0.0746  1.1851
  681MOL0     C93882   6.864   3.285   4.164 -0.3155  0.3837 -0.2950
  681MOL0     C93883   6.765   3.388   4.226  1.0114  0.0522  0.2350
  681MOL0     C93884   6.643   3.329   4.295  0.9107 -0.5669 -0.3639
  681MOL0    Cl93885   6.517   3.306   4.178  0.1308  0.1048 -0.4362
  681MOL0     C93886   6.468   2.953   3.925 -0.5065  0.2227  0.1662
  681MOL0     C93887   6.339   2.939   3.971 -0.7026  0.4429 -0.0987
  681MOL0     O93888   6.136   2.617   4.075 -0.2030 -0.7982  0.3546
  681MOL0     C93889   5.845   2.753   3.973  0.5234  0.0957  0.5777
  681MOL0     C93890   5.705   2.754   3.997 -0.3120 -0.9879 -0.2333
  681MOL0     N93891   5.249   2.482   3.736  0.9384 -0.1493 -0.4359
  681MOL0     N93892   5.189   2.553   3.644  0.0152 -0.6458  0.0637
  681MOL0     C93893   4.248   3.031   3.527  0.3247  1.0397 -0.0972
  681MOL0     C93894   4.142   3.010   3.615 -0.0268 -0.0837  0.8300
  681MOL0     C93895   3.690   2.986   3.727  0.0133  0.2772 -0.1361
  681MOL0     C93896   3.560   2.963   3.672 -0.1182 -0.7508 -0.7949
  681MOL0     C93897   3.460   2.922   3.751  0.3421  0.7358 -0.0993
  681MOL0     C93898   3.478   2.903   3.893 -0.6442  0.0106 -0.1880
  681MOL0     O93899   3.395   2.855   3.977  0.1869 -0.0277 -0.2830
  681MOL0     C93900   3.260   2.901   3.946 -0.5514 -0.1205 -0.2055
  681MOL0     C93901   3.147   2.853   4.032  0.3212  0.1111  0.3186
  681MOL0     C93902   3.130   2.903   4.171  0.1481  0.1366  0.1434
  681MOL0     C93903   3.227   3.023   4.204 -0.0523 -0.0837 -0.3896
  681MOL0     C93904   3.213   3.071   4.344  0.9169  0.6781  0.1337
  681MOL0     C93905   3.200   3.095   4.463  0.3126  0.2361  0.7167
  681MOL0     C93906   3.599   2.937   3.945  0.1076 -0.0355 -0.8612
  681MOL0     C93907   3.708   2.986   3.869  0.4353  0.2781  0.3956
  681MOL0     C93908   3.824   3.033   3.938 -0.9797 -0.7360 -0.7580
  681MOL0     H93909   3.919   2.864   3.408 -0.3001  0.4589 -0.6170
  681MOL0     H93910   4.109   2.889   3.244 -0.6545  3.1883 -0.1292
  681MOL0     H93911   4.329   2.881   3.155 -1.4904  1.1712  1.8188
  681MOL0     H93912   4.385   2.796   3.291  0.0263 -0.0936  0.7034
  681MOL0     H93913   4.567   2.867   3.089 -1.0590 -1.0287  0.6045
  681MOL0     H93914   4.525   3.028   3.154  1.0713  1.3774  2.5867
  681MOL0     H93915   4.620   2.960   3.370  2.6652 -0.8139  1.6091
  681MOL0     H93916   4.628   2.792   3.315 -0.2596 -0.5975 -3.1127
  681MOL0     H93917   4.821   2.849   3.178 -2.4788  0.2335 -0.5535
  681MOL0     H93918   4.789   3.019   3.192 -0.8971 -1.0971 -2.0602
  681MOL0     H93919   4.853   3.018   3.432  1.2908  0.9757 -0.1386
  681MOL0     H93920   4.982   2.963   3.342 -1.2584  1.3913 -1.3324
  681MOL0     H93921   4.784   2.776   3.486  0.3886 -0.4805 -0.4246
  681MOL0     H93922   4.896   2.724   3.367 -1.3998 -1.2001  0.9970
  681MOL0     H93923   4.962   2.874   3.636 -1.4902  0.3722 -0.9007
  681MOL0     H93924   5.080   2.813   3.509  0.1311 -1.1191 -0.3020
  681MOL0     H93925   4.888   2.676   3.688  1.7833  1.5067  2.7653
  681MOL0     H93926   4.939   2.592   3.548  1.6045 -0.6746  0.3384
  681MOL0     H93927   5.026   2.611   3.922  0.9711 -0.3563  1.7443
  681MOL0     H93928   5.320   2.384   3.972 -0.2944 -0.4987  0.0036
  681MOL0     H93929   5.154   2.395   4.033  1.1662 -0.3581  0.9881
  681MOL0     H93930   5.206   2.635   4.104  1.2260  2.2807  2.0110
  681MOL0     H93931   5.315   2.515   4.170  0.3145 -1.1366 -0.7604
  681MOL0     H93932   5.486   2.593   3.994  0.0328  0.8890 -0.7559
  681MOL0     H93933   5.358   2.686   3.917  0.1938 -0.2391 -0.1497
  681MOL0     H93934   5.446   2.854   4.049  0.8656 -0.7728  0.1808
  681MOL0     H93935   5.332   2.793   4.167 -0.3577 -1.5510  0.0756
  681MOL0     H93936   5.719   2.731   4.343 -0.8244 -0.8490 -1.0804
  681MOL0     H93937   5.995   2.816   4.375 -0.8902  0.5419 -0.1140
  681MOL0     H93938   6.065   2.656   4.317 -0.1717  0.1401 -1.4633
  681MOL0     H93939   5.915   2.666   4.402 -0.4438 -0.5757 -1.5413
  681MOL0     H93940   6.291   2.625   3.821  3.4090 -0.5879 -3.6825
  681MOL0     H93941   6.533   2.636   3.814 -2.3427 -1.5997  1.8831
  681MOL0     H93942   6.708   2.920   3.659 -2.0665 -1.6490  1.0829
  681MOL0     H93943   6.661   3.059   3.765 -0.1112  0.1350  0.6046
  681MOL0     H93944   6.906   2.893   3.795 -1.8750 -0.7575 -0.6094
  681MOL0     H93945   6.902   3.040   3.701 -0.3474 -0.8261 -0.6676
  681MOL0     H93946   6.995   3.070   3.941  0.0385  0.0257  1.0291
  681MOL0     H93947   6.826   3.039   3.998  0.9247 -0.2255  0.6913
  681MOL0     H93948   6.739   3.241   3.911 -0.6635 -2.6047 -0.9231
  681MOL0     H93949   6.885   3.280   3.822  1.1240  1.1177  0.8032
  681MOL0     H93950   7.016   3.277   4.023  0.4796 -0.9296 -1.9789
  681MOL0     H93951   6.899   3.412   4.001 -1.5723 -0.5023 -0.3235
  681MOL0     H93952   6.950   3.300   4.230  0.5496 -1.9363 -0.7866
  681MOL0     H93953   6.834   3.181   4.177  1.1999  0.0679  0.9435
  681MOL0     H93954   6.728   3.457   4.149 -2.6637  1.0224  2.6366
  681MOL0     H93955   6.808   3.441   4.312 -1.3307 -1.3258  2.4073
  681MOL0     H93956   6.594   3.392   4.370  1.2161  1.7766 -2.0369
  681MOL0     H93957   6.681   3.236   4.340  0.4749 -2.2628 -3.2731
  681MOL0     H93958   6.519   3.047   3.943  0.3263 -0.2021  0.0908
  681MOL0     H93959   6.293   3.019   4.028 -1.9894 -1.8522  2.3156
  681MOL0     H93960   5.876   2.746   3.870 -2.2845 -2.3653 -0.2470
  681MOL0     H93961   5.628   2.755   3.921  1.8045 -0.1140 -2.4938
  681MOL0     H93962   4.338   3.083   3.557  1.7767 -1.6624  0.5583
  681MOL0     H93963   4.150   3.029   3.722 -1.8949 -0.4344  1.0727
  681MOL0     H93964   3.528   2.982   3.570  2.4432  2.0815 -1.2095
  681MOL0     H93965   3.362   2.895   3.712  0.8267 -2.9166  0.7885
  681MOL0     H93966   3.244   3.007   3.927 -1.9254 -0.9690 -4.8444
  681MOL0     H93967   3.232   2.849   3.854 -3.2140  1.0803 -0.1804
  681MOL0     H93968   3.134   2.744   4.030  1.0137  0.0144  0.4916
  681MOL0     H93969   3.059   2.890   3.979  1.1478  1.6531 -0.0393
  681MOL0     H93970   3.027   2.936   4.187 -0.1347  0.0923 -1.3738
  681MOL0     H93971   3.144   2.819   4.240  1.1006  0.4170  0.3100
  681MOL0     H93972   3.211   3.110   4.141 -1.9290  0.6477  1.0030
  681MOL0     H93973   3.329   2.984   4.199  0.6385  1.2401  1.8346
  681MOL0     H93974   3.187   3.139   4.560 -1.4910  0.4291  0.4248
  681MOL0     H93975   3.603   2.936   4.053 -1.3714 -0.5982 -0.7789
  681MOL0     H93976   3.866   3.115   3.879 -0.0181 -1.1694 -0.6798
  681MOL0     H93977   3.788   3.072   4.034  1.8437 -2.1027  0.9888
  681MOL0     H93978   3.902   2.963   3.968  0.0881 -0.4796 -2.7805
  682MOL0     O93979   5.838   8.077   5.261  0.5777 -0.2556 -0.4251
  682MOL0     C93980   5.841   7.957   5.289 -0.2216  0.8787 -0.1449
  682MOL0     O93981   5.735   7.875   5.300  0.8114  0.8129 -0.0759
  682MOL0     C93982   5.627   7.916   5.236  0.4664  0.6102 -0.4598
  682MOL0     C93983   5.511   7.926   5.311 -0.4190  0.2800 -0.1390
  682MOL0     C93984   5.384   7.939   5.247 -0.1285  0.8913  0.1972
  682MOL0     C93985   5.381   7.945   5.111  0.4410 -0.0766  0.7049
  682MOL0     O93986   5.262   7.947   5.045  0.6890  0.5236  0.4140
  682MOL0     C93987   5.262   8.028   4.929  0.0129 -0.2909 -0.9145
  682MOL0     C93988   5.126   8.032   4.875  0.4103 -0.3550  0.3842
  682MOL0     C93989   5.134   8.020   4.722  0.5858  0.8138 -0.2756
  682MOL0     C93990   5.171   7.884   4.661  0.2812  0.2568 -0.0231
  682MOL0     C93991   5.247   7.892   4.534  0.0689  0.3870  1.0747
  682MOL0     C93992   5.154   7.928   4.420 -0.3753  1.0209 -0.9966
  682MOL0     C93993   5.236   7.977   4.305 -0.2891 -1.0864  0.7073
  682MOL0     C93994   5.136   8.030   4.199  0.2328  0.2480 -0.1818
  682MOL0     N93995   5.212   8.094   4.089  0.8255 -1.1902  0.6456
  682MOL0     C93996   5.337   8.068   4.052  0.3667 -0.6252  0.0213
  682MOL0     C93997   5.357   8.163   3.959  0.6753 -0.1255 -0.8526
  682MOL0     C93998   5.482   8.181   3.876  0.7113  0.1697 -0.1353
  682MOL0     C93999   5.484   8.069   3.771 -1.1748  0.0495 -0.1158
  682MOL0     C94000   5.613   8.082   3.686 -0.9119  0.2081 -0.0426
  682MOL0     C94001   5.630   8.198   3.590  0.4838 -0.8851  0.5218
  682MOL0     O94002   5.660   8.308   3.676  0.3419 -0.0818 -0.9902
  682MOL0     C94003   5.642   8.441   3.627  0.3497  0.3259  0.1221
  682MOL0     C94004   5.615   8.487   3.493 -0.3427 -0.0716  0.1931
  682MOL0     C94005   5.603   8.623   3.465 -0.4098 -0.0797 -0.6145
  682MOL0     C94006   5.574   8.649   3.320  0.4027  0.1168  0.0543
  682MOL0     C94007   5.588   8.716   3.574  1.2024 -0.1949 -0.3184
  682MOL0     C94008   5.565   8.870   3.552  0.4055  0.6369 -0.2151
  682MOL0     O94009   5.506   8.910   3.435 -0.0667 -0.3554 -0.5533
  682MOL0     C94010   5.485   9.041   3.422 -0.6286 -0.6441  0.9499
  682MOL0     C94011   5.408   9.117   3.512  0.0928  0.3689 -0.9710
  682MOL0     C94012   5.402   9.255   3.495 -0.0001  0.2191 -0.4538
  682MOL0     C94013   5.466   9.321   3.393 -0.2763 -0.1238  0.5562
  682MOL0     O94014   5.475   9.458   3.397  0.0499  0.1765  0.5343
  682MOL0     C94015   5.481   9.522   3.268  0.7720  0.0148 -0.1194
  682MOL0     C94016   5.436   9.663   3.287 -0.5447 -1.2578 -0.6590
  682MOL0     C94017   5.475   9.749   3.170  0.4336 -0.4309  0.0026
  682MOL0     C94018   5.620   9.749   3.107  0.1412  0.2368  0.5297
  682MOL0     C94019   5.627   9.831   2.973 -0.2655 -0.2055 -0.7356
  682MOL0     C94020   5.754   9.792   2.900  0.7765  0.8602  1.1619
  682MOL0     C94021   5.764   9.860   2.767 -0.1309  0.0450  0.9786
  682MOL0     C94022   5.909   9.870   2.723  0.2126  0.6360  0.5808
  682MOL0    Cl94023   5.961   9.706   2.672 -0.1422 -0.0887  0.7478
  682MOL0     C94024   5.536   9.239   3.292  0.0338  0.5373 -0.2387
  682MOL0     C94025   5.554   9.106   3.317  0.2185  0.5967 -0.2010
  682MOL0     O94026   5.589   8.938   3.649  0.5770  0.1833 -0.5655
  682MOL0     C94027   5.610   8.666   3.700  0.4020 -0.3560  0.2717
  682MOL0     C94028   5.628   8.537   3.726 -1.0503  0.2570  0.6549
  682MOL0     N94029   5.241   8.234   3.930 -0.1487  0.0307 -0.3283
  682MOL0     N94030   5.156   8.195   4.015 -1.0201  0.0080  0.4904
  682MOL0     C94031   5.504   7.938   5.034  0.5902 -0.5334  0.8863
  682MOL0     C94032   5.624   7.930   5.097 -0.9299  0.6324 -0.2674
  682MOL0     C94033   5.963   7.892   5.347  0.5776 -0.5418  0.5448
  682MOL0     C94034   5.957   7.805   5.459 -0.1703 -0.3702  0.9070
  682MOL0     C94035   6.070   7.747   5.510  0.3989  0.1145  0.4197
  682MOL0     C94036   6.193   7.769   5.455 -0.6113 -0.5659  0.1259
  682MOL0     O94037   6.316   7.742   5.512  0.3724 -1.0528 -0.0910
  682MOL0     C94038   6.328   7.662   5.629 -0.5930  0.6675  0.0466
  682MOL0     C94039   6.468   7.659   5.680  0.3408  0.2037  0.0781
  682MOL0     C94040   6.532   7.788   5.723 -0.3528 -0.1830  0.2436
  682MOL0     C94041   6.679   7.766   5.737  0.1730 -0.2981  0.3749
  682MOL0     C94042   6.750   7.887   5.782  0.1687 -0.3147  0.4444
  682MOL0     C94043   6.820   7.971   5.836  1.6458 -1.1503 -0.5281
  682MOL0     C94044   6.195   7.843   5.335  0.8474  0.6698 -0.2055
  682MOL0     C94045   6.083   7.908   5.281  1.1813 -0.4265  0.0431
  682MOL0     C94046   6.105   7.964   5.141  0.6019 -0.0234  0.5849
  682MOL0     H94047   5.505   7.912   5.418  1.4617 -0.8888 -0.1389
  682MOL0     H94048   5.298   7.944   5.312 -0.7560 -0.4810 -0.4867
  682MOL0     H94049   5.336   7.997   4.855  0.0899  0.4018 -1.1384
  682MOL0     H94050   5.284   8.132   4.955  1.7462 -1.0547  0.9035
  682MOL0     H94051   5.054   7.964   4.922  1.6399 -1.9527  0.0511
  682MOL0     H94052   5.077   8.125   4.904  0.3485  0.1198 -1.1913
  682MOL0     H94053   5.039   8.052   4.676 -0.7210  0.3546  1.9590
  682MOL0     H94054   5.209   8.097   4.699 -1.0373  2.1726 -1.3393
  682MOL0     H94055   5.237   7.837   4.734 -0.5911 -2.5073 -0.9159
  682MOL0     H94056   5.086   7.817   4.647  0.6747 -0.4638  0.9531
  682MOL0     H94057   5.298   7.798   4.513 -1.4787 -0.0776 -0.8442
  682MOL0     H94058   5.325   7.965   4.558 -0.3656  0.6132  1.8334
  682MOL0     H94059   5.085   7.845   4.398  2.3012 -1.6812  0.0851
  682MOL0     H94060   5.081   8.002   4.455 -0.7483 -0.4040  1.5091
  682MOL0     H94061   5.295   7.897   4.259  3.1392  1.2909  0.5583
  682MOL0     H94062   5.300   8.059   4.339 -0.0398  1.2934 -4.4632
  682MOL0     H94063   5.083   7.950   4.147  0.6356  0.7515 -1.4137
  682MOL0     H94064   5.058   8.096   4.239 -1.8388  0.6798 -4.3079
  682MOL0     H94065   5.402   7.987   4.084 -1.3909 -1.4231  1.7587
  682MOL0     H94066   5.565   8.171   3.946  1.0521  0.7529 -0.4513
  682MOL0     H94067   5.480   8.278   3.827  0.3084  0.2211 -0.0248
  682MOL0     H94068   5.483   7.969   3.816 -0.0390  1.4768  3.4361
  682MOL0     H94069   5.392   8.094   3.718 -0.9560  2.2624  0.4643
  682MOL0     H94070   5.696   8.086   3.756  0.7380 -0.6306 -1.8663
  682MOL0     H94071   5.621   7.994   3.621 -0.0050  1.4911 -1.7541
  682MOL0     H94072   5.708   8.183   3.516  0.8622  2.7342 -0.0065
  682MOL0     H94073   5.543   8.200   3.524  0.1387 -2.4578  0.8975
  682MOL0     H94074   5.626   8.417   3.410  2.9560 -1.9939  2.0635
  682MOL0     H94075   5.467   8.663   3.309 -0.4182 -0.6387  4.7492
  682MOL0     H94076   5.614   8.574   3.250  0.6292 -0.9007  1.2251
  682MOL0     H94077   5.628   8.742   3.305 -0.6306  0.9417  1.2675
  682MOL0     H94078   5.352   9.085   3.599  2.0845 -0.5928  0.0343
  682MOL0     H94079   5.343   9.315   3.564 -0.4532  1.2777 -1.7124
  682MOL0     H94080   5.582   9.530   3.227  1.2665  0.7420  1.2014
  682MOL0     H94081   5.427   9.471   3.187 -1.3929  2.2960 -0.2395
  682MOL0     H94082   5.327   9.665   3.290 -0.5675 -1.3521 -1.3228
  682MOL0     H94083   5.477   9.701   3.381  0.8871  0.4215 -1.8993
  682MOL0     H94084   5.429   9.848   3.179 -2.0350 -1.0785 -3.4130
  682MOL0     H94085   5.418   9.711   3.084  1.2676  0.2712 -0.8785
  682MOL0     H94086   5.665   9.652   3.082 -0.6421 -0.2918  1.1397
  682MOL0     H94087   5.690   9.798   3.176  1.6421 -0.2725 -0.5541
  682MOL0     H94088   5.536   9.823   2.912 -0.9030 -1.1463  0.2999
  682MOL0     H94089   5.635   9.932   3.015 -0.5668 -0.2948 -0.4547
  682MOL0     H94090   5.746   9.687   2.873  1.0001  1.2268 -0.4332
  682MOL0     H94091   5.848   9.797   2.957  2.5218 -1.3886 -1.3005
  682MOL0     H94092   5.710   9.955   2.775 -0.2112 -0.1044  2.5088
  682MOL0     H94093   5.728   9.803   2.680  1.6584 -1.8563  1.3987
  682MOL0     H94094   5.966   9.921   2.802 -1.3769  1.4583  1.2294
  682MOL0     H94095   5.910   9.938   2.638  3.0668 -1.0866 -0.9338
  682MOL0     H94096   5.570   9.293   3.205 -1.6135  2.0186 -0.0199
  682MOL0     H94097   5.608   9.051   3.241  0.8443 -1.6572  1.7761
  682MOL0     H94098   5.618   8.729   3.788  1.0385  2.7097 -1.8136
  682MOL0     H94099   5.649   8.522   3.832  1.1849 -2.6630 -0.0719
  682MOL0     H94100   5.506   7.944   4.926  3.3790  0.8544  0.9178
  682MOL0     H94101   5.718   7.928   5.042 -1.4232  2.9474 -1.2928
  682MOL0     H94102   5.867   7.785   5.516 -0.2316 -0.8264  0.6521
  682MOL0     H94103   6.066   7.661   5.576 -0.5760  0.3761  0.7055
  682MOL0     H94104   6.253   7.689   5.704 -1.4833 -1.1731 -0.1231
  682MOL0     H94105   6.300   7.559   5.604 -0.9804  0.4360  1.3393
  682MOL0     H94106   6.533   7.613   5.604  2.0893 -0.1609  1.7238
  682MOL0     H94107   6.468   7.584   5.759 -3.4636  0.6341  0.7041
  682MOL0     H94108   6.512   7.875   5.660 -3.4950 -0.2204  1.0436
  682MOL0     H94109   6.498   7.799   5.826 -0.5655 -0.8208  0.2459
  682MOL0     H94110   6.732   7.734   5.647 -0.4146  2.7614 -1.2100
  682MOL0     H94111   6.704   7.683   5.804  1.4061 -0.8032 -0.6612
  682MOL0     H94112   6.889   8.042   5.876 -1.1809  0.7082  1.4087
  682MOL0     H94113   6.290   7.854   5.283  0.4636  1.5556 -0.7411
  682MOL0     H94114   6.204   8.004   5.120  0.7024 -2.0319 -3.6458
  682MOL0     H94115   6.086   7.887   5.066  1.2207  1.5447 -1.2460
  682MOL0     H94116   6.041   8.046   5.107  2.4743  0.4003 -2.2402
  683MOL0     O94117   6.112   0.751   4.893  0.6813  0.0239 -0.3780
  683MOL0     C94118   6.088   0.731   4.775 -0.4680 -0.3074 -1.3343
  683MOL0     O94119   6.167   0.784   4.675  1.1484 -1.2923  0.4510
  683MOL0     C94120   6.275   0.866   4.710  0.3437 -0.1184 -0.2990
  683MOL0     C94121   6.264   0.983   4.779  0.0930  0.5496 -0.1581
  683MOL0     C94122   6.374   1.069   4.803  0.4295 -0.1685  0.2124
  683MOL0     C94123   6.506   1.025   4.764  0.3193  0.7487  0.0938
  683MOL0     O94124   6.622   1.099   4.794  0.1992  0.2242  0.3048
  683MOL0     C94125   6.746   1.051   4.735  0.2003  0.7274  0.2053
  683MOL0     C94126   6.867   1.137   4.770  0.1742 -0.1453 -0.8123
  683MOL0     C94127   7.002   1.063   4.756  0.3705 -0.5881 -0.6952
  683MOL0     C94128   7.090   1.134   4.657  0.1551  0.2021 -0.5649
  683MOL0     C94129   7.215   1.051   4.625  0.0075  0.0648  0.0748
  683MOL0     C94130   7.322   1.058   4.729  0.7809 -0.1279 -0.1447
  683MOL0     C94131   7.457   1.127   4.685  0.2315  0.2130  0.1080
  683MOL0     C94132   7.451   1.285   4.672 -0.9278  0.5639  0.8212
  683MOL0     N94133   7.599   1.328   4.669  0.2615 -0.6699 -0.3897
  683MOL0     C94134   7.638   1.437   4.740 -0.1554  0.4979  0.9653
  683MOL0     C94135   7.765   1.463   4.701  0.5913 -0.5833  0.2909
  683MOL0     C94136   7.863   1.573   4.756  0.5442  0.0861 -0.4104
  683MOL0     C94137   7.954   1.491   4.850 -0.0605 -0.5909  0.2581
  683MOL0     C94138   8.052   1.592   4.913  1.4440 -0.3398  0.4339
  683MOL0     C94139   8.150   1.514   5.001  0.2430  0.4722 -0.7293
  683MOL0     O94140   8.242   1.424   4.940 -0.7111 -0.5173  0.4483
  683MOL0     C94141   8.361   1.483   4.913  0.5295 -0.5014  0.0672
  683MOL0     C94142   8.463   1.499   5.013 -0.1131  0.0988  0.6413
  683MOL0     C94143   8.591   1.551   4.981  0.3625 -0.0446 -0.1512
  683MOL0     C94144   8.693   1.555   5.090  0.6535 -0.2269  0.2944
  683MOL0     C94145   8.619   1.589   4.847  0.0436  0.0257  0.0670
  683MOL0     C94146   8.758   1.651   4.810 -0.0380 -1.0120  0.6940
  683MOL0     O94147   8.775   1.668   4.673  0.1987 -0.2475  1.0060
  683MOL0     C94148   8.897   1.703   4.625 -0.8784  0.8371  0.0674
  683MOL0     C94149   8.996   1.604   4.608  0.3079 -0.1470 -0.0553
  683MOL0     C94150   9.125   1.640   4.577 -0.3716  0.9212  0.5109
  683MOL0     C94151   9.153   1.769   4.541 -0.7181  0.0569 -0.0739
  683MOL0     O94152   9.282   1.798   4.507  0.4151  0.3706  0.5108
  683MOL0     C94153   9.311   1.742   4.373  0.4214 -0.3967  0.3379
  683MOL0     C94154   9.458   1.778   4.345  0.2036  0.3403  0.4580
  683MOL0     C94155   9.480   1.925   4.311  1.0638  0.5017  0.8519
  683MOL0     C94156   9.634   1.950   4.274 -0.3173  0.0531  0.3026
  683MOL0     C94157   9.661   2.091   4.230  0.4308  0.6900  0.1486
  683MOL0     C94158   9.812   2.122   4.200  0.7248  0.8251 -1.1573
  683MOL0     C94159   9.871   2.086   4.065 -0.4532 -0.6193  0.4525
  683MOL0     C94160   9.814   2.165   3.948 -0.2325 -0.3922 -0.3618
  683MOL0    Cl94161   9.932   2.163   3.815 -0.4345 -0.1334 -0.5708
  683MOL0     C94162   9.056   1.862   4.554  0.4059 -0.3859 -1.1032
  683MOL0     C94163   8.927   1.827   4.594 -0.2713 -0.5206 -0.1929
  683MOL0     O94164   8.842   1.686   4.892 -0.3928 -0.1457 -0.0080
  683MOL0     C94165   8.517   1.573   4.754 -0.1391 -0.4734 -0.6630
  683MOL0     C94166   8.386   1.523   4.783 -0.7307 -0.4391 -0.4210
  683MOL0     N94167   7.799   1.365   4.608  0.1328 -0.6303 -0.2187
  683MOL0     N94168   7.694   1.297   4.583  0.6817  0.3048 -0.3383
  683MOL0     C94169   6.513   0.896   4.703  0.4490  0.0498 -0.3168
  683MOL0     C94170   6.401   0.827   4.672 -0.4873  0.4831  1.1903
  683MOL0     C94171   5.986   0.631   4.737 -0.2822  0.6380  0.3218
  683MOL0     C94172   6.015   0.545   4.635  1.2965 -0.0416  0.3191
  683MOL0     C94173   5.919   0.440   4.607  0.0176 -0.2568 -0.5150
  683MOL0     C94174   5.794   0.444   4.671  0.0372 -0.6000  0.0084
  683MOL0     O94175   5.706   0.346   4.659 -0.2493  0.9951  0.0135
  683MOL0     C94176   5.593   0.382   4.593 -0.0462 -0.3070  0.8725
  683MOL0     C94177   5.529   0.286   4.496  0.5876 -0.3192  0.1261
  683MOL0     C94178   5.621   0.257   4.384  0.0380  0.1511 -0.8256
  683MOL0     C94179   5.549   0.197   4.266  0.3356  0.0638 -0.2394
  683MOL0     C94180   5.481   0.072   4.303  1.3971  0.2485 -0.7318
  683MOL0     C94181   5.406  -0.014   4.341 -0.1956  0.2134 -0.4858
  683MOL0     C94182   5.769   0.531   4.779 -0.7925  0.0599  0.9374
  683MOL0     C94183   5.867   0.623   4.817 -0.2446  0.6018 -0.0044
  683MOL0     C94184   5.835   0.697   4.945  0.0434  0.3148  0.5403
  683MOL0     H94185   6.171   1.025   4.816 -0.3017  0.8232 -1.4032
  683MOL0     H94186   6.351   1.165   4.848 -3.3008  0.1593 -1.9324
  683MOL0     H94187   6.729   1.043   4.627  0.3573  2.3130  0.0445
  683MOL0     H94188   6.771   0.949   4.766  1.4424  0.3905 -1.7337
  683MOL0     H94189   6.867   1.233   4.717  1.3636 -0.2107 -0.9546
  683MOL0     H94190   6.851   1.157   4.877  0.4179  0.1042 -0.8214
  683MOL0     H94191   7.063   1.069   4.847  4.8558 -1.5449 -3.3158
  683MOL0     H94192   6.984   0.957   4.736  0.6056 -0.3265 -2.3800
  683MOL0     H94193   7.042   1.145   4.559  0.0385  0.8092 -0.4494
  683MOL0     H94194   7.113   1.235   4.693  1.9156  0.9723 -3.5017
  683MOL0     H94195   7.260   1.092   4.534  0.0683  1.5769  0.7599
  683MOL0     H94196   7.173   0.951   4.609  0.2371 -0.0477  0.1793
  683MOL0     H94197   7.285   1.107   4.819 -1.7348 -1.6722 -0.2548
  683MOL0     H94198   7.335   0.958   4.772 -0.4140  1.3421  4.1764
  683MOL0     H94199   7.480   1.079   4.589  3.9413  3.6734 -0.9975
  683MOL0     H94200   7.537   1.094   4.752  1.2334  0.3132 -1.0129
  683MOL0     H94201   7.403   1.306   4.576 -2.7270 -3.8665  0.5316
  683MOL0     H94202   7.391   1.325   4.755 -2.7854  0.9766 -0.6563
  683MOL0     H94203   7.588   1.491   4.820 -0.6208 -1.8996  2.4140
  683MOL0     H94204   7.816   1.649   4.821  0.9073 -3.0231  3.9613
  683MOL0     H94205   7.925   1.631   4.687 -2.0215  1.3833 -1.7995
  683MOL0     H94206   7.885   1.442   4.919 -0.5128  1.5780  1.4670
  683MOL0     H94207   8.007   1.411   4.799 -0.8327 -0.7911 -0.2510
  683MOL0     H94208   8.103   1.644   4.831  0.0936 -1.6417 -1.3046
  683MOL0     H94209   8.000   1.659   4.982 -1.1469 -0.0630 -1.6498
  683MOL0     H94210   8.204   1.591   5.058 -0.7421  1.3729 -0.9804
  683MOL0     H94211   8.087   1.459   5.072 -0.7027  3.0034  0.5395
  683MOL0     H94212   8.440   1.447   5.105  0.5014 -1.6413 -0.1481
  683MOL0     H94213   8.786   1.507   5.057  0.5831 -1.5365  1.8528
  683MOL0     H94214   8.664   1.511   5.186  3.3334  1.3974  1.9436
  683MOL0     H94215   8.707   1.661   5.113  0.0243  0.2439 -1.3420
  683MOL0     H94216   8.979   1.502   4.642 -0.2282  0.1493  0.5617
  683MOL0     H94217   9.207   1.570   4.577 -1.5729 -0.5421  1.1197
  683MOL0     H94218   9.301   1.633   4.372 -0.7748 -0.3156  1.3918
  683MOL0     H94219   9.251   1.783   4.292 -0.9090 -5.3759 -1.5739
  683MOL0     H94220   9.524   1.742   4.424  0.5430  1.6538  0.8048
  683MOL0     H94221   9.492   1.718   4.260  4.0630  0.8578  1.4382
  683MOL0     H94222   9.439   1.979   4.397  1.0697  2.0060 -0.0447
  683MOL0     H94223   9.419   1.937   4.221 -0.5323 -3.1658  1.2710
  683MOL0     H94224   9.674   1.874   4.206  1.7461 -0.2485  1.7625
  683MOL0     H94225   9.687   1.930   4.367 -0.5128 -2.8532 -0.0962
  683MOL0     H94226   9.598   2.116   4.144 -0.0790 -0.8781  0.0255
  683MOL0     H94227   9.627   2.153   4.313 -1.8348  1.6781 -1.4024
  683MOL0     H94228   9.876   2.061   4.265  1.9881  1.2460 -1.9649
  683MOL0     H94229   9.826   2.227   4.226 -1.4495  0.9041 -0.0820
  683MOL0     H94230   9.876   1.979   4.046  1.2646 -0.8819  2.0443
  683MOL0     H94231   9.973   2.124   4.074 -1.0784  2.4649 -3.1334
  683MOL0     H94232   9.792   2.267   3.981 -1.3562 -1.3099  1.9850
  683MOL0     H94233   9.721   2.118   3.915  1.2274 -3.3618 -0.6469
  683MOL0     H94234   9.086   1.965   4.533  2.9884 -0.8443 -0.1036
  683MOL0     H94235   8.841   1.889   4.617 -0.8350 -2.1964  2.7931
  683MOL0     H94236   8.537   1.595   4.649 -1.7367 -2.2934 -1.4014
  683MOL0     H94237   8.320   1.500   4.700 -1.0253  0.3731 -0.4213
  683MOL0     H94238   6.607   0.847   4.678  2.5504  3.0869  0.9849
  683MOL0     H94239   6.433   0.726   4.650 -1.4589  0.1853  1.0835
  683MOL0     H94240   6.109   0.555   4.582  1.8987  3.6053  1.7659
  683MOL0     H94241   5.938   0.367   4.530  0.6369 -0.4381 -0.2018
  683MOL0     H94242   5.523   0.411   4.673  1.5718 -1.0910  2.6500
  683MOL0     H94243   5.611   0.476   4.539 -2.3743 -0.1137  0.2956
  683MOL0     H94244   5.433   0.309   4.449 -1.7263 -1.7620  3.7192
  683MOL0     H94245   5.505   0.192   4.547  1.1282 -0.2890  0.4415
  683MOL0     H94246   5.677   0.346   4.352  1.3808  0.5486  2.3278
  683MOL0     H94247   5.694   0.182   4.414 -0.3312 -0.2108 -0.8173
  683MOL0     H94248   5.612   0.161   4.184 -2.1291 -1.8499 -1.4264
  683MOL0     H94249   5.473   0.268   4.232 -0.0589  0.2904  1.0490
  683MOL0     H94250   5.347  -0.089   4.389  2.6155 -2.7530 -1.2365
  683MOL0     H94251   5.681   0.526   4.843  0.2433  1.9335  2.5863
  683MOL0     H94252   5.735   0.668   4.980 -0.5010 -1.7327 -2.3044
  683MOL0     H94253   5.910   0.674   5.021  0.5455 -0.2784 -0.1211
  683MOL0     H94254   5.838   0.804   4.925  0.7904  0.0177 -1.1302
  684MOL0     O94255   0.196   1.445   2.812 -0.4136 -0.1544 -0.4715
  684MOL0     C94256   0.137   1.544   2.775  0.5598 -0.1184  0.2218
  684MOL0     O94257   0.177   1.669   2.800  0.0212 -0.7249  0.0297
  684MOL0     C94258   0.300   1.688   2.856  1.4267  0.3584  0.0341
  684MOL0     C94259   0.410   1.666   2.777 -1.2291  0.7381  0.1722
  684MOL0     C94260   0.540   1.705   2.826  0.8509  0.4103  0.2415
  684MOL0     C94261   0.548   1.742   2.960 -0.5235 -0.5470  0.2716
  684MOL0     O94262   0.681   1.765   2.995 -0.6525 -0.3051  0.0082
  684MOL0     C94263   0.716   1.788   3.132 -0.5029 -0.2278 -0.4567
  684MOL0     C94264   0.870   1.823   3.128  0.2040 -0.3381 -0.4754
  684MOL0     C94265   0.885   1.940   3.035 -0.4671 -0.2987  0.9273
  684MOL0     C94266   1.024   2.003   3.058  0.2062 -0.1918 -0.0383
  684MOL0     C94267   1.036   2.144   3.011 -0.1384  0.3919 -0.1210
  684MOL0     C94268   1.163   2.205   3.067  0.2397  0.2250 -0.3135
  684MOL0     C94269   1.171   2.345   3.027 -0.1661  0.0708 -1.4244
  684MOL0     C94270   1.119   2.441   3.127  0.4742 -0.3692  0.6446
  684MOL0     N94271   1.179   2.574   3.096 -0.0478 -0.2709 -0.2100
  684MOL0     C94272   1.129   2.659   3.003  0.1186 -0.2966 -0.0175
  684MOL0     C94273   1.189   2.771   3.029 -0.3658 -0.6503  0.5602
  684MOL0     C94274   1.176   2.898   2.946  0.4669  0.2342 -0.1321
  684MOL0     C94275   1.238   3.031   3.005 -0.3747 -0.7396 -0.3665
  684MOL0     C94276   1.394   3.036   2.998  0.2619 -0.4164  0.6829
  684MOL0     C94277   1.465   3.131   3.102  0.4247  0.8510 -0.3859
  684MOL0     O94278   1.408   3.267   3.081 -0.2214 -0.2299 -0.6353
  684MOL0     C94279   1.460   3.372   3.154  0.0699  0.4872  0.0994
  684MOL0     C94280   1.396   3.493   3.139  0.1537  0.3405  0.4399
  684MOL0     C94281   1.433   3.605   3.209 -0.1128 -0.2294  0.8695
  684MOL0     C94282   1.366   3.734   3.173 -0.4743  0.5887 -0.6190
  684MOL0     C94283   1.522   3.596   3.317 -0.2205 -1.4803  0.8530
  684MOL0     C94284   1.565   3.718   3.397  0.4139  0.1846 -0.2037
  684MOL0     O94285   1.670   3.683   3.481 -0.9215 -0.6518  0.5760
  684MOL0     C94286   1.785   3.760   3.494 -0.9300  0.1772 -1.0732
  684MOL0     C94287   1.864   3.740   3.612  0.4252  0.5615 -0.2583
  684MOL0     C94288   1.980   3.822   3.638 -0.1252 -0.1201 -0.1600
  684MOL0     C94289   2.007   3.926   3.543 -0.7741  0.6212  0.5503
  684MOL0     O94290   2.119   4.006   3.543 -0.8821  0.4913 -0.0649
  684MOL0     C94291   2.232   3.943   3.485 -0.3507  0.4500  0.3579
  684MOL0     C94292   2.340   4.039   3.425 -0.2755 -0.4644 -0.4110
  684MOL0     C94293   2.347   4.061   3.269  0.1371 -0.3299 -0.9589
  684MOL0     C94294   2.484   4.122   3.237 -0.4207  0.2754  0.4156
  684MOL0     C94295   2.486   4.146   3.083 -0.3914  0.1064  0.2314
  684MOL0     C94296   2.410   4.272   3.032  0.4677 -0.8928 -0.3267
  684MOL0     C94297   2.446   4.416   3.100 -0.4272 -0.2225  0.4741
  684MOL0     C94298   2.405   4.532   3.017 -0.1520  0.0615 -0.1487
  684MOL0    Cl94299   2.539   4.524   2.893 -0.3230 -0.2681 -0.7212
  684MOL0     C94300   1.927   3.949   3.434  0.0277 -0.2994 -1.2993
  684MOL0     C94301   1.824   3.861   3.407  0.0447  0.0356 -1.0616
  684MOL0     O94302   1.535   3.833   3.366  0.0082 -1.0698  0.1270
  684MOL0     C94303   1.590   3.474   3.330 -0.4038 -0.1241 -0.2399
  684MOL0     C94304   1.557   3.366   3.249  0.1991 -0.2403 -0.8613
  684MOL0     N94305   1.273   2.761   3.135  0.2538 -0.5043  0.2288
  684MOL0     N94306   1.278   2.634   3.171 -0.0469 -0.9522  0.3719
  684MOL0     C94307   0.436   1.769   3.034  0.5840 -0.6740 -0.0754
  684MOL0     C94308   0.305   1.749   2.983 -0.0434  0.1208  0.2242
  684MOL0     C94309   0.007   1.522   2.697 -0.0791 -0.1647 -0.0703
  684MOL0     C94310  -0.010   1.406   2.624  0.7541  0.6140 -0.4632
  684MOL0     C94311  -0.121   1.387   2.536 -0.6724 -0.6509  0.1788
  684MOL0     C94312  -0.223   1.482   2.520  0.1290 -0.3807 -0.5929
  684MOL0     O94313  -0.324   1.449   2.436 -0.6367 -0.0741 -0.7951
  684MOL0     C94314  -0.443   1.540   2.424 -0.5412  0.0096  0.4565
  684MOL0     C94315  -0.556   1.456   2.358 -0.4140 -0.1871 -0.0573
  684MOL0     C94316  -0.535   1.441   2.208  0.0602  0.2649  0.0097
  684MOL0     C94317  -0.627   1.336   2.147  0.9195  0.0198 -0.2363
  684MOL0     C94318  -0.762   1.384   2.148  0.1753  0.8408  0.2218
  684MOL0     C94319  -0.869   1.435   2.123  0.1979  0.6684  0.5072
  684MOL0     C94320  -0.206   1.599   2.598 -0.2159 -0.7621  0.1469
  684MOL0     C94321  -0.095   1.621   2.680  0.6116  0.4021  0.4570
  684MOL0     C94322  -0.086   1.755   2.756 -0.4350 -0.4820 -0.2151
  684MOL0     H94323   0.395   1.628   2.676  1.7924 -1.2216  0.3390
  684MOL0     H94324   0.619   1.697   2.753 -0.1910  1.2180 -1.0162
  684MOL0     H94325   0.679   1.705   3.192  0.9199  1.4632  3.0108
  684MOL0     H94326   0.663   1.874   3.174  2.9004  1.5693  0.5806
  684MOL0     H94327   0.911   1.849   3.226  0.1448  0.1065 -0.5666
  684MOL0     H94328   0.929   1.735   3.100 -0.4108 -0.8499 -0.1860
  684MOL0     H94329   0.867   1.914   2.931 -3.3056  1.0718  0.9970
  684MOL0     H94330   0.812   2.018   3.055  0.2553  0.8221 -0.6179
  684MOL0     H94331   1.036   2.011   3.167 -0.5850 -1.8888  0.2055
  684MOL0     H94332   1.107   1.941   3.025 -0.2206 -1.0517  0.4577
  684MOL0     H94333   0.954   2.197   3.062  0.9241  0.9172  1.0982
  684MOL0     H94334   1.040   2.163   2.903 -0.9649  2.8544  0.2209
  684MOL0     H94335   1.156   2.199   3.176 -1.5722 -3.2202 -0.4784
  684MOL0     H94336   1.251   2.153   3.029  0.5229  1.5097 -1.5036
  684MOL0     H94337   1.120   2.365   2.932 -2.2705  1.0725 -0.1439
  684MOL0     H94338   1.277   2.362   3.009  0.4900 -1.3477  0.7846
  684MOL0     H94339   1.009   2.441   3.128  0.4479 -1.1416 -0.2444
  684MOL0     H94340   1.149   2.421   3.230 -0.9434 -1.6349  0.8550
  684MOL0     H94341   1.057   2.648   2.923 -1.0913 -0.0283  1.0112
  684MOL0     H94342   1.068   2.915   2.935  0.3331 -0.6424 -0.2463
  684MOL0     H94343   1.217   2.877   2.847 -1.6178 -1.1107 -0.7868
  684MOL0     H94344   1.198   3.115   2.947 -1.6214 -0.4769  0.8230
  684MOL0     H94345   1.193   3.051   3.103 -0.8709  0.0580 -0.7486
  684MOL0     H94346   1.440   2.938   3.012 -1.2058 -1.1686  0.5048
  684MOL0     H94347   1.420   3.079   2.901 -1.2575 -0.3744  0.2580
  684MOL0     H94348   1.433   3.097   3.200 -0.3100 -2.4070 -1.6224
  684MOL0     H94349   1.573   3.141   3.106  0.3708  4.2144 -2.7788
  684MOL0     H94350   1.312   3.499   3.070  1.5436  2.2537 -1.2115
  684MOL0     H94351   1.284   3.725   3.102 -0.6545  0.2870 -0.3787
  684MOL0     H94352   1.451   3.796   3.146  2.1490 -0.7413  3.5670
  684MOL0     H94353   1.317   3.778   3.260 -0.6591  0.5434 -0.7006
  684MOL0     H94354   1.859   3.650   3.673  3.6881 -0.2971 -1.0548
  684MOL0     H94355   2.040   3.813   3.728  1.9967 -0.6818 -1.5486
  684MOL0     H94356   2.276   3.886   3.567 -1.3922 -3.2675 -1.4163
  684MOL0     H94357   2.208   3.870   3.407 -0.0477  1.4494 -0.7132
  684MOL0     H94358   2.323   4.136   3.474 -3.0874 -0.0659 -2.0175
  684MOL0     H94359   2.436   4.006   3.466  0.1529  0.1397 -0.9078
  684MOL0     H94360   2.260   4.121   3.240  0.2092  1.6359  2.4803
  684MOL0     H94361   2.343   3.964   3.218 -1.5879 -2.1169  2.2986
  684MOL0     H94362   2.560   4.055   3.279 -2.5305 -1.0737  2.2936
  684MOL0     H94363   2.509   4.221   3.276  0.8215 -0.1679  0.8220
  684MOL0     H94364   2.591   4.169   3.062 -0.0412  1.3995  2.9976
  684MOL0     H94365   2.463   4.056   3.025 -1.0676 -0.6477  1.6171
  684MOL0     H94366   2.304   4.251   3.047  0.2796  0.1804 -0.1032
  684MOL0     H94367   2.430   4.276   2.924  1.3830 -0.0405 -0.1327
  684MOL0     H94368   2.547   4.416   3.141 -0.8955 -0.7939  1.6494
  684MOL0     H94369   2.389   4.409   3.193  0.7808 -0.3395  1.2315
  684MOL0     H94370   2.412   4.630   3.063  1.3875  0.6329 -1.4971
  684MOL0     H94371   2.304   4.529   2.975 -0.5247  1.2430  0.6328
  684MOL0     H94372   1.935   4.044   3.382  0.6956  0.8419  0.7700
  684MOL0     H94373   1.766   3.881   3.318 -0.4903 -0.9100 -0.9393
  684MOL0     H94374   1.670   3.449   3.399  0.7313  0.3904 -1.3217
  684MOL0     H94375   1.620   3.282   3.273 -0.2282  0.3325  2.9346
  684MOL0     H94376   0.452   1.831   3.122 -0.1034 -2.7728  1.6190
  684MOL0     H94377   0.220   1.772   3.047  2.4927  1.3419  3.4012
  684MOL0     H94378   0.063   1.327   2.639  0.5183  0.7966  2.2543
  684MOL0     H94379  -0.128   1.295   2.478 -1.1699 -1.2037  1.0974
  684MOL0     H94380  -0.481   1.583   2.517  0.3445  3.3164 -0.5812
  684MOL0     H94381  -0.413   1.631   2.371 -0.4262 -2.1395 -3.6190
  684MOL0     H94382  -0.654   1.488   2.396 -0.6981  2.8533 -2.9004
  684MOL0     H94383  -0.546   1.357   2.402  0.3416 -0.9322 -1.8436
  684MOL0     H94384  -0.557   1.533   2.153  1.5677  2.3503  2.6621
  684MOL0     H94385  -0.432   1.413   2.183 -0.2019 -3.0076  2.0716
  684MOL0     H94386  -0.611   1.236   2.188 -0.7516 -1.5891 -3.1724
  684MOL0     H94387  -0.598   1.325   2.042  1.6181  3.4746 -0.5243
  684MOL0     H94388  -0.963   1.484   2.110 -0.7332 -1.3175 -0.7366
  684MOL0     H94389  -0.283   1.676   2.588  1.9775  1.5951  0.2618
  684MOL0     H94390  -0.019   1.825   2.706 -0.6569 -0.0563  0.0776
  684MOL0     H94391  -0.184   1.804   2.759 -2.3222 -3.9109  0.1345
  684MOL0     H94392  -0.062   1.736   2.861 -0.8749 -2.5000 -0.4424
  685MOL0     O94393   3.109   6.986   7.017 -0.2841  0.0258 -0.0208
  685MOL0     C94394   3.105   6.988   6.897 -0.9293  0.6183 -0.9231
  685MOL0     O94395   3.209   7.042   6.830 -0.0079  0.0925  0.1430
  685MOL0     C94396   3.322   7.065   6.911 -1.1193  0.1756 -0.2154
  685MOL0     C94397   3.382   7.192   6.940 -0.8945 -0.4579  0.0709
  685MOL0     C94398   3.517   7.192   6.994 -0.0727  0.1124 -0.4618
  685MOL0     C94399   3.585   7.077   7.028 -0.6555  0.9059  0.1124
  685MOL0     O94400   3.712   7.085   7.068 -0.1032 -0.0804  0.0564
  685MOL0     C94401   3.771   6.964   7.124  0.0546  0.6568  0.4136
  685MOL0     C94402   3.897   7.018   7.193  0.1837 -0.3821  1.0334
  685MOL0     C94403   4.013   6.919   7.187  0.8642 -0.4816  0.6603
  685MOL0     C94404   4.081   6.915   7.052 -0.4589 -0.3119  0.0063
  685MOL0     C94405   4.206   6.816   7.059  0.4598  0.1136 -0.5798
  685MOL0     C94406   4.193   6.670   7.071  0.8731  0.1609 -0.1314
  685MOL0     C94407   4.333   6.600   7.090 -0.4252 -0.8766 -0.1317
  685MOL0     C94408   4.334   6.449   7.124 -0.3770  0.0661 -0.1099
  685MOL0     N94409   4.288   6.357   7.019  0.9236  0.0646  0.0166
  685MOL0     C94410   4.160   6.315   7.010 -1.5330 -0.4199 -0.3857
  685MOL0     C94411   4.155   6.269   6.890  0.6356  0.2934  0.3748
  685MOL0     C94412   4.028   6.205   6.832  0.3008 -0.6047 -0.6348
  685MOL0     C94413   4.051   6.058   6.804 -0.0963 -0.8035 -0.1273
  685MOL0     C94414   4.071   5.959   6.920 -1.0863 -0.0862  0.3071
  685MOL0     C94415   4.138   5.833   6.877  0.1534 -0.2276  0.4069
  685MOL0     O94416   4.277   5.839   6.829 -0.3166  0.5404 -0.3844
  685MOL0     C94417   4.367   5.859   6.925  0.2520  0.0622  0.2714
  685MOL0     C94418   4.440   5.980   6.936 -0.4728  0.6349  0.4296
  685MOL0     C94419   4.548   5.995   7.023 -0.1527  0.8455 -0.1581
  685MOL0     C94420   4.598   6.135   7.030 -0.5285 -0.7544 -0.8729
  685MOL0     C94421   4.591   5.886   7.108 -0.6697  0.0527  0.0483
  685MOL0     C94422   4.713   5.876   7.187  0.7971 -0.9681 -0.6575
  685MOL0     O94423   4.732   5.789   7.288  0.1762  0.2916  0.6802
  685MOL0     C94424   4.860   5.772   7.330 -0.3993  0.1920  0.0156
  685MOL0     C94425   4.927   5.880   7.399 -0.1028  0.8107  0.5764
  685MOL0     C94426   5.044   5.858   7.466  0.2157  0.3653 -0.3167
  685MOL0     C94427   5.114   5.731   7.450 -0.7098 -0.7980 -0.2405
  685MOL0     O94428   5.239   5.705   7.509  0.1279 -0.0367 -0.8020
  685MOL0     C94429   5.318   5.815   7.550  0.1706  0.3778 -0.0645
  685MOL0     C94430   5.468   5.787   7.555  0.9679 -0.9752 -1.0184
  685MOL0     C94431   5.542   5.788   7.431  0.1513  0.7736  0.1991
  685MOL0     C94432   5.684   5.835   7.447 -0.2229 -0.2945 -0.1236
  685MOL0     C94433   5.769   5.846   7.323  0.3815  0.4891  0.1779
  685MOL0     C94434   5.890   5.939   7.347 -0.0876 -0.0916  0.2136
  685MOL0     C94435   5.966   5.996   7.222  0.9639  0.3770 -0.1136
  685MOL0     C94436   6.035   5.879   7.152  0.8177  0.6340 -0.2982
  685MOL0    Cl94437   6.131   5.926   7.016  0.1046  0.4359  0.1153
  685MOL0     C94438   5.057   5.630   7.381  0.1375 -1.0992  0.0431
  685MOL0     C94439   4.927   5.651   7.322  0.5184 -0.4398  0.0212
  685MOL0     O94440   4.794   5.954   7.138  0.3111 -0.0011 -0.5458
  685MOL0     C94441   4.520   5.770   7.094  1.0529  0.0626  0.9254
  685MOL0     C94442   4.422   5.757   7.006 -0.1812  0.6892 -0.4105
  685MOL0     N94443   4.277   6.285   6.821  0.4134 -0.1712 -0.8244
  685MOL0     N94444   4.360   6.333   6.905 -0.2876  0.1774 -0.3195
  685MOL0     C94445   3.528   6.956   6.996  0.0361 -1.0418 -0.4087
  685MOL0     C94446   3.398   6.950   6.947  0.9370 -0.2891  0.5240
  685MOL0     C94447   2.997   6.920   6.829 -0.1478 -0.1836  0.9213
  685MOL0     C94448   3.030   6.888   6.693  0.0364 -0.9551 -0.1049
  685MOL0     C94449   2.939   6.817   6.607  0.4087 -0.3218  0.2270
  685MOL0     C94450   2.818   6.772   6.659  0.5782 -0.1590 -0.1351
  685MOL0     O94451   2.742   6.704   6.569  0.3117  0.7802  0.5102
  685MOL0     C94452   2.615   6.655   6.613 -0.3511  0.0326  0.2174
  685MOL0     C94453   2.547   6.566   6.502  0.8565 -0.0758 -0.2062
  685MOL0     C94454   2.637   6.443   6.461 -0.5565  0.2404  0.6147
  685MOL0     C94455   2.558   6.358   6.368  1.2882  0.6529 -0.1462
  685MOL0     C94456   2.626   6.231   6.320  0.5247  0.2365  0.5240
  685MOL0     C94457   2.686   6.130   6.282  0.9299 -0.7029 -0.0526
  685MOL0     C94458   2.784   6.807   6.787  0.6524  0.8396 -0.0776
  685MOL0     C94459   2.870   6.876   6.877  0.2179  0.5973  0.4352
  685MOL0     C94460   2.822   6.893   7.020 -0.4087 -0.3864 -0.1779
  685MOL0     H94461   3.337   7.288   6.914  1.2461  0.4657 -0.4811
  685MOL0     H94462   3.571   7.286   6.998  0.3999 -0.1200 -1.1613
  685MOL0     H94463   3.796   6.888   7.050  2.8895 -1.2107  3.0500
  685MOL0     H94464   3.709   6.914   7.198  0.6713  2.2069  2.0449
  685MOL0     H94465   3.924   7.115   7.151 -0.3551 -0.7252 -0.1487
  685MOL0     H94466   3.870   7.033   7.297 -0.4912 -1.6938  1.0696
  685MOL0     H94467   4.093   6.952   7.255  2.7296 -2.2441 -0.5374
  685MOL0     H94468   4.002   6.815   7.219  1.6956 -0.5353  0.7943
  685MOL0     H94469   4.008   6.870   6.984 -3.0511  1.9825  1.1257
  685MOL0     H94470   4.114   7.012   7.016 -0.5101 -0.2035  0.2515
  685MOL0     H94471   4.269   6.848   7.142  1.1112 -1.2988 -0.4975
  685MOL0     H94472   4.266   6.830   6.969 -1.9636 -2.1213 -2.7151
  685MOL0     H94473   4.137   6.642   7.161 -0.3586 -2.9033 -1.7094
  685MOL0     H94474   4.141   6.633   6.982  1.5186 -0.4206 -0.2802
  685MOL0     H94475   4.376   6.658   7.172 -3.3692 -0.1510  1.0183
  685MOL0     H94476   4.392   6.607   6.998 -0.1100 -1.9345 -0.0268
  685MOL0     H94477   4.436   6.419   7.146  0.1842 -0.7708 -3.3766
  685MOL0     H94478   4.275   6.431   7.214  2.2015 -1.6363  1.3365
  685MOL0     H94479   4.085   6.333   7.086 -1.6049  0.4502 -0.6599
  685MOL0     H94480   3.998   6.262   6.744  0.9622  1.8053  0.6142
  685MOL0     H94481   3.940   6.219   6.895  0.1671  1.5959 -1.2314
  685MOL0     H94482   3.970   6.021   6.740  0.7570 -0.6784 -1.3174
  685MOL0     H94483   4.142   6.054   6.743  0.9441  0.4396  1.2791
  685MOL0     H94484   4.136   6.008   6.993 -0.8703 -1.4082  1.0349
  685MOL0     H94485   3.982   5.927   6.975  0.5164 -1.7804  2.0407
  685MOL0     H94486   4.123   5.758   6.955 -1.2150  0.2181  0.5911
  685MOL0     H94487   4.076   5.794   6.796 -1.4142  2.4101  0.2429
  685MOL0     H94488   4.400   6.062   6.876 -4.0170 -2.0061 -1.2285
  685MOL0     H94489   4.704   6.147   7.050 -0.1760 -2.4135 -1.5077
  685MOL0     H94490   4.544   6.198   7.100 -0.9761 -0.3276 -1.5851
  685MOL0     H94491   4.589   6.191   6.936  2.1706  1.6694  0.1932
  685MOL0     H94492   4.869   5.970   7.413 -1.3113  1.0017 -3.9793
  685MOL0     H94493   5.085   5.947   7.511  1.4787  0.2487 -1.1884
  685MOL0     H94494   5.298   5.901   7.486 -1.7939  0.8144  1.0658
  685MOL0     H94495   5.277   5.853   7.644  0.7797  1.1010 -0.0823
  685MOL0     H94496   5.509   5.859   7.626 -2.2066  0.3235 -0.3289
  685MOL0     H94497   5.470   5.691   7.609  0.1031 -0.6952 -0.4680
  685MOL0     H94498   5.478   5.838   7.357  0.4653  0.9142  0.0210
  685MOL0     H94499   5.535   5.688   7.387  0.3105  1.8011 -2.3582
  685MOL0     H94500   5.743   5.772   7.513  0.0252 -2.2100 -2.0633
  685MOL0     H94501   5.664   5.934   7.488 -0.5133  0.4599 -1.9831
  685MOL0     H94502   5.803   5.748   7.289  1.8241  0.7469  0.7892
  685MOL0     H94503   5.707   5.894   7.247 -1.3688  0.0320  1.2457
  685MOL0     H94504   5.961   5.884   7.408 -0.0731  2.3499  2.5691
  685MOL0     H94505   5.874   6.031   7.404  2.9050 -0.5624  2.0120
  685MOL0     H94506   6.037   6.076   7.243  1.0378  0.2145  0.2546
  685MOL0     H94507   5.893   6.036   7.151  2.7136 -1.4448 -3.1729
  685MOL0     H94508   5.950   5.814   7.129  0.1515  1.2100  0.4581
  685MOL0     H94509   6.098   5.824   7.222 -1.9838 -1.4764  0.7965
  685MOL0     H94510   5.110   5.542   7.347 -0.9584 -0.8386 -2.6127
  685MOL0     H94511   4.876   5.578   7.260  1.9237 -0.9346 -0.6094
  685MOL0     H94512   4.554   5.679   7.142 -1.4486 -0.8500  1.1008
  685MOL0     H94513   4.380   5.658   6.987  1.3139  0.0400 -0.4194
  685MOL0     H94514   3.571   6.861   7.026 -2.4668 -2.2757 -0.5015
  685MOL0     H94515   3.346   6.855   6.939  0.6079 -0.1790  1.2674
  685MOL0     H94516   3.123   6.917   6.644  0.1552 -1.9764 -0.5103
  685MOL0     H94517   2.974   6.797   6.507  2.0935  0.1783  0.6938
  685MOL0     H94518   2.611   6.590   6.702 -3.4301 -0.1442  0.0613
  685MOL0     H94519   2.554   6.746   6.615  0.7219  1.0298 -3.9509
  685MOL0     H94520   2.531   6.639   6.422 -2.3043  0.9022  1.1907
  685MOL0     H94521   2.448   6.536   6.538  0.2899  1.0624 -0.7698
  685MOL0     H94522   2.724   6.479   6.404 -0.1400  0.4726  1.3876
  685MOL0     H94523   2.672   6.390   6.550 -0.1870 -0.7329 -0.0959
  685MOL0     H94524   2.520   6.409   6.280 -0.7060  0.3892  0.5093
  685MOL0     H94525   2.467   6.316   6.412  1.6793 -0.1214 -0.0479
  685MOL0     H94526   2.738   6.048   6.238  1.4688  0.0323 -0.8222
  685MOL0     H94527   2.681   6.789   6.813  0.3507  0.2474 -1.5750
  685MOL0     H94528   2.907   6.899   7.088  0.7799  0.9624 -1.7134
  685MOL0     H94529   2.755   6.978   7.033 -2.3618 -1.7783 -0.7227
  685MOL0     H94530   2.756   6.814   7.059 -1.2115  2.1043  4.1277
  686MOL0     O94531   4.909   7.293  10.256 -0.8644 -0.1857 -0.1820
  686MOL0     C94532   4.821   7.239  10.318  0.3121 -0.4817 -0.5858
  686MOL0     O94533   4.836   7.158  10.431  0.3684 -0.5821  0.1034
  686MOL0     C94534   4.967   7.132  10.475  0.5977  0.5715  0.3814
  686MOL0     C94535   5.054   7.233  10.515  0.0119  0.0361 -0.7295
  686MOL0     C94536   5.187   7.210  10.540  1.0719  0.9342 -0.1326
  686MOL0     C94537   5.228   7.072  10.548 -0.8479 -0.1553  0.9830
  686MOL0     O94538   5.345   7.033  10.598 -0.3041 -0.0206  0.1632
  686MOL0     C94539   5.441   7.034  10.493 -0.0894  0.1532  0.5777
  686MOL0     C94540   5.573   6.951  10.530  0.1399 -0.4504 -0.2186
  686MOL0     C94541   5.649   6.927  10.407  0.1906 -0.7643  0.6150
  686MOL0     C94542   5.756   6.812  10.431 -0.4765 -0.7382  0.4279
  686MOL0     C94543   5.847   6.820  10.308  0.1918 -0.1072  0.3097
  686MOL0     C94544   5.972   6.727  10.318  0.1125 -0.5659 -0.4807
  686MOL0     C94545   5.965   6.596  10.399  0.0835 -0.3443  0.6904
  686MOL0     C94546   6.106   6.544  10.441  0.4827 -0.5434 -0.0476
  686MOL0     N94547   6.185   6.503  10.321 -0.0253  0.3959 -0.2664
  686MOL0     C94548   6.314   6.443  10.335  0.4269 -0.6415 -0.7155
  686MOL0     C94549   6.363   6.432  10.214 -0.9175  0.5084  0.2547
  686MOL0     C94550   6.495   6.364  10.176 -0.6600  0.1647 -0.0697
  686MOL0     C94551   6.607   6.456  10.132 -0.0912 -0.2382  0.7905
  686MOL0     C94552   6.693   6.513  10.248  0.0540  0.7815 -0.1814
  686MOL0     C94553   6.815   6.426  10.283 -0.2305 -0.1706 -0.5003
  686MOL0     O94554   6.900   6.475  10.386  0.0096  0.0573 -0.3671
  686MOL0     C94555   7.034   6.448  10.380 -0.2170 -0.0723 -0.3155
  686MOL0     C94556   7.094   6.352  10.303 -0.9747 -0.7228  0.2675
  686MOL0     C94557   7.234   6.333  10.304  0.1487  0.4273 -0.6570
  686MOL0     C94558   7.285   6.212  10.239  0.3094 -0.2030  0.3996
  686MOL0     C94559   7.317   6.422  10.375  1.5240 -0.1355 -0.3786
  686MOL0     C94560   7.468   6.416  10.389  0.4325  0.7806 -0.7997
  686MOL0     O94561   7.539   6.343  10.300 -1.1268  0.0896 -0.2030
  686MOL0     C94562   7.677   6.359  10.302  0.8397 -0.4952  0.4858
  686MOL0     C94563   7.725   6.487  10.282 -0.3967  0.2645  0.7429
  686MOL0     C94564   7.860   6.518  10.278 -0.0486  0.1201 -0.7503
  686MOL0     C94565   7.956   6.417  10.296 -0.0696  0.8207 -0.0267
  686MOL0     O94566   8.089   6.449  10.323 -0.1286  0.7074 -0.4969
  686MOL0     C94567   8.180   6.354  10.258 -0.1051  0.1379  0.5787
  686MOL0     C94568   8.310   6.434  10.251  0.2371 -0.3120  0.2507
  686MOL0     C94569   8.409   6.357  10.169 -0.1358 -0.0517  0.1661
  686MOL0     C94570   8.541   6.430  10.193  0.2287  0.1619 -0.3317
  686MOL0     C94571   8.649   6.359  10.101 -0.0039 -0.7162 -1.0117
  686MOL0     C94572   8.787   6.412  10.096  0.5401 -0.6601  0.5779
  686MOL0     C94573   8.881   6.330  10.013  0.9653 -0.0328  0.1264
  686MOL0     C94574   9.022   6.364  10.041  0.0659 -0.3403  0.4083
  686MOL0    Cl94575   9.117   6.217   9.982 -0.3209  0.2055  0.0644
  686MOL0     C94576   7.905   6.285  10.320  0.2816 -1.2952 -0.8821
  686MOL0     C94577   7.771   6.254  10.325 -0.0476 -0.0181  0.2591
  686MOL0     O94578   7.508   6.462  10.494 -0.5697  0.0804 -0.3279
  686MOL0     C94579   7.249   6.515  10.461  0.0186  0.7303 -0.3954
  686MOL0     C94580   7.113   6.534  10.461 -0.0060  0.4611 -0.0266
  686MOL0     N94581   6.272   6.480  10.124  0.0908  0.0072 -0.0569
  686MOL0     N94582   6.168   6.531  10.191  0.3493 -0.6891  0.5899
  686MOL0     C94583   5.145   6.970  10.512  0.3236  0.0122  0.1264
  686MOL0     C94584   5.016   6.995  10.473  1.3662 -1.2924  0.0835
  686MOL0     C94585   4.686   7.253  10.254  0.1871  0.2792  0.2482
  686MOL0     C94586   4.597   7.149  10.280 -0.3422 -0.6929  0.8598
  686MOL0     C94587   4.469   7.154  10.232  0.4684  0.4780  0.1311
  686MOL0     C94588   4.419   7.264  10.159  0.1378  0.3772  0.4734
  686MOL0     O94589   4.292   7.263  10.107  0.3301 -0.3122  0.2796
  686MOL0     C94590   4.255   7.348   9.989 -0.7056  0.4735  0.7258
  686MOL0     C94591   4.123   7.304   9.937  0.3594  0.9606  0.3923
  686MOL0     C94592   4.008   7.371  10.011 -0.0678  0.0481 -0.4224
  686MOL0     C94593   3.892   7.379   9.906 -0.3861 -0.4812 -1.2223
  686MOL0     C94594   3.840   7.249   9.877  0.6189  0.5676  0.5965
  686MOL0     C94595   3.805   7.134   9.848  0.0169  0.0595  0.7917
  686MOL0     C94596   4.513   7.359  10.125 -0.0587 -0.1451 -0.2724
  686MOL0     C94597   4.645   7.357  10.172  0.0330  0.1510 -0.5093
  686MOL0     C94598   4.739   7.469  10.120  0.1576  0.5520 -0.3797
  686MOL0     H94599   5.025   7.337  10.520  2.0350  0.6102  0.4309
  686MOL0     H94600   5.253   7.290  10.573  0.4257  0.8420  1.5294
  686MOL0     H94601   5.457   7.140  10.474 -1.2298 -0.0332 -1.8191
  686MOL0     H94602   5.397   6.987  10.404 -1.6627 -0.3371  1.5600
  686MOL0     H94603   5.636   6.999  10.604  1.6256 -1.3505 -0.8505
  686MOL0     H94604   5.550   6.851  10.569  1.4915 -0.7373 -0.0923
  686MOL0     H94605   5.585   6.900  10.322  0.3368  2.5064 -0.6682
  686MOL0     H94606   5.697   7.021  10.377  3.1747 -3.1296 -2.8948
  686MOL0     H94607   5.821   6.838  10.515 -0.6143 -0.0827  0.3367
  686MOL0     H94608   5.719   6.709  10.436 -0.2039 -0.7835  1.8336
  686MOL0     H94609   5.880   6.923  10.290  1.9897 -0.5638  0.7925
  686MOL0     H94610   5.782   6.786  10.228  2.1630 -0.7555 -1.0926
  686MOL0     H94611   6.006   6.728  10.214 -1.3593  1.8510 -1.0208
  686MOL0     H94612   6.053   6.780  10.371 -0.7903  0.5549 -0.1806
  686MOL0     H94613   5.904   6.523  10.345 -2.7206  1.8574  0.6272
  686MOL0     H94614   5.907   6.612  10.490 -1.1839  1.4875 -0.3711
  686MOL0     H94615   6.160   6.621  10.496 -0.0817 -1.1571  1.4038
  686MOL0     H94616   6.091   6.452  10.499  1.3887 -1.4514 -1.1869
  686MOL0     H94617   6.355   6.422  10.434 -1.5606  1.4806  0.6523
  686MOL0     H94618   6.477   6.280  10.108 -1.1202  0.2161 -0.0151
  686MOL0     H94619   6.534   6.318  10.267 -1.8009  0.5087  0.6202
  686MOL0     H94620   6.673   6.391  10.075 -0.7502 -1.0605  0.9411
  686MOL0     H94621   6.575   6.535  10.063  1.9307  1.1398  1.3417
  686MOL0     H94622   6.727   6.611  10.212  0.8963  0.5933  0.0779
  686MOL0     H94623   6.634   6.518  10.340 -0.3716 -2.9167 -0.1223
  686MOL0     H94624   6.778   6.325  10.301 -1.8000 -0.0464 -2.5468
  686MOL0     H94625   6.867   6.422  10.187 -1.6072  3.1648 -1.5492
  686MOL0     H94626   7.032   6.276  10.257 -0.3907 -1.2085  0.2726
  686MOL0     H94627   7.327   6.231  10.140 -2.1247  0.3777 -0.5943
  686MOL0     H94628   7.201   6.143  10.226 -2.5984  2.3379  3.7794
  686MOL0     H94629   7.361   6.175  10.309  0.1325 -0.2126  0.5867
  686MOL0     H94630   7.657   6.568  10.256 -0.1437 -0.0361 -0.9617
  686MOL0     H94631   7.888   6.623  10.274 -1.0801  0.4529  0.2783
  686MOL0     H94632   8.194   6.259  10.311  1.6820 -0.8407 -1.5239
  686MOL0     H94633   8.153   6.319  10.158  1.0907 -1.8260  0.8910
  686MOL0     H94634   8.295   6.531  10.201  2.2731 -1.2863 -2.4602
  686MOL0     H94635   8.348   6.459  10.350  0.1011 -1.6265  0.6466
  686MOL0     H94636   8.382   6.351  10.063  3.0989  1.2535 -0.8694
  686MOL0     H94637   8.408   6.252  10.200  2.1939 -0.3866 -0.6795
  686MOL0     H94638   8.583   6.429  10.294  1.0773 -0.5631 -0.6817
  686MOL0     H94639   8.522   6.534  10.166  1.6134  0.1598 -1.4219
  686MOL0     H94640   8.654   6.256  10.137  0.8320  0.2006  1.6999
  686MOL0     H94641   8.613   6.353   9.997  2.6484 -1.5266 -1.9714
  686MOL0     H94642   8.834   6.419  10.195 -0.7430  0.8576  1.1390
  686MOL0     H94643   8.781   6.517  10.066  0.8791  0.0193  2.7157
  686MOL0     H94644   8.867   6.338   9.904  0.0443 -2.5624 -0.0217
  686MOL0     H94645   8.869   6.223  10.036 -2.4021  0.3910  0.8621
  686MOL0     H94646   9.036   6.376  10.148  2.2756 -0.4176  0.1739
  686MOL0     H94647   9.056   6.451   9.984 -1.0358 -0.4347 -0.4302
  686MOL0     H94648   7.977   6.204  10.333  2.4842  0.6625 -0.0940
  686MOL0     H94649   7.736   6.153  10.346  0.4855 -0.0545  1.0213
  686MOL0     H94650   7.307   6.569  10.535 -1.3991  1.5405  0.1747
  686MOL0     H94651   7.065   6.604  10.529  0.3058  1.6922 -1.0326
  686MOL0     H94652   5.172   6.867  10.532  1.0052 -0.0540 -1.0445
  686MOL0     H94653   4.966   6.912  10.424  2.4632 -1.8717 -0.0814
  686MOL0     H94654   4.618   7.061  10.340  2.5881  0.1547  1.2298
  686MOL0     H94655   4.401   7.077  10.268  1.3251  0.0890  0.9603
  686MOL0     H94656   4.249   7.456  10.008  3.0477  0.5651  2.2212
  686MOL0     H94657   4.331   7.340   9.910 -1.4368  1.1262 -0.0635
  686MOL0     H94658   4.120   7.197   9.957  0.4835  1.0469  0.8955
  686MOL0     H94659   4.135   7.318   9.829  2.2664 -0.8896  0.2804
  686MOL0     H94660   3.969   7.314  10.096  1.2710 -2.4188 -1.3723
  686MOL0     H94661   4.027   7.475  10.039 -4.2346  1.4605 -1.9573
  686MOL0     H94662   3.924   7.428   9.814  1.2830  2.7299  0.8559
  686MOL0     H94663   3.803   7.431   9.942 -0.4518 -0.1168 -1.8949
  686MOL0     H94664   3.766   7.038   9.819 -0.1790 -0.1002  1.5609
  686MOL0     H94665   4.485   7.447  10.068  2.7865  0.2617 -1.2037
  686MOL0     H94666   4.796   7.519  10.200  1.1833 -2.0251  0.5944
  686MOL0     H94667   4.812   7.419  10.056  0.3419 -0.8230  0.8622
  686MOL0     H94668   4.675   7.536  10.062 -1.9177 -1.2921 -0.3292
  687MOL0     O94669   4.710   0.409  11.182 -0.1033  0.6374 -0.9771
  687MOL0     C94670   4.627   0.325  11.145 -0.0520  0.1782  0.2607
  687MOL0     O94671   4.656   0.219  11.063  0.3154 -0.0673  0.0221
  687MOL0     C94672   4.786   0.213  11.013  0.2370  0.7708 -0.1120
  687MOL0     C94673   4.819   0.296  10.911  0.2454 -0.7480 -0.2676
  687MOL0     C94674   4.952   0.299  10.879 -0.0394 -0.2920 -0.4121
  687MOL0     C94675   5.049   0.224  10.950  0.6869 -0.2263  0.0505
  687MOL0     O94676   5.177   0.258  10.923  0.7022  0.6633 -0.0616
  687MOL0     C94677   5.248   0.142  10.872  0.3471  0.4878  0.0490
  687MOL0     C94678   5.327   0.158  10.745 -0.0848 -0.1799  0.1252
  687MOL0     C94679   5.251   0.231  10.637 -0.0107  0.0146 -0.6258
  687MOL0     C94680   5.146   0.133  10.586 -0.4814 -0.0012 -0.5981
  687MOL0     C94681   5.041   0.192  10.497 -0.2986 -0.0671  0.9601
  687MOL0     C94682   5.078   0.318  10.409 -0.4381 -0.0761  0.3421
  687MOL0     C94683   4.951   0.387  10.367 -0.9307  0.3930 -0.4471
  687MOL0     C94684   4.968   0.447  10.226 -0.3599 -0.5899  0.6747
  687MOL0     N94685   5.057   0.568  10.226 -0.4248  0.2558 -0.3736
  687MOL0     C94686   5.163   0.578  10.140  0.5545  0.3184  0.1148
  687MOL0     C94687   5.211   0.701  10.151  0.2497 -0.8104  0.4896
  687MOL0     C94688   5.320   0.774  10.065  0.4858  0.2116 -0.2272
  687MOL0     C94689   5.277   0.810   9.923  0.0953 -0.2045 -0.2169
  687MOL0     C94690   5.263   0.690   9.824 -0.6965  0.4984 -0.6249
  687MOL0     C94691   5.359   0.578   9.834 -0.0729  0.1251  0.3546
  687MOL0     O94692   5.316   0.476   9.740  0.3498  0.8577  0.6347
  687MOL0     C94693   5.404   0.383   9.694 -0.0080 -0.3104  0.3929
  687MOL0     C94694   5.362   0.294   9.592  0.0011  0.2783 -0.2925
  687MOL0     C94695   5.450   0.197   9.529  0.3738 -0.1893  0.0907
  687MOL0     C94696   5.401   0.125   9.413  0.2322 -0.4076  0.2101
  687MOL0     C94697   5.588   0.191   9.566 -0.0711 -0.2115  0.8990
  687MOL0     C94698   5.695   0.099   9.501 -0.2588 -0.1858 -0.0037
  687MOL0     O94699   5.824   0.126   9.536 -0.2707  0.1667  0.4620
  687MOL0     C94700   5.925   0.043   9.504 -0.3647 -0.3355  0.2216
  687MOL0     C94701   5.955  -0.017   9.379 -0.5737 -0.9854 -0.5622
  687MOL0     C94702   6.057  -0.113   9.370  0.2196  0.2592 -0.3579
  687MOL0     C94703   6.136  -0.149   9.480  0.4271  0.6532  0.0399
  687MOL0     O94704   6.220  -0.258   9.460  0.4997 -0.7412 -0.6715
  687MOL0     C94705   6.345  -0.262   9.518 -0.6368  0.5434 -0.9017
  687MOL0     C94706   6.366  -0.368   9.621 -0.4581  0.0020 -0.2074
  687MOL0     C94707   6.354  -0.512   9.566 -0.1621 -0.0699 -0.3130
  687MOL0     C94708   6.450  -0.552   9.459  0.4325  0.3567 -0.4254
  687MOL0     C94709   6.443  -0.704   9.424 -0.0766  0.2568 -0.3005
  687MOL0     C94710   6.303  -0.771   9.411  0.3342  0.0411 -0.4931
  687MOL0     C94711   6.305  -0.922   9.408 -0.7085 -0.4492 -0.1656
  687MOL0     C94712   6.166  -0.974   9.439 -0.3039  0.0758  0.6143
  687MOL0    Cl94713   6.169  -1.142   9.391  0.1706  0.0870 -0.1153
  687MOL0     C94714   6.115  -0.082   9.600  0.0909  0.1934  0.1500
  687MOL0     C94715   6.011   0.012   9.608  0.6733  0.3763 -0.0197
  687MOL0     O94716   5.659   0.001   9.435 -0.3336  0.7104  0.5072
  687MOL0     C94717   5.628   0.277   9.677 -0.0080  0.6148 -0.7877
  687MOL0     C94718   5.534   0.363   9.740 -0.2356 -0.1310  0.4619
  687MOL0     N94719   5.149   0.760  10.260  0.9500  0.5027 -0.0671
  687MOL0     N94720   5.052   0.685  10.299 -0.9529  0.2055 -0.5272
  687MOL0     C94721   5.013   0.139  11.059  0.1352 -0.1897  0.2121
  687MOL0     C94722   4.882   0.130  11.081  0.0918  0.0075  0.5615
  687MOL0     C94723   4.487   0.337  11.181  0.6029  0.1745  0.1123
  687MOL0     C94724   4.388   0.277  11.095  0.1484 -0.5174  0.3418
  687MOL0     C94725   4.253   0.293  11.119  0.0468  0.4382  0.4257
  687MOL0     C94726   4.198   0.348  11.233  0.1176 -0.3167  1.3219
  687MOL0     O94727   4.064   0.342  11.260  0.0940  0.0258  0.3626
  687MOL0     C94728   4.006   0.390  11.385 -0.9982 -0.2817 -0.0727
  687MOL0     C94729   3.994   0.545  11.365  0.1960 -0.1647 -0.1310
  687MOL0     C94730   3.881   0.581  11.266  0.5186  0.0421 -0.3927
  687MOL0     C94731   3.793   0.708  11.297  0.2023  0.2948 -0.1461
  687MOL0     C94732   3.655   0.685  11.354  0.0682 -0.2422  0.6295
  687MOL0     C94733   3.548   0.655  11.397  0.5067  1.0627 -0.8413
  687MOL0     C94734   4.288   0.417  11.303 -0.0886  0.4025 -0.5013
  687MOL0     C94735   4.433   0.416  11.279  0.5347 -1.0437 -0.2181
  687MOL0     C94736   4.520   0.500  11.378 -0.1568  0.8879 -0.0889
  687MOL0     H94737   4.741   0.341  10.851  0.7988 -2.1452 -2.1277
  687MOL0     H94738   4.992   0.359  10.797  1.4589 -1.5023 -0.6300
  687MOL0     H94739   5.187   0.053  10.854  0.2133  0.8455 -1.3531
  687MOL0     H94740   5.306   0.100  10.955 -0.7526 -1.4135 -0.0757
  687MOL0     H94741   5.422   0.205  10.771  0.6934 -2.0995  0.9252
  687MOL0     H94742   5.361   0.057  10.721  1.2300 -0.1005  1.5002
  687MOL0     H94743   5.208   0.326  10.670  2.0671  2.1141 -3.4247
  687MOL0     H94744   5.329   0.272  10.571  2.1855  1.3557  2.5536
  687MOL0     H94745   5.194   0.055  10.526  1.8129  0.8744 -0.0170
  687MOL0     H94746   5.082   0.097  10.667 -1.2621 -0.7989 -1.5411
  687MOL0     H94747   4.966   0.221  10.571  0.4392 -0.1308  1.7416
  687MOL0     H94748   5.011   0.102  10.442  1.8708 -1.7215  2.3119
  687MOL0     H94749   5.133   0.391  10.470 -1.1297  2.6577 -2.0745
  687MOL0     H94750   5.143   0.299  10.322 -0.5424  0.5734  0.1182
  687MOL0     H94751   4.912   0.464  10.435 -1.1655 -0.9185  0.9678
  687MOL0     H94752   4.868   0.315  10.368 -0.7051  0.1333 -0.4404
  687MOL0     H94753   5.005   0.372  10.156 -1.0930  0.3217 -0.7217
  687MOL0     H94754   4.871   0.475  10.184  0.5044  0.5861 -0.6221
  687MOL0     H94755   5.212   0.508  10.073  1.3117 -1.2673  2.2226
  687MOL0     H94756   5.407   0.709  10.055  1.7437  1.8379 -0.3509
  687MOL0     H94757   5.352   0.871  10.106 -2.8696  2.2205 -1.8316
  687MOL0     H94758   5.192   0.879   9.930 -0.1526  0.0003 -3.7293
  687MOL0     H94759   5.354   0.874   9.879  0.3157 -1.6377 -2.0358
  687MOL0     H94760   5.163   0.651   9.842 -0.2303  0.5227  2.7326
  687MOL0     H94761   5.279   0.733   9.724  0.6281  0.2727 -0.5280
  687MOL0     H94762   5.461   0.616   9.821  0.0495  0.0457  1.0803
  687MOL0     H94763   5.358   0.528   9.931  0.9335 -0.0607  0.2774
  687MOL0     H94764   5.267   0.319   9.548  0.2520  0.8657 -0.5080
  687MOL0     H94765   5.387   0.019   9.439 -1.1602 -0.5378 -0.9754
  687MOL0     H94766   5.463   0.131   9.323 -0.1488  1.5500  0.0488
  687MOL0     H94767   5.301   0.161   9.388  0.1179 -1.6377 -1.2156
  687MOL0     H94768   5.884   0.007   9.301  1.3632  1.2281 -1.7609
  687MOL0     H94769   6.074  -0.160   9.274 -2.1014 -2.3168  0.3797
  687MOL0     H94770   6.425  -0.273   9.445 -0.3652 -1.1983 -0.3853
  687MOL0     H94771   6.351  -0.172   9.581 -3.2988 -0.4017  0.9012
  687MOL0     H94772   6.462  -0.350   9.671  0.9103  0.0820 -2.7088
  687MOL0     H94773   6.295  -0.349   9.702  1.1066  1.9017  0.8081
  687MOL0     H94774   6.255  -0.521   9.519 -0.8384 -0.2933  1.0892
  687MOL0     H94775   6.368  -0.573   9.656 -2.0483  0.1223  0.1540
  687MOL0     H94776   6.550  -0.545   9.503 -0.7655 -1.6545  3.0492
  687MOL0     H94777   6.445  -0.497   9.365 -2.2714 -1.5783 -1.5536
  687MOL0     H94778   6.496  -0.714   9.329  0.8437  1.3177  0.0943
  687MOL0     H94779   6.508  -0.760   9.492  1.7311  0.2707 -1.9403
  687MOL0     H94780   6.256  -0.740   9.317 -1.4094 -0.6380  0.1080
  687MOL0     H94781   6.249  -0.737   9.500  1.4347 -2.7830  1.4247
  687MOL0     H94782   6.371  -0.967   9.482 -0.2256  0.7732  0.1811
  687MOL0     H94783   6.342  -0.957   9.312 -0.2421 -1.7543  0.4718
  687MOL0     H94784   6.085  -0.924   9.384 -0.2563 -0.9281 -0.3902
  687MOL0     H94785   6.138  -0.962   9.544 -1.6233 -1.0783  0.4263
  687MOL0     H94786   6.180  -0.106   9.683  0.2715  0.1206 -0.0119
  687MOL0     H94787   5.985   0.060   9.702  0.4653 -1.7129  1.0586
  687MOL0     H94788   5.730   0.269   9.714 -0.8473  1.6214  2.0089
  687MOL0     H94789   5.571   0.420   9.825  0.1715  0.4648 -0.0978
  687MOL0     H94790   5.098   0.103  11.116  0.3613  2.8623  2.0367
  687MOL0     H94791   4.837   0.078  11.166 -0.3367 -1.1213 -0.3300
  687MOL0     H94792   4.411   0.209  11.013  2.1966  1.1798 -0.5973
  687MOL0     H94793   4.183   0.246  11.050 -0.9906  0.8474  1.1723
  687MOL0     H94794   3.908   0.343  11.398 -0.6273 -1.9292 -2.6399
  687MOL0     H94795   4.071   0.375  11.472  0.4652  2.3485 -0.6152
  687MOL0     H94796   4.081   0.601  11.331 -0.0850  1.0665  1.0946
  687MOL0     H94797   3.972   0.584  11.465  0.6837 -0.5095  0.1187
  687MOL0     H94798   3.934   0.609  11.174  2.1061 -2.3622 -0.3013
  687MOL0     H94799   3.802   0.506  11.255 -1.3066  1.9572 -1.1241
  687MOL0     H94800   3.773   0.775  11.213 -2.5323  0.2119  0.3532
  687MOL0     H94801   3.850   0.761  11.375 -0.9263  0.4545  0.6028
  687MOL0     H94802   3.451   0.627  11.431  1.2809  0.1163  0.7032
  687MOL0     H94803   4.250   0.479  11.384  2.0517  1.5850 -0.3144
  687MOL0     H94804   4.589   0.430  11.428 -0.2536  0.0749 -1.0536
  687MOL0     H94805   4.584   0.570  11.323 -0.1967  3.2582  2.6746
  687MOL0     H94806   4.464   0.551  11.456 -0.9800 -0.8069  0.4864
  688MOL0     O94807   6.430   3.908   5.273  0.8001 -0.2012  0.0127
  688MOL0     C94808   6.469   3.805   5.331 -0.2100 -1.2260  1.0131
  688MOL0     O94809   6.606   3.779   5.356 -0.7228  0.3296  0.9578
  688MOL0     C94810   6.708   3.862   5.313  0.8268 -1.0033 -0.2155
  688MOL0     C94811   6.753   3.976   5.382  1.5745  0.3240  0.5288
  688MOL0     C94812   6.844   4.070   5.325  0.8282 -0.1580  0.8510
  688MOL0     C94813   6.902   4.035   5.203  0.1863 -0.4679 -0.3929
  688MOL0     O94814   6.985   4.126   5.139  0.4320  0.3375 -0.4175
  688MOL0     C94815   7.123   4.154   5.178  0.1624 -0.1927 -0.1367
  688MOL0     C94816   7.180   4.278   5.113  0.2370  0.6814  0.1162
  688MOL0     C94817   7.196   4.283   4.964  0.3895 -0.2325  0.1287
  688MOL0     C94818   7.340   4.230   4.935 -0.4738  0.5417 -0.0992
  688MOL0     C94819   7.345   4.224   4.788 -0.0583  0.3678 -0.3043
  688MOL0     C94820   7.481   4.177   4.741  0.1321 -0.2717 -0.1402
  688MOL0     C94821   7.473   4.156   4.593 -0.1752 -0.8471  0.5235
  688MOL0     C94822   7.600   4.103   4.532 -0.4822 -0.0029 -0.4215
  688MOL0     N94823   7.721   4.184   4.544 -0.4024  0.5412 -0.6008
  688MOL0     C94824   7.829   4.172   4.637 -0.6126  1.0445  0.1369
  688MOL0     C94825   7.890   4.293   4.645  0.2060  0.0199  0.2679
  688MOL0     C94826   8.007   4.333   4.727 -0.2321  0.1986 -0.8789
  688MOL0     C94827   8.134   4.331   4.643 -0.4349 -0.1915 -0.2629
  688MOL0     C94828   8.244   4.381   4.748  0.4274  0.1586 -0.1871
  688MOL0     C94829   8.374   4.388   4.682  0.1801  0.1468 -0.0402
  688MOL0     O94830   8.476   4.396   4.787 -0.2560 -0.1954  0.1609
  688MOL0     C94831   8.607   4.404   4.752 -0.3047  0.6317  0.0068
  688MOL0     C94832   8.701   4.384   4.842 -1.5038  0.3248  0.0243
  688MOL0     C94833   8.846   4.397   4.814  0.0636 -0.3021 -0.0343
  688MOL0     C94834   8.944   4.398   4.925 -0.1929  0.4986 -0.1301
  688MOL0     C94835   8.887   4.401   4.676 -0.0816  1.0283  0.8028
  688MOL0     C94836   9.024   4.399   4.621  0.4660 -0.6937  0.4197
  688MOL0     O94837   9.041   4.390   4.487 -0.0502 -0.1657  0.1184
  688MOL0     C94838   9.164   4.406   4.433  0.1225 -0.0421  0.3696
  688MOL0     C94839   9.241   4.296   4.389  0.3475 -0.1610 -0.3042
  688MOL0     C94840   9.364   4.316   4.340 -0.1444 -0.1639  0.1896
  688MOL0     C94841   9.421   4.443   4.337 -0.6716 -1.0677 -0.0205
  688MOL0     O94842   9.552   4.471   4.296 -0.3285  0.1927  0.5778
  688MOL0     C94843   9.598   4.366   4.209  0.6832  0.0827  0.4430
  688MOL0     C94844   9.717   4.410   4.131  0.1861 -0.2331 -0.2564
  688MOL0     C94845   9.834   4.459   4.215  0.4546  0.3968  0.1187
  688MOL0     C94846   9.875   4.396   4.341 -0.4325  0.3740  0.8758
  688MOL0     C94847  10.023   4.420   4.381 -0.1721 -0.6150  0.3227
  688MOL0     C94848  10.061   4.404   4.527  0.4742  0.1084  0.5182
  688MOL0     C94849  10.184   4.482   4.579 -0.5174 -0.3827  1.0794
  688MOL0     C94850  10.316   4.465   4.510  0.0253 -0.8175  0.2418
  688MOL0    Cl94851  10.368   4.291   4.508 -0.0319  0.7236 -0.4570
  688MOL0     C94852   9.352   4.555   4.377  0.0339  0.5130 -0.0451
  688MOL0     C94853   9.216   4.535   4.430 -0.0096  0.2187  0.6062
  688MOL0     O94854   9.119   4.416   4.698 -0.2728 -0.2086  0.0726
  688MOL0     C94855   8.782   4.410   4.583 -0.3214  0.0085 -0.7901
  688MOL0     C94856   8.651   4.416   4.624  0.6300 -0.9116 -0.3286
  688MOL0     N94857   7.822   4.374   4.552  0.5093  1.5906 -0.2859
  688MOL0     N94858   7.727   4.309   4.490 -0.9968  0.0800  1.1348
  688MOL0     C94859   6.861   3.917   5.140  0.4246  0.9902  0.3541
  688MOL0     C94860   6.774   3.823   5.195  0.4364 -0.3952  0.3679
  688MOL0     C94861   6.374   3.721   5.403  0.0829  0.1737 -0.0402
  688MOL0     C94862   6.429   3.628   5.496  0.1633  0.7217  0.8829
  688MOL0     C94863   6.349   3.533   5.561  0.7107 -0.1272  0.1019
  688MOL0     C94864   6.210   3.527   5.541  0.9848 -0.2506  1.0473
  688MOL0     O94865   6.157   3.412   5.592  0.7574 -0.5949  0.3049
  688MOL0     C94866   6.031   3.381   5.530  0.2993 -0.6585 -0.8141
  688MOL0     C94867   5.990   3.250   5.597  1.1330 -0.0453 -0.4405
  688MOL0     C94868   5.877   3.188   5.512  0.8886  0.1593 -0.5146
  688MOL0     C94869   5.752   3.269   5.471 -0.6177  0.5856  0.0716
  688MOL0     C94870   5.688   3.331   5.591 -0.3341  0.2095  0.0249
  688MOL0     C94871   5.654   3.397   5.688  0.1886 -1.3120 -0.4083
  688MOL0     C94872   6.153   3.627   5.462  0.8601 -0.5328 -0.4339
  688MOL0     C94873   6.231   3.722   5.392 -0.1132  0.4417  0.5863
  688MOL0     C94874   6.155   3.806   5.291 -0.7517  0.6482 -0.1509
  688MOL0     H94875   6.699   4.007   5.471 -3.0062  0.0966 -1.8724
  688MOL0     H94876   6.865   4.166   5.371  2.2439 -0.8275  1.6901
  688MOL0     H94877   7.185   4.069   5.149 -1.1702 -1.1394 -0.2936
  688MOL0     H94878   7.127   4.169   5.287  1.4158  1.9038 -0.4208
  688MOL0     H94879   7.129   4.369   5.148  2.5819  1.8012  0.9118
  688MOL0     H94880   7.279   4.279   5.160  0.2503 -4.4309  0.7560
  688MOL0     H94881   7.113   4.228   4.919 -3.0943  1.8496  3.4285
  688MOL0     H94882   7.205   4.387   4.933  0.3672 -0.5327 -0.9209
  688MOL0     H94883   7.414   4.298   4.979 -0.8470  1.5839 -1.0456
  688MOL0     H94884   7.358   4.129   4.973  2.6080  0.9025 -0.3781
  688MOL0     H94885   7.326   4.324   4.748 -0.2615  0.8735  1.0064
  688MOL0     H94886   7.268   4.151   4.760  2.0269 -1.8362 -0.6128
  688MOL0     H94887   7.557   4.254   4.759  0.2521  0.1682 -2.2332
  688MOL0     H94888   7.519   4.089   4.794  0.1417  0.7734  1.6561
  688MOL0     H94889   7.446   4.256   4.557  1.7150 -0.0445  1.2407
  688MOL0     H94890   7.385   4.094   4.572 -1.7413  1.4130  0.0760
  688MOL0     H94891   7.623   4.008   4.581 -0.0740 -0.5009 -1.5434
  688MOL0     H94892   7.584   4.085   4.425  0.6690  0.2989 -0.6527
  688MOL0     H94893   7.861   4.082   4.688 -1.2553  0.4106 -0.5537
  688MOL0     H94894   8.006   4.274   4.819  0.2834  0.4274 -0.7271
  688MOL0     H94895   7.989   4.434   4.766  1.6216 -0.2544  1.3411
  688MOL0     H94896   8.155   4.228   4.611  1.2695  0.2239 -0.5814
  688MOL0     H94897   8.129   4.398   4.557  1.1246 -1.2820 -1.2530
  688MOL0     H94898   8.218   4.474   4.798 -0.0224 -0.0236 -0.0753
  688MOL0     H94899   8.250   4.305   4.826  0.8099  0.0595 -0.3112
  688MOL0     H94900   8.396   4.295   4.629 -2.2906 -0.4039 -0.1873
  688MOL0     H94901   8.377   4.471   4.611 -1.4760 -0.7435 -1.2037
  688MOL0     H94902   8.674   4.369   4.946 -0.9047 -2.2040 -0.1254
  688MOL0     H94903   8.897   4.420   5.021 -1.7798  0.2254 -0.8205
  688MOL0     H94904   9.025   4.470   4.907  1.3129 -1.8966 -4.9702
  688MOL0     H94905   8.982   4.297   4.944 -0.9318  0.6283  2.3420
  688MOL0     H94906   9.199   4.196   4.377 -0.5315 -0.1351  2.0583
  688MOL0     H94907   9.413   4.227   4.302 -0.3890  1.0033 -3.1320
  688MOL0     H94908   9.630   4.286   4.277 -1.7856  0.7178  2.5179
  688MOL0     H94909   9.522   4.335   4.137  2.1600  0.1241 -1.1980
  688MOL0     H94910   9.760   4.337   4.063  1.9309  0.7184 -0.2405
  688MOL0     H94911   9.678   4.493   4.071  1.3119 -0.6813 -1.6649
  688MOL0     H94912   9.809   4.564   4.233  2.9598  1.4139 -1.7735
  688MOL0     H94913   9.921   4.457   4.149  2.1171  1.3232  2.2040
  688MOL0     H94914   9.869   4.287   4.346  1.0717  0.2977  1.7768
  688MOL0     H94915   9.805   4.432   4.417 -0.5124  2.3434 -0.0783
  688MOL0     H94916  10.090   4.360   4.320 -0.5340  0.1930 -0.9076
  688MOL0     H94917  10.041   4.524   4.353 -4.2094 -0.4598 -2.6838
  688MOL0     H94918  10.066   4.296   4.545 -1.2083 -0.2227 -0.7462
  688MOL0     H94919   9.972   4.433   4.582 -0.8034  2.3020 -2.4342
  688MOL0     H94920  10.194   4.462   4.686  0.2269 -0.9827  0.9011
  688MOL0     H94921  10.155   4.587   4.578 -1.6581 -0.6590  2.1070
  688MOL0     H94922  10.393   4.520   4.565 -0.7655  0.1431  0.4280
  688MOL0     H94923  10.309   4.501   4.407 -1.6261 -1.3693  0.1340
  688MOL0     H94924   9.391   4.655   4.364 -0.9149  1.1290  1.5883
  688MOL0     H94925   9.153   4.617   4.464 -0.5451 -0.0034  0.1465
  688MOL0     H94926   8.800   4.423   4.477 -0.0989  1.5475 -0.5934
  688MOL0     H94927   8.573   4.439   4.552 -0.2812 -1.2686  0.5216
  688MOL0     H94928   6.916   3.903   5.047  0.7446 -0.2843  0.7079
  688MOL0     H94929   6.749   3.733   5.139 -1.7862 -0.3815  1.2300
  688MOL0     H94930   6.531   3.631   5.533  0.0944  1.4655  1.0160
  688MOL0     H94931   6.405   3.454   5.610  0.1265 -0.3706  0.3903
  688MOL0     H94932   5.957   3.458   5.552  0.4156 -0.4427 -1.1785
  688MOL0     H94933   6.036   3.365   5.422 -1.3661 -0.8028 -0.8953
  688MOL0     H94934   5.957   3.272   5.698 -2.1011 -1.1534 -1.1281
  688MOL0     H94935   6.071   3.177   5.601  0.4421 -0.8277 -0.3693
  688MOL0     H94936   5.928   3.141   5.427  0.4704 -1.8608  0.2846
  688MOL0     H94937   5.836   3.104   5.569 -0.2630  2.5951  2.4974
  688MOL0     H94938   5.676   3.218   5.411 -0.1454  1.1416 -1.0257
  688MOL0     H94939   5.790   3.344   5.401 -1.1351  1.4253  0.6753
  688MOL0     H94940   5.625   3.452   5.776  1.2547  2.6452 -2.2719
  688MOL0     H94941   6.048   3.621   5.436  0.2773  1.0029  1.3130
  688MOL0     H94942   6.198   3.805   5.191 -0.1390  0.4617  0.1090
  688MOL0     H94943   6.053   3.768   5.283  0.0818 -2.0437  0.9736
  688MOL0     H94944   6.157   3.912   5.321 -2.8381 -0.2921  4.0168
  689MOL0     O94945  10.330   4.334  10.800  0.4630 -0.6617 -0.0677
  689MOL0     C94946  10.269   4.431  10.743  0.2196 -0.0488 -0.4997
  689MOL0     O94947  10.316   4.493  10.631  0.4656  0.0123 -0.5456
  689MOL0     C94948  10.432   4.449  10.574  0.4424  0.5195 -0.5707
  689MOL0     C94949  10.528   4.553  10.542 -0.3837  0.2386 -0.4305
  689MOL0     C94950  10.644   4.522  10.457 -0.1586  0.4874 -0.3357
  689MOL0     C94951  10.671   4.393  10.405  0.3059  0.2673 -0.1468
  689MOL0     O94952  10.781   4.340  10.339  0.3911  0.0739  0.0447
  689MOL0     C94953  10.901   4.415  10.328 -0.2251 -0.0495 -0.3268
  689MOL0     C94954  10.938   4.453  10.183  0.3216 -0.1372 -0.0489
  689MOL0     C94955  11.043   4.354  10.132  0.2804  1.0962 -0.6844
  689MOL0     C94956  11.097   4.371   9.989 -0.8368 -1.1677 -0.2846
  689MOL0     C94957  11.171   4.264   9.918 -0.1634  0.1365 -0.6098
  689MOL0     C94958  11.083   4.130   9.902 -0.0816  0.0068  0.9220
  689MOL0     C94959  11.156   4.025   9.811 -0.5573 -0.2668 -0.5718
  689MOL0     C94960  11.094   3.893   9.828 -0.2767 -0.7219  0.5147
  689MOL0     N94961  11.191   3.784   9.784  0.4597 -0.1324 -0.7649
  689MOL0     C94962  11.240   3.768   9.658  0.4324  0.4703 -0.1965
  689MOL0     C94963  11.344   3.682   9.671  0.1728  0.1200  0.7560
  689MOL0     C94964  11.436   3.627   9.566  0.1687 -0.0915 -0.2747
  689MOL0     C94965  11.586   3.669   9.589 -0.5903 -0.0152 -0.1604
  689MOL0     C94966  11.673   3.671   9.466  0.9257  0.2442  0.6095
  689MOL0     C94967  11.813   3.680   9.502  0.4035 -0.3747  0.9944
  689MOL0     O94968  11.852   3.812   9.525  0.1358 -0.4602  0.5842
  689MOL0     C94969  11.929   3.861   9.426 -0.8828 -0.4594  0.1752
  689MOL0     C94970  12.056   3.821   9.388 -0.4112  0.8866  1.1494
  689MOL0     C94971  12.127   3.875   9.276 -0.1904  0.1479 -0.1418
  689MOL0     C94972  12.263   3.815   9.251  0.1904 -0.3119 -0.8477
  689MOL0     C94973  12.078   3.981   9.208  0.6937 -1.0146 -0.8052
  689MOL0     C94974  12.160   4.073   9.121 -0.0626 -0.3364 -0.0849
  689MOL0     O94975  12.283   4.106   9.172  0.2605 -0.2610  0.5691
  689MOL0     C94976  12.381   4.164   9.093  0.3931  1.4954 -0.2372
  689MOL0     C94977  12.506   4.108   9.115 -0.9096 -0.3048  0.6349
  689MOL0     C94978  12.614   4.148   9.033  0.3690 -0.6589  0.1487
  689MOL0     C94979  12.600   4.257   8.944  0.3103 -0.1353  0.5596
  689MOL0     O94980  12.723   4.301   8.896 -0.0999 -0.1273 -0.1228
  689MOL0     C94981  12.721   4.420   8.814  0.6098  0.6634  0.3206
  689MOL0     C94982  12.843   4.436   8.732 -0.7561 -0.3043 -0.0224
  689MOL0     C94983  12.849   4.325   8.617 -0.7964 -0.0816  0.9541
  689MOL0     C94984  12.975   4.338   8.530 -0.6117  0.0878  0.1567
  689MOL0     C94985  13.094   4.247   8.576 -0.0371 -0.0687  0.5466
  689MOL0     C94986  13.207   4.239   8.475 -0.4806  1.2063 -0.6805
  689MOL0     C94987  13.263   4.366   8.420 -0.1906  0.2502 -0.4760
  689MOL0     C94988  13.407   4.352   8.380 -0.1334  0.2859 -0.1212
  689MOL0    Cl94989  13.482   4.504   8.329 -0.0417 -0.1570 -0.1516
  689MOL0     C94990  12.477   4.334   8.933  0.1651  0.1076 -0.5558
  689MOL0     C94991  12.367   4.281   9.007  0.0410  0.3851  0.0104
  689MOL0     O94992  12.104   4.116   9.022  0.1907  0.0460  0.2131
  689MOL0     C94993  11.952   4.027   9.247  0.1791 -0.2556  1.0348
  689MOL0     C94994  11.882   3.968   9.350 -0.3625 -0.1929  0.1680
  689MOL0     N94995  11.365   3.661   9.805  1.1152  0.0402 -0.3602
  689MOL0     N94996  11.269   3.721   9.873 -0.3462 -0.4180  0.1144
  689MOL0     C94997  10.573   4.298  10.440 -0.5924 -0.3730 -1.1120
  689MOL0     C94998  10.453   4.321  10.522  0.1990  0.2456 -0.1484
  689MOL0     C94999  10.141   4.471  10.804  0.3683  0.7943 -0.3001
  689MOL0     C95000  10.110   4.410  10.927  0.1126  0.6841  0.6580
  689MOL0     C95001   9.992   4.433  11.002  0.3768  0.0520  0.6011
  689MOL0     C95002   9.905   4.529  10.956  0.2921  0.1569  0.2673
  689MOL0     O95003   9.787   4.565  11.018  0.0182 -0.8207  0.1651
  689MOL0     C95004   9.723   4.503  11.124 -0.0242  0.5397 -0.1094
  689MOL0     C95005   9.591   4.572  11.146 -0.2229  0.3108  0.2257
  689MOL0     C95006   9.609   4.705  11.225  0.0607  0.4798  0.2998
  689MOL0     C95007   9.629   4.697  11.372  0.2191  1.1821 -0.1305
  689MOL0     C95008   9.507   4.651  11.430 -0.0467  0.5313  0.3935
  689MOL0     C95009   9.394   4.609  11.467 -0.3090 -0.3410 -0.1146
  689MOL0     C95010   9.939   4.602  10.836 -0.1874 -0.6642 -0.8087
  689MOL0     C95011  10.056   4.577  10.762 -0.0369  0.0344  0.8621
  689MOL0     C95012  10.095   4.663  10.646  0.8658 -0.8714  0.4330
  689MOL0     H95013  10.508   4.652  10.582  1.7792  0.7251 -0.4746
  689MOL0     H95014  10.719   4.592  10.421 -0.7592  0.4288 -1.7607
  689MOL0     H95015  10.978   4.348  10.368 -0.1905 -0.2410 -0.7151
  689MOL0     H95016  10.908   4.508  10.386 -1.2916 -0.6956  0.8873
  689MOL0     H95017  10.848   4.447  10.121 -0.3364 -0.3127  0.9084
  689MOL0     H95018  10.979   4.554  10.174  0.0219  0.1491  1.5451
  689MOL0     H95019  11.127   4.353  10.201 -2.7389 -2.8263  3.5096
  689MOL0     H95020  11.003   4.254  10.148  1.2658  1.2099  3.5183
  689MOL0     H95021  11.012   4.401   9.928 -0.6127  3.7530  1.3634
  689MOL0     H95022  11.171   4.452   9.982 -0.7759 -1.3098 -1.6618
  689MOL0     H95023  11.263   4.237   9.970  1.5153 -2.4483 -4.4715
  689MOL0     H95024  11.205   4.300   9.820  3.0804  3.2299  1.4142
  689MOL0     H95025  11.073   4.083  10.000  1.5462 -2.7137 -0.1231
  689MOL0     H95026  10.987   4.153   9.854 -0.6763 -0.2227  1.9589
  689MOL0     H95027  11.261   4.023   9.840 -0.4409  1.1473 -0.7878
  689MOL0     H95028  11.167   4.052   9.705  4.5501 -3.2001 -1.1218
  689MOL0     H95029  11.070   3.888   9.935 -0.7783  1.9400  0.5983
  689MOL0     H95030  11.002   3.890   9.769  1.4227  0.3647 -2.3913
  689MOL0     H95031  11.205   3.809   9.564  0.6425 -2.0940 -1.4787
  689MOL0     H95032  11.401   3.662   9.468  1.2346  1.9998  0.0221
  689MOL0     H95033  11.433   3.518   9.575  2.9888 -0.0863  3.2357
  689MOL0     H95034  11.584   3.774   9.617  0.3454  0.1701 -0.7315
  689MOL0     H95035  11.633   3.605   9.664  0.8489  0.3184 -0.7297
  689MOL0     H95036  11.650   3.576   9.417  2.2427 -0.1297  0.6899
  689MOL0     H95037  11.642   3.750   9.397  3.9994  1.1931  0.1565
  689MOL0     H95038  11.835   3.627   9.595 -1.4791  0.1814  1.7903
  689MOL0     H95039  11.869   3.631   9.421 -1.0097 -3.4322  1.7440
  689MOL0     H95040  12.096   3.755   9.464  2.9174  2.7899  1.2525
  689MOL0     H95041  12.296   3.810   9.147  3.9763 -0.4082  0.2029
  689MOL0     H95042  12.272   3.718   9.302  2.0402  0.6201  0.7592
  689MOL0     H95043  12.340   3.870   9.306  0.0651 -2.0255  1.2063
  689MOL0     H95044  12.528   4.033   9.190  1.4439 -0.3603 -0.0198
  689MOL0     H95045  12.707   4.095   9.046 -0.4879 -2.9896 -2.3578
  689MOL0     H95046  12.645   4.397   8.739 -0.1089 -1.1901  1.5421
  689MOL0     H95047  12.692   4.512   8.865  1.4976  1.3898 -0.4462
  689MOL0     H95048  12.853   4.533   8.684 -1.0321 -0.1908  0.1508
  689MOL0     H95049  12.929   4.422   8.799 -1.2783 -2.6234  0.2494
  689MOL0     H95050  12.761   4.346   8.556 -0.4887  0.3258  0.6476
  689MOL0     H95051  12.838   4.226   8.663 -0.1420 -1.0412 -0.8847
  689MOL0     H95052  12.999   4.443   8.511 -0.9303 -0.1878 -2.0042
  689MOL0     H95053  12.937   4.298   8.435 -2.2806  1.7584  0.0705
  689MOL0     H95054  13.126   4.285   8.673  0.2595 -1.6809  1.1057
  689MOL0     H95055  13.053   4.147   8.588 -1.5857  0.3185 -0.9638
  689MOL0     H95056  13.158   4.186   8.393 -0.3913 -1.2248  0.7577
  689MOL0     H95057  13.286   4.171   8.507 -0.2088  1.5104 -0.6921
  689MOL0     H95058  13.262   4.440   8.501 -1.8640 -2.2962  2.0490
  689MOL0     H95059  13.213   4.405   8.332  1.5084  2.1083 -0.6946
  689MOL0     H95060  13.420   4.280   8.299 -0.3651 -1.9173  1.7028
  689MOL0     H95061  13.453   4.307   8.468 -2.6927 -1.6791  0.3118
  689MOL0     H95062  12.466   4.420   8.868  0.3657  0.6362  0.0941
  689MOL0     H95063  12.270   4.329   8.998 -0.3218 -0.5003 -0.9418
  689MOL0     H95064  11.898   4.108   9.199  1.5935  1.4144  2.1380
  689MOL0     H95065  11.789   4.015   9.379 -1.6060 -1.4973 -1.4501
  689MOL0     H95066  10.580   4.197  10.403  0.2175  0.3438 -3.0437
  689MOL0     H95067  10.373   4.251  10.539  0.6168  0.0537  1.1158
  689MOL0     H95068  10.174   4.341  10.981 -1.3193 -1.6538 -0.4665
  689MOL0     H95069   9.983   4.380  11.096  2.1002  0.1359  0.8379
  689MOL0     H95070   9.694   4.400  11.099 -0.4167  0.1929  1.6924
  689MOL0     H95071   9.794   4.511  11.207  2.0882 -0.4073 -1.7328
  689MOL0     H95072   9.526   4.497  11.191  1.6051 -1.2350  0.4317
  689MOL0     H95073   9.536   4.592  11.053 -2.6632 -3.6727  0.6057
  689MOL0     H95074   9.695   4.761  11.188  1.5602 -0.3806  2.2774
  689MOL0     H95075   9.521   4.768  11.211 -0.0822  0.1880 -0.1338
  689MOL0     H95076   9.662   4.794  11.409  0.7635  1.6004 -1.6639
  689MOL0     H95077   9.706   4.622  11.393 -0.2652  1.4461  3.1302
  689MOL0     H95078   9.293   4.580  11.486 -0.6993  0.8935 -0.1683
  689MOL0     H95079   9.868   4.681  10.813 -1.7827 -2.0395 -0.8034
  689MOL0     H95080  10.184   4.716  10.681  1.9746 -1.8631 -0.7684
  689MOL0     H95081  10.112   4.594  10.563 -0.0312  0.2706 -0.7545
  689MOL0     H95082  10.014   4.728  10.609  2.2626 -1.0630 -3.4420
  690MOL0     O95083   9.189   0.531   3.277 -0.2771 -0.5839  0.2790
  690MOL0     C95084   9.231   0.583   3.376 -0.4082  1.1914 -0.3642
  690MOL0     O95085   9.372   0.593   3.396 -0.1351 -0.3769  0.2942
  690MOL0     C95086   9.457   0.572   3.292  0.0749 -0.3018  0.0749
  690MOL0     C95087   9.582   0.510   3.325 -0.0055 -0.3522  0.0226
  690MOL0     C95088   9.684   0.514   3.236  0.0136 -0.0397 -0.1652
  690MOL0     C95089   9.666   0.559   3.102  0.2907 -0.0999  0.6653
  690MOL0     O95090   9.775   0.558   3.013  0.1796 -0.8428  0.7599
  690MOL0     C95091   9.908   0.504   3.051  0.1748  0.6596 -0.3806
  690MOL0     C95092   9.987   0.500   2.915  0.0368  0.4237 -0.7905
  690MOL0     C95093   9.896   0.437   2.805  0.3494  0.7992 -0.2729
  690MOL0     C95094   9.973   0.352   2.707 -0.4442 -0.0868 -0.4312
  690MOL0     C95095  10.020   0.216   2.755 -0.2978 -0.6925  0.8056
  690MOL0     C95096  10.134   0.168   2.664  0.0694  0.4631  0.4570
  690MOL0     C95097  10.178   0.024   2.697 -0.0028 -0.0149 -0.4045
  690MOL0     C95098  10.309  -0.009   2.636 -0.7533 -0.4239 -0.3993
  690MOL0     N95099  10.320   0.003   2.490  0.7577 -0.6090 -0.1215
  690MOL0     C95100  10.261  -0.093   2.411 -0.3229 -0.1287  0.0611
  690MOL0     C95101  10.284  -0.050   2.285  0.4616  0.0247 -0.3027
  690MOL0     C95102  10.228  -0.125   2.164  1.1245 -0.5159  0.6849
  690MOL0     C95103  10.315  -0.113   2.040 -0.0588  0.7361 -0.0276
  690MOL0     C95104  10.433  -0.191   2.062  0.3206 -0.1777  0.1664
  690MOL0     C95105  10.536  -0.181   1.955 -0.4644 -0.1639 -0.0650
  690MOL0     O95106  10.556  -0.043   1.895  0.0657  0.4498 -0.6800
  690MOL0     C95107  10.671  -0.019   1.826  0.3513 -0.7619  0.2282
  690MOL0     C95108  10.771  -0.106   1.796  0.0519 -0.0179  0.2839
  690MOL0     C95109  10.881  -0.073   1.719 -0.1106  0.1267 -0.0286
  690MOL0     C95110  10.990  -0.181   1.698  1.7150  0.1217  0.7911
  690MOL0     C95111  10.895   0.059   1.667 -0.4297  0.0244  0.1012
  690MOL0     C95112  11.003   0.100   1.566 -1.0071 -0.5976  0.2927
  690MOL0     O95113  11.118   0.026   1.553  0.3933 -0.1123 -0.4611
  690MOL0     C95114  11.183   0.043   1.432 -0.1779  0.2992  0.3991
  690MOL0     C95115  11.304   0.107   1.425  0.1082  0.0511 -0.6157
  690MOL0     C95116  11.386   0.114   1.318 -0.9455  0.3425 -0.0377
  690MOL0     C95117  11.342   0.040   1.202  0.0246 -0.2301 -1.2151
  690MOL0     O95118  11.408   0.044   1.080  0.2644 -0.3208 -0.1812
  690MOL0     C95119  11.516   0.138   1.061 -0.3008 -0.2264 -0.0765
  690MOL0     C95120  11.569   0.105   0.920 -0.7634 -1.0096 -0.3169
  690MOL0     C95121  11.629  -0.030   0.915  0.3416 -0.0089  0.1135
  690MOL0     C95122  11.755  -0.054   0.996  0.4648  0.4312 -0.6705
  690MOL0     C95123  11.833  -0.169   0.927 -0.8464  0.7796  0.1952
  690MOL0     C95124  11.949  -0.235   1.005 -1.2797 -0.3566 -0.2409
  690MOL0     C95125  12.071  -0.141   1.029 -0.2043  1.1770  0.5846
  690MOL0     C95126  12.178  -0.201   1.113  0.3110  1.2064 -0.8528
  690MOL0    Cl95127  12.265  -0.342   1.043 -0.0538  0.4713 -0.0538
  690MOL0     C95128  11.226  -0.034   1.204  0.4597 -0.1680  0.4436
  690MOL0     C95129  11.137  -0.032   1.311 -0.5235 -0.6335  0.3908
  690MOL0     O95130  10.983   0.201   1.500  0.9899  0.4803  0.2337
  690MOL0     C95131  10.796   0.154   1.698 -0.6134 -0.2876  0.3925
  690MOL0     C95132  10.692   0.113   1.779 -0.3625  0.4452 -1.0413
  690MOL0     N95133  10.351   0.072   2.282  0.5200  0.1350 -0.2273
  690MOL0     N95134  10.367   0.102   2.411  0.4573 -0.8453  0.1245
  690MOL0     C95135   9.544   0.617   3.066  0.5817 -0.0345 -0.6215
  690MOL0     C95136   9.443   0.614   3.154  1.4573 -0.1368 -0.0916
  690MOL0     C95137   9.135   0.606   3.493 -0.2042  0.7313 -0.7489
  690MOL0     C95138   9.187   0.672   3.610 -0.3402  0.1809 -0.1279
  690MOL0     C95139   9.101   0.717   3.708  0.4646  0.5800  0.4935
  690MOL0     C95140   8.966   0.678   3.711 -0.2096  0.5280  0.3460
  690MOL0     O95141   8.879   0.709   3.805  0.5005 -0.6830 -0.8124
  690MOL0     C95142   8.924   0.777   3.923  0.1061  0.4440  0.1864
  690MOL0     C95143   8.807   0.783   4.023 -0.0012  0.2062  0.6403
  690MOL0     C95144   8.706   0.882   3.974  0.4013  0.2150  0.0189
  690MOL0     C95145   8.580   0.806   3.932  0.0862 -0.1606 -0.4243
  690MOL0     C95146   8.478   0.890   3.875  0.7277 -0.5653 -1.1266
  690MOL0     C95147   8.385   0.953   3.823  0.4135  0.0605 -0.9279
  690MOL0     C95148   8.912   0.603   3.602 -0.1100  0.3748  0.2762
  690MOL0     C95149   8.996   0.570   3.496 -0.4197  0.1479 -0.3445
  690MOL0     C95150   8.927   0.492   3.392  0.8281 -0.5337  0.0626
  690MOL0     H95151   9.618   0.480   3.423  1.0844  0.3994 -0.1295
  690MOL0     H95152   9.772   0.463   3.273 -1.7847 -3.1256  0.2858
  690MOL0     H95153   9.898   0.404   3.093 -3.2058  0.7722 -0.5875
  690MOL0     H95154   9.965   0.577   3.110 -1.3048  3.0994 -1.7806
  690MOL0     H95155  10.019   0.603   2.900 -2.8094  1.3242 -1.2839
  690MOL0     H95156  10.077   0.438   2.923 -0.1653 -0.3820 -3.7416
  690MOL0     H95157   9.827   0.364   2.849  0.4384  1.4302  0.9289
  690MOL0     H95158   9.847   0.518   2.750 -0.7211  0.6246  0.3905
  690MOL0     H95159   9.911   0.338   2.617 -1.3676  3.3089 -0.4351
  690MOL0     H95160  10.061   0.411   2.681  0.2439 -0.4816  0.9058
  690MOL0     H95161   9.932   0.152   2.739  0.5032 -1.2803 -1.7207
  690MOL0     H95162  10.047   0.222   2.861  1.9415  2.4671  0.1963
  690MOL0     H95163  10.106   0.156   2.559 -1.7091  0.8977  0.8537
  690MOL0     H95164  10.216   0.240   2.676 -0.8057  1.2961  1.6820
  690MOL0     H95165  10.093  -0.041   2.678 -0.0207 -1.1859  2.9245
  690MOL0     H95166  10.196   0.014   2.805 -1.1670  1.7810 -0.0065
  690MOL0     H95167  10.390   0.051   2.677  0.6710 -0.8190 -2.4968
  690MOL0     H95168  10.328  -0.114   2.663 -1.3542 -0.7264 -1.1268
  690MOL0     H95169  10.206  -0.180   2.447 -0.8579 -0.4858 -1.5689
  690MOL0     H95170  10.133  -0.083   2.129  1.7456 -1.0898 -1.9282
  690MOL0     H95171  10.210  -0.232   2.177 -2.0126 -0.8739 -3.9649
  690MOL0     H95172  10.264  -0.149   1.950  1.5517 -2.2674  0.1542
  690MOL0     H95173  10.340  -0.009   2.017 -3.3560  1.5966 -0.3031
  690MOL0     H95174  10.472  -0.158   2.159 -1.0937  0.7838  0.4236
  690MOL0     H95175  10.409  -0.297   2.069  1.8859 -0.5807 -0.2098
  690MOL0     H95176  10.629  -0.225   1.991 -2.6685 -4.5030  0.9383
  690MOL0     H95177  10.512  -0.242   1.868 -1.3892  0.5146 -0.3001
  690MOL0     H95178  10.760  -0.207   1.834 -2.1602 -0.3630 -1.0649
  690MOL0     H95179  10.978  -0.212   1.594  1.1810 -2.9243  1.6622
  690MOL0     H95180  10.962  -0.277   1.743 -1.6870 -0.9154 -2.9257
  690MOL0     H95181  11.090  -0.145   1.724  1.5817  2.0172 -1.0422
  690MOL0     H95182  11.339   0.151   1.518  1.9881 -1.1299 -0.7203
  690MOL0     H95183  11.483   0.159   1.333 -0.7540 -1.2236  6.7111
  690MOL0     H95184  11.481   0.241   1.069  2.6049  0.9557 -1.2115
  690MOL0     H95185  11.590   0.114   1.137 -1.0889  0.5693  0.9656
  690MOL0     H95186  11.485   0.116   0.851  0.8427  0.5764 -2.1141
  690MOL0     H95187  11.643   0.179   0.891 -0.3092 -2.2250 -2.4497
  690MOL0     H95188  11.663  -0.052   0.813  0.9439 -1.1552  0.5401
  690MOL0     H95189  11.557  -0.111   0.928  0.5162 -0.2406 -0.3413
  690MOL0     H95190  11.730  -0.080   1.099  1.3914  3.3851  0.3955
  690MOL0     H95191  11.816   0.036   1.002 -2.2424  2.3339  0.8885
  690MOL0     H95192  11.771  -0.255   0.900  0.3652  0.7244 -2.8244
  690MOL0     H95193  11.869  -0.126   0.834 -1.7155  1.9594  0.3818
  690MOL0     H95194  11.989  -0.317   0.945 -0.2401  1.0383 -1.5220
  690MOL0     H95195  11.920  -0.266   1.106  3.3822 -3.8094  0.3965
  690MOL0     H95196  12.046  -0.042   1.068  1.1133  1.4433  0.8083
  690MOL0     H95197  12.119  -0.127   0.932 -1.1770  2.3784  0.2480
  690MOL0     H95198  12.156  -0.225   1.218 -0.5429 -2.3347 -1.7165
  690MOL0     H95199  12.249  -0.118   1.117 -0.8028  2.2427 -1.8420
  690MOL0     H95200  11.205  -0.087   1.112  2.0010 -0.4360  0.2284
  690MOL0     H95201  11.039  -0.080   1.306 -1.4167  1.2233 -1.3089
  690MOL0     H95202  10.795   0.257   1.664 -0.1054 -0.4024  0.0321
  690MOL0     H95203  10.627   0.193   1.813  0.2803  0.6562 -0.2882
  690MOL0     H95204   9.543   0.648   2.962  1.0316  0.2719 -0.5379
  690MOL0     H95205   9.357   0.671   3.122  0.9006 -0.3649  0.9698
  690MOL0     H95206   9.291   0.697   3.630 -0.3144 -1.5931  2.3418
  690MOL0     H95207   9.139   0.783   3.785  1.3812  1.1653 -0.4291
  690MOL0     H95208   9.012   0.729   3.968  0.3737  0.5242 -0.2431
  690MOL0     H95209   8.954   0.881   3.908 -0.2361  0.9716  2.6107
  690MOL0     H95210   8.841   0.823   4.119 -1.4266 -0.0939  1.2900
  690MOL0     H95211   8.760   0.685   4.033 -0.5920  0.3700 -0.3558
  690MOL0     H95212   8.683   0.949   4.058  0.8873  2.2605 -1.3870
  690MOL0     H95213   8.742   0.945   3.892  1.0966  0.8907  0.8277
  690MOL0     H95214   8.536   0.759   4.020  1.4918  0.1536  0.4722
  690MOL0     H95215   8.609   0.730   3.859 -0.8366 -0.1996 -0.7583
  690MOL0     H95216   8.304   1.008   3.780 -1.5357 -2.3676 -0.6164
  690MOL0     H95217   8.807   0.580   3.592  0.7076 -3.7990 -0.3720
  690MOL0     H95218   8.919   0.551   3.301 -0.5203  1.6392  1.4805
  690MOL0     H95219   8.990   0.403   3.382  1.5616  0.2161 -2.5641
  690MOL0     H95220   8.827   0.460   3.425 -0.4639  0.2573 -2.8087
  691MOL0     O95221   0.061   4.501   1.488  0.7957  0.3405 -0.1871
  691MOL0     C95222   0.131   4.499   1.388  0.2856 -0.3639 -0.6002
  691MOL0     O95223   0.213   4.405   1.357  0.4262  0.2516  0.2095
  691MOL0     C95224   0.243   4.307   1.447  0.4410  0.0615 -0.4490
  691MOL0     C95225   0.163   4.232   1.522  1.1065 -0.3417  0.2426
  691MOL0     C95226   0.213   4.136   1.615 -0.4978  0.2652 -0.8340
  691MOL0     C95227   0.352   4.123   1.626  0.3534 -0.6342 -0.1040
  691MOL0     O95228   0.402   4.037   1.718 -0.5596  0.3314 -0.0470
  691MOL0     C95229   0.511   4.095   1.798 -0.4964 -0.1628  0.7757
  691MOL0     C95230   0.502   4.039   1.940 -0.3155  0.4086  0.1524
  691MOL0     C95231   0.390   4.090   2.038 -0.7452 -0.4816  0.0629
  691MOL0     C95232   0.406   4.069   2.186 -0.8253 -0.1704 -0.0089
  691MOL0     C95233   0.473   3.931   2.213 -0.9356  0.1657 -0.5647
  691MOL0     C95234   0.483   3.916   2.364  0.1794 -0.5038  1.2757
  691MOL0     C95235   0.560   3.792   2.412  0.2610  0.0956 -0.4331
  691MOL0     C95236   0.706   3.786   2.376  0.9063  0.5433 -0.5702
  691MOL0     N95237   0.783   3.677   2.435  1.0360  0.1685 -0.5960
  691MOL0     C95238   0.757   3.539   2.423 -0.2021  0.5886  0.0297
  691MOL0     C95239   0.837   3.470   2.505 -0.5361  0.0694  0.0665
  691MOL0     C95240   0.840   3.322   2.517  0.6997  0.1988 -0.2980
  691MOL0     C95241   0.746   3.259   2.621 -0.6598 -0.4877  0.2119
  691MOL0     C95242   0.718   3.355   2.745  0.3042  0.0388 -0.2038
  691MOL0     C95243   0.614   3.284   2.838  0.0312  0.4126 -0.2233
  691MOL0     O95244   0.479   3.307   2.770  0.0411 -0.5176  0.3433
  691MOL0     C95245   0.398   3.202   2.731  0.2529 -0.4748 -1.0003
  691MOL0     C95246   0.267   3.237   2.699  0.6136  0.9963  0.1147
  691MOL0     C95247   0.179   3.144   2.636 -0.2925 -0.1884 -0.0508
  691MOL0     C95248   0.040   3.183   2.603  0.7301 -0.1114  0.5868
  691MOL0     C95249   0.228   3.008   2.625 -0.4703  0.1285  0.1161
  691MOL0     C95250   0.160   2.901   2.566  0.5681 -0.1667  0.2432
  691MOL0     O95251   0.144   2.777   2.624  0.3609  0.0616  0.3064
  691MOL0     C95252   0.159   2.758   2.761  0.7826  0.1854 -0.2750
  691MOL0     C95253   0.225   2.643   2.799 -0.6720 -0.1161  0.3458
  691MOL0     C95254   0.242   2.627   2.937 -0.0544 -0.9623  0.4517
  691MOL0     C95255   0.203   2.719   3.035 -0.1609  0.1302  0.0806
  691MOL0     O95256   0.236   2.687   3.165  1.2554 -0.3481  0.2533
  691MOL0     C95257   0.178   2.769   3.271  0.5903 -0.4907  0.8712
  691MOL0     C95258   0.251   2.748   3.401 -0.0214  0.0380  0.0649
  691MOL0     C95259   0.165   2.779   3.519  0.1857 -0.9483 -0.0383
  691MOL0     C95260   0.266   2.786   3.640  0.2255  0.8925  0.4932
  691MOL0     C95261   0.210   2.867   3.760  0.0919 -0.3395  0.2849
  691MOL0     C95262   0.146   2.772   3.866 -0.2604  0.2540  0.2215
  691MOL0     C95263   0.142   2.848   3.999  0.5656  0.0573  0.5870
  691MOL0     C95264   0.080   2.759   4.115 -0.1374 -0.5613  0.4810
  691MOL0    Cl95265  -0.098   2.780   4.107  0.0052 -0.5358 -0.2693
  691MOL0     C95266   0.131   2.827   2.993 -0.5420  0.2789 -0.2405
  691MOL0     C95267   0.110   2.849   2.858  0.8440 -0.2625  0.0607
  691MOL0     O95268   0.125   2.938   2.454  0.3282  0.1503  0.0758
  691MOL0     C95269   0.357   2.964   2.663  0.9179 -0.8142 -0.1725
  691MOL0     C95270   0.437   3.067   2.720 -0.1880  0.5169  0.2645
  691MOL0     N95271   0.917   3.565   2.565 -0.0587 -1.2660  0.5087
  691MOL0     N95272   0.895   3.688   2.514  0.6404 -0.7081  0.6427
  691MOL0     C95273   0.436   4.194   1.544 -0.5024  0.2488 -0.3914
  691MOL0     C95274   0.381   4.292   1.460 -0.0353  0.0684 -0.8871
  691MOL0     C95275   0.105   4.605   1.289  0.7308 -0.0914 -0.5811
  691MOL0     C95276  -0.031   4.660   1.286 -0.7394  0.1169 -0.3716
  691MOL0     C95277  -0.063   4.766   1.196  0.1662 -0.3263 -0.2689
  691MOL0     C95278   0.042   4.835   1.122 -0.4047  1.2975 -0.8257
  691MOL0     O95279   0.027   4.938   1.031 -0.2638  0.0171 -0.5225
  691MOL0     C95280  -0.081   4.918   0.941  0.5982 -0.2968 -1.1520
  691MOL0     C95281  -0.162   5.043   0.923  0.5098 -0.4114  1.0910
  691MOL0     C95282  -0.088   5.161   0.874  0.0973  0.2878 -1.3356
  691MOL0     C95283  -0.168   5.283   0.863 -0.3547  0.4086 -0.1386
  691MOL0     C95284  -0.081   5.403   0.839  0.4983 -0.2920 -0.4404
  691MOL0     C95285  -0.007   5.503   0.826  0.3954  1.0570 -0.1430
  691MOL0     C95286   0.173   4.791   1.142 -0.2340 -0.6593 -1.0019
  691MOL0     C95287   0.209   4.685   1.219  0.2499  0.3393  0.5139
  691MOL0     C95288   0.349   4.649   1.232 -1.1877 -0.3424 -0.1014
  691MOL0     H95289   0.056   4.252   1.523  0.6912 -2.0145  3.3735
  691MOL0     H95290   0.137   4.084   1.672 -0.9516  2.1314  0.3314
  691MOL0     H95291   0.520   4.203   1.790  0.2174 -0.2941 -0.3175
  691MOL0     H95292   0.607   4.060   1.759 -0.6849  2.0041 -1.9305
  691MOL0     H95293   0.482   3.932   1.936 -0.2093  0.4139 -0.7478
  691MOL0     H95294   0.594   4.066   1.992  0.4066 -1.8563  0.1196
  691MOL0     H95295   0.380   4.198   2.023  0.8902 -0.2747  0.3183
  691MOL0     H95296   0.296   4.044   2.006 -0.1206 -0.4354 -2.0464
  691MOL0     H95297   0.478   4.149   2.206  0.7389 -0.6718 -3.0870
  691MOL0     H95298   0.318   4.088   2.248  0.5766  3.5135  1.1429
  691MOL0     H95299   0.573   3.916   2.170 -1.1646  0.5286 -1.2386
  691MOL0     H95300   0.412   3.845   2.184 -0.4766 -0.3801  0.0516
  691MOL0     H95301   0.531   4.004   2.408 -0.0625  0.3204 -0.0367
  691MOL0     H95302   0.380   3.917   2.400 -0.4532  1.3417 -0.3652
  691MOL0     H95303   0.511   3.702   2.375 -0.8506  2.4513 -5.6452
  691MOL0     H95304   0.558   3.795   2.522  2.1820  1.4061 -0.3877
  691MOL0     H95305   0.718   3.777   2.268 -1.4583  0.4672 -0.8856
  691MOL0     H95306   0.750   3.871   2.429 -1.1094  0.6584  1.0348
  691MOL0     H95307   0.676   3.498   2.363  0.5203  0.7662 -1.0826
  691MOL0     H95308   0.943   3.309   2.549 -0.2277  0.8069  3.3955
  691MOL0     H95309   0.818   3.268   2.424  0.6299 -1.4275  0.6117
  691MOL0     H95310   0.649   3.238   2.576 -0.9701 -2.9068  1.8057
  691MOL0     H95311   0.788   3.162   2.650 -0.0285  0.4620  2.7207
  691MOL0     H95312   0.818   3.367   2.788  1.1846  0.9640 -2.3549
  691MOL0     H95313   0.677   3.452   2.717 -1.4289  0.4398  3.2105
  691MOL0     H95314   0.634   3.176   2.845 -0.4607 -0.1512 -4.7525
  691MOL0     H95315   0.615   3.316   2.943  1.2035  0.7377 -0.3239
  691MOL0     H95316   0.233   3.339   2.713 -1.2028  0.7455 -1.9932
  691MOL0     H95317  -0.017   3.246   2.671  2.0916  0.8239  0.9000
  691MOL0     H95318  -0.028   3.103   2.570  0.2759  0.3896  0.3032
  691MOL0     H95319   0.059   3.243   2.514  2.8591 -2.2805 -0.5697
  691MOL0     H95320   0.254   2.568   2.725  0.2843 -0.0665  0.6596
  691MOL0     H95321   0.295   2.537   2.967  2.6256  0.7392  1.1793
  691MOL0     H95322   0.194   2.872   3.238  3.2714 -1.0076  0.3235
  691MOL0     H95323   0.071   2.757   3.285  0.1535  0.0472 -1.4490
  691MOL0     H95324   0.290   2.646   3.411  3.3757  1.3152  1.0532
  691MOL0     H95325   0.338   2.812   3.406 -0.4251  0.5093  3.5879
  691MOL0     H95326   0.088   2.704   3.539 -1.4205  0.9106  1.1140
  691MOL0     H95327   0.105   2.869   3.505 -2.6693 -2.2354  2.7332
  691MOL0     H95328   0.357   2.840   3.613 -0.2070  0.5481 -1.8208
  691MOL0     H95329   0.307   2.688   3.666 -0.1199  0.4444 -0.5976
  691MOL0     H95330   0.300   2.906   3.810  0.7246 -2.6043  1.0147
  691MOL0     H95331   0.147   2.951   3.729 -0.5589  0.2091  2.8849
  691MOL0     H95332   0.209   2.684   3.875 -0.4124  0.1719  0.4970
  691MOL0     H95333   0.043   2.755   3.834 -1.4157  2.7672  2.2475
  691MOL0     H95334   0.098   2.948   3.998 -3.2339 -1.4182  2.0129
  691MOL0     H95335   0.247   2.863   4.026  1.0600 -1.6496 -0.2265
  691MOL0     H95336   0.109   2.797   4.214 -1.2011 -2.7825  1.7021
  691MOL0     H95337   0.110   2.655   4.104 -0.5956 -0.4564 -2.8220
  691MOL0     H95338   0.092   2.904   3.059 -3.3176 -2.0959  1.1366
  691MOL0     H95339   0.042   2.933   2.840  1.1526 -0.0614 -0.1672
  691MOL0     H95340   0.395   2.863   2.650  1.1235 -1.5776  4.5509
  691MOL0     H95341   0.540   3.045   2.749  0.0210  2.4670  1.1674
  691MOL0     H95342   0.544   4.196   1.537 -0.5514  1.7504 -1.1162
  691MOL0     H95343   0.437   4.357   1.394 -0.0985 -0.6945 -1.7253
  691MOL0     H95344  -0.105   4.613   1.350  0.7767 -1.3128  0.3947
  691MOL0     H95345  -0.165   4.800   1.182  0.0845 -0.4121  0.0963
  691MOL0     H95346  -0.040   4.899   0.842 -0.5841 -0.6502 -1.5830
  691MOL0     H95347  -0.150   4.839   0.970  1.3613 -0.0892  1.5042
  691MOL0     H95348  -0.212   5.074   1.015 -1.8313  0.0246 -0.2470
  691MOL0     H95349  -0.237   5.018   0.848 -0.3972  1.6689  1.2346
  691MOL0     H95350  -0.022   5.182   0.958 -0.3474 -0.0228 -0.8996
  691MOL0     H95351  -0.033   5.132   0.785  1.1571  1.7783 -1.1905
  691MOL0     H95352  -0.214   5.301   0.961  1.5206 -0.1076  0.8917
  691MOL0     H95353  -0.243   5.261   0.787  1.4234 -2.0130 -1.3221
  691MOL0     H95354   0.045   5.597   0.823 -0.1385  1.5544  2.8675
  691MOL0     H95355   0.252   4.850   1.096 -0.1534 -0.9458 -1.2294
  691MOL0     H95356   0.373   4.642   1.339  0.7709  1.4455 -0.3693
  691MOL0     H95357   0.378   4.556   1.182  2.4832 -0.0189  1.0956
  691MOL0     H95358   0.415   4.727   1.193  0.3242 -1.8788 -0.7910
  692MOL0     O95359   4.368   3.559   5.993  0.4871  0.0539  0.1411
  692MOL0     C95360   4.261   3.602   6.037  0.4624 -0.4310  0.5767
  692MOL0     O95361   4.247   3.641   6.163  0.4156  0.1258  0.4348
  692MOL0     C95362   4.361   3.624   6.243 -0.1484  0.7561 -0.1461
  692MOL0     C95363   4.454   3.713   6.254  0.2967 -0.0407  0.4856
  692MOL0     C95364   4.577   3.687   6.319  0.1490 -0.2886 -0.2672
  692MOL0     C95365   4.581   3.576   6.408 -0.0244 -0.5643  0.2552
  692MOL0     O95366   4.680   3.570   6.503 -0.0380 -0.1869 -0.0730
  692MOL0     C95367   4.729   3.448   6.549 -0.9593 -0.5793  0.8356
  692MOL0     C95368   4.838   3.478   6.648  0.6557  0.3235 -0.6773
  692MOL0     C95369   4.891   3.344   6.698 -0.3559 -0.1397  0.2345
  692MOL0     C95370   5.028   3.312   6.642  1.2194  0.2161 -0.3421
  692MOL0     C95371   5.083   3.185   6.705  0.5455  0.5664  0.1103
  692MOL0     C95372   5.231   3.187   6.684  0.1033  0.0521  0.1258
  692MOL0     C95373   5.284   3.050   6.739 -0.1594  0.7274  0.4723
  692MOL0     C95374   5.439   3.040   6.738  0.7689  0.2742 -0.1409
  692MOL0     N95375   5.499   3.160   6.786  0.2058  0.3146  0.1931
  692MOL0     C95376   5.549   3.258   6.702 -0.7587 -0.4729  0.6096
  692MOL0     C95377   5.613   3.346   6.784 -0.0056 -0.1512 -0.0539
  692MOL0     C95378   5.692   3.460   6.723  0.4889  0.2062 -0.1250
  692MOL0     C95379   5.843   3.428   6.711 -0.1714  0.0942  0.1748
  692MOL0     C95380   5.862   3.319   6.607  0.0747 -0.4870 -0.1513
  692MOL0     C95381   5.873   3.175   6.676 -0.7648 -0.4234 -0.3143
  692MOL0     O95382   5.977   3.163   6.783  0.3315 -0.5259  0.1764
  692MOL0     C95383   6.113   3.170   6.736  0.5906 -0.2267  0.2995
  692MOL0     C95384   6.156   3.164   6.601 -0.4196 -0.0716  0.2919
  692MOL0     C95385   6.293   3.172   6.568 -0.1068 -0.0186  0.4086
  692MOL0     C95386   6.313   3.171   6.415 -0.5790 -0.9568 -0.5289
  692MOL0     C95387   6.388   3.197   6.661 -0.4054 -0.2907 -0.3806
  692MOL0     C95388   6.530   3.232   6.636 -1.2332  0.4435  0.5483
  692MOL0     O95389   6.616   3.265   6.736  0.6666  0.2385  0.2188
  692MOL0     C95390   6.742   3.303   6.700  0.0172  0.1937  0.8998
  692MOL0     C95391   6.845   3.224   6.746 -0.9113  0.4473 -0.6546
  692MOL0     C95392   6.981   3.262   6.716  0.0165  0.9975 -0.3692
  692MOL0     C95393   7.016   3.364   6.632  0.2873  0.3397  0.4597
  692MOL0     O95394   7.155   3.384   6.617  0.0083  0.1538 -0.1079
  692MOL0     C95395   7.199   3.422   6.485 -0.0542  0.7518 -0.6198
  692MOL0     C95396   7.344   3.391   6.476 -0.1146 -0.0104  0.0816
  692MOL0     C95397   7.440   3.471   6.568  0.1929  0.5766 -0.1783
  692MOL0     C95398   7.417   3.622   6.558 -0.1413 -1.3850 -0.3478
  692MOL0     C95399   7.499   3.704   6.656  0.5342  0.2438  0.1861
  692MOL0     C95400   7.649   3.712   6.637 -0.4959 -0.0015 -0.0030
  692MOL0     C95401   7.722   3.826   6.712  0.5786  0.1856 -0.0532
  692MOL0     C95402   7.742   3.804   6.859 -0.4124 -0.1235  0.5905
  692MOL0    Cl95403   7.859   3.661   6.872 -0.3272 -0.5377 -0.4770
  692MOL0     C95404   6.911   3.443   6.586  0.3964  0.3726 -0.5498
  692MOL0     C95405   6.770   3.416   6.627 -0.2989  0.2685  0.0415
  692MOL0     O95406   6.569   3.238   6.519 -0.3867 -0.4810 -0.6564
  692MOL0     C95407   6.347   3.198   6.799  0.3390 -0.0002 -0.2987
  692MOL0     C95408   6.216   3.181   6.834  0.2028 -0.0728  0.5140
  692MOL0     N95409   5.624   3.283   6.909 -0.7805  0.3783  0.0539
  692MOL0     N95410   5.547   3.177   6.907 -0.3049 -0.3802 -1.0735
  692MOL0     C95411   4.468   3.494   6.420 -0.0335  0.1114 -0.4902
  692MOL0     C95412   4.361   3.512   6.326 -0.2022 -0.4671  0.4334
  692MOL0     C95413   4.144   3.601   5.947  0.2301 -0.2979 -0.0441
  692MOL0     C95414   4.161   3.537   5.817  0.0921  0.3596  0.0205
  692MOL0     C95415   4.052   3.517   5.730  0.2168 -0.6496  0.2080
  692MOL0     C95416   3.929   3.572   5.761  0.0499  0.0931  0.0700
  692MOL0     O95417   3.822   3.555   5.680  0.1063  1.0268  0.1054
  692MOL0     C95418   3.690   3.575   5.724  0.3869 -0.3011 -0.8885
  692MOL0     C95419   3.594   3.523   5.619 -0.2703 -0.0015 -0.1814
  692MOL0     C95420   3.527   3.389   5.651 -0.0519  0.0890  0.0628
  692MOL0     C95421   3.456   3.324   5.543  0.0626 -0.3485  0.0757
  692MOL0     C95422   3.364   3.223   5.591 -0.0427  0.1362 -0.9064
  692MOL0     C95423   3.304   3.116   5.609 -0.9003 -0.5754  0.7723
  692MOL0     C95424   3.923   3.653   5.874 -0.4632 -0.7018  0.1464
  692MOL0     C95425   4.024   3.668   5.972  0.6400  0.4174  0.5271
  692MOL0     C95426   3.983   3.726   6.106  0.8244  0.7827  0.2227
  692MOL0     H95427   4.451   3.800   6.190 -1.9253  1.4583  2.4473
  692MOL0     H95428   4.662   3.754   6.305 -0.9331  1.0928 -0.4770
  692MOL0     H95429   4.767   3.394   6.462  0.6030  2.1445 -0.2991
  692MOL0     H95430   4.655   3.382   6.596  0.0021 -1.0645  1.7245
  692MOL0     H95431   4.917   3.541   6.605  0.9778  2.1746  2.2974
  692MOL0     H95432   4.801   3.538   6.732 -0.1399 -1.5064  0.3525
  692MOL0     H95433   4.893   3.358   6.807 -2.3919 -1.4381  0.4859
  692MOL0     H95434   4.821   3.260   6.694 -0.6708  0.1755 -1.3889
  692MOL0     H95435   5.034   3.284   6.536  3.0681  0.6007 -0.3612
  692MOL0     H95436   5.090   3.401   6.655  2.3118 -0.6916  0.8335
  692MOL0     H95437   5.035   3.099   6.658  0.0764  0.4027  0.8709
  692MOL0     H95438   5.064   3.175   6.812 -3.2336  2.1986 -0.2463
  692MOL0     H95439   5.262   3.199   6.580  2.2522 -3.2773  0.2377
  692MOL0     H95440   5.273   3.267   6.746 -0.7396 -1.2529  2.4994
  692MOL0     H95441   5.252   2.963   6.682  0.4660  0.9312 -0.2142
  692MOL0     H95442   5.234   3.033   6.835 -2.2507  1.8498 -0.3643
  692MOL0     H95443   5.467   2.957   6.804  0.1203  0.5336  0.4646
  692MOL0     H95444   5.478   3.012   6.639  1.0948 -0.7465  0.2571
  692MOL0     H95445   5.546   3.268   6.594  0.7370 -0.0155  0.5853
  692MOL0     H95446   5.678   3.551   6.781 -3.6299  0.7592 -1.6413
  692MOL0     H95447   5.656   3.480   6.621 -0.9279 -1.7828 -0.0817
  692MOL0     H95448   5.892   3.516   6.670 -1.4860  0.8339  0.1399
  692MOL0     H95449   5.888   3.410   6.810 -0.4933  3.4352  1.0363
  692MOL0     H95450   5.776   3.325   6.539 -2.3220 -0.6135  2.6494
  692MOL0     H95451   5.952   3.352   6.555  0.0653  0.4669  0.3933
  692MOL0     H95452   5.781   3.161   6.734 -1.0567  3.4985  0.4646
  692MOL0     H95453   5.878   3.097   6.600 -0.5981  0.2976 -1.0572
  692MOL0     H95454   6.080   3.147   6.526 -0.3718  1.5578 -0.1688
  692MOL0     H95455   6.365   3.263   6.385  1.4846 -1.6564  0.6702
  692MOL0     H95456   6.222   3.161   6.356 -0.0806  2.7838 -2.2039
  692MOL0     H95457   6.362   3.078   6.384  1.4320 -0.3642  0.6552
  692MOL0     H95458   6.821   3.134   6.802  3.2492 -1.0702 -0.9504
  692MOL0     H95459   7.059   3.201   6.760 -1.3819 -0.0857  0.7147
  692MOL0     H95460   7.147   3.368   6.405  1.9795 -2.1581 -0.1289
  692MOL0     H95461   7.170   3.525   6.461 -1.3377  0.9742  1.6270
  692MOL0     H95462   7.360   3.283   6.481  0.1875  0.0766  1.3178
  692MOL0     H95463   7.374   3.421   6.375 -1.2436 -0.0755 -0.2848
  692MOL0     H95464   7.543   3.449   6.538 -0.1265 -0.9871 -0.1760
  692MOL0     H95465   7.443   3.435   6.671  2.6634 -1.0854 -0.7490
  692MOL0     H95466   7.320   3.655   6.596  0.9600 -1.1744  2.4730
  692MOL0     H95467   7.423   3.661   6.456  3.7308  1.2490  0.6740
  692MOL0     H95468   7.460   3.806   6.648 -1.7049 -0.4156  1.7909
  692MOL0     H95469   7.486   3.672   6.760 -1.1735  1.1085  0.2648
  692MOL0     H95470   7.666   3.726   6.530 -2.2941 -0.2685 -0.3663
  692MOL0     H95471   7.700   3.618   6.660  3.5834  2.0138  0.0292
  692MOL0     H95472   7.662   3.917   6.705 -0.8757 -0.5293  1.9933
  692MOL0     H95473   7.819   3.836   6.662  0.3707  0.1569 -0.4683
  692MOL0     H95474   7.643   3.774   6.896 -1.3270 -0.2704 -1.7817
  692MOL0     H95475   7.772   3.891   6.918 -0.0190 -1.4619  2.4184
  692MOL0     H95476   6.945   3.526   6.524 -0.5322 -0.5348 -2.3584
  692MOL0     H95477   6.686   3.476   6.593 -0.6955 -1.5072 -2.3919
  692MOL0     H95478   6.412   3.218   6.884 -0.6991 -2.6101  1.2150
  692MOL0     H95479   6.174   3.178   6.934 -2.8255  1.8454 -0.5493
  692MOL0     H95480   4.468   3.426   6.505  1.4813 -2.0354 -2.0796
  692MOL0     H95481   4.273   3.449   6.326  0.1395 -0.9534  0.6271
  692MOL0     H95482   4.254   3.491   5.786 -1.1161 -0.1608 -3.2457
  692MOL0     H95483   4.062   3.461   5.638  0.7006 -3.1965  1.7086
  692MOL0     H95484   3.685   3.534   5.825  2.1294 -2.8618 -1.7291
  692MOL0     H95485   3.661   3.676   5.756  1.5771 -0.1197 -0.3283
  692MOL0     H95486   3.635   3.526   5.518 -0.3695  3.2995 -0.2358
  692MOL0     H95487   3.521   3.605   5.618 -0.1071  0.1391 -0.8831
  692MOL0     H95488   3.611   3.324   5.675  0.8242 -0.3756 -3.6175
  692MOL0     H95489   3.459   3.404   5.736  0.6811  0.7287  0.5500
  692MOL0     H95490   3.523   3.276   5.471 -0.0885  1.1210 -1.0980
  692MOL0     H95491   3.395   3.392   5.483 -1.0861 -1.0098  0.4786
  692MOL0     H95492   3.241   3.030   5.623  0.7175 -1.7549  1.1577
  692MOL0     H95493   3.840   3.721   5.888 -0.5592 -0.9035  0.5934
  692MOL0     H95494   3.877   3.753   6.109  0.2993 -0.6894 -2.3268
  692MOL0     H95495   3.993   3.644   6.177  0.5266 -0.4812 -1.1432
  692MOL0     H95496   4.046   3.810   6.137  1.7274  0.1396  0.1549
  693MOL0     O95497   2.685   4.263   8.174 -0.2265 -0.7734  0.1033
  693MOL0     C95498   2.728   4.168   8.110  0.4108  0.5581  0.0846
  693MOL0     O95499   2.857   4.137   8.082 -0.1529  0.1155  1.2509
  693MOL0     C95500   2.967   4.177   8.157 -0.0329  0.3334  0.4585
  693MOL0     C95501   3.097   4.151   8.106 -0.3317 -0.6157 -0.0972
  693MOL0     C95502   3.214   4.165   8.186 -0.1860  0.0435 -0.3569
  693MOL0     C95503   3.211   4.205   8.315 -0.6206 -0.5511 -0.8180
  693MOL0     O95504   3.322   4.228   8.392 -0.5247  0.5849  0.0602
  693MOL0     C95505   3.458   4.209   8.334 -0.0497 -0.2656 -0.6833
  693MOL0     C95506   3.549   4.274   8.448  0.1605  0.2740  0.9505
  693MOL0     C95507   3.521   4.426   8.457 -0.8487  0.3135  0.1477
  693MOL0     C95508   3.600   4.490   8.572  0.6587 -0.3313  0.7312
  693MOL0     C95509   3.538   4.634   8.605 -0.3384  0.2100 -0.1720
  693MOL0     C95510   3.639   4.752   8.590  0.2339  0.7249  0.1090
  693MOL0     C95511   3.596   4.890   8.624  0.2014 -0.0875 -0.1037
  693MOL0     C95512   3.693   5.005   8.602 -0.6275  0.0582  0.3468
  693MOL0     N95513   3.817   5.006   8.684  0.1632  0.4441 -0.7287
  693MOL0     C95514   3.852   5.081   8.797 -0.8906  0.0045  0.0290
  693MOL0     C95515   3.985   5.053   8.825  0.3840  0.1452  1.1711
  693MOL0     C95516   4.070   5.117   8.931 -0.9582  0.7491  0.4342
  693MOL0     C95517   4.217   5.112   8.891  0.1893  0.4956 -0.1841
  693MOL0     C95518   4.304   5.195   8.988 -0.1313 -0.1158 -0.0708
  693MOL0     C95519   4.449   5.185   8.981 -0.4399 -0.0883 -1.0029
  693MOL0     O95520   4.514   5.306   8.948 -0.0529 -0.5555  0.4438
  693MOL0     C95521   4.616   5.304   8.849  1.1344 -0.6084 -0.2020
  693MOL0     C95522   4.690   5.419   8.867  0.9591 -0.0623  0.2159
  693MOL0     C95523   4.814   5.431   8.808  0.2217 -0.0237 -0.1836
  693MOL0     C95524   4.897   5.540   8.858 -0.1846  0.3817  0.3334
  693MOL0     C95525   4.856   5.330   8.706 -0.1112  0.3865 -0.3755
  693MOL0     C95526   4.996   5.327   8.638  0.1770  0.3396  0.0184
  693MOL0     O95527   5.007   5.249   8.525 -0.0988 -0.2872  0.1342
  693MOL0     C95528   5.134   5.246   8.472 -1.7708  0.6111 -0.0465
  693MOL0     C95529   5.259   5.212   8.546 -0.5567  0.3507 -0.0892
  693MOL0     C95530   5.382   5.205   8.485  0.8250 -0.8651 -0.5667
  693MOL0     C95531   5.381   5.237   8.347 -0.2738 -0.3799 -0.1995
  693MOL0     O95532   5.488   5.243   8.266 -0.3684 -0.0937 -0.4506
  693MOL0     C95533   5.615   5.199   8.315 -0.1379 -0.8690 -0.3130
  693MOL0     C95534   5.703   5.169   8.192  0.1745 -0.2056 -0.4946
  693MOL0     C95535   5.836   5.240   8.199  0.3776  0.7746 -0.0552
  693MOL0     C95536   5.936   5.192   8.090  0.0716 -1.2500 -0.0242
  693MOL0     C95537   6.059   5.287   8.073 -0.2533 -0.2368  0.0587
  693MOL0     C95538   6.166   5.234   7.969  0.3895 -0.3872 -0.5867
  693MOL0     C95539   6.255   5.352   7.921 -0.6156 -0.4488  0.7441
  693MOL0     C95540   6.328   5.417   8.038  0.0775  1.5104  0.2233
  693MOL0    Cl95541   6.461   5.522   7.982 -0.0629  0.2676  0.5154
  693MOL0     C95542   5.264   5.267   8.277 -0.6984 -0.2311  0.7435
  693MOL0     C95543   5.145   5.275   8.340  0.3388  0.0452 -0.4882
  693MOL0     O95544   5.080   5.406   8.682 -0.8001 -0.0392  0.0083
  693MOL0     C95545   4.776   5.221   8.691  0.6723 -0.1560 -0.6626
  693MOL0     C95546   4.654   5.204   8.762  1.6253  0.0538  0.1596
  693MOL0     N95547   4.023   4.971   8.728  0.3207  0.6927 -0.0977
  693MOL0     N95548   3.929   4.938   8.644  0.5251 -0.0285  0.0095
  693MOL0     C95549   3.083   4.225   8.366  0.5798  0.1614 -0.0379
  693MOL0     C95550   2.965   4.212   8.294  0.2559 -0.2609  0.0483
  693MOL0     C95551   2.636   4.063   8.084 -0.0316 -0.3704  0.2379
  693MOL0     C95552   2.683   3.937   8.060  0.1859  0.1128 -0.3375
  693MOL0     C95553   2.596   3.835   8.034  0.5185 -0.0899  0.0596
  693MOL0     C95554   2.454   3.846   8.050 -0.6114  0.4118  0.2921
  693MOL0     O95555   2.379   3.729   8.042  1.1479 -0.7326 -0.2593
  693MOL0     C95556   2.239   3.744   8.064  0.6059  0.3405  0.0945
  693MOL0     C95557   2.167   3.611   8.099 -0.1811 -0.2243 -0.0192
  693MOL0     C95558   2.224   3.537   8.222  0.0193 -0.6038  0.8724
  693MOL0     C95559   2.136   3.424   8.287 -0.8774  0.0930 -0.0072
  693MOL0     C95560   2.174   3.372   8.424 -0.8662  0.2088  0.3320
  693MOL0     C95561   2.184   3.300   8.522 -0.1949 -0.4451  0.5153
  693MOL0     C95562   2.413   3.982   8.059  0.4396  0.3441 -0.5694
  693MOL0     C95563   2.500   4.089   8.077 -0.4236 -0.0450 -0.3309
  693MOL0     C95564   2.437   4.221   8.082  0.7986 -0.0252  1.0266
  693MOL0     H95565   3.101   4.126   8.000  0.0143 -0.9917  0.0063
  693MOL0     H95566   3.310   4.149   8.138 -0.3899  0.1775 -0.8140
  693MOL0     H95567   3.471   4.258   8.237 -0.9791  0.5546 -0.4144
  693MOL0     H95568   3.467   4.100   8.325 -2.2668 -0.6294  0.7075
  693MOL0     H95569   3.526   4.233   8.547 -2.7965 -1.6232 -0.3923
  693MOL0     H95570   3.656   4.258   8.427  0.1684  2.0140 -0.5788
  693MOL0     H95571   3.556   4.465   8.361 -1.2260  0.8755  0.2319
  693MOL0     H95572   3.413   4.442   8.466 -1.1768 -2.5411  3.1554
  693MOL0     H95573   3.596   4.418   8.655  2.3040 -1.9085 -0.4707
  693MOL0     H95574   3.701   4.500   8.530 -0.2246 -0.1448 -1.4812
  693MOL0     H95575   3.501   4.629   8.708  0.9849  0.9678  0.3738
  693MOL0     H95576   3.448   4.652   8.547 -1.0082  1.4328  1.1687
  693MOL0     H95577   3.715   4.725   8.664 -0.6274  0.4778  0.9240
  693MOL0     H95578   3.690   4.753   8.493  0.3119  0.6250  0.1491
  693MOL0     H95579   3.559   4.887   8.727 -1.5847  0.9694 -0.6652
  693MOL0     H95580   3.512   4.907   8.555 -1.1895  0.3459  1.6115
  693MOL0     H95581   3.728   4.984   8.500 -0.4212  0.0412  0.4213
  693MOL0     H95582   3.654   5.107   8.613  1.1906  0.5802  2.7579
  693MOL0     H95583   3.802   5.153   8.862  0.8098  1.9367 -0.7017
  693MOL0     H95584   4.058   5.054   9.019 -1.1791 -0.1240 -0.2124
  693MOL0     H95585   4.037   5.221   8.937 -0.5242  0.8361  1.4520
  693MOL0     H95586   4.254   5.010   8.879  0.9129  0.6746  0.4557
  693MOL0     H95587   4.224   5.164   8.795 -0.2317  4.0628  1.5304
  693MOL0     H95588   4.282   5.302   8.985  3.0678  0.6611  0.3598
  693MOL0     H95589   4.274   5.162   9.088  1.8799 -6.2600 -1.0691
  693MOL0     H95590   4.485   5.145   9.076 -1.6254  0.8358 -0.1356
  693MOL0     H95591   4.458   5.105   8.907  0.4557 -1.5940  0.6561
  693MOL0     H95592   4.655   5.493   8.940  1.2160  2.6283 -2.2011
  693MOL0     H95593   4.956   5.597   8.785 -0.4128  1.8614  1.2445
  693MOL0     H95594   4.964   5.490   8.929  0.3508  0.7542  0.0957
  693MOL0     H95595   4.833   5.615   8.905  1.9719  2.4169  0.2318
  693MOL0     H95596   5.256   5.192   8.653 -2.1034 -1.7467 -0.4517
  693MOL0     H95597   5.470   5.180   8.544  0.5305  1.2812  0.9088
  693MOL0     H95598   5.649   5.283   8.376 -1.6551  0.5103 -1.3210
  693MOL0     H95599   5.612   5.109   8.378 -0.9924 -1.1320 -0.7241
  693MOL0     H95600   5.726   5.062   8.196  0.3789 -0.1867 -1.2049
  693MOL0     H95601   5.648   5.213   8.109 -0.9654 -0.2660  0.2014
  693MOL0     H95602   5.890   5.222   8.292  0.0552 -3.1677 -0.4705
  693MOL0     H95603   5.815   5.346   8.184  0.3270  0.9932  1.4916
  693MOL0     H95604   5.890   5.178   7.992  2.1543 -0.8362 -1.1105
  693MOL0     H95605   5.967   5.089   8.112  0.2540 -1.1466  0.2079
  693MOL0     H95606   6.033   5.389   8.043  3.3939  0.2994 -1.8855
  693MOL0     H95607   6.109   5.299   8.170 -2.1074  1.1169  0.9101
  693MOL0     H95608   6.112   5.205   7.879 -0.1976  2.3845 -1.2163
  693MOL0     H95609   6.224   5.147   8.001 -1.2236 -1.0476  0.7137
  693MOL0     H95610   6.192   5.427   7.872  0.4004 -1.6759 -2.6961
  693MOL0     H95611   6.331   5.328   7.846 -0.9133  0.0378  0.2788
  693MOL0     H95612   6.374   5.339   8.098 -0.3582  1.9199  1.1123
  693MOL0     H95613   6.246   5.471   8.087 -2.0994 -1.1915 -0.1528
  693MOL0     H95614   5.282   5.283   8.171 -1.3659  0.7820  0.7732
  693MOL0     H95615   5.061   5.292   8.274  1.1214  0.1563 -1.4851
  693MOL0     H95616   4.804   5.142   8.622  3.9244  0.3759 -0.1296
  693MOL0     H95617   4.599   5.114   8.737 -0.5265  0.7129  2.1136
  693MOL0     H95618   3.076   4.254   8.470  2.2512  2.7645 -0.5696
  693MOL0     H95619   2.868   4.228   8.341 -0.2250 -1.2233 -0.5975
  693MOL0     H95620   2.788   3.908   8.065  0.1803 -0.1236 -1.3245
  693MOL0     H95621   2.640   3.739   8.007  1.5828  0.6366 -0.8760
  693MOL0     H95622   2.211   3.809   8.147  0.3323  0.6992 -0.2792
  693MOL0     H95623   2.200   3.785   7.971  0.9415 -0.0082 -0.2037
  693MOL0     H95624   2.172   3.548   8.010 -0.0668  0.6775 -0.6693
  693MOL0     H95625   2.062   3.636   8.117 -0.0257  1.3618 -1.0995
  693MOL0     H95626   2.323   3.506   8.188 -0.1095  2.1614 -2.6856
  693MOL0     H95627   2.249   3.609   8.301  0.7226  1.2762 -0.9755
  693MOL0     H95628   2.142   3.338   8.220  2.9793 -0.5362  0.8664
  693MOL0     H95629   2.030   3.449   8.297 -0.9959  0.6751 -2.2680
  693MOL0     H95630   2.199   3.227   8.599  0.2959 -0.1033  0.7470
  693MOL0     H95631   2.306   4.003   8.063  0.7052  2.1065 -1.6275
  693MOL0     H95632   2.487   4.293   8.016 -0.3647  0.2120  0.3689
  693MOL0     H95633   2.330   4.225   8.060  0.8758  1.2039  0.7895
  693MOL0     H95634   2.453   4.261   8.182  1.9172 -0.0780  0.8841
  694MOL0     O95635   9.516   7.674   6.154  0.0165 -0.1023 -0.5060
  694MOL0     C95636   9.443   7.746   6.081 -0.1891  0.2221 -0.1286
  694MOL0     O95637   9.485   7.833   5.984  0.9431 -0.5481  0.3411
  694MOL0     C95638   9.619   7.864   5.973 -0.3668  0.5033 -0.1103
  694MOL0     C95639   9.721   7.763   5.969 -0.4412 -0.2341  0.4580
  694MOL0     C95640   9.857   7.805   5.959 -0.5358 -1.3893  0.5414
  694MOL0     C95641   9.892   7.938   5.952 -0.7232  0.4715  0.5584
  694MOL0     O95642  10.023   7.990   5.946 -0.0849  0.0871 -0.5679
  694MOL0     C95643  10.130   7.912   5.897 -0.5870  0.8923 -0.2968
  694MOL0     C95644  10.167   7.980   5.761  0.7984 -0.6398  1.2930
  694MOL0     C95645  10.051   8.005   5.658  0.2482 -0.7824 -0.0511
  694MOL0     C95646   9.993   7.867   5.612 -0.6657  0.0885 -0.1540
  694MOL0     C95647   9.896   7.884   5.501 -0.2897  0.5493 -0.0039
  694MOL0     C95648   9.971   7.924   5.367  1.4263  0.0053  0.5291
  694MOL0     C95649   9.899   7.889   5.235 -0.7572  0.2838 -0.1526
  694MOL0     C95650   9.971   7.949   5.106  0.0774  0.3953  0.4109
  694MOL0     N95651  10.095   7.875   5.074 -0.2063 -0.8380 -0.2564
  694MOL0     C95652  10.108   7.764   4.996  0.2128 -0.2477 -0.1431
  694MOL0     C95653  10.232   7.758   4.964  0.6849  0.3350 -0.2020
  694MOL0     C95654  10.291   7.645   4.884  1.1307  0.1934  0.4148
  694MOL0     C95655  10.405   7.576   4.968  0.4217  0.4512 -0.0392
  694MOL0     C95656  10.357   7.498   5.091 -0.0619 -0.0311  0.4325
  694MOL0     C95657  10.475   7.425   5.159  0.1317 -0.1507  0.6819
  694MOL0     O95658  10.511   7.309   5.070  0.1788 -0.1467  0.7114
  694MOL0     C95659  10.621   7.234   5.104 -0.7571 -0.1212 -0.9235
  694MOL0     C95660  10.688   7.246   5.233 -0.3902 -0.0978 -0.5093
  694MOL0     C95661  10.789   7.159   5.272  0.1405 -0.3423 -0.4930
  694MOL0     C95662  10.852   7.182   5.411  0.3498  0.4893  0.3284
  694MOL0     C95663  10.816   7.050   5.184  0.1525  0.3658 -0.7391
  694MOL0     C95664  10.929   6.950   5.210 -0.3899 -0.0509 -0.4590
  694MOL0     O95665  10.990   6.895   5.098  0.3203  0.4355 -0.2801
  694MOL0     C95666  11.100   6.811   5.113 -0.1150  0.1745  1.1044
  694MOL0     C95667  11.210   6.840   5.194  0.0458  0.0001  0.1306
  694MOL0     C95668  11.307   6.742   5.214  0.5627 -0.5224 -0.0530
  694MOL0     C95669  11.303   6.619   5.154 -0.1468  0.6709  0.8545
  694MOL0     O95670  11.412   6.535   5.166 -0.3891  0.1516 -0.4949
  694MOL0     C95671  11.432   6.441   5.049 -0.8318  0.2363  0.5812
  694MOL0     C95672  11.570   6.410   5.025  0.2854  0.9997  0.1748
  694MOL0     C95673  11.625   6.284   5.091 -1.0523  0.4264 -0.0169
  694MOL0     C95674  11.778   6.287   5.109  0.2757 -0.2305  0.2893
  694MOL0     C95675  11.835   6.185   5.202 -1.5206 -0.0563  0.7928
  694MOL0     C95676  11.815   6.246   5.344 -0.4010  0.5466  0.8403
  694MOL0     C95677  11.855   6.144   5.448  0.5776 -0.7848 -0.0924
  694MOL0     C95678  11.816   6.204   5.588 -0.5996 -0.0121  0.3510
  694MOL0    Cl95679  11.868   6.080   5.698  0.0161 -0.4805  0.2262
  694MOL0     C95680  11.190   6.589   5.074  0.6841 -0.0831  0.1025
  694MOL0     C95681  11.093   6.688   5.053  1.0219  0.5664  0.5987
  694MOL0     O95682  10.958   6.923   5.325 -0.0527 -0.0924  0.0835
  694MOL0     C95683  10.749   7.024   5.063 -0.7497 -1.5621 -0.3295
  694MOL0     C95684  10.650   7.123   5.022 -0.3043  0.4487 -0.3439
  694MOL0     N95685  10.304   7.858   5.031  0.3747  0.4262  0.1062
  694MOL0     N95686  10.221   7.917   5.103  0.2453 -0.8397 -0.3442
  694MOL0     C95687   9.788   8.033   5.952 -0.6318 -0.0632 -0.2685
  694MOL0     C95688   9.656   8.003   5.966  0.2862 -0.2623 -0.1112
  694MOL0     C95689   9.298   7.720   6.089  0.3539  0.1838 -0.3288
  694MOL0     C95690   9.216   7.832   6.121  0.2071  0.3968 -0.5880
  694MOL0     C95691   9.077   7.817   6.134 -0.4807  0.2131  0.1028
  694MOL0     C95692   9.019   7.694   6.124  0.0025 -0.3957  0.6836
  694MOL0     O95693   8.888   7.698   6.159  0.2203  0.4346  1.3126
  694MOL0     C95694   8.835   7.606   6.247  0.9784  0.3989 -0.7713
  694MOL0     C95695   8.688   7.641   6.273 -0.3210  0.9112  0.1963
  694MOL0     C95696   8.695   7.770   6.358 -0.5390  0.1274  0.2393
  694MOL0     C95697   8.562   7.790   6.427 -0.0556  0.0123  0.0093
  694MOL0     C95698   8.539   7.704   6.546 -0.3133  0.2802  0.4075
  694MOL0     C95699   8.542   7.627   6.637 -0.5522  0.2059 -0.2326
  694MOL0     C95700   9.097   7.583   6.100 -0.5886 -0.2409  0.6634
  694MOL0     C95701   9.237   7.596   6.076 -0.3122 -0.0662  0.1429
  694MOL0     C95702   9.313   7.467   6.059 -0.0969 -0.4135 -0.6438
  694MOL0     H95703   9.696   7.657   5.976 -1.7453  0.1599  2.3399
  694MOL0     H95704   9.935   7.730   5.972  1.8245  0.4858 -1.7841
  694MOL0     H95705  10.103   7.807   5.881 -0.2617  0.3414  2.3471
  694MOL0     H95706  10.214   7.916   5.967 -0.3580  0.8090 -0.5684
  694MOL0     H95707  10.210   8.077   5.786  0.3092 -0.5836  1.9301
  694MOL0     H95708  10.253   7.934   5.711  1.8997  3.1082 -0.6181
  694MOL0     H95709   9.964   8.057   5.700  0.4374 -1.1725  0.8549
  694MOL0     H95710  10.083   8.065   5.572 -2.0876  0.1814 -0.3274
  694MOL0     H95711  10.075   7.808   5.569  0.0198  1.4088 -0.6966
  694MOL0     H95712   9.953   7.807   5.694 -0.2268 -0.0518 -0.0346
  694MOL0     H95713   9.806   7.944   5.518 -0.3249  0.0612  1.7376
  694MOL0     H95714   9.846   7.788   5.484 -1.6068  0.8509  1.8540
  694MOL0     H95715   9.986   8.032   5.374  1.2003 -0.0337  2.0865
  694MOL0     H95716  10.073   7.884   5.369  1.3425 -0.4511 -1.8946
  694MOL0     H95717   9.793   7.915   5.244 -0.9100 -1.0961  4.2096
  694MOL0     H95718   9.896   7.781   5.218 -3.5111  0.4026 -0.8734
  694MOL0     H95719   9.900   7.942   5.022  1.3811 -1.3257 -0.6128
  694MOL0     H95720   9.991   8.056   5.114 -0.8254  0.8156 -1.9300
  694MOL0     H95721  10.030   7.701   4.955 -1.2942 -0.3973  2.6950
  694MOL0     H95722  10.324   7.675   4.784 -0.4265  0.9860  0.1038
  694MOL0     H95723  10.202   7.587   4.856 -1.1558  2.5563  2.3103
  694MOL0     H95724  10.445   7.501   4.899  1.4457  1.3222 -0.4256
  694MOL0     H95725  10.480   7.648   5.002 -0.1212 -0.4126  3.2677
  694MOL0     H95726  10.309   7.556   5.170 -2.4173 -1.5930  0.2679
  694MOL0     H95727  10.282   7.424   5.062 -0.9489  1.7694 -2.2511
  694MOL0     H95728  10.558   7.497   5.157  1.5241 -1.6903 -2.1466
  694MOL0     H95729  10.444   7.392   5.259 -4.3904  2.9082  0.5829
  694MOL0     H95730  10.654   7.320   5.305  1.8334  2.1586 -1.5926
  694MOL0     H95731  10.959   7.159   5.412  0.0691 -0.9608  1.9729
  694MOL0     H95732  10.802   7.113   5.480 -1.5325 -1.5423 -2.8197
  694MOL0     H95733  10.838   7.286   5.440  2.5915  1.2033 -0.8799
  694MOL0     H95734  11.218   6.932   5.250 -0.0429 -0.1606  0.4096
  694MOL0     H95735  11.398   6.786   5.252  0.5346 -0.5675  0.0659
  694MOL0     H95736  11.368   6.353   5.062 -1.5199  0.7331  0.6081
  694MOL0     H95737  11.402   6.489   4.956  2.4232  2.4460  0.4899
  694MOL0     H95738  11.588   6.388   4.919 -2.4582 -2.8037  0.3009
  694MOL0     H95739  11.627   6.499   5.051  0.1380  1.6121 -1.4599
  694MOL0     H95740  11.605   6.197   5.027  1.1730  0.3982 -0.7590
  694MOL0     H95741  11.577   6.275   5.189  0.2298  1.4178  0.7434
  694MOL0     H95742  11.808   6.384   5.151  0.0508 -0.7214  1.6413
  694MOL0     H95743  11.825   6.272   5.012  1.8468 -0.4680  1.0539
  694MOL0     H95744  11.788   6.086   5.202  0.0842 -0.8843  2.4257
  694MOL0     H95745  11.940   6.167   5.175 -1.4701  0.6332  0.5084
  694MOL0     H95746  11.707   6.261   5.350 -0.8293 -1.0238 -1.6418
  694MOL0     H95747  11.877   6.331   5.374  2.8108 -1.6837  1.0968
  694MOL0     H95748  11.963   6.125   5.445  1.1802  1.6905  2.1971
  694MOL0     H95749  11.811   6.045   5.433 -1.2431  0.0455 -0.5053
  694MOL0     H95750  11.708   6.218   5.601 -1.0160 -1.9885 -0.5573
  694MOL0     H95751  11.870   6.299   5.594 -0.6052  0.0786 -0.8136
  694MOL0     H95752  11.171   6.498   5.018  0.6820  0.7283 -1.2595
  694MOL0     H95753  11.009   6.674   4.985 -0.2333  1.4272  1.8927
  694MOL0     H95754  10.785   6.941   5.004  1.1767 -0.8923 -0.1614
  694MOL0     H95755  10.596   7.109   4.928  0.7401  0.4425 -0.9583
  694MOL0     H95756   9.822   8.136   5.944 -1.6477  0.3472  0.5230
  694MOL0     H95757   9.585   8.085   5.965 -0.7897 -1.1617 -0.4716
  694MOL0     H95758   9.256   7.928   6.154 -0.3967  1.2053 -2.1033
  694MOL0     H95759   9.011   7.899   6.160  1.1446  0.5913  3.6794
  694MOL0     H95760   8.848   7.499   6.224 -3.7586 -0.2939 -1.2341
  694MOL0     H95761   8.889   7.609   6.342  0.0941  2.3939 -0.3015
  694MOL0     H95762   8.643   7.559   6.329  0.6568  1.3653  1.7233
  694MOL0     H95763   8.633   7.659   6.181 -1.8538  1.0192  1.1045
  694MOL0     H95764   8.781   7.776   6.426 -1.0261  0.5270  0.8300
  694MOL0     H95765   8.711   7.853   6.288  0.9951 -0.8175 -0.5965
  694MOL0     H95766   8.483   7.768   6.354  2.0155 -4.7534 -1.1857
  694MOL0     H95767   8.550   7.893   6.462 -2.1154 -0.9684  2.5393
  694MOL0     H95768   8.562   7.564   6.721 -0.0449  0.5323 -0.0991
  694MOL0     H95769   9.052   7.484   6.103  0.3607 -0.7850 -1.4757
  694MOL0     H95770   9.301   7.397   6.142 -2.0390 -0.0963 -0.6307
  694MOL0     H95771   9.277   7.412   5.972 -0.7363 -0.6519 -0.2363
  694MOL0     H95772   9.420   7.486   6.041  0.2105  0.8399  2.0361
  695MOL0     O95773   0.989   9.850   0.209 -0.3902  0.6449  0.3339
  695MOL0     C95774   0.960   9.917   0.303 -0.2930 -0.9752 -0.3700
  695MOL0     O95775   1.037   9.928   0.412 -0.3563  0.3752 -0.4036
  695MOL0     C95776   1.152   9.852   0.419  1.2023 -0.5323 -0.8397
  695MOL0     C95777   1.269   9.917   0.447 -0.6838 -0.8651 -0.2599
  695MOL0     C95778   1.384   9.840   0.463  0.1072  0.7932 -0.5571
  695MOL0     C95779   1.383   9.708   0.413 -0.1506 -0.3020 -0.4458
  695MOL0     O95780   1.503   9.644   0.381 -0.4356 -0.0517  0.4978
  695MOL0     C95781   1.637   9.706   0.366  0.2150  0.3577 -0.0794
  695MOL0     C95782   1.705   9.711   0.497  0.9207  0.7736 -0.1023
  695MOL0     C95783   1.850   9.762   0.480  0.6740  0.4123 -0.8616
  695MOL0     C95784   1.900   9.807   0.621 -0.6233 -0.6155  0.9363
  695MOL0     C95785   2.047   9.859   0.602  0.2235  0.1924 -0.4349
  695MOL0     C95786   2.140   9.881   0.725  0.6367  0.9500  0.3122
  695MOL0     C95787   2.261   9.966   0.698  0.4981 -0.0911 -1.3569
  695MOL0     C95788   2.339  10.018   0.827  0.0140  0.1043 -0.4004
  695MOL0     N95789   2.455  10.102   0.791  1.2036  0.7712  0.4307
  695MOL0     C95790   2.583  10.087   0.822  0.1405 -0.7066  0.2154
  695MOL0     C95791   2.641  10.186   0.745  0.0736  0.2574 -0.4732
  695MOL0     C95792   2.789  10.203   0.744  0.4014 -0.4446  0.1091
  695MOL0     C95793   2.833  10.320   0.832  0.2078  0.6509  1.0992
  695MOL0     C95794   2.986  10.314   0.868 -0.5479 -0.5889  0.3961
  695MOL0     C95795   3.082  10.335   0.751  0.6289  0.1607 -0.1165
  695MOL0     O95796   3.225  10.357   0.775  0.7955  0.1254  0.5882
  695MOL0     C95797   3.306  10.249   0.760 -0.3987  0.0442  0.6071
  695MOL0     C95798   3.434  10.279   0.703  1.0869  1.1142  0.3010
  695MOL0     C95799   3.527  10.179   0.679 -1.0929  0.4968 -0.0663
  695MOL0     C95800   3.665  10.224   0.629 -0.8158 -0.2217 -0.4532
  695MOL0     C95801   3.495  10.042   0.688 -0.5113 -0.3812 -0.5937
  695MOL0     C95802   3.586   9.930   0.653  0.6372  0.9429  0.4043
  695MOL0     O95803   3.525   9.821   0.595  0.5125  0.0456 -0.4708
  695MOL0     C95804   3.591   9.707   0.593 -0.5858 -0.6036  0.2602
  695MOL0     C95805   3.606   9.644   0.464 -0.3425  0.9087  0.5419
  695MOL0     C95806   3.659   9.511   0.459 -0.1358  0.2474 -0.1039
  695MOL0     C95807   3.722   9.460   0.573 -0.7193 -0.2112  0.7539
  695MOL0     O95808   3.784   9.337   0.576 -0.3629 -0.1702  0.5638
  695MOL0     C95809   3.773   9.240   0.467  0.6863  0.0645 -0.0755
  695MOL0     C95810   3.629   9.186   0.457  0.3068 -0.0055 -0.0801
  695MOL0     C95811   3.631   9.053   0.380  0.2314  0.8696  0.9279
  695MOL0     C95812   3.489   9.032   0.317 -0.0743 -0.0007  0.2214
  695MOL0     C95813   3.477   8.885   0.323  0.9615 -0.3722 -0.0600
  695MOL0     C95814   3.355   8.830   0.238 -0.5771 -0.4887 -0.2284
  695MOL0     C95815   3.339   8.678   0.236  1.0436 -0.5704 -0.6116
  695MOL0     C95816   3.198   8.633   0.282  0.2692 -0.7671 -0.1483
  695MOL0    Cl95817   3.185   8.627   0.466 -0.0631 -0.0251  0.3981
  695MOL0     C95818   3.732   9.529   0.692 -0.1934 -1.0397 -0.3710
  695MOL0     C95819   3.667   9.651   0.705  0.7446  0.8307  0.6770
  695MOL0     O95820   3.707   9.942   0.670 -0.4255  0.5308  0.1608
  695MOL0     C95821   3.366  10.008   0.739  1.1353  0.5818  0.2672
  695MOL0     C95822   3.275  10.112   0.784 -0.2679 -0.3914 -0.0367
  695MOL0     N95823   2.554  10.259   0.670 -0.5315  0.1826 -0.7223
  695MOL0     N95824   2.443  10.207   0.697  0.8423 -0.5503 -0.5050
  695MOL0     C95825   1.267   9.638   0.392 -0.2265  0.1646 -0.1988
  695MOL0     C95826   1.146   9.708   0.401 -0.1292 -0.5649 -0.8778
  695MOL0     C95827   0.835  10.003   0.301 -0.7729  0.2928  0.7461
  695MOL0     C95828   0.827  10.105   0.398  0.6315 -0.6253 -0.1328
  695MOL0     C95829   0.714  10.185   0.405  0.3913 -0.0412 -0.2122
  695MOL0     C95830   0.617  10.182   0.306 -0.3506  0.3960 -0.6279
  695MOL0     O95831   0.502  10.255   0.299  0.0001  0.4159 -1.2891
  695MOL0     C95832   0.471  10.357   0.395 -0.0354  0.0203  0.1558
  695MOL0     C95833   0.555  10.482   0.370  0.2674  0.4465 -0.1807
  695MOL0     C95834   0.533  10.537   0.228 -0.1071 -0.0377 -0.9524
  695MOL0     C95835   0.572  10.679   0.210 -0.6678 -0.1749  0.7546
  695MOL0     C95836   0.720  10.693   0.171 -0.2249 -0.6385 -0.1272
  695MOL0     C95837   0.841  10.692   0.149 -1.1994  0.3258 -0.7461
  695MOL0     C95838   0.620  10.082   0.213 -0.2596  0.3242  0.6289
  695MOL0     C95839   0.726   9.990   0.207  0.5799 -0.3221 -0.4459
  695MOL0     C95840   0.705   9.869   0.120 -0.0396  1.0290 -0.7411
  695MOL0     H95841   1.280  10.025   0.452 -0.4583 -0.8579 -0.8623
  695MOL0     H95842   1.477   9.874   0.507  0.1479 -1.6958  1.4917
  695MOL0     H95843   1.628   9.807   0.325 -4.7785  0.1489 -0.1303
  695MOL0     H95844   1.701   9.650   0.297  1.4434 -0.3834  1.5872
  695MOL0     H95845   1.651   9.772   0.571  2.0825  1.7524 -0.0239
  695MOL0     H95846   1.699   9.607   0.532 -1.3477  0.9897  0.2929
  695MOL0     H95847   1.920   9.692   0.434 -0.0207 -1.1686  0.3645
  695MOL0     H95848   1.843   9.847   0.413  0.6027  0.7859 -0.3849
  695MOL0     H95849   1.835   9.884   0.662  0.5290  2.6228 -2.7198
  695MOL0     H95850   1.914   9.721   0.687 -1.5228  0.6619  2.8821
  695MOL0     H95851   2.028   9.950   0.544 -1.4763  0.0570 -0.1383
  695MOL0     H95852   2.110   9.796   0.538  1.7130 -1.3514  2.3684
  695MOL0     H95853   2.077   9.914   0.808 -1.9153 -0.8970 -0.7542
  695MOL0     H95854   2.171   9.778   0.743 -2.9799 -0.1956  0.8352
  695MOL0     H95855   2.238  10.064   0.658  2.3928  1.7805  1.7184
  695MOL0     H95856   2.322   9.908   0.627  1.2442 -3.7356  1.9042
  695MOL0     H95857   2.273  10.054   0.907 -0.7944 -0.9469 -0.5634
  695MOL0     H95858   2.383   9.924   0.863 -2.2012 -1.2389 -0.9830
  695MOL0     H95859   2.630  10.016   0.890  2.7058  2.1337  1.6740
  695MOL0     H95860   2.810  10.232   0.640  3.0535  1.3034  1.0107
  695MOL0     H95861   2.851  10.114   0.756 -0.4736 -1.0579  0.2161
  695MOL0     H95862   2.806  10.412   0.778 -0.4796 -0.6741 -0.9084
  695MOL0     H95863   2.765  10.321   0.918 -2.2993  2.5965 -0.7441
  695MOL0     H95864   3.004  10.386   0.948 -0.2860 -0.1766 -0.0271
  695MOL0     H95865   3.013  10.213   0.899  1.4833 -0.6128 -1.2278
  695MOL0     H95866   3.072  10.243   0.692  1.6192 -0.2934  0.4002
  695MOL0     H95867   3.045  10.417   0.689  0.1720  1.5017  1.8401
  695MOL0     H95868   3.457  10.384   0.687  0.6250  0.9163 -2.0308
  695MOL0     H95869   3.680  10.332   0.638  2.4086 -0.6645  1.0539
  695MOL0     H95870   3.667  10.189   0.526  1.5518 -2.8971  0.3830
  695MOL0     H95871   3.754  10.181   0.677 -2.8154 -1.4778  2.3997
  695MOL0     H95872   3.555   9.696   0.383 -1.8417  0.1057  0.9259
  695MOL0     H95873   3.665   9.460   0.364  0.0467  1.8253 -0.9660
  695MOL0     H95874   3.820   9.272   0.373  1.6142 -2.6728 -0.6409
  695MOL0     H95875   3.844   9.163   0.499  4.1733  2.3983 -1.5396
  695MOL0     H95876   3.590   9.176   0.559  2.0030 -1.6485  0.4575
  695MOL0     H95877   3.556   9.250   0.407  0.3861 -0.8717 -1.3647
  695MOL0     H95878   3.654   8.969   0.446  1.6653  0.7109  0.2555
  695MOL0     H95879   3.715   9.046   0.312 -0.8843 -0.2495 -0.3865
  695MOL0     H95880   3.484   9.064   0.213  1.5295 -1.5187 -0.3608
  695MOL0     H95881   3.409   9.075   0.379 -0.8797 -0.1718 -0.6796
  695MOL0     H95882   3.569   8.851   0.276  1.0867  0.0579 -0.1348
  695MOL0     H95883   3.468   8.843   0.424 -1.5449 -1.8624 -0.8396
  695MOL0     H95884   3.371   8.863   0.135  2.3418 -2.7089 -0.6267
  695MOL0     H95885   3.267   8.886   0.271 -0.6385  0.3574 -1.7181
  695MOL0     H95886   3.402   8.637   0.315 -0.5649 -0.9464  0.5235
  695MOL0     H95887   3.360   8.633   0.138 -0.4924  1.2003 -1.8203
  695MOL0     H95888   3.184   8.531   0.243 -0.0729 -0.2754 -1.3439
  695MOL0     H95889   3.118   8.692   0.238  1.3053  0.7418 -0.0733
  695MOL0     H95890   3.780   9.484   0.779  0.9718 -1.1919 -1.0727
  695MOL0     H95891   3.682   9.709   0.796  0.5425  2.3094 -0.1927
  695MOL0     H95892   3.324   9.908   0.737 -0.2204  1.1022 -2.2124
  695MOL0     H95893   3.181  10.084   0.830  1.4331 -2.9997  2.2058
  695MOL0     H95894   1.272   9.535   0.356  1.8828 -0.0902  0.6366
  695MOL0     H95895   1.048   9.663   0.396 -0.2677 -0.4285  0.3441
  695MOL0     H95896   0.895  10.106   0.483 -0.1556  0.3032  0.5148
  695MOL0     H95897   0.704  10.241   0.497  0.8029 -0.6214  0.1969
  695MOL0     H95898   0.363  10.376   0.399  0.1692  1.3957 -0.1528
  695MOL0     H95899   0.506  10.312   0.489  2.7358  0.0200 -0.7806
  695MOL0     H95900   0.660  10.453   0.381  0.4328 -0.4872 -3.3156
  695MOL0     H95901   0.528  10.559   0.444  0.3656 -1.6691  2.1838
  695MOL0     H95902   0.578  10.466   0.159  0.5754 -2.5473  1.8673
  695MOL0     H95903   0.426  10.539   0.208 -0.0108  1.4910 -1.4449
  695MOL0     H95904   0.557  10.742   0.299 -1.1132 -1.2070  1.4321
  695MOL0     H95905   0.525  10.721   0.121 -0.5689  1.0131  1.2472
  695MOL0     H95906   0.946  10.675   0.148 -1.3986 -1.0076 -1.5084
  695MOL0     H95907   0.543  10.081   0.137 -0.0517  0.5873  0.4169
  695MOL0     H95908   0.606   9.825   0.137  1.0585 -0.7856  1.6103
  695MOL0     H95909   0.729   9.886   0.015 -0.2448  5.0865 -0.3025
  695MOL0     H95910   0.770   9.788   0.154  0.2238  1.5671  0.0735
  696MOL0     O95911   1.486   4.885   8.625  0.0516  0.4258 -0.0637
  696MOL0     C95912   1.395   4.878   8.707  0.0970 -0.1433 -0.7784
  696MOL0     O95913   1.416   4.855   8.835  0.1071  0.2288 -0.0414
  696MOL0     C95914   1.553   4.865   8.873 -0.4549  0.8549  0.2149
  696MOL0     C95915   1.607   4.987   8.920  0.0926  1.0390  0.1875
  696MOL0     C95916   1.745   5.003   8.953  0.9054 -0.0400  0.7372
  696MOL0     C95917   1.826   4.893   8.943  0.3499  0.0107  0.5293
  696MOL0     O95918   1.955   4.917   8.986  0.1117 -0.0260 -0.0482
  696MOL0     C95919   2.040   4.800   8.998 -1.0710 -0.2118  0.7458
  696MOL0     C95920   2.165   4.850   9.069 -0.2430  0.7759 -0.7828
  696MOL0     C95921   2.269   4.737   9.118 -0.3904 -0.7437 -0.7850
  696MOL0     C95922   2.366   4.692   8.999 -0.3449 -0.6454  0.4004
  696MOL0     C95923   2.458   4.576   9.033 -1.1485  1.1134  0.4428
  696MOL0     C95924   2.541   4.602   9.163 -0.0826  0.0302  0.6000
  696MOL0     C95925   2.636   4.726   9.149  0.3895  0.0610 -0.1417
  696MOL0     C95926   2.722   4.751   9.273 -0.7059  0.1148 -0.1275
  696MOL0     N95927   2.832   4.841   9.231 -1.0305  0.6264 -0.2010
  696MOL0     C95928   2.849   4.965   9.274  0.0295 -0.0384  0.7404
  696MOL0     C95929   2.959   5.023   9.211 -0.2173  0.1304  0.2500
  696MOL0     C95930   3.035   5.143   9.253  0.8668  0.6405 -0.3337
  696MOL0     C95931   3.120   5.098   9.376  0.2257 -0.2679 -0.4441
  696MOL0     C95932   3.202   5.213   9.418 -0.3416  0.4378  0.1618
  696MOL0     C95933   3.291   5.181   9.538  1.0052  0.7054  0.8965
  696MOL0     O95934   3.393   5.089   9.502  0.7887  0.2042 -1.0041
  696MOL0     C95935   3.491   5.046   9.594 -0.4456  0.4379 -0.2815
  696MOL0     C95936   3.502   5.081   9.729 -0.6902 -0.5197  0.9799
  696MOL0     C95937   3.613   5.043   9.810  0.2443  0.9100  0.3975
  696MOL0     C95938   3.603   5.082   9.953 -0.2561 -0.3048 -0.0785
  696MOL0     C95939   3.719   4.964   9.758  0.9700  0.4977  0.7787
  696MOL0     C95940   3.834   4.915   9.830 -0.4187 -0.7060  0.1235
  696MOL0     O95941   3.893   4.997   9.923 -0.1441  0.3338  0.0324
  696MOL0     C95942   4.016   4.960   9.982 -0.4232 -0.0006 -0.5106
  696MOL0     C95943   4.025   4.838  10.060 -0.6861 -0.9504 -0.7683
  696MOL0     C95944   4.158   4.796  10.109  0.4401 -0.0259 -0.5637
  696MOL0     C95945   4.262   4.874  10.064 -0.8239 -0.2077 -0.1674
  696MOL0     O95946   4.373   4.809  10.109 -0.3987  0.4391 -0.9018
  696MOL0     C95947   4.500   4.884  10.104 -0.2042 -0.2181  0.1040
  696MOL0     C95948   4.609   4.807  10.180  0.0727  0.1260 -0.7781
  696MOL0     C95949   4.560   4.743  10.316  0.1730 -0.6516  0.3592
  696MOL0     C95950   4.507   4.853  10.417  0.0743  0.2428 -0.3657
  696MOL0     C95951   4.494   4.820  10.573  0.7784  0.3549 -0.4966
  696MOL0     C95952   4.393   4.712  10.600  0.2352 -0.7726 -1.1120
  696MOL0     C95953   4.366   4.702  10.752  0.7088 -0.1532  0.4224
  696MOL0     C95954   4.424   4.577  10.807 -0.9071 -0.0129 -0.7253
  696MOL0    Cl95955   4.606   4.571  10.786  0.4786  0.0212  0.0798
  696MOL0     C95956   4.254   4.995   9.997 -0.4559 -0.3516 -0.0824
  696MOL0     C95957   4.130   5.033   9.949 -0.0750  0.7124 -0.0427
  696MOL0     O95958   3.873   4.800   9.808  0.6024 -0.2310  0.0393
  696MOL0     C95959   3.710   4.932   9.625  0.6689  0.0570  0.4168
  696MOL0     C95960   3.597   4.969   9.548 -0.6091 -0.0387 -0.1235
  696MOL0     N95961   3.021   4.919   9.139 -0.3998 -0.3015 -0.6488
  696MOL0     N95962   2.944   4.815   9.159 -0.2491  0.3778  0.3696
  696MOL0     C95963   1.773   4.774   8.886 -0.5611 -0.3527 -0.1142
  696MOL0     C95964   1.639   4.755   8.861 -0.4469 -0.6506 -0.1151
  696MOL0     C95965   1.255   4.877   8.656  0.6197  0.9986  0.5656
  696MOL0     C95966   1.233   4.918   8.521  0.9883  0.0523 -0.1760
  696MOL0     C95967   1.108   4.899   8.459  0.7975  0.0072 -0.3340
  696MOL0     C95968   0.997   4.845   8.531 -0.5730 -0.0610  0.5945
  696MOL0     O95969   0.886   4.810   8.467 -0.3071  0.2922 -0.1554
  696MOL0     C95970   0.809   4.923   8.424  0.1122 -0.6185  0.0506
  696MOL0     C95971   0.738   5.005   8.536 -0.2298 -0.1509 -0.7723
  696MOL0     C95972   0.652   5.119   8.475  0.6907 -0.3787 -0.0928
  696MOL0     C95973   0.583   5.214   8.572 -0.7390 -0.7073 -0.1494
  696MOL0     C95974   0.683   5.309   8.628 -0.5137  0.4114  0.8447
  696MOL0     C95975   0.781   5.383   8.656  0.1253 -0.1283  0.2458
  696MOL0     C95976   1.015   4.828   8.664 -0.2597 -0.2644  0.1473
  696MOL0     C95977   1.134   4.838   8.730  0.1217 -0.0261 -0.3811
  696MOL0     C95978   1.127   4.810   8.884  0.3837  0.2284 -0.2836
  696MOL0     H95979   1.532   5.064   8.937 -1.1643 -0.0869 -0.0977
  696MOL0     H95980   1.780   5.100   8.990 -1.3840  0.9483  0.4794
  696MOL0     H95981   2.068   4.768   8.897 -1.7928 -0.2335  0.5453
  696MOL0     H95982   1.997   4.719   9.058  0.4265 -0.7466  1.1401
  696MOL0     H95983   2.220   4.921   9.006 -1.7423  2.7893  0.0611
  696MOL0     H95984   2.132   4.904   9.158 -0.6776  1.4978 -1.3650
  696MOL0     H95985   2.319   4.783   9.203 -1.6338 -1.2140  0.2360
  696MOL0     H95986   2.228   4.642   9.152  0.5763 -1.4925 -1.6238
  696MOL0     H95987   2.310   4.660   8.912 -1.9689 -1.3586  1.6553
  696MOL0     H95988   2.429   4.774   8.962  2.5562 -2.4499  1.0410
  696MOL0     H95989   2.537   4.566   8.958 -0.0642  1.9437  1.4341
  696MOL0     H95990   2.398   4.486   9.046  0.5592  0.1732  2.1725
  696MOL0     H95991   2.473   4.612   9.249  0.1763 -0.0369  0.8148
  696MOL0     H95992   2.596   4.512   9.194 -3.5816 -2.1702  1.0188
  696MOL0     H95993   2.577   4.817   9.136 -0.7498 -0.7845 -1.1001
  696MOL0     H95994   2.709   4.727   9.067  2.7400  1.2561  1.8338
  696MOL0     H95995   2.667   4.791   9.358 -1.2772 -2.6820  0.9205
  696MOL0     H95996   2.778   4.665   9.310  1.6583  1.2485 -0.8459
  696MOL0     H95997   2.798   5.006   9.360 -1.0863  3.4344 -1.3498
  696MOL0     H95998   2.955   5.206   9.294  0.9298 -0.6344  1.9250
  696MOL0     H95999   3.090   5.179   9.165  1.1679 -1.5965 -1.1100
  696MOL0     H96000   3.051   5.081   9.460 -1.8463  2.2401 -1.5072
  696MOL0     H96001   3.180   5.010   9.353  1.2053  1.0792 -3.4976
  696MOL0     H96002   3.264   5.227   9.329  1.7766 -1.1940  1.2873
  696MOL0     H96003   3.129   5.295   9.422 -0.8954  0.3389 -3.7331
  696MOL0     H96004   3.345   5.270   9.571  2.0971  0.8421 -1.1384
  696MOL0     H96005   3.234   5.135   9.620 -0.5405  0.6197 -0.1811
  696MOL0     H96006   3.420   5.141   9.768 -1.3142  3.6096 -5.2387
  696MOL0     H96007   3.654   4.996   9.998 -0.5548 -0.1067  0.6596
  696MOL0     H96008   3.498   5.098   9.980 -0.4192  1.0898 -1.3942
  696MOL0     H96009   3.659   5.172   9.981 -1.4159  0.2691  0.4705
  696MOL0     H96010   3.934   4.790  10.094  0.5435 -1.2348  2.4451
  696MOL0     H96011   4.169   4.715  10.180 -1.3445  2.5119  2.9088
  696MOL0     H96012   4.518   4.904   9.998 -1.1433  0.2383  0.0160
  696MOL0     H96013   4.504   4.986  10.144  0.7694 -0.0167 -0.4827
  696MOL0     H96014   4.649   4.717  10.131  2.4831  0.4225  0.4835
  696MOL0     H96015   4.697   4.871  10.188 -0.7466  1.0837  1.2030
  696MOL0     H96016   4.642   4.687  10.362  0.4858 -0.0654  0.5278
  696MOL0     H96017   4.480   4.673  10.290 -2.2722  2.3919 -0.8836
  696MOL0     H96018   4.405   4.879  10.386 -0.3425 -1.0556 -0.1280
  696MOL0     H96019   4.571   4.942  10.409  1.1488 -0.3046  1.5498
  696MOL0     H96020   4.587   4.795  10.625 -0.9167 -1.5080  1.8926
  696MOL0     H96021   4.449   4.910  10.617  1.2486  0.7001 -0.7099
  696MOL0     H96022   4.421   4.613  10.563  0.2801 -0.7696 -1.0863
  696MOL0     H96023   4.309   4.742  10.538  0.0447  2.0613  0.3440
  696MOL0     H96024   4.257   4.708  10.749  0.7439  4.8582 -0.7775
  696MOL0     H96025   4.405   4.786  10.810  0.2771  1.7189 -1.8148
  696MOL0     H96026   4.383   4.484  10.767  0.6954  0.0057 -2.5821
  696MOL0     H96027   4.408   4.552  10.912  1.3109 -3.2395 -1.0052
  696MOL0     H96028   4.346   5.045   9.968  0.1123 -1.5727 -0.4556
  696MOL0     H96029   4.121   5.127   9.895  2.9024  0.5721 -0.9844
  696MOL0     H96030   3.787   4.872   9.578 -0.0281 -0.4066 -0.1522
  696MOL0     H96031   3.583   4.942   9.444 -1.6358  0.7807 -0.2223
  696MOL0     H96032   1.842   4.694   8.860  1.9628  0.6432  2.8765
  696MOL0     H96033   1.603   4.662   8.819 -1.0198 -0.6121  0.2880
  696MOL0     H96034   1.322   4.938   8.461  1.6657 -2.7105 -0.2189
  696MOL0     H96035   1.111   4.934   8.357  2.8908  6.2374  1.4543
  696MOL0     H96036   0.870   4.991   8.364 -3.2310  1.1535 -1.6076
  696MOL0     H96037   0.736   4.883   8.353  0.9749  0.3162 -1.4272
  696MOL0     H96038   0.816   5.058   8.591 -2.2441  1.0578  1.0845
  696MOL0     H96039   0.681   4.940   8.604  1.3544 -0.0050  0.7777
  696MOL0     H96040   0.720   5.174   8.409  2.1359 -0.5637  1.1803
  696MOL0     H96041   0.572   5.077   8.414  0.1647 -0.7945  0.8670
  696MOL0     H96042   0.549   5.153   8.657 -0.3265 -2.0264 -0.8921
  696MOL0     H96043   0.497   5.264   8.527 -0.5827 -0.4650 -0.1817
  696MOL0     H96044   0.867   5.447   8.669  0.7783 -0.9448  0.0125
  696MOL0     H96045   0.936   4.771   8.711  0.4134  0.5053  2.3539
  696MOL0     H96046   1.164   4.897   8.940  0.8551 -0.2635  0.1868
  696MOL0     H96047   1.030   4.777   8.924  0.5529 -0.7628 -0.6615
  696MOL0     H96048   1.197   4.727   8.900  0.2000 -0.4258 -2.5352
  697MOL0     O96049   3.828   4.577   6.956  0.0925  0.0334  1.1404
  697MOL0     C96050   3.729   4.544   7.025 -0.4894 -0.6756  0.0597
  697MOL0     O96051   3.735   4.508   7.151  0.1503 -0.0255 -0.2155
  697MOL0     C96052   3.852   4.533   7.217 -0.1183  1.1980 -1.0360
  697MOL0     C96053   3.955   4.441   7.212 -0.5255 -0.2272 -0.0338
  697MOL0     C96054   4.078   4.477   7.278  0.7082 -0.6081  0.2569
  697MOL0     C96055   4.094   4.592   7.345  0.3064 -0.0082  0.1787
  697MOL0     O96056   4.206   4.602   7.422  0.5817  0.3721  0.1807
  697MOL0     C96057   4.188   4.614   7.563  0.4629 -0.5570 -0.3101
  697MOL0     C96058   4.326   4.659   7.621  0.5146 -0.2157  0.2896
  697MOL0     C96059   4.442   4.554   7.595 -0.1570  1.1740 -0.0218
  697MOL0     C96060   4.423   4.412   7.674 -0.9381  0.4286  0.3014
  697MOL0     C96061   4.524   4.303   7.638  0.1724  0.1906  0.4444
  697MOL0     C96062   4.527   4.258   7.490 -0.7118 -0.3034 -0.0814
  697MOL0     C96063   4.663   4.196   7.454 -0.2540  0.7200  0.5033
  697MOL0     C96064   4.726   4.098   7.563  0.0958 -0.6143 -0.5566
  697MOL0     N96065   4.830   4.011   7.495  0.2152  0.0812  0.3194
  697MOL0     C96066   4.961   4.024   7.499  0.1460 -0.1555  1.3068
  697MOL0     C96067   5.012   3.914   7.438  0.4881  0.8834 -0.4414
  697MOL0     C96068   5.152   3.887   7.459  0.5860  0.0936 -0.6193
  697MOL0     C96069   5.187   3.804   7.581 -0.0011 -0.2368  0.3308
  697MOL0     C96070   5.263   3.667   7.549 -0.2626 -1.3290  0.4270
  697MOL0     C96071   5.411   3.703   7.525  0.4865  0.4592  0.4473
  697MOL0     O96072   5.477   3.703   7.646 -0.5364 -0.3188  0.1633
  697MOL0     C96073   5.601   3.660   7.668 -0.6993  0.0026  0.5948
  697MOL0     C96074   5.640   3.641   7.798  0.3299 -0.2043 -0.5949
  697MOL0     C96075   5.772   3.611   7.838 -0.3227 -0.1272 -0.5330
  697MOL0     C96076   5.793   3.611   7.983 -0.0014  0.6701 -0.1969
  697MOL0     C96077   5.870   3.575   7.746 -0.1763 -0.4231  0.5483
  697MOL0     C96078   6.009   3.526   7.783  0.6623 -0.0583 -0.1266
  697MOL0     O96079   6.048   3.537   7.912  0.1118 -0.6252  0.0656
  697MOL0     C96080   6.179   3.531   7.932 -0.4013  0.1749  0.2988
  697MOL0     C96081   6.245   3.647   7.919 -0.1945 -0.1007  0.7165
  697MOL0     C96082   6.384   3.653   7.945 -0.8104  0.4263  0.2128
  697MOL0     C96083   6.447   3.539   8.006 -0.4303  0.1787 -0.9212
  697MOL0     O96084   6.574   3.541   8.048 -0.0534  0.0554  0.4160
  697MOL0     C96085   6.651   3.665   8.050 -0.6570  0.1179 -0.3306
  697MOL0     C96086   6.743   3.689   7.931  0.0893 -0.6220  0.7912
  697MOL0     C96087   6.830   3.815   7.945 -0.0176  0.5165 -0.6647
  697MOL0     C96088   6.962   3.799   8.015  0.3066  0.0314 -0.6993
  697MOL0     C96089   7.059   3.722   7.930 -0.1159  0.0098 -0.0756
  697MOL0     C96090   7.183   3.679   8.014  0.3356 -0.2438  0.2370
  697MOL0     C96091   7.281   3.579   7.945 -0.5442  0.0504 -0.9811
  697MOL0     C96092   7.407   3.537   8.028 -0.5354 -0.8265  0.2051
  697MOL0    Cl96093   7.488   3.396   7.967  0.0095  0.3906  0.0831
  697MOL0     C96094   6.376   3.422   8.025 -0.0425 -0.6198  0.5119
  697MOL0     C96095   6.244   3.413   7.978  0.6786 -0.5058 -0.5622
  697MOL0     O96096   6.076   3.477   7.690  0.1974 -1.0463 -0.3186
  697MOL0     C96097   5.835   3.597   7.604 -0.2806 -0.7380  0.0914
  697MOL0     C96098   5.702   3.636   7.571  0.5542  0.6122  0.6961
  697MOL0     N96099   4.911   3.824   7.406  0.1208 -0.0619  0.1051
  697MOL0     N96100   4.807   3.884   7.447  0.2354  0.0738  0.0701
  697MOL0     C96101   3.992   4.686   7.353  1.2319 -0.0007  0.8865
  697MOL0     C96102   3.873   4.660   7.281 -0.8205  0.1047 -0.3672
  697MOL0     C96103   3.603   4.523   6.948 -0.3935 -0.0977 -1.0219
  697MOL0     C96104   3.531   4.411   6.982  0.7230 -0.5395 -0.0230
  697MOL0     C96105   3.422   4.371   6.911  0.3208 -0.1151  0.2239
  697MOL0     C96106   3.377   4.448   6.799  0.5769  1.5650  0.0203
  697MOL0     O96107   3.275   4.406   6.715  0.3305  0.2529  0.2086
  697MOL0     C96108   3.180   4.316   6.773 -0.2137  0.2997  0.1031
  697MOL0     C96109   3.059   4.303   6.678  0.4767 -0.0486  0.3854
  697MOL0     C96110   3.091   4.243   6.540  0.5174 -0.2798  0.3370
  697MOL0     C96111   2.961   4.217   6.452  0.2223 -0.0485 -0.0179
  697MOL0     C96112   2.917   4.340   6.385 -1.0377 -0.2216  0.5275
  697MOL0     C96113   2.862   4.429   6.320 -0.1935  0.3389  0.2534
  697MOL0     C96114   3.444   4.573   6.778  0.1748  0.4777 -0.4383
  697MOL0     C96115   3.554   4.614   6.851 -1.0517  0.0231 -0.3770
  697MOL0     C96116   3.615   4.749   6.830  1.3607 -0.1384  1.1213
  697MOL0     H96117   3.944   4.346   7.160 -1.0727  0.6170 -1.5180
  697MOL0     H96118   4.164   4.413   7.258  0.6143 -0.6043 -0.1778
  697MOL0     H96119   4.155   4.518   7.604  2.1573 -1.9355 -1.9681
  697MOL0     H96120   4.111   4.687   7.589  0.3609 -1.1857  1.3025
  697MOL0     H96121   4.364   4.751   7.575  1.2043  0.9174  2.9664
  697MOL0     H96122   4.326   4.691   7.725  3.1685 -1.7571  0.8628
  697MOL0     H96123   4.461   4.527   7.491  0.8012 -0.4919  0.5397
  697MOL0     H96124   4.532   4.604   7.632  0.6440  0.2985 -0.7469
  697MOL0     H96125   4.433   4.430   7.782  2.2156  3.1610 -0.2664
  697MOL0     H96126   4.324   4.375   7.647 -2.1052  1.1585  3.1942
  697MOL0     H96127   4.507   4.214   7.700 -1.6847  0.5875  0.5834
  697MOL0     H96128   4.622   4.345   7.664 -0.4296  0.7117  2.0108
  697MOL0     H96129   4.445   4.186   7.486  0.2638 -1.5140  0.7042
  697MOL0     H96130   4.519   4.334   7.411 -1.0011  0.3689  0.5830
  697MOL0     H96131   4.727   4.276   7.417  1.0074 -0.4766  0.0281
  697MOL0     H96132   4.643   4.132   7.367  0.1681 -0.0138  0.9340
  697MOL0     H96133   4.764   4.161   7.643 -2.0326 -2.2647  1.9456
  697MOL0     H96134   4.648   4.029   7.598  1.3519 -2.3590 -1.0778
  697MOL0     H96135   5.020   4.108   7.534  1.4139  0.6386 -2.3222
  697MOL0     H96136   5.214   3.977   7.467  2.4785 -1.2703  1.4222
  697MOL0     H96137   5.194   3.831   7.374  2.0628  0.3405 -0.0795
  697MOL0     H96138   5.242   3.853   7.662 -2.1585  2.1762  0.4635
  697MOL0     H96139   5.087   3.780   7.619  0.6891 -1.6933  1.3257
  697MOL0     H96140   5.254   3.591   7.627 -1.1397 -2.2311 -0.5229
  697MOL0     H96141   5.212   3.624   7.463 -3.3513  0.5733  1.1648
  697MOL0     H96142   5.459   3.636   7.453  1.3092  1.0823  0.3866
  697MOL0     H96143   5.425   3.804   7.484 -3.2580  0.8947 -0.0528
  697MOL0     H96144   5.570   3.653   7.881 -1.1195 -0.5137 -1.7226
  697MOL0     H96145   5.811   3.507   8.011  5.1642  1.4823  0.3791
  697MOL0     H96146   5.714   3.658   8.042 -0.1989  1.8413 -1.3443
  697MOL0     H96147   5.883   3.671   7.999  1.0076  0.1807 -3.2944
  697MOL0     H96148   6.193   3.734   7.878 -0.6350 -1.3290 -1.4936
  697MOL0     H96149   6.437   3.746   7.928  0.0314  0.3200  2.0529
  697MOL0     H96150   6.590   3.754   8.069 -0.0617  0.2127  1.2987
  697MOL0     H96151   6.718   3.665   8.137  0.2889  1.6308 -1.0120
  697MOL0     H96152   6.810   3.603   7.927  1.2888  0.3185 -0.5327
  697MOL0     H96153   6.681   3.687   7.841  1.5868 -3.3651 -0.3002
  697MOL0     H96154   6.764   3.885   7.996  0.1233  0.0479  0.1819
  697MOL0     H96155   6.843   3.857   7.845 -0.1168 -2.1852 -1.9158
  697MOL0     H96156   6.951   3.746   8.110  0.7392 -1.5424 -1.5023
  697MOL0     H96157   7.010   3.892   8.048  0.1922 -0.2883  0.4331
  697MOL0     H96158   7.020   3.629   7.886  2.0520 -0.4766 -1.1138
  697MOL0     H96159   7.083   3.786   7.844 -0.2036  0.2235  0.0597
  697MOL0     H96160   7.148   3.635   8.108  0.0305 -0.2341  0.1299
  697MOL0     H96161   7.238   3.766   8.049 -1.7781  1.5381 -0.6332
  697MOL0     H96162   7.318   3.624   7.852 -1.6393 -0.4396 -1.6748
  697MOL0     H96163   7.229   3.486   7.919 -1.5525  0.3379 -0.0400
  697MOL0     H96164   7.374   3.509   8.128 -2.0571 -1.7179 -0.5006
  697MOL0     H96165   7.469   3.627   8.030  0.4854 -1.4679 -1.2004
  697MOL0     H96166   6.430   3.338   8.068  1.1394 -0.8453 -1.2605
  697MOL0     H96167   6.176   3.330   7.990  0.1719 -0.0052  0.0563
  697MOL0     H96168   5.898   3.569   7.520 -0.7878 -0.3816 -0.4155
  697MOL0     H96169   5.675   3.660   7.468  2.2116  0.5159  0.2192
  697MOL0     H96170   3.995   4.778   7.411  0.6792 -0.9083  2.4186
  697MOL0     H96171   3.797   4.738   7.280  0.1932  1.1223 -0.2685
  697MOL0     H96172   3.547   4.353   7.073 -1.8954 -1.0857  0.1837
  697MOL0     H96173   3.383   4.274   6.940  2.7798 -0.8224  1.3778
  697MOL0     H96174   3.232   4.221   6.781 -0.0422  0.2994 -0.9663
  697MOL0     H96175   3.157   4.347   6.876 -0.2314 -3.5378  1.4231
  697MOL0     H96176   2.994   4.390   6.663 -1.6620 -1.3940  1.3388
  697MOL0     H96177   2.988   4.235   6.727  1.4563 -0.8594  0.7138
  697MOL0     H96178   3.156   4.311   6.486 -2.6266  2.2071 -0.6515
  697MOL0     H96179   3.137   4.144   6.549 -0.9465 -1.0308 -0.0596
  697MOL0     H96180   2.880   4.181   6.515  1.3021  1.6887  2.5564
  697MOL0     H96181   2.978   4.142   6.375  1.3089 -0.4459  0.5762
  697MOL0     H96182   2.827   4.518   6.273  1.0250  0.9926  0.5358
  697MOL0     H96183   3.419   4.631   6.690 -0.8954  0.3881 -0.2045
  697MOL0     H96184   3.535   4.822   6.816 -1.0078 -3.0261 -2.0918
  697MOL0     H96185   3.678   4.789   6.911  0.5751 -1.1750  2.2806
  697MOL0     H96186   3.659   4.755   6.730 -2.6026  2.0682 -0.7282
  698MOL0     O96187   4.736   4.259   4.247 -0.3522 -0.7702  0.1190
  698MOL0     C96188   4.697   4.363   4.188 -0.8089  0.2303  0.6274
  698MOL0     O96189   4.782   4.469   4.161  1.3190 -0.2289  0.5013
  698MOL0     C96190   4.912   4.469   4.185  0.5163  0.6461  0.6411
  698MOL0     C96191   5.010   4.455   4.091 -0.4326  0.2711 -0.7707
  698MOL0     C96192   5.145   4.479   4.122  0.4997  0.0444  0.1608
  698MOL0     C96193   5.187   4.515   4.246  0.4135  0.2622  0.1605
  698MOL0     O96194   5.319   4.543   4.268 -1.1256 -0.1419 -0.0717
  698MOL0     C96195   5.374   4.519   4.401  1.1755  0.4523 -0.1940
  698MOL0     C96196   5.516   4.519   4.414 -0.2490  0.3012 -0.4490
  698MOL0     C96197   5.566   4.661   4.413  0.1396  0.5899 -0.6609
  698MOL0     C96198   5.718   4.670   4.450  0.1807  0.5052 -0.7893
  698MOL0     C96199   5.783   4.808   4.421 -1.0683  0.4216 -0.4527
  698MOL0     C96200   5.932   4.796   4.448  0.9655  1.1356 -0.9282
  698MOL0     C96201   5.986   4.934   4.457  0.4987 -0.6474 -0.7978
  698MOL0     C96202   6.130   4.940   4.514  0.2143 -0.7392  0.3654
  698MOL0     N96203   6.177   5.081   4.523  0.7751 -0.3460  0.2834
  698MOL0     C96204   6.253   5.144   4.437 -1.3652  0.0786 -0.6036
  698MOL0     C96205   6.279   5.269   4.490  0.0359  0.6796 -0.5991
  698MOL0     C96206   6.369   5.371   4.425 -0.1125  0.4141 -0.2558
  698MOL0     C96207   6.427   5.474   4.531 -0.0456 -0.1225  0.2874
  698MOL0     C96208   6.510   5.585   4.474 -0.3582  0.2204 -0.1471
  698MOL0     C96209   6.617   5.551   4.366  0.7266 -0.3781 -0.6780
  698MOL0     O96210   6.723   5.477   4.430  0.3559 -0.3188 -0.1905
  698MOL0     C96211   6.846   5.462   4.386 -1.1685  1.0974  0.0599
  698MOL0     C96212   6.885   5.484   4.253 -0.1917 -0.9384  0.9020
  698MOL0     C96213   7.025   5.473   4.219  0.3027  0.3447 -0.4339
  698MOL0     C96214   7.069   5.516   4.083  0.7603 -0.7146  0.5977
  698MOL0     C96215   7.117   5.443   4.329 -0.3891 -0.2072 -0.3319
  698MOL0     C96216   7.267   5.444   4.309 -0.6475 -0.7417  0.5084
  698MOL0     O96217   7.341   5.496   4.408 -0.5999  0.3352  0.5265
  698MOL0     C96218   7.480   5.479   4.406 -0.3152 -0.6184 -0.6057
  698MOL0     C96219   7.575   5.443   4.314 -1.2212 -0.0953  0.0044
  698MOL0     C96220   7.717   5.465   4.348  0.8022  0.2652 -0.2424
  698MOL0     C96221   7.759   5.508   4.480 -0.3152  0.2720  0.0786
  698MOL0     O96222   7.894   5.526   4.497 -0.2561  0.3630 -0.9099
  698MOL0     C96223   7.949   5.495   4.634 -0.4445 -0.2957  0.0125
  698MOL0     C96224   8.087   5.555   4.645 -0.2804 -0.6124 -1.0511
  698MOL0     C96225   8.192   5.473   4.589 -0.0554  0.1486 -0.6780
  698MOL0     C96226   8.321   5.539   4.592 -1.0129 -0.0319 -0.7697
  698MOL0     C96227   8.425   5.460   4.514  0.4416  0.5212  0.3667
  698MOL0     C96228   8.563   5.517   4.514  0.1388  0.0102  0.2458
  698MOL0     C96229   8.653   5.464   4.400 -0.2391  0.2487 -0.8448
  698MOL0     C96230   8.617   5.542   4.278 -0.5310  0.1660  0.4385
  698MOL0    Cl96231   8.656   5.718   4.287  0.0246  0.2538 -0.3195
  698MOL0     C96232   7.657   5.527   4.571  0.4047  0.2198 -0.9892
  698MOL0     C96233   7.521   5.515   4.542 -0.6185  0.4400  0.5052
  698MOL0     O96234   7.306   5.415   4.194  0.1882 -0.6053 -0.5348
  698MOL0     C96235   7.062   5.429   4.457 -0.6405 -0.2036  0.5522
  698MOL0     C96236   6.928   5.429   4.484 -0.5851  0.1776 -0.5495
  698MOL0     N96237   6.189   5.285   4.596  0.9061 -0.5075 -0.5577
  698MOL0     N96238   6.138   5.167   4.618 -0.7088  0.2524 -0.5046
  698MOL0     C96239   5.087   4.521   4.342  1.0658  0.4339  1.0285
  698MOL0     C96240   4.949   4.504   4.313  0.0444 -0.2571 -0.2902
  698MOL0     C96241   4.547   4.378   4.144 -0.0766  1.0712 -1.4904
  698MOL0     C96242   4.484   4.504   4.161 -0.4686 -0.6530  0.0286
  698MOL0     C96243   4.352   4.522   4.117  0.3339 -0.1779 -0.7937
  698MOL0     C96244   4.273   4.409   4.086 -0.3276  0.3114  0.3218
  698MOL0     O96245   4.133   4.396   4.063  0.3256  0.8363  0.4521
  698MOL0     C96246   4.046   4.509   4.085 -0.1668  0.5366 -0.3577
  698MOL0     C96247   3.902   4.474   4.048 -0.1935 -0.2948  0.4822
  698MOL0     C96248   3.853   4.335   4.089 -0.7909 -0.2371  0.2178
  698MOL0     C96249   3.717   4.309   4.040 -0.2176 -0.4047  0.4154
  698MOL0     C96250   3.618   4.396   4.101  0.0632  0.6580 -0.5106
  698MOL0     C96251   3.529   4.467   4.153 -0.7458  0.2663  0.4335
  698MOL0     C96252   4.334   4.282   4.082 -0.8165  0.1469 -1.1885
  698MOL0     C96253   4.467   4.262   4.109  0.5551 -0.4419  0.0047
  698MOL0     C96254   4.516   4.122   4.115 -0.0148  0.1976  0.3589
  698MOL0     H96255   4.988   4.432   3.987  0.6054 -1.3510 -0.6749
  698MOL0     H96256   5.224   4.476   4.047 -0.5313 -0.3322 -0.9429
  698MOL0     H96257   5.348   4.416   4.428  0.3991  0.9299  0.9250
  698MOL0     H96258   5.327   4.580   4.478  1.1272  0.9163 -0.5880
  698MOL0     H96259   5.538   4.474   4.511  0.8221 -0.4276 -1.0037
  698MOL0     H96260   5.561   4.455   4.337  0.1298 -1.6167  1.2819
  698MOL0     H96261   5.538   4.703   4.316 -1.0005 -1.4824 -1.2946
  698MOL0     H96262   5.515   4.721   4.489 -0.6841 -1.2379  0.2810
  698MOL0     H96263   5.733   4.652   4.557 -0.6959  1.2617 -0.5168
  698MOL0     H96264   5.770   4.589   4.398 -0.1016  2.7914 -5.0442
  698MOL0     H96265   5.751   4.885   4.492  5.2847  1.0965  2.4353
  698MOL0     H96266   5.773   4.836   4.316 -1.4750  0.3868 -0.4243
  698MOL0     H96267   5.948   4.743   4.542 -0.8532  1.5986 -0.3031
  698MOL0     H96268   5.965   4.735   4.363 -2.4704 -1.9195 -0.3635
  698MOL0     H96269   5.931   4.994   4.529  1.0587  0.2704 -1.1109
  698MOL0     H96270   5.989   4.979   4.357 -0.4763  0.3767 -0.3906
  698MOL0     H96271   6.126   4.900   4.616  2.4252  0.9166  1.1744
  698MOL0     H96272   6.197   4.878   4.455 -1.1314 -0.5376 -1.4484
  698MOL0     H96273   6.284   5.104   4.341 -1.7966 -0.7352 -0.4099
  698MOL0     H96274   6.320   5.430   4.346 -0.9577 -0.8921 -0.7370
  698MOL0     H96275   6.451   5.324   4.370 -2.2288 -0.1797 -3.1831
  698MOL0     H96276   6.339   5.527   4.569 -0.0483  2.4555 -2.8581
  698MOL0     H96277   6.486   5.419   4.605  0.0513 -1.3368 -0.6782
  698MOL0     H96278   6.435   5.652   4.429  1.4107  0.1237 -3.5402
  698MOL0     H96279   6.548   5.653   4.550  1.2195 -0.5816 -0.1893
  698MOL0     H96280   6.569   5.495   4.286  1.4868 -3.8407  1.1134
  698MOL0     H96281   6.654   5.650   4.335  2.7348 -0.6309  0.6983
  698MOL0     H96282   6.815   5.524   4.180  0.0342 -0.6327  0.8514
  698MOL0     H96283   7.152   5.587   4.082  0.7130 -0.6258 -1.2681
  698MOL0     H96284   6.991   5.561   4.020  3.2808  1.3849 -1.2099
  698MOL0     H96285   7.096   5.429   4.023 -1.3859  1.2103 -3.6110
  698MOL0     H96286   7.537   5.415   4.217 -0.4375  0.0795 -0.3616
  698MOL0     H96287   7.786   5.442   4.268  3.0887  2.2758  1.0023
  698MOL0     H96288   7.888   5.543   4.711 -2.0536 -4.0103  1.2946
  698MOL0     H96289   7.949   5.388   4.658 -4.9615 -0.4020  0.2850
  698MOL0     H96290   8.088   5.659   4.614 -0.0077  0.2252  1.5296
  698MOL0     H96291   8.096   5.567   4.753 -2.6726 -2.0801 -0.6104
  698MOL0     H96292   8.164   5.445   4.487 -0.6257 -5.0983  0.5975
  698MOL0     H96293   8.190   5.376   4.640  0.1503 -0.4409 -1.7480
  698MOL0     H96294   8.351   5.574   4.692  0.9691  1.4530 -1.7983
  698MOL0     H96295   8.316   5.629   4.530 -0.2988 -0.2351 -1.1324
  698MOL0     H96296   8.431   5.354   4.541 -2.3882 -0.7394 -3.0730
  698MOL0     H96297   8.381   5.460   4.414  1.4599  4.9304 -0.2495
  698MOL0     H96298   8.598   5.477   4.609 -0.3138  0.4908  0.6255
  698MOL0     H96299   8.565   5.626   4.530 -2.6021  0.4388 -1.5056
  698MOL0     H96300   8.635   5.356   4.391  5.0345 -0.8726 -1.4699
  698MOL0     H96301   8.763   5.465   4.404 -0.1900  1.1001 -2.0399
  698MOL0     H96302   8.509   5.536   4.263 -0.9182 -2.3710  3.2340
  698MOL0     H96303   8.666   5.496   4.191  3.7118 -0.6182  2.9407
  698MOL0     H96304   7.678   5.550   4.675  1.1786 -1.0511 -0.8492
  698MOL0     H96305   7.448   5.537   4.619 -1.3203 -2.8650  0.9417
  698MOL0     H96306   7.130   5.415   4.540  1.1348  1.5113 -0.5147
  698MOL0     H96307   6.914   5.408   4.590 -1.2947 -1.0646 -0.8694
  698MOL0     H96308   5.117   4.549   4.443  0.7575 -1.2029  1.6090
  698MOL0     H96309   4.874   4.521   4.390  1.4951 -0.3910  1.2086
  698MOL0     H96310   4.556   4.585   4.169 -0.2231 -0.6452 -1.8450
  698MOL0     H96311   4.313   4.621   4.095 -2.6860 -0.6246  1.8227
  698MOL0     H96312   4.050   4.534   4.192 -0.2492 -0.9469  0.0198
  698MOL0     H96313   4.087   4.592   4.027  0.5350  0.4335 -0.0284
  698MOL0     H96314   3.882   4.483   3.940 -1.9297  2.4153  0.9437
  698MOL0     H96315   3.841   4.552   4.095  1.5120  1.5970 -0.2626
  698MOL0     H96316   3.923   4.269   4.037  0.7317  1.6049 -0.1990
  698MOL0     H96317   3.859   4.324   4.198  2.2063 -1.8931 -0.0039
  698MOL0     H96318   3.671   4.212   4.061  0.9131 -1.1307 -0.3359
  698MOL0     H96319   3.730   4.316   3.932 -0.5302  0.5252  0.4324
  698MOL0     H96320   3.454   4.534   4.188  1.2142  2.3661  0.8310
  698MOL0     H96321   4.270   4.196   4.067 -1.5650  0.3074  0.8719
  698MOL0     H96322   4.461   4.052   4.051  0.9310  1.1657 -1.5845
  698MOL0     H96323   4.623   4.103   4.103 -0.5983 -1.6691 -2.9034
  698MOL0     H96324   4.498   4.089   4.218 -0.3673 -2.1120 -0.3934
  699MOL0     O96325  11.384   6.915   0.709  0.0540  0.1894 -0.8605
  699MOL0     C96326  11.474   6.852   0.767 -0.6519 -0.1567  0.7459
  699MOL0     O96327  11.577   6.784   0.713 -0.3358  0.7532 -0.3790
  699MOL0     C96328  11.611   6.796   0.585  0.1463  0.2166 -0.8789
  699MOL0     C96329  11.519   6.800   0.477  0.3224 -0.4483 -0.0473
  699MOL0     C96330  11.570   6.816   0.351 -0.2805  0.0657  1.3077
  699MOL0     C96331  11.705   6.816   0.326 -0.5378 -1.1999  0.2565
  699MOL0     O96332  11.754   6.815   0.194  0.3630 -0.0941 -0.2104
  699MOL0     C96333  11.889   6.807   0.167  0.3783  0.4256  0.5187
  699MOL0     C96334  11.919   6.817   0.017  0.5917 -0.0077 -0.3736
  699MOL0     C96335  12.063   6.800  -0.022 -0.3074  0.3649  0.9225
  699MOL0     C96336  12.097   6.851  -0.162  0.3423  0.1058 -0.4505
  699MOL0     C96337  12.235   6.806  -0.213 -0.5055 -0.3783  0.5757
  699MOL0     C96338  12.232   6.818  -0.367  0.3864  0.2830  0.3487
  699MOL0     C96339  12.344   6.730  -0.424 -0.8339  0.1236 -1.2886
  699MOL0     C96340  12.481   6.756  -0.355 -0.3307  0.1998  0.1496
  699MOL0     N96341  12.547   6.888  -0.365  0.7645 -0.1249 -0.0544
  699MOL0     C96342  12.644   6.921  -0.454 -0.2279  1.1688  0.3313
  699MOL0     C96343  12.684   7.047  -0.432 -0.7925  0.0836 -1.0342
  699MOL0     C96344  12.776   7.122  -0.518 -0.6516 -0.1107 -0.2744
  699MOL0     C96345  12.923   7.072  -0.491  0.2567 -0.2563 -0.3569
  699MOL0     C96346  12.969   6.973  -0.595  0.1303  0.3346 -0.1587
  699MOL0     C96347  13.106   6.921  -0.589 -0.9423  0.0785 -0.1299
  699MOL0     O96348  13.193   7.030  -0.626  0.4758 -0.1818 -0.2089
  699MOL0     C96349  13.325   7.004  -0.607 -0.7664 -0.1425 -0.6733
  699MOL0     C96350  13.411   7.097  -0.645 -0.4492 -0.2476 -0.5197
  699MOL0     C96351  13.553   7.086  -0.643 -0.4205  0.0991 -0.0243
  699MOL0     C96352  13.625   7.191  -0.717 -0.0407 -0.4307 -0.1148
  699MOL0     C96353  13.617   6.971  -0.592  0.2077  1.5443 -0.2195
  699MOL0     C96354  13.765   6.941  -0.585  0.4769  0.2639 -0.1197
  699MOL0     O96355  13.850   7.037  -0.645  0.1079  0.9418  0.1283
  699MOL0     C96356  13.980   7.008  -0.624 -0.5271 -0.3270 -0.1037
  699MOL0     C96357  14.055   6.994  -0.741  0.9297  0.1525 -0.2130
  699MOL0     C96358  14.185   6.953  -0.741  0.2500 -0.1751 -0.0253
  699MOL0     C96359  14.247   6.922  -0.618 -0.1250  0.0981 -0.3323
  699MOL0     O96360  14.373   6.874  -0.618  0.6078  0.1613 -0.6938
  699MOL0     C96361  14.477   6.924  -0.539  0.0885 -0.1115 -0.8376
  699MOL0     C96362  14.605   6.851  -0.564 -0.7370 -0.0739 -0.6511
  699MOL0     C96363  14.722   6.899  -0.481 -0.2377  0.2399 -0.4674
  699MOL0     C96364  14.672   6.873  -0.342  0.2960  0.2966  0.6236
  699MOL0     C96365  14.774   6.903  -0.229  0.1281 -0.4616 -0.0785
  699MOL0     C96366  14.727   6.863  -0.087 -0.8575 -1.4083  0.8501
  699MOL0     C96367  14.640   6.966  -0.006 -0.4568  0.3696 -0.7248
  699MOL0     C96368  14.588   6.899   0.117 -0.6496  0.8754 -0.4584
  699MOL0    Cl96369  14.694   6.898   0.250 -0.1292  0.0134  0.3676
  699MOL0     C96370  14.179   6.958  -0.496 -0.4867 -0.6098 -0.0282
  699MOL0     C96371  14.044   6.997  -0.507  0.6315 -0.0149  0.4931
  699MOL0     O96372  13.800   6.847  -0.516 -0.1540 -0.2030  0.0894
  699MOL0     C96373  13.525   6.871  -0.547 -0.4703 -0.2529 -0.2145
  699MOL0     C96374  13.385   6.890  -0.548 -0.2129  0.4971 -0.3667
  699MOL0     N96375  12.590   7.094  -0.339  0.2702 -0.1451 -0.4929
  699MOL0     N96376  12.512   7.000  -0.302  0.7380 -0.3001 -0.0243
  699MOL0     C96377  11.797   6.801   0.430  0.5574 -0.2775 -0.3099
  699MOL0     C96378  11.753   6.796   0.559  0.2264  0.3421  0.0908
  699MOL0     C96379  11.468   6.835   0.916  0.3339  0.1748 -0.3317
  699MOL0     C96380  11.605   6.714   1.023 -0.1589 -0.1620  0.0196
  699MOL0     C96381  11.576   6.678   1.229 -0.1756  0.1454  0.2341
  699MOL0     C96382  11.408   6.771   1.327  0.3151  0.3944 -0.8864
  699MOL0     O96383  11.400   6.760   1.463  0.7211 -0.4765  0.8725
  699MOL0     C96384  11.292   6.835   1.526 -0.5407 -0.3227  0.7204
  699MOL0     C96385  11.281   6.793   1.679 -1.2959 -0.0816 -0.1309
  699MOL0     C96386  11.278   6.648   1.714  1.6680 -0.5880 -0.0855
  699MOL0     C96387  11.175   6.565   1.635  0.0518 -0.2140  0.4307
  699MOL0     C96388  11.035   6.613   1.598  0.1202 -0.8492 -0.4719
  699MOL0     C96389  10.922   6.665   1.581 -0.7545  0.7971  0.6468
  699MOL0     C96390  11.272   6.891   1.215 -0.7185 -0.5138 -0.2024
  699MOL0     C96391  11.301   6.922   1.015 -0.3550  0.7755 -0.0964
  699MOL0     C96392  11.210   7.008   0.943 -0.3719 -0.1346  0.6307
  699MOL0     H96393  11.414   6.779   0.495  0.1650  0.6130  0.3738
  699MOL0     H96394  11.506   6.825   0.264  2.4003  1.5248 -0.6776
  699MOL0     H96395  11.940   6.716   0.203  2.8641  1.6101  0.1903
  699MOL0     H96396  11.951   6.880   0.219  1.7444  0.2103 -0.7339
  699MOL0     H96397  11.855   6.745  -0.036 -0.8194 -1.2986  2.7597
  699MOL0     H96398  11.882   6.915  -0.012 -0.1493 -0.3176 -0.5080
  699MOL0     H96399  12.127   6.863   0.040 -0.1902  1.5232 -0.3254
  699MOL0     H96400  12.091   6.695  -0.016  0.2810  0.4856  0.3697
  699MOL0     H96401  12.022   6.823  -0.237 -1.8012  0.7389  1.3325
  699MOL0     H96402  12.089   6.959  -0.153 -0.3801 -0.1420  3.5249
  699MOL0     H96403  12.259   6.703  -0.183  1.0439  0.2372  1.5761
  699MOL0     H96404  12.304   6.879  -0.172  0.0303  0.4340 -1.6447
  699MOL0     H96405  12.142   6.780  -0.416 -0.1526  2.7116 -0.6567
  699MOL0     H96406  12.237   6.922  -0.400 -0.7204 -0.4156 -2.3260
  699MOL0     H96407  12.341   6.740  -0.533 -2.1067  0.7781 -1.2126
  699MOL0     H96408  12.315   6.628  -0.400  2.5167 -0.6932 -0.2031
  699MOL0     H96409  12.473   6.731  -0.249  2.9826 -1.8198  0.0788
  699MOL0     H96410  12.560   6.688  -0.391  0.0752 -0.8400  2.7962
  699MOL0     H96411  12.689   6.851  -0.524 -2.8575 -0.2224 -0.0965
  699MOL0     H96412  12.770   7.226  -0.486  0.5553 -0.2553  0.4840
  699MOL0     H96413  12.753   7.119  -0.625 -0.5440  0.5946 -0.3235
  699MOL0     H96414  12.989   7.160  -0.491 -3.4918  2.8662  0.8089
  699MOL0     H96415  12.933   7.024  -0.393  2.1760  2.4211  0.9027
  699MOL0     H96416  12.904   6.885  -0.588 -1.9848  1.7104 -1.5374
  699MOL0     H96417  12.949   7.016  -0.694  0.5981 -0.3678 -0.5751
  699MOL0     H96418  13.123   6.893  -0.485  2.1662 -0.9385 -0.7863
  699MOL0     H96419  13.113   6.836  -0.658  1.6701  1.2674 -1.5200
  699MOL0     H96420  13.368   7.175  -0.707  0.9595  2.2558  1.4559
  699MOL0     H96421  13.701   7.244  -0.659  0.3237 -0.6059 -0.4199
  699MOL0     H96422  13.569   7.269  -0.768  0.0446  0.6643  1.4058
  699MOL0     H96423  13.685   7.144  -0.796  2.8783  0.3749  1.4610
  699MOL0     H96424  13.994   6.995  -0.831 -0.8879 -0.3844  0.9593
  699MOL0     H96425  14.250   6.923  -0.822 -1.4317 -0.3511 -1.3512
  699MOL0     H96426  14.486   7.032  -0.553 -0.0097 -0.0233 -0.2410
  699MOL0     H96427  14.441   6.902  -0.438  2.0611  0.8283  0.1156
  699MOL0     H96428  14.595   6.742  -0.559 -3.7690  0.0915 -1.1565
  699MOL0     H96429  14.635   6.871  -0.668 -2.0473 -2.0910 -1.4902
  699MOL0     H96430  14.750   7.005  -0.481 -0.0990  0.2908  2.4603
  699MOL0     H96431  14.809   6.837  -0.503 -0.6719  0.5271 -3.3601
  699MOL0     H96432  14.651   6.766  -0.341  2.6926 -0.3057 -1.6326
  699MOL0     H96433  14.578   6.918  -0.311  0.6791 -0.5614  3.3403
  699MOL0     H96434  14.863   6.844  -0.252  0.5744 -0.9347  2.5550
  699MOL0     H96435  14.794   7.010  -0.235 -3.3773  0.2836 -0.6908
  699MOL0     H96436  14.827   6.851  -0.044  1.6080  0.1408 -3.7814
  699MOL0     H96437  14.672   6.769  -0.098 -1.0279 -1.5506  2.6359
  699MOL0     H96438  14.555   7.017  -0.053 -0.8614  0.3632 -0.0192
  699MOL0     H96439  14.707   7.039   0.041  0.2330 -0.0104 -1.1099
  699MOL0     H96440  14.573   6.794   0.090  3.3919  0.1681 -0.5707
  699MOL0     H96441  14.498   6.955   0.147  0.4630  1.7268  1.4812
  699MOL0     H96442  14.231   6.936  -0.403  2.7638  3.6077 -0.5761
  699MOL0     H96443  13.972   7.015  -0.427 -0.0451  1.2749 -0.3800
  699MOL0     H96444  13.570   6.778  -0.514  1.4677  1.6111  2.9700
  699MOL0     H96445  13.327   6.802  -0.524 -0.6740  0.4351 -1.6390
  699MOL0     H96446  11.903   6.806   0.411  0.9271 -1.4329  1.2371
  699MOL0     H96447  11.830   6.789   0.635 -0.9460  2.4632  1.6107
  699MOL0     H96448  11.688   6.669   0.969  0.5903  2.1322 -0.8770
  699MOL0     H96449  11.635   6.604   1.282 -1.2242 -2.5036 -2.0890
  699MOL0     H96450  11.318   6.941   1.522 -0.8274 -0.2310  1.2585
  699MOL0     H96451  11.197   6.812   1.477 -0.2043  1.8721 -1.0981
  699MOL0     H96452  11.200   6.848   1.728 -0.1141 -0.1516  2.0009
  699MOL0     H96453  11.374   6.824   1.728 -1.2116 -2.4831  1.3492
  699MOL0     H96454  11.380   6.617   1.692  2.1637  1.3961 -0.8251
  699MOL0     H96455  11.263   6.637   1.822 -0.2831  0.7613 -0.1508
  699MOL0     H96456  11.155   6.472   1.690  1.9999 -0.8427  0.1398
  699MOL0     H96457  11.230   6.527   1.549 -0.6176 -0.6870  0.2079
  699MOL0     H96458  10.835   6.715   1.541 -0.6944  2.0422  1.9648
  699MOL0     H96459  11.195   6.952   1.261 -1.0687  0.0636 -1.5059
  699MOL0     H96460  11.156   6.948   0.870  0.6893  1.6205 -1.7176
  699MOL0     H96461  11.132   7.048   1.009  0.2695  2.7074 -0.1893
  699MOL0     H96462  11.269   7.087   0.895 -0.9075 -0.3807 -0.4467
  700MOL0     O96463   7.459   9.812   8.115  0.3039 -0.1085 -0.3634
  700MOL0     C96464   7.347   9.791   8.067 -0.4877 -0.2482 -0.2528
  700MOL0     O96465   7.326   9.734   7.945 -0.1837  0.7228 -0.4443
  700MOL0     C96466   7.435   9.714   7.864 -0.1647  0.5697  1.1080
  700MOL0     C96467   7.453   9.817   7.772 -0.7022 -0.3584  0.8232
  700MOL0     C96468   7.551   9.810   7.670 -0.0574 -0.3418 -0.5439
  700MOL0     C96469   7.612   9.685   7.652 -0.1732 -0.1143 -0.4151
  700MOL0     O96470   7.702   9.648   7.552 -0.2930 -0.0945 -0.0917
  700MOL0     C96471   7.742   9.749   7.467 -0.0018  0.5872 -0.2119
  700MOL0     C96472   7.823   9.684   7.349  0.0441 -0.9623  0.5317
  700MOL0     C96473   7.958   9.624   7.394 -0.2362  0.7640 -0.4725
  700MOL0     C96474   8.026   9.556   7.270 -0.2766 -0.0822 -0.6223
  700MOL0     C96475   8.159   9.486   7.309  0.2050  0.8561 -0.9783
  700MOL0     C96476   8.198   9.385   7.197 -0.7124 -0.6164 -0.2575
  700MOL0     C96477   8.338   9.334   7.198  0.3749  1.3320  0.0336
  700MOL0     C96478   8.346   9.216   7.108 -1.0037  0.2786  0.0092
  700MOL0     N96479   8.480   9.164   7.111 -0.5778 -0.7393  0.4038
  700MOL0     C96480   8.572   9.204   7.027  0.3632  1.4503  1.0367
  700MOL0     C96481   8.688   9.142   7.076  0.8744  0.3626 -0.4470
  700MOL0     C96482   8.824   9.156   7.029 -0.9762  0.2301  0.5931
  700MOL0     C96483   8.909   9.238   7.124  0.8101 -0.4503  0.4864
  700MOL0     C96484   8.951   9.162   7.249 -0.8137 -0.4540 -0.4100
  700MOL0     C96485   9.081   9.219   7.310  0.3542  0.5820 -0.2740
  700MOL0     O96486   9.194   9.173   7.235 -0.1275 -0.5385 -0.9581
  700MOL0     C96487   9.319   9.207   7.280  0.7554 -0.2958  0.6819
  700MOL0     C96488   9.345   9.277   7.397  0.6910  0.5019 -0.4233
  700MOL0     C96489   9.473   9.310   7.445  1.2751 -0.3322 -0.1225
  700MOL0     C96490   9.482   9.369   7.587  0.1025  0.0627 -0.2808
  700MOL0     C96491   9.582   9.280   7.371  0.4506  0.8270  0.3766
  700MOL0     C96492   9.720   9.323   7.399  0.9971 -0.0397 -0.3676
  700MOL0     O96493   9.814   9.241   7.348  0.1630  0.4404 -0.1120
  700MOL0     C96494   9.945   9.253   7.367 -0.0950  0.3700  0.8515
  700MOL0     C96495  10.016   9.143   7.323  0.1397  0.2479 -0.8549
  700MOL0     C96496  10.151   9.126   7.333 -0.0499 -0.1891 -0.6105
  700MOL0     C96497  10.224   9.233   7.378 -0.2086 -0.2328 -0.7219
  700MOL0     O96498  10.363   9.214   7.354 -0.0660  0.7703 -0.0538
  700MOL0     C96499  10.450   9.315   7.419 -0.0275  0.2084 -0.4554
  700MOL0     C96500  10.597   9.282   7.425  0.0158  1.0827  0.5892
  700MOL0     C96501  10.671   9.384   7.511  0.3082  0.2860  0.3304
  700MOL0     C96502  10.818   9.349   7.511 -0.3369 -0.1597 -0.6418
  700MOL0     C96503  10.875   9.415   7.637 -0.9488  0.9958  0.5996
  700MOL0     C96504  11.022   9.410   7.626  0.0809 -0.1659 -0.5908
  700MOL0     C96505  11.083   9.493   7.732 -0.5982 -0.1411 -0.0673
  700MOL0     C96506  11.230   9.461   7.725 -0.0267 -0.5471  0.1863
  700MOL0    Cl96507  11.314   9.568   7.616  0.4722  0.0047  0.1193
  700MOL0     C96508  10.157   9.353   7.411  0.5554 -0.0813 -0.3453
  700MOL0     C96509  10.018   9.362   7.410  0.5389  0.0768 -0.2239
  700MOL0     O96510   9.738   9.424   7.467  0.1050 -0.4436  0.1915
  700MOL0     C96511   9.556   9.208   7.243  0.0583  0.3714  0.2519
  700MOL0     C96512   9.428   9.168   7.199  0.4455 -0.2027 -0.3604
  700MOL0     N96513   8.658   9.073   7.194  0.0756 -0.1788  0.5395
  700MOL0     N96514   8.533   9.084   7.207  0.0181 -0.4285  0.4585
  700MOL0     C96515   7.591   9.578   7.735  0.6887 -0.9103 -0.0137
  700MOL0     C96516   7.510   9.597   7.847  0.4053 -1.1805  0.5735
  700MOL0     C96517   7.223   9.835   8.133 -0.3499  0.5120  1.1195
  700MOL0     C96518   7.117   9.867   8.044  1.3159  0.5459 -0.0560
  700MOL0     C96519   6.989   9.907   8.096 -0.1802  0.0578 -0.2672
  700MOL0     C96520   6.964   9.926   8.229 -0.1361 -0.5308 -0.3283
  700MOL0     O96521   6.844   9.984   8.258  0.1189 -0.2043 -0.5892
  700MOL0     C96522   6.793  10.005   8.390  0.1192 -0.1641 -0.8086
  700MOL0     C96523   6.644  10.024   8.393  0.1185 -0.6129  0.0814
  700MOL0     C96524   6.573   9.931   8.501  0.7118  0.2519 -1.1519
  700MOL0     C96525   6.418   9.923   8.489 -0.5341 -0.2082  0.2899
  700MOL0     C96526   6.354   9.930   8.617 -0.1803  0.6162  0.3007
  700MOL0     C96527   6.297   9.945   8.724  0.0242 -0.6533  0.7150
  700MOL0     C96528   7.058   9.875   8.311 -0.0882  0.4120 -0.9174
  700MOL0     C96529   7.182   9.833   8.265  0.4271 -1.1406 -0.2314
  700MOL0     C96530   7.275   9.787   8.371 -0.0804 -0.4740 -0.2795
  700MOL0     H96531   7.383   9.900   7.779  0.4620  0.7877 -0.5281
  700MOL0     H96532   7.568   9.897   7.607  0.3288 -1.1532 -1.5918
  700MOL0     H96533   7.808   9.824   7.511  1.2139  0.1497 -1.2039
  700MOL0     H96534   7.654   9.793   7.420 -1.2772 -3.2863 -1.9205
  700MOL0     H96535   7.771   9.608   7.291 -0.5726  0.2107 -0.5263
  700MOL0     H96536   7.843   9.761   7.273 -1.5297 -2.1835 -1.2252
  700MOL0     H96537   8.017   9.704   7.441  0.4377  1.4403 -2.3444
  700MOL0     H96538   7.930   9.552   7.471 -0.1749  0.4111 -0.7786
  700MOL0     H96539   7.965   9.479   7.222  2.3246 -1.0759 -2.5669
  700MOL0     H96540   8.040   9.631   7.191 -2.9557 -0.0496 -1.1590
  700MOL0     H96541   8.149   9.444   7.409 -0.7488  0.2213 -1.3257
  700MOL0     H96542   8.229   9.569   7.326 -0.2964  0.7066  2.3371
  700MOL0     H96543   8.133   9.298   7.209 -1.7893  0.4049  1.8541
  700MOL0     H96544   8.196   9.439   7.101 -0.6353  3.3506  1.7722
  700MOL0     H96545   8.370   9.321   7.302 -3.1165  3.2309  1.5137
  700MOL0     H96546   8.412   9.406   7.162 -0.6681  1.2219 -2.5434
  700MOL0     H96547   8.275   9.139   7.141  0.1012 -2.6261 -3.6002
  700MOL0     H96548   8.329   9.231   7.001  1.7372  1.4941 -0.3449
  700MOL0     H96549   8.552   9.273   6.945  0.0983  0.7449  0.4938
  700MOL0     H96550   8.818   9.206   6.932  0.8055 -1.5391 -0.5137
  700MOL0     H96551   8.867   9.060   6.997 -0.0903 -0.5625  3.7991
  700MOL0     H96552   8.998   9.257   7.064  0.9945  2.0608  1.4074
  700MOL0     H96553   8.863   9.334   7.150 -1.9586 -1.8830  1.3048
  700MOL0     H96554   8.878   9.172   7.330 -1.0360  0.4662 -0.7157
  700MOL0     H96555   8.949   9.057   7.218 -2.2687 -0.4355 -0.4673
  700MOL0     H96556   9.072   9.327   7.319  0.9459  0.4712  3.2083
  700MOL0     H96557   9.082   9.170   7.408 -0.1954 -2.2692 -1.5740
  700MOL0     H96558   9.257   9.288   7.459  0.7900  0.0595 -0.2002
  700MOL0     H96559   9.394   9.370   7.652  1.1217 -1.7560  1.2380
  700MOL0     H96560   9.502   9.476   7.576  2.5306 -0.3357 -0.2589
  700MOL0     H96561   9.565   9.328   7.646 -1.0327  1.2243  2.2957
  700MOL0     H96562   9.956   9.054   7.307  0.1923 -0.1842  1.0823
  700MOL0     H96563  10.209   9.044   7.292  3.6118  2.1344 -0.5074
  700MOL0     H96564  10.446   9.410   7.364 -1.3668  0.0266 -0.7169
  700MOL0     H96565  10.410   9.325   7.520  1.8410  3.1339  0.0990
  700MOL0     H96566  10.622   9.186   7.472  1.2938  0.6816 -0.8160
  700MOL0     H96567  10.630   9.288   7.320  0.4977 -1.0114  0.5680
  700MOL0     H96568  10.640   9.360   7.613  1.1333 -0.6729  0.3730
  700MOL0     H96569  10.642   9.482   7.470  3.1701  1.5883  1.1917
  700MOL0     H96570  10.864   9.390   7.420  1.1076  1.7279  0.8383
  700MOL0     H96571  10.840   9.242   7.513  1.3539  0.1582  0.7463
  700MOL0     H96572  10.850   9.522   7.639 -1.1830  1.1366 -3.0280
  700MOL0     H96573  10.850   9.360   7.728 -1.2734 -1.1256 -0.6933
  700MOL0     H96574  11.061   9.453   7.533 -0.4383  2.1878  0.2059
  700MOL0     H96575  11.048   9.304   7.623 -2.0297 -0.8231  1.2122
  700MOL0     H96576  11.047   9.458   7.829  2.1889 -0.2791  1.0067
  700MOL0     H96577  11.059   9.598   7.713  1.7915  0.9793  2.5303
  700MOL0     H96578  11.256   9.358   7.700  2.1321 -1.1123  3.8890
  700MOL0     H96579  11.272   9.470   7.826 -0.1708 -0.2838  0.2228
  700MOL0     H96580  10.206   9.446   7.441 -1.4500  0.6472  0.8673
  700MOL0     H96581   9.961   9.451   7.436  0.3148  0.5959 -2.3288
  700MOL0     H96582   9.648   9.184   7.191 -0.3340 -1.2577  0.2706
  700MOL0     H96583   9.420   9.119   7.103  0.9151  1.9588 -1.5653
  700MOL0     H96584   7.654   9.489   7.736  1.0352 -0.6808  1.1590
  700MOL0     H96585   7.498   9.516   7.918 -3.0266 -0.9110  0.4947
  700MOL0     H96586   7.133   9.870   7.937  0.7867 -1.2460 -0.2030
  700MOL0     H96587   6.911   9.954   8.038  0.9628  1.7794 -0.4904
  700MOL0     H96588   6.814   9.913   8.446  3.2219  0.9650  0.1023
  700MOL0     H96589   6.850  10.082   8.443 -0.9802  1.2499 -1.6189
  700MOL0     H96590   6.613   9.998   8.291  1.2224 -1.2307 -0.1073
  700MOL0     H96591   6.616  10.129   8.401 -2.2609 -0.8416 -3.0776
  700MOL0     H96592   6.602   9.826   8.507 -1.7697 -0.4122  1.7304
  700MOL0     H96593   6.584   9.986   8.595 -1.9883 -0.3587 -0.3801
  700MOL0     H96594   6.398   9.827   8.440 -2.2667  2.0002 -3.9485
  700MOL0     H96595   6.373   9.995   8.419  0.7637 -0.1513 -0.5201
  700MOL0     H96596   6.237   9.949   8.812 -1.6299 -5.3047  0.0268
  700MOL0     H96597   7.046   9.888   8.418  3.2358  1.4952 -0.5586
  700MOL0     H96598   7.252   9.832   8.468 -1.7702 -0.2568 -0.7518
  700MOL0     H96599   7.264   9.679   8.380 -0.9239 -0.4510 -0.9840
  700MOL0     H96600   7.380   9.805   8.346  0.9478 -2.5317  2.1565
  701MOL0     O96601   3.648   1.921   7.947  0.0549 -0.0118 -0.3936
  701MOL0     C96602   3.608   2.014   7.880 -0.3692 -0.4112  0.5367
  701MOL0     O96603   3.666   2.136   7.875 -0.3186  0.2059 -0.1335
  701MOL0     C96604   3.786   2.166   7.931  0.0469 -0.7372 -0.0751
  701MOL0     C96605   3.798   2.196   8.066 -0.4564  0.4368 -0.0631
  701MOL0     C96606   3.923   2.232   8.121 -0.0917  0.7237  0.0621
  701MOL0     C96607   4.034   2.243   8.039 -0.1631 -0.0184  0.2872
  701MOL0     O96608   4.157   2.265   8.093 -0.2190 -0.1295 -0.4803
  701MOL0     C96609   4.242   2.154   8.061 -0.0464  0.7578 -0.9386
  701MOL0     C96610   4.325   2.121   8.182 -0.1063  0.0017  1.5202
  701MOL0     C96611   4.242   2.071   8.307 -0.2807  0.6454 -0.9899
  701MOL0     C96612   4.144   1.947   8.290 -0.5086 -0.6172 -0.0852
  701MOL0     C96613   4.215   1.825   8.226 -0.4782  0.5928 -0.6830
  701MOL0     C96614   4.122   1.709   8.211  0.3952  0.7378 -0.2106
  701MOL0     C96615   4.018   1.734   8.094 -0.8162 -0.2992 -0.5839
  701MOL0     C96616   3.902   1.634   8.072 -0.5014 -0.8695  0.0542
  701MOL0     N96617   3.945   1.502   8.077  0.7098 -0.5078  0.5251
  701MOL0     C96618   4.039   1.453   7.987 -0.3044  0.2914  0.8416
  701MOL0     C96619   4.074   1.323   8.029  0.0589  0.7283  0.4014
  701MOL0     C96620   4.160   1.228   7.939  0.6605 -0.5263 -0.0356
  701MOL0     C96621   4.170   1.084   7.994  0.7640 -0.3325  0.2866
  701MOL0     C96622   4.221   0.994   7.881  0.8580  0.2252 -0.1759
  701MOL0     C96623   4.339   1.036   7.788  0.1471  0.2816 -0.6029
  701MOL0     O96624   4.448   1.068   7.874 -0.2630 -0.5542 -0.5571
  701MOL0     C96625   4.568   1.093   7.820 -0.4408 -0.4462 -0.0930
  701MOL0     C96626   4.608   1.061   7.683  0.3261  0.2225  0.1014
  701MOL0     C96627   4.744   1.075   7.643 -0.2853 -0.0717 -0.3792
  701MOL0     C96628   4.778   1.026   7.508 -0.1299  0.8061  0.3248
  701MOL0     C96629   4.842   1.128   7.733  0.1964 -1.2668 -0.6363
  701MOL0     C96630   4.983   1.140   7.701 -0.6400 -0.0746  0.2760
  701MOL0     O96631   5.076   1.125   7.802 -0.2867  0.6956  1.0074
  701MOL0     C96632   5.212   1.119   7.771  0.1212  0.5525 -0.5072
  701MOL0     C96633   5.262   1.048   7.669 -0.0822 -0.5650  0.1367
  701MOL0     C96634   5.397   1.031   7.658  0.5483 -0.4373 -0.5507
  701MOL0     C96635   5.492   1.108   7.736 -0.9286 -0.1203 -0.0831
  701MOL0     O96636   5.625   1.103   7.704 -0.3320  0.3470 -0.1423
  701MOL0     C96637   5.714   1.165   7.792 -0.0553 -0.1882  0.0830
  701MOL0     C96638   5.859   1.134   7.748  0.0710 -1.0013  0.1473
  701MOL0     C96639   5.935   1.262   7.703  0.1799 -0.6114 -0.0685
  701MOL0     C96640   6.088   1.230   7.716 -0.4982  0.5428  0.2203
  701MOL0     C96641   6.165   1.362   7.716  0.2414  0.0741  0.7433
  701MOL0     C96642   6.316   1.349   7.685  0.6055  0.4541  0.4487
  701MOL0     C96643   6.351   1.264   7.570 -0.4521  0.3223  0.0635
  701MOL0     C96644   6.495   1.294   7.536 -0.1341  0.4676 -1.0089
  701MOL0    Cl96645   6.552   1.207   7.387  0.6106 -0.2661  0.1747
  701MOL0     C96646   5.434   1.190   7.837 -0.1077  0.1581  0.3887
  701MOL0     C96647   5.290   1.197   7.859  0.3356 -0.3219 -0.6402
  701MOL0     O96648   5.017   1.175   7.589 -0.7682 -0.2283 -0.4123
  701MOL0     C96649   4.792   1.170   7.865 -0.4652  0.1183 -0.4486
  701MOL0     C96650   4.669   1.147   7.904 -0.3855  1.0899 -0.4617
  701MOL0     N96651   3.988   1.299   8.140 -0.0636  0.1952  0.1889
  701MOL0     N96652   3.919   1.405   8.169 -0.0477  0.3683  0.4517
  701MOL0     C96653   4.019   2.219   7.900  0.3988  0.0380  0.0250
  701MOL0     C96654   3.900   2.181   7.847 -0.2722 -0.9242  0.3056
  701MOL0     C96655   3.480   2.010   7.786 -0.5954 -0.9047  0.0665
  701MOL0     C96656   3.441   2.132   7.723 -0.4132  1.1249  0.0369
  701MOL0     C96657   3.326   2.129   7.643  0.5379  1.0510 -0.0142
  701MOL0     C96658   3.230   2.019   7.625  0.5825  0.5350  0.3374
  701MOL0     O96659   3.107   2.003   7.549 -0.4593 -0.1361 -0.0914
  701MOL0     C96660   3.038   2.128   7.527  0.0272 -0.1493 -0.1917
  701MOL0     C96661   2.944   2.125   7.410  0.9475  0.1784  0.0009
  701MOL0     C96662   3.001   2.040   7.292  0.4206 -1.1545 -0.8951
  701MOL0     C96663   2.969   2.109   7.159  0.3635  0.7066 -0.2237
  701MOL0     C96664   2.836   2.066   7.108 -0.0354 -0.7666  0.3679
  701MOL0     C96665   2.727   2.026   7.077 -1.1047 -0.4412 -0.5973
  701MOL0     C96666   3.266   1.907   7.705  0.1331 -1.2210 -0.7460
  701MOL0     C96667   3.389   1.903   7.782 -0.0404  0.7894 -0.0226
  701MOL0     C96668   3.406   1.777   7.863 -1.0479 -0.0009  0.0427
  701MOL0     H96669   3.707   2.191   8.125 -2.1630  2.2987 -2.3612
  701MOL0     H96670   3.929   2.237   8.229  0.4226 -2.9337  0.3232
  701MOL0     H96671   4.305   2.177   7.974  1.3426  2.5782  0.4627
  701MOL0     H96672   4.185   2.063   8.038  2.2380 -1.4552  1.4104
  701MOL0     H96673   4.394   2.039   8.162 -0.6910 -0.1696  0.0675
  701MOL0     H96674   4.381   2.211   8.211  0.3477  1.0296 -2.0014
  701MOL0     H96675   4.319   2.045   8.379  1.3041  2.1818 -2.0576
  701MOL0     H96676   4.192   2.154   8.357  0.7107  1.0578 -0.6580
  701MOL0     H96677   4.106   1.915   8.388 -0.8944 -0.2012 -0.0931
  701MOL0     H96678   4.054   1.978   8.236  1.1828  4.5149 -0.4530
  701MOL0     H96679   4.291   1.795   8.299  0.1854 -0.4102 -1.7488
  701MOL0     H96680   4.270   1.846   8.133 -0.6616  3.5791 -0.2189
  701MOL0     H96681   4.173   1.614   8.192  1.4547  1.1167  0.6958
  701MOL0     H96682   4.068   1.689   8.304  1.0909 -0.5882 -0.0701
  701MOL0     H96683   4.070   1.734   7.998 -2.4619  1.5569 -1.5394
  701MOL0     H96684   3.969   1.830   8.113  0.6360  0.6863 -1.5476
  701MOL0     H96685   3.810   1.641   8.131  0.1705 -3.8604  1.7205
  701MOL0     H96686   3.870   1.662   7.972  0.9133  1.4129  0.1822
  701MOL0     H96687   4.084   1.493   7.896  1.5297 -2.5094  0.3948
  701MOL0     H96688   4.257   1.278   7.931  0.3133  0.3713  1.0812
  701MOL0     H96689   4.108   1.224   7.843 -0.7496 -2.3772  0.7453
  701MOL0     H96690   4.237   1.080   8.080 -0.0371 -0.1230  0.9361
  701MOL0     H96691   4.068   1.051   8.018  1.3084 -2.0580  0.3299
  701MOL0     H96692   4.240   0.892   7.916 -0.4362 -0.0583 -0.2273
  701MOL0     H96693   4.136   0.980   7.813  0.6839 -1.3021  0.3106
  701MOL0     H96694   4.352   0.949   7.723  0.6425  0.4724 -0.7596
  701MOL0     H96695   4.305   1.124   7.733 -1.1241  0.9101  1.0858
  701MOL0     H96696   4.534   1.018   7.616 -1.8924  1.1438  1.8636
  701MOL0     H96697   4.696   0.970   7.462 -1.1688  0.5753  2.3597
  701MOL0     H96698   4.873   0.972   7.507 -0.5297  0.0347  1.6105
  701MOL0     H96699   4.788   1.118   7.448 -1.5458  1.1615  0.6021
  701MOL0     H96700   5.197   0.993   7.601  0.8832 -0.1316 -1.1857
  701MOL0     H96701   5.447   0.971   7.583 -1.3542 -0.0408 -2.2125
  701MOL0     H96702   5.701   1.273   7.801  0.4047 -0.2592  2.4703
  701MOL0     H96703   5.704   1.125   7.894  0.2868  0.0067  0.1938
  701MOL0     H96704   5.903   1.095   7.840 -1.6955  1.0247  1.9489
  701MOL0     H96705   5.855   1.070   7.659  2.7955  0.5084 -1.1933
  701MOL0     H96706   5.903   1.343   7.770  0.1497 -0.7671  0.1050
  701MOL0     H96707   5.899   1.292   7.604 -4.8351 -3.3353  0.5855
  701MOL0     H96708   6.123   1.152   7.648 -1.4784  0.6921 -0.4823
  701MOL0     H96709   6.107   1.196   7.819 -0.9201  0.7714  0.3771
  701MOL0     H96710   6.116   1.433   7.650  1.9253 -0.7813 -1.5849
  701MOL0     H96711   6.152   1.408   7.814  2.2230  0.6691  0.7789
  701MOL0     H96712   6.361   1.299   7.772  1.2834 -0.5822 -0.4622
  701MOL0     H96713   6.360   1.447   7.666 -0.5519  0.5559 -2.0318
  701MOL0     H96714   6.289   1.299   7.487 -0.0365 -0.7767 -0.7341
  701MOL0     H96715   6.334   1.157   7.582  0.4971 -0.1462 -2.2199
  701MOL0     H96716   6.553   1.273   7.626 -2.7149 -1.5875  0.3109
  701MOL0     H96717   6.509   1.402   7.523  0.1726  0.7590  1.2579
  701MOL0     H96718   5.499   1.244   7.905  1.0035  2.2657 -2.1457
  701MOL0     H96719   5.265   1.271   7.935  1.9516  0.3211 -0.7083
  701MOL0     H96720   4.849   1.225   7.939 -1.8356 -0.5937  1.2008
  701MOL0     H96721   4.637   1.152   8.008  2.1427 -2.1209  0.6246
  701MOL0     H96722   4.116   2.232   7.854  0.2808 -1.7585 -0.8033
  701MOL0     H96723   3.903   2.158   7.741  0.9395  0.5390 -0.0068
  701MOL0     H96724   3.490   2.228   7.731 -0.9475  1.2764  2.6957
  701MOL0     H96725   3.300   2.221   7.592  2.8433  2.7817  1.6912
  701MOL0     H96726   2.996   2.170   7.618 -3.4195  1.9455 -2.5063
  701MOL0     H96727   3.117   2.203   7.514 -0.5472  0.5490  0.2885
  701MOL0     H96728   2.924   2.229   7.381  0.7116  0.3077  0.6103
  701MOL0     H96729   2.847   2.090   7.447  0.1932  2.0145 -0.1185
  701MOL0     H96730   3.110   2.035   7.291  0.8150  2.2294 -4.9406
  701MOL0     H96731   2.963   1.937   7.294 -2.8703 -0.0885 -1.4905
  701MOL0     H96732   3.040   2.085   7.080  1.5862  0.4796  0.8942
  701MOL0     H96733   2.973   2.218   7.173 -0.3848  0.6523  0.4878
  701MOL0     H96734   2.626   2.007   7.045 -0.5688 -2.9810 -0.9546
  701MOL0     H96735   3.197   1.823   7.706 -0.7271 -0.5430  1.0549
  701MOL0     H96736   3.401   1.815   7.966  0.9215 -0.4360  0.3474
  701MOL0     H96737   3.326   1.703   7.859 -0.0933 -1.5204  4.1399
  701MOL0     H96738   3.497   1.717   7.854 -1.0623  0.0457 -0.4447
  702MOL0     O96739   4.284   9.774   4.691 -0.1031  0.0333  0.1585
  702MOL0     C96740   4.260   9.770   4.812 -1.1643  0.1558 -0.8242
  702MOL0     O96741   4.336   9.699   4.906  0.3276 -0.7187  0.7899
  702MOL0     C96742   4.460   9.660   4.865  0.8568 -0.5670 -0.0684
  702MOL0     C96743   4.497   9.525   4.848 -0.7276  0.3539 -0.5139
  702MOL0     C96744   4.625   9.488   4.827  0.2452  0.0606  0.6387
  702MOL0     C96745   4.731   9.584   4.814  1.0424 -0.2665  0.3109
  702MOL0     O96746   4.861   9.547   4.786 -0.4814  0.0310  0.1274
  702MOL0     C96747   4.952   9.640   4.718  0.8942  0.8881  0.2287
  702MOL0     C96748   5.081   9.557   4.684  0.2168 -0.1827  0.6960
  702MOL0     C96749   5.159   9.632   4.571  0.6956  0.2746 -0.8546
  702MOL0     C96750   5.286   9.562   4.515 -1.1510  0.2739 -0.9800
  702MOL0     C96751   5.351   9.647   4.397  0.4189  0.3848  0.1713
  702MOL0     C96752   5.444   9.553   4.318  0.0275 -0.1213 -0.1795
  702MOL0     C96753   5.586   9.551   4.386  0.1903  0.9081 -0.1454
  702MOL0     C96754   5.683   9.433   4.335 -0.2013 -0.6984 -0.6202
  702MOL0     N96755   5.819   9.430   4.389 -0.6040  0.4396 -0.3730
  702MOL0     C96756   5.859   9.486   4.507 -0.1233 -0.5610 -0.0046
  702MOL0     C96757   5.983   9.443   4.516  0.5308 -0.9034  0.1894
  702MOL0     C96758   6.089   9.486   4.615  0.6242  0.7458 -0.0272
  702MOL0     C96759   6.149   9.614   4.552  0.2801 -0.1262  0.0210
  702MOL0     C96760   6.253   9.690   4.645  0.5711  0.2997 -0.2188
  702MOL0     C96761   6.399   9.656   4.623 -0.7096  0.0786  0.1437
  702MOL0     O96762   6.421   9.527   4.664  0.2647 -0.4898  0.1588
  702MOL0     C96763   6.556   9.489   4.684 -0.3357 -0.0042 -0.1182
  702MOL0     C96764   6.679   9.551   4.649 -1.6892  0.2792 -0.3039
  702MOL0     C96765   6.803   9.489   4.685  0.4785  0.5786  0.5722
  702MOL0     C96766   6.919   9.569   4.633  0.2389 -0.2884 -0.3485
  702MOL0     C96767   6.800   9.370   4.764 -0.7667 -0.5580 -0.1114
  702MOL0     C96768   6.919   9.300   4.814  0.2223  0.3129  0.1493
  702MOL0     O96769   6.899   9.223   4.929 -0.0523 -0.3017 -0.0687
  702MOL0     C96770   7.003   9.141   4.955 -0.0519 -0.3900  0.5185
  702MOL0     C96771   7.101   9.162   5.054 -0.0932 -0.3659 -0.8417
  702MOL0     C96772   7.204   9.070   5.079  0.0748  0.2257 -0.1861
  702MOL0     C96773   7.219   8.953   4.997  1.1726 -0.3502 -0.4506
  702MOL0     O96774   7.327   8.874   4.995  0.1739  0.1998  0.6676
  702MOL0     C96775   7.435   8.880   5.092 -0.3484  0.2271  0.3158
  702MOL0     C96776   7.554   8.769   5.062 -0.1895 -0.6705 -0.0885
  702MOL0     C96777   7.677   8.781   5.158  0.0235  0.4504  0.3822
  702MOL0     C96778   7.778   8.671   5.106 -0.2516  0.1570  0.1087
  702MOL0     C96779   7.741   8.543   5.185  0.1463  0.3460  0.4669
  702MOL0     C96780   7.862   8.444   5.187  0.2838  0.2184 -0.7596
  702MOL0     C96781   7.891   8.373   5.047  0.2639 -0.6034 -1.1754
  702MOL0     C96782   8.011   8.275   5.030  0.7295  0.5469  0.3327
  702MOL0    Cl96783   8.169   8.346   5.021 -0.1230 -0.2278  0.1104
  702MOL0     C96784   7.128   8.940   4.889  0.4658  0.6943 -1.1149
  702MOL0     C96785   7.025   9.028   4.873 -0.2859  1.1830 -0.3817
  702MOL0     O96786   7.027   9.313   4.757  0.2987  0.2754  0.6766
  702MOL0     C96787   6.676   9.311   4.791  0.2275 -0.3525 -0.0385
  702MOL0     C96788   6.557   9.375   4.755  0.3227  0.6367 -0.2286
  702MOL0     N96789   6.018   9.370   4.406  0.4313  0.3482  0.3875
  702MOL0     N96790   5.913   9.358   4.332 -0.6518  0.5282  0.4749
  702MOL0     C96791   4.699   9.718   4.829  0.6658 -0.1811  0.1626
  702MOL0     C96792   4.567   9.753   4.859  0.5437 -0.0737  0.9247
  702MOL0     C96793   4.138   9.843   4.857  0.5852  0.0605 -0.2463
  702MOL0     C96794   4.150   9.892   4.990  0.9584 -0.9514  0.2567
  702MOL0     C96795   4.035   9.959   5.045 -0.0268 -0.3308  0.7041
  702MOL0     C96796   3.911   9.977   4.985 -0.9795  0.2013  0.0684
  702MOL0     O96797   3.816  10.051   5.046 -0.1581  0.3218 -0.4129
  702MOL0     C96798   3.699  10.086   4.969 -0.0788 -0.2691 -0.8514
  702MOL0     C96799   3.732  10.210   4.884  0.2419 -0.2636 -0.3470
  702MOL0     C96800   3.617  10.238   4.788 -0.0323 -0.7912  0.1425
  702MOL0     C96801   3.679  10.329   4.673 -0.0744 -0.3598 -0.2633
  702MOL0     C96802   3.672  10.474   4.708 -0.3957  0.6799 -0.2443
  702MOL0     C96803   3.651  10.592   4.722  0.1835  0.0458  0.3494
  702MOL0     C96804   3.912   9.927   4.856  0.1836  0.3137  0.1006
  702MOL0     C96805   4.019   9.866   4.789  0.1818  0.0543 -0.2291
  702MOL0     C96806   3.994   9.806   4.647  0.3182 -0.3541 -0.5925
  702MOL0     H96807   4.421   9.447   4.841 -0.7741  0.3696 -0.1805
  702MOL0     H96808   4.658   9.387   4.802 -1.1419  0.0490 -1.3837
  702MOL0     H96809   4.978   9.720   4.787  0.2471  2.2968 -1.1182
  702MOL0     H96810   4.906   9.666   4.622  2.6742 -0.3120 -1.0255
  702MOL0     H96811   5.140   9.538   4.773 -1.0108 -1.7117  1.2432
  702MOL0     H96812   5.057   9.459   4.641  1.4504  0.6839 -2.2437
  702MOL0     H96813   5.084   9.652   4.494 -0.1355 -0.1735 -0.1743
  702MOL0     H96814   5.183   9.729   4.615 -0.4725  0.5347 -0.7693
  702MOL0     H96815   5.363   9.528   4.584  1.6136  3.3923 -2.2489
  702MOL0     H96816   5.254   9.469   4.466  1.5720 -0.0304 -2.3828
  702MOL0     H96817   5.405   9.730   4.441  2.4009 -1.2278  0.9385
  702MOL0     H96818   5.273   9.674   4.325  0.0512 -1.7548 -0.3222
  702MOL0     H96819   5.398   9.456   4.296  2.7281 -1.0290 -2.3397
  702MOL0     H96820   5.455   9.598   4.219  0.6743 -1.6996 -0.8627
  702MOL0     H96821   5.568   9.529   4.492 -2.7702 -0.6549 -0.8549
  702MOL0     H96822   5.651   9.637   4.366  4.1548 -1.6880  0.3582
  702MOL0     H96823   5.632   9.337   4.348 -2.4581  0.0609 -3.0835
  702MOL0     H96824   5.682   9.459   4.229 -1.6282  0.2791 -0.3824
  702MOL0     H96825   5.813   9.558   4.574 -0.7508 -3.1659  2.5667
  702MOL0     H96826   6.155   9.402   4.638 -0.7858  0.2156  2.4888
  702MOL0     H96827   6.038   9.520   4.706 -1.2767  2.1135 -1.5307
  702MOL0     H96828   6.202   9.589   4.460  1.2541 -0.1089  0.5561
  702MOL0     H96829   6.078   9.690   4.520  0.8974  0.3593 -0.2194
  702MOL0     H96830   6.235   9.796   4.621 -2.2988 -0.4292 -1.8289
  702MOL0     H96831   6.217   9.679   4.747 -1.1245 -1.0815 -0.9069
  702MOL0     H96832   6.430   9.658   4.518  0.5009 -1.3420  0.4390
  702MOL0     H96833   6.463   9.730   4.673  2.8158 -1.1318 -2.1855
  702MOL0     H96834   6.697   9.641   4.591  2.2958  1.5417  2.4592
  702MOL0     H96835   6.895   9.672   4.661  1.7598 -0.2360  0.8635
  702MOL0     H96836   6.911   9.567   4.523 -0.6190 -1.7498 -0.2787
  702MOL0     H96837   7.016   9.542   4.677  0.0824 -0.6366 -0.2160
  702MOL0     H96838   7.111   9.258   5.103 -2.1153 -0.9780  0.9446
  702MOL0     H96839   7.284   9.107   5.142  0.7760  2.8527 -2.4029
  702MOL0     H96840   7.487   8.976   5.090 -2.7833  1.6292 -0.0830
  702MOL0     H96841   7.400   8.876   5.196 -3.8335  1.3918 -0.6640
  702MOL0     H96842   7.506   8.672   5.079 -0.4916 -0.4564  0.3067
  702MOL0     H96843   7.579   8.784   4.957 -0.4547 -0.4384 -0.1187
  702MOL0     H96844   7.649   8.777   5.263  0.9650 -0.2048  0.6174
  702MOL0     H96845   7.723   8.881   5.151  0.2305  0.2366 -2.6202
  702MOL0     H96846   7.880   8.690   5.139  1.7079 -1.1219 -4.4237
  702MOL0     H96847   7.782   8.662   4.997 -2.2226  2.8682 -0.2929
  702MOL0     H96848   7.714   8.577   5.285 -2.2706  0.0267 -0.0235
  702MOL0     H96849   7.646   8.505   5.146  0.0102  2.6878 -1.7798
  702MOL0     H96850   7.852   8.360   5.256  1.0908  1.0943  0.4606
  702MOL0     H96851   7.945   8.506   5.221 -1.8899  2.5466  0.6161
  702MOL0     H96852   7.908   8.448   4.968  4.2378  0.0238  0.0647
  702MOL0     H96853   7.798   8.321   5.021 -0.5918  1.8585 -3.5417
  702MOL0     H96854   8.001   8.221   4.935 -1.0563  3.1015 -1.0551
  702MOL0     H96855   8.003   8.213   5.120 -1.7525 -0.6028 -0.5871
  702MOL0     H96856   7.153   8.855   4.827 -0.6518 -2.3297  2.1892
  702MOL0     H96857   6.976   9.022   4.776 -1.5337  1.5373  0.1986
  702MOL0     H96858   6.671   9.210   4.831 -3.6890 -0.0318  0.6284
  702MOL0     H96859   6.460   9.329   4.768  0.0199  1.3042 -0.0945
  702MOL0     H96860   4.778   9.793   4.822 -2.0487  2.7248 -3.2085
  702MOL0     H96861   4.541   9.855   4.885 -3.0584 -1.3093  2.9106
  702MOL0     H96862   4.234   9.869   5.054  1.6053  0.0980 -0.1830
  702MOL0     H96863   4.054  10.005   5.141 -2.6022  1.9292  0.2591
  702MOL0     H96864   3.653  10.008   4.908 -1.1490 -0.7770  0.5370
  702MOL0     H96865   3.614  10.102   5.036  1.7836  0.9870  1.3827
  702MOL0     H96866   3.824  10.182   4.832  0.9325  0.5106  0.4290
  702MOL0     H96867   3.756  10.301   4.940 -0.0331  0.6745 -1.7111
  702MOL0     H96868   3.582  10.150   4.733 -0.5234  0.0166 -0.8890
  702MOL0     H96869   3.532  10.290   4.835  2.7102  2.2932  2.1208
  702MOL0     H96870   3.621  10.306   4.583 -1.1015  1.3596 -0.0999
  702MOL0     H96871   3.783  10.311   4.648  0.6671  1.6419  1.0869
  702MOL0     H96872   3.653  10.696   4.747 -0.0584  0.1736 -0.1501
  702MOL0     H96873   3.813   9.923   4.811 -0.3512 -0.1070  1.2818
  702MOL0     H96874   4.029   9.877   4.571 -2.6743  2.4410  0.4043
  702MOL0     H96875   4.053   9.714   4.640 -0.8353 -1.2061  0.4765
  702MOL0     H96876   3.889   9.785   4.624  0.4723  0.1997 -1.8970
  703MOL0     O96877   5.109   3.202   5.082  0.0874 -1.0204  0.2495
  703MOL0     C96878   5.031   3.151   5.003  0.0060 -0.8594 -1.0634
  703MOL0     O96879   5.071   3.077   4.895 -0.0690  0.5131  0.1778
  703MOL0     C96880   5.201   3.074   4.859  0.6385 -0.2708 -0.1186
  703MOL0     C96881   5.294   3.004   4.940  0.5985  0.8859 -0.7770
  703MOL0     C96882   5.432   2.996   4.906  0.2273  0.0527  1.7540
  703MOL0     C96883   5.478   3.078   4.807  0.3406  0.2766  0.5255
  703MOL0     O96884   5.611   3.058   4.765 -0.3678  1.2196 -0.2064
  703MOL0     C96885   5.688   3.174   4.732 -0.6120  0.6074  0.1669
  703MOL0     C96886   5.814   3.108   4.655 -0.2826  1.1107  0.4133
  703MOL0     C96887   5.903   3.037   4.754 -0.5210 -0.8479  0.2619
  703MOL0     C96888   6.019   2.962   4.690 -0.3213  0.4397 -0.1588
  703MOL0     C96889   6.117   2.922   4.805 -0.1057 -0.1438 -0.2160
  703MOL0     C96890   6.249   2.871   4.749 -0.1417  1.0142  0.2851
  703MOL0     C96891   6.350   2.872   4.860  0.1071 -0.1236 -0.4428
  703MOL0     C96892   6.480   2.798   4.821  0.0803 -0.0509 -0.0029
  703MOL0     N96893   6.566   2.789   4.939  0.5481 -0.0528  0.4195
  703MOL0     C96894   6.612   2.885   5.013 -0.1021 -0.2835  0.1096
  703MOL0     C96895   6.698   2.826   5.095  0.4425 -0.6022  0.5326
  703MOL0     C96896   6.772   2.872   5.207  0.3504 -0.0925 -0.5440
  703MOL0     C96897   6.863   2.992   5.169  0.2874 -0.4950  0.8075
  703MOL0     C96898   6.943   2.966   5.043  0.0481 -0.0322  0.9128
  703MOL0     C96899   7.058   3.066   5.009  0.2476  0.1828 -0.3403
  703MOL0     O96900   7.020   3.206   5.014  0.3101 -0.1928  0.5288
  703MOL0     C96901   7.114   3.299   5.009 -0.4990 -0.1023 -0.2095
  703MOL0     C96902   7.064   3.425   5.003  0.1290 -0.3727  0.3224
  703MOL0     C96903   7.142   3.542   5.000  0.5144 -0.2981 -0.1073
  703MOL0     C96904   7.074   3.679   5.011 -0.1696  0.3316 -0.4121
  703MOL0     C96905   7.282   3.528   4.998  0.3557  0.0858 -0.1777
  703MOL0     C96906   7.383   3.641   5.004 -0.0264 -0.4321 -0.2614
  703MOL0     O96907   7.506   3.600   4.965  0.3202 -0.6061 -0.1036
  703MOL0     C96908   7.614   3.680   4.939 -0.2082  0.3527  0.0369
  703MOL0     C96909   7.746   3.619   4.949  0.9327 -0.0546 -1.0724
  703MOL0     C96910   7.860   3.692   4.929 -0.5899  0.7073  0.1773
  703MOL0     C96911   7.859   3.830   4.890  0.6512 -0.3897  0.2278
  703MOL0     O96912   7.961   3.913   4.853 -0.3054  0.5331  0.0482
  703MOL0     C96913   8.097   3.863   4.877 -0.1978  0.1031  0.2254
  703MOL0     C96914   8.200   3.978   4.835  0.1428  0.0442  0.5800
  703MOL0     C96915   8.338   3.916   4.807  0.2739  0.4789  0.3496
  703MOL0     C96916   8.459   4.007   4.830 -0.2049  0.5893 -0.3320
  703MOL0     C96917   8.586   3.922   4.808 -0.4235  0.4754 -0.6711
  703MOL0     C96918   8.705   3.996   4.862 -0.6899 -0.1650  0.0618
  703MOL0     C96919   8.834   3.905   4.853  0.2787 -0.5773 -1.5457
  703MOL0     C96920   8.960   3.990   4.878 -0.4610 -0.1621  0.5168
  703MOL0    Cl96921   8.982   4.020   5.045  0.1146  0.1033 -0.9064
  703MOL0     C96922   7.729   3.890   4.890  0.4192 -0.0157 -1.4625
  703MOL0     C96923   7.610   3.817   4.904 -0.1334  0.0861 -0.3708
  703MOL0     O96924   7.354   3.759   5.029 -0.0786  0.4312 -0.2607
  703MOL0     C96925   7.330   3.399   5.012 -0.2279 -0.1289 -0.3673
  703MOL0     C96926   7.251   3.285   5.012 -0.6792  0.2585 -0.0243
  703MOL0     N96927   6.704   2.692   5.077 -0.2218  0.0962 -0.3395
  703MOL0     N96928   6.625   2.669   4.977 -0.3568 -0.2539  0.3454
  703MOL0     C96929   5.391   3.149   4.726  0.3876 -0.8382  0.1615
  703MOL0     C96930   5.248   3.156   4.753  0.0115  0.4276  0.0577
  703MOL0     C96931   4.878   3.174   5.019 -0.5612 -0.1961 -0.2172
  703MOL0     C96932   4.801   3.118   4.918 -0.0143 -0.6044  0.0522
  703MOL0     C96933   4.663   3.146   4.918 -0.1530  0.4967 -0.1337
  703MOL0     C96934   4.604   3.232   5.014 -0.6091  0.2170  0.2859
  703MOL0     O96935   4.471   3.277   5.012 -0.9899 -0.1754  0.4737
  703MOL0     C96936   4.365   3.189   4.967 -0.3580  0.7559  0.5595
  703MOL0     C96937   4.238   3.217   5.058 -0.7588  0.3366 -0.6409
  703MOL0     C96938   4.120   3.108   5.063  0.2303 -0.3195 -0.8199
  703MOL0     C96939   4.149   2.965   5.110  0.0419 -0.0856  0.2983
  703MOL0     C96940   4.182   2.962   5.252  0.0335  0.3628  0.9009
  703MOL0     C96941   4.221   2.968   5.366  1.4528 -0.0873  0.1523
  703MOL0     C96942   4.686   3.275   5.117  1.8402  0.1239 -0.3832
  703MOL0     C96943   4.823   3.250   5.119 -0.0294 -0.1427 -0.6053
  703MOL0     C96944   4.896   3.315   5.238  0.1081  0.7229 -0.3136
  703MOL0     H96945   5.252   2.932   5.010  0.3507  1.0928 -0.7125
  703MOL0     H96946   5.488   2.924   4.964 -1.4634 -1.6459  1.3992
  703MOL0     H96947   5.724   3.223   4.822 -0.4025  1.5001 -0.3934
  703MOL0     H96948   5.636   3.249   4.672 -2.0705  1.1574  2.0411
  703MOL0     H96949   5.796   3.043   4.569 -1.6582  1.6109  0.2892
  703MOL0     H96950   5.872   3.194   4.620  0.6274 -0.0137 -0.9935
  703MOL0     H96951   5.953   3.113   4.816 -0.8272  0.4626 -1.0293
  703MOL0     H96952   5.855   2.974   4.829  1.0592 -1.0319  1.1690
  703MOL0     H96953   5.980   2.877   4.632 -2.4355  0.1101  1.6343
  703MOL0     H96954   6.078   3.026   4.624  0.4505 -0.4158 -0.3184
  703MOL0     H96955   6.086   2.850   4.882  2.6183 -0.4645  0.7152
  703MOL0     H96956   6.139   3.017   4.855  0.5123  0.8726 -2.3129
  703MOL0     H96957   6.240   2.768   4.713  0.1235  0.7111  1.0596
  703MOL0     H96958   6.269   2.932   4.660 -0.7036 -1.9439 -2.0410
  703MOL0     H96959   6.317   2.833   4.956 -0.6473 -0.2410 -0.7449
  703MOL0     H96960   6.369   2.979   4.871 -2.7548  0.6178 -1.8444
  703MOL0     H96961   6.467   2.696   4.784 -2.6289  0.0821  0.3615
  703MOL0     H96962   6.527   2.850   4.737 -2.1123  1.2782 -0.4899
  703MOL0     H96963   6.580   2.988   5.022  0.3257 -0.1633  0.2948
  703MOL0     H96964   6.836   2.799   5.257  2.0176  2.7616  1.8416
  703MOL0     H96965   6.706   2.908   5.286  0.8331 -0.9910  0.2912
  703MOL0     H96966   6.811   3.086   5.146  0.8440 -0.5910 -0.9450
  703MOL0     H96967   6.937   3.008   5.248  2.9767 -4.8795 -0.5284
  703MOL0     H96968   6.975   2.863   5.025  2.0820  1.1348 -3.5090
  703MOL0     H96969   6.876   2.976   4.957 -2.0900 -0.4944  2.4246
  703MOL0     H96970   7.139   3.038   5.078 -1.9977 -0.1693  2.3234
  703MOL0     H96971   7.109   3.043   4.915 -0.2277 -1.6764 -0.1896
  703MOL0     H96972   6.956   3.427   4.995  0.0021 -2.0060  1.2015
  703MOL0     H96973   7.105   3.737   5.098 -2.6543  1.2703 -0.0798
  703MOL0     H96974   6.965   3.672   5.010 -0.2106  0.0719 -3.2015
  703MOL0     H96975   7.099   3.741   4.924  1.3920  2.0317  1.1662
  703MOL0     H96976   7.748   3.512   4.969  0.5206  0.2307  0.6249
  703MOL0     H96977   7.949   3.631   4.922 -0.9223  0.4376 -3.2635
  703MOL0     H96978   8.110   3.827   4.980  0.4027 -1.9954 -0.5313
  703MOL0     H96979   8.119   3.782   4.807  1.1417  1.2117 -0.6840
  703MOL0     H96980   8.161   4.016   4.740 -1.9808  0.9884  1.7547
  703MOL0     H96981   8.206   4.043   4.923  0.9930 -1.9789  2.1064
  703MOL0     H96982   8.335   3.879   4.704  1.0951 -0.4761  0.6420
  703MOL0     H96983   8.366   3.824   4.861 -1.8279 -1.0128 -0.9670
  703MOL0     H96984   8.453   4.055   4.927 -1.9809  2.0114 -1.0996
  703MOL0     H96985   8.457   4.088   4.757 -1.6023  1.7457  0.9374
  703MOL0     H96986   8.575   3.835   4.874 -1.0319 -1.9098 -3.6938
  703MOL0     H96987   8.607   3.876   4.711 -0.6764 -0.8898 -0.1125
  703MOL0     H96988   8.691   4.028   4.966  1.8455  0.1934  0.3538
  703MOL0     H96989   8.718   4.093   4.813  0.2807  0.3080  1.2079
  703MOL0     H96990   8.842   3.862   4.753 -0.2050  1.1924 -2.3849
  703MOL0     H96991   8.830   3.834   4.936 -0.7488  3.1671  1.9327
  703MOL0     H96992   8.957   4.078   4.814 -1.1837  0.4066  1.3018
  703MOL0     H96993   9.044   3.922   4.863 -1.2361 -1.0056 -0.0826
  703MOL0     H96994   7.726   3.996   4.865 -0.3346  0.3085 -0.1078
  703MOL0     H96995   7.518   3.873   4.911 -0.2705 -0.2892  1.2538
  703MOL0     H96996   7.435   3.375   5.007  0.0406  1.2335 -3.0582
  703MOL0     H96997   7.290   3.184   5.021 -0.5360  0.4787  3.3137
  703MOL0     H96998   5.436   3.197   4.640  1.4913  1.6769  2.0032
  703MOL0     H96999   5.184   3.232   4.708  0.4101  1.8594  1.7930
  703MOL0     H97000   4.840   3.055   4.839 -0.6755  1.0903 -1.7057
  703MOL0     H97001   4.621   3.117   4.822  0.7053 -2.6362  0.3312
  703MOL0     H97002   4.339   3.206   4.862 -0.4080  0.6615  0.5563
  703MOL0     H97003   4.395   3.086   4.987  0.4085  1.1720  1.6339
  703MOL0     H97004   4.205   3.318   5.032  0.2363  0.9494  0.4127
  703MOL0     H97005   4.271   3.232   5.161  0.8079 -0.2283 -1.0391
  703MOL0     H97006   4.030   3.147   5.110 -0.3881 -1.5569 -0.9251
  703MOL0     H97007   4.108   3.104   4.954  3.3857  1.5681 -1.3782
  703MOL0     H97008   4.227   2.925   5.045  0.2750  3.7357 -2.1203
  703MOL0     H97009   4.055   2.911   5.100  0.0798 -0.3242  1.1814
  703MOL0     H97010   4.242   2.978   5.471  1.8233  1.4332 -0.0548
  703MOL0     H97011   4.645   3.328   5.203 -1.5767 -3.9322  0.8322
  703MOL0     H97012   4.959   3.242   5.289 -2.7549 -1.0473  0.8881
  703MOL0     H97013   4.964   3.395   5.206  0.0723  1.3737  1.1663
  703MOL0     H97014   4.821   3.334   5.314 -0.4886 -0.3941 -0.6136
  704MOL0     O97015   1.097   1.379  10.213  0.3071  0.4216 -0.3155
  704MOL0     C97016   1.008   1.301  10.195 -0.1578 -0.1908 -0.5458
  704MOL0     O97017   1.022   1.182  10.121 -0.0172  0.5639 -0.2006
  704MOL0     C97018   1.142   1.163  10.061  0.3458  0.7844  0.1511
  704MOL0     C97019   1.140   1.147   9.918 -0.1104  0.4607  0.7061
  704MOL0     C97020   1.268   1.141   9.848 -0.6363 -0.0681  0.2559
  704MOL0     C97021   1.392   1.136   9.913 -0.0651 -0.4217  0.2729
  704MOL0     O97022   1.502   1.119   9.838 -0.6247 -0.8350  0.2573
  704MOL0     C97023   1.633   1.102   9.886 -0.3033 -0.2640 -0.4206
  704MOL0     C97024   1.693   1.245   9.899  0.1273  0.1103  0.1418
  704MOL0     C97025   1.836   1.233   9.952  0.4099  0.2826  0.5268
  704MOL0     C97026   1.936   1.338   9.926 -0.0079  1.0172 -0.1318
  704MOL0     C97027   2.078   1.281   9.963 -0.5680 -0.1745 -0.9949
  704MOL0     C97028   2.094   1.302  10.113  0.1830 -0.2666  0.3303
  704MOL0     C97029   2.228   1.234  10.163  0.0637 -0.5188  0.7425
  704MOL0     C97030   2.283   1.301  10.285  0.6364 -1.0471 -0.4032
  704MOL0     N97031   2.390   1.398  10.244 -0.0182 -0.3453 -0.2336
  704MOL0     C97032   2.368   1.528  10.211 -0.4088 -0.0443  0.2949
  704MOL0     C97033   2.483   1.589  10.175 -1.0795  0.0143  0.1373
  704MOL0     C97034   2.522   1.720  10.119  0.1191 -0.3586  0.0257
  704MOL0     C97035   2.599   1.698   9.993 -0.3746  0.2285  1.2782
  704MOL0     C97036   2.595   1.827   9.907 -0.1332  0.0085  0.0324
  704MOL0     C97037   2.712   1.844   9.814  0.5490  0.7530 -1.3912
  704MOL0     O97038   2.734   1.718   9.749 -0.4135  0.3021 -0.2986
  704MOL0     C97039   2.854   1.711   9.675  0.6981  0.6572 -0.8437
  704MOL0     C97040   2.872   1.585   9.608 -0.0691  0.9927 -0.1393
  704MOL0     C97041   2.980   1.567   9.523 -0.3904 -0.2574  0.1772
  704MOL0     C97042   2.998   1.427   9.464  0.4304  0.4736  0.0892
  704MOL0     C97043   3.063   1.679   9.491  0.3204  0.1383 -0.2477
  704MOL0     C97044   3.171   1.681   9.387  0.2636 -0.3778  0.0724
  704MOL0     O97045   3.240   1.562   9.350 -0.0625  0.1399  0.0605
  704MOL0     C97046   3.346   1.587   9.263 -0.2565 -0.5758 -0.4365
  704MOL0     C97047   3.474   1.557   9.306  0.2717  0.6612 -0.0466
  704MOL0     C97048   3.589   1.581   9.222  0.0376 -0.6838  0.9783
  704MOL0     C97049   3.572   1.633   9.090 -0.3195 -0.0709 -0.1579
  704MOL0     O97050   3.682   1.648   9.011 -0.3061  0.1369 -0.2721
  704MOL0     C97051   3.778   1.754   9.029  0.1564 -0.9823  0.1019
  704MOL0     C97052   3.888   1.719   9.126  0.2012 -0.4147  0.5090
  704MOL0     C97053   3.978   1.606   9.077  0.3585  0.8320  0.3895
  704MOL0     C97054   4.121   1.602   9.132 -0.1531 -0.3918 -0.3947
  704MOL0     C97055   4.194   1.476   9.092  0.0262  0.5338 -1.3641
  704MOL0     C97056   4.341   1.482   9.147  0.2550  0.9551 -0.6085
  704MOL0     C97057   4.422   1.355   9.119 -0.3134  0.7381  0.0461
  704MOL0     C97058   4.475   1.334   8.972  0.3192  0.5251 -0.8187
  704MOL0    Cl97059   4.569   1.178   8.987 -0.3355  0.1121  0.1626
  704MOL0     C97060   3.446   1.659   9.047  0.9386  0.1830  0.2503
  704MOL0     C97061   3.335   1.644   9.134  0.1597 -0.4477 -0.2216
  704MOL0     O97062   3.188   1.792   9.338 -0.0257 -0.0849 -0.0150
  704MOL0     C97063   3.038   1.801   9.562  0.2962 -0.5875  0.7640
  704MOL0     C97064   2.935   1.817   9.652  0.9549 -0.9717  0.3293
  704MOL0     N97065   2.581   1.490  10.198 -0.4170  0.4762  0.1086
  704MOL0     N97066   2.524   1.378  10.226  0.4400 -0.4577  0.2531
  704MOL0     C97067   1.394   1.142  10.052  0.2035  0.2158 -0.0413
  704MOL0     C97068   1.276   1.153  10.125  0.1783  0.7526  0.2825
  704MOL0     C97069   0.885   1.336  10.265  0.7251  0.6333 -0.2920
  704MOL0     C97070   0.870   1.472  10.319  0.4959 -0.2657  0.5163
  704MOL0     C97071   0.756   1.507  10.387  0.2265 -0.0656  0.3958
  704MOL0     C97072   0.655   1.416  10.418  0.3104 -0.8901  0.4000
  704MOL0     O97073   0.551   1.461  10.491 -0.3537  0.8834 -0.2263
  704MOL0     C97074   0.496   1.367  10.583  0.4700 -0.3068 -0.2513
  704MOL0     C97075   0.593   1.328  10.705  0.3726 -0.1840 -0.1883
  704MOL0     C97076   0.653   1.453  10.778 -0.4777 -0.8510 -0.0617
  704MOL0     C97077   0.773   1.412  10.853  0.3454  0.3804  0.3065
  704MOL0     C97078   0.877   1.374  10.763  0.4581  0.8650  0.1740
  704MOL0     C97079   0.968   1.351  10.692 -0.1758 -0.5249  0.5783
  704MOL0     C97080   0.671   1.286  10.360 -0.0383 -0.4422 -0.6666
  704MOL0     C97081   0.776   1.252  10.279  1.3991  0.5609 -0.4741
  704MOL0     C97082   0.757   1.125  10.211 -0.2035 -0.3113  0.4773
  704MOL0     H97083   1.048   1.135   9.861  0.5396  0.9062 -0.4836
  704MOL0     H97084   1.247   1.120   9.744 -2.3287 -1.8182  0.8886
  704MOL0     H97085   1.686   1.040   9.814  1.7423  0.1181  0.6815
  704MOL0     H97086   1.642   1.052   9.983  0.3291  1.3883  0.4278
  704MOL0     H97087   1.687   1.283   9.797 -0.1540 -2.1220 -0.7257
  704MOL0     H97088   1.632   1.298   9.974  0.4195 -2.3935  2.2908
  704MOL0     H97089   1.843   1.215  10.060 -0.3342  2.4307  1.0042
  704MOL0     H97090   1.870   1.146   9.896  0.6212 -0.8983  2.3866
  704MOL0     H97091   1.934   1.358   9.819  0.9475  3.5113  0.2371
  704MOL0     H97092   1.902   1.431   9.973 -3.4129  0.4536 -1.2434
  704MOL0     H97093   2.162   1.325   9.909 -0.4516 -1.3332 -1.8032
  704MOL0     H97094   2.089   1.174   9.941  0.7270 -0.9417  2.7111
  704MOL0     H97095   2.094   1.411  10.121  0.2708  0.0747 -2.9380
  704MOL0     H97096   2.011   1.257  10.168 -1.0624 -1.5895 -2.4034
  704MOL0     H97097   2.291   1.252  10.075 -0.4240  0.3768  0.5663
  704MOL0     H97098   2.209   1.130  10.193 -0.6864 -0.4909  0.3808
  704MOL0     H97099   2.202   1.341  10.346  0.6976 -2.2733  0.5204
  704MOL0     H97100   2.332   1.225  10.347  0.6191  1.1224  2.4552
  704MOL0     H97101   2.271   1.577  10.205  0.0581  0.7268 -2.1707
  704MOL0     H97102   2.587   1.767  10.194  0.6707 -1.3162  0.1727
  704MOL0     H97103   2.430   1.775  10.100  1.1932  1.4544 -0.1496
  704MOL0     H97104   2.702   1.663  10.005 -0.1318  0.1119 -0.8719
  704MOL0     H97105   2.545   1.618   9.942 -2.8203  1.6116  1.5039
  704MOL0     H97106   2.502   1.833   9.849  0.5279  0.5344 -1.0012
  704MOL0     H97107   2.583   1.911   9.976  1.6837  1.2658 -1.1141
  704MOL0     H97108   2.704   1.931   9.748  1.7873  2.6325  0.7691
  704MOL0     H97109   2.801   1.854   9.877 -1.0649 -1.1124  1.4334
  704MOL0     H97110   2.796   1.509   9.623  0.1078  0.4649 -1.7876
  704MOL0     H97111   2.999   1.413   9.356  0.6912 -3.1030  0.4432
  704MOL0     H97112   2.922   1.357   9.500 -1.5898  2.2778 -0.4435
  704MOL0     H97113   3.096   1.390   9.494  0.3606 -0.5412 -0.8503
  704MOL0     H97114   3.483   1.501   9.398  0.2551  0.9166  0.1115
  704MOL0     H97115   3.686   1.544   9.253  0.1723 -0.7840  0.4508
  704MOL0     H97116   3.821   1.782   8.932  2.4246 -0.5083  1.1860
  704MOL0     H97117   3.734   1.846   9.067  2.7512  2.0799 -3.5342
  704MOL0     H97118   3.948   1.809   9.141  0.3726 -0.6741  1.5145
  704MOL0     H97119   3.855   1.696   9.228  0.6990  2.9157  1.5287
  704MOL0     H97120   3.965   1.606   8.968  0.3846 -0.0534  0.3720
  704MOL0     H97121   3.937   1.507   9.100  2.2311 -0.4382 -1.3291
  704MOL0     H97122   4.129   1.623   9.239  2.3451 -2.6320 -0.0492
  704MOL0     H97123   4.189   1.674   9.085 -0.4277  0.3334  0.2808
  704MOL0     H97124   4.142   1.388   9.131 -0.9360  0.9966 -1.5763
  704MOL0     H97125   4.199   1.455   8.984  1.0965 -1.2681 -1.0049
  704MOL0     H97126   4.341   1.476   9.256 -0.5807 -0.6816 -0.6529
  704MOL0     H97127   4.391   1.573   9.113  2.2662 -0.0788 -0.5390
  704MOL0     H97128   4.376   1.261   9.150 -0.2658 -0.5674 -3.3808
  704MOL0     H97129   4.513   1.368   9.178  1.2395 -1.9237 -1.5785
  704MOL0     H97130   4.532   1.423   8.941  1.3275  0.2435  0.1535
  704MOL0     H97131   4.386   1.320   8.911 -1.6851 -0.6349  2.1470
  704MOL0     H97132   3.435   1.693   8.944  0.1538  1.3121  0.6828
  704MOL0     H97133   3.235   1.668   9.101 -0.4881 -2.3466  0.2127
  704MOL0     H97134   3.096   1.892   9.554 -1.5925  0.6838  0.7453
  704MOL0     H97135   2.917   1.911   9.704 -3.4146 -1.5019  0.1846
  704MOL0     H97136   1.477   1.152  10.122 -0.1725 -0.8856  0.5934
  704MOL0     H97137   1.280   1.182  10.229 -0.7446  4.6427 -0.6145
  704MOL0     H97138   0.946   1.545  10.293  1.7047 -1.4102  0.7443
  704MOL0     H97139   0.748   1.603  10.437  0.8735  0.5221 -0.5837
  704MOL0     H97140   0.406   1.410  10.628  1.1591 -0.9135  1.8085
  704MOL0     H97141   0.467   1.272  10.536  0.3090 -0.6863  0.5953
  704MOL0     H97142   0.671   1.274  10.650 -0.1588  0.7609 -1.9280
  704MOL0     H97143   0.534   1.261  10.768 -1.3247  0.6865 -0.7805
  704MOL0     H97144   0.685   1.531  10.708  0.3563 -0.7988  0.3629
  704MOL0     H97145   0.575   1.494  10.841 -0.9699 -1.1625 -0.4586
  704MOL0     H97146   0.747   1.327  10.917 -0.4404  2.2051  2.5463
  704MOL0     H97147   0.810   1.492  10.918  0.7447  0.9444 -0.6056
  704MOL0     H97148   1.048   1.328  10.624 -0.7919 -1.0125 -0.0007
  704MOL0     H97149   0.584   1.227  10.387  0.9883 -1.5272  0.4426
  704MOL0     H97150   0.776   1.129  10.103 -4.1739 -1.3347 -0.4069
  704MOL0     H97151   0.830   1.053  10.250  0.4295 -1.0019 -1.7982
  704MOL0     H97152   0.656   1.085  10.221  0.5031 -2.5024 -0.4049
  705MOL0     O97153  10.870   1.353   9.736  0.2584 -0.2972  0.2497
  705MOL0     C97154  10.893   1.399   9.848  0.1941 -0.2688  0.4951
  705MOL0     O97155  10.996   1.360   9.926  0.0451  0.2075  0.2334
  705MOL0     C97156  11.078   1.251   9.905  0.4364 -1.0348 -0.2000
  705MOL0     C97157  11.105   1.185   9.793 -0.0136  0.6894  0.5380
  705MOL0     C97158  11.203   1.082   9.790 -0.2417  0.3815  0.4619
  705MOL0     C97159  11.254   1.041   9.908 -0.3360  0.4322 -0.6228
  705MOL0     O97160  11.325   0.918   9.910 -0.4299 -0.2892  0.0347
  705MOL0     C97161  11.459   0.921   9.968  0.9224  0.6137  0.7010
  705MOL0     C97162  11.524   0.786   9.926  0.4992  0.2515  0.8813
  705MOL0     C97163  11.561   0.796   9.773 -0.6470 -0.2320  0.1247
  705MOL0     C97164  11.628   0.663   9.717 -0.3834  0.4332  1.0264
  705MOL0     C97165  11.767   0.640   9.778 -0.4800 -0.4431  0.2341
  705MOL0     C97166  11.839   0.529   9.705 -0.6780 -0.4092 -0.6044
  705MOL0     C97167  11.989   0.553   9.723  0.8147 -0.4864 -0.4131
  705MOL0     C97168  12.042   0.475   9.845  0.1050 -0.3339  0.9249
  705MOL0     N97169  12.024   0.330   9.836  0.4785  0.2789 -0.1163
  705MOL0     C97170  12.000   0.238   9.934  0.4111 -0.6541  0.2079
  705MOL0     C97171  12.006   0.114   9.881 -0.0224  0.3186  0.4841
  705MOL0     C97172  11.978  -0.013   9.957  1.4346 -0.2369  1.2478
  705MOL0     C97173  12.108  -0.058  10.017 -0.0991 -0.6698 -0.4503
  705MOL0     C97174  12.176   0.046  10.108  0.5639 -0.2913  0.0819
  705MOL0     C97175  12.295  -0.011  10.188 -0.1670 -0.1363 -0.6561
  705MOL0     O97176  12.394  -0.078  10.106  0.4872  0.4066  0.0675
  705MOL0     C97177  12.451   0.007  10.016 -0.6793  0.7914  0.1787
  705MOL0     C97178  12.474   0.139  10.024 -0.0046 -0.2621  0.9349
  705MOL0     C97179  12.547   0.216   9.931  0.1723  1.0719 -0.4022
  705MOL0     C97180  12.557   0.360   9.942 -0.0261 -0.3347  1.1688
  705MOL0     C97181  12.626   0.142   9.844 -0.5690 -0.3613  0.3268
  705MOL0     C97182  12.739   0.196   9.749 -0.2742  0.2920 -0.2864
  705MOL0     O97183  12.781   0.115   9.653  0.7715 -0.3825 -0.0725
  705MOL0     C97184  12.849   0.162   9.539 -0.5912  0.0432  0.7796
  705MOL0     C97185  12.897   0.068   9.457 -0.1395 -0.0435  0.1538
  705MOL0     C97186  12.962   0.100   9.334 -1.1653 -0.2842 -0.4582
  705MOL0     C97187  12.982   0.234   9.296 -0.1120 -0.1375  0.2309
  705MOL0     O97188  13.041   0.261   9.175  0.0021 -0.7868 -0.2538
  705MOL0     C97189  13.087   0.389   9.137 -0.8953 -0.5278  0.7893
  705MOL0     C97190  13.141   0.397   8.994 -0.0832 -0.2075  0.0939
  705MOL0     C97191  13.225   0.276   8.937  0.1222 -0.2043 -1.4885
  705MOL0     C97192  13.277   0.307   8.801  0.0339 -0.0264 -0.5724
  705MOL0     C97193  13.377   0.204   8.742 -0.0064 -0.3760 -0.1263
  705MOL0     C97194  13.523   0.214   8.808 -0.3798  0.2514  0.5021
  705MOL0     C97195  13.598   0.339   8.751  0.2747  0.4093  0.5400
  705MOL0     C97196  13.753   0.329   8.748 -0.1172  0.3116 -0.6601
  705MOL0    Cl97197  13.813   0.219   8.613 -0.2576  0.1231 -0.1513
  705MOL0     C97198  12.928   0.332   9.382 -0.1838  0.5776  0.6903
  705MOL0     C97199  12.863   0.295   9.499  0.0808 -0.5619  0.2587
  705MOL0     O97200  12.793   0.307   9.776 -0.0691 -0.4756  0.1658
  705MOL0     C97201  12.602   0.003   9.821 -0.6572 -0.5517  0.1171
  705MOL0     C97202  12.509  -0.060   9.905 -0.0223 -0.0763  0.0198
  705MOL0     N97203  12.028   0.133   9.748 -0.2438 -0.4201  0.0151
  705MOL0     N97204  12.044   0.257   9.720  0.3609 -0.4307  0.0929
  705MOL0     C97205  11.228   1.111  10.023 -0.2618  0.3016  0.6341
  705MOL0     C97206  11.141   1.217  10.023 -0.0052  1.1170 -0.2886
  705MOL0     C97207  10.790   1.482   9.928 -0.0795  0.5190  0.0380
  705MOL0     C97208  10.834   1.534  10.058 -0.5599  0.8941 -0.7335
  705MOL0     C97209  10.742   1.609  10.123 -0.8161 -0.4964 -0.4434
  705MOL0     C97210  10.613   1.626  10.090 -0.3660 -0.6801 -0.7772
  705MOL0     O97211  10.514   1.703  10.160  0.3060 -0.7447  0.5492
  705MOL0     C97212  10.554   1.719  10.293 -0.5587  0.1898  1.3129
  705MOL0     C97213  10.445   1.777  10.367 -0.7147  0.3875 -0.5871
  705MOL0     C97214  10.323   1.684  10.388 -0.8546  0.1145  0.6558
  705MOL0     C97215  10.208   1.750  10.472  0.0144  0.4391  0.2067
  705MOL0     C97216  10.111   1.644  10.498  0.3730 -0.6592 -0.7050
  705MOL0     C97217  10.024   1.564  10.543  0.1012 -0.3785  0.6069
  705MOL0     C97218  10.566   1.568   9.967 -0.1679 -0.6009  0.5400
  705MOL0     C97219  10.662   1.505   9.887 -0.1807  0.2922  0.4359
  705MOL0     C97220  10.605   1.442   9.759 -0.6243 -0.2624  0.1569
  705MOL0     H97221  11.067   1.213   9.695  0.9221  0.0838 -0.0234
  705MOL0     H97222  11.222   1.030   9.697 -0.5986 -1.3850  1.3246
  705MOL0     H97223  11.448   0.918  10.077  1.2031 -2.3390  0.7406
  705MOL0     H97224  11.526   1.001   9.936 -0.4149  1.2922 -0.5248
  705MOL0     H97225  11.616   0.774   9.984  0.6631 -1.2021  0.3634
  705MOL0     H97226  11.460   0.699   9.941  1.2922 -0.9076 -1.8592
  705MOL0     H97227  11.471   0.805   9.711 -0.6259 -0.1325  0.1091
  705MOL0     H97228  11.630   0.879   9.757  0.8861 -1.2312  1.1955
  705MOL0     H97229  11.569   0.571   9.723  0.0909 -0.0057 -0.5907
  705MOL0     H97230  11.640   0.662   9.608  0.3573 -0.7304  1.0899
  705MOL0     H97231  11.759   0.612   9.883  4.1757  0.4278  1.0266
  705MOL0     H97232  11.810   0.740   9.769  1.4561 -1.3082 -0.7740
  705MOL0     H97233  11.811   0.428   9.736 -2.5763 -0.5714 -2.5661
  705MOL0     H97234  11.816   0.533   9.598  1.8661  0.3337 -1.1914
  705MOL0     H97235  12.019   0.657   9.735 -2.9468  0.5582  1.2904
  705MOL0     H97236  12.046   0.524   9.633  4.5210  1.0018  1.2280
  705MOL0     H97237  12.145   0.501   9.868  0.0129  0.4839  0.4531
  705MOL0     H97238  11.977   0.511   9.926  0.7764 -1.1000  1.8181
  705MOL0     H97239  11.983   0.269  10.037 -1.0983  0.4331 -0.3232
  705MOL0     H97240  11.936  -0.092   9.894 -2.3116  0.1856  2.9633
  705MOL0     H97241  11.899  -0.003  10.032 -1.3226 -0.4335 -1.4504
  705MOL0     H97242  12.099  -0.161  10.052  2.0274 -0.5317  0.7094
  705MOL0     H97243  12.172  -0.079   9.931  2.9991 -2.9223  2.1334
  705MOL0     H97244  12.211   0.139  10.064  2.1097 -1.6521 -1.7617
  705MOL0     H97245  12.096   0.072  10.178 -0.3526  1.4740 -1.5388
  705MOL0     H97246  12.334   0.077  10.238  1.2364 -0.0623 -1.8004
  705MOL0     H97247  12.274  -0.088  10.263  0.0028 -1.1517 -1.6246
  705MOL0     H97248  12.429   0.191  10.109  0.6956 -0.6876  1.5779
  705MOL0     H97249  12.655   0.400   9.970  0.5999 -0.2082 -1.0550
  705MOL0     H97250  12.466   0.391   9.995  0.1780 -1.6076  2.3285
  705MOL0     H97251  12.533   0.407   9.846 -5.2336 -1.7895  1.4857
  705MOL0     H97252  12.862  -0.032   9.481 -1.2386 -0.4237 -2.6247
  705MOL0     H97253  12.992   0.021   9.266  0.1984 -0.1961  0.0142
  705MOL0     H97254  13.003   0.458   9.151 -0.1086  0.9084 -1.1725
  705MOL0     H97255  13.169   0.417   9.203  1.4000 -1.8612 -1.3320
  705MOL0     H97256  13.051   0.414   8.934 -0.6008 -0.7526  0.6916
  705MOL0     H97257  13.204   0.484   8.977 -1.0826  0.3835 -0.6563
  705MOL0     H97258  13.159   0.190   8.940  0.0244 -0.1291  1.4821
  705MOL0     H97259  13.297   0.261   9.018 -1.9648  0.2750  0.5570
  705MOL0     H97260  13.306   0.412   8.789  0.8956 -0.3694 -1.7853
  705MOL0     H97261  13.192   0.296   8.733 -0.4579  2.4712 -0.4826
  705MOL0     H97262  13.332   0.104   8.744 -1.9358  0.4527 -0.7827
  705MOL0     H97263  13.385   0.232   8.637  1.1640 -2.4557 -0.6570
  705MOL0     H97264  13.573   0.123   8.775  0.4881  0.3932  1.3478
  705MOL0     H97265  13.512   0.216   8.917 -1.5252  0.1118  0.4011
  705MOL0     H97266  13.575   0.430   8.807 -3.8939  0.6502 -1.1265
  705MOL0     H97267  13.553   0.348   8.651 -2.4930  0.4925  1.6843
  705MOL0     H97268  13.778   0.267   8.835 -3.4609 -2.6319 -1.5298
  705MOL0     H97269  13.806   0.425   8.749 -0.3902  0.5432  2.6930
  705MOL0     H97270  12.933   0.434   9.346  0.0761  0.2973 -0.0943
  705MOL0     H97271  12.824   0.381   9.553 -0.5341 -0.6330 -0.0642
  705MOL0     H97272  12.642  -0.058   9.741 -1.2265  0.4895 -1.0039
  705MOL0     H97273  12.484  -0.164   9.888 -2.7808  0.6212 -0.6928
  705MOL0     H97274  11.290   1.086  10.109  1.5373 -1.3626 -1.0501
  705MOL0     H97275  11.118   1.254  10.122  0.9394 -0.0140  0.3737
  705MOL0     H97276  10.933   1.505  10.093 -0.5497  2.7325  0.9315
  705MOL0     H97277  10.782   1.648  10.216 -2.3490  2.5956 -0.9674
  705MOL0     H97278  10.576   1.628  10.349 -0.1307 -1.4832 -1.3987
  705MOL0     H97279  10.634   1.793  10.294  1.1168 -1.2840 -2.7161
  705MOL0     H97280  10.416   1.875  10.326  0.7174  2.8683  3.7132
  705MOL0     H97281  10.483   1.797  10.467 -2.8662  1.4933  0.0740
  705MOL0     H97282  10.289   1.663  10.286  0.2277 -1.8093  0.6384
  705MOL0     H97283  10.364   1.596  10.439  0.6255  0.2611 -0.2133
  705MOL0     H97284  10.164   1.830  10.411  0.3902  0.1897 -0.4005
  705MOL0     H97285  10.243   1.792  10.566 -0.3375  0.3694  0.3729
  705MOL0     H97286   9.950   1.494  10.574 -1.1970  1.2692  1.4172
  705MOL0     H97287  10.468   1.602   9.934  0.8662  0.7232 -1.3459
  705MOL0     H97288  10.496   1.442   9.763 -0.9679  5.9108 -0.5131
  705MOL0     H97289  10.633   1.503   9.673  2.4963 -0.2277  1.0844
  705MOL0     H97290  10.630   1.337   9.739 -0.6510 -0.1291 -0.6085
  706MOL0     O97291   6.430   3.800  10.839  0.5041 -0.1590  0.4932
  706MOL0     C97292   6.434   3.918  10.865  0.8972  0.9052  0.6770
  706MOL0     O97293   6.541   3.978  10.927  0.0196  0.1359 -0.3796
  706MOL0     C97294   6.635   3.910  11.000  0.1594  0.6154 -0.0326
  706MOL0     C97295   6.759   3.974  11.016 -0.6208  0.2613  0.8954
  706MOL0     C97296   6.858   3.914  11.085  0.0756  0.3026 -0.5488
  706MOL0     C97297   6.846   3.787  11.134  0.0786  0.3310 -0.8350
  706MOL0     O97298   6.951   3.730  11.211 -0.4127  0.2902  0.2711
  706MOL0     C97299   6.998   3.599  11.186 -0.6636 -0.1235 -0.4450
  706MOL0     C97300   7.101   3.563  11.296  0.5112  0.6642 -0.5259
  706MOL0     C97301   7.238   3.614  11.277  0.0277 -0.2045 -0.1986
  706MOL0     C97302   7.346   3.557  11.378 -0.2224 -0.8210  0.4306
  706MOL0     C97303   7.463   3.489  11.308  0.8026  0.3930 -0.0855
  706MOL0     C97304   7.560   3.416  11.404  1.0889  0.7800  0.5123
  706MOL0     C97305   7.637   3.507  11.493  0.1250  0.1046  0.1930
  706MOL0     C97306   7.738   3.418  11.563  0.1167  0.2268  0.4368
  706MOL0     N97307   7.685   3.314  11.656  0.3328 -0.4629  0.6045
  706MOL0     C97308   7.688   3.181  11.627  0.6999  0.9471  0.1411
  706MOL0     C97309   7.636   3.131  11.742  0.1049  0.7582 -0.2671
  706MOL0     C97310   7.625   2.985  11.767 -0.9656  0.6478 -0.4179
  706MOL0     C97311   7.764   2.928  11.793  0.0433 -1.3732  0.2737
  706MOL0     C97312   7.756   2.777  11.793  1.2564 -0.4524  0.7264
  706MOL0     C97313   7.668   2.714  11.901  0.6252 -0.3080 -0.3858
  706MOL0     O97314   7.728   2.744  12.034 -0.8170 -0.3114  0.3301
  706MOL0     C97315   7.631   2.748  12.133  1.0940  0.3157  0.5408
  706MOL0     C97316   7.665   2.782  12.257  0.0561  0.2609 -0.0449
  706MOL0     C97317   7.572   2.788  12.364  0.3873 -0.3579 -0.2482
  706MOL0     C97318   7.635   2.839  12.494  0.6846  0.7998  0.2839
  706MOL0     C97319   7.433   2.765  12.345 -0.1510  0.1594  0.8206
  706MOL0     C97320   7.346   2.741  12.459  0.1722 -0.2828 -0.2301
  706MOL0     O97321   7.210   2.749  12.431 -0.2052  0.4113 -0.1910
  706MOL0     C97322   7.137   2.750  12.544  0.2507 -0.8766 -0.4190
  706MOL0     C97323   7.051   2.648  12.570 -0.8275  0.3860 -0.8382
  706MOL0     C97324   6.979   2.646  12.689 -0.3335 -0.4704 -0.9655
  706MOL0     C97325   6.981   2.757  12.778  0.5268 -0.6980 -0.8867
  706MOL0     O97326   6.909   2.747  12.891 -0.9047  0.4338  0.4955
  706MOL0     C97327   6.869   2.874  12.948 -0.2176  0.3172 -0.1197
  706MOL0     C97328   6.780   2.859  13.074  0.0573 -0.5430 -0.8903
  706MOL0     C97329   6.834   2.783  13.195 -0.0483 -0.3816 -0.3528
  706MOL0     C97330   6.731   2.785  13.314  0.2970 -0.4096  0.0358
  706MOL0     C97331   6.781   2.707  13.431 -0.2660 -0.0527  0.3779
  706MOL0     C97332   6.690   2.601  13.478 -0.7017 -0.2760 -0.2490
  706MOL0     C97333   6.660   2.485  13.379 -0.6583  0.1741  0.5479
  706MOL0     C97334   6.661   2.346  13.445 -0.7110 -1.1268  0.1083
  706MOL0    Cl97335   6.572   2.349  13.610 -0.1815  0.1538 -0.2972
  706MOL0     C97336   7.070   2.865  12.753  0.1116  0.2057  0.4917
  706MOL0     C97337   7.151   2.861  12.639  0.4150  0.3774  0.5866
  706MOL0     O97338   7.391   2.705  12.568  0.8668  0.3416  0.4175
  706MOL0     C97339   7.397   2.719  12.224 -0.7702 -0.4023  0.2916
  706MOL0     C97340   7.496   2.718  12.120  0.3977  0.5515 -0.8526
  706MOL0     N97341   7.580   3.230  11.819  0.5894  0.6576  0.1809
  706MOL0     N97342   7.617   3.344  11.766 -0.6297  0.1210 -0.1434
  706MOL0     C97343   6.725   3.722  11.128  0.4083 -0.2104 -0.2415
  706MOL0     C97344   6.618   3.785  11.061 -0.2003 -0.2164  0.1115
  706MOL0     C97345   6.320   4.007  10.825 -0.1379  1.0001 -0.4273
  706MOL0     C97346   6.343   4.141  10.801 -0.3853 -1.0242 -0.0943
  706MOL0     C97347   6.244   4.221  10.746  0.7896 -0.3485  0.4575
  706MOL0     C97348   6.122   4.167  10.701 -0.0695  0.4520  0.8189
  706MOL0     O97349   6.046   4.255  10.634  0.1099 -0.3021  0.3366
  706MOL0     C97350   5.935   4.208  10.559  0.0526 -0.0857  0.7363
  706MOL0     C97351   5.965   4.107  10.444  0.8469 -0.6682  0.1810
  706MOL0     C97352   6.047   4.159  10.328  0.4146  0.4201  0.2726
  706MOL0     C97353   6.034   4.073  10.202 -0.1491 -0.0262 -0.3567
  706MOL0     C97354   6.095   4.137  10.086 -0.1806 -0.6168 -0.0011
  706MOL0     C97355   6.147   4.174   9.980  0.4094 -1.0481 -0.5439
  706MOL0     C97356   6.097   4.034  10.733  0.5389  0.4452 -0.1191
  706MOL0     C97357   6.189   3.955  10.803  0.1712  0.5165 -0.3837
  706MOL0     C97358   6.138   3.813  10.843  0.6307 -0.9167  0.0992
  706MOL0     H97359   6.787   4.063  10.961  2.4113 -2.7004 -2.9972
  706MOL0     H97360   6.960   3.951  11.083  0.9865 -1.9819  0.1932
  706MOL0     H97361   7.042   3.579  11.088 -2.6341 -1.7047 -1.0774
  706MOL0     H97362   6.906   3.540  11.196 -0.8065  0.4738  2.6679
  706MOL0     H97363   7.068   3.593  11.395  1.8436 -0.3648  0.2654
  706MOL0     H97364   7.112   3.454  11.291  0.8007  0.4389  2.7784
  706MOL0     H97365   7.255   3.595  11.171  0.8821 -1.8725  0.2010
  706MOL0     H97366   7.250   3.723  11.287  1.1756 -0.2329 -1.0959
  706MOL0     H97367   7.377   3.632  11.451  0.1421 -1.4537  0.9315
  706MOL0     H97368   7.289   3.482  11.434  0.3569  0.0331  2.2183
  706MOL0     H97369   7.523   3.567  11.260  1.4678 -1.1902 -1.9727
  706MOL0     H97370   7.414   3.432  11.228  0.3856  0.4936  0.0976
  706MOL0     H97371   7.493   3.353  11.463 -1.5671  1.3001 -1.7113
  706MOL0     H97372   7.629   3.358  11.342  0.0687  0.7594 -0.6538
  706MOL0     H97373   7.573   3.553  11.569 -0.7781  0.1677 -0.5856
  706MOL0     H97374   7.692   3.583  11.438  1.3818 -0.3678  0.7475
  706MOL0     H97375   7.814   3.374  11.499 -1.6764 -0.4041 -1.3673
  706MOL0     H97376   7.785   3.494  11.626 -3.0668  1.7966  1.1456
  706MOL0     H97377   7.736   3.126  11.548  1.2035  1.4462  0.0912
  706MOL0     H97378   7.581   2.943  11.676 -0.0248 -0.2408 -0.4743
  706MOL0     H97379   7.562   2.969  11.855  1.0108  1.7120  1.2919
  706MOL0     H97380   7.840   2.966  11.725 -1.3724 -0.5766 -0.9388
  706MOL0     H97381   7.786   2.963  11.894 -0.9403  0.1211  0.0148
  706MOL0     H97382   7.727   2.741  11.693  3.2565  0.6828 -0.3279
  706MOL0     H97383   7.855   2.735  11.812  1.0799 -0.4849  1.5715
  706MOL0     H97384   7.566   2.746  11.880  0.7251 -0.3884 -1.0317
  706MOL0     H97385   7.666   2.605  11.891 -0.1971 -0.3496  0.1662
  706MOL0     H97386   7.768   2.812  12.274 -0.2592  0.6720  1.2320
  706MOL0     H97387   7.637   2.758  12.567  0.6294 -2.6595 -3.2157
  706MOL0     H97388   7.578   2.923  12.534 -0.4080  0.4454 -0.4765
  706MOL0     H97389   7.742   2.865  12.491  1.0599 -0.7536 -0.7288
  706MOL0     H97390   7.061   2.566  12.499 -0.5905 -1.3731  1.1436
  706MOL0     H97391   6.935   2.551  12.718 -3.0666  0.7138 -0.9420
  706MOL0     H97392   6.958   2.922  12.990  0.9864 -0.7125 -1.3990
  706MOL0     H97393   6.820   2.939  12.875 -1.0139 -3.8322 -3.6699
  706MOL0     H97394   6.747   2.957  13.112  3.2944 -0.3734  1.9223
  706MOL0     H97395   6.687   2.812  13.040 -2.0011  3.3543 -1.3377
  706MOL0     H97396   6.926   2.829  13.231 -0.7279  0.5922  0.2019
  706MOL0     H97397   6.844   2.676  13.175 -0.1217 -0.6731  1.0306
  706MOL0     H97398   6.629   2.749  13.296  1.1269 -1.2212 -3.8107
  706MOL0     H97399   6.711   2.891  13.332  0.1867  0.3515 -3.8505
  706MOL0     H97400   6.885   2.678  13.413  0.0676  1.5364 -0.4073
  706MOL0     H97401   6.786   2.779  13.513  3.9375  0.1814  0.1346
  706MOL0     H97402   6.599   2.656  13.503  1.1813  2.0168  2.1673
  706MOL0     H97403   6.731   2.560  13.571 -0.3711 -0.8125 -0.6297
  706MOL0     H97404   6.733   2.477  13.298  0.5951 -2.6623  1.8299
  706MOL0     H97405   6.561   2.503  13.336 -0.0338  4.1046  0.3812
  706MOL0     H97406   6.768   2.321  13.445 -0.2765  0.5459  1.1762
  706MOL0     H97407   6.604   2.274  13.386 -1.2896 -0.7921  0.2475
  706MOL0     H97408   7.085   2.949  12.820 -0.8922 -0.9844  2.3241
  706MOL0     H97409   7.221   2.939  12.609  1.2785 -0.2352  0.9507
  706MOL0     H97410   7.305   2.662  12.225 -1.2346  0.2551  3.1120
  706MOL0     H97411   7.451   2.685  12.027  3.3712 -1.4519 -1.7059
  706MOL0     H97412   6.714   3.631  11.185  0.7912 -0.1938 -0.1421
  706MOL0     H97413   6.517   3.746  11.062 -0.5373  0.5359 -1.1107
  706MOL0     H97414   6.440   4.181  10.829 -0.6926  2.0634 -2.8972
  706MOL0     H97415   6.269   4.324  10.725  1.7911 -0.6653  0.0236
  706MOL0     H97416   5.869   4.160  10.632 -0.7923 -0.9436 -0.5412
  706MOL0     H97417   5.877   4.289  10.513 -0.1866  0.0933  1.3442
  706MOL0     H97418   5.871   4.083  10.395  0.9731  0.5688 -0.7045
  706MOL0     H97419   6.002   4.014  10.490 -0.6216 -1.4516 -0.1731
  706MOL0     H97420   6.016   4.260  10.302  0.1316  0.5666  1.1390
  706MOL0     H97421   6.151   4.163  10.361  1.0245 -1.0193 -1.3296
  706MOL0     H97422   5.929   4.054  10.176 -1.1528  1.2263  2.2936
  706MOL0     H97423   6.084   3.977  10.215  1.7700  0.9415 -0.3578
  706MOL0     H97424   6.199   4.175   9.886 -1.0652 -0.5285 -1.3861
  706MOL0     H97425   5.998   3.998  10.709  1.0165 -2.1581  1.4172
  706MOL0     H97426   6.203   3.734  10.802  1.2381 -1.4369  1.9550
  706MOL0     H97427   6.161   3.811  10.950 -0.5797 -1.9474  0.3676
  706MOL0     H97428   6.031   3.795  10.830  0.3416  1.2478 -0.7960
  707MOL0     O97429   0.827   9.115   3.956 -0.3260  0.7026 -0.5006
  707MOL0     C97430   0.806   9.238   3.962 -0.1625 -0.8126  0.2459
  707MOL0     O97431   0.896   9.340   3.942 -0.3631 -0.6871  0.1449
  707MOL0     C97432   1.017   9.298   3.902 -0.8345  0.2764  0.8390
  707MOL0     C97433   1.081   9.349   3.787 -0.6223 -0.5921 -0.4807
  707MOL0     C97434   1.215   9.308   3.745  0.8782 -0.0258 -1.1104
  707MOL0     C97435   1.283   9.214   3.814 -0.4143 -0.3419  0.5436
  707MOL0     O97436   1.412   9.200   3.766  0.3126  0.6372  0.6494
  707MOL0     C97437   1.493   9.089   3.800  0.4005  0.3839  0.5579
  707MOL0     C97438   1.626   9.074   3.715 -0.1626 -0.5903  0.0107
  707MOL0     C97439   1.721   8.955   3.766  0.5127 -0.9075  0.1557
  707MOL0     C97440   1.855   8.942   3.678 -0.0811  0.3852  0.3490
  707MOL0     C97441   1.942   8.836   3.748  0.4870  0.3834 -0.1975
  707MOL0     C97442   2.091   8.828   3.721 -0.2972  0.3340  0.0389
  707MOL0     C97443   2.179   8.953   3.760 -0.0961 -0.0439  0.5728
  707MOL0     C97444   2.185   8.976   3.914 -0.7004  0.5841 -0.4378
  707MOL0     N97445   2.290   9.076   3.936  0.6147  0.1927 -0.1521
  707MOL0     C97446   2.276   9.209   3.922 -0.4799  0.0119 -0.2844
  707MOL0     C97447   2.395   9.263   3.965  0.3103  0.4213  0.6616
  707MOL0     C97448   2.427   9.409   3.967  0.0518  0.2082  0.3119
  707MOL0     C97449   2.343   9.474   4.073 -0.3131  0.2730  0.3891
  707MOL0     C97450   2.381   9.436   4.217  0.3645  0.2871 -0.3297
  707MOL0     C97451   2.502   9.524   4.264 -1.2807  1.0383  0.2881
  707MOL0     O97452   2.533   9.493   4.399 -0.4365  0.3802 -0.4800
  707MOL0     C97453   2.664   9.470   4.432  0.2598  0.2160 -0.0279
  707MOL0     C97454   2.724   9.352   4.394  0.0007  0.4750  0.3464
  707MOL0     C97455   2.861   9.333   4.413 -0.2620  0.1040 -0.3938
  707MOL0     C97456   2.922   9.206   4.360  0.4936 -0.0648  0.0867
  707MOL0     C97457   2.939   9.418   4.493 -0.5689  0.1804 -0.1131
  707MOL0     C97458   3.069   9.393   4.555  0.3646  0.1569  0.2217
  707MOL0     O97459   3.074   9.399   4.696 -0.1530  0.4191 -0.5424
  707MOL0     C97460   3.173   9.331   4.755  0.3200  0.1733  0.4604
  707MOL0     C97461   3.260   9.398   4.835  0.4354  0.6051  1.2189
  707MOL0     C97462   3.371   9.338   4.897 -0.1571  0.8091 -0.7205
  707MOL0     C97463   3.395   9.201   4.874 -0.3811 -0.0232 -0.0077
  707MOL0     O97464   3.498   9.144   4.938 -0.1484  0.5819  0.2713
  707MOL0     C97465   3.557   9.022   4.877 -0.1239  0.2290  0.5117
  707MOL0     C97466   3.689   8.996   4.945 -0.3383  0.0216  0.6268
  707MOL0     C97467   3.772   8.902   4.861  0.9613 -0.3755  0.0260
  707MOL0     C97468   3.917   8.881   4.917  0.5796  0.2575  0.7122
  707MOL0     C97469   4.008   9.007   4.908  0.3210  0.0805 -0.3974
  707MOL0     C97470   4.153   8.984   4.927 -0.2398 -0.0821 -0.4018
  707MOL0     C97471   4.225   8.874   4.836 -0.3663 -0.9698  0.4051
  707MOL0     C97472   4.283   8.933   4.706  0.3705 -1.4024  0.5220
  707MOL0    Cl97473   4.419   8.828   4.671  0.1357 -0.6555  0.1134
  707MOL0     C97474   3.305   9.134   4.788  0.9049  0.1743 -0.8146
  707MOL0     C97475   3.205   9.200   4.722 -0.1876 -0.1424 -0.1749
  707MOL0     O97476   3.155   9.343   4.485 -0.8469 -0.6576  0.7705
  707MOL0     C97477   2.873   9.539   4.540 -0.3891  0.7569 -0.6494
  707MOL0     C97478   2.741   9.558   4.510  0.0358  0.1144  0.5266
  707MOL0     N97479   2.469   9.160   4.007 -0.0093 -1.2543  0.7130
  707MOL0     N97480   2.416   9.051   3.985  0.2973 -0.0380 -0.5639
  707MOL0     C97481   1.225   9.161   3.932  0.4163  0.7333  0.2851
  707MOL0     C97482   1.099   9.202   3.973 -0.2358  0.5508 -0.5596
  707MOL0     C97483   0.664   9.285   3.990 -0.0679 -0.3883  0.2135
  707MOL0     C97484   0.566   9.189   4.016  0.1857  0.1813 -0.2819
  707MOL0     C97485   0.436   9.221   4.030  0.2151 -0.3627 -0.3639
  707MOL0     C97486   0.391   9.349   4.013  0.2361 -0.6758  0.1684
  707MOL0     O97487   0.260   9.387   4.018 -0.8671 -0.3320 -0.1180
  707MOL0     C97488   0.233   9.464   4.140  0.3402 -0.4174  0.6367
  707MOL0     C97489   0.227   9.385   4.265  0.1992 -0.5582 -0.4725
  707MOL0     C97490   0.166   9.453   4.382  0.7466  0.3508  0.0461
  707MOL0     C97491   0.175   9.601   4.397 -0.0890  0.4696 -0.2808
  707MOL0     C97492   0.314   9.635   4.425 -0.1674  0.7680  0.0797
  707MOL0     C97493   0.430   9.664   4.452 -0.7510  0.1598 -0.8639
  707MOL0     C97494   0.489   9.445   4.001  0.7164  0.6383  0.0328
  707MOL0     C97495   0.621   9.425   3.978 -0.3782 -0.0652  0.2319
  707MOL0     C97496   0.703   9.547   3.957  0.0507  0.2461 -0.2212
  707MOL0     H97497   1.029   9.435   3.745  0.9728  0.7279  0.1378
  707MOL0     H97498   1.254   9.351   3.653 -1.4427 -1.1648 -2.7228
  707MOL0     H97499   1.437   8.997   3.778  0.5497  0.0815  1.4225
  707MOL0     H97500   1.514   9.088   3.907 -0.5248 -0.9111  0.7538
  707MOL0     H97501   1.601   9.062   3.609  2.0613  2.2119 -0.9754
  707MOL0     H97502   1.673   9.173   3.727  1.7824 -1.5202  0.4206
  707MOL0     H97503   1.752   8.950   3.871  0.3761 -2.8243  0.1335
  707MOL0     H97504   1.663   8.863   3.761  1.5948 -1.6920  1.4795
  707MOL0     H97505   1.832   8.911   3.576  2.2297 -0.5269  0.0609
  707MOL0     H97506   1.920   9.030   3.680  2.2457 -1.1633 -1.5169
  707MOL0     H97507   1.897   8.736   3.738 -0.7230  0.8239  0.5579
  707MOL0     H97508   1.937   8.867   3.853 -0.0599  2.1243 -0.7036
  707MOL0     H97509   2.120   8.735   3.770 -0.3893  0.2513 -0.0636
  707MOL0     H97510   2.099   8.817   3.613 -0.6271  0.2889  0.0162
  707MOL0     H97511   2.155   9.045   3.707  2.9164  0.2392 -0.4907
  707MOL0     H97512   2.283   8.928   3.742  0.3073  1.2489  0.9947
  707MOL0     H97513   2.088   8.998   3.960 -0.9124  0.5121 -0.8460
  707MOL0     H97514   2.221   8.885   3.961  1.8271  0.6397 -2.0676
  707MOL0     H97515   2.189   9.261   3.885 -1.2201 -1.1559 -0.2604
  707MOL0     H97516   2.412   9.449   3.866  0.3935  4.5581  1.8142
  707MOL0     H97517   2.534   9.429   3.981 -0.1053  0.5007  1.1263
  707MOL0     H97518   2.361   9.580   4.055 -1.8623  0.0891 -3.1703
  707MOL0     H97519   2.237   9.457   4.053 -0.4514  0.8311  0.6418
  707MOL0     H97520   2.294   9.461   4.278 -0.5988 -2.6687 -0.3379
  707MOL0     H97521   2.395   9.329   4.237 -0.0454  0.3326  0.1987
  707MOL0     H97522   2.587   9.506   4.197 -0.6817  0.7525  1.1158
  707MOL0     H97523   2.483   9.631   4.249  0.5467  1.7689  2.6531
  707MOL0     H97524   2.659   9.294   4.329  0.4308  2.8937 -2.4282
  707MOL0     H97525   2.993   9.159   4.429 -0.6584 -1.6253  0.2703
  707MOL0     H97526   2.961   9.249   4.267 -0.5384  0.0545 -0.3006
  707MOL0     H97527   2.843   9.140   4.323 -0.9795  2.6633 -2.0484
  707MOL0     H97528   3.249   9.505   4.849 -1.9787  1.0558 -2.7290
  707MOL0     H97529   3.445   9.386   4.960 -0.7127  0.9864 -0.1969
  707MOL0     H97530   3.493   8.933   4.876  0.9677 -0.7220 -3.4358
  707MOL0     H97531   3.574   9.031   4.769  0.3169 -1.9929  0.3578
  707MOL0     H97532   3.746   9.089   4.945  0.6557 -0.5497 -1.4369
  707MOL0     H97533   3.656   8.952   5.040 -1.8533 -1.2280 -0.4260
  707MOL0     H97534   3.790   8.942   4.761  1.1281 -1.4223 -0.3760
  707MOL0     H97535   3.721   8.807   4.844  3.3834 -1.5704 -1.0781
  707MOL0     H97536   3.959   8.800   4.858  1.7071  0.2759  1.4557
  707MOL0     H97537   3.900   8.856   5.022 -1.7306  0.8748  0.5239
  707MOL0     H97538   3.990   9.055   4.812 -0.5958  1.6584  0.5164
  707MOL0     H97539   3.974   9.082   4.981 -0.8784 -0.4871 -0.3468
  707MOL0     H97540   4.157   8.941   5.028  0.1328  1.0257  0.0733
  707MOL0     H97541   4.206   9.079   4.932 -0.3200 -0.0438 -0.2543
  707MOL0     H97542   4.181   8.774   4.832  0.3330 -1.2930  0.7049
  707MOL0     H97543   4.316   8.852   4.892 -1.2613 -1.7664  1.6020
  707MOL0     H97544   4.316   9.037   4.717  1.2020 -1.5699 -0.2415
  707MOL0     H97545   4.207   8.941   4.628  0.4210  0.3805  0.6171
  707MOL0     H97546   3.315   9.030   4.761  1.6453  1.2114 -5.2278
  707MOL0     H97547   3.162   9.136   4.645  0.0956 -1.5481  0.8032
  707MOL0     H97548   2.932   9.609   4.598 -2.7688  0.8949  1.8305
  707MOL0     H97549   2.684   9.643   4.545  2.7631  1.9883  0.7334
  707MOL0     H97550   1.288   9.088   3.983  0.6601  1.0560  0.4470
  707MOL0     H97551   1.058   9.176   4.070  1.2422 -2.2886 -0.5763
  707MOL0     H97552   0.588   9.084   4.031 -0.3068 -0.3517 -2.8595
  707MOL0     H97553   0.365   9.142   4.054 -0.0107  0.5002  2.1578
  707MOL0     H97554   0.296   9.551   4.161 -1.4357  2.5552 -4.4463
  707MOL0     H97555   0.127   9.488   4.128 -0.3793 -3.1897  0.7690
  707MOL0     H97556   0.332   9.369   4.293  0.2629  0.9282  0.2249
  707MOL0     H97557   0.191   9.282   4.252  0.8295 -0.8379 -0.0385
  707MOL0     H97558   0.060   9.428   4.388  0.3981  1.5830 -0.6570
  707MOL0     H97559   0.218   9.413   4.470 -0.7327 -0.5979  0.5382
  707MOL0     H97560   0.112   9.642   4.476 -0.6543 -1.8683  0.5801
  707MOL0     H97561   0.139   9.657   4.310 -1.1484 -0.2021 -0.3066
  707MOL0     H97562   0.528   9.703   4.471 -1.1692  0.8350  0.0325
  707MOL0     H97563   0.444   9.544   4.006  0.1712  0.4247 -0.4743
  707MOL0     H97564   0.651   9.623   3.899  1.3044 -1.2735 -3.5539
  707MOL0     H97565   0.734   9.594   4.052  3.4606  1.2327 -1.6624
  707MOL0     H97566   0.790   9.526   3.895  0.3566  1.2998 -0.1762
  708MOL0     O97567   3.919   2.777   0.234 -0.0488 -0.0514 -0.1908
  708MOL0     C97568   3.845   2.820   0.145  0.2062 -0.2201 -0.0432
  708MOL0     O97569   3.876   2.847   0.010 -1.1178  0.1936 -0.3329
  708MOL0     C97570   4.009   2.847  -0.031  0.2359 -0.5597  0.2198
  708MOL0     C97571   4.072   2.956  -0.094 -0.0078 -0.1029  0.7003
  708MOL0     C97572   4.216   2.941  -0.115 -0.0803  0.0584 -0.0113
  708MOL0     C97573   4.288   2.836  -0.071 -0.4227  1.0751 -0.2653
  708MOL0     O97574   4.428   2.836  -0.084  0.1566  0.5834 -0.1729
  708MOL0     C97575   4.501   2.742  -0.002 -0.4243 -1.0052  0.4937
  708MOL0     C97576   4.645   2.792  -0.002  0.9480 -0.1640 -0.2908
  708MOL0     C97577   4.726   2.736  -0.118 -0.1341  0.6315  0.3775
  708MOL0     C97578   4.690   2.778  -0.257  0.6156 -0.0671  0.5943
  708MOL0     C97579   4.708   2.930  -0.284  0.7530  0.0593 -0.6633
  708MOL0     C97580   4.650   2.969  -0.424  0.4230  0.3639  0.2280
  708MOL0     C97581   4.494   2.959  -0.443  0.2520 -0.0447  0.3477
  708MOL0     C97582   4.460   2.983  -0.595 -0.0683 -0.1952  0.6789
  708MOL0     N97583   4.474   3.122  -0.628  0.2565  0.1578 -0.6109
  708MOL0     C97584   4.588   3.167  -0.690  0.5807  0.1570  0.0023
  708MOL0     C97585   4.547   3.289  -0.734  0.8665  0.2851 -0.1890
  708MOL0     C97586   4.627   3.358  -0.843  0.9876  0.0170 -0.1783
  708MOL0     C97587   4.750   3.431  -0.775 -0.3010 -0.3982  0.2101
  708MOL0     C97588   4.836   3.328  -0.698  0.1310 -0.3411  0.0481
  708MOL0     C97589   4.977   3.372  -0.673 -0.6399  0.0495  0.1707
  708MOL0     O97590   5.053   3.381  -0.796  0.4063 -0.4984 -0.1175
  708MOL0     C97591   5.187   3.411  -0.803  0.6546  0.3061 -0.9056
  708MOL0     C97592   5.264   3.377  -0.910 -0.1925 -0.6297  0.3971
  708MOL0     C97593   5.404   3.395  -0.908  0.1056  0.6361 -0.0649
  708MOL0     C97594   5.480   3.365  -1.031  0.5146  0.7137 -0.5484
  708MOL0     C97595   5.461   3.436  -0.786  0.6304  0.1761  0.6990
  708MOL0     C97596   5.602   3.474  -0.785  0.4185  1.0437 -0.2580
  708MOL0     O97597   5.644   3.564  -0.882 -0.2526 -0.3581 -0.1094
  708MOL0     C97598   5.772   3.618  -0.912  0.6624  0.5030  0.1438
  708MOL0     C97599   5.770   3.716  -1.017 -0.7098  0.6174 -0.1259
  708MOL0     C97600   5.884   3.769  -1.065  0.3255 -0.1662 -0.4047
  708MOL0     C97601   6.004   3.728  -1.017 -0.6380 -0.0662 -0.0130
  708MOL0     O97602   6.116   3.797  -1.063  0.8100 -0.7477 -0.5918
  708MOL0     C97603   6.240   3.719  -1.067 -0.4701  0.0208  0.7133
  708MOL0     C97604   6.354   3.811  -1.114  0.2028 -0.1071  0.2528
  708MOL0     C97605   6.358   3.807  -1.262  0.0412  0.1674 -0.2638
  708MOL0     C97606   6.459   3.912  -1.308  0.4395 -0.1413  0.6252
  708MOL0     C97607   6.473   3.926  -1.458 -0.5659  0.8029 -0.2932
  708MOL0     C97608   6.602   4.005  -1.492  0.0658  0.3778  0.9434
  708MOL0     C97609   6.612   4.147  -1.445  0.6111  0.4492  0.5534
  708MOL0     C97610   6.743   4.220  -1.490  0.6281 -0.0690  0.4276
  708MOL0    Cl97611   6.729   4.383  -1.430  0.2898  0.0902  0.1707
  708MOL0     C97612   6.014   3.625  -0.918  0.6703 -0.3792  0.0399
  708MOL0     C97613   5.896   3.576  -0.861  1.7327 -0.8961  0.6744
  708MOL0     O97614   5.672   3.432  -0.690  0.0367 -0.9835 -0.1518
  708MOL0     C97615   5.380   3.471  -0.679 -0.3600  0.8322 -0.1182
  708MOL0     C97616   5.247   3.452  -0.688 -0.0464  0.4689  0.0975
  708MOL0     N97617   4.414   3.312  -0.691  0.1291 -0.3746  0.5709
  708MOL0     N97618   4.374   3.208  -0.629  1.0479 -0.4943  0.0607
  708MOL0     C97619   4.216   2.722  -0.022 -0.0047  0.3095  0.2102
  708MOL0     C97620   4.080   2.730  -0.002  0.7086  0.0393 -0.5039
  708MOL0     C97621   3.706   2.846   0.193 -0.3622  0.9839 -0.6767
  708MOL0     C97622   3.638   2.961   0.156 -1.4024  0.6048  0.3394
  708MOL0     C97623   3.517   2.988   0.211 -0.2864  0.2364  0.7931
  708MOL0     C97624   3.449   2.883   0.276  0.3408  0.1967  0.2770
  708MOL0     O97625   3.328   2.887   0.335 -0.2982  0.2711 -0.2907
  708MOL0     C97626   3.249   3.007   0.330 -0.4870 -0.3278  0.1487
  708MOL0     C97627   3.149   2.995   0.443  0.0464 -0.8591  1.2935
  708MOL0     C97628   3.024   2.920   0.399 -0.0482 -0.0152  0.1991
  708MOL0     C97629   3.029   2.774   0.430 -0.2620  0.1192  0.3170
  708MOL0     C97630   2.942   2.707   0.319  0.1617 -0.3196  0.4546
  708MOL0     C97631   2.865   2.652   0.244  0.3124 -0.4600 -0.3096
  708MOL0     C97632   3.515   2.759   0.296 -0.0704 -0.8400  0.3712
  708MOL0     C97633   3.647   2.739   0.254  0.2718  0.5202  0.5279
  708MOL0     C97634   3.713   2.611   0.286  0.3210 -0.3570  0.8107
  708MOL0     H97635   4.008   3.041  -0.113 -2.0082 -1.9724 -1.6305
  708MOL0     H97636   4.273   3.025  -0.153 -2.6027  0.6632 -2.7819
  708MOL0     H97637   4.494   2.643  -0.049 -2.5887 -1.3385  1.3945
  708MOL0     H97638   4.471   2.745   0.103  1.2236  0.4579  0.9738
  708MOL0     H97639   4.648   2.901  -0.000 -2.7938  0.1378 -2.4277
  708MOL0     H97640   4.690   2.743   0.085 -1.4214 -2.0699 -0.0340
  708MOL0     H97641   4.833   2.757  -0.111  0.3600 -1.2792 -0.6277
  708MOL0     H97642   4.731   2.627  -0.111 -0.1062  0.5567 -0.6571
  708MOL0     H97643   4.754   2.725  -0.329  0.4430 -1.1513  1.2255
  708MOL0     H97644   4.588   2.749  -0.286  0.1668  3.6086 -2.2486
  708MOL0     H97645   4.812   2.962  -0.286  1.1965 -0.7271  3.2061
  708MOL0     H97646   4.654   2.983  -0.206 -1.0110  0.3503 -2.0112
  708MOL0     H97647   4.675   3.071  -0.454 -0.2432  0.7555  0.9590
  708MOL0     H97648   4.697   2.899  -0.494 -0.0582  0.5647 -0.3044
  708MOL0     H97649   4.426   3.023  -0.386  1.0587  0.2896  0.9496
  708MOL0     H97650   4.459   2.859  -0.417 -1.4268 -0.1314 -1.9338
  708MOL0     H97651   4.519   2.923  -0.665 -1.0879 -0.5964  0.1455
  708MOL0     H97652   4.356   2.961  -0.619 -1.1081  1.3781  3.3700
  708MOL0     H97653   4.673   3.104  -0.715 -0.6067 -0.8463 -1.7619
  708MOL0     H97654   4.557   3.434  -0.879  0.9826  0.0145 -0.1719
  708MOL0     H97655   4.656   3.279  -0.913 -0.0571 -2.0449  1.6113
  708MOL0     H97656   4.808   3.475  -0.856 -1.0088  0.3714  0.1154
  708MOL0     H97657   4.714   3.508  -0.707 -1.2678 -1.4611  0.9398
  708MOL0     H97658   4.793   3.304  -0.601  1.6140  0.1249  0.8451
  708MOL0     H97659   4.840   3.240  -0.763 -2.3546 -0.0747 -0.5763
  708MOL0     H97660   4.968   3.468  -0.621  1.3358  0.9391 -1.0081
  708MOL0     H97661   5.037   3.304  -0.612  2.0261  0.2466 -2.0395
  708MOL0     H97662   5.216   3.341  -1.001 -1.7634 -2.3800  1.8374
  708MOL0     H97663   5.416   3.319  -1.107  1.1729  0.1490 -0.7702
  708MOL0     H97664   5.551   3.284  -1.011 -0.6866 -1.0013 -2.6733
  708MOL0     H97665   5.517   3.460  -1.070  0.1040 -0.2576 -3.6545
  708MOL0     H97666   5.667   3.748  -1.033 -0.1345  2.2922 -0.7620
  708MOL0     H97667   5.882   3.840  -1.147  3.8983 -0.2492 -0.7542
  708MOL0     H97668   6.259   3.678  -0.968 -0.0967 -1.6969 -0.0394
  708MOL0     H97669   6.224   3.646  -1.146 -1.9376  2.8839 -1.8610
  708MOL0     H97670   6.335   3.916  -1.091  0.3005  0.2101 -1.0439
  708MOL0     H97671   6.446   3.781  -1.063  0.7360 -0.3070 -0.8121
  708MOL0     H97672   6.255   3.819  -1.298 -0.3936 -2.5500 -0.0812
  708MOL0     H97673   6.392   3.708  -1.293  1.0906  0.6922 -0.8545
  708MOL0     H97674   6.554   3.885  -1.260  0.7038 -1.9661 -0.8151
  708MOL0     H97675   6.424   4.002  -1.257  1.0617 -1.1551  2.9924
  708MOL0     H97676   6.470   3.831  -1.513 -0.8388  0.8464 -0.3548
  708MOL0     H97677   6.393   3.984  -1.505 -1.8376 -0.5057  0.1815
  708MOL0     H97678   6.604   4.000  -1.601 -2.0164 -1.3207  0.9251
  708MOL0     H97679   6.683   3.955  -1.438 -2.6292 -0.5231  4.5051
  708MOL0     H97680   6.609   4.158  -1.336  1.7137  0.7294  0.5705
  708MOL0     H97681   6.523   4.203  -1.474 -0.8672 -1.1638  1.8039
  708MOL0     H97682   6.741   4.226  -1.599 -1.0339  1.8481  0.5026
  708MOL0     H97683   6.835   4.176  -1.452  1.7160  2.1338  0.4523
  708MOL0     H97684   6.103   3.585  -0.872 -0.5871 -1.2268  1.8723
  708MOL0     H97685   5.895   3.511  -0.774 -2.0539 -2.3083 -0.2479
  708MOL0     H97686   5.421   3.514  -0.588  3.0599 -2.3296  0.0925
  708MOL0     H97687   5.194   3.466  -0.594 -2.4292 -0.2147 -1.0938
  708MOL0     H97688   4.256   2.627   0.013  1.5531  1.7101  2.5587
  708MOL0     H97689   4.016   2.651   0.036  0.7115  0.5448  0.5929
  708MOL0     H97690   3.688   3.030   0.088 -0.4200  0.6484  1.0713
  708MOL0     H97691   3.459   3.073   0.177  1.5400  0.1321 -3.2646
  708MOL0     H97692   3.301   3.102   0.346  0.0651 -0.3774 -1.2532
  708MOL0     H97693   3.189   3.013   0.238  0.3100  0.9191 -0.3187
  708MOL0     H97694   3.127   3.093   0.487 -1.0798 -1.2784  1.6889
  708MOL0     H97695   3.203   2.939   0.520 -0.6755 -4.0353 -0.3889
  708MOL0     H97696   2.933   2.960   0.444  0.0217  0.7244 -0.3002
  708MOL0     H97697   3.021   2.937   0.291  3.1390  3.8162  0.4943
  708MOL0     H97698   2.981   2.759   0.527 -0.2048  1.4545  0.5706
  708MOL0     H97699   3.128   2.727   0.425 -0.1135  0.5389 -3.1881
  708MOL0     H97700   2.798   2.616   0.168  0.0903  3.4342 -2.2414
  708MOL0     H97701   3.471   2.682   0.358  1.5481 -2.5100 -0.4697
  708MOL0     H97702   3.635   2.535   0.293  0.0858  0.0320  3.0537
  708MOL0     H97703   3.787   2.581   0.210 -0.0794  1.4291 -0.3524
  708MOL0     H97704   3.764   2.630   0.381 -1.9335  1.0712  1.8123
  709MOL0     O97705  10.513   9.339   8.323  0.5970 -0.3967  0.1043
  709MOL0     C97706  10.593   9.261   8.272  0.4373  0.5484 -0.0992
  709MOL0     O97707  10.575   9.125   8.267  0.0915  1.0616  0.3630
  709MOL0     C97708  10.454   9.063   8.279  0.6515  0.1522 -1.1966
  709MOL0     C97709  10.335   9.122   8.231  0.8583  0.1636  0.0712
  709MOL0     C97710  10.216   9.062   8.249  0.2519 -0.4013 -0.4966
  709MOL0     C97711  10.207   8.929   8.296  0.1234  0.4223  0.5786
  709MOL0     O97712  10.096   8.855   8.292  0.1668 -0.3212 -0.0298
  709MOL0     C97713   9.974   8.901   8.239 -0.5000 -0.7768  0.1300
  709MOL0     C97714   9.871   8.789   8.220  0.7138 -0.9047  0.6803
  709MOL0     C97715   9.738   8.851   8.161  0.3898  0.0915 -0.1853
  709MOL0     C97716   9.616   8.763   8.167  0.5986 -0.7761 -0.8600
  709MOL0     C97717   9.506   8.814   8.074 -0.4257 -0.4781 -0.1197
  709MOL0     C97718   9.361   8.764   8.075 -0.7284 -0.0251 -0.4715
  709MOL0     C97719   9.352   8.616   8.022  0.2568 -0.7447  0.3648
  709MOL0     C97720   9.211   8.572   7.982 -0.1937 -0.3846 -0.3801
  709MOL0     N97721   9.150   8.665   7.885 -0.4306  0.0619  0.4839
  709MOL0     C97722   9.219   8.724   7.781  0.7800  0.0430 -0.3174
  709MOL0     C97723   9.132   8.806   7.716  0.8013  0.4420 -0.2215
  709MOL0     C97724   9.164   8.888   7.594  0.4676  0.2105 -0.2801
  709MOL0     C97725   9.313   8.906   7.564  0.1250 -0.9642  0.2882
  709MOL0     C97726   9.378   8.999   7.669 -0.2793  0.2401  0.2259
  709MOL0     C97727   9.529   9.008   7.655 -0.1286  0.2139  0.8096
  709MOL0     O97728   9.585   9.097   7.752 -0.3314 -0.4789 -0.0809
  709MOL0     C97729   9.719   9.124   7.758 -0.0077  0.0334  0.2640
  709MOL0     C97730   9.764   9.171   7.881 -0.2505  0.6569  0.3733
  709MOL0     C97731   9.896   9.185   7.906  0.1799  0.3398 -0.6668
  709MOL0     C97732   9.926   9.248   8.041  0.1471 -1.0159  0.4949
  709MOL0     C97733   9.996   9.149   7.809  0.0202 -0.3535 -0.6630
  709MOL0     C97734  10.147   9.145   7.838 -0.7256 -0.1912  1.1141
  709MOL0     O97735  10.232   9.147   7.725  0.3961 -0.3084  0.9598
  709MOL0     C97736  10.364   9.133   7.748  0.3542 -0.6320 -0.2988
  709MOL0     C97737  10.438   9.048   7.659  0.6236  0.2303  0.4503
  709MOL0     C97738  10.574   9.022   7.669 -0.7930  0.4308 -0.8736
  709MOL0     C97739  10.645   9.091   7.771 -0.0404  0.6866 -0.6651
  709MOL0     O97740  10.784   9.069   7.791 -0.5281 -0.5574  0.4354
  709MOL0     C97741  10.845   9.084   7.916  1.0987 -0.0013  0.9984
  709MOL0     C97742  10.977   9.017   7.916 -0.8107 -0.5778  0.2345
  709MOL0     C97743  11.089   9.096   7.823 -0.8068  0.2566  0.6379
  709MOL0     C97744  11.234   9.075   7.856 -0.1190 -0.5617 -0.6184
  709MOL0     C97745  11.280   9.144   7.979  0.0436 -0.2386  0.3428
  709MOL0     C97746  11.429   9.115   8.004 -0.2950 -0.1188 -0.1686
  709MOL0     C97747  11.497   9.194   8.115  0.9942 -0.4546 -0.2802
  709MOL0     C97748  11.419   9.199   8.249 -0.2702  0.5538 -0.7943
  709MOL0    Cl97749  11.490   9.321   8.354  0.0060  0.7221 -0.3958
  709MOL0     C97750  10.568   9.180   7.846 -0.2481 -0.4937 -0.5753
  709MOL0     C97751  10.434   9.197   7.845 -0.5279  0.0555  0.2781
  709MOL0     O97752  10.180   9.088   7.942  0.1654  0.5277 -0.1789
  709MOL0     C97753   9.949   9.107   7.684 -0.0734 -0.7360 -0.3522
  709MOL0     C97754   9.814   9.091   7.663  0.0730  0.0262  0.1454
  709MOL0     N97755   9.008   8.776   7.772 -0.9332 -0.2807 -0.3528
  709MOL0     N97756   9.020   8.696   7.870  0.5798  0.9127  0.4528
  709MOL0     C97757  10.324   8.867   8.343 -0.0958  0.1824  0.5150
  709MOL0     C97758  10.445   8.939   8.343 -0.7429  0.2193 -0.7430
  709MOL0     C97759  10.727   9.305   8.227 -0.0868 -0.0731  0.0298
  709MOL0     C97760  10.834   9.234   8.274 -0.6389  0.0577  0.3504
  709MOL0     C97761  10.960   9.263   8.239 -1.2321  0.0320  0.1344
  709MOL0     C97762  10.984   9.364   8.139 -0.3722  0.1622 -0.2299
  709MOL0     O97763  11.106   9.409   8.090 -0.7062 -0.1054  0.1514
  709MOL0     C97764  11.186   9.462   8.192  0.6279 -0.7575  0.8214
  709MOL0     C97765  11.161   9.611   8.206  0.7344  0.1314  0.2383
  709MOL0     C97766  11.178   9.689   8.076 -0.4369 -0.0487 -0.3322
  709MOL0     C97767  11.323   9.700   8.032 -0.5536 -0.1078 -0.6934
  709MOL0     C97768  11.414   9.768   8.128  0.9918 -1.2758  0.2051
  709MOL0     C97769  11.469   9.843   8.206 -0.8086 -0.1186 -0.1749
  709MOL0     C97770  10.872   9.436   8.090 -0.3482  0.7827  1.0859
  709MOL0     C97771  10.746   9.412   8.139  0.7992 -0.4053 -0.3862
  709MOL0     C97772  10.632   9.492   8.088  0.7481  0.2840  0.2692
  709MOL0     H97773  10.330   9.218   8.182 -3.4332  0.7670  1.2663
  709MOL0     H97774  10.132   9.117   8.206 -0.5095 -2.9640 -2.6105
  709MOL0     H97775   9.987   8.951   8.142  1.0484 -2.0606 -0.3754
  709MOL0     H97776   9.932   8.977   8.304  1.4211  1.3822 -1.0191
  709MOL0     H97777   9.908   8.714   8.149  4.4452  3.1177 -2.1785
  709MOL0     H97778   9.846   8.747   8.317 -4.1355 -0.1453 -0.0186
  709MOL0     H97779   9.701   8.936   8.220 -0.6693 -2.1278  2.6066
  709MOL0     H97780   9.753   8.873   8.055 -1.8745 -0.6050 -0.7182
  709MOL0     H97781   9.646   8.665   8.131  1.3926 -0.2380 -1.6707
  709MOL0     H97782   9.579   8.759   8.271  0.3568  1.0130 -0.8554
  709MOL0     H97783   9.540   8.793   7.972  1.2678 -3.7831  0.9784
  709MOL0     H97784   9.508   8.923   8.082  0.1978 -0.5567  0.9075
  709MOL0     H97785   9.315   8.771   8.174  2.0436  2.9200  0.8065
  709MOL0     H97786   9.303   8.835   8.015  0.7587  2.2221  0.5894
  709MOL0     H97787   9.394   8.560   8.106  0.2507  2.4738  2.6685
  709MOL0     H97788   9.412   8.605   7.930 -0.8587 -3.2237 -0.1439
  709MOL0     H97789   9.206   8.472   7.936 -0.0440  0.3088 -1.9736
  709MOL0     H97790   9.141   8.575   8.066 -0.2447  1.9282 -0.4550
  709MOL0     H97791   9.321   8.704   7.752  1.4484  0.6958  1.4696
  709MOL0     H97792   9.125   8.990   7.605 -0.2962 -0.0654 -0.3793
  709MOL0     H97793   9.133   8.845   7.499  1.2698  1.9825 -1.4024
  709MOL0     H97794   9.366   8.811   7.555 -3.4842 -2.9802 -2.3696
  709MOL0     H97795   9.321   8.948   7.464  0.6168  1.1374  1.1541
  709MOL0     H97796   9.337   9.098   7.647  4.5989  2.3714 -0.5180
  709MOL0     H97797   9.358   8.969   7.772  2.6885 -0.4504  0.6871
  709MOL0     H97798   9.571   8.908   7.670 -0.2061  0.0184 -0.2284
  709MOL0     H97799   9.547   9.038   7.551  1.1587 -1.9197  0.3596
  709MOL0     H97800   9.683   9.203   7.946 -3.3283  1.7182 -3.5973
  709MOL0     H97801   9.938   9.176   8.122  0.3942 -0.1607  1.2313
  709MOL0     H97802   9.841   9.312   8.065 -0.8747 -0.9356 -2.8250
  709MOL0     H97803  10.014   9.312   8.027 -0.0364 -1.1618 -1.8779
  709MOL0     H97804  10.380   9.008   7.576  1.2307  0.2404  0.0081
  709MOL0     H97805  10.634   8.955   7.608  0.3410  1.8625 -1.3939
  709MOL0     H97806  10.852   9.192   7.936 -2.4057  1.0458 -2.2170
  709MOL0     H97807  10.781   9.037   7.991  1.0574 -0.9934  0.3535
  709MOL0     H97808  11.023   9.012   8.015  1.6486 -1.2457 -0.8669
  709MOL0     H97809  10.966   8.915   7.879 -1.7939 -0.2192 -0.5087
  709MOL0     H97810  11.081   9.205   7.826  2.8781  0.6615  0.0038
  709MOL0     H97811  11.071   9.059   7.721  0.6891 -2.0085  1.1117
  709MOL0     H97812  11.282   9.119   7.769 -0.4440  0.8039 -0.1320
  709MOL0     H97813  11.259   8.968   7.864 -0.1630 -0.5481 -0.2486
  709MOL0     H97814  11.274   9.251   7.960  2.4714 -0.2257 -0.6057
  709MOL0     H97815  11.221   9.124   8.069  1.1363 -1.4658  0.8143
  709MOL0     H97816  11.484   9.133   7.911  1.1747 -1.4901  0.3727
  709MOL0     H97817  11.443   9.011   8.035  1.1403  1.3020  4.8867
  709MOL0     H97818  11.519   9.293   8.074 -1.6643 -1.0211 -3.5556
  709MOL0     H97819  11.591   9.148   8.144  0.1381 -2.3889 -0.4308
  709MOL0     H97820  11.436   9.103   8.299  0.3859  0.9877 -0.1554
  709MOL0     H97821  11.313   9.220   8.238 -0.8412 -2.4848 -2.0551
  709MOL0     H97822  10.625   9.232   7.923 -1.6295  0.1882  0.0135
  709MOL0     H97823  10.390   9.263   7.919 -1.4991  0.3387 -0.5416
  709MOL0     H97824  10.018   9.078   7.605  0.6875  0.0929 -0.0035
  709MOL0     H97825   9.790   9.069   7.559 -0.4794  3.9492 -0.7531
  709MOL0     H97826  10.311   8.767   8.381 -1.1357  0.7398  1.7112
  709MOL0     H97827  10.537   8.897   8.382 -1.9318 -1.0729  0.8153
  709MOL0     H97828  10.818   9.164   8.355 -0.4421  0.7708  1.0070
  709MOL0     H97829  11.047   9.215   8.282 -1.3228  0.7309  1.1314
  709MOL0     H97830  11.162   9.417   8.289  2.2372 -0.7193  1.2632
  709MOL0     H97831  11.291   9.442   8.168  2.0292  4.3444  1.6367
  709MOL0     H97832  11.224   9.657   8.283  1.2975  1.6098 -1.0378
  709MOL0     H97833  11.055   9.627   8.228  1.1089  2.8369  0.4237
  709MOL0     H97834  11.129   9.639   7.992 -0.3868 -1.6606  0.5470
  709MOL0     H97835  11.135   9.789   8.084 -0.8161 -0.3663  3.2361
  709MOL0     H97836  11.323   9.771   7.948 -2.0579 -1.1698 -1.6668
  709MOL0     H97837  11.368   9.603   8.011 -1.7206 -1.2768  1.8599
  709MOL0     H97838  11.518   9.904   8.279 -2.9466  0.2023  1.0552
  709MOL0     H97839  10.901   9.502   8.009  2.1726  0.6106  1.7655
  709MOL0     H97840  10.574   9.534   8.171  0.8757 -0.4082  0.7177
  709MOL0     H97841  10.685   9.563   8.024  1.2729 -0.8365 -0.5663
  709MOL0     H97842  10.566   9.427   8.029  4.4918 -0.8996 -3.0622
  710MOL0     O97843   4.772   2.627  10.380 -0.5712 -0.1721  0.0681
  710MOL0     C97844   4.663   2.686  10.379  0.0203  1.0891  0.1661
  710MOL0     O97845   4.562   2.648  10.464  0.2266 -0.4851  0.2808
  710MOL0     C97846   4.454   2.725  10.489 -0.3526 -0.2088  0.0163
  710MOL0     C97847   4.470   2.861  10.504 -0.2083  0.0741  0.7309
  710MOL0     C97848   4.353   2.937  10.527  0.1857  0.1566  1.1194
  710MOL0     C97849   4.228   2.874  10.537 -0.3350 -0.1934 -0.1871
  710MOL0     O97850   4.111   2.930  10.570  0.6215  0.0375  0.0313
  710MOL0     C97851   4.090   3.070  10.593 -0.2717 -0.2644 -0.2660
  710MOL0     C97852   3.933   3.105  10.614  0.2805  0.3097  0.4973
  710MOL0     C97853   3.853   3.019  10.724 -0.1184 -1.1947 -0.9670
  710MOL0     C97854   3.712   3.061  10.731 -0.1109  0.1338 -0.3676
  710MOL0     C97855   3.674   3.211  10.747  0.5884 -0.1011 -0.5761
  710MOL0     C97856   3.521   3.227  10.786  0.5762 -0.0024  0.2656
  710MOL0     C97857   3.509   3.370  10.843 -0.0250  0.0344  0.1738
  710MOL0     C97858   3.524   3.369  10.991 -0.6737 -0.8054 -0.4877
  710MOL0     N97859   3.559   3.504  11.052 -0.5831 -0.4028  0.0601
  710MOL0     C97860   3.679   3.568  11.028 -1.1981  0.2811 -0.0031
  710MOL0     C97861   3.657   3.694  11.071 -0.1054  0.1804 -0.7059
  710MOL0     C97862   3.750   3.816  11.047 -0.4256 -0.4907 -0.3782
  710MOL0     C97863   3.677   3.943  10.984  0.1669 -0.8406  0.6009
  710MOL0     C97864   3.774   4.055  10.958  0.1961 -0.7501  0.7665
  710MOL0     C97865   3.821   4.129  11.081 -0.1876 -0.1513 -0.1060
  710MOL0     O97866   3.897   4.248  11.040  0.1012 -0.1131 -0.3183
  710MOL0     C97867   4.019   4.268  11.105 -0.9483  0.7130 -0.2797
  710MOL0     C97868   4.070   4.214  11.230  0.5271  0.0393 -0.6767
  710MOL0     C97869   4.191   4.245  11.295 -0.0620  0.3379  0.0706
  710MOL0     C97870   4.217   4.197  11.429  0.5363  0.6560  0.1387
  710MOL0     C97871   4.281   4.329  11.223 -0.2170  0.4917 -0.0887
  710MOL0     C97872   4.420   4.374  11.262 -0.0556 -0.1343  1.0025
  710MOL0     O97873   4.454   4.500  11.222  0.2148 -0.8060 -0.7335
  710MOL0     C97874   4.571   4.570  11.253  0.6453  0.3692  0.2190
  710MOL0     C97875   4.584   4.695  11.198  0.2047 -0.4146  0.2995
  710MOL0     C97876   4.698   4.767  11.226  0.2879  0.3320  0.3871
  710MOL0     C97877   4.805   4.725  11.310 -0.1788 -0.3870 -1.2835
  710MOL0     O97878   4.912   4.815  11.340  1.1647  0.3010  0.4997
  710MOL0     C97879   5.019   4.767  11.430  0.2764  0.3232  0.6535
  710MOL0     C97880   5.147   4.797  11.346 -0.7247 -0.3426 -0.6050
  710MOL0     C97881   5.270   4.738  11.410 -0.4215  0.5322 -0.9141
  710MOL0     C97882   5.395   4.762  11.337 -0.3850  0.3694 -1.1013
  710MOL0     C97883   5.396   4.694  11.201 -0.7128  0.9357 -0.1999
  710MOL0     C97884   5.537   4.713  11.132 -0.5705  0.3143  0.4702
  710MOL0     C97885   5.522   4.712  10.979  1.0042  0.6220 -0.0089
  710MOL0     C97886   5.654   4.729  10.913  0.6392  0.2794  0.3112
  710MOL0    Cl97887   5.702   4.902  10.899  0.4137 -0.1012 -0.5753
  710MOL0     C97888   4.778   4.601  11.371  0.1360 -0.1879 -0.9513
  710MOL0     C97889   4.663   4.523  11.345 -0.4303 -0.0064  0.0432
  710MOL0     O97890   4.484   4.300  11.336 -0.4305  0.2925  0.3410
  710MOL0     C97891   4.238   4.377  11.106  0.4124 -0.2097  0.9696
  710MOL0     C97892   4.112   4.356  11.052 -0.4563 -1.2747  0.5552
  710MOL0     N97893   3.529   3.706  11.122 -0.0035  0.4462 -0.1486
  710MOL0     N97894   3.476   3.584  11.127 -0.2764 -0.0540  0.2153
  710MOL0     C97895   4.221   2.743  10.522 -0.1584  0.8923  0.0860
  710MOL0     C97896   4.332   2.663  10.501  0.1275 -0.1575 -0.8564
  710MOL0     C97897   4.643   2.786  10.272  0.0531 -0.1717  0.1863
  710MOL0     C97898   4.749   2.869  10.255  0.2323 -0.5548 -0.6450
  710MOL0     C97899   4.747   2.969  10.157 -0.2122  0.4244  0.3372
  710MOL0     C97900   4.632   2.977  10.069  0.6294  0.0785  0.2005
  710MOL0     O97901   4.623   3.076   9.981  0.1027 -0.2117  0.1766
  710MOL0     C97902   4.511   3.157   9.992  0.1429 -0.5098  0.3751
  710MOL0     C97903   4.489   3.234   9.865  0.4737  0.2554 -0.4618
  710MOL0     C97904   4.442   3.140   9.746  0.2493 -0.5129 -0.0679
  710MOL0     C97905   4.291   3.094   9.776 -0.0590  0.5668 -0.2741
  710MOL0     C97906   4.223   3.038   9.654  0.0322  0.2670 -0.6035
  710MOL0     C97907   4.170   2.982   9.560 -0.5002  0.9808  0.0270
  710MOL0     C97908   4.538   2.873  10.068  0.3837  0.3472 -0.3619
  710MOL0     C97909   4.543   2.781  10.168  0.0441 -0.0767  0.8615
  710MOL0     C97910   4.447   2.661  10.152 -0.5646 -0.0299 -0.7820
  710MOL0     H97911   4.565   2.913  10.492 -2.5724  5.5192  2.4033
  710MOL0     H97912   4.366   3.045  10.529  0.7400  0.0862  1.5384
  710MOL0     H97913   4.132   3.129  10.511 -1.5364 -0.8619 -1.3914
  710MOL0     H97914   4.153   3.097  10.679  1.4706  0.0281 -1.5703
  710MOL0     H97915   3.914   3.210  10.636 -1.1198 -0.5335  4.1131
  710MOL0     H97916   3.892   3.074  10.517 -0.3647  0.1122  0.8278
  710MOL0     H97917   3.844   2.912  10.703 -1.2093 -0.8192 -2.5748
  710MOL0     H97918   3.907   3.033  10.818  0.6058  2.7257 -1.8040
  710MOL0     H97919   3.681   3.028  10.632  1.3783 -0.7138 -0.5793
  710MOL0     H97920   3.658   3.001  10.804 -3.2519  2.6991 -0.3486
  710MOL0     H97921   3.695   3.258  10.650  1.1599 -0.3175 -0.5608
  710MOL0     H97922   3.733   3.246  10.832 -0.1509  1.0368 -0.5082
  710MOL0     H97923   3.462   3.205  10.696  1.0811 -0.5049  0.0534
  710MOL0     H97924   3.488   3.149  10.855 -0.0252 -1.3263 -1.4468
  710MOL0     H97925   3.407   3.404  10.823  0.6737  2.6825  0.7059
  710MOL0     H97926   3.577   3.441  10.796 -2.6636  0.4180 -3.4415
  710MOL0     H97927   3.431   3.342  11.043 -2.3310  2.5146 -1.4863
  710MOL0     H97928   3.613   3.310  11.015  0.0253  0.7349  0.9530
  710MOL0     H97929   3.768   3.524  10.985 -0.2596  0.0651  2.0463
  710MOL0     H97930   3.830   3.775  10.984  1.0930  0.7298  0.6790
  710MOL0     H97931   3.778   3.854  11.146 -0.9998 -1.0211 -0.0066
  710MOL0     H97932   3.620   3.917  10.894 -0.7102  1.7630  0.3205
  710MOL0     H97933   3.601   3.975  11.056  0.2658  1.0108 -0.0725
  710MOL0     H97934   3.864   4.030  10.902  0.1519 -0.2581  0.4751
  710MOL0     H97935   3.705   4.124  10.909  1.5938  0.2982  0.2014
  710MOL0     H97936   3.735   4.159  11.141  1.1637  1.1271  1.2684
  710MOL0     H97937   3.878   4.066  11.150  0.8269 -0.3920 -1.1282
  710MOL0     H97938   4.015   4.134  11.279 -1.4301 -0.6587 -3.7841
  710MOL0     H97939   4.132   4.233  11.486  0.5884  1.7803 -0.4761
  710MOL0     H97940   4.316   4.224  11.467  0.7557 -2.2069  1.9879
  710MOL0     H97941   4.215   4.087  11.432  2.5745  0.5936  1.2948
  710MOL0     H97942   4.509   4.736  11.133  1.1529  0.0152 -0.5477
  710MOL0     H97943   4.712   4.866  11.185  0.6203 -0.0105 -0.3439
  710MOL0     H97944   5.025   4.815  11.528  1.2703  0.8507  0.3475
  710MOL0     H97945   5.022   4.662  11.460 -0.7986 -0.4121 -1.5897
  710MOL0     H97946   5.131   4.749  11.250 -4.2449 -1.5911  0.4763
  710MOL0     H97947   5.172   4.903  11.335  0.3776 -0.5470 -0.2202
  710MOL0     H97948   5.257   4.631  11.425 -5.0769  1.1181  0.7110
  710MOL0     H97949   5.282   4.796  11.502  1.5311  0.1058 -0.8560
  710MOL0     H97950   5.476   4.718  11.397 -1.2109  0.8926  0.4601
  710MOL0     H97951   5.414   4.869  11.327 -1.5247  0.6768 -0.2771
  710MOL0     H97952   5.374   4.587  11.206  0.2444  0.5941 -2.3843
  710MOL0     H97953   5.324   4.748  11.139 -0.0096  0.5127 -1.4171
  710MOL0     H97954   5.612   4.639  11.162 -0.3229 -0.8769 -2.6848
  710MOL0     H97955   5.571   4.815  11.152  0.4442  0.1643 -0.3533
  710MOL0     H97956   5.450   4.789  10.949 -2.6513 -2.1208  0.9339
  710MOL0     H97957   5.480   4.614  10.956  0.0106  1.2271 -0.9147
  710MOL0     H97958   5.642   4.687  10.812  0.4594  1.6129 -0.2386
  710MOL0     H97959   5.731   4.669  10.962 -1.2996 -1.8400  0.9581
  710MOL0     H97960   4.857   4.569  11.438  1.6154  1.7307 -1.6764
  710MOL0     H97961   4.650   4.438  11.412 -1.2484 -0.0176 -0.1189
  710MOL0     H97962   4.309   4.443  11.057 -0.0908 -1.0350 -0.9533
  710MOL0     H97963   4.077   4.414  10.968  0.8413 -1.1467  0.0734
  710MOL0     H97964   4.123   2.696  10.517 -0.5531  1.7063 -0.1556
  710MOL0     H97965   4.320   2.556  10.488 -0.1231  0.0354 -2.4294
  710MOL0     H97966   4.839   2.856  10.315 -2.0630 -0.9624  2.9582
  710MOL0     H97967   4.836   3.028  10.137 -0.2847 -1.0005 -6.6713
  710MOL0     H97968   4.421   3.099  10.012 -0.0379 -0.6046 -0.6361
  710MOL0     H97969   4.527   3.228  10.073 -4.2443  1.1369  0.0961
  710MOL0     H97970   4.572   3.299   9.835 -0.0537  1.3745  0.4075
  710MOL0     H97971   4.413   3.313   9.877  2.1139  1.5165  3.2050
  710MOL0     H97972   4.437   3.208   9.660 -1.6735  0.5679  0.8089
  710MOL0     H97973   4.509   3.056   9.731 -0.8260 -1.4767  0.3516
  710MOL0     H97974   4.237   3.182   9.812  1.6747  1.0189  1.3368
  710MOL0     H97975   4.282   3.019   9.854  1.1975  1.0681  0.3729
  710MOL0     H97976   4.125   2.931   9.478  0.3167 -3.9150  2.2575
  710MOL0     H97977   4.461   2.868   9.992  0.3595  0.7359 -0.3659
  710MOL0     H97978   4.382   2.658  10.240  1.8548 -0.1694  1.1127
  710MOL0     H97979   4.390   2.653  10.059 -0.6952 -3.6906 -0.5296
  710MOL0     H97980   4.503   2.567  10.153 -2.7465 -1.4198 -2.0088
  711MOL0     O97981   5.470  11.018   4.585 -0.5197  0.1760  0.4324
  711MOL0     C97982   5.363  11.055   4.634  0.6582  0.1899  0.3910
  711MOL0     O97983   5.346  11.133   4.749 -0.9163 -0.0309 -0.0742
  711MOL0     C97984   5.443  11.223   4.785  0.4074 -0.2246 -0.3910
  711MOL0     C97985   5.535  11.287   4.704  0.3701 -0.2214 -0.2830
  711MOL0     C97986   5.629  11.378   4.770  0.6932 -0.1998  0.3644
  711MOL0     C97987   5.630  11.407   4.912 -0.3551 -0.3011  1.1952
  711MOL0     O97988   5.716  11.486   4.991  0.4459 -0.0813 -0.2143
  711MOL0     C97989   5.798  11.586   4.937 -0.0821  0.6987  0.0698
  711MOL0     C97990   5.877  11.636   5.051 -0.4688 -0.5063 -1.1489
  711MOL0     C97991   5.980  11.745   5.011 -0.2614 -0.3422  0.1095
  711MOL0     C97992   6.084  11.767   5.124  0.3733  0.0560 -0.1813
  711MOL0     C97993   6.184  11.866   5.072  0.3678  0.3722 -0.2595
  711MOL0     C97994   6.261  11.925   5.193 -0.0402 -0.7382 -0.3678
  711MOL0     C97995   6.396  11.983   5.153 -0.6918  0.1010  0.1024
  711MOL0     C97996   6.391  12.084   5.042  0.2511 -0.0859  1.1041
  711MOL0     N97997   6.521  12.153   5.038  1.3275 -0.5394 -0.6330
  711MOL0     C97998   6.539  12.275   5.090  0.2218  0.3049  0.5108
  711MOL0     C97999   6.674  12.295   5.058  0.6649 -0.1415 -0.1120
  711MOL0     C98000   6.749  12.413   5.103  0.1771  0.1355 -0.0926
  711MOL0     C98001   6.890  12.385   5.109 -0.2763 -0.5152 -0.2116
  711MOL0     C98002   6.968  12.481   5.197 -0.5977  0.6528 -0.1938
  711MOL0     C98003   7.123  12.450   5.208  0.4075  0.1340  0.4856
  711MOL0     O98004   7.189  12.472   5.088  0.3409 -0.0855  0.0617
  711MOL0     C98005   7.324  12.475   5.094 -0.0025  0.1623 -0.9859
  711MOL0     C98006   7.392  12.350   5.140 -0.8399 -1.1469  0.5878
  711MOL0     C98007   7.535  12.353   5.129 -0.9559 -0.1217 -0.0367
  711MOL0     C98008   7.607  12.235   5.203  0.1201  0.7241 -0.4405
  711MOL0     C98009   7.606  12.461   5.074  0.5100  0.2969 -0.2692
  711MOL0     C98010   7.752  12.468   5.064 -1.0699 -0.2928 -0.1840
  711MOL0     O98011   7.807  12.369   5.003 -0.3475 -0.2688 -0.1971
  711MOL0     C98012   7.929  12.394   4.944  0.2654 -0.1177  0.5134
  711MOL0     C98013   7.958  12.500   4.856 -0.2300 -0.5877 -0.3320
  711MOL0     C98014   8.089  12.504   4.817 -0.2021 -0.4547 -0.6297
  711MOL0     C98015   8.196  12.434   4.864 -0.7332  0.4760 -0.5040
  711MOL0     O98016   8.321  12.431   4.807  0.2644  0.4168  0.0733
  711MOL0     C98017   8.383  12.556   4.810  0.2115 -0.3454  0.0765
  711MOL0     C98018   8.528  12.533   4.752  0.2272 -0.0730  0.2910
  711MOL0     C98019   8.580  12.653   4.671 -0.7205 -0.1431  0.2409
  711MOL0     C98020   8.694  12.605   4.578 -0.5812 -0.2347 -0.1169
  711MOL0     C98021   8.755  12.725   4.502  0.4793 -0.4481 -0.1892
  711MOL0     C98022   8.877  12.694   4.430 -1.2162  0.6350 -0.3725
  711MOL0     C98023   8.853  12.578   4.321  0.2567  0.7533  0.1349
  711MOL0     C98024   8.976  12.551   4.231 -0.6765  0.8801  0.3677
  711MOL0    Cl98025   8.999  12.693   4.132  0.0104  0.0533 -0.1070
  711MOL0     C98026   8.164  12.339   4.962  0.1071  0.2066 -0.3995
  711MOL0     C98027   8.030  12.310   4.996  0.1026  0.3911  0.9223
  711MOL0     O98028   7.818  12.569   5.108  0.3299  0.3055  0.1395
  711MOL0     C98029   7.535  12.581   5.036  0.0155  0.2992 -0.5832
  711MOL0     C98030   7.395  12.585   5.056 -0.4763  0.1691  0.1465
  711MOL0     N98031   6.720  12.185   4.995 -0.4069 -0.8997  0.4378
  711MOL0     N98032   6.625  12.102   4.978  0.2525  0.0023  0.5818
  711MOL0     C98033   5.518  11.367   4.979 -0.4911  0.7021 -1.0420
  711MOL0     C98034   5.429  11.276   4.918 -0.1269 -0.2222 -0.7684
  711MOL0     C98035   5.232  10.998   4.572 -0.0852 -0.1245  0.2660
  711MOL0     C98036   5.118  11.011   4.658 -0.5940 -0.6344  0.4734
  711MOL0     C98037   4.994  10.954   4.612 -0.8896 -0.4965 -0.3320
  711MOL0     C98038   4.990  10.874   4.498  0.8291 -0.0273 -0.3692
  711MOL0     O98039   4.879  10.806   4.440 -0.1898  0.0259  0.0241
  711MOL0     C98040   4.761  10.799   4.527  0.4400 -0.7794 -0.9067
  711MOL0     C98041   4.652  10.717   4.463 -0.2398 -0.2355  0.0147
  711MOL0     C98042   4.658  10.565   4.504  0.4794  0.3928  0.6108
  711MOL0     C98043   4.525  10.498   4.553 -0.1413  0.1140 -0.6460
  711MOL0     C98044   4.491  10.568   4.676  0.6566  1.0237 -0.2807
  711MOL0     C98045   4.478  10.617   4.788 -0.6765  0.2849 -0.5319
  711MOL0     C98046   5.102  10.871   4.409  0.1868 -0.7697  0.1954
  711MOL0     C98047   5.226  10.933   4.443  0.9752 -0.3435  0.0753
  711MOL0     C98048   5.327  10.958   4.335  0.1451  0.8369 -0.4614
  711MOL0     H98049   5.543  11.276   4.596 -2.4704 -0.9255 -0.5012
  711MOL0     H98050   5.704  11.437   4.718  0.0161  3.8920  3.4378
  711MOL0     H98051   5.742  11.669   4.895 -1.2843 -0.8963 -1.6217
  711MOL0     H98052   5.875  11.549   4.869  1.6487 -0.1154  2.3139
  711MOL0     H98053   5.811  11.679   5.126 -0.0195 -0.2401 -0.9007
  711MOL0     H98054   5.925  11.550   5.098 -0.9774 -0.5575 -0.7269
  711MOL0     H98055   6.038  11.707   4.927  1.2131 -0.9297  1.3382
  711MOL0     H98056   5.934  11.841   4.985  0.9536 -0.5535 -3.3004
  711MOL0     H98057   6.019  11.790   5.209 -0.6797 -1.1030 -0.6430
  711MOL0     H98058   6.139  11.675   5.143  1.3321  0.4859 -0.7984
  711MOL0     H98059   6.121  11.945   5.032 -2.6476 -0.9084  1.6031
  711MOL0     H98060   6.247  11.824   4.993 -3.8318 -1.1292 -3.1407
  711MOL0     H98061   6.200  11.998   5.247  0.7027 -1.0686  0.9777
  711MOL0     H98062   6.276  11.843   5.264  3.5690  1.6501  1.9958
  711MOL0     H98063   6.467  11.907   5.120  0.2660  0.2026  1.8221
  711MOL0     H98064   6.449  12.034   5.234 -2.3624  2.1305  0.0171
  711MOL0     H98065   6.372  12.042   4.943  0.5554  0.9756  0.5810
  711MOL0     H98066   6.306  12.150   5.064 -1.3637 -1.1739 -1.3275
  711MOL0     H98067   6.468  12.343   5.136  2.3465  1.6831  1.9309
  711MOL0     H98068   6.717  12.437   5.204 -3.2769  1.1713 -1.2755
  711MOL0     H98069   6.734  12.498   5.034  2.4163 -0.8475 -1.9386
  711MOL0     H98070   6.908  12.288   5.154 -0.8115  0.2574  1.7847
  711MOL0     H98071   6.931  12.382   5.008 -0.2092 -1.7436 -0.1520
  711MOL0     H98072   6.955  12.587   5.173  1.2387  0.9266 -0.1786
  711MOL0     H98073   6.934  12.477   5.301  0.4219  2.7840  0.2886
  711MOL0     H98074   7.167  12.510   5.289  1.8254  0.2374 -0.3338
  711MOL0     H98075   7.132  12.345   5.236  2.4184  0.6167  1.8743
  711MOL0     H98076   7.339  12.265   5.182 -1.7631 -0.5212  0.7111
  711MOL0     H98077   7.711  12.263   5.223  1.1005 -1.5367 -2.0120
  711MOL0     H98078   7.595  12.142   5.147  1.3196 -0.8870  1.8397
  711MOL0     H98079   7.560  12.208   5.298 -0.9650 -4.6579 -2.1711
  711MOL0     H98080   7.870  12.552   4.820  0.9368  0.5837 -1.5971
  711MOL0     H98081   8.104  12.573   4.734 -0.4687  4.0488  2.7241
  711MOL0     H98082   8.327  12.629   4.751 -2.1811  1.0295  3.7415
  711MOL0     H98083   8.389  12.593   4.912  0.9529 -2.6360  0.9179
  711MOL0     H98084   8.593  12.500   4.833 -0.0457 -1.5593 -0.0609
  711MOL0     H98085   8.518  12.443   4.690  0.1985 -0.7309  1.2206
  711MOL0     H98086   8.618  12.725   4.744 -0.6237 -1.5700  1.6494
  711MOL0     H98087   8.503  12.693   4.605 -0.0908  0.0673 -0.3841
  711MOL0     H98088   8.657  12.535   4.502  0.0451  1.2195 -1.8088
  711MOL0     H98089   8.772  12.557   4.637 -0.8281 -0.5386 -0.0299
  711MOL0     H98090   8.677  12.766   4.436 -0.3055  0.1841  1.0918
  711MOL0     H98091   8.777  12.810   4.568  0.7025  0.3436 -1.2559
  711MOL0     H98092   8.956  12.673   4.502  0.6286 -1.5103 -2.8642
  711MOL0     H98093   8.914  12.783   4.378  1.3319 -0.6722 -0.9067
  711MOL0     H98094   8.775  12.615   4.254 -0.4957  0.3026  0.7345
  711MOL0     H98095   8.828  12.482   4.367  3.9380 -1.0739 -1.3110
  711MOL0     H98096   8.951  12.468   4.165 -2.1315  2.2742 -0.9290
  711MOL0     H98097   9.070  12.538   4.286 -0.6561 -1.9573 -0.2281
  711MOL0     H98098   8.247  12.280   5.000  0.0152  0.9638  1.0773
  711MOL0     H98099   8.009  12.237   5.073 -1.3343  0.7301  0.8860
  711MOL0     H98100   7.598  12.663   5.003  0.3054  0.4617  0.3527
  711MOL0     H98101   7.342  12.676   5.030  0.1826  0.7333  0.7388
  711MOL0     H98102   5.505  11.403   5.080  2.4198  1.5663 -0.8924
  711MOL0     H98103   5.349  11.232   4.976  1.3919 -1.4051  0.5300
  711MOL0     H98104   5.124  11.068   4.750  0.8944  0.1294 -0.0583
  711MOL0     H98105   4.917  10.969   4.687  1.6893  1.6286  2.1074
  711MOL0     H98106   4.785  10.760   4.627  1.4313 -1.1584 -1.2745
  711MOL0     H98107   4.711  10.896   4.527 -0.0575 -1.0277 -2.0727
  711MOL0     H98108   4.659  10.730   4.354  1.1063  1.9967  0.3132
  711MOL0     H98109   4.556  10.763   4.487  0.5196  0.3332  2.1230
  711MOL0     H98110   4.681  10.511   4.412  2.3323  1.8127  0.1675
  711MOL0     H98111   4.742  10.535   4.567 -1.5425 -0.0152  3.3071
  711MOL0     H98112   4.553  10.395   4.573  1.0088  0.3663 -0.8930
  711MOL0     H98113   4.445  10.495   4.478 -0.4693 -0.2764 -0.2863
  711MOL0     H98114   4.477  10.657   4.888 -1.1261 -0.1084 -0.3768
  711MOL0     H98115   5.094  10.825   4.312  0.6609  0.0567 -0.2441
  711MOL0     H98116   5.379  11.052   4.354  0.2154  1.0623 -1.6755
  711MOL0     H98117   5.403  10.881   4.350 -1.7908 -0.6839  2.6704
  711MOL0     H98118   5.293  10.965   4.231  0.4371 -0.4147 -0.6604
  712MOL0     O98119   7.603   3.250   3.309  0.6527 -0.1865 -0.3198
  712MOL0     C98120   7.546   3.266   3.205 -0.4475 -0.3278 -0.1574
  712MOL0     O98121   7.458   3.370   3.184  0.0160  0.3098  0.1673
  712MOL0     C98122   7.481   3.482   3.259 -0.1396  0.3396  0.7618
  712MOL0     C98123   7.431   3.489   3.385  0.5184 -0.2471  0.1012
  712MOL0     C98124   7.446   3.601   3.464 -0.4187 -0.5191 -0.5341
  712MOL0     C98125   7.522   3.710   3.416 -0.4305 -0.3019  0.7009
  712MOL0     O98126   7.553   3.828   3.486  0.0517  0.2266  0.9123
  712MOL0     C98127   7.564   3.801   3.624 -0.7568 -0.1766  0.1286
  712MOL0     C98128   7.626   3.928   3.696  1.3457 -0.0835  0.7072
  712MOL0     C98129   7.731   3.989   3.611 -1.5045  0.2618  0.2378
  712MOL0     C98130   7.813   4.085   3.701 -0.8945 -0.2075 -0.3676
  712MOL0     C98131   7.866   4.215   3.631  0.6792 -0.6445 -0.4602
  712MOL0     C98132   7.949   4.179   3.514  0.5528  0.3482  0.0111
  712MOL0     C98133   8.023   4.274   3.431  0.0522 -0.3531 -0.4775
  712MOL0     C98134   8.170   4.269   3.461 -0.7636 -0.5147  0.5307
  712MOL0     N98135   8.237   4.376   3.392 -0.5247  0.1355  0.5439
  712MOL0     C98136   8.275   4.489   3.460  0.1592 -0.8748  0.3178
  712MOL0     C98137   8.313   4.575   3.369 -0.4547  0.4431  0.5084
  712MOL0     C98138   8.348   4.718   3.378  0.7671 -0.5563  0.1439
  712MOL0     C98139   8.465   4.735   3.477 -0.6904  0.3731 -0.3256
  712MOL0     C98140   8.455   4.869   3.553  0.3386 -0.1288  0.1655
  712MOL0     C98141   8.587   4.908   3.621  0.1458 -1.1660  0.8388
  712MOL0     O98142   8.681   4.926   3.514 -0.2017 -0.0933 -0.1799
  712MOL0     C98143   8.792   5.000   3.520  0.2048  0.0925 -0.5570
  712MOL0     C98144   8.859   5.020   3.642  0.5901 -0.6459  0.2025
  712MOL0     C98145   8.985   5.075   3.654 -1.1028 -0.9662  0.0795
  712MOL0     C98146   9.038   5.098   3.792  0.5326  0.0252 -0.4286
  712MOL0     C98147   9.057   5.133   3.537  0.0211  0.2312  0.1324
  712MOL0     C98148   9.190   5.205   3.526  0.0995 -0.2836 -0.5554
  712MOL0     O98149   9.238   5.223   3.402 -0.0577  0.1112  1.1820
  712MOL0     C98150   9.371   5.228   3.370 -0.1059 -0.3413 -0.2233
  712MOL0     C98151   9.404   5.319   3.270 -1.0248  0.1621 -0.6575
  712MOL0     C98152   9.542   5.326   3.226  0.2604  0.7670  0.7266
  712MOL0     C98153   9.633   5.241   3.284 -0.5467 -0.1614  0.0861
  712MOL0     O98154   9.767   5.235   3.242  0.4665  0.4578  0.4119
  712MOL0     C98155   9.830   5.325   3.144  0.2578 -0.1890 -0.3062
  712MOL0     C98156   9.897   5.441   3.217  0.3885  0.0574 -0.2489
  712MOL0     C98157   9.975   5.506   3.108 -0.2848 -0.1348 -0.0181
  712MOL0     C98158   9.990   5.656   3.120  0.0550  0.9455 -0.4872
  712MOL0     C98159  10.076   5.711   3.230 -0.9932 -0.5740  0.8714
  712MOL0     C98160  10.224   5.711   3.199 -0.1457 -0.2708  0.4800
  712MOL0     C98161  10.313   5.717   3.326 -0.1300 -0.7841  0.4049
  712MOL0     C98162  10.469   5.732   3.292  0.1675 -2.0109  0.5639
  712MOL0    Cl98163  10.550   5.722   3.452 -0.2504 -0.0086 -0.3022
  712MOL0     C98164   9.597   5.155   3.381  0.3718 -0.2454 -0.4843
  712MOL0     C98165   9.469   5.142   3.427  1.4893 -0.5182  0.1160
  712MOL0     O98166   9.248   5.229   3.631  0.8065 -0.5417 -0.9263
  712MOL0     C98167   8.996   5.098   3.416  0.2049 -0.8226  0.1193
  712MOL0     C98168   8.859   5.045   3.406  0.0525 -0.5044  0.3633
  712MOL0     N98169   8.299   4.510   3.248  0.4723  0.5225  0.2816
  712MOL0     N98170   8.251   4.393   3.258 -1.1462 -0.3367  0.2902
  712MOL0     C98171   7.571   3.705   3.284 -0.0373 -0.5252 -0.9400
  712MOL0     C98172   7.547   3.591   3.208 -0.9164  0.3922  1.1170
  712MOL0     C98173   7.563   3.166   3.097 -0.1829 -0.3994  0.4659
  712MOL0     C98174   7.476   3.161   2.993 -0.7916  0.1604  0.0163
  712MOL0     C98175   7.486   3.065   2.882  0.4171  0.0316 -0.4580
  712MOL0     C98176   7.585   2.969   2.883  0.2713  0.2241  0.5753
  712MOL0     O98177   7.580   2.870   2.781  0.8468 -0.6504 -0.5568
  712MOL0     C98178   7.641   2.745   2.813  0.5769  0.3270  0.0564
  712MOL0     C98179   7.785   2.714   2.773 -0.4177 -1.1005 -0.1998
  712MOL0     C98180   7.804   2.743   2.629 -0.4132  0.2213 -0.1013
  712MOL0     C98181   7.696   2.686   2.531  0.5171 -0.8085  0.1280
  712MOL0     C98182   7.676   2.539   2.530  0.9223 -0.3895  0.0852
  712MOL0     C98183   7.665   2.419   2.551  0.0964 -0.7942  0.1305
  712MOL0     C98184   7.677   2.970   2.988  0.2699 -0.1567 -0.0253
  712MOL0     C98185   7.671   3.074   3.089  0.7505  0.5389 -0.1279
  712MOL0     C98186   7.787   3.081   3.193  0.7449  0.8793 -0.3392
  712MOL0     H98187   7.370   3.407   3.419  0.1326 -0.8387 -1.8824
  712MOL0     H98188   7.405   3.604   3.565 -0.3907 -0.3073 -0.5291
  712MOL0     H98189   7.638   3.722   3.634 -0.1467  0.5922  2.0272
  712MOL0     H98190   7.472   3.770   3.674 -1.6414 -0.1625 -1.4090
  712MOL0     H98191   7.546   3.999   3.721  1.0939 -0.7295  1.7957
  712MOL0     H98192   7.663   3.883   3.789 -1.9761 -0.0929  2.1359
  712MOL0     H98193   7.807   3.919   3.575  0.6395  2.9479 -0.7560
  712MOL0     H98194   7.699   4.050   3.526 -0.5910  1.8188  0.9640
  712MOL0     H98195   7.745   4.121   3.778  0.8796  2.5835  0.0353
  712MOL0     H98196   7.901   4.036   3.743  0.8013  1.4736 -1.7729
  712MOL0     H98197   7.942   4.264   3.694  0.0963  0.0031 -0.2523
  712MOL0     H98198   7.780   4.280   3.614 -1.2129 -2.6006  1.1572
  712MOL0     H98199   8.018   4.111   3.564 -1.0248  0.0725  1.9436
  712MOL0     H98200   7.890   4.116   3.446 -0.0524 -1.3318  1.9873
  712MOL0     H98201   7.979   4.374   3.431 -0.1077 -0.4066 -2.0187
  712MOL0     H98202   8.022   4.232   3.330  2.6464 -1.7896  0.0083
  712MOL0     H98203   8.185   4.287   3.568 -0.4050 -0.6359  0.5018
  712MOL0     H98204   8.219   4.172   3.452  1.6357  0.5643  1.2521
  712MOL0     H98205   8.268   4.496   3.568 -2.1135 -1.7554  0.2744
  712MOL0     H98206   8.260   4.770   3.417  1.2406  0.7403 -0.4692
  712MOL0     H98207   8.380   4.757   3.282 -1.7363 -0.0193 -0.5528
  712MOL0     H98208   8.480   4.658   3.553  2.3822  1.9185  0.7890
  712MOL0     H98209   8.558   4.724   3.421  0.4137 -1.5815  1.7555
  712MOL0     H98210   8.419   4.944   3.481  0.6443  0.0492  0.1972
  712MOL0     H98211   8.383   4.856   3.634 -0.5368  4.5649  0.4075
  712MOL0     H98212   8.561   4.993   3.684  0.1388 -1.1504  0.8163
  712MOL0     H98213   8.641   4.836   3.684  3.5299 -3.5015 -4.0853
  712MOL0     H98214   8.804   4.995   3.732  0.0543  0.4015  0.1807
  712MOL0     H98215   9.144   5.074   3.804  0.5409  1.1363  2.8669
  712MOL0     H98216   8.971   5.042   3.859  0.9477  0.5616  0.4538
  712MOL0     H98217   9.024   5.201   3.826 -1.0771  0.6528 -2.7816
  712MOL0     H98218   9.327   5.359   3.206 -1.3733 -2.4550 -2.0435
  712MOL0     H98219   9.558   5.390   3.140  0.6141 -2.4958 -1.8416
  712MOL0     H98220   9.904   5.259   3.097  1.7153  0.4715  0.9650
  712MOL0     H98221   9.757   5.353   3.068 -0.8798  2.4495  1.6221
  712MOL0     H98222   9.830   5.511   3.268  0.4588 -0.6123  0.8055
  712MOL0     H98223   9.973   5.410   3.290  1.4881 -1.9466 -2.1145
  712MOL0     H98224   9.912   5.499   3.018  0.1681  0.0345 -0.3507
  712MOL0     H98225  10.068   5.451   3.093  0.9274  1.2816  1.7936
  712MOL0     H98226   9.891   5.704   3.130 -0.0872  0.9538 -1.7627
  712MOL0     H98227  10.035   5.681   3.024  1.4500  0.8580  0.1298
  712MOL0     H98228  10.043   5.814   3.247  1.4578  0.3684  0.2664
  712MOL0     H98229  10.059   5.656   3.323  1.5323 -2.6081  0.2359
  712MOL0     H98230  10.241   5.802   3.141  0.6417 -1.2478 -0.8776
  712MOL0     H98231  10.258   5.627   3.139 -0.2888  1.0094 -1.4874
  712MOL0     H98232  10.308   5.624   3.383  2.9562  0.1094  2.3563
  712MOL0     H98233  10.281   5.795   3.396  0.9598 -1.5610  1.8157
  712MOL0     H98234  10.478   5.828   3.241  0.8402 -2.7120 -0.6625
  712MOL0     H98235  10.510   5.652   3.230 -0.5256 -0.9768 -1.2820
  712MOL0     H98236   9.671   5.083   3.415  1.4619  2.2004  2.8693
  712MOL0     H98237   9.437   5.077   3.508  1.7763 -0.2661  0.4317
  712MOL0     H98238   9.044   5.130   3.324  0.9732 -0.5236  0.6108
  712MOL0     H98239   8.826   5.021   3.305  2.0170  0.5408 -0.5972
  712MOL0     H98240   7.615   3.798   3.250 -1.3086 -0.0325 -1.3176
  712MOL0     H98241   7.580   3.579   3.105 -1.2837 -6.5632  1.3071
  712MOL0     H98242   7.385   3.219   2.983 -2.5470 -2.0997  1.8125
  712MOL0     H98243   7.417   3.069   2.798  0.7747 -2.0940 -0.9122
  712MOL0     H98244   7.628   2.728   2.921  0.2204  1.9025  0.2790
  712MOL0     H98245   7.583   2.679   2.748  0.5908  0.7701 -0.4115
  712MOL0     H98246   7.810   2.611   2.801 -1.6673 -1.3876 -0.0619
  712MOL0     H98247   7.861   2.774   2.825  0.2829 -1.0264 -1.2793
  712MOL0     H98248   7.821   2.851   2.624  0.5077  0.2255  1.9043
  712MOL0     H98249   7.900   2.700   2.600  0.3915 -1.1591  3.9167
  712MOL0     H98250   7.742   2.710   2.435  0.8192 -0.9389  0.2380
  712MOL0     H98251   7.604   2.744   2.531  0.9524  0.0409 -2.6928
  712MOL0     H98252   7.648   2.318   2.581 -0.0784 -0.3114  1.7562
  712MOL0     H98253   7.760   2.902   3.005  0.7514  0.9307  2.4103
  712MOL0     H98254   7.754   3.070   3.296 -1.9708 -0.1708 -1.2155
  712MOL0     H98255   7.853   2.997   3.172 -3.6301 -3.2508  0.6629
  712MOL0     H98256   7.838   3.177   3.183  0.1214  1.1344 -1.2459
  713MOL0     O98257   0.888   4.933   9.550  0.6711 -0.3239 -0.2023
  713MOL0     C98258   0.831   4.848   9.483  0.6004  1.0843 -1.2339
  713MOL0     O98259   0.888   4.775   9.385  0.9411  0.2302 -0.0143
  713MOL0     C98260   1.017   4.798   9.346  1.0835 -0.6873 -0.2422
  713MOL0     C98261   1.050   4.912   9.267 -0.1253 -0.1425 -0.5858
  713MOL0     C98262   1.178   4.932   9.235 -0.4301  0.0787  0.4338
  713MOL0     C98263   1.283   4.839   9.277  0.0916  0.4496  0.4365
  713MOL0     O98264   1.407   4.878   9.246  0.4129  0.5067  0.5614
  713MOL0     C98265   1.512   4.808   9.313 -1.2840 -0.2873 -0.5852
  713MOL0     C98266   1.648   4.864   9.266 -0.4114  0.0613 -0.7081
  713MOL0     C98267   1.680   5.006   9.317  0.3546  0.1216 -0.0667
  713MOL0     C98268   1.827   5.041   9.294  0.0616 -0.4010 -0.0377
  713MOL0     C98269   1.896   5.127   9.407  0.7637 -0.2325  1.1155
  713MOL0     C98270   1.967   5.039   9.513 -0.6595  0.8678 -1.1066
  713MOL0     C98271   2.040   5.127   9.615  0.2023 -0.4901  0.7321
  713MOL0     C98272   2.122   5.050   9.714  0.5390  0.4640 -1.0054
  713MOL0     N98273   2.216   5.128   9.796 -0.4853  0.2185  0.5519
  713MOL0     C98274   2.326   5.192   9.744  0.3968  0.2534  0.8406
  713MOL0     C98275   2.369   5.262   9.850 -0.6641  0.0491  0.5318
  713MOL0     C98276   2.486   5.363   9.857 -0.0923  0.1054  0.1867
  713MOL0     C98277   2.627   5.295   9.832  0.2313 -0.6697 -0.5609
  713MOL0     C98278   2.696   5.265   9.963  0.6588 -0.4319 -0.2831
  713MOL0     C98279   2.803   5.149   9.944 -0.4403 -0.1541  0.3776
  713MOL0     O98280   2.895   5.190   9.845 -0.4465 -0.2672 -1.1705
  713MOL0     C98281   2.999   5.097   9.840  1.1509 -0.3098  0.5853
  713MOL0     C98282   2.990   4.998   9.742  0.6764 -0.3640 -0.4105
  713MOL0     C98283   3.093   4.900   9.719 -0.1237  0.2798 -0.2820
  713MOL0     C98284   3.084   4.819   9.593  0.1120  0.8935  0.9305
  713MOL0     C98285   3.187   4.892   9.820 -0.4875  0.1288  0.2648
  713MOL0     C98286   3.271   4.769   9.820 -0.7275  1.1939 -0.3300
  713MOL0     O98287   3.385   4.779   9.897 -0.1573  0.3862  0.1628
  713MOL0     C98288   3.459   4.664   9.933 -0.2907  0.2363 -0.3348
  713MOL0     C98289   3.478   4.563   9.839  0.1783 -0.3122  0.6568
  713MOL0     C98290   3.550   4.444   9.870 -0.5683  0.0721 -0.8573
  713MOL0     C98291   3.617   4.430   9.990 -0.7175  0.1099 -0.8632
  713MOL0     O98292   3.697   4.322  10.002  0.4542 -0.1350  0.9554
  713MOL0     C98293   3.835   4.356  10.018 -0.8065  0.6113  0.5450
  713MOL0     C98294   3.903   4.435   9.900 -0.5578 -0.1705  0.4976
  713MOL0     C98295   4.055   4.452   9.945  0.1780  0.3632 -0.4563
  713MOL0     C98296   4.147   4.511   9.832  0.1572  0.2425 -0.6201
  713MOL0     C98297   4.300   4.511   9.861 -0.2995  0.3152 -0.9833
  713MOL0     C98298   4.374   4.410   9.788  0.1092  0.0270 -1.0071
  713MOL0     C98299   4.519   4.407   9.829  1.0919  0.6901 -0.1583
  713MOL0     C98300   4.597   4.515   9.755 -0.0202 -0.3695 -0.6354
  713MOL0    Cl98301   4.758   4.542   9.827 -0.8850  0.3508 -0.1339
  713MOL0     C98302   3.597   4.530  10.088  0.2981  0.1941 -0.4886
  713MOL0     C98303   3.522   4.648  10.060 -0.0320 -0.2830 -0.5027
  713MOL0     O98304   3.236   4.662   9.770 -1.0739  0.4370 -0.0793
  713MOL0     C98305   3.189   4.981   9.928  0.7731 -0.1772 -0.2323
  713MOL0     C98306   3.103   5.088   9.934  0.0936  0.7495  0.4279
  713MOL0     N98307   2.295   5.227   9.960 -0.2623  0.3397 -0.7163
  713MOL0     N98308   2.205   5.136   9.927  0.6415  0.8843 -0.6929
  713MOL0     C98309   1.248   4.722   9.347  0.2764 -0.1163  0.0661
  713MOL0     C98310   1.115   4.698   9.378  0.7950 -0.2529  0.2151
  713MOL0     C98311   0.684   4.824   9.519 -0.4891  0.4922  0.9034
  713MOL0     C98312   0.613   4.749   9.430 -0.0834 -0.2033  0.4557
  713MOL0     C98313   0.485   4.710   9.450 -0.8275 -0.4754  1.1648
  713MOL0     C98314   0.419   4.744   9.564 -0.0878  0.1358 -0.7047
  713MOL0     O98315   0.296   4.695   9.591  0.0980  0.3422  0.0994
  713MOL0     C98316   0.246   4.568   9.543 -0.3297 -0.6182 -0.2103
  713MOL0     C98317   0.110   4.530   9.610 -0.1472 -0.4034 -0.1977
  713MOL0     C98318  -0.019   4.600   9.554  0.5742  0.3319  0.1716
  713MOL0     C98319  -0.048   4.553   9.411 -0.5576 -0.1448  0.0068
  713MOL0     C98320  -0.104   4.421   9.421  0.7547  0.8503  0.2063
  713MOL0     C98321  -0.167   4.316   9.439 -0.9247 -0.1458 -0.0953
  713MOL0     C98322   0.486   4.826   9.655  0.3155 -0.0237 -0.0296
  713MOL0     C98323   0.620   4.870   9.631  0.9266  0.0712  0.4248
  713MOL0     C98324   0.683   4.941   9.735  0.1561  0.5116 -0.5216
  713MOL0     H98325   0.968   4.979   9.241 -1.5902 -1.1745  1.1704
  713MOL0     H98326   1.190   5.030   9.189  2.1534 -0.1300  0.5494
  713MOL0     H98327   1.510   4.701   9.293  0.4467 -0.7504  1.4015
  713MOL0     H98328   1.511   4.829   9.420  0.4669 -2.3476 -0.1138
  713MOL0     H98329   1.724   4.791   9.295 -1.6487 -0.2148  2.1300
  713MOL0     H98330   1.641   4.857   9.157 -0.8221 -1.1338 -0.6268
  713MOL0     H98331   1.616   5.084   9.276  1.5722 -0.0091 -2.3875
  713MOL0     H98332   1.653   5.010   9.423 -3.5381  0.3222 -0.9429
  713MOL0     H98333   1.883   4.947   9.287  2.5359  1.0314 -0.6903
  713MOL0     H98334   1.838   5.077   9.192 -2.7388  0.1968 -0.2062
  713MOL0     H98335   1.819   5.194   9.446 -0.8890  0.8295 -3.3694
  713MOL0     H98336   1.970   5.189   9.357 -0.0115 -0.7748 -0.7858
  713MOL0     H98337   1.902   4.965   9.559  0.2989 -0.0571 -1.1901
  713MOL0     H98338   2.049   4.985   9.464  1.3690  1.6822  1.1888
  713MOL0     H98339   1.975   5.190   9.676  1.6348 -1.4685  3.4523
  713MOL0     H98340   2.103   5.198   9.562  2.1333 -2.0230  0.8466
  713MOL0     H98341   2.064   4.980   9.775 -0.4396  0.7292 -1.6043
  713MOL0     H98342   2.180   4.980   9.653 -0.9851 -2.3233  0.5094
  713MOL0     H98343   2.363   5.177   9.643 -0.0183 -1.7553  0.9470
  713MOL0     H98344   2.484   5.429   9.944  1.5321  1.8391 -1.0144
  713MOL0     H98345   2.457   5.433   9.779 -1.1840 -1.4262 -0.8270
  713MOL0     H98346   2.622   5.205   9.771 -0.8743 -1.5205  0.7376
  713MOL0     H98347   2.686   5.372   9.781  1.2385 -2.7336 -2.7265
  713MOL0     H98348   2.735   5.356  10.009 -3.4788  0.8369  1.1276
  713MOL0     H98349   2.609   5.246  10.027 -0.6697  2.0214 -1.2362
  713MOL0     H98350   2.854   5.122  10.037  2.3980  0.7645 -0.8059
  713MOL0     H98351   2.748   5.067   9.895  0.5448  1.1890 -3.3319
  713MOL0     H98352   2.920   4.990   9.659  1.0637  0.7453 -0.8762
  713MOL0     H98353   3.030   4.869   9.511 -0.0169 -1.7974 -0.7294
  713MOL0     H98354   3.032   4.727   9.620  0.0211  0.7409  0.2503
  713MOL0     H98355   3.184   4.794   9.557 -0.4003  0.8732 -0.5741
  713MOL0     H98356   3.452   4.591   9.737  0.1063 -0.9758  0.4904
  713MOL0     H98357   3.558   4.366   9.794  0.5916 -2.3687  1.6193
  713MOL0     H98358   3.841   4.425  10.102  2.0533  0.8752  0.2265
  713MOL0     H98359   3.881   4.259  10.039 -1.7616 -0.2755 -1.2746
  713MOL0     H98360   3.904   4.379   9.806  2.8376  0.5291 -0.0270
  713MOL0     H98361   3.854   4.531   9.885  3.2019  2.2611  2.3365
  713MOL0     H98362   4.088   4.351   9.971 -1.7890 -0.2809 -0.2755
  713MOL0     H98363   4.048   4.506  10.040 -1.3692 -1.2023  0.3693
  713MOL0     H98364   4.110   4.614   9.821  0.6139  0.8016  2.1742
  713MOL0     H98365   4.122   4.467   9.735 -1.0792  3.6042 -2.0070
  713MOL0     H98366   4.333   4.613   9.837  0.7650 -0.1770 -1.7256
  713MOL0     H98367   4.312   4.503   9.970  1.4775  0.4411 -1.1413
  713MOL0     H98368   4.363   4.424   9.680 -0.7719  2.3502 -0.6760
  713MOL0     H98369   4.330   4.314   9.817  1.2701 -0.1499  0.2693
  713MOL0     H98370   4.553   4.313   9.785 -2.0974  0.1032 -1.7195
  713MOL0     H98371   4.533   4.408   9.937  2.6051  2.4685 -0.3264
  713MOL0     H98372   4.540   4.607   9.748  1.0179  0.2628 -1.0288
  713MOL0     H98373   4.609   4.473   9.655 -0.1541 -0.4817 -0.6038
  713MOL0     H98374   3.642   4.527  10.187 -0.7747  1.0436  0.0433
  713MOL0     H98375   3.505   4.732  10.127  1.8173  0.6596 -1.1538
  713MOL0     H98376   3.251   4.991  10.016  1.4751  0.2535 -0.7673
  713MOL0     H98377   3.112   5.161  10.014 -1.8813  0.6613  0.7891
  713MOL0     H98378   1.310   4.638   9.375  0.3829  0.5309  1.9160
  713MOL0     H98379   1.079   4.605   9.421 -1.3179  0.4118  0.0073
  713MOL0     H98380   0.657   4.694   9.347  1.1578  0.2763  0.7777
  713MOL0     H98381   0.450   4.648   9.368  3.8131 -2.2979  0.3019
  713MOL0     H98382   0.226   4.573   9.435  0.0453 -3.0724 -0.4436
  713MOL0     H98383   0.318   4.487   9.556  0.6565  0.2326 -0.2326
  713MOL0     H98384   0.122   4.554   9.716  0.3572 -2.9030  0.3691
  713MOL0     H98385   0.103   4.421   9.611 -1.8897 -0.3611  2.8987
  713MOL0     H98386  -0.099   4.598   9.628  0.3700  2.0246  0.0164
  713MOL0     H98387   0.007   4.706   9.553 -0.0011  0.4712 -0.0529
  713MOL0     H98388   0.039   4.567   9.346 -1.9189 -0.5116 -1.9632
  713MOL0     H98389  -0.124   4.609   9.356 -0.4422 -0.2150 -0.2268
  713MOL0     H98390  -0.228   4.232   9.465 -2.2203  0.4899 -0.9278
  713MOL0     H98391   0.436   4.852   9.748  1.7712  0.7656  0.5672
  713MOL0     H98392   0.616   4.955   9.820  0.1858 -0.1867 -0.3786
  713MOL0     H98393   0.768   4.886   9.777  1.0571  0.7420 -1.9473
  713MOL0     H98394   0.720   5.040   9.704  1.4339 -0.0951 -1.0014
  714MOL0     O98395   1.344   9.905   8.384  0.0444 -0.1752 -0.1297
  714MOL0     C98396   1.377  10.020   8.399 -0.3064 -0.2604 -0.4448
  714MOL0     O98397   1.492  10.069   8.356 -0.0436  0.1493  0.7417
  714MOL0     C98398   1.602   9.989   8.344  0.4039 -0.2065  1.0716
  714MOL0     C98399   1.628   9.876   8.428  0.0421 -0.5750  0.2719
  714MOL0     C98400   1.747   9.797   8.411 -0.2237 -0.1593 -0.2989
  714MOL0     C98401   1.838   9.835   8.308  0.4609 -0.9699  0.0383
  714MOL0     O98402   1.956   9.777   8.296  0.4777  0.1703 -0.2459
  714MOL0     C98403   1.968   9.640   8.345 -0.0179  0.2730  0.3831
  714MOL0     C98404   2.064   9.571   8.249  0.7883  0.0728  0.5554
  714MOL0     C98405   2.204   9.594   8.277 -0.2968 -0.3463  0.2979
  714MOL0     C98406   2.287   9.550   8.161 -0.2087  0.0833 -0.7081
  714MOL0     C98407   2.437   9.528   8.191  0.4328 -0.5524  0.2337
  714MOL0     C98408   2.516   9.655   8.220 -0.2714  0.5687 -0.5953
  714MOL0     C98409   2.666   9.638   8.254 -0.6002  0.3710  0.4934
  714MOL0     C98410   2.747   9.768   8.260  0.5496 -0.0103 -0.6834
  714MOL0     N98411   2.886   9.740   8.293 -0.1446 -0.1026 -0.6634
  714MOL0     C98412   2.990   9.730   8.201 -0.1717 -0.3276  0.5533
  714MOL0     C98413   3.095   9.679   8.280  0.1073 -0.6321  1.1356
  714MOL0     C98414   3.225   9.630   8.216 -0.0214 -0.4336 -0.1533
  714MOL0     C98415   3.354   9.691   8.257 -0.5963 -0.4181  0.0461
  714MOL0     C98416   3.399   9.642   8.396  0.7661 -0.0635 -0.0231
  714MOL0     C98417   3.527   9.695   8.440 -0.5440 -0.5545  0.4237
  714MOL0     O98418   3.525   9.837   8.411 -0.0780  0.2021 -0.2165
  714MOL0     C98419   3.641   9.909   8.438 -0.0189 -0.2878  0.1762
  714MOL0     C98420   3.643  10.047   8.416 -0.1105  0.6083 -0.0619
  714MOL0     C98421   3.743  10.131   8.453  0.3543 -1.0068  0.0618
  714MOL0     C98422   3.742  10.283   8.427  0.4796 -0.3033 -0.0566
  714MOL0     C98423   3.856  10.069   8.518 -0.6401 -0.6323  0.3290
  714MOL0     C98424   3.972  10.140   8.564 -0.4733 -0.5663  0.1429
  714MOL0     O98425   4.094  10.077   8.603 -0.2938 -0.3671  0.9024
  714MOL0     C98426   4.195  10.133   8.678  1.1253 -0.6988 -0.7331
  714MOL0     C98427   4.168  10.232   8.779  0.3246 -0.1063 -0.4392
  714MOL0     C98428   4.277  10.271   8.861 -0.3056 -0.1709  0.2044
  714MOL0     C98429   4.416  10.226   8.842 -0.9540 -0.4509 -0.5749
  714MOL0     O98430   4.518  10.267   8.931 -0.0994  0.1559 -0.0511
  714MOL0     C98431   4.475  10.301   9.065  0.3877 -0.3744 -0.5462
  714MOL0     C98432   4.592  10.319   9.146 -0.7302  0.5016  0.0404
  714MOL0     C98433   4.659  10.458   9.144 -0.1299  0.8133 -1.0346
  714MOL0     C98434   4.794  10.463   9.218  0.2693 -0.8865  0.0506
  714MOL0     C98435   4.909  10.524   9.122 -0.6876  0.4748 -1.0319
  714MOL0     C98436   4.884  10.674   9.109  0.0382  0.0335  0.0291
  714MOL0     C98437   5.018  10.741   9.052  1.2483 -0.1466  0.4039
  714MOL0     C98438   5.044  10.693   8.905  0.0917  0.4505 -0.0529
  714MOL0    Cl98439   4.894  10.699   8.805  0.1610 -0.0366  0.1494
  714MOL0     C98440   4.434  10.138   8.739  0.9969 -0.4836  0.4463
  714MOL0     C98441   4.318  10.094   8.663 -0.9402  1.0489 -0.6791
  714MOL0     O98442   3.943  10.249   8.605 -0.4810  0.7322 -0.2835
  714MOL0     C98443   3.864   9.929   8.535 -0.1387  0.4680  0.3394
  714MOL0     C98444   3.753   9.856   8.502 -0.3377  0.1716 -0.4727
  714MOL0     N98445   3.054   9.659   8.414  0.2837 -0.8620  0.0500
  714MOL0     N98446   2.934   9.693   8.408 -0.3208 -0.5527 -0.7105
  714MOL0     C98447   1.812   9.952   8.236 -1.3212  0.4526 -0.6788
  714MOL0     C98448   1.702  10.030   8.260 -0.0458 -0.2527  0.1883
  714MOL0     C98449   1.290  10.118   8.473  1.0851 -0.3852  0.4900
  714MOL0     C98450   1.333  10.253   8.512 -0.0031  0.4912  0.1567
  714MOL0     C98451   1.252  10.345   8.571  0.0977  0.4183 -0.7788
  714MOL0     C98452   1.123  10.325   8.611  0.2948 -0.5264  1.1011
  714MOL0     O98453   1.060  10.434   8.663  0.1556 -0.5724  0.9506
  714MOL0     C98454   0.924  10.410   8.698  0.0693  0.8168 -0.3515
  714MOL0     C98455   0.869  10.525   8.776  0.0744 -0.8009 -0.1398
  714MOL0     C98456   0.727  10.514   8.826 -0.1510  0.3198  0.4948
  714MOL0     C98457   0.702  10.387   8.907  0.8709  0.1051  0.8283
  714MOL0     C98458   0.754  10.406   9.044  0.6720 -0.1951  0.2588
  714MOL0     C98459   0.817  10.415   9.149  0.8287 -0.0830 -0.3033
  714MOL0     C98460   1.080  10.192   8.583  0.8608  0.5801 -0.3387
  714MOL0     C98461   1.160  10.099   8.519  0.2185  0.2297  0.2386
  714MOL0     C98462   1.091   9.964   8.497 -0.0006  0.6611 -0.1000
  714MOL0     H98463   1.567   9.857   8.515  1.0852  1.1083  1.4269
  714MOL0     H98464   1.766   9.719   8.484 -0.6830 -0.0525 -0.0616
  714MOL0     H98465   1.871   9.590   8.351  0.9945 -1.7507  0.6251
  714MOL0     H98466   1.992   9.636   8.452  1.8883  1.0626  0.0323
  714MOL0     H98467   2.038   9.467   8.272 -1.8004  0.9024  1.7023
  714MOL0     H98468   2.045   9.577   8.142 -0.7024 -2.8770  0.5288
  714MOL0     H98469   2.215   9.703   8.285 -0.2049 -0.2697 -0.7043
  714MOL0     H98470   2.239   9.547   8.369 -2.0810 -3.5524 -0.5283
  714MOL0     H98471   2.244   9.455   8.127 -1.1576 -0.1419  0.9924
  714MOL0     H98472   2.280   9.617   8.075  1.3721  0.2054 -0.7761
  714MOL0     H98473   2.484   9.474   8.108  1.9662 -1.2174  1.4820
  714MOL0     H98474   2.433   9.465   8.280 -0.9748  0.1595  0.7049
  714MOL0     H98475   2.501   9.718   8.131  1.1870 -2.2529 -3.0164
  714MOL0     H98476   2.465   9.695   8.309 -4.0468  0.8330 -2.6444
  714MOL0     H98477   2.710   9.575   8.176 -1.2850  1.9283 -1.2228
  714MOL0     H98478   2.682   9.588   8.350  0.4169  1.6080  0.9914
  714MOL0     H98479   2.731   9.815   8.163  0.9186  3.5736  0.8362
  714MOL0     H98480   2.702   9.827   8.340  1.5399  3.6260 -2.5788
  714MOL0     H98481   2.985   9.764   8.098 -3.9178  1.8315  1.2563
  714MOL0     H98482   3.210   9.635   8.108 -0.5880  3.4899 -0.0385
  714MOL0     H98483   3.230   9.524   8.243 -2.4010 -0.6347 -0.2651
  714MOL0     H98484   3.423   9.658   8.180 -0.7421  0.1077 -0.3134
  714MOL0     H98485   3.342   9.799   8.264 -1.2995 -0.5288  0.7812
  714MOL0     H98486   3.327   9.695   8.459  1.2466  0.8592 -0.2374
  714MOL0     H98487   3.394   9.534   8.413 -3.6958  0.0937  0.9431
  714MOL0     H98488   3.529   9.685   8.549 -4.8573 -1.2295  0.5873
  714MOL0     H98489   3.599   9.639   8.380 -0.3693  1.0740 -0.9697
  714MOL0     H98490   3.557  10.092   8.369  0.0318  1.7813  0.7436
  714MOL0     H98491   3.836  10.313   8.379  1.4385 -1.9559  0.7139
  714MOL0     H98492   3.724  10.344   8.516  2.2605 -1.8852  1.4596
  714MOL0     H98493   3.648  10.296   8.372 -0.1786  2.0973  1.4603
  714MOL0     H98494   4.068  10.269   8.802 -0.8786 -3.6499  0.8547
  714MOL0     H98495   4.253  10.354   8.926  1.0805 -0.7521  1.5098
  714MOL0     H98496   4.421  10.396   9.076 -2.8194 -1.6933 -3.1184
  714MOL0     H98497   4.415  10.223   9.113  0.3947 -0.3256 -0.4564
  714MOL0     H98498   4.564  10.316   9.252 -0.7363  0.3599  0.0353
  714MOL0     H98499   4.668  10.245   9.118 -0.5014 -0.4043  2.7579
  714MOL0     H98500   4.590  10.526   9.195 -0.6149  0.2521 -0.9451
  714MOL0     H98501   4.663  10.500   9.043  1.9485  1.7951 -0.6038
  714MOL0     H98502   4.826  10.369   9.263  0.4853 -1.0300 -0.3972
  714MOL0     H98503   4.781  10.534   9.300 -0.4594  0.5320 -1.2290
  714MOL0     H98504   5.000  10.496   9.177 -0.6017 -1.3757 -2.0564
  714MOL0     H98505   4.910  10.475   9.025  2.4837 -0.6370 -0.5718
  714MOL0     H98506   4.879  10.720   9.208  0.7125 -1.7021  0.9183
  714MOL0     H98507   4.788  10.694   9.060 -1.1273 -2.2037  1.2155
  714MOL0     H98508   5.098  10.733   9.126  0.5902  2.9724  1.6103
  714MOL0     H98509   5.006  10.849   9.045  2.7364 -0.0106 -5.3842
  714MOL0     H98510   5.083  10.591   8.912  1.6184  1.0325  0.3974
  714MOL0     H98511   5.126  10.757   8.870  2.1875 -2.4215 -0.7589
  714MOL0     H98512   4.527  10.092   8.707  0.2653  0.9315 -4.5692
  714MOL0     H98513   4.345  10.042   8.572  0.6309  0.4465  0.0944
  714MOL0     H98514   3.949   9.888   8.589  0.8188 -0.1665 -1.5619
  714MOL0     H98515   3.764   9.748   8.503  0.6778  0.2089 -2.4875
  714MOL0     H98516   1.894  10.001   8.186 -1.7799  0.5132 -1.3868
  714MOL0     H98517   1.711  10.118   8.197  1.1109 -1.1893 -0.9940
  714MOL0     H98518   1.432  10.286   8.483  0.1976 -0.5289 -0.3994
  714MOL0     H98519   1.303  10.439   8.592  1.2102 -0.8063  2.8225
  714MOL0     H98520   0.856  10.386   8.616 -1.9204 -0.1850  1.5007
  714MOL0     H98521   0.924  10.322   8.762 -1.0902  1.1405  0.1063
  714MOL0     H98522   0.867  10.608   8.705 -1.9847 -1.6793 -1.1878
  714MOL0     H98523   0.930  10.556   8.861  1.5062  0.3283 -1.5239
  714MOL0     H98524   0.690  10.600   8.882  1.8335  1.8364 -0.3973
  714MOL0     H98525   0.659  10.516   8.739 -0.1718  4.7176  0.4029
  714MOL0     H98526   0.761  10.306   8.864  3.1667  1.7664  0.6380
  714MOL0     H98527   0.595  10.365   8.904  1.0598 -0.8249  0.5984
  714MOL0     H98528   0.882  10.435   9.232  3.4564 -0.1161 -2.2488
  714MOL0     H98529   0.981  10.164   8.617  0.6770  2.5857  0.9347
  714MOL0     H98530   1.007   9.943   8.564  1.0849  0.9373  1.3935
  714MOL0     H98531   1.043   9.970   8.399 -1.6911  1.3536  0.7398
  714MOL0     H98532   1.165   9.885   8.514 -0.4736 -0.2856 -2.0395
  715MOL0     O98533  10.003   2.972   3.667 -0.1860  0.1980  0.4836
  715MOL0     C98534  10.039   3.004   3.780  0.0560 -0.1938  0.1003
  715MOL0     O98535  10.165   3.022   3.808  0.3422  0.2574 -0.1088
  715MOL0     C98536  10.270   3.008   3.716 -0.3294 -0.4646  0.1307
  715MOL0     C98537  10.275   2.915   3.607  0.1328 -0.6205  0.5867
  715MOL0     C98538  10.383   2.920   3.516 -0.1290 -0.3826 -0.0029
  715MOL0     C98539  10.495   3.002   3.542  0.3602  0.5067 -0.0333
  715MOL0     O98540  10.596   3.010   3.444  0.3101  0.4263 -0.5070
  715MOL0     C98541  10.729   3.038   3.473  0.9595 -1.0137  0.2779
  715MOL0     C98542  10.808   3.042   3.346 -0.2122  0.5015  0.0471
  715MOL0     C98543  10.810   2.909   3.271 -0.1614  0.1825 -0.1664
  715MOL0     C98544  10.770   2.916   3.123 -1.2740 -0.4775  0.3989
  715MOL0     C98545  10.776   2.770   3.062 -0.7628 -0.8426 -0.3264
  715MOL0     C98546  10.697   2.756   2.930 -0.4567 -0.7016 -0.1393
  715MOL0     C98547  10.789   2.806   2.815 -0.8643  0.2742 -0.4590
  715MOL0     C98548  10.727   2.801   2.674 -0.1449  0.6825 -0.0165
  715MOL0     N98549  10.711   2.661   2.635  0.6210  0.0833  0.0782
  715MOL0     C98550  10.805   2.590   2.569  1.0129 -0.0299 -1.1748
  715MOL0     C98551  10.745   2.471   2.543  0.5277  0.0546 -1.2000
  715MOL0     C98552  10.815   2.360   2.478 -0.0371  0.2061  0.2133
  715MOL0     C98553  10.889   2.258   2.561 -0.3846  0.3513 -0.5573
  715MOL0     C98554  10.991   2.178   2.477 -0.1728  0.4031 -0.7816
  715MOL0     C98555  11.032   2.041   2.544 -0.0022 -0.3202  0.7420
  715MOL0     O98556  11.080   2.056   2.676 -0.3640 -0.4761  0.6351
  715MOL0     C98557  11.198   2.117   2.706 -0.5026 -0.0443  0.1221
  715MOL0     C98558  11.219   2.121   2.844 -0.3344  0.0006 -0.6586
  715MOL0     C98559  11.336   2.168   2.895  0.2554 -0.2743 -0.3008
  715MOL0     C98560  11.341   2.163   3.044 -0.2582 -0.3598  0.0277
  715MOL0     C98561  11.452   2.207   2.814  0.8670 -1.4073  0.7886
  715MOL0     C98562  11.586   2.252   2.863  0.2464 -0.0629 -0.2912
  715MOL0     O98563  11.595   2.255   2.993 -0.0970  0.5808  0.0174
  715MOL0     C98564  11.721   2.238   3.043 -0.3276 -1.1513 -0.1472
  715MOL0     C98565  11.800   2.123   3.017  0.7871 -0.1978 -0.3252
  715MOL0     C98566  11.915   2.093   3.087 -0.5737 -0.2159 -0.3945
  715MOL0     C98567  11.961   2.186   3.186  0.7258  0.0671  0.4694
  715MOL0     O98568  12.066   2.138   3.259 -0.5936  0.0009 -0.1380
  715MOL0     C98569  12.138   2.237   3.342 -0.0182 -0.1416 -0.6644
  715MOL0     C98570  12.235   2.154   3.407  0.5953  0.1116  0.0260
  715MOL0     C98571  12.349   2.231   3.479 -0.8598  0.3384  0.0301
  715MOL0     C98572  12.453   2.141   3.538 -0.2183  0.2295 -0.2513
  715MOL0     C98573  12.526   2.214   3.649 -0.1578  0.7743  0.1038
  715MOL0     C98574  12.614   2.336   3.600  0.2284  0.2496 -0.2145
  715MOL0     C98575  12.722   2.297   3.495 -0.6132 -0.0691 -0.1053
  715MOL0     C98576  12.799   2.414   3.429  0.1552 -0.5701 -0.9748
  715MOL0    Cl98577  12.890   2.363   3.286  0.5233 -0.0253  0.0731
  715MOL0     C98578  11.885   2.301   3.214  0.1741  0.1269  0.1783
  715MOL0     C98579  11.772   2.330   3.140 -0.0097 -0.3805  0.6101
  715MOL0     O98580  11.676   2.272   2.778 -1.0688  0.0925  0.3474
  715MOL0     C98581  11.420   2.220   2.681  0.1353  0.1408  0.0833
  715MOL0     C98582  11.302   2.175   2.621 -0.3632  0.2656 -0.2117
  715MOL0     N98583  10.616   2.479   2.592 -0.8768 -1.0555 -0.3509
  715MOL0     N98584  10.596   2.588   2.650 -0.0440  0.1010  0.1513
  715MOL0     C98585  10.499   3.086   3.654  0.5781 -0.4724  1.0027
  715MOL0     C98586  10.386   3.089   3.743 -0.0332 -0.0270 -0.3542
  715MOL0     C98587   9.945   3.003   3.889 -0.3944 -0.0112 -0.3412
  715MOL0     C98588   9.983   2.964   4.021  0.5812  0.4636 -0.2507
  715MOL0     C98589   9.898   2.951   4.123  0.3176 -0.3044 -0.3754
  715MOL0     C98590   9.764   2.978   4.109  0.1397 -0.3155 -0.0797
  715MOL0     O98591   9.679   2.950   4.212 -0.3054  0.5766  0.1942
  715MOL0     C98592   9.530   2.961   4.209 -0.2765  0.5319 -0.3000
  715MOL0     C98593   9.492   3.107   4.209 -0.1693 -0.1151 -0.1295
  715MOL0     C98594   9.456   3.148   4.349 -0.2708  0.6370  0.0834
  715MOL0     C98595   9.397   3.283   4.349 -0.1146  0.0827  0.0779
  715MOL0     C98596   9.268   3.302   4.275  0.5072  0.5931  0.5561
  715MOL0     C98597   9.161   3.311   4.216  0.7967 -0.3434 -0.5524
  715MOL0     C98598   9.725   3.023   3.979  0.4220 -0.2699 -0.5970
  715MOL0     C98599   9.806   3.037   3.871 -1.1049  0.1261  0.6846
  715MOL0     C98600   9.754   3.097   3.740  0.4256 -0.0753  0.5566
  715MOL0     H98601  10.204   2.833   3.596  2.4763 -2.9788  2.0347
  715MOL0     H98602  10.397   2.866   3.422  1.2669 -0.1466  0.0478
  715MOL0     H98603  10.776   2.972   3.546 -1.4269 -0.9313  2.0257
  715MOL0     H98604  10.731   3.142   3.507  1.7631 -1.8962  3.2410
  715MOL0     H98605  10.765   3.124   3.288 -0.6063  0.1776 -0.1234
  715MOL0     H98606  10.910   3.073   3.372 -0.1237 -0.8429  1.4118
  715MOL0     H98607  10.910   2.867   3.285 -0.2498 -0.3210 -0.9545
  715MOL0     H98608  10.744   2.840   3.325  1.4618  0.1458  1.8790
  715MOL0     H98609  10.666   2.950   3.130 -0.7330  1.6001 -0.8713
  715MOL0     H98610  10.824   2.995   3.070 -2.6295  0.0345 -0.2777
  715MOL0     H98611  10.726   2.707   3.136  0.5808 -0.1173  1.2701
  715MOL0     H98612  10.875   2.726   3.050 -0.6664 -0.6766 -0.1541
  715MOL0     H98613  10.668   2.650   2.926  0.1786 -0.8728 -0.4847
  715MOL0     H98614  10.608   2.819   2.924 -0.8398 -1.0865  1.2704
  715MOL0     H98615  10.881   2.746   2.815 -1.6583 -1.0143  1.1417
  715MOL0     H98616  10.815   2.911   2.832  0.7384  0.4399 -3.2305
  715MOL0     H98617  10.628   2.847   2.681 -0.9696 -1.1275  0.7067
  715MOL0     H98618  10.787   2.860   2.604 -3.4431  4.5545  0.0470
  715MOL0     H98619  10.908   2.618   2.546  0.8892  1.1392 -0.3699
  715MOL0     H98620  10.891   2.405   2.413 -1.5695  2.9046  0.1506
  715MOL0     H98621  10.745   2.302   2.416  1.7027 -0.0140 -1.6345
  715MOL0     H98622  10.952   2.308   2.636 -0.1050 -3.5881  2.1834
  715MOL0     H98623  10.829   2.184   2.615  2.5271 -0.7574  1.4733
  715MOL0     H98624  10.935   2.151   2.387 -0.4360 -0.3420 -0.4014
  715MOL0     H98625  11.082   2.233   2.452  2.1213 -2.1885  1.2816
  715MOL0     H98626  10.942   1.979   2.544 -1.7742  1.6466  6.2512
  715MOL0     H98627  11.105   1.989   2.481 -0.4149  0.1423 -0.1314
  715MOL0     H98628  11.146   2.075   2.909  0.8828  2.5523  2.8052
  715MOL0     H98629  11.421   2.105   3.090  1.1095  2.0705  0.8778
  715MOL0     H98630  11.248   2.138   3.097  0.6279 -2.1538  0.8082
  715MOL0     H98631  11.365   2.265   3.075  1.4396 -0.8185  0.2854
  715MOL0     H98632  11.763   2.039   2.959  2.0403 -2.2983  1.7514
  715MOL0     H98633  11.978   2.011   3.054 -1.3142 -0.6652 -0.7126
  715MOL0     H98634  12.189   2.304   3.273  0.8222  1.8832  1.7844
  715MOL0     H98635  12.068   2.285   3.412  0.4081 -0.5794  0.0737
  715MOL0     H98636  12.185   2.081   3.472 -1.4376  0.0194 -1.5303
  715MOL0     H98637  12.294   2.087   3.344 -0.1607 -0.6069  0.0631
  715MOL0     H98638  12.313   2.298   3.558  3.4261  0.3503  2.2325
  715MOL0     H98639  12.400   2.289   3.402 -1.1764 -0.4512 -0.7907
  715MOL0     H98640  12.523   2.106   3.461  0.0067  1.9350 -0.8559
  715MOL0     H98641  12.401   2.054   3.580 -1.2525  0.6123 -0.6985
  715MOL0     H98642  12.448   2.250   3.717 -2.0171  2.0544 -2.5262
  715MOL0     H98643  12.593   2.145   3.701 -1.2925 -1.6014 -1.4290
  715MOL0     H98644  12.669   2.375   3.687 -1.9377  1.3520  0.7174
  715MOL0     H98645  12.558   2.421   3.560  1.5289  0.3572 -1.9462
  715MOL0     H98646  12.676   2.236   3.417 -1.9610  1.8600 -0.9066
  715MOL0     H98647  12.796   2.238   3.549 -1.1798 -0.9047 -0.2261
  715MOL0     H98648  12.846   2.475   3.507 -0.3522 -1.7132  0.2710
  715MOL0     H98649  12.715   2.478   3.400 -0.0057  0.1609  0.9844
  715MOL0     H98650  11.915   2.365   3.296  1.1831  0.7719 -0.6701
  715MOL0     H98651  11.706   2.412   3.163  0.8611  0.6111 -0.3555
  715MOL0     H98652  11.503   2.244   2.615  0.2512  0.1690  0.2363
  715MOL0     H98653  11.279   2.168   2.515  0.3177  1.3238 -0.4487
  715MOL0     H98654  10.575   3.162   3.671 -1.4036  1.3556  2.3419
  715MOL0     H98655  10.393   3.168   3.817 -1.8516  0.7587 -0.9721
  715MOL0     H98656  10.087   2.943   4.043  0.4142  1.0845  1.2487
  715MOL0     H98657   9.925   2.919   4.223  0.4369  0.6101 -0.1072
  715MOL0     H98658   9.498   2.910   4.118  0.6308  0.0915 -0.3885
  715MOL0     H98659   9.498   2.906   4.299 -1.6028  0.0053 -1.0660
  715MOL0     H98660   9.404   3.127   4.148 -0.8226  3.6121  1.7153
  715MOL0     H98661   9.580   3.164   4.177 -0.1392 -1.5413 -2.8732
  715MOL0     H98662   9.396   3.071   4.398  0.2035  1.5403  2.2007
  715MOL0     H98663   9.540   3.167   4.417  0.6083  1.9469 -1.3241
  715MOL0     H98664   9.465   3.355   4.302 -2.3980  1.7618 -0.8723
  715MOL0     H98665   9.383   3.303   4.456 -0.4640 -0.2272  0.0897
  715MOL0     H98666   9.070   3.321   4.159 -2.0670 -2.7222  3.1121
  715MOL0     H98667   9.618   3.035   3.968  0.3069 -2.1005 -2.0764
  715MOL0     H98668   9.675   3.168   3.765 -0.1546  0.2724 -1.9792
  715MOL0     H98669   9.831   3.150   3.683 -0.7828  1.6042  0.3968
  715MOL0     H98670   9.709   3.024   3.673 -1.5878  1.1055  0.5542
  716MOL0     O98671   2.417   1.201   8.668 -0.1066 -0.5142  0.1142
  716MOL0     C98672   2.363   1.280   8.741  0.7290 -1.2438 -0.0196
  716MOL0     O98673   2.434   1.367   8.819 -0.1142  0.5602 -0.0844
  716MOL0     C98674   2.569   1.391   8.793 -0.1966 -0.8113  0.5262
  716MOL0     C98675   2.646   1.432   8.912  0.1453  0.6900  0.5157
  716MOL0     C98676   2.785   1.454   8.890  0.7464 -0.0348  0.1429
  716MOL0     C98677   2.844   1.432   8.760  0.8614 -0.9361 -0.0802
  716MOL0     O98678   2.981   1.447   8.737  0.9124  0.2054 -0.0259
  716MOL0     C98679   3.075   1.443   8.848  0.1632 -0.6988 -0.6822
  716MOL0     C98680   3.092   1.314   8.928 -0.0684 -0.0219  0.4675
  716MOL0     C98681   3.210   1.341   9.010 -0.0544  1.4232  0.1412
  716MOL0     C98682   3.269   1.221   9.087  0.2922  0.9321  0.4800
  716MOL0     C98683   3.411   1.245   9.129 -0.2056 -0.4886 -0.7676
  716MOL0     C98684   3.512   1.225   9.009 -0.5686  0.1135 -0.4324
  716MOL0     C98685   3.657   1.219   9.061  0.2274 -0.9712  0.1120
  716MOL0     C98686   3.726   1.098   9.019 -0.6048  0.8634  0.5519
  716MOL0     N98687   3.872   1.092   9.033  0.0125 -0.3448 -0.4446
  716MOL0     C98688   3.926   1.033   9.142 -0.6041 -0.2907  0.6611
  716MOL0     C98689   4.066   1.037   9.117  0.5579  0.3295  0.0133
  716MOL0     C98690   4.158   0.984   9.230 -0.1705 -0.2503  0.0462
  716MOL0     C98691   4.196   0.842   9.182  0.4514  0.1958  0.2515
  716MOL0     C98692   4.293   0.781   9.281 -0.9084 -0.3172  0.7111
  716MOL0     C98693   4.392   0.680   9.222 -0.4856  0.3424 -0.0346
  716MOL0     O98694   4.449   0.617   9.331 -0.6077  0.3038 -0.0200
  716MOL0     C98695   4.554   0.529   9.314  0.5105 -0.3823  0.0910
  716MOL0     C98696   4.579   0.471   9.193 -0.0823 -0.1355  0.1445
  716MOL0     C98697   4.680   0.376   9.170 -0.6196 -0.6914 -0.7528
  716MOL0     C98698   4.695   0.332   9.026 -0.3451 -0.4053  0.1993
  716MOL0     C98699   4.767   0.342   9.279  0.4677 -0.2860 -0.7776
  716MOL0     C98700   4.880   0.246   9.272  0.5443  0.4891  0.5556
  716MOL0     O98701   4.967   0.255   9.165  0.1819 -0.0527  0.0864
  716MOL0     C98702   5.060   0.166   9.157 -0.7401  0.5107  0.2004
  716MOL0     C98703   5.030   0.028   9.157  0.5803 -0.1678 -0.7764
  716MOL0     C98704   5.132  -0.060   9.132  0.2276  0.3291  0.3384
  716MOL0     C98705   5.263  -0.014   9.113  0.8708  1.0015  0.8665
  716MOL0     O98706   5.360  -0.115   9.100  0.1858  0.1814 -0.2420
  716MOL0     C98707   5.501  -0.100   9.157 -0.7211  0.1098 -0.1359
  716MOL0     C98708   5.583  -0.225   9.153  0.2103  0.2512  0.1577
  716MOL0     C98709   5.620  -0.270   9.023 -0.0504  0.7804  0.4957
  716MOL0     C98710   5.747  -0.205   8.963 -0.2588 -0.3401 -0.3313
  716MOL0     C98711   5.794  -0.283   8.845 -0.1260 -0.1189  0.1952
  716MOL0     C98712   5.926  -0.224   8.784  0.5878  0.6335 -0.2478
  716MOL0     C98713   6.043  -0.237   8.886 -0.4072  0.7298  1.0922
  716MOL0     C98714   6.174  -0.260   8.806 -0.0717 -1.0186  0.8821
  716MOL0    Cl98715   6.185  -0.422   8.738 -0.2081  0.1919 -0.4501
  716MOL0     C98716   5.288   0.121   9.104  0.3815 -0.7500  0.0411
  716MOL0     C98717   5.183   0.212   9.122 -0.0957 -0.9938  0.2747
  716MOL0     O98718   4.903   0.173   9.371  0.1610  0.1614  0.2249
  716MOL0     C98719   4.742   0.401   9.410  0.1322 -0.3349 -0.0186
  716MOL0     C98720   4.631   0.491   9.427 -0.1946 -0.2237  0.1407
  716MOL0     N98721   4.089   1.087   8.991 -0.1405  0.4809 -0.3124
  716MOL0     N98722   3.976   1.120   8.945  0.5366 -0.0560 -0.2940
  716MOL0     C98723   2.757   1.430   8.651 -0.1144 -0.0792  0.2723
  716MOL0     C98724   2.622   1.407   8.668  0.7152 -0.3353 -0.2553
  716MOL0     C98725   2.216   1.260   8.756 -0.1023  0.0488 -0.3270
  716MOL0     C98726   2.160   1.264   8.886 -0.1228 -0.1512  0.1813
  716MOL0     C98727   2.022   1.230   8.901  0.1840 -0.2403 -0.3661
  716MOL0     C98728   1.936   1.194   8.791  0.1968 -0.4338  0.0319
  716MOL0     O98729   1.804   1.176   8.811  0.4979 -0.7118 -0.7366
  716MOL0     C98730   1.698   1.166   8.712  0.4704 -0.3121 -0.0144
  716MOL0     C98731   1.575   1.231   8.780  0.6701  0.2734  0.3726
  716MOL0     C98732   1.448   1.224   8.682  0.0002  0.4847  0.3585
  716MOL0     C98733   1.379   1.088   8.686 -0.2325 -0.7138  0.5748
  716MOL0     C98734   1.259   1.087   8.604  0.5108 -0.2734 -0.0052
  716MOL0     C98735   1.143   1.083   8.551 -0.5948 -0.7635  0.2229
  716MOL0     C98736   1.994   1.186   8.667 -0.3695 -0.3280  0.1392
  716MOL0     C98737   2.127   1.221   8.649 -0.0861 -0.3593  0.8692
  716MOL0     C98738   2.178   1.214   8.506  0.5901 -0.3959  0.1743
  716MOL0     H98739   2.594   1.447   9.007 -0.2900 -0.5374  0.4928
  716MOL0     H98740   2.851   1.475   8.972 -1.2813  3.6541  1.0482
  716MOL0     H98741   3.065   1.534   8.909  1.7990 -0.3202 -0.9324
  716MOL0     H98742   3.168   1.463   8.794 -1.4234  1.6355 -2.8058
  716MOL0     H98743   3.005   1.296   8.993 -1.1226  1.4289 -0.4751
  716MOL0     H98744   3.115   1.232   8.861 -1.2584 -0.6266  0.7604
  716MOL0     H98745   3.294   1.376   8.950  0.8474  2.3886  1.8751
  716MOL0     H98746   3.171   1.408   9.087 -3.1031 -2.3345  2.2041
  716MOL0     H98747   3.208   1.188   9.171  0.4275 -0.3307  0.1129
  716MOL0     H98748   3.273   1.137   9.017 -2.1743  2.2471 -1.4127
  716MOL0     H98749   3.440   1.181   9.213  0.3514  1.5893  0.7347
  716MOL0     H98750   3.419   1.351   9.156 -1.5342  0.0188 -2.2375
  716MOL0     H98751   3.499   1.138   8.944 -0.8249  1.3890 -2.1668
  716MOL0     H98752   3.507   1.313   8.943  0.1136  0.2798 -0.2711
  716MOL0     H98753   3.657   1.228   9.170  1.5986  0.4871  0.0429
  716MOL0     H98754   3.715   1.306   9.028 -1.4426  0.6516  1.2568
  716MOL0     H98755   3.697   1.018   9.088  2.1081  0.0317  0.8422
  716MOL0     H98756   3.705   1.063   8.917  0.5153  1.8883 -0.0503
  716MOL0     H98757   3.874   0.994   9.229 -2.1573 -0.6247 -0.3590
  716MOL0     H98758   4.103   0.987   9.324  0.2030  0.8573  0.2415
  716MOL0     H98759   4.250   1.039   9.251 -0.5099 -0.2376  1.6436
  716MOL0     H98760   4.114   0.772   9.160 -0.1921  0.2593  2.2771
  716MOL0     H98761   4.243   0.848   9.084 -1.5920  1.3046 -0.7298
  716MOL0     H98762   4.359   0.856   9.326  0.8805 -0.2905 -1.6914
  716MOL0     H98763   4.235   0.730   9.358 -2.4017 -2.7169 -1.8275
  716MOL0     H98764   4.341   0.601   9.166  0.5439  0.7319 -1.5854
  716MOL0     H98765   4.462   0.728   9.153  2.3666  0.4467  2.7444
  716MOL0     H98766   4.505   0.481   9.114 -0.1691 -1.0120  0.1087
  716MOL0     H98767   4.775   0.386   8.974  1.5044 -2.9939  0.1207
  716MOL0     H98768   4.600   0.345   8.974 -1.7390 -1.9592  2.2042
  716MOL0     H98769   4.709   0.223   9.019  0.3524 -0.2196 -1.9455
  716MOL0     H98770   4.922   0.018   9.158  0.1507  3.3669 -0.4906
  716MOL0     H98771   5.111  -0.167   9.130 -3.1051  0.8708 -0.9862
  716MOL0     H98772   5.561  -0.021   9.111  0.5636 -1.1767 -0.7431
  716MOL0     H98773   5.488  -0.066   9.260  0.5570  2.1055 -0.5930
  716MOL0     H98774   5.670  -0.210   9.218 -0.3149  2.2946  0.4604
  716MOL0     H98775   5.520  -0.304   9.196  1.7312 -0.0027  2.0179
  716MOL0     H98776   5.550  -0.252   8.941  1.8052 -3.0108 -2.2527
  716MOL0     H98777   5.627  -0.379   9.034  0.1603  0.4186 -2.4789
  716MOL0     H98778   5.821  -0.201   9.043 -1.1592 -0.0836  0.5162
  716MOL0     H98779   5.728  -0.099   8.945 -0.3414 -0.3400 -0.2496
  716MOL0     H98780   5.797  -0.389   8.872  1.0063 -0.4497 -1.1165
  716MOL0     H98781   5.713  -0.276   8.773  0.4383 -0.0470 -0.4388
  716MOL0     H98782   5.921  -0.119   8.753  0.9598  0.1694 -2.0011
  716MOL0     H98783   5.945  -0.278   8.691  1.5695  0.1688  0.2066
  716MOL0     H98784   6.031  -0.318   8.958 -1.3733 -0.4649 -0.3390
  716MOL0     H98785   6.050  -0.140   8.937 -1.2582  0.8929  0.9243
  716MOL0     H98786   6.257  -0.243   8.875 -0.5960  3.0414  0.7126
  716MOL0     H98787   6.185  -0.176   8.737  0.7082  1.1105  3.4392
  716MOL0     H98788   5.380   0.171   9.076  0.3846 -0.2018  1.0015
  716MOL0     H98789   5.217   0.315   9.117  1.6868 -1.4321  1.9753
  716MOL0     H98790   4.802   0.383   9.498 -0.6560 -1.8794  0.2369
  716MOL0     H98791   4.602   0.528   9.525 -1.4811 -2.1090  0.5218
  716MOL0     H98792   2.780   1.454   8.547  1.8127  1.1605  0.9379
  716MOL0     H98793   2.548   1.391   8.590 -0.1853 -2.4976  0.9369
  716MOL0     H98794   2.210   1.280   8.980 -1.1027  2.1152  0.3724
  716MOL0     H98795   1.987   1.248   9.002  2.0039  2.5070 -0.0991
  716MOL0     H98796   1.731   1.215   8.620  2.2450 -1.4559 -0.0453
  716MOL0     H98797   1.676   1.062   8.690 -2.8249  0.3640 -0.4073
  716MOL0     H98798   1.587   1.339   8.794 -0.2307  0.5440 -0.7137
  716MOL0     H98799   1.560   1.183   8.877  1.1314  0.9759  0.7969
  716MOL0     H98800   1.371   1.292   8.720 -0.7924 -0.8239  1.1961
  716MOL0     H98801   1.479   1.255   8.582  2.5961 -3.1506 -0.1604
  716MOL0     H98802   1.362   1.065   8.792 -1.2266  0.0322  0.5898
  716MOL0     H98803   1.441   1.010   8.640 -0.1977  0.4521 -1.4463
  716MOL0     H98804   1.062   1.083   8.481 -0.5408  0.0150  0.1529
  716MOL0     H98805   1.942   1.140   8.584  2.0413  0.4585 -1.9286
  716MOL0     H98806   2.199   1.112   8.470  0.5367  0.1943 -1.6390
  716MOL0     H98807   2.092   1.240   8.443  0.5874 -0.1228  0.2913
  716MOL0     H98808   2.254   1.286   8.478 -3.7979  3.8164 -2.5206
  717MOL0     O98809   1.808   7.506   7.416  0.2085 -0.4835 -0.0547
  717MOL0     C98810   1.797   7.606   7.344 -0.2537 -1.0507 -0.5646
  717MOL0     O98811   1.893   7.659   7.255  0.3995  0.6269 -0.3873
  717MOL0     C98812   2.018   7.608   7.245 -1.0714 -0.5423  0.5510
  717MOL0     C98813   2.057   7.475   7.277  0.5067 -0.1573 -1.1536
  717MOL0     C98814   2.195   7.431   7.292 -0.4370 -0.6772 -0.2930
  717MOL0     C98815   2.303   7.526   7.262  0.6884 -0.2827 -0.2750
  717MOL0     O98816   2.431   7.491   7.285 -0.2037  0.1983  0.5836
  717MOL0     C98817   2.495   7.446   7.162  0.0170 -0.4438 -0.4319
  717MOL0     C98818   2.631   7.391   7.192 -1.0257  0.5970 -0.3924
  717MOL0     C98819   2.632   7.246   7.227  0.5729  0.1678  0.9246
  717MOL0     C98820   2.772   7.186   7.262  0.4159 -0.0060 -0.1212
  717MOL0     C98821   2.767   7.042   7.335  0.4025 -0.2712 -0.4376
  717MOL0     C98822   2.902   6.989   7.369  0.1668 -0.9626 -0.8382
  717MOL0     C98823   2.894   6.855   7.441 -0.3607 -0.4535  0.1152
  717MOL0     C98824   3.029   6.808   7.475  0.1756 -0.4930 -0.1033
  717MOL0     N98825   3.039   6.676   7.548 -0.7622 -0.0150 -0.0010
  717MOL0     C98826   3.107   6.655   7.669 -0.7719 -0.2562 -0.5656
  717MOL0     C98827   3.117   6.522   7.677  0.4302  0.1297  0.5970
  717MOL0     C98828   3.186   6.451   7.794 -0.2399  0.0257  0.3825
  717MOL0     C98829   3.341   6.469   7.792  0.8576 -0.5318 -0.4925
  717MOL0     C98830   3.400   6.325   7.812 -0.7379 -0.4288 -0.6784
  717MOL0     C98831   3.550   6.338   7.802 -0.6683 -0.2281 -0.5222
  717MOL0     O98832   3.603   6.429   7.905 -0.2017  0.2443  0.5894
  717MOL0     C98833   3.737   6.446   7.904 -0.0006 -0.3657 -0.1582
  717MOL0     C98834   3.777   6.551   7.984  0.1841  0.6479  0.2270
  717MOL0     C98835   3.913   6.587   7.992  0.7901  0.2972 -0.0587
  717MOL0     C98836   3.937   6.726   8.056 -0.4206 -0.3288 -0.5983
  717MOL0     C98837   4.017   6.510   7.935 -1.2915 -1.0829  0.8350
  717MOL0     C98838   4.163   6.537   7.937  0.6355 -0.7326  0.1511
  717MOL0     O98839   4.240   6.433   7.919 -0.2192 -0.1992 -0.8643
  717MOL0     C98840   4.373   6.425   7.945 -0.0037 -0.7158  0.3177
  717MOL0     C98841   4.425   6.293   7.914  0.3837  0.2123 -0.0714
  717MOL0     C98842   4.556   6.271   7.946 -0.2153 -0.1525 -0.1486
  717MOL0     C98843   4.634   6.367   8.011  0.2754 -0.0319 -0.1975
  717MOL0     O98844   4.768   6.348   8.032 -0.0116  0.4797  0.2197
  717MOL0     C98845   4.849   6.449   8.095 -0.1395 -0.1897 -1.0602
  717MOL0     C98846   4.996   6.401   8.088 -0.1083 -0.5059 -0.4178
  717MOL0     C98847   5.110   6.498   8.114 -0.5405  0.2999 -0.2595
  717MOL0     C98848   5.249   6.432   8.117 -0.1272 -0.0977  0.2717
  717MOL0     C98849   5.349   6.520   8.185  0.0448 -0.0796  0.1163
  717MOL0     C98850   5.495   6.467   8.184  1.1669  0.0222 -0.2089
  717MOL0     C98851   5.605   6.566   8.219  1.1262  0.1831  0.0273
  717MOL0     C98852   5.748   6.508   8.198 -0.5027  0.5261  1.0471
  717MOL0    Cl98853   5.784   6.363   8.289 -0.1602  0.3734  0.0887
  717MOL0     C98854   4.573   6.494   8.039  0.5369  0.0328  0.1257
  717MOL0     C98855   4.443   6.521   8.008  0.4112 -0.6207 -0.1792
  717MOL0     O98856   4.193   6.652   7.935 -0.1552 -0.5655  0.3158
  717MOL0     C98857   3.969   6.399   7.863 -0.4982 -0.5827 -0.7065
  717MOL0     C98858   3.836   6.370   7.845  0.1005  0.3147 -0.5319
  717MOL0     N98859   3.048   6.460   7.571  0.1522 -0.3018  0.0229
  717MOL0     N98860   3.008   6.558   7.496 -0.2931  0.2676 -0.9534
  717MOL0     C98861   2.263   7.653   7.205 -0.4581  0.7321  0.7275
  717MOL0     C98862   2.127   7.691   7.201  0.7815 -0.3616  0.7554
  717MOL0     C98863   1.652   7.656   7.339 -0.3497 -1.8835  0.0326
  717MOL0     C98864   1.556   7.603   7.430 -0.0697 -0.2778 -0.6223
  717MOL0     C98865   1.434   7.663   7.455 -0.5220  0.5864  0.2166
  717MOL0     C98866   1.394   7.766   7.375  0.5595 -0.4150  0.5125
  717MOL0     O98867   1.278   7.837   7.392  0.3234  0.4393 -0.3051
  717MOL0     C98868   1.194   7.802   7.506  0.1923  0.3589  0.2082
  717MOL0     C98869   1.052   7.861   7.478 -0.8721 -0.2440 -0.1091
  717MOL0     C98870   0.994   7.797   7.348  0.2826  0.1342  0.2009
  717MOL0     C98871   0.849   7.837   7.330 -0.0515 -0.0793 -0.7258
  717MOL0     C98872   0.740   7.754   7.394 -0.1614  0.4097 -0.6849
  717MOL0     C98873   0.644   7.707   7.446 -0.0900  0.4111 -0.1677
  717MOL0     C98874   1.483   7.815   7.275 -0.3311  0.8775  0.0239
  717MOL0     C98875   1.606   7.764   7.256 -0.6475 -0.4603 -0.4231
  717MOL0     C98876   1.698   7.841   7.146  0.2599 -0.2193  0.6480
  717MOL0     H98877   1.979   7.401   7.288 -2.3351  2.8770  1.1829
  717MOL0     H98878   2.235   7.333   7.317 -2.4037 -1.0168  1.7773
  717MOL0     H98879   2.513   7.538   7.106  0.8404  1.3286  2.5001
  717MOL0     H98880   2.437   7.373   7.106 -1.1675  0.2618 -0.1861
  717MOL0     H98881   2.699   7.406   7.108  1.7411 -1.8782  1.1880
  717MOL0     H98882   2.674   7.444   7.277  2.7233 -1.2337 -0.9143
  717MOL0     H98883   2.571   7.242   7.318  1.6699 -3.7322  1.6570
  717MOL0     H98884   2.584   7.185   7.150  0.4943 -3.5394  3.6694
  717MOL0     H98885   2.818   7.175   7.163 -0.1553 -1.6969 -0.2364
  717MOL0     H98886   2.835   7.259   7.312 -1.3237  2.7264 -1.6384
  717MOL0     H98887   2.715   6.971   7.271 -1.0737 -0.1140  0.5349
  717MOL0     H98888   2.710   7.047   7.428  0.0551 -1.4824 -0.5764
  717MOL0     H98889   2.957   6.978   7.275  0.9686 -0.6109 -0.4215
  717MOL0     H98890   2.965   7.057   7.428  1.3858 -1.2428 -1.7636
  717MOL0     H98891   2.850   6.776   7.379 -0.4819  1.3877 -2.2908
  717MOL0     H98892   2.844   6.866   7.537 -1.6844 -2.4895 -0.2801
  717MOL0     H98893   3.089   6.799   7.384 -1.6332 -1.0434 -1.3201
  717MOL0     H98894   3.075   6.882   7.541 -0.9375 -0.9940  1.2863
  717MOL0     H98895   3.145   6.726   7.741  0.0862 -1.3612  0.1140
  717MOL0     H98896   3.158   6.345   7.797  0.1881 -0.0943  0.2149
  717MOL0     H98897   3.149   6.497   7.887  2.4349  1.1789  0.9875
  717MOL0     H98898   3.379   6.501   7.695  0.3822 -2.9877 -1.5663
  717MOL0     H98899   3.379   6.539   7.868  0.4250 -0.2787 -0.5026
  717MOL0     H98900   3.364   6.285   7.908 -0.4436  0.2372 -0.2856
  717MOL0     H98901   3.365   6.259   7.732 -0.9360 -1.3053  0.1116
  717MOL0     H98902   3.587   6.238   7.825 -0.2477  0.4321  2.0351
  717MOL0     H98903   3.577   6.361   7.699 -1.9017  3.5957 -0.1803
  717MOL0     H98904   3.708   6.619   8.032  0.4456 -0.7948  2.8651
  717MOL0     H98905   3.941   6.797   7.972 -2.3917  0.8020  0.1945
  717MOL0     H98906   4.028   6.732   8.115 -1.7816  2.1400  1.4687
  717MOL0     H98907   3.861   6.761   8.127 -0.9407 -3.6381  0.6285
  717MOL0     H98908   4.353   6.227   7.865 -1.5406  2.2732 -0.2127
  717MOL0     H98909   4.603   6.174   7.933  0.0080 -0.2653  1.3976
  717MOL0     H98910   4.850   6.541   8.035  0.1711 -1.5887 -3.3295
  717MOL0     H98911   4.805   6.465   8.194 -0.5224 -0.6350 -1.1594
  717MOL0     H98912   5.008   6.322   8.163 -0.8457 -0.2070  0.0298
  717MOL0     H98913   5.012   6.356   7.989 -0.7065  0.3865 -0.9307
  717MOL0     H98914   5.092   6.539   8.213  1.1125  0.5115 -0.0138
  717MOL0     H98915   5.119   6.574   8.036 -0.1498 -2.2022 -2.8225
  717MOL0     H98916   5.283   6.407   8.016  0.2162 -3.5719  1.1123
  717MOL0     H98917   5.242   6.339   8.174 -1.1074 -0.1701  0.0378
  717MOL0     H98918   5.352   6.623   8.148 -2.2347 -0.7029 -2.1082
  717MOL0     H98919   5.328   6.527   8.292  2.8862  0.5337  0.7153
  717MOL0     H98920   5.523   6.431   8.084  0.1176  0.9545 -0.8739
  717MOL0     H98921   5.504   6.379   8.247 -0.9544 -1.0806 -1.3132
  717MOL0     H98922   5.605   6.602   8.322  5.0527  1.9274 -0.3969
  717MOL0     H98923   5.590   6.650   8.151  2.2684 -0.5213 -1.1199
  717MOL0     H98924   5.811   6.590   8.233  0.1081  0.3012  0.4801
  717MOL0     H98925   5.760   6.480   8.093  2.3823 -1.4805  1.7835
  717MOL0     H98926   4.627   6.579   8.079  1.7628  0.4915 -2.3341
  717MOL0     H98927   4.398   6.618   8.028  2.0698  0.3569 -0.9058
  717MOL0     H98928   4.039   6.334   7.811  1.3583  0.5158  0.3066
  717MOL0     H98929   3.812   6.292   7.773 -0.4595  1.1548 -1.2737
  717MOL0     H98930   2.336   7.710   7.149 -0.6198 -1.1350 -1.5365
  717MOL0     H98931   2.107   7.795   7.174  3.1187  0.6336  2.5390
  717MOL0     H98932   1.590   7.534   7.507 -0.8933  0.0480  0.0492
  717MOL0     H98933   1.374   7.608   7.526 -1.7255  2.3824  0.6688
  717MOL0     H98934   1.179   7.696   7.525  0.7349  0.1024 -0.7337
  717MOL0     H98935   1.245   7.834   7.597  0.5877 -0.4443  0.2722
  717MOL0     H98936   1.064   7.969   7.467 -1.5119 -0.0454  0.9514
  717MOL0     H98937   0.986   7.837   7.563 -1.6254  3.1272  0.3915
  717MOL0     H98938   1.040   7.848   7.263 -1.7297  1.0114 -0.4198
  717MOL0     H98939   1.017   7.690   7.349  0.9210  0.2304  2.6942
  717MOL0     H98940   0.830   7.836   7.222  1.5417  3.3983 -1.1826
  717MOL0     H98941   0.829   7.941   7.357  2.2682  1.0875 -3.0783
  717MOL0     H98942   0.563   7.661   7.497 -0.4489 -0.6218 -1.5944
  717MOL0     H98943   1.467   7.902   7.213 -1.8472  0.0284 -0.8224
  717MOL0     H98944   1.752   7.771   7.081  2.3748  0.8460  1.1749
  717MOL0     H98945   1.634   7.907   7.086  0.8711 -0.1649  0.0457
  717MOL0     H98946   1.772   7.910   7.187  0.7477 -0.3090 -0.0619
  718MOL0     O98947   4.593   1.960   5.829 -0.1163 -0.2202 -1.0332
  718MOL0     C98948   4.696   1.914   5.876  0.7055 -0.3925 -0.0098
  718MOL0     O98949   4.698   1.837   5.989  0.1428  0.0430  0.0221
  718MOL0     C98950   4.599   1.767   6.045  0.9390  0.2137 -0.6853
  718MOL0     C98951   4.638   1.692   6.165 -0.2014 -0.2831  0.3638
  718MOL0     C98952   4.551   1.598   6.221 -0.2802 -0.5096 -0.9697
  718MOL0     C98953   4.428   1.581   6.167  0.6865 -0.3485  0.2742
  718MOL0     O98954   4.347   1.484   6.230  0.2188  0.6353  0.5701
  718MOL0     C98955   4.212   1.448   6.174  0.2307 -0.3106  0.1362
  718MOL0     C98956   4.092   1.520   6.234  0.4648 -0.2349 -0.1316
  718MOL0     C98957   4.072   1.501   6.386  0.3461 -0.3692  0.3098
  718MOL0     C98958   3.938   1.554   6.425 -0.2264 -0.1436 -0.5360
  718MOL0     C98959   3.923   1.565   6.584 -0.6887 -0.5711  1.2620
  718MOL0     C98960   3.814   1.668   6.610  0.4204 -0.6591 -0.9403
  718MOL0     C98961   3.827   1.732   6.746 -0.0849  0.1553 -0.1326
  718MOL0     C98962   3.818   1.628   6.869 -0.3276 -0.3888  0.2663
  718MOL0     N98963   3.950   1.585   6.913 -0.4088  0.7618 -0.3728
  718MOL0     C98964   4.041   1.646   6.997  0.2257 -0.3859 -0.2696
  718MOL0     C98965   4.145   1.563   6.996  0.0936  0.9515 -0.8552
  718MOL0     C98966   4.264   1.572   7.090  1.0222  0.0782  0.2809
  718MOL0     C98967   4.290   1.714   7.142 -0.7798 -0.2612 -1.2818
  718MOL0     C98968   4.404   1.737   7.233 -0.2914  0.1196  0.5436
  718MOL0     C98969   4.535   1.683   7.185 -0.5909  0.9796 -0.1885
  718MOL0     O98970   4.546   1.717   7.049 -0.7022 -0.1886 -0.4647
  718MOL0     C98971   4.648   1.651   6.982 -1.4659 -1.9117 -0.3847
  718MOL0     C98972   4.657   1.671   6.847  0.0480  0.9411  0.4303
  718MOL0     C98973   4.758   1.620   6.762 -0.2520  0.3420  0.2497
  718MOL0     C98974   4.735   1.639   6.619 -0.3351 -0.3457  1.0283
  718MOL0     C98975   4.867   1.547   6.820  0.0831  0.8895 -0.7227
  718MOL0     C98976   4.977   1.484   6.735 -0.3219 -0.4031  0.2500
  718MOL0     O98977   5.018   1.367   6.780 -1.0399 -0.2546  0.0574
  718MOL0     C98978   5.111   1.288   6.699 -1.0046  0.2517 -0.2192
  718MOL0     C98979   5.072   1.167   6.627 -0.2001 -0.2389  0.7437
  718MOL0     C98980   5.153   1.095   6.538  0.1679  0.1124 -0.4684
  718MOL0     C98981   5.283   1.120   6.540  0.2516 -0.4459 -0.4171
  718MOL0     O98982   5.356   1.037   6.456  0.3492  0.4616 -0.5701
  718MOL0     C98983   5.490   1.009   6.486  0.1874  0.1029  0.2394
  718MOL0     C98984   5.586   1.081   6.380 -0.1247  0.2295 -0.6242
  718MOL0     C98985   5.735   1.044   6.393  0.1643 -0.6120 -0.6200
  718MOL0     C98986   5.806   1.077   6.529  0.7616 -0.2560  0.2411
  718MOL0     C98987   5.958   1.039   6.545 -0.6975  0.3344 -0.4897
  718MOL0     C98988   6.052   1.110   6.440 -0.5901  0.8607  0.3962
  718MOL0     C98989   6.201   1.111   6.473  0.8015  0.6461 -0.3728
  718MOL0     C98990   6.271   1.201   6.378 -0.0524  0.8068  1.0813
  718MOL0    Cl98991   6.195   1.363   6.401 -0.5283  0.3158  0.2154
  718MOL0     C98992   5.334   1.236   6.612 -0.3044  0.4685  0.1159
  718MOL0     C98993   5.244   1.320   6.687 -0.0091  0.1049 -0.4905
  718MOL0     O98994   5.015   1.535   6.627  0.1281  0.1011  1.0427
  718MOL0     C98995   4.865   1.531   6.965  0.2869 -0.8812 -0.1136
  718MOL0     C98996   4.761   1.594   7.041  0.4752 -0.2971  0.1396
  718MOL0     N98997   4.119   1.442   6.926  0.6385 -0.3577 -0.2216
  718MOL0     N98998   4.006   1.465   6.868 -0.4481  0.7494 -0.1038
  718MOL0     C98999   4.384   1.671   6.063  0.8966 -0.1882 -0.1712
  718MOL0     C99000   4.466   1.758   6.006 -0.1570 -0.6998 -0.4253
  718MOL0     C99001   4.828   1.947   5.812  0.0330 -0.0918 -0.0556
  718MOL0     C99002   4.939   1.910   5.888  0.3873 -0.5136 -0.0096
  718MOL0     C99003   5.071   1.932   5.841  0.6242 -0.8242  0.3967
  718MOL0     C99004   5.092   1.983   5.712 -0.3080 -0.0190 -0.5007
  718MOL0     O99005   5.219   2.002   5.666  0.4115 -0.2462  0.3127
  718MOL0     C99006   5.289   1.873   5.648  0.5144 -1.3701  0.0985
  718MOL0     C99007   5.432   1.875   5.587  0.3853 -0.7593 -0.8679
  718MOL0     C99008   5.522   1.932   5.702 -0.2698  0.6770  0.1721
  718MOL0     C99009   5.649   1.994   5.635 -0.0343  1.0037  0.4307
  718MOL0     C99010   5.755   1.896   5.610 -0.4618  0.0524 -0.2863
  718MOL0     C99011   5.842   1.811   5.580 -0.0734 -0.4761  0.1183
  718MOL0     C99012   4.974   2.019   5.636  0.0332 -0.0273 -0.2987
  718MOL0     C99013   4.840   1.991   5.682 -0.0713  0.5057  0.5300
  718MOL0     C99014   4.729   2.033   5.583 -0.4470  0.0245 -0.5608
  718MOL0     H99015   4.731   1.714   6.215  0.0631 -0.7828  0.0946
  718MOL0     H99016   4.590   1.543   6.306  0.9189  2.0412  0.2104
  718MOL0     H99017   4.191   1.343   6.196 -2.0953 -0.5647 -2.7018
  718MOL0     H99018   4.208   1.451   6.065  2.8584  1.8251 -0.0171
  718MOL0     H99019   4.102   1.626   6.210  1.4796 -0.9917 -3.5734
  718MOL0     H99020   3.994   1.493   6.194 -0.5508  1.3813  1.1251
  718MOL0     H99021   4.077   1.396   6.417  0.4099 -0.4721 -0.0411
  718MOL0     H99022   4.155   1.558   6.429  0.1797  0.3626 -0.3128
  718MOL0     H99023   3.934   1.657   6.387 -3.7473 -0.2153 -0.6482
  718MOL0     H99024   3.857   1.493   6.386  1.5663 -2.6008 -0.6397
  718MOL0     H99025   4.011   1.616   6.624 -0.1943 -0.0801 -0.3692
  718MOL0     H99026   3.906   1.467   6.630 -1.0005  0.4565  3.4619
  718MOL0     H99027   3.826   1.752   6.541  3.5879  1.4359  1.7922
  718MOL0     H99028   3.716   1.623   6.598  0.7840 -1.2736 -1.6352
  718MOL0     H99029   3.743   1.800   6.765 -1.2796 -0.9756 -1.1552
  718MOL0     H99030   3.917   1.795   6.744  0.1678 -0.1928 -2.2387
  718MOL0     H99031   3.772   1.687   6.948 -1.3379  1.7707 -1.8135
  718MOL0     H99032   3.765   1.539   6.834  2.2206 -0.7759 -3.1592
  718MOL0     H99033   4.031   1.738   7.054 -0.6515  0.2081 -1.3322
  718MOL0     H99034   4.358   1.535   7.048  2.8505  2.2303  2.2428
  718MOL0     H99035   4.240   1.500   7.169 -0.7720  0.2281 -0.0831
  718MOL0     H99036   4.296   1.784   7.058 -0.7150  0.6942 -0.5045
  718MOL0     H99037   4.204   1.743   7.203 -0.5327 -0.9636 -0.5920
  718MOL0     H99038   4.419   1.845   7.246 -0.6681  0.0920  1.2678
  718MOL0     H99039   4.382   1.701   7.334  0.1649 -1.1624  0.1970
  718MOL0     H99040   4.606   1.729   7.254  0.3440 -0.5803 -0.0678
  718MOL0     H99041   4.529   1.575   7.201 -1.3574  0.7533 -1.7977
  718MOL0     H99042   4.574   1.728   6.807 -0.6662  1.0771  2.0665
  718MOL0     H99043   4.736   1.546   6.561  2.3033  2.0307 -3.3475
  718MOL0     H99044   4.817   1.694   6.571  1.4051 -3.7098 -0.1764
  718MOL0     H99045   4.632   1.672   6.604 -0.2904 -0.0758  1.3053
  718MOL0     H99046   4.964   1.153   6.634 -0.2454  0.8361  3.0344
  718MOL0     H99047   5.111   1.011   6.483 -0.8301 -0.4683  1.0971
  718MOL0     H99048   5.512   1.018   6.592 -2.2546 -3.1447  1.1743
  718MOL0     H99049   5.497   0.903   6.461  0.2205  0.3476 -0.8296
  718MOL0     H99050   5.536   1.070   6.283 -3.0516  0.8467  0.7059
  718MOL0     H99051   5.600   1.186   6.405  2.2286  0.1038 -1.1443
  718MOL0     H99052   5.796   1.083   6.311  2.2459  0.0328  1.1225
  718MOL0     H99053   5.751   0.938   6.368  1.7030 -0.8750  1.2182
  718MOL0     H99054   5.750   1.029   6.610  1.1634  0.7367  1.1331
  718MOL0     H99055   5.799   1.184   6.549 -0.0999 -0.4903  1.2834
  718MOL0     H99056   5.982   1.074   6.646  0.7646 -1.0966 -0.3145
  718MOL0     H99057   5.979   0.932   6.537  3.2837  1.1490 -3.7027
  718MOL0     H99058   6.019   1.211   6.415  1.2478  1.1224 -1.2419
  718MOL0     H99059   6.043   1.056   6.345 -1.6637  0.7234  0.5650
  718MOL0     H99060   6.244   1.014   6.447  0.3065  0.6553 -1.2392
  718MOL0     H99061   6.219   1.129   6.580  0.6062 -1.0078 -0.0252
  718MOL0     H99062   6.253   1.162   6.278  1.8355 -1.3628  1.4824
  718MOL0     H99063   6.379   1.211   6.397  0.4515 -0.1823 -0.9650
  718MOL0     H99064   5.439   1.263   6.605 -0.4469  0.6368 -2.1569
  718MOL0     H99065   5.287   1.412   6.724  0.5083  1.0175 -3.1222
  718MOL0     H99066   4.944   1.470   7.007 -0.0369 -1.6490 -0.5981
  718MOL0     H99067   4.773   1.605   7.148  0.6014 -2.0126  0.3260
  718MOL0     H99068   4.280   1.649   6.038  0.7805 -2.0354  1.6954
  718MOL0     H99069   4.433   1.800   5.911 -1.7235 -2.2385 -0.6057
  718MOL0     H99070   4.936   1.886   5.994  0.6416  0.4213  0.2136
  718MOL0     H99071   5.150   1.908   5.911 -0.6761  0.9977  2.6506
  718MOL0     H99072   5.306   1.833   5.748 -1.7647 -1.9864  0.3097
  718MOL0     H99073   5.222   1.793   5.614 -0.0974 -0.0436 -1.9762
  718MOL0     H99074   5.444   1.928   5.491  0.8809 -0.9596 -0.9174
  718MOL0     H99075   5.464   1.773   5.566  2.8401 -0.3723  0.6531
  718MOL0     H99076   5.463   2.000   5.765 -1.4527  0.2909 -0.4832
  718MOL0     H99077   5.548   1.849   5.767  2.6835  0.7939 -0.7232
  718MOL0     H99078   5.677   2.075   5.702 -2.3713  0.3790  2.2885
  718MOL0     H99079   5.623   2.049   5.544  1.6306  0.5862 -0.3400
  718MOL0     H99080   5.911   1.732   5.557  2.8779  0.8969  3.3658
  718MOL0     H99081   4.985   2.075   5.544  1.5501 -1.6626 -1.1598
  718MOL0     H99082   4.681   2.123   5.624  3.9466  1.8940  1.2022
  718MOL0     H99083   4.773   2.063   5.488  3.4359  0.7391  1.2441
  718MOL0     H99084   4.654   1.955   5.576  0.3577 -0.7377 -0.9142
  719MOL0     O99085   8.679   2.811   4.974 -0.3066  0.6697  0.8751
  719MOL0     C99086   8.624   2.917   4.954  0.8826 -0.6948 -0.8912
  719MOL0     O99087   8.665   3.039   5.007  0.2365  0.1742 -0.3926
  719MOL0     C99088   8.763   3.033   5.106  0.8488 -0.1332  0.3101
  719MOL0     C99089   8.852   3.136   5.087 -0.2748 -0.2461 -0.2495
  719MOL0     C99090   8.978   3.129   5.160 -0.0980 -0.3401  0.2517
  719MOL0     C99091   8.996   3.042   5.261  0.2333  0.0434  0.0419
  719MOL0     O99092   9.106   3.040   5.341 -0.0508 -0.3922 -0.4887
  719MOL0     C99093   9.209   2.957   5.288  0.4068  0.3242  0.5228
  719MOL0     C99094   9.308   3.016   5.188 -0.5299 -0.7480  0.2277
  719MOL0     C99095   9.405   3.112   5.253  0.5045 -0.3631 -0.2513
  719MOL0     C99096   9.437   3.240   5.173  0.5301 -0.4022 -0.7321
  719MOL0     C99097   9.511   3.354   5.256  0.3923  0.5597  0.1571
  719MOL0     C99098   9.407   3.433   5.342 -0.3726  0.0684 -0.1248
  719MOL0     C99099   9.485   3.528   5.433  0.0749  0.4942  0.4780
  719MOL0     C99100   9.603   3.604   5.360  0.2915  0.2784  0.1873
  719MOL0     N99101   9.659   3.704   5.452 -0.9555 -0.1780  0.5487
  719MOL0     C99102   9.750   3.661   5.546  0.4496 -0.3218 -0.2546
  719MOL0     C99103   9.768   3.774   5.621  0.2156  0.6516  0.9787
  719MOL0     C99104   9.854   3.793   5.749  0.2988  0.1772  1.1089
  719MOL0     C99105   9.788   3.884   5.856  0.1557  0.5469  0.7313
  719MOL0     C99106   9.662   3.828   5.919  0.1215 -0.2188 -0.3523
  719MOL0     C99107   9.693   3.682   5.978  0.9127 -0.3494  0.6163
  719MOL0     O99108   9.819   3.687   6.051  0.7860 -0.0832 -0.0529
  719MOL0     C99109   9.826   3.749   6.172  0.6648  0.4309  0.3673
  719MOL0     C99110   9.942   3.726   6.238 -0.2735 -0.2834  0.4732
  719MOL0     C99111   9.982   3.784   6.362  0.5323  0.5361 -0.3496
  719MOL0     C99112  10.119   3.754   6.415 -0.2225 -0.1276 -0.7602
  719MOL0     C99113   9.887   3.868   6.418  0.4370  0.5233 -1.3726
  719MOL0     C99114   9.898   3.921   6.563 -0.1442 -0.3569 -0.8996
  719MOL0     O99115   9.815   4.025   6.594  0.8000  0.2835 -0.4481
  719MOL0     C99116   9.841   4.076   6.721 -0.7147  0.0532  0.4620
  719MOL0     C99117   9.926   4.182   6.746  0.2829  0.0111 -0.4802
  719MOL0     C99118   9.946   4.232   6.879 -0.6156  0.0757  0.0346
  719MOL0     C99119   9.873   4.172   6.985 -1.0057  0.3853 -0.6918
  719MOL0     O99120   9.906   4.224   7.108  0.1361  0.1159 -0.0162
  719MOL0     C99121   9.827   4.206   7.228  0.6835  0.0601  0.1841
  719MOL0     C99122   9.890   4.286   7.340  0.4748  1.1024  0.5196
  719MOL0     C99123  10.011   4.222   7.391  0.4328  0.1601 -0.9470
  719MOL0     C99124  10.137   4.280   7.316  0.7157 -0.4459  0.1851
  719MOL0     C99125  10.279   4.251   7.371 -0.0017 -0.0616 -0.3077
  719MOL0     C99126  10.319   4.107   7.356 -0.1192  0.4871  0.3447
  719MOL0     C99127  10.427   4.071   7.452  0.3460 -0.5495  0.0356
  719MOL0     C99128  10.478   3.928   7.442 -0.1182 -0.8458  0.2189
  719MOL0    Cl99129  10.654   3.928   7.506 -0.3972 -0.0035  0.0966
  719MOL0     C99130   9.789   4.067   6.960 -0.5497 -0.2011 -0.5001
  719MOL0     C99131   9.780   4.021   6.831  0.4360 -0.6235 -0.3479
  719MOL0     O99132   9.967   3.865   6.652  0.3816 -0.4855 -0.2692
  719MOL0     C99133   9.759   3.889   6.354  0.0418 -0.0671  0.6702
  719MOL0     C99134   9.732   3.832   6.234  0.2348  0.0073 -0.2412
  719MOL0     N99135   9.674   3.871   5.579 -0.6434 -0.2647  0.0444
  719MOL0     N99136   9.618   3.828   5.473  0.1077  0.5142 -0.1732
  719MOL0     C99137   8.896   2.948   5.288  0.4091  0.0824  0.3595
  719MOL0     C99138   8.787   2.939   5.204  0.1313 -0.1500 -0.7694
  719MOL0     C99139   8.486   2.925   4.893 -0.8172  0.1176 -0.2695
  719MOL0     C99140   8.436   3.060   4.871  0.2177  0.0608  0.6243
  719MOL0     C99141   8.304   3.073   4.826  1.4347  0.3608 -0.2062
  719MOL0     C99142   8.225   2.952   4.805  0.6730 -0.0001  0.1124
  719MOL0     O99143   8.094   2.979   4.776 -0.1357  0.9120  0.4434
  719MOL0     C99144   8.002   2.869   4.752  0.3860 -0.0794 -0.4382
  719MOL0     C99145   7.867   2.906   4.810  0.2899  0.0206 -0.3628
  719MOL0     C99146   7.776   2.797   4.765 -0.1628 -0.1395 -0.3265
  719MOL0     C99147   7.730   2.790   4.621  0.7759 -1.3502  0.3170
  719MOL0     C99148   7.704   2.925   4.555  0.2729  0.0770 -0.0655
  719MOL0     C99149   7.681   3.036   4.515 -0.7618  0.4252 -0.2839
  719MOL0     C99150   8.277   2.825   4.819  0.3862  0.1963 -0.1709
  719MOL0     C99151   8.408   2.804   4.867 -0.0493  0.6572  0.7057
  719MOL0     C99152   8.447   2.662   4.906  0.5748 -0.4519  0.7930
  719MOL0     H99153   8.832   3.204   5.004  0.3987  2.2728  1.5256
  719MOL0     H99154   9.057   3.200   5.135 -0.3058 -0.5806 -1.1642
  719MOL0     H99155   9.168   2.866   5.243 -1.5386  0.1153  2.5397
  719MOL0     H99156   9.260   2.910   5.373  0.0133  0.5089  0.8630
  719MOL0     H99157   9.372   2.937   5.149  1.4756  2.7044 -4.4304
  719MOL0     H99158   9.264   3.072   5.105 -0.9835 -1.9310 -0.3376
  719MOL0     H99159   9.368   3.135   5.353 -2.1924  0.4238 -1.3484
  719MOL0     H99160   9.500   3.060   5.269  0.1526 -1.1631 -0.7243
  719MOL0     H99161   9.503   3.216   5.089 -1.1166 -4.2842 -1.1692
  719MOL0     H99162   9.347   3.285   5.131  1.1859 -0.3808 -2.1489
  719MOL0     H99163   9.558   3.425   5.186 -0.0232  1.6419  0.9472
  719MOL0     H99164   9.592   3.319   5.320 -0.6405 -2.5222 -0.0818
  719MOL0     H99165   9.323   3.479   5.291 -1.0780 -0.2754  0.7087
  719MOL0     H99166   9.366   3.358   5.411 -1.7908  0.3334 -0.6645
  719MOL0     H99167   9.535   3.466   5.508  0.0685 -0.9815 -0.7057
  719MOL0     H99168   9.413   3.599   5.474 -1.7203 -1.6698  1.2512
  719MOL0     H99169   9.687   3.535   5.347 -0.9634 -1.0084 -1.5988
  719MOL0     H99170   9.562   3.636   5.264 -1.5055  2.9954  1.7268
  719MOL0     H99171   9.810   3.572   5.564 -0.2702 -0.9489 -0.8875
  719MOL0     H99172   9.953   3.830   5.719  0.5971 -0.7493  0.9360
  719MOL0     H99173   9.873   3.695   5.793  1.7140  0.2522  0.7124
  719MOL0     H99174   9.860   3.890   5.938  2.0539 -4.4427 -0.2672
  719MOL0     H99175   9.770   3.986   5.820  0.2170 -0.1481 -1.3716
  719MOL0     H99176   9.627   3.902   5.991  0.5156  0.3707 -0.7554
  719MOL0     H99177   9.587   3.826   5.840  1.2778 -0.6135 -1.4674
  719MOL0     H99178   9.619   3.656   6.054 -1.1971 -1.1639 -1.5972
  719MOL0     H99179   9.693   3.608   5.898 -0.2319  0.2631  0.0267
  719MOL0     H99180  10.022   3.673   6.187  3.3956  2.4142  2.9895
  719MOL0     H99181  10.179   3.845   6.419 -1.8499  0.9580  0.5695
  719MOL0     H99182  10.164   3.691   6.338  1.9707 -1.6983  1.5928
  719MOL0     H99183  10.119   3.715   6.518 -1.3839 -0.2115 -0.7802
  719MOL0     H99184   9.995   4.227   6.675  1.6741 -1.2046  0.0293
  719MOL0     H99185  10.020   4.311   6.883  0.5708 -1.0003  0.1884
  719MOL0     H99186   9.723   4.236   7.213  1.1470  0.9114 -1.8058
  719MOL0     H99187   9.830   4.101   7.256  1.3892 -0.5878 -2.1210
  719MOL0     H99188   9.910   4.388   7.308 -2.7142  1.7870  0.3901
  719MOL0     H99189   9.810   4.295   7.414 -4.0520 -1.7453 -3.4500
  719MOL0     H99190   9.998   4.114   7.393 -1.9172  0.2944  3.5085
  719MOL0     H99191  10.026   4.255   7.494 -1.2826  0.6884 -0.8462
  719MOL0     H99192  10.134   4.389   7.317 -1.4436 -0.4603  1.6882
  719MOL0     H99193  10.124   4.247   7.213 -0.7028  0.3792  0.0792
  719MOL0     H99194  10.352   4.319   7.328  2.9619 -1.9523  1.3931
  719MOL0     H99195  10.283   4.274   7.478 -0.7651  0.8016 -0.4522
  719MOL0     H99196  10.357   4.084   7.256  1.1502  0.0211  0.9108
  719MOL0     H99197  10.234   4.039   7.374  2.3444 -3.7320 -2.2874
  719MOL0     H99198  10.403   4.082   7.558 -1.1155 -1.1888 -0.2034
  719MOL0     H99199  10.507   4.145   7.437 -1.2962  1.2825 -0.0239
  719MOL0     H99200  10.473   3.894   7.338 -1.2162  0.8468 -0.3268
  719MOL0     H99201  10.425   3.862   7.512 -1.7771 -0.0879 -0.2664
  719MOL0     H99202   9.745   4.005   7.038  1.1023 -1.5089 -0.5554
  719MOL0     H99203   9.706   3.944   6.814 -2.5785  1.2644  2.8704
  719MOL0     H99204   9.678   3.949   6.394 -2.7149 -2.5225 -0.8773
  719MOL0     H99205   9.638   3.852   6.184 -0.0911 -1.0773 -0.0848
  719MOL0     H99206   8.918   2.872   5.362  1.5415  0.8856  0.8719
  719MOL0     H99207   8.708   2.865   5.215  0.6504 -0.6027 -0.0110
  719MOL0     H99208   8.491   3.153   4.876  0.9991 -0.0270 -3.3354
  719MOL0     H99209   8.264   3.172   4.806  1.1976  0.2027 -0.5248
  719MOL0     H99210   7.993   2.844   4.647 -3.5037 -0.9208 -0.0315
  719MOL0     H99211   8.029   2.786   4.819  1.3430  0.2089 -0.4521
  719MOL0     H99212   7.836   3.010   4.797  0.0082  0.2815  1.9866
  719MOL0     H99213   7.889   2.907   4.917  0.8859  0.0873 -0.4811
  719MOL0     H99214   7.824   2.701   4.787 -0.0659 -0.2144 -0.8376
  719MOL0     H99215   7.685   2.809   4.824 -1.1337 -0.5164 -1.6769
  719MOL0     H99216   7.638   2.730   4.612 -0.3276  0.5795 -3.3954
  719MOL0     H99217   7.806   2.729   4.571  2.0332  0.9944 -0.7529
  719MOL0     H99218   7.649   3.127   4.469 -0.2177 -0.3433 -2.3121
  719MOL0     H99219   8.227   2.735   4.784  1.2406 -1.2502  2.0615
  719MOL0     H99220   8.540   2.623   4.863  1.4541 -0.6948  2.8232
  719MOL0     H99221   8.452   2.656   5.015  1.8275  5.7276  1.4111
  719MOL0     H99222   8.369   2.595   4.868  0.9276 -0.9454  0.9319
  720MOL0     O99223   3.986   7.375   0.360 -0.1454  0.0386 -0.1371
  720MOL0     C99224   3.960   7.343   0.240  0.3261  0.3311  0.7012
  720MOL0     O99225   3.836   7.327   0.190  1.5963  0.6907 -0.4095
  720MOL0     C99226   3.726   7.332   0.270 -0.1340  1.1757 -0.1117
  720MOL0     C99227   3.649   7.215   0.263  0.7536 -0.5991  0.1555
  720MOL0     C99228   3.527   7.224   0.326 -0.2877  1.6691 -0.3007
  720MOL0     C99229   3.491   7.323   0.409  0.4443  0.1257 -0.3156
  720MOL0     O99230   3.374   7.315   0.489 -0.6912 -0.2851  0.1270
  720MOL0     C99231   3.272   7.211   0.462 -0.4754 -1.4477 -0.0120
  720MOL0     C99232   3.290   7.075   0.544 -0.6628  0.1657 -0.2607
  720MOL0     C99233   3.260   7.087   0.692  0.5549 -0.4243 -0.3955
  720MOL0     C99234   3.384   7.139   0.775 -0.4443 -0.1178 -0.4937
  720MOL0     C99235   3.350   7.149   0.926 -0.2944  0.9118 -0.0234
  720MOL0     C99236   3.462   7.188   1.018  0.1098  0.2983  1.0744
  720MOL0     C99237   3.421   7.201   1.164 -0.1777  0.4250  0.4387
  720MOL0     C99238   3.356   7.340   1.201 -0.2564  0.6568 -0.9288
  720MOL0     N99239   3.454   7.452   1.213  0.3533 -0.1396  0.5150
  720MOL0     C99240   3.511   7.521   1.111  0.3896 -0.8131  0.1772
  720MOL0     C99241   3.590   7.606   1.172  0.3490 -0.4896 -0.6046
  720MOL0     C99242   3.686   7.708   1.107  0.5757  0.4749 -0.9835
  720MOL0     C99243   3.832   7.669   1.117  0.2241  0.2028 -0.6520
  720MOL0     C99244   3.868   7.530   1.046 -0.6646 -1.1504  0.5271
  720MOL0     C99245   3.875   7.416   1.144  0.6332  0.6172 -0.1766
  720MOL0     O99246   3.970   7.321   1.093  0.4079 -0.2794  0.5060
  720MOL0     C99247   3.928   7.220   1.010 -0.5610 -0.8133 -0.1529
  720MOL0     C99248   4.007   7.109   1.020 -0.2429  0.0159  0.0542
  720MOL0     C99249   3.986   7.007   0.933  0.8078 -0.1133  0.0719
  720MOL0     C99250   4.079   6.885   0.941  0.3536  0.1825 -0.3982
  720MOL0     C99251   3.871   6.996   0.849  0.4874 -0.0158  0.2390
  720MOL0     C99252   3.849   6.889   0.738 -0.4926 -0.2860 -0.5398
  720MOL0     O99253   3.729   6.883   0.676  0.3693 -0.5350 -0.0015
  720MOL0     C99254   3.717   6.810   0.562  0.4996 -0.4044  0.6268
  720MOL0     C99255   3.693   6.873   0.441 -0.2450 -0.0161  0.3617
  720MOL0     C99256   3.653   6.796   0.326  1.1180 -0.4655  0.3978
  720MOL0     C99257   3.653   6.659   0.329 -0.0708 -0.2893  0.5161
  720MOL0     O99258   3.630   6.584   0.212 -0.0963 -0.6228  0.6661
  720MOL0     C99259   3.540   6.475   0.213 -1.1154 -0.8531 -0.0102
  720MOL0     C99260   3.559   6.402   0.085 -0.4210  0.6437  0.3875
  720MOL0     C99261   3.466   6.449  -0.024 -0.3775 -0.3393 -0.2746
  720MOL0     C99262   3.477   6.366  -0.148 -0.2598  0.7054  0.0798
  720MOL0     C99263   3.383   6.434  -0.254 -0.9558  1.1040 -0.2944
  720MOL0     C99264   3.394   6.326  -0.367 -0.5097 -0.2332 -0.1579
  720MOL0     C99265   3.356   6.391  -0.494  0.7412  0.0050 -0.1961
  720MOL0     C99266   3.349   6.289  -0.612 -0.1546  0.1908 -0.5078
  720MOL0    Cl99267   3.244   6.157  -0.564  0.4762 -0.2407  0.0316
  720MOL0     C99268   3.690   6.594   0.450  0.9243 -0.7809  0.3401
  720MOL0     C99269   3.711   6.671   0.566 -0.2790  0.0157 -0.3695
  720MOL0     O99270   3.940   6.809   0.719  0.7478  0.0337 -0.0970
  720MOL0     C99271   3.784   7.115   0.844  0.3521 -0.1815  0.6249
  720MOL0     C99272   3.824   7.227   0.919  0.5147  0.2742 -0.0360
  720MOL0     N99273   3.581   7.592   1.307  0.5708  0.0088 -0.0649
  720MOL0     N99274   3.497   7.502   1.333  0.4579  0.0365  0.2210
  720MOL0     C99275   3.570   7.433   0.426  0.0614  0.1285  0.9092
  720MOL0     C99276   3.679   7.441   0.346 -0.3324  0.2593 -0.8834
  720MOL0     C99277   4.081   7.330   0.144 -0.8656 -0.3286  0.7392
  720MOL0     C99278   4.061   7.336   0.006 -0.7445  0.6336 -0.3703
  720MOL0     C99279   4.157   7.348  -0.090 -0.4218 -0.2430  0.0365
  720MOL0     C99280   4.293   7.363  -0.049  0.3116 -0.4757  0.0547
  720MOL0     O99281   4.387   7.389  -0.146 -0.2356  0.4983 -0.0266
  720MOL0     C99282   4.526   7.400  -0.109 -0.4728 -0.2737  0.3415
  720MOL0     C99283   4.613   7.408  -0.246  0.6392  0.0392 -0.6631
  720MOL0     C99284   4.743   7.472  -0.208  0.2429  0.4395 -0.9299
  720MOL0     C99285   4.851   7.435  -0.309  0.9271  0.7577 -0.5355
  720MOL0     C99286   4.977   7.492  -0.276  0.2483 -0.5551  0.1942
  720MOL0     C99287   5.076   7.541  -0.240 -1.1003  0.0285  0.0826
  720MOL0     C99288   4.313   7.351   0.088  0.0609 -0.0991  0.5943
  720MOL0     C99289   4.218   7.318   0.183  0.4686  0.2400 -0.6386
  720MOL0     C99290   4.264   7.285   0.322  0.7560  0.0050  0.6732
  720MOL0     H99291   3.703   7.133   0.216  1.8277 -1.6672  3.0027
  720MOL0     H99292   3.473   7.129   0.327  0.2678  1.3447  0.8744
  720MOL0     H99293   3.271   7.188   0.355 -2.0718 -0.1998 -0.2933
  720MOL0     H99294   3.174   7.245   0.496  0.4916  0.7136  0.7566
  720MOL0     H99295   3.228   6.991   0.513 -0.2569  0.1625 -1.1011
  720MOL0     H99296   3.393   7.043   0.525 -1.2241 -0.7172 -1.9959
  720MOL0     H99297   3.170   7.141   0.721  1.2927  1.3628 -1.2688
  720MOL0     H99298   3.249   6.986   0.734  1.0176  0.7082  2.6736
  720MOL0     H99299   3.470   7.074   0.757  0.7530  0.8602  1.4468
  720MOL0     H99300   3.407   7.243   0.754 -1.1475  0.4503  1.3303
  720MOL0     H99301   3.300   7.059   0.963 -1.2184  1.2717 -0.3617
  720MOL0     H99302   3.280   7.234   0.932  1.5766  2.7873 -2.5128
  720MOL0     H99303   3.540   7.114   1.001 -2.4612 -2.3353 -0.0542
  720MOL0     H99304   3.495   7.288   0.988 -4.9601  2.9240  2.9395
  720MOL0     H99305   3.505   7.192   1.234 -0.9839  0.9448  1.5052
  720MOL0     H99306   3.344   7.128   1.189 -0.9778 -0.1502 -3.1870
  720MOL0     H99307   3.283   7.353   1.120 -0.3377 -0.2972 -1.0206
  720MOL0     H99308   3.311   7.321   1.299  0.0834 -0.7434 -1.0119
  720MOL0     H99309   3.507   7.510   1.003 -0.3317 -1.1437  0.2326
  720MOL0     H99310   3.664   7.801   1.160 -0.1542 -0.6512  0.7772
  720MOL0     H99311   3.665   7.728   1.001  0.3397  1.3806 -0.7802
  720MOL0     H99312   3.894   7.746   1.069  3.6454  0.1362  3.1001
  720MOL0     H99313   3.857   7.668   1.223  0.2243 -1.0325 -0.6534
  720MOL0     H99314   3.795   7.504   0.968 -1.4659  1.3789  0.3360
  720MOL0     H99315   3.960   7.556   0.993 -1.6879 -2.6436 -2.2238
  720MOL0     H99316   3.906   7.455   1.241 -5.0653 -0.5276  2.5323
  720MOL0     H99317   3.777   7.370   1.160  0.5753  1.2363  1.4875
  720MOL0     H99318   4.099   7.107   1.077  0.5413  1.2646 -1.1023
  720MOL0     H99319   4.141   6.870   0.852 -1.5366 -0.1671 -1.7170
  720MOL0     H99320   4.009   6.803   0.958  0.6925 -0.6746 -2.7527
  720MOL0     H99321   4.138   6.896   1.033  0.0167 -0.0245 -0.1547
  720MOL0     H99322   3.695   6.982   0.436 -2.1267  0.0387  0.1118
  720MOL0     H99323   3.622   6.852   0.238  0.8416  0.3946  1.0349
  720MOL0     H99324   3.550   6.417   0.306  2.1133  1.3815  1.1702
  720MOL0     H99325   3.440   6.520   0.216 -0.9012 -0.3358 -0.5391
  720MOL0     H99326   3.661   6.410   0.044  0.4910 -0.1003  2.3863
  720MOL0     H99327   3.546   6.294   0.094 -0.8310  0.6839  0.2749
  720MOL0     H99328   3.495   6.550  -0.053  1.2327 -1.3208 -2.2905
  720MOL0     H99329   3.364   6.452   0.017 -0.1077  0.6716  0.3573
  720MOL0     H99330   3.455   6.262  -0.123 -2.5737  0.6326 -1.8533
  720MOL0     H99331   3.582   6.363  -0.178 -0.4715 -0.6759 -0.6092
  720MOL0     H99332   3.282   6.440  -0.211 -0.5110 -2.0568  1.5192
  720MOL0     H99333   3.426   6.533  -0.268  0.9183  0.7966  2.5682
  720MOL0     H99334   3.338   6.235  -0.344 -1.4195 -0.3784 -2.6437
  720MOL0     H99335   3.498   6.293  -0.376 -0.1654  0.7919 -0.0673
  720MOL0     H99336   3.430   6.470  -0.511  1.6488 -0.9120 -0.6262
  720MOL0     H99337   3.256   6.434  -0.485 -0.2207 -2.1184 -0.0582
  720MOL0     H99338   3.447   6.243  -0.624 -0.3743 -1.2527  2.3537
  720MOL0     H99339   3.311   6.340  -0.701 -0.2368 -2.6007 -2.2087
  720MOL0     H99340   3.706   6.487   0.460  2.7469 -0.5604  0.1111
  720MOL0     H99341   3.751   6.621   0.654  2.3486  0.2675 -1.3334
  720MOL0     H99342   3.688   7.107   0.793 -0.1447  3.1394  0.8053
  720MOL0     H99343   3.761   7.315   0.910  1.8824  1.1758 -1.1107
  720MOL0     H99344   3.518   7.514   0.475 -2.9009 -0.0514 -1.6395
  720MOL0     H99345   3.739   7.531   0.345 -1.4573  1.2380  2.6158
  720MOL0     H99346   3.958   7.334  -0.030 -0.3344  1.0183 -1.6272
  720MOL0     H99347   4.117   7.360  -0.191  2.0604  1.0433 -0.8831
  720MOL0     H99348   4.540   7.493  -0.053  2.5278 -1.3516  1.6223
  720MOL0     H99349   4.559   7.321  -0.041 -2.7966 -3.1078 -1.5827
  720MOL0     H99350   4.571   7.468  -0.326  0.5582 -2.0871 -2.3170
  720MOL0     H99351   4.630   7.305  -0.280 -1.9697 -0.6985  0.0995
  720MOL0     H99352   4.722   7.578  -0.194  0.4851  0.0281  4.6928
  720MOL0     H99353   4.760   7.442  -0.104 -0.6571  3.3344  0.1582
  720MOL0     H99354   4.808   7.474  -0.402  0.2105  0.2732 -0.4115
  720MOL0     H99355   4.863   7.327  -0.322  1.5126  0.4068  2.3661
  720MOL0     H99356   5.166   7.576  -0.194  0.7286 -1.2051 -2.2979
  720MOL0     H99357   4.416   7.366   0.120 -0.3546  0.4918  1.7018
  720MOL0     H99358   4.372   7.277   0.335  0.9218  0.9823 -0.0044
  720MOL0     H99359   4.233   7.364   0.392  0.6958 -0.2084  0.8869
  720MOL0     H99360   4.210   7.197   0.359  0.7967 -0.2994  0.0102
  721MOL0     O99361  10.630   3.902  10.525 -0.5356 -0.3426  0.5331
  721MOL0     C99362  10.567   3.925  10.425 -0.0797  0.4114 -0.4443
  721MOL0     O99363  10.621   3.928  10.300 -0.4014  0.5013  0.8688
  721MOL0     C99364  10.754   3.910  10.280  0.3294  0.0204  0.0175
  721MOL0     C99365  10.854   3.982  10.344 -0.3246 -0.2273  0.5592
  721MOL0     C99366  10.988   3.960  10.313  0.3629 -0.1161  0.0630
  721MOL0     C99367  11.019   3.884  10.203 -0.2000 -0.3775  0.1216
  721MOL0     O99368  11.142   3.834  10.164 -0.3538 -0.1842 -0.0064
  721MOL0     C99369  11.247   3.911  10.217 -0.4370 -0.5271  0.2124
  721MOL0     C99370  11.371   3.855  10.147  0.4239  0.0145  0.4614
  721MOL0     C99371  11.413   3.701  10.180  0.0834  0.7412  0.5388
  721MOL0     C99372  11.551   3.664  10.116  0.5477  0.2122 -0.3881
  721MOL0     C99373  11.583   3.514  10.133 -0.1174  0.7550 -0.2833
  721MOL0     C99374  11.735   3.483  10.121 -0.3997 -0.0528  0.5338
  721MOL0     C99375  11.777   3.445   9.979 -0.5976 -0.1417 -0.4248
  721MOL0     C99376  11.924   3.430   9.976 -0.3974  0.1905  0.1472
  721MOL0     N99377  11.974   3.408   9.839  0.4953 -0.5334  0.5166
  721MOL0     C99378  12.091   3.469   9.799 -0.0985  0.0550  0.1535
  721MOL0     C99379  12.101   3.434   9.669 -0.1076  0.3339 -0.4005
  721MOL0     C99380  12.226   3.473   9.582  0.9186 -0.6282 -0.3784
  721MOL0     C99381  12.359   3.471   9.673 -0.2783 -0.8544  0.1668
  721MOL0     C99382  12.492   3.462   9.585 -0.4810  0.0198 -0.1664
  721MOL0     C99383  12.507   3.573   9.473  0.2490 -0.5567  0.9455
  721MOL0     O99384  12.622   3.534   9.397 -0.2006 -0.2722  0.2974
  721MOL0     C99385  12.753   3.555   9.444  0.6888 -0.3278 -0.7191
  721MOL0     C99386  12.780   3.611   9.570 -0.4105  0.8807 -0.5215
  721MOL0     C99387  12.908   3.642   9.616 -1.2064 -0.4557 -0.7691
  721MOL0     C99388  12.922   3.720   9.748 -0.0774  0.6628  0.8375
  721MOL0     C99389  13.021   3.593   9.532  0.5155  0.6931  0.2729
  721MOL0     C99390  13.166   3.607   9.562  1.2207  0.6052  0.8274
  721MOL0     O99391  13.246   3.546   9.463  0.3665  0.0034  0.0229
  721MOL0     C99392  13.387   3.557   9.463 -0.2840 -0.2383 -0.6293
  721MOL0     C99393  13.482   3.582   9.569  0.8927  0.8004  0.1644
  721MOL0     C99394  13.617   3.576   9.549 -0.0767 -0.2573  0.2591
  721MOL0     C99395  13.668   3.536   9.427 -0.3954  0.4011  0.0789
  721MOL0     O99396  13.804   3.524   9.435 -0.1152  0.1029  0.3538
  721MOL0     C99397  13.877   3.582   9.323  0.0251  0.2985  0.0584
  721MOL0     C99398  14.032   3.553   9.339 -0.1475  0.1134  0.0057
  721MOL0     C99399  14.126   3.626   9.249 -0.0889  0.0168 -0.0890
  721MOL0     C99400  14.154   3.768   9.295 -1.1704 -0.5125 -0.4026
  721MOL0     C99401  14.223   3.872   9.199  0.4460  0.8850 -0.0506
  721MOL0     C99402  14.382   3.853   9.200 -0.5140 -0.1206 -0.6014
  721MOL0     C99403  14.459   3.964   9.128 -0.3280  0.7427 -0.1678
  721MOL0     C99404  14.600   3.921   9.097 -0.5882 -0.5424 -0.6850
  721MOL0    Cl99405  14.678   3.862   9.258  0.2310  0.1963 -0.0486
  721MOL0     C99406  13.582   3.526   9.313 -0.3627  0.4154 -0.8028
  721MOL0     C99407  13.449   3.534   9.340  0.1214 -0.0832 -0.8801
  721MOL0     O99408  13.211   3.664   9.656 -0.1538  0.6230  0.0198
  721MOL0     C99409  12.989   3.522   9.409  0.5237  0.1601 -0.3427
  721MOL0     C99410  12.859   3.509   9.371  0.1032 -0.4831 -0.3533
  721MOL0     N99411  11.991   3.359   9.626 -0.3127 -0.0555  0.4556
  721MOL0     N99412  11.912   3.349   9.734 -0.3599 -0.1515  0.7106
  721MOL0     C99413  10.916   3.820  10.129 -1.0325 -0.6007  0.2471
  721MOL0     C99414  10.790   3.831  10.179  0.9083  0.0889  0.1926
  721MOL0     C99415  10.412   3.950  10.438  0.6546  0.6911 -0.2817
  721MOL0     C99416  10.338   3.961  10.322 -0.8632  0.7300 -0.7680
  721MOL0     C99417  10.204   3.987  10.319 -0.7853  0.4365 -0.2982
  721MOL0     C99418  10.133   4.000  10.436  0.5213 -0.1327 -0.0211
  721MOL0     O99419   9.997   4.028  10.416 -0.2427  0.1907 -0.4187
  721MOL0     C99420   9.911   3.956  10.511 -0.3791  0.3233  0.5977
  721MOL0     C99421   9.783   4.027  10.539  0.4611 -0.2175  0.0044
  721MOL0     C99422   9.809   4.171  10.573  0.7472 -0.6597 -0.0569
  721MOL0     C99423   9.860   4.198  10.720 -0.6180 -0.2645  0.0828
  721MOL0     C99424   9.753   4.183  10.823  0.2994 -0.1295 -0.9141
  721MOL0     C99425   9.671   4.174  10.911 -0.1767 -0.3718  1.2779
  721MOL0     C99426  10.199   3.982  10.558 -0.2328  0.6585  0.2510
  721MOL0     C99427  10.335   3.956  10.557  0.4065  0.0422 -1.0103
  721MOL0     C99428  10.395   3.956  10.691  0.0434  0.0242  0.7716
  721MOL0     H99429  10.841   4.052  10.426 -1.0128 -0.9955  1.1210
  721MOL0     H99430  11.067   4.016  10.362  2.6486 -1.1773 -2.1484
  721MOL0     H99431  11.252   3.917  10.326 -2.3541  5.1183  0.3123
  721MOL0     H99432  11.252   4.012  10.175  2.7244 -0.3064  0.8724
  721MOL0     H99433  11.359   3.868  10.039 -0.3238  0.0746  0.5452
  721MOL0     H99434  11.447   3.931  10.168 -1.5910  2.6247 -0.9707
  721MOL0     H99435  11.412   3.692  10.289 -2.3156  0.2839  0.5394
  721MOL0     H99436  11.343   3.619  10.158  2.5660 -1.6954  1.2385
  721MOL0     H99437  11.553   3.672  10.007  1.2724  0.2055 -0.3797
  721MOL0     H99438  11.624   3.733  10.159 -0.0015  0.2207  0.5722
  721MOL0     H99439  11.526   3.461  10.056 -2.6280 -0.3042  2.1079
  721MOL0     H99440  11.548   3.485  10.233  1.1197 -0.9311 -0.2960
  721MOL0     H99441  11.786   3.572  10.159 -0.7224 -1.0443  3.5760
  721MOL0     H99442  11.762   3.396  10.182  2.9313  1.1034  0.9230
  721MOL0     H99443  11.743   3.524   9.912 -1.2367 -0.2957 -0.2929
  721MOL0     H99444  11.736   3.348   9.946 -0.0830  0.0919 -1.8015
  721MOL0     H99445  11.978   3.515  10.020 -2.1410  2.1265 -1.2513
  721MOL0     H99446  11.944   3.342  10.038 -1.1952  0.7726  1.2781
  721MOL0     H99447  12.155   3.539   9.851 -0.3039 -0.5683  1.2783
  721MOL0     H99448  12.211   3.573   9.539  0.8054 -0.7119 -0.5334
  721MOL0     H99449  12.224   3.402   9.499  0.0360 -0.8015 -0.2196
  721MOL0     H99450  12.354   3.568   9.725  1.1415  1.0270 -2.8843
  721MOL0     H99451  12.369   3.385   9.740  1.5029 -1.7795 -1.2223
  721MOL0     H99452  12.571   3.478   9.659 -1.2775 -0.3596  0.7869
  721MOL0     H99453  12.507   3.361   9.544 -0.9139 -0.5297  0.9967
  721MOL0     H99454  12.422   3.574   9.404  0.4484 -4.6499  0.3916
  721MOL0     H99455  12.534   3.670   9.515  2.0110 -0.8561  0.5792
  721MOL0     H99456  12.705   3.644   9.641 -0.1273  2.4939 -0.9245
  721MOL0     H99457  12.916   3.829   9.739 -1.8387  0.5348 -0.1915
  721MOL0     H99458  13.018   3.688   9.789 -0.1984  1.2520  1.6145
  721MOL0     H99459  12.840   3.682   9.810  0.2342  1.9751  2.1265
  721MOL0     H99460  13.447   3.611   9.667 -0.1106  0.0497  0.0419
  721MOL0     H99461  13.681   3.594   9.635 -0.8497 -0.2092  0.8292
  721MOL0     H99462  13.849   3.526   9.233  0.1235  0.6364 -0.1821
  721MOL0     H99463  13.847   3.685   9.304  1.5967  0.4100 -2.0761
  721MOL0     H99464  14.069   3.575   9.440 -2.1465 -0.3240  0.8682
  721MOL0     H99465  14.057   3.448   9.317  2.4983  0.7407 -0.3481
  721MOL0     H99466  14.077   3.642   9.153 -0.1777  1.3499  0.1511
  721MOL0     H99467  14.217   3.569   9.229 -0.3915  0.1859 -2.2076
  721MOL0     H99468  14.215   3.776   9.386  2.4463  3.6699 -2.7831
  721MOL0     H99469  14.058   3.811   9.325 -0.7252 -0.0671  0.4008
  721MOL0     H99470  14.179   3.869   9.099 -0.7577 -2.9853  0.4391
  721MOL0     H99471  14.208   3.970   9.246  0.4246  1.9064 -2.1035
  721MOL0     H99472  14.407   3.754   9.160 -3.6501 -1.6019  0.7491
  721MOL0     H99473  14.410   3.855   9.306  1.4301  1.0960 -1.0879
  721MOL0     H99474  14.467   4.050   9.196  1.6955 -1.6255  2.8590
  721MOL0     H99475  14.401   3.982   9.037  0.3267 -3.5900 -1.6478
  721MOL0     H99476  14.665   3.999   9.056 -1.3736  1.0112  0.8919
  721MOL0     H99477  14.578   3.840   9.027  0.1143 -0.7925 -0.6260
  721MOL0     H99478  13.621   3.491   9.218  0.2270  2.4074 -1.3346
  721MOL0     H99479  13.378   3.513   9.261  0.4146 -0.0231 -1.1596
  721MOL0     H99480  13.064   3.485   9.339  1.5928  1.9530 -0.2230
  721MOL0     H99481  12.850   3.442   9.286 -1.8637 -2.3070  1.1790
  721MOL0     H99482  10.943   3.759  10.043  2.2106  0.9766 -0.0180
  721MOL0     H99483  10.715   3.775  10.125 -0.4202 -0.3860  2.4165
  721MOL0     H99484  10.392   3.964  10.228 -2.3330 -1.7434 -1.7917
  721MOL0     H99485  10.148   3.996  10.227 -0.9814  0.7111 -0.1536
  721MOL0     H99486   9.886   3.857  10.471  2.7549 -1.1900  1.9507
  721MOL0     H99487   9.956   3.921  10.604 -0.0620  0.0982  0.3657
  721MOL0     H99488   9.730   3.982  10.623  1.4006 -0.1080  0.6629
  721MOL0     H99489   9.716   4.006  10.455  0.5524  0.2381 -0.1868
  721MOL0     H99490   9.881   4.215  10.504  0.7015  0.1305  0.3803
  721MOL0     H99491   9.710   4.216  10.566  0.0257 -1.9278  1.3582
  721MOL0     H99492   9.895   4.301  10.728  0.5474 -0.7586  2.6654
  721MOL0     H99493   9.936   4.124  10.745 -0.6808 -0.5459 -0.5451
  721MOL0     H99494   9.606   4.160  10.995  0.1237  0.6214  1.6909
  721MOL0     H99495  10.147   3.981  10.654  0.2671 -3.3772  0.6458
  721MOL0     H99496  10.384   3.853  10.725 -0.6352 -0.0733  0.2879
  721MOL0     H99497  10.499   3.989  10.700  0.0350 -0.2253  1.9542
  721MOL0     H99498  10.334   4.013  10.761  0.4780  0.1479  1.0506
  722MOL0     O99499   7.704   6.595   2.064 -0.3653 -0.5198  0.5765
  722MOL0     C99500   7.642   6.626   2.166 -0.1359  0.0396  0.0773
  722MOL0     O99501   7.692   6.690   2.272  0.2202  0.2518 -0.2903
  722MOL0     C99502   7.812   6.750   2.259  0.8982  0.0436 -0.2699
  722MOL0     C99503   7.932   6.692   2.298 -0.0368  1.0042 -0.2112
  722MOL0     C99504   8.045   6.769   2.296  0.2158 -0.1301  0.1301
  722MOL0     C99505   8.056   6.902   2.242  0.9765  0.1544 -0.3747
  722MOL0     O99506   8.169   6.976   2.253 -0.2376 -0.5212  0.0704
  722MOL0     C99507   8.234   6.993   2.122  0.1172  0.2254 -1.0210
  722MOL0     C99508   8.379   7.025   2.135  0.0396 -0.2427 -0.5850
  722MOL0     C99509   8.450   6.896   2.189  0.1974 -0.4025  0.5126
  722MOL0     C99510   8.594   6.946   2.208 -0.1549  0.1707 -0.2362
  722MOL0     C99511   8.686   6.844   2.273  0.0945 -0.7070  0.2323
  722MOL0     C99512   8.711   6.722   2.184 -0.4498 -0.7371  0.3870
  722MOL0     C99513   8.754   6.593   2.245 -0.0533  0.1960  0.5777
  722MOL0     C99514   8.893   6.616   2.318 -0.3293  0.0572  0.0249
  722MOL0     N99515   9.003   6.559   2.232  0.6682  0.1942 -0.5449
  722MOL0     C99516   9.079   6.631   2.141  1.0905  0.4304 -0.6208
  722MOL0     C99517   9.163   6.536   2.096  0.0697 -0.5140  0.3245
  722MOL0     C99518   9.273   6.571   1.996  0.2470  0.1237 -0.3844
  722MOL0     C99519   9.256   6.497   1.863  0.8107 -0.1769  0.7863
  722MOL0     C99520   9.153   6.568   1.759 -0.1123  0.8697 -0.4565
  722MOL0     C99521   9.189   6.520   1.614 -0.3667  0.1328  0.3045
  722MOL0     O99522   9.107   6.585   1.513 -0.6904  0.3082  0.5961
  722MOL0     C99523   8.985   6.533   1.471  0.3277  0.1095 -0.2244
  722MOL0     C99524   8.926   6.415   1.520 -0.5331  0.6797 -0.5631
  722MOL0     C99525   8.808   6.357   1.464 -0.2045 -0.1553  0.7452
  722MOL0     C99526   8.761   6.218   1.517  0.0104 -0.3257  0.4642
  722MOL0     C99527   8.727   6.436   1.366 -0.0710  1.3221 -0.3657
  722MOL0     C99528   8.598   6.390   1.303 -0.1723  0.2952 -0.3180
  722MOL0     O99529   8.517   6.482   1.237 -0.2540  0.0536 -0.0509
  722MOL0     C99530   8.385   6.444   1.199  0.6593 -0.2503 -0.1922
  722MOL0     C99531   8.293   6.407   1.296  0.5143  0.3233 -0.3896
  722MOL0     C99532   8.163   6.363   1.265  0.6530  0.0279 -0.5845
  722MOL0     C99533   8.111   6.389   1.140 -0.2922  0.5686 -0.8077
  722MOL0     O99534   7.979   6.376   1.108 -1.0870 -0.0993  0.0614
  722MOL0     C99535   7.922   6.241   1.126  0.2967  0.3322  0.6850
  722MOL0     C99536   7.769   6.247   1.074  0.0503  0.1535 -0.0724
  722MOL0     C99537   7.676   6.283   1.184 -0.1152 -0.4749  0.6754
  722MOL0     C99538   7.527   6.270   1.140 -1.1162  0.7858 -0.4444
  722MOL0     C99539   7.437   6.332   1.243  0.3882  0.2138 -0.0404
  722MOL0     C99540   7.421   6.488   1.238 -0.6168  0.1803  0.8667
  722MOL0     C99541   7.377   6.543   1.096 -0.1697 -0.2974 -0.5741
  722MOL0     C99542   7.375   6.699   1.115  0.5399 -0.6117 -0.1364
  722MOL0    Cl99543   7.333   6.781   0.967  0.3855  0.2847 -0.2122
  722MOL0     C99544   8.202   6.440   1.042 -0.7170 -1.2629 -0.4399
  722MOL0     C99545   8.343   6.455   1.068 -0.2138  0.2147  0.4006
  722MOL0     O99546   8.566   6.274   1.323  0.7933 -0.1037  0.1586
  722MOL0     C99547   8.787   6.561   1.321 -0.0812 -0.3748 -0.0365
  722MOL0     C99548   8.908   6.614   1.384  0.2031  0.8618  0.9986
  722MOL0     N99549   9.141   6.416   2.148 -0.5501 -0.8585 -0.2728
  722MOL0     N99550   9.045   6.431   2.233  0.0324 -0.2202 -0.1668
  722MOL0     C99551   7.940   6.947   2.174  0.4311 -0.4781  0.3451
  722MOL0     C99552   7.819   6.877   2.194 -0.3482 -0.0018 -0.3187
  722MOL0     C99553   7.496   6.595   2.175  0.7548  0.5864 -0.1150
  722MOL0     C99554   7.432   6.627   2.302  1.3343 -0.1924  0.5350
  722MOL0     C99555   7.303   6.599   2.330  0.6324 -0.6013 -0.2864
  722MOL0     C99556   7.225   6.528   2.245 -0.0152  0.1951  0.0126
  722MOL0     O99557   7.104   6.494   2.296 -0.3471 -0.5295 -0.2959
  722MOL0     C99558   7.019   6.432   2.199  0.1621 -0.3351 -0.5103
  722MOL0     C99559   6.871   6.423   2.257 -0.4789 -0.3620 -0.6432
  722MOL0     C99560   6.768   6.379   2.151 -0.3782  1.6796 -0.1970
  722MOL0     C99561   6.624   6.373   2.210 -0.7928  0.6482 -0.5743
  722MOL0     C99562   6.568   6.505   2.211 -0.3118 -0.9221 -0.0542
  722MOL0     C99563   6.517   6.613   2.223  0.5655  0.1103  0.7894
  722MOL0     C99564   7.284   6.502   2.122  0.5658  0.6175  0.3148
  722MOL0     C99565   7.414   6.527   2.084  0.0822 -0.7772  0.2559
  722MOL0     C99566   7.468   6.486   1.952  0.2146 -0.1800 -1.3238
  722MOL0     H99567   7.931   6.592   2.339 -0.7974 -0.7065 -3.9823
  722MOL0     H99568   8.136   6.726   2.334  0.2501  0.1592  0.3767
  722MOL0     H99569   8.185   7.073   2.067 -3.6123 -1.0061  0.1744
  722MOL0     H99570   8.226   6.901   2.064  1.4708  3.3294 -6.8711
  722MOL0     H99571   8.427   7.029   2.037 -1.2681 -0.9185 -1.2762
  722MOL0     H99572   8.393   7.113   2.198 -0.4561  0.4287 -1.3879
  722MOL0     H99573   8.407   6.844   2.274 -2.1955 -0.5159 -0.6915
  722MOL0     H99574   8.446   6.818   2.112 -1.5269 -0.2701  0.4343
  722MOL0     H99575   8.623   6.984   2.109 -3.5832 -0.4649 -1.6455
  722MOL0     H99576   8.588   7.035   2.272  4.2424  0.5423 -0.0242
  722MOL0     H99577   8.641   6.807   2.365  2.3713 -1.6401  1.0508
  722MOL0     H99578   8.785   6.888   2.289 -0.5026  1.8969 -2.3408
  722MOL0     H99579   8.624   6.705   2.120 -1.1305  2.5301  0.2522
  722MOL0     H99580   8.787   6.747   2.109 -1.0257  1.4295  0.4720
  722MOL0     H99581   8.772   6.517   2.168 -3.9847 -1.2310  0.8681
  722MOL0     H99582   8.684   6.540   2.311 -1.0445  0.7115 -0.0432
  722MOL0     H99583   8.922   6.721   2.327  1.0482 -0.3025 -0.0098
  722MOL0     H99584   8.888   6.566   2.415 -0.9718 -2.3329 -1.1653
  722MOL0     H99585   9.081   6.740   2.132  2.1020  0.5952  1.1995
  722MOL0     H99586   9.362   6.530   2.045  0.3715 -2.3588 -2.4663
  722MOL0     H99587   9.277   6.680   1.992  2.1161  0.2890  2.6752
  722MOL0     H99588   9.358   6.498   1.825  1.1641 -2.2749  1.5395
  722MOL0     H99589   9.220   6.396   1.886  1.5406 -0.8231 -0.7814
  722MOL0     H99590   9.060   6.525   1.798  0.6849  1.2738  2.1120
  722MOL0     H99591   9.143   6.677   1.757 -0.5518  0.8249 -2.2205
  722MOL0     H99592   9.295   6.532   1.586 -0.8215  1.0310 -1.1157
  722MOL0     H99593   9.183   6.411   1.618  3.8253 -0.3220 -0.7747
  722MOL0     H99594   8.966   6.363   1.607 -2.3079 -0.0127 -0.1280
  722MOL0     H99595   8.656   6.225   1.545 -0.5167 -0.2234 -1.3991
  722MOL0     H99596   8.827   6.199   1.602 -0.5886  1.6792  1.4439
  722MOL0     H99597   8.787   6.149   1.436 -3.2645  1.9880 -2.8761
  722MOL0     H99598   8.322   6.382   1.398 -2.2857  1.4669  0.8010
  722MOL0     H99599   8.107   6.312   1.342 -0.9536 -1.2334 -2.5179
  722MOL0     H99600   7.976   6.172   1.060 -2.8994 -0.9490 -0.8291
  722MOL0     H99601   7.930   6.202   1.228  0.2585  2.1128  1.4143
  722MOL0     H99602   7.776   6.324   0.997 -0.6037  0.1060 -0.1867
  722MOL0     H99603   7.735   6.150   1.035  0.3242  0.6916 -1.7083
  722MOL0     H99604   7.700   6.389   1.200  2.3731 -0.9438  0.3584
  722MOL0     H99605   7.697   6.232   1.278 -2.3759 -0.1964  1.4068
  722MOL0     H99606   7.494   6.166   1.133  0.0105  0.4114 -0.3529
  722MOL0     H99607   7.513   6.321   1.045  1.9285  1.2943 -0.7069
  722MOL0     H99608   7.340   6.282   1.234  0.9731 -1.4434  2.0813
  722MOL0     H99609   7.475   6.299   1.340  1.1007  2.2297  0.4239
  722MOL0     H99610   7.512   6.541   1.269 -0.4126 -1.7186  3.8688
  722MOL0     H99611   7.340   6.526   1.302  0.1289  2.8576  0.3737
  722MOL0     H99612   7.276   6.515   1.067 -2.4765  0.9187  4.9449
  722MOL0     H99613   7.450   6.507   1.023  0.8708 -1.5351  1.0065
  722MOL0     H99614   7.479   6.727   1.136  0.2042  1.4295 -0.9991
  722MOL0     H99615   7.315   6.738   1.198  3.4561  2.9824  0.5544
  722MOL0     H99616   8.160   6.462   0.944 -1.3111  0.6782  0.2082
  722MOL0     H99617   8.408   6.486   0.987  0.8807 -2.6514  0.0612
  722MOL0     H99618   8.737   6.612   1.239  0.0112  0.7709  0.5987
  722MOL0     H99619   8.957   6.705   1.352 -0.6740  2.2639  3.3790
  722MOL0     H99620   7.943   7.041   2.120  2.5214 -1.5768 -1.6216
  722MOL0     H99621   7.725   6.924   2.168  0.2569  0.6638 -1.3322
  722MOL0     H99622   7.485   6.668   2.387  3.8606 -1.5810 -0.2798
  722MOL0     H99623   7.264   6.616   2.430  1.4689  2.3923 -0.3807
  722MOL0     H99624   7.019   6.505   2.117 -1.6519  2.1201  1.5250
  722MOL0     H99625   7.061   6.335   2.170  1.4645 -0.5815  1.8995
  722MOL0     H99626   6.839   6.522   2.292 -0.5628 -0.7351  0.3764
  722MOL0     H99627   6.871   6.360   2.347 -3.0072  1.9248  1.1403
  722MOL0     H99628   6.777   6.441   2.062  2.1652  0.4364 -0.8974
  722MOL0     H99629   6.792   6.278   2.118 -1.6361  0.4345  2.4406
  722MOL0     H99630   6.633   6.340   2.314 -0.2528 -3.1609 -1.7037
  722MOL0     H99631   6.562   6.303   2.155  0.5843 -0.0331 -1.2978
  722MOL0     H99632   6.463   6.706   2.226 -1.0740 -0.7669 -0.3869
  722MOL0     H99633   7.224   6.440   2.057 -2.6354  1.2973  2.4347
  722MOL0     H99634   7.549   6.416   1.973 -1.4010 -1.2566  2.1206
  722MOL0     H99635   7.398   6.424   1.895 -1.6485  0.4451  0.1835
  722MOL0     H99636   7.509   6.571   1.898  0.0588 -0.2956 -1.6278
  723MOL0     O99637   0.666   2.059   9.528 -0.0188  0.8635 -0.1912
  723MOL0     C99638   0.679   1.933   9.504 -0.1163 -0.6956  0.7806
  723MOL0     O99639   0.793   1.864   9.536  0.2342 -0.2445 -0.0923
  723MOL0     C99640   0.907   1.930   9.562  0.1400 -0.0168 -0.2458
  723MOL0     C99641   0.922   2.003   9.686  0.4482  0.6556 -0.7105
  723MOL0     C99642   1.052   2.059   9.711 -0.1642 -0.0991 -0.3872
  723MOL0     C99643   1.156   2.051   9.616 -0.9550 -0.1111  0.8127
  723MOL0     O99644   1.279   2.115   9.645 -0.1005 -0.0703 -0.0464
  723MOL0     C99645   1.320   2.132   9.781 -0.3275 -0.7423 -0.2542
  723MOL0     C99646   1.474   2.124   9.786 -0.1564  0.3661  0.1210
  723MOL0     C99647   1.528   1.979   9.817  0.6521 -0.4248  1.0028
  723MOL0     C99648   1.677   1.980   9.801 -0.3346  0.1002 -0.7252
  723MOL0     C99649   1.713   1.833   9.813 -0.0317  1.4717 -0.6626
  723MOL0     C99650   1.869   1.809   9.830  0.4532 -0.5206  0.3076
  723MOL0     C99651   1.916   1.775   9.971  0.2914 -0.0771  0.7158
  723MOL0     C99652   2.064   1.735   9.977 -0.0253  1.1541  0.5975
  723MOL0     N99653   2.155   1.842   9.934 -0.3777  0.0905 -0.2509
  723MOL0     C99654   2.190   1.868   9.801  0.3472  0.2838 -0.1053
  723MOL0     C99655   2.267   1.972   9.816 -1.1861 -0.0430  0.2624
  723MOL0     C99656   2.349   2.030   9.705 -0.1642 -0.0980  0.1305
  723MOL0     C99657   2.297   2.165   9.667  0.1895  0.5195 -0.4942
  723MOL0     C99658   2.384   2.217   9.549 -0.0087  0.3113 -0.0159
  723MOL0     C99659   2.332   2.348   9.504 -0.2241 -0.6930 -1.2039
  723MOL0     O99660   2.280   2.443   9.601 -0.2913  0.4815 -0.8786
  723MOL0     C99661   2.360   2.527   9.668  0.4000 -0.1420 -0.1554
  723MOL0     C99662   2.301   2.588   9.778 -0.7022  0.4021 -0.1894
  723MOL0     C99663   2.363   2.667   9.872  0.1774  0.7503 -0.3801
  723MOL0     C99664   2.279   2.727   9.990  0.0012  0.6417  0.1089
  723MOL0     C99665   2.504   2.696   9.852 -1.3164 -0.6694  0.4592
  723MOL0     C99666   2.592   2.775   9.941  0.0566  0.3477  0.1354
  723MOL0     O99667   2.732   2.780   9.917  0.1304 -0.5156  0.5601
  723MOL0     C99668   2.813   2.828  10.015  0.8110 -0.0981 -0.0772
  723MOL0     C99669   2.794   2.955  10.071  0.6621  0.3795  0.3430
  723MOL0     C99670   2.886   3.024  10.147  1.1639  0.4458  0.2709
  723MOL0     C99671   3.007   2.966  10.166  0.4838  0.3308 -0.4779
  723MOL0     O99672   3.106   3.040  10.235 -0.2286 -0.1726 -0.7643
  723MOL0     C99673   3.241   3.010  10.212 -0.4850  0.0276 -0.6213
  723MOL0     C99674   3.345   3.124  10.237  0.7623  0.2594  0.1381
  723MOL0     C99675   3.318   3.190  10.378 -0.2212  0.3048  0.7442
  723MOL0     C99676   3.381   3.335  10.399 -0.1570  0.4898  0.3248
  723MOL0     C99677   3.536   3.351  10.383 -0.5403  0.2780 -0.5087
  723MOL0     C99678   3.588   3.479  10.448 -0.4824 -0.4647  0.6534
  723MOL0     C99679   3.737   3.488  10.434  0.5241  0.5063 -0.6018
  723MOL0     C99680   3.791   3.602  10.522  0.0358 -0.0572  0.2246
  723MOL0    Cl99681   3.807   3.558  10.697  0.4822 -0.0121  0.2382
  723MOL0     C99682   3.038   2.840  10.118 -0.0859  0.3852 -0.1316
  723MOL0     C99683   2.936   2.768  10.047 -0.5385 -0.4206  0.1370
  723MOL0     O99684   2.535   2.842  10.029 -0.2541 -0.9160  0.4989
  723MOL0     C99685   2.566   2.643   9.735  0.2806 -1.4272  0.2390
  723MOL0     C99686   2.493   2.561   9.650  0.5184  0.4426  0.4054
  723MOL0     N99687   2.275   2.017   9.945 -0.2402  0.3786  0.0208
  723MOL0     N99688   2.208   1.932  10.015 -0.5619  0.2766  0.6615
  723MOL0     C99689   1.132   1.989   9.494 -0.1479  0.5349  0.4119
  723MOL0     C99690   1.012   1.924   9.464 -0.2307 -0.5886 -0.5912
  723MOL0     C99691   0.562   1.857   9.446 -0.0870  0.1580 -0.5924
  723MOL0     C99692   0.490   1.908   9.345 -0.0091 -0.5564  0.4710
  723MOL0     C99693   0.383   1.842   9.293  0.0126 -0.0729  0.8374
  723MOL0     C99694   0.329   1.725   9.345 -0.2205  0.4608  0.2034
  723MOL0     O99695   0.211   1.661   9.291 -0.8292 -0.4236 -0.5466
  723MOL0     C99696   0.144   1.550   9.354  0.0164  0.3813 -0.1490
  723MOL0     C99697   0.010   1.516   9.291 -0.0130 -0.5340 -0.1059
  723MOL0     C99698  -0.103   1.620   9.308 -0.1255  0.3424  0.8054
  723MOL0     C99699  -0.244   1.562   9.284  0.2987  0.4362  0.0130
  723MOL0     C99700  -0.292   1.479   9.392 -0.2916  1.0817 -0.5768
  723MOL0     C99701  -0.344   1.404   9.466 -0.2839 -0.0822 -0.3013
  723MOL0     C99702   0.403   1.668   9.451 -0.6319 -0.6204  0.5836
  723MOL0     C99703   0.523   1.725   9.492  0.8513 -0.2002  0.0869
  723MOL0     C99704   0.609   1.636   9.577 -0.0244 -0.6260  1.1451
  723MOL0     H99705   0.847   2.001   9.765 -1.1755 -0.9461 -2.1930
  723MOL0     H99706   1.079   2.120   9.796 -0.0584  0.7385 -1.0066
  723MOL0     H99707   1.276   2.055   9.846 -2.0832 -0.4656 -1.0494
  723MOL0     H99708   1.285   2.224   9.828  0.9253 -0.1471 -0.4590
  723MOL0     H99709   1.501   2.167   9.689  1.3139 -0.4649  0.1263
  723MOL0     H99710   1.521   2.184   9.865 -0.8857  1.3500 -0.1770
  723MOL0     H99711   1.498   1.959   9.920  1.7698 -0.3223  1.3569
  723MOL0     H99712   1.483   1.910   9.744  0.2113  2.6289 -1.8299
  723MOL0     H99713   1.711   2.023   9.707  1.0936 -1.0276 -0.7600
  723MOL0     H99714   1.730   2.031   9.883 -0.0344  0.6511 -1.2534
  723MOL0     H99715   1.689   1.774   9.724 -0.6559  0.2502  0.2888
  723MOL0     H99716   1.671   1.786   9.902 -2.4575  3.5255 -0.6172
  723MOL0     H99717   1.890   1.722   9.767 -1.9312 -0.4603 -0.6480
  723MOL0     H99718   1.921   1.897   9.791 -0.2972 -0.1783  0.0824
  723MOL0     H99719   1.851   1.697  10.012 -0.2046  0.8108  1.6574
  723MOL0     H99720   1.905   1.865  10.032  0.4123  1.3169 -1.2055
  723MOL0     H99721   2.100   1.702  10.075  1.5410  1.6638  0.2179
  723MOL0     H99722   2.075   1.648   9.912  1.1914  0.8657  1.1551
  723MOL0     H99723   2.163   1.821   9.706  3.4424 -1.8660 -0.0793
  723MOL0     H99724   2.360   1.968   9.615 -0.0371  5.0060 -3.8645
  723MOL0     H99725   2.449   2.034   9.748  0.7487 -2.7113 -1.4788
  723MOL0     H99726   2.193   2.141   9.643  0.4843 -1.4832  0.0635
  723MOL0     H99727   2.299   2.230   9.756 -1.3648 -1.7873  1.3429
  723MOL0     H99728   2.488   2.227   9.580 -0.5083  0.5566  1.7002
  723MOL0     H99729   2.376   2.150   9.462 -3.2840  1.3364 -0.6853
  723MOL0     H99730   2.400   2.393   9.432  0.4281  0.7985  0.2746
  723MOL0     H99731   2.246   2.330   9.439 -0.0748 -0.6854 -1.4036
  723MOL0     H99732   2.205   2.549   9.811 -0.8189 -1.0072 -2.0664
  723MOL0     H99733   2.325   2.717  10.089  1.1097  0.4861 -0.4044
  723MOL0     H99734   2.189   2.665   9.989  1.8098 -2.1781 -1.5728
  723MOL0     H99735   2.250   2.831   9.974  0.8474  0.4679 -3.2697
  723MOL0     H99736   2.699   3.004  10.047  0.6527 -0.4314 -1.4821
  723MOL0     H99737   2.860   3.124  10.180 -1.2901  0.5798 -1.7285
  723MOL0     H99738   3.282   2.929  10.274  0.7742 -0.0478 -1.5050
  723MOL0     H99739   3.252   2.972  10.110 -0.5738 -1.5167 -0.0848
  723MOL0     H99740   3.447   3.084  10.231  1.6937  2.1737  1.7317
  723MOL0     H99741   3.338   3.211  10.171 -2.2068  0.8974  1.1215
  723MOL0     H99742   3.339   3.113  10.453 -0.5989  1.2515  1.8357
  723MOL0     H99743   3.210   3.209  10.383  0.2314  2.9140  2.3900
  723MOL0     H99744   3.349   3.367  10.499  1.4730  0.6462  0.8326
  723MOL0     H99745   3.328   3.395  10.325  0.0410 -1.6633 -1.6455
  723MOL0     H99746   3.585   3.262  10.424  2.1033  1.9195  0.1506
  723MOL0     H99747   3.567   3.353  10.278 -1.0727  2.4623 -0.6676
  723MOL0     H99748   3.566   3.477  10.555 -0.7309  2.8421  0.7751
  723MOL0     H99749   3.539   3.566  10.401 -0.2536 -0.7713 -0.1691
  723MOL0     H99750   3.764   3.505  10.330 -0.9901 -0.9304 -1.2803
  723MOL0     H99751   3.786   3.396  10.466  0.0305  0.4001 -0.1292
  723MOL0     H99752   3.730   3.691  10.504 -3.3294 -1.7606  2.1432
  723MOL0     H99753   3.889   3.631  10.483 -0.4922 -0.8663 -1.8497
  723MOL0     H99754   3.129   2.786  10.139  0.2331  1.4352  1.2996
  723MOL0     H99755   2.963   2.665  10.022  0.7726 -0.8815  3.0537
  723MOL0     H99756   2.668   2.668   9.708  0.4483 -1.3508  0.9368
  723MOL0     H99757   2.552   2.509   9.574 -0.8209 -0.6063  0.0519
  723MOL0     H99758   1.223   1.986   9.435 -0.8577  1.2467 -0.7585
  723MOL0     H99759   0.992   1.865   9.375 -1.7890  1.6680 -1.8471
  723MOL0     H99760   0.511   2.001   9.294 -1.6066 -1.2750 -1.6002
  723MOL0     H99761   0.330   1.878   9.205 -0.4583  1.8859  1.8715
  723MOL0     H99762   0.204   1.461   9.375  0.8289  0.7105 -1.0176
  723MOL0     H99763   0.103   1.569   9.454 -1.9268 -3.3961 -0.0537
  723MOL0     H99764  -0.020   1.418   9.331 -0.3395 -0.3521  0.0986
  723MOL0     H99765   0.034   1.497   9.186 -2.7617 -1.7622 -0.6066
  723MOL0     H99766  -0.097   1.666   9.407 -1.5768  1.4500  0.4198
  723MOL0     H99767  -0.080   1.696   9.233  0.5802  1.2838  1.9522
  723MOL0     H99768  -0.252   1.509   9.189 -3.4991  1.2802 -0.2909
  723MOL0     H99769  -0.315   1.645   9.281  1.2832  1.3462  0.9863
  723MOL0     H99770  -0.393   1.343   9.539  0.6799 -1.3031 -0.6389
  723MOL0     H99771   0.381   1.568   9.488 -0.3289 -1.5844 -1.6535
  723MOL0     H99772   0.632   1.698   9.665 -0.3216 -0.2249  0.9449
  723MOL0     H99773   0.570   1.536   9.602 -1.0461  0.0218  2.3206
  723MOL0     H99774   0.703   1.608   9.531  0.9576  1.2252  1.9361
  724MOL0     O99775   0.006   6.439  11.233  0.2205  0.2260  0.1030
  724MOL0     C99776  -0.020   6.545  11.177 -0.1368  0.1700 -0.3902
  724MOL0     O99777  -0.142   6.611  11.183  0.5276 -0.3562  0.6642
  724MOL0     C99778  -0.260   6.555  11.241  0.0615 -0.1105 -0.4849
  724MOL0     C99779  -0.386   6.611  11.197 -0.1521  0.0587 -0.9290
  724MOL0     C99780  -0.504   6.581  11.268  0.6527  0.2449  0.0424
  724MOL0     C99781  -0.505   6.479  11.362  0.3785 -0.2854 -0.0370
  724MOL0     O99782  -0.616   6.432  11.419  0.2417  1.1130  0.3809
  724MOL0     C99783  -0.739   6.496  11.397  1.1118  0.3595 -0.2219
  724MOL0     C99784  -0.843   6.424  11.477 -1.5833 -0.0024  0.2645
  724MOL0     C99785  -0.979   6.488  11.462  0.2239  0.7058 -0.5496
  724MOL0     C99786  -1.091   6.415  11.531 -0.5038  0.0521  0.7996
  724MOL0     C99787  -1.068   6.318  11.649  0.1552  0.0151  0.3608
  724MOL0     C99788  -1.198   6.239  11.672 -0.3082 -0.3184 -0.2365
  724MOL0     C99789  -1.186   6.166  11.806 -0.1466 -0.7694 -0.6033
  724MOL0     C99790  -1.154   6.018  11.771 -0.6854  0.3896 -0.0285
  724MOL0     N99791  -1.142   5.930  11.890 -0.2913 -0.0698  0.1901
  724MOL0     C99792  -1.033   5.930  11.976 -0.1763  0.9257 -0.2769
  724MOL0     C99793  -1.048   5.815  12.054  0.5104 -0.5046 -0.3067
  724MOL0     C99794  -0.958   5.777  12.167  0.5502  0.2411  1.1795
  724MOL0     C99795  -0.855   5.671  12.135  0.6607  0.9000  0.4796
  724MOL0     C99796  -0.724   5.738  12.107 -0.6720  0.5267 -0.4400
  724MOL0     C99797  -0.616   5.640  12.063  0.1606 -0.0398  0.5485
  724MOL0     O99798  -0.502   5.727  12.053 -0.3098  0.0115  1.0821
  724MOL0     C99799  -0.383   5.673  12.010 -0.6541 -0.4068 -0.2990
  724MOL0     C99800  -0.264   5.749  11.989 -0.3183  0.3540  0.0441
  724MOL0     C99801  -0.139   5.688  11.975 -0.2799  1.1208  0.0963
  724MOL0     C99802  -0.022   5.784  11.959 -0.5090  0.3378  0.5729
  724MOL0     C99803  -0.127   5.547  11.964  0.6924 -0.4010 -0.4955
  724MOL0     C99804  -0.000   5.474  11.934 -0.3922  0.0369  0.2777
  724MOL0     O99805   0.013   5.341  11.977  0.8818 -0.2375  0.0853
  724MOL0     C99806   0.106   5.269  11.914  0.0077 -0.8392  0.3382
  724MOL0     C99807   0.228   5.228  11.974 -0.3476 -0.0194 -0.4082
  724MOL0     C99808   0.332   5.163  11.905  0.7555 -0.5308 -0.6942
  724MOL0     C99809   0.312   5.127  11.776  0.2538  1.0920  0.2158
  724MOL0     O99810   0.424   5.076  11.716  1.0093  0.0912  0.4997
  724MOL0     C99811   0.410   4.965  11.626  0.5776  0.8594 -1.2285
  724MOL0     C99812   0.549   4.928  11.566  1.0099 -0.2210  0.5799
  724MOL0     C99813   0.648   4.865  11.657  0.4941 -0.3198  0.1515
  724MOL0     C99814   0.780   4.840  11.580 -1.5678  0.1194 -0.2194
  724MOL0     C99815   0.853   4.705  11.608 -0.0243 -0.5975 -1.4305
  724MOL0     C99816   0.991   4.687  11.548  0.1655 -0.0461 -0.5601
  724MOL0     C99817   1.067   4.558  11.603 -0.4763  0.2632 -0.0241
  724MOL0     C99818   1.189   4.527  11.516 -0.1556  0.8981  0.5020
  724MOL0    Cl99819   1.145   4.520  11.343  0.2077 -0.2325  0.2204
  724MOL0     C99820   0.189   5.152  11.712 -0.6366 -1.0852 -0.1325
  724MOL0     C99821   0.091   5.218  11.787 -0.3740 -0.1201 -0.0624
  724MOL0     O99822   0.078   5.527  11.859 -0.2779 -0.6513 -0.8563
  724MOL0     C99823  -0.242   5.471  11.970 -0.2357 -0.2407 -0.1882
  724MOL0     C99824  -0.371   5.532  12.010 -0.0895  0.5455  0.8219
  724MOL0     N99825  -1.176   5.765  12.017  0.2920  0.3364 -0.0021
  724MOL0     N99826  -1.229   5.838  11.919  0.5520  0.6054  0.4195
  724MOL0     C99827  -0.390   6.419  11.400  0.2314  0.3767  0.0560
  724MOL0     C99828  -0.269   6.463  11.343 -0.1284  0.3606  0.8629
  724MOL0     C99829   0.090   6.611  11.102 -0.2291 -0.3647  0.1711
  724MOL0     C99830   0.228   6.580  11.135 -0.4217 -0.3469  0.6639
  724MOL0     C99831   0.337   6.639  11.069 -0.5296  0.6750  0.1074
  724MOL0     C99832   0.314   6.738  10.974  0.9022 -0.6263  0.3522
  724MOL0     O99833   0.425   6.795  10.912  0.6171  0.2088 -0.2763
  724MOL0     C99834   0.396   6.910  10.832 -1.4881  0.9550  0.5503
  724MOL0     C99835   0.520   6.979  10.792  0.1282 -0.1789 -0.1146
  724MOL0     C99836   0.484   7.112  10.723  0.0833  0.4399 -0.2728
  724MOL0     C99837   0.618   7.176  10.701 -0.0826  0.1520 -0.0089
  724MOL0     C99838   0.611   7.307  10.638  0.7203  0.3604 -0.3425
  724MOL0     C99839   0.606   7.413  10.570 -0.2036  0.8307 -0.4276
  724MOL0     C99840   0.185   6.766  10.947 -0.2806  0.0883  0.1831
  724MOL0     C99841   0.070   6.700  11.001  0.5969  0.8245 -0.3107
  724MOL0     C99842  -0.067   6.745  10.943 -0.2574  0.3297 -0.2179
  724MOL0     H99843  -0.375   6.689  11.122  0.3723 -0.4772 -1.4173
  724MOL0     H99844  -0.593   6.641  11.252 -0.7080 -0.8766  2.8175
  724MOL0     H99845  -0.770   6.500  11.292  0.2435  2.0108  0.0681
  724MOL0     H99846  -0.748   6.603  11.419  1.4093  0.3313  0.0487
  724MOL0     H99847  -0.853   6.323  11.436  1.8591  0.2926 -1.7350
  724MOL0     H99848  -0.825   6.419  11.585 -0.8592  0.4665  0.1747
  724MOL0     H99849  -0.964   6.593  11.487 -0.5798  0.9850 -1.1982
  724MOL0     H99850  -0.995   6.471  11.355  3.4440  1.1993 -1.2098
  724MOL0     H99851  -1.155   6.496  11.568  0.9265  0.6348  2.1096
  724MOL0     H99852  -1.138   6.357  11.451 -1.9663  1.4255  0.6044
  724MOL0     H99853  -1.037   6.377  11.737 -0.5921 -0.9251  1.2820
  724MOL0     H99854  -0.987   6.245  11.639  1.6116  1.6582 -0.3685
  724MOL0     H99855  -1.290   6.298  11.682 -1.4017 -1.9101 -0.6123
  724MOL0     H99856  -1.219   6.178  11.584 -0.2203 -0.8268  0.0901
  724MOL0     H99857  -1.277   6.176  11.866 -1.8591  1.0406 -3.2939
  724MOL0     H99858  -1.111   6.225  11.859  1.8606  0.1345 -4.1788
  724MOL0     H99859  -1.243   5.984  11.718 -0.5599  0.8763 -0.5535
  724MOL0     H99860  -1.074   6.018  11.697 -1.3692  0.2171 -0.7727
  724MOL0     H99861  -0.949   5.998  11.982 -0.9876  1.9119  0.2566
  724MOL0     H99862  -1.023   5.736  12.245  1.6234 -0.4110  1.7566
  724MOL0     H99863  -0.906   5.862  12.211  2.8832 -1.4217  1.7863
  724MOL0     H99864  -0.838   5.615  12.227  0.6512  3.9152  2.4310
  724MOL0     H99865  -0.873   5.607  12.048  3.1051 -0.3333  0.7848
  724MOL0     H99866  -0.734   5.824  12.040  0.3284  1.4471  0.5295
  724MOL0     H99867  -0.681   5.775  12.201  1.4364 -0.7586 -0.8360
  724MOL0     H99868  -0.597   5.560  12.135 -3.3004 -2.1312 -0.6451
  724MOL0     H99869  -0.637   5.590  11.968  5.1687 -1.5606 -0.0567
  724MOL0     H99870  -0.282   5.856  11.995  3.7254  1.1647  1.0337
  724MOL0     H99871   0.059   5.763  12.028  0.6871  1.3867 -0.4595
  724MOL0     H99872  -0.058   5.886  11.976 -2.8648 -0.3748  0.2729
  724MOL0     H99873   0.020   5.778  11.858 -0.1658  0.1760  0.7283
  724MOL0     H99874   0.237   5.257  12.078 -0.8310 -1.2268 -0.0065
  724MOL0     H99875   0.428   5.146  11.952  0.3278  0.0601  0.4346
  724MOL0     H99876   0.367   4.874  11.669 -0.0405  1.7711  0.1425
  724MOL0     H99877   0.347   4.992  11.541 -0.2186  0.4841 -0.7704
  724MOL0     H99878   0.530   4.864  11.479  0.4515  0.4056  0.2278
  724MOL0     H99879   0.584   5.024  11.526 -3.5170  1.7417  0.6908
  724MOL0     H99880   0.617   4.764  11.685  1.9127 -1.7007 -2.7545
  724MOL0     H99881   0.672   4.927  11.744  1.4767 -0.7388  0.1983
  724MOL0     H99882   0.847   4.923  11.604 -0.8477 -0.7736  1.0803
  724MOL0     H99883   0.776   4.837  11.471  4.8502 -0.1174 -0.8627
  724MOL0     H99884   0.856   4.691  11.716 -0.6711 -3.5713 -1.7078
  724MOL0     H99885   0.793   4.621  11.572  2.4430 -3.1525 -0.0436
  724MOL0     H99886   1.054   4.776  11.552 -1.9253  1.5809 -1.3255
  724MOL0     H99887   0.973   4.688  11.440 -1.4582  3.1574 -0.3912
  724MOL0     H99888   1.001   4.472  11.588 -1.4120  0.9597 -0.0112
  724MOL0     H99889   1.095   4.570  11.708  0.2267  1.3381 -0.3112
  724MOL0     H99890   1.225   4.426  11.537 -1.5348  0.3026  0.1184
  724MOL0     H99891   1.266   4.603  11.534  0.1830  0.4086  1.1575
  724MOL0     H99892   0.167   5.119  11.611  0.3135 -1.1743 -0.3248
  724MOL0     H99893  -0.007   5.234  11.745 -1.0020 -0.7131  1.1227
  724MOL0     H99894  -0.243   5.362  11.963 -1.0063 -0.1884 -1.2622
  724MOL0     H99895  -0.455   5.463  12.008 -1.2267  1.8926  0.7745
  724MOL0     H99896  -0.393   6.343  11.477  1.8749 -2.2791 -2.3088
  724MOL0     H99897  -0.177   6.421  11.381  0.9446 -2.3271 -3.9232
  724MOL0     H99898   0.238   6.501  11.209 -0.9157 -0.5015  0.5676
  724MOL0     H99899   0.438   6.608  11.094 -0.9287 -2.4403 -1.6195
  724MOL0     H99900   0.338   6.880  10.744 -1.0350  0.7238  0.3223
  724MOL0     H99901   0.347   6.979  10.901  1.7717  0.0928  4.0558
  724MOL0     H99902   0.573   6.914  10.721 -1.9124 -3.9703  1.5521
  724MOL0     H99903   0.577   6.996  10.884 -2.1521  3.1439  0.8574
  724MOL0     H99904   0.431   7.088  10.630 -2.7079 -0.1166  1.3520
  724MOL0     H99905   0.426   7.177  10.789  0.9827 -0.0150  1.0020
  724MOL0     H99906   0.672   7.115  10.628 -1.3490 -0.9102 -0.0969
  724MOL0     H99907   0.670   7.191  10.796 -0.6645  0.5705  0.2483
  724MOL0     H99908   0.618   7.508  10.522 -0.3921  0.5086 -1.1249
  724MOL0     H99909   0.171   6.838  10.867  0.7171 -1.1637 -1.1585
  724MOL0     H99910  -0.045   6.766  10.838 -0.0940 -2.6232 -0.8634
  724MOL0     H99911  -0.140   6.664  10.941  1.0997 -0.9843  0.9251
  724MOL0     H99912  -0.101   6.843  10.980  2.3531  2.3125 -2.5930
  725MOL0     O99913   4.586   7.335   8.202 -0.9418  0.5829 -0.3431
  725MOL0     C99914   4.681   7.267   8.245 -0.3904  0.0483  0.0052
  725MOL0     O99915   4.781   7.321   8.320  0.3554  0.5424 -0.3166
  725MOL0     C99916   4.780   7.453   8.346 -0.0364 -0.2301  0.3670
  725MOL0     C99917   4.792   7.494   8.480 -0.0146  0.0520 -0.2458
  725MOL0     C99918   4.780   7.623   8.520 -1.0954  0.4282 -0.3298
  725MOL0     C99919   4.780   7.721   8.430  0.3677  0.3245  0.3122
  725MOL0     O99920   4.790   7.855   8.452 -0.5169  0.5176  0.0932
  725MOL0     C99921   4.664   7.935   8.425  0.0807 -0.2802 -0.6087
  725MOL0     C99922   4.656   8.074   8.497  0.0359 -0.0573  0.0112
  725MOL0     C99923   4.508   8.119   8.524  0.0566  0.7805 -0.1839
  725MOL0     C99924   4.507   8.247   8.597  0.0305  0.0549 -0.0348
  725MOL0     C99925   4.385   8.271   8.687  0.4265  0.1619  0.1496
  725MOL0     C99926   4.398   8.392   8.777 -0.1942 -0.5586  0.6958
  725MOL0     C99927   4.263   8.424   8.830  0.2879  0.3847 -0.0960
  725MOL0     C99928   4.256   8.553   8.906 -0.6218 -0.0208 -0.8213
  725MOL0     N99929   4.345   8.554   9.020  1.2295  0.5869 -0.0329
  725MOL0     C99930   4.474   8.584   9.010 -0.0206  0.0733  0.7433
  725MOL0     C99931   4.521   8.615   9.137  0.5712  0.1234 -0.0728
  725MOL0     C99932   4.661   8.655   9.180 -0.4419 -0.7563 -0.1660
  725MOL0     C99933   4.705   8.785   9.130  0.0971 -0.5929  0.2542
  725MOL0     C99934   4.820   8.789   9.027  0.0847  0.6791 -0.3806
  725MOL0     C99935   4.963   8.797   9.088 -0.1765  0.3465 -0.3973
  725MOL0     O99936   4.984   8.693   9.178  0.5399 -0.7369  0.2313
  725MOL0     C99937   5.117   8.666   9.221  0.4010 -0.9935 -0.5851
  725MOL0     C99938   5.224   8.751   9.212 -0.0434  0.5231  0.2996
  725MOL0     C99939   5.343   8.721   9.263 -0.4078 -0.0251 -0.7972
  725MOL0     C99940   5.457   8.822   9.247  0.3461  0.1370  0.5436
  725MOL0     C99941   5.362   8.594   9.322 -0.2923  0.6378 -0.5777
  725MOL0     C99942   5.496   8.547   9.363 -1.1027 -0.4103 -0.4623
  725MOL0     O99943   5.573   8.636   9.430  0.6881 -0.1429 -0.1742
  725MOL0     C99944   5.683   8.584   9.483  0.7484 -0.2777 -0.7510
  725MOL0     C99945   5.796   8.570   9.397 -0.0082 -0.1987  0.4963
  725MOL0     C99946   5.912   8.534   9.461 -0.0666 -0.0284  0.0333
  725MOL0     C99947   5.918   8.492   9.591 -0.7536  0.1870 -0.7331
  725MOL0     O99948   6.033   8.445   9.645  1.0238  0.0608  0.3367
  725MOL0     C99949   6.162   8.470   9.579  0.4842  0.6700  0.5746
  725MOL0     C99950   6.280   8.425   9.665  0.6507 -0.5488  0.0123
  725MOL0     C99951   6.401   8.447   9.574  0.6664 -0.6672  0.2183
  725MOL0     C99952   6.539   8.418   9.627  0.2983  1.0792 -0.7906
  725MOL0     C99953   6.647   8.465   9.531 -0.6198  0.1663  0.3203
  725MOL0     C99954   6.788   8.427   9.572  0.0775  0.9829 -0.3991
  725MOL0     C99955   6.834   8.507   9.702 -0.5321  0.5804  0.4852
  725MOL0     C99956   6.980   8.492   9.719 -0.1644  0.5967  0.5060
  725MOL0    Cl99957   7.074   8.584   9.591  0.0597  0.3651  0.1355
  725MOL0     C99958   5.810   8.502   9.670 -0.7143  0.5395 -0.8540
  725MOL0     C99959   5.689   8.554   9.621  0.7762  0.2583  0.1335
  725MOL0     O99960   5.511   8.429   9.354 -0.0896 -0.4214 -0.2762
  725MOL0     C99961   5.255   8.501   9.330  1.1028 -0.4730 -0.0314
  725MOL0     C99962   5.135   8.538   9.272 -0.0675 -1.0260 -0.1188
  725MOL0     N99963   4.413   8.570   9.217  0.4436 -0.5100  0.3660
  725MOL0     N99964   4.312   8.534   9.146 -0.2650 -0.1409 -0.1477
  725MOL0     C99965   4.795   7.693   8.289  0.4526  0.1508 -1.0928
  725MOL0     C99966   4.801   7.555   8.246 -0.8630 -0.0795 -0.1493
  725MOL0     C99967   4.702   7.130   8.189 -0.5981  0.1002  0.1694
  725MOL0     C99968   4.598   7.073   8.117 -0.6398 -0.2004  0.2872
  725MOL0     C99969   4.615   6.964   8.032  0.4866  1.1564 -0.3904
  725MOL0     C99970   4.741   6.896   8.013  0.3124  0.2495  0.7164
  725MOL0     O99971   4.752   6.773   7.945  0.2980  0.0145  0.1460
  725MOL0     C99972   4.711   6.777   7.806  0.2562  0.6502 -0.7681
  725MOL0     C99973   4.807   6.856   7.714  0.5492 -0.6552  0.7593
  725MOL0     C99974   4.909   6.766   7.631  0.4138 -0.8563  0.6638
  725MOL0     C99975   4.991   6.690   7.724  0.6311 -0.6918 -0.4006
  725MOL0     C99976   5.085   6.769   7.810 -1.6318  0.2746 -0.1511
  725MOL0     C99977   5.171   6.814   7.883 -0.0016  0.0973  0.3883
  725MOL0     C99978   4.835   6.940   8.108  0.0140 -0.3665  0.6772
  725MOL0     C99979   4.822   7.056   8.184  0.1167 -0.4175  0.8087
  725MOL0     C99980   4.943   7.084   8.279  0.3995 -0.9024  1.5315
  725MOL0     H99981   4.820   7.407   8.538  2.1703 -0.5855 -2.0961
  725MOL0     H99982   4.792   7.661   8.620 -0.1579  0.0647 -0.2939
  725MOL0     H99983   4.583   7.872   8.463  1.4329 -1.9939 -0.4323
  725MOL0     H99984   4.653   7.951   8.318 -0.1619  1.4406 -0.3459
  725MOL0     H99985   4.706   8.065   8.594  0.4780 -1.1170 -0.3032
  725MOL0     H99986   4.711   8.137   8.426 -2.0078  1.7754 -0.0450
  725MOL0     H99987   4.454   8.136   8.430  1.0748 -1.7530 -1.3365
  725MOL0     H99988   4.464   8.039   8.585  2.8412 -2.1900 -1.7365
  725MOL0     H99989   4.588   8.257   8.669  1.2750 -1.1083 -1.2267
  725MOL0     H99990   4.527   8.325   8.522  0.1631 -0.6034 -0.6991
  725MOL0     H99991   4.357   8.187   8.750  0.1390  0.3083  0.2187
  725MOL0     H99992   4.301   8.284   8.617  0.4032  0.8721  0.3079
  725MOL0     H99993   4.466   8.369   8.860  1.2137 -0.6033 -0.4486
  725MOL0     H99994   4.440   8.478   8.725  0.6736 -1.7918 -0.7143
  725MOL0     H99995   4.230   8.333   8.882 -0.2292  1.2342  1.0969
  725MOL0     H99996   4.193   8.436   8.747  1.7376 -0.4628 -1.5075
  725MOL0     H99997   4.276   8.636   8.837  2.8503  0.7511  0.9302
  725MOL0     H99998   4.154   8.555   8.945  0.4157  4.0076  2.3105
  725MOL0     H99999   4.533   8.602   8.921 -1.3540  2.2976  0.2264
  725MOL0     H    0   4.730   8.580   9.142  2.3668  1.0952  0.9825
  725MOL0     H    1   4.669   8.655   9.289 -0.2764  0.9604 -0.1624
  725MOL0     H    2   4.619   8.828   9.078  2.8020  0.6534 -3.6682
  725MOL0     H    3   4.755   8.836   9.213 -0.3909  0.4301 -0.0738
  725MOL0     H    4   4.832   8.704   8.960 -0.6734  1.5838 -1.7126
  725MOL0     H    5   4.799   8.875   8.962  0.2161  2.6190  1.9853
  725MOL0     H    6   5.030   8.787   9.002 -1.5366 -1.7182 -1.2947
  725MOL0     H    7   4.970   8.895   9.135 -1.4505 -0.0286  0.6321
  725MOL0     H    8   5.197   8.843   9.162 -0.7597  0.9143  1.3787
  725MOL0     H    9   5.560   8.788   9.234  1.9463  2.6046  4.7619
  725MOL0     H   10   5.464   8.885   9.336  0.7355  2.4444 -1.0349
  725MOL0     H   11   5.431   8.887   9.163 -3.5438  1.2739  2.3796
  725MOL0     H   12   5.787   8.603   9.294  0.3290 -0.7528  0.2827
  725MOL0     H   13   6.008   8.532   9.410  1.3033 -0.2303  2.4789
  725MOL0     H   14   6.173   8.402   9.494  1.3415  1.8549 -0.2829
  725MOL0     H   15   6.186   8.571   9.546  2.0135 -0.3794 -1.7914
  725MOL0     H   16   6.288   8.473   9.762  4.1916 -0.6581 -0.0961
  725MOL0     H   17   6.273   8.317   9.684  1.8233 -0.6556 -0.0589
  725MOL0     H   18   6.397   8.551   9.540 -1.4711 -1.7685 -3.4804
  725MOL0     H   19   6.380   8.382   9.488  0.0109 -0.1090 -0.0523
  725MOL0     H   20   6.550   8.310   9.635  1.0389  1.1336 -1.0356
  725MOL0     H   21   6.550   8.454   9.730  1.4958 -0.7888 -0.2228
  725MOL0     H   22   6.633   8.435   9.427  1.2709 -2.2618  0.6802
  725MOL0     H   23   6.654   8.573   9.546  2.8504 -0.2926  3.3360
  725MOL0     H   24   6.861   8.449   9.493 -0.6438  0.9490 -1.0955
  725MOL0     H   25   6.798   8.319   9.580  0.1365  0.9781 -0.5375
  725MOL0     H   26   6.787   8.479   9.797 -3.0591  1.0431 -0.5694
  725MOL0     H   27   6.812   8.612   9.686 -0.3517  0.4324 -0.8497
  725MOL0     H   28   6.999   8.385   9.728  2.4354  1.0527  1.4310
  725MOL0     H   29   7.007   8.524   9.820 -2.3025 -0.5875  1.5206
  725MOL0     H   30   5.818   8.465   9.772 -2.1050 -2.2163 -1.6410
  725MOL0     H   31   5.603   8.551   9.687  0.8043 -1.0475  0.1311
  725MOL0     H   32   5.265   8.401   9.371  0.8818  0.3211  2.0461
  725MOL0     H   33   5.053   8.467   9.263  0.6782 -2.7719  4.2854
  725MOL0     H   34   4.805   7.774   8.218 -0.3433  1.8442  0.6567
  725MOL0     H   35   4.804   7.535   8.139 -0.8015  2.9712 -0.7926
  725MOL0     H   36   4.501   7.121   8.114 -0.4825  0.1249  0.4042
  725MOL0     H   37   4.533   6.924   7.973  1.9147  0.5532 -2.0674
  725MOL0     H   38   4.699   6.670   7.783 -0.1036 -0.1297  2.5286
  725MOL0     H   39   4.610   6.819   7.800  0.3801  0.8850 -1.2157
  725MOL0     H   40   4.868   6.928   7.769 -0.3115  0.2373  0.5608
  725MOL0     H   41   4.759   6.912   7.634  3.1873 -1.1104 -1.2888
  725MOL0     H   42   4.842   6.701   7.574  2.5860 -2.1079 -0.5679
  725MOL0     H   43   4.972   6.831   7.570  0.9704 -1.6213  0.4127
  725MOL0     H   44   5.052   6.618   7.668 -1.4237 -1.3377 -1.9123
  725MOL0     H   45   4.928   6.630   7.789 -1.7312  2.0866  0.0947
  725MOL0     H   46   5.245   6.846   7.953 -0.9032  1.4221  0.7719
  725MOL0     H   47   4.930   6.889   8.115 -0.3902 -0.9435  3.9296
  725MOL0     H   48   4.991   6.989   8.307  3.1704  0.8276  3.1865
  725MOL0     H   49   5.005   7.164   8.237 -0.8437  0.5759  2.4432
  725MOL0     H   50   4.897   7.124   8.370 -0.7554  0.1979  0.4955
  726MOL0     O   51   0.440  11.316   7.066  0.1776  0.7322  0.0716
  726MOL0     C   52   0.424  11.238   7.162 -0.1088 -0.5519 -0.0315
  726MOL0     O   53   0.516  11.207   7.255 -0.1456  0.4935 -0.1370
  726MOL0     C   54   0.645  11.266   7.254  0.1560 -0.4243  0.8805
  726MOL0     C   55   0.751  11.184   7.281  0.5601  0.7821 -1.2563
  726MOL0     C   56   0.876  11.226   7.313 -0.6449  0.0809  0.2140
  726MOL0     C   57   0.905  11.364   7.297  0.0943  0.6535 -0.5850
  726MOL0     O   58   1.018  11.418   7.350  0.0478  0.2970 -0.4329
  726MOL0     C   59   1.081  11.386   7.475 -0.1612  1.3526 -0.0866
  726MOL0     C   60   0.997  11.411   7.602 -0.5083 -0.0349  0.1082
  726MOL0     C   61   1.062  11.365   7.735 -0.0027  1.0775  0.4240
  726MOL0     C   62   0.966  11.391   7.844  0.0324  0.2498 -0.1366
  726MOL0     C   63   0.995  11.322   7.977  0.5964  0.5638  0.6113
  726MOL0     C   64   1.131  11.337   8.036 -0.7494  0.1682  0.0927
  726MOL0     C   65   1.185  11.477   8.063 -1.4972 -0.6217 -0.0820
  726MOL0     C   66   1.295  11.483   8.168 -0.1286 -1.2820  0.1799
  726MOL0     N   67   1.412  11.394   8.149 -0.5470 -0.1765 -0.4138
  726MOL0     C   68   1.445  11.286   8.212 -0.2248  0.0584  0.2809
  726MOL0     C   69   1.561  11.240   8.163 -0.0158 -0.4850  1.0913
  726MOL0     C   70   1.639  11.133   8.232  0.2550  0.1917  0.4536
  726MOL0     C   71   1.697  11.188   8.365 -1.0061 -0.1949 -0.7434
  726MOL0     C   72   1.760  11.330   8.365  0.4008 -0.1473 -0.3269
  726MOL0     C   73   1.840  11.351   8.491  0.2301 -0.4572  0.8841
  726MOL0     O   74   1.961  11.264   8.473  0.5546 -0.4775  0.0050
  726MOL0     C   75   2.024  11.221   8.583 -0.4581  0.2034 -0.3803
  726MOL0     C   76   2.160  11.215   8.584 -0.1337 -0.1532 -0.2990
  726MOL0     C   77   2.230  11.162   8.687  0.0459  0.6317  0.0386
  726MOL0     C   78   2.385  11.162   8.681 -0.0324  0.8515 -0.4894
  726MOL0     C   79   2.164  11.118   8.806  0.0782  0.9383  0.0666
  726MOL0     C   80   2.230  11.081   8.935 -0.4422 -0.0934  0.6646
  726MOL0     O   81   2.146  11.071   9.040  0.1666 -0.0466  0.4789
  726MOL0     C   82   2.192  11.011   9.146 -0.3763  1.2698 -1.2136
  726MOL0     C   83   2.267  11.076   9.236 -1.1538 -0.3073 -0.1022
  726MOL0     C   84   2.308  11.010   9.352 -0.2404 -0.1817  0.5181
  726MOL0     C   85   2.269  10.876   9.374 -1.1969  0.1550 -0.0815
  726MOL0     O   86   2.312  10.806   9.484 -0.6767  0.4607  0.2207
  726MOL0     C   87   2.436  10.842   9.553  0.0052 -0.2870  0.0407
  726MOL0     C   88   2.493  10.726   9.638  0.1494 -0.2192 -0.3031
  726MOL0     C   89   2.644  10.757   9.677  0.5961 -0.4288 -0.2854
  726MOL0     C   90   2.745  10.698   9.584  0.2644 -0.1884  0.5332
  726MOL0     C   91   2.883  10.728   9.640  0.1065  0.0325  0.5031
  726MOL0     C   92   2.992  10.648   9.557  0.2045 -0.2504  0.2411
  726MOL0     C   93   3.119  10.619   9.640  0.1712  1.0301 -0.5245
  726MOL0     C   94   3.239  10.707   9.605 -0.0302 -0.8022 -0.6744
  726MOL0    Cl   95   3.314  10.648   9.451  0.3166  0.1844 -0.0441
  726MOL0     C   96   2.207  10.807   9.274  0.6192 -0.5258  0.7842
  726MOL0     C   97   2.153  10.875   9.166  0.1691 -0.8612 -0.4044
  726MOL0     O   98   2.347  11.056   8.940 -0.9205 -0.7857  0.3538
  726MOL0     C   99   2.020  11.122   8.809 -0.0109 -0.3656  0.3131
  726MOL0     C  100   1.955  11.179   8.702 -0.4383 -0.1049 -0.2393
  726MOL0     N  101   1.598  11.320   8.062  0.0822  0.7225 -0.2194
  726MOL0     N  102   1.512  11.419   8.058  0.0568  0.4398 -0.1859
  726MOL0     C  103   0.804  11.448   7.246  1.0730  0.3010  0.7031
  726MOL0     C  104   0.675  11.394   7.231  0.1410 -0.3155  0.5187
  726MOL0     C  105   0.294  11.163   7.164 -0.0736  0.7143 -0.7053
  726MOL0     C  106   0.273  11.064   7.267 -0.0813  0.3635  0.5493
  726MOL0     C  107   0.156  10.989   7.266 -0.2252 -0.3798  0.1662
  726MOL0     C  108   0.051  11.008   7.171 -0.1982  0.1652 -0.1860
  726MOL0     O  109  -0.063  10.931   7.182  0.0678  0.2254 -0.2313
  726MOL0     C  110  -0.148  10.917   7.067 -0.6674  0.1790 -0.4972
  726MOL0     C  111  -0.262  10.815   7.070  0.2768 -0.3388 -0.0638
  726MOL0     C  112  -0.335  10.818   7.210 -0.7455 -0.2644  0.2504
  726MOL0     C  113  -0.274  10.725   7.319 -0.2062 -0.8905  0.5443
  726MOL0     C  114  -0.356  10.728   7.448  0.3571 -0.6321 -0.1620
  726MOL0     C  115  -0.425  10.741   7.542 -0.1471  0.1780 -0.2388
  726MOL0     C  116   0.065  11.108   7.072 -0.5498 -0.2648 -0.4025
  726MOL0     C  117   0.190  11.186   7.058 -0.7014  0.0566  0.4233
  726MOL0     C  118   0.199  11.287   6.943  0.1297 -0.2402 -0.3277
  726MOL0     H  119   0.720  11.087   7.319  0.1567  1.6128  0.6965
  726MOL0     H  120   0.954  11.155   7.338  1.5997  2.1145 -0.6165
  726MOL0     H  121   1.167  11.453   7.490  1.6058 -1.2316  2.3217
  726MOL0     H  122   1.119  11.283   7.470  2.7908  2.3790 -1.5795
  726MOL0     H  123   0.972  11.517   7.600 -2.3722 -0.4106 -2.4270
  726MOL0     H  124   0.896  11.367   7.596 -1.3611  1.9479 -4.5260
  726MOL0     H  125   1.087  11.258   7.734  0.0801  1.0915 -1.2222
  726MOL0     H  126   1.150  11.425   7.761 -0.0651  1.2320  0.2758
  726MOL0     H  127   0.952  11.498   7.860  0.2137  0.3458 -0.6090
  726MOL0     H  128   0.867  11.360   7.809  0.0947 -1.6560  1.1768
  726MOL0     H  129   0.989  11.215   7.955 -3.0022  0.6893  0.4216
  726MOL0     H  130   0.919  11.347   8.052 -1.7074 -0.0928 -1.3655
  726MOL0     H  131   1.138  11.288   8.133  0.5627  4.2008  2.2972
  726MOL0     H  132   1.203  11.290   7.969  1.2356 -0.1609  2.3070
  726MOL0     H  133   1.098  11.534   8.098 -1.3206 -0.9027  0.8370
  726MOL0     H  134   1.230  11.526   7.977  3.0734  0.4156  2.5950
  726MOL0     H  135   1.338  11.583   8.154 -0.3306 -1.3377 -0.9071
  726MOL0     H  136   1.255  11.469   8.268  0.7383 -2.2649  0.4053
  726MOL0     H  137   1.394  11.249   8.300  0.3532  1.0202  1.0500
  726MOL0     H  138   1.719  11.103   8.163 -0.0704  1.2853 -0.4249
  726MOL0     H  139   1.576  11.046   8.248 -1.1044  0.7271 -1.6162
  726MOL0     H  140   1.617  11.195   8.440  0.8144  0.2060  1.2700
  726MOL0     H  141   1.770  11.114   8.400 -1.5613 -0.1015  0.6615
  726MOL0     H  142   1.816  11.343   8.272  0.3671  1.3469 -0.1564
  726MOL0     H  143   1.679  11.402   8.371  0.9953  0.4053  2.3390
  726MOL0     H  144   1.877  11.454   8.503 -0.9733  0.0842  0.1774
  726MOL0     H  145   1.782  11.330   8.581 -1.1892  0.6251  0.2606
  726MOL0     H  146   2.202  11.254   8.492  0.2619 -0.3124 -0.1854
  726MOL0     H  147   2.412  11.056   8.681 -0.4880  0.6121  3.2173
  726MOL0     H  148   2.438  11.210   8.764  1.7480 -2.3723  0.3889
  726MOL0     H  149   2.418  11.209   8.587  0.1971 -0.8967 -1.3145
  726MOL0     H  150   2.288  11.180   9.212  2.0186 -0.9968 -0.7521
  726MOL0     H  151   2.381  11.061   9.415  0.2604  0.9961 -0.9379
  726MOL0     H  152   2.516  10.860   9.480 -3.1684 -3.4122 -4.7471
  726MOL0     H  153   2.419  10.927   9.619 -0.6257 -0.1272 -0.3228
  726MOL0     H  154   2.436  10.714   9.730  0.5261  1.3159  0.1597
  726MOL0     H  155   2.496  10.637   9.575  3.1623  0.9927 -2.1131
  726MOL0     H  156   2.650  10.723   9.781  0.3649  0.9182  0.1879
  726MOL0     H  157   2.663  10.864   9.689 -0.1288 -0.5578  2.7793
  726MOL0     H  158   2.736  10.738   9.483  1.4036 -2.2630 -0.4551
  726MOL0     H  159   2.717  10.593   9.572  3.0045 -0.8738 -0.7300
  726MOL0     H  160   2.902  10.833   9.617  1.2959 -0.2584  0.0615
  726MOL0     H  161   2.887  10.693   9.743 -1.0460 -0.3239  0.4384
  726MOL0     H  162   3.006  10.706   9.465  0.2175  1.9638  1.5515
  726MOL0     H  163   2.955  10.548   9.533 -0.6204 -0.0886  0.7728
  726MOL0     H  164   3.144  10.515   9.618 -0.0844  0.4630  1.6273
  726MOL0     H  165   3.091  10.628   9.746  2.3328  0.4651  0.1484
  726MOL0     H  166   3.302  10.725   9.692 -2.6487 -1.5979  1.5359
  726MOL0     H  167   3.196  10.805   9.581 -0.1900 -0.9120 -0.8385
  726MOL0     H  168   2.194  10.700   9.282 -2.8381 -0.3456 -0.7118
  726MOL0     H  169   2.085  10.816   9.105 -1.7273 -0.8622  1.5681
  726MOL0     H  170   1.974  11.060   8.886  0.3860 -0.2843  0.6137
  726MOL0     H  171   1.847  11.188   8.712 -0.4603 -0.8319  0.1812
  726MOL0     H  172   0.832  11.553   7.254  1.1743  0.3366 -0.0765
  726MOL0     H  173   0.594  11.458   7.197 -0.3193 -0.3255  1.5642
  726MOL0     H  174   0.342  11.051   7.349 -0.9968 -0.6237  1.2017
  726MOL0     H  175   0.130  10.909   7.335  2.7305 -3.5026 -1.9890
  726MOL0     H  176  -0.190  11.016   7.043  0.9550  1.7516  2.6264
  726MOL0     H  177  -0.095  10.872   6.983  1.4312 -0.4969  1.1117
  726MOL0     H  178  -0.210  10.719   7.063 -0.0087 -0.6184  1.3428
  726MOL0     H  179  -0.337  10.834   6.993 -2.5019  1.7261  2.8593
  726MOL0     H  180  -0.341  10.921   7.246  0.3513  0.8088 -2.3755
  726MOL0     H  181  -0.434  10.774   7.201 -1.1855  0.8993 -0.8727
  726MOL0     H  182  -0.171  10.759   7.334 -1.7693  4.2304  1.8235
  726MOL0     H  183  -0.270  10.621   7.286 -0.9789 -1.3845  1.9017
  726MOL0     H  184  -0.495  10.732   7.622  1.4105  1.2233  1.3215
  726MOL0     H  185  -0.021  11.136   7.012 -1.9308  0.6445  1.9043
  726MOL0     H  186   0.278  11.247   6.878 -1.1178 -3.0969 -0.2694
  726MOL0     H  187   0.112  11.277   6.877 -0.4897  0.5351  0.3525
  726MOL0     H  188   0.208  11.389   6.980 -1.8898  0.6297 -2.0441
  727MOL0     O  189   7.827  10.922  10.793  0.0028  0.3289 -0.7906
  727MOL0     C  190   7.945  10.884  10.824 -0.0294  0.7320  0.1083
  727MOL0     O  191   8.031  10.954  10.910  0.5901 -0.2169 -0.3864
  727MOL0     C  192   7.986  11.073  10.956 -0.5618 -0.7016  0.6228
  727MOL0     C  193   8.008  11.190  10.877  0.5886  0.8303 -0.2611
  727MOL0     C  194   7.956  11.311  10.923 -0.4057  0.1691  0.0284
  727MOL0     C  195   7.888  11.317  11.051 -1.4262 -0.0167 -0.5530
  727MOL0     O  196   7.861  11.428  11.111  0.5118  0.4480 -0.3838
  727MOL0     C  197   7.843  11.546  11.028 -0.1285 -0.5216  0.6512
  727MOL0     C  198   7.971  11.626  11.020  0.5107  0.0634 -0.5837
  727MOL0     C  199   7.986  11.727  10.915 -0.1744 -0.4119  0.2701
  727MOL0     C  200   7.876  11.837  10.903  0.0094 -0.0481  0.4435
  727MOL0     C  201   7.912  11.976  10.845  0.3555  0.1385 -0.2278
  727MOL0     C  202   7.973  11.973  10.709  0.3963 -0.6619  0.0396
  727MOL0     C  203   7.870  11.944  10.602 -0.1631  0.0618  0.0831
  727MOL0     C  204   7.940  11.968  10.462 -0.4272 -0.3984 -0.4951
  727MOL0     N  205   8.053  11.887  10.427 -0.0726 -0.2918 -0.3379
  727MOL0     C  206   8.132  11.924  10.317  0.4580  0.2781  0.6748
  727MOL0     C  207   8.203  11.811  10.293  0.0941 -0.7823  0.0285
  727MOL0     C  208   8.273  11.790  10.157  0.6080 -0.0531 -0.0478
  727MOL0     C  209   8.358  11.660  10.156 -1.0077 -0.6009 -0.2135
  727MOL0     C  210   8.425  11.659  10.023 -0.8739  0.1532  0.2785
  727MOL0     C  211   8.528  11.544  10.039  0.0740 -0.5861  0.0747
  727MOL0     O  212   8.565  11.505   9.908  0.5655 -0.2089 -0.1518
  727MOL0     C  213   8.700  11.509   9.882 -0.8941  0.4627  0.9224
  727MOL0     C  214   8.775  11.401   9.912 -0.4531 -0.4573  0.3865
  727MOL0     C  215   8.911  11.396   9.882  0.6699  0.3024  0.7632
  727MOL0     C  216   8.990  11.289   9.956 -0.5202 -0.4753  0.7616
  727MOL0     C  217   8.973  11.502   9.804 -1.0187 -0.3022 -0.8487
  727MOL0     C  218   9.112  11.502   9.766 -0.3171 -0.1157 -0.9753
  727MOL0     O  219   9.166  11.628   9.753  0.0840 -0.8051  0.1772
  727MOL0     C  220   9.288  11.659   9.698 -0.4575  0.2851 -0.0836
  727MOL0     C  221   9.402  11.653   9.773 -1.0804  0.5028 -0.3507
  727MOL0     C  222   9.523  11.702   9.725 -0.2926  0.5469 -0.6463
  727MOL0     C  223   9.529  11.751   9.586  0.3571  1.1969 -0.4144
  727MOL0     O  224   9.637  11.793   9.511  0.2916  0.2053 -1.0047
  727MOL0     C  225   9.761  11.802   9.565 -0.0072  0.4350  0.0057
  727MOL0     C  226   9.862  11.865   9.465  0.0712  0.0722 -0.3051
  727MOL0     C  227   9.961  11.943   9.543  1.1116  0.5614 -0.2515
  727MOL0     C  228  10.027  12.037   9.447 -0.5032 -0.0942  0.9360
  727MOL0     C  229  10.091  12.162   9.526 -0.3605  0.0832 -1.1939
  727MOL0     C  230   9.981  12.268   9.557  0.2092  0.7564  0.0489
  727MOL0     C  231  10.046  12.392   9.607  0.2202 -0.4653 -0.2859
  727MOL0     C  232   9.954  12.513   9.618  0.1035  0.2356 -0.2742
  727MOL0    Cl  233   9.839  12.515   9.765  0.3260 -0.4119  0.0354
  727MOL0     C  234   9.416  11.744   9.504  0.2459  0.4325 -1.0448
  727MOL0     C  235   9.294  11.708   9.564  0.6153  0.1716 -0.8285
  727MOL0     O  236   9.159  11.402   9.727  0.0674  0.4543  0.9609
  727MOL0     C  237   8.899  11.618   9.795  0.0112 -0.6133  0.7425
  727MOL0     C  238   8.766  11.622   9.829  0.5560  0.3188  0.7741
  727MOL0     N  239   8.190  11.729  10.405  0.1963  0.0640  0.5003
  727MOL0     N  240   8.100  11.769  10.488  0.5371 -0.6873  0.5526
  727MOL0     C  241   7.862  11.199  11.123 -1.4993  0.3806  0.7830
  727MOL0     C  242   7.915  11.081  11.074  0.3815  0.5064 -0.6689
  727MOL0     C  243   7.993  10.768  10.756  0.0618  0.0171 -0.1987
  727MOL0     C  244   7.905  10.680  10.684  0.2502 -1.4202  0.2032
  727MOL0     C  245   7.938  10.555  10.628  0.0203 -0.5813 -0.2042
  727MOL0     C  246   8.070  10.507  10.648  0.2576  0.0300  0.5935
  727MOL0     O  247   8.101  10.383  10.610 -0.4732  1.0419 -0.1451
  727MOL0     C  248   8.053  10.283  10.702  0.1652  0.2083  0.0708
  727MOL0     C  249   8.014  10.152  10.634 -1.1817 -0.6214  0.3894
  727MOL0     C  250   8.135  10.078  10.567 -0.0920 -0.5173 -0.2301
  727MOL0     C  251   8.244  10.037  10.683  0.4636  0.1107  0.3360
  727MOL0     C  252   8.351   9.947  10.645 -0.0034 -0.7072 -0.5419
  727MOL0     C  253   8.440   9.870  10.638 -0.7469  0.2907  0.2322
  727MOL0     C  254   8.160  10.590  10.715 -0.1430  0.2816  0.7482
  727MOL0     C  255   8.124  10.712  10.773  0.5273 -0.8004 -0.8470
  727MOL0     C  256   8.242  10.788  10.836  0.4451 -0.2669  0.2805
  727MOL0     H  257   8.056  11.186  10.780  1.1898 -0.2737  0.0697
  727MOL0     H  258   7.992  11.397  10.867  2.1791 -1.0586 -0.3370
  727MOL0     H  259   7.769  11.614  11.071 -1.7494 -0.9637 -1.2766
  727MOL0     H  260   7.804  11.525  10.928 -0.3022 -1.6963  0.9577
  727MOL0     H  261   7.980  11.683  11.114  1.7271  0.1691 -0.7478
  727MOL0     H  262   8.055  11.559  11.003  0.7404 -0.2913  1.6671
  727MOL0     H  263   8.083  11.772  10.935  1.3174 -1.8680 -2.9407
  727MOL0     H  264   7.980  11.680  10.817 -0.8571 -0.7309  0.4535
  727MOL0     H  265   7.784  11.799  10.858  1.0993 -0.6510 -1.3788
  727MOL0     H  266   7.853  11.872  11.004  1.1880  1.1943  0.3110
  727MOL0     H  267   7.987  12.022  10.909 -0.3843  2.0522 -0.6641
  727MOL0     H  268   7.823  12.035  10.823 -0.1044 -1.2587 -2.4431
  727MOL0     H  269   8.017  12.068  10.680  5.2992 -2.3352  0.9278
  727MOL0     H  270   8.054  11.899  10.701  0.1461 -0.7184 -3.1447
  727MOL0     H  271   7.790  12.017  10.619  0.5251  0.9339 -0.3261
  727MOL0     H  272   7.827  11.844  10.603  0.9045 -0.4143 -0.1908
  727MOL0     H  273   7.864  11.977  10.384 -1.8052 -1.9055  0.5947
  727MOL0     H  274   7.975  12.071  10.472 -0.4048 -0.4353 -0.1802
  727MOL0     H  275   8.117  12.000  10.242 -1.6027  0.9243  1.6647
  727MOL0     H  276   8.337  11.876  10.134  0.5421  0.0995  0.3229
  727MOL0     H  277   8.189  11.777  10.088  1.4118  0.1577 -1.0844
  727MOL0     H  278   8.442  11.654  10.226 -0.5776 -1.9068 -0.8104
  727MOL0     H  279   8.297  11.570  10.173  0.9472 -1.9193  0.0850
  727MOL0     H  280   8.364  11.637   9.935 -0.7960 -0.8971  0.4720
  727MOL0     H  281   8.479  11.753  10.010 -1.2168  0.2030 -0.9385
  727MOL0     H  282   8.610  11.587  10.098 -1.7294  0.1935  2.1829
  727MOL0     H  283   8.492  11.448  10.077 -2.0703 -0.5210 -1.6209
  727MOL0     H  284   8.729  11.322   9.970 -1.4810  0.4182  0.8054
  727MOL0     H  285   9.001  11.191   9.908  1.2662  0.1524 -0.2219
  727MOL0     H  286   8.941  11.273  10.053  2.1376 -3.1865  1.8554
  727MOL0     H  287   9.094  11.318   9.976 -0.1451  0.4648 -2.1130
  727MOL0     H  288   9.391  11.625   9.877 -4.4509  2.6831  0.0214
  727MOL0     H  289   9.605  11.709   9.795  0.2993 -1.1692 -1.1261
  727MOL0     H  290   9.753  11.861   9.657  1.5540 -2.0585  1.8833
  727MOL0     H  291   9.802  11.702   9.583 -0.6105 -0.3632 -2.6914
  727MOL0     H  292   9.914  11.790   9.406 -0.8032  0.3516 -1.4636
  727MOL0     H  293   9.812  11.928   9.391 -0.6208  0.8941  0.8343
  727MOL0     H  294  10.030  11.876   9.597  1.6548 -0.0385 -1.6370
  727MOL0     H  295   9.903  12.005   9.611 -2.0340 -1.4948 -0.8770
  727MOL0     H  296   9.955  12.076   9.375 -0.2197  0.7323  1.0913
  727MOL0     H  297  10.104  11.986   9.389  0.8832  1.4481  1.3381
  727MOL0     H  298  10.128  12.124   9.622 -2.2717  0.0574 -0.4327
  727MOL0     H  299  10.167  12.213   9.465  0.0719  4.8621  2.6805
  727MOL0     H  300   9.910  12.221   9.626  1.1967 -3.4259 -1.4609
  727MOL0     H  301   9.925  12.300   9.468 -4.3149 -2.0296  1.5499
  727MOL0     H  302  10.120  12.417   9.530  1.2262  2.6961  1.5204
  727MOL0     H  303  10.104  12.379   9.699  3.0861  2.4750 -1.4587
  727MOL0     H  304   9.889  12.518   9.530 -1.4823 -0.1079  0.8351
  727MOL0     H  305  10.017  12.602   9.628  0.6632  0.1822 -2.6307
  727MOL0     H  306   9.417  11.781   9.402 -4.4189  0.4352 -1.3410
  727MOL0     H  307   9.200  11.709   9.510 -0.5170  2.1581  0.9963
  727MOL0     H  308   8.934  11.709   9.747 -1.0871  0.0259  1.1132
  727MOL0     H  309   8.699  11.705   9.808  1.3335  0.8429  0.3227
  727MOL0     H  310   7.810  11.202  11.218  0.7926 -0.4291  2.1163
  727MOL0     H  311   7.887  10.990  11.127 -2.7435  1.3304 -0.7395
  727MOL0     H  312   7.805  10.702  10.646  0.4016  0.0407  0.5961
  727MOL0     H  313   7.867  10.487  10.582 -2.8256  0.4160  2.4079
  727MOL0     H  314   8.128  10.263  10.779  1.5677  0.9326 -1.0759
  727MOL0     H  315   7.966  10.322  10.756 -0.8237 -2.1301  0.2764
  727MOL0     H  316   7.928  10.167  10.568 -0.3387  0.1954 -0.5665
  727MOL0     H  317   7.976  10.081  10.708  0.7718  0.6198  2.7275
  727MOL0     H  318   8.111   9.984  10.518  1.0696 -0.8401 -0.2208
  727MOL0     H  319   8.182  10.149  10.498  1.1909 -0.8210  0.3065
  727MOL0     H  320   8.193   9.977  10.759  2.0576 -0.6504  0.8600
  727MOL0     H  321   8.284  10.129  10.728 -1.7035  1.0877  0.3850
  727MOL0     H  322   8.519   9.798  10.645 -1.0459  0.0927  2.3735
  727MOL0     H  323   8.254  10.543  10.742 -1.1341 -2.2874 -0.0002
  727MOL0     H  324   8.338  10.736  10.828  0.8180  0.4977 -0.3298
  727MOL0     H  325   8.252  10.887  10.790 -1.2505 -0.0473  0.3272
  727MOL0     H  326   8.225  10.799  10.944  3.2378  1.1426  0.6662
  728MOL0     O  327   6.575   0.608   5.618  0.5564 -0.3770  0.2148
  728MOL0     C  328   6.515   0.502   5.614  1.1728 -0.4026 -0.0088
  728MOL0     O  329   6.424   0.464   5.713 -0.7623 -0.3433  0.3822
  728MOL0     C  330   6.359   0.567   5.776 -0.4456  0.6795 -0.1249
  728MOL0     C  331   6.428   0.645   5.871 -0.9151 -1.0563  0.4358
  728MOL0     C  332   6.367   0.758   5.933  0.6680  0.7202 -0.7028
  728MOL0     C  333   6.233   0.797   5.894 -0.3754 -0.4412  0.0401
  728MOL0     O  334   6.159   0.902   5.949  0.6852 -0.1680 -0.5845
  728MOL0     C  335   6.230   1.025   5.983  0.5161  0.5359 -0.1190
  728MOL0     C  336   6.293   1.083   5.858 -0.4860  0.0843 -0.4794
  728MOL0     C  337   6.352   1.224   5.888 -0.4102  0.2713  0.3085
  728MOL0     C  338   6.451   1.233   6.009  0.1217 -0.1401 -0.7085
  728MOL0     C  339   6.513   1.371   6.016 -0.6473  0.1780  0.3627
  728MOL0     C  340   6.620   1.388   6.135  0.3076  0.3251  0.1514
  728MOL0     C  341   6.692   1.522   6.141  0.0544  0.4333 -0.1453
  728MOL0     C  342   6.804   1.531   6.036 -0.2136  0.2641  0.1452
  728MOL0     N  343   6.889   1.639   6.027 -0.4276 -0.4384 -0.1064
  728MOL0     C  344   6.865   1.764   6.069  0.5249  0.4218  0.7080
  728MOL0     C  345   6.974   1.833   6.023 -0.2227 -0.2745 -0.0025
  728MOL0     C  346   6.986   1.982   6.027  0.2686  0.0832  0.3497
  728MOL0     C  347   7.124   2.027   5.997  0.7113 -0.5021  0.1021
  728MOL0     C  348   7.126   2.183   5.984 -0.0444 -0.1098 -1.2097
  728MOL0     C  349   7.261   2.214   5.933 -1.0789 -0.3236 -0.2422
  728MOL0     O  350   7.269   2.349   5.905 -0.6509 -0.0208 -0.1399
  728MOL0     C  351   7.387   2.409   5.881 -0.2041 -0.0330 -0.3801
  728MOL0     C  352   7.391   2.546   5.866  0.3258 -0.4375  0.5678
  728MOL0     C  353   7.504   2.627   5.848  0.4197 -0.0736  0.5623
  728MOL0     C  354   7.478   2.778   5.851 -0.1530 -0.3979  0.0713
  728MOL0     C  355   7.632   2.567   5.841 -0.3913  0.1127  0.3553
  728MOL0     C  356   7.765   2.642   5.813 -0.2491  0.7519 -0.2033
  728MOL0     O  357   7.879   2.561   5.809  0.3729 -0.6645  0.2859
  728MOL0     C  358   8.001   2.628   5.809 -0.2113  0.1418 -0.3628
  728MOL0     C  359   8.068   2.696   5.704 -1.0435  0.0799 -0.0680
  728MOL0     C  360   8.180   2.775   5.731 -0.0992  0.1071 -0.3998
  728MOL0     C  361   8.234   2.781   5.862 -0.1184  0.6987 -0.3929
  728MOL0     O  362   8.349   2.850   5.902 -0.2652  0.5681 -0.0741
  728MOL0     C  363   8.469   2.806   5.829  0.3054  1.3489  0.3535
  728MOL0     C  364   8.577   2.882   5.897 -0.1510 -1.0140  0.4962
  728MOL0     C  365   8.719   2.835   5.867 -0.2140 -0.5206  0.0297
  728MOL0     C  366   8.750   2.811   5.714 -0.8549  0.0435 -0.5028
  728MOL0     C  367   8.887   2.748   5.705  0.2581  0.5524 -0.7906
  728MOL0     C  368   8.991   2.850   5.711  0.3953  0.7678  0.3155
  728MOL0     C  369   9.123   2.803   5.662  0.0063  0.1774 -0.1675
  728MOL0     C  370   9.230   2.877   5.736 -0.6117 -0.2548  0.1018
  728MOL0    Cl  371   9.388   2.858   5.663 -0.1580 -0.1774 -0.0073
  728MOL0     C  372   8.165   2.722   5.963  1.5498 -0.7315 -0.3151
  728MOL0     C  373   8.051   2.654   5.939 -0.0507 -0.1885  0.7275
  728MOL0     O  374   7.764   2.760   5.818  0.7944 -0.5727 -0.8870
  728MOL0     C  375   7.633   2.421   5.858  0.0204 -0.3909  0.1538
  728MOL0     C  376   7.513   2.348   5.873 -0.2616  0.0105 -0.5566
  728MOL0     N  377   7.067   1.744   5.970  0.1415  0.1942  0.4076
  728MOL0     N  378   7.015   1.627   5.972  0.3527 -0.4584 -0.0392
  728MOL0     C  379   6.166   0.717   5.803 -0.2499  0.0003  0.1693
  728MOL0     C  380   6.229   0.603   5.743 -0.0369 -0.3619  0.4079
  728MOL0     C  381   6.540   0.407   5.504  0.5261  0.3925 -0.2670
  728MOL0     C  382   6.452   0.296   5.500  0.4729  0.1294 -0.2940
  728MOL0     C  383   6.452   0.211   5.394 -0.4956  1.1040 -0.2436
  728MOL0     C  384   6.552   0.224   5.299 -0.5152  0.5175 -0.6323
  728MOL0     O  385   6.553   0.141   5.194  0.0491  0.0759 -0.2132
  728MOL0     C  386   6.443   0.164   5.106  1.1684  0.2363 -0.2791
  728MOL0     C  387   6.473   0.117   4.960 -0.4796 -1.0849 -0.4111
  728MOL0     C  388   6.607   0.163   4.904 -0.3741  0.2601 -0.6434
  728MOL0     C  389   6.622   0.319   4.884 -0.0664 -0.2249 -0.3071
  728MOL0     C  390   6.518   0.376   4.801  0.7721  0.3773  0.4938
  728MOL0     C  391   6.426   0.441   4.736  0.0981  1.0199 -0.2538
  728MOL0     C  392   6.654   0.320   5.312 -0.1090 -0.1689 -0.8767
  728MOL0     C  393   6.641   0.417   5.409  0.4385 -0.2388 -0.0014
  728MOL0     C  394   6.751   0.529   5.404  1.0415 -0.1283 -0.1903
  728MOL0     H  395   6.528   0.622   5.906 -1.2464 -2.2181  0.6658
  728MOL0     H  396   6.421   0.817   6.007  1.7527 -1.0547 -0.0031
  728MOL0     H  397   6.312   1.009   6.054  1.3957 -0.3337 -1.2842
  728MOL0     H  398   6.165   1.095   6.035 -2.9143 -1.6785 -1.0580
  728MOL0     H  399   6.371   1.013   5.826 -2.0030 -0.5386 -3.2102
  728MOL0     H  400   6.229   1.104   5.772 -0.8898  2.1210  0.2747
  728MOL0     H  401   6.404   1.254   5.797 -2.1698 -1.3073 -1.3322
  728MOL0     H  402   6.257   1.279   5.895 -0.5576  0.4099 -2.0193
  728MOL0     H  403   6.402   1.206   6.102  4.5682 -0.4654  1.7905
  728MOL0     H  404   6.540   1.170   6.005  0.8889  0.8210  0.4288
  728MOL0     H  405   6.435   1.442   6.046 -0.2376  0.7477  0.1115
  728MOL0     H  406   6.551   1.397   5.917  1.9663 -3.1145  0.3179
  728MOL0     H  407   6.566   1.382   6.230 -1.7042  2.3454 -0.7692
  728MOL0     H  408   6.684   1.300   6.138 -1.2031 -0.8289 -0.1399
  728MOL0     H  409   6.727   1.519   6.245 -0.7851  0.1349  0.1444
  728MOL0     H  410   6.618   1.601   6.128  1.4861  1.9195  0.4331
  728MOL0     H  411   6.871   1.445   6.044  0.1345  0.5018 -0.1647
  728MOL0     H  412   6.749   1.522   5.942 -0.5859 -2.1242  0.5301
  728MOL0     H  413   6.773   1.804   6.110  0.9517  0.2511  1.8505
  728MOL0     H  414   6.955   2.023   6.124  0.4800  2.8532 -0.6697
  728MOL0     H  415   6.917   2.023   5.952 -0.9742 -0.5334  1.1132
  728MOL0     H  416   7.184   2.003   6.085  1.8215 -1.5672 -0.8934
  728MOL0     H  417   7.156   1.974   5.906  1.7271  3.3562 -2.0040
  728MOL0     H  418   7.045   2.221   5.921  0.0122  2.4032  0.1457
  728MOL0     H  419   7.126   2.233   6.081 -2.1981  0.4798 -1.4655
  728MOL0     H  420   7.345   2.185   5.996 -3.3380 -1.4077  2.4867
  728MOL0     H  421   7.287   2.166   5.838 -1.1545  0.9364 -0.9163
  728MOL0     H  422   7.298   2.598   5.883  0.3462 -0.4626  0.7586
  728MOL0     H  423   7.371   2.799   5.860 -0.6211 -2.8429  0.8526
  728MOL0     H  424   7.500   2.827   5.756 -3.2566  0.8227 -0.1391
  728MOL0     H  425   7.528   2.822   5.938  0.7014 -0.9949 -0.1016
  728MOL0     H  426   8.035   2.709   5.601  2.9603 -0.0472 -1.5624
  728MOL0     H  427   8.224   2.828   5.647 -0.2405 -0.5039 -0.8694
  728MOL0     H  428   8.471   2.699   5.854  0.3982  0.9051 -1.4148
  728MOL0     H  429   8.465   2.811   5.720  1.4072 -0.8216  0.1384
  728MOL0     H  430   8.556   2.986   5.872  0.1256 -0.3377  2.8319
  728MOL0     H  431   8.562   2.885   6.005  2.1825  0.7621  0.8461
  728MOL0     H  432   8.727   2.735   5.910  0.1988 -1.1902 -1.5521
  728MOL0     H  433   8.796   2.901   5.908 -0.4378  0.3846 -0.9473
  728MOL0     H  434   8.752   2.904   5.657  2.5413  0.2091 -0.3054
  728MOL0     H  435   8.676   2.739   5.678  1.1697 -1.9937 -0.7926
  728MOL0     H  436   8.899   2.660   5.768  1.6855  0.7450 -0.7481
  728MOL0     H  437   8.883   2.712   5.602 -2.4220  0.5691 -0.7540
  728MOL0     H  438   9.001   2.869   5.818  0.4438 -2.2694  0.9465
  728MOL0     H  439   8.971   2.946   5.662  2.3167  1.0215 -0.0656
  728MOL0     H  440   9.131   2.816   5.554 -3.8148 -0.5214 -0.6716
  728MOL0     H  441   9.138   2.698   5.689  0.7054  0.3507  0.1598
  728MOL0     H  442   9.235   2.845   5.841 -1.8587  1.6247  0.7930
  728MOL0     H  443   9.199   2.982   5.734 -0.2785 -0.1582 -0.0040
  728MOL0     H  444   8.202   2.740   6.063 -0.9717  2.1939  0.2280
  728MOL0     H  445   7.988   2.628   6.024 -1.9787  3.2894  0.5690
  728MOL0     H  446   7.726   2.366   5.858  1.5673  2.0281  1.1199
  728MOL0     H  447   7.524   2.240   5.882  1.5380 -0.1937 -3.7119
  728MOL0     H  448   6.064   0.738   5.773 -0.2007  1.2617  0.8326
  728MOL0     H  449   6.168   0.533   5.686 -0.4919 -1.1096  1.7707
  728MOL0     H  450   6.372   0.288   5.573 -0.6514  0.5229 -1.4302
  728MOL0     H  451   6.367   0.148   5.371  0.7921 -0.1195 -1.9719
  728MOL0     H  452   6.364   0.103   5.151  2.7151 -0.4898  1.5865
  728MOL0     H  453   6.407   0.267   5.111 -0.6760 -0.3959  4.0954
  728MOL0     H  454   6.392   0.157   4.899  0.7652  1.5230 -0.4668
  728MOL0     H  455   6.464   0.008   4.953 -1.9945 -1.3707  3.4924
  728MOL0     H  456   6.692   0.133   4.966  2.4066 -0.9022 -4.5714
  728MOL0     H  457   6.622   0.111   4.809 -1.3409 -2.1112  0.4216
  728MOL0     H  458   6.721   0.330   4.839  0.0161  0.5800  0.0611
  728MOL0     H  459   6.612   0.362   4.983 -1.2989 -1.9216  0.3476
  728MOL0     H  460   6.353   0.503   4.690 -1.3339  1.4188  2.3550
  728MOL0     H  461   6.722   0.330   5.228 -0.9891 -0.8406 -1.6932
  728MOL0     H  462   6.693   0.603   5.349  0.3112 -2.3546 -2.5925
  728MOL0     H  463   6.783   0.574   5.498  1.7412 -0.2224 -0.3749
  728MOL0     H  464   6.837   0.481   5.356 -0.5509 -1.3174 -1.9979
  729MOL0     O  465   4.306   4.990   4.220 -0.2052 -0.6285  0.3449
  729MOL0     C  466   4.242   4.925   4.142 -0.2123  0.2969  0.0739
  729MOL0     O  467   4.289   4.890   4.019 -0.3875  0.5794  0.1192
  729MOL0     C  468   4.417   4.932   3.985 -0.6024  0.5455  0.1902
  729MOL0     C  469   4.516   4.833   4.006  0.0720 -0.3418 -0.0573
  729MOL0     C  470   4.646   4.859   3.967 -1.0863  0.0263 -0.1034
  729MOL0     C  471   4.688   4.985   3.927 -0.7699 -0.1567 -0.9655
  729MOL0     O  472   4.821   5.001   3.892  0.4150  0.7472 -0.2339
  729MOL0     C  473   4.875   5.128   3.938  0.1624 -0.4431 -0.9378
  729MOL0     C  474   5.013   5.147   3.879 -0.5585 -0.7502  0.1416
  729MOL0     C  475   4.997   5.139   3.725  0.2480  0.1526 -0.1246
  729MOL0     C  476   5.129   5.182   3.654  0.1731  0.1580 -0.0393
  729MOL0     C  477   5.128   5.169   3.498 -0.1835  1.0397 -0.0252
  729MOL0     C  478   5.254   5.201   3.432  0.3947  0.0460  0.3525
  729MOL0     C  479   5.231   5.193   3.273 -0.2122  0.7948 -0.3111
  729MOL0     C  480   5.339   5.267   3.195  0.1600 -0.2104 -0.3578
  729MOL0     N  481   5.472   5.240   3.250 -0.0755  0.3166 -0.0657
  729MOL0     C  482   5.537   5.120   3.242  1.0023  0.4815 -0.4602
  729MOL0     C  483   5.662   5.146   3.273 -1.1628  0.5493 -1.0379
  729MOL0     C  484   5.773   5.045   3.281 -0.0676 -0.4837 -0.0557
  729MOL0     C  485   5.908   5.078   3.221 -0.2055  0.3389  0.0307
  729MOL0     C  486   6.005   4.957   3.213  0.7279 -0.6476  0.2105
  729MOL0     C  487   6.137   5.011   3.156 -0.6037  0.3712  0.7374
  729MOL0     O  488   6.205   4.885   3.122 -0.4086  0.0843  0.4543
  729MOL0     C  489   6.317   4.883   3.041 -0.5437 -0.1308 -0.6420
  729MOL0     C  490   6.373   4.754   3.028  0.1192 -1.2350  0.2818
  729MOL0     C  491   6.495   4.725   2.965  0.2375  0.3403 -0.5370
  729MOL0     C  492   6.544   4.581   2.954  0.7516  0.0512 -0.9261
  729MOL0     C  493   6.567   4.841   2.918  0.0280  0.5740  0.4250
  729MOL0     C  494   6.690   4.830   2.842  0.7124  0.0001  0.4276
  729MOL0     O  495   6.789   4.767   2.912  0.0519 -0.2961 -0.2050
  729MOL0     C  496   6.912   4.742   2.858  0.3936  0.3697  0.2805
  729MOL0     C  497   6.969   4.620   2.891 -0.2070 -1.0952  0.4490
  729MOL0     C  498   7.089   4.595   2.829 -0.5586  0.4202 -0.0579
  729MOL0     C  499   7.149   4.682   2.736 -0.2203 -0.3668  0.4062
  729MOL0     O  500   7.268   4.662   2.660 -0.2798  0.5754  0.1418
  729MOL0     C  501   7.309   4.525   2.641  0.2875  0.7148 -0.1360
  729MOL0     C  502   7.205   4.436   2.571 -0.3994 -0.7382  0.3083
  729MOL0     C  503   7.152   4.492   2.439 -0.3590 -0.7397 -0.3069
  729MOL0     C  504   7.123   4.375   2.338 -0.2306 -0.4317 -0.1885
  729MOL0     C  505   7.090   4.429   2.209  0.8173 -0.5177  0.2267
  729MOL0     C  506   7.078   4.314   2.109 -0.1920  0.5107 -0.1004
  729MOL0     C  507   7.051   4.356   1.964 -0.7446 -0.1768 -0.6460
  729MOL0     C  508   6.940   4.457   1.955  0.3512 -0.0316  0.9388
  729MOL0    Cl  509   6.921   4.532   1.791  0.1938 -0.0323  0.4000
  729MOL0     C  510   7.094   4.811   2.717 -0.3966  0.1505 -0.4154
  729MOL0     C  511   6.975   4.835   2.777 -0.4995 -0.1184  0.7405
  729MOL0     O  512   6.696   4.874   2.729  0.2850  0.0963 -0.1663
  729MOL0     C  513   6.509   4.968   2.933  0.5027  0.1676 -1.5422
  729MOL0     C  514   6.390   4.998   2.999 -0.1106  0.3098  0.0092
  729MOL0     N  515   5.679   5.278   3.300  0.5359  0.6858 -0.0116
  729MOL0     N  516   5.562   5.336   3.295  0.2868  0.4949  0.1619
  729MOL0     C  517   4.586   5.078   3.904  0.1031 -0.6789  0.3009
  729MOL0     C  518   4.453   5.053   3.934 -0.0915  0.2098 -1.5698
  729MOL0     C  519   4.097   4.893   4.163 -0.8480 -0.2850  0.7838
  729MOL0     C  520   4.026   4.841   4.057  0.4332 -0.0313 -0.2548
  729MOL0     C  521   3.887   4.820   4.065  0.1149  0.4360  0.7889
  729MOL0     C  522   3.817   4.842   4.187 -0.2680 -0.9656  0.5432
  729MOL0     O  523   3.679   4.837   4.198 -0.0541  0.2368 -0.5067
  729MOL0     C  524   3.615   4.822   4.075  0.2435 -0.7938  0.4427
  729MOL0     C  525   3.463   4.846   4.096  1.3510 -0.3594 -0.3563
  729MOL0     C  526   3.374   4.836   3.972 -0.8008  0.0478  0.7253
  729MOL0     C  527   3.229   4.862   4.003  1.0101 -0.4272  0.0850
  729MOL0     C  528   3.163   4.772   4.094  0.6738  0.0811 -0.1718
  729MOL0     C  529   3.087   4.699   4.164 -0.2887 -0.1366  0.1766
  729MOL0     C  530   3.891   4.895   4.291 -0.4570  0.2811 -0.2582
  729MOL0     C  531   4.032   4.916   4.284  0.0134  0.1530 -0.4165
  729MOL0     C  532   4.107   4.960   4.411  0.7808  0.5280 -0.2660
  729MOL0     H  533   4.484   4.731   4.029  1.9127 -1.2074 -1.0704
  729MOL0     H  534   4.718   4.779   3.960  0.2880  0.9538  2.4037
  729MOL0     H  535   4.895   5.132   4.046  2.1936  3.2822 -1.3240
  729MOL0     H  536   4.809   5.211   3.915  0.0643  0.3714  1.9034
  729MOL0     H  537   5.052   5.247   3.899 -1.7637 -0.5123  1.4515
  729MOL0     H  538   5.082   5.070   3.913  0.0711 -0.6636 -0.8912
  729MOL0     H  539   4.963   5.042   3.689  0.6237  0.4703 -1.4006
  729MOL0     H  540   4.916   5.206   3.694  1.4499  1.6244 -0.2123
  729MOL0     H  541   5.146   5.290   3.663  2.6773  0.0612 -2.3078
  729MOL0     H  542   5.214   5.126   3.694 -0.0731  1.1324  1.9430
  729MOL0     H  543   5.059   5.242   3.453  0.7037 -0.9824 -5.4406
  729MOL0     H  544   5.086   5.071   3.472 -0.3709  0.8602  0.9057
  729MOL0     H  545   5.287   5.300   3.465  0.1334  0.1934  0.1666
  729MOL0     H  546   5.344   5.141   3.455  0.4460 -0.6331 -1.4594
  729MOL0     H  547   5.129   5.216   3.240 -0.3404 -0.5538 -0.9069
  729MOL0     H  548   5.237   5.087   3.250 -1.0140  0.3723  1.2701
  729MOL0     H  549   5.326   5.235   3.091 -0.3653 -1.8378  0.1749
  729MOL0     H  550   5.322   5.375   3.201  0.7606 -0.1649  0.7529
  729MOL0     H  551   5.499   5.020   3.223  2.1345 -0.2959  1.1006
  729MOL0     H  552   5.743   4.947   3.242 -0.3212  0.0505 -1.2380
  729MOL0     H  553   5.794   5.046   3.389 -2.4725  0.6730  0.4567
  729MOL0     H  554   5.899   5.116   3.119 -1.1180  1.5252  0.5176
  729MOL0     H  555   5.947   5.155   3.289 -0.2289  0.8140 -0.4924
  729MOL0     H  556   6.021   4.923   3.316  1.3006 -1.6607 -0.1928
  729MOL0     H  557   5.960   4.888   3.140  0.6427  0.1589 -0.5111
  729MOL0     H  558   6.119   5.073   3.067  3.1237  1.0899  0.3507
  729MOL0     H  559   6.198   5.063   3.229  2.4672  0.3114 -1.5871
  729MOL0     H  560   6.308   4.678   3.070 -1.5517 -0.0308 -0.0261
  729MOL0     H  561   6.614   4.557   3.034  0.8507  0.7954 -0.7823
  729MOL0     H  562   6.607   4.570   2.866  1.3840  0.4080 -0.5228
  729MOL0     H  563   6.461   4.509   2.958  0.4189  0.4712  0.0189
  729MOL0     H  564   6.925   4.545   2.955 -1.0585 -1.5974 -0.6782
  729MOL0     H  565   7.130   4.495   2.844 -0.9279  0.1651 -0.6959
  729MOL0     H  566   7.401   4.521   2.582 -2.2951 -0.9670 -4.4852
  729MOL0     H  567   7.335   4.488   2.741 -0.8804  3.5413  1.3200
  729MOL0     H  568   7.271   4.351   2.554  0.3241 -0.6898  2.5194
  729MOL0     H  569   7.119   4.405   2.631  0.1117 -0.7608  1.0418
  729MOL0     H  570   7.233   4.554   2.400  3.3816 -4.1259  1.3532
  729MOL0     H  571   7.064   4.556   2.453 -1.3698 -1.8102 -1.4917
  729MOL0     H  572   7.040   4.312   2.369 -0.5905 -0.8901 -1.9563
  729MOL0     H  573   7.204   4.301   2.339  1.4251  1.1650 -3.1087
  729MOL0     H  574   6.992   4.476   2.220  0.8343 -0.1199 -1.1441
  729MOL0     H  575   7.155   4.512   2.179  0.2705 -1.1661 -3.1483
  729MOL0     H  576   6.994   4.254   2.145  0.9350  0.6139  2.9408
  729MOL0     H  577   7.170   4.256   2.100  1.4421  2.8996  0.2620
  729MOL0     H  578   7.022   4.269   1.905  0.3697  0.7690 -2.7226
  729MOL0     H  579   7.141   4.407   1.926 -1.3450  1.3957 -0.0715
  729MOL0     H  580   6.964   4.534   2.029  3.7210 -2.2812  2.4595
  729MOL0     H  581   6.838   4.423   1.972 -0.1218  0.0564 -1.4351
  729MOL0     H  582   7.138   4.875   2.641  0.9507  0.2414  0.4107
  729MOL0     H  583   6.926   4.932   2.769 -3.5902 -1.6908 -2.1828
  729MOL0     H  584   6.556   5.046   2.874 -0.7853  0.8266 -1.7347
  729MOL0     H  585   6.372   5.106   2.997  3.0643  0.9146 -0.6088
  729MOL0     H  586   4.607   5.171   3.852 -0.7544  0.9016  2.6152
  729MOL0     H  587   4.380   5.127   3.903 -0.2533  1.4186  1.3523
  729MOL0     H  588   4.078   4.824   3.963 -0.8424  0.5775 -1.1059
  729MOL0     H  589   3.844   4.784   3.972  1.9616 -0.2281  0.1310
  729MOL0     H  590   3.656   4.890   4.000  1.3185 -0.5290  1.2444
  729MOL0     H  591   3.626   4.717   4.045 -1.2514 -1.0188  0.5962
  729MOL0     H  592   3.433   4.939   4.144  1.1164 -0.1472 -0.9040
  729MOL0     H  593   3.437   4.760   4.160 -2.6854  0.2870 -0.8563
  729MOL0     H  594   3.401   4.907   3.893 -0.5507 -2.2690 -1.4077
  729MOL0     H  595   3.383   4.735   3.931  2.7402  0.5335  0.0258
  729MOL0     H  596   3.181   4.839   3.907  0.3241 -1.5631  0.6807
  729MOL0     H  597   3.208   4.968   4.018 -1.5480 -0.9090  0.2988
  729MOL0     H  598   3.014   4.637   4.211 -0.1019 -0.1775  0.4106
  729MOL0     H  599   3.840   4.911   4.385  0.1122 -3.4258  0.8525
  729MOL0     H  600   4.173   4.879   4.444 -2.1218 -1.7636  0.3706
  729MOL0     H  601   4.154   5.057   4.398  4.0165 -0.6598  1.4643
  729MOL0     H  602   4.025   4.978   4.482  0.0773 -0.1108 -0.8923
  730MOL0     O  603   3.359   4.960   7.892 -0.4462 -0.5274 -0.4295
  730MOL0     C  604   3.306   5.024   7.804  0.1978 -0.2778 -0.0343
  730MOL0     O  605   3.364   5.142   7.754 -0.4378 -0.1199  0.1537
  730MOL0     C  606   3.455   5.220   7.823 -0.5488 -0.8421 -0.1258
  730MOL0     C  607   3.436   5.264   7.954  0.2983 -0.2349 -0.6019
  730MOL0     C  608   3.533   5.345   8.018  0.5810  0.1226  0.1891
  730MOL0     C  609   3.641   5.400   7.941 -0.1391  0.8240  0.3290
  730MOL0     O  610   3.725   5.485   8.004 -0.1145  0.7685 -0.0227
  730MOL0     C  611   3.782   5.593   7.932 -0.3807  0.0327  0.1418
  730MOL0     C  612   3.812   5.694   8.045  0.1501  0.4006  1.0824
  730MOL0     C  613   3.954   5.748   8.049  0.9137  1.0163  0.0900
  730MOL0     C  614   4.057   5.644   8.091  0.6006 -0.6658 -0.3831
  730MOL0     C  615   4.185   5.706   8.138  0.6871  0.6474 -0.1840
  730MOL0     C  616   4.284   5.588   8.173  1.3410  0.3137  0.2348
  730MOL0     C  617   4.420   5.629   8.208  0.6514  0.1087  0.3675
  730MOL0     C  618   4.428   5.682   8.360 -0.3084 -0.1333  0.1555
  730MOL0     N  619   4.571   5.719   8.385 -0.2874 -0.1801 -0.0464
  730MOL0     C  620   4.670   5.629   8.406 -0.3014  0.5177 -0.3969
  730MOL0     C  621   4.781   5.701   8.445  0.4327 -0.7202  0.4430
  730MOL0     C  622   4.923   5.660   8.459  0.6956  0.5882  0.1692
  730MOL0     C  623   4.961   5.573   8.342 -1.0486 -0.2077  0.0688
  730MOL0     C  624   4.983   5.651   8.209  0.0557  0.3455  0.5985
  730MOL0     C  625   5.089   5.591   8.118 -0.9791  0.7058  0.3171
  730MOL0     O  626   5.059   5.462   8.080 -0.3657  0.2439  0.1863
  730MOL0     C  627   4.966   5.417   7.988  0.2473  0.3857  0.5400
  730MOL0     C  628   4.967   5.280   7.942  0.3492 -0.0132  0.6413
  730MOL0     C  629   4.882   5.224   7.838  0.5838  0.7596  0.1214
  730MOL0     C  630   4.889   5.079   7.798 -0.9629  0.4703 -0.8357
  730MOL0     C  631   4.786   5.307   7.776 -0.3801 -0.3001 -0.0555
  730MOL0     C  632   4.703   5.280   7.656 -0.9266 -0.1843 -0.2354
  730MOL0     O  633   4.604   5.373   7.624 -0.9596 -0.1805  0.4186
  730MOL0     C  634   4.525   5.359   7.510  0.2612 -0.6515  0.3980
  730MOL0     C  635   4.394   5.302   7.531 -0.0967  0.1994  0.2026
  730MOL0     C  636   4.307   5.272   7.425  0.2532 -0.1890  1.2472
  730MOL0     C  637   4.348   5.306   7.295  0.4396 -0.4644  0.9576
  730MOL0     O  638   4.264   5.267   7.191  0.3575  0.3106 -0.8529
  730MOL0     C  639   4.232   5.367   7.097 -0.2531  0.1986 -0.5892
  730MOL0     C  640   4.131   5.319   6.993 -0.6229 -0.4594  0.4632
  730MOL0     C  641   3.996   5.361   7.037  0.0067 -0.1248 -0.3418
  730MOL0     C  642   3.902   5.351   6.912  0.2244 -0.1253 -0.3592
  730MOL0     C  643   3.837   5.208   6.893 -0.7523 -0.4649 -0.3133
  730MOL0     C  644   3.749   5.208   6.765  0.1697 -0.1371 -0.3363
  730MOL0     C  645   3.656   5.083   6.748 -0.8387  0.3486 -0.0100
  730MOL0     C  646   3.533   5.122   6.671 -0.7733 -0.0397 -0.5311
  730MOL0    Cl  647   3.433   5.256   6.726  0.4716 -0.1766 -0.1047
  730MOL0     C  648   4.471   5.370   7.269 -0.7569 -0.5331  0.0649
  730MOL0     C  649   4.560   5.398   7.384  0.1287  0.4664  0.5957
  730MOL0     O  650   4.747   5.197   7.574  0.2381 -0.2482  0.0826
  730MOL0     C  651   4.781   5.446   7.822 -0.0023  0.2286 -0.1598
  730MOL0     C  652   4.865   5.491   7.929  0.5017 -0.1776  0.3783
  730MOL0     N  653   4.739   5.833   8.430 -1.1621  0.7154  0.4997
  730MOL0     N  654   4.620   5.842   8.385 -0.4511 -0.3293 -0.3038
  730MOL0     C  655   3.648   5.362   7.807 -0.4795  0.4218 -0.4964
  730MOL0     C  656   3.554   5.278   7.751  0.2833 -0.7095 -0.3651
  730MOL0     C  657   3.190   4.964   7.728  0.0221 -0.1637  0.4939
  730MOL0     C  658   3.169   5.005   7.595  0.3856 -0.9917 -0.3919
  730MOL0     C  659   3.064   4.955   7.515 -0.7038  0.2936 -0.0882
  730MOL0     C  660   2.982   4.856   7.561 -0.3850  0.3546 -0.0378
  730MOL0     O  661   2.892   4.814   7.471 -0.1565 -0.3974  1.0388
  730MOL0     C  662   2.782   4.740   7.512  0.3108  0.7371  0.3605
  730MOL0     C  663   2.699   4.679   7.396  1.1968 -0.2405  0.4987
  730MOL0     C  664   2.557   4.623   7.449 -0.3667 -0.0542  0.8122
  730MOL0     C  665   2.498   4.537   7.341  1.0589 -0.7114  0.5379
  730MOL0     C  666   2.355   4.499   7.368  0.2897 -0.5675  0.1880
  730MOL0     C  667   2.243   4.466   7.387 -0.7661  0.3004  0.3550
  730MOL0     C  668   2.991   4.836   7.703  0.3832 -0.5051  0.4773
  730MOL0     C  669   3.090   4.887   7.785  0.0327 -0.0302  0.0319
  730MOL0     C  670   3.094   4.845   7.931 -0.2362  0.0025 -0.0685
  730MOL0     H  671   3.347   5.239   8.010 -1.4497  4.2166 -1.0427
  730MOL0     H  672   3.526   5.372   8.123 -0.1023 -1.5434  0.6052
  730MOL0     H  673   3.713   5.629   7.855 -1.2446 -1.8737 -0.0526
  730MOL0     H  674   3.874   5.563   7.880 -1.2009 -1.4796 -0.5205
  730MOL0     H  675   3.744   5.778   8.028  0.6390  0.3845 -1.3248
  730MOL0     H  676   3.784   5.642   8.136 -3.2908 -1.9346 -1.0665
  730MOL0     H  677   3.985   5.782   7.949 -2.6229  1.9093 -0.8223
  730MOL0     H  678   3.964   5.834   8.116  1.5974  0.5153  0.6483
  730MOL0     H  679   4.013   5.574   8.162  0.0372  0.5441  0.5107
  730MOL0     H  680   4.070   5.582   8.002 -0.7824 -1.0364 -0.3578
  730MOL0     H  681   4.160   5.761   8.229 -0.0409  4.0873 -2.2863
  730MOL0     H  682   4.230   5.776   8.067  2.6165  1.0729  1.3512
  730MOL0     H  683   4.251   5.534   8.262  4.3342 -0.8628  0.7589
  730MOL0     H  684   4.281   5.524   8.084  1.3024  1.5648 -0.6940
  730MOL0     H  685   4.454   5.706   8.138  1.9138 -1.6980 -1.0938
  730MOL0     H  686   4.487   5.543   8.197  0.5462  0.2765 -2.2059
  730MOL0     H  687   4.363   5.770   8.373 -0.1211  0.3130 -1.5943
  730MOL0     H  688   4.399   5.606   8.433 -1.0339 -0.7345 -0.7315
  730MOL0     H  689   4.667   5.520   8.402  0.0450  0.5209 -0.7615
  730MOL0     H  690   4.931   5.605   8.554 -3.1403 -1.6325 -0.6179
  730MOL0     H  691   4.990   5.746   8.468 -1.2283  2.1958 -0.2214
  730MOL0     H  692   5.055   5.523   8.367 -1.5377  0.1007  2.8293
  730MOL0     H  693   4.883   5.498   8.324 -1.5693  0.5019 -0.7810
  730MOL0     H  694   4.888   5.674   8.159  0.3792  1.3491  0.4301
  730MOL0     H  695   5.022   5.749   8.238 -0.0744 -0.0587  2.2801
  730MOL0     H  696   5.098   5.649   8.025 -0.0698 -3.0235 -2.1180
  730MOL0     H  697   5.185   5.576   8.167 -0.4085 -1.9386 -1.4145
  730MOL0     H  698   5.053   5.226   7.982  0.2912 -0.2591  0.4416
  730MOL0     H  699   4.936   5.018   7.875  1.5225  0.1404 -2.5090
  730MOL0     H  700   4.944   5.080   7.704 -4.1149  0.3489 -2.8462
  730MOL0     H  701   4.786   5.043   7.784 -1.5798  2.3902 -1.5891
  730MOL0     H  702   4.372   5.268   7.631  0.1657  1.8591  0.8554
  730MOL0     H  703   4.205   5.237   7.440 -0.8450  1.7067 -1.1054
  730MOL0     H  704   4.194   5.455   7.150 -2.1200 -0.8041 -0.1816
  730MOL0     H  705   4.323   5.393   7.041  2.1090  2.0021  3.6309
  730MOL0     H  706   4.157   5.370   6.900 -1.5445 -0.7355  0.0447
  730MOL0     H  707   4.141   5.210   6.984  1.9964 -0.1209 -2.7566
  730MOL0     H  708   3.993   5.465   7.069 -0.4513  1.0434 -3.7855
  730MOL0     H  709   3.970   5.291   7.117 -0.1730  0.0352 -0.2590
  730MOL0     H  710   3.942   5.388   6.817 -1.3788  3.6431  0.2527
  730MOL0     H  711   3.818   5.417   6.937  0.1968 -0.7310  1.2782
  730MOL0     H  712   3.908   5.126   6.876 -2.9544 -2.0145 -2.9929
  730MOL0     H  713   3.777   5.177   6.980 -1.8676 -0.4694 -1.0533
  730MOL0     H  714   3.813   5.224   6.677  1.5567 -3.1761 -0.0367
  730MOL0     H  715   3.690   5.299   6.771  3.8825  2.6338 -1.8263
  730MOL0     H  716   3.642   5.039   6.847  2.9663  0.9709  0.9917
  730MOL0     H  717   3.708   5.007   6.689  0.6855  1.4444 -0.1598
  730MOL0     H  718   3.476   5.028   6.672  0.4182 -1.0370  4.5352
  730MOL0     H  719   3.565   5.145   6.570 -0.8448  0.0305 -0.5374
  730MOL0     H  720   4.510   5.386   7.169 -0.9543 -0.4851 -0.0041
  730MOL0     H  721   4.655   5.447   7.363  0.9550 -2.3944 -3.4870
  730MOL0     H  722   4.713   5.519   7.779  0.2761 -0.8126 -2.5437
  730MOL0     H  723   4.856   5.594   7.962  2.1185  0.2321 -0.3454
  730MOL0     H  724   3.734   5.395   7.749 -0.3486  2.2660  0.6395
  730MOL0     H  725   3.563   5.253   7.646  0.6423 -0.4889 -0.3883
  730MOL0     H  726   3.237   5.076   7.550  0.1279 -0.4444  0.0677
  730MOL0     H  727   3.060   4.992   7.413 -1.3296 -1.8732 -0.8943
  730MOL0     H  728   2.810   4.654   7.575  0.1379  1.7568  1.8952
  730MOL0     H  729   2.713   4.789   7.581  2.5734  1.1971  2.4714
  730MOL0     H  730   2.754   4.594   7.355 -2.0395 -2.7784  1.0534
  730MOL0     H  731   2.681   4.754   7.318 -0.5442 -2.3776 -1.2838
  730MOL0     H  732   2.582   4.553   7.529  2.0503 -0.5323 -0.2910
  730MOL0     H  733   2.497   4.708   7.482 -1.9840  0.5254 -3.0964
  730MOL0     H  734   2.559   4.448   7.321  0.4263 -0.4667 -3.2101
  730MOL0     H  735   2.497   4.590   7.246  0.6440  0.0311  0.9431
  730MOL0     H  736   2.146   4.430   7.414 -0.2280 -2.5299 -1.2105
  730MOL0     H  737   2.912   4.772   7.743 -2.2363  1.1887 -1.6163
  730MOL0     H  738   3.184   4.792   7.964  1.3405  2.0649 -0.8035
  730MOL0     H  739   3.078   4.931   7.996  2.9407 -0.1518  1.0776
  730MOL0     H  740   3.011   4.778   7.954 -0.6991  0.8843  0.8656
  731MOL0     O  741  10.080   4.228   7.892 -0.0057 -0.6060  0.7623
  731MOL0     C  742   9.979   4.202   7.833 -0.1073 -0.4190 -0.1593
  731MOL0     O  743   9.936   4.080   7.797 -0.2714  0.0266 -0.7263
  731MOL0     C  744  10.023   3.975   7.764  0.1376  0.1026  0.0092
  731MOL0     C  745   9.967   3.845   7.747  0.1174 -0.6317 -0.7193
  731MOL0     C  746  10.050   3.735   7.712  0.4073 -0.6687 -0.1873
  731MOL0     C  747  10.189   3.747   7.711  0.1804  0.7251  0.1775
  731MOL0     O  748  10.264   3.644   7.681  0.1032 -0.1066  0.0421
  731MOL0     C  749  10.206   3.514   7.656 -0.7905 -0.0349  0.7279
  731MOL0     C  750  10.326   3.428   7.595  0.1586  0.0037 -0.7302
  731MOL0     C  751  10.463   3.439   7.659  0.0408 -0.3447 -0.3553
  731MOL0     C  752  10.559   3.328   7.600  0.2152 -0.5995 -0.3189
  731MOL0     C  753  10.687   3.311   7.687 -1.2091  0.1049 -0.4490
  731MOL0     C  754  10.785   3.206   7.625  0.3363 -0.2005  0.2852
  731MOL0     C  755  10.895   3.178   7.721 -0.3086 -1.1388 -0.5466
  731MOL0     C  756  10.988   3.066   7.664  0.4630 -0.0810 -0.5791
  731MOL0     N  757  10.928   2.929   7.668 -0.0356  0.3773  0.0539
  731MOL0     C  758  10.918   2.852   7.783  0.7473 -0.6064  0.4679
  731MOL0     C  759  10.841   2.751   7.747  0.0325  0.1342  0.3565
  731MOL0     C  760  10.791   2.633   7.831  0.9781  1.0806 -0.7113
  731MOL0     C  761  10.728   2.683   7.957  0.1353 -0.5045  0.0381
  731MOL0     C  762  10.617   2.783   7.939 -0.3693  0.2744 -0.6326
  731MOL0     C  763  10.537   2.814   8.071 -0.7178  0.2414  0.5854
  731MOL0     O  764  10.615   2.869   8.185  0.3101  0.8846  0.4133
  731MOL0     C  765  10.687   2.984   8.162  0.7888 -0.1959  0.2842
  731MOL0     C  766  10.824   2.978   8.173  0.2961 -0.0282  0.4053
  731MOL0     C  767  10.908   3.086   8.128  0.4925  0.6087 -0.0094
  731MOL0     C  768  11.051   3.060   8.127  0.6321 -0.2518 -0.4097
  731MOL0     C  769  10.847   3.203   8.087 -0.0307 -0.0575 -0.4157
  731MOL0     C  770  10.921   3.330   8.048 -0.6059 -0.1055  0.0253
  731MOL0     O  771  10.883   3.380   7.933 -0.2219  0.0610  0.0931
  731MOL0     C  772  10.935   3.501   7.909  0.2641 -0.9827  0.3301
  731MOL0     C  773  10.841   3.603   7.893  0.3766  0.3323  0.2397
  731MOL0     C  774  10.876   3.728   7.842 -0.2047 -0.9441  0.0552
  731MOL0     C  775  11.010   3.759   7.822 -0.1189  0.0009  0.0193
  731MOL0     O  776  11.055   3.886   7.789 -0.0857  1.1470 -0.2784
  731MOL0     C  777  11.012   3.929   7.663  0.3545  0.1415  0.2069
  731MOL0     C  778  11.113   3.913   7.538  0.4752 -0.9407 -1.5531
  731MOL0     C  779  11.251   3.884   7.578 -0.7622 -0.2008 -0.2812
  731MOL0     C  780  11.340   3.920   7.458 -0.5266  0.2636 -0.4901
  731MOL0     C  781  11.488   3.881   7.481  0.7395  0.3861 -0.0705
  731MOL0     C  782  11.568   3.906   7.345 -0.3293  0.0838  1.2081
  731MOL0     C  783  11.644   4.040   7.352  0.3971  1.1894 -0.0288
  731MOL0     C  784  11.712   4.081   7.221  0.1532 -0.2937  0.8856
  731MOL0    Cl  785  11.584   4.108   7.097 -0.2831  0.2460  0.1149
  731MOL0     C  786  11.106   3.658   7.829  0.3670 -0.0577 -1.2932
  731MOL0     C  787  11.067   3.532   7.865 -0.0661  0.1965 -0.6672
  731MOL0     O  788  11.035   3.349   8.096  0.4813 -0.3070 -0.1317
  731MOL0     C  789  10.707   3.214   8.085  0.9109 -0.0407  0.1120
  731MOL0     C  790  10.630   3.096   8.115 -0.9843  0.2038  0.0231
  731MOL0     N  791  10.797   2.766   7.617 -0.3397 -0.4640  0.5465
  731MOL0     N  792  10.851   2.873   7.564  0.0274  0.4272  0.7490
  731MOL0     C  793  10.245   3.868   7.738 -0.0243  0.3224  0.6417
  731MOL0     C  794  10.164   3.983   7.759 -0.5806 -0.1495  1.1456
  731MOL0     C  795   9.882   4.304   7.797 -0.1216 -0.1159 -0.1735
  731MOL0     C  796   9.710   4.241   7.707  0.1540 -0.0747 -0.3739
  731MOL0     C  797   9.568   4.383   7.632  0.0737 -0.1627  0.1696
  731MOL0     C  798   9.604   4.591   7.661  0.4500 -0.0592  0.4769
  731MOL0     O  799   9.510   4.688   7.617 -0.0959  0.4535  0.5037
  731MOL0     C  800   9.388   4.636   7.565  0.2618 -0.3457  0.1217
  731MOL0     C  801   9.275   4.735   7.588 -0.2829 -0.5953  0.6674
  731MOL0     C  802   9.297   4.870   7.513 -0.1081 -0.2077  0.2759
  731MOL0     C  803   9.155   4.926   7.486  0.3135 -0.0720 -0.0977
  731MOL0     C  804   9.160   5.056   7.418  0.9538  0.6540  0.4992
  731MOL0     C  805   9.156   5.162   7.362  0.3401  0.1926 -0.3364
  731MOL0     C  806   9.780   4.656   7.760 -1.0583  0.5165  0.0086
  731MOL0     C  807   9.920   4.508   7.830 -0.4555 -0.8348  0.3299
  731MOL0     C  808  10.061   4.550   7.890  0.7703  0.6980 -0.1147
  731MOL0     H  809   9.859   3.841   7.760  0.3516 -0.2902  1.7817
  731MOL0     H  810   9.999   3.641   7.695 -1.2761  0.0533  0.5549
  731MOL0     H  811  10.124   3.522   7.584 -0.5379  5.0572  0.6189
  731MOL0     H  812  10.172   3.471   7.751  1.8533 -0.4556  1.5598
  731MOL0     H  813  10.303   3.322   7.587  3.3442 -0.6495 -4.0228
  731MOL0     H  814  10.330   3.459   7.490  1.1258 -3.1061 -1.7107
  731MOL0     H  815  10.498   3.542   7.648 -0.1267 -0.1101  1.0669
  731MOL0     H  816  10.466   3.420   7.767  2.2407  1.3670 -0.0379
  731MOL0     H  817  10.525   3.226   7.584  3.1303 -1.3612 -2.6602
  731MOL0     H  818  10.594   3.346   7.498  0.8586 -0.6670 -0.1168
  731MOL0     H  819  10.653   3.268   7.782  1.2506 -0.0261  0.4355
  731MOL0     H  820  10.734   3.410   7.695 -2.5132  0.5677  3.4830
  731MOL0     H  821  10.728   3.114   7.608  1.0931 -0.5719 -0.3241
  731MOL0     H  822  10.821   3.238   7.527 -3.8428 -0.6594 -1.5882
  731MOL0     H  823  10.852   3.155   7.819  0.5412 -1.8941 -0.3311
  731MOL0     H  824  10.946   3.275   7.719  0.5955 -1.6102 -0.6252
  731MOL0     H  825  11.019   3.088   7.562  0.7580  0.3855 -0.3918
  731MOL0     H  826  11.071   3.066   7.736 -0.7493 -0.2396  0.8677
  731MOL0     H  827  10.954   2.858   7.885 -0.1245 -0.7282  0.7916
  731MOL0     H  828  10.877   2.566   7.845 -1.2039 -2.1502 -1.6799
  731MOL0     H  829  10.724   2.565   7.777 -1.5696  0.9799  2.3095
  731MOL0     H  830  10.689   2.594   8.006  0.9388  0.6707  3.0181
  731MOL0     H  831  10.800   2.726   8.028  2.0115 -2.0684 -0.8283
  731MOL0     H  832  10.658   2.877   7.898 -0.2648  0.1492 -0.8174
  731MOL0     H  833  10.535   2.753   7.873  0.2546 -1.0386 -0.8491
  731MOL0     H  834  10.467   2.896   8.050  0.1642  1.1076  0.9807
  731MOL0     H  835  10.489   2.722   8.107 -1.4679  0.3971  0.0180
  731MOL0     H  836  10.884   2.893   8.206  0.0409  0.4867  2.3529
  731MOL0     H  837  11.100   3.121   8.051  0.7647  0.1259 -0.0263
  731MOL0     H  838  11.074   2.958   8.092 -1.7734 -0.7125 -0.8244
  731MOL0     H  839  11.096   3.087   8.223 -0.4679  1.5555 -0.3549
  731MOL0     H  840  10.735   3.585   7.912 -0.2291  1.0813 -2.0428
  731MOL0     H  841  10.801   3.806   7.844  0.1761 -0.5808  1.8050
  731MOL0     H  842  10.908   3.900   7.649 -1.2594  3.1769  3.9868
  731MOL0     H  843  11.011   4.038   7.680 -0.6671 -0.1304  2.1718
  731MOL0     H  844  11.069   3.829   7.482 -2.7843 -1.7050  1.7432
  731MOL0     H  845  11.095   4.010   7.490 -3.2465  0.0281  1.3053
  731MOL0     H  846  11.265   3.780   7.609 -0.7643  0.2748  1.4390
  731MOL0     H  847  11.281   3.958   7.653  2.3086  0.5952 -2.1157
  731MOL0     H  848  11.334   4.028   7.443 -2.0356  0.8055  3.0328
  731MOL0     H  849  11.302   3.857   7.378 -2.8019  0.1943  0.5694
  731MOL0     H  850  11.523   3.950   7.558  1.1041  1.8977 -1.5198
  731MOL0     H  851  11.492   3.777   7.516 -0.1094  0.5758  0.6127
  731MOL0     H  852  11.496   3.910   7.263 -0.4458 -3.0993  1.0076
  731MOL0     H  853  11.625   3.813   7.339  0.5856  0.6958  0.0709
  731MOL0     H  854  11.708   4.036   7.441 -2.1259  1.6141  1.9138
  731MOL0     H  855  11.570   4.118   7.373 -0.9453  0.4575 -1.8043
  731MOL0     H  856  11.779   4.003   7.183 -0.7212  0.7585 -3.3462
  731MOL0     H  857  11.765   4.176   7.231 -1.2047  0.5391  0.3937
  731MOL0     H  858  11.213   3.672   7.835  0.2039  0.4461  1.6494
  731MOL0     H  859  11.134   3.446   7.873  0.9839  0.8844 -1.7028
  731MOL0     H  860  10.671   3.309   8.046  3.7172  1.3851  0.7243
  731MOL0     H  861  10.523   3.107   8.101 -0.9209 -0.0094 -0.6998
  731MOL0     H  862  10.352   3.883   7.747 -0.1194  2.2505 -0.7885
  731MOL0     H  863  10.225   4.071   7.776  1.1440 -1.2084  0.6583
  731MOL0     H  864   9.699   4.134   7.692  1.1346 -0.4610  1.3866
  731MOL0     H  865   9.485   4.343   7.575  0.2020 -0.5376  0.2399
  731MOL0     H  866   9.398   4.620   7.457  0.1525 -0.0393  0.0657
  731MOL0     H  867   9.356   4.543   7.612  1.8283  0.3569  2.8338
  731MOL0     H  868   9.254   4.753   7.694 -3.9272  1.1097 -0.1819
  731MOL0     H  869   9.184   4.687   7.550  0.1602 -0.9989  0.0999
  731MOL0     H  870   9.362   4.939   7.569 -1.0729  2.2802 -1.4823
  731MOL0     H  871   9.340   4.863   7.413  1.3474  3.0151  0.5398
  731MOL0     H  872   9.114   4.938   7.587 -3.0388 -1.1384 -1.2094
  731MOL0     H  873   9.087   4.856   7.437  1.0122 -0.0663 -1.1124
  731MOL0     H  874   9.176   5.247   7.300  2.6925  2.2480  2.9060
  731MOL0     H  875   9.790   4.764   7.766 -1.0756  0.8342 -3.7334
  731MOL0     H  876  10.106   4.473   7.953 -0.9786 -0.8682 -0.7089
  731MOL0     H  877  10.131   4.586   7.813  2.9160  0.0731  1.4471
  731MOL0     H  878  10.038   4.633   7.958 -1.1112  0.7919 -0.8077
  732MOL0     O  879   1.864   1.278   6.239  0.0077 -0.2066 -0.5223
  732MOL0     C  880   1.847   1.163   6.283  0.8601 -0.1910 -0.0148
  732MOL0     O  881   1.947   1.069   6.279 -0.2680  0.0112 -0.3730
  732MOL0     C  882   2.074   1.110   6.266 -0.1960 -0.2089  0.2204
  732MOL0     C  883   2.153   1.016   6.189 -0.2726 -0.0408  0.0327
  732MOL0     C  884   2.290   1.039   6.177 -0.4974 -0.4924  0.2764
  732MOL0     C  885   2.350   1.145   6.255 -0.3574  0.3715  0.9998
  732MOL0     O  886   2.487   1.163   6.254 -0.4659  0.1527 -0.0240
  732MOL0     C  887   2.562   1.171   6.135  0.5793 -0.5609  0.4576
  732MOL0     C  888   2.669   1.062   6.145 -0.0862  0.0993  0.1320
  732MOL0     C  889   2.768   1.094   6.259  0.5830  0.2362 -0.9021
  732MOL0     C  890   2.905   1.022   6.248 -0.6337  0.0754  0.3683
  732MOL0     C  891   2.993   1.038   6.366  0.2979  0.9331 -0.3425
  732MOL0     C  892   3.132   0.967   6.336 -0.0506  0.4254  0.1472
  732MOL0     C  893   3.237   0.997   6.444 -0.5300  1.3585  0.6192
  732MOL0     C  894   3.374   0.934   6.394 -0.4814 -0.9070  0.4015
  732MOL0     N  895   3.484   1.004   6.462  0.1037  0.4144 -0.0503
  732MOL0     C  896   3.507   0.984   6.594 -0.3345  0.0359  0.0603
  732MOL0     C  897   3.589   1.089   6.617  0.9185 -0.0180 -0.6874
  732MOL0     C  898   3.655   1.103   6.756  0.2380 -1.2813  0.0327
  732MOL0     C  899   3.777   1.210   6.755 -0.0977 -0.4274 -0.2850
  732MOL0     C  900   3.908   1.139   6.720 -0.0317 -0.5213  0.3240
  732MOL0     C  901   3.961   1.056   6.841 -0.4053 -0.0973 -0.3929
  732MOL0     O  902   4.056   0.957   6.805  0.0896 -0.3048  0.3818
  732MOL0     C  903   4.097   0.868   6.904 -0.0924  0.0955  0.3874
  732MOL0     C  904   4.051   0.864   7.037  0.4961  0.3367  0.1712
  732MOL0     C  905   4.110   0.778   7.141  0.4568  0.8122  0.5375
  732MOL0     C  906   4.052   0.812   7.282  0.6619 -0.3261 -1.3154
  732MOL0     C  907   4.216   0.689   7.102 -0.0222  1.2978 -0.0794
  732MOL0     C  908   4.300   0.613   7.188 -0.5454  0.3388  0.1138
  732MOL0     O  909   4.351   0.498   7.142  0.5470 -0.6853  0.5751
  732MOL0     C  910   4.422   0.432   7.240 -0.1586 -0.7910  0.7616
  732MOL0     C  911   4.556   0.409   7.203 -0.0371  0.1768  0.0718
  732MOL0     C  912   4.644   0.343   7.292  0.0550  0.4448 -0.5599
  732MOL0     C  913   4.594   0.289   7.420 -0.5153 -0.4104  1.0962
  732MOL0     O  914   4.676   0.229   7.512  0.4043 -0.0754 -0.1443
  732MOL0     C  915   4.822   0.241   7.507  0.6218  0.2628  0.5524
  732MOL0     C  916   4.874   0.133   7.602  0.9749  0.4777 -0.0491
  732MOL0     C  917   5.013   0.174   7.669  0.0163  0.9997  0.4885
  732MOL0     C  918   5.024   0.125   7.809 -0.2162  0.0061 -0.4869
  732MOL0     C  919   5.042  -0.023   7.831  0.2439 -0.7450 -0.2741
  732MOL0     C  920   4.918  -0.093   7.895  0.2964  0.2369 -0.8473
  732MOL0     C  921   4.907  -0.249   7.885  0.5414 -0.1373 -0.5288
  732MOL0     C  922   4.773  -0.305   7.949  0.2901  0.7067  0.5289
  732MOL0    Cl  923   4.747  -0.280   8.123  0.5919 -0.0007  0.0737
  732MOL0     C  924   4.458   0.315   7.449  0.9376  0.0386 -0.1456
  732MOL0     C  925   4.377   0.377   7.357  0.0185  0.0526  0.2660
  732MOL0     O  926   4.324   0.658   7.299  0.5541  0.1356  0.2942
  732MOL0     C  927   4.258   0.686   6.971  0.4440 -1.2068  1.0320
  732MOL0     C  928   4.201   0.776   6.877  0.5166 -0.0976  0.3807
  732MOL0     N  929   3.601   1.172   6.502 -0.2786  0.4748 -0.6498
  732MOL0     N  930   3.536   1.120   6.417 -0.2357  0.5837 -0.4582
  732MOL0     C  931   2.277   1.239   6.325  0.3371  0.5345 -0.0200
  732MOL0     C  932   2.137   1.220   6.326 -0.2798  0.3739 -0.0228
  732MOL0     C  933   1.708   1.122   6.320 -0.1548 -0.0683 -0.5945
  732MOL0     C  934   1.667   0.989   6.299 -0.3766  0.2570 -0.7416
  732MOL0     C  935   1.548   0.931   6.343  0.1601 -0.4547  0.2557
  732MOL0     C  936   1.446   1.014   6.394 -0.4006  0.6632  0.8050
  732MOL0     O  937   1.321   0.973   6.433 -0.2068  1.2201  0.0646
  732MOL0     C  938   1.290   0.824   6.423  0.6500 -0.7592  0.0362
  732MOL0     C  939   1.132   0.802   6.423  1.0209  0.2390 -0.2405
  732MOL0     C  940   1.064   0.824   6.289 -0.3045  0.2195  0.2227
  732MOL0     C  941   0.998   0.956   6.259 -0.0730  0.7521 -0.5587
  732MOL0     C  942   0.865   0.979   6.313 -0.3154  0.5027 -0.6277
  732MOL0     C  943   0.750   0.979   6.354 -0.5833 -0.5139 -0.2443
  732MOL0     C  944   1.478   1.152   6.413 -0.4201 -0.0663 -0.6540
  732MOL0     C  945   1.613   1.202   6.385  0.1401  0.3503 -0.4242
  732MOL0     C  946   1.645   1.351   6.431 -0.2391  0.0627  0.2511
  732MOL0     H  947   2.106   0.928   6.147 -0.1860 -0.3142  0.4951
  732MOL0     H  948   2.360   0.975   6.124 -3.0302 -1.9630 -1.5739
  732MOL0     H  949   2.607   1.270   6.131  1.2837 -0.8374  1.1869
  732MOL0     H  950   2.500   1.153   6.047 -0.5462 -0.2370  1.1615
  732MOL0     H  951   2.620   0.966   6.167 -1.0179 -0.2908 -3.0850
  732MOL0     H  952   2.709   1.039   6.046 -4.2240 -1.2350 -1.4493
  732MOL0     H  953   2.787   1.201   6.269  3.1002 -0.3707  2.3567
  732MOL0     H  954   2.718   1.073   6.354 -0.0014  1.4989 -0.9151
  732MOL0     H  955   2.877   0.917   6.232 -0.8253  0.4255 -1.7797
  732MOL0     H  956   2.961   1.048   6.158 -1.1031 -0.2441 -0.0186
  732MOL0     H  957   2.959   0.993   6.460  0.9488  2.8672  0.8780
  732MOL0     H  958   3.012   1.143   6.391  0.2942  0.8912 -0.1629
  732MOL0     H  959   3.120   0.861   6.311 -2.6530  0.7913 -0.3833
  732MOL0     H  960   3.179   1.005   6.244  1.6538  0.3646  0.9570
  732MOL0     H  961   3.200   0.944   6.532 -3.0330  3.0727  0.7280
  732MOL0     H  962   3.246   1.103   6.468  1.4104  1.0368  1.4569
  732MOL0     H  963   3.378   0.827   6.416 -2.6830 -1.1045  0.0823
  732MOL0     H  964   3.377   0.947   6.286  1.2911  1.2437  0.6411
  732MOL0     H  965   3.472   0.908   6.664 -2.1588 -0.2958 -1.1419
  732MOL0     H  966   3.689   1.000   6.771  2.6354 -0.6864 -0.8522
  732MOL0     H  967   3.586   1.111   6.841  0.7715 -1.0462  0.4535
  732MOL0     H  968   3.752   1.285   6.680 -0.7688 -0.4476 -0.0896
  732MOL0     H  969   3.778   1.249   6.857  1.5410 -2.1392  0.4067
  732MOL0     H  970   3.881   1.073   6.637  3.8069 -3.5451  1.1746
  732MOL0     H  971   3.986   1.210   6.689 -0.2073  0.0643  1.2027
  732MOL0     H  972   4.017   1.120   6.910  0.8364 -0.6098 -0.8976
  732MOL0     H  973   3.886   1.010   6.906  1.3789  1.8347  3.3279
  732MOL0     H  974   3.987   0.942   7.076  0.4979 -0.9578  2.9987
  732MOL0     H  975   4.105   0.899   7.323 -0.7278 -0.4490  0.9016
  732MOL0     H  976   4.062   0.729   7.352 -2.1941  0.5215  0.2421
  732MOL0     H  977   3.948   0.841   7.271  0.4594 -0.4359  0.0323
  732MOL0     H  978   4.604   0.451   7.115 -0.6253  1.5900  0.3873
  732MOL0     H  979   4.750   0.329   7.275  0.4268  0.4549  1.5164
  732MOL0     H  980   4.870   0.220   7.411  2.1591  0.9405  1.1537
  732MOL0     H  981   4.848   0.339   7.547  3.9850 -0.0861 -0.5247
  732MOL0     H  982   4.799   0.122   7.681 -0.5123 -0.3855 -1.5124
  732MOL0     H  983   4.881   0.036   7.553  0.7115 -0.7787  2.2506
  732MOL0     H  984   5.026   0.282   7.672  3.0856  0.6972  1.3920
  732MOL0     H  985   5.088   0.130   7.603 -2.5202 -0.9776 -1.2819
  732MOL0     H  986   4.933   0.157   7.860  0.4102 -0.1541  0.7711
  732MOL0     H  987   5.105   0.174   7.864  0.6117 -2.1264  0.2906
  732MOL0     H  988   5.054  -0.064   7.730 -2.8301 -1.1163 -0.5643
  732MOL0     H  989   5.133  -0.055   7.883  0.8375  1.6859  0.3344
  732MOL0     H  990   4.833  -0.057   7.837  1.1953  0.2518 -2.1931
  732MOL0     H  991   4.894  -0.070   7.999 -1.9808  0.4472 -1.3836
  732MOL0     H  992   4.988  -0.305   7.932  0.4015 -1.3559 -1.6783
  732MOL0     H  993   4.905  -0.270   7.778  1.0193  0.7637 -0.7278
  732MOL0     H  994   4.771  -0.411   7.923 -3.6619  0.4597  1.1309
  732MOL0     H  995   4.689  -0.270   7.887  2.4950  0.7127 -2.7314
  732MOL0     H  996   4.409   0.284   7.540 -0.7630  0.9688 -0.6875
  732MOL0     H  997   4.272   0.395   7.382 -0.4745  0.9539 -2.1588
  732MOL0     H  998   4.349   0.630   6.952  1.9954  0.3875  3.3014
  732MOL0     H  999   4.227   0.776   6.772  1.3187  1.9474  0.5334
  732MOL0     H 1000   2.319   1.312   6.393  0.3985  0.3698  0.1197
  732MOL0     H 1001   2.086   1.292   6.389  1.3422  1.7913 -0.2508
  732MOL0     H 1002   1.743   0.920   6.262  1.5009  0.1968  2.7377
  732MOL0     H 1003   1.521   0.827   6.328 -1.8522  0.3687 -3.2838
  732MOL0     H 1004   1.317   0.782   6.326  1.0043  0.3155 -0.3409
  732MOL0     H 1005   1.338   0.761   6.498 -0.5769 -0.8837  0.7519
  732MOL0     H 1006   1.079   0.856   6.502  0.9579 -2.3062  1.5695
  732MOL0     H 1007   1.130   0.699   6.461  3.1162  0.5443  0.8690
  732MOL0     H 1008   1.138   0.810   6.209 -0.0406 -0.7691  0.6202
  732MOL0     H 1009   0.984   0.750   6.275  0.3592 -1.1668  3.0305
  732MOL0     H 1010   0.996   0.970   6.151  1.1681  1.5970 -0.4937
  732MOL0     H 1011   1.067   1.031   6.299  0.5983 -0.3059  0.3615
  732MOL0     H 1012   0.650   0.990   6.391 -0.3439  0.8614  0.0574
  732MOL0     H 1013   1.407   1.223   6.454  1.6581  1.7845 -0.0279
  732MOL0     H 1014   1.556   1.389   6.481 -1.4308  0.4825 -2.0363
  732MOL0     H 1015   1.725   1.351   6.506 -0.7029  3.2323  0.8894
  732MOL0     H 1016   1.674   1.420   6.352  0.7052  0.4132  0.8870
  733MOL0     O 1017  10.255   8.426   5.618  0.0366  0.3636 -0.7425
  733MOL0     C 1018  10.193   8.449   5.512  0.0456  0.3901  0.1605
  733MOL0     O 1019  10.226   8.541   5.419  0.0278 -0.1402 -0.9426
  733MOL0     C 1020  10.354   8.578   5.418  0.4883  0.1166 -0.2853
  733MOL0     C 1021  10.471   8.502   5.430  0.1628  0.1865  0.1092
  733MOL0     C 1022  10.602   8.552   5.391  0.9193 -0.0636 -0.6206
  733MOL0     C 1023  10.618   8.689   5.359 -0.4247 -0.8392  0.1205
  733MOL0     O 1024  10.742   8.756   5.338  0.1066  0.1698  0.1327
  733MOL0     C 1025  10.846   8.672   5.282 -0.1433 -0.8290  0.3783
  733MOL0     C 1026  10.979   8.749   5.293  0.1943 -0.2164 -0.4990
  733MOL0     C 1027  11.019   8.767   5.439  0.1058  0.6412 -0.5985
  733MOL0     C 1028  11.177   8.755   5.455 -0.3300  0.1112  0.0476
  733MOL0     C 1029  11.232   8.827   5.576 -0.2917 -0.4476 -0.0075
  733MOL0     C 1030  11.345   8.740   5.633  0.4357 -0.2557  0.6591
  733MOL0     C 1031  11.439   8.820   5.716  0.9249 -0.1704 -0.0271
  733MOL0     C 1032  11.428   8.782   5.865 -0.3659 -0.3281 -0.0458
  733MOL0     N 1033  11.436   8.629   5.890 -0.2840 -0.0630 -0.1083
  733MOL0     C 1034  11.522   8.545   5.823  0.5692  0.3149  0.7740
  733MOL0     C 1035  11.511   8.420   5.883 -0.2401 -0.6634 -0.1855
  733MOL0     C 1036  11.592   8.293   5.858 -0.7640  0.7232  0.1089
  733MOL0     C 1037  11.616   8.266   5.711  0.0961  0.1918 -0.0431
  733MOL0     C 1038  11.485   8.258   5.625  0.1640 -0.0735 -0.4511
  733MOL0     C 1039  11.508   8.225   5.473 -0.5328 -0.1193 -0.3246
  733MOL0     O 1040  11.579   8.102   5.456 -0.1826  0.0723  0.2699
  733MOL0     C 1041  11.699   8.100   5.397  0.2108  0.2105 -0.3001
  733MOL0     C 1042  11.769   8.209   5.333 -0.1847  0.7608  0.1253
  733MOL0     C 1043  11.903   8.208   5.281  0.3841  0.3654  0.2470
  733MOL0     C 1044  11.966   8.328   5.221  0.1726 -0.0655  0.1368
  733MOL0     C 1045  11.977   8.083   5.296  0.4761 -0.7014 -1.0162
  733MOL0     C 1046  12.116   8.063   5.250 -0.1923 -0.7437 -0.8887
  733MOL0     O 1047  12.157   7.934   5.219 -0.1413  0.3293  0.2044
  733MOL0     C 1048  12.284   7.897   5.186 -0.1991 -0.5151 -0.3415
  733MOL0     C 1049  12.379   7.988   5.125 -0.0060 -0.4363  0.5402
  733MOL0     C 1050  12.513   7.938   5.110  0.0485 -0.2843 -0.1006
  733MOL0     C 1051  12.542   7.809   5.127  0.4280  0.9684  0.9012
  733MOL0     O 1052  12.678   7.776   5.105  0.0601 -0.5429  0.5304
  733MOL0     C 1053  12.728   7.648   5.125  0.1760 -0.2461 -0.7424
  733MOL0     C 1054  12.739   7.609   5.274 -0.3887  0.1228 -0.0252
  733MOL0     C 1055  12.795   7.464   5.284 -0.4496 -0.3176  1.2473
  733MOL0     C 1056  12.946   7.460   5.267 -0.9487  0.2909 -0.5604
  733MOL0     C 1057  13.012   7.323   5.301  0.9380 -0.3738 -0.5505
  733MOL0     C 1058  13.163   7.333   5.297 -0.1392  0.2482  0.2179
  733MOL0     C 1059  13.229   7.209   5.236 -0.2862 -0.3223  0.4101
  733MOL0     C 1060  13.381   7.220   5.207  0.5908 -0.2774 -0.1102
  733MOL0    Cl 1061  13.441   7.225   5.374 -0.3817 -0.5752 -0.0725
  733MOL0     C 1062  12.443   7.714   5.181  0.7085  0.3388  0.3650
  733MOL0     C 1063  12.314   7.763   5.208 -0.8040  0.3606  0.0690
  733MOL0     O 1064  12.193   8.158   5.265  0.0832  0.2575 -0.6645
  733MOL0     C 1065  11.905   7.965   5.350  0.1024  0.3186  0.6888
  733MOL0     C 1066  11.771   7.982   5.404 -0.4168  0.5221 -0.5644
  733MOL0     N 1067  11.418   8.436   5.985  0.7737  0.5317  0.1148
  733MOL0     N 1068  11.371   8.560   5.986 -0.4758 -0.1247  1.0937
  733MOL0     C 1069  10.508   8.770   5.374 -0.3746 -0.0265  0.9380
  733MOL0     C 1070  10.374   8.716   5.388  0.0533 -0.2837 -0.0329
  733MOL0     C 1071  10.060   8.378   5.486 -0.0242 -0.4817 -0.4973
  733MOL0     C 1072  10.018   8.363   5.356  0.7893  0.6977  0.1567
  733MOL0     C 1073   9.905   8.298   5.321  0.2160  0.4780  0.8833
  733MOL0     C 1074   9.812   8.253   5.416 -0.2924  0.5797 -0.4644
  733MOL0     O 1075   9.698   8.188   5.387  0.4476 -0.2073 -0.0014
  733MOL0     C 1076   9.603   8.249   5.311  1.0134 -0.0230  0.5615
  733MOL0     C 1077   9.483   8.156   5.307  0.3432 -0.3492 -0.2184
  733MOL0     C 1078   9.364   8.224   5.262  0.3000 -0.0212 -0.2930
  733MOL0     C 1079   9.244   8.132   5.274 -0.4922  0.6235  0.6018
  733MOL0     C 1080   9.133   8.181   5.188  0.0568  1.2254 -0.2167
  733MOL0     C 1081   9.052   8.234   5.111  0.2601  0.7126 -0.1706
  733MOL0     C 1082   9.849   8.268   5.551  0.5254 -0.2268  0.2945
  733MOL0     C 1083   9.976   8.317   5.589 -0.6258  0.4951  0.7410
  733MOL0     C 1084  10.004   8.333   5.733  0.1664  0.8521 -1.2813
  733MOL0     H 1085  10.456   8.397   5.450  1.5297 -0.0503 -0.0218
  733MOL0     H 1086  10.680   8.477   5.403 -0.1069 -1.3226 -1.5514
  733MOL0     H 1087  10.837   8.666   5.173 -1.8675 -2.4137  0.5659
  733MOL0     H 1088  10.858   8.573   5.327  0.3225 -1.4362 -1.0277
  733MOL0     H 1089  11.048   8.687   5.235 -0.2906 -0.3068 -0.9857
  733MOL0     H 1090  10.966   8.846   5.244 -2.9065 -0.5261 -0.4993
  733MOL0     H 1091  10.987   8.868   5.467  1.8171  0.8411  0.8387
  733MOL0     H 1092  10.974   8.697   5.510  0.6393  1.1780  0.2848
  733MOL0     H 1093  11.198   8.648   5.462 -2.3382 -0.2169  2.7753
  733MOL0     H 1094  11.227   8.781   5.362  0.3719 -0.5727  0.2252
  733MOL0     H 1095  11.157   8.852   5.651 -1.3588  3.8766 -2.2341
  733MOL0     H 1096  11.262   8.929   5.551 -4.5195  0.5831 -1.7281
  733MOL0     H 1097  11.297   8.655   5.683  1.8025 -2.2427 -1.2432
  733MOL0     H 1098  11.402   8.700   5.549 -1.1735  1.5082 -1.3836
  733MOL0     H 1099  11.422   8.928   5.704 -0.0745 -0.5126 -2.1525
  733MOL0     H 1100  11.545   8.807   5.697  1.1880 -0.8383  1.7213
  733MOL0     H 1101  11.524   8.812   5.908  0.4506 -0.1125 -1.9218
  733MOL0     H 1102  11.343   8.822   5.921  2.3072  1.5357  3.0396
  733MOL0     H 1103  11.590   8.571   5.742 -2.4698  0.4107 -1.9300
  733MOL0     H 1104  11.537   8.206   5.896 -0.4405  0.2291 -0.5339
  733MOL0     H 1105  11.687   8.301   5.913 -0.3412  0.7865 -0.6189
  733MOL0     H 1106  11.682   8.347   5.680  0.9441 -0.3757  0.2384
  733MOL0     H 1107  11.676   8.174   5.703 -0.5644 -0.2175 -0.3688
  733MOL0     H 1108  11.416   8.184   5.666  0.2750  0.1538  0.1506
  733MOL0     H 1109  11.429   8.352   5.624  1.6938  0.9062 -2.1552
  733MOL0     H 1110  11.410   8.200   5.432  0.4756 -3.6921 -0.8951
  733MOL0     H 1111  11.562   8.312   5.434  0.0616  0.6626  2.0757
  733MOL0     H 1112  11.721   8.306   5.328  2.6634  2.2252 -2.3576
  733MOL0     H 1113  12.023   8.375   5.301  0.8584 -1.8379  0.7347
  733MOL0     H 1114  11.892   8.398   5.181  1.4793  2.4585  1.8556
  733MOL0     H 1115  12.026   8.301   5.133 -0.6208  1.4159 -0.8968
  733MOL0     H 1116  12.347   8.086   5.091  1.1595 -0.3411 -0.3805
  733MOL0     H 1117  12.590   8.004   5.072  2.2515 -1.6404  1.7459
  733MOL0     H 1118  12.658   7.582   5.073 -1.2381 -0.1856  0.9865
  733MOL0     H 1119  12.831   7.628   5.094 -0.0270 -2.7442 -0.0352
  733MOL0     H 1120  12.786   7.684   5.339 -1.5783 -1.7930  3.3155
  733MOL0     H 1121  12.638   7.607   5.316  0.1435  0.9844  1.3625
  733MOL0     H 1122  12.746   7.394   5.215  2.0705 -2.3952  1.3746
  733MOL0     H 1123  12.782   7.420   5.383  4.0060 -2.4986  1.1294
  733MOL0     H 1124  12.981   7.529   5.344  2.3955 -0.0765 -1.5782
  733MOL0     H 1125  12.977   7.484   5.165  0.0877 -1.2054 -0.6314
  733MOL0     H 1126  12.972   7.281   5.393 -2.8054 -2.2619 -2.7741
  733MOL0     H 1127  12.976   7.258   5.221  1.4396 -0.8722 -0.3741
  733MOL0     H 1128  13.191   7.334   5.403  0.8340 -0.6053 -0.0108
  733MOL0     H 1129  13.199   7.429   5.258 -2.6819  1.6200  1.0615
  733MOL0     H 1130  13.181   7.185   5.140  1.4758 -1.6651 -0.1947
  733MOL0     H 1131  13.217   7.122   5.302  2.4412 -1.1275 -0.0367
  733MOL0     H 1132  13.400   7.301   5.137  0.1099 -1.0910 -1.2192
  733MOL0     H 1133  13.423   7.136   5.151  2.7540  1.7031 -1.6164
  733MOL0     H 1134  12.464   7.610   5.207  1.2314 -0.0631 -1.5448
  733MOL0     H 1135  12.248   7.690   5.253  1.4550 -2.1201 -0.4367
  733MOL0     H 1136  11.951   7.867   5.348  1.2058  0.8254 -0.0577
  733MOL0     H 1137  11.724   7.893   5.443 -2.7856 -0.3840 -4.8847
  733MOL0     H 1138  10.533   8.875   5.359  2.0090 -0.6652  0.1184
  733MOL0     H 1139  10.280   8.769   5.378  0.5309  0.4476 -0.7623
  733MOL0     H 1140  10.072   8.409   5.274 -2.3951  4.4577 -0.0991
  733MOL0     H 1141   9.880   8.294   5.216 -2.2531 -2.8526  1.4507
  733MOL0     H 1142   9.565   8.339   5.359 -1.3766 -0.1632 -0.9403
  733MOL0     H 1143   9.637   8.275   5.211 -2.1942 -0.2100 -0.6769
  733MOL0     H 1144   9.459   8.119   5.408  0.6756 -3.2563 -1.1185
  733MOL0     H 1145   9.501   8.075   5.236  2.7025 -0.3778  0.3545
  733MOL0     H 1146   9.337   8.313   5.319  0.6571  1.3804 -2.2049
  733MOL0     H 1147   9.372   8.261   5.159  0.4750  2.5316  0.5628
  733MOL0     H 1148   9.207   8.119   5.377 -1.4563  0.2192  0.2216
  733MOL0     H 1149   9.270   8.030   5.246 -0.3458  0.1680  2.2493
  733MOL0     H 1150   8.982   8.271   5.039  1.2084  0.6461 -1.1421
  733MOL0     H 1151   9.776   8.235   5.624 -0.6349  0.2895 -0.6172
  733MOL0     H 1152  10.088   8.273   5.769 -0.8314 -0.9652 -1.8149
  733MOL0     H 1153  10.015   8.437   5.765  0.5951  0.2825  0.5098
  733MOL0     H 1154   9.918   8.293   5.788  2.8915 -2.2042  1.1366
  734MOL0     O 1155   4.777   8.372   8.284  0.2224 -0.5313  0.1001
  734MOL0     C 1156   4.815   8.319   8.183 -0.2003  0.8739 -0.1790
  734MOL0     O 1157   4.947   8.326   8.143 -0.3575  0.2915 -0.0839
  734MOL0     C 1158   5.021   8.426   8.203 -0.7739  0.4841 -0.1998
  734MOL0     C 1159   5.071   8.530   8.127 -0.0978 -0.3239  0.8881
  734MOL0     C 1160   5.186   8.600   8.168  0.3710  0.2866  0.0511
  734MOL0     C 1161   5.239   8.591   8.294  0.8110  0.5157  0.5275
  734MOL0     O 1162   5.355   8.650   8.328  0.9277  0.0407  0.0394
  734MOL0     C 1163   5.331   8.779   8.382 -0.7044 -0.0147  1.0758
  734MOL0     C 1164   5.460   8.810   8.461  0.5297 -0.0185 -0.6485
  734MOL0     C 1165   5.474   8.707   8.573  0.0215  0.4284  0.1689
  734MOL0     C 1166   5.354   8.719   8.679  0.1132  0.4122  1.0224
  734MOL0     C 1167   5.389   8.679   8.827  0.2205 -0.0236 -0.4671
  734MOL0     C 1168   5.430   8.528   8.838 -0.2865 -0.1733  0.7218
  734MOL0     C 1169   5.449   8.485   8.984 -0.3374  0.0588  0.0086
  734MOL0     C 1170   5.532   8.352   8.999  0.4185  0.4091  0.2829
  734MOL0     N 1171   5.675   8.384   8.995  0.1766  0.2723 -0.0097
  734MOL0     C 1172   5.766   8.374   9.094  0.1566 -1.0374 -0.9179
  734MOL0     C 1173   5.888   8.406   9.046 -0.3635 -0.4827 -0.0449
  734MOL0     C 1174   6.023   8.400   9.118 -0.6605  0.7165 -0.0507
  734MOL0     C 1175   6.074   8.259   9.119 -0.3608 -0.1853 -0.0554
  734MOL0     C 1176   6.224   8.242   9.090  0.2672  0.0795  0.3217
  734MOL0     C 1177   6.307   8.235   9.215 -0.1076  0.3151  0.5340
  734MOL0     O 1178   6.442   8.241   9.175  0.3771 -0.2737  0.1286
  734MOL0     C 1179   6.535   8.181   9.256 -0.3092  0.1935  0.1147
  734MOL0     C 1180   6.505   8.095   9.365  0.1156  0.3957 -0.2642
  734MOL0     C 1181   6.613   8.053   9.449  0.4223  0.7555  0.0814
  734MOL0     C 1182   6.569   7.971   9.575 -0.2308 -0.5431  0.3127
  734MOL0     C 1183   6.746   8.082   9.425 -0.6433  0.0989  0.5076
  734MOL0     C 1184   6.864   8.031   9.502  0.1925 -1.0177  0.1658
  734MOL0     O 1185   6.964   8.122   9.539 -0.0770  0.6432 -0.3566
  734MOL0     C 1186   7.023   8.077   9.657  0.2481 -0.2567  0.0383
  734MOL0     C 1187   6.945   8.092   9.776 -0.7131  0.1453  0.3310
  734MOL0     C 1188   6.999   8.034   9.890 -0.2489  0.7832  0.0853
  734MOL0     C 1189   7.112   7.951   9.891  0.8323 -0.3876 -0.1909
  734MOL0     O 1190   7.134   7.871   9.997 -0.3072  0.9910  0.1266
  734MOL0     C 1191   7.262   7.816  10.020 -0.4325  0.1430 -0.7018
  734MOL0     C 1192   7.275   7.736  10.157  0.2469 -0.5396 -0.0701
  734MOL0     C 1193   7.178   7.623  10.175  0.6463  0.2347 -0.4685
  734MOL0     C 1194   7.169   7.559  10.325 -0.3005 -0.2950 -0.5572
  734MOL0     C 1195   7.212   7.411  10.311 -0.8877  0.3303  0.3578
  734MOL0     C 1196   7.350   7.392  10.262 -0.5460 -0.3532 -0.3185
  734MOL0     C 1197   7.367   7.242  10.261  0.3469  0.1632  0.0329
  734MOL0     C 1198   7.509   7.203  10.276 -0.0101  0.5227  0.4691
  734MOL0    Cl 1199   7.531   7.024  10.229  0.5821 -0.4558 -0.1662
  734MOL0     C 1200   7.183   7.936   9.768  0.5193 -0.6024 -0.7341
  734MOL0     C 1201   7.139   8.005   9.652  0.1372  0.1972 -0.0278
  734MOL0     O 1202   6.861   7.913   9.537 -0.4440 -0.5810 -0.3123
  734MOL0     C 1203   6.776   8.169   9.320 -1.3430  0.8637  0.0260
  734MOL0     C 1204   6.671   8.218   9.239 -0.0553  0.2742 -0.0401
  734MOL0     N 1205   5.872   8.433   8.911 -0.0117 -0.0590  0.0596
  734MOL0     N 1206   5.746   8.419   8.882 -0.1555  0.1111 -0.1851
  734MOL0     C 1207   5.181   8.499   8.381  0.6545  0.8451  0.3754
  734MOL0     C 1208   5.070   8.416   8.332 -0.2807  0.4985 -0.4047
  734MOL0     C 1209   4.727   8.215   8.113 -0.3656 -1.0759 -0.5022
  734MOL0     C 1210   4.794   8.109   8.055 -0.3540 -0.1939 -0.1627
  734MOL0     C 1211   4.719   8.016   7.987  0.1009 -0.9053  0.3363
  734MOL0     C 1212   4.582   8.028   7.977 -0.0218  0.0259  0.0372
  734MOL0     O 1213   4.500   7.936   7.920  0.2627 -0.0118  0.4351
  734MOL0     C 1214   4.547   7.800   7.904 -0.9905 -0.4811  0.2023
  734MOL0     C 1215   4.433   7.703   7.930 -0.8083 -0.2396 -0.4236
  734MOL0     C 1216   4.485   7.556   7.929  1.2994 -0.7335  0.2681
  734MOL0     C 1217   4.374   7.458   7.959 -0.3469  0.0183 -0.2630
  734MOL0     C 1218   4.262   7.463   7.860 -0.2088 -0.3124 -0.3719
  734MOL0     C 1219   4.169   7.478   7.782 -0.7266  0.4216 -1.0530
  734MOL0     C 1220   4.518   8.132   8.040  0.6379 -0.0565  0.0024
  734MOL0     C 1221   4.585   8.228   8.115 -1.5665  0.6042 -0.3884
  734MOL0     C 1222   4.512   8.339   8.193 -0.1941 -0.5240  0.3316
  734MOL0     H 1223   5.043   8.544   8.024  0.3360  2.0666  1.0350
  734MOL0     H 1224   5.231   8.665   8.094  1.2148 -0.1231  0.1788
  734MOL0     H 1225   5.241   8.789   8.443 -2.1659 -1.5638 -0.7000
  734MOL0     H 1226   5.325   8.849   8.298  0.4980 -2.9277 -1.6896
  734MOL0     H 1227   5.553   8.807   8.404  1.9404  0.5053  1.5155
  734MOL0     H 1228   5.451   8.908   8.510  0.6571 -0.6620  0.6977
  734MOL0     H 1229   5.467   8.612   8.519 -0.5172  2.4304 -3.6324
  734MOL0     H 1230   5.573   8.719   8.619  0.5021 -2.2014 -0.0112
  734MOL0     H 1231   5.332   8.826   8.671 -0.4168  0.2359 -0.0670
  734MOL0     H 1232   5.273   8.652   8.648  1.7280 -0.9637 -0.4430
  734MOL0     H 1233   5.308   8.716   8.890  1.6547  1.0434  0.8322
  734MOL0     H 1234   5.480   8.738   8.840  1.8951 -1.5208 -4.0174
  734MOL0     H 1235   5.351   8.464   8.797 -0.7452 -1.2369  3.0771
  734MOL0     H 1236   5.522   8.508   8.783  1.7189 -0.1932  3.8488
  734MOL0     H 1237   5.354   8.468   9.035 -0.6557 -0.0071 -0.5943
  734MOL0     H 1238   5.492   8.569   9.040 -1.0139 -0.3744  1.2108
  734MOL0     H 1239   5.512   8.304   9.095  0.1208  0.0184  0.0262
  734MOL0     H 1240   5.501   8.285   8.918  0.8243 -0.1266  0.5647
  734MOL0     H 1241   5.740   8.370   9.199  3.2560  4.4684  0.4320
  734MOL0     H 1242   5.995   8.427   9.220 -0.1848  0.6760  0.0908
  734MOL0     H 1243   6.091   8.467   9.064  1.1792 -0.8206  0.2681
  734MOL0     H 1244   6.051   8.223   9.220 -0.3739 -2.3774 -0.7864
  734MOL0     H 1245   6.019   8.200   9.045  0.4073 -2.9252  1.4368
  734MOL0     H 1246   6.227   8.142   9.045  0.1295  0.3826 -0.3877
  734MOL0     H 1247   6.262   8.318   9.021  0.8018  0.6747  1.2655
  734MOL0     H 1248   6.297   8.319   9.284  1.5811  0.8174  0.2029
  734MOL0     H 1249   6.276   8.145   9.268 -1.1708  1.0604  1.2256
  734MOL0     H 1250   6.402   8.077   9.394  0.4794 -2.4286 -0.5285
  734MOL0     H 1251   6.542   7.869   9.546  0.7039 -0.9379  0.7889
  734MOL0     H 1252   6.477   8.005   9.624 -0.5266 -1.1072  0.1552
  734MOL0     H 1253   6.647   7.965   9.651 -1.6799 -0.2367  1.8914
  734MOL0     H 1254   6.843   8.130   9.767 -0.8572  0.2574  2.1452
  734MOL0     H 1255   6.951   8.047   9.987 -1.9225 -1.1597 -0.4042
  734MOL0     H 1256   7.278   7.747   9.936 -0.1057 -2.6447  1.5163
  734MOL0     H 1257   7.330   7.902  10.019 -0.9841  0.6240  0.7793
  734MOL0     H 1258   7.374   7.694  10.174  1.1780  2.1540  1.7817
  734MOL0     H 1259   7.256   7.806  10.239 -1.3701 -1.6895  0.6110
  734MOL0     H 1260   7.189   7.543  10.101  2.5614 -0.0333  0.0392
  734MOL0     H 1261   7.082   7.670  10.156  0.5865  0.8770  1.2090
  734MOL0     H 1262   7.065   7.564  10.359 -0.5226  0.9475 -1.3763
  734MOL0     H 1263   7.241   7.611  10.389  0.0180 -3.6995  2.1323
  734MOL0     H 1264   7.203   7.373  10.413  2.2401  1.3855  1.1302
  734MOL0     H 1265   7.144   7.365  10.239  1.5713 -1.3912 -0.9895
  734MOL0     H 1266   7.419   7.441  10.331  0.7736  0.3047 -2.0245
  734MOL0     H 1267   7.372   7.428  10.160  1.6809  0.4287  0.3734
  734MOL0     H 1268   7.318   7.209  10.169 -0.6254  4.1192 -1.0694
  734MOL0     H 1269   7.312   7.199  10.344  1.0233  3.0483  2.1567
  734MOL0     H 1270   7.539   7.238  10.375  2.2485  3.1641 -1.0248
  734MOL0     H 1271   7.567   7.253  10.198  2.1271 -0.0037  1.6370
  734MOL0     H 1272   7.263   7.864   9.758 -0.5931 -2.4369  2.3333
  734MOL0     H 1273   7.186   7.987   9.556  1.1079  2.3869 -0.0341
  734MOL0     H 1274   6.880   8.199   9.310 -0.6334  0.1755  3.7934
  734MOL0     H 1275   6.692   8.305   9.177  1.6524  1.5247  2.1531
  734MOL0     H 1276   5.235   8.484   8.474  2.2332 -1.7334 -0.8662
  734MOL0     H 1277   5.011   8.347   8.392 -0.0713  1.6074  1.0994
  734MOL0     H 1278   4.898   8.080   8.050 -0.0505  1.0382 -2.4040
  734MOL0     H 1279   4.766   7.938   7.929  0.2859 -2.1557  2.0917
  734MOL0     H 1280   4.595   7.792   7.807 -1.1564  1.0840 -0.0310
  734MOL0     H 1281   4.625   7.771   7.975 -3.2175 -2.3213  2.0687
  734MOL0     H 1282   4.356   7.719   7.854 -0.3289 -0.8807 -1.0537
  734MOL0     H 1283   4.389   7.722   8.028  1.2512  0.5765  0.3892
  734MOL0     H 1284   4.545   7.537   7.840  1.6584  2.7650 -0.3783
  734MOL0     H 1285   4.549   7.556   8.019  0.1829  1.1387  1.1203
  734MOL0     H 1286   4.324   7.482   8.053 -0.4393  0.2553 -0.3717
  734MOL0     H 1287   4.409   7.354   7.963  0.4580  0.2969  0.0553
  734MOL0     H 1288   4.088   7.498   7.714  1.1549  3.2132 -2.7059
  734MOL0     H 1289   4.412   8.150   8.033  0.8933  2.7864  1.9617
  734MOL0     H 1290   4.535   8.340   8.299 -0.1789 -3.9523  0.4631
  734MOL0     H 1291   4.532   8.437   8.147 -0.8586 -0.6950 -0.3521
  734MOL0     H 1292   4.408   8.307   8.182  0.0790 -1.1484 -0.5943
  735MOL0     O 1293  10.091   7.673   8.115  0.0202 -0.2053  0.5523
  735MOL0     C 1294  10.100   7.552   8.091  0.6353  0.3401 -0.6913
  735MOL0     O 1295  10.019   7.455   8.148 -0.1749  0.3762  0.2386
  735MOL0     C 1296   9.908   7.469   8.232 -0.1066 -0.4834  0.7084
  735MOL0     C 1297   9.830   7.351   8.237 -0.0366 -0.2234  0.3123
  735MOL0     C 1298   9.731   7.342   8.335  0.8560 -0.3715 -0.3569
  735MOL0     C 1299   9.705   7.449   8.416 -0.1283 -0.3397 -0.2586
  735MOL0     O 1300   9.612   7.435   8.520 -0.3619  0.2832 -0.2069
  735MOL0     C 1301   9.575   7.554   8.602  0.5640  0.7780  0.3878
  735MOL0     C 1302   9.489   7.507   8.717  0.2112 -0.6283 -0.4638
  735MOL0     C 1303   9.347   7.480   8.674  0.2992  0.3034  0.6362
  735MOL0     C 1304   9.248   7.442   8.777 -0.0743  0.7708 -0.6915
  735MOL0     C 1305   9.267   7.309   8.851  0.7529  0.2740  0.4736
  735MOL0     C 1306   9.249   7.190   8.757  0.5541  0.3441  0.8450
  735MOL0     C 1307   9.253   7.052   8.829 -0.9222 -0.0331 -0.3342
  735MOL0     C 1308   9.383   7.010   8.897 -1.4916  0.8708  0.2135
  735MOL0     N 1309   9.477   6.975   8.790 -0.1311 -0.0798  0.1119
  735MOL0     C 1310   9.584   7.058   8.751 -0.3673 -0.1058 -0.2642
  735MOL0     C 1311   9.658   6.970   8.675  0.3504 -0.1656  0.4428
  735MOL0     C 1312   9.796   6.989   8.624 -0.0566 -0.2236 -0.0125
  735MOL0     C 1313   9.870   7.093   8.711  0.5158  0.1683 -0.5562
  735MOL0     C 1314  10.015   7.108   8.673 -1.0945  0.4566  0.1080
  735MOL0     C 1315  10.044   7.148   8.523 -1.3306 -0.5888 -0.1932
  735MOL0     O 1316  10.185   7.148   8.499 -0.4669 -0.1547  0.6483
  735MOL0     C 1317  10.232   7.122   8.374  0.4943 -0.5076 -0.0818
  735MOL0     C 1318  10.145   7.103   8.258 -0.7701  1.0322 -0.6002
  735MOL0     C 1319  10.201   7.068   8.141 -0.6098 -0.6379  0.1186
  735MOL0     C 1320  10.089   7.059   8.041 -0.3685  0.5037 -0.0769
  735MOL0     C 1321  10.344   7.068   8.123  0.5711 -0.3824 -0.6537
  735MOL0     C 1322  10.408   7.045   7.996 -0.8046 -1.3170  0.3018
  735MOL0     O 1323  10.554   7.030   8.000 -0.1018  0.4286 -0.4206
  735MOL0     C 1324  10.617   6.979   7.881 -0.0531  0.0682 -0.0833
  735MOL0     C 1325  10.750   7.006   7.878 -0.4969  0.7213 -0.4245
  735MOL0     C 1326  10.838   6.935   7.788  0.3958 -0.1654  0.5665
  735MOL0     C 1327  10.786   6.863   7.683 -0.0516  0.1626  1.0169
  735MOL0     O 1328  10.868   6.802   7.588  0.5589 -0.1960  0.5645
  735MOL0     C 1329  10.847   6.852   7.456 -0.0257 -0.1171 -0.4615
  735MOL0     C 1330  10.975   6.809   7.377 -0.8899 -0.6376 -0.2647
  735MOL0     C 1331  11.074   6.938   7.356 -0.2397  0.3673  0.2876
  735MOL0     C 1332  11.207   6.905   7.295 -0.6307  0.4396  0.4963
  735MOL0     C 1333  11.304   7.023   7.313 -0.7158  0.5267  0.5730
  735MOL0     C 1334  11.436   6.997   7.245  0.3422 -0.3388  0.3790
  735MOL0     C 1335  11.544   6.951   7.335  0.6437  0.0779  0.0124
  735MOL0     C 1336  11.672   6.902   7.255 -0.1264 -1.0315  0.8736
  735MOL0    Cl 1337  11.631   6.740   7.185 -0.0276 -0.0767 -0.1541
  735MOL0     C 1338  10.650   6.847   7.671  0.5362 -0.6237  0.4313
  735MOL0     C 1339  10.568   6.904   7.774  0.2601  0.4606 -0.8069
  735MOL0     O 1340  10.334   7.031   7.897 -0.6251  0.1023  0.0504
  735MOL0     C 1341  10.429   7.086   8.240  0.1473 -0.3049  0.2640
  735MOL0     C 1342  10.372   7.110   8.364 -0.1361 -0.2115  0.3215
  735MOL0     N 1343   9.582   6.861   8.645 -0.1631  0.4206 -0.4259
  735MOL0     N 1344   9.475   6.868   8.708  0.4074 -0.4059 -0.7854
  735MOL0     C 1345   9.769   7.572   8.401 -0.0549 -0.3724  0.8188
  735MOL0     C 1346   9.879   7.580   8.310  0.5723 -0.5085  0.2741
  735MOL0     C 1347  10.195   7.506   7.984 -0.6721 -0.3143 -0.6150
  735MOL0     C 1348  10.300   7.422   8.030 -0.5962 -0.7968 -0.3472
  735MOL0     C 1349  10.395   7.392   7.935 -0.1779  0.1640 -0.5333
  735MOL0     C 1350  10.393   7.436   7.797 -0.3980  0.4235 -0.2038
  735MOL0     O 1351  10.499   7.427   7.709  0.2461 -0.6444 -0.5380
  735MOL0     C 1352  10.624   7.373   7.768  0.7481 -0.3599 -0.1138
  735MOL0     C 1353  10.744   7.386   7.670  0.1780 -0.6441 -0.4898
  735MOL0     C 1354  10.718   7.302   7.545 -0.1526 -0.1475  0.3813
  735MOL0     C 1355  10.845   7.270   7.468 -1.2410 -0.0286 -0.3423
  735MOL0     C 1356  10.811   7.226   7.327 -0.5563  0.0287 -0.3362
  735MOL0     C 1357  10.780   7.173   7.223  0.1850 -1.3977 -0.3412
  735MOL0     C 1358  10.291   7.533   7.758 -0.9020  0.0870 -0.9922
  735MOL0     C 1359  10.196   7.566   7.859  0.2835  0.4305  0.1496
  735MOL0     C 1360  10.101   7.675   7.818 -0.6583  1.0122  0.5565
  735MOL0     H 1361   9.848   7.264   8.174 -1.5073 -2.3017  2.5664
  735MOL0     H 1362   9.671   7.253   8.345 -1.2548  1.1323  1.1480
  735MOL0     H 1363   9.520   7.623   8.538 -0.6153 -0.0623  0.4491
  735MOL0     H 1364   9.665   7.600   8.644  2.2627 -0.1134 -2.0091
  735MOL0     H 1365   9.530   7.425   8.776 -0.0772  0.4496  1.3018
  735MOL0     H 1366   9.488   7.586   8.792  0.2777 -2.6520  1.7679
  735MOL0     H 1367   9.325   7.572   8.618 -0.1618  1.3874  2.5168
  735MOL0     H 1368   9.361   7.398   8.603  1.3993  0.9063  0.1101
  735MOL0     H 1369   9.259   7.526   8.847 -0.3157 -0.5469  0.9922
  735MOL0     H 1370   9.147   7.440   8.734 -1.1232  0.8795  1.6325
  735MOL0     H 1371   9.204   7.296   8.940 -0.1203 -0.2946 -0.2102
  735MOL0     H 1372   9.370   7.306   8.889  1.6102 -0.0551 -1.7128
  735MOL0     H 1373   9.153   7.206   8.706  0.2046 -1.0568  1.0166
  735MOL0     H 1374   9.326   7.182   8.680  2.1366  1.0893  2.2842
  735MOL0     H 1375   9.214   6.973   8.764 -0.7804  1.2053 -2.0047
  735MOL0     H 1376   9.171   7.065   8.901  0.3781  1.1869  0.9989
  735MOL0     H 1377   9.431   7.083   8.962  1.9775  0.1152 -1.2411
  735MOL0     H 1378   9.377   6.923   8.964  3.2818  2.2526  2.9054
  735MOL0     H 1379   9.607   7.157   8.790 -1.2670  1.1878 -2.7925
  735MOL0     H 1380   9.787   7.032   8.524  1.2503  1.8209  0.7040
  735MOL0     H 1381   9.849   6.894   8.620  3.1631  1.4661 -0.1657
  735MOL0     H 1382   9.824   7.191   8.698 -0.8621 -0.1739  1.4144
  735MOL0     H 1383   9.867   7.080   8.819  0.8462  5.7301  0.4248
  735MOL0     H 1384  10.047   7.194   8.733 -0.2467  0.2817 -0.0834
  735MOL0     H 1385  10.072   7.016   8.683 -2.1368 -0.6076 -2.5973
  735MOL0     H 1386   9.985   7.083   8.458 -0.6048 -1.1317 -0.3182
  735MOL0     H 1387  10.014   7.249   8.491 -1.1591 -0.6600 -0.5899
  735MOL0     H 1388  10.038   7.114   8.269 -1.3163 -3.0908 -0.2211
  735MOL0     H 1389  10.119   6.975   7.979 -2.3606 -1.2022  1.1634
  735MOL0     H 1390  10.070   7.148   7.980 -0.6272  0.7401  0.3447
  735MOL0     H 1391   9.998   7.028   8.094 -1.3757 -0.7697 -2.4242
  735MOL0     H 1392  10.800   7.060   7.959  4.5556  0.7920 -3.1548
  735MOL0     H 1393  10.946   6.940   7.792  0.3033  2.0654  2.5143
  735MOL0     H 1394  10.755   6.805   7.420 -1.5771  2.0113  0.5287
  735MOL0     H 1395  10.826   6.959   7.460 -0.5795 -0.2491  1.8188
  735MOL0     H 1396  11.030   6.729   7.427  3.7151  0.6006 -2.7129
  735MOL0     H 1397  10.953   6.767   7.278  1.1520  1.4053 -1.7093
  735MOL0     H 1398  11.088   6.998   7.447 -0.2480 -0.7068  1.0207
  735MOL0     H 1399  11.012   7.002   7.293 -1.5786 -0.2485  0.9373
  735MOL0     H 1400  11.202   6.867   7.193  1.5776  1.7790 -0.1744
  735MOL0     H 1401  11.258   6.828   7.354 -0.7352 -1.6519 -1.9703
  735MOL0     H 1402  11.257   7.115   7.277 -2.2397 -0.4824 -0.0988
  735MOL0     H 1403  11.329   7.035   7.419  0.0837 -4.2453  1.1566
  735MOL0     H 1404  11.465   7.089   7.193 -0.5843 -0.0855  0.2798
  735MOL0     H 1405  11.413   6.916   7.174 -0.3311  0.0388  0.1576
  735MOL0     H 1406  11.501   6.865   7.388 -2.0222  0.8183 -0.8083
  735MOL0     H 1407  11.577   7.023   7.411  0.3705 -0.8567  1.0452
  735MOL0     H 1408  11.766   6.890   7.309  1.8951  1.4127 -1.8508
  735MOL0     H 1409  11.691   6.975   7.176 -2.6583 -2.1538 -0.8968
  735MOL0     H 1410  10.612   6.781   7.594  2.4717  1.0620 -2.1476
  735MOL0     H 1411  10.461   6.895   7.754 -0.0329 -0.5741  1.0387
  735MOL0     H 1412  10.534   7.102   8.222  0.0353 -0.4301 -0.5057
  735MOL0     H 1413  10.444   7.124   8.444  0.7388  0.4263 -0.5483
  735MOL0     H 1414   9.744   7.661   8.458 -0.6955 -1.1886  1.8702
  735MOL0     H 1415   9.932   7.674   8.301 -1.6432  0.8781  0.6749
  735MOL0     H 1416  10.300   7.376   8.128 -0.3505  0.7242  0.4036
  735MOL0     H 1417  10.474   7.332   7.978  0.4417  1.4014  0.0993
  735MOL0     H 1418  10.649   7.431   7.857 -1.4577 -3.3912  2.7132
  735MOL0     H 1419  10.617   7.266   7.792 -0.8625 -0.5344 -1.2384
  735MOL0     H 1420  10.831   7.350   7.726  1.4761 -0.9076 -2.5718
  735MOL0     H 1421  10.765   7.489   7.641 -0.9949 -0.6604 -1.4363
  735MOL0     H 1422  10.670   7.206   7.569 -0.4448  0.4292  2.2608
  735MOL0     H 1423  10.653   7.374   7.495  0.0424  0.0448  0.4068
  735MOL0     H 1424  10.901   7.188   7.514  1.4984  1.3298 -1.0427
  735MOL0     H 1425  10.918   7.351   7.462 -0.6888 -0.5703 -1.3700
  735MOL0     H 1426  10.753   7.137   7.125  2.6832  2.4511 -2.7365
  735MOL0     H 1427  10.313   7.583   7.664 -0.2560  0.1568 -0.8092
  735MOL0     H 1428  10.012   7.672   7.881 -0.7715  3.4470  0.6257
  735MOL0     H 1429  10.161   7.766   7.833  0.7590  0.1748  0.1994
  735MOL0     H 1430  10.065   7.657   7.716  2.2535  0.7762 -0.5328
  736MOL0     O 1431   9.640   9.383   5.848  0.3613 -0.1990 -0.6713
  736MOL0     C 1432   9.556   9.300   5.828  0.2534  0.2586  0.3758
  736MOL0     O 1433   9.546   9.222   5.713  0.5964  0.0509  0.4846
  736MOL0     C 1434   9.651   9.212   5.624 -0.2733  0.1433  0.2995
  736MOL0     C 1435   9.631   9.190   5.491  0.1943 -0.4636  0.0852
  736MOL0     C 1436   9.727   9.154   5.400 -0.5729 -0.4865  0.2913
  736MOL0     C 1437   9.860   9.147   5.444 -0.0703  0.4233  0.3208
  736MOL0     O 1438   9.971   9.122   5.361  0.8897  0.4283  0.3818
  736MOL0     C 1439   9.958   9.202   5.241  0.0116  0.6058  0.0081
  736MOL0     C 1440  10.091   9.178   5.160 -0.2541 -0.3948 -0.3091
  736MOL0     C 1441  10.088   9.254   5.025 -0.3366 -0.4203  0.1482
  736MOL0     C 1442  10.212   9.209   4.935  0.1700  0.6138 -0.1958
  736MOL0     C 1443  10.354   9.270   4.963 -0.1120 -0.2159 -0.1824
  736MOL0     C 1444  10.449   9.234   4.856 -0.3816 -0.2381  0.0540
  736MOL0     C 1445  10.587   9.290   4.882  1.2079  0.1751  0.0887
  736MOL0     C 1446  10.693   9.248   4.778  1.6129  0.6190 -0.3693
  736MOL0     N 1447  10.823   9.268   4.840  0.0516 -0.6623 -0.3033
  736MOL0     C 1448  10.905   9.378   4.799 -0.7027  0.7146  0.1670
  736MOL0     C 1449  11.020   9.351   4.877  0.1595 -0.3254  0.4053
  736MOL0     C 1450  11.151   9.429   4.865 -0.6385  0.2208  0.0696
  736MOL0     C 1451  11.267   9.364   4.781  0.3181 -0.4381  0.4143
  736MOL0     C 1452  11.397   9.425   4.799 -1.0530  0.2521  0.3035
  736MOL0     C 1453  11.510   9.337   4.756 -0.6599 -0.4347 -1.0281
  736MOL0     O 1454  11.477   9.251   4.642  0.2931  0.0480 -0.3559
  736MOL0     C 1455  11.572   9.170   4.586 -0.2317  0.9146 -0.0172
  736MOL0     C 1456  11.541   9.107   4.464 -0.1237 -0.1353 -0.0170
  736MOL0     C 1457  11.631   9.029   4.390 -0.5550  0.2175  0.2056
  736MOL0     C 1458  11.596   8.952   4.269 -0.5545 -0.0509  0.7224
  736MOL0     C 1459  11.762   9.028   4.434  1.2315 -0.2107  0.8591
  736MOL0     C 1460  11.880   8.967   4.363  0.0209  0.0684 -0.3869
  736MOL0     O 1461  11.974   8.906   4.446 -0.4796  0.7355 -0.3928
  736MOL0     C 1462  12.081   8.864   4.379  0.1002 -0.0828 -0.1810
  736MOL0     C 1463  12.192   8.947   4.364  0.2050 -0.8083 -0.3822
  736MOL0     C 1464  12.291   8.920   4.277 -0.5155  1.3742  0.0595
  736MOL0     C 1465  12.295   8.789   4.219  0.0272  0.0805 -0.0774
  736MOL0     O 1466  12.384   8.760   4.119 -0.0748 -0.6786 -0.2227
  736MOL0     C 1467  12.330   8.739   3.987  0.2532 -0.2310  0.5964
  736MOL0     C 1468  12.435   8.727   3.877  0.1264  0.3869  0.3086
  736MOL0     C 1469  12.468   8.872   3.834  0.4168  0.0093  0.0171
  736MOL0     C 1470  12.581   8.880   3.725 -0.5181 -0.2123  0.5669
  736MOL0     C 1471  12.525   8.836   3.594  0.5559  0.5063  0.3082
  736MOL0     C 1472  12.551   8.939   3.478 -1.2287 -0.3294 -0.5346
  736MOL0     C 1473  12.502   8.879   3.352 -0.1501  0.3960 -0.0985
  736MOL0     C 1474  12.524   8.979   3.227 -0.6597 -0.5764  1.1363
  736MOL0    Cl 1475  12.407   9.118   3.216  0.2295 -0.0523 -0.3475
  736MOL0     C 1476  12.193   8.699   4.250 -0.4709  0.4826 -0.1737
  736MOL0     C 1477  12.080   8.739   4.325 -0.4316  0.4172 -0.4548
  736MOL0     O 1478  11.889   8.986   4.243 -0.1588  0.6894  0.2349
  736MOL0     C 1479  11.791   9.094   4.556  0.0977  0.4528 -0.1546
  736MOL0     C 1480  11.699   9.159   4.628  0.8630  0.5480  0.5178
  736MOL0     N 1481  11.001   9.255   4.969  0.2814 -0.1948 -0.9242
  736MOL0     N 1482  10.881   9.203   4.946 -1.1821  0.2976  0.4692
  736MOL0     C 1483   9.890   9.169   5.577  0.5703 -0.0984  0.2093
  736MOL0     C 1484   9.789   9.198   5.666  0.2637  0.1145  0.1318
  736MOL0     C 1485   9.441   9.289   5.922 -0.3461 -0.8235 -0.5965
  736MOL0     C 1486   9.318   9.263   5.865  0.0384  0.3124 -1.5101
  736MOL0     C 1487   9.209   9.235   5.956 -0.6846 -0.5809 -0.0094
  736MOL0     C 1488   9.218   9.259   6.096 -0.9821 -0.1874 -0.2597
  736MOL0     O 1489   9.108   9.241   6.179  0.0390  0.1504 -0.1499
  736MOL0     C 1490   8.975   9.208   6.130 -0.1822 -0.5675 -0.6451
  736MOL0     C 1491   8.877   9.221   6.234 -0.5352 -0.5598  0.0257
  736MOL0     C 1492   8.760   9.129   6.192  0.7492  0.9626  0.1265
  736MOL0     C 1493   8.624   9.170   6.255 -0.1645 -0.3351 -0.2169
  736MOL0     C 1494   8.521   9.075   6.228  0.6441  0.4735 -0.2504
  736MOL0     C 1495   8.435   8.989   6.232  0.4512 -0.1392  0.3162
  736MOL0     C 1496   9.346   9.274   6.148  0.5889 -0.6554 -0.6277
  736MOL0     C 1497   9.457   9.283   6.065  0.4445  0.2532  0.0716
  736MOL0     C 1498   9.600   9.288   6.126 -0.2841  1.3031 -0.2721
  736MOL0     H 1499   9.527   9.183   5.461  0.0547 -1.3073  0.7281
  736MOL0     H 1500   9.688   9.121   5.305 -0.2859  1.0314 -0.3840
  736MOL0     H 1501   9.952   9.306   5.272  0.7489  0.0359  2.3131
  736MOL0     H 1502   9.882   9.164   5.173  1.4119 -2.5692  0.0313
  736MOL0     H 1503  10.164   9.217   5.232 -0.3258 -3.2403  1.4736
  736MOL0     H 1504  10.111   9.071   5.150  0.0417 -0.3217 -0.4853
  736MOL0     H 1505   9.989   9.236   4.982 -1.1471  1.6046  1.0170
  736MOL0     H 1506  10.096   9.362   5.044  0.3074 -0.2793 -0.8830
  736MOL0     H 1507  10.211   9.101   4.952 -3.9299  0.2048 -1.9863
  736MOL0     H 1508  10.181   9.217   4.831  1.3912 -1.5669 -0.7848
  736MOL0     H 1509  10.397   9.247   5.061 -2.3532  2.6133  1.6446
  736MOL0     H 1510  10.339   9.378   4.962 -1.0121 -0.3094 -2.5349
  736MOL0     H 1511  10.441   9.125   4.850  0.9905 -0.3568  0.0455
  736MOL0     H 1512  10.419   9.276   4.759 -0.1197  0.2812  0.1968
  736MOL0     H 1513  10.616   9.256   4.982  4.5373  2.2063 -0.0253
  736MOL0     H 1514  10.583   9.399   4.890  2.7184  0.4515 -1.9103
  736MOL0     H 1515  10.686   9.144   4.744 -2.1792  1.1912 -1.9018
  736MOL0     H 1516  10.675   9.314   4.692 -3.5228  1.3535  0.9514
  736MOL0     H 1517  10.888   9.443   4.714 -3.7273 -0.3070 -0.1237
  736MOL0     H 1518  11.191   9.437   4.967  1.8412  0.9695 -0.8732
  736MOL0     H 1519  11.126   9.529   4.830 -2.3133 -0.4914 -0.8575
  736MOL0     H 1520  11.270   9.257   4.805 -0.2231 -0.4122  0.6029
  736MOL0     H 1521  11.226   9.375   4.680 -2.8470 -0.1957  1.6257
  736MOL0     H 1522  11.407   9.514   4.737 -3.5460  0.9936  0.8433
  736MOL0     H 1523  11.412   9.455   4.904 -1.1329 -0.1312  0.4263
  736MOL0     H 1524  11.597   9.397   4.727  0.2659 -2.1990 -2.0361
  736MOL0     H 1525  11.544   9.283   4.844 -1.9888  0.4869  0.1087
  736MOL0     H 1526  11.436   9.113   4.436 -0.6506 -1.7164  1.4681
  736MOL0     H 1527  11.653   8.862   4.244 -2.5145 -1.0119 -0.5657
  736MOL0     H 1528  11.609   9.023   4.187  3.7655 -1.2519  0.1087
  736MOL0     H 1529  11.495   8.909   4.272 -0.3496 -0.5278  0.8094
  736MOL0     H 1530  12.192   9.046   4.406  1.5130 -0.4650 -1.1203
  736MOL0     H 1531  12.375   8.986   4.257 -0.7881  1.1211 -2.2099
  736MOL0     H 1532  12.268   8.649   3.980 -0.2980  0.2492 -1.2688
  736MOL0     H 1533  12.262   8.823   3.968 -0.4764 -0.6261  1.4029
  736MOL0     H 1534  12.528   8.683   3.914 -0.3688 -3.2106 -2.1706
  736MOL0     H 1535  12.397   8.675   3.788  1.3752  0.1806 -0.1192
  736MOL0     H 1536  12.501   8.920   3.927 -0.1292 -0.2930  0.3714
  736MOL0     H 1537  12.380   8.929   3.802  1.1846  1.2395  0.0323
  736MOL0     H 1538  12.669   8.824   3.755  0.9379  1.2688 -0.7233
  736MOL0     H 1539  12.618   8.982   3.713 -0.2564 -0.1951  1.4261
  736MOL0     H 1540  12.546   8.732   3.569 -1.6985  0.7027 -3.1573
  736MOL0     H 1541  12.416   8.837   3.599  0.3457 -3.0781 -0.8327
  736MOL0     H 1542  12.654   8.974   3.476 -1.6596  1.0311  0.0051
  736MOL0     H 1543  12.486   9.022   3.510  3.2976  2.2983  3.0907
  736MOL0     H 1544  12.398   8.848   3.367 -0.6081  0.1080 -3.0893
  736MOL0     H 1545  12.568   8.793   3.337 -2.5357 -1.4463 -0.7373
  736MOL0     H 1546  12.499   8.927   3.133  0.4329  1.2655 -0.2305
  736MOL0     H 1547  12.623   9.023   3.222 -1.1032  0.3687  0.0674
  736MOL0     H 1548  12.201   8.598   4.210  2.6178  0.1182  1.0708
  736MOL0     H 1549  11.994   8.673   4.333 -0.1272 -0.0144 -0.6796
  736MOL0     H 1550  11.892   9.092   4.596 -1.0509 -2.1105  3.0543
  736MOL0     H 1551  11.726   9.200   4.724 -0.4461 -0.5189  1.3806
  736MOL0     H 1552   9.994   9.178   5.606  0.7836 -0.3371 -0.4604
  736MOL0     H 1553   9.819   9.216   5.769  1.9845 -0.7810 -0.1739
  736MOL0     H 1554   9.299   9.253   5.759  0.3760  0.4833 -1.5878
  736MOL0     H 1555   9.116   9.223   5.900 -0.6417 -0.8538 -0.0212
  736MOL0     H 1556   8.947   9.267   6.042 -3.6399 -0.1103  0.5922
  736MOL0     H 1557   8.978   9.102   6.104  2.0959 -1.4673  2.6950
  736MOL0     H 1558   8.834   9.321   6.236 -2.6841 -1.4396  0.5810
  736MOL0     H 1559   8.922   9.212   6.334  1.1974  2.5145 -0.3544
  736MOL0     H 1560   8.735   9.139   6.086 -1.2520 -0.8811  0.3412
  736MOL0     H 1561   8.789   9.025   6.213  2.5875  1.3370 -0.3906
  736MOL0     H 1562   8.599   9.264   6.206  0.2904  0.1016  0.3675
  736MOL0     H 1563   8.637   9.189   6.362 -0.8210 -0.2410 -0.1480
  736MOL0     H 1564   8.354   8.918   6.230 -0.6386  1.0766 -0.3567
  736MOL0     H 1565   9.357   9.296   6.253 -2.5360 -0.4505 -0.2655
  736MOL0     H 1566   9.635   9.392   6.118 -1.5551  1.8377  0.7028
  736MOL0     H 1567   9.601   9.273   6.235 -0.6362  0.9149 -0.3185
  736MOL0     H 1568   9.666   9.220   6.073 -0.6862  2.8203 -2.8871
  737MOL0     O 1569   7.050   9.245   1.735 -0.1986  0.5053  0.0214
  737MOL0     C 1570   7.091   9.270   1.850 -0.7664  0.4540  0.4886
  737MOL0     O 1571   7.022   9.342   1.946  0.0079  0.2855  0.1368
  737MOL0     C 1572   6.898   9.376   1.900 -0.2585 -0.7151  1.1062
  737MOL0     C 1573   6.792   9.285   1.918  0.2346 -0.6723 -0.2438
  737MOL0     C 1574   6.667   9.314   1.866  0.7398  1.0495  0.4283
  737MOL0     C 1575   6.637   9.431   1.800 -0.3128 -0.6051 -0.2417
  737MOL0     O 1576   6.513   9.440   1.742 -0.2535  0.2851  0.3926
  737MOL0     C 1577   6.495   9.549   1.648 -0.3603  0.7981  0.1756
  737MOL0     C 1578   6.352   9.588   1.641  1.2377  0.8387 -0.8177
  737MOL0     C 1579   6.297   9.685   1.749  0.4578 -0.5153 -0.2364
  737MOL0     C 1580   6.148   9.694   1.729  1.8824  0.1291 -1.0106
  737MOL0     C 1581   6.073   9.760   1.845 -0.6097 -0.7563 -0.0051
  737MOL0     C 1582   5.938   9.826   1.812  0.6939  1.1396 -0.0895
  737MOL0     C 1583   5.826   9.730   1.758 -0.2377  0.8231  0.2453
  737MOL0     C 1584   5.756   9.642   1.861 -1.0296 -0.0088 -0.2408
  737MOL0     N 1585   5.840   9.528   1.908  0.5468  0.8638 -0.2388
  737MOL0     C 1586   5.878   9.424   1.831  0.0744  0.4253 -0.6453
  737MOL0     C 1587   5.935   9.342   1.924 -0.2580  0.1053  0.3667
  737MOL0     C 1588   5.998   9.208   1.889  1.1439  0.2163  0.3761
  737MOL0     C 1589   6.120   9.234   1.816 -1.0938  0.4202 -0.0615
  737MOL0     C 1590   6.166   9.113   1.737  0.1869  0.0893  0.1325
  737MOL0     C 1591   6.314   9.129   1.684 -0.3524 -0.4643  0.3054
  737MOL0     O 1592   6.350   9.005   1.617 -0.0172 -0.5194 -0.3418
  737MOL0     C 1593   6.488   8.985   1.601  0.0791 -0.2406  0.6566
  737MOL0     C 1594   6.536   8.864   1.543  0.2400  0.4634  0.0806
  737MOL0     C 1595   6.669   8.835   1.522  0.3361  0.1671 -0.1020
  737MOL0     C 1596   6.700   8.691   1.464 -0.0093 -0.0140 -0.0707
  737MOL0     C 1597   6.765   8.928   1.552 -0.1087 -0.3276 -0.0768
  737MOL0     C 1598   6.908   8.895   1.534  0.1312 -0.6498 -0.1886
  737MOL0     O 1599   6.957   8.916   1.409  0.8350 -0.5147  0.6437
  737MOL0     C 1600   7.093   8.940   1.387  0.9162 -0.6400  0.0846
  737MOL0     C 1601   7.143   9.066   1.357 -0.2987 -0.4530  0.2632
  737MOL0     C 1602   7.280   9.081   1.336 -0.2186 -0.1927  0.6819
  737MOL0     C 1603   7.370   8.979   1.341 -0.4900 -0.0060  0.7773
  737MOL0     O 1604   7.501   9.007   1.311  0.2282 -0.0889  0.5916
  737MOL0     C 1605   7.590   8.894   1.324 -0.5322 -0.1653  0.0558
  737MOL0     C 1606   7.728   8.935   1.305  0.0848 -0.1328  0.0189
  737MOL0     C 1607   7.836   8.823   1.309 -0.4181 -0.0651  0.3592
  737MOL0     C 1608   7.973   8.862   1.268  0.0571 -0.4606 -0.1097
  737MOL0     C 1609   8.073   8.747   1.243  0.2404  0.2638  0.6941
  737MOL0     C 1610   8.217   8.819   1.237 -0.1412 -0.3957  0.3360
  737MOL0     C 1611   8.226   8.928   1.124 -0.2378 -0.0068 -0.9519
  737MOL0     C 1612   8.363   8.985   1.126  0.1775  0.5535  0.1984
  737MOL0    Cl 1613   8.493   8.862   1.093  0.4946 -0.0202 -0.0846
  737MOL0     C 1614   7.308   8.853   1.359  0.1899 -0.7110 -0.6950
  737MOL0     C 1615   7.174   8.831   1.390  0.3560  0.4678  1.1539
  737MOL0     O 1616   6.977   8.866   1.630 -0.0640 -0.3022 -0.3872
  737MOL0     C 1617   6.719   9.054   1.583 -0.3271 -0.0438  0.3702
  737MOL0     C 1618   6.587   9.083   1.620 -0.2270  0.7954  0.1483
  737MOL0     N 1619   5.926   9.398   2.048 -0.3322 -0.3332  0.0909
  737MOL0     N 1620   5.872   9.517   2.042  0.3145  0.9610 -0.3635
  737MOL0     C 1621   6.747   9.517   1.778  0.0311 -0.0201 -0.3006
  737MOL0     C 1622   6.874   9.491   1.825  0.1197 -0.8464 -0.5080
  737MOL0     C 1623   7.227   9.228   1.893  0.1352 -0.3757  0.7145
  737MOL0     C 1624   7.278   9.263   2.023 -0.1800  0.5229 -0.4280
  737MOL0     C 1625   7.414   9.250   2.050 -0.3875  0.2377 -0.2289
  737MOL0     C 1626   7.500   9.181   1.962 -0.1177  0.6974 -0.0266
  737MOL0     O 1627   7.634   9.169   1.984  0.3350  0.0334  0.4975
  737MOL0     C 1628   7.692   9.191   2.116 -1.0878 -0.4983 -0.7087
  737MOL0     C 1629   7.845   9.157   2.110  0.2236 -0.0019 -0.4130
  737MOL0     C 1630   7.922   9.222   2.219 -0.1468  0.5961 -0.8708
  737MOL0     C 1631   7.852   9.222   2.351 -0.1262  0.5057 -0.3199
  737MOL0     C 1632   7.944   9.274   2.459  0.2500 -0.0759 -0.2544
  737MOL0     C 1633   8.010   9.317   2.545  0.0682  0.5705 -0.3902
  737MOL0     C 1634   7.451   9.133   1.845 -0.3254 -0.5305  0.4479
  737MOL0     C 1635   7.314   9.148   1.803 -0.1721 -0.6458 -0.1052
  737MOL0     C 1636   7.281   9.091   1.662  1.0342  1.4227 -0.3307
  737MOL0     H 1637   6.809   9.186   1.959  0.0703 -0.2522  0.8847
  737MOL0     H 1638   6.591   9.237   1.878  1.7815 -0.1705 -0.4080
  737MOL0     H 1639   6.543   9.513   1.557  1.7309 -1.7886  2.1351
  737MOL0     H 1640   6.549   9.642   1.669  0.0199  0.3570  1.2140
  737MOL0     H 1641   6.333   9.630   1.541 -2.3851 -0.1837 -0.7134
  737MOL0     H 1642   6.290   9.499   1.648 -0.3073  1.8062 -1.5740
  737MOL0     H 1643   6.330   9.660   1.850  1.1236  2.0978  0.2841
  737MOL0     H 1644   6.332   9.789   1.743 -2.5773  0.5654 -1.2863
  737MOL0     H 1645   6.122   9.741   1.633  1.2178  1.6029 -0.1355
  737MOL0     H 1646   6.102   9.597   1.713  0.8132  0.5933 -0.8268
  737MOL0     H 1647   6.139   9.838   1.887 -1.3555 -0.3759  0.4780
  737MOL0     H 1648   6.059   9.686   1.924  0.1874 -0.5179  0.3769
  737MOL0     H 1649   5.897   9.885   1.894 -0.9638  0.3245 -0.2989
  737MOL0     H 1650   5.964   9.899   1.736  3.4565 -0.8678 -1.2762
  737MOL0     H 1651   5.872   9.666   1.683 -0.9462  0.8075 -0.1710
  737MOL0     H 1652   5.750   9.794   1.712 -0.4793 -0.3700 -1.0682
  737MOL0     H 1653   5.731   9.711   1.943 -0.2636 -0.2926  0.2396
  737MOL0     H 1654   5.663   9.610   1.813 -1.2022  1.1611 -0.7286
  737MOL0     H 1655   5.873   9.405   1.724  1.7109  1.9119 -1.0348
  737MOL0     H 1656   5.930   9.156   1.821  0.6594  0.2203  0.8520
  737MOL0     H 1657   6.021   9.142   1.973 -0.7315 -1.5923 -0.4511
  737MOL0     H 1658   6.113   9.313   1.741  2.8280  0.0539 -1.0265
  737MOL0     H 1659   6.202   9.255   1.886  0.1875 -0.8262 -1.1213
  737MOL0     H 1660   6.173   9.023   1.798  1.1649 -1.5683 -2.2466
  737MOL0     H 1661   6.082   9.100   1.667 -0.0787  1.6537  0.1230
  737MOL0     H 1662   6.326   9.213   1.615  0.7889 -1.2920 -0.5630
  737MOL0     H 1663   6.386   9.131   1.766  2.8742 -1.2783 -2.2573
  737MOL0     H 1664   6.457   8.793   1.521 -0.2636  0.3488  2.1355
  737MOL0     H 1665   6.754   8.630   1.538 -1.2796  0.8969  1.6631
  737MOL0     H 1666   6.745   8.698   1.365 -1.1590  0.7763 -0.5548
  737MOL0     H 1667   6.607   8.640   1.439 -0.4856  1.1669 -0.7869
  737MOL0     H 1668   7.075   9.150   1.348 -0.3637 -0.1956  2.5788
  737MOL0     H 1669   7.315   9.179   1.304  0.5437 -1.1260 -1.5165
  737MOL0     H 1670   7.575   8.843   1.420 -1.3202 -3.4890 -1.6798
  737MOL0     H 1671   7.561   8.823   1.246  0.3289  1.0996 -1.4809
  737MOL0     H 1672   7.740   9.000   1.218  2.4208  4.3534  3.2608
  737MOL0     H 1673   7.755   9.000   1.389  3.0543  1.5346 -2.0293
  737MOL0     H 1674   7.803   8.748   1.236  3.8053 -2.0010  0.1000
  737MOL0     H 1675   7.837   8.782   1.411  1.3234  0.9812  0.8085
  737MOL0     H 1676   8.007   8.937   1.341 -1.1697 -2.7752  3.1094
  737MOL0     H 1677   7.969   8.926   1.179  1.7224  1.9833  1.4345
  737MOL0     H 1678   8.082   8.669   1.319 -0.7792 -1.1000 -0.5151
  737MOL0     H 1679   8.049   8.695   1.150 -1.6406 -0.6909  1.6530
  737MOL0     H 1680   8.292   8.744   1.211 -1.0655 -1.3613  0.4034
  737MOL0     H 1681   8.238   8.860   1.336 -0.6682 -3.4030  1.8117
  737MOL0     H 1682   8.161   9.015   1.137 -1.9126 -1.3201 -0.2349
  737MOL0     H 1683   8.196   8.884   1.029 -2.0644  1.4714 -1.1222
  737MOL0     H 1684   8.384   9.037   1.220  0.4633 -2.2273  1.7912
  737MOL0     H 1685   8.372   9.058   1.045  0.7385  1.5013  1.1009
  737MOL0     H 1686   7.377   8.769   1.354 -0.3120 -1.2313  0.7445
  737MOL0     H 1687   7.148   8.726   1.387  0.7414  0.3830  0.7298
  737MOL0     H 1688   6.793   9.132   1.600 -2.2639  1.5719  1.8811
  737MOL0     H 1689   6.560   9.184   1.647  1.6344  2.9855 -5.0418
  737MOL0     H 1690   6.727   9.607   1.719 -4.1053  0.4536  1.4714
  737MOL0     H 1691   6.942   9.574   1.809 -0.4591 -0.0894  0.8184
  737MOL0     H 1692   7.207   9.311   2.090 -1.2170 -1.9199  0.3220
  737MOL0     H 1693   7.448   9.282   2.148  0.8604 -3.7680  0.8676
  737MOL0     H 1694   7.686   9.299   2.132 -1.1130 -0.6118  0.0907
  737MOL0     H 1695   7.635   9.146   2.199 -1.0207 -0.3200 -0.5663
  737MOL0     H 1696   7.887   9.182   2.012 -0.6140  1.8298 -0.3362
  737MOL0     H 1697   7.840   9.048   2.125 -3.6778  0.1582  0.3319
  737MOL0     H 1698   8.005   9.152   2.234  0.8134  2.0678  0.9925
  737MOL0     H 1699   7.969   9.318   2.196  2.9417  0.4142  3.3451
  737MOL0     H 1700   7.808   9.125   2.374  0.1784  0.0542 -1.5515
  737MOL0     H 1701   7.771   9.296   2.354 -1.5014 -0.9764  2.2204
  737MOL0     H 1702   8.066   9.341   2.634  1.1870 -1.1878 -0.5655
  737MOL0     H 1703   7.526   9.095   1.775  1.5215  0.4833  1.7799
  737MOL0     H 1704   7.261   9.173   1.592 -2.0700 -0.3853 -1.7547
  737MOL0     H 1705   7.356   9.030   1.610 -1.0977 -2.5065  0.8483
  737MOL0     H 1706   7.197   9.022   1.673  1.9530  0.3562  0.1568
  738MOL0     O 1707   0.037   0.110   7.054 -0.1120 -0.3075 -0.2531
  738MOL0     C 1708  -0.033   0.076   7.147 -0.1811 -0.2650  0.2839
  738MOL0     O 1709  -0.014   0.113   7.270 -0.7244 -0.1782 -0.5567
  738MOL0     C 1710   0.115   0.164   7.293 -0.1167  0.0906  0.9590
  738MOL0     C 1711   0.138   0.297   7.258 -0.2519 -0.2695 -0.8773
  738MOL0     C 1712   0.264   0.355   7.289  0.0600 -0.3974  0.5218
  738MOL0     C 1713   0.370   0.272   7.338  0.2956 -0.0564 -0.3112
  738MOL0     O 1714   0.492   0.341   7.352  0.1900  0.0962  0.8006
  738MOL0     C 1715   0.579   0.286   7.455 -0.4085  0.3338 -0.5754
  738MOL0     C 1716   0.706   0.372   7.469 -0.2560 -1.1062 -1.1364
  738MOL0     C 1717   0.764   0.373   7.614 -0.1955 -0.5234  0.1815
  738MOL0     C 1718   0.866   0.484   7.633 -0.9742 -0.2344 -1.4296
  738MOL0     C 1719   0.982   0.477   7.536 -0.5394 -0.5148 -0.4171
  738MOL0     C 1720   1.085   0.360   7.539  0.0569 -0.6412 -0.1884
  738MOL0     C 1721   1.198   0.394   7.437  0.8379  0.2069 -0.2175
  738MOL0     C 1722   1.302   0.490   7.477 -0.8788  0.0263  0.2805
  738MOL0     N 1723   1.402   0.407   7.549 -0.1769 -0.0916 -0.2038
  738MOL0     C 1724   1.389   0.360   7.680 -0.2113  0.0297 -0.2609
  738MOL0     C 1725   1.515   0.324   7.706  0.1120 -0.0468 -0.6945
  738MOL0     C 1726   1.560   0.275   7.835  0.0773 -0.1524  0.5661
  738MOL0     C 1727   1.706   0.226   7.841 -0.4334  0.6072 -0.0863
  738MOL0     C 1728   1.718   0.095   7.761 -0.1922  0.0122  0.3982
  738MOL0     C 1729   1.867   0.058   7.763 -1.0154  0.4790 -0.3696
  738MOL0     O 1730   1.938   0.156   7.688 -0.3871  1.0602  0.2834
  738MOL0     C 1731   2.078   0.157   7.704 -0.0054 -0.7130  0.4734
  738MOL0     C 1732   2.142   0.260   7.631 -0.3916  0.1416 -0.4516
  738MOL0     C 1733   2.268   0.291   7.657 -0.0711 -0.1938  0.5058
  738MOL0     C 1734   2.314   0.415   7.582 -1.0444  0.1111 -0.3857
  738MOL0     C 1735   2.344   0.227   7.758 -0.1119 -0.5252  0.6274
  738MOL0     C 1736   2.488   0.260   7.792 -0.3637  0.2751 -0.9270
  738MOL0     O 1737   2.535   0.238   7.927  0.5880  0.7820  0.2585
  738MOL0     C 1738   2.660   0.270   7.961  0.0221  0.0858 -0.1967
  738MOL0     C 1739   2.679   0.342   8.078  0.8603 -0.3341  0.5626
  738MOL0     C 1740   2.807   0.389   8.109  0.2478 -0.8710 -0.6712
  738MOL0     C 1741   2.914   0.347   8.041 -0.5789  0.1434  0.1257
  738MOL0     O 1742   3.037   0.386   8.088 -0.5768 -0.1138  0.8311
  738MOL0     C 1743   3.161   0.378   8.002  0.5038  0.2503  0.6683
  738MOL0     C 1744   3.258   0.452   8.081  0.4990 -0.3358  0.1785
  738MOL0     C 1745   3.405   0.428   8.023  0.0304  0.5117  0.6724
  738MOL0     C 1746   3.507   0.433   8.134  0.1039 -0.2114  0.6325
  738MOL0     C 1747   3.653   0.467   8.093  0.3610 -0.0624  0.2387
  738MOL0     C 1748   3.768   0.455   8.199 -0.5729 -0.2270 -0.1239
  738MOL0     C 1749   3.747   0.556   8.311  0.0417 -0.1706  0.6078
  738MOL0     C 1750   3.861   0.558   8.415  0.4901  0.9342  0.8907
  738MOL0    Cl 1751   3.851   0.406   8.501 -0.3512 -0.2468  0.2172
  738MOL0     C 1752   2.898   0.259   7.935 -0.0133  0.2794 -0.5337
  738MOL0     C 1753   2.780   0.220   7.899  1.0950  0.6691 -0.1309
  738MOL0     O 1754   2.563   0.293   7.700  0.5631  0.1790 -0.9645
  738MOL0     C 1755   2.291   0.113   7.818  0.2635 -0.1455 -0.8075
  738MOL0     C 1756   2.162   0.086   7.786  0.5330 -0.4283  0.5160
  738MOL0     N 1757   1.595   0.345   7.594  0.2285 -0.3808 -0.3461
  738MOL0     N 1758   1.526   0.397   7.501  0.1599 -0.2689 -0.7354
  738MOL0     C 1759   0.345   0.142   7.368  0.5440  0.1214 -0.4069
  738MOL0     C 1760   0.219   0.086   7.347  0.0056  0.1994  0.0452
  738MOL0     C 1761  -0.142  -0.021   7.136 -0.3365  0.1469  0.4044
  738MOL0     C 1762  -0.147  -0.134   7.214  0.8839 -0.6626  0.2734
  738MOL0     C 1763  -0.245  -0.229   7.199  0.2655 -0.6219 -0.3738
  738MOL0     C 1764  -0.338  -0.222   7.092 -0.1508  0.7145  0.2515
  738MOL0     O 1765  -0.428  -0.327   7.083  0.3301  0.1003  0.7225
  738MOL0     C 1766  -0.545  -0.301   7.004 -0.7031  0.1388 -0.3527
  738MOL0     C 1767  -0.548  -0.359   6.863  0.4813  0.4430 -0.0778
  738MOL0     C 1768  -0.692  -0.395   6.821 -0.2299 -0.2505  0.0737
  738MOL0     C 1769  -0.709  -0.459   6.690  0.2432 -0.0354  0.1161
  738MOL0     C 1770  -0.673  -0.598   6.703  0.3831 -0.3666 -0.4014
  738MOL0     C 1771  -0.659  -0.715   6.727  0.3579 -0.8355 -0.3300
  738MOL0     C 1772  -0.331  -0.104   7.011 -0.1388  0.4632 -0.9400
  738MOL0     C 1773  -0.230  -0.012   7.029  0.1094 -0.1766  0.2647
  738MOL0     C 1774  -0.237   0.110   6.939 -0.4593  0.1579  0.2687
  738MOL0     H 1775   0.057   0.360   7.224 -2.1911 -1.0321  1.9970
  738MOL0     H 1776   0.272   0.459   7.261  0.1671  0.2388  2.7193
  738MOL0     H 1777   0.608   0.184   7.429  0.9234 -0.3675  3.1671
  738MOL0     H 1778   0.528   0.288   7.551  1.6600  1.1411  0.5770
  738MOL0     H 1779   0.779   0.330   7.400  0.6859  2.6209 -2.6293
  738MOL0     H 1780   0.681   0.471   7.430  2.8939 -0.0588 -0.7822
  738MOL0     H 1781   0.678   0.403   7.675 -0.5069 -0.5285 -0.2564
  738MOL0     H 1782   0.809   0.278   7.644 -1.1516 -1.1786 -0.4102
  738MOL0     H 1783   0.816   0.582   7.629  2.2994  1.5800 -1.4823
  738MOL0     H 1784   0.902   0.477   7.736 -0.3640 -0.7145 -1.6752
  738MOL0     H 1785   1.034   0.573   7.535 -1.3396 -0.0560  0.6159
  738MOL0     H 1786   0.948   0.469   7.432 -1.1759 -3.0455 -0.0854
  738MOL0     H 1787   1.121   0.356   7.642 -2.5146  0.8314  0.8372
  738MOL0     H 1788   1.033   0.267   7.514 -3.0709  1.5314 -2.4403
  738MOL0     H 1789   1.159   0.422   7.339  2.6810  1.7525 -0.5817
  738MOL0     H 1790   1.246   0.297   7.417  2.8500  0.4238  2.7751
  738MOL0     H 1791   1.350   0.544   7.395  2.0766 -1.2435  1.0365
  738MOL0     H 1792   1.265   0.569   7.543  0.6173 -0.4404  1.7351
  738MOL0     H 1793   1.297   0.355   7.736 -1.0381  1.2996 -1.4303
  738MOL0     H 1794   1.490   0.199   7.870 -0.2045  0.2010  0.7836
  738MOL0     H 1795   1.561   0.357   7.908  1.7826 -3.1032  4.1948
  738MOL0     H 1796   1.777   0.291   7.788  1.2407 -1.5411 -0.6428
  738MOL0     H 1797   1.728   0.205   7.946 -1.3406 -1.1864 -0.2149
  738MOL0     H 1798   1.651   0.016   7.796 -0.7576  0.4514  0.3258
  738MOL0     H 1799   1.683   0.095   7.657 -1.0485 -2.5188  0.6176
  738MOL0     H 1800   1.903   0.056   7.867 -2.2171  2.7514  0.1342
  738MOL0     H 1801   1.875  -0.045   7.728 -1.6006  0.3172 -0.0424
  738MOL0     H 1802   2.076   0.312   7.563  0.2510  2.3407  0.5113
  738MOL0     H 1803   2.233   0.459   7.524 -0.0107  1.4770 -0.8428
  738MOL0     H 1804   2.384   0.382   7.505 -0.9130 -2.4564  0.7292
  738MOL0     H 1805   2.364   0.493   7.639  1.5221 -0.4702 -1.6946
  738MOL0     H 1806   2.591   0.362   8.137 -1.3234 -1.3000 -2.1612
  738MOL0     H 1807   2.817   0.452   8.197 -0.9592 -1.0664 -0.3833
  738MOL0     H 1808   3.183   0.271   7.998  0.6475  0.3301 -1.3167
  738MOL0     H 1809   3.148   0.427   7.906 -0.5622 -1.0409  0.1261
  738MOL0     H 1810   3.236   0.559   8.090  1.8533 -0.0033 -0.2078
  738MOL0     H 1811   3.259   0.407   8.181 -3.0420 -1.9747 -0.3879
  738MOL0     H 1812   3.422   0.498   7.940 -0.8354 -2.7069 -2.4671
  738MOL0     H 1813   3.411   0.334   7.968 -1.2236  0.7481  0.0866
  738MOL0     H 1814   3.506   0.335   8.182 -0.3461 -1.8166 -2.4456
  738MOL0     H 1815   3.470   0.509   8.204  0.5378 -1.9269  2.8314
  738MOL0     H 1816   3.678   0.400   8.010 -1.9938  0.7107 -1.2154
  738MOL0     H 1817   3.644   0.568   8.051  1.7053  1.1002  2.5440
  738MOL0     H 1818   3.864   0.461   8.145 -1.8701 -1.7222 -2.8274
  738MOL0     H 1819   3.771   0.353   8.238  0.9075 -0.2351 -0.2037
  738MOL0     H 1820   3.663   0.532   8.376 -0.1482  0.7314  0.7087
  738MOL0     H 1821   3.730   0.659   8.277  1.5495 -0.2793 -0.5965
  738MOL0     H 1822   3.845   0.635   8.491  3.8486 -0.3498  3.1328
  738MOL0     H 1823   3.965   0.567   8.382 -0.3105  1.3550 -1.7174
  738MOL0     H 1824   2.977   0.217   7.875 -0.2714  1.6925 -1.9215
  738MOL0     H 1825   2.780   0.161   7.808  0.3742  0.3037  0.0978
  738MOL0     H 1826   2.340   0.046   7.888 -2.9500 -4.1995 -1.9973
  738MOL0     H 1827   2.115   0.016   7.854 -2.8830  0.7980 -0.3984
  738MOL0     H 1828   0.425   0.080   7.409 -1.0543 -1.3496  0.6363
  738MOL0     H 1829   0.201  -0.016   7.380  0.0516 -0.7870 -2.7402
  738MOL0     H 1830  -0.077  -0.135   7.297  1.2047  0.9242  0.0675
  738MOL0     H 1831  -0.260  -0.299   7.279  1.4422  0.5748  0.9571
  738MOL0     H 1832  -0.633  -0.331   7.061 -1.0786  1.7945 -0.0075
  738MOL0     H 1833  -0.561  -0.194   6.987  2.8454  0.9564  0.6672
  738MOL0     H 1834  -0.490  -0.452   6.863 -0.0788  0.0671 -1.7761
  738MOL0     H 1835  -0.510  -0.285   6.792 -0.4542  1.1260  0.1179
  738MOL0     H 1836  -0.740  -0.466   6.888  0.3882 -0.1727  0.6051
  738MOL0     H 1837  -0.750  -0.302   6.821 -1.5037 -0.9984  1.6663
  738MOL0     H 1838  -0.633  -0.421   6.622 -0.3095 -0.7341 -0.9208
  738MOL0     H 1839  -0.810  -0.435   6.656  0.6000 -0.1510 -1.0784
  738MOL0     H 1840  -0.635  -0.814   6.760 -0.6735 -0.3993  1.9191
  738MOL0     H 1841  -0.403  -0.091   6.931  0.9896 -0.4372 -2.1341
  738MOL0     H 1842  -0.177   0.096   6.848 -0.0316 -1.2203  0.7291
  738MOL0     H 1843  -0.339   0.124   6.903 -1.8411 -0.0941  3.7026
  738MOL0     H 1844  -0.207   0.197   6.998  2.4421  0.1340 -0.9916
  739MOL0     O 1845   1.044   5.418   2.991  0.1781 -0.0764 -0.0424
  739MOL0     C 1846   0.948   5.355   2.944 -0.5080  0.2916  1.0130
  739MOL0     O 1847   0.954   5.219   2.908 -0.5597  0.1593 -0.1575
  739MOL0     C 1848   1.077   5.164   2.938  0.0850  0.3823  1.1776
  739MOL0     C 1849   1.170   5.147   2.838 -0.3831 -0.3151 -0.3540
  739MOL0     C 1850   1.297   5.091   2.867 -0.0570 -1.1383  0.0139
  739MOL0     C 1851   1.337   5.056   2.998 -0.8282 -0.1109  0.3457
  739MOL0     O 1852   1.467   5.029   3.017  0.1417 -0.1449  0.3356
  739MOL0     C 1853   1.526   5.038   3.147  0.0519 -0.3220  0.4162
  739MOL0     C 1854   1.680   5.025   3.118 -0.6114 -0.3125 -0.7385
  739MOL0     C 1855   1.728   4.886   3.068  0.1186 -0.3883 -0.8635
  739MOL0     C 1856   1.875   4.866   3.101 -0.2066 -0.1240  0.1136
  739MOL0     C 1857   1.928   4.751   3.018 -0.2285  0.1048 -0.9592
  739MOL0     C 1858   2.073   4.715   3.060  0.4435  0.5623 -0.2832
  739MOL0     C 1859   2.082   4.639   3.201  0.5408 -0.1033 -0.1894
  739MOL0     C 1860   1.984   4.538   3.232 -0.1190  0.3741 -0.1348
  739MOL0     N 1861   1.977   4.430   3.129 -0.6788 -0.7034  0.5116
  739MOL0     C 1862   1.858   4.358   3.112  0.5510 -0.0056  0.5009
  739MOL0     C 1863   1.889   4.264   3.015 -0.0208  0.2834 -0.3759
  739MOL0     C 1864   1.796   4.174   2.946  0.4116  0.7286  0.0644
  739MOL0     C 1865   1.808   4.182   2.789  0.7443  0.2630 -0.0757
  739MOL0     C 1866   1.921   4.105   2.736  0.1340  0.5059 -0.1496
  739MOL0     C 1867   1.943   4.158   2.591 -0.4675 -0.0110  0.4826
  739MOL0     O 1868   2.038   4.069   2.519  0.5557 -1.1435  0.2276
  739MOL0     C 1869   2.172   4.076   2.543 -0.5372 -0.6209  0.0301
  739MOL0     C 1870   2.254   3.996   2.459 -0.0051 -0.0044 -0.1685
  739MOL0     C 1871   2.395   4.010   2.462  0.5130 -0.0414  1.0206
  739MOL0     C 1872   2.474   3.925   2.369 -0.0783  0.5213 -0.0320
  739MOL0     C 1873   2.461   4.104   2.549  0.7670 -0.0598 -0.1439
  739MOL0     C 1874   2.601   4.139   2.546  0.0370 -0.1434  0.1123
  739MOL0     O 1875   2.699   4.050   2.506  0.0736 -0.4736  0.0286
  739MOL0     C 1876   2.827   4.095   2.525  0.6164  0.2372  0.5379
  739MOL0     C 1877   2.878   4.187   2.433 -0.0180 -0.6316  0.4694
  739MOL0     C 1878   2.998   4.239   2.445 -0.1267  0.1154  0.4629
  739MOL0     C 1879   3.093   4.186   2.539  0.7273  0.7149  0.0486
  739MOL0     O 1880   3.217   4.238   2.552  1.1359 -0.2240 -0.6973
  739MOL0     C 1881   3.237   4.374   2.513 -0.1310  0.4941  0.3646
  739MOL0     C 1882   3.392   4.397   2.526  0.0099 -0.3251  0.1404
  739MOL0     C 1883   3.457   4.362   2.661  0.5182 -0.2721 -0.4773
  739MOL0     C 1884   3.478   4.492   2.736 -0.6307 -0.8726  0.1472
  739MOL0     C 1885   3.556   4.487   2.861 -0.3487 -0.7521 -0.1562
  739MOL0     C 1886   3.487   4.419   2.994  0.7415  0.0707  0.4375
  739MOL0     C 1887   3.381   4.511   3.057 -0.9270 -0.4417 -1.0068
  739MOL0     C 1888   3.332   4.452   3.192  0.6049  0.1691 -0.9336
  739MOL0    Cl 1889   3.200   4.551   3.260  0.0111 -0.1191 -0.4578
  739MOL0     C 1890   3.052   4.077   2.616 -0.1445  0.2685 -0.3980
  739MOL0     C 1891   2.918   4.036   2.622  0.0459  0.2636  0.2909
  739MOL0     O 1892   2.629   4.248   2.598  0.0385 -0.7201  0.1686
  739MOL0     C 1893   2.378   4.173   2.636 -0.3352  0.4756  0.9135
  739MOL0     C 1894   2.239   4.166   2.626 -0.1305 -0.1596  0.2354
  739MOL0     N 1895   2.020   4.284   2.978 -0.0963  0.3956 -0.0222
  739MOL0     N 1896   2.071   4.375   3.049 -0.2032 -0.3038 -0.7956
  739MOL0     C 1897   1.244   5.076   3.095 -0.2560  0.3731  0.5475
  739MOL0     C 1898   1.117   5.142   3.074  0.8755  0.3084 -0.4090
  739MOL0     C 1899   0.824   5.436   2.921 -0.1337  0.3978  0.2077
  739MOL0     C 1900   0.797   5.534   3.012 -0.0391 -0.3998 -0.7760
  739MOL0     C 1901   0.677   5.606   3.018  0.5935  0.2202  0.4459
  739MOL0     C 1902   0.582   5.575   2.917  1.3213 -0.2096 -0.2430
  739MOL0     O 1903   0.465   5.655   2.896  0.0115  0.1087  0.6080
  739MOL0     C 1904   0.438   5.756   2.984  0.7291 -0.3806 -0.6737
  739MOL0     C 1905   0.313   5.835   2.944  0.4263 -0.3003 -0.2943
  739MOL0     C 1906   0.337   5.893   2.810  0.1847  0.3097  0.6252
  739MOL0     C 1907   0.220   5.982   2.769  0.5435  0.2047  0.4389
  739MOL0     C 1908   0.253   6.025   2.637 -0.4851 -0.1956 -0.1653
  739MOL0     C 1909   0.290   6.069   2.527 -0.6418  0.0771  0.2919
  739MOL0     C 1910   0.602   5.476   2.828 -0.1355  0.3626  0.4152
  739MOL0     C 1911   0.722   5.407   2.828  0.0570  0.6345 -1.0345
  739MOL0     C 1912   0.735   5.306   2.721  0.4689 -0.0423 -0.5542
  739MOL0     H 1913   1.148   5.175   2.735  3.8741  0.5563 -1.2068
  739MOL0     H 1914   1.371   5.102   2.788 -0.7105  0.8247 -0.3885
  739MOL0     H 1915   1.492   4.960   3.216 -0.7678 -1.0474 -0.7661
  739MOL0     H 1916   1.519   5.136   3.194  3.7832 -0.9409  2.6524
  739MOL0     H 1917   1.702   5.099   3.040  0.8235 -0.1373 -0.1979
  739MOL0     H 1918   1.740   5.042   3.208 -1.9896 -0.8162  0.3082
  739MOL0     H 1919   1.667   4.803   3.104 -0.3490 -0.2703 -1.3855
  739MOL0     H 1920   1.701   4.882   2.962  2.2844  1.9597 -1.6104
  739MOL0     H 1921   1.917   4.958   3.060 -3.4996  0.3203 -2.6971
  739MOL0     H 1922   1.883   4.848   3.209 -0.5684 -0.6537  0.0571
  739MOL0     H 1923   1.916   4.786   2.915  0.4682  1.0858 -0.7157
  739MOL0     H 1924   1.869   4.660   3.028  1.2696 -0.8390 -0.4159
  739MOL0     H 1925   2.116   4.654   2.979 -1.0083 -2.5753  1.1330
  739MOL0     H 1926   2.137   4.803   3.064  3.7667 -1.6023 -1.3190
  739MOL0     H 1927   2.091   4.714   3.281  0.3306 -1.7262  1.4192
  739MOL0     H 1928   2.178   4.587   3.210  0.2675 -0.3581  1.6259
  739MOL0     H 1929   2.009   4.489   3.327 -0.1204  0.9739  0.1787
  739MOL0     H 1930   1.881   4.572   3.246 -0.4675 -0.6176 -0.2094
  739MOL0     H 1931   1.759   4.376   3.153 -0.1393 -1.1851 -0.5688
  739MOL0     H 1932   1.695   4.203   2.976 -0.3243 -0.1864 -1.4292
  739MOL0     H 1933   1.820   4.075   2.986  1.9315 -0.2601 -2.9986
  739MOL0     H 1934   1.717   4.144   2.741 -0.2000  1.3868  0.7746
  739MOL0     H 1935   1.812   4.289   2.766 -2.9245  0.9769  1.8588
  739MOL0     H 1936   2.008   4.117   2.800 -1.1843  1.4904  1.5362
  739MOL0     H 1937   1.893   3.999   2.726 -0.9218  0.6045  1.3973
  739MOL0     H 1938   1.851   4.139   2.535 -0.0387 -1.6388  0.2729
  739MOL0     H 1939   1.969   4.264   2.594 -0.9404  0.1147  0.3161
  739MOL0     H 1940   2.200   3.933   2.388  1.1813 -2.0959  0.6874
  739MOL0     H 1941   2.542   3.869   2.434 -0.2468  2.3966  1.8540
  739MOL0     H 1942   2.541   3.983   2.304  0.7368  0.8028  1.0297
  739MOL0     H 1943   2.415   3.865   2.299  0.1390 -2.1955  1.9371
  739MOL0     H 1944   2.815   4.231   2.356 -0.0852  2.4751  2.1378
  739MOL0     H 1945   3.026   4.306   2.365 -3.7069  1.3761  0.0609
  739MOL0     H 1946   3.209   4.398   2.410  0.9782  0.3254  0.0122
  739MOL0     H 1947   3.169   4.437   2.570 -3.3312 -0.7282 -1.8439
  739MOL0     H 1948   3.439   4.337   2.447  1.5993  3.7128 -2.2571
  739MOL0     H 1949   3.406   4.503   2.508 -0.8372 -0.6226 -2.7508
  739MOL0     H 1950   3.554   4.322   2.631  0.1884  1.7658 -5.0366
  739MOL0     H 1951   3.400   4.297   2.728  1.2392  1.0549  1.5471
  739MOL0     H 1952   3.385   4.539   2.768 -0.3904  0.0505 -0.4695
  739MOL0     H 1953   3.533   4.557   2.667  0.4498 -0.6236  1.2136
  739MOL0     H 1954   3.648   4.431   2.840 -0.8544 -1.2551 -1.0978
  739MOL0     H 1955   3.594   4.587   2.885  1.9360 -1.8684  1.3459
  739MOL0     H 1956   3.560   4.391   3.070  1.5363 -1.6640 -0.8860
  739MOL0     H 1957   3.439   4.325   2.965  0.9918 -0.8280  2.7379
  739MOL0     H 1958   3.298   4.517   2.987 -1.9131  3.4842  0.2685
  739MOL0     H 1959   3.412   4.614   3.072  2.2330 -1.3386 -0.5398
  739MOL0     H 1960   3.415   4.437   3.263 -1.2023 -1.4889  0.9746
  739MOL0     H 1961   3.287   4.355   3.171 -2.0482  0.3891  2.6270
  739MOL0     H 1962   3.127   4.023   2.673  1.2276  0.0148 -2.3506
  739MOL0     H 1963   2.879   3.964   2.693 -0.3608  1.5519  1.4217
  739MOL0     H 1964   2.428   4.244   2.700  0.9344  0.3278  0.1013
  739MOL0     H 1965   2.174   4.232   2.683 -1.8844 -0.0749 -1.7345
  739MOL0     H 1966   1.270   5.066   3.200  2.1535 -3.9408 -0.2161
  739MOL0     H 1967   1.062   5.172   3.163  0.5814  0.4943 -0.6488
  739MOL0     H 1968   0.867   5.533   3.095 -0.7365 -3.0456 -0.1305
  739MOL0     H 1969   0.662   5.678   3.098  2.2393  1.4581 -0.2960
  739MOL0     H 1970   0.408   5.705   3.076  1.8198 -0.4516 -0.3446
  739MOL0     H 1971   0.525   5.820   3.003  0.2695 -0.3685  1.7288
  739MOL0     H 1972   0.287   5.909   3.020  1.5114  0.0325 -0.2296
  739MOL0     H 1973   0.239   5.755   2.934  0.5511 -0.1585 -3.8525
  739MOL0     H 1974   0.431   5.947   2.801 -1.2211  2.4435 -3.1098
  739MOL0     H 1975   0.342   5.816   2.732 -0.1067  0.6233  0.2953
  739MOL0     H 1976   0.214   6.063   2.843  0.2698  1.2392 -0.6843
  739MOL0     H 1977   0.129   5.922   2.773  0.7158 -0.0479  0.6478
  739MOL0     H 1978   0.309   6.112   2.430  1.8646 -0.5268  0.4440
  739MOL0     H 1979   0.527   5.454   2.754  2.5716  0.9253 -2.7144
  739MOL0     H 1980   0.838   5.323   2.690  1.1248 -0.3408  1.3608
  739MOL0     H 1981   0.721   5.210   2.771  1.7995 -0.7986 -1.5787
  739MOL0     H 1982   0.656   5.333   2.650 -1.9995  0.1274  2.0493
  740MOL0     O 1983  10.772   7.958   4.987  0.2496  0.1445  0.1741
  740MOL0     C 1984  10.771   7.997   4.863 -0.3779 -0.3682  0.3552
  740MOL0     O 1985  10.881   7.999   4.781  0.5634 -0.6776  0.2562
  740MOL0     C 1986  10.994   7.933   4.803  0.5007 -0.3217 -0.0796
  740MOL0     C 1987  11.094   7.982   4.887  0.4491  0.4993 -0.0079
  740MOL0     C 1988  11.203   7.893   4.920  0.3504 -0.5853 -0.0281
  740MOL0     C 1989  11.214   7.774   4.860  0.2583  0.2248 -0.0145
  740MOL0     O 1990  11.324   7.692   4.901  0.0179  0.1318 -0.9507
  740MOL0     C 1991  11.303   7.551   4.886 -0.4652  0.1069  0.1985
  740MOL0     C 1992  11.404   7.488   4.979  0.3040 -0.1908 -0.1133
  740MOL0     C 1993  11.547   7.498   4.932 -1.1542 -0.1924  0.6453
  740MOL0     C 1994  11.608   7.413   4.815  1.3719 -0.6340 -0.4058
  740MOL0     C 1995  11.764   7.427   4.813  0.3971  1.1906 -0.3058
  740MOL0     C 1996  11.832   7.336   4.709  0.2175 -0.3266  0.0240
  740MOL0     C 1997  11.980   7.350   4.716 -0.3187  0.2361  0.4956
  740MOL0     C 1998  12.041   7.295   4.591  0.2985 -0.2236  1.0649
  740MOL0     N 1999  12.183   7.340   4.568 -0.0056 -0.1443 -0.4710
  740MOL0     C 2000  12.281   7.242   4.580  0.1977 -0.8581  0.2683
  740MOL0     C 2001  12.393   7.299   4.533  0.3439  0.1504  0.0674
  740MOL0     C 2002  12.523   7.232   4.534 -0.2427 -0.5619  0.9175
  740MOL0     C 2003  12.616   7.293   4.424  0.2749  0.7010 -0.3794
  740MOL0     C 2004  12.766   7.264   4.425  0.3572  0.4656  1.0028
  740MOL0     C 2005  12.799   7.115   4.441  0.1585 -0.1113  0.5187
  740MOL0     O 2006  12.938   7.090   4.421  0.6458 -0.3852 -0.2986
  740MOL0     C 2007  13.021   7.071   4.520  0.1565 -0.0919  0.8339
  740MOL0     C 2008  12.985   6.995   4.635  0.6276  0.6535 -0.1513
  740MOL0     C 2009  13.089   6.956   4.717  0.2516  0.5494 -0.6253
  740MOL0     C 2010  13.047   6.887   4.848 -0.5157 -0.6667  0.2396
  740MOL0     C 2011  13.223   6.986   4.689 -0.1046 -0.7107 -0.0023
  740MOL0     C 2012  13.334   6.941   4.775 -1.0070  0.3219 -0.1023
  740MOL0     O 2013  13.456   6.914   4.718  0.3378  0.2830  0.1743
  740MOL0     C 2014  13.567   6.901   4.789 -0.3334  0.0449  0.4437
  740MOL0     C 2015  13.651   6.798   4.764 -0.3279 -0.0206  0.7283
  740MOL0     C 2016  13.760   6.775   4.843 -0.8714 -0.4226  0.6259
  740MOL0     C 2017  13.804   6.869   4.940 -0.1898  0.3778 -0.0235
  740MOL0     O 2018  13.929   6.863   5.003 -0.4044  0.3803 -0.2181
  740MOL0     C 2019  14.042   6.805   4.937 -0.1627  0.4091  0.0073
  740MOL0     C 2020  14.173   6.866   4.955 -0.5123  0.3520  0.5498
  740MOL0     C 2021  14.215   6.878   5.103 -0.0125 -0.5953  0.5781
  740MOL0     C 2022  14.373   6.897   5.087  0.0835  0.0210 -0.0345
  740MOL0     C 2023  14.425   6.953   5.219 -1.2138 -0.3201  0.4157
  740MOL0     C 2024  14.583   6.969   5.216 -0.8781  0.0470 -0.1396
  740MOL0     C 2025  14.660   6.835   5.210  0.0560  0.3965  0.2202
  740MOL0     C 2026  14.809   6.860   5.184  0.7289  0.1309  0.5461
  740MOL0    Cl 2027  14.890   6.937   5.327 -0.0877  0.0517 -0.1172
  740MOL0     C 2028  13.724   6.986   4.962  0.2238  0.1032 -0.3463
  740MOL0     C 2029  13.611   7.003   4.877  0.2528  1.1394 -0.4453
  740MOL0     O 2030  13.318   6.955   4.898 -0.6311  0.0805  0.2094
  740MOL0     C 2031  13.244   7.072   4.582 -0.5368  0.9011 -0.8776
  740MOL0     C 2032  13.145   7.108   4.498  0.1151 -0.6360  0.1326
  740MOL0     N 2033  12.369   7.432   4.526 -0.1803 -0.0187 -0.1912
  740MOL0     N 2034  12.239   7.460   4.533  0.2680 -0.7953  0.6274
  740MOL0     C 2035  11.118   7.732   4.771 -0.8505 -0.0818 -0.1452
  740MOL0     C 2036  11.012   7.808   4.742  0.3537 -0.2497  0.1164
  740MOL0     C 2037  10.649   8.067   4.811 -1.2052 -0.1707  0.1668
  740MOL0     C 2038  10.527   8.052   4.880  0.5208 -0.4374  0.2172
  740MOL0     C 2039  10.396   8.090   4.831  0.0319  0.2342  0.6224
  740MOL0     C 2040  10.403   8.174   4.713  0.4739  0.1197  0.9603
  740MOL0     O 2041  10.294   8.236   4.654  1.2874 -0.2255 -0.4062
  740MOL0     C 2042  10.167   8.212   4.705  0.5265 -0.1292 -0.9444
  740MOL0     C 2043  10.139   8.314   4.813  0.7709 -0.6799  0.2244
  740MOL0     C 2044  10.005   8.301   4.873  0.5332 -0.6078  0.3879
  740MOL0     C 2045   9.888   8.329   4.783  0.5574 -0.2269 -0.0724
  740MOL0     C 2046   9.882   8.469   4.741  0.2171 -1.0455 -0.5026
  740MOL0     C 2047   9.884   8.585   4.702 -0.2482  0.0191 -0.0057
  740MOL0     C 2048  10.524   8.190   4.643  0.3450 -1.3391 -0.5652
  740MOL0     C 2049  10.645   8.136   4.690 -0.6484  0.1130  0.7452
  740MOL0     C 2050  10.756   8.159   4.590  0.2784 -0.9113  0.3552
  740MOL0     H 2051  11.084   8.070   4.950  0.9369  0.8347 -0.3892
  740MOL0     H 2052  11.284   7.930   4.981  0.4304  4.0304 -2.4777
  740MOL0     H 2053  11.330   7.526   4.783  1.4912  0.5720  0.5491
  740MOL0     H 2054  11.203   7.524   4.919 -0.4101  1.9898  2.0765
  740MOL0     H 2055  11.386   7.540   5.073  2.6874  2.5987 -1.0517
  740MOL0     H 2056  11.373   7.385   4.997  0.2808  0.1358  1.9930
  740MOL0     H 2057  11.575   7.601   4.910  0.0949 -0.5090  0.6570
  740MOL0     H 2058  11.604   7.469   5.021  0.5833  3.4945  0.9235
  740MOL0     H 2059  11.588   7.305   4.817  1.0910 -0.5897 -0.7647
  740MOL0     H 2060  11.567   7.451   4.722  0.6680 -0.5919 -0.0830
  740MOL0     H 2061  11.807   7.399   4.910 -1.1519  0.0222  0.1038
  740MOL0     H 2062  11.788   7.532   4.797 -0.5825  1.9323  2.4662
  740MOL0     H 2063  11.808   7.234   4.739  2.7852 -0.4220  2.1793
  740MOL0     H 2064  11.787   7.358   4.612 -0.2228 -0.3129  0.2287
  740MOL0     H 2065  12.020   7.306   4.807  0.5144 -2.0817 -0.9053
  740MOL0     H 2066  12.014   7.453   4.729 -1.8982  0.5375  2.8982
  740MOL0     H 2067  12.035   7.186   4.603  0.5269 -0.3549  0.0983
  740MOL0     H 2068  11.980   7.325   4.505  0.2873 -0.2374  1.0678
  740MOL0     H 2069  12.269   7.139   4.613 -3.8126 -0.4784  0.4660
  740MOL0     H 2070  12.508   7.125   4.520  0.3217 -0.7359  1.5593
  740MOL0     H 2071  12.570   7.249   4.632 -0.1499  0.9725  0.6343
  740MOL0     H 2072  12.581   7.262   4.326 -2.6864 -0.3875  0.9118
  740MOL0     H 2073  12.602   7.402   4.425  0.1783  0.6978  0.9542
  740MOL0     H 2074  12.818   7.302   4.337  0.3498 -1.6634  0.0072
  740MOL0     H 2075  12.825   7.313   4.503 -0.5570  1.0832  1.3242
  740MOL0     H 2076  12.766   7.097   4.544  0.9664  1.6534  1.1307
  740MOL0     H 2077  12.734   7.065   4.368 -0.4142 -0.8233  1.4982
  740MOL0     H 2078  12.887   6.950   4.646  0.5808  0.0173 -2.6010
  740MOL0     H 2079  12.957   6.832   4.820 -0.4778  0.0481 -1.4184
  740MOL0     H 2080  13.043   6.955   4.934 -0.1525 -1.6311  1.0432
  740MOL0     H 2081  13.114   6.807   4.879  2.3137  1.5324  0.2282
  740MOL0     H 2082  13.624   6.733   4.682 -1.7041  0.2998  0.9051
  740MOL0     H 2083  13.813   6.689   4.804 -0.6798 -0.3277  0.6762
  740MOL0     H 2084  14.051   6.706   4.982  2.5945 -0.1787 -1.6539
  740MOL0     H 2085  14.025   6.800   4.829  1.6760  3.6867 -0.5742
  740MOL0     H 2086  14.240   6.799   4.901  0.0735  0.6282  0.9164
  740MOL0     H 2087  14.168   6.965   4.908 -2.8436 -0.3110 -0.7390
  740MOL0     H 2088  14.195   6.787   5.161 -0.1281 -1.4388 -0.7360
  740MOL0     H 2089  14.172   6.958   5.165  1.6099 -0.0810  1.0877
  740MOL0     H 2090  14.403   6.964   5.006  0.8907 -0.4594 -0.1441
  740MOL0     H 2091  14.415   6.797   5.073 -1.5623 -0.8456  0.8109
  740MOL0     H 2092  14.383   7.052   5.236  0.8662  1.1251 -2.0154
  740MOL0     H 2093  14.409   6.897   5.311 -1.0250  0.1781  0.7572
  740MOL0     H 2094  14.611   7.016   5.311 -1.4531 -1.1324  0.6253
  740MOL0     H 2095  14.614   7.038   5.136  1.2004 -0.9376 -0.2531
  740MOL0     H 2096  14.626   6.771   5.127 -0.8827  0.7110  0.3566
  740MOL0     H 2097  14.659   6.771   5.299 -1.7735 -1.3203 -0.9165
  740MOL0     H 2098  14.814   6.928   5.099 -0.4252  0.0969  0.4454
  740MOL0     H 2099  14.850   6.760   5.166 -3.7722 -1.8726  0.2042
  740MOL0     H 2100  13.757   7.067   5.027 -2.6609  0.6727  0.5696
  740MOL0     H 2101  13.558   7.097   4.889 -0.9249  0.5295 -0.7475
  740MOL0     H 2102  13.341   7.106   4.547 -0.8379  0.1484 -2.5747
  740MOL0     H 2103  13.159   7.179   4.417 -0.9524  1.6052  1.8040
  740MOL0     H 2104  11.131   7.633   4.728 -0.5085 -0.8546  1.6577
  740MOL0     H 2105  10.942   7.786   4.662 -0.2636  2.5113 -0.2203
  740MOL0     H 2106  10.523   7.989   4.968 -1.0554 -1.0949 -0.3000
  740MOL0     H 2107  10.301   8.070   4.879  0.3298  1.5736  1.8498
  740MOL0     H 2108  10.101   8.224   4.619 -2.0834  2.7073  1.2355
  740MOL0     H 2109  10.149   8.109   4.736  0.3769  0.3941  0.7663
  740MOL0     H 2110  10.148   8.420   4.787 -1.9466  0.7294  4.1378
  740MOL0     H 2111  10.220   8.305   4.886  1.5396  3.0915  0.0416
  740MOL0     H 2112  10.004   8.200   4.914  1.0525 -0.1653  1.5570
  740MOL0     H 2113  10.001   8.364   4.963 -1.1397  0.4863 -0.4034
  740MOL0     H 2114   9.794   8.294   4.828 -1.9930  3.7493 -1.7911
  740MOL0     H 2115   9.895   8.267   4.693 -1.8510  0.8514 -1.1059
  740MOL0     H 2116   9.895   8.687   4.674 -2.9894  0.1259 -0.9875
  740MOL0     H 2117  10.525   8.264   4.564  0.9900  2.1981  2.4722
  740MOL0     H 2118  10.720   8.209   4.499 -1.1370 -1.1361  0.7591
  740MOL0     H 2119  10.848   8.202   4.631  0.3285 -0.4259 -0.2419
  740MOL0     H 2120  10.764   8.059   4.546 -1.8553 -0.5477 -1.0599
  741MOL0     O 2121   8.393   6.178   6.964  0.2914  0.0223 -0.7534
  741MOL0     C 2122   8.383   6.070   7.026 -0.1116 -0.0163  0.4033
  741MOL0     O 2123   8.483   5.979   7.033 -0.4987 -0.1915 -0.1028
  741MOL0     C 2124   8.611   6.002   6.979 -0.1336  0.6045  0.0963
  741MOL0     C 2125   8.689   6.113   7.008 -0.9232 -0.2931  0.1562
  741MOL0     C 2126   8.817   6.126   6.947  0.7044  0.0301 -0.1554
  741MOL0     C 2127   8.858   6.038   6.845 -0.0583  0.7387 -0.4848
  741MOL0     O 2128   8.966   6.064   6.763 -0.2468  0.1818 -0.0172
  741MOL0     C 2129   9.073   6.148   6.808  0.3794  0.0273 -0.5876
  741MOL0     C 2130   9.172   6.167   6.705  0.5458 -0.4864  0.1859
  741MOL0     C 2131   9.274   6.287   6.719 -0.0392  0.1382  0.2545
  741MOL0     C 2132   9.363   6.301   6.592  0.4571 -0.5343 -0.2050
  741MOL0     C 2133   9.473   6.404   6.615  0.0694 -0.5468  0.0373
  741MOL0     C 2134   9.562   6.424   6.486 -0.1020  0.8091  0.9267
  741MOL0     C 2135   9.487   6.498   6.374  0.3248 -0.7627  0.1760
  741MOL0     C 2136   9.423   6.633   6.414 -0.5564  0.1137  0.3229
  741MOL0     N 2137   9.528   6.711   6.475  0.0743  0.2571 -1.4090
  741MOL0     C 2138   9.642   6.760   6.423  0.1076  1.0844  0.1777
  741MOL0     C 2139   9.675   6.862   6.503 -0.1288  0.2220 -0.0184
  741MOL0     C 2140   9.766   6.975   6.467  0.6070  0.2383 -0.5415
  741MOL0     C 2141   9.904   6.937   6.517  0.4280 -0.3448  1.0116
  741MOL0     C 2142  10.004   7.044   6.472 -0.1293 -0.3391  1.0171
  741MOL0     C 2143  10.138   7.038   6.536 -0.6717  0.3434  0.3347
  741MOL0     O 2144  10.200   6.918   6.474 -0.3142 -0.0654 -0.0684
  741MOL0     C 2145  10.338   6.892   6.479 -0.8440 -0.4292  0.4483
  741MOL0     C 2146  10.387   6.773   6.429 -0.0526 -0.0104 -0.4115
  741MOL0     C 2147  10.526   6.745   6.424  0.5615  0.9388  0.4076
  741MOL0     C 2148  10.571   6.605   6.369  0.4926 -1.1520 -0.3146
  741MOL0     C 2149  10.622   6.835   6.484  0.8044  0.0346  1.2683
  741MOL0     C 2150  10.773   6.819   6.475 -0.0028 -0.0378 -0.7641
  741MOL0     O 2151  10.830   6.703   6.448  0.0442  0.7110  0.2043
  741MOL0     C 2152  10.954   6.701   6.401 -0.6745  0.1875  0.5376
  741MOL0     C 2153  11.013   6.793   6.307  0.0857  0.6155 -0.7110
  741MOL0     C 2154  11.136   6.771   6.236  0.0899 -0.0972  0.2084
  741MOL0     C 2155  11.218   6.659   6.267  0.4955  0.1193  0.0549
  741MOL0     O 2156  11.339   6.624   6.218  0.1819  0.1097  1.0429
  741MOL0     C 2157  11.417   6.722   6.143 -0.1039 -0.3709  0.6032
  741MOL0     C 2158  11.567   6.678   6.128 -0.1853  0.5716 -1.1214
  741MOL0     C 2159  11.645   6.705   6.254 -0.5858  0.1062 -0.6011
  741MOL0     C 2160  11.796   6.685   6.247 -0.1767 -0.3747 -0.6935
  741MOL0     C 2161  11.863   6.748   6.374 -0.9385  0.8336  0.3970
  741MOL0     C 2162  12.017   6.746   6.361 -0.0717  0.2714  0.7113
  741MOL0     C 2163  12.070   6.847   6.466  0.3337  0.0159 -0.3740
  741MOL0     C 2164  12.213   6.897   6.427 -0.0234  0.7736 -0.0512
  741MOL0    Cl 2165  12.303   6.941   6.578  0.4482 -0.0196  0.2778
  741MOL0     C 2166  11.166   6.573   6.369  0.4756 -0.4020  0.2502
  741MOL0     C 2167  11.043   6.596   6.441  0.4493  0.1692  0.6178
  741MOL0     O 2168  10.832   6.923   6.507 -0.0663  0.2395 -0.7252
  741MOL0     C 2169  10.569   6.955   6.541 -1.2243 -0.5522 -0.1700
  741MOL0     C 2170  10.427   6.974   6.541  0.0643 -0.6010  0.2301
  741MOL0     N 2171   9.594   6.856   6.612 -1.0276  0.4232 -0.6002
  741MOL0     N 2172   9.503   6.770   6.597 -0.4368  0.5179 -0.4507
  741MOL0     C 2173   8.770   5.932   6.810 -1.1414 -0.3559 -0.8874
  741MOL0     C 2174   8.655   5.910   6.884  0.4889  0.7443  0.7759
  741MOL0     C 2175   8.252   6.047   7.087 -0.2826  0.6077  0.1561
  741MOL0     C 2176   8.203   5.919   7.079 -0.1221  0.5812 -0.8789
  741MOL0     C 2177   8.089   5.878   7.149 -0.2917  0.0487  0.6819
  741MOL0     C 2178   8.021   5.966   7.233  0.3286  0.8494  0.1136
  741MOL0     O 2179   7.910   5.943   7.307 -0.7301 -0.1542 -0.1739
  741MOL0     C 2180   7.798   5.902   7.232  0.6094  0.7846  0.5473
  741MOL0     C 2181   7.673   5.911   7.315  0.9748 -0.4971  0.0830
  741MOL0     C 2182   7.532   5.896   7.258 -0.8392  0.9472  0.3680
  741MOL0     C 2183   7.432   5.903   7.371  0.0960  0.5450 -0.4906
  741MOL0     C 2184   7.308   5.862   7.303 -0.7464 -0.2221  0.3904
  741MOL0     C 2185   7.204   5.821   7.258  1.0568  0.0017 -0.4814
  741MOL0     C 2186   8.059   6.096   7.227 -0.7826  0.3068  0.0621
  741MOL0     C 2187   8.175   6.135   7.159 -0.4960  0.3327 -0.6190
  741MOL0     C 2188   8.231   6.270   7.179 -0.1752  0.8877  0.3294
  741MOL0     H 2189   8.654   6.181   7.085  0.2139 -0.6625  1.0223
  741MOL0     H 2190   8.882   6.206   6.979  0.0990  0.7021 -0.5809
  741MOL0     H 2191   9.120   6.110   6.899  3.2262  3.7826 -0.2553
  741MOL0     H 2192   9.030   6.246   6.831 -0.3112 -0.7913  1.9555
  741MOL0     H 2193   9.235   6.078   6.707 -0.2991 -1.0906  1.4993
  741MOL0     H 2194   9.121   6.171   6.609 -1.6744  1.1972  1.3450
  741MOL0     H 2195   9.205   6.370   6.730 -2.6895 -1.8769 -0.0981
  741MOL0     H 2196   9.336   6.280   6.809  0.2304 -0.9456  0.0080
  741MOL0     H 2197   9.416   6.208   6.570 -1.6055 -1.3422 -2.1857
  741MOL0     H 2198   9.299   6.331   6.509 -0.3686  1.1464  0.9765
  741MOL0     H 2199   9.537   6.360   6.691 -2.0669 -1.8053  1.2044
  741MOL0     H 2200   9.437   6.501   6.652  2.8765  0.6469 -0.1310
  741MOL0     H 2201   9.652   6.471   6.526  0.6817 -3.4970  5.1324
  741MOL0     H 2202   9.594   6.328   6.446 -3.1251 -1.5814  3.6964
  741MOL0     H 2203   9.413   6.423   6.345  0.7551 -0.5665 -1.4975
  741MOL0     H 2204   9.550   6.522   6.287  0.5994  0.3446  0.6585
  741MOL0     H 2205   9.390   6.684   6.323  0.4344 -1.5486 -1.0071
  741MOL0     H 2206   9.335   6.613   6.476 -1.0751 -2.3353 -1.0686
  741MOL0     H 2207   9.673   6.737   6.321 -1.6168  1.8156 -0.5389
  741MOL0     H 2208   9.721   7.066   6.507 -2.6973  0.3079 -3.9119
  741MOL0     H 2209   9.782   6.993   6.360 -0.0400 -0.3135 -0.7364
  741MOL0     H 2210   9.910   6.940   6.627  1.2222  4.4066  1.0511
  741MOL0     H 2211   9.951   6.844   6.483  2.9370  0.7626  1.2581
  741MOL0     H 2212  10.013   7.054   6.364 -1.5383 -0.9529  0.8197
  741MOL0     H 2213   9.948   7.130   6.508  0.3443  0.4595 -0.1027
  741MOL0     H 2214  10.193   7.130   6.516 -1.3354  0.5552 -0.5919
  741MOL0     H 2215  10.131   7.028   6.644  1.1330  1.5470  0.5959
  741MOL0     H 2216  10.326   6.688   6.399  2.8650 -2.6065  0.4546
  741MOL0     H 2217  10.497   6.584   6.290 -1.0691  0.1261  0.7467
  741MOL0     H 2218  10.575   6.521   6.438  1.9616 -1.7803 -1.1161
  741MOL0     H 2219  10.667   6.604   6.315  1.0111  3.2571  0.1490
  741MOL0     H 2220  10.950   6.880   6.290  0.8522  2.0277  2.8194
  741MOL0     H 2221  11.164   6.845   6.162 -1.7900  2.4376  1.8943
  741MOL0     H 2222  11.373   6.745   6.046  1.1751 -2.0348 -0.4212
  741MOL0     H 2223  11.409   6.821   6.190 -1.1628  0.6404 -1.5454
  741MOL0     H 2224  11.578   6.572   6.105 -2.1608 -0.5623  2.4060
  741MOL0     H 2225  11.613   6.725   6.041 -0.9154  1.5948 -0.9687
  741MOL0     H 2226  11.607   6.631   6.326  0.4116  0.6058  0.4778
  741MOL0     H 2227  11.627   6.808   6.286 -0.5478  0.4539 -1.6563
  741MOL0     H 2228  11.834   6.725   6.152 -0.1175 -0.1577 -0.5776
  741MOL0     H 2229  11.818   6.578   6.244  1.2273 -0.1318 -0.1552
  741MOL0     H 2230  11.826   6.851   6.377 -3.0898  0.1392 -0.5660
  741MOL0     H 2231  11.830   6.679   6.453  0.2510 -3.0306 -2.1918
  741MOL0     H 2232  12.042   6.779   6.260 -1.4115  0.5248  0.4458
  741MOL0     H 2233  12.060   6.646   6.372 -1.4935 -0.3340  1.0516
  741MOL0     H 2234  12.069   6.789   6.559 -1.6742 -2.5222 -1.8651
  741MOL0     H 2235  12.007   6.934   6.486 -0.7460 -0.4866 -1.4853
  741MOL0     H 2236  12.202   6.986   6.364 -2.6971 -0.1895 -1.0611
  741MOL0     H 2237  12.275   6.818   6.385  0.5333  0.4310  1.3618
  741MOL0     H 2238  11.232   6.499   6.413  2.3976  1.3421  0.4343
  741MOL0     H 2239  11.005   6.525   6.514 -0.4011 -2.4828 -2.1670
  741MOL0     H 2240  10.631   7.038   6.574 -1.5706 -0.5265  0.4334
  741MOL0     H 2241  10.391   7.067   6.585 -1.6460 -1.1417  0.0397
  741MOL0     H 2242   8.804   5.862   6.736 -1.1005  1.7767 -3.0013
  741MOL0     H 2243   8.594   5.823   6.862  0.4211  0.8907  0.3853
  741MOL0     H 2244   8.247   5.836   7.024 -1.2742 -1.3691  0.9792
  741MOL0     H 2245   8.073   5.772   7.164 -0.5545 -0.0231 -0.0628
  741MOL0     H 2246   7.784   5.964   7.143 -0.2701 -0.6729 -0.3623
  741MOL0     H 2247   7.815   5.800   7.196 -1.6587  0.7246 -0.5261
  741MOL0     H 2248   7.676   6.008   7.367  1.1975  0.4969 -1.7195
  741MOL0     H 2249   7.685   5.843   7.400  0.1548 -0.2443  0.4234
  741MOL0     H 2250   7.507   5.974   7.185 -1.5179 -1.0698 -1.6397
  741MOL0     H 2251   7.531   5.802   7.203 -0.5570  0.2648  1.5067
  741MOL0     H 2252   7.418   6.001   7.416 -2.4176 -0.8916  2.1980
  741MOL0     H 2253   7.449   5.829   7.451 -1.2068  1.7607  0.9717
  741MOL0     H 2254   7.111   5.804   7.208  0.9832  0.6185 -0.5627
  741MOL0     H 2255   8.000   6.161   7.291 -0.4792 -0.0782  0.7576
  741MOL0     H 2256   8.218   6.329   7.088  1.7112  1.5998  0.4657
  741MOL0     H 2257   8.179   6.314   7.264 -3.1118  0.3873 -1.0841
  741MOL0     H 2258   8.338   6.278   7.201  0.6903  0.6544 -3.2273
  742MOL0     O 2259   4.387  11.268   0.116 -0.0674  0.6064  0.7241
  742MOL0     C 2260   4.319  11.357   0.056 -1.1994 -1.0660 -0.4226
  742MOL0     O 2261   4.372  11.477   0.017  0.0712  0.1223 -0.5435
  742MOL0     C 2262   4.502  11.509   0.055  0.2089  0.3840 -1.0519
  742MOL0     C 2263   4.540  11.515   0.196  0.9589 -0.7564  0.1745
  742MOL0     C 2264   4.667  11.557   0.231 -0.6133 -0.1355  0.6041
  742MOL0     C 2265   4.761  11.584   0.133  0.5603  0.6339  0.2796
  742MOL0     O 2266   4.893  11.600   0.174  0.2478  0.0603  0.6366
  742MOL0     C 2267   4.934  11.699   0.271  0.7666 -0.2084 -0.5330
  742MOL0     C 2268   4.894  11.844   0.240  1.0727  0.1990 -0.1342
  742MOL0     C 2269   4.897  11.876   0.087  0.1782  0.0842 -0.2577
  742MOL0     C 2270   4.885  12.030   0.085 -0.0857 -0.0740 -0.8381
  742MOL0     C 2271   4.892  12.074  -0.055 -0.3428  0.3926 -0.3219
  742MOL0     C 2272   4.822  12.205  -0.064  0.8888  0.6507  0.2396
  742MOL0     C 2273   4.823  12.243  -0.210 -0.3359  0.6983 -0.1831
  742MOL0     C 2274   4.783  12.390  -0.235 -0.1743  0.8070  0.6239
  742MOL0     N 2275   4.642  12.404  -0.217 -0.8347 -0.0541 -0.2427
  742MOL0     C 2276   4.544  12.398  -0.309 -0.1766 -0.6213 -0.1837
  742MOL0     C 2277   4.424  12.424  -0.255  0.0770 -0.0666  0.2380
  742MOL0     C 2278   4.289  12.410  -0.322  0.8581  0.9736 -0.5976
  742MOL0     C 2279   4.283  12.374  -0.473  0.8222 -0.9369 -0.4534
  742MOL0     C 2280   4.311  12.501  -0.557  0.6276  0.0934 -0.4783
  742MOL0     C 2281   4.326  12.453  -0.696  0.2392  0.6288 -0.3274
  742MOL0     O 2282   4.356  12.559  -0.782 -0.7443  0.7660 -0.3666
  742MOL0     C 2283   4.480  12.572  -0.831 -0.0402  0.4133 -0.0179
  742MOL0     C 2284   4.595  12.520  -0.761  1.0668 -0.7737  0.2242
  742MOL0     C 2285   4.721  12.560  -0.801 -0.0434 -0.4970 -0.4280
  742MOL0     C 2286   4.835  12.506  -0.723  0.1904 -1.0406 -1.3638
  742MOL0     C 2287   4.736  12.625  -0.927  0.0740 -0.3179 -0.0693
  742MOL0     C 2288   4.869  12.636  -0.989  0.0154 -0.0124  0.5676
  742MOL0     O 2289   4.877  12.607  -1.127 -0.8758 -0.2713 -0.3814
  742MOL0     C 2290   4.997  12.623  -1.197  0.2237  0.3063  0.7508
  742MOL0     C 2291   5.114  12.550  -1.187  0.1946 -0.8831 -0.1475
  742MOL0     C 2292   5.223  12.572  -1.266  0.4674 -0.1202  0.4293
  742MOL0     C 2293   5.209  12.659  -1.374  0.3410  0.9064  0.6515
  742MOL0     O 2294   5.321  12.664  -1.438 -0.7316 -0.3644  0.5177
  742MOL0     C 2295   5.346  12.799  -1.454 -0.4886 -0.6715 -0.1799
  742MOL0     C 2296   5.491  12.802  -1.506 -0.1651 -0.5545  0.3303
  742MOL0     C 2297   5.541  12.948  -1.528 -0.5779 -0.2609  0.6946
  742MOL0     C 2298   5.678  12.940  -1.594  0.2044  0.0735  0.0205
  742MOL0     C 2299   5.745  13.082  -1.596  0.7125 -0.4616  1.1242
  742MOL0     C 2300   5.883  13.099  -1.667  0.0702  0.8926 -0.6990
  742MOL0     C 2301   5.981  12.983  -1.638 -0.1387  0.3801 -0.2809
  742MOL0     C 2302   6.124  13.017  -1.687 -0.3530 -0.8283  0.3779
  742MOL0    Cl 2303   6.188  13.168  -1.630  0.2444 -0.4349  0.4413
  742MOL0     C 2304   5.088  12.719  -1.407 -0.4491  0.2967 -0.4945
  742MOL0     C 2305   4.986  12.706  -1.307 -0.5318 -0.0601  1.2258
  742MOL0     O 2306   4.964  12.672  -0.923 -0.4179  0.5374  0.1839
  742MOL0     C 2307   4.617  12.665  -0.992  0.3386  0.1007  0.2021
  742MOL0     C 2308   4.489  12.648  -0.944 -0.4001  0.0296  1.2028
  742MOL0     N 2309   4.450  12.440  -0.119 -0.1133  0.2905  0.1228
  742MOL0     N 2310   4.579  12.439  -0.103  0.1439 -0.5255  0.2896
  742MOL0     C 2311   4.724  11.563  -0.003  0.0015  0.2679 -0.4832
  742MOL0     C 2312   4.592  11.532  -0.038 -1.1088  0.4584  0.5371
  742MOL0     C 2313   4.171  11.345   0.035 -0.0065 -0.2581 -0.2058
  742MOL0     C 2314   4.109  11.433  -0.046  0.0632 -0.4686 -0.0407
  742MOL0     C 2315   3.968  11.428  -0.051 -0.1813 -0.0791 -0.1260
  742MOL0     C 2316   3.889  11.327   0.017 -0.1337  0.5656 -0.1000
  742MOL0     O 2317   3.750  11.324   0.027  0.3101 -0.7118 -0.7737
  742MOL0     C 2318   3.682  11.199   0.059  0.6133 -0.7228  0.2724
  742MOL0     C 2319   3.526  11.225   0.044 -0.6600 -0.5569  0.4278
  742MOL0     C 2320   3.438  11.098   0.051 -0.0789  0.6048  0.4923
  742MOL0     C 2321   3.298  11.137   0.101  1.5748  0.5308 -0.0270
  742MOL0     C 2322   3.203  11.029   0.130  0.0959  0.1763  0.6981
  742MOL0     C 2323   3.130  10.939   0.165 -0.1521  0.2737 -0.1090
  742MOL0     C 2324   3.962  11.224   0.078 -0.7067 -0.6266 -0.1032
  742MOL0     C 2325   4.099  11.236   0.098  0.5838 -0.7130 -0.3731
  742MOL0     C 2326   4.169  11.132   0.186 -0.6387 -0.4463 -0.8457
  742MOL0     H 2327   4.467  11.491   0.272 -2.3601  2.2691 -1.7359
  742MOL0     H 2328   4.704  11.572   0.332  1.0493 -2.5706  0.4379
  742MOL0     H 2329   5.043  11.698   0.272  0.7873 -1.9836  1.3293
  742MOL0     H 2330   4.904  11.657   0.367  1.0959 -0.4374 -0.5296
  742MOL0     H 2331   4.793  11.859   0.282 -0.5025 -4.8009 -1.4819
  742MOL0     H 2332   4.962  11.917   0.285  3.5133 -1.0990 -1.5478
  742MOL0     H 2333   4.996  11.842   0.054  1.1600  0.9408  1.6100
  742MOL0     H 2334   4.830  11.833   0.013  4.6993  1.1679 -5.7398
  742MOL0     H 2335   4.789  12.061   0.128 -0.3722 -2.1472  0.1329
  742MOL0     H 2336   4.966  12.077   0.140  1.4241 -2.3404 -0.9943
  742MOL0     H 2337   4.845  12.000  -0.121 -2.0497 -0.2633  1.5335
  742MOL0     H 2338   4.998  12.089  -0.076 -0.4493  1.0582 -0.4032
  742MOL0     H 2339   4.717  12.194  -0.038  0.4759  0.6387 -1.3483
  742MOL0     H 2340   4.876  12.278  -0.003  1.7245 -1.3417  2.0078
  742MOL0     H 2341   4.749  12.184  -0.265  1.4196 -0.5070 -1.3680
  742MOL0     H 2342   4.923  12.230  -0.254 -1.5303 -1.6625 -2.4629
  742MOL0     H 2343   4.839  12.451  -0.164  1.6436  1.1102 -0.9597
  742MOL0     H 2344   4.805  12.420  -0.338  2.2331 -3.2320 -0.3014
  742MOL0     H 2345   4.564  12.362  -0.409 -0.8248  0.7981 -0.8473
  742MOL0     H 2346   4.228  12.499  -0.302 -0.1148  0.2479 -0.2968
  742MOL0     H 2347   4.240  12.329  -0.268  0.5387  1.4313 -0.1844
  742MOL0     H 2348   4.358  12.298  -0.497 -2.6730 -3.5557 -4.2908
  742MOL0     H 2349   4.182  12.333  -0.483  0.8818 -1.7382  1.7002
  742MOL0     H 2350   4.248  12.590  -0.554 -1.0122 -1.0363 -0.3869
  742MOL0     H 2351   4.408  12.540  -0.524 -0.5891  0.9042  2.3906
  742MOL0     H 2352   4.412  12.386  -0.705 -1.3676 -1.6027 -0.0243
  742MOL0     H 2353   4.238  12.401  -0.735 -0.2598  1.1637  0.0664
  742MOL0     H 2354   4.585  12.454  -0.675 -3.3749 -1.4218 -0.5233
  742MOL0     H 2355   4.884  12.590  -0.672  1.2349 -0.9915 -2.4143
  742MOL0     H 2356   4.897  12.440  -0.784 -0.7918 -2.3197 -1.0256
  742MOL0     H 2357   4.795  12.445  -0.641 -1.2748  0.4554 -0.9130
  742MOL0     H 2358   5.126  12.488  -1.099  0.0164 -1.2230 -0.3568
  742MOL0     H 2359   5.317  12.523  -1.245  0.5226  0.0421  0.5646
  742MOL0     H 2360   5.286  12.841  -1.535 -1.0193  2.7225  1.8121
  742MOL0     H 2361   5.330  12.850  -1.359  0.9225  0.1632 -0.3607
  742MOL0     H 2362   5.565  12.756  -1.439 -1.3529 -5.1237 -1.1431
  742MOL0     H 2363   5.496  12.740  -1.596  0.2318 -2.0210  1.3248
  742MOL0     H 2364   5.550  13.007  -1.437  2.3671  0.2519  0.1589
  742MOL0     H 2365   5.470  13.000  -1.595  1.5650  0.9423 -0.7571
  742MOL0     H 2366   5.661  12.894  -1.692  2.1211 -0.1942 -0.2076
  742MOL0     H 2367   5.743  12.880  -1.531  0.2915  1.7448  1.6084
  742MOL0     H 2368   5.676  13.159  -1.632  1.4198 -0.1957  0.2911
  742MOL0     H 2369   5.757  13.103  -1.489  0.3680 -2.5295  1.6035
  742MOL0     H 2370   5.931  13.183  -1.617  1.3190  0.2840 -0.8456
  742MOL0     H 2371   5.886  13.122  -1.774  4.4458 -1.5260 -1.3371
  742MOL0     H 2372   5.953  12.892  -1.691  1.2228  0.2467 -0.8268
  742MOL0     H 2373   5.988  12.968  -1.530  1.9680 -2.0831 -0.6736
  742MOL0     H 2374   6.126  13.027  -1.796  0.2184 -4.4120 -0.0998
  742MOL0     H 2375   6.185  12.930  -1.659 -1.1794 -1.3984  0.4421
  742MOL0     H 2376   5.077  12.776  -1.498  0.7709  1.5965  0.1221
  742MOL0     H 2377   4.887  12.745  -1.327  0.8253  1.7345 -3.6197
  742MOL0     H 2378   4.620  12.703  -1.094 -1.7513 -0.3910 -0.0779
  742MOL0     H 2379   4.403  12.689  -0.996 -1.0112 -0.2461  1.9912
  742MOL0     H 2380   4.787  11.600  -0.083  1.2570  3.2282  1.6971
  742MOL0     H 2381   4.568  11.523  -0.144 -2.3100 -1.0527  0.9025
  742MOL0     H 2382   4.152  11.520  -0.093 -0.6872 -1.7558 -3.3775
  742MOL0     H 2383   3.910  11.496  -0.113  2.0798  1.4580 -0.6859
  742MOL0     H 2384   3.709  11.128  -0.020  0.8562 -0.7793  0.4051
  742MOL0     H 2385   3.706  11.150   0.154  0.3958 -1.7584 -0.1939
  742MOL0     H 2386   3.506  11.277  -0.050  0.2653  0.4518  0.7619
  742MOL0     H 2387   3.505  11.281   0.135  0.3923  1.5332 -0.5541
  742MOL0     H 2388   3.439  11.049  -0.047  4.1776 -3.1109  2.0161
  742MOL0     H 2389   3.480  11.024   0.119 -0.5541  1.4220  1.7073
  742MOL0     H 2390   3.247  11.197   0.025  1.9253  1.1875  0.2485
  742MOL0     H 2391   3.297  11.197   0.193 -3.1155  0.4635  0.2228
  742MOL0     H 2392   3.052  10.870   0.188  0.9172 -1.4375 -1.3575
  742MOL0     H 2393   3.908  11.149   0.135 -0.5730 -2.0878 -1.8013
  742MOL0     H 2394   4.227  11.060   0.127  1.0023 -0.8004  1.0796
  742MOL0     H 2395   4.230  11.181   0.262 -0.1404  0.9019 -2.0728
  742MOL0     H 2396   4.096  11.072   0.241 -0.0690 -1.6695 -1.3721
  743MOL0     O 2397   9.816   5.019   4.392  0.2300  0.0857 -0.1819
  743MOL0     C 2398   9.797   5.120   4.323  0.3428  0.5407  1.2245
  743MOL0     O 2399   9.700   5.214   4.348 -0.2353 -0.7691  0.4073
  743MOL0     C 2400   9.665   5.212   4.483 -0.0481  1.0427 -0.0502
  743MOL0     C 2401   9.734   5.253   4.597  0.6361  1.1691 -0.3753
  743MOL0     C 2402   9.681   5.243   4.722 -0.9018  0.4600  0.9649
  743MOL0     C 2403   9.557   5.189   4.743  0.2377 -0.1715  0.4211
  743MOL0     O 2404   9.510   5.200   4.875  0.1023 -0.0433  0.9177
  743MOL0     C 2405   9.408   5.107   4.916  0.4803 -0.6329 -0.2739
  743MOL0     C 2406   9.361   5.123   5.060 -0.5765  0.6969 -0.6340
  743MOL0     C 2407   9.478   5.144   5.161  0.4605  0.0219 -0.1370
  743MOL0     C 2408   9.582   5.025   5.165 -0.1033  0.1693  0.4613
  743MOL0     C 2409   9.668   5.033   5.290 -0.1465  0.1538 -0.3848
  743MOL0     C 2410   9.752   5.161   5.300  0.1950 -0.1404  0.1601
  743MOL0     C 2411   9.865   5.141   5.394  0.0865  0.0052  0.3619
  743MOL0     C 2412   9.950   5.270   5.418 -0.5311 -0.6262  0.3492
  743MOL0     N 2413  10.096   5.247   5.398  1.2940 -0.2736  0.8935
  743MOL0     C 2414  10.153   5.206   5.280  1.5038 -0.6519  0.1638
  743MOL0     C 2415  10.285   5.196   5.307  0.2034 -0.3504  0.1464
  743MOL0     C 2416  10.403   5.129   5.234  0.7230  0.3681 -0.5997
  743MOL0     C 2417  10.522   5.083   5.313  0.0155  0.9339  0.0117
  743MOL0     C 2418  10.628   5.006   5.230 -0.3176  0.1258 -0.3422
  743MOL0     C 2419  10.767   4.992   5.304 -1.0584 -0.5077  0.8126
  743MOL0     O 2420  10.827   5.128   5.323 -0.5203  0.2645  0.6100
  743MOL0     C 2421  10.945   5.133   5.387 -0.1172  0.7066 -0.7708
  743MOL0     C 2422  11.001   5.259   5.430  0.4231 -0.1438 -0.4837
  743MOL0     C 2423  11.120   5.277   5.497 -0.3709  0.1573 -0.5090
  743MOL0     C 2424  11.160   5.421   5.533  0.7515  0.1832  0.2125
  743MOL0     C 2425  11.211   5.165   5.509  0.3882 -0.4574 -0.9925
  743MOL0     C 2426  11.340   5.183   5.577 -0.0136 -0.4865 -0.0223
  743MOL0     O 2427  11.361   5.291   5.664  0.5167  0.1646  0.2612
  743MOL0     C 2428  11.489   5.319   5.687 -0.9514  0.5850 -0.5413
  743MOL0     C 2429  11.534   5.443   5.650  0.0207 -0.0654  0.1237
  743MOL0     C 2430  11.655   5.495   5.690 -0.9489  0.1534  0.8607
  743MOL0     C 2431  11.748   5.413   5.756  0.0537  0.8142  0.4563
  743MOL0     O 2432  11.881   5.451   5.790 -0.5527 -0.2688 -0.6394
  743MOL0     C 2433  11.910   5.587   5.777  0.3531  0.3465 -0.5175
  743MOL0     C 2434  12.049   5.585   5.848 -0.3245  0.2772  0.5952
  743MOL0     C 2435  12.105   5.726   5.846  0.4565  0.0458 -0.4897
  743MOL0     C 2436  12.241   5.745   5.924  0.2133  1.1607 -0.0088
  743MOL0     C 2437  12.304   5.881   5.918  0.0716  0.0298  0.4628
  743MOL0     C 2438  12.433   5.881   5.995 -0.8843 -0.9192  0.2074
  743MOL0     C 2439  12.495   6.026   5.982  0.2176  0.0608 -0.6916
  743MOL0     C 2440  12.648   6.023   5.973 -0.4160 -0.7693 -0.0357
  743MOL0    Cl 2441  12.710   6.195   6.001 -0.6764 -0.2725  0.4372
  743MOL0     C 2442  11.708   5.290   5.807 -0.2219  0.4717  0.6190
  743MOL0     C 2443  11.576   5.238   5.770  0.2627 -0.0456  0.4765
  743MOL0     O 2444  11.435   5.102   5.543  0.0273 -0.0305 -0.4232
  743MOL0     C 2445  11.159   5.040   5.477  0.0486 -0.4561  0.2525
  743MOL0     C 2446  11.034   5.027   5.425 -0.0844 -0.1110 -0.2011
  743MOL0     N 2447  10.302   5.247   5.436 -0.2381 -0.0885  0.2852
  743MOL0     N 2448  10.188   5.270   5.491  0.2410 -0.2687 -0.7563
  743MOL0     C 2449   9.494   5.131   4.636  0.0759 -0.0855  0.1271
  743MOL0     C 2450   9.542   5.134   4.505 -0.3934  1.0238 -0.9952
  743MOL0     C 2451   9.857   5.124   4.192 -0.3905  0.4800 -0.0621
  743MOL0     C 2452   9.975   5.046   4.178  0.2084  0.2580 -0.0878
  743MOL0     C 2453  10.053   5.052   4.064  0.0096  0.6080 -0.8123
  743MOL0     C 2454  10.011   5.134   3.956  0.1169  0.5070 -0.1300
  743MOL0     O 2455  10.058   5.142   3.830  0.0529  0.5679  0.1467
  743MOL0     C 2456  10.183   5.075   3.790  0.9763 -0.3013 -0.4534
  743MOL0     C 2457  10.163   4.930   3.736  0.9875 -1.0934  0.1413
  743MOL0     C 2458  10.290   4.849   3.749 -0.8920 -0.6719 -0.7595
  743MOL0     C 2459  10.403   4.902   3.652 -0.0786 -0.1679  0.0551
  743MOL0     C 2460  10.529   4.826   3.656  0.0345  0.2422  0.0130
  743MOL0     C 2461  10.631   4.761   3.673 -0.2366  0.3072  0.2402
  743MOL0     C 2462   9.893   5.204   3.963  0.3289  0.0148 -0.5880
  743MOL0     C 2463   9.817   5.203   4.082  0.0694 -0.0670 -0.4256
  743MOL0     C 2464   9.688   5.276   4.082 -0.1985 -1.1162  0.1424
  743MOL0     H 2465   9.833   5.295   4.583  1.2465  0.2307  0.8920
  743MOL0     H 2466   9.724   5.290   4.810  1.4621  0.8443 -0.3141
  743MOL0     H 2467   9.451   5.008   4.895  1.7353 -0.3470  0.7815
  743MOL0     H 2468   9.325   5.102   4.845  2.1708  2.1215 -2.6585
  743MOL0     H 2469   9.299   5.213   5.064 -1.3303  0.1551  0.0825
  743MOL0     H 2470   9.304   5.038   5.099  0.9241 -0.6962 -1.3644
  743MOL0     H 2471   9.532   5.238   5.145  1.7160 -1.0908 -2.9660
  743MOL0     H 2472   9.431   5.150   5.260  1.7182  0.1065  0.4632
  743MOL0     H 2473   9.532   4.928   5.165  2.1959 -1.0868  0.9018
  743MOL0     H 2474   9.646   5.021   5.076 -0.4477  1.3527  0.1388
  743MOL0     H 2475   9.739   4.953   5.266 -1.3675 -0.1597 -3.3614
  743MOL0     H 2476   9.600   5.021   5.375  1.2873 -0.3746  0.7172
  743MOL0     H 2477   9.789   5.197   5.204 -0.2883  0.4122  0.1792
  743MOL0     H 2478   9.686   5.238   5.341 -0.9173 -1.4938  0.9617
  743MOL0     H 2479   9.923   5.064   5.343 -1.5165 -0.1578 -1.3096
  743MOL0     H 2480   9.834   5.099   5.490 -0.1507  1.5099  0.9861
  743MOL0     H 2481   9.929   5.353   5.350  4.5484  0.5738 -0.1555
  743MOL0     H 2482   9.930   5.295   5.523 -2.1008  0.9830 -0.2875
  743MOL0     H 2483  10.103   5.156   5.198  3.3324 -2.8257  0.2811
  743MOL0     H 2484  10.437   5.194   5.153 -0.2770 -1.3165 -2.4567
  743MOL0     H 2485  10.362   5.036   5.194  0.8095 -0.3141  0.8259
  743MOL0     H 2486  10.563   5.171   5.364 -0.0052  0.9582 -0.0144
  743MOL0     H 2487  10.492   5.015   5.393 -1.4514  0.6894 -0.6985
  743MOL0     H 2488  10.594   4.907   5.200  0.9930  0.5316 -3.4889
  743MOL0     H 2489  10.642   5.061   5.136  1.8821  0.3525  0.0597
  743MOL0     H 2490  10.757   4.943   5.401 -0.1706 -0.0549  1.1456
  743MOL0     H 2491  10.839   4.944   5.238 -0.7202 -0.3231  1.0413
  743MOL0     H 2492  10.935   5.345   5.421 -1.0447 -1.2412 -0.5400
  743MOL0     H 2493  11.097   5.494   5.481  1.6539  0.2327 -0.8338
  743MOL0     H 2494  11.261   5.451   5.505  1.0264  1.2003  2.0774
  743MOL0     H 2495  11.140   5.440   5.639 -1.5353 -2.0592  0.2810
  743MOL0     H 2496  11.460   5.507   5.604  1.6346  0.1146 -2.4159
  743MOL0     H 2497  11.680   5.599   5.676 -1.1482  0.0726 -0.2019
  743MOL0     H 2498  11.906   5.614   5.671 -2.5009  1.6509 -0.1562
  743MOL0     H 2499  11.839   5.658   5.818 -1.0987 -1.5008  0.3132
  743MOL0     H 2500  12.037   5.542   5.948 -0.1032  2.1925  1.5014
  743MOL0     H 2501  12.129   5.538   5.791  1.1143  2.1362  0.9916
  743MOL0     H 2502  12.029   5.786   5.895  0.6593 -0.7970  0.9010
  743MOL0     H 2503  12.116   5.763   5.743  0.4063 -0.4328 -0.6710
  743MOL0     H 2504  12.309   5.664   5.898  2.3024  2.4781  1.0620
  743MOL0     H 2505  12.231   5.722   6.031  3.0868  0.7427  0.2467
  743MOL0     H 2506  12.336   5.896   5.814  0.2564 -2.3297  0.1438
  743MOL0     H 2507  12.245   5.963   5.959  1.4787  1.1350  0.3715
  743MOL0     H 2508  12.505   5.806   5.960  1.0069  0.9960 -0.2219
  743MOL0     H 2509  12.423   5.857   6.101  1.0319 -1.2516  0.3538
  743MOL0     H 2510  12.458   6.091   6.063  1.8280  0.1354  0.0158
  743MOL0     H 2511  12.454   6.072   5.891 -1.6409 -1.4986 -0.7122
  743MOL0     H 2512  12.685   5.977   5.881 -0.1537 -0.7782  0.0731
  743MOL0     H 2513  12.683   5.950   6.047 -1.9144 -2.9954 -1.4172
  743MOL0     H 2514  11.769   5.234   5.878  0.6364 -1.4149 -1.5001
  743MOL0     H 2515  11.555   5.140   5.812 -2.5538 -0.7575 -2.2313
  743MOL0     H 2516  11.219   4.950   5.486  1.7959  0.7261  0.9649
  743MOL0     H 2517  11.014   4.930   5.380 -1.5516  0.0742 -0.0143
  743MOL0     H 2518   9.403   5.074   4.655  1.9115 -3.4796 -0.3830
  743MOL0     H 2519   9.479   5.081   4.434 -0.5324 -0.1929  0.0050
  743MOL0     H 2520  10.023   4.983   4.253  1.3982  3.3437  1.9699
  743MOL0     H 2521  10.146   4.995   4.065 -1.4629 -2.1155  3.0651
  743MOL0     H 2522  10.234   5.136   3.716  3.1260 -2.1786 -0.6344
  743MOL0     H 2523  10.246   5.075   3.879  0.1876 -3.3641  0.2536
  743MOL0     H 2524  10.134   4.924   3.630  0.8499 -0.4049  0.1396
  743MOL0     H 2525  10.076   4.896   3.792 -0.1209 -0.3886 -1.0927
  743MOL0     H 2526  10.321   4.842   3.853  0.5540 -0.5255 -1.1608
  743MOL0     H 2527  10.267   4.748   3.713 -0.0866 -0.8114 -0.8965
  743MOL0     H 2528  10.428   5.007   3.669  1.1187 -0.9224  3.8175
  743MOL0     H 2529  10.366   4.893   3.549  0.2797  0.4279 -0.1307
  743MOL0     H 2530  10.719   4.706   3.699 -0.9121 -2.0555 -2.1050
  743MOL0     H 2531   9.856   5.272   3.887 -2.0831  0.5319  0.9541
  743MOL0     H 2532   9.671   5.321   3.983  1.0919 -1.4405 -0.2374
  743MOL0     H 2533   9.603   5.216   4.117 -0.0355  0.6605  4.0830
  743MOL0     H 2534   9.702   5.363   4.147  0.4244 -0.1484 -1.2444
  744MOL0     O 2535   4.540   7.681  10.433  0.3858 -0.6413 -0.1729
  744MOL0     C 2536   4.507   7.739  10.326 -0.2315 -0.8470 -0.4221
  744MOL0     O 2537   4.602   7.821  10.269  0.4616  0.2080  0.1890
  744MOL0     C 2538   4.707   7.872  10.337 -1.0043  0.0685  0.4739
  744MOL0     C 2539   4.723   7.889  10.475 -0.0706 -0.5805  0.6604
  744MOL0     C 2540   4.846   7.943  10.524  1.5895 -0.1379 -0.5740
  744MOL0     C 2541   4.949   7.992  10.443  0.5025  0.5735 -0.3522
  744MOL0     O 2542   5.061   8.065  10.481 -0.5582  0.0825 -0.2138
  744MOL0     C 2543   5.046   8.132  10.608 -0.8114  0.8475 -0.3228
  744MOL0     C 2544   5.164   8.228  10.641  0.0424 -0.0212 -0.3196
  744MOL0     C 2545   5.278   8.148  10.698 -0.3537  1.1055  0.1149
  744MOL0     C 2546   5.388   8.126  10.599  0.5650 -0.2666 -0.1261
  744MOL0     C 2547   5.528   8.084  10.648  0.0929  0.0512  0.1627
  744MOL0     C 2548   5.513   7.949  10.728  0.3623 -0.2771 -0.1999
  744MOL0     C 2549   5.634   7.868  10.716 -0.2955 -0.1493  0.3541
  744MOL0     C 2550   5.752   7.903  10.818 -0.2370 -0.2037  0.2133
  744MOL0     N 2551   5.877   7.825  10.796  0.4231  1.3969 -0.0429
  744MOL0     C 2552   5.891   7.713  10.716  0.2866 -0.3753 -0.8581
  744MOL0     C 2553   6.015   7.671  10.730 -0.4274 -0.1968  0.1895
  744MOL0     C 2554   6.057   7.530  10.688 -1.0038  1.0683  0.9632
  744MOL0     C 2555   6.217   7.520  10.678  0.9396 -0.2128 -0.5686
  744MOL0     C 2556   6.248   7.377  10.651 -1.2238  0.2113 -0.7173
  744MOL0     C 2557   6.403   7.359  10.639 -1.3333 -0.1744  0.0881
  744MOL0     O 2558   6.472   7.378  10.762  0.2770 -0.8761 -0.0465
  744MOL0     C 2559   6.609   7.367  10.767  0.9280  0.2784  0.7618
  744MOL0     C 2560   6.665   7.408  10.887 -0.5211 -0.0206  0.4819
  744MOL0     C 2561   6.803   7.431  10.896 -0.6965  0.2496 -0.3557
  744MOL0     C 2562   6.861   7.487  11.031 -0.2998  0.1685 -0.1670
  744MOL0     C 2563   6.889   7.406  10.787 -0.2380 -0.3323 -0.6387
  744MOL0     C 2564   7.041   7.429  10.777  1.1752 -0.1791  0.9979
  744MOL0     O 2565   7.102   7.348  10.678 -0.6167 -0.3883  0.7939
  744MOL0     C 2566   7.240   7.329  10.693  0.3324  0.7083  0.6583
  744MOL0     C 2567   7.324   7.425  10.639  0.2703 -0.2710 -0.8104
  744MOL0     C 2568   7.460   7.409  10.656 -0.0583  0.1481  0.2984
  744MOL0     C 2569   7.510   7.298  10.731 -0.3197  0.1017 -0.1002
  744MOL0     O 2570   7.645   7.294  10.750  0.0226 -0.1500 -0.5143
  744MOL0     C 2571   7.702   7.205  10.844  0.1010  0.1914 -0.5555
  744MOL0     C 2572   7.851   7.237  10.846  0.0312  1.0568  0.5004
  744MOL0     C 2573   7.881   7.386  10.887 -0.0297 -1.2034  0.6103
  744MOL0     C 2574   8.024   7.406  10.936 -0.9592 -0.0861  0.1682
  744MOL0     C 2575   8.057   7.558  10.937 -0.9249 -0.1854  1.1849
  744MOL0     C 2576   8.211   7.576  10.945 -0.0757 -0.1787  0.0767
  744MOL0     C 2577   8.257   7.722  10.911  1.0659  0.5500 -0.0263
  744MOL0     C 2578   8.279   7.798  11.046  0.2705 -0.6072  0.4657
  744MOL0    Cl 2579   8.417   7.743  11.143  0.5030  0.5635 -0.0803
  744MOL0     C 2580   7.418   7.206  10.783 -0.0522  0.2326  0.1848
  744MOL0     C 2581   7.282   7.223  10.767  0.0860 -1.1821 -0.8761
  744MOL0     O 2582   7.106   7.504  10.852 -0.0826 -0.3203 -0.5453
  744MOL0     C 2583   6.830   7.367  10.669 -0.4770  0.8978  0.4365
  744MOL0     C 2584   6.693   7.331  10.665 -0.4113  0.4598 -0.1398
  744MOL0     N 2585   6.072   7.747  10.836  0.1298 -0.2052  0.6879
  744MOL0     N 2586   5.992   7.839  10.874  0.8232 -0.1070 -0.4131
  744MOL0     C 2587   4.933   7.964  10.307  0.1860 -0.3039  0.1634
  744MOL0     C 2588   4.813   7.909  10.254  0.1609  0.3021 -0.3348
  744MOL0     C 2589   4.371   7.728  10.278 -0.6238 -0.7035 -0.6782
  744MOL0     C 2590   4.332   7.840  10.196  0.0400  0.5029 -0.3495
  744MOL0     C 2591   4.199   7.852  10.161  0.3870 -0.2809  0.8537
  744MOL0     C 2592   4.108   7.764  10.207 -0.2732  0.9895  0.2166
  744MOL0     O 2593   3.973   7.777  10.187 -0.2167 -0.0301  0.3791
  744MOL0     C 2594   3.921   7.885  10.112  0.7198  0.2510 -0.1351
  744MOL0     C 2595   3.762   7.881  10.114 -0.1667  0.7042 -0.5746
  744MOL0     C 2596   3.725   7.755  10.029 -0.9012  0.6324  0.6060
  744MOL0     C 2597   3.579   7.744  10.008 -0.1107 -0.1760  0.0596
  744MOL0     C 2598   3.540   7.620   9.955  0.1170 -0.7614 -0.3345
  744MOL0     C 2599   3.482   7.534   9.896 -0.2558 -0.3479 -0.0636
  744MOL0     C 2600   4.143   7.652  10.292 -0.2851  0.0922  0.3451
  744MOL0     C 2601   4.280   7.631  10.325  0.3649 -0.3398 -1.2492
  744MOL0     C 2602   4.301   7.509  10.415  0.5503 -0.4280 -0.6342
  744MOL0     H 2603   4.645   7.855  10.543 -1.9200  2.2926  0.1648
  744MOL0     H 2604   4.855   7.956  10.632  1.1646  1.9007 -0.7503
  744MOL0     H 2605   5.039   8.048  10.678 -0.1424  0.6277 -0.5153
  744MOL0     H 2606   4.956   8.195  10.610 -1.0805  0.4833 -0.7754
  744MOL0     H 2607   5.201   8.279  10.551  1.4075  1.1356  0.8283
  744MOL0     H 2608   5.134   8.306  10.712  1.7822 -0.5653  1.0849
  744MOL0     H 2609   5.324   8.192  10.787 -0.1809  0.0184  0.5781
  744MOL0     H 2610   5.250   8.046  10.726 -0.5071  0.6449 -1.5665
  744MOL0     H 2611   5.356   8.056  10.522  1.6322 -1.0551  0.1203
  744MOL0     H 2612   5.394   8.216  10.538  3.3731  0.8493  1.5965
  744MOL0     H 2613   5.577   8.167  10.700  2.2408 -0.6726 -0.5626
  744MOL0     H 2614   5.591   8.066  10.560  0.3707 -0.3869  0.4419
  744MOL0     H 2615   5.493   7.970  10.834  1.5192 -1.1278  0.2054
  744MOL0     H 2616   5.436   7.882  10.687  0.2203 -1.1009  1.3320
  744MOL0     H 2617   5.665   7.874  10.611 -0.3568 -0.1804  0.3341
  744MOL0     H 2618   5.600   7.764  10.728 -0.0928 -0.0107  2.5416
  744MOL0     H 2619   5.782   8.006  10.796  0.0310  0.1078  1.9422
  744MOL0     H 2620   5.713   7.898  10.920 -1.5116 -3.8393 -0.3013
  744MOL0     H 2621   5.811   7.661  10.663 -0.0199  0.4001 -1.1747
  744MOL0     H 2622   6.017   7.509  10.588 -2.2348  1.3943  1.3693
  744MOL0     H 2623   6.013   7.451  10.749 -0.1168 -3.1001 -3.2125
  744MOL0     H 2624   6.262   7.591  10.608  1.1703  0.9383  0.6885
  744MOL0     H 2625   6.258   7.548  10.776 -0.3042 -0.1630 -0.0445
  744MOL0     H 2626   6.224   7.316  10.738  1.7596 -0.8942 -0.5768
  744MOL0     H 2627   6.195   7.342  10.562  0.4087 -3.1184 -0.5308
  744MOL0     H 2628   6.415   7.253  10.613 -1.1393  0.1747 -1.3304
  744MOL0     H 2629   6.447   7.419  10.559 -0.3084 -1.3574 -0.2642
  744MOL0     H 2630   6.597   7.416  10.972 -4.0812  2.0892 -2.3006
  744MOL0     H 2631   6.902   7.408  11.094 -3.2676 -1.2873  0.0840
  744MOL0     H 2632   6.779   7.533  11.086 -0.3329  0.2710 -0.3020
  744MOL0     H 2633   6.938   7.562  11.007 -0.6439  0.3712 -0.6425
  744MOL0     H 2634   7.287   7.515  10.591 -1.1241  0.3225  1.2403
  744MOL0     H 2635   7.526   7.482  10.609 -1.9303  1.7580  0.0537
  744MOL0     H 2636   7.666   7.217  10.946 -0.8045 -0.8489 -0.7364
  744MOL0     H 2637   7.690   7.103  10.805 -0.3871  1.6574 -4.7648
  744MOL0     H 2638   7.876   7.169  10.928  1.6673 -0.0095 -0.8357
  744MOL0     H 2639   7.906   7.208  10.756 -3.0000 -0.8387 -0.8790
  744MOL0     H 2640   7.820   7.424  10.970 -2.2089 -4.8976  0.9017
  744MOL0     H 2641   7.850   7.437  10.795 -1.1282  0.7685  1.9865
  744MOL0     H 2642   8.095   7.354  10.871 -1.8691 -1.6078  0.3553
  744MOL0     H 2643   8.040   7.359  11.033 -0.3367  2.6319  1.4873
  744MOL0     H 2644   8.005   7.598  10.849  1.9591 -2.2162 -1.6476
  744MOL0     H 2645   8.017   7.622  11.017  1.4868  1.2654  1.3215
  744MOL0     H 2646   8.262   7.515  10.870  0.1758  0.9081 -0.6635
  744MOL0     H 2647   8.239   7.538  11.043  1.0734 -1.0880 -0.5707
  744MOL0     H 2648   8.183   7.764  10.843 -1.0752 -3.6381 -0.6224
  744MOL0     H 2649   8.353   7.718  10.859  1.1218 -3.3863  0.1203
  744MOL0     H 2650   8.179   7.797  11.090 -1.6387 -2.5435 -3.4214
  744MOL0     H 2651   8.299   7.902  11.018 -0.8354 -0.4100  0.3958
  744MOL0     H 2652   7.463   7.126  10.842  1.7279  1.6573  0.8761
  744MOL0     H 2653   7.208   7.155  10.810 -0.6872 -0.1232 -0.4949
  744MOL0     H 2654   6.894   7.350  10.583  1.9864 -1.5639  2.5698
  744MOL0     H 2655   6.666   7.285  10.570  0.1727  0.8483 -0.5045
  744MOL0     H 2656   5.011   7.999  10.241 -1.3974  2.5575 -0.3605
  744MOL0     H 2657   4.807   7.907  10.146 -0.4287  1.6072 -0.3481
  744MOL0     H 2658   4.399   7.918  10.162  0.5921  0.7829  1.3144
  744MOL0     H 2659   4.172   7.929  10.090 -2.5673 -2.5166 -0.6946
  744MOL0     H 2660   3.959   7.982  10.146  0.2184 -0.3497  2.2879
  744MOL0     H 2661   3.945   7.864  10.007 -0.9676 -4.5819  0.1653
  744MOL0     H 2662   3.717   7.971  10.071  0.3568  1.1757 -0.1515
  744MOL0     H 2663   3.724   7.872  10.216  0.3830 -0.2805 -0.4480
  744MOL0     H 2664   3.765   7.765   9.928  2.6143 -2.0191  1.5500
  744MOL0     H 2665   3.771   7.660  10.059 -2.3517 -0.5677 -0.7862
  744MOL0     H 2666   3.549   7.832   9.950  0.2869  0.7918  1.2706
  744MOL0     H 2667   3.528   7.756  10.105  0.5920  1.8110  0.2319
  744MOL0     H 2668   3.427   7.459   9.843 -1.7110  0.3876  0.3561
  744MOL0     H 2669   4.073   7.577  10.327  0.7231 -0.9018  0.2824
  744MOL0     H 2670   4.214   7.444  10.412 -1.5051  1.9291  2.1796
  744MOL0     H 2671   4.387   7.455  10.375 -0.3145 -1.5737 -0.9816
  744MOL0     H 2672   4.323   7.529  10.520 -0.5499 -3.3194  0.2423
  745MOL0     O 2673   8.470   4.466   3.756  0.8412  0.0775 -0.1397
  745MOL0     C 2674   8.535   4.561   3.796  0.1233 -0.0261  0.6229
  745MOL0     O 2675   8.673   4.579   3.767 -0.4636 -0.3102  0.4102
  745MOL0     C 2676   8.740   4.482   3.701  0.6609 -0.4509 -0.0485
  745MOL0     C 2677   8.835   4.525   3.604  0.0228  0.0116 -0.5851
  745MOL0     C 2678   8.919   4.435   3.544 -0.0544 -0.6068  0.4031
  745MOL0     C 2679   8.916   4.298   3.558  0.2271  0.1417 -0.0107
  745MOL0     O 2680   8.985   4.210   3.487 -0.2087  0.6386  0.3609
  745MOL0     C 2681   9.046   4.257   3.363 -0.0807 -0.1330  0.1102
  745MOL0     C 2682   9.119   4.149   3.281  0.1908  1.2396 -0.2111
  745MOL0     C 2683   9.225   4.217   3.184  0.0675  0.4702 -0.6917
  745MOL0     C 2684   9.151   4.269   3.053  0.4899  0.1066  0.7730
  745MOL0     C 2685   9.211   4.397   2.993 -0.1836 -0.3409 -0.1342
  745MOL0     C 2686   9.364   4.374   2.949  1.2052  0.9122 -0.0828
  745MOL0     C 2687   9.406   4.512   2.886 -0.3238 -0.1618 -0.1129
  745MOL0     C 2688   9.536   4.511   2.824  0.4782 -0.4083  0.0813
  745MOL0     N 2689   9.568   4.652   2.785 -0.3166 -0.4106  0.3365
  745MOL0     C 2690   9.654   4.727   2.855  0.2254 -1.1779 -0.8885
  745MOL0     C 2691   9.633   4.856   2.822  0.0374  0.3389 -0.7854
  745MOL0     C 2692   9.689   4.985   2.882  0.5517 -0.1313 -0.5722
  745MOL0     C 2693   9.831   5.013   2.834  0.0608  0.7382 -0.2016
  745MOL0     C 2694   9.926   4.898   2.883  0.2308 -1.3136  0.7553
  745MOL0     C 2695  10.077   4.927   2.826  0.3442 -0.7759 -0.6819
  745MOL0     O 2696  10.141   5.032   2.897  0.1646  0.5062  0.1720
  745MOL0     C 2697  10.269   5.051   2.880 -0.6657 -0.5994 -0.0223
  745MOL0     C 2698  10.332   5.174   2.931 -0.3031 -0.0542 -0.8552
  745MOL0     C 2699  10.468   5.204   2.909  0.3549 -0.3225  0.6609
  745MOL0     C 2700  10.526   5.326   2.978  0.0446  0.0604 -0.1549
  745MOL0     C 2701  10.545   5.120   2.835 -0.1401 -0.5174 -0.2252
  745MOL0     C 2702  10.693   5.137   2.808  0.6214  0.3965 -1.1810
  745MOL0     O 2703  10.747   5.040   2.720  0.3040 -0.0529  0.0014
  745MOL0     C 2704  10.886   5.030   2.698 -0.3793  0.5765  0.6593
  745MOL0     C 2705  10.950   4.951   2.790 -0.2006  1.0607 -0.0958
  745MOL0     C 2706  11.093   4.930   2.774 -0.2149  0.0141  0.0270
  745MOL0     C 2707  11.168   4.987   2.672  0.7007 -0.1495 -0.5724
  745MOL0     O 2708  11.300   4.963   2.649  0.1855  0.6660  0.0809
  745MOL0     C 2709  11.361   4.833   2.696  1.0343 -0.0955  0.1411
  745MOL0     C 2710  11.495   4.805   2.631  0.0210 -0.3204  0.3610
  745MOL0     C 2711  11.601   4.898   2.684  0.3834  0.1405  0.9836
  745MOL0     C 2712  11.734   4.848   2.620 -0.2574 -1.0979 -0.3787
  745MOL0     C 2713  11.863   4.923   2.667 -0.3380 -0.3267 -0.2024
  745MOL0     C 2714  11.991   4.880   2.592 -0.3132  0.0953 -0.2979
  745MOL0     C 2715  12.114   4.904   2.679 -0.0656 -0.0175 -0.4060
  745MOL0     C 2716  12.244   4.889   2.601  0.7966  0.8577 -0.2589
  745MOL0    Cl 2717  12.387   4.960   2.700 -0.2512  0.0821  0.0266
  745MOL0     C 2718  11.107   5.070   2.581 -0.4698  0.1699  0.0475
  745MOL0     C 2719  10.966   5.093   2.595  0.5342 -0.1825  0.2051
  745MOL0     O 2720  10.760   5.232   2.850 -0.0089 -0.0629 -0.9192
  745MOL0     C 2721  10.489   5.001   2.788 -0.3452 -0.8748  0.9515
  745MOL0     C 2722  10.360   4.963   2.814  0.2711 -0.5141 -0.1093
  745MOL0     N 2723   9.545   4.857   2.717 -0.7482 -0.6517  0.5670
  745MOL0     N 2724   9.510   4.736   2.694  0.0043 -0.3517 -0.3105
  745MOL0     C 2725   8.819   4.251   3.657  0.2028 -0.6720 -0.5503
  745MOL0     C 2726   8.735   4.345   3.728 -0.2891  0.3761  0.3839
  745MOL0     C 2727   8.457   4.659   3.879 -0.1797  0.8126  0.1907
  745MOL0     C 2728   8.318   4.669   3.866  0.6872  0.7558  0.5305
  745MOL0     C 2729   8.243   4.752   3.936  0.7031 -0.0950  0.2859
  745MOL0     C 2730   8.298   4.829   4.038 -0.2525 -0.8651 -0.3000
  745MOL0     O 2731   8.224   4.902   4.126 -0.3103  0.0925 -0.0160
  745MOL0     C 2732   8.098   4.849   4.184 -0.0660  0.1682  0.4619
  745MOL0     C 2733   7.970   4.892   4.112  0.0176  1.3773 -0.0819
  745MOL0     C 2734   7.857   4.793   4.119  0.1676  0.5723 -0.0113
  745MOL0     C 2735   7.781   4.789   4.248 -0.1493  0.5358  0.0079
  745MOL0     C 2736   7.848   4.735   4.366  0.3553  0.0990 -0.8262
  745MOL0     C 2737   7.905   4.687   4.452 -0.3391  0.7655 -0.0418
  745MOL0     C 2738   8.439   4.819   4.052  0.7468 -0.1661 -0.6085
  745MOL0     C 2739   8.523   4.743   3.969 -0.0910 -0.1721  0.2959
  745MOL0     C 2740   8.663   4.738   4.011 -0.1261  0.5965 -0.0758
  745MOL0     H 2741   8.845   4.629   3.574  0.0706  0.1902  0.0541
  745MOL0     H 2742   8.983   4.483   3.471 -2.5200  2.3228  0.0089
  745MOL0     H 2743   9.115   4.338   3.390 -1.3135  1.0833 -0.2654
  745MOL0     H 2744   8.954   4.289   3.314  0.4360  1.7301  0.2616
  745MOL0     H 2745   9.169   4.089   3.357 -3.5224 -1.0500  0.6769
  745MOL0     H 2746   9.055   4.080   3.225 -1.1014 -0.0163  2.6426
  745MOL0     H 2747   9.288   4.288   3.239  1.0845  0.4762 -1.8287
  745MOL0     H 2748   9.292   4.135   3.158 -2.5217 -2.4692  1.2355
  745MOL0     H 2749   9.142   4.197   2.971  1.4272 -0.0384  0.7962
  745MOL0     H 2750   9.049   4.297   3.083 -0.2760  1.4871 -2.5819
  745MOL0     H 2751   9.206   4.469   3.075 -1.7976 -0.0554 -0.4463
  745MOL0     H 2752   9.142   4.427   2.913 -1.9210 -0.5741  1.2031
  745MOL0     H 2753   9.434   4.347   3.029  0.2920 -0.3167  0.3226
  745MOL0     H 2754   9.374   4.292   2.877 -0.1423  1.7713 -1.2914
  745MOL0     H 2755   9.397   4.582   2.969  1.7636  2.2541 -1.7751
  745MOL0     H 2756   9.339   4.553   2.810  0.2321  0.3658 -0.3264
  745MOL0     H 2757   9.612   4.476   2.895 -1.0363  0.6165  2.3109
  745MOL0     H 2758   9.540   4.447   2.735  0.0201 -2.5223  1.5147
  745MOL0     H 2759   9.715   4.688   2.936 -1.0862 -1.2100  0.1062
  745MOL0     H 2760   9.695   4.976   2.991 -0.3120  0.6318 -0.4481
  745MOL0     H 2761   9.637   5.075   2.848 -0.1960 -0.6754 -0.8978
  745MOL0     H 2762   9.834   5.020   2.725 -0.6017 -0.2341 -0.2988
  745MOL0     H 2763   9.864   5.112   2.865 -0.3044  1.2718 -1.4625
  745MOL0     H 2764   9.932   4.911   2.992 -0.5976  0.0146  0.6685
  745MOL0     H 2765   9.893   4.803   2.840  0.4466 -1.3671  0.7059
  745MOL0     H 2766  10.136   4.839   2.854  0.1950 -0.8291 -0.5341
  745MOL0     H 2767  10.080   4.953   2.720  2.1502  2.1837 -0.0438
  745MOL0     H 2768  10.271   5.249   2.979 -1.4251 -0.1750 -2.0294
  745MOL0     H 2769  10.455   5.383   3.039 -0.9168  1.0469 -2.1070
  745MOL0     H 2770  10.570   5.397   2.908  0.2444 -0.1224 -0.2162
  745MOL0     H 2771  10.605   5.279   3.037  2.7593  1.5920 -2.3161
  745MOL0     H 2772  10.886   4.891   2.854 -0.7045  3.2514  1.5828
  745MOL0     H 2773  11.136   4.855   2.840  1.8723 -2.9801 -4.2256
  745MOL0     H 2774  11.364   4.836   2.806 -3.5747 -2.1914  0.5341
  745MOL0     H 2775  11.278   4.764   2.681 -1.6077  2.9619 -0.3979
  745MOL0     H 2776  11.520   4.702   2.659  1.0772 -0.4378 -0.9200
  745MOL0     H 2777  11.494   4.817   2.522 -0.0249 -0.0761  0.3877
  745MOL0     H 2778  11.616   4.883   2.792 -0.5449 -0.0725  1.0944
  745MOL0     H 2779  11.586   5.001   2.651  3.5767  0.9304  1.6301
  745MOL0     H 2780  11.726   4.844   2.511  2.2730 -1.1121 -0.6346
  745MOL0     H 2781  11.747   4.744   2.651 -1.0890 -0.6215  1.7868
  745MOL0     H 2782  11.848   5.031   2.655 -1.2681 -0.2572  1.3181
  745MOL0     H 2783  11.875   4.911   2.775 -1.4242  0.0805 -0.0139
  745MOL0     H 2784  12.002   4.931   2.496  1.7518  0.7353  0.2390
  745MOL0     H 2785  11.992   4.774   2.569 -1.5678  0.2386 -1.1445
  745MOL0     H 2786  12.128   4.845   2.770  3.6020 -0.7965 -1.3259
  745MOL0     H 2787  12.111   5.009   2.709  1.7058 -0.0806  0.0660
  745MOL0     H 2788  12.237   4.936   2.502  1.5003 -1.9671 -1.7663
  745MOL0     H 2789  12.263   4.783   2.582 -1.7148  0.0051  1.5007
  745MOL0     H 2790  11.154   5.125   2.500 -2.8408  1.3439 -0.6311
  745MOL0     H 2791  10.921   5.154   2.517  0.2207  1.7411  1.7868
  745MOL0     H 2792  10.553   4.927   2.739 -1.3916 -1.5789  0.6153
  745MOL0     H 2793  10.326   4.870   2.769  0.1891 -0.2271 -0.6450
  745MOL0     H 2794   8.821   4.148   3.690  2.8053 -0.5302 -0.0261
  745MOL0     H 2795   8.671   4.316   3.811 -2.4367  1.9641 -0.6266
  745MOL0     H 2796   8.268   4.604   3.795 -1.1101  1.5656  0.9868
  745MOL0     H 2797   8.135   4.763   3.932  0.7500  1.3513  1.8119
  745MOL0     H 2798   8.108   4.740   4.177  0.9487  0.3566 -3.5824
  745MOL0     H 2799   8.088   4.876   4.289 -0.5918  3.7978 -0.3968
  745MOL0     H 2800   8.009   4.912   4.012  1.8793  3.4984  0.9835
  745MOL0     H 2801   7.943   4.989   4.154  1.2722  2.0823 -0.8439
  745MOL0     H 2802   7.781   4.827   4.048 -1.0070 -1.6443  0.0757
  745MOL0     H 2803   7.878   4.690   4.088  1.2520  0.2338  1.7070
  745MOL0     H 2804   7.704   4.715   4.223 -0.7845  1.6037 -1.3185
  745MOL0     H 2805   7.735   4.886   4.268  2.2875  1.3047  2.4829
  745MOL0     H 2806   7.972   4.640   4.521 -0.0711  1.4982  0.2072
  745MOL0     H 2807   8.484   4.873   4.135  0.6712 -0.4231 -0.3996
  745MOL0     H 2808   8.721   4.803   3.945  0.6219  2.4041  2.2267
  745MOL0     H 2809   8.677   4.771   4.114  0.0732  2.6424 -0.7111
  745MOL0     H 2810   8.701   4.636   4.006 -3.2257 -0.7278  0.6602
  746MOL0     O 2811  11.195   8.370  10.415 -0.5485  0.0800 -0.3826
  746MOL0     C 2812  11.098   8.446  10.420 -0.4220  0.1635  0.4985
  746MOL0     O 2813  11.101   8.570  10.379 -0.7353  0.1523 -0.6786
  746MOL0     C 2814  11.211   8.627  10.338 -0.2280  0.6269  0.1739
  746MOL0     C 2815  11.257   8.607  10.203 -0.7449  0.5470 -0.0336
  746MOL0     C 2816  11.376   8.664  10.144 -0.9313 -0.4458 -0.1339
  746MOL0     C 2817  11.462   8.728  10.232 -0.1367 -0.1047 -0.3466
  746MOL0     O 2818  11.577   8.778  10.174 -0.0657 -0.0545  0.5536
  746MOL0     C 2819  11.706   8.730  10.224 -0.5054 -0.8449  0.2436
  746MOL0     C 2820  11.796   8.842  10.168  0.1260  0.3825 -0.0965
  746MOL0     C 2821  11.946   8.822  10.201 -0.0451  0.0386  0.8385
  746MOL0     C 2822  12.043   8.930  10.143  0.2058  0.2635 -0.4463
  746MOL0     C 2823  12.060   8.907   9.993  0.3251  0.0716  0.9128
  746MOL0     C 2824  12.188   8.839   9.962  0.1338  0.1828 -0.0190
  746MOL0     C 2825  12.235   8.855   9.810 -0.2084 -0.2275 -0.1686
  746MOL0     C 2826  12.358   8.763   9.809 -0.2623  0.6223  0.2451
  746MOL0     N 2827  12.478   8.846   9.825  0.1797 -0.1961 -0.9642
  746MOL0     C 2828  12.529   8.932   9.730 -0.6476  0.1615  1.2185
  746MOL0     C 2829  12.655   8.947   9.755 -0.2531 -0.8549  0.1590
  746MOL0     C 2830  12.760   9.012   9.667  0.5770  0.1418  0.0585
  746MOL0     C 2831  12.734   9.165   9.662 -1.0034  0.7694  0.1437
  746MOL0     C 2832  12.818   9.232   9.551 -0.7039  0.2413 -0.1875
  746MOL0     C 2833  12.966   9.214   9.565  0.0249  0.7185 -1.4057
  746MOL0     O 2834  13.012   9.297   9.460 -0.0538  0.5964  0.6408
  746MOL0     C 2835  13.145   9.305   9.438 -0.7579 -0.2863  0.2145
  746MOL0     C 2836  13.192   9.404   9.347 -0.6326  1.8984  0.0109
  746MOL0     C 2837  13.328   9.427   9.325  0.4908 -0.9757  0.1944
  746MOL0     C 2838  13.356   9.515   9.214  0.0677 -0.3888 -0.5347
  746MOL0     C 2839  13.424   9.360   9.401  0.3349 -0.1663 -0.5838
  746MOL0     C 2840  13.562   9.389   9.386 -0.7109 -0.7858 -0.6882
  746MOL0     O 2841  13.611   9.448   9.275  0.8640 -0.2152  0.6630
  746MOL0     C 2842  13.731   9.501   9.258  0.0660 -0.2214 -0.3933
  746MOL0     C 2843  13.768   9.548   9.130  0.5004 -0.4456 -0.3138
  746MOL0     C 2844  13.883   9.613   9.093  0.1681  0.5385  0.7649
  746MOL0     C 2845  13.989   9.615   9.189  0.1348  0.0887  0.2210
  746MOL0     O 2846  14.102   9.680   9.177 -0.2676 -0.4818  0.8901
  746MOL0     C 2847  14.085   9.826   9.203 -0.5705 -0.2435  0.4973
  746MOL0     C 2848  14.073   9.901   9.069 -0.1871 -0.5113 -0.3666
  746MOL0     C 2849  14.140  10.036   9.061 -0.0311  0.7412 -0.5151
  746MOL0     C 2850  14.287  10.028   9.030 -0.0955  0.2915  0.3327
  746MOL0     C 2851  14.387   9.993   9.140  0.0470  0.1162 -0.6085
  746MOL0     C 2852  14.430  10.124   9.208 -0.2593 -0.6942 -0.7010
  746MOL0     C 2853  14.550  10.185   9.141  0.3626 -0.8926  0.1943
  746MOL0     C 2854  14.607  10.299   9.223 -0.5686 -0.3360 -0.2137
  746MOL0    Cl 2855  14.725  10.391   9.129  0.2632  0.0799 -0.0457
  746MOL0     C 2856  13.973   9.563   9.318  1.0555  0.1415 -0.2210
  746MOL0     C 2857  13.838   9.514   9.354 -0.1155  0.4671 -0.3109
  746MOL0     O 2858  13.632   9.359   9.480  0.5969  0.5208 -0.0011
  746MOL0     C 2859  13.382   9.269   9.492 -0.0657  0.3006 -0.1384
  746MOL0     C 2860  13.246   9.234   9.509 -0.1478 -0.3934 -0.5822
  746MOL0     N 2861  12.689   8.869   9.865  0.5894  0.1961  0.4017
  746MOL0     N 2862  12.583   8.800   9.903  0.0911  1.0271 -0.7260
  746MOL0     C 2863  11.424   8.733  10.379  0.2306 -0.0198  0.1657
  746MOL0     C 2864  11.296   8.695  10.426 -0.1316 -0.0978  0.5645
  746MOL0     C 2865  10.967   8.387  10.445  0.4930  0.3396 -0.0920
  746MOL0     C 2866  10.857   8.479  10.436  0.5384 -0.4981 -0.0773
  746MOL0     C 2867  10.721   8.438  10.439 -0.0604 -0.3581  0.3982
  746MOL0     C 2868  10.693   8.301  10.452 -0.8684 -0.0799 -0.0902
  746MOL0     O 2869  10.567   8.244  10.457 -0.3425 -0.2793 -0.6154
  746MOL0     C 2870  10.469   8.340  10.493 -0.0753 -0.2711 -0.4693
  746MOL0     C 2871  10.333   8.268  10.501  0.1134 -0.2700  0.1735
  746MOL0     C 2872  10.298   8.174  10.624 -0.2461 -0.3925 -0.0853
  746MOL0     C 2873  10.155   8.120  10.628 -0.0906 -0.4929  0.5757
  746MOL0     C 2874  10.115   8.072  10.757 -0.6154 -0.3043  0.8638
  746MOL0     C 2875  10.084   8.029  10.866 -0.0625  0.4238  0.4126
  746MOL0     C 2876  10.796   8.220  10.461 -0.4664  0.7697 -0.0697
  746MOL0     C 2877  10.929   8.257  10.462  0.3330  0.0953  0.7458
  746MOL0     C 2878  11.030   8.143  10.463 -1.1538  0.3550  0.2493
  746MOL0     H 2879  11.200   8.554  10.127 -0.5884  1.0252 -0.4882
  746MOL0     H 2880  11.401   8.646  10.040  0.9357  1.0244 -0.0013
  746MOL0     H 2881  11.731   8.636  10.173  0.1350 -1.9596  2.4917
  746MOL0     H 2882  11.710   8.719  10.332  0.0929 -2.6285  0.0727
  746MOL0     H 2883  11.785   8.836  10.059  1.3850  1.4679 -0.3119
  746MOL0     H 2884  11.754   8.937  10.205 -1.9120 -0.7202  0.5869
  746MOL0     H 2885  11.960   8.822  10.310  3.3427  0.4094  0.5340
  746MOL0     H 2886  11.977   8.723  10.167  2.0943  0.5953  1.0064
  746MOL0     H 2887  11.997   9.028  10.158 -1.0017 -0.5668  1.7991
  746MOL0     H 2888  12.141   8.926  10.191  1.9392 -1.1550 -3.7142
  746MOL0     H 2889  12.063   9.007   9.949 -2.7833 -0.2752 -0.3347
  746MOL0     H 2890  11.972   8.864   9.944 -0.0595  1.3315  0.4424
  746MOL0     H 2891  12.272   8.875  10.022 -1.2155  0.2035  1.9711
  746MOL0     H 2892  12.183   8.735   9.998 -0.8444  0.0279 -0.5554
  746MOL0     H 2893  12.257   8.957   9.775 -3.0616  0.7943  0.7501
  746MOL0     H 2894  12.158   8.818   9.741 -0.3322  0.9182 -0.6679
  746MOL0     H 2895  12.368   8.685   9.884 -1.4038 -1.1278 -1.3487
  746MOL0     H 2896  12.365   8.707   9.715  2.9562  0.4190  0.4944
  746MOL0     H 2897  12.477   8.972   9.643  3.3236  3.9411  0.2020
  746MOL0     H 2898  12.767   8.969   9.567  1.6318  1.2011 -0.3453
  746MOL0     H 2899  12.856   8.988   9.714 -0.2414 -1.7515  0.8581
  746MOL0     H 2900  12.630   9.187   9.635 -1.2304  0.7194  0.9498
  746MOL0     H 2901  12.750   9.213   9.758  1.2774  1.5944 -0.5973
  746MOL0     H 2902  12.806   9.186   9.452  1.7470  0.7552 -0.7907
  746MOL0     H 2903  12.791   9.338   9.556  1.3516  0.7696  1.2303
  746MOL0     H 2904  12.989   9.252   9.665 -1.2017 -0.4733 -0.6230
  746MOL0     H 2905  12.991   9.107   9.560 -1.1132  0.4831 -2.3306
  746MOL0     H 2906  13.112   9.452   9.291  0.7246  1.3773 -2.5402
  746MOL0     H 2907  13.435   9.588   9.234 -1.0927  1.3023 -1.8757
  746MOL0     H 2908  13.272   9.581   9.191  0.3330  0.2141  0.1489
  746MOL0     H 2909  13.389   9.452   9.131 -0.5226 -1.1136 -0.2260
  746MOL0     H 2910  13.697   9.531   9.050  1.3655  0.1279 -1.2269
  746MOL0     H 2911  13.904   9.660   8.998  1.4239  1.0535  1.2798
  746MOL0     H 2912  14.001   9.861   9.264 -0.1159  0.1733  0.9008
  746MOL0     H 2913  14.176   9.849   9.259 -0.3816 -0.8988  0.4589
  746MOL0     H 2914  14.116   9.829   9.000 -0.9822 -3.8214  2.3361
  746MOL0     H 2915  13.969   9.913   9.039 -0.5945  0.6195  1.3096
  746MOL0     H 2916  14.125  10.095   9.152 -0.2900  0.4387 -0.3598
  746MOL0     H 2917  14.080  10.086   8.984  0.1958  4.9179  1.6979
  746MOL0     H 2918  14.314  10.124   8.986  0.3855  0.0616  0.1208
  746MOL0     H 2919  14.292   9.948   8.956  0.3315  0.4712  0.1645
  746MOL0     H 2920  14.346   9.916   9.207  4.4104  0.1632  2.5405
  746MOL0     H 2921  14.472   9.934   9.104  1.3122 -0.9365  3.4834
  746MOL0     H 2922  14.449  10.110   9.315 -1.0943  1.1025 -0.2826
  746MOL0     H 2923  14.352  10.201   9.207  1.0435  0.7542  1.0068
  746MOL0     H 2924  14.514  10.220   9.044  0.7249  1.9031  0.9801
  746MOL0     H 2925  14.633  10.114   9.132 -0.0404 -1.2949 -0.4847
  746MOL0     H 2926  14.652  10.254   9.312 -2.2075  0.1535  0.9136
  746MOL0     H 2927  14.533  10.371   9.259  0.3303 -0.4548  2.0809
  746MOL0     H 2928  14.058   9.571   9.386  0.5741  1.8485  0.2325
  746MOL0     H 2929  13.835   9.487   9.459  0.0123 -0.8714 -0.6398
  746MOL0     H 2930  13.455   9.212   9.549 -0.4779 -1.6932 -1.4931
  746MOL0     H 2931  13.229   9.153   9.580 -1.0925 -0.6396 -1.0809
  746MOL0     H 2932  11.497   8.790  10.436  0.8004  1.8020 -2.2265
  746MOL0     H 2933  11.271   8.725  10.527 -2.8369  4.3727 -1.1038
  746MOL0     H 2934  10.871   8.584  10.414  1.1779 -0.2727  1.3002
  746MOL0     H 2935  10.648   8.516  10.422  2.0914  1.6937  0.2317
  746MOL0     H 2936  10.495   8.389  10.587  2.1112  2.9054 -2.5212
  746MOL0     H 2937  10.465   8.416  10.414  2.1468  0.4353  0.0357
  746MOL0     H 2938  10.317   8.214  10.407  1.5838  0.6807 -0.6611
  746MOL0     H 2939  10.267   8.355  10.502  2.8424  1.9422  0.4837
  746MOL0     H 2940  10.367   8.089  10.626  0.0784 -0.1370 -0.1727
  746MOL0     H 2941  10.323   8.229  10.716  0.4879  3.9091 -2.6110
  746MOL0     H 2942  10.137   8.046  10.549 -1.2618  0.2950  0.0732
  746MOL0     H 2943  10.084   8.199  10.599  1.7880  0.5034 -1.6367
  746MOL0     H 2944  10.073   8.008  10.970 -0.4093  0.5825  0.4103
  746MOL0     H 2945  10.775   8.114  10.475  0.3439  0.5334 -0.5740
  746MOL0     H 2946  11.111   8.150  10.536  1.5830 -2.1862 -2.2576
  746MOL0     H 2947  10.989   8.042  10.466  1.6455 -0.9848 -1.7567
  746MOL0     H 2948  11.078   8.155  10.365 -2.1991  1.7341 -0.1251
  747MOL0     O 2949   2.645  10.688   1.233  0.5949 -0.3395 -0.5085
  747MOL0     C 2950   2.562  10.763   1.189 -0.3064 -0.1654  0.1766
  747MOL0     O 2951   2.569  10.903   1.196  0.4323  0.4231  0.5744
  747MOL0     C 2952   2.676  10.953   1.262 -0.2791 -0.0155 -0.7952
  747MOL0     C 2953   2.759  11.050   1.206  0.5002 -0.0624  0.1762
  747MOL0     C 2954   2.866  11.100   1.276  0.1736 -0.2271  0.6135
  747MOL0     C 2955   2.884  11.065   1.406  0.1911 -0.4887  0.1892
  747MOL0     O 2956   2.979  11.116   1.478 -0.7577 -0.1191  0.4598
  747MOL0     C 2957   3.062  11.226   1.422 -0.0136  0.4804  0.1703
  747MOL0     C 2958   3.137  11.294   1.533 -0.3367  0.2898  0.1832
  747MOL0     C 2959   3.255  11.203   1.569  0.2353  1.1500 -0.0840
  747MOL0     C 2960   3.344  11.284   1.665  0.1544 -0.5223  0.2211
  747MOL0     C 2961   3.448  11.188   1.726 -0.2375 -0.1054 -0.6380
  747MOL0     C 2962   3.549  11.125   1.629  0.6103  0.4826  0.2045
  747MOL0     C 2963   3.516  10.983   1.565  0.1980 -0.0518  0.2658
  747MOL0     C 2964   3.614  10.940   1.454  0.4635  0.0065  0.2097
  747MOL0     N 2965   3.756  10.957   1.500 -0.0620  0.1925  0.1986
  747MOL0     C 2966   3.828  10.876   1.589  0.5279 -0.6906  0.2447
  747MOL0     C 2967   3.945  10.941   1.597 -0.3818  0.9212  0.7612
  747MOL0     C 2968   4.066  10.878   1.669  0.0428 -0.2459 -0.3449
  747MOL0     C 2969   4.187  10.973   1.695 -0.0944 -0.0487 -0.3926
  747MOL0     C 2970   4.295  10.877   1.759 -0.4803 -0.8931 -0.0426
  747MOL0     C 2971   4.425  10.959   1.785  0.1373 -0.0792 -0.7175
  747MOL0     O 2972   4.413  11.074   1.879  0.2003 -0.0818  0.4197
  747MOL0     C 2973   4.538  11.123   1.920 -0.5858  0.0074  0.0905
  747MOL0     C 2974   4.532  11.228   2.012 -0.0708  1.3103 -0.0610
  747MOL0     C 2975   4.645  11.283   2.076  0.5414  0.5427 -0.5494
  747MOL0     C 2976   4.614  11.402   2.167 -0.3576  0.2904  0.5588
  747MOL0     C 2977   4.771  11.231   2.043  0.1232  0.0971  0.6196
  747MOL0     C 2978   4.903  11.275   2.110  0.7140  0.2075 -0.3447
  747MOL0     O 2979   5.016  11.209   2.062  0.1676 -0.2826 -0.4914
  747MOL0     C 2980   5.131  11.227   2.130 -0.1171 -0.4757 -0.7271
  747MOL0     C 2981   5.225  11.130   2.111 -0.0421  0.6560  0.4420
  747MOL0     C 2982   5.357  11.138   2.151  0.2279  0.1969  0.1159
  747MOL0     C 2983   5.409  11.256   2.205 -0.5472  0.2176 -0.5170
  747MOL0     O 2984   5.537  11.256   2.253 -0.2132 -0.4986  0.4130
  747MOL0     C 2985   5.615  11.376   2.228  0.1389  0.1653  0.9488
  747MOL0     C 2986   5.651  11.434   2.368 -0.2976  0.0756 -0.1227
  747MOL0     C 2987   5.762  11.356   2.435  0.2494 -0.7643  0.1323
  747MOL0     C 2988   5.792  11.388   2.591  0.1023 -0.0777  0.6934
  747MOL0     C 2989   5.892  11.293   2.648  0.7315  0.9069 -1.2600
  747MOL0     C 2990   5.817  11.174   2.708  0.3165  0.1364  0.2090
  747MOL0     C 2991   5.907  11.055   2.735 -0.0625  0.3303 -0.1036
  747MOL0     C 2992   5.825  10.926   2.758  0.4838  0.7410  0.0831
  747MOL0    Cl 2993   5.683  10.929   2.879  0.4214 -0.2145 -0.1010
  747MOL0     C 2994   5.316  11.358   2.230  0.4053 -0.4079 -0.3337
  747MOL0     C 2995   5.184  11.344   2.183 -0.4351  0.5739  0.2775
  747MOL0     O 2996   4.901  11.357   2.201 -0.8042 -0.7707 -0.2183
  747MOL0     C 2997   4.783  11.126   1.940 -0.7557 -0.3983 -1.0613
  747MOL0     C 2998   4.668  11.078   1.879  1.1189 -1.1799  0.2956
  747MOL0     N 2999   3.943  11.043   1.506  1.0180 -0.1694 -0.1436
  747MOL0     N 3000   3.831  11.044   1.436 -0.3108 -0.2186 -0.1268
  747MOL0     C 3001   2.793  10.982   1.469  0.1585 -0.2947 -0.6829
  747MOL0     C 3002   2.695  10.922   1.396 -0.0648 -0.4467 -0.4311
  747MOL0     C 3003   2.436  10.698   1.118 -0.2704 -0.7399  0.2759
  747MOL0     C 3004   2.335  10.786   1.083 -0.1130  0.4512  0.6118
  747MOL0     C 3005   2.227  10.753   1.008  0.0613  0.6454 -0.2023
  747MOL0     C 3006   2.216  10.622   0.973  0.4787  1.4010 -0.2812
  747MOL0     O 3007   2.102  10.593   0.905  0.3773  0.1857  0.0158
  747MOL0     C 3008   2.095  10.467   0.839 -0.1924 -0.2058  0.6445
  747MOL0     C 3009   1.958  10.447   0.771  0.2421  0.4431  0.4169
  747MOL0     C 3010   1.839  10.484   0.857 -0.0291 -0.1110 -0.1508
  747MOL0     C 3011   1.697  10.443   0.808  0.4497  0.1061 -0.6381
  747MOL0     C 3012   1.680  10.461   0.665  0.4540 -0.2144  0.3569
  747MOL0     C 3013   1.666  10.486   0.548  0.1254  0.3024  0.2204
  747MOL0     C 3014   2.318  10.520   1.008 -0.0870 -0.8071 -0.1805
  747MOL0     C 3015   2.433  10.562   1.080  0.0440  0.2516 -0.1869
  747MOL0     C 3016   2.546  10.463   1.104  0.2838  0.0502  0.1967
  747MOL0     H 3017   2.738  11.074   1.102 -0.6481 -2.5783 -0.2638
  747MOL0     H 3018   2.936  11.166   1.226 -0.0161  0.0408  0.7026
  747MOL0     H 3019   2.991  11.301   1.386 -0.7519  0.2440  1.0887
  747MOL0     H 3020   3.136  11.180   1.356 -2.8855 -2.5689 -1.1879
  747MOL0     H 3021   3.177  11.392   1.506 -0.3085  0.1189 -0.4154
  747MOL0     H 3022   3.073  11.318   1.619 -1.3032  2.2475 -1.0149
  747MOL0     H 3023   3.220  11.110   1.616  3.7980  0.1002  0.7453
  747MOL0     H 3024   3.325  11.175   1.490  1.4213  1.5614  0.7989
  747MOL0     H 3025   3.378  11.375   1.614 -1.9601 -0.0544 -0.4986
  747MOL0     H 3026   3.295  11.337   1.747  1.4228 -0.7758  1.1634
  747MOL0     H 3027   3.389  11.108   1.773 -0.5704 -0.6391 -1.9004
  747MOL0     H 3028   3.496  11.254   1.798  1.8790 -1.1647 -0.9876
  747MOL0     H 3029   3.572  11.186   1.541 -2.4263  0.7917 -0.4925
  747MOL0     H 3030   3.638  11.119   1.692  0.6559  1.7530  0.2811
  747MOL0     H 3031   3.414  10.975   1.527 -0.1485  0.2515  1.0947
  747MOL0     H 3032   3.537  10.914   1.647  0.2111 -0.5226 -0.1316
  747MOL0     H 3033   3.587  10.840   1.417  0.7148 -0.0650  0.2225
  747MOL0     H 3034   3.579  11.007   1.375 -1.1193 -1.1558 -0.1448
  747MOL0     H 3035   3.798  10.782   1.634  2.8796 -2.0761 -0.8764
  747MOL0     H 3036   4.105  10.792   1.613 -1.7111 -1.9134  0.8819
  747MOL0     H 3037   4.025  10.849   1.766 -0.7282  3.9163  0.7795
  747MOL0     H 3038   4.224  11.010   1.598  4.1674 -1.7014  0.3630
  747MOL0     H 3039   4.162  11.053   1.765 -1.1853  0.8156 -1.7149
  747MOL0     H 3040   4.265  10.826   1.850 -0.6089 -2.5155 -0.9496
  747MOL0     H 3041   4.315  10.808   1.676  1.5737 -1.4143  0.8049
  747MOL0     H 3042   4.493  10.880   1.820 -0.1581 -1.2874 -2.7261
  747MOL0     H 3043   4.462  11.008   1.695 -2.3670  3.4829 -0.0042
  747MOL0     H 3044   4.436  11.264   2.048  0.1705  2.3737 -0.4586
  747MOL0     H 3045   4.678  11.485   2.138 -2.1761  1.5105 -0.1583
  747MOL0     H 3046   4.629  11.366   2.269 -0.0686  1.3207  0.8906
  747MOL0     H 3047   4.510  11.435   2.161 -0.6408 -0.0679  2.7988
  747MOL0     H 3048   5.187  11.044   2.057 -2.3949  2.2708 -0.6775
  747MOL0     H 3049   5.432  11.064   2.124  0.9546  0.2428  1.8666
  747MOL0     H 3050   5.701  11.353   2.163 -0.6100  0.0590 -0.0337
  747MOL0     H 3051   5.550  11.441   2.169 -0.4100  0.1423  1.5310
  747MOL0     H 3052   5.684  11.537   2.354  1.9551 -0.5894 -0.0263
  747MOL0     H 3053   5.562  11.429   2.431 -1.2498  0.1417 -1.4152
  747MOL0     H 3054   5.855  11.373   2.380  0.3156 -0.1079  0.4398
  747MOL0     H 3055   5.753  11.247   2.431  0.7008 -0.8607  1.5034
  747MOL0     H 3056   5.697  11.387   2.644  0.4253  0.8994  1.3253
  747MOL0     H 3057   5.827  11.491   2.604 -0.4809  0.7804 -3.2380
  747MOL0     H 3058   5.963  11.249   2.577  0.7667  0.8950 -1.2176
  747MOL0     H 3059   5.942  11.343   2.731  0.5993  0.2596 -0.7847
  747MOL0     H 3060   5.737  11.137   2.643  0.0569 -0.4337  0.8404
  747MOL0     H 3061   5.766  11.201   2.801  2.2525 -0.6181  1.5547
  747MOL0     H 3062   5.959  11.081   2.828 -0.9043  1.9361 -0.0420
  747MOL0     H 3063   5.982  11.047   2.656 -1.8155  1.4959 -1.9869
  747MOL0     H 3064   5.901  10.859   2.801  1.5103  2.2629  0.7027
  747MOL0     H 3065   5.784  10.885   2.665 -1.3891  1.7270  0.4334
  747MOL0     H 3066   5.341  11.448   2.287 -1.2532 -1.4726  2.2654
  747MOL0     H 3067   5.128  11.435   2.201 -0.8449  0.7414 -1.6946
  747MOL0     H 3068   4.884  11.090   1.921 -1.9465 -3.8219 -1.6013
  747MOL0     H 3069   4.679  11.003   1.802  4.9066  0.7572 -1.3031
  747MOL0     H 3070   2.818  10.973   1.574  0.5400  1.7643 -0.5564
  747MOL0     H 3071   2.617  10.861   1.441  0.1451  0.5560  1.3834
  747MOL0     H 3072   2.353  10.885   1.124  3.3443  0.7651 -1.2425
  747MOL0     H 3073   2.145  10.820   0.986  1.1522  1.8829 -0.6077
  747MOL0     H 3074   2.178  10.468   0.767 -2.1417 -0.1793 -1.7358
  747MOL0     H 3075   2.109  10.388   0.913  0.2527 -0.3417  0.4174
  747MOL0     H 3076   1.958  10.347   0.728  2.7895  0.0709  1.1028
  747MOL0     H 3077   1.956  10.521   0.690 -0.1008  1.7673  1.5866
  747MOL0     H 3078   1.858  10.437   0.954 -2.3036 -0.0669  0.3562
  747MOL0     H 3079   1.839  10.592   0.877  0.0362 -0.3470  1.2612
  747MOL0     H 3080   1.620  10.497   0.862  1.7015  0.0540  1.3145
  747MOL0     H 3081   1.677  10.338   0.832 -4.3412  1.0194  0.1908
  747MOL0     H 3082   1.649  10.513   0.446  2.0970  0.7323 -0.0332
  747MOL0     H 3083   2.317  10.417   0.975  2.0087 -1.3050  1.1253
  747MOL0     H 3084   2.531  10.365   1.058 -0.7408 -1.0581  2.7424
  747MOL0     H 3085   2.637  10.500   1.056 -0.5069  0.1697 -1.2690
  747MOL0     H 3086   2.555  10.452   1.212  1.6942 -0.4618  0.0428
  748MOL0     O 3087  10.321   3.085   6.440 -0.4249  0.0037  0.3557
  748MOL0     C 3088  10.260   3.072   6.544 -0.1226 -0.0573 -0.1072
  748MOL0     O 3089  10.286   2.972   6.638  0.4503  0.1402 -0.3564
  748MOL0     C 3090  10.418   2.921   6.657 -1.2025  0.6494 -0.5912
  748MOL0     C 3091  10.428   2.806   6.739 -0.4478  0.1749 -0.1638
  748MOL0     C 3092  10.553   2.743   6.745  0.1911 -0.3679  0.0846
  748MOL0     C 3093  10.675   2.801   6.706  0.0477 -0.4329  1.1656
  748MOL0     O 3094  10.788   2.728   6.725 -0.4003 -0.7809  0.0921
  748MOL0     C 3095  10.802   2.603   6.655 -0.9886  0.0589 -1.2307
  748MOL0     C 3096  10.825   2.637   6.507  0.7910  0.3344  0.6878
  748MOL0     C 3097  10.948   2.721   6.486  1.1124 -0.8028  0.1708
  748MOL0     C 3098  11.079   2.679   6.550 -0.2806  0.4735 -0.7487
  748MOL0     C 3099  11.151   2.557   6.495  0.4500 -0.1537  0.3280
  748MOL0     C 3100  11.194   2.563   6.348 -0.3172 -0.4130  0.4367
  748MOL0     C 3101  11.337   2.496   6.334  1.2380 -0.2245 -0.2807
  748MOL0     C 3102  11.386   2.486   6.191  0.1212  0.3399 -0.2770
  748MOL0     N 3103  11.531   2.480   6.160  0.3447  0.5323  0.1870
  748MOL0     C 3104  11.626   2.577   6.190  0.2150  0.2591  0.4768
  748MOL0     C 3105  11.742   2.517   6.157  0.6525 -0.0983 -0.4805
  748MOL0     C 3106  11.877   2.564   6.179 -0.1370 -0.6694  0.5439
  748MOL0     C 3107  11.944   2.617   6.051 -0.3443 -0.0905  1.1222
  748MOL0     C 3108  12.004   2.507   5.954 -0.6453  1.1979 -0.2843
  748MOL0     C 3109  12.062   2.375   6.023  0.9943 -0.6838 -1.2165
  748MOL0     O 3110  12.156   2.323   5.930 -0.1406  0.4592  0.3099
  748MOL0     C 3111  12.209   2.196   5.967  0.4454 -0.5105  0.6744
  748MOL0     C 3112  12.205   2.149   6.100 -0.2176 -0.4844 -0.2334
  748MOL0     C 3113  12.245   2.020   6.128 -0.4703 -0.2004 -0.4381
  748MOL0     C 3114  12.209   1.966   6.268 -0.0440  0.3463  0.1935
  748MOL0     C 3115  12.303   1.940   6.028 -0.3957  0.0377 -0.4289
  748MOL0     C 3116  12.351   1.800   6.049  0.3898 -0.0435  1.4631
  748MOL0     O 3117  12.413   1.754   5.931 -0.5695  0.1956  0.2126
  748MOL0     C 3118  12.414   1.618   5.902 -0.1098 -0.3344  0.4603
  748MOL0     C 3119  12.503   1.562   5.805 -0.7358 -0.0985  0.3472
  748MOL0     C 3120  12.496   1.428   5.769  0.0472  0.3794 -0.2756
  748MOL0     C 3121  12.385   1.351   5.812 -0.4610 -0.0649  0.4052
  748MOL0     O 3122  12.356   1.237   5.752  0.1248  0.2000  0.3667
  748MOL0     C 3123  12.414   1.126   5.823 -0.3951 -0.1355  0.2763
  748MOL0     C 3124  12.317   1.030   5.889 -0.4364  0.4129  0.1084
  748MOL0     C 3125  12.207   0.993   5.799  0.0654  0.1384  0.2615
  748MOL0     C 3126  12.143   0.852   5.834  0.8312  0.8540 -0.2047
  748MOL0     C 3127  12.019   0.830   5.744  0.0233 -0.0396 -0.9040
  748MOL0     C 3128  11.961   0.690   5.756  0.2218 -0.0183 -0.1316
  748MOL0     C 3129  11.808   0.688   5.707 -0.0211 -0.0117 -0.2196
  748MOL0     C 3130  11.789   0.713   5.559 -0.9656 -0.1815  0.0353
  748MOL0    Cl 3131  11.613   0.752   5.525 -0.4367 -0.6736 -0.2620
  748MOL0     C 3132  12.305   1.404   5.915  0.9226  0.3724 -0.6359
  748MOL0     C 3133  12.317   1.533   5.957  0.5250 -0.3886  0.0671
  748MOL0     O 3134  12.349   1.747   6.160  0.6191 -0.5120 -0.5537
  748MOL0     C 3135  12.309   1.991   5.897  0.0947 -0.4278  0.6508
  748MOL0     C 3136  12.255   2.117   5.865  0.3642 -0.5332 -0.4361
  748MOL0     N 3137  11.717   2.394   6.102  0.1935  0.1749 -0.2462
  748MOL0     N 3138  11.588   2.372   6.101  0.2693 -0.2337 -0.3094
  748MOL0     C 3139  10.663   2.927   6.643 -1.0853  0.4141  0.0404
  748MOL0     C 3140  10.539   2.985   6.609 -0.4772 -0.3648 -0.3152
  748MOL0     C 3141  10.135   3.149   6.564 -0.2563 -0.3317  1.1068
  748MOL0     C 3142  10.040   3.106   6.658 -0.3225  0.2017  0.4298
  748MOL0     C 3143   9.920   3.161   6.682 -0.2992 -0.0992  0.6541
  748MOL0     C 3144   9.888   3.277   6.624  0.7670 -1.2766 -0.0001
  748MOL0     O 3145   9.766   3.339   6.639  0.0535 -0.0958  0.4609
  748MOL0     C 3146   9.761   3.460   6.711 -0.3997 -0.9362  0.5385
  748MOL0     C 3147   9.634   3.546   6.677  0.1008 -0.0689 -0.4695
  748MOL0     C 3148   9.590   3.622   6.802  0.4190  0.5351 -0.6852
  748MOL0     C 3149   9.458   3.694   6.777  0.3652  0.3605  0.9899
  748MOL0     C 3150   9.481   3.811   6.700  1.0752  0.5406 -0.2195
  748MOL0     C 3151   9.478   3.905   6.625  0.1866  0.1878 -0.0812
  748MOL0     C 3152   9.984   3.337   6.534  0.6324  0.6512 -0.0243
  748MOL0     C 3153  10.107   3.273   6.502 -0.2163 -1.0688 -0.3052
  748MOL0     C 3154  10.207   3.346   6.417  0.2619 -0.0825  0.1965
  748MOL0     H 3155  10.329   2.778   6.772 -1.2304 -0.2063 -2.6102
  748MOL0     H 3156  10.555   2.647   6.796  0.3430  0.6843  2.1373
  748MOL0     H 3157  10.719   2.538   6.684  1.3294 -0.9384  4.3688
  748MOL0     H 3158  10.887   2.543   6.687 -1.9629 -0.8238 -0.2548
  748MOL0     H 3159  10.852   2.545   6.456  2.7958 -0.0132  2.2083
  748MOL0     H 3160  10.732   2.671   6.462  0.3411 -2.0785 -0.2999
  748MOL0     H 3161  10.979   2.726   6.381 -0.7779 -0.0655 -0.3927
  748MOL0     H 3162  10.923   2.823   6.515  1.4995 -0.2771 -1.2434
  748MOL0     H 3163  11.147   2.764   6.545 -0.7187  1.1393  2.5005
  748MOL0     H 3164  11.066   2.657   6.656 -1.2982 -0.0418 -0.9619
  748MOL0     H 3165  11.070   2.483   6.491 -0.4544  0.7916 -4.0976
  748MOL0     H 3166  11.234   2.516   6.553  0.7703 -1.5677 -1.0516
  748MOL0     H 3167  11.129   2.508   6.280  1.4319 -3.5163  1.0770
  748MOL0     H 3168  11.193   2.666   6.310 -2.6670 -0.1429  1.0638
  748MOL0     H 3169  11.340   2.399   6.384  3.2515 -0.0830 -0.0528
  748MOL0     H 3170  11.401   2.559   6.396  2.1389 -0.2720 -1.1264
  748MOL0     H 3171  11.324   2.407   6.148  0.9840 -0.8652  0.5949
  748MOL0     H 3172  11.348   2.577   6.144 -0.1058 -0.0495 -0.8544
  748MOL0     H 3173  11.621   2.661   6.258 -0.0131 -0.5935  1.5395
  748MOL0     H 3174  11.942   2.490   6.225  0.9079  0.5494  1.0620
  748MOL0     H 3175  11.878   2.649   6.247  1.3461 -1.1438  1.1383
  748MOL0     H 3176  11.875   2.682   5.996  0.1358  0.0752  0.7103
  748MOL0     H 3177  12.017   2.694   6.079  0.4582 -0.1458 -0.6451
  748MOL0     H 3178  11.930   2.469   5.884 -0.4186 -0.1196  0.1654
  748MOL0     H 3179  12.089   2.543   5.895 -0.6821 -0.1995 -1.2391
  748MOL0     H 3180  12.111   2.394   6.119 -0.8585 -0.6755 -0.2220
  748MOL0     H 3181  11.985   2.298   6.033  1.4584 -1.0364 -0.2136
  748MOL0     H 3182  12.162   2.208   6.180 -4.6394 -0.3577 -2.3957
  748MOL0     H 3183  12.175   2.045   6.336 -3.4600  0.4224 -1.4034
  748MOL0     H 3184  12.282   1.899   6.315 -0.0078 -0.2721 -0.7157
  748MOL0     H 3185  12.125   1.897   6.263 -0.1311  0.4687 -0.0374
  748MOL0     H 3186  12.582   1.615   5.752 -1.4499 -1.3115 -2.0717
  748MOL0     H 3187  12.552   1.394   5.683 -1.5795 -0.3560 -1.0948
  748MOL0     H 3188  12.469   1.054   5.762  0.2075 -0.6647  1.4109
  748MOL0     H 3189  12.481   1.156   5.904  0.2278  2.4987 -1.0971
  748MOL0     H 3190  12.370   0.937   5.913 -0.5144  0.6407  1.2104
  748MOL0     H 3191  12.290   1.069   5.987  0.8043 -1.0901  1.1027
  748MOL0     H 3192  12.260   0.980   5.704  0.1909 -3.2401  0.6533
  748MOL0     H 3193  12.133   1.073   5.791  3.0045  2.8831 -1.6975
  748MOL0     H 3194  12.112   0.853   5.939 -0.4729  0.4930 -0.5655
  748MOL0     H 3195  12.226   0.781   5.824 -1.2170 -1.5617 -1.4192
  748MOL0     H 3196  11.942   0.903   5.767  1.1827  0.4848  1.6298
  748MOL0     H 3197  12.046   0.847   5.639  0.4829 -2.0542 -1.1684
  748MOL0     H 3198  11.951   0.654   5.859  0.7405  0.4779  0.0961
  748MOL0     H 3199  12.020   0.622   5.693  1.9439  0.8369  0.4837
  748MOL0     H 3200  11.774   0.773   5.766  1.7386 -0.4043  1.4598
  748MOL0     H 3201  11.746   0.603   5.737 -2.8078  1.7679 -0.6593
  748MOL0     H 3202  11.823   0.626   5.503 -0.0844  0.8687 -1.1117
  748MOL0     H 3203  11.860   0.784   5.514  2.3550 -2.9285  0.5150
  748MOL0     H 3204  12.230   1.340   5.960  2.3159  2.2518  5.1416
  748MOL0     H 3205  12.248   1.567   6.034  0.0271 -1.2650  0.0128
  748MOL0     H 3206  12.341   1.939   5.807  0.6505  0.1789  0.4929
  748MOL0     H 3207  12.271   2.172   5.773 -0.5250  0.5005  0.0080
  748MOL0     H 3208  10.755   2.977   6.616 -0.1473 -1.6269 -0.7226
  748MOL0     H 3209  10.533   3.083   6.563  0.5581 -0.0998  0.0987
  748MOL0     H 3210  10.059   3.025   6.727 -0.9656  0.9673  1.5209
  748MOL0     H 3211   9.851   3.108   6.747 -2.1854 -2.9282 -3.2462
  748MOL0     H 3212   9.768   3.427   6.815 -1.1937 -1.6947  0.3654
  748MOL0     H 3213   9.846   3.525   6.690  1.1022 -2.7002  0.9871
  748MOL0     H 3214   9.550   3.484   6.644  0.9579 -2.1522  0.9827
  748MOL0     H 3215   9.659   3.611   6.593  2.2675  0.1920  0.3120
  748MOL0     H 3216   9.565   3.557   6.886  2.6665  1.4227  0.7582
  748MOL0     H 3217   9.664   3.694   6.838 -0.6149  0.5689  1.4803
  748MOL0     H 3218   9.399   3.713   6.867 -2.0332  0.6788 -0.5237
  748MOL0     H 3219   9.390   3.631   6.718  0.3864  1.5713 -0.3860
  748MOL0     H 3220   9.494   3.987   6.558  0.1583 -0.8230 -1.3610
  748MOL0     H 3221   9.952   3.429   6.487 -0.5936 -0.2940 -1.1248
  748MOL0     H 3222  10.179   3.338   6.312 -1.3275  2.1359  0.3864
  748MOL0     H 3223  10.210   3.451   6.446  1.3863  0.3788 -1.4936
  748MOL0     H 3224  10.313   3.318   6.422  0.1617 -0.4124  0.5256
  749MOL0     O 3225   2.991   2.090   5.337  0.0219  0.8272  0.5642
  749MOL0     C 3226   2.957   1.984   5.393  0.2061  0.3921  1.0677
  749MOL0     O 3227   3.038   1.866   5.387 -0.5347 -0.6636 -0.3804
  749MOL0     C 3228   3.109   1.858   5.267  0.2171 -0.4036  0.2552
  749MOL0     C 3229   3.073   1.745   5.186  0.4328 -0.6771  0.1684
  749MOL0     C 3230   3.139   1.723   5.067 -0.4622 -0.3189  0.1267
  749MOL0     C 3231   3.249   1.799   5.024 -0.2173 -0.3242 -0.2044
  749MOL0     O 3232   3.314   1.769   4.910  0.5832 -0.4836  0.1443
  749MOL0     C 3233   3.415   1.855   4.865 -0.2333 -0.1872  0.4631
  749MOL0     C 3234   3.476   1.780   4.745  0.0423  0.3356 -0.9597
  749MOL0     C 3235   3.624   1.790   4.739  0.1334 -0.5908  0.1901
  749MOL0     C 3236   3.683   1.681   4.665  0.1551  0.2946  0.1000
  749MOL0     C 3237   3.836   1.660   4.705  0.2397 -0.8687 -0.1613
  749MOL0     C 3238   3.959   1.738   4.631 -0.0404 -0.2279  0.0652
  749MOL0     C 3239   3.936   1.885   4.603  0.0578  0.2543  0.7941
  749MOL0     C 3240   3.941   1.975   4.727  0.9307 -1.1823 -0.0619
  749MOL0     N 3241   3.987   2.109   4.693 -0.5884 -0.0889  0.0440
  749MOL0     C 3242   3.918   2.202   4.621  0.3921  0.3313  0.4601
  749MOL0     C 3243   3.997   2.310   4.642  0.3569 -0.4657  0.1614
  749MOL0     C 3244   3.956   2.437   4.578 -0.0794  0.3512  0.2821
  749MOL0     C 3245   3.810   2.471   4.593  0.0782  0.5595  0.0029
  749MOL0     C 3246   3.768   2.478   4.737 -0.1289  0.0506 -0.8648
  749MOL0     C 3247   3.842   2.576   4.827  0.0738 -1.4872 -0.3488
  749MOL0     O 3248   3.835   2.704   4.754 -0.4134 -0.1934  0.1825
  749MOL0     C 3249   3.733   2.790   4.780  1.1946 -0.4735  0.9705
  749MOL0     C 3250   3.705   2.901   4.693 -0.2484 -0.2049  0.2394
  749MOL0     C 3251   3.600   2.990   4.723  0.0954 -0.3833  0.1723
  749MOL0     C 3252   3.567   3.085   4.609 -0.0174 -0.6860 -0.5523
  749MOL0     C 3253   3.533   2.990   4.843  0.0431  0.7658 -0.0582
  749MOL0     C 3254   3.420   3.085   4.883  0.3712 -0.0248  0.6185
  749MOL0     O 3255   3.342   3.053   4.985  0.4641  0.9713 -0.2230
  749MOL0     C 3256   3.278   3.157   5.055  0.0663  0.2019 -0.2015
  749MOL0     C 3257   3.144   3.146   5.088  0.8057  0.1795 -0.7312
  749MOL0     C 3258   3.081   3.242   5.164 -0.9460  0.1260 -0.4203
  749MOL0     C 3259   3.149   3.361   5.208  0.2046 -0.1265  0.3422
  749MOL0     O 3260   3.103   3.462   5.293 -0.3398  0.3443  0.0665
  749MOL0     C 3261   2.964   3.447   5.343 -0.2420  0.0312  0.0974
  749MOL0     C 3262   2.924   3.582   5.407  0.0156 -0.2833  0.2556
  749MOL0     C 3263   3.037   3.632   5.502  0.4102 -0.6531 -0.5287
  749MOL0     C 3264   2.989   3.767   5.557 -0.0395  0.3320  0.1883
  749MOL0     C 3265   3.096   3.812   5.661  1.0092  0.1442  0.6846
  749MOL0     C 3266   3.073   3.954   5.718  0.0127  0.8320  0.9000
  749MOL0     C 3267   3.080   4.060   5.601 -0.6499  0.7850 -0.1678
  749MOL0     C 3268   2.986   4.178   5.628 -0.6284  0.5663  0.5027
  749MOL0    Cl 3269   2.819   4.121   5.584 -0.1303  0.0951 -0.1653
  749MOL0     C 3270   3.283   3.369   5.182 -0.1463  0.4362 -0.3672
  749MOL0     C 3271   3.342   3.271   5.109  0.8242  1.3277 -0.2378
  749MOL0     O 3272   3.416   3.196   4.831  0.0049  0.2495  0.1251
  749MOL0     C 3273   3.551   2.872   4.915 -0.0772  1.0395 -0.3300
  749MOL0     C 3274   3.644   2.770   4.884  0.2106 -0.1264  0.3677
  749MOL0     N 3275   4.108   2.290   4.713 -0.5066  0.3565  0.0366
  749MOL0     N 3276   4.097   2.164   4.748 -0.0444  0.6588  0.1447
  749MOL0     C 3277   3.287   1.912   5.105  0.7673  0.6432  0.4154
  749MOL0     C 3278   3.219   1.938   5.225 -1.1413  0.1345  0.1125
  749MOL0     C 3279   2.830   1.973   5.471 -0.3710 -1.5328 -0.2219
  749MOL0     C 3280   2.796   1.850   5.526 -0.5796 -0.1136  0.1209
  749MOL0     C 3281   2.674   1.818   5.586  0.0013  0.0372  0.5418
  749MOL0     C 3282   2.576   1.918   5.608 -0.3885  0.0567  0.5352
  749MOL0     O 3283   2.466   1.875   5.677 -0.3892 -0.1972  0.4099
  749MOL0     C 3284   2.352   1.956   5.696  0.0676 -0.3806  0.3077
  749MOL0     C 3285   2.273   1.893   5.822 -0.0413 -0.3087 -0.5831
  749MOL0     C 3286   2.356   1.887   5.948  0.9892 -0.5904 -0.0830
  749MOL0     C 3287   2.263   1.866   6.069  0.0202 -0.3273 -0.3392
  749MOL0     C 3288   2.157   1.974   6.094 -0.3430 -0.1300 -0.2132
  749MOL0     C 3289   2.067   2.051   6.131 -0.4000 -0.2966  0.5940
  749MOL0     C 3290   2.615   2.047   5.567  0.6017 -0.3977 -0.3320
  749MOL0     C 3291   2.737   2.077   5.505 -0.0156 -0.3558 -0.7706
  749MOL0     C 3292   2.760   2.223   5.464  0.1331 -0.8801  0.1397
  749MOL0     H 3293   2.983   1.694   5.221  0.9674 -1.4752  0.3975
  749MOL0     H 3294   3.107   1.644   5.000  1.4240 -1.8174  0.9080
  749MOL0     H 3295   3.490   1.882   4.940  1.0855  1.0721 -1.2211
  749MOL0     H 3296   3.361   1.946   4.834 -2.2866 -2.0065 -1.6954
  749MOL0     H 3297   3.446   1.675   4.749  0.2230  0.3036 -0.3529
  749MOL0     H 3298   3.434   1.809   4.649  0.4855  2.1796 -0.6449
  749MOL0     H 3299   3.638   1.890   4.696  1.0328 -0.4200  0.8362
  749MOL0     H 3300   3.667   1.798   4.839  3.3004  1.7222 -1.1809
  749MOL0     H 3301   3.632   1.584   4.674  0.9743 -0.2504 -0.8919
  749MOL0     H 3302   3.675   1.697   4.557  1.0314 -1.4610 -0.2694
  749MOL0     H 3303   3.862   1.554   4.697  0.2881 -0.8618 -0.0857
  749MOL0     H 3304   3.845   1.695   4.808  2.9701  2.9711 -1.4624
  749MOL0     H 3305   4.047   1.727   4.694 -0.8016 -0.2929  1.1517
  749MOL0     H 3306   3.975   1.693   4.532 -0.7765  0.6930 -0.4961
  749MOL0     H 3307   3.840   1.896   4.552  2.5355  0.4909 -4.4636
  749MOL0     H 3308   4.006   1.919   4.526  0.8845  1.7716  2.1573
  749MOL0     H 3309   3.838   1.981   4.763 -0.0334  0.3896 -2.7391
  749MOL0     H 3310   4.015   1.942   4.800  1.7711 -0.5645 -0.6097
  749MOL0     H 3311   3.822   2.194   4.570 -0.3404  2.9156  1.2977
  749MOL0     H 3312   3.974   2.438   4.470 -2.7759  2.7546 -0.2543
  749MOL0     H 3313   4.022   2.513   4.620  2.4057  0.4919 -3.3767
  749MOL0     H 3314   3.796   2.568   4.545  0.0655 -0.6005 -2.4533
  749MOL0     H 3315   3.749   2.395   4.545  0.6768 -0.2035  0.4233
  749MOL0     H 3316   3.659   2.478   4.740 -0.1234 -0.0618 -0.6818
  749MOL0     H 3317   3.795   2.378   4.773  0.5298 -0.3809 -2.4850
  749MOL0     H 3318   3.804   2.580   4.929  2.5201 -2.5535  0.6816
  749MOL0     H 3319   3.947   2.550   4.844 -0.1796 -1.8142  0.7533
  749MOL0     H 3320   3.762   2.916   4.602  2.5938 -1.6688  1.6541
  749MOL0     H 3321   3.598   3.186   4.634  0.4275 -0.3563 -2.2672
  749MOL0     H 3322   3.461   3.069   4.587 -0.0653  1.1758 -1.8782
  749MOL0     H 3323   3.614   3.051   4.516 -0.0966 -0.1082 -0.8056
  749MOL0     H 3324   3.093   3.055   5.058 -1.8674  1.5498 -0.6402
  749MOL0     H 3325   2.977   3.226   5.194 -2.1027  1.6145 -3.2149
  749MOL0     H 3326   2.891   3.418   5.268 -1.2023 -0.0061  1.0129
  749MOL0     H 3327   2.967   3.373   5.424 -2.5462 -1.0903 -0.7809
  749MOL0     H 3328   2.895   3.658   5.334 -1.1256 -1.9810 -1.1409
  749MOL0     H 3329   2.835   3.576   5.471  0.7205  1.1424  1.4243
  749MOL0     H 3330   3.137   3.633   5.457 -0.0309 -3.1860 -1.7328
  749MOL0     H 3331   3.052   3.568   5.589 -2.6429 -1.3140 -0.3575
  749MOL0     H 3332   2.895   3.747   5.610  0.2363  0.0926  0.5964
  749MOL0     H 3333   2.972   3.838   5.476 -1.3257 -1.4648 -1.2155
  749MOL0     H 3334   3.107   3.743   5.745 -0.5722  0.0209  0.8115
  749MOL0     H 3335   3.191   3.828   5.608 -0.4945 -0.0395 -2.2568
  749MOL0     H 3336   3.144   3.978   5.798  0.5255 -0.5022  0.8643
  749MOL0     H 3337   2.976   3.964   5.768 -1.8736  3.0594 -2.8119
  749MOL0     H 3338   3.051   4.012   5.507 -1.0963 -1.1063  0.8919
  749MOL0     H 3339   3.184   4.093   5.597 -0.0137 -1.0813 -0.0407
  749MOL0     H 3340   3.015   4.258   5.559 -4.0313  2.3416  0.9263
  749MOL0     H 3341   3.001   4.211   5.731  2.6451  0.5296  0.1278
  749MOL0     H 3342   3.336   3.459   5.213 -0.9067  1.2720 -1.4150
  749MOL0     H 3343   3.449   3.282   5.100  1.2863 -1.3044  0.9350
  749MOL0     H 3344   3.490   2.844   5.001  0.5835 -0.2082 -0.2384
  749MOL0     H 3345   3.649   2.696   4.963  0.9031 -0.8273 -0.3186
  749MOL0     H 3346   3.377   1.970   5.083  0.2074  2.5935  2.7236
  749MOL0     H 3347   3.254   2.021   5.285 -1.8944  0.0398  0.7005
  749MOL0     H 3348   2.862   1.765   5.516  0.5727  0.8338 -0.6997
  749MOL0     H 3349   2.668   1.713   5.612  0.8189  0.4747  2.7102
  749MOL0     H 3350   2.377   2.062   5.701  0.1665 -0.4192  0.6796
  749MOL0     H 3351   2.291   1.943   5.606 -2.1974 -1.8997  1.9389
  749MOL0     H 3352   2.254   1.789   5.795  0.9045  0.1196 -3.1837
  749MOL0     H 3353   2.177   1.944   5.838 -0.5512 -1.8562  1.6845
  749MOL0     H 3354   2.436   1.813   5.950  3.0103  1.4367  2.5559
  749MOL0     H 3355   2.406   1.984   5.962 -1.1701  1.3958 -4.1449
  749MOL0     H 3356   2.320   1.852   6.162 -1.2931 -0.2275  0.5015
  749MOL0     H 3357   2.205   1.775   6.048  0.5055 -0.2154 -2.3336
  749MOL0     H 3358   2.002   2.128   6.167  0.5001  2.6549 -3.4151
  749MOL0     H 3359   2.556   2.132   5.601  1.9022 -0.0771  1.2504
  749MOL0     H 3360   2.758   2.221   5.354  2.0403 -0.7337  0.0608
  749MOL0     H 3361   2.684   2.291   5.503  3.1215  2.9209 -0.0393
  749MOL0     H 3362   2.853   2.262   5.507  0.4237  0.9900 -1.9743
  750MOL0     O 3363   9.086   4.055   7.729  0.2374  0.0045 -0.5732
  750MOL0     C 3364   9.129   4.146   7.795  0.5322 -1.2405 -0.4912
  750MOL0     O 3365   9.246   4.150   7.866 -0.4217  0.4462 -0.2771
  750MOL0     C 3366   9.321   4.036   7.877 -0.6222  0.0740  0.3471
  750MOL0     C 3367   9.466   4.051   7.879 -0.3802 -0.6196 -0.5550
  750MOL0     C 3368   9.552   3.941   7.881  0.0011 -0.7166 -0.4874
  750MOL0     C 3369   9.490   3.812   7.888 -0.6705  0.5227 -0.2949
  750MOL0     O 3370   9.592   3.726   7.932  0.1636  0.8380  0.4294
  750MOL0     C 3371   9.578   3.587   7.904  0.6511 -0.7551 -0.1126
  750MOL0     C 3372   9.620   3.501   8.026  0.0682 -0.2157 -0.2454
  750MOL0     C 3373   9.510   3.475   8.140 -0.4636  0.5949  0.7284
  750MOL0     C 3374   9.542   3.524   8.277 -0.3184  1.1715 -0.2816
  750MOL0     C 3375   9.433   3.484   8.379 -0.4794 -0.1464  0.0913
  750MOL0     C 3376   9.295   3.510   8.339  0.1102  0.3757 -0.3385
  750MOL0     C 3377   9.270   3.655   8.300  0.1712  0.0808  0.0537
  750MOL0     C 3378   9.287   3.753   8.416  0.7893 -0.4351  0.1930
  750MOL0     N 3379   9.415   3.829   8.413  0.3437 -0.2440  0.9429
  750MOL0     C 3380   9.487   3.875   8.304  0.2791 -0.3024 -0.7512
  750MOL0     C 3381   9.590   3.953   8.360  0.3618  0.5002  0.5788
  750MOL0     C 3382   9.699   4.020   8.279  0.4761  0.3576 -0.4936
  750MOL0     C 3383   9.817   3.931   8.290 -0.0549  0.0464  0.1116
  750MOL0     C 3384   9.933   3.989   8.201  0.2379 -0.2908  1.0349
  750MOL0     C 3385  10.047   3.892   8.165  0.2087  0.1587  0.2817
  750MOL0     O 3386   9.998   3.786   8.091  0.2923  0.2115  0.3380
  750MOL0     C 3387  10.063   3.672   8.057  0.3648 -0.4039 -0.7962
  750MOL0     C 3388  10.207   3.665   8.069  0.1401 -0.1544  0.6124
  750MOL0     C 3389  10.279   3.549   8.037 -0.0685 -0.0214  0.1422
  750MOL0     C 3390  10.430   3.571   8.032  0.2432 -0.0030 -0.7371
  750MOL0     C 3391  10.205   3.429   7.999 -0.5564  0.6332  0.6392
  750MOL0     C 3392  10.263   3.303   7.948 -0.2465 -0.2140 -0.4615
  750MOL0     O 3393  10.174   3.201   7.925  0.2350  0.1991  0.1271
  750MOL0     C 3394  10.214   3.086   7.859 -0.4436  0.5525  0.2242
  750MOL0     C 3395  10.318   3.064   7.767 -0.0524  0.0140 -0.6086
  750MOL0     C 3396  10.330   2.940   7.701 -0.4397  0.0528 -0.1708
  750MOL0     C 3397  10.238   2.837   7.719  0.1503  0.5506 -0.3675
  750MOL0     O 3398  10.268   2.718   7.656 -0.1243  0.1843 -0.0425
  750MOL0     C 3399  10.177   2.606   7.674  1.0371 -0.5851  1.4273
  750MOL0     C 3400  10.234   2.501   7.780 -0.6917 -0.0375  0.0874
  750MOL0     C 3401  10.166   2.364   7.787 -0.7301  0.0690 -0.5848
  750MOL0     C 3402  10.020   2.384   7.840 -0.1897 -0.1512 -0.6288
  750MOL0     C 3403   9.990   2.454   7.977  0.7252  0.1474 -0.0821
  750MOL0     C 3404   9.844   2.496   8.001 -0.1443  0.4414  0.3986
  750MOL0     C 3405   9.832   2.552   8.147  0.5157  0.8048 -0.3184
  750MOL0     C 3406   9.892   2.679   8.170  0.6454 -0.4700  0.1380
  750MOL0    Cl 3407   9.863   2.817   8.050  0.0581  0.1661 -0.2184
  750MOL0     C 3408  10.133   2.862   7.810  0.3394 -0.0265  0.0475
  750MOL0     C 3409  10.121   2.980   7.874 -0.4453 -0.3108 -0.1162
  750MOL0     O 3410  10.386   3.290   7.953 -0.3220 -0.4852 -0.0259
  750MOL0     C 3411  10.061   3.442   7.978 -0.4091  0.1185  0.6294
  750MOL0     C 3412   9.995   3.557   8.020 -0.7173 -0.2506  0.7185
  750MOL0     N 3413   9.572   3.960   8.494 -0.3991  0.6749  0.2172
  750MOL0     N 3414   9.469   3.882   8.521  0.0830  0.0547 -0.1854
  750MOL0     C 3415   9.351   3.795   7.892 -0.0160  0.4053 -0.4832
  750MOL0     C 3416   9.266   3.909   7.882 -0.1428 -0.1512 -0.1251
  750MOL0     C 3417   9.054   4.273   7.797  0.3168  0.3075 -0.1180
  750MOL0     C 3418   9.136   4.386   7.824  0.7448 -0.6412 -0.0113
  750MOL0     C 3419   9.071   4.510   7.807 -0.2045 -0.0033  0.6351
  750MOL0     C 3420   8.938   4.524   7.778 -0.6533 -0.3209  0.0326
  750MOL0     O 3421   8.907   4.664   7.766  0.3020  0.0339 -0.7522
  750MOL0     C 3422   8.772   4.701   7.774  0.1162  0.2300  0.1210
  750MOL0     C 3423   8.722   4.698   7.627  0.5218  0.2584 -0.5326
  750MOL0     C 3424   8.764   4.814   7.549 -0.3826  0.2805 -0.2723
  750MOL0     C 3425   8.720   4.822   7.402 -0.1545 -0.3696 -0.0994
  750MOL0     C 3426   8.749   4.699   7.324  0.2258 -0.1256  0.1619
  750MOL0     C 3427   8.778   4.615   7.245 -0.0591  0.2772 -0.2207
  750MOL0     C 3428   8.857   4.411   7.765  0.0927 -0.8940 -0.0915
  750MOL0     C 3429   8.916   4.288   7.769  0.0852  1.0020  0.1548
  750MOL0     C 3430   8.828   4.175   7.752 -0.1902  1.0538  0.2069
  750MOL0     H 3431   9.510   4.150   7.866  2.2796 -1.7405 -0.6704
  750MOL0     H 3432   9.656   3.955   7.854 -0.6489  2.4372 -1.8863
  750MOL0     H 3433   9.654   3.567   7.828 -3.8348 -1.9446 -4.8531
  750MOL0     H 3434   9.481   3.556   7.866  0.0726  0.1900  0.5424
  750MOL0     H 3435   9.648   3.403   7.987  1.2178 -0.8510  1.9757
  750MOL0     H 3436   9.710   3.535   8.077  0.7925 -3.0313  0.5432
  750MOL0     H 3437   9.415   3.519   8.108 -1.0693 -0.0379  1.6114
  750MOL0     H 3438   9.484   3.369   8.147 -0.0159  0.5980  3.0610
  750MOL0     H 3439   9.637   3.473   8.294  0.5729  2.8063 -0.0834
  750MOL0     H 3440   9.559   3.632   8.268 -3.4671  1.6346 -2.8551
  750MOL0     H 3441   9.465   3.543   8.465 -2.4463  0.1677  0.6545
  750MOL0     H 3442   9.433   3.380   8.413 -2.3329 -0.7458 -1.5097
  750MOL0     H 3443   9.284   3.437   8.258  2.2589 -0.5261  0.1300
  750MOL0     H 3444   9.216   3.479   8.409 -1.7798  0.8156 -2.1664
  750MOL0     H 3445   9.166   3.668   8.269 -0.4168  0.9217  2.1628
  750MOL0     H 3446   9.327   3.683   8.212  0.9196 -0.2052  0.4375
  750MOL0     H 3447   9.213   3.833   8.414 -0.6954 -1.7631 -1.3326
  750MOL0     H 3448   9.263   3.717   8.517  1.3006  1.5640  1.0785
  750MOL0     H 3449   9.472   3.862   8.198  2.1086  1.4307 -1.2980
  750MOL0     H 3450   9.722   4.120   8.317 -0.8704  1.1469 -1.6621
  750MOL0     H 3451   9.679   4.032   8.172 -1.5741  2.6528  0.0614
  750MOL0     H 3452   9.830   3.936   8.398 -1.9769 -0.3165  0.3969
  750MOL0     H 3453   9.797   3.826   8.269  3.9270 -1.5484  3.0348
  750MOL0     H 3454   9.891   4.029   8.108  1.2620  1.4693  1.2782
  750MOL0     H 3455   9.985   4.077   8.241  4.1322 -0.6009 -2.5485
  750MOL0     H 3456  10.126   3.935   8.103 -0.2339  0.6558  0.0538
  750MOL0     H 3457  10.088   3.840   8.253  1.7480 -1.9391 -1.5765
  750MOL0     H 3458  10.266   3.753   8.094 -0.2928  0.9231 -1.8885
  750MOL0     H 3459  10.466   3.575   7.928 -1.5568 -2.4506 -1.5366
  750MOL0     H 3460  10.474   3.487   8.087  1.1840  1.0127  0.1062
  750MOL0     H 3461  10.451   3.667   8.079 -3.6074  0.6546 -0.0537
  750MOL0     H 3462  10.398   3.128   7.733  0.5221 -0.8862 -0.9962
  750MOL0     H 3463  10.418   2.905   7.648 -0.3659 -2.3510  1.3854
  750MOL0     H 3464  10.072   2.632   7.686  0.4594 -1.2238 -1.4165
  750MOL0     H 3465  10.181   2.566   7.572 -1.3873 -0.0520  1.0706
  750MOL0     H 3466  10.340   2.483   7.757 -0.9252 -0.0056 -1.0558
  750MOL0     H 3467  10.233   2.542   7.882 -0.9355 -0.2466  0.1684
  750MOL0     H 3468  10.212   2.297   7.861  1.3757  0.4002 -1.5415
  750MOL0     H 3469  10.155   2.314   7.691 -2.2258 -3.0971  1.0585
  750MOL0     H 3470   9.977   2.284   7.845  2.0999 -1.1064  1.6401
  750MOL0     H 3471   9.964   2.444   7.767 -2.6336  1.2382  2.1982
  750MOL0     H 3472  10.016   2.377   8.050 -2.2470 -1.0229 -0.1527
  750MOL0     H 3473  10.052   2.543   7.992 -2.1994  2.1118  1.1519
  750MOL0     H 3474   9.779   2.411   7.978 -0.2960 -0.2274  3.0003
  750MOL0     H 3475   9.817   2.566   7.922 -2.6688 -2.4158 -1.5013
  750MOL0     H 3476   9.866   2.478   8.220 -1.5197  0.3367  0.2300
  750MOL0     H 3477   9.725   2.563   8.167 -0.8245 -1.1973 -5.0410
  750MOL0     H 3478  10.000   2.662   8.172  0.7930  0.4345  1.3420
  750MOL0     H 3479   9.873   2.707   8.274  2.2161  0.4293  0.2088
  750MOL0     H 3480  10.060   2.787   7.840 -0.5649 -0.0676 -2.0753
  750MOL0     H 3481  10.037   2.994   7.941  1.2558  1.1267  1.8552
  750MOL0     H 3482   9.995   3.363   7.941  0.7381  0.5790 -2.7154
  750MOL0     H 3483   9.887   3.564   8.024 -0.8417 -1.0761 -0.7188
  750MOL0     H 3484   9.306   3.702   7.924  2.3308 -0.8530 -0.5734
  750MOL0     H 3485   9.158   3.909   7.892 -0.0561  2.5395  2.1188
  750MOL0     H 3486   9.240   4.388   7.855  0.5536 -2.9065  1.0290
  750MOL0     H 3487   9.129   4.601   7.819 -0.3386 -0.1409  2.6698
  750MOL0     H 3488   8.724   4.627   7.839  1.0046 -0.4094  0.0627
  750MOL0     H 3489   8.751   4.797   7.822  1.7754  0.0921  1.1802
  750MOL0     H 3490   8.614   4.684   7.619  0.5607 -0.9833  0.6652
  750MOL0     H 3491   8.766   4.609   7.580  1.8911  0.7820 -0.2659
  750MOL0     H 3492   8.725   4.905   7.596  0.4409  1.3196 -1.5438
  750MOL0     H 3493   8.870   4.841   7.548 -0.8770  2.3545 -0.5172
  750MOL0     H 3494   8.776   4.904   7.355  0.7944 -1.7305 -1.4344
  750MOL0     H 3495   8.615   4.850   7.392  0.2709  1.9813  1.1875
  750MOL0     H 3496   8.801   4.531   7.183 -0.0175  0.1445 -0.0245
  750MOL0     H 3497   8.750   4.412   7.751 -0.3598 -1.7785  2.7311
  750MOL0     H 3498   8.826   4.109   7.839 -0.8626 -1.3885 -1.5525
  750MOL0     H 3499   8.721   4.190   7.731 -0.4047 -0.7225 -0.1144
  750MOL0     H 3500   8.861   4.121   7.664 -1.9504  2.6864 -1.5663
  751MOL0     O 3501   6.674   0.391   0.410 -0.1600 -1.3504  0.4868
  751MOL0     C 3502   6.651   0.329   0.514 -0.1531  0.2687  0.0463
  751MOL0     O 3503   6.730   0.221   0.563  0.0524 -0.7666 -0.7031
  751MOL0     C 3504   6.858   0.227   0.515 -0.3397 -0.9605 -0.1936
  751MOL0     C 3505   6.960   0.318   0.551 -0.6302 -0.5226  0.2760
  751MOL0     C 3506   7.090   0.319   0.493  0.2340 -0.5657  0.0603
  751MOL0     C 3507   7.124   0.227   0.385 -0.4740 -0.1320  0.0959
  751MOL0     O 3508   7.245   0.218   0.327 -0.3351 -0.5415  0.7344
  751MOL0     C 3509   7.357   0.236   0.421 -0.3433  0.0673  0.1390
  751MOL0     C 3510   7.463   0.145   0.361 -0.7748 -0.8444  0.2269
  751MOL0     C 3511   7.511   0.192   0.223 -0.0780 -0.1813 -0.9031
  751MOL0     C 3512   7.646   0.136   0.188 -0.2992  0.8661  0.2795
  751MOL0     C 3513   7.685   0.175   0.050  0.9861  0.2889 -0.0571
  751MOL0     C 3514   7.831   0.186   0.032  0.5717 -0.4454 -1.2124
  751MOL0     C 3515   7.897   0.052   0.060 -0.0395  0.1818  0.6072
  751MOL0     C 3516   8.036   0.054  -0.007  0.1021  0.5669 -0.1604
  751MOL0     N 3517   8.113  -0.069   0.023 -0.1216 -0.7099 -0.5331
  751MOL0     C 3518   8.181  -0.155  -0.060 -0.1714 -0.0682  0.0335
  751MOL0     C 3519   8.224  -0.254   0.021 -0.6873 -0.3413  0.5479
  751MOL0     C 3520   8.313  -0.374  -0.021  0.8589 -0.9228  0.2545
  751MOL0     C 3521   8.258  -0.432  -0.154 -0.2200  0.2409 -0.4829
  751MOL0     C 3522   8.361  -0.519  -0.221  0.0477 -0.5162 -0.3680
  751MOL0     C 3523   8.465  -0.432  -0.299  0.0328  0.4082 -0.3919
  751MOL0     O 3524   8.543  -0.521  -0.376 -0.5898 -0.2956  0.2360
  751MOL0     C 3525   8.665  -0.492  -0.420 -0.1029  0.5366  0.0588
  751MOL0     C 3526   8.744  -0.384  -0.368  0.3685  1.1293  1.2095
  751MOL0     C 3527   8.882  -0.370  -0.407  0.1385  0.1701  0.3663
  751MOL0     C 3528   8.958  -0.262  -0.338  0.8865 -1.2312  0.9644
  751MOL0     C 3529   8.933  -0.451  -0.507 -0.7126  0.0824  0.4362
  751MOL0     C 3530   9.074  -0.439  -0.553  0.1566  1.2578 -0.8627
  751MOL0     O 3531   9.148  -0.551  -0.565 -0.0328  0.0506 -0.6415
  751MOL0     C 3532   9.280  -0.540  -0.600 -0.4997  0.5407  0.2043
  751MOL0     C 3533   9.313  -0.520  -0.733 -0.2776  0.1412  0.8598
  751MOL0     C 3534   9.438  -0.489  -0.774 -0.2033  0.5177 -0.1921
  751MOL0     C 3535   9.543  -0.497  -0.684 -0.4936 -0.2939  0.4385
  751MOL0     O 3536   9.675  -0.485  -0.709 -0.1154  0.4420  0.5848
  751MOL0     C 3537   9.713  -0.374  -0.797 -0.8151 -0.1044 -0.7909
  751MOL0     C 3538   9.742  -0.426  -0.939  0.5609  0.5557 -0.1052
  751MOL0     C 3539   9.818  -0.330  -1.028  0.2482  0.5249  1.0134
  751MOL0     C 3540   9.886  -0.398  -1.147  0.5237 -0.5311 -0.0726
  751MOL0     C 3541   9.950  -0.291  -1.224 -0.1533 -0.3122  0.7989
  751MOL0     C 3542  10.055  -0.357  -1.318  0.4356 -0.3625  0.4811
  751MOL0     C 3543  10.134  -0.256  -1.401  1.1225 -0.4510  0.0154
  751MOL0     C 3544  10.206  -0.321  -1.528 -0.0114 -0.2129 -0.3276
  751MOL0    Cl 3545  10.103  -0.398  -1.644 -0.0906 -0.4428 -0.1457
  751MOL0     C 3546   9.513  -0.524  -0.548 -0.4605 -0.2025  0.3675
  751MOL0     C 3547   9.381  -0.548  -0.513 -0.5328 -0.1378  0.2460
  751MOL0     O 3548   9.121  -0.326  -0.585  0.7509  0.8590 -0.1109
  751MOL0     C 3549   8.851  -0.549  -0.568 -0.0378 -0.5013 -0.0181
  751MOL0     C 3550   8.721  -0.571  -0.521 -0.2481  1.0377  1.0860
  751MOL0     N 3551   8.181  -0.239   0.149 -0.0551  0.4285  0.1268
  751MOL0     N 3552   8.119  -0.127   0.149  0.1957 -0.4591 -0.7300
  751MOL0     C 3553   7.031   0.136   0.361  0.4243  0.0797  0.4346
  751MOL0     C 3554   6.899   0.136   0.417 -0.3200 -0.5194  0.5832
  751MOL0     C 3555   6.517   0.353   0.573 -0.0643  0.3728  0.4665
  751MOL0     C 3556   6.464   0.254   0.657  0.5982  0.8265 -0.6625
  751MOL0     C 3557   6.337   0.246   0.713 -0.3773 -0.8377  0.5478
  751MOL0     C 3558   6.249   0.352   0.685 -0.0912 -0.7873  0.1608
  751MOL0     O 3559   6.126   0.352   0.744 -0.4656 -0.4400 -0.3324
  751MOL0     C 3560   6.056   0.227   0.754  0.6335 -0.5844 -0.3154
  751MOL0     C 3561   5.906   0.254   0.751  0.0660 -0.2106 -0.3832
  751MOL0     C 3562   5.849   0.238   0.618  0.3061 -0.6529  0.0433
  751MOL0     C 3563   5.699   0.267   0.626 -0.7115 -0.0767  0.5912
  751MOL0     C 3564   5.618   0.161   0.681 -0.2246  0.2286  0.1364
  751MOL0     C 3565   5.543   0.072   0.722 -0.2172  0.1170 -0.3545
  751MOL0     C 3566   6.299   0.464   0.605 -0.2417 -0.5215  1.4477
  751MOL0     C 3567   6.431   0.463   0.556  0.4308 -0.6846 -0.3030
  751MOL0     C 3568   6.476   0.581   0.475  0.9006  0.6080 -0.0540
  751MOL0     H 3569   6.939   0.398   0.621 -2.8563  2.2746 -3.2341
  751MOL0     H 3570   7.161   0.396   0.520 -0.1373 -0.6675  1.3553
  751MOL0     H 3571   7.335   0.193   0.519 -3.0388 -1.6966 -1.0960
  751MOL0     H 3572   7.390   0.339   0.434  2.0450 -0.7953  1.5410
  751MOL0     H 3573   7.544   0.127   0.433 -1.8973  1.2595  2.1196
  751MOL0     H 3574   7.411   0.050   0.350 -0.9601 -0.6968 -0.1758
  751MOL0     H 3575   7.434   0.165   0.150 -0.9542  0.3351 -0.2034
  751MOL0     H 3576   7.521   0.301   0.220  0.2257 -0.2178 -1.3401
  751MOL0     H 3577   7.721   0.169   0.260  1.8240 -1.4264 -0.7231
  751MOL0     H 3578   7.647   0.027   0.184  0.3760  0.9086 -1.4605
  751MOL0     H 3579   7.645   0.274   0.025 -0.1719  0.3571  1.8697
  751MOL0     H 3580   7.647   0.099  -0.018 -0.1009 -0.3466  1.2142
  751MOL0     H 3581   7.861   0.206  -0.071  4.8656 -1.2606 -0.2928
  751MOL0     H 3582   7.866   0.260   0.104  2.0591 -0.6538 -1.6867
  751MOL0     H 3583   7.842  -0.032   0.018 -2.0913  2.5983 -1.9377
  751MOL0     H 3584   7.907   0.047   0.169  1.2341 -1.2265  0.4592
  751MOL0     H 3585   8.033   0.060  -0.117  0.6998  2.1958 -0.1150
  751MOL0     H 3586   8.096   0.142   0.019  0.6576  0.2801 -0.4591
  751MOL0     H 3587   8.204  -0.143  -0.165 -0.4069  2.2401  0.2016
  751MOL0     H 3588   8.332  -0.450   0.055  3.9671  0.0315  0.5543
  751MOL0     H 3589   8.407  -0.320  -0.038 -0.9984  2.6001  0.2027
  751MOL0     H 3590   8.170  -0.487  -0.120  1.7775 -1.5802  2.1968
  751MOL0     H 3591   8.227  -0.352  -0.221  2.2442  1.3020 -0.4804
  751MOL0     H 3592   8.415  -0.583  -0.150 -0.1953 -2.8205 -2.1446
  751MOL0     H 3593   8.307  -0.593  -0.280  0.6542 -0.7274 -0.6687
  751MOL0     H 3594   8.411  -0.368  -0.369 -0.3599  1.0161  0.4580
  751MOL0     H 3595   8.525  -0.363  -0.238 -1.6545  1.2226  0.4070
  751MOL0     H 3596   8.719  -0.306  -0.297  1.6771  5.1469 -2.3631
  751MOL0     H 3597   8.954  -0.167  -0.393  1.7840 -2.0141 -0.5001
  751MOL0     H 3598   9.064  -0.289  -0.327  1.5543 -0.5981 -2.6538
  751MOL0     H 3599   8.911  -0.229  -0.245 -0.5099  0.1543 -0.1759
  751MOL0     H 3600   9.235  -0.533  -0.808  0.2088 -1.6496  0.6212
  751MOL0     H 3601   9.452  -0.474  -0.881  0.8226 -2.1324 -0.5005
  751MOL0     H 3602   9.651  -0.285  -0.811 -0.7482  0.0525 -0.1160
  751MOL0     H 3603   9.811  -0.345  -0.756 -0.1784 -0.4412 -2.0206
  751MOL0     H 3604   9.798  -0.520  -0.934 -1.0654 -0.3788  2.4018
  751MOL0     H 3605   9.650  -0.469  -0.980  1.2373 -0.1606 -0.9409
  751MOL0     H 3606   9.885  -0.270  -0.966  1.5708 -0.2645  0.3942
  751MOL0     H 3607   9.751  -0.251  -1.061  2.0058  2.3769  1.6273
  751MOL0     H 3608   9.819  -0.459  -1.208  1.8253 -1.2618 -0.8123
  751MOL0     H 3609   9.971  -0.458  -1.113  0.8803 -0.5922 -1.0371
  751MOL0     H 3610   9.880  -0.233  -1.284  0.0323 -1.8339 -0.9816
  751MOL0     H 3611  10.012  -0.224  -1.165 -0.5012  1.1947 -0.5001
  751MOL0     H 3612  10.016  -0.438  -1.381  2.5804 -0.0315 -1.4230
  751MOL0     H 3613  10.130  -0.416  -1.265  0.9405 -0.1476  0.0196
  751MOL0     H 3614  10.209  -0.207  -1.339  1.7946 -1.7599  0.2879
  751MOL0     H 3615  10.069  -0.184  -1.451 -1.2570 -4.4132 -3.2908
  751MOL0     H 3616  10.286  -0.387  -1.495 -1.0225 -0.7730  1.1447
  751MOL0     H 3617  10.256  -0.238  -1.578  0.7104  0.1269  0.8985
  751MOL0     H 3618   9.588  -0.515  -0.470 -1.1140  3.6610  0.7547
  751MOL0     H 3619   9.370  -0.564  -0.406  1.3330  1.6365  0.7611
  751MOL0     H 3620   8.880  -0.601  -0.659  0.2924 -0.5894  0.1352
  751MOL0     H 3621   8.653  -0.644  -0.564  1.7556 -0.3511  0.1121
  751MOL0     H 3622   7.056   0.053   0.296  0.4733  0.1532  0.3580
  751MOL0     H 3623   6.832   0.057   0.384  0.9596 -1.8580  1.0955
  751MOL0     H 3624   6.519   0.164   0.681  0.8111  0.7499 -1.4063
  751MOL0     H 3625   6.320   0.153   0.766  1.4988 -1.2870  0.4667
  751MOL0     H 3626   6.078   0.150   0.680  0.4809 -1.3701  0.4339
  751MOL0     H 3627   6.077   0.191   0.855 -2.4890 -0.4805  0.4780
  751MOL0     H 3628   5.891   0.359   0.778  2.9012  0.4226 -1.0357
  751MOL0     H 3629   5.854   0.196   0.828  1.8028 -0.2248  0.8189
  751MOL0     H 3630   5.890   0.305   0.541 -0.1575 -1.1137 -0.6220
  751MOL0     H 3631   5.860   0.134   0.585  0.0316 -0.5922 -0.2494
  751MOL0     H 3632   5.653   0.287   0.529  3.1161 -1.3013 -1.6833
  751MOL0     H 3633   5.693   0.349   0.698  0.6042  0.9589 -0.4163
  751MOL0     H 3634   5.484  -0.012   0.752 -1.6823 -0.2129 -3.6462
  751MOL0     H 3635   6.221   0.531   0.570 -1.7189 -0.1789  4.9789
  751MOL0     H 3636   6.577   0.608   0.505  1.5722 -1.4513 -0.3202
  751MOL0     H 3637   6.486   0.557   0.369  0.0599 -0.0148 -0.0073
  751MOL0     H 3638   6.406   0.664   0.474  0.8307  0.5631 -2.1868
  752MOL0     O 3639   5.498  10.413   7.031 -0.1450 -0.1204 -0.7584
  752MOL0     C 3640   5.498  10.503   7.122  0.6137  0.9669  0.0254
  752MOL0     O 3641   5.619  10.560   7.174 -0.3800  0.2350  0.3274
  752MOL0     C 3642   5.738  10.486   7.179  0.2597 -1.3409  1.0805
  752MOL0     C 3643   5.737  10.345   7.190 -0.4144 -0.2418 -0.5554
  752MOL0     C 3644   5.858  10.276   7.205 -0.0722  0.6560  0.1729
  752MOL0     C 3645   5.981  10.344   7.194 -0.8923  1.0113  0.1773
  752MOL0     O 3646   6.084  10.252   7.188 -0.5413 -0.6248  0.2384
  752MOL0     C 3647   6.220  10.295   7.197 -0.5206 -1.0068 -0.7087
  752MOL0     C 3648   6.258  10.311   7.349 -0.2480  0.1541  0.4780
  752MOL0     C 3649   6.225  10.174   7.422 -1.4226 -0.2431  0.1795
  752MOL0     C 3650   6.285  10.160   7.557 -0.2209 -0.4705 -0.1736
  752MOL0     C 3651   6.255  10.023   7.619  0.0058 -0.0314  0.1746
  752MOL0     C 3652   6.356   9.917   7.569  0.4553  0.8412 -0.1082
  752MOL0     C 3653   6.312   9.774   7.605  0.7591  0.4208 -0.8123
  752MOL0     C 3654   6.173   9.723   7.557  0.4367 -0.2900  0.2483
  752MOL0     N 3655   6.149   9.576   7.579  0.6374  0.0899 -0.1714
  752MOL0     C 3656   6.183   9.511   7.697 -0.3279  0.1405 -0.5063
  752MOL0     C 3657   6.145   9.384   7.688  0.3455 -0.3280  0.0204
  752MOL0     C 3658   6.169   9.282   7.793  0.5175 -0.3067 -0.3578
  752MOL0     C 3659   6.036   9.204   7.821 -0.7981 -0.4952 -0.5177
  752MOL0     C 3660   6.062   9.094   7.911 -0.5920 -0.5116 -0.2774
  752MOL0     C 3661   5.945   9.019   7.980  0.0897  0.0766 -0.7014
  752MOL0     O 3662   5.836   9.027   7.893  0.7345  0.0854  0.1053
  752MOL0     C 3663   5.804   8.923   7.802  0.0050 -0.2256 -0.6046
  752MOL0     C 3664   5.897   8.819   7.768 -1.1230 -0.1229  0.6313
  752MOL0     C 3665   5.870   8.714   7.684 -0.3442  0.0536 -0.5952
  752MOL0     C 3666   5.993   8.620   7.658 -0.2449 -0.4631 -0.9887
  752MOL0     C 3667   5.745   8.716   7.615  0.1208 -0.1213  0.2786
  752MOL0     C 3668   5.702   8.612   7.513  0.3287  0.2787 -0.4735
  752MOL0     O 3669   5.593   8.655   7.444 -0.1570 -0.5771 -0.6164
  752MOL0     C 3670   5.557   8.590   7.337  0.7689  0.7181  1.3356
  752MOL0     C 3671   5.603   8.622   7.205  0.5071  0.1502  0.0174
  752MOL0     C 3672   5.567   8.542   7.098  0.3435 -0.6128 -0.5395
  752MOL0     C 3673   5.470   8.443   7.111 -0.9479  0.4623 -0.1079
  752MOL0     O 3674   5.414   8.361   7.020 -0.3870  0.2222  0.3065
  752MOL0     C 3675   5.422   8.390   6.877 -0.2495 -0.1754 -0.3485
  752MOL0     C 3676   5.360   8.281   6.798 -0.2132 -0.7546  0.6140
  752MOL0     C 3677   5.212   8.239   6.831 -0.6423 -0.1752 -0.7506
  752MOL0     C 3678   5.153   8.149   6.721  0.6613 -0.6919  0.2096
  752MOL0     C 3679   5.010   8.108   6.766 -1.5449  0.4126 -0.3337
  752MOL0     C 3680   4.940   8.028   6.654 -0.5513 -0.7539 -0.5595
  752MOL0     C 3681   5.016   7.890   6.622  0.3719 -0.0714 -0.4274
  752MOL0     C 3682   4.923   7.807   6.524  0.3564 -0.6418 -0.9121
  752MOL0    Cl 3683   4.798   7.706   6.601 -0.0192 -0.4362  0.1586
  752MOL0     C 3684   5.432   8.400   7.245 -0.2411  0.8387  0.4452
  752MOL0     C 3685   5.469   8.480   7.351 -1.0265 -0.6537  0.0884
  752MOL0     O 3686   5.754   8.498   7.512  0.5780 -0.6018  0.3250
  752MOL0     C 3687   5.658   8.825   7.644  0.4093 -0.0162 -0.2986
  752MOL0     C 3688   5.686   8.924   7.735  0.4268  0.2165  1.6182
  752MOL0     N 3689   6.109   9.366   7.560  0.3000  0.6777  0.1075
  752MOL0     N 3690   6.097   9.479   7.495  0.0813  0.8054 -0.4704
  752MOL0     C 3691   5.987  10.487   7.190 -0.1553 -0.1356  0.0124
  752MOL0     C 3692   5.862  10.553   7.181  0.0561  0.7252  0.0442
  752MOL0     C 3693   5.370  10.565   7.165  0.2248 -0.5019  0.8703
  752MOL0     C 3694   5.253  10.524   7.108 -0.7592 -0.0474 -0.4434
  752MOL0     C 3695   5.127  10.576   7.132  0.2372  0.3311 -0.0582
  752MOL0     C 3696   5.109  10.674   7.226 -0.8301 -0.1070 -0.5148
  752MOL0     O 3697   4.988  10.713   7.271 -0.7048 -0.0112  0.4303
  752MOL0     C 3698   4.949  10.776   7.397 -1.2241 -0.4675  0.1128
  752MOL0     C 3699   4.796  10.759   7.432  0.6177  0.0799 -0.3387
  752MOL0     C 3700   4.710  10.848   7.344 -0.1978  0.0277  0.2187
  752MOL0     C 3701   4.710  10.803   7.195  0.4262  0.5802 -0.3315
  752MOL0     C 3702   4.651  10.669   7.183  0.5154  0.2583  0.1242
  752MOL0     C 3703   4.619  10.550   7.183 -0.8467  0.9056  0.4070
  752MOL0     C 3704   5.227  10.724   7.290 -0.6121  0.0852 -0.4587
  752MOL0     C 3705   5.352  10.676   7.262  0.1468  0.7787  0.3239
  752MOL0     C 3706   5.462  10.751   7.334 -0.1745 -0.3298 -0.2244
  752MOL0     H 3707   5.639  10.298   7.192  0.6783 -2.6593 -0.1675
  752MOL0     H 3708   5.853  10.170   7.226  0.6920  0.9601  2.0456
  752MOL0     H 3709   6.247  10.390   7.149  1.4480 -0.6339  1.0107
  752MOL0     H 3710   6.285  10.217   7.156  0.8383  0.6514 -1.8311
  752MOL0     H 3711   6.367  10.321   7.359 -0.1241 -1.5919  1.2337
  752MOL0     H 3712   6.213  10.403   7.387 -1.9637  1.6433 -4.4184
  752MOL0     H 3713   6.117  10.165   7.436 -1.0267 -4.2590  2.1690
  752MOL0     H 3714   6.257  10.088   7.362  1.6528  0.9193 -0.0441
  752MOL0     H 3715   6.393  10.169   7.543 -0.3703 -1.4293 -2.3016
  752MOL0     H 3716   6.243  10.231   7.628 -1.4426 -1.2730 -0.0614
  752MOL0     H 3717   6.157   9.991   7.582  1.5149 -2.3395 -2.0991
  752MOL0     H 3718   6.245  10.024   7.728 -3.0906 -2.3817  0.0563
  752MOL0     H 3719   6.371   9.926   7.461  2.2753 -2.7779 -0.2977
  752MOL0     H 3720   6.454   9.941   7.612  1.9155  1.4512 -3.4709
  752MOL0     H 3721   6.317   9.761   7.714  1.5866 -1.0370 -0.9936
  752MOL0     H 3722   6.389   9.710   7.563 -0.4470  0.2108 -2.8188
  752MOL0     H 3723   6.092   9.786   7.595 -0.6031 -1.4904  0.0909
  752MOL0     H 3724   6.174   9.742   7.449  0.3486 -0.8513  0.1451
  752MOL0     H 3725   6.245   9.547   7.778  2.0852 -2.4480 -1.0257
  752MOL0     H 3726   6.200   9.334   7.884 -1.9189 -0.6651  0.7283
  752MOL0     H 3727   6.245   9.212   7.758  0.5585  0.2731 -1.4915
  752MOL0     H 3728   5.961   9.270   7.867  1.6204  1.1217  1.3518
  752MOL0     H 3729   5.990   9.151   7.737 -1.4907 -1.1819  0.2692
  752MOL0     H 3730   6.120   9.024   7.849 -1.9901  1.5542 -4.3041
  752MOL0     H 3731   6.121   9.138   7.992 -0.1781 -2.2529  0.3996
  752MOL0     H 3732   5.985   8.923   8.013  1.3495  1.5162  2.3080
  752MOL0     H 3733   5.927   9.074   8.073 -2.2669 -2.3422  0.4215
  752MOL0     H 3734   5.993   8.818   7.817 -0.8656  1.9976  0.2574
  752MOL0     H 3735   6.055   8.628   7.748 -0.6645  1.9052 -0.8345
  752MOL0     H 3736   6.055   8.658   7.576 -2.9205  0.0590 -2.9245
  752MOL0     H 3737   5.957   8.517   7.646  3.1427 -1.6512 -2.0900
  752MOL0     H 3738   5.673   8.704   7.191  0.9985 -0.2632  0.0240
  752MOL0     H 3739   5.600   8.561   6.996 -1.4381  1.8822 -0.7617
  752MOL0     H 3740   5.372   8.486   6.856 -1.7963 -0.5369  1.3782
  752MOL0     H 3741   5.526   8.398   6.845 -0.3630  2.2494 -0.3127
  752MOL0     H 3742   5.348   8.314   6.695 -0.1250 -1.0742  0.4995
  752MOL0     H 3743   5.428   8.195   6.801 -0.4068 -0.9513 -0.3822
  752MOL0     H 3744   5.152   8.326   6.859  0.8098  0.6279 -0.0325
  752MOL0     H 3745   5.215   8.181   6.924 -2.1240 -1.2459 -1.3228
  752MOL0     H 3746   5.211   8.064   6.684  0.1538  0.0471 -2.5174
  752MOL0     H 3747   5.149   8.212   6.631  0.6262 -2.4115 -1.0393
  752MOL0     H 3748   5.010   8.051   6.859 -3.6105  2.7405  1.2266
  752MOL0     H 3749   4.947   8.192   6.795  1.0110  2.0917  0.6702
  752MOL0     H 3750   4.943   8.086   6.562  1.0959 -0.6471 -0.4689
  752MOL0     H 3751   4.836   8.011   6.683 -0.9358  2.0252  0.0577
  752MOL0     H 3752   5.042   7.839   6.715  1.7331  1.1414 -0.1100
  752MOL0     H 3753   5.106   7.914   6.565 -0.7270  0.3783 -2.0782
  752MOL0     H 3754   5.001   7.752   6.471  0.3393 -1.6825  0.1016
  752MOL0     H 3755   4.873   7.874   6.452  0.7684  1.0661  0.3190
  752MOL0     H 3756   5.368   8.312   7.250  3.5198 -2.1877 -0.3362
  752MOL0     H 3757   5.446   8.452   7.454 -0.4287  0.5705  0.5769
  752MOL0     H 3758   5.563   8.834   7.593  0.1705  1.3114  0.3318
  752MOL0     H 3759   5.602   8.990   7.755  0.3988 -0.1810  2.8787
  752MOL0     H 3760   6.080  10.543   7.184 -1.1944  1.7210  0.7309
  752MOL0     H 3761   5.858  10.662   7.177  0.1208  0.7559  0.6983
  752MOL0     H 3762   5.261  10.451   7.028 -0.2274 -1.6158  0.9767
  752MOL0     H 3763   5.050  10.533   7.069  2.1780  0.6408 -2.7729
  752MOL0     H 3764   5.008  10.736   7.480 -0.0425 -1.6986 -1.2696
  752MOL0     H 3765   4.974  10.882   7.388 -0.3822 -0.7082 -0.4433
  752MOL0     H 3766   4.777  10.794   7.534 -0.8571 -1.3440 -0.0836
  752MOL0     H 3767   4.765  10.654   7.427  1.1746 -0.0287 -2.8950
  752MOL0     H 3768   4.605  10.853   7.376  0.5435  1.2016  2.7477
  752MOL0     H 3769   4.743  10.952   7.352 -0.8971  0.5484 -2.6018
  752MOL0     H 3770   4.810  10.813   7.152  1.2629 -0.9286  1.1202
  752MOL0     H 3771   4.646  10.869   7.137  1.2705  1.7836  0.0657
  752MOL0     H 3772   4.600  10.444   7.177 -4.2504  1.4403 -0.5168
  752MOL0     H 3773   5.203  10.801   7.363 -0.3726 -2.1257  2.0825
  752MOL0     H 3774   5.523  10.683   7.394 -0.7422 -0.0241  0.7234
  752MOL0     H 3775   5.533  10.805   7.270  3.2594 -0.6082  2.9554
  752MOL0     H 3776   5.418  10.830   7.395 -0.5447 -1.5323  1.1073
  753MOL0     O 3777   3.379  10.128   4.998 -0.1568  0.0682 -0.8073
  753MOL0     C 3778   3.274  10.140   5.059  0.4433  1.0757  0.1239
  753MOL0     O 3779   3.245  10.242   5.146 -0.5075  0.2682 -0.7508
  753MOL0     C 3780   3.328  10.351   5.138 -0.2515  0.3973  0.2650
  753MOL0     C 3781   3.340  10.435   5.029  0.3536  0.1614  0.3253
  753MOL0     C 3782   3.429  10.534   5.016 -0.9345 -0.3944  0.1874
  753MOL0     C 3783   3.514  10.568   5.127  0.5195  0.3947  0.5445
  753MOL0     O 3784   3.601  10.677   5.118 -0.2104  0.3443  0.5020
  753MOL0     C 3785   3.719  10.673   5.202 -0.6584 -0.0046 -0.2756
  753MOL0     C 3786   3.840  10.751   5.147 -0.4142  0.2621 -0.2462
  753MOL0     C 3787   3.865  10.712   4.999 -0.8354  1.2865 -0.6031
  753MOL0     C 3788   4.003  10.660   4.950 -0.0629 -0.3001 -0.3827
  753MOL0     C 3789   3.989  10.566   4.833  0.8800  0.1063 -0.5259
  753MOL0     C 3790   4.126  10.530   4.793 -0.1607  1.0221  0.6190
  753MOL0     C 3791   4.129  10.420   4.680 -0.6140 -0.1575 -1.0338
  753MOL0     C 3792   4.104  10.281   4.734 -0.9616  0.3016  0.0942
  753MOL0     N 3793   4.172  10.251   4.859 -0.2481 -0.0996 -0.4192
  753MOL0     C 3794   4.124  10.278   4.987 -0.3598  0.1268  0.0836
  753MOL0     C 3795   4.226  10.236   5.067  0.1565 -0.5189 -0.2418
  753MOL0     C 3796   4.218  10.239   5.219  0.0835 -0.6386 -0.3742
  753MOL0     C 3797   4.347  10.283   5.284  0.1903  0.0221 -0.8211
  753MOL0     C 3798   4.427  10.413   5.229  0.6786  1.2315 -0.0561
  753MOL0     C 3799   4.570  10.420   5.284 -0.3600 -1.0784 -0.9269
  753MOL0     O 3800   4.569  10.458   5.428 -0.2772 -0.0593  0.0253
  753MOL0     C 3801   4.686  10.473   5.494  0.3072  0.3988 -0.1225
  753MOL0     C 3802   4.676  10.507   5.628 -0.6930  0.2917 -0.6791
  753MOL0     C 3803   4.787  10.530   5.714  0.1606 -0.0880  0.0983
  753MOL0     C 3804   4.751  10.579   5.856  0.0295 -0.3715  0.8012
  753MOL0     C 3805   4.917  10.517   5.663 -0.0398 -0.0978  0.4046
  753MOL0     C 3806   5.049  10.537   5.731  0.3308  0.4961  0.1145
  753MOL0     O 3807   5.051  10.489   5.860 -0.8032 -0.2473 -0.8761
  753MOL0     C 3808   5.161  10.509   5.946 -0.4712  0.1902  0.3799
  753MOL0     C 3809   5.143  10.540   6.081 -0.8336  0.3359  0.0370
  753MOL0     C 3810   5.261  10.557   6.163  0.5228 -0.0415  0.2157
  753MOL0     C 3811   5.391  10.542   6.123 -0.0294  0.6106  0.6053
  753MOL0     O 3812   5.505  10.565   6.198  0.0126 -0.6906  0.1515
  753MOL0     C 3813   5.504  10.504   6.329  0.5404 -0.4181 -0.6372
  753MOL0     C 3814   5.650  10.508   6.380  0.1921  0.6606 -0.7413
  753MOL0     C 3815   5.761  10.452   6.284 -0.2835 -0.7014  0.0122
  753MOL0     C 3816   5.908  10.510   6.301  1.0925  0.6137 -0.0088
  753MOL0     C 3817   6.005  10.448   6.198 -0.7627 -1.2316 -0.2648
  753MOL0     C 3818   6.146  10.460   6.248  0.9310  0.0485 -0.4608
  753MOL0     C 3819   6.196  10.611   6.253 -0.5997  0.3049 -0.6171
  753MOL0     C 3820   6.347  10.625   6.280 -0.4427  0.4387  0.2072
  753MOL0    Cl 3821   6.447  10.587   6.141  0.1779 -0.1267 -0.2899
  753MOL0     C 3822   5.408  10.519   5.985  0.1636 -0.0662  0.1986
  753MOL0     C 3823   5.297  10.500   5.904 -0.6148 -0.4807 -0.5254
  753MOL0     O 3824   5.151  10.583   5.678  0.2928 -0.3273 -0.4112
  753MOL0     C 3825   4.926  10.467   5.532  0.7467  0.2673  0.1380
  753MOL0     C 3826   4.815  10.446   5.446 -0.5591  0.3714  0.2523
  753MOL0     N 3827   4.318  10.167   4.985  1.0637 -0.5193 -0.1798
  753MOL0     N 3828   4.291  10.187   4.867 -1.0849  0.1398  0.4921
  753MOL0     C 3829   3.501  10.489   5.242  0.1154 -0.8561  0.2445
  753MOL0     C 3830   3.414  10.378   5.247 -0.1765 -0.8920  0.1492
  753MOL0     C 3831   3.173  10.043   5.032 -0.3343 -0.0020 -0.3590
  753MOL0     C 3832   3.038  10.073   5.025 -0.5563  0.3904 -0.2927
  753MOL0     C 3833   2.941   9.989   4.979  0.2034  0.3783  1.0019
  753MOL0     C 3834   2.969   9.853   4.948  0.4587 -0.5864 -0.0788
  753MOL0     O 3835   2.876   9.766   4.901  0.8431 -0.4546  0.4524
  753MOL0     C 3836   2.845   9.653   4.978 -0.2555  0.5837  0.1539
  753MOL0     C 3837   2.756   9.551   4.903  0.5110 -0.6514 -0.5623
  753MOL0     C 3838   2.608   9.577   4.939  1.0667  0.2063  0.2911
  753MOL0     C 3839   2.546   9.710   4.884  0.2960  0.3774  0.7616
  753MOL0     C 3840   2.400   9.697   4.880  0.6872  0.8621 -0.4843
  753MOL0     C 3841   2.275   9.685   4.884  0.1098 -0.7322  1.2450
  753MOL0     C 3842   3.100   9.818   4.953  0.8170 -0.1295  0.4579
  753MOL0     C 3843   3.205   9.908   4.987  0.5207  0.3792 -0.0603
  753MOL0     C 3844   3.342   9.846   5.013 -0.3660  0.0957 -0.0644
  753MOL0     H 3845   3.274  10.411   4.946 -0.5046  3.8111 -0.2360
  753MOL0     H 3846   3.448  10.589   4.924  0.8259  0.7118  1.1506
  753MOL0     H 3847   3.759  10.571   5.204 -0.5270  0.0011  3.2639
  753MOL0     H 3848   3.683  10.723   5.293 -0.2959  1.1829 -0.7672
  753MOL0     H 3849   3.814  10.857   5.156  0.4943  0.7035 -2.1702
  753MOL0     H 3850   3.924  10.731   5.214  0.1208  0.3507 -0.8859
  753MOL0     H 3851   3.791  10.639   4.965  0.4043 -1.3205  1.8768
  753MOL0     H 3852   3.847  10.809   4.953  0.8668  3.5333  3.0198
  753MOL0     H 3853   4.063  10.739   4.904 -1.4151  0.0804 -1.5706
  753MOL0     H 3854   4.065  10.617   5.030  0.1544 -0.6844 -0.7586
  753MOL0     H 3855   3.941  10.601   4.741  1.0255 -0.2191 -0.7273
  753MOL0     H 3856   3.944  10.480   4.884 -1.7899  2.1387  0.8310
  753MOL0     H 3857   4.185  10.613   4.752  0.5193  0.3482  0.2027
  753MOL0     H 3858   4.181  10.483   4.875 -2.9308 -1.9043  0.9931
  753MOL0     H 3859   4.233  10.408   4.651 -0.5327 -3.1642  0.1569
  753MOL0     H 3860   4.071  10.442   4.590  3.4859 -2.8687 -4.7207
  753MOL0     H 3861   3.997  10.280   4.754 -1.0509 -0.5003 -0.3709
  753MOL0     H 3862   4.118  10.214   4.649 -0.2722  1.5954 -0.8408
  753MOL0     H 3863   4.027  10.316   5.016  0.2956  0.0211  2.6004
  753MOL0     H 3864   4.195  10.139   5.255 -1.3638 -0.4260 -0.6466
  753MOL0     H 3865   4.135  10.299   5.258  1.9470 -0.2722  3.6024
  753MOL0     H 3866   4.329  10.279   5.392  1.5305 -2.4639 -0.6168
  753MOL0     H 3867   4.412  10.196   5.274 -0.9528 -1.0008  0.2708
  753MOL0     H 3868   4.416  10.404   5.121 -2.9190  0.4864  0.2588
  753MOL0     H 3869   4.366  10.496   5.264 -0.6546  0.2075  0.1437
  753MOL0     H 3870   4.627  10.326   5.279 -0.3114 -1.1623  0.7517
  753MOL0     H 3871   4.617  10.501   5.227 -2.4914  2.1339  1.5248
  753MOL0     H 3872   4.579  10.527   5.672 -0.5181  0.5306 -0.3965
  753MOL0     H 3873   4.717  10.496   5.918  2.1614 -0.6643  1.6819
  753MOL0     H 3874   4.674  10.657   5.857  0.3854 -0.0127  1.8993
  753MOL0     H 3875   4.837  10.614   5.915  1.4171 -0.8531 -0.8411
  753MOL0     H 3876   5.043  10.558   6.120 -0.8938  0.1160 -0.0144
  753MOL0     H 3877   5.255  10.568   6.271  2.3846 -1.9001  0.5478
  753MOL0     H 3878   5.433  10.539   6.403 -0.5656 -3.2708 -0.2030
  753MOL0     H 3879   5.487  10.395   6.327 -1.0849 -0.1945 -0.7610
  753MOL0     H 3880   5.667  10.609   6.421  0.0931 -0.2091  1.5936
  753MOL0     H 3881   5.653  10.447   6.471 -1.4378  1.1324 -0.3327
  753MOL0     H 3882   5.748  10.466   6.176  2.6075  0.6090 -0.2576
  753MOL0     H 3883   5.765  10.343   6.297 -0.8440 -0.7044  0.1640
  753MOL0     H 3884   5.931  10.489   6.405  1.9137  0.6242 -0.1849
  753MOL0     H 3885   5.911  10.619   6.290  1.7217  0.7226  1.1182
  753MOL0     H 3886   5.984  10.346   6.164  0.3232 -1.0343 -1.6336
  753MOL0     H 3887   5.997  10.517   6.113  0.6943  1.9193  1.9674
  753MOL0     H 3888   6.204  10.409   6.171 -0.8050 -1.2828 -0.9635
  753MOL0     H 3889   6.142  10.419   6.349  0.6383 -3.1763 -1.6814
  753MOL0     H 3890   6.139  10.670   6.325 -0.9215  1.7313 -1.9927
  753MOL0     H 3891   6.192  10.656   6.153 -0.8009 -0.7962 -1.1259
  753MOL0     H 3892   6.374  10.561   6.364 -0.8398 -0.1839 -0.1241
  753MOL0     H 3893   6.379  10.728   6.298  1.3041 -0.1614  0.7482
  753MOL0     H 3894   5.499  10.504   5.927 -1.2214  0.9713 -2.3956
  753MOL0     H 3895   5.318  10.458   5.806  2.3674 -0.1438 -0.1164
  753MOL0     H 3896   5.026  10.439   5.500  0.6088  2.8751 -3.1319
  753MOL0     H 3897   4.831  10.416   5.343 -1.1639  2.0408 -0.3477
  753MOL0     H 3898   3.576  10.502   5.320  0.8496 -0.9454 -0.4458
  753MOL0     H 3899   3.421  10.301   5.323 -0.4391 -2.2785 -1.1735
  753MOL0     H 3900   3.018  10.178   5.044  2.0544  1.0939 -1.0901
  753MOL0     H 3901   2.845  10.032   4.953  1.0224  1.3664 -0.6026
  753MOL0     H 3902   2.936   9.596   5.000 -0.7060 -1.1509 -2.0706
  753MOL0     H 3903   2.811   9.673   5.080 -1.5079 -1.8353  0.3066
  753MOL0     H 3904   2.782   9.452   4.941 -0.2826  0.0864  2.1542
  753MOL0     H 3905   2.764   9.549   4.794 -1.5421  2.7778 -0.9354
  753MOL0     H 3906   2.557   9.491   4.894  0.9061 -1.3030  3.1589
  753MOL0     H 3907   2.589   9.571   5.046  1.5932  3.4281  0.6449
  753MOL0     H 3908   2.594   9.748   4.794 -1.1673  1.3995  0.3758
  753MOL0     H 3909   2.556   9.782   4.966 -1.5267 -0.9279  2.2169
  753MOL0     H 3910   2.168   9.675   4.882  0.0132  0.3288 -0.6077
  753MOL0     H 3911   3.115   9.716   4.919 -1.1699 -0.1385 -0.5635
  753MOL0     H 3912   3.414   9.855   4.932 -1.5178 -0.5949 -1.1921
  753MOL0     H 3913   3.392   9.890   5.100 -0.1718 -0.5920  0.1820
  753MOL0     H 3914   3.341   9.738   5.035 -1.0483 -0.1841 -1.4184
  754MOL0     O 3915   9.746   5.557   9.387  0.2954 -0.1173 -0.7066
  754MOL0     C 3916   9.695   5.539   9.497  0.1029 -0.2205  1.1153
  754MOL0     O 3917   9.755   5.568   9.614  0.3935  0.4618  0.2876
  754MOL0     C 3918   9.893   5.554   9.620  1.7703  0.4694  0.6379
  754MOL0     C 3919   9.959   5.623   9.718  0.5512  0.4339  0.4556
  754MOL0     C 3920  10.093   5.602   9.747  0.8151 -0.3017  0.0129
  754MOL0     C 3921  10.167   5.516   9.665  0.3663 -0.2380  0.4978
  754MOL0     O 3922  10.298   5.502   9.680 -0.6435  0.3236  0.2420
  754MOL0     C 3923  10.342   5.479   9.813 -0.3282  1.0904 -0.1054
  754MOL0     C 3924  10.488   5.430   9.821  0.5633 -0.4786  0.1252
  754MOL0     C 3925  10.518   5.316   9.724 -0.0796 -0.1101 -1.1552
  754MOL0     C 3926  10.670   5.316   9.685 -0.0426 -0.4929 -0.1680
  754MOL0     C 3927  10.761   5.254   9.790  0.2533 -0.1965 -0.0853
  754MOL0     C 3928  10.903   5.289   9.754  0.7716  0.1956  0.1668
  754MOL0     C 3929  11.003   5.216   9.845 -0.4134  0.6949 -0.0905
  754MOL0     C 3930  11.157   5.238   9.792  0.9975  1.2020 -0.7144
  754MOL0     N 3931  11.194   5.381   9.788  0.3037 -0.0693  0.6041
  754MOL0     C 3932  11.211   5.464   9.896  0.1527 -0.5739 -0.4023
  754MOL0     C 3933  11.252   5.577   9.833 -0.2047 -0.0784  0.4771
  754MOL0     C 3934  11.299   5.687   9.917 -0.2302  0.5628 -0.0176
  754MOL0     C 3935  11.446   5.649   9.950 -0.5224 -0.3621  0.2905
  754MOL0     C 3936  11.502   5.741  10.057 -0.3480  0.1930  0.3519
  754MOL0     C 3937  11.648   5.704  10.081  0.2058 -0.4968 -0.0474
  754MOL0     O 3938  11.702   5.770  10.200  0.0084 -0.1287 -0.0872
  754MOL0     C 3939  11.833   5.753  10.232  0.5606 -0.3711  0.2654
  754MOL0     C 3940  11.874   5.778  10.364 -0.2897  0.1639  0.6623
  754MOL0     C 3941  12.001   5.757  10.409 -0.5516  0.8099 -1.1219
  754MOL0     C 3942  12.037   5.785  10.556  0.5124 -0.5514 -0.1816
  754MOL0     C 3943  12.098   5.717  10.321  0.8500 -0.2023 -0.4403
  754MOL0     C 3944  12.239   5.691  10.353 -0.3450 -0.2665 -0.3190
  754MOL0     O 3945  12.329   5.776  10.295  0.1547  0.4717 -0.3768
  754MOL0     C 3946  12.460   5.756  10.291 -0.2856  0.4625  0.7670
  754MOL0     C 3947  12.524   5.624  10.286 -0.2002 -1.1140 -0.3072
  754MOL0     C 3948  12.662   5.610  10.278  0.2859 -0.6896 -0.4532
  754MOL0     C 3949  12.748   5.732  10.270 -0.0879 -0.0292  0.8046
  754MOL0     O 3950  12.881   5.728  10.258  0.5095  0.0286  0.1860
  754MOL0     C 3951  12.940   5.632  10.164  0.3053 -0.3162  0.4422
  754MOL0     C 3952  13.084   5.610  10.210  0.2056  0.8437  0.7535
  754MOL0     C 3953  13.152   5.531  10.106 -0.0808  0.8180 -0.5214
  754MOL0     C 3954  13.091   5.396  10.064 -0.8917 -0.7416 -0.2155
  754MOL0     C 3955  13.154   5.327   9.950 -0.5355 -0.5597 -0.5322
  754MOL0     C 3956  13.104   5.188   9.936  0.1935  0.5816 -0.1135
  754MOL0     C 3957  13.164   5.124   9.811 -0.4991 -0.0722  0.1304
  754MOL0     C 3958  13.116   4.989   9.783  0.0603 -0.4041  0.7344
  754MOL0    Cl 3959  12.942   4.975   9.785 -0.1923 -0.3282  0.2229
  754MOL0     C 3960  12.680   5.858  10.270  0.2293  0.0124  0.4299
  754MOL0     C 3961  12.538   5.870  10.277  0.4515  0.1809  0.3614
  754MOL0     O 3962  12.270   5.603  10.427  0.0714 -0.4182  0.6446
  754MOL0     C 3963  12.064   5.692  10.191 -0.2542  0.0358 -0.4389
  754MOL0     C 3964  11.933   5.703  10.145 -0.7320  0.1901 -0.2027
  754MOL0     N 3965  11.263   5.563   9.695  0.2735 -0.2536  0.4205
  754MOL0     N 3966  11.221   5.447   9.665  0.5351 -0.5158 -0.1693
  754MOL0     C 3967  10.112   5.453   9.562 -0.7889  0.0959 -0.2328
  754MOL0     C 3968   9.971   5.469   9.532 -0.2251  0.8165  0.4854
  754MOL0     C 3969   9.552   5.504   9.493 -0.2221 -0.6420  0.6174
  754MOL0     C 3970   9.513   5.394   9.409 -0.8733  0.4554 -0.3587
  754MOL0     C 3971   9.382   5.353   9.403  0.0104  0.5111  0.5317
  754MOL0     C 3972   9.285   5.429   9.473  0.0235 -0.1400 -0.5741
  754MOL0     O 3973   9.154   5.393   9.453  0.2066 -0.2051 -0.3896
  754MOL0     C 3974   9.120   5.262   9.414  0.1994 -1.0576 -0.2757
  754MOL0     C 3975   8.983   5.247   9.421  0.9201 -0.8778  0.0434
  754MOL0     C 3976   8.932   5.210   9.567 -0.3592 -0.6629  0.7007
  754MOL0     C 3977   8.924   5.339   9.657  0.4871 -0.1058  0.1246
  754MOL0     C 3978   8.846   5.458   9.611 -0.5128 -0.0588  0.1682
  754MOL0     C 3979   8.793   5.565   9.581 -0.3954  0.0322 -0.2523
  754MOL0     C 3980   9.324   5.537   9.548 -0.5168 -0.5367  0.7796
  754MOL0     C 3981   9.456   5.578   9.565  0.4610  0.5265  1.2308
  754MOL0     C 3982   9.478   5.694   9.646  0.4002  0.0525 -0.0654
  754MOL0     H 3983   9.901   5.698   9.771 -0.0911  0.4884 -0.2977
  754MOL0     H 3984  10.147   5.665   9.818 -1.1371 -0.6014  1.8573
  754MOL0     H 3985  10.272   5.415   9.868  0.9700 -1.1459 -0.9357
  754MOL0     H 3986  10.336   5.576   9.865 -3.7154  0.8122  0.2756
  754MOL0     H 3987  10.530   5.529   9.800 -3.0459  1.6449  1.8575
  754MOL0     H 3988  10.498   5.402   9.927 -0.2572 -2.8579 -0.3698
  754MOL0     H 3989  10.480   5.224   9.769 -1.6106  0.9596 -0.2135
  754MOL0     H 3990  10.461   5.322   9.631 -3.0090 -2.5668  0.3209
  754MOL0     H 3991  10.679   5.280   9.582  0.7827 -3.9287  0.9805
  754MOL0     H 3992  10.695   5.423   9.685  0.1459 -0.4168  3.2191
  754MOL0     H 3993  10.751   5.145   9.796  0.7602 -0.2802 -0.7246
  754MOL0     H 3994  10.731   5.304   9.883 -0.0716  2.2574 -1.4404
  754MOL0     H 3995  10.929   5.254   9.654  2.1997  0.7311  0.3357
  754MOL0     H 3996  10.925   5.396   9.758  0.8123  0.1770  0.4180
  754MOL0     H 3997  10.980   5.110   9.833  0.6417  0.1741  2.1287
  754MOL0     H 3998  11.002   5.248   9.949 -0.6638 -0.6152  0.3205
  754MOL0     H 3999  11.232   5.184   9.850 -1.1801 -0.2850  0.9343
  754MOL0     H 4000  11.156   5.187   9.696 -3.1889  0.1449 -0.3199
  754MOL0     H 4001  11.189   5.450  10.002 -2.4537 -0.1027 -0.8214
  754MOL0     H 4002  11.234   5.688  10.005  0.6755  0.7405  0.6637
  754MOL0     H 4003  11.293   5.788   9.877  1.2217  0.8313  0.3778
  754MOL0     H 4004  11.447   5.549   9.994  0.2799  0.0808  1.3174
  754MOL0     H 4005  11.510   5.656   9.862 -0.0085  1.6962  0.7733
  754MOL0     H 4006  11.490   5.842  10.015  0.4335 -0.2117 -0.9195
  754MOL0     H 4007  11.442   5.739  10.148 -0.2233 -0.6301  0.4157
  754MOL0     H 4008  11.665   5.597  10.095  1.9139 -0.4362 -1.2893
  754MOL0     H 4009  11.694   5.732   9.985 -0.1716  3.7121  0.7969
  754MOL0     H 4010  11.808   5.803  10.447 -1.8563  0.5601 -0.6598
  754MOL0     H 4011  12.141   5.815  10.571  1.9128 -2.3388 -4.6186
  754MOL0     H 4012  12.011   5.697  10.615 -1.3081  0.5875  0.7830
  754MOL0     H 4013  11.966   5.857  10.598  2.2268 -0.3771  2.7137
  754MOL0     H 4014  12.465   5.533  10.280 -1.9208 -0.2002  1.4958
  754MOL0     H 4015  12.707   5.511  10.273 -1.0667 -1.5421  2.2051
  754MOL0     H 4016  12.883   5.539  10.170  1.0851 -0.7551  1.2102
  754MOL0     H 4017  12.938   5.660  10.059 -0.6156 -1.2857  0.1811
  754MOL0     H 4018  13.138   5.704  10.225 -0.5849  1.0681  2.3215
  754MOL0     H 4019  13.094   5.552  10.302 -1.0317 -0.7193 -0.0363
  754MOL0     H 4020  13.253   5.510  10.144 -0.6972  1.3917  1.5864
  754MOL0     H 4021  13.152   5.601  10.022  0.5436 -0.3965 -1.5732
  754MOL0     H 4022  12.985   5.402  10.037 -0.3741  0.5453 -2.2086
  754MOL0     H 4023  13.097   5.343  10.159  0.7895  2.9393  1.9832
  754MOL0     H 4024  13.142   5.383   9.856 -1.4771 -1.7756 -1.1799
  754MOL0     H 4025  13.259   5.313   9.976 -0.4250 -0.0357 -0.6759
  754MOL0     H 4026  12.996   5.184   9.919  0.4939 -1.1699 -2.0631
  754MOL0     H 4027  13.122   5.126  10.024 -0.1275  0.4610 -0.1304
  754MOL0     H 4028  13.273   5.136   9.818 -0.5938  0.9858 -0.1076
  754MOL0     H 4029  13.148   5.182   9.720 -0.4099 -0.3478 -0.0660
  754MOL0     H 4030  13.160   4.918   9.855 -0.8697 -0.9700  0.7659
  754MOL0     H 4031  13.143   4.959   9.682 -0.2024  1.0515  0.2090
  754MOL0     H 4032  12.746   5.943  10.254  1.1536 -0.9571 -1.1008
  754MOL0     H 4033  12.487   5.965  10.295  1.0794  0.1149  2.9530
  754MOL0     H 4034  12.141   5.669  10.118  0.4191  0.6854  0.0430
  754MOL0     H 4035  11.914   5.685  10.040 -2.6667 -1.0597  0.3241
  754MOL0     H 4036  10.183   5.412   9.492  0.1479  2.5555 -0.8260
  754MOL0     H 4037   9.923   5.424   9.446 -0.8126  1.8213  0.2702
  754MOL0     H 4038   9.580   5.330   9.353 -1.0368  2.0002 -2.4417
  754MOL0     H 4039   9.367   5.269   9.337  2.4447  0.7778 -0.4499
  754MOL0     H 4040   9.132   5.258   9.305 -0.5218 -1.9746 -0.3360
  754MOL0     H 4041   9.172   5.185   9.472 -0.2502 -1.5513 -0.5250
  754MOL0     H 4042   8.947   5.174   9.349  2.7522 -3.3066  1.4565
  754MOL0     H 4043   8.933   5.337   9.383 -0.9824 -2.2956 -0.9310
  754MOL0     H 4044   8.834   5.161   9.563  0.7148 -2.9588  0.6918
  754MOL0     H 4045   8.990   5.141   9.629  0.1497  1.2503  2.4582
  754MOL0     H 4046   9.024   5.382   9.671 -0.2469  1.8347 -0.1735
  754MOL0     H 4047   8.875   5.302   9.747 -2.0207 -1.1064 -1.5548
  754MOL0     H 4048   8.745   5.660   9.578 -1.8510 -0.5939  1.4368
  754MOL0     H 4049   9.243   5.597   9.588  0.6671  0.7071  1.3770
  754MOL0     H 4050   9.550   5.765   9.605  2.3352 -1.8704 -0.2220
  754MOL0     H 4051   9.381   5.737   9.672  2.0794  1.7989  4.3661
  754MOL0     H 4052   9.515   5.660   9.744  2.2500  1.3414 -0.2795
  755MOL0     O 4053   7.284   8.830   8.228 -0.1730  0.6947  0.4854
  755MOL0     C 4054   7.194   8.826   8.137 -0.1107  0.2611 -0.4336
  755MOL0     O 4055   7.194   8.894   8.016 -0.1617  0.2474 -0.7110
  755MOL0     C 4056   7.311   8.970   7.994  1.3670  0.5900  0.7468
  755MOL0     C 4057   7.300   9.104   7.975 -0.3759 -0.1852 -0.2019
  755MOL0     C 4058   7.413   9.178   7.933  0.3551 -0.2878 -1.1701
  755MOL0     C 4059   7.534   9.111   7.923 -0.9776  0.4912  0.3152
  755MOL0     O 4060   7.637   9.189   7.880 -0.1305 -0.3199  0.4806
  755MOL0     C 4061   7.775   9.154   7.894 -0.1462  0.1636 -0.1341
  755MOL0     C 4062   7.832   9.169   8.044  0.1942 -1.0553  0.0401
  755MOL0     C 4063   7.811   9.310   8.110 -0.0047 -1.1868 -0.1174
  755MOL0     C 4064   7.919   9.421   8.077  0.1293  0.6097 -0.5231
  755MOL0     C 4065   7.880   9.564   8.124  0.4092 -0.0853 -0.0508
  755MOL0     C 4066   7.898   9.582   8.272  0.3020  0.4951 -0.2701
  755MOL0     C 4067   7.868   9.720   8.329  0.1764  0.0251 -0.3661
  755MOL0     C 4068   7.719   9.756   8.357 -0.1993 -0.5455 -0.4447
  755MOL0     N 4069   7.653   9.682   8.467 -0.5021  0.4364  0.6250
  755MOL0     C 4070   7.719   9.630   8.577 -0.7638 -1.0610 -0.6247
  755MOL0     C 4071   7.627   9.565   8.648 -0.3767  0.0073 -0.2864
  755MOL0     C 4072   7.656   9.503   8.780 -0.6776 -0.0385 -0.2252
  755MOL0     C 4073   7.694   9.354   8.764  0.1529  0.4336 -0.2545
  755MOL0     C 4074   7.718   9.294   8.897 -0.4699 -0.2979 -0.1882
  755MOL0     C 4075   7.646   9.159   8.925  0.2282  0.4738  1.1045
  755MOL0     O 4076   7.747   9.050   8.917 -0.0912 -0.4369  0.7673
  755MOL0     C 4077   7.852   9.055   9.008 -0.2098  0.2497 -0.0608
  755MOL0     C 4078   7.982   9.022   8.959 -0.2701 -0.3591 -0.3914
  755MOL0     C 4079   8.087   9.010   9.049  0.0915  0.3867  0.6052
  755MOL0     C 4080   8.212   8.936   8.993  0.4193  0.0248 -0.0166
  755MOL0     C 4081   8.067   9.031   9.186  0.8526 -0.5910 -0.0150
  755MOL0     C 4082   8.174   9.014   9.288 -1.0438  0.1647 -0.0661
  755MOL0     O 4083   8.304   9.055   9.259 -0.6938  0.3447  0.4802
  755MOL0     C 4084   8.386   9.067   9.367  0.3394 -0.0002 -0.4353
  755MOL0     C 4085   8.429   9.187   9.412  0.1767  0.0059 -0.1527
  755MOL0     C 4086   8.534   9.194   9.511 -0.2478 -0.2676  0.0573
  755MOL0     C 4087   8.587   9.073   9.566  0.1204  0.4167  0.6706
  755MOL0     O 4088   8.678   9.067   9.666  0.3593  0.5288 -0.6887
  755MOL0     C 4089   8.765   9.177   9.681 -0.3077 -0.0205  1.4440
  755MOL0     C 4090   8.867   9.198   9.567 -0.0493  0.6844 -0.2361
  755MOL0     C 4091   8.931   9.334   9.574 -0.3416 -0.3434  0.5145
  755MOL0     C 4092   9.055   9.338   9.483  0.2197  0.0633  0.2817
  755MOL0     C 4093   9.093   9.486   9.460 -0.1936  0.4153  0.8822
  755MOL0     C 4094   9.242   9.509   9.435 -1.1160 -0.4577  0.0311
  755MOL0     C 4095   9.278   9.669   9.441  0.7443  0.9445  0.1211
  755MOL0     C 4096   9.434   9.686   9.436 -0.0663  0.3534  0.3394
  755MOL0    Cl 4097   9.497   9.847   9.409  0.5767 -0.2244  0.6767
  755MOL0     C 4098   8.530   8.954   9.521  0.7395 -0.1039 -0.2033
  755MOL0     C 4099   8.435   8.950   9.417 -0.0675  0.7083 -0.3827
  755MOL0     O 4100   8.139   8.978   9.403  0.5831  0.7840  0.0202
  755MOL0     C 4101   7.943   9.079   9.235  0.5763  0.1207  0.8813
  755MOL0     C 4102   7.836   9.097   9.138 -0.0414 -1.4320  0.6130
  755MOL0     N 4103   7.510   9.575   8.590  0.5007  1.1817  0.9312
  755MOL0     N 4104   7.523   9.641   8.480 -0.8213  0.3350  0.3643
  755MOL0     C 4105   7.547   8.976   7.961 -0.5388  0.7726  0.1908
  755MOL0     C 4106   7.434   8.904   7.982  0.5490 -0.7308 -0.5476
  755MOL0     C 4107   7.080   8.726   8.167 -0.3113  0.4935 -0.0560
  755MOL0     C 4108   6.963   8.746   8.094 -1.1034  0.1963 -0.5335
  755MOL0     C 4109   6.846   8.664   8.101 -0.1666 -0.1042 -0.0792
  755MOL0     C 4110   6.859   8.553   8.194 -0.7362  0.8515 -0.2309
  755MOL0     O 4111   6.757   8.453   8.219  0.7118 -0.3986  0.8371
  755MOL0     C 4112   6.672   8.416   8.116  0.2469  0.4670 -0.7164
  755MOL0     C 4113   6.562   8.320   8.169  0.4329 -0.8576 -0.2897
  755MOL0     C 4114   6.637   8.196   8.222  0.6318 -0.1971  0.1175
  755MOL0     C 4115   6.530   8.087   8.270 -0.2699 -0.5698  0.3807
  755MOL0     C 4116   6.480   8.007   8.168  0.0320 -0.1962  0.0492
  755MOL0     C 4117   6.437   7.939   8.082  0.1544  0.6003  0.1113
  755MOL0     C 4118   6.975   8.535   8.265  0.4403  0.1302 -0.7479
  755MOL0     C 4119   7.092   8.608   8.247  0.2221  0.1779  0.6107
  755MOL0     C 4120   7.219   8.559   8.310  0.2542  0.1616  0.3020
  755MOL0     H 4121   7.201   9.148   7.974 -0.2559  0.1560  1.1998
  755MOL0     H 4122   7.409   9.286   7.918  0.2832  0.1752  1.6291
  755MOL0     H 4123   7.823   9.224   7.824  1.1835  1.3140  1.8319
  755MOL0     H 4124   7.790   9.054   7.854 -4.0492 -0.0808 -1.3733
  755MOL0     H 4125   7.785   9.089   8.101 -2.3380 -0.5223 -1.1386
  755MOL0     H 4126   7.940   9.157   8.043  0.5388  1.3211  1.2507
  755MOL0     H 4127   7.715   9.357   8.085  0.6953 -0.0192 -0.7414
  755MOL0     H 4128   7.810   9.295   8.218 -1.4242  0.7846  0.2082
  755MOL0     H 4129   8.018   9.407   8.121  0.5309  1.7669 -1.0105
  755MOL0     H 4130   7.926   9.417   7.967 -0.7057  0.4177 -0.5799
  755MOL0     H 4131   7.775   9.583   8.101  0.3807 -0.3905 -0.1779
  755MOL0     H 4132   7.938   9.643   8.074 -0.3544  0.2642 -0.4046
  755MOL0     H 4133   7.831   9.517   8.330  1.4874 -2.6398 -2.1633
  755MOL0     H 4134   8.002   9.553   8.286 -0.3602 -1.4342  1.0713
  755MOL0     H 4135   7.899   9.799   8.260  1.0339 -0.6798 -0.7975
  755MOL0     H 4136   7.915   9.739   8.426 -0.1447 -0.7316 -0.0500
  755MOL0     H 4137   7.735   9.860   8.387  1.4649 -0.7302 -0.6199
  755MOL0     H 4138   7.666   9.747   8.261  0.5191 -1.0618 -0.8001
  755MOL0     H 4139   7.817   9.664   8.611 -2.1973  3.6502 -0.4414
  755MOL0     H 4140   7.567   9.514   8.842 -1.2749  1.8552 -1.3342
  755MOL0     H 4141   7.744   9.543   8.832 -0.7514 -1.6888  1.2843
  755MOL0     H 4142   7.610   9.302   8.717  0.8865 -1.2045  0.1802
  755MOL0     H 4143   7.784   9.341   8.703  0.9791  0.4627  0.9122
  755MOL0     H 4144   7.825   9.280   8.917 -0.9370 -3.8019  0.6245
  755MOL0     H 4145   7.687   9.359   8.980 -0.1136  0.8779 -0.9533
  755MOL0     H 4146   7.588   9.155   9.018 -0.8924  2.1374  0.5186
  755MOL0     H 4147   7.568   9.139   8.852  0.6875  2.6294 -0.0548
  755MOL0     H 4148   7.984   9.002   8.853  0.1325  1.3356 -0.7318
  755MOL0     H 4149   8.302   8.998   9.001 -0.9167  2.6526 -3.0660
  755MOL0     H 4150   8.203   8.930   8.884 -1.1127  1.3036  0.0012
  755MOL0     H 4151   8.217   8.836   9.036 -3.6218  1.0752  3.5964
  755MOL0     H 4152   8.383   9.270   9.360 -1.1869 -2.1716 -2.6578
  755MOL0     H 4153   8.576   9.292   9.533  0.0218 -0.5485  0.8460
  755MOL0     H 4154   8.709   9.271   9.693 -0.7648 -0.4615  2.9521
  755MOL0     H 4155   8.809   9.160   9.779 -1.4285 -4.8096  1.3335
  755MOL0     H 4156   8.944   9.123   9.586  1.6733  2.0948 -1.3050
  755MOL0     H 4157   8.830   9.185   9.465 -0.6997  0.8813 -0.0319
  755MOL0     H 4158   8.951   9.363   9.677  1.1708  3.6855 -0.7153
  755MOL0     H 4159   8.853   9.402   9.537 -1.1162 -1.3811  0.1801
  755MOL0     H 4160   9.045   9.292   9.384  0.3998 -0.3292  0.4453
  755MOL0     H 4161   9.138   9.289   9.535  1.1577  1.9280  0.6061
  755MOL0     H 4162   9.031   9.537   9.386  1.7221 -0.6748 -1.6321
  755MOL0     H 4163   9.062   9.541   9.550 -1.5488 -1.1970  1.4518
  755MOL0     H 4164   9.278   9.478   9.336 -0.3152  0.1161  0.1324
  755MOL0     H 4165   9.306   9.454   9.505 -0.8479  1.4140  1.3439
  755MOL0     H 4166   9.230   9.702   9.534 -1.0044 -3.4181  0.9974
  755MOL0     H 4167   9.228   9.718   9.357 -0.5321  1.2678  1.0332
  755MOL0     H 4168   9.458   9.636   9.342  1.1618  1.5067  0.0143
  755MOL0     H 4169   9.470   9.640   9.529  0.0040  0.0614  0.1721
  755MOL0     H 4170   8.565   8.862   9.567 -0.1305  0.3112  1.3545
  755MOL0     H 4171   8.385   8.859   9.384 -1.8559  1.7737 -0.7443
  755MOL0     H 4172   7.929   9.101   9.340 -3.5701 -1.9761  0.9740
  755MOL0     H 4173   7.740   9.136   9.170  0.3300  0.2728 -0.2689
  755MOL0     H 4174   7.639   8.921   7.942  0.1726  1.9429  0.1362
  755MOL0     H 4175   7.446   8.796   7.991 -0.5869 -0.9852 -1.8114
  755MOL0     H 4176   6.961   8.829   8.025 -3.8271  0.9987  0.4065
  755MOL0     H 4177   6.759   8.661   8.036 -0.7637 -0.7995  0.7321
  755MOL0     H 4178   6.631   8.501   8.062 -0.9659  0.6933  0.5027
  755MOL0     H 4179   6.734   8.361   8.044  3.1017  0.1830  1.7412
  755MOL0     H 4180   6.486   8.295   8.095  0.3784  1.4516 -1.1002
  755MOL0     H 4181   6.510   8.380   8.244  2.1405  1.5432 -0.8971
  755MOL0     H 4182   6.692   8.155   8.136 -2.8088 -1.6404 -1.6072
  755MOL0     H 4183   6.700   8.215   8.309 -0.2047  4.0747  0.0141
  755MOL0     H 4184   6.460   8.142   8.333 -0.8596 -0.4169 -0.3925
  755MOL0     H 4185   6.591   8.016   8.327  2.5054 -0.9298 -2.6924
  755MOL0     H 4186   6.405   7.869   8.009  2.0914 -2.6168  2.0702
  755MOL0     H 4187   6.962   8.446   8.325 -1.1644  1.0255  0.3022
  755MOL0     H 4188   7.232   8.602   8.409 -1.8122  0.6210  0.4157
  755MOL0     H 4189   7.230   8.450   8.306 -0.1372  0.0777  1.2895
  755MOL0     H 4190   7.304   8.590   8.248  0.1257  1.9525  0.9947
  756MOL0     O 4191   5.456   7.520   2.544  0.1767 -0.3758  0.1784
  756MOL0     C 4192   5.384   7.421   2.552 -0.5007 -0.5425  0.1097
  756MOL0     O 4193   5.420   7.304   2.624  0.4439 -0.3628  0.5019
  756MOL0     C 4194   5.513   7.324   2.721  0.4908  0.2864 -0.3955
  756MOL0     C 4195   5.575   7.202   2.748 -0.2491  0.0911 -0.1773
  756MOL0     C 4196   5.670   7.192   2.855 -0.3157 -0.1263  0.3569
  756MOL0     C 4197   5.696   7.312   2.939  0.4520  1.1832 -0.4576
  756MOL0     O 4198   5.809   7.304   3.021 -0.4358 -0.3155  0.2130
  756MOL0     C 4199   5.842   7.410   3.114  0.0619 -0.7757  0.4300
  756MOL0     C 4200   5.974   7.375   3.185 -0.5677 -0.3065 -1.1087
  756MOL0     C 4201   6.097   7.328   3.105  0.2139 -0.1042  0.3583
  756MOL0     C 4202   6.214   7.299   3.197  0.7760  0.0731 -0.3861
  756MOL0     C 4203   6.331   7.216   3.127  0.5542 -0.8672 -1.0600
  756MOL0     C 4204   6.460   7.241   3.187 -0.2831 -0.6210 -0.5332
  756MOL0     C 4205   6.582   7.194   3.110 -0.1712 -0.1416 -0.7053
  756MOL0     C 4206   6.709   7.211   3.200 -0.2754  0.3999 -0.0739
  756MOL0     N 4207   6.836   7.198   3.133 -0.0448 -0.7797 -0.3330
  756MOL0     C 4208   6.897   7.081   3.096  0.2970 -0.5949  0.2864
  756MOL0     C 4209   6.978   7.121   2.996  0.1038 -0.5561 -0.3326
  756MOL0     C 4210   7.070   7.030   2.913 -0.0667 -0.3056 -0.6185
  756MOL0     C 4211   7.209   6.985   2.971 -0.3719 -0.4041  0.2344
  756MOL0     C 4212   7.292   6.890   2.881  0.5155 -0.7091  0.5274
  756MOL0     C 4213   7.437   6.896   2.929  0.6081  0.0316  0.0432
  756MOL0     O 4214   7.436   6.886   3.073 -0.0563 -0.7749  0.6230
  756MOL0     C 4215   7.548   6.932   3.141 -0.3808 -1.2834  0.0552
  756MOL0     C 4216   7.679   6.932   3.100 -0.9498  0.5076  0.2145
  756MOL0     C 4217   7.785   6.978   3.171  1.1788 -0.0317 -0.1720
  756MOL0     C 4218   7.926   6.989   3.123 -0.6265  1.3786  0.6555
  756MOL0     C 4219   7.754   7.035   3.296 -0.2412 -0.2735 -0.4496
  756MOL0     C 4220   7.860   7.089   3.386  1.2045 -0.3212 -0.3662
  756MOL0     O 4221   7.830   7.205   3.429 -0.8746 -0.3290 -0.4951
  756MOL0     C 4222   7.929   7.272   3.503  0.9556 -0.0253  1.3915
  756MOL0     C 4223   8.036   7.340   3.448  0.1250  0.7487  0.5721
  756MOL0     C 4224   8.132   7.410   3.527  0.0716 -0.0551  0.2742
  756MOL0     C 4225   8.129   7.399   3.662 -0.4531  0.2488 -0.4148
  756MOL0     O 4226   8.231   7.461   3.729 -0.6001  0.2744 -0.0736
  756MOL0     C 4227   8.242   7.440   3.874 -0.3963  0.5497  0.0150
  756MOL0     C 4228   8.373   7.500   3.919  0.0929  0.0784 -0.5234
  756MOL0     C 4229   8.391   7.656   3.896 -0.0098  0.7439  0.2809
  756MOL0     C 4230   8.529   7.705   3.948  0.0726  0.1528 -0.3773
  756MOL0     C 4231   8.544   7.847   3.904  0.1156  0.2294 -0.7277
  756MOL0     C 4232   8.598   7.933   4.028 -0.5067  0.6670 -0.4533
  756MOL0     C 4233   8.723   7.873   4.077  0.3341  1.0271  0.6029
  756MOL0     C 4234   8.791   7.964   4.186  0.2909 -0.6335  0.2684
  756MOL0    Cl 4235   8.876   8.086   4.088  0.3800  0.2399 -0.5705
  756MOL0     C 4236   8.032   7.322   3.715  0.6130 -0.0420  0.5572
  756MOL0     C 4237   7.923   7.264   3.639  0.2138  0.0877 -0.1681
  756MOL0     O 4238   7.962   7.023   3.391  0.1288  0.1931  0.3240
  756MOL0     C 4239   7.617   7.034   3.343  0.4431 -0.9195  0.6195
  756MOL0     C 4240   7.517   6.982   3.265  0.2710  0.7431  0.8507
  756MOL0     N 4241   6.978   7.260   2.992 -0.5222  0.7924  0.7896
  756MOL0     N 4242   6.892   7.308   3.075 -0.5214 -0.6026 -0.7514
  756MOL0     C 4243   5.624   7.427   2.911  0.3278  0.0990  0.2635
  756MOL0     C 4244   5.528   7.426   2.814  0.4969  0.5173 -1.0450
  756MOL0     C 4245   5.243   7.419   2.492 -0.1858 -0.4731 -1.0950
  756MOL0     C 4246   5.154   7.336   2.555  0.0728  0.6686  0.2464
  756MOL0     C 4247   5.030   7.305   2.502  0.0212 -0.0235  0.3921
  756MOL0     C 4248   4.980   7.383   2.398  0.4222 -0.4728  0.1622
  756MOL0     O 4249   4.845   7.375   2.358 -0.1123 -0.1379  0.0360
  756MOL0     C 4250   4.773   7.252   2.359  0.1268 -0.0060 -0.2946
  756MOL0     C 4251   4.804   7.151   2.255 -0.3628 -0.3843 -0.8978
  756MOL0     C 4252   4.728   7.019   2.265  0.3254 -0.0932 -0.0349
  756MOL0     C 4253   4.809   6.922   2.172 -1.0307 -0.2605  0.2377
  756MOL0     C 4254   4.942   6.892   2.220 -0.4047  0.9217 -0.5711
  756MOL0     C 4255   5.052   6.869   2.277  0.2626 -0.5783 -0.0673
  756MOL0     C 4256   5.062   7.481   2.345  0.4099  0.2481  0.4981
  756MOL0     C 4257   5.196   7.497   2.388 -0.7904 -0.6620 -1.0948
  756MOL0     C 4258   5.279   7.602   2.327 -0.6008 -0.3046 -0.5236
  756MOL0     H 4259   5.568   7.119   2.679  1.1091  0.5279 -0.8659
  756MOL0     H 4260   5.731   7.104   2.872  1.0838  0.8502  0.5802
  756MOL0     H 4261   5.761   7.429   3.185 -2.2439 -1.6907 -1.8313
  756MOL0     H 4262   5.844   7.503   3.057 -2.3170 -1.5946 -1.1247
  756MOL0     H 4263   6.011   7.455   3.249 -0.5691  0.5599 -2.1560
  756MOL0     H 4264   5.952   7.288   3.247  3.8580  0.7351  2.3773
  756MOL0     H 4265   6.069   7.240   3.046  1.5506 -1.0456  1.0869
  756MOL0     H 4266   6.125   7.407   3.034 -1.0806 -0.6899 -0.8610
  756MOL0     H 4267   6.249   7.399   3.227 -0.7952  0.3463  0.6081
  756MOL0     H 4268   6.178   7.239   3.281  1.2316 -0.1091 -0.3167
  756MOL0     H 4269   6.336   7.250   3.023 -1.4759 -0.6959 -1.1563
  756MOL0     H 4270   6.304   7.110   3.120 -1.0731 -0.4483 -1.8471
  756MOL0     H 4271   6.481   7.347   3.204  2.1477 -1.0624 -0.3905
  756MOL0     H 4272   6.468   7.188   3.282  3.7920 -2.5401 -1.7243
  756MOL0     H 4273   6.591   7.256   3.021  2.1066  2.8997  1.4301
  756MOL0     H 4274   6.570   7.089   3.081 -0.0365 -0.3798  0.0691
  756MOL0     H 4275   6.710   7.301   3.262 -0.0043 -1.2151  2.4226
  756MOL0     H 4276   6.697   7.141   3.284  0.2960 -1.1755 -1.2420
  756MOL0     H 4277   6.865   6.979   3.113 -0.0382 -0.3916  0.8886
  756MOL0     H 4278   7.090   7.082   2.819  1.3272 -1.5200 -1.0193
  756MOL0     H 4279   7.019   6.936   2.891  0.0336 -0.5120  0.0185
  756MOL0     H 4280   7.264   7.076   2.997 -0.9371  0.4843 -1.5193
  756MOL0     H 4281   7.186   6.937   3.066  1.5770  0.8241  1.3796
  756MOL0     H 4282   7.257   6.786   2.888  1.0658 -0.9184  0.2276
  756MOL0     H 4283   7.287   6.925   2.777  1.8723 -0.3235  0.5719
  756MOL0     H 4284   7.498   6.821   2.876  3.1162  0.8764  1.6076
  756MOL0     H 4285   7.483   6.988   2.894  2.0873 -1.1995 -1.4229
  756MOL0     H 4286   7.699   6.906   2.996  6.1211 -0.7594  1.3663
  756MOL0     H 4287   7.981   7.077   3.157  0.3081  1.9963 -2.1942
  756MOL0     H 4288   7.923   6.982   3.014 -1.2030  0.3059  0.7323
  756MOL0     H 4289   7.977   6.898   3.154 -1.9160  1.0583  1.9333
  756MOL0     H 4290   8.055   7.339   3.341  0.1396  0.3818  0.5755
  756MOL0     H 4291   8.198   7.474   3.471 -0.6967 -0.8636 -1.6323
  756MOL0     H 4292   8.149   7.473   3.920 -0.9410 -0.3357 -0.4216
  756MOL0     H 4293   8.248   7.334   3.901 -0.0371  0.9196  1.5080
  756MOL0     H 4294   8.379   7.485   4.027 -0.9978 -0.8948 -0.5845
  756MOL0     H 4295   8.453   7.440   3.875  0.1470  1.3697 -2.3285
  756MOL0     H 4296   8.309   7.707   3.948  0.7273  2.0843  0.1778
  756MOL0     H 4297   8.385   7.681   3.790  0.3686 -1.3225 -0.2780
  756MOL0     H 4298   8.613   7.641   3.919 -0.2814  0.0835 -1.2879
  756MOL0     H 4299   8.522   7.702   4.057  1.2966  1.4939 -0.2257
  756MOL0     H 4300   8.614   7.853   3.821 -2.1024 -2.0840 -2.9533
  756MOL0     H 4301   8.457   7.901   3.866 -0.8726 -0.2846  0.7048
  756MOL0     H 4302   8.527   7.942   4.111  1.1990 -0.8396  1.2559
  756MOL0     H 4303   8.613   8.032   3.983  0.9223  0.2957 -0.8273
  756MOL0     H 4304   8.791   7.854   3.994 -1.7725 -2.9875 -0.4860
  756MOL0     H 4305   8.700   7.774   4.119  1.2928  0.3994 -0.3121
  756MOL0     H 4306   8.859   7.910   4.252 -0.7922 -0.7663  1.3197
  756MOL0     H 4307   8.711   8.011   4.245 -2.7243 -1.4978 -2.7623
  756MOL0     H 4308   8.037   7.307   3.822 -2.8641  1.2294  1.0111
  756MOL0     H 4309   7.847   7.204   3.689 -1.1048  1.8846  0.0810
  756MOL0     H 4310   7.587   7.085   3.435  1.3576  0.9021 -0.0300
  756MOL0     H 4311   7.418   6.977   3.307  1.2997 -1.8707  3.3217
  756MOL0     H 4312   5.644   7.521   2.963 -0.9085  0.7219 -0.3533
  756MOL0     H 4313   5.464   7.514   2.811  0.9314  0.8639 -0.3070
  756MOL0     H 4314   5.192   7.284   2.642  2.0082  0.8039 -0.4551
  756MOL0     H 4315   4.963   7.235   2.551 -0.5661 -0.6047 -1.1795
  756MOL0     H 4316   4.788   7.210   2.459  3.1159  2.4759  0.4479
  756MOL0     H 4317   4.665   7.272   2.363  0.3184  0.8935  1.7002
  756MOL0     H 4318   4.908   7.130   2.283  0.5129  0.8829 -2.9950
  756MOL0     H 4319   4.795   7.198   2.157  1.5865  2.6032  0.1952
  756MOL0     H 4320   4.722   6.986   2.369  0.4853  0.5413  0.1825
  756MOL0     H 4321   4.631   7.034   2.217 -0.5367  4.1334  2.5120
  756MOL0     H 4322   4.815   6.955   2.067  1.4571 -0.6819  0.2101
  756MOL0     H 4323   4.761   6.824   2.167  1.9296 -1.8003  0.4683
  756MOL0     H 4324   5.140   6.837   2.328 -0.8586 -1.5437  1.3291
  756MOL0     H 4325   5.023   7.537   2.261 -0.4404  1.5449  1.7300
  756MOL0     H 4326   5.376   7.553   2.310 -1.2658 -0.6944 -3.8474
  756MOL0     H 4327   5.254   7.651   2.233  1.7263  0.3511 -0.8754
  756MOL0     H 4328   5.283   7.682   2.401  1.2823  0.1758 -1.0811
  757MOL0     O 4329   8.491  10.330   2.705 -0.4340 -0.7717  0.3319
  757MOL0     C 4330   8.505  10.370   2.819  0.3142  0.0293  0.0748
  757MOL0     O 4331   8.464  10.306   2.923  0.0054 -0.0672 -0.3914
  757MOL0     C 4332   8.379  10.197   2.918  0.2005  0.2026 -0.0722
  757MOL0     C 4333   8.412  10.087   2.832 -0.6409  1.0013  0.2827
  757MOL0     C 4334   8.328   9.970   2.831 -0.6940  0.1686 -0.0535
  757MOL0     C 4335   8.205   9.973   2.902  0.1808 -0.7019 -0.0713
  757MOL0     O 4336   8.104   9.879   2.905 -0.5728 -0.0784  0.6547
  757MOL0     C 4337   8.124   9.754   2.828  1.0496 -0.4977  0.5890
  757MOL0     C 4338   8.022   9.644   2.868  0.2697 -0.4308  0.9190
  757MOL0     C 4339   8.068   9.576   2.996 -0.0353  0.8547 -0.8630
  757MOL0     C 4340   7.964   9.466   3.035 -0.4064 -0.5874  0.0869
  757MOL0     C 4341   7.984   9.341   2.951  0.4220 -0.3555  0.7468
  757MOL0     C 4342   7.901   9.238   3.008  0.2543 -0.0030  0.1443
  757MOL0     C 4343   7.861   9.138   2.895 -1.2827  0.1077 -0.6542
  757MOL0     C 4344   7.770   9.021   2.942  0.1455 -0.2034  0.9968
  757MOL0     N 4345   7.794   8.902   2.860  0.3989 -0.6997  0.3562
  757MOL0     C 4346   7.793   8.888   2.722  0.5838  0.4378  0.1108
  757MOL0     C 4347   7.840   8.763   2.695 -0.1006 -0.3996  0.4160
  757MOL0     C 4348   7.854   8.711   2.557  0.6467 -0.8392 -0.2426
  757MOL0     C 4349   7.765   8.585   2.558 -0.2270 -0.5518  0.5719
  757MOL0     C 4350   7.784   8.498   2.440 -0.0898 -0.1684  1.0150
  757MOL0     C 4351   7.912   8.428   2.423 -1.0817  1.3304 -0.0483
  757MOL0     O 4352   8.005   8.523   2.377 -0.4349  0.3733  0.0973
  757MOL0     C 4353   8.140   8.487   2.380 -0.1877  1.1985  0.0452
  757MOL0     C 4354   8.240   8.582   2.404  0.0847  0.0023  0.3402
  757MOL0     C 4355   8.380   8.552   2.406  0.8861  0.1662 -0.7521
  757MOL0     C 4356   8.474   8.667   2.428 -1.2685  0.2481 -0.2657
  757MOL0     C 4357   8.419   8.418   2.384  0.3452  0.2217  0.1085
  757MOL0     C 4358   8.563   8.382   2.376 -0.5439  0.0548 -0.3568
  757MOL0     O 4359   8.657   8.476   2.331 -0.6309  0.6036 -0.0133
  757MOL0     C 4360   8.792   8.461   2.346  0.0080 -0.4531 -0.7149
  757MOL0     C 4361   8.856   8.394   2.455  0.2828  0.0536 -1.1733
  757MOL0     C 4362   8.996   8.366   2.456 -0.2946 -0.3499  0.1356
  757MOL0     C 4363   9.069   8.431   2.355  0.1212  0.5372  1.0395
  757MOL0     O 4364   9.200   8.419   2.346 -0.1793 -0.1802 -0.7863
  757MOL0     C 4365   9.280   8.446   2.463 -0.1720  0.6243 -0.5731
  757MOL0     C 4366   9.425   8.426   2.436 -1.0717 -0.1926 -0.0560
  757MOL0     C 4367   9.509   8.442   2.556 -1.1751  0.0498 -0.3030
  757MOL0     C 4368   9.659   8.436   2.531  0.6437  0.3531  1.2334
  757MOL0     C 4369   9.740   8.430   2.663  0.0349 -0.0710  0.1067
  757MOL0     C 4370   9.892   8.406   2.648  0.6395 -0.7727 -0.7856
  757MOL0     C 4371   9.971   8.380   2.785 -0.9185 -0.1069 -0.2376
  757MOL0     C 4372  10.118   8.356   2.762 -0.0365  1.0298  0.4652
  757MOL0    Cl 4373  10.124   8.207   2.663  0.3428 -0.0101  0.2073
  757MOL0     C 4374   9.009   8.498   2.246  0.6975  0.5788 -0.3396
  757MOL0     C 4375   8.872   8.513   2.241  0.6539  0.3655  0.1072
  757MOL0     O 4376   8.588   8.262   2.408  0.4845  0.4092  0.0011
  757MOL0     C 4377   8.320   8.314   2.378  0.5089 -1.3047 -0.5637
  757MOL0     C 4378   8.183   8.350   2.372  0.2846 -0.0712 -0.1794
  757MOL0     N 4379   7.876   8.703   2.820  0.0884 -0.4576 -0.7602
  757MOL0     N 4380   7.851   8.795   2.912  1.2488 -0.1753 -0.3558
  757MOL0     C 4381   8.179  10.075   2.991  0.1430 -0.2352 -0.3388
  757MOL0     C 4382   8.258  10.188   3.002 -0.3489  0.1057  0.2371
  757MOL0     C 4383   8.582  10.494   2.846 -0.0644 -0.0836 -0.3649
  757MOL0     C 4384   8.639  10.552   2.732  0.4788  0.3032  0.2129
  757MOL0     C 4385   8.730  10.662   2.742  0.8239  0.2259 -0.6112
  757MOL0     C 4386   8.751  10.727   2.863  0.0982 -0.5386  0.2135
  757MOL0     O 4387   8.819  10.850   2.884  0.8724  0.5156  0.0849
  757MOL0     C 4388   8.838  10.915   2.762 -0.2302 -0.4153  0.9895
  757MOL0     C 4389   8.926  11.045   2.803  0.0139 -0.0092 -0.5924
  757MOL0     C 4390   8.915  11.141   2.681 -0.2093 -1.0076  0.2323
  757MOL0     C 4391   9.027  11.115   2.571  0.0381  0.3038  0.0206
  757MOL0     C 4392   8.995  11.192   2.450  0.3603 -0.3338 -0.3160
  757MOL0     C 4393   8.972  11.263   2.358  0.2688 -0.6092 -0.4939
  757MOL0     C 4394   8.705  10.664   2.977 -1.0396 -0.3374 -0.9010
  757MOL0     C 4395   8.610  10.549   2.972 -0.3029 -0.6911 -0.3841
  757MOL0     C 4396   8.557  10.498   3.111 -0.3440 -0.3099  0.5586
  757MOL0     H 4397   8.492  10.096   2.760 -0.4582  0.4267  0.4067
  757MOL0     H 4398   8.338   9.899   2.750 -1.6167  1.0021 -0.9403
  757MOL0     H 4399   8.222   9.709   2.849  0.2319 -1.7072  1.9600
  757MOL0     H 4400   8.119   9.774   2.721  2.9403 -0.5431  0.4524
  757MOL0     H 4401   7.928   9.698   2.881  0.2713 -0.4290  0.9225
  757MOL0     H 4402   8.012   9.575   2.784 -0.3324  2.3817 -1.4809
  757MOL0     H 4403   8.170   9.540   2.978  0.1721 -1.1131  3.2317
  757MOL0     H 4404   8.087   9.654   3.070  1.5841 -0.1477 -0.1639
  757MOL0     H 4405   7.975   9.438   3.140  0.5512 -0.0932  0.1333
  757MOL0     H 4406   7.866   9.512   3.022  0.1769  0.3865 -1.0860
  757MOL0     H 4407   8.088   9.308   2.952  0.0865 -1.4533  1.9786
  757MOL0     H 4408   7.960   9.371   2.848  0.0812  0.2561  1.0000
  757MOL0     H 4409   7.957   9.191   3.089  3.0282  0.1668 -1.5203
  757MOL0     H 4410   7.809   9.271   3.056 -0.3460 -0.6386 -0.5333
  757MOL0     H 4411   7.952   9.096   2.852  0.4167 -2.5314  4.5921
  757MOL0     H 4412   7.806   9.191   2.816 -1.9108  0.6857  0.1452
  757MOL0     H 4413   7.768   8.995   3.049 -2.8185 -1.6321  0.7069
  757MOL0     H 4414   7.673   9.064   2.913  1.2529 -0.1305 -3.2423
  757MOL0     H 4415   7.766   8.962   2.648  1.9233  0.5423 -0.2993
  757MOL0     H 4416   7.957   8.699   2.521  0.4389  1.9004 -2.0695
  757MOL0     H 4417   7.823   8.779   2.477  0.2909 -1.5878 -0.7668
  757MOL0     H 4418   7.789   8.528   2.648 -1.3969  0.4421  1.5393
  757MOL0     H 4419   7.664   8.625   2.553  0.3432  0.7797 -1.4853
  757MOL0     H 4420   7.718   8.410   2.439  1.1279 -1.1173 -0.5855
  757MOL0     H 4421   7.757   8.552   2.348  1.1114 -2.1023 -0.5691
  757MOL0     H 4422   7.944   8.383   2.518 -1.2272 -0.2679 -0.7217
  757MOL0     H 4423   7.906   8.339   2.360  0.4463  0.5750  0.8064
  757MOL0     H 4424   8.215   8.687   2.418  0.8943  0.5637 -1.9877
  757MOL0     H 4425   8.534   8.688   2.339  1.8996 -2.3197  1.0596
  757MOL0     H 4426   8.546   8.646   2.508 -1.2865 -0.2161 -0.3704
  757MOL0     H 4427   8.429   8.765   2.441  0.4539  1.3926 -2.2275
  757MOL0     H 4428   8.804   8.349   2.539  0.6577  2.4217  0.4012
  757MOL0     H 4429   9.049   8.311   2.533 -0.5373  1.3809  1.6159
  757MOL0     H 4430   9.261   8.545   2.505 -1.2456 -0.0419  0.5911
  757MOL0     H 4431   9.256   8.377   2.544  0.0843  0.9689 -0.1976
  757MOL0     H 4432   9.449   8.327   2.397  0.4087  0.8190 -1.8305
  757MOL0     H 4433   9.458   8.493   2.356 -0.2708 -2.0292 -1.3162
  757MOL0     H 4434   9.480   8.366   2.628 -1.2901  0.4320  0.0600
  757MOL0     H 4435   9.477   8.534   2.607  1.9136 -0.3266  2.6149
  757MOL0     H 4436   9.700   8.524   2.481  0.9294  1.2129  2.8853
  757MOL0     H 4437   9.680   8.353   2.463 -2.2639  1.3725 -1.1323
  757MOL0     H 4438   9.744   8.528   2.711  1.4862  0.2770 -0.6507
  757MOL0     H 4439   9.703   8.364   2.742  0.1067 -0.6131 -0.3090
  757MOL0     H 4440   9.937   8.495   2.604 -1.3332 -0.4391 -2.2791
  757MOL0     H 4441   9.912   8.329   2.573 -1.3740 -1.3158 -0.8298
  757MOL0     H 4442   9.919   8.303   2.843 -1.5285  2.0473  2.2938
  757MOL0     H 4443   9.955   8.467   2.849 -0.0300 -1.2499  1.6118
  757MOL0     H 4444  10.161   8.349   2.862 -0.5883 -1.8282  0.5865
  757MOL0     H 4445  10.179   8.428   2.707  1.5439 -1.5726 -1.4699
  757MOL0     H 4446   9.069   8.537   2.165 -0.1795  0.6746 -0.9657
  757MOL0     H 4447   8.833   8.577   2.162  1.7588 -0.6527 -1.3245
  757MOL0     H 4448   8.350   8.210   2.369  3.0666 -0.6447 -0.5304
  757MOL0     H 4449   8.115   8.267   2.356 -0.0729 -0.1316  1.4952
  757MOL0     H 4450   8.082  10.068   3.040  0.4136 -0.0955  0.2217
  757MOL0     H 4451   8.249  10.278   3.062 -0.9915  0.7544 -0.8136
  757MOL0     H 4452   8.619  10.520   2.630  1.0780  0.6120 -0.0105
  757MOL0     H 4453   8.775  10.692   2.647 -1.9599 -0.7654 -2.3747
  757MOL0     H 4454   8.903  10.859   2.694  1.5563  0.3523  2.0010
  757MOL0     H 4455   8.739  10.943   2.724  0.1756  1.8301  1.4451
  757MOL0     H 4456   9.028  11.011   2.821 -0.2272  0.0996  1.1424
  757MOL0     H 4457   8.891  11.088   2.898  0.8915 -2.0076  0.6831
  757MOL0     H 4458   8.821  11.131   2.626  0.2862 -1.5439 -0.5470
  757MOL0     H 4459   8.915  11.245   2.714 -2.6988 -1.1434  0.8440
  757MOL0     H 4460   9.021  11.007   2.555 -0.3029  0.6007 -2.2815
  757MOL0     H 4461   9.126  11.146   2.605 -0.4718  0.2728  1.6082
  757MOL0     H 4462   8.946  11.335   2.283 -0.9718 -0.3294  0.1776
  757MOL0     H 4463   8.749  10.685   3.075  0.3622  0.1876 -1.6120
  757MOL0     H 4464   8.577  10.391   3.122  0.8085  0.1253  3.3209
  757MOL0     H 4465   8.613  10.535   3.197 -0.0228  0.1385  0.1609
  757MOL0     H 4466   8.451  10.525   3.108 -0.7275 -1.7995  0.0168
  758MOL0     O 4467   8.427   0.746   4.368  0.4986  0.5939  0.1178
  758MOL0     C 4468   8.346   0.653   4.347 -0.0676  0.8957 -0.0076
  758MOL0     O 4469   8.361   0.568   4.245  0.6059 -0.1548 -0.4110
  758MOL0     C 4470   8.488   0.536   4.212  0.0371 -0.5761  0.5253
  758MOL0     C 4471   8.594   0.509   4.290 -0.0516 -0.1438 -0.6285
  758MOL0     C 4472   8.711   0.448   4.241 -0.1245  0.3332 -0.3154
  758MOL0     C 4473   8.724   0.419   4.107  0.7171  0.4690 -0.0796
  758MOL0     O 4474   8.841   0.363   4.069  0.2261  0.0888  0.5143
  758MOL0     C 4475   8.868   0.350   3.930 -0.3415 -0.5519  0.6452
  758MOL0     C 4476   9.016   0.323   3.913  0.0530 -0.5019 -0.2331
  758MOL0     C 4477   9.027   0.288   3.763  0.8434 -0.8903 -0.7901
  758MOL0     C 4478   9.177   0.279   3.735 -0.3832  0.1878 -0.2495
  758MOL0     C 4479   9.211   0.174   3.624  0.8140 -0.9240 -0.2081
  758MOL0     C 4480   9.365   0.166   3.611 -0.3502  0.3230  0.0729
  758MOL0     C 4481   9.407   0.058   3.514 -0.5841  1.0163  0.2636
  758MOL0     C 4482   9.564   0.053   3.516  0.4072  0.0585 -0.1589
  758MOL0     N 4483   9.627   0.081   3.389  0.6560 -0.8058 -0.2508
  758MOL0     C 4484   9.620   0.005   3.275  0.3424 -0.2372 -0.0871
  758MOL0     C 4485   9.686   0.085   3.190 -0.1532  1.0581  0.1091
  758MOL0     C 4486   9.710   0.049   3.043  0.0939  0.3699 -0.8523
  758MOL0     C 4487   9.851  -0.005   3.027 -0.8870  0.4841  0.8439
  758MOL0     C 4488   9.838  -0.154   3.067  1.1803 -0.1613 -0.9052
  758MOL0     C 4489   9.953  -0.227   3.007  0.4683 -0.2484 -0.1260
  758MOL0     O 4490   9.952  -0.215   2.865  0.0400  0.5786  0.1314
  758MOL0     C 4491  10.047  -0.292   2.797 -0.5395 -0.2007  0.5323
  758MOL0     C 4492  10.173  -0.331   2.851 -0.1798  0.1530 -0.5587
  758MOL0     C 4493  10.284  -0.371   2.772  0.2557  0.6282  1.1878
  758MOL0     C 4494  10.418  -0.386   2.843  0.7490 -0.5767 -0.4411
  758MOL0     C 4495  10.259  -0.397   2.634  1.3295 -0.2751  0.6948
  758MOL0     C 4496  10.358  -0.452   2.538  0.2628  0.1441  0.0312
  758MOL0     O 4497  10.402  -0.364   2.447  0.2145 -0.6062 -0.4799
  758MOL0     C 4498  10.503  -0.411   2.365 -0.1899 -0.6972 -0.7992
  758MOL0     C 4499  10.470  -0.506   2.265 -0.4493 -0.4232  0.3626
  758MOL0     C 4500  10.562  -0.547   2.165 -0.0440  0.0970 -0.0564
  758MOL0     C 4501  10.697  -0.507   2.179 -0.1419 -0.0641  0.2175
  758MOL0     O 4502  10.796  -0.552   2.098  0.1867  0.6015 -0.1176
  758MOL0     C 4503  10.853  -0.466   1.999 -0.0323  0.0084 -0.6670
  758MOL0     C 4504  10.994  -0.501   1.965  0.1932 -0.4326 -0.2322
  758MOL0     C 4505  11.090  -0.506   2.084 -0.2520  0.7040  0.0231
  758MOL0     C 4506  11.225  -0.537   2.027 -0.3412 -0.7486 -0.3068
  758MOL0     C 4507  11.329  -0.554   2.124 -0.2550 -0.0113  0.9553
  758MOL0     C 4508  11.315  -0.681   2.206 -0.7759 -0.1628 -0.4216
  758MOL0     C 4509  11.436  -0.723   2.289 -0.0857 -0.2772 -0.2919
  758MOL0     C 4510  11.542  -0.790   2.209 -0.2725  0.6513  0.7244
  758MOL0    Cl 4511  11.684  -0.859   2.305  0.4230  0.2066  0.0794
  758MOL0     C 4512  10.729  -0.411   2.274  0.2019  0.6466 -0.5486
  758MOL0     C 4513  10.630  -0.357   2.359  0.4815  0.3652  0.4631
  758MOL0     O 4514  10.392  -0.569   2.551  0.2264 -0.0867 -0.4626
  758MOL0     C 4515  10.133  -0.368   2.580 -0.7383  0.4816 -0.4694
  758MOL0     C 4516  10.038  -0.314   2.662 -1.2277  0.1344 -0.4840
  758MOL0     N 4517   9.736   0.197   3.252 -0.3512  0.7139 -0.1556
  758MOL0     N 4518   9.688   0.201   3.371 -0.2942 -0.9644  0.1783
  758MOL0     C 4519   8.614   0.443   4.026 -0.5884 -0.3166  0.5403
  758MOL0     C 4520   8.495   0.500   4.074 -0.9205 -0.9037 -0.5928
  758MOL0     C 4521   8.228   0.641   4.433 -0.7636  0.3795  0.7651
  758MOL0     C 4522   8.229   0.710   4.559  0.2532 -0.1185  1.1441
  758MOL0     C 4523   8.121   0.707   4.643  0.0162 -0.3827  0.1040
  758MOL0     C 4524   8.017   0.627   4.620  1.1211  0.2798  0.5328
  758MOL0     O 4525   7.928   0.625   4.722  0.2589  0.2173  0.5962
  758MOL0     C 4526   7.805   0.559   4.702  0.2104  0.5911  0.5202
  758MOL0     C 4527   7.713   0.650   4.617  0.1834  0.2142 -0.2997
  758MOL0     C 4528   7.675   0.768   4.697  0.0988 -0.4143 -0.5476
  758MOL0     C 4529   7.583   0.730   4.811  0.5978  0.6954  0.5364
  758MOL0     C 4530   7.461   0.673   4.755  0.5635 -0.5965  0.0825
  758MOL0     C 4531   7.359   0.619   4.714 -0.4166 -0.1881 -0.9477
  758MOL0     C 4532   8.007   0.562   4.496 -0.1187  0.5828 -0.8197
  758MOL0     C 4533   8.112   0.569   4.404 -1.1173  0.7198  0.1029
  758MOL0     C 4534   8.086   0.498   4.274 -0.1612 -0.0931  0.8391
  758MOL0     H 4535   8.587   0.527   4.396  1.0284 -0.3770 -0.5047
  758MOL0     H 4536   8.789   0.416   4.309  0.7214  0.5316 -1.1647
  758MOL0     H 4537   8.853   0.446   3.881 -0.9835 -0.4224  1.0796
  758MOL0     H 4538   8.809   0.271   3.881 -1.9947  1.2309 -0.3724
  758MOL0     H 4539   9.073   0.409   3.951  0.7890 -0.7372 -0.7850
  758MOL0     H 4540   9.047   0.232   3.965  0.9130  0.7973  1.6713
  758MOL0     H 4541   8.969   0.198   3.745  1.1739 -1.8658  2.3989
  758MOL0     H 4542   8.985   0.363   3.694  0.2140 -1.5627 -1.1468
  758MOL0     H 4543   9.210   0.380   3.708 -0.2311  0.9590  2.5397
  758MOL0     H 4544   9.237   0.255   3.823  0.6358  0.8129 -0.7483
  758MOL0     H 4545   9.172   0.218   3.532  3.5637  2.0072 -0.1463
  758MOL0     H 4546   9.157   0.082   3.649 -0.0637 -0.5971 -0.8254
  758MOL0     H 4547   9.394   0.264   3.572  0.2489 -0.6911 -2.1717
  758MOL0     H 4548   9.407   0.135   3.707 -0.3976 -0.5824 -0.1860
  758MOL0     H 4549   9.375   0.081   3.412  0.4178 -1.7000 -0.7362
  758MOL0     H 4550   9.353  -0.033   3.539  0.0952  0.9941  1.7375
  758MOL0     H 4551   9.596   0.118   3.597 -3.0231  0.6093  0.9059
  758MOL0     H 4552   9.594  -0.048   3.548 -0.1495  0.1545  0.6940
  758MOL0     H 4553   9.582  -0.096   3.267  0.1013 -0.2075  0.5646
  758MOL0     H 4554   9.684   0.124   2.968 -2.4255  0.8839  0.4178
  758MOL0     H 4555   9.638  -0.028   3.014  4.0425 -2.5558 -4.0668
  758MOL0     H 4556   9.865   0.008   2.920 -1.2215  2.4506  1.0006
  758MOL0     H 4557   9.929   0.047   3.085  0.2307 -1.6680  1.3579
  758MOL0     H 4558   9.828  -0.180   3.172  0.6660 -2.1066 -1.4038
  758MOL0     H 4559   9.747  -0.196   3.024 -0.9935 -0.9872  3.8429
  758MOL0     H 4560  10.039  -0.172   3.046 -0.1064 -0.1150  0.9878
  758MOL0     H 4561   9.958  -0.335   3.027 -1.4428 -0.4570 -0.5962
  758MOL0     H 4562  10.194  -0.323   2.957  0.1685  2.9515 -0.7537
  758MOL0     H 4563  10.504  -0.419   2.783  1.2041 -0.2073 -0.0000
  758MOL0     H 4564  10.393  -0.455   2.924 -4.0986  1.4547  0.1456
  758MOL0     H 4565  10.439  -0.297   2.903 -0.8547 -0.3987 -0.0860
  758MOL0     H 4566  10.368  -0.543   2.258 -2.0371  3.5638 -0.2794
  758MOL0     H 4567  10.530  -0.613   2.086 -1.6632  1.0859 -0.2717
  758MOL0     H 4568  10.791  -0.458   1.909  1.1530  1.0367 -1.4261
  758MOL0     H 4569  10.867  -0.364   2.036  2.3739  0.1833 -1.8614
  758MOL0     H 4570  10.987  -0.597   1.913 -1.0999  0.4109 -1.7254
  758MOL0     H 4571  11.035  -0.422   1.901  4.5242 -0.4591  2.1636
  758MOL0     H 4572  11.075  -0.583   2.160  1.6424  1.8786  1.6924
  758MOL0     H 4573  11.088  -0.413   2.142 -0.0286 -1.1394  3.2430
  758MOL0     H 4574  11.250  -0.446   1.972 -2.3159  1.8357  2.6777
  758MOL0     H 4575  11.226  -0.619   1.955  1.2319 -0.9409 -0.1018
  758MOL0     H 4576  11.423  -0.556   2.068 -1.2058  1.9193 -0.8616
  758MOL0     H 4577  11.336  -0.462   2.182  1.4102  1.9166 -2.0127
  758MOL0     H 4578  11.307  -0.761   2.132  0.6996  0.4374 -1.2729
  758MOL0     H 4579  11.224  -0.688   2.266 -0.9310 -0.1440 -0.6546
  758MOL0     H 4580  11.413  -0.792   2.371  1.5826 -0.5167  0.0054
  758MOL0     H 4581  11.475  -0.631   2.331  2.2211 -1.6047  0.6355
  758MOL0     H 4582  11.595  -0.730   2.134  3.4564  0.0462  2.6197
  758MOL0     H 4583  11.504  -0.883   2.167 -0.3342  1.6053 -1.4689
  758MOL0     H 4584  10.836  -0.392   2.280  0.5041  0.5399 -3.9914
  758MOL0     H 4585  10.653  -0.276   2.427  2.4804 -0.0878  0.3972
  758MOL0     H 4586  10.117  -0.398   2.477  2.9584  0.7795 -1.2768
  758MOL0     H 4587   9.943  -0.303   2.611 -0.7131 -1.4310 -1.8631
  758MOL0     H 4588   8.623   0.413   3.922 -0.8428 -2.6802  1.1320
  758MOL0     H 4589   8.413   0.498   4.003 -0.1755 -0.3440 -1.4816
  758MOL0     H 4590   8.307   0.780   4.586 -1.6117  2.2927  0.6279
  758MOL0     H 4591   8.132   0.781   4.722 -0.8060  0.8278 -0.8639
  758MOL0     H 4592   7.813   0.465   4.647 -3.7149 -0.1634  0.9434
  758MOL0     H 4593   7.754   0.525   4.793  0.3635  2.8428  1.5204
  758MOL0     H 4594   7.627   0.598   4.575  0.8532  1.4546 -3.4771
  758MOL0     H 4595   7.770   0.688   4.531 -1.4288 -0.8783 -1.9018
  758MOL0     H 4596   7.763   0.823   4.734 -0.6082  0.0195  0.5289
  758MOL0     H 4597   7.623   0.838   4.631 -0.2209 -0.3889 -0.2702
  758MOL0     H 4598   7.562   0.821   4.868 -0.3428  2.1269 -1.9014
  758MOL0     H 4599   7.626   0.652   4.873  3.2117  0.6171 -1.1987
  758MOL0     H 4600   7.271   0.568   4.679  0.5382 -1.8588 -1.0213
  758MOL0     H 4601   7.919   0.502   4.474  0.2812  0.0968 -1.1168
  758MOL0     H 4602   7.979   0.474   4.266 -0.5398  0.8425  2.4911
  758MOL0     H 4603   8.111   0.542   4.177  1.4040  0.0444  1.2828
  758MOL0     H 4604   8.140   0.404   4.280  0.1527 -0.0619 -0.9571
  759MOL0     O 4605   7.357   6.076   4.765  0.7156 -0.7468 -0.1293
  759MOL0     C 4606   7.293   6.179   4.729  0.3929 -0.2358  0.0176
  759MOL0     O 4607   7.343   6.276   4.655  0.1426  0.1805  0.5721
  759MOL0     C 4608   7.473   6.278   4.612  0.0714  0.3403  0.6635
  759MOL0     C 4609   7.591   6.271   4.697  0.1841 -0.3122 -1.3594
  759MOL0     C 4610   7.717   6.268   4.640  0.0597  0.2349  0.3637
  759MOL0     C 4611   7.737   6.284   4.503  0.1361  0.4917  0.2672
  759MOL0     O 4612   7.866   6.283   4.442  1.1915  0.6514  0.1102
  759MOL0     C 4613   7.979   6.338   4.514  0.3779 -0.0200  0.9115
  759MOL0     C 4614   8.096   6.332   4.420  0.7954 -0.1165 -0.2799
  759MOL0     C 4615   8.223   6.402   4.482  0.6544  1.4160 -0.4828
  759MOL0     C 4616   8.346   6.362   4.394 -0.0489  0.0503  0.4073
  759MOL0     C 4617   8.405   6.217   4.404 -0.3408 -0.1576  0.4974
  759MOL0     C 4618   8.545   6.222   4.336  1.5483  0.0431  0.0437
  759MOL0     C 4619   8.614   6.082   4.356 -0.0384 -0.3849 -0.3174
  759MOL0     C 4620   8.754   6.081   4.298  0.0027 -0.5353 -0.5195
  759MOL0     N 4621   8.787   6.124   4.161 -0.7422  0.2938 -0.1178
  759MOL0     C 4622   8.747   6.055   4.050 -0.1389 -0.1724 -0.4483
  759MOL0     C 4623   8.803   6.123   3.944  0.8778 -0.2303 -0.0129
  759MOL0     C 4624   8.786   6.094   3.806  0.3650 -0.2263 -0.9009
  759MOL0     C 4625   8.919   6.082   3.739 -0.5606  0.0678 -0.1406
  759MOL0     C 4626   8.922   6.156   3.602  0.3948  0.5995  0.6273
  759MOL0     C 4627   9.064   6.150   3.520  1.3366 -0.6634  0.5189
  759MOL0     O 4628   9.163   6.186   3.622  0.5962  0.2543  0.3641
  759MOL0     C 4629   9.266   6.272   3.588  0.5709  0.9908  0.5169
  759MOL0     C 4630   9.292   6.374   3.669 -0.3808  0.0479  0.0663
  759MOL0     C 4631   9.416   6.442   3.661  0.2238 -0.0939  0.0402
  759MOL0     C 4632   9.428   6.550   3.766  0.2082 -0.0382 -0.1541
  759MOL0     C 4633   9.514   6.396   3.576  0.6316 -0.0838  1.2349
  759MOL0     C 4634   9.646   6.474   3.539 -0.7179 -0.0126 -0.7042
  759MOL0     O 4635   9.737   6.394   3.472  0.3935 -0.2353 -0.3007
  759MOL0     C 4636   9.852   6.445   3.430 -1.1135  0.2052  0.1777
  759MOL0     C 4637   9.860   6.528   3.312 -0.5974  0.2538  0.0114
  759MOL0     C 4638   9.987   6.578   3.272 -0.0679  0.0928  0.0113
  759MOL0     C 4639  10.100   6.531   3.343  0.2282  0.2916  0.5418
  759MOL0     O 4640  10.225   6.581   3.309  0.5367 -0.8020 -0.8064
  759MOL0     C 4641  10.250   6.602   3.172  0.4204  0.3954 -0.2637
  759MOL0     C 4642  10.405   6.628   3.144 -0.2296  0.5207  0.4539
  759MOL0     C 4643  10.504   6.517   3.188 -0.0037  0.5201 -0.2748
  759MOL0     C 4644  10.654   6.559   3.172 -0.2145 -0.7438  0.6686
  759MOL0     C 4645  10.743   6.437   3.181 -0.2311 -0.1151  0.1477
  759MOL0     C 4646  10.764   6.387   3.325 -0.6056  0.4744 -0.2372
  759MOL0     C 4647  10.879   6.457   3.393  0.2483  0.7379 -0.0832
  759MOL0     C 4648  10.894   6.409   3.538  0.6547  0.0748  1.2173
  759MOL0    Cl 4649  11.036   6.479   3.624 -0.0790  0.3304  0.1813
  759MOL0     C 4650  10.089   6.441   3.449 -0.4681 -0.1722 -0.4328
  759MOL0     C 4651   9.960   6.406   3.499 -0.6641 -0.7022 -0.1478
  759MOL0     O 4652   9.652   6.593   3.567 -0.2060  0.4292  0.0757
  759MOL0     C 4653   9.480   6.282   3.497  0.0269  0.0660  0.2874
  759MOL0     C 4654   9.356   6.218   3.512  0.0776 -0.6594  0.8665
  759MOL0     N 4655   8.866   6.235   3.990 -0.7353  0.3947  0.2676
  759MOL0     N 4656   8.858   6.236   4.119  0.1158 -0.4473  0.2340
  759MOL0     C 4657   7.632   6.292   4.418  0.4372 -0.7930  0.1881
  759MOL0     C 4658   7.504   6.283   4.469  0.7042 -0.9195 -0.2491
  759MOL0     C 4659   7.159   6.197   4.782 -0.2325 -0.0185 -0.3327
  759MOL0     C 4660   7.091   6.076   4.796 -0.3712 -0.0369 -0.4999
  759MOL0     C 4661   6.957   6.081   4.834  0.3847  0.4452  0.2358
  759MOL0     C 4662   6.884   6.195   4.845  0.6743 -0.7060 -0.5524
  759MOL0     O 4663   6.747   6.187   4.848 -0.4883  0.1242 -0.2499
  759MOL0     C 4664   6.662   6.297   4.839 -0.2302  0.0254  0.5497
  759MOL0     C 4665   6.534   6.235   4.882  0.0893 -0.4808  0.4841
  759MOL0     C 4666   6.416   6.332   4.854  0.3090 -0.5799 -0.1011
  759MOL0     C 4667   6.281   6.268   4.889  0.9518  0.8182  0.5914
  759MOL0     C 4668   6.174   6.361   4.905 -0.6205  0.7551  0.3865
  759MOL0     C 4669   6.081   6.440   4.900  0.7529  0.0887 -0.7387
  759MOL0     C 4670   6.957   6.321   4.837 -0.3659 -0.4888 -0.6579
  759MOL0     C 4671   7.092   6.316   4.801 -0.2142  0.5239 -0.1876
  759MOL0     C 4672   7.151   6.452   4.798  0.4273  0.6709  0.1908
  759MOL0     H 4673   7.581   6.284   4.805 -0.5133  1.3025 -1.5878
  759MOL0     H 4674   7.791   6.247   4.717 -0.7321 -1.3702  0.7447
  759MOL0     H 4675   8.006   6.281   4.604 -0.1665 -2.1314 -0.1909
  759MOL0     H 4676   7.965   6.441   4.547 -1.0437 -0.1564  0.8099
  759MOL0     H 4677   8.116   6.225   4.404  0.6689  0.0533 -1.6703
  759MOL0     H 4678   8.067   6.378   4.326  1.1081  1.7981  0.5151
  759MOL0     H 4679   8.213   6.511   4.482  0.0236  1.3839 -2.1822
  759MOL0     H 4680   8.239   6.375   4.587 -1.4974  0.9473 -0.2239
  759MOL0     H 4681   8.308   6.385   4.294  3.7561  0.6817 -1.0680
  759MOL0     H 4682   8.417   6.440   4.422 -0.1848  0.6636 -0.8648
  759MOL0     H 4683   8.331   6.152   4.355  1.0428 -0.7546 -0.8750
  759MOL0     H 4684   8.410   6.180   4.506  0.5538 -0.0768  0.4859
  759MOL0     H 4685   8.549   6.261   4.234  2.3175 -1.0083 -0.3468
  759MOL0     H 4686   8.607   6.292   4.393 -1.3721  1.7782  1.3273
  759MOL0     H 4687   8.553   6.002   4.315 -2.9538 -0.1415  3.1305
  759MOL0     H 4688   8.610   6.057   4.462 -4.5201 -0.3615 -0.3095
  759MOL0     H 4689   8.798   6.153   4.368 -0.9696 -1.5501  1.2212
  759MOL0     H 4690   8.803   5.989   4.332  0.4598  1.1967  4.2957
  759MOL0     H 4691   8.672   5.977   4.062 -1.4724  1.1289 -0.0680
  759MOL0     H 4692   8.732   6.185   3.776  0.8932  1.1021  1.8556
  759MOL0     H 4693   8.732   6.005   3.775  2.8131 -2.0368 -0.2449
  759MOL0     H 4694   9.003   6.121   3.797  0.6129 -0.4524 -1.4313
  759MOL0     H 4695   8.947   5.977   3.739  0.8920  0.4268  0.5012
  759MOL0     H 4696   8.844   6.115   3.537  3.1763 -1.0594 -1.9373
  759MOL0     H 4697   8.904   6.263   3.620  2.3505  1.0955 -0.0769
  759MOL0     H 4698   9.080   6.049   3.479 -0.8377 -0.7552 -0.2227
  759MOL0     H 4699   9.073   6.221   3.438  2.0056 -0.4301  0.7862
  759MOL0     H 4700   9.218   6.406   3.742  0.2001  0.3121  0.5575
  759MOL0     H 4701   9.496   6.509   3.841  0.5353 -0.6499 -0.7684
  759MOL0     H 4702   9.331   6.570   3.810  1.0213 -2.1520  2.9058
  759MOL0     H 4703   9.469   6.647   3.736 -0.9583  1.7827  3.5798
  759MOL0     H 4704   9.774   6.550   3.250 -0.4723  2.7949  0.6283
  759MOL0     H 4705  10.000   6.641   3.185 -3.0586  2.0150  0.7938
  759MOL0     H 4706  10.234   6.506   3.124 -0.2148  0.3543  0.0191
  759MOL0     H 4707  10.197   6.685   3.123  4.3053  3.5462  0.2935
  759MOL0     H 4708  10.416   6.629   3.035  1.0443 -0.2978  0.5483
  759MOL0     H 4709  10.432   6.719   3.199 -0.2289  1.6809 -1.3899
  759MOL0     H 4710  10.469   6.447   3.112 -0.5535  2.2172 -1.6480
  759MOL0     H 4711  10.505   6.489   3.294 -0.1660  0.4164 -0.3001
  759MOL0     H 4712  10.665   6.639   3.247  0.2141 -0.1205 -0.0481
  759MOL0     H 4713  10.669   6.619   3.082 -2.0937  1.6741  1.8392
  759MOL0     H 4714  10.701   6.357   3.119 -2.3551  0.3461  0.8907
  759MOL0     H 4715  10.841   6.460   3.138  0.9498 -2.0562  1.6758
  759MOL0     H 4716  10.762   6.278   3.331 -3.6746  0.4424 -0.2088
  759MOL0     H 4717  10.676   6.423   3.379 -0.3637  0.9714 -0.1717
  759MOL0     H 4718  10.861   6.564   3.394 -1.6442  0.4521 -0.5210
  759MOL0     H 4719  10.973   6.440   3.339  1.0141 -0.3459  1.4905
  759MOL0     H 4720  10.911   6.301   3.536 -2.6919 -0.5560 -0.6003
  759MOL0     H 4721  10.807   6.431   3.600  0.1453  1.4493  0.0932
  759MOL0     H 4722  10.179   6.413   3.503 -0.2648 -0.8692 -1.1198
  759MOL0     H 4723   9.947   6.340   3.585 -2.8760 -3.4584 -2.4061
  759MOL0     H 4724   9.565   6.253   3.436  1.5094  2.2462  1.1638
  759MOL0     H 4725   9.356   6.115   3.478 -0.1377  0.3321 -2.5661
  759MOL0     H 4726   7.645   6.278   4.311 -4.8266 -0.3663 -0.7440
  759MOL0     H 4727   7.423   6.290   4.396  0.5441  1.0173  0.0476
  759MOL0     H 4728   7.138   5.978   4.792 -0.1473  0.0092  0.5981
  759MOL0     H 4729   6.913   5.982   4.842 -1.2341  1.0955 -0.1796
  759MOL0     H 4730   6.678   6.377   4.912 -1.8964  3.3082 -2.4441
  759MOL0     H 4731   6.657   6.341   4.740 -0.6128 -2.9650 -0.8691
  759MOL0     H 4732   6.544   6.210   4.988  0.6780  0.6614  0.7057
  759MOL0     H 4733   6.517   6.144   4.823  0.3453  1.3959 -2.7289
  759MOL0     H 4734   6.434   6.424   4.910  1.7870 -1.3916  0.8341
  759MOL0     H 4735   6.415   6.360   4.748  2.1514 -2.7821 -0.7661
  759MOL0     H 4736   6.288   6.204   4.977 -0.6206 -0.9719 -0.5132
  759MOL0     H 4737   6.246   6.202   4.809  0.4097  0.6266  0.9781
  759MOL0     H 4738   6.007   6.517   4.904  0.8734  0.1740  0.1974
  759MOL0     H 4739   6.903   6.415   4.841 -2.2392 -1.3901 -2.6556
  759MOL0     H 4740   7.176   6.459   4.691 -0.8360  2.5319 -0.0378
  759MOL0     H 4741   7.082   6.530   4.831 -0.9871 -0.7224  0.6996
  759MOL0     H 4742   7.247   6.447   4.849  0.8992 -3.2798 -0.7308
  760MOL0     O 4743   0.158   3.835  10.689  0.3601 -0.0214 -0.1447
  760MOL0     C 4744   0.163   3.728  10.632  0.9396 -0.0257 -0.8029
  760MOL0     O 4745   0.231   3.708  10.508  0.5076 -0.4241  0.3839
  760MOL0     C 4746   0.293   3.811  10.436  0.0999  0.7247 -0.2296
  760MOL0     C 4747   0.415   3.773  10.374 -0.3564  0.5983  0.2622
  760MOL0     C 4748   0.494   3.875  10.322  0.5462 -0.0776  0.4881
  760MOL0     C 4749   0.464   4.020  10.330 -0.2230  0.0337  0.1946
  760MOL0     O 4750   0.550   4.124  10.294 -0.1098 -0.6138  0.0641
  760MOL0     C 4751   0.675   4.095  10.230  0.3109 -0.0933 -0.2657
  760MOL0     C 4752   0.712   4.212  10.139 -0.1904 -0.7875 -0.0407
  760MOL0     C 4753   0.841   4.188  10.055  0.4974 -0.1966  0.2431
  760MOL0     C 4754   0.958   4.256  10.109 -0.6097  0.5959 -0.1464
  760MOL0     C 4755   1.081   4.196  10.047 -0.0925  0.0410  0.0695
  760MOL0     C 4756   1.212   4.273  10.066 -1.1409 -0.3264  0.1611
  760MOL0     C 4757   1.324   4.183  10.002  0.9808 -0.2634  1.0281
  760MOL0     C 4758   1.447   4.277   9.996  1.0012 -0.6939 -0.1954
  760MOL0     N 4759   1.548   4.234   9.899 -0.0277  0.4211  0.1182
  760MOL0     C 4760   1.534   4.179   9.772 -0.7142  0.4212 -0.5974
  760MOL0     C 4761   1.662   4.156   9.731  0.5397  0.5100 -0.1481
  760MOL0     C 4762   1.705   4.102   9.602 -0.1877 -0.1479  0.5125
  760MOL0     C 4763   1.781   3.967   9.623  0.0821 -0.0993 -0.9670
  760MOL0     C 4764   1.923   3.975   9.562  0.8598  0.5685  0.9868
  760MOL0     C 4765   2.025   4.058   9.646  0.7324 -0.3332 -0.0857
  760MOL0     O 4766   2.145   4.059   9.574  0.9687  0.2204 -0.1231
  760MOL0     C 4767   2.252   4.047   9.659 -0.7824  0.2028  0.4170
  760MOL0     C 4768   2.262   4.102   9.785  0.0316 -0.3226  0.1544
  760MOL0     C 4769   2.380   4.115   9.860 -0.0039 -0.1981 -0.1163
  760MOL0     C 4770   2.359   4.157  10.004  0.9713 -0.9203  0.1417
  760MOL0     C 4771   2.502   4.076   9.800  0.4094  0.2215 -0.4089
  760MOL0     C 4772   2.633   4.071   9.870 -0.2966 -0.4266 -0.3115
  760MOL0     O 4773   2.728   3.974   9.834 -0.0381  0.0733 -0.6326
  760MOL0     C 4774   2.842   3.965   9.915 -0.8635 -0.1081 -0.1892
  760MOL0     C 4775   2.852   3.972  10.060 -0.2559 -1.1753  0.2453
  760MOL0     C 4776   2.984   3.973  10.117  0.0040 -0.5660 -0.7986
  760MOL0     C 4777   3.101   3.950  10.044  1.5656 -0.2180  0.4621
  760MOL0     O 4778   3.217   3.967  10.110  0.0245 -0.0444 -0.2853
  760MOL0     C 4779   3.344   3.946  10.035  0.1893  0.2217  0.4013
  760MOL0     C 4780   3.460   3.965  10.136  0.4172  0.1016  0.0620
  760MOL0     C 4781   3.586   3.905  10.094  0.1677  0.2671  0.3983
  760MOL0     C 4782   3.704   3.976  10.151 -0.5168  0.3140  0.0476
  760MOL0     C 4783   3.814   3.873  10.170 -0.3123 -0.0139  0.7708
  760MOL0     C 4784   3.940   3.960  10.199 -0.6511 -1.0270 -0.0798
  760MOL0     C 4785   4.056   3.865  10.213  0.6250 -0.5670 -0.1123
  760MOL0     C 4786   4.197   3.936  10.231 -0.1374  0.5184 -0.1773
  760MOL0    Cl 4787   4.231   4.030  10.087  0.1133  0.0797 -0.2484
  760MOL0     C 4788   3.086   3.913   9.910  0.6462  0.3077  0.9287
  760MOL0     C 4789   2.959   3.922   9.851 -1.2413  0.0829  0.4134
  760MOL0     O 4790   2.642   4.162   9.951 -0.8325 -0.0102 -0.0037
  760MOL0     C 4791   2.488   4.014   9.674 -0.9481 -0.4925 -0.0147
  760MOL0     C 4792   2.373   4.007   9.602  0.1876 -0.2356 -0.2639
  760MOL0     N 4793   1.751   4.202   9.823  0.3096 -0.4099 -0.1455
  760MOL0     N 4794   1.680   4.246   9.926  0.2315 -0.4731 -0.4462
  760MOL0     C 4795   0.341   4.048  10.392 -0.1980 -0.9739 -0.8060
  760MOL0     C 4796   0.254   3.948  10.446  0.0314  0.7045 -0.2375
  760MOL0     C 4797   0.089   3.608  10.680  0.4402 -0.1328  0.2440
  760MOL0     C 4798  -0.027   3.637  10.751  0.7438  0.3082 -0.3799
  760MOL0     C 4799  -0.106   3.536  10.811  0.3904  0.8113 -0.1898
  760MOL0     C 4800  -0.073   3.406  10.792 -0.6240  0.0403  0.3382
  760MOL0     O 4801  -0.146   3.310  10.847  0.1457 -0.1978 -0.8395
  760MOL0     C 4802  -0.272   3.297  10.783  0.5341  0.0382 -0.1844
  760MOL0     C 4803  -0.296   3.145  10.763  0.0029  0.7744  0.6744
  760MOL0     C 4804  -0.345   3.105  10.618 -0.3450 -0.2182 -0.5321
  760MOL0     C 4805  -0.492   3.144  10.603  0.1440 -0.1047 -0.2273
  760MOL0     C 4806  -0.585   3.034  10.634 -0.0611  0.2169  0.0004
  760MOL0     C 4807  -0.675   2.954  10.650  0.3652  0.4675  0.1462
  760MOL0     C 4808   0.034   3.378  10.709  0.2604 -0.1803  0.3913
  760MOL0     C 4809   0.122   3.470  10.659 -0.4835 -0.7337 -0.1894
  760MOL0     C 4810   0.258   3.417  10.635 -0.2786 -0.1849  0.7959
  760MOL0     H 4811   0.434   3.667  10.380  0.0878  0.5267 -1.8484
  760MOL0     H 4812   0.585   3.830  10.283  0.2310  1.7597 -2.7938
  760MOL0     H 4813   0.665   4.003  10.171 -0.8111 -1.0885  1.3942
  760MOL0     H 4814   0.752   4.083  10.306  0.6286 -0.3972 -0.6285
  760MOL0     H 4815   0.631   4.229  10.068 -0.8081 -1.4693  0.4858
  760MOL0     H 4816   0.723   4.301  10.203  1.4450 -1.2903  0.4495
  760MOL0     H 4817   0.859   4.080  10.052  2.3534  0.0787  0.4714
  760MOL0     H 4818   0.825   4.214   9.950  2.0812 -1.9599 -0.4901
  760MOL0     H 4819   0.946   4.360  10.077 -0.0642  1.7621  3.1043
  760MOL0     H 4820   0.976   4.263  10.217 -2.6367  1.7683  0.1693
  760MOL0     H 4821   1.068   4.184   9.939 -2.0685 -3.0076  0.5014
  760MOL0     H 4822   1.093   4.096  10.091 -2.4514 -0.4148 -0.2161
  760MOL0     H 4823   1.196   4.365  10.008  1.9104 -1.5667 -2.9259
  760MOL0     H 4824   1.237   4.297  10.170  1.8569  0.5340 -0.6648
  760MOL0     H 4825   1.291   4.171   9.899 -2.8609  1.1791  1.9153
  760MOL0     H 4826   1.344   4.089  10.054 -0.7063 -1.5839 -0.5756
  760MOL0     H 4827   1.424   4.382   9.976  3.5404  0.3673  1.8159
  760MOL0     H 4828   1.501   4.280  10.091  0.8656 -0.2896 -0.1307
  760MOL0     H 4829   1.446   4.138   9.723 -1.6265 -0.8423  1.9525
  760MOL0     H 4830   1.771   4.167   9.543  0.0140 -3.3978 -3.2749
  760MOL0     H 4831   1.619   4.078   9.539 -0.6015  2.0551  0.1371
  760MOL0     H 4832   1.774   3.931   9.726 -2.6813 -1.0120 -1.4034
  760MOL0     H 4833   1.734   3.890   9.561 -1.7791 -0.4450  0.7761
  760MOL0     H 4834   1.966   3.874   9.556  1.7413  0.5787  4.7177
  760MOL0     H 4835   1.929   4.013   9.460 -3.6187 -1.0751 -0.1079
  760MOL0     H 4836   1.994   4.159   9.674  0.3988 -0.9970  2.0930
  760MOL0     H 4837   2.019   3.999   9.738 -1.9231 -1.6243 -0.9916
  760MOL0     H 4838   2.172   4.146   9.826  0.6406 -0.2536  1.4686
  760MOL0     H 4839   2.404   4.254  10.026 -0.0636 -0.7357  1.5559
  760MOL0     H 4840   2.394   4.083  10.075  2.0007 -1.0090 -0.4346
  760MOL0     H 4841   2.252   4.173  10.022  0.9445 -0.6174 -0.2543
  760MOL0     H 4842   2.771   3.998  10.127 -1.6364  0.9985 -2.0507
  760MOL0     H 4843   2.994   3.981  10.225 -0.6739  0.6815 -0.8071
  760MOL0     H 4844   3.352   3.846   9.993  2.2442  0.8305 -0.7624
  760MOL0     H 4845   3.361   4.002   9.942  3.2617 -2.5257 -0.8645
  760MOL0     H 4846   3.466   4.072  10.159 -0.6533 -0.5271  3.9999
  760MOL0     H 4847   3.435   3.904  10.223 -0.1216 -1.0316 -0.8638
  760MOL0     H 4848   3.587   3.903   9.985  0.2590  1.4579  0.3734
  760MOL0     H 4849   3.592   3.802  10.132 -0.5939 -0.4668 -1.3588
  760MOL0     H 4850   3.686   4.022  10.249 -0.3596 -0.1314  0.2876
  760MOL0     H 4851   3.734   4.054  10.081 -0.8020  1.1709  0.8500
  760MOL0     H 4852   3.794   3.806  10.254  0.5584 -1.6935 -0.2771
  760MOL0     H 4853   3.829   3.803  10.086  0.0885  0.4611  0.4428
  760MOL0     H 4854   3.929   4.021  10.289 -0.7642  1.8290 -1.9162
  760MOL0     H 4855   3.951   4.032  10.117 -2.0971 -2.2805 -1.4586
  760MOL0     H 4856   4.052   3.800  10.125 -1.1383 -2.2801  1.1473
  760MOL0     H 4857   4.046   3.816  10.310  0.8141  0.5468  0.4905
  760MOL0     H 4858   4.279   3.864  10.237 -0.9273 -0.6993 -2.5024
  760MOL0     H 4859   4.194   3.982  10.330 -2.5148 -2.5159  1.2970
  760MOL0     H 4860   3.177   3.895   9.855  1.8382 -0.8770  3.1503
  760MOL0     H 4861   2.956   3.896   9.745 -0.8757  0.3865  0.3242
  760MOL0     H 4862   2.582   3.974   9.635 -0.8076  0.6353 -0.8870
  760MOL0     H 4863   2.369   3.966   9.501 -1.5454 -0.9843  0.0667
  760MOL0     H 4864   0.311   4.152  10.401 -0.4261 -0.7794 -3.0979
  760MOL0     H 4865   0.156   3.973  10.485 -1.2377  0.1867 -2.8464
  760MOL0     H 4866  -0.064   3.739  10.756 -0.4580  0.0810 -3.1900
  760MOL0     H 4867  -0.186   3.555  10.881  2.2855  1.1775  1.9914
  760MOL0     H 4868  -0.348   3.334  10.853 -1.2533  1.1076 -2.5713
  760MOL0     H 4869  -0.284   3.347  10.687 -0.0631  2.3662  1.0054
  760MOL0     H 4870  -0.373   3.106  10.831 -0.2172  2.7622  1.6444
  760MOL0     H 4871  -0.201   3.097  10.785  0.7052  2.4610  1.5009
  760MOL0     H 4872  -0.283   3.155  10.542  1.2968 -2.1333 -0.5337
  760MOL0     H 4873  -0.330   2.999  10.598 -0.5227 -0.3389 -0.0180
  760MOL0     H 4874  -0.510   3.176  10.500 -0.8231  1.0980  0.2808
  760MOL0     H 4875  -0.527   3.231  10.660  2.7421  1.3175 -0.6781
  760MOL0     H 4876  -0.741   2.874  10.679 -0.0115 -1.0678 -4.1924
  760MOL0     H 4877   0.059   3.274  10.722 -0.0348 -0.6669 -2.4315
  760MOL0     H 4878   0.318   3.507  10.616  2.0363 -1.8955 -0.5315
  760MOL0     H 4879   0.293   3.356  10.718 -0.8764 -0.1644  1.0642
  760MOL0     H 4880   0.258   3.361  10.541 -0.0667  3.3655 -1.5529
  761MOL0     O 4881  10.877   6.377   4.312 -0.0163 -0.8298 -0.5103
  761MOL0     C 4882  10.809   6.451   4.239  0.2923  0.1538  0.3734
  761MOL0     O 4883  10.861   6.516   4.128 -0.3075  0.3218 -0.8328
  761MOL0     C 4884  10.990   6.543   4.095 -0.7009 -0.0061  0.4185
  761MOL0     C 4885  11.089   6.558   4.192  0.6097  0.0986 -0.3127
  761MOL0     C 4886  11.219   6.590   4.153  0.7132  0.1257 -0.1550
  761MOL0     C 4887  11.250   6.620   4.024  0.3036  0.0079 -0.6577
  761MOL0     O 4888  11.385   6.643   4.001  0.2803 -0.0030  0.2998
  761MOL0     C 4889  11.407   6.694   3.870  0.8483  0.5224 -0.0392
  761MOL0     C 4890  11.549   6.750   3.852 -0.1182  0.1981  0.2706
  761MOL0     C 4891  11.575   6.877   3.935  0.5536  0.0839  0.5842
  761MOL0     C 4892  11.699   6.866   4.016  0.0454 -0.0116  0.2004
  761MOL0     C 4893  11.781   6.991   3.985 -1.0584 -0.1005 -0.4598
  761MOL0     C 4894  11.907   6.991   4.073 -0.4798 -0.1878  0.5845
  761MOL0     C 4895  11.983   7.126   4.065  0.2722  0.0771 -0.2873
  761MOL0     C 4896  12.053   7.145   4.199  0.2208  0.6376  0.0149
  761MOL0     N 4897  12.154   7.041   4.224 -0.7561 -0.9110 -0.1753
  761MOL0     C 4898  12.231   6.990   4.120 -1.1234  0.0327 -0.3171
  761MOL0     C 4899  12.347   6.934   4.178  0.3198  0.4354 -0.3408
  761MOL0     C 4900  12.468   6.856   4.124 -0.6271 -0.3750  1.3306
  761MOL0     C 4901  12.598   6.941   4.109 -0.7580  0.0969 -0.2808
  761MOL0     C 4902  12.725   6.850   4.085 -0.3946 -0.0324 -0.3172
  761MOL0     C 4903  12.774   6.782   4.211 -1.1712 -1.0152  0.4549
  761MOL0     O 4904  12.909   6.730   4.180  0.3925 -0.2492  0.0172
  761MOL0     C 4905  12.980   6.673   4.279 -0.8043  0.2012  0.4204
  761MOL0     C 4906  13.088   6.608   4.226 -0.0400  0.8962 -0.7090
  761MOL0     C 4907  13.189   6.563   4.312  1.0034 -0.2731 -0.5937
  761MOL0     C 4908  13.302   6.496   4.246 -0.0966  0.0253  0.0785
  761MOL0     C 4909  13.172   6.577   4.452  0.2567 -0.3483  0.7859
  761MOL0     C 4910  13.258   6.511   4.554 -0.4440 -0.4381 -0.6995
  761MOL0     O 4911  13.339   6.410   4.521 -0.6025 -0.3163  0.3901
  761MOL0     C 4912  13.431   6.372   4.605  0.7324 -0.4826 -0.0244
  761MOL0     C 4913  13.561   6.407   4.585 -0.7428 -0.0242  0.2617
  761MOL0     C 4914  13.663   6.348   4.659 -0.0781 -0.1488  0.4169
  761MOL0     C 4915  13.627   6.263   4.766 -0.0089  0.1426 -0.3972
  761MOL0     O 4916  13.730   6.236   4.852  1.1324  0.4591 -0.3312
  761MOL0     C 4917  13.752   6.099   4.898  0.3427  0.3556  0.2928
  761MOL0     C 4918  13.863   6.089   4.994  0.0313 -0.5759 -0.3520
  761MOL0     C 4919  14.000   6.137   4.946 -0.4329 -0.5090 -0.3461
  761MOL0     C 4920  14.099   6.151   5.064 -0.0210  0.1206 -0.1778
  761MOL0     C 4921  14.195   6.026   5.076 -0.7868  0.5539 -0.3848
  761MOL0     C 4922  14.319   6.060   5.167  0.1671 -0.5908 -0.4090
  761MOL0     C 4923  14.427   5.953   5.181 -0.0042  0.2297 -1.1759
  761MOL0     C 4924  14.514   5.944   5.059  0.0232  0.1567 -0.5866
  761MOL0    Cl 4925  14.584   6.099   5.023 -0.3261  0.0053 -0.3158
  761MOL0     C 4926  13.489   6.248   4.808 -1.0418 -0.1012  0.4628
  761MOL0     C 4927  13.401   6.294   4.715  0.1724  0.1839  0.1247
  761MOL0     O 4928  13.258   6.564   4.669 -0.0002  0.7045 -0.1015
  761MOL0     C 4929  13.066   6.649   4.501  0.1285  0.7561 -1.7519
  761MOL0     C 4930  12.968   6.701   4.417 -0.1070  0.5953 -0.5427
  761MOL0     N 4931  12.336   6.965   4.313  0.3840  0.9108 -0.2682
  761MOL0     N 4932  12.233   7.034   4.335 -0.5304 -0.4612  0.0311
  761MOL0     C 4933  11.141   6.606   3.928 -0.6554 -0.7400  0.2357
  761MOL0     C 4934  11.015   6.561   3.963  0.0721  0.2249  0.4903
  761MOL0     C 4935  10.662   6.449   4.257  0.0542  0.8733  0.2162
  761MOL0     C 4936  10.590   6.352   4.180  0.2424  0.2617  0.2403
  761MOL0     C 4937  10.447   6.350   4.196 -0.5453  0.1807  0.6016
  761MOL0     C 4938  10.380   6.446   4.279  0.2222  0.7847  0.6301
  761MOL0     O 4939  10.241   6.447   4.285 -0.1148  0.1426  0.4407
  761MOL0     C 4940  10.158   6.344   4.228 -0.3810  0.3910  0.7985
  761MOL0     C 4941  10.008   6.393   4.223 -0.5090  0.3066 -0.0831
  761MOL0     C 4942   9.939   6.380   4.365 -0.1483 -0.5880  1.0853
  761MOL0     C 4943   9.803   6.450   4.372  0.8198  0.0036  0.2513
  761MOL0     C 4944   9.696   6.390   4.290  1.1128 -0.0268 -0.0037
  761MOL0     C 4945   9.625   6.333   4.216  0.8220  1.1789  0.0226
  761MOL0     C 4946  10.457   6.551   4.334  0.5125 -0.0782 -0.8471
  761MOL0     C 4947  10.597   6.552   4.325 -0.0130  0.0189  0.0094
  761MOL0     C 4948  10.674   6.681   4.380 -0.2962 -0.3967 -0.4444
  761MOL0     H 4949  11.068   6.544   4.297 -4.3783 -0.2824 -1.1145
  761MOL0     H 4950  11.279   6.611   4.241 -2.6501 -0.6496  2.5431
  761MOL0     H 4951  11.345   6.782   3.853  0.2676  0.2930  0.8412
  761MOL0     H 4952  11.379   6.624   3.791  0.6565  1.7060 -1.0541
  761MOL0     H 4953  11.620   6.667   3.863 -0.2765 -0.1763 -1.2332
  761MOL0     H 4954  11.577   6.790   3.754  3.2711 -0.0969  0.9927
  761MOL0     H 4955  11.583   6.963   3.867  0.6551  0.1561  0.6862
  761MOL0     H 4956  11.496   6.896   4.007  2.2262 -0.4063  2.6395
  761MOL0     H 4957  11.667   6.869   4.120  3.2059  0.1328  1.2630
  761MOL0     H 4958  11.763   6.784   3.981  0.2520  0.2567 -0.0538
  761MOL0     H 4959  11.715   7.074   4.009 -0.4905 -0.3335  2.2470
  761MOL0     H 4960  11.826   6.991   3.885  2.0265 -2.1449  0.7550
  761MOL0     H 4961  11.874   6.976   4.176  0.6435  0.7465  1.0981
  761MOL0     H 4962  11.965   6.903   4.044 -1.0937  0.1246 -1.8677
  761MOL0     H 4963  11.919   7.213   4.047  1.0282  0.7452  0.1965
  761MOL0     H 4964  12.053   7.109   3.982 -0.7951 -4.8699 -0.4611
  761MOL0     H 4965  12.106   7.241   4.193  0.5564  0.3738 -2.2119
  761MOL0     H 4966  11.991   7.144   4.289 -0.6469  2.1897 -0.5123
  761MOL0     H 4967  12.204   6.975   4.016 -0.8116  2.1726 -0.7437
  761MOL0     H 4968  12.448   6.831   4.019  1.7031 -1.6592  1.1252
  761MOL0     H 4969  12.483   6.768   4.188  0.1933 -3.1973 -2.3558
  761MOL0     H 4970  12.583   7.013   4.028 -0.9929  1.2502  0.7640
  761MOL0     H 4971  12.617   7.007   4.194 -1.5255  0.9965 -0.7917
  761MOL0     H 4972  12.705   6.782   4.002 -2.9472  0.8200 -0.4728
  761MOL0     H 4973  12.807   6.916   4.053  0.9717 -0.7497  1.4984
  761MOL0     H 4974  12.773   6.851   4.295  0.0049 -0.7924  0.3028
  761MOL0     H 4975  12.703   6.701   4.226 -0.6752 -1.4708  0.3910
  761MOL0     H 4976  13.117   6.601   4.122 -1.2119 -1.3345 -0.9473
  761MOL0     H 4977  13.289   6.484   4.138  2.0110 -2.1770 -0.0088
  761MOL0     H 4978  13.311   6.396   4.289 -1.4011 -0.2015 -0.1124
  761MOL0     H 4979  13.392   6.554   4.268 -1.0050  0.4362  3.1121
  761MOL0     H 4980  13.586   6.474   4.503  1.9687 -1.0588  0.1536
  761MOL0     H 4981  13.770   6.362   4.647  0.3318 -2.7693  0.4454
  761MOL0     H 4982  13.667   6.061   4.954  1.2831 -1.8511  0.3106
  761MOL0     H 4983  13.776   6.032   4.815  2.1596 -1.3558  2.0713
  761MOL0     H 4984  13.835   6.145   5.083  3.2818  1.3875 -0.3995
  761MOL0     H 4985  13.872   5.982   5.017 -0.5458 -0.8971 -1.5326
  761MOL0     H 4986  13.989   6.239   4.908 -2.2742 -0.6901 -0.4243
  761MOL0     H 4987  14.042   6.070   4.871 -1.5153 -0.7437 -0.7695
  761MOL0     H 4988  14.051   6.172   5.160 -0.2034 -1.7269  0.1624
  761MOL0     H 4989  14.156   6.238   5.029 -2.0813  2.7449  2.4315
  761MOL0     H 4990  14.144   5.940   5.121 -1.8637  0.4077 -1.8409
  761MOL0     H 4991  14.240   5.986   4.985 -0.1161 -1.1526  0.6394
  761MOL0     H 4992  14.277   6.073   5.267  1.9214  2.6555  0.0197
  761MOL0     H 4993  14.359   6.159   5.146 -2.0903  0.9061  1.7860
  761MOL0     H 4994  14.382   5.856   5.206  0.3899 -0.3532 -2.6319
  761MOL0     H 4995  14.494   5.968   5.266 -3.0739 -0.6456  1.6221
  761MOL0     H 4996  14.458   5.918   4.969 -1.0785 -0.2584  0.1975
  761MOL0     H 4997  14.596   5.877   5.087 -0.4754 -2.0186 -3.7214
  761MOL0     H 4998  13.457   6.206   4.903 -0.7064  1.0392  1.0961
  761MOL0     H 4999  13.295   6.272   4.729  0.3183 -0.8443 -0.3115
  761MOL0     H 5000  13.053   6.662   4.608 -0.9316 -1.0819 -1.6244
  761MOL0     H 5001  12.882   6.758   4.453  1.8715  2.7432  1.1367
  761MOL0     H 5002  11.156   6.612   3.820 -0.4436 -3.5482  0.0113
  761MOL0     H 5003  10.942   6.541   3.885  1.3846 -0.8504 -0.5106
  761MOL0     H 5004  10.638   6.275   4.120  0.6738 -0.6464  1.7026
  761MOL0     H 5005  10.385   6.274   4.150 -1.8867  0.0321  2.5487
  761MOL0     H 5006  10.184   6.312   4.127 -0.3424 -2.3305  1.5882
  761MOL0     H 5007  10.179   6.255   4.288  3.7344  1.0594  0.6327
  761MOL0     H 5008   9.953   6.342   4.143 -1.7240  0.2647  0.7562
  761MOL0     H 5009  10.021   6.498   4.195  1.6183 -0.3415 -1.8190
  761MOL0     H 5010   9.923   6.278   4.403 -2.2479 -0.4206  0.7862
  761MOL0     H 5011  10.006   6.428   4.437  1.2344 -0.1585 -0.4404
  761MOL0     H 5012   9.833   6.548   4.335  0.9655 -0.1279  0.0196
  761MOL0     H 5013   9.762   6.452   4.474 -2.1862  1.8554 -0.8609
  761MOL0     H 5014   9.569   6.270   4.150  0.7829  1.2730 -0.0341
  761MOL0     H 5015  10.412   6.635   4.387  0.7753  0.0190 -0.7761
  761MOL0     H 5016  10.778   6.665   4.409 -0.7338 -3.3292 -0.2466
  761MOL0     H 5017  10.679   6.755   4.299  1.6868 -0.4202 -0.3788
  761MOL0     H 5018  10.629   6.716   4.473  1.5787 -0.1085  0.3797
  762MOL0     O 5019   5.326   6.135   8.997 -0.2613 -0.1163 -0.0543
  762MOL0     C 5020   5.262   6.122   8.887 -0.1961 -0.5871 -0.2948
  762MOL0     O 5021   5.316   6.120   8.769  0.4525 -0.5644 -0.0530
  762MOL0     C 5022   5.450   6.129   8.749  0.7649  1.1027  0.3737
  762MOL0     C 5023   5.556   6.084   8.833  0.3273 -0.1006 -0.2429
  762MOL0     C 5024   5.687   6.091   8.786  0.2722 -0.6824 -0.5644
  762MOL0     C 5025   5.724   6.150   8.662  0.1746 -0.4845  0.7190
  762MOL0     O 5026   5.847   6.152   8.605  0.0273  0.1307 -0.4311
  762MOL0     C 5027   5.961   6.127   8.692 -0.6638 -0.2477  0.4689
  762MOL0     C 5028   6.084   6.192   8.629 -0.4010 -0.2778  0.6221
  762MOL0     C 5029   6.059   6.312   8.538 -1.3790 -0.4978 -0.5393
  762MOL0     C 5030   6.012   6.433   8.623  0.3876 -0.4995 -0.3151
  762MOL0     C 5031   5.929   6.533   8.540 -0.3455  0.1317 -0.2229
  762MOL0     C 5032   5.897   6.669   8.625 -0.6911 -1.0873  0.5032
  762MOL0     C 5033   5.804   6.636   8.746  0.9418 -0.1880 -0.5841
  762MOL0     C 5034   5.752   6.753   8.827 -1.4557  0.3149  0.4909
  762MOL0     N 5035   5.855   6.858   8.858  0.7925  0.6617 -0.0039
  762MOL0     C 5036   5.970   6.848   8.922  0.1302 -0.8629  0.1224
  762MOL0     C 5037   6.040   6.966   8.907 -0.2106  0.3253 -0.2837
  762MOL0     C 5038   6.179   6.990   8.944 -0.6944 -0.6466  0.1746
  762MOL0     C 5039   6.275   6.907   8.860  0.7125  0.9800 -0.6797
  762MOL0     C 5040   6.413   6.937   8.911  1.1522  1.2360 -0.0171
  762MOL0     C 5041   6.534   6.880   8.842  1.2414 -0.7559  0.1433
  762MOL0     O 5042   6.645   6.913   8.931 -0.2464 -1.2760 -0.1180
  762MOL0     C 5043   6.778   6.891   8.896  0.3210 -0.2241  0.3425
  762MOL0     C 5044   6.871   6.943   8.980 -0.1115  1.4151 -1.0410
  762MOL0     C 5045   7.005   6.910   8.978  0.7983  0.4680 -0.8445
  762MOL0     C 5046   7.081   6.962   9.092 -0.0224  0.2991  0.7056
  762MOL0     C 5047   7.055   6.839   8.865  0.3302  0.7129  0.5479
  762MOL0     C 5048   7.191   6.787   8.849  0.5642  0.7475 -0.5271
  762MOL0     O 5049   7.215   6.677   8.768  0.3739  0.3791  0.4941
  762MOL0     C 5050   7.344   6.624   8.752  0.2561  0.2317 -0.2727
  762MOL0     C 5051   7.468   6.648   8.811  1.0214 -0.4957 -0.1120
  762MOL0     C 5052   7.590   6.602   8.769 -0.6236  0.4542  0.4313
  762MOL0     C 5053   7.587   6.496   8.670 -0.4919 -0.1612 -0.2517
  762MOL0     O 5054   7.692   6.433   8.620  0.0660 -0.2177  0.1550
  762MOL0     C 5055   7.755   6.468   8.500  0.1643 -0.1049 -0.9526
  762MOL0     C 5056   7.888   6.534   8.533  0.4735  0.7710  0.0834
  762MOL0     C 5057   7.996   6.437   8.554  1.1734  0.8624 -0.1148
  762MOL0     C 5058   7.982   6.357   8.686 -0.0594  0.9083  0.8931
  762MOL0     C 5059   8.105   6.278   8.721  0.2199 -0.4105  0.2515
  762MOL0     C 5060   8.106   6.208   8.853  0.5160 -0.6211  0.0715
  762MOL0     C 5061   8.233   6.137   8.888 -0.7806 -0.0333  0.2803
  762MOL0     C 5062   8.237   6.081   9.020  0.2466  1.0347  0.5796
  762MOL0    Cl 5063   8.129   5.931   9.030 -0.0247 -0.0459  0.2179
  762MOL0     C 5064   7.464   6.461   8.625 -1.3252 -0.2468 -0.2527
  762MOL0     C 5065   7.350   6.520   8.659 -0.4137  0.6232 -0.3266
  762MOL0     O 5066   7.275   6.844   8.912 -0.4997 -0.5629  0.5377
  762MOL0     C 5067   6.957   6.800   8.761 -0.4261 -0.2796 -0.6457
  762MOL0     C 5068   6.821   6.828   8.783 -0.1927  0.2185 -0.7029
  762MOL0     N 5069   5.968   7.040   8.814 -0.9778  0.6342 -0.9997
  762MOL0     N 5070   5.857   6.984   8.794  0.6678  0.1207  0.2133
  762MOL0     C 5071   5.625   6.197   8.585  0.4651  0.1858 -0.0725
  762MOL0     C 5072   5.491   6.189   8.630 -0.0566 -0.0666  0.1585
  762MOL0     C 5073   5.113   6.084   8.887  0.3741 -0.9606 -0.3825
  762MOL0     C 5074   5.061   6.030   8.766 -0.4318  0.1984 -0.2068
  762MOL0     C 5075   4.930   5.995   8.752 -0.5165  0.7124  0.4610
  762MOL0     C 5076   4.846   6.001   8.867 -0.3491 -0.0032  0.6946
  762MOL0     O 5077   4.722   5.934   8.876 -0.2104 -0.1434 -0.4410
  762MOL0     C 5078   4.673   5.863   8.761 -0.8303  0.1419 -0.3340
  762MOL0     C 5079   4.540   5.798   8.793  0.3894  0.0379  0.5167
  762MOL0     C 5080   4.424   5.895   8.816  0.6212  1.1445 -0.1025
  762MOL0     C 5081   4.439   6.008   8.715  0.0957 -0.1761 -0.9457
  762MOL0     C 5082   4.321   6.091   8.707  0.4011  0.3400 -0.2487
  762MOL0     C 5083   4.228   6.164   8.711 -0.3845 -0.1679  0.7485
  762MOL0     C 5084   4.896   6.051   8.985  0.3017  0.3602 -0.4135
  762MOL0     C 5085   5.021   6.095   8.998  0.3951  0.5500  0.3436
  762MOL0     C 5086   5.062   6.133   9.142  0.1745 -0.0553 -0.0461
  762MOL0     H 5087   5.538   6.033   8.927  1.8185 -2.8646 -1.3483
  762MOL0     H 5088   5.763   6.057   8.855  1.5116  0.1505 -1.4845
  762MOL0     H 5089   5.985   6.021   8.708  3.3149 -0.2170 -3.4770
  762MOL0     H 5090   5.959   6.180   8.788 -0.3236  1.6866 -0.5615
  762MOL0     H 5091   6.165   6.198   8.702 -0.1056 -1.5516  0.4140
  762MOL0     H 5092   6.128   6.120   8.560 -1.8029 -1.1541  0.5949
  762MOL0     H 5093   6.145   6.340   8.477 -1.2829  1.0122  0.2249
  762MOL0     H 5094   5.975   6.296   8.470  1.3227  1.3075 -4.6678
  762MOL0     H 5095   5.943   6.401   8.701 -2.5213  1.2443 -1.9776
  762MOL0     H 5096   6.093   6.485   8.675 -1.5517  1.7898  0.6246
  762MOL0     H 5097   5.830   6.489   8.525 -0.1637 -1.2040  2.0230
  762MOL0     H 5098   5.977   6.551   8.443  2.9338 -0.3902  1.1743
  762MOL0     H 5099   5.995   6.709   8.653 -0.9410 -1.7009  2.4105
  762MOL0     H 5100   5.838   6.748   8.577  0.5055  0.9315  2.1965
  762MOL0     H 5101   5.849   6.564   8.815 -1.8046 -0.8053  0.7390
  762MOL0     H 5102   5.715   6.593   8.700  0.0185  1.1385 -0.1267
  762MOL0     H 5103   5.681   6.807   8.764  0.4996 -0.4218 -2.5693
  762MOL0     H 5104   5.700   6.723   8.918  2.1281 -0.0718  2.5970
  762MOL0     H 5105   6.014   6.761   8.970  1.7092 -0.0294  0.2599
  762MOL0     H 5106   6.209   6.969   9.047 -1.0913 -1.7007  0.0906
  762MOL0     H 5107   6.215   7.093   8.930  1.6987 -1.6854 -2.3014
  762MOL0     H 5108   6.263   6.801   8.884  3.5975  1.1360  2.0890
  762MOL0     H 5109   6.273   6.925   8.752  1.4394 -1.0199 -1.0827
  762MOL0     H 5110   6.423   7.045   8.897  1.2322  0.9160 -2.9486
  762MOL0     H 5111   6.426   6.907   9.016  0.9155 -4.5860 -1.3170
  762MOL0     H 5112   6.518   6.772   8.827  1.1704 -0.5905 -1.0561
  762MOL0     H 5113   6.537   6.919   8.740  1.2768 -1.9810 -0.3443
  762MOL0     H 5114   6.829   7.011   9.053 -2.0855 -1.1725  0.4151
  762MOL0     H 5115   7.172   6.903   9.101 -1.2123 -1.9926 -1.0136
  762MOL0     H 5116   7.020   6.968   9.182  0.4215 -1.9231  1.1987
  762MOL0     H 5117   7.120   7.058   9.058 -1.7458  0.1432 -2.0931
  762MOL0     H 5118   7.467   6.729   8.883 -1.1023  0.8481 -1.5492
  762MOL0     H 5119   7.688   6.639   8.798  0.2972 -0.3328 -1.4735
  762MOL0     H 5120   7.772   6.379   8.439 -0.5489 -0.2360 -0.9607
  762MOL0     H 5121   7.691   6.541   8.450 -0.8052 -1.2998 -1.5035
  762MOL0     H 5122   7.906   6.595   8.444  1.8051  0.9648  0.4766
  762MOL0     H 5123   7.873   6.604   8.616 -1.1943  0.4582  0.0942
  762MOL0     H 5124   8.095   6.484   8.549  2.2595 -1.1085  1.2515
  762MOL0     H 5125   7.992   6.361   8.475  3.7261  0.7942 -0.2695
  762MOL0     H 5126   7.900   6.288   8.665 -1.6921  3.0508 -0.0757
  762MOL0     H 5127   7.960   6.435   8.760 -1.1616  2.3613 -0.8940
  762MOL0     H 5128   8.121   6.207   8.639  0.4280  0.5717 -0.5756
  762MOL0     H 5129   8.184   6.352   8.711 -1.9169  1.8805 -1.0194
  762MOL0     H 5130   8.028   6.131   8.849 -0.9491  0.8370 -0.1750
  762MOL0     H 5131   8.064   6.273   8.929 -0.9236 -2.5621  1.0192
  762MOL0     H 5132   8.321   6.202   8.878 -0.4287 -0.7278 -1.5752
  762MOL0     H 5133   8.251   6.061   8.810  3.0840  0.8627  0.1091
  762MOL0     H 5134   8.203   6.155   9.094 -0.8166  4.0524 -2.6596
  762MOL0     H 5135   8.339   6.045   9.033 -0.0831  0.3360  1.3814
  762MOL0     H 5136   7.448   6.375   8.561 -2.9192  1.2956 -2.0515
  762MOL0     H 5137   7.260   6.479   8.616  2.1431 -4.4425 -1.5687
  762MOL0     H 5138   6.994   6.733   8.683 -0.1051 -0.8682 -0.0038
  762MOL0     H 5139   6.753   6.786   8.710 -2.8882  1.4436  0.9302
  762MOL0     H 5140   5.659   6.237   8.490  2.7871  0.4645  0.8224
  762MOL0     H 5141   5.409   6.224   8.568 -1.0585 -2.9442 -0.2964
  762MOL0     H 5142   5.113   5.994   8.678 -1.7146 -1.4484 -0.3481
  762MOL0     H 5143   4.892   5.945   8.663  0.6715  1.9650 -0.8127
  762MOL0     H 5144   4.661   5.922   8.670 -0.6885  0.1553 -0.3444
  762MOL0     H 5145   4.750   5.788   8.740  0.4952  1.6673 -1.1094
  762MOL0     H 5146   4.558   5.745   8.887 -0.5236  0.9691  1.2355
  762MOL0     H 5147   4.509   5.736   8.708 -2.1326  3.5184 -1.3555
  762MOL0     H 5148   4.325   5.851   8.805  1.1060 -0.1568  0.5557
  762MOL0     H 5149   4.437   5.930   8.919 -1.1487 -1.5583  1.1392
  762MOL0     H 5150   4.456   5.969   8.615 -2.5479  2.1789 -2.4602
  762MOL0     H 5151   4.524   6.077   8.728  0.2102 -0.6305  1.0741
  762MOL0     H 5152   4.147   6.232   8.733 -0.3833  0.7816 -1.8813
  762MOL0     H 5153   4.830   6.042   9.071  0.0708  0.4263 -0.5850
  762MOL0     H 5154   4.981   6.121   9.214 -0.7903  0.9565 -0.9042
  762MOL0     H 5155   5.145   6.074   9.182  0.6130  1.0313  0.6875
  762MOL0     H 5156   5.097   6.236   9.128 -0.1987  0.3115  1.5613
  763MOL0     O 5157  11.302   5.641   3.122  0.4028 -0.2218 -1.3051
  763MOL0     C 5158  11.415   5.680   3.148 -1.0435  0.1712 -0.0224
  763MOL0     O 5159  11.467   5.804   3.109 -0.2899 -0.1603 -0.2457
  763MOL0     C 5160  11.391   5.885   3.029  0.4309  0.1801 -0.2563
  763MOL0     C 5161  11.403   6.020   3.058  0.0044 -0.5412  0.0755
  763MOL0     C 5162  11.329   6.112   2.972  0.1060 -0.0042 -0.4176
  763MOL0     C 5163  11.243   6.068   2.867  0.1926  1.3280  0.5627
  763MOL0     O 5164  11.167   6.155   2.795  0.2903  0.3504  0.1233
  763MOL0     C 5165  11.026   6.149   2.818  0.1492  0.0396 -0.5682
  763MOL0     C 5166  10.983   6.281   2.881 -0.6460  0.7942 -0.1714
  763MOL0     C 5167  11.017   6.408   2.800  0.1229  0.4280 -0.6129
  763MOL0     C 5168  11.012   6.528   2.902 -0.0530 -0.4035 -0.3109
  763MOL0     C 5169  11.051   6.660   2.844  0.0859  0.8563  0.0875
  763MOL0     C 5170  11.031   6.764   2.950 -0.2013 -1.1964 -0.4171
  763MOL0     C 5171  11.048   6.904   2.878 -0.6282 -0.5957 -1.0565
  763MOL0     C 5172  11.046   7.014   2.977 -0.3713 -0.2634  0.3028
  763MOL0     N 5173  11.076   7.153   2.922  0.0902 -0.6054  0.3689
  763MOL0     C 5174  11.129   7.252   2.998  0.5679 -0.3307  0.1900
  763MOL0     C 5175  11.152   7.357   2.914  0.1985  0.6064  0.9018
  763MOL0     C 5176  11.218   7.490   2.957 -0.7043  0.6320 -0.1266
  763MOL0     C 5177  11.375   7.476   2.960 -0.0048  0.7145 -0.1527
  763MOL0     C 5178  11.455   7.597   3.010  0.3646 -0.3441  0.1845
  763MOL0     C 5179  11.603   7.585   2.980  0.0492  0.3515 -0.0130
  763MOL0     O 5180  11.609   7.569   2.841  0.3385  0.6621  0.2857
  763MOL0     C 5181  11.729   7.546   2.784 -0.9296 -0.2981  0.7393
  763MOL0     C 5182  11.729   7.481   2.661 -1.1387 -0.2501  0.1461
  763MOL0     C 5183  11.853   7.460   2.593  0.2645 -0.6081  0.5972
  763MOL0     C 5184  11.841   7.394   2.455 -0.5724 -0.0468 -0.4930
  763MOL0     C 5185  11.973   7.507   2.646  0.4355  0.0064  0.7462
  763MOL0     C 5186  12.104   7.500   2.577  0.3230  0.1534 -0.2241
  763MOL0     O 5187  12.205   7.550   2.649  0.2861 -0.1708 -0.3806
  763MOL0     C 5188  12.337   7.547   2.609  0.7102  0.2173 -0.2564
  763MOL0     C 5189  12.425   7.629   2.695  0.4020 -0.0941 -0.1498
  763MOL0     C 5190  12.556   7.647   2.675  0.7830  0.1314 -0.7645
  763MOL0     C 5191  12.613   7.588   2.567 -0.4758 -0.3957 -0.8548
  763MOL0     O 5192  12.751   7.607   2.551  0.6033  0.7240 -0.0344
  763MOL0     C 5193  12.832   7.540   2.459 -0.1784 -0.2915 -0.7113
  763MOL0     C 5194  12.978   7.594   2.464  0.0883 -0.9718 -0.1125
  763MOL0     C 5195  12.988   7.738   2.414 -0.0205  0.1099 -0.1207
  763MOL0     C 5196  13.122   7.806   2.408  0.4313 -0.5711 -0.7141
  763MOL0     C 5197  13.127   7.933   2.323  0.0263 -0.6605  0.9053
  763MOL0     C 5198  13.259   8.009   2.345 -0.3549 -0.1426  0.5628
  763MOL0     C 5199  13.389   7.920   2.330  0.3720 -0.6157 -0.1857
  763MOL0     C 5200  13.503   8.010   2.295 -0.2374 -0.5574  0.2184
  763MOL0    Cl 5201  13.535   8.115   2.433 -0.2005 -0.0862 -0.2277
  763MOL0     C 5202  12.541   7.512   2.478  0.3619  0.8932 -0.0150
  763MOL0     C 5203  12.405   7.495   2.492  0.6275 -0.1999 -0.3329
  763MOL0     O 5204  12.118   7.458   2.463  0.1716  0.4371 -0.9375
  763MOL0     C 5205  11.966   7.568   2.774  0.2116 -0.1019  0.1495
  763MOL0     C 5206  11.848   7.587   2.834 -0.4119  0.3428 -0.5585
  763MOL0     N 5207  11.117   7.323   2.784 -0.3649 -0.2164 -0.4205
  763MOL0     N 5208  11.068   7.203   2.789  0.3896 -0.1378  0.1699
  763MOL0     C 5209  11.236   5.930   2.846 -0.1208  1.1035 -0.2410
  763MOL0     C 5210  11.308   5.837   2.924 -0.4626 -0.7343 -0.3069
  763MOL0     C 5211  11.511   5.586   3.215 -0.6356  0.9521  0.3696
  763MOL0     C 5212  11.618   5.528   3.147  0.5189 -0.2476 -0.7336
  763MOL0     C 5213  11.706   5.435   3.210  0.3132  0.0904 -0.7534
  763MOL0     C 5214  11.688   5.393   3.346 -0.6757  0.7964 -0.8114
  763MOL0     O 5215  11.772   5.294   3.394 -0.1040 -0.4652  0.5180
  763MOL0     C 5216  11.760   5.240   3.527  0.6825  0.3965  0.2359
  763MOL0     C 5217  11.886   5.171   3.569  1.1381  0.5367  0.5219
  763MOL0     C 5218  12.008   5.261   3.567  0.0033  0.3915  0.4077
  763MOL0     C 5219  12.128   5.186   3.630  0.8840 -0.0030  0.8852
  763MOL0     C 5220  12.133   5.189   3.778  0.3178  0.9117  0.5089
  763MOL0     C 5221  12.141   5.208   3.900 -0.5685  0.4126 -0.0668
  763MOL0     C 5222  11.589   5.469   3.418 -0.9397  0.1562 -0.4657
  763MOL0     C 5223  11.511   5.568   3.359 -0.8957 -0.0056  0.7820
  763MOL0     C 5224  11.426   5.654   3.442  0.3100 -0.0873 -0.5679
  763MOL0     H 5225  11.465   6.047   3.143 -1.4376 -1.7408  1.5649
  763MOL0     H 5226  11.347   6.218   2.987  0.8990 -0.4851  2.7087
  763MOL0     H 5227  11.004   6.066   2.885  3.7081 -0.5451  0.0392
  763MOL0     H 5228  10.969   6.135   2.726  0.9046 -0.8927 -0.9031
  763MOL0     H 5229  10.874   6.273   2.879 -0.6565  0.4776 -2.5852
  763MOL0     H 5230  11.018   6.282   2.984  1.3991  2.0298 -0.8124
  763MOL0     H 5231  11.113   6.402   2.749  0.7419 -0.6859  0.6275
  763MOL0     H 5232  10.937   6.407   2.726  1.2934  0.4591 -1.9040
  763MOL0     H 5233  10.910   6.545   2.937  0.0421 -0.0132 -0.2224
  763MOL0     H 5234  11.078   6.501   2.985  1.2072 -0.1402 -1.1963
  763MOL0     H 5235  10.987   6.677   2.757  2.9806  1.5012 -2.1061
  763MOL0     H 5236  11.153   6.663   2.805 -0.0757  2.9674 -0.3169
  763MOL0     H 5237  10.929   6.770   2.989  0.1985 -0.8050  0.6198
  763MOL0     H 5238  11.105   6.762   3.031 -2.5008  1.2028  1.9563
  763MOL0     H 5239  10.967   6.911   2.804 -1.4022 -1.3849 -0.3065
  763MOL0     H 5240  11.142   6.898   2.822 -0.6368  0.1969 -1.1779
  763MOL0     H 5241  10.942   7.007   3.011 -0.7761 -2.2805 -1.1445
  763MOL0     H 5242  11.121   6.993   3.054  0.9787  2.8753 -0.0018
  763MOL0     H 5243  11.134   7.253   3.107  3.7327  0.5733  0.1391
  763MOL0     H 5244  11.179   7.523   3.053  1.2119 -0.4307  1.0815
  763MOL0     H 5245  11.190   7.565   2.883 -4.2677 -0.1914  0.1688
  763MOL0     H 5246  11.407   7.391   3.020  1.1364  2.2193  1.4635
  763MOL0     H 5247  11.402   7.458   2.855  3.0710  0.4263  0.6112
  763MOL0     H 5248  11.417   7.691   2.971  2.6269  0.7130  0.3442
  763MOL0     H 5249  11.434   7.596   3.117 -1.0610 -1.4582 -0.0698
  763MOL0     H 5250  11.658   7.678   2.996  2.0568 -0.3383 -2.2559
  763MOL0     H 5251  11.655   7.508   3.038  1.3104  1.6227  0.5855
  763MOL0     H 5252  11.631   7.473   2.616 -0.8444  2.8631 -1.3602
  763MOL0     H 5253  11.851   7.473   2.379  3.0506  1.5797  1.4420
  763MOL0     H 5254  11.751   7.332   2.451 -0.1650 -0.7721  1.0083
  763MOL0     H 5255  11.924   7.324   2.444 -1.0238 -0.9918  1.7212
  763MOL0     H 5256  12.389   7.662   2.792  2.4910 -0.4027  0.7847
  763MOL0     H 5257  12.618   7.702   2.745  0.4390  2.1377 -1.9607
  763MOL0     H 5258  12.842   7.432   2.475  3.0597  0.0119  0.1113
  763MOL0     H 5259  12.785   7.549   2.361 -1.2358  0.4841 -0.1572
  763MOL0     H 5260  13.031   7.594   2.560  2.0096  0.0568 -1.1156
  763MOL0     H 5261  13.037   7.541   2.389 -0.5192 -1.7412 -0.0505
  763MOL0     H 5262  12.922   7.793   2.482 -0.3334 -0.9839  0.4785
  763MOL0     H 5263  12.950   7.745   2.312 -1.0863 -1.0787  0.1739
  763MOL0     H 5264  13.191   7.729   2.373  0.4743 -0.7080 -0.3373
  763MOL0     H 5265  13.154   7.826   2.511 -1.0797  4.5028 -0.9492
  763MOL0     H 5266  13.105   7.922   2.216  2.4180 -0.8637  0.3799
  763MOL0     H 5267  13.058   8.007   2.363 -2.3789 -2.2988  0.0266
  763MOL0     H 5268  13.259   8.066   2.438  1.9409 -0.4994  0.8445
  763MOL0     H 5269  13.258   8.086   2.267 -0.0329 -0.1291  0.5710
  763MOL0     H 5270  13.365   7.849   2.250 -2.5385 -1.1199  1.0049
  763MOL0     H 5271  13.411   7.867   2.423 -0.6021  3.1442  2.3948
  763MOL0     H 5272  13.483   8.067   2.204  0.9157  2.1472  1.5629
  763MOL0     H 5273  13.590   7.946   2.274  0.2921  0.1577  0.2182
  763MOL0     H 5274  12.588   7.472   2.388 -1.6622  0.1745 -0.8323
  763MOL0     H 5275  12.358   7.431   2.418 -0.1998 -3.9826  3.1075
  763MOL0     H 5276  12.050   7.624   2.812 -0.8214  1.3079  0.4392
  763MOL0     H 5277  11.861   7.639   2.928  1.6691 -0.5709 -0.2823
  763MOL0     H 5278  11.168   5.895   2.768  0.6741 -3.1663  0.7288
  763MOL0     H 5279  11.324   5.738   2.882  0.0821 -0.2844 -1.1925
  763MOL0     H 5280  11.619   5.554   3.041  0.8651  2.8400 -0.0604
  763MOL0     H 5281  11.776   5.367   3.161  0.1971  0.8096 -1.9304
  763MOL0     H 5282  11.731   5.321   3.594  3.0291  1.3942  0.1300
  763MOL0     H 5283  11.683   5.164   3.514  0.3128  1.2806 -4.1809
  763MOL0     H 5284  11.912   5.095   3.495 -0.2513  1.7681 -1.3126
  763MOL0     H 5285  11.881   5.116   3.664  0.1287 -0.3744 -0.0367
  763MOL0     H 5286  12.026   5.272   3.459  0.4982 -1.1329  0.3102
  763MOL0     H 5287  11.976   5.351   3.620 -3.5424  0.0422 -0.8424
  763MOL0     H 5288  12.223   5.223   3.590  0.9379 -2.9616 -2.2349
  763MOL0     H 5289  12.127   5.080   3.603  0.6382  0.6271 -1.8494
  763MOL0     H 5290  12.134   5.222   4.006 -0.4824 -2.6745  0.4344
  763MOL0     H 5291  11.590   5.461   3.526  1.4218  4.0038 -0.0267
  763MOL0     H 5292  11.386   5.596   3.526  0.8426  1.1255  0.5689
  763MOL0     H 5293  11.483   5.730   3.497 -1.3873  0.3258  0.7159
  763MOL0     H 5294  11.344   5.700   3.386  0.0440 -0.4296 -0.4593
  764MOL0     O 5295   6.901   5.362   1.676 -0.6777  0.1671 -0.1193
  764MOL0     C 5296   6.870   5.480   1.658 -0.2973 -0.3896  0.8035
  764MOL0     O 5297   6.951   5.587   1.692  0.0362 -0.1947 -0.1107
  764MOL0     C 5298   7.084   5.590   1.712 -0.2137  0.4824 -0.2265
  764MOL0     C 5299   7.168   5.681   1.646  0.3339 -0.1758  0.3398
  764MOL0     C 5300   7.302   5.692   1.680  0.0939 -0.5202 -0.4224
  764MOL0     C 5301   7.360   5.615   1.779  1.0857 -0.5058 -0.2818
  764MOL0     O 5302   7.496   5.617   1.793  0.4120 -0.2615  0.3465
  764MOL0     C 5303   7.559   5.500   1.840 -0.7498  0.5602 -0.2390
  764MOL0     C 5304   7.707   5.488   1.793  0.3991  0.7423  0.0151
  764MOL0     C 5305   7.790   5.420   1.896 -0.1932 -0.5158 -1.2705
  764MOL0     C 5306   7.928   5.387   1.835 -0.7857 -0.5890 -0.5892
  764MOL0     C 5307   8.018   5.291   1.909  0.1747  0.2540 -0.5351
  764MOL0     C 5308   8.155   5.283   1.838 -0.6094 -0.2725  0.0113
  764MOL0     C 5309   8.215   5.151   1.857 -0.6238 -0.0841 -0.2757
  764MOL0     C 5310   8.251   5.110   1.996  0.6256 -0.4467  0.0261
  764MOL0     N 5311   8.383   5.052   2.021  0.1466  0.0079 -0.5385
  764MOL0     C 5312   8.493   5.063   1.941  0.3229 -0.3544  0.5488
  764MOL0     C 5313   8.589   4.992   2.010  0.3821 -0.3757  0.1319
  764MOL0     C 5314   8.731   4.972   1.973  0.2727  0.8097 -0.2903
  764MOL0     C 5315   8.801   5.100   1.930  0.0886 -0.8101  0.4470
  764MOL0     C 5316   8.847   5.181   2.047  0.4665 -0.4043  0.3914
  764MOL0     C 5317   8.977   5.261   2.005  0.6466  0.6992  0.0485
  764MOL0     O 5318   9.099   5.182   2.027  0.2664 -0.0720 -0.4298
  764MOL0     C 5319   9.211   5.257   2.016 -0.2671  0.7695  1.0139
  764MOL0     C 5320   9.221   5.387   1.966 -0.8263  0.4346  0.1768
  764MOL0     C 5321   9.351   5.447   1.958  0.5020 -0.4927  0.0119
  764MOL0     C 5322   9.350   5.596   1.922 -0.4569  0.9757 -0.7489
  764MOL0     C 5323   9.467   5.379   2.000 -0.0489 -0.8704 -0.7523
  764MOL0     C 5324   9.604   5.435   2.009  0.6590 -0.1703 -0.1050
  764MOL0     O 5325   9.702   5.336   2.022 -0.0471 -0.5231  0.1377
  764MOL0     C 5326   9.831   5.372   2.046 -0.1971 -0.1537  0.0711
  764MOL0     C 5327   9.924   5.275   2.015  0.3219 -0.6442  0.1392
  764MOL0     C 5328  10.053   5.276   2.058 -1.1163 -0.2000  1.1859
  764MOL0     C 5329  10.107   5.387   2.134  0.4350  0.1335  0.5072
  764MOL0     O 5330  10.236   5.380   2.177  0.5163 -0.4832  0.6452
  764MOL0     C 5331  10.300   5.510   2.202  0.8639 -0.2848 -0.0732
  764MOL0     C 5332  10.438   5.495   2.166  0.3240  0.3513 -0.6273
  764MOL0     C 5333  10.459   5.485   2.020  0.1714  0.5355 -0.3737
  764MOL0     C 5334  10.605   5.460   1.983  0.6891 -0.1535  0.0102
  764MOL0     C 5335  10.635   5.430   1.835 -0.3321 -0.2963 -0.9277
  764MOL0     C 5336  10.639   5.291   1.810 -0.3297  0.7835  0.3683
  764MOL0     C 5337  10.628   5.255   1.661  0.0302 -0.2692 -0.0995
  764MOL0     C 5338  10.492   5.258   1.594  0.2023  0.0643  0.3554
  764MOL0    Cl 5339  10.421   5.422   1.581  0.0648 -0.2932  0.3229
  764MOL0     C 5340  10.015   5.484   2.162  0.1444 -0.2305  0.4672
  764MOL0     C 5341   9.886   5.485   2.112 -0.1008  0.1968 -0.6679
  764MOL0     O 5342   9.619   5.555   2.008 -0.6624  0.6941  0.5507
  764MOL0     C 5343   9.451   5.245   2.043  0.3461  0.1996 -0.8677
  764MOL0     C 5344   9.325   5.188   2.051 -0.6055  0.2695 -0.3435
  764MOL0     N 5345   8.535   4.943   2.130  0.7794  0.0728  0.6779
  764MOL0     N 5346   8.405   4.977   2.130  0.2659  0.3975 -0.6469
  764MOL0     C 5347   7.276   5.523   1.845 -0.5691  0.3928  0.0101
  764MOL0     C 5348   7.137   5.518   1.818 -0.5731 -0.0462  0.5174
  764MOL0     C 5349   6.727   5.500   1.607 -0.7168 -0.4249 -0.6133
  764MOL0     C 5350   6.644   5.389   1.598  0.1842 -0.0969 -1.3719
  764MOL0     C 5351   6.503   5.402   1.572 -0.0467 -0.0923  0.7059
  764MOL0     C 5352   6.446   5.521   1.536  0.2201 -0.2563 -0.3362
  764MOL0     O 5353   6.307   5.538   1.509 -0.4619 -0.1497  0.6240
  764MOL0     C 5354   6.258   5.662   1.454  0.1132  0.4921  0.6224
  764MOL0     C 5355   6.311   5.697   1.310 -0.0625  0.3973  0.4296
  764MOL0     C 5356   6.314   5.579   1.208  0.4609 -1.3007  0.3846
  764MOL0     C 5357   6.172   5.514   1.195 -0.9117 -0.4504  0.8073
  764MOL0     C 5358   6.174   5.367   1.175 -0.2714 -0.6313 -0.3646
  764MOL0     C 5359   6.182   5.247   1.153 -0.2462 -1.0530 -0.0816
  764MOL0     C 5360   6.535   5.633   1.526 -0.3651  0.4476  0.1450
  764MOL0     C 5361   6.672   5.626   1.563 -0.0736  0.1614  0.0335
  764MOL0     C 5362   6.763   5.752   1.539 -0.4357  0.1543  0.5453
  764MOL0     H 5363   7.121   5.745   1.572  1.2024  1.5930  1.2465
  764MOL0     H 5364   7.367   5.763   1.630 -0.8332  0.7337  0.0703
  764MOL0     H 5365   7.511   5.408   1.805 -1.5022  0.4995  0.9059
  764MOL0     H 5366   7.540   5.505   1.948 -0.2115 -1.1102 -0.0378
  764MOL0     H 5367   7.712   5.440   1.695 -1.6226  0.9558 -0.2492
  764MOL0     H 5368   7.754   5.586   1.783 -1.0373  1.6261  1.4157
  764MOL0     H 5369   7.802   5.470   1.992 -2.3285  0.1852 -1.3359
  764MOL0     H 5370   7.734   5.329   1.920 -0.8434  0.6025  1.8806
  764MOL0     H 5371   7.920   5.346   1.734  2.0070  0.4082 -1.2990
  764MOL0     H 5372   7.987   5.479   1.826  2.4414 -2.4080  0.3890
  764MOL0     H 5373   7.959   5.199   1.903  0.9218 -0.4967  2.1965
  764MOL0     H 5374   8.031   5.309   2.017 -1.3961 -2.5510  0.2261
  764MOL0     H 5375   8.157   5.310   1.732  1.8773  2.6895  0.6493
  764MOL0     H 5376   8.213   5.368   1.875  0.1993 -0.3333 -1.0727
  764MOL0     H 5377   8.298   5.127   1.791  0.5925 -0.5025  1.3285
  764MOL0     H 5378   8.146   5.076   1.819  0.3381  0.0668 -2.4423
  764MOL0     H 5379   8.235   5.196   2.061  0.9334  2.0161 -2.9442
  764MOL0     H 5380   8.187   5.026   2.026  3.2531 -3.6433 -2.5453
  764MOL0     H 5381   8.496   5.130   1.855 -2.0287  0.0385  0.7078
  764MOL0     H 5382   8.725   4.910   1.883  0.5989 -2.2082  1.6470
  764MOL0     H 5383   8.779   4.919   2.056 -3.0435 -0.7851  0.7787
  764MOL0     H 5384   8.891   5.068   1.877 -0.0316 -2.6566  1.2665
  764MOL0     H 5385   8.744   5.156   1.856  0.1683 -2.3756 -0.8424
  764MOL0     H 5386   8.759   5.239   2.079  1.2593 -0.7773  3.6168
  764MOL0     H 5387   8.876   5.109   2.124  0.2880 -1.1758 -0.2579
  764MOL0     H 5388   8.968   5.290   1.900  0.2769  0.2734 -0.0376
  764MOL0     H 5389   8.995   5.350   2.066  0.3570  1.3753 -0.8300
  764MOL0     H 5390   9.141   5.450   1.928 -0.1633  0.8605 -0.5523
  764MOL0     H 5391   9.338   5.648   2.018 -0.0398  3.1506 -1.8148
  764MOL0     H 5392   9.264   5.619   1.858 -0.7814 -2.1435 -1.5924
  764MOL0     H 5393   9.434   5.643   1.870 -0.5685  3.9842  1.5204
  764MOL0     H 5394   9.887   5.203   1.943 -0.2115 -0.6410  0.3988
  764MOL0     H 5395  10.119   5.193   2.037  2.8283  2.5358  1.6616
  764MOL0     H 5396  10.259   5.584   2.134 -0.2154 -0.7172  0.0917
  764MOL0     H 5397  10.300   5.542   2.307  0.4622  1.3928 -0.5521
  764MOL0     H 5398  10.490   5.573   2.223  1.1291  0.5006 -1.5326
  764MOL0     H 5399  10.474   5.400   2.207 -0.7268 -0.9809 -2.6144
  764MOL0     H 5400  10.419   5.576   1.974  0.6310  0.6467 -0.5601
  764MOL0     H 5401  10.390   5.403   1.998 -3.7019  3.3086  0.4588
  764MOL0     H 5402  10.659   5.390   2.047 -0.0179  0.6615  1.5561
  764MOL0     H 5403  10.643   5.561   2.003  1.6513 -0.8935  2.2290
  764MOL0     H 5404  10.557   5.484   1.780 -0.7541  2.0442  1.7510
  764MOL0     H 5405  10.728   5.483   1.813 -0.1303  0.2178  0.9677
  764MOL0     H 5406  10.556   5.250   1.868  1.4001  2.6229  4.5352
  764MOL0     H 5407  10.732   5.251   1.851  1.3285  1.0503 -2.8104
  764MOL0     H 5408  10.649   5.148   1.658 -1.3897 -0.7251  2.6285
  764MOL0     H 5409  10.701   5.315   1.606 -0.5248  1.9119  1.3822
  764MOL0     H 5410  10.424   5.186   1.642 -1.0923 -1.7548 -3.7584
  764MOL0     H 5411  10.503   5.215   1.494 -0.4207 -2.1431  1.1686
  764MOL0     H 5412  10.049   5.559   2.232 -1.7057 -1.1285  2.4416
  764MOL0     H 5413   9.818   5.560   2.153  1.5120  0.3327  1.9427
  764MOL0     H 5414   9.538   5.198   2.088  0.0403  1.8512  1.6055
  764MOL0     H 5415   9.313   5.090   2.096  0.5243 -0.6560 -1.9673
  764MOL0     H 5416   7.316   5.468   1.929 -0.2618  0.5542 -0.0293
  764MOL0     H 5417   7.087   5.453   1.889  2.0715  0.6227  3.2357
  764MOL0     H 5418   6.677   5.289   1.624 -0.7951 -0.6272 -2.0718
  764MOL0     H 5419   6.452   5.306   1.563  0.2240 -0.0464 -1.8375
  764MOL0     H 5420   6.149   5.663   1.455  0.0488 -1.9698  1.0535
  764MOL0     H 5421   6.289   5.750   1.511 -1.7689  0.1020  2.3744
  764MOL0     H 5422   6.410   5.745   1.311 -1.1009  2.7580 -0.7668
  764MOL0     H 5423   6.243   5.779   1.282  1.5911  1.4765 -0.6598
  764MOL0     H 5424   6.353   5.615   1.112  0.8188 -0.9116  0.6712
  764MOL0     H 5425   6.383   5.507   1.253  1.5640 -1.3579 -1.3248
  764MOL0     H 5426   6.132   5.540   1.096 -0.7455 -3.2815 -0.0984
  764MOL0     H 5427   6.111   5.527   1.284 -3.4721 -1.3983 -0.6916
  764MOL0     H 5428   6.199   5.142   1.136 -4.0251 -1.6843 -0.8884
  764MOL0     H 5429   6.503   5.732   1.495  0.3811 -0.1913 -2.9725
  764MOL0     H 5430   6.830   5.735   1.454  0.8796  1.9464  1.1609
  764MOL0     H 5431   6.692   5.832   1.518 -3.4535 -2.0316  1.6835
  764MOL0     H 5432   6.827   5.784   1.621 -2.2122  1.2749  1.5513
  765MOL0     O 5433   4.674   5.839   2.691 -0.2668  0.1995 -0.7444
  765MOL0     C 5434   4.629   5.924   2.766  0.1004 -0.9766  0.1271
  765MOL0     O 5435   4.697   5.998   2.862 -0.1742  0.1189 -0.2706
  765MOL0     C 5436   4.826   5.958   2.885  0.5438 -0.9893  0.8628
  765MOL0     C 5437   4.844   5.875   2.989 -0.5507 -0.4622  0.5036
  765MOL0     C 5438   4.965   5.841   3.037 -1.0003  0.4922  0.2125
  765MOL0     C 5439   5.087   5.873   2.972  0.6144 -0.4085  0.4818
  765MOL0     O 5440   5.200   5.837   3.028 -1.3420 -0.2662  0.0384
  765MOL0     C 5441   5.313   5.825   2.936  0.2760 -0.3352 -0.4284
  765MOL0     C 5442   5.433   5.766   3.008 -0.5281  0.5406  0.5665
  765MOL0     C 5443   5.480   5.841   3.129 -0.5624  0.2075 -0.6288
  765MOL0     C 5444   5.586   5.764   3.214 -0.0839 -0.0922  0.0761
  765MOL0     C 5445   5.649   5.854   3.324 -0.5040  0.5104 -0.2592
  765MOL0     C 5446   5.758   5.765   3.402 -0.3325  0.1303 -0.0802
  765MOL0     C 5447   5.800   5.839   3.534  0.1577 -1.2925 -0.9558
  765MOL0     C 5448   5.888   5.972   3.516 -0.4298  0.3411  0.0817
  765MOL0     N 5449   5.998   5.949   3.420 -0.4089 -0.0431 -1.0332
  765MOL0     C 5450   6.001   6.010   3.302 -1.2909  0.3328  0.0254
  765MOL0     C 5451   6.130   6.016   3.252 -0.0853 -1.5189  0.1924
  765MOL0     C 5452   6.155   6.083   3.119 -0.3888 -0.3412  0.2827
  765MOL0     C 5453   6.205   5.986   2.999 -0.1531  0.5265  0.0019
  765MOL0     C 5454   6.269   6.075   2.883 -0.3628 -0.0733  0.1454
  765MOL0     C 5455   6.408   6.130   2.925 -0.2656 -0.3310  0.3425
  765MOL0     O 5456   6.493   6.086   2.815 -0.2612 -0.0650  0.0363
  765MOL0     C 5457   6.632   6.107   2.833 -0.0084 -0.2375 -0.4811
  765MOL0     C 5458   6.693   6.159   2.954  0.2927  0.5931  0.5572
  765MOL0     C 5459   6.832   6.165   2.968  0.5399 -0.3971  0.6394
  765MOL0     C 5460   6.877   6.218   3.103  0.2914  0.4306 -0.2761
  765MOL0     C 5461   6.918   6.116   2.869  0.1671 -0.2583 -0.4735
  765MOL0     C 5462   7.072   6.119   2.884  0.4107  0.2794 -0.1500
  765MOL0     O 5463   7.140   6.044   2.794 -0.1911 -1.0711 -0.3343
  765MOL0     C 5464   7.280   6.022   2.785  1.1828 -0.4271  0.6646
  765MOL0     C 5465   7.372   6.053   2.886  0.0802 -0.8444  0.7331
  765MOL0     C 5466   7.509   6.015   2.877 -0.8680 -0.9601 -0.2132
  765MOL0     C 5467   7.551   5.942   2.764  0.3097  0.0947 -0.1470
  765MOL0     O 5468   7.674   5.887   2.753  0.2991  0.0134 -0.2860
  765MOL0     C 5469   7.781   5.935   2.838  0.1821  0.2905 -0.4044
  765MOL0     C 5470   7.903   5.901   2.746 -0.3382  0.4105 -0.5728
  765MOL0     C 5471   8.044   5.923   2.809  0.0295  0.4978  0.1283
  765MOL0     C 5472   8.140   5.880   2.697 -0.5286 -0.3018 -0.0738
  765MOL0     C 5473   8.280   5.901   2.745 -0.1459  0.0493  0.4825
  765MOL0     C 5474   8.372   5.871   2.626 -0.6374  0.9853  0.6490
  765MOL0     C 5475   8.522   5.870   2.667 -0.7267 -0.4860 -1.3772
  765MOL0     C 5476   8.596   5.761   2.590 -0.1188  0.9238 -0.2347
  765MOL0    Cl 5477   8.556   5.762   2.409 -0.9225 -0.1099 -0.3898
  765MOL0     C 5478   7.466   5.915   2.658  0.2313  0.2737 -0.0671
  765MOL0     C 5479   7.328   5.950   2.672  0.1059  0.7773  0.0378
  765MOL0     O 5480   7.125   6.195   2.962 -1.1338 -0.5916  0.0114
  765MOL0     C 5481   6.860   6.067   2.756 -0.3961  0.5487  1.1364
  765MOL0     C 5482   6.718   6.063   2.739 -1.5141 -0.2389 -1.0359
  765MOL0     N 5483   6.204   5.964   3.355 -0.6043  0.0970  0.5532
  765MOL0     N 5484   6.126   5.928   3.452  0.1207  0.4968  0.0086
  765MOL0     C 5485   5.069   5.960   2.867  0.4763 -0.2697  0.0636
  765MOL0     C 5486   4.950   5.997   2.814  0.5046  0.5266  0.9200
  765MOL0     C 5487   4.486   5.969   2.756 -0.2926  1.7472  0.5012
  765MOL0     C 5488   4.436   6.049   2.863  0.6469 -0.3051  0.2634
  765MOL0     C 5489   4.302   6.088   2.877 -0.3336 -0.5701 -0.0592
  765MOL0     C 5490   4.211   6.043   2.784 -0.2595 -0.4391 -1.2159
  765MOL0     O 5491   4.084   6.069   2.792 -0.1149  0.8463  0.2307
  765MOL0     C 5492   4.042   6.178   2.718  0.9111  0.1422  0.4371
  765MOL0     C 5493   3.889   6.186   2.689  0.6852 -0.1573 -0.0302
  765MOL0     C 5494   3.835   6.055   2.651  0.1342 -0.3335 -0.4341
  765MOL0     C 5495   3.677   6.056   2.658 -1.7413 -0.0544 -0.7835
  765MOL0     C 5496   3.610   6.133   2.556 -0.7794  0.4822  0.1726
  765MOL0     C 5497   3.572   6.195   2.461  0.9699 -0.2991  0.4534
  765MOL0     C 5498   4.261   5.967   2.671 -0.8538 -0.0472 -0.2929
  765MOL0     C 5499   4.399   5.937   2.651 -0.3748  0.2815 -0.7251
  765MOL0     C 5500   4.423   5.846   2.535  0.1337 -0.7468 -0.5060
  765MOL0     H 5501   4.752   5.851   3.042  0.3982 -0.3680  2.2821
  765MOL0     H 5502   4.956   5.775   3.123 -1.5108  0.6911  0.3181
  765MOL0     H 5503   5.340   5.924   2.897 -1.4617 -0.6237 -2.5476
  765MOL0     H 5504   5.286   5.764   2.849  3.2170  1.8247 -3.1330
  765MOL0     H 5505   5.420   5.664   3.048  0.7284  0.7478  1.5733
  765MOL0     H 5506   5.512   5.748   2.934 -1.3004 -0.8258  0.0234
  765MOL0     H 5507   5.517   5.937   3.094  2.3814 -0.5694  0.0517
  765MOL0     H 5508   5.392   5.859   3.192  0.1259  0.4061  0.3023
  765MOL0     H 5509   5.530   5.685   3.264  1.3515 -0.6276  0.9059
  765MOL0     H 5510   5.663   5.712   3.156 -1.1602 -0.5043 -1.0136
  765MOL0     H 5511   5.570   5.871   3.398  0.6356 -0.6884  1.2888
  765MOL0     H 5512   5.687   5.954   3.302 -2.3725  2.0359  2.7769
  765MOL0     H 5513   5.710   5.670   3.427 -0.6702 -0.2236 -1.9367
  765MOL0     H 5514   5.847   5.748   3.340 -0.5448  0.1442 -0.3854
  765MOL0     H 5515   5.844   5.767   3.604  0.3998  1.0487  1.4726
  765MOL0     H 5516   5.720   5.877   3.598  0.7406  0.1203 -1.0402
  765MOL0     H 5517   5.826   6.056   3.486 -1.2764  1.0424  3.4137
  765MOL0     H 5518   5.935   5.998   3.611  3.3236 -1.8506 -0.9584
  765MOL0     H 5519   5.912   6.042   3.249 -1.8779 -0.8423  0.2644
  765MOL0     H 5520   6.227   6.162   3.142 -2.9954  1.7042  2.0437
  765MOL0     H 5521   6.066   6.127   3.073 -0.1679  0.0088  0.1846
  765MOL0     H 5522   6.290   5.929   3.037 -0.0981  1.9620  2.2633
  765MOL0     H 5523   6.122   5.923   2.966 -0.0548 -0.0568  0.8473
  765MOL0     H 5524   6.282   6.016   2.792 -1.4820  1.0576 -0.7870
  765MOL0     H 5525   6.200   6.153   2.849  1.1611  1.4195  0.3677
  765MOL0     H 5526   6.409   6.240   2.930 -1.4447 -0.2460 -0.8967
  765MOL0     H 5527   6.431   6.105   3.029 -0.9688  3.7261  1.6547
  765MOL0     H 5528   6.632   6.192   3.037 -0.0867 -0.5363  0.7499
  765MOL0     H 5529   6.803   6.197   3.181 -0.2506  0.0152 -0.8914
  765MOL0     H 5530   6.912   6.321   3.114 -0.4709  0.4579  2.4598
  765MOL0     H 5531   6.967   6.158   3.122  0.7550  0.3602 -2.4254
  765MOL0     H 5532   7.344   6.112   2.973 -2.3905  0.4795 -0.8218
  765MOL0     H 5533   7.586   6.022   2.952 -1.1111  0.9471 -0.0776
  765MOL0     H 5534   7.772   6.043   2.857 -0.7611  0.1756 -0.1591
  765MOL0     H 5535   7.784   5.879   2.932  1.0175  2.2323  0.7853
  765MOL0     H 5536   7.902   5.795   2.721  0.0962  0.7526 -2.1098
  765MOL0     H 5537   7.895   5.948   2.648  0.1349  0.0460 -0.7874
  765MOL0     H 5538   8.050   5.858   2.897 -1.2705 -1.7215 -1.2979
  765MOL0     H 5539   8.068   6.022   2.847 -0.8466  0.7714 -0.0211
  765MOL0     H 5540   8.123   5.940   2.607  0.0340 -1.2174 -0.8089
  765MOL0     H 5541   8.139   5.774   2.672  3.7919 -0.8658  1.4252
  765MOL0     H 5542   8.302   6.003   2.777  1.5844  0.9962 -3.1482
  765MOL0     H 5543   8.287   5.830   2.828 -2.2762 -2.5149 -1.3442
  765MOL0     H 5544   8.366   5.944   2.545 -1.8790 -0.9740 -1.1412
  765MOL0     H 5545   8.352   5.767   2.598 -4.7122  1.7106  0.1485
  765MOL0     H 5546   8.533   5.854   2.774 -1.6311 -2.4104 -1.5321
  765MOL0     H 5547   8.574   5.963   2.643  1.4071 -1.7623 -2.0154
  765MOL0     H 5548   8.566   5.665   2.632  0.3521  1.2469  0.8625
  765MOL0     H 5549   8.703   5.766   2.612 -0.2322  3.5955  0.0194
  765MOL0     H 5550   7.498   5.870   2.565 -2.0859 -0.6238 -0.4769
  765MOL0     H 5551   7.265   5.923   2.588 -0.4086  2.4264 -0.1478
  765MOL0     H 5552   6.915   6.028   2.671 -0.4581  0.5082  1.1144
  765MOL0     H 5553   6.682   6.029   2.642 -1.6867 -1.4591 -0.5622
  765MOL0     H 5554   5.152   6.000   2.809  2.2593 -2.5738  0.8559
  765MOL0     H 5555   4.943   6.062   2.727  1.6608 -1.1361 -0.4921
  765MOL0     H 5556   4.511   6.088   2.932  2.1439 -0.4788 -1.1840
  765MOL0     H 5557   4.255   6.133   2.963  1.5186 -2.1976  1.9011
  765MOL0     H 5558   4.083   6.270   2.761  2.3599  0.2193 -1.0222
  765MOL0     H 5559   4.093   6.169   2.622  0.3027 -0.9604  0.2040
  765MOL0     H 5560   3.866   6.259   2.610 -0.2911 -0.8211 -0.3892
  765MOL0     H 5561   3.842   6.209   2.785  0.7377 -0.2511  0.0183
  765MOL0     H 5562   3.866   6.027   2.550  2.7829 -2.1211  0.7361
  765MOL0     H 5563   3.869   5.986   2.729  0.5587  0.2452 -0.0977
  765MOL0     H 5564   3.644   6.091   2.756 -0.7850 -0.6901 -0.2165
  765MOL0     H 5565   3.640   5.956   2.634 -1.6292 -0.0516 -0.9689
  765MOL0     H 5566   3.526   6.246   2.379  1.3786 -1.4094 -0.4879
  765MOL0     H 5567   4.200   5.915   2.599  0.7992 -1.6016 -0.6388
  765MOL0     H 5568   4.481   5.903   2.462 -0.0098  0.3078  0.1803
  765MOL0     H 5569   4.494   5.765   2.550 -0.4058 -1.6326 -2.3702
  765MOL0     H 5570   4.331   5.803   2.495 -1.6992 -0.7798  3.2893
  766MOL0     O 5571   6.280   4.435  11.044 -0.4406  0.8146 -0.5292
  766MOL0     C 5572   6.297   4.475  10.932  0.3881 -0.7295 -0.0051
  766MOL0     O 5573   6.411   4.464  10.855 -0.5378  0.4972  0.1944
  766MOL0     C 5574   6.536   4.444  10.903  0.9670 -1.3398 -0.1050
  766MOL0     C 5575   6.638   4.376  10.832  0.0994  0.4245  0.8377
  766MOL0     C 5576   6.762   4.349  10.895  0.1485  1.0578 -0.0391
  766MOL0     C 5577   6.787   4.382  11.020  0.4122 -0.2724  0.1485
  766MOL0     O 5578   6.904   4.345  11.061  0.2377 -0.4750  0.0452
  766MOL0     C 5579   6.958   4.388  11.186  0.0286 -0.0905 -1.0295
  766MOL0     C 5580   7.091   4.308  11.209 -0.1759  0.5388 -0.8173
  766MOL0     C 5581   7.205   4.368  11.127 -0.0182 -0.3948  0.2692
  766MOL0     C 5582   7.342   4.312  11.149  0.1290 -0.2777 -0.0897
  766MOL0     C 5583   7.453   4.374  11.066  0.1576  0.1240 -1.1560
  766MOL0     C 5584   7.481   4.526  11.085 -0.0022  0.3743  0.8674
  766MOL0     C 5585   7.615   4.580  11.025 -0.3526 -0.2349 -0.4734
  766MOL0     C 5586   7.634   4.534  10.882  0.2095  0.3694  0.1853
  766MOL0     N 5587   7.751   4.602  10.830 -0.2723  0.1371 -0.5210
  766MOL0     C 5588   7.765   4.646  10.702 -0.1757 -0.9183 -1.0916
  766MOL0     C 5589   7.869   4.732  10.708 -0.2611  0.4989 -0.9472
  766MOL0     C 5590   7.928   4.818  10.598  0.3171 -0.4711 -0.5353
  766MOL0     C 5591   8.029   4.733  10.524  0.4416  0.0462  0.1138
  766MOL0     C 5592   8.155   4.703  10.602 -0.0485  0.1116  0.1047
  766MOL0     C 5593   8.269   4.642  10.520  0.0530 -0.0996 -0.3031
  766MOL0     O 5594   8.211   4.548  10.427 -0.4427 -0.2032 -0.1775
  766MOL0     C 5595   8.216   4.410  10.436 -0.3528  0.0519  0.4937
  766MOL0     C 5596   8.194   4.340  10.321  0.2877 -0.2299 -0.0321
  766MOL0     C 5597   8.198   4.201  10.324  0.2036 -0.1355 -0.7976
  766MOL0     C 5598   8.151   4.124  10.201  0.3991 -0.0125 -0.0286
  766MOL0     C 5599   8.221   4.124  10.447  0.1777 -0.6122 -1.0880
  766MOL0     C 5600   8.231   3.979  10.466  0.0465  0.0112  0.6467
  766MOL0     O 5601   8.275   3.902  10.364  0.8196  0.4708 -0.4739
  766MOL0     C 5602   8.332   3.785  10.393  0.3294 -0.4759 -0.0508
  766MOL0     C 5603   8.464   3.798  10.444  0.2467 -0.5160  0.3876
  766MOL0     C 5604   8.521   3.683  10.506  0.0158 -0.5849  0.2791
  766MOL0     C 5605   8.459   3.560  10.495 -0.1347  0.0189 -0.2308
  766MOL0     O 5606   8.509   3.445  10.546  0.1900  0.5590 -0.9435
  766MOL0     C 5607   8.642   3.408  10.515 -0.4534  0.5415 -0.0219
  766MOL0     C 5608   8.669   3.258  10.552 -0.3896 -0.2162  0.9060
  766MOL0     C 5609   8.549   3.169  10.495  0.0052  0.7051  0.6132
  766MOL0     C 5610   8.563   3.025  10.516 -0.1855  0.2840  0.6451
  766MOL0     C 5611   8.565   2.981  10.661 -0.2627 -0.6880 -0.4118
  766MOL0     C 5612   8.539   2.828  10.682 -0.6320 -0.3609 -0.0618
  766MOL0     C 5613   8.616   2.777  10.808  0.3839  0.0739  0.9024
  766MOL0     C 5614   8.555   2.643  10.850 -1.5438  0.1933  0.0523
  766MOL0    Cl 5615   8.393   2.668  10.945 -0.0312  0.4013  0.4278
  766MOL0     C 5616   8.329   3.551  10.430  0.1465 -0.4618  0.6603
  766MOL0     C 5617   8.259   3.669  10.382  0.1755 -0.0165  0.4011
  766MOL0     O 5618   8.202   3.941  10.574 -0.2210  0.1276 -0.3881
  766MOL0     C 5619   8.243   4.203  10.563 -0.4987  0.3787 -0.4230
  766MOL0     C 5620   8.241   4.341  10.562  0.0712 -0.3954  0.4420
  766MOL0     N 5621   7.926   4.716  10.836  0.3946  0.2861  0.0187
  766MOL0     N 5622   7.855   4.644  10.906  0.2461 -0.2394  0.1276
  766MOL0     C 5623   6.686   4.460  11.091 -0.4878 -1.0455 -0.3652
  766MOL0     C 5624   6.564   4.486  11.035  0.0067 -0.0039 -0.6185
  766MOL0     C 5625   6.180   4.547  10.878 -0.1023  0.0165  0.0606
  766MOL0     C 5626   6.052   4.481  10.875 -0.2535  0.7653  0.6227
  766MOL0     C 5627   5.944   4.528  10.799  0.2185 -0.1471  0.5092
  766MOL0     C 5628   5.956   4.653  10.731 -0.1406  0.9478  1.3620
  766MOL0     O 5629   5.848   4.688  10.658 -0.0870  0.2157 -0.4336
  766MOL0     C 5630   5.860   4.808  10.587  0.2074 -0.3488 -0.3638
  766MOL0     C 5631   5.716   4.842  10.528 -0.1348  0.9754  0.0263
  766MOL0     C 5632   5.658   4.733  10.442 -0.5958  0.4795  0.1563
  766MOL0     C 5633   5.498   4.740  10.430 -0.7551  0.8127  0.0090
  766MOL0     C 5634   5.455   4.854  10.348  0.6045  0.5944  0.0871
  766MOL0     C 5635   5.426   4.945  10.271  0.0666 -0.5362 -0.1043
  766MOL0     C 5636   6.080   4.725  10.741  0.2669 -0.0201 -0.1289
  766MOL0     C 5637   6.189   4.678  10.819  0.6495  0.2537 -0.0511
  766MOL0     C 5638   6.309   4.759  10.825 -0.1767  0.1747 -0.1062
  766MOL0     H 5639   6.629   4.341  10.730  0.0965  1.8088  0.3493
  766MOL0     H 5640   6.836   4.291  10.841  0.1753  2.3913 -1.5111
  766MOL0     H 5641   6.898   4.352  11.270 -0.8799 -0.4480 -1.8051
  766MOL0     H 5642   6.972   4.495  11.202 -2.8171  0.4368 -1.4406
  766MOL0     H 5643   7.114   4.299  11.316  0.4961 -1.6095 -1.0904
  766MOL0     H 5644   7.085   4.205  11.174  1.6827  0.3362 -0.6291
  766MOL0     H 5645   7.185   4.367  11.019  1.9510 -0.0850 -0.1376
  766MOL0     H 5646   7.201   4.474  11.155 -3.3348  0.5149 -2.9055
  766MOL0     H 5647   7.351   4.329  11.257 -1.2001 -1.2273  0.1991
  766MOL0     H 5648   7.359   4.206  11.129 -2.2235 -0.6680 -0.2588
  766MOL0     H 5649   7.443   4.344  10.962  0.9094  1.3112 -1.6051
  766MOL0     H 5650   7.545   4.327  11.103 -0.4027 -0.2871 -0.2440
  766MOL0     H 5651   7.400   4.576  11.031 -0.6909 -0.7553  0.8065
  766MOL0     H 5652   7.480   4.556  11.190  2.3886  1.1227  0.7202
  766MOL0     H 5653   7.701   4.547  11.085 -1.1798  0.2308  1.0154
  766MOL0     H 5654   7.630   4.688  11.024 -0.4371 -0.1975  0.5283
  766MOL0     H 5655   7.654   4.427  10.874  0.2662  0.4956 -2.1647
  766MOL0     H 5656   7.547   4.556  10.820  0.0814  2.0506  0.8941
  766MOL0     H 5657   7.698   4.626  10.619 -0.3361  0.7797 -1.3885
  766MOL0     H 5658   7.984   4.906  10.627  0.0299 -0.5345  0.2300
  766MOL0     H 5659   7.849   4.846  10.527 -0.9200 -0.4714  0.7879
  766MOL0     H 5660   7.993   4.636  10.491  2.0613 -0.4420 -0.2904
  766MOL0     H 5661   8.059   4.790  10.435  1.5877  0.6667  0.8708
  766MOL0     H 5662   8.185   4.791  10.659 -1.3916  0.5485  0.1696
  766MOL0     H 5663   8.128   4.621  10.669 -0.1262  0.0870  0.0445
  766MOL0     H 5664   8.299   4.724  10.454 -0.1694 -2.0563 -3.0546
  766MOL0     H 5665   8.355   4.603  10.575 -0.6957 -3.9371 -1.5380
  766MOL0     H 5666   8.177   4.412  10.242  4.6319  2.3184  0.9871
  766MOL0     H 5667   8.238   4.086  10.147  0.5151  0.0088  0.1392
  766MOL0     H 5668   8.084   4.187  10.142  1.5612  0.8524 -0.4781
  766MOL0     H 5669   8.091   4.040  10.236 -2.6618  2.4758  1.1806
  766MOL0     H 5670   8.505   3.898  10.446  2.8129 -1.3366 -2.6387
  766MOL0     H 5671   8.618   3.692  10.555 -0.2243 -0.5572  0.7517
  766MOL0     H 5672   8.658   3.413  10.406 -3.2976  0.3062 -0.5089
  766MOL0     H 5673   8.724   3.450  10.574  0.3306 -1.2793  0.2581
  766MOL0     H 5674   8.762   3.220  10.507 -0.2103  0.7331  0.4492
  766MOL0     H 5675   8.662   3.258  10.662 -0.3696 -0.5515  0.9060
  766MOL0     H 5676   8.526   3.187  10.389 -2.1532 -1.9753  0.5205
  766MOL0     H 5677   8.463   3.195  10.558 -0.6328  2.3664 -0.8376
  766MOL0     H 5678   8.654   2.983  10.472  0.3875  0.5687  1.5451
  766MOL0     H 5679   8.479   2.978  10.464  0.3756 -0.5200  0.4434
  766MOL0     H 5680   8.654   3.014  10.716  0.5013 -1.4368 -1.1538
  766MOL0     H 5681   8.482   3.034  10.709 -1.0381 -3.3131  1.3667
  766MOL0     H 5682   8.569   2.769  10.595 -1.3332 -1.4133  0.4029
  766MOL0     H 5683   8.430   2.821  10.687 -0.8584  1.3778 -1.3687
  766MOL0     H 5684   8.604   2.849  10.890  1.9756  2.1578 -0.5673
  766MOL0     H 5685   8.723   2.765  10.791  0.2617  1.2562 -0.9629
  766MOL0     H 5686   8.625   2.599  10.922 -2.7577 -0.0364  1.1198
  766MOL0     H 5687   8.540   2.582  10.761 -0.1171  1.1570 -0.8873
  766MOL0     H 5688   8.286   3.451  10.432 -2.1031  0.4604  0.6431
  766MOL0     H 5689   8.168   3.673  10.323  0.4605  0.0240 -0.0410
  766MOL0     H 5690   8.255   4.147  10.656 -0.7373 -1.7913 -1.6307
  766MOL0     H 5691   8.256   4.391  10.657  0.2541 -0.5526  0.4957
  766MOL0     H 5692   6.702   4.480  11.196  2.5241 -2.9698 -0.3548
  766MOL0     H 5693   6.489   4.539  11.093 -0.6765 -0.7072 -0.8432
  766MOL0     H 5694   6.038   4.382  10.918  3.0024  0.5499  1.4025
  766MOL0     H 5695   5.850   4.474  10.798 -1.1773  1.6860  5.1556
  766MOL0     H 5696   5.896   4.886  10.655 -0.1005 -0.7906  0.3161
  766MOL0     H 5697   5.930   4.802  10.503 -1.2104 -2.3739 -1.5131
  766MOL0     H 5698   5.719   4.939  10.478  1.9035 -0.9172 -4.0840
  766MOL0     H 5699   5.658   4.862  10.618 -0.4902 -0.5992  0.1763
  766MOL0     H 5700   5.710   4.727  10.346 -0.6230  4.2014 -0.2180
  766MOL0     H 5701   5.687   4.641  10.494  3.0825  1.5585  0.2612
  766MOL0     H 5702   5.449   4.736  10.527 -2.4957  0.3923 -0.8464
  766MOL0     H 5703   5.463   4.657  10.368  0.0859  1.9551 -2.1341
  766MOL0     H 5704   5.412   5.024  10.200  0.2784  1.6357  2.1272
  766MOL0     H 5705   6.091   4.823  10.696 -2.5690  0.4744  0.0479
  766MOL0     H 5706   6.289   4.865  10.809 -1.1576  0.0655  0.3310
  766MOL0     H 5707   6.348   4.740  10.926  1.4204 -2.2138 -1.0666
  766MOL0     H 5708   6.381   4.723  10.751  4.1212  1.6913  2.9074
  767MOL0     O 5709   3.916   1.022  11.053  0.7223  0.7021  0.7686
  767MOL0     C 5710   3.836   1.103  11.096  0.7364 -0.3616 -0.6426
  767MOL0     O 5711   3.771   1.190  11.016  0.5517 -0.4062 -0.0025
  767MOL0     C 5712   3.820   1.233  10.898 -0.0461  0.7354  0.5555
  767MOL0     C 5713   3.731   1.290  10.799 -0.7146  0.1308 -0.1328
  767MOL0     C 5714   3.788   1.349  10.677 -0.2027  0.2775 -0.0816
  767MOL0     C 5715   3.930   1.358  10.658  0.1302 -0.6259 -0.2533
  767MOL0     O 5716   3.973   1.429  10.550 -0.7699  0.5947  0.3074
  767MOL0     C 5717   4.107   1.400  10.489 -0.1597 -0.8519  0.5635
  767MOL0     C 5718   4.107   1.436  10.339 -0.1798  0.3968  0.2780
  767MOL0     C 5719   3.993   1.361  10.273  0.6138  0.5385  0.0200
  767MOL0     C 5720   3.977   1.398  10.130  0.2497 -0.4858 -0.0852
  767MOL0     C 5721   3.865   1.313  10.064  1.0653  0.3208 -0.9772
  767MOL0     C 5722   3.813   1.372   9.933 -0.0753  1.3401 -0.2011
  767MOL0     C 5723   3.883   1.332   9.799  0.1358  1.2250  1.2191
  767MOL0     C 5724   3.857   1.186   9.767  0.0020  0.0493  0.2855
  767MOL0     N 5725   3.739   1.165   9.688 -0.2520 -0.8167  0.2827
  767MOL0     C 5726   3.618   1.166   9.739 -0.9103 -0.6339 -0.5083
  767MOL0     C 5727   3.533   1.162   9.626 -0.4685 -0.1404 -0.1647
  767MOL0     C 5728   3.381   1.144   9.632 -0.1369  0.7077  0.3067
  767MOL0     C 5729   3.309   1.030   9.558 -0.4942  0.0224 -0.0603
  767MOL0     C 5730   3.192   0.977   9.627  0.2139  0.6258 -0.6056
  767MOL0     C 5731   3.081   1.078   9.655 -0.1328  0.4307  0.5292
  767MOL0     O 5732   3.008   1.062   9.777 -0.5656  0.6548  0.0472
  767MOL0     C 5733   2.870   1.060   9.779  0.2916 -0.0543  0.2185
  767MOL0     C 5734   2.806   1.180   9.792 -0.4179  0.0897  0.1549
  767MOL0     C 5735   2.671   1.196   9.807  0.0276  0.0356  0.6608
  767MOL0     C 5736   2.619   1.330   9.847  0.5368  0.6403  0.9941
  767MOL0     C 5737   2.590   1.073   9.809 -0.3513  0.0761 -0.2232
  767MOL0     C 5738   2.439   1.062   9.817  0.0849 -0.2596  1.4677
  767MOL0     O 5739   2.388   0.941   9.845  0.0324 -0.5042  0.0364
  767MOL0     C 5740   2.246   0.925   9.856 -0.4683 -1.1008  0.0928
  767MOL0     C 5741   2.181   0.924   9.977  0.2102  0.0800  0.0922
  767MOL0     C 5742   2.046   0.888   9.990  1.1352  0.2578 -0.0404
  767MOL0     C 5743   1.971   0.854   9.872  0.2203 -0.1692 -0.0429
  767MOL0     O 5744   1.839   0.810   9.866 -0.8655  0.3508  0.6121
  767MOL0     C 5745   1.765   0.783   9.988  0.3963  0.6198  0.0167
  767MOL0     C 5746   1.634   0.726   9.942 -0.3933 -0.3794  0.0282
  767MOL0     C 5747   1.523   0.720  10.048 -0.2229 -0.4219 -0.3741
  767MOL0     C 5748   1.383   0.721   9.992  0.6890 -0.2425 -1.1648
  767MOL0     C 5749   1.287   0.711  10.114  0.3652  0.0889 -0.7450
  767MOL0     C 5750   1.159   0.795  10.105 -0.1220 -0.4248  0.6095
  767MOL0     C 5751   1.068   0.756   9.991 -0.6699  0.8164  0.2992
  767MOL0     C 5752   0.955   0.860   9.975 -0.0190 -0.2998 -0.9629
  767MOL0    Cl 5753   0.835   0.792   9.850 -0.2007  0.0384 -0.4340
  767MOL0     C 5754   2.043   0.861   9.749  0.2010  0.2934 -0.2712
  767MOL0     C 5755   2.181   0.888   9.742  0.1928  0.3038  0.4225
  767MOL0     O 5756   2.374   1.162   9.784  0.4766  0.2223  0.6489
  767MOL0     C 5757   2.663   0.947   9.821 -0.2673  0.0799  0.0280
  767MOL0     C 5758   2.805   0.945   9.812 -0.2577  0.9484 -0.5406
  767MOL0     N 5759   3.612   1.151   9.514 -0.1159  0.0332  0.1083
  767MOL0     N 5760   3.738   1.147   9.553 -0.5400 -0.4159 -0.6863
  767MOL0     C 5761   4.009   1.308  10.757  0.2404 -0.1948  0.6956
  767MOL0     C 5762   3.957   1.237  10.869 -0.1993 -0.3987  0.0938
  767MOL0     C 5763   3.785   1.081  11.234 -0.7832  0.0618 -0.2566
  767MOL0     C 5764   3.649   1.106  11.261 -0.7035 -0.5097  0.4895
  767MOL0     C 5765   3.590   1.097  11.385 -0.2517  0.7287 -0.6697
  767MOL0     C 5766   3.661   1.081  11.507 -0.4338  0.6397  0.4504
  767MOL0     O 5767   3.610   1.076  11.630  0.0990 -0.8734 -0.7628
  767MOL0     C 5768   3.595   0.945  11.678 -0.3802 -0.4898 -0.3018
  767MOL0     C 5769   3.571   0.946  11.826 -0.0379 -0.1157 -0.4491
  767MOL0     C 5770   3.467   1.053  11.871 -0.1399  0.8299 -1.2336
  767MOL0     C 5771   3.426   1.046  12.021  0.2400 -0.6407  0.6807
  767MOL0     C 5772   3.345   0.923  12.050 -0.2961  0.1388  0.5531
  767MOL0     C 5773   3.283   0.827  12.084 -0.4545  0.2424  0.0907
  767MOL0     C 5774   3.802   1.064  11.484  0.4925  0.3210 -0.0296
  767MOL0     C 5775   3.854   1.055  11.358 -0.1897 -1.0332 -0.0099
  767MOL0     C 5776   4.000   1.059  11.346 -1.0783  0.3814 -0.6225
  767MOL0     H 5777   3.628   1.285  10.832 -0.1509  1.5099  2.0299
  767MOL0     H 5778   3.731   1.398  10.598  1.8691  4.4027  0.7039
  767MOL0     H 5779   4.134   1.294  10.497  1.8915 -0.3099  1.5427
  767MOL0     H 5780   4.188   1.449  10.544 -0.5337 -0.2354  0.5781
  767MOL0     H 5781   4.094   1.545  10.334 -3.1799  0.4032  3.9310
  767MOL0     H 5782   4.197   1.394  10.295 -0.7831 -0.5062 -0.1081
  767MOL0     H 5783   4.010   1.253  10.282 -1.0654  0.3880  2.3214
  767MOL0     H 5784   3.896   1.378  10.321 -0.3705  0.0890 -1.6900
  767MOL0     H 5785   3.954   1.504  10.117 -0.0227 -0.5347 -0.0054
  767MOL0     H 5786   4.073   1.376  10.083  0.2713 -1.0805  0.2275
  767MOL0     H 5787   3.782   1.311  10.135  1.9246  1.3366  0.0873
  767MOL0     H 5788   3.907   1.214  10.050 -0.2985 -0.3032 -0.8237
  767MOL0     H 5789   3.713   1.331   9.916  0.9600 -1.2413 -0.4133
  767MOL0     H 5790   3.803   1.481   9.935  0.7922  1.4169  1.3628
  767MOL0     H 5791   3.990   1.351   9.812  1.1378 -1.2287 -2.0534
  767MOL0     H 5792   3.837   1.393   9.720  2.5562  0.3497 -1.0056
  767MOL0     H 5793   3.942   1.159   9.703  0.2962  0.7632  0.3669
  767MOL0     H 5794   3.854   1.122   9.855  1.5148  0.5012  0.7055
  767MOL0     H 5795   3.586   1.181   9.841 -2.1449  3.5834 -1.3152
  767MOL0     H 5796   3.331   1.238   9.608 -1.0147 -0.3535 -2.3855
  767MOL0     H 5797   3.369   1.132   9.740  3.2156  1.0804  0.8203
  767MOL0     H 5798   3.290   1.054   9.453  0.2059 -0.3932 -0.2920
  767MOL0     H 5799   3.373   0.941   9.549 -0.6269  0.0956 -2.2001
  767MOL0     H 5800   3.155   0.887   9.577  0.2876  0.6949 -0.7866
  767MOL0     H 5801   3.223   0.922   9.716 -2.7305 -1.5700 -0.7691
  767MOL0     H 5802   3.119   1.180   9.653  0.9614  0.0340 -1.0166
  767MOL0     H 5803   3.010   1.062   9.574 -0.4870  2.3556  0.4226
  767MOL0     H 5804   2.873   1.265   9.796 -0.6269  0.4035 -1.7069
  767MOL0     H 5805   2.523   1.360   9.805 -0.1298  0.7376  2.5254
  767MOL0     H 5806   2.684   1.411   9.813  0.3000  0.6756  0.6238
  767MOL0     H 5807   2.604   1.343   9.955 -1.3671 -2.0357  1.1468
  767MOL0     H 5808   2.238   0.965  10.059 -0.8999  4.1706 -0.9593
  767MOL0     H 5809   1.999   0.881  10.088  0.5480 -0.0243 -0.3427
  767MOL0     H 5810   1.813   0.710  10.053 -0.4811  0.5445  0.5899
  767MOL0     H 5811   1.746   0.878  10.039 -4.4280 -0.3224  0.4631
  767MOL0     H 5812   1.604   0.784   9.854  1.8018 -0.4033 -0.7938
  767MOL0     H 5813   1.663   0.628   9.903 -3.4153 -0.2724 -2.9645
  767MOL0     H 5814   1.541   0.801  10.119 -1.2803 -0.0839 -0.4868
  767MOL0     H 5815   1.541   0.625  10.099 -3.2327 -0.4157  0.9105
  767MOL0     H 5816   1.374   0.645   9.914 -0.1186  0.5726 -1.8837
  767MOL0     H 5817   1.375   0.822   9.950  2.0042  1.3664  2.0570
  767MOL0     H 5818   1.259   0.605  10.118  2.7290 -0.7281 -3.2414
  767MOL0     H 5819   1.329   0.736  10.212  0.5947 -1.7271 -0.3398
  767MOL0     H 5820   1.197   0.897  10.092 -0.7358 -0.2572  0.0606
  767MOL0     H 5821   1.097   0.814  10.193 -2.8892  1.2398 -1.5355
  767MOL0     H 5822   1.012   0.665  10.017 -0.0422  0.1438 -0.6153
  767MOL0     H 5823   1.124   0.726   9.901 -1.0694 -0.5056  0.4642
  767MOL0     H 5824   0.989   0.962   9.954  0.7500  0.0284  1.5539
  767MOL0     H 5825   0.907   0.873  10.073  0.7640  0.0838 -0.6212
  767MOL0     H 5826   1.990   0.841   9.656 -1.7075  3.9632 -0.1395
  767MOL0     H 5827   2.233   0.880   9.647 -0.3352  0.7904  0.0831
  767MOL0     H 5828   2.619   0.848   9.830  0.8536 -0.5251 -0.8922
  767MOL0     H 5829   2.862   0.854   9.830 -2.2933  0.0393  1.8111
  767MOL0     H 5830   4.116   1.327  10.754  0.4658 -1.2985  1.2031
  767MOL0     H 5831   4.020   1.204  10.951 -0.3170  0.4772  0.5427
  767MOL0     H 5832   3.591   1.138  11.175  4.5587  2.1587 -2.5545
  767MOL0     H 5833   3.484   1.120  11.394 -0.6236 -1.2129  0.5645
  767MOL0     H 5834   3.516   0.899  11.618  0.4268 -3.0901  0.4904
  767MOL0     H 5835   3.689   0.891  11.658 -1.2096 -1.3670 -2.0717
  767MOL0     H 5836   3.669   0.977  11.862  0.4542  0.2345 -2.0128
  767MOL0     H 5837   3.536   0.847  11.857 -1.5468  0.2287 -0.9202
  767MOL0     H 5838   3.498   1.156  11.851  0.6312  0.6095 -1.2195
  767MOL0     H 5839   3.380   1.042  11.806 -0.2401  2.1558 -1.3533
  767MOL0     H 5840   3.363   1.131  12.050 -2.7854 -1.7855 -1.9636
  767MOL0     H 5841   3.514   1.055  12.086  1.8589  0.2920 -1.4796
  767MOL0     H 5842   3.233   0.741  12.125 -3.7715  1.8989 -0.2093
  767MOL0     H 5843   3.861   1.062  11.575 -1.2805  1.3462  1.2032
  767MOL0     H 5844   4.040   0.993  11.423  1.5198  1.6843 -0.7303
  767MOL0     H 5845   4.040   1.011  11.256 -0.0600  1.8252 -0.9848
  767MOL0     H 5846   4.042   1.160  11.356 -2.6146  1.4433 -3.6376
  768MOL0     O 5847   4.099   3.468  10.004  0.8840 -0.6156 -0.9149
  768MOL0     C 5848   4.026   3.544   9.943  0.2316  0.0736  0.4817
  768MOL0     O 5849   4.074   3.638   9.857 -0.7565  0.6734 -0.6466
  768MOL0     C 5850   4.213   3.639   9.826 -0.4374 -0.4961 -0.3567
  768MOL0     C 5851   4.250   3.609   9.698 -0.5927 -0.7684 -0.8175
  768MOL0     C 5852   4.395   3.618   9.667  0.1135 -0.0883 -0.3996
  768MOL0     C 5853   4.489   3.643   9.767 -0.0022  0.0438  0.0098
  768MOL0     O 5854   4.624   3.664   9.752  0.0406 -0.4521  1.1835
  768MOL0     C 5855   4.681   3.675   9.620  0.9429  0.0153  0.0215
  768MOL0     C 5856   4.762   3.803   9.619 -0.1432 -0.5214 -0.6954
  768MOL0     C 5857   4.877   3.783   9.711 -0.3908 -0.1793 -0.1806
  768MOL0     C 5858   4.968   3.908   9.720  0.2819  0.1831 -0.3290
  768MOL0     C 5859   5.080   3.896   9.816  0.4300 -0.0696 -0.0343
  768MOL0     C 5860   5.160   4.026   9.830 -0.9429  0.4571 -0.0671
  768MOL0     C 5861   5.272   4.032   9.939 -0.6309  0.1170 -0.1918
  768MOL0     C 5862   5.246   3.946  10.061  0.0557  0.3099  0.0792
  768MOL0     N 5863   5.359   3.955  10.157 -0.4215 -0.5798 -0.0631
  768MOL0     C 5864   5.360   4.055  10.255 -0.7613  0.5245  0.0022
  768MOL0     C 5865   5.483   4.050  10.308 -0.3151  0.5348  0.2752
  768MOL0     C 5866   5.530   4.119  10.433 -0.5628  0.5676  0.1107
  768MOL0     C 5867   5.488   4.264  10.448 -0.8276  0.0158 -0.2242
  768MOL0     C 5868   5.547   4.333  10.577 -0.2326 -0.3512 -0.2540
  768MOL0     C 5869   5.476   4.301  10.709  0.3417  0.4945 -0.5376
  768MOL0     O 5870   5.566   4.312  10.824  0.1425  0.2970  0.5699
  768MOL0     C 5871   5.513   4.327  10.951  0.3084  0.4511 -0.2025
  768MOL0     C 5872   5.594   4.362  11.060  0.7023  0.0703 -0.0801
  768MOL0     C 5873   5.564   4.353  11.198  0.3788 -0.8033 -0.9035
  768MOL0     C 5874   5.681   4.389  11.286 -0.0183  0.9168  0.1447
  768MOL0     C 5875   5.430   4.315  11.233 -0.0280  0.5972 -0.3832
  768MOL0     C 5876   5.387   4.318  11.377  0.0457 -0.3718 -0.0276
  768MOL0     O 5877   5.266   4.256  11.413 -0.3622 -0.6354 -0.3121
  768MOL0     C 5878   5.223   4.286  11.541 -0.7572  0.3833 -0.6348
  768MOL0     C 5879   5.269   4.204  11.654  0.5773  0.0323  0.9609
  768MOL0     C 5880   5.213   4.223  11.779 -0.6717  0.0542 -0.0389
  768MOL0     C 5881   5.117   4.328  11.795 -0.7969  0.1948  0.0260
  768MOL0     O 5882   5.076   4.340  11.929 -0.6100  0.8852 -0.0852
  768MOL0     C 5883   5.001   4.458  11.954 -0.1027  0.4469 -0.4185
  768MOL0     C 5884   4.949   4.456  12.103  0.4620  0.4459  0.2343
  768MOL0     C 5885   5.064   4.490  12.198  1.0862  0.6011 -0.0351
  768MOL0     C 5886   5.133   4.364  12.244  0.1132 -0.1483  0.8925
  768MOL0     C 5887   5.092   4.314  12.390 -0.4027 -0.5628 -0.1060
  768MOL0     C 5888   5.191   4.209  12.440 -0.5860 -0.8651  0.4663
  768MOL0     C 5889   5.314   4.253  12.513  0.7633 -0.3911  0.2755
  768MOL0     C 5890   5.379   4.130  12.576 -1.1880  0.3501 -1.0123
  768MOL0    Cl 5891   5.487   4.173  12.712 -0.3832  0.2101 -0.4515
  768MOL0     C 5892   5.084   4.419  11.689  0.9621  0.4382 -0.2255
  768MOL0     C 5893   5.139   4.396  11.558 -0.6056 -1.0490  0.2286
  768MOL0     O 5894   5.458   4.378  11.459  0.4259 -0.6753 -1.0961
  768MOL0     C 5895   5.343   4.278  11.133  0.3030  0.6011  0.9712
  768MOL0     C 5896   5.380   4.287  10.992 -0.7201  0.4769 -0.1309
  768MOL0     N 5897   5.556   3.949  10.250 -0.1248 -0.0613 -0.0779
  768MOL0     N 5898   5.479   3.889  10.157  0.1365 -0.0994  0.1580
  768MOL0     C 5899   4.440   3.658   9.901 -0.3504  0.1282 -1.5429
  768MOL0     C 5900   4.305   3.656   9.934 -0.1735  0.2894 -0.1276
  768MOL0     C 5901   3.878   3.540   9.947 -0.1669  0.1040 -0.3429
  768MOL0     C 5902   3.803   3.635   9.869 -0.1968  0.3776  0.9052
  768MOL0     C 5903   3.664   3.623   9.864  0.0609 -0.8237 -1.0916
  768MOL0     C 5904   3.598   3.520   9.932 -0.0008  0.3821 -0.2611
  768MOL0     O 5905   3.459   3.513   9.929  0.4049 -0.7831  0.0131
  768MOL0     C 5906   3.380   3.530  10.044  0.7746 -0.0128  0.2065
  768MOL0     C 5907   3.238   3.555   9.995  0.3692 -0.7604  0.0816
  768MOL0     C 5908   3.153   3.571  10.121 -0.2984  0.0428 -0.1009
  768MOL0     C 5909   3.011   3.606  10.083  0.3175  0.0231 -0.8654
  768MOL0     C 5910   2.947   3.482  10.032  0.0761 -0.3456  0.1222
  768MOL0     C 5911   2.888   3.381   9.998 -0.2770  0.4673  0.1913
  768MOL0     C 5912   3.672   3.431  10.015  0.4143 -0.0023 -0.5006
  768MOL0     C 5913   3.808   3.435  10.023  0.4288 -0.3777 -0.0657
  768MOL0     C 5914   3.874   3.324  10.105 -0.1844  0.1882  0.3347
  768MOL0     H 5915   4.181   3.587   9.617  0.1058  0.3014 -1.7373
  768MOL0     H 5916   4.427   3.608   9.564 -1.4611 -3.0746 -0.7037
  768MOL0     H 5917   4.610   3.666   9.537  0.5676  1.0021  0.2168
  768MOL0     H 5918   4.754   3.596   9.601  1.9546  0.0755  3.1595
  768MOL0     H 5919   4.802   3.824   9.519 -0.4599 -1.2352 -0.9871
  768MOL0     H 5920   4.706   3.889   9.655  0.8889  0.1885 -0.7538
  768MOL0     H 5921   4.837   3.758   9.809  0.7472 -3.0236 -0.3646
  768MOL0     H 5922   4.930   3.702   9.661  1.3545  2.9304 -3.9028
  768MOL0     H 5923   4.994   3.937   9.618 -0.3945  0.5598 -0.4039
  768MOL0     H 5924   4.902   3.988   9.755  0.4906  0.3035 -0.2073
  768MOL0     H 5925   5.139   3.807   9.795  1.9604  0.7754  0.5616
  768MOL0     H 5926   5.029   3.879   9.912 -1.2947 -0.9824 -1.0606
  768MOL0     H 5927   5.198   4.048   9.729  1.0661  0.1803  0.5928
  768MOL0     H 5928   5.094   4.108   9.860  2.0886  2.7585  0.8358
  768MOL0     H 5929   5.310   4.134   9.954 -0.0259 -0.0801 -0.3260
  768MOL0     H 5930   5.352   3.966   9.903 -0.2364  0.1093  0.6585
  768MOL0     H 5931   5.157   3.981  10.114 -0.5645  1.3689 -1.5680
  768MOL0     H 5932   5.237   3.841  10.033  0.7147  0.7356 -1.8832
  768MOL0     H 5933   5.279   4.109  10.304 -1.7598 -2.4918  2.0071
  768MOL0     H 5934   5.639   4.122  10.432 -0.4880  0.0954  2.0534
  768MOL0     H 5935   5.514   4.061  10.525  2.6677 -0.5541  0.0828
  768MOL0     H 5936   5.536   4.322  10.369 -0.1934 -1.6459 -1.1149
  768MOL0     H 5937   5.382   4.282  10.430 -0.4080  0.2554 -2.7654
  768MOL0     H 5938   5.654   4.315  10.590  0.6659  4.5825  1.2339
  768MOL0     H 5939   5.545   4.442  10.575  1.3371 -0.1820  2.3123
  768MOL0     H 5940   5.388   4.366  10.705  2.5763  3.9626  1.4295
  768MOL0     H 5941   5.430   4.202  10.720 -0.5501  1.0110  0.5311
  768MOL0     H 5942   5.694   4.402  11.048  0.4583  0.1955 -2.0329
  768MOL0     H 5943   5.777   4.361  11.242  0.9374  3.9252  0.0474
  768MOL0     H 5944   5.672   4.347  11.387  0.2148  0.7797  0.1105
  768MOL0     H 5945   5.685   4.498  11.300 -0.0400  0.6888  2.3152
  768MOL0     H 5946   5.351   4.133  11.652 -2.4214 -3.7149  0.9554
  768MOL0     H 5947   5.253   4.177  11.869 -1.3026  2.5286  1.5965
  768MOL0     H 5948   5.053   4.549  11.921  2.0048  0.2663  2.0389
  768MOL0     H 5949   4.906   4.459  11.901 -0.4391  0.1322  0.1689
  768MOL0     H 5950   4.869   4.527  12.124  0.0455 -0.5270  2.1783
  768MOL0     H 5951   4.908   4.358  12.129  1.4717 -0.5523 -1.7298
  768MOL0     H 5952   5.024   4.547  12.282  0.9822  1.1969 -0.4825
  768MOL0     H 5953   5.135   4.553  12.143  1.3111  0.2975 -0.1001
  768MOL0     H 5954   5.240   4.385  12.255  0.5615 -1.1731 -1.0462
  768MOL0     H 5955   5.133   4.279  12.174 -2.6723 -0.1980  0.8598
  768MOL0     H 5956   5.105   4.409  12.443  0.3487 -0.0822 -1.1111
  768MOL0     H 5957   4.987   4.283  12.398 -0.7676  0.9034  1.3077
  768MOL0     H 5958   5.229   4.151  12.355  2.9903 -0.4221  1.6182
  768MOL0     H 5959   5.138   4.140  12.507  0.8916 -1.5451  0.9618
  768MOL0     H 5960   5.285   4.318  12.595  1.7481 -2.4505  2.3789
  768MOL0     H 5961   5.379   4.296  12.436 -0.1051 -2.7215 -1.9224
  768MOL0     H 5962   5.428   4.087  12.488  2.1708 -0.7622  1.2319
  768MOL0     H 5963   5.301   4.065  12.618  0.3141 -0.3098  0.8514
  768MOL0     H 5964   5.013   4.501  11.695 -0.7715 -0.8647 -1.5917
  768MOL0     H 5965   5.120   4.463  11.475 -1.2071 -1.5465 -0.0401
  768MOL0     H 5966   5.251   4.231  11.166  0.5238  0.5443  1.5212
  768MOL0     H 5967   5.309   4.250  10.919  0.1690  0.2255 -0.8866
  768MOL0     H 5968   4.521   3.673   9.971  0.7187  0.9132 -2.8840
  768MOL0     H 5969   4.270   3.663  10.036 -1.0420  1.5214 -0.4808
  768MOL0     H 5970   3.841   3.717   9.809  1.2604 -0.6694  0.3344
  768MOL0     H 5971   3.611   3.687   9.793  2.3080  1.2365 -1.0534
  768MOL0     H 5972   3.383   3.441  10.108 -0.8488 -1.2585 -1.3393
  768MOL0     H 5973   3.412   3.615  10.105 -2.1260 -0.4684  2.6020
  768MOL0     H 5974   3.196   3.466   9.948  1.1449 -0.4757 -1.2121
  768MOL0     H 5975   3.236   3.642   9.928 -0.4393 -1.9659 -1.5410
  768MOL0     H 5976   3.158   3.473  10.169  0.2823  0.1142 -0.0204
  768MOL0     H 5977   3.191   3.642  10.194 -0.5386 -1.4107  1.5092
  768MOL0     H 5978   3.008   3.694  10.017 -1.4162  0.5979 -0.0700
  768MOL0     H 5979   2.960   3.632  10.176  1.7882  1.1559 -0.3450
  768MOL0     H 5980   2.832   3.301   9.953  2.1343  0.6785 -3.6137
  768MOL0     H 5981   3.615   3.355  10.068 -0.5724  2.0976  1.5898
  768MOL0     H 5982   3.800   3.253  10.144 -0.4410 -0.6517 -1.5430
  768MOL0     H 5983   3.943   3.262  10.046 -2.0137  0.4154 -2.1704
  768MOL0     H 5984   3.922   3.371  10.192  3.0362 -1.1248 -0.5584
  769MOL0     O 5985   1.977   1.821   8.331  0.5324 -0.7188 -0.3520
  769MOL0     C 5986   1.937   1.772   8.437  0.0191  1.5426 -0.0602
  769MOL0     O 5987   2.012   1.767   8.556  0.8361 -0.6195 -0.0931
  769MOL0     C 5988   2.141   1.813   8.539 -0.5388 -0.3553 -0.3165
  769MOL0     C 5989   2.244   1.720   8.528  0.6941 -1.6075  0.9577
  769MOL0     C 5990   2.371   1.772   8.527  0.5106  0.9023 -0.4147
  769MOL0     C 5991   2.407   1.914   8.524 -0.0543  1.0722 -0.4622
  769MOL0     O 5992   2.538   1.959   8.506 -0.2271  0.1669 -0.3207
  769MOL0     C 5993   2.636   1.859   8.487  0.4143 -0.6982  0.3694
  769MOL0     C 5994   2.763   1.923   8.441 -0.5884 -0.0557  0.8201
  769MOL0     C 5995   2.802   2.041   8.529 -0.2483 -0.9997 -0.2579
  769MOL0     C 5996   2.948   2.083   8.511  0.8399  0.5431 -0.3979
  769MOL0     C 5997   2.995   2.189   8.607 -0.7885 -0.2612 -0.4157
  769MOL0     C 5998   3.139   2.235   8.574  0.1112 -0.3520  0.1072
  769MOL0     C 5999   3.202   2.307   8.699 -0.6061 -0.3924  0.0078
  769MOL0     C 6000   3.116   2.419   8.737  0.4313 -0.3498  0.8868
  769MOL0     N 6001   3.123   2.536   8.650 -1.4564  0.1593 -0.8018
  769MOL0     C 6002   3.016   2.610   8.609 -0.2385  0.3756 -0.0026
  769MOL0     C 6003   3.065   2.728   8.556 -0.0264  0.0063  0.5908
  769MOL0     C 6004   2.986   2.837   8.493 -0.0529 -0.6894 -0.0268
  769MOL0     C 6005   2.990   2.836   8.338  1.2712 -0.0150  0.7009
  769MOL0     C 6006   3.037   2.967   8.283  0.4299 -0.0370 -0.1972
  769MOL0     C 6007   3.187   2.983   8.291 -0.3662  0.0681  0.2846
  769MOL0     O 6008   3.218   3.121   8.284  0.4218 -0.1624 -0.3256
  769MOL0     C 6009   3.347   3.165   8.289  1.1735 -0.1811  0.2280
  769MOL0     C 6010   3.460   3.084   8.316 -0.1199  0.1505 -0.4541
  769MOL0     C 6011   3.596   3.123   8.317 -0.4411 -0.2971 -0.2892
  769MOL0     C 6012   3.688   3.016   8.375  0.1538 -0.6965  0.2101
  769MOL0     C 6013   3.617   3.263   8.290 -0.5150  0.1055 -0.2110
  769MOL0     C 6014   3.753   3.320   8.275  0.5410  0.5164 -0.1652
  769MOL0     O 6015   3.773   3.458   8.310 -0.0556  0.5239  0.0774
  769MOL0     C 6016   3.896   3.515   8.288 -0.6525  0.7152 -0.0401
  769MOL0     C 6017   3.962   3.503   8.164  0.0129 -0.1689  0.1266
  769MOL0     C 6018   4.087   3.559   8.143  0.3567 -0.2480  0.2315
  769MOL0     C 6019   4.147   3.632   8.242  0.2326 -0.2364  0.0141
  769MOL0     O 6020   4.266   3.683   8.204 -0.0763  0.4072  0.2104
  769MOL0     C 6021   4.358   3.729   8.299 -0.9980 -0.1807 -0.0319
  769MOL0     C 6022   4.499   3.752   8.231  0.2133  0.1876 -0.1716
  769MOL0     C 6023   4.577   3.826   8.339  0.0309  0.4176 -0.3351
  769MOL0     C 6024   4.730   3.832   8.325 -0.5300  0.3036 -0.2012
  769MOL0     C 6025   4.785   3.936   8.421  0.3090 -0.5799 -0.0079
  769MOL0     C 6026   4.931   3.937   8.435  0.2284  0.2555 -0.6357
  769MOL0     C 6027   5.011   3.990   8.322 -0.1472 -0.2880  0.1071
  769MOL0     C 6028   5.160   3.999   8.341 -0.1134  0.1551  0.0125
  769MOL0    Cl 6029   5.215   4.143   8.445 -0.5190 -0.0948  0.5661
  769MOL0     C 6030   4.083   3.650   8.367 -0.1537 -0.7029  0.4695
  769MOL0     C 6031   3.959   3.595   8.390 -0.1395 -0.0150  0.0789
  769MOL0     O 6032   3.838   3.251   8.222 -0.0112  0.1046 -0.0432
  769MOL0     C 6033   3.504   3.347   8.261 -0.3719 -0.5132 -0.4019
  769MOL0     C 6034   3.366   3.298   8.251 -1.2230 -0.5762  0.2288
  769MOL0     N 6035   3.207   2.712   8.565  0.7102 -0.9185  0.2668
  769MOL0     N 6036   3.240   2.603   8.622  0.4334  0.5101 -0.2931
  769MOL0     C 6037   2.296   1.997   8.528  0.1020 -0.3530  0.2299
  769MOL0     C 6038   2.166   1.954   8.548  0.5654  0.4765  0.1634
  769MOL0     C 6039   1.800   1.718   8.439 -0.4789  0.5193 -0.2683
  769MOL0     C 6040   1.700   1.809   8.399  0.3065 -0.6003  0.9413
  769MOL0     C 6041   1.561   1.787   8.403 -0.3710 -1.0328 -0.4100
  769MOL0     C 6042   1.515   1.669   8.446 -0.0796 -0.5971 -0.3193
  769MOL0     O 6043   1.380   1.651   8.428  0.1984  0.0192  0.2647
  769MOL0     C 6044   1.318   1.554   8.519 -0.5512  0.2456 -0.2043
  769MOL0     C 6045   1.171   1.544   8.483  0.4929  0.2595  0.2545
  769MOL0     C 6046   1.076   1.627   8.573  0.6505  0.7593  0.2641
  769MOL0     C 6047   0.937   1.606   8.515 -0.2261 -0.1647  0.4034
  769MOL0     C 6048   0.845   1.601   8.625  0.4122 -0.7641  0.1985
  769MOL0     C 6049   0.773   1.596   8.722 -0.1537 -0.0170  0.5429
  769MOL0     C 6050   1.608   1.567   8.484  0.5827 -0.8939 -0.1094
  769MOL0     C 6051   1.748   1.594   8.482 -1.0263 -0.7579 -0.9420
  769MOL0     C 6052   1.839   1.474   8.517  0.1580  0.0592 -0.6470
  769MOL0     H 6053   2.215   1.618   8.548  0.8523 -2.1771 -1.4337
  769MOL0     H 6054   2.444   1.692   8.534  0.4906  1.0351  1.7899
  769MOL0     H 6055   2.604   1.777   8.422 -1.8411 -0.4907  1.1348
  769MOL0     H 6056   2.651   1.808   8.583 -0.4039  0.0061  0.8820
  769MOL0     H 6057   2.845   1.851   8.453  0.4754  1.1412  0.9492
  769MOL0     H 6058   2.765   1.945   8.334  0.4494 -3.4069  0.0251
  769MOL0     H 6059   2.739   2.126   8.498 -1.1625 -2.1656 -1.7193
  769MOL0     H 6060   2.793   2.014   8.635  0.4825  0.1084  0.1047
  769MOL0     H 6061   3.008   1.992   8.514 -1.9141 -1.4261 -0.8542
  769MOL0     H 6062   2.954   2.116   8.407 -1.7039  1.5268 -0.3077
  769MOL0     H 6063   2.974   2.159   8.710  2.0511 -0.4809  0.1657
  769MOL0     H 6064   2.937   2.279   8.582  0.7284  0.8661 -0.0245
  769MOL0     H 6065   3.204   2.152   8.543  0.1989 -0.2599  0.0461
  769MOL0     H 6066   3.143   2.304   8.490  2.0112  0.4675  0.8154
  769MOL0     H 6067   3.297   2.350   8.664 -0.0013  1.4021  3.4656
  769MOL0     H 6068   3.226   2.235   8.778 -0.2823  0.7257  0.9505
  769MOL0     H 6069   3.011   2.393   8.749  0.9630 -2.8701  0.5971
  769MOL0     H 6070   3.162   2.449   8.832  1.9879 -0.0680  0.0743
  769MOL0     H 6071   2.910   2.589   8.615 -0.2827  0.8968  1.5762
  769MOL0     H 6072   3.042   2.926   8.522 -1.1588 -0.3750  1.2090
  769MOL0     H 6073   2.884   2.847   8.530 -0.8797 -2.7740 -1.5196
  769MOL0     H 6074   3.064   2.762   8.305  1.8787  2.0049 -3.0531
  769MOL0     H 6075   2.891   2.806   8.303  2.1192 -0.8841 -1.0945
  769MOL0     H 6076   3.001   2.991   8.183 -1.3017 -0.5989  0.2685
  769MOL0     H 6077   2.999   3.045   8.350  2.7531  2.4052 -1.4849
  769MOL0     H 6078   3.217   2.935   8.384 -1.6647 -1.2252  0.0766
  769MOL0     H 6079   3.236   2.924   8.213  0.4062 -1.5216  1.9116
  769MOL0     H 6080   3.436   2.980   8.338  1.1016 -0.5546 -2.2041
  769MOL0     H 6081   3.649   2.917   8.349  0.6405  0.2452 -5.4595
  769MOL0     H 6082   3.701   3.030   8.483 -0.1364 -0.4550  0.2167
  769MOL0     H 6083   3.784   3.018   8.323  0.4321 -2.6050  0.5986
  769MOL0     H 6084   3.917   3.444   8.085 -1.2509  1.3200 -0.3349
  769MOL0     H 6085   4.121   3.567   8.041  2.8530 -1.4960  0.8873
  769MOL0     H 6086   4.317   3.827   8.326  0.6225  0.2357  1.0456
  769MOL0     H 6087   4.378   3.660   8.381  1.2399  1.6554  1.0734
  769MOL0     H 6088   4.552   3.660   8.204  0.5406  0.5988 -0.9618
  769MOL0     H 6089   4.478   3.808   8.139  0.2581  1.3556  0.5053
  769MOL0     H 6090   4.556   3.778   8.435 -1.6780  0.6579 -0.5504
  769MOL0     H 6091   4.535   3.926   8.345 -1.9503 -0.1529 -2.7751
  769MOL0     H 6092   4.741   3.860   8.220 -2.5186 -3.6493 -1.6642
  769MOL0     H 6093   4.785   3.740   8.348 -0.3904  0.7156  1.2586
  769MOL0     H 6094   4.751   4.032   8.380  1.4300 -0.0770  0.1913
  769MOL0     H 6095   4.753   3.924   8.525  1.0036 -0.4768  0.2211
  769MOL0     H 6096   4.952   3.833   8.462 -0.6311  1.0114  3.7222
  769MOL0     H 6097   4.953   3.987   8.530  1.5506  0.9723 -1.2931
  769MOL0     H 6098   4.983   4.094   8.301  0.9048  0.1370  0.7454
  769MOL0     H 6099   4.979   3.921   8.244 -2.0765  1.3697 -0.6592
  769MOL0     H 6100   5.203   4.010   8.241 -2.0268 -2.2860 -1.1989
  769MOL0     H 6101   5.200   3.909   8.388 -2.6994 -0.8319  0.4823
  769MOL0     H 6102   4.126   3.724   8.434 -0.1940 -0.4492  0.2189
  769MOL0     H 6103   3.906   3.608   8.484  2.3254  0.7571  1.4421
  769MOL0     H 6104   3.533   3.451   8.243  0.6652 -1.2259 -3.6348
  769MOL0     H 6105   3.289   3.368   8.221 -1.3867 -1.5815 -1.8239
  769MOL0     H 6106   2.314   2.104   8.514 -2.4967 -0.2663 -4.6012
  769MOL0     H 6107   2.086   2.028   8.544  2.6781  2.9648  1.1175
  769MOL0     H 6108   1.732   1.905   8.359 -2.6242  0.2572  0.4161
  769MOL0     H 6109   1.491   1.863   8.370  0.1448 -0.7543 -0.8885
  769MOL0     H 6110   1.367   1.457   8.508  0.9797  0.9885 -0.2494
  769MOL0     H 6111   1.333   1.579   8.625  1.9041  0.8054 -0.6240
  769MOL0     H 6112   1.153   1.436   8.493  2.9953 -0.2468 -0.0594
  769MOL0     H 6113   1.165   1.579   8.380  3.4846  0.9239  0.2168
  769MOL0     H 6114   1.079   1.593   8.677 -0.4138  2.4968  0.9135
  769MOL0     H 6115   1.100   1.734   8.563 -2.8730  1.4703 -3.4750
  769MOL0     H 6116   0.930   1.512   8.458  1.1816  0.5185 -0.9611
  769MOL0     H 6117   0.909   1.685   8.445  0.0838  0.5756  1.1081
  769MOL0     H 6118   0.724   1.605   8.817  3.5268  1.2213  2.5243
  769MOL0     H 6119   1.571   1.473   8.524 -1.1731 -0.0735  0.3116
  769MOL0     H 6120   1.794   1.430   8.607 -1.6477  1.1914 -0.9513
  769MOL0     H 6121   1.846   1.408   8.431 -1.4835  0.0133 -0.7844
  769MOL0     H 6122   1.938   1.508   8.549  0.2531  1.2731 -2.1361
  770MOL0     O 6123   6.719  10.041   4.067 -0.9669 -0.4832  0.1661
  770MOL0     C 6124   6.766   9.974   4.157  0.7238 -0.3265 -0.2399
  770MOL0     O 6125   6.686   9.882   4.226  0.0329 -0.4633 -0.5836
  770MOL0     C 6126   6.552   9.877   4.217  0.2547 -0.4511  0.3591
  770MOL0     C 6127   6.479   9.802   4.126 -0.2757  1.4506  0.8728
  770MOL0     C 6128   6.338   9.813   4.110 -1.0388  0.4970  0.0486
  770MOL0     C 6129   6.262   9.903   4.187  0.4420 -0.0329 -0.8504
  770MOL0     O 6130   6.129   9.930   4.170  0.0765 -0.2268 -0.3957
  770MOL0     C 6131   6.051   9.961   4.291  0.1644 -0.9216  0.1305
  770MOL0     C 6132   5.909  10.019   4.248 -0.8400  0.1027  0.0433
  770MOL0     C 6133   5.855   9.954   4.124  0.2316  0.2851 -0.0929
  770MOL0     C 6134   5.793   9.818   4.163 -0.1879  0.1774  0.0350
  770MOL0     C 6135   5.756   9.725   4.039  0.2846  0.3552 -0.1365
  770MOL0     C 6136   5.874   9.672   3.951  0.1863  0.1525 -0.5822
  770MOL0     C 6137   5.965   9.573   4.023  0.1515 -0.1705  0.4337
  770MOL0     C 6138   6.097   9.561   3.947  0.5546  0.1271 -0.3122
  770MOL0     N 6139   6.203   9.500   4.017  0.4744  0.0897 -0.2515
  770MOL0     C 6140   6.240   9.498   4.149  0.3036 -0.0030 -1.1995
  770MOL0     C 6141   6.357   9.426   4.152  0.7030  0.2545  0.0989
  770MOL0     C 6142   6.428   9.397   4.282  0.0121  0.4368 -0.1477
  770MOL0     C 6143   6.362   9.259   4.320  1.2688  0.0172 -0.8863
  770MOL0     C 6144   6.406   9.206   4.457 -0.6689 -0.5474 -0.8406
  770MOL0     C 6145   6.557   9.189   4.449  0.1094 -0.8436  0.2554
  770MOL0     O 6146   6.599   9.096   4.352 -0.4832  0.6365 -0.0323
  770MOL0     C 6147   6.726   9.040   4.375  0.6408  0.5873  0.0743
  770MOL0     C 6148   6.742   8.907   4.345 -0.6499  1.1286 -0.2165
  770MOL0     C 6149   6.872   8.841   4.340 -0.8673  0.1982  0.4556
  770MOL0     C 6150   6.899   8.710   4.280  0.2365 -0.1785 -0.3319
  770MOL0     C 6151   6.976   8.930   4.389  0.5064  0.0323 -1.7278
  770MOL0     C 6152   7.112   8.879   4.421  0.1053  0.5534 -0.1481
  770MOL0     O 6153   7.208   8.970   4.390  0.9128 -0.9152  0.0231
  770MOL0     C 6154   7.323   8.964   4.460 -0.4866  0.0897  0.7057
  770MOL0     C 6155   7.435   8.900   4.408  0.6269 -0.1854  0.0492
  770MOL0     C 6156   7.557   8.897   4.473  0.3851  0.5711  0.3807
  770MOL0     C 6157   7.573   8.968   4.591 -0.9229 -0.2052  0.1135
  770MOL0     O 6158   7.697   8.967   4.652 -0.7897  1.0508  0.5189
  770MOL0     C 6159   7.805   9.031   4.588  0.3465 -0.8011  0.1286
  770MOL0     C 6160   7.938   8.960   4.617 -1.0067 -0.6617  0.1312
  770MOL0     C 6161   7.941   8.813   4.573 -0.5661 -0.6647 -0.7674
  770MOL0     C 6162   8.088   8.761   4.586  0.6963 -0.5963  0.3740
  770MOL0     C 6163   8.096   8.612   4.582 -0.4948  0.0041  0.0676
  770MOL0     C 6164   8.010   8.547   4.474 -0.2355 -0.0598  0.8874
  770MOL0     C 6165   8.053   8.397   4.442 -0.7680 -0.2244 -0.7006
  770MOL0     C 6166   7.964   8.343   4.329 -1.2242  0.6782  0.6006
  770MOL0    Cl 6167   7.791   8.335   4.396  0.7034  0.1221 -0.2733
  770MOL0     C 6168   7.465   9.033   4.650  0.5900  1.3341 -0.1116
  770MOL0     C 6169   7.337   9.026   4.583 -0.4771 -0.4516 -0.1587
  770MOL0     O 6170   7.137   8.766   4.472  0.6497 -0.3115 -0.0032
  770MOL0     C 6171   6.953   9.058   4.448  1.1631  0.2848  0.5237
  770MOL0     C 6172   6.832   9.114   4.424  0.6882 -0.5996 -0.8848
  770MOL0     N 6173   6.410   9.411   4.023  0.3074 -0.2821  0.1336
  770MOL0     N 6174   6.316   9.457   3.949  0.3307  0.3063 -0.3554
  770MOL0     C 6175   6.341   9.972   4.298  1.2636  0.7935  0.0351
  770MOL0     C 6176   6.478   9.951   4.315 -0.0902  0.0156  0.3395
  770MOL0     C 6177   6.910   9.987   4.176 -0.1832  0.7534  0.0510
  770MOL0     C 6178   6.980  10.067   4.088 -0.2252  0.7303  0.8827
  770MOL0     C 6179   7.111  10.099   4.099 -0.3059 -0.5610 -0.5085
  770MOL0     C 6180   7.194  10.028   4.188 -0.8012  0.2099  0.0949
  770MOL0     O 6181   7.329  10.048   4.210 -1.0564  0.1233  0.7391
  770MOL0     C 6182   7.397  10.130   4.106 -0.4500 -0.0222 -0.2492
  770MOL0     C 6183   7.545  10.136   4.134 -0.6998 -0.3645  0.5680
  770MOL0     C 6184   7.589  10.223   4.253 -0.4250 -0.4755  0.1955
  770MOL0     C 6185   7.572  10.375   4.222 -0.0909 -0.3558 -0.2096
  770MOL0     C 6186   7.443  10.435   4.252 -0.2344  0.7282  0.1719
  770MOL0     C 6187   7.340  10.482   4.291  0.2342 -0.4689 -0.1575
  770MOL0     C 6188   7.136   9.935   4.263  0.4043  0.3381 -0.0513
  770MOL0     C 6189   6.993   9.920   4.266  0.0813  0.4649  0.1446
  770MOL0     C 6190   6.940   9.833   4.373 -0.2602 -0.3042 -0.3427
  770MOL0     H 6191   6.528   9.737   4.054 -2.3718  1.7496 -0.9661
  770MOL0     H 6192   6.271   9.756   4.046 -1.4858  0.7793  0.2576
  770MOL0     H 6193   6.104  10.041   4.342  1.1353 -1.9414  0.7677
  770MOL0     H 6194   6.046   9.871   4.352 -0.9641  0.1758  1.7346
  770MOL0     H 6195   5.832  10.018   4.325 -0.6236  2.2367  0.3427
  770MOL0     H 6196   5.915  10.124   4.218 -4.1998  0.8021  1.4205
  770MOL0     H 6197   5.780  10.012   4.070  1.2668 -3.0264 -5.9075
  770MOL0     H 6198   5.942   9.942   4.059  2.2557  1.0097  2.2925
  770MOL0     H 6199   5.852   9.757   4.231 -0.5694 -1.7074 -1.2371
  770MOL0     H 6200   5.705   9.837   4.225 -0.1398  1.8186 -0.3643
  770MOL0     H 6201   5.682   9.781   3.981 -0.9037 -0.0740  0.9241
  770MOL0     H 6202   5.715   9.637   4.090  1.1754 -0.2748 -0.4831
  770MOL0     H 6203   5.833   9.625   3.861 -3.0799  2.1010 -0.2783
  770MOL0     H 6204   5.937   9.754   3.917  1.0197  0.7752  2.2434
  770MOL0     H 6205   5.925   9.475   4.050  0.4354 -0.6768 -0.8898
  770MOL0     H 6206   5.973   9.621   4.121 -2.5019  0.4604  0.3997
  770MOL0     H 6207   6.078   9.512   3.851  0.3592 -1.8130  0.6787
  770MOL0     H 6208   6.118   9.665   3.919 -0.1572  1.0838  2.3811
  770MOL0     H 6209   6.180   9.546   4.226  1.4341 -0.5309  0.0433
  770MOL0     H 6210   6.424   9.472   4.361  1.1909 -0.6330  0.9692
  770MOL0     H 6211   6.532   9.380   4.252 -1.1769 -4.5063 -2.5085
  770MOL0     H 6212   6.255   9.274   4.337  1.3949  0.3886 -0.3757
  770MOL0     H 6213   6.376   9.185   4.241  1.1088  0.5202 -1.3887
  770MOL0     H 6214   6.386   9.276   4.538  0.4171  0.1675 -1.1673
  770MOL0     H 6215   6.358   9.109   4.477  1.0328 -0.9740  1.5913
  770MOL0     H 6216   6.599   9.284   4.416  0.2110 -1.0304 -0.1529
  770MOL0     H 6217   6.593   9.161   4.549  0.6205 -1.9615 -0.2197
  770MOL0     H 6218   6.655   8.855   4.306 -1.6153  1.2258  1.7280
  770MOL0     H 6219   6.804   8.655   4.273  0.9551 -1.2892 -2.0423
  770MOL0     H 6220   6.979   8.651   4.327  1.6194  3.0553  1.6841
  770MOL0     H 6221   6.929   8.725   4.176  0.0097  2.5041 -0.0674
  770MOL0     H 6222   7.423   8.845   4.316  0.6728 -0.7881  0.4017
  770MOL0     H 6223   7.646   8.857   4.426 -0.9964 -0.6569 -1.3452
  770MOL0     H 6224   7.785   9.025   4.481 -1.0049  1.6822  0.1738
  770MOL0     H 6225   7.804   9.137   4.615 -0.3642 -0.6531 -0.4555
  770MOL0     H 6226   8.004   9.014   4.548 -4.1121  1.0063 -1.7780
  770MOL0     H 6227   7.972   8.978   4.720  0.1814 -1.2936 -0.1256
  770MOL0     H 6228   7.895   8.810   4.474 -1.1584 -0.9474 -0.4878
  770MOL0     H 6229   7.874   8.754   4.636  2.4362 -1.8154  1.6238
  770MOL0     H 6230   8.141   8.793   4.676 -0.7703  2.0235  0.3983
  770MOL0     H 6231   8.151   8.807   4.509  1.2303  1.1403  1.8016
  770MOL0     H 6232   8.199   8.580   4.560 -1.2233 -2.0363 -0.5920
  770MOL0     H 6233   8.069   8.565   4.677 -1.5059 -1.2970 -0.8438
  770MOL0     H 6234   8.017   8.609   4.384 -1.8661  1.8141  1.9638
  770MOL0     H 6235   7.904   8.547   4.503  0.1600 -1.7022  2.5356
  770MOL0     H 6236   8.040   8.343   4.536 -0.3976  3.7349  1.8583
  770MOL0     H 6237   8.159   8.399   4.414 -0.5653 -1.5819 -0.1200
  770MOL0     H 6238   8.002   8.243   4.305  0.5306  1.2720  0.8188
  770MOL0     H 6239   7.986   8.403   4.241  2.6464 -0.9277  0.2924
  770MOL0     H 6240   7.482   9.074   4.749  0.7291  1.1161 -0.0446
  770MOL0     H 6241   7.248   9.067   4.630  0.4023 -1.1366  2.2368
  770MOL0     H 6242   7.030   9.113   4.500  2.5493 -0.7879 -0.3143
  770MOL0     H 6243   6.813   9.218   4.449 -3.2488 -1.8738  2.4935
  770MOL0     H 6244   6.296  10.038   4.372  1.3822  1.7869 -0.7573
  770MOL0     H 6245   6.520   9.995   4.405 -1.1725  4.4298 -1.0485
  770MOL0     H 6246   6.935  10.110   3.998  2.2391  0.4268 -0.5710
  770MOL0     H 6247   7.152  10.180   4.040 -0.4610  1.3380  1.7961
  770MOL0     H 6248   7.386  10.081   4.009  1.9385  0.1553 -0.6818
  770MOL0     H 6249   7.357  10.231   4.106  0.3742  0.3147 -0.5097
  770MOL0     H 6250   7.590  10.179   4.043 -0.5540  2.6268  1.9246
  770MOL0     H 6251   7.578  10.033   4.151 -0.2946 -0.3497 -0.0565
  770MOL0     H 6252   7.519  10.195   4.333 -1.1674  1.7638  0.3873
  770MOL0     H 6253   7.692  10.203   4.283 -0.9952  0.2179  2.8854
  770MOL0     H 6254   7.595  10.402   4.118 -1.2189 -2.0668 -0.9496
  770MOL0     H 6255   7.640  10.423   4.292  0.2443 -0.7651 -0.2512
  770MOL0     H 6256   7.250  10.518   4.339  0.5924  1.6350 -0.9644
  770MOL0     H 6257   7.207   9.868   4.312  2.6934  1.7972 -1.1796
  770MOL0     H 6258   6.869   9.886   4.438  2.4443  0.6673  2.0262
  770MOL0     H 6259   6.888   9.743   4.337 -0.3200 -2.2572  3.9432
  770MOL0     H 6260   7.017   9.784   4.432 -0.4166 -1.5942 -1.1643
  771MOL0     O 6261   3.906   7.468  10.977  0.6890  0.2092 -0.2290
  771MOL0     C 6262   3.805   7.406  11.012 -0.0030  0.6367 -0.5453
  771MOL0     O 6263   3.734   7.425  11.127  0.0620 -0.4542 -0.0798
  771MOL0     C 6264   3.760   7.525  11.214  0.6426  0.5050  0.8752
  771MOL0     C 6265   3.749   7.508  11.350 -0.1061  0.1984  0.4346
  771MOL0     C 6266   3.752   7.608  11.443  0.4895 -0.6219  0.6445
  771MOL0     C 6267   3.780   7.739  11.403 -0.3879 -0.3744 -0.0378
  771MOL0     O 6268   3.803   7.858  11.484 -0.1608  0.1983 -0.1138
  771MOL0     C 6269   3.792   7.836  11.628  0.2177  0.4074 -0.0899
  771MOL0     C 6270   3.926   7.764  11.685  0.2370 -0.4276  0.8146
  771MOL0     C 6271   4.048   7.851  11.669 -0.6022 -0.4893  0.2147
  771MOL0     C 6272   4.170   7.774  11.730 -0.2227 -0.3297  0.8087
  771MOL0     C 6273   4.304   7.831  11.692  0.1590  0.2244  0.4846
  771MOL0     C 6274   4.410   7.757  11.774 -1.5279 -0.5205 -0.2993
  771MOL0     C 6275   4.547   7.799  11.735  0.1912  0.7729 -0.2282
  771MOL0     C 6276   4.668   7.736  11.814 -0.3847 -0.4613 -0.4527
  771MOL0     N 6277   4.665   7.588  11.810  0.7183  0.0186  0.9182
  771MOL0     C 6278   4.618   7.503  11.908 -0.0215 -1.5690 -0.2423
  771MOL0     C 6279   4.652   7.371  11.870 -0.3957  0.4013  0.3822
  771MOL0     C 6280   4.617   7.248  11.949 -0.1117  1.0464  0.1379
  771MOL0     C 6281   4.741   7.201  12.031  1.1034  0.7002  0.7354
  771MOL0     C 6282   4.763   7.272  12.169  0.0485 -1.2809 -0.0662
  771MOL0     C 6283   4.895   7.224  12.231  0.3780 -0.7728  0.7202
  771MOL0     O 6284   4.879   7.084  12.260 -0.8956  0.6612  0.4438
  771MOL0     C 6285   4.992   7.001  12.267 -0.0674 -0.9663  0.2777
  771MOL0     C 6286   4.981   6.884  12.199  0.2940 -0.1852 -0.4375
  771MOL0     C 6287   5.093   6.804  12.180 -0.4004 -0.2873  0.1713
  771MOL0     C 6288   5.089   6.690  12.085  0.0014 -0.2734 -0.4103
  771MOL0     C 6289   5.220   6.846  12.234 -0.6159 -0.6884  0.0987
  771MOL0     C 6290   5.346   6.773  12.219 -0.2566  1.0493  0.8555
  771MOL0     O 6291   5.454   6.856  12.231  1.2188 -0.2607  0.6353
  771MOL0     C 6292   5.582   6.807  12.220 -0.3336  0.0966 -0.3444
  771MOL0     C 6293   5.631   6.697  12.296 -0.5254 -0.4755 -0.9570
  771MOL0     C 6294   5.771   6.667  12.311 -0.4546  0.0299 -0.4923
  771MOL0     C 6295   5.862   6.761  12.267 -0.3870  0.5781 -0.4604
  771MOL0     O 6296   5.994   6.745  12.302 -0.7475 -0.2323 -0.5157
  771MOL0     C 6297   6.088   6.772  12.191  0.2103  0.1689  0.5437
  771MOL0     C 6298   6.237   6.745  12.219  0.8559 -0.1209 -0.3503
  771MOL0     C 6299   6.299   6.852  12.310 -0.2570 -0.1630  0.9169
  771MOL0     C 6300   6.445   6.808  12.341  0.3358 -0.6361 -1.1171
  771MOL0     C 6301   6.522   6.894  12.443 -0.4142  0.1890  0.4666
  771MOL0     C 6302   6.545   7.043  12.392 -0.5445  0.6128 -0.1440
  771MOL0     C 6303   6.669   7.093  12.466 -0.5788  0.0159  0.2197
  771MOL0     C 6304   6.673   7.246  12.461  0.4297 -0.3602  0.1415
  771MOL0    Cl 6305   6.830   7.307  12.465  0.1238  0.4365  0.2020
  771MOL0     C 6306   5.817   6.868  12.191  0.4240  0.5361 -0.2140
  771MOL0     C 6307   5.678   6.886  12.166  0.0366 -0.1277 -0.0245
  771MOL0     O 6308   5.355   6.657  12.189  0.7289 -0.2411 -0.6009
  771MOL0     C 6309   5.229   6.962  12.316 -0.5122 -1.0550 -1.1385
  771MOL0     C 6310   5.113   7.034  12.334 -0.0447 -0.1215  0.0972
  771MOL0     N 6311   4.731   7.386  11.761 -0.1305  0.5218  0.6007
  771MOL0     N 6312   4.742   7.512  11.728 -0.0899  1.8529 -0.1006
  771MOL0     C 6313   3.783   7.757  11.261 -0.3894 -0.0389  0.0163
  771MOL0     C 6314   3.772   7.660  11.172  0.8775  1.2012  0.3362
  771MOL0     C 6315   3.758   7.289  10.924  0.1046  0.0558 -0.1442
  771MOL0     C 6316   3.703   7.177  10.994  0.4837  0.8906  0.0581
  771MOL0     C 6317   3.645   7.067  10.926 -0.0956 -0.6269  0.0602
  771MOL0     C 6318   3.631   7.067  10.786 -0.0272 -0.8957  0.3980
  771MOL0     O 6319   3.567   6.961  10.727 -0.6505 -0.1896 -0.1354
  771MOL0     C 6320   3.560   6.944  10.592 -0.3345  0.1863  1.0090
  771MOL0     C 6321   3.485   6.812  10.552 -0.5373 -0.6274 -0.1374
  771MOL0     C 6322   3.503   6.795  10.398  0.2790 -0.0973  0.5848
  771MOL0     C 6323   3.433   6.664  10.355 -0.4154  0.5588  0.2135
  771MOL0     C 6324   3.351   6.698  10.238  0.4537  0.8153 -0.0075
  771MOL0     C 6325   3.313   6.710  10.123 -0.1231  0.6132  0.0875
  771MOL0     C 6326   3.673   7.185  10.722  0.1648 -0.8587 -0.4461
  771MOL0     C 6327   3.750   7.288  10.780 -0.4673 -0.1221 -0.5508
  771MOL0     C 6328   3.794   7.403  10.700  0.4231  0.3512  0.2008
  771MOL0     H 6329   3.722   7.413  11.397 -2.2650  0.8461  0.6189
  771MOL0     H 6330   3.743   7.579  11.547  0.8616 -3.6261 -0.0834
  771MOL0     H 6331   3.697   7.786  11.648  0.5501 -1.3251 -2.4740
  771MOL0     H 6332   3.784   7.938  11.665 -2.8852 -0.4171  1.8810
  771MOL0     H 6333   3.910   7.748  11.792 -0.9348  1.0239  0.8977
  771MOL0     H 6334   3.953   7.670  11.637  1.5791 -0.1515  0.9891
  771MOL0     H 6335   4.068   7.864  11.563  0.8527  2.8977  0.7760
  771MOL0     H 6336   4.031   7.951  11.710  0.2662  0.4629 -1.6127
  771MOL0     H 6337   4.163   7.768  11.839  2.2010  1.1657  1.1134
  771MOL0     H 6338   4.171   7.676  11.684 -0.9843 -0.0173  0.1060
  771MOL0     H 6339   4.308   7.938  11.711 -4.4161  0.7282 -0.3043
  771MOL0     H 6340   4.313   7.816  11.584 -4.0387  3.0083 -0.4689
  771MOL0     H 6341   4.395   7.781  11.880  1.4665  0.6717 -0.0574
  771MOL0     H 6342   4.401   7.649  11.759 -1.1924 -0.4133 -1.3552
  771MOL0     H 6343   4.550   7.906  11.753  1.4352  0.6685  0.2790
  771MOL0     H 6344   4.578   7.779  11.632  2.3415  2.1237  0.0828
  771MOL0     H 6345   4.760   7.772  11.767  0.2249 -2.3175 -0.7683
  771MOL0     H 6346   4.664   7.774  11.917 -0.5383 -2.0793  0.1746
  771MOL0     H 6347   4.552   7.529  11.990  2.6131 -0.5416  1.6996
  771MOL0     H 6348   4.594   7.161  11.887  2.7014  0.0995  0.3099
  771MOL0     H 6349   4.529   7.273  12.010 -0.7210  2.5214 -1.2841
  771MOL0     H 6350   4.719   7.097  12.058 -2.2810  0.5100 -1.9464
  771MOL0     H 6351   4.824   7.203  11.960  1.8184  0.8954  1.5599
  771MOL0     H 6352   4.764   7.379  12.146  0.4887 -1.1489  0.5448
  771MOL0     H 6353   4.673   7.259  12.228 -0.8491  1.1487 -0.7598
  771MOL0     H 6354   4.978   7.229  12.160  1.2698  4.8317  1.6544
  771MOL0     H 6355   4.924   7.296  12.308  0.9720  0.2837 -0.4570
  771MOL0     H 6356   4.889   6.853  12.150 -0.7974  2.9082 -0.5477
  771MOL0     H 6357   5.131   6.599  12.127  0.7631 -0.9030 -2.4039
  771MOL0     H 6358   5.135   6.713  11.988 -4.2220  1.2551 -2.3230
  771MOL0     H 6359   4.984   6.684  12.056  0.1044  0.2418 -0.9336
  771MOL0     H 6360   5.569   6.627  12.351  1.6655 -0.7297  1.3964
  771MOL0     H 6361   5.812   6.582  12.364 -0.9602  0.1404  0.1044
  771MOL0     H 6362   6.065   6.702  12.111  1.6460  0.4861 -0.1829
  771MOL0     H 6363   6.085   6.874  12.151 -0.2522 -0.0744 -0.0395
  771MOL0     H 6364   6.243   6.644  12.261  0.7610 -0.7935 -1.9183
  771MOL0     H 6365   6.284   6.742  12.121 -1.6977  0.6749 -1.6847
  771MOL0     H 6366   6.239   6.870  12.399  0.7937  2.7492  1.1539
  771MOL0     H 6367   6.300   6.952  12.266 -1.9396  0.4299  2.1232
  771MOL0     H 6368   6.505   6.809  12.249  2.5022 -1.2450  0.2143
  771MOL0     H 6369   6.443   6.709  12.387 -2.4753 -0.0621  0.2417
  771MOL0     H 6370   6.482   6.896  12.545  1.2120  0.8204  1.1326
  771MOL0     H 6371   6.620   6.848  12.459 -0.8337 -0.7880  0.2958
  771MOL0     H 6372   6.460   7.111  12.402  0.2752  1.4473  1.5619
  771MOL0     H 6373   6.562   7.038  12.284  0.4934 -0.8937  0.0491
  771MOL0     H 6374   6.757   7.068  12.406 -0.8390 -0.6125  0.0961
  771MOL0     H 6375   6.681   7.059  12.569  2.7195  2.3196  0.7286
  771MOL0     H 6376   6.617   7.287  12.545  0.2749  1.0868 -0.6356
  771MOL0     H 6377   6.620   7.278  12.371  3.4515 -3.0966 -2.8990
  771MOL0     H 6378   5.889   6.936  12.147 -0.1938 -0.3028 -2.6608
  771MOL0     H 6379   5.651   6.976  12.111  0.8476 -0.2416 -0.6216
  771MOL0     H 6380   5.317   7.006  12.360  1.0064 -3.0270 -2.0580
  771MOL0     H 6381   5.132   7.119  12.399  0.1987 -0.7631  0.8681
  771MOL0     H 6382   3.788   7.856  11.217  1.6374  0.9254  2.1752
  771MOL0     H 6383   3.781   7.694  11.069 -0.2526  1.3138  0.2576
  771MOL0     H 6384   3.691   7.166  11.101  1.6994 -0.6017  0.0739
  771MOL0     H 6385   3.621   6.975  10.979  2.8663 -0.2072  2.4278
  771MOL0     H 6386   3.519   7.034  10.545  0.2284 -0.8138 -1.5860
  771MOL0     H 6387   3.661   6.940  10.550 -1.5233  0.3385 -2.1035
  771MOL0     H 6388   3.381   6.822  10.586 -0.6354 -1.2554 -0.2537
  771MOL0     H 6389   3.524   6.728  10.610 -2.1865 -1.1536  0.2690
  771MOL0     H 6390   3.456   6.884  10.354 -0.7137 -0.0946  1.6078
  771MOL0     H 6391   3.611   6.795  10.383  0.6521  4.6986  1.4669
  771MOL0     H 6392   3.373   6.617  10.433  1.1652 -0.9808  0.5590
  771MOL0     H 6393   3.506   6.585  10.336  0.4334  0.6987  2.5021
  771MOL0     H 6394   3.284   6.738  10.024 -0.2523 -0.6078 -0.2355
  771MOL0     H 6395   3.642   7.180  10.618  0.5014  1.8363 -0.7509
  771MOL0     H 6396   3.760   7.381  10.598  0.6898  0.1829  0.1473
  771MOL0     H 6397   3.751   7.500  10.723  1.6505  1.2998 -1.2920
  771MOL0     H 6398   3.902   7.416  10.701  0.3444  0.9483  0.6949
  772MOL0     O 6399   8.316  10.089   2.260  0.2747 -0.2165  0.0984
  772MOL0     C 6400   8.302  10.198   2.324  0.1160  1.1571  0.6238
  772MOL0     O 6401   8.387  10.300   2.321  0.3557 -0.1436  0.2421
  772MOL0     C 6402   8.507  10.288   2.269 -0.4425  0.1536  0.0475
  772MOL0     C 6403   8.541  10.344   2.148 -0.2646 -0.2740  0.5888
  772MOL0     C 6404   8.674  10.334   2.096  0.7009 -0.0528 -0.9406
  772MOL0     C 6405   8.763  10.267   2.175 -0.8795  0.5680  0.1711
  772MOL0     O 6406   8.902  10.275   2.146  0.8464  0.3358  0.4456
  772MOL0     C 6407   8.950  10.310   2.017 -0.6088  0.1766 -0.3328
  772MOL0     C 6408   9.101  10.307   2.022 -0.2129  0.4049 -0.0658
  772MOL0     C 6409   9.172  10.364   1.897 -0.2681  0.1258 -0.4899
  772MOL0     C 6410   9.203  10.247   1.808  0.5021  0.2502  0.0825
  772MOL0     C 6411   9.252  10.287   1.670 -0.0077  0.5660  0.4711
  772MOL0     C 6412   9.383  10.362   1.681 -0.0951 -0.5502  0.2733
  772MOL0     C 6413   9.467  10.309   1.565 -0.4873 -0.2510 -0.6096
  772MOL0     C 6414   9.596  10.395   1.561 -0.1884 -0.3121 -0.8264
  772MOL0     N 6415   9.686  10.339   1.462 -0.2995  0.2285  0.2328
  772MOL0     C 6416   9.679  10.374   1.328 -0.3342  0.3474 -0.1134
  772MOL0     C 6417   9.777  10.296   1.270  0.5047 -0.5776  0.4911
  772MOL0     C 6418   9.815  10.286   1.122  0.4187 -0.2312  0.3208
  772MOL0     C 6419   9.970  10.289   1.091 -0.4084  0.1911  0.8703
  772MOL0     C 6420  10.000  10.251   0.949 -0.9107 -0.6980  0.0535
  772MOL0     C 6421  10.153  10.243   0.919  0.0966 -0.6177 -0.0076
  772MOL0     O 6422  10.186  10.210   0.788  0.4511 -0.1502  0.6899
  772MOL0     C 6423  10.317  10.212   0.758  0.2992  1.2539  0.6616
  772MOL0     C 6424  10.423  10.236   0.850 -0.8007 -0.5703  0.4542
  772MOL0     C 6425  10.553  10.234   0.808  0.3583  0.0977  0.3330
  772MOL0     C 6426  10.649  10.253   0.928 -0.8531  0.4748  0.2903
  772MOL0     C 6427  10.585  10.222   0.671 -0.5249  0.4103  0.1865
  772MOL0     C 6428  10.728  10.217   0.616 -0.4321 -0.0589  0.3967
  772MOL0     O 6429  10.834  10.198   0.708  0.2699 -0.2168  1.0030
  772MOL0     C 6430  10.959  10.173   0.656  0.8036  0.5880  0.8212
  772MOL0     C 6431  11.043  10.078   0.717 -0.3072  0.4830 -0.5665
  772MOL0     C 6432  11.174  10.074   0.684  0.3572  0.9480  0.7274
  772MOL0     C 6433  11.233  10.170   0.594 -0.2950  0.6283 -0.5602
  772MOL0     O 6434  11.373  10.170   0.556  0.2056 -0.3964 -0.4470
  772MOL0     C 6435  11.452  10.046   0.580  0.4404 -0.7513 -0.3146
  772MOL0     C 6436  11.588  10.048   0.514  0.7636 -0.1626 -0.1720
  772MOL0     C 6437  11.681   9.941   0.576  0.5502 -0.0950  0.3522
  772MOL0     C 6438  11.803   9.932   0.483  0.0402  0.0079 -0.5562
  772MOL0     C 6439  11.907   9.836   0.530  0.0741  0.2978  0.4963
  772MOL0     C 6440  11.991   9.896   0.649 -0.1945 -0.4519  0.4782
  772MOL0     C 6441  12.097   9.798   0.691 -0.1432  0.6391  0.0450
  772MOL0     C 6442  12.061   9.689   0.796  0.6016 -0.7287 -0.1011
  772MOL0    Cl 6443  12.067   9.772   0.956 -0.1313  0.4899  0.3866
  772MOL0     C 6444  11.156  10.260   0.536 -0.0374 -1.4195  0.2234
  772MOL0     C 6445  11.024  10.270   0.574  0.2147 -0.1457  0.2629
  772MOL0     O 6446  10.740  10.229   0.494  0.7262  0.2145 -0.5039
  772MOL0     C 6447  10.481  10.199   0.585  0.4530 -0.6411  0.8831
  772MOL0     C 6448  10.348  10.187   0.622 -1.4116 -0.9974 -0.6968
  772MOL0     N 6449   9.851  10.245   1.371 -0.2646 -0.0986 -0.9409
  772MOL0     N 6450   9.803  10.267   1.485  0.6398 -0.2350  0.1824
  772MOL0     C 6451   8.735  10.196   2.295 -0.2538 -0.2380 -0.4192
  772MOL0     C 6452   8.605  10.207   2.343 -0.9046  0.3557 -0.1482
  772MOL0     C 6453   8.180  10.211   2.402  0.2873 -0.1061  0.9053
  772MOL0     C 6454   8.177  10.163   2.532 -0.2695  0.1334 -0.4388
  772MOL0     C 6455   8.059  10.136   2.605  0.1737  0.5798  0.6896
  772MOL0     C 6456   7.936  10.177   2.550  0.1244 -0.3759  0.1672
  772MOL0     O 6457   7.814  10.174   2.602  0.1451 -0.2924 -0.6411
  772MOL0     C 6458   7.784  10.058   2.690 -0.5883 -0.1566 -1.5864
  772MOL0     C 6459   7.787  10.120   2.828 -0.4906  0.4023  0.3458
  772MOL0     C 6460   7.657  10.168   2.868  0.1000  0.3214  0.3560
  772MOL0     C 6461   7.643  10.191   3.019  0.7468  0.4701  0.3524
  772MOL0     C 6462   7.721  10.302   3.078 -0.8012  1.0626 -0.8940
  772MOL0     C 6463   7.776  10.409   3.108  0.3938  0.9005 -0.3356
  772MOL0     C 6464   7.938  10.241   2.417  0.9933 -0.4856  0.4900
  772MOL0     C 6465   8.057  10.253   2.344  0.8191 -0.6452 -0.5486
  772MOL0     C 6466   8.036  10.317   2.210  0.2047 -0.8994  0.5728
  772MOL0     H 6467   8.472  10.405   2.089  0.3947 -1.8904 -2.0217
  772MOL0     H 6468   8.705  10.387   2.006  4.3030  0.4918  0.4500
  772MOL0     H 6469   8.924  10.415   2.002  3.1250  1.3445  0.3749
  772MOL0     H 6470   8.916  10.245   1.936  1.6732 -0.9744 -0.4532
  772MOL0     H 6471   9.136  10.377   2.098  0.1962  1.5233 -1.2427
  772MOL0     H 6472   9.137  10.206   2.044 -2.0812  0.0274  1.5593
  772MOL0     H 6473   9.102  10.438   1.856  0.5716  2.3537  1.8260
  772MOL0     H 6474   9.265  10.414   1.928 -0.4313  0.7721 -1.0033
  772MOL0     H 6475   9.282  10.194   1.861 -0.9923 -2.6731 -0.4100
  772MOL0     H 6476   9.116  10.184   1.788  2.0989 -1.1723 -3.1950
  772MOL0     H 6477   9.174  10.349   1.623  2.2277  4.5785  1.5547
  772MOL0     H 6478   9.259  10.195   1.612 -3.0301  0.8580 -0.5617
  772MOL0     H 6479   9.368  10.470   1.674 -1.2897 -0.7574 -0.7287
  772MOL0     H 6480   9.443  10.348   1.771 -0.2209 -4.2385 -0.0727
  772MOL0     H 6481   9.425  10.326   1.465 -0.1344 -1.4734 -0.9794
  772MOL0     H 6482   9.494  10.205   1.581  1.4137 -0.0629 -2.1214
  772MOL0     H 6483   9.568  10.496   1.533  0.2924  0.1257  0.2279
  772MOL0     H 6484   9.647  10.382   1.657 -1.7279  2.2920  0.4328
  772MOL0     H 6485   9.592  10.421   1.282  0.1476  2.2073  0.7889
  772MOL0     H 6486   9.775  10.372   1.069  0.5380 -2.1701 -3.2255
  772MOL0     H 6487   9.765  10.197   1.082  1.4788 -0.4299 -0.6253
  772MOL0     H 6488  10.009  10.389   1.110  2.1539 -0.7921  1.1942
  772MOL0     H 6489  10.025  10.225   1.161 -1.5088 -0.2139  1.3914
  772MOL0     H 6490   9.961  10.150   0.935 -3.1882  0.5639 -4.9147
  772MOL0     H 6491   9.962  10.329   0.883 -2.2932  0.1123  1.7387
  772MOL0     H 6492  10.185  10.345   0.941  0.5060 -1.1508  2.1107
  772MOL0     H 6493  10.208  10.181   0.990 -0.8910 -0.3216  1.0385
  772MOL0     H 6494  10.400  10.245   0.955  0.3168 -1.6267  0.8045
  772MOL0     H 6495  10.596  10.296   1.014  1.1363  1.3988  1.1114
  772MOL0     H 6496  10.734  10.319   0.912  0.7594 -1.5340  0.2560
  772MOL0     H 6497  10.692  10.157   0.956  1.2471  1.6983  1.4389
  772MOL0     H 6498  11.010  10.017   0.800  0.3933  2.3787  1.2093
  772MOL0     H 6499  11.235   9.994   0.724 -0.8801 -1.9669 -2.7303
  772MOL0     H 6500  11.458  10.032   0.689  1.8143  0.2702 -0.2311
  772MOL0     H 6501  11.401   9.955   0.549 -1.0474 -1.0900  2.7537
  772MOL0     H 6502  11.566  10.015   0.412  0.8750 -1.1986  0.1221
  772MOL0     H 6503  11.628  10.149   0.509 -2.4920  1.2167 -0.8545
  772MOL0     H 6504  11.625   9.847   0.591 -0.4146  0.1964 -1.2095
  772MOL0     H 6505  11.701   9.984   0.675  0.1461  0.6393  0.1223
  772MOL0     H 6506  11.845  10.032   0.477 -1.2011  0.9178  3.1121
  772MOL0     H 6507  11.764   9.913   0.383 -0.4224  0.8087 -0.5377
  772MOL0     H 6508  11.865   9.741   0.565  1.0833  0.3214  1.8883
  772MOL0     H 6509  11.962   9.797   0.444 -1.9952 -1.9053  0.0695
  772MOL0     H 6510  11.918   9.912   0.728 -3.1562 -2.3875 -1.6371
  772MOL0     H 6511  12.028   9.993   0.613  0.1939 -0.1384  1.6711
  772MOL0     H 6512  12.188   9.838   0.736  1.0190 -1.6816 -0.1075
  772MOL0     H 6513  12.126   9.734   0.607 -1.1821 -2.3920  1.8714
  772MOL0     H 6514  12.133   9.607   0.803  1.8516  0.4749  4.0585
  772MOL0     H 6515  11.962   9.643   0.790  0.9740 -1.6414  0.4933
  772MOL0     H 6516  11.201  10.318   0.456  0.0570 -2.5821 -0.6063
  772MOL0     H 6517  10.969  10.358   0.542  0.4095  0.7561  2.2048
  772MOL0     H 6518  10.501  10.194   0.478 -1.3294  1.0598  0.4118
  772MOL0     H 6519  10.261  10.163   0.563 -0.5587 -0.8200 -2.0586
  772MOL0     H 6520   8.802  10.137   2.356 -1.4840 -1.4297 -0.1598
  772MOL0     H 6521   8.573  10.161   2.436 -1.9310  2.2581  0.5082
  772MOL0     H 6522   8.269  10.142   2.587 -1.7384 -1.4550  1.5662
  772MOL0     H 6523   8.064  10.090   2.704  1.1594 -1.0892 -0.0874
  772MOL0     H 6524   7.682  10.023   2.669 -1.1693 -0.1895  0.9454
  772MOL0     H 6525   7.849   9.971   2.681 -2.6912 -1.7889 -1.6589
  772MOL0     H 6526   7.853  10.208   2.829  0.3136 -0.0852 -2.5554
  772MOL0     H 6527   7.823  10.049   2.904 -1.9637 -1.7897 -0.9136
  772MOL0     H 6528   7.630  10.265   2.827  0.3029  1.3046  2.3935
  772MOL0     H 6529   7.587  10.092   2.833  0.5913  0.6217 -1.3507
  772MOL0     H 6530   7.647  10.094   3.068 -0.0784  0.6495  0.7973
  772MOL0     H 6531   7.545  10.234   3.044  1.3774  2.1766 -0.0137
  772MOL0     H 6532   7.821  10.506   3.109 -1.6875  1.9695 -2.5165
  772MOL0     H 6533   7.846  10.273   2.371  0.3022 -2.4923  0.4151
  772MOL0     H 6534   7.936  10.357   2.193  0.1899 -1.0781  0.2202
  772MOL0     H 6535   8.098  10.406   2.219 -2.8756  1.3188  1.6300
  772MOL0     H 6536   8.067  10.255   2.126 -0.4098 -2.1171  1.2113
  773MOL0     O 6537   1.035  10.500   8.104 -0.5162  0.2678 -0.1751
  773MOL0     C 6538   0.924  10.552   8.080 -0.7540 -0.4325  0.3689
  773MOL0     O 6539   0.844  10.518   7.965  0.1365  0.8218  0.1832
  773MOL0     C 6540   0.901  10.419   7.883 -0.3098 -1.5775 -0.4703
  773MOL0     C 6541   1.025  10.453   7.827 -0.8070 -0.5083  1.2379
  773MOL0     C 6542   1.091  10.360   7.755  0.1576  0.0095 -0.0533
  773MOL0     C 6543   1.036  10.233   7.739  0.5012 -0.3112  0.3499
  773MOL0     O 6544   1.103  10.125   7.675  0.0598  0.0402  0.4344
  773MOL0     C 6545   1.234  10.125   7.616 -0.4189  0.3311 -0.0213
  773MOL0     C 6546   1.334  10.104   7.723 -0.1550 -0.6586  0.1788
  773MOL0     C 6547   1.477  10.113   7.659 -0.4324 -0.2689 -0.4165
  773MOL0     C 6548   1.575  10.151   7.774 -1.3899 -0.7443  0.9200
  773MOL0     C 6549   1.723  10.182   7.714  0.8869 -0.4378 -0.2064
  773MOL0     C 6550   1.825  10.223   7.817 -0.5756  0.3679 -0.6132
  773MOL0     C 6551   1.961  10.267   7.751 -0.0660  0.0765  0.4241
  773MOL0     C 6552   2.046  10.153   7.697 -0.9778 -0.0361 -0.2507
  773MOL0     N 6553   2.182  10.194   7.652 -0.4173  0.2345  0.6404
  773MOL0     C 6554   2.250  10.314   7.676 -0.1518  0.2822  0.4957
  773MOL0     C 6555   2.354  10.308   7.592  0.3831  0.5584  0.0633
  773MOL0     C 6556   2.446  10.407   7.555 -0.4080 -1.0232  0.6933
  773MOL0     C 6557   2.538  10.444   7.666  0.8666 -1.8404  0.3785
  773MOL0     C 6558   2.621  10.323   7.726 -0.0911  1.0515 -0.3098
  773MOL0     C 6559   2.706  10.372   7.853  0.5196 -0.1557 -0.8152
  773MOL0     O 6560   2.775  10.493   7.828 -0.0508  0.9648 -0.7619
  773MOL0     C 6561   2.845  10.546   7.931  0.9228 -0.4372  0.6630
  773MOL0     C 6562   2.808  10.561   8.059  0.9775  0.4112  0.1302
  773MOL0     C 6563   2.882  10.620   8.159 -0.6381 -0.3609  0.1980
  773MOL0     C 6564   2.819  10.610   8.302 -0.7828  1.1628 -0.6808
  773MOL0     C 6565   3.006  10.681   8.123  0.5599 -0.1459 -0.2610
  773MOL0     C 6566   3.101  10.737   8.214  0.4355  0.2344  0.1510
  773MOL0     O 6567   3.196  10.815   8.172 -0.8448  0.5588  0.3509
  773MOL0     C 6568   3.280  10.876   8.258 -0.2552  0.2731  0.4017
  773MOL0     C 6569   3.371  10.810   8.355  0.7655 -0.5272 -0.3757
  773MOL0     C 6570   3.458  10.883   8.429 -0.1107 -0.2256  0.1520
  773MOL0     C 6571   3.477  11.023   8.405  0.0671 -0.4908 -0.4141
  773MOL0     O 6572   3.570  11.094   8.483 -1.0201  0.7914  0.3742
  773MOL0     C 6573   3.533  11.140   8.613 -0.0676  0.0963  0.0921
  773MOL0     C 6574   3.638  11.219   8.694  0.8389 -0.4771  0.4644
  773MOL0     C 6575   3.758  11.129   8.726  0.0143  0.5322 -0.6146
  773MOL0     C 6576   3.875  11.154   8.632  0.5270  0.1006 -0.6758
  773MOL0     C 6577   3.993  11.065   8.657  0.0662  0.0112  0.5068
  773MOL0     C 6578   4.087  11.103   8.780  0.1658 -0.1453  0.3596
  773MOL0     C 6579   4.201  11.000   8.767 -0.3536 -0.5014  0.0055
  773MOL0     C 6580   4.296  11.041   8.651  0.2546  0.5660 -0.3450
  773MOL0    Cl 6581   4.472  11.024   8.692  0.2322 -0.4867  0.5131
  773MOL0     C 6582   3.386  11.086   8.324 -1.1119  0.8474  1.1989
  773MOL0     C 6583   3.297  11.015   8.248 -0.1883  0.0483 -0.0232
  773MOL0     O 6584   3.082  10.708   8.333  0.7347  0.2390 -0.7530
  773MOL0     C 6585   3.048  10.669   7.989 -0.0183 -0.7668  0.0866
  773MOL0     C 6586   2.968  10.603   7.894  0.1176  0.1704  0.6842
  773MOL0     N 6587   2.346  10.185   7.515  0.0402 -0.4847  0.1674
  773MOL0     N 6588   2.248  10.119   7.560 -0.6545 -0.4306 -0.4308
  773MOL0     C 6589   0.912  10.203   7.800 -0.1599 -0.6250 -0.7913
  773MOL0     C 6590   0.831  10.303   7.865 -0.6792 -0.4581  0.1783
  773MOL0     C 6591   0.878  10.670   8.161  1.0091 -0.3683  0.0848
  773MOL0     C 6592   0.812  10.776   8.098  0.4676 -0.1215 -0.4276
  773MOL0     C 6593   0.773  10.883   8.168 -0.6027 -0.7897 -1.0293
  773MOL0     C 6594   0.793  10.905   8.309 -0.1059  0.6021 -0.3554
  773MOL0     O 6595   0.765  11.014   8.383 -0.5857  0.0263  0.7798
  773MOL0     C 6596   0.777  11.132   8.305 -0.4164 -0.5610  0.0770
  773MOL0     C 6597   0.792  11.255   8.392 -0.1899 -0.5899  0.4288
  773MOL0     C 6598   0.941  11.255   8.430  0.3791 -0.0761  0.3144
  773MOL0     C 6599   0.990  11.383   8.502  0.4852  0.1041  0.5351
  773MOL0     C 6600   1.135  11.375   8.515 -0.7618  0.3316 -0.0795
  773MOL0     C 6601   1.255  11.364   8.538 -0.0119  0.2003 -0.3962
  773MOL0     C 6602   0.847  10.799   8.372  0.0242 -0.5728 -0.2573
  773MOL0     C 6603   0.883  10.684   8.304 -1.0147  0.3045  0.7870
  773MOL0     C 6604   0.927  10.566   8.395 -0.4148 -0.5224 -0.0363
  773MOL0     H 6605   1.069  10.552   7.839  0.0238 -1.0557  3.1830
  773MOL0     H 6606   1.193  10.375   7.721 -0.3688  0.8150 -1.3209
  773MOL0     H 6607   1.242  10.224   7.570 -1.7563  1.2998  1.6938
  773MOL0     H 6608   1.234  10.038   7.549 -1.0385 -0.4589  0.9697
  773MOL0     H 6609   1.337  10.193   7.787  3.6821  2.1207 -3.3360
  773MOL0     H 6610   1.309  10.010   7.772  3.2847 -2.1474 -0.5971
  773MOL0     H 6611   1.507  10.014   7.622  1.4437 -0.7906  2.2099
  773MOL0     H 6612   1.467  10.176   7.570 -0.9824 -0.4774 -0.5031
  773MOL0     H 6613   1.547  10.249   7.813 -0.0290  0.4946 -1.0283
  773MOL0     H 6614   1.585  10.073   7.850  1.1282 -1.4390 -0.0206
  773MOL0     H 6615   1.703  10.270   7.651 -2.9799 -2.2681 -1.8958
  773MOL0     H 6616   1.753  10.094   7.657  0.5403 -1.4533  1.1351
  773MOL0     H 6617   1.788  10.302   7.883  0.3483  0.4979 -0.2390
  773MOL0     H 6618   1.852  10.136   7.877  1.1176 -0.9884 -3.1483
  773MOL0     H 6619   2.011  10.316   7.835  1.4402 -0.8986  0.1349
  773MOL0     H 6620   1.954  10.347   7.677  3.1140 -1.1027 -1.3368
  773MOL0     H 6621   2.068  10.077   7.773 -0.9078 -0.0383 -0.2732
  773MOL0     H 6622   1.984  10.109   7.618  0.0184 -0.5011 -0.7919
  773MOL0     H 6623   2.244  10.397   7.745 -0.6023  0.8835 -0.2648
  773MOL0     H 6624   2.379  10.482   7.512 -1.1993 -1.1654  1.6321
  773MOL0     H 6625   2.503  10.369   7.470 -1.1837 -0.8968  0.0959
  773MOL0     H 6626   2.602  10.522   7.625  2.0370 -2.4025  1.1006
  773MOL0     H 6627   2.482  10.501   7.741  1.2411  1.1700 -1.4211
  773MOL0     H 6628   2.554  10.242   7.756  0.1752  0.6114 -0.8819
  773MOL0     H 6629   2.688  10.279   7.651  0.1416 -0.8820  0.9603
  773MOL0     H 6630   2.628  10.396   7.925  1.8864  2.7185 -0.1322
  773MOL0     H 6631   2.773  10.297   7.897 -1.0038 -2.5448 -2.3290
  773MOL0     H 6632   2.709  10.521   8.081  0.1748  0.4723 -2.8792
  773MOL0     H 6633   2.878  10.554   8.375  1.2776  1.4105 -2.0770
  773MOL0     H 6634   2.720  10.563   8.303 -0.2225 -0.0572  0.0997
  773MOL0     H 6635   2.810  10.708   8.350 -1.2383  0.1090  1.5321
  773MOL0     H 6636   3.362  10.703   8.373  0.7954 -0.6311 -0.9536
  773MOL0     H 6637   3.510  10.829   8.508  0.4198 -0.8716 -0.6219
  773MOL0     H 6638   3.440  11.195   8.599  0.0621 -0.1908 -2.2850
  773MOL0     H 6639   3.508  11.049   8.668 -0.6423 -1.1063 -2.0802
  773MOL0     H 6640   3.670  11.313   8.649 -2.8907  1.2480  1.0709
  773MOL0     H 6641   3.584  11.242   8.786  1.5735 -1.3574  1.1433
  773MOL0     H 6642   3.739  11.022   8.735 -1.0429  0.8978  3.1928
  773MOL0     H 6643   3.797  11.152   8.825 -1.8744  2.1000 -0.1841
  773MOL0     H 6644   3.914  11.254   8.651  0.7829 -0.6046  3.2724
  773MOL0     H 6645   3.838  11.144   8.530 -1.5207  1.9541 -0.1898
  773MOL0     H 6646   3.953  10.967   8.687  0.8188 -0.9963 -1.5802
  773MOL0     H 6647   4.052  11.058   8.565  0.2891 -0.4641  0.6833
  773MOL0     H 6648   4.038  11.086   8.876  2.4606 -0.5814  1.5344
  773MOL0     H 6649   4.115  11.209   8.781 -0.3143  0.0540 -1.6925
  773MOL0     H 6650   4.159  10.900   8.753  1.1340 -1.4868  2.0336
  773MOL0     H 6651   4.262  10.992   8.857 -0.6269  3.1356  0.6778
  773MOL0     H 6652   4.287  11.148   8.633 -0.8159  0.5955  0.2910
  773MOL0     H 6653   4.282  10.990   8.555  1.4539  2.3908 -1.5557
  773MOL0     H 6654   3.392  11.191   8.297  0.3362  0.3117 -0.7549
  773MOL0     H 6655   3.231  11.069   8.182 -1.5680 -2.8349 -1.2071
  773MOL0     H 6656   3.142  10.710   7.954  0.5128  0.4703  2.7631
  773MOL0     H 6657   2.991  10.615   7.788  0.7765 -0.8597  0.7059
  773MOL0     H 6658   0.878  10.100   7.803 -2.3514  0.0648  0.0913
  773MOL0     H 6659   0.731  10.280   7.901 -1.3287 -0.2769 -1.4552
  773MOL0     H 6660   0.809  10.792   7.991 -0.3540  1.7068 -0.1753
  773MOL0     H 6661   0.715  10.954   8.110 -1.0975 -1.8379 -1.8366
  773MOL0     H 6662   0.863  11.124   8.239 -1.6783 -1.4460 -1.5449
  773MOL0     H 6663   0.690  11.129   8.239 -2.1020 -0.8631  2.1929
  773MOL0     H 6664   0.736  11.261   8.486  0.2815 -0.5007  0.7094
  773MOL0     H 6665   0.750  11.341   8.338  0.8337 -1.3414 -1.6941
  773MOL0     H 6666   0.965  11.159   8.477 -0.9655 -1.2302 -1.2627
  773MOL0     H 6667   0.999  11.253   8.337  0.7833  1.1112  0.5099
  773MOL0     H 6668   0.944  11.386   8.601 -1.1662  0.3575 -0.2093
  773MOL0     H 6669   0.964  11.466   8.436  1.6756 -1.5954 -2.2865
  773MOL0     H 6670   1.359  11.368   8.564 -0.3902 -1.3856  1.5778
  773MOL0     H 6671   0.861  10.805   8.480  2.4765 -0.3773 -0.5274
  773MOL0     H 6672   0.991  10.604   8.475 -1.0283 -0.8510  0.6185
  773MOL0     H 6673   0.837  10.526   8.442 -0.7138 -0.1068 -0.2463
  773MOL0     H 6674   0.984  10.484   8.350 -0.6290 -0.7117  0.0362
  774MOL0     O 6675   9.099   3.488   1.170  0.3160 -0.1967 -0.1312
  774MOL0     C 6676   9.035   3.386   1.204  0.1198  0.0180  0.4454
  774MOL0     O 6677   9.083   3.272   1.275  0.5418 -1.1378  0.3594
  774MOL0     C 6678   9.215   3.285   1.306  0.3213  0.4566 -0.4143
  774MOL0     C 6679   9.258   3.336   1.432  0.5195 -0.6669 -0.4298
  774MOL0     C 6680   9.390   3.339   1.470 -0.3187  0.5610 -0.8188
  774MOL0     C 6681   9.492   3.313   1.373  0.0236 -0.7980 -0.1942
  774MOL0     O 6682   9.627   3.318   1.388 -0.1343  0.5704 -0.0025
  774MOL0     C 6683   9.673   3.323   1.524 -0.1132  0.5930 -0.4258
  774MOL0     C 6684   9.825   3.303   1.519  0.3256 -0.2189  0.2656
  774MOL0     C 6685   9.855   3.170   1.446 -0.4418  0.0638  0.8003
  774MOL0     C 6686   9.976   3.099   1.507 -0.7859  0.1426  0.0122
  774MOL0     C 6687  10.112   3.155   1.447 -0.4124 -0.0570 -0.1221
  774MOL0     C 6688  10.223   3.061   1.470 -0.5358 -0.0818 -0.0439
  774MOL0     C 6689  10.344   3.082   1.382  0.5329  0.0779  0.6285
  774MOL0     C 6690  10.425   3.207   1.408  0.0082  0.3774 -0.2561
  774MOL0     N 6691  10.541   3.217   1.313  0.6638 -0.7119 -1.0403
  774MOL0     C 6692  10.553   3.159   1.191  0.0017  0.2829  0.2220
  774MOL0     C 6693  10.659   3.223   1.133  1.0923 -0.5099 -0.4614
  774MOL0     C 6694  10.708   3.196   0.992 -0.6119  0.0706  0.5426
  774MOL0     C 6695  10.829   3.106   0.994  0.0730  0.3592 -0.2416
  774MOL0     C 6696  10.899   3.081   0.858  0.5255 -0.3623 -0.0940
  774MOL0     C 6697  11.003   2.975   0.873  0.9476 -0.3669  0.4338
  774MOL0     O 6698  11.110   3.022   0.955 -0.0030  0.3788  0.4769
  774MOL0     C 6699  11.193   3.123   0.906 -0.0630  0.3068  0.2429
  774MOL0     C 6700  11.204   3.159   0.773  0.5959 -0.0863 -0.5950
  774MOL0     C 6701  11.307   3.250   0.728 -0.6167  0.5140 -0.3494
  774MOL0     C 6702  11.326   3.266   0.577  0.0136  0.1543 -0.0629
  774MOL0     C 6703  11.395   3.312   0.833  0.2374  1.0143  0.2857
  774MOL0     C 6704  11.504   3.406   0.815  0.0603  0.0029 -0.1556
  774MOL0     O 6705  11.521   3.446   0.686  0.2643  0.0485 -0.4732
  774MOL0     C 6706  11.639   3.504   0.645 -0.1439  1.8300 -0.2019
  774MOL0     C 6707  11.631   3.581   0.536  0.5961  0.1684  0.6435
  774MOL0     C 6708  11.753   3.636   0.492 -1.0660  0.5057 -0.6192
  774MOL0     C 6709  11.882   3.594   0.530 -0.3183 -0.5435  0.1308
  774MOL0     O 6710  11.999   3.642   0.462  0.9307  0.9409 -0.0397
  774MOL0     C 6711  12.122   3.661   0.535 -0.1654 -0.4149  0.4175
  774MOL0     C 6712  12.210   3.539   0.529  0.6888  0.3531 -0.7897
  774MOL0     C 6713  12.289   3.533   0.657 -0.3737  0.2900 -0.1123
  774MOL0     C 6714  12.408   3.426   0.643 -0.2246 -0.7714 -0.8374
  774MOL0     C 6715  12.482   3.416   0.784 -0.0885  0.6657  0.7791
  774MOL0     C 6716  12.585   3.301   0.792 -0.3091 -0.3735 -0.0721
  774MOL0     C 6717  12.604   3.249   0.942 -0.7273  0.1379 -0.6194
  774MOL0     C 6718  12.730   3.166   0.954  0.0469 -0.9924  0.4844
  774MOL0    Cl 6719  12.738   3.088   1.106 -0.0590  0.2090  0.0364
  774MOL0     C 6720  11.891   3.504   0.635 -0.2672  0.2522 -0.0036
  774MOL0     C 6721  11.769   3.464   0.695  1.0313 -0.7099 -1.1195
  774MOL0     O 6722  11.573   3.435   0.910  0.1231 -0.1106 -0.4338
  774MOL0     C 6723  11.374   3.271   0.963  0.3838 -0.8681 -0.1969
  774MOL0     C 6724  11.270   3.184   1.001 -0.5082 -1.0198  0.0574
  774MOL0     N 6725  10.707   3.316   1.223 -0.0002 -0.5757  0.1140
  774MOL0     N 6726  10.634   3.309   1.332 -0.6554 -0.1834  0.2830
  774MOL0     C 6727   9.456   3.272   1.245 -0.1684 -0.2620 -0.5789
  774MOL0     C 6728   9.317   3.264   1.217  0.0401 -0.3204 -0.2810
  774MOL0     C 6729   8.895   3.376   1.160 -0.2077 -0.8134 -0.1350
  774MOL0     C 6730   8.855   3.245   1.118  0.7338 -0.3279  0.4933
  774MOL0     C 6731   8.725   3.216   1.088  0.8269 -0.4509 -0.5253
  774MOL0     C 6732   8.624   3.318   1.095 -0.4756 -1.1158  0.8567
  774MOL0     O 6733   8.496   3.278   1.080 -0.0822  0.1504  0.3897
  774MOL0     C 6734   8.391   3.368   1.121  1.4618 -0.7140 -1.1891
  774MOL0     C 6735   8.256   3.310   1.066  0.0422  0.3798  0.3553
  774MOL0     C 6736   8.155   3.425   1.047 -0.7306 -0.2890  0.7638
  774MOL0     C 6737   8.031   3.383   0.964  0.8107  0.3809 -1.1679
  774MOL0     C 6738   7.955   3.284   1.044 -0.2184  0.5944 -0.3337
  774MOL0     C 6739   7.900   3.195   1.103  0.3279  0.4743  0.1896
  774MOL0     C 6740   8.668   3.450   1.118 -0.1809 -0.2091 -0.0228
  774MOL0     C 6741   8.800   3.479   1.161  0.0033 -0.3480  0.5557
  774MOL0     C 6742   8.820   3.620   1.209 -0.8787 -0.4865 -0.7235
  774MOL0     H 6743   9.180   3.357   1.503  0.3820  2.5071 -1.3608
  774MOL0     H 6744   9.423   3.357   1.572 -0.1539 -0.6118 -0.6550
  774MOL0     H 6745   9.623   3.248   1.587  1.3294 -1.8246 -2.0057
  774MOL0     H 6746   9.654   3.420   1.572  0.0063 -1.8168  5.2878
  774MOL0     H 6747   9.874   3.379   1.458  4.8230 -0.3937  3.2444
  774MOL0     H 6748   9.872   3.302   1.618  1.4360  0.4607 -0.2415
  774MOL0     H 6749   9.774   3.096   1.451 -0.6772  0.0587 -1.7088
  774MOL0     H 6750   9.867   3.193   1.339 -3.4258  0.2107  0.3982
  774MOL0     H 6751   9.964   3.106   1.615  1.8278  2.1051  0.2634
  774MOL0     H 6752   9.979   2.999   1.463 -0.3850  1.1873 -2.5516
  774MOL0     H 6753  10.132   3.248   1.501 -4.9413 -1.3067  4.5975
  774MOL0     H 6754  10.103   3.181   1.341 -1.5916  0.7063  0.1351
  774MOL0     H 6755  10.252   3.069   1.576  1.4318 -1.1324 -0.4493
  774MOL0     H 6756  10.192   2.961   1.437 -0.7077  0.5137 -1.7536
  774MOL0     H 6757  10.309   3.094   1.279 -0.5217  3.6788  1.2897
  774MOL0     H 6758  10.413   2.999   1.401  0.0106 -0.7217 -0.8283
  774MOL0     H 6759  10.362   3.294   1.390 -1.1044 -0.4241 -0.3243
  774MOL0     H 6760  10.449   3.217   1.515  1.2272 -2.9527 -0.0891
  774MOL0     H 6761  10.491   3.081   1.147  0.0836 -1.2796  2.6861
  774MOL0     H 6762  10.728   3.297   0.953  0.3518 -0.9973 -1.9628
  774MOL0     H 6763  10.628   3.144   0.938  1.1292 -0.4694 -1.7094
  774MOL0     H 6764  10.900   3.149   1.066 -1.3698  2.3499  0.0791
  774MOL0     H 6765  10.789   3.010   1.028 -1.8802  1.7097  1.5563
  774MOL0     H 6766  10.833   3.062   0.773  1.6200 -1.7003 -0.6772
  774MOL0     H 6767  10.955   3.171   0.832 -0.3136  0.5605  1.1574
  774MOL0     H 6768  10.964   2.887   0.925  2.9611 -1.0706  0.8252
  774MOL0     H 6769  11.038   2.937   0.777 -1.4655  0.6834 -0.9561
  774MOL0     H 6770  11.139   3.118   0.697  1.4968  0.3453 -1.6112
  774MOL0     H 6771  11.429   3.283   0.546 -0.3516 -0.0481 -1.4769
  774MOL0     H 6772  11.269   3.356   0.553 -0.6301  0.2613  1.7036
  774MOL0     H 6773  11.276   3.189   0.517 -1.2248  0.7751  0.1344
  774MOL0     H 6774  11.532   3.613   0.505  0.2977 -0.1326  1.2671
  774MOL0     H 6775  11.749   3.712   0.415 -0.2366 -0.1144 -1.2941
  774MOL0     H 6776  12.167   3.748   0.487  0.7323 -1.2941 -0.3721
  774MOL0     H 6777  12.106   3.682   0.641 -0.3666  2.3545 -0.0920
  774MOL0     H 6778  12.148   3.449   0.522  2.8849 -1.2526 -0.8288
  774MOL0     H 6779  12.270   3.536   0.437  0.3450 -1.4220 -0.9936
  774MOL0     H 6780  12.231   3.508   0.747 -0.1881  0.2669  0.0016
  774MOL0     H 6781  12.337   3.630   0.673 -1.3450  0.4481  2.3816
  774MOL0     H 6782  12.483   3.463   0.573  1.8422 -2.1963  0.4847
  774MOL0     H 6783  12.371   3.332   0.602 -0.3866 -2.2990  2.4764
  774MOL0     H 6784  12.533   3.511   0.803  0.4881  0.5889 -0.2851
  774MOL0     H 6785  12.406   3.394   0.858 -1.6047  1.0138 -0.6152
  774MOL0     H 6786  12.680   3.334   0.748  0.4355 -2.2625  0.0222
  774MOL0     H 6787  12.547   3.216   0.734 -1.5636 -1.6237  2.4166
  774MOL0     H 6788  12.516   3.188   0.966 -2.3314  2.1099 -1.1964
  774MOL0     H 6789  12.608   3.338   1.005  1.0857 -1.1149  1.1654
  774MOL0     H 6790  12.821   3.227   0.944 -0.1028 -0.7510  0.5893
  774MOL0     H 6791  12.731   3.089   0.877 -2.2881 -2.9395  2.2408
  774MOL0     H 6792  11.983   3.468   0.679 -0.7620 -0.0955  0.7584
  774MOL0     H 6793  11.779   3.393   0.776 -0.4899 -1.0595 -1.2198
  774MOL0     H 6794  11.437   3.311   1.042  0.9430 -1.0448 -0.5429
  774MOL0     H 6795  11.268   3.138   1.099 -0.0737 -1.5816 -0.1908
  774MOL0     H 6796   9.531   3.240   1.174  0.4124  0.2381 -0.1947
  774MOL0     H 6797   9.283   3.226   1.121 -0.7886  2.9167 -1.4026
  774MOL0     H 6798   8.919   3.157   1.118  0.3880 -0.5787  0.0830
  774MOL0     H 6799   8.705   3.119   1.046  2.1741 -0.5052 -1.1008
  774MOL0     H 6800   8.387   3.372   1.231 -1.4751 -0.4876 -1.2330
  774MOL0     H 6801   8.404   3.470   1.083  0.1268  0.0491  0.3045
  774MOL0     H 6802   8.218   3.236   1.136  2.3600 -0.0769  1.2233
  774MOL0     H 6803   8.273   3.255   0.972 -1.0480  4.6685 -2.6722
  774MOL0     H 6804   8.113   3.460   1.141 -0.3950 -4.5546  2.7656
  774MOL0     H 6805   8.205   3.509   0.999  2.0366 -1.2062  1.8667
  774MOL0     H 6806   8.061   3.348   0.864  1.0235 -0.6376 -0.7597
  774MOL0     H 6807   7.963   3.466   0.945 -0.9530 -0.5772  0.6963
  774MOL0     H 6808   7.832   3.128   1.153  0.6709  0.6104  0.8543
  774MOL0     H 6809   8.601   3.535   1.123  0.7078  0.5434 -0.6262
  774MOL0     H 6810   8.848   3.686   1.127 -3.6162 -0.7360 -1.9853
  774MOL0     H 6811   8.733   3.655   1.265 -1.4904 -1.1971 -1.1984
  774MOL0     H 6812   8.908   3.618   1.274  0.4608  5.2511 -1.8505
  775MOL0     O 6813   6.669  10.204   9.204 -0.0319 -0.3030 -0.6760
  775MOL0     C 6814   6.560  10.151   9.235  0.3411  0.1054  0.2707
  775MOL0     O 6815   6.537  10.063   9.329  0.4641  0.1535  0.5073
  775MOL0     C 6816   6.640   9.981   9.361 -0.0201  1.2660  0.1773
  775MOL0     C 6817   6.732   9.933   9.267  0.1145 -1.0832  0.5721
  775MOL0     C 6818   6.815   9.827   9.297  0.7841  0.3561 -0.6338
  775MOL0     C 6819   6.812   9.769   9.425 -0.5340  0.4771 -0.1589
  775MOL0     O 6820   6.870   9.645   9.457 -0.4553 -0.5951  0.0876
  775MOL0     C 6821   6.937   9.577   9.354 -0.2924 -0.0281 -0.3313
  775MOL0     C 6822   6.971   9.441   9.404  0.4936 -0.0348  0.1415
  775MOL0     C 6823   6.842   9.357   9.407 -0.1408 -0.7632  0.4817
  775MOL0     C 6824   6.790   9.325   9.269 -0.1641  0.1382 -0.3547
  775MOL0     C 6825   6.879   9.227   9.199  0.6948 -0.3830  0.6449
  775MOL0     C 6826   6.794   9.131   9.115 -0.2223  0.5239  0.2320
  775MOL0     C 6827   6.709   9.200   9.014  0.5559  0.4368  0.1553
  775MOL0     C 6828   6.778   9.252   8.895 -0.1346 -0.1271  1.1168
  775MOL0     N 6829   6.697   9.323   8.794 -0.7258 -0.0239  0.7351
  775MOL0     C 6830   6.617   9.244   8.713  0.0725 -0.5143  0.0835
  775MOL0     C 6831   6.524   9.334   8.677  0.9734  0.2990  0.5856
  775MOL0     C 6832   6.407   9.294   8.587 -0.4150 -0.4125  0.0668
  775MOL0     C 6833   6.307   9.416   8.560  0.3959  0.3634 -0.0260
  775MOL0     C 6834   6.338   9.496   8.429  0.6814  0.4473 -0.1728
  775MOL0     C 6835   6.482   9.533   8.402 -0.1954 -0.6410 -0.1458
  775MOL0     O 6836   6.476   9.620   8.284  0.7867  0.2958 -0.0835
  775MOL0     C 6837   6.494   9.565   8.160  0.4101  0.0193  0.4440
  775MOL0     C 6838   6.519   9.433   8.130 -0.6299  0.2106  0.1997
  775MOL0     C 6839   6.543   9.387   8.000 -0.6498  0.1590  0.2020
  775MOL0     C 6840   6.563   9.233   7.993 -0.6515  0.1213  0.7163
  775MOL0     C 6841   6.535   9.478   7.891 -0.8548 -0.5264 -0.0861
  775MOL0     C 6842   6.539   9.433   7.750 -0.0717  0.3937 -0.1747
  775MOL0     O 6843   6.593   9.523   7.664 -0.1884  0.1615  0.3614
  775MOL0     C 6844   6.603   9.478   7.532  0.1362  0.1228 -0.1157
  775MOL0     C 6845   6.726   9.442   7.476 -0.6647  0.7253  0.9282
  775MOL0     C 6846   6.740   9.423   7.335 -0.2010 -0.6434  0.7582
  775MOL0     C 6847   6.629   9.397   7.263  0.1751  0.0239 -0.5753
  775MOL0     O 6848   6.656   9.347   7.141  0.1711 -0.1336 -0.1199
  775MOL0     C 6849   6.549   9.302   7.062  0.1497  0.3118  0.1352
  775MOL0     C 6850   6.504   9.160   7.102  0.6040  0.4832 -0.8150
  775MOL0     C 6851   6.371   9.135   7.026 -0.1194  0.7112  0.6222
  775MOL0     C 6852   6.332   8.989   7.033 -0.4085 -0.0643  0.6450
  775MOL0     C 6853   6.198   8.967   6.962  0.6261  0.3396 -0.4992
  775MOL0     C 6854   6.149   8.824   6.967 -0.8813 -0.5593 -0.0550
  775MOL0     C 6855   6.024   8.806   6.877 -0.5800  0.5600 -0.1211
  775MOL0     C 6856   5.954   8.674   6.911  0.0498  0.9345  0.0278
  775MOL0    Cl 6857   5.825   8.650   6.790 -0.2296  0.0801  0.1164
  775MOL0     C 6858   6.501   9.420   7.316 -0.8101 -0.2412 -0.7193
  775MOL0     C 6859   6.491   9.468   7.450  0.1307 -0.4151  0.2433
  775MOL0     O 6860   6.493   9.325   7.719 -0.3799 -0.2013 -0.0229
  775MOL0     C 6861   6.501   9.609   7.920  0.1349  0.2789  0.1751
  775MOL0     C 6862   6.488   9.652   8.051  0.3698  0.1774  0.6695
  775MOL0     N 6863   6.559   9.455   8.729  0.1507 -1.4687 -0.0734
  775MOL0     N 6864   6.678   9.458   8.779  0.0826  0.7659  0.6480
  775MOL0     C 6865   6.725   9.816   9.514 -0.2439 -0.5909  0.1724
  775MOL0     C 6866   6.635   9.916   9.488 -0.6707 -0.9252  0.2225
  775MOL0     C 6867   6.439  10.185   9.152 -0.1857  0.1627  0.0757
  775MOL0     C 6868   6.338  10.092   9.147 -0.3064  0.3189  0.7619
  775MOL0     C 6869   6.222  10.116   9.070  0.3922 -0.6804 -0.1782
  775MOL0     C 6870   6.192  10.243   9.005 -0.5376 -0.1272 -0.7225
  775MOL0     O 6871   6.073  10.268   8.939 -0.1289  0.9898  0.1385
  775MOL0     C 6872   5.960  10.182   8.934 -0.5924  0.6452 -0.1640
  775MOL0     C 6873   5.891  10.214   9.067  0.5516 -0.7563 -0.3285
  775MOL0     C 6874   5.767  10.129   9.083 -0.9029 -0.5273  0.5159
  775MOL0     C 6875   5.669  10.168   9.188 -0.4406 -0.3672  0.5178
  775MOL0     C 6876   5.698  10.110   9.317 -0.0104  1.0201 -0.3248
  775MOL0     C 6877   5.736  10.056   9.418 -0.0451 -0.3143  0.0118
  775MOL0     C 6878   6.289  10.342   9.020 -0.4428 -0.0590 -0.1397
  775MOL0     C 6879   6.414  10.314   9.086  0.3641  0.0778  0.2922
  775MOL0     C 6880   6.511  10.435   9.091  0.1569  0.3849 -0.1347
  775MOL0     H 6881   6.736   9.986   9.173  0.0704  0.3091  1.3257
  775MOL0     H 6882   6.874   9.796   9.210  1.3947  0.1885 -0.1663
  775MOL0     H 6883   7.026   9.638   9.336  0.6130 -0.8606  1.1273
  775MOL0     H 6884   6.875   9.574   9.265  0.2138 -2.1020 -0.6755
  775MOL0     H 6885   7.049   9.389   9.348  0.3297  0.2087 -0.3193
  775MOL0     H 6886   7.009   9.443   9.507  0.2690  2.7328  0.2655
  775MOL0     H 6887   6.874   9.265   9.457 -0.0888 -0.3676  1.1839
  775MOL0     H 6888   6.770   9.405   9.473  0.6847 -1.7235  2.1610
  775MOL0     H 6889   6.691   9.283   9.284  0.0433  0.4122  2.0641
  775MOL0     H 6890   6.777   9.406   9.196 -0.6452 -0.1338 -0.5744
  775MOL0     H 6891   6.932   9.158   9.266  1.4227  0.6595  1.1539
  775MOL0     H 6892   6.955   9.280   9.142  1.2057  0.6244  2.2226
  775MOL0     H 6893   6.863   9.069   9.059  0.7496  0.8092  1.0931
  775MOL0     H 6894   6.722   9.079   9.179  1.0572  0.9608  2.1203
  775MOL0     H 6895   6.644   9.280   9.050  2.0050  0.8526  2.0259
  775MOL0     H 6896   6.633   9.129   8.980  1.0305 -0.4269  0.8363
  775MOL0     H 6897   6.863   9.315   8.923  2.8858 -3.6738  0.6722
  775MOL0     H 6898   6.823   9.166   8.846  2.6470  2.2445 -0.8244
  775MOL0     H 6899   6.635   9.139   8.696  5.2675 -0.4693  3.0378
  775MOL0     H 6900   6.346   9.212   8.626  0.5464 -1.3359 -0.3415
  775MOL0     H 6901   6.447   9.251   8.495  4.6615 -2.1410  2.7216
  775MOL0     H 6902   6.205   9.377   8.555 -0.2618  2.1244 -1.5608
  775MOL0     H 6903   6.299   9.492   8.638  1.2443  1.3934 -0.9027
  775MOL0     H 6904   6.303   9.426   8.352 -1.4954  1.2205  0.0504
  775MOL0     H 6905   6.285   9.591   8.423  2.9997  1.8167 -0.2293
  775MOL0     H 6906   6.524   9.593   8.483  0.0128  0.0077 -0.7148
  775MOL0     H 6907   6.551   9.448   8.398  0.3509 -0.1742 -1.2103
  775MOL0     H 6908   6.520   9.353   8.205 -1.7587 -1.9757 -1.9656
  775MOL0     H 6909   6.592   9.177   8.083  0.1497 -1.0639 -0.2468
  775MOL0     H 6910   6.646   9.217   7.923 -0.1668  1.5256  0.9305
  775MOL0     H 6911   6.482   9.175   7.948 -1.0149  0.2671  1.1827
  775MOL0     H 6912   6.821   9.466   7.523  0.2741  0.3971 -0.7265
  775MOL0     H 6913   6.841   9.416   7.297 -0.3385 -0.3491  0.3403
  775MOL0     H 6914   6.473   9.376   7.037  0.1653 -0.0082 -0.9158
  775MOL0     H 6915   6.597   9.294   6.964  1.5680 -0.2060  0.8347
  775MOL0     H 6916   6.576   9.088   7.062  0.2722 -1.8236  2.3176
  775MOL0     H 6917   6.499   9.144   7.210  0.6287 -2.7457 -1.2089
  775MOL0     H 6918   6.378   9.160   6.920  1.0936  1.6374  0.8902
  775MOL0     H 6919   6.291   9.202   7.059 -1.8306 -1.0651  0.2654
  775MOL0     H 6920   6.341   8.965   7.140 -0.3934 -3.1063  0.0608
  775MOL0     H 6921   6.407   8.929   6.981  0.6408  1.0404  0.8662
  775MOL0     H 6922   6.122   9.025   7.016  0.9268  0.2393  0.0338
  775MOL0     H 6923   6.201   9.012   6.863 -1.2015  0.6716 -0.4491
  775MOL0     H 6924   6.132   8.784   7.068  1.8767  0.0409  0.7435
  775MOL0     H 6925   6.244   8.776   6.940  0.1388  0.5336  1.4198
  775MOL0     H 6926   6.054   8.806   6.772 -4.5120 -1.3480 -1.4146
  775MOL0     H 6927   5.960   8.893   6.890  1.0572  2.2172 -2.4522
  775MOL0     H 6928   5.921   8.667   7.015  0.7019 -1.4767  0.1371
  775MOL0     H 6929   6.020   8.587   6.909 -0.9406  0.1494  0.8938
  775MOL0     H 6930   6.403   9.408   7.271 -1.7582 -0.5581  1.3058
  775MOL0     H 6931   6.390   9.496   7.479  0.1070  1.0342 -1.0699
  775MOL0     H 6932   6.487   9.678   7.837 -1.2324  0.3594  0.4544
  775MOL0     H 6933   6.450   9.752   8.067 -2.9574 -0.7664 -0.3456
  775MOL0     H 6934   6.728   9.759   9.606 -0.7298 -0.8962  0.0062
  775MOL0     H 6935   6.553   9.949   9.550 -1.7852 -0.6820 -1.3063
  775MOL0     H 6936   6.346   9.995   9.195  0.0060 -0.4595 -0.8012
  775MOL0     H 6937   6.162  10.027   9.061 -2.0228  0.9398 -1.1077
  775MOL0     H 6938   5.896  10.214   8.851 -3.4869 -4.5784 -0.3986
  775MOL0     H 6939   5.974  10.073   8.933 -3.2726  0.2291 -2.0913
  775MOL0     H 6940   5.880  10.322   9.080 -1.1648 -1.1400  2.0657
  775MOL0     H 6941   5.959  10.186   9.147  1.6454  1.6291 -0.3446
  775MOL0     H 6942   5.706  10.118   8.992  0.9092 -0.6966 -0.7252
  775MOL0     H 6943   5.800  10.026   9.102 -0.7324 -1.5575 -4.0770
  775MOL0     H 6944   5.569  10.130   9.165 -0.9168  0.4615  1.1705
  775MOL0     H 6945   5.661  10.276   9.201 -1.8327 -0.5636  1.5366
  775MOL0     H 6946   5.753  10.006   9.511 -4.1270  0.6308  1.4992
  775MOL0     H 6947   6.276  10.429   8.957  0.0360  1.2316  1.4818
  775MOL0     H 6948   6.455  10.529   9.081 -0.8160 -0.3782 -2.8658
  775MOL0     H 6949   6.554  10.441   9.191  0.1853 -0.2143 -0.1081
  775MOL0     H 6950   6.594  10.434   9.020 -0.2166  0.2938 -0.5821
  776MOL0     O 6951   7.729   2.369   1.916 -0.3048  0.3752 -0.2491
  776MOL0     C 6952   7.825   2.342   1.983  0.1686  0.0312  0.3029
  776MOL0     O 6953   7.821   2.247   2.085 -0.1400  0.2760 -0.5631
  776MOL0     C 6954   7.697   2.205   2.130  0.4485  0.3873 -1.0708
  776MOL0     C 6955   7.633   2.098   2.076  0.4782 -0.4085 -0.9613
  776MOL0     C 6956   7.514   2.059   2.137  0.1313  0.6941 -0.7327
  776MOL0     C 6957   7.443   2.141   2.232  0.4214  0.3902  0.4408
  776MOL0     O 6958   7.312   2.112   2.284  0.0104  0.0885  0.3328
  776MOL0     C 6959   7.253   1.975   2.273 -0.1505 -0.2094 -0.6650
  776MOL0     C 6960   7.324   1.877   2.361 -0.4836 -0.8341  0.0616
  776MOL0     C 6961   7.308   1.727   2.311 -0.4755  0.0946 -0.2782
  776MOL0     C 6962   7.398   1.610   2.368  0.0011 -0.1469 -0.2139
  776MOL0     C 6963   7.543   1.620   2.324 -0.0471  0.0683  0.2935
  776MOL0     C 6964   7.631   1.519   2.380 -0.1703  0.0991 -0.4562
  776MOL0     C 6965   7.774   1.512   2.324  0.0740 -0.1501  0.8366
  776MOL0     C 6966   7.870   1.468   2.439 -0.6852  0.6587  0.9461
  776MOL0     N 6967   8.014   1.477   2.406  0.8530 -0.2808 -0.0109
  776MOL0     C 6968   8.074   1.592   2.349  0.3473  0.0406  0.1469
  776MOL0     C 6969   8.207   1.570   2.352  0.0043  0.3142 -0.2788
  776MOL0     C 6970   8.319   1.663   2.302  0.3617 -0.1333  1.1432
  776MOL0     C 6971   8.461   1.599   2.307 -0.2118  0.0616  0.2702
  776MOL0     C 6972   8.549   1.696   2.233  0.5649  0.5908 -0.0177
  776MOL0     C 6973   8.553   1.697   2.080  0.8454  0.1125 -0.9015
  776MOL0     O 6974   8.577   1.567   2.014 -0.3088 -0.4418 -0.1532
  776MOL0     C 6975   8.697   1.515   2.059 -0.6299  0.2143  0.8053
  776MOL0     C 6976   8.693   1.402   2.132  0.0435  0.5358  0.4213
  776MOL0     C 6977   8.812   1.348   2.187 -0.1996  0.0196 -0.0246
  776MOL0     C 6978   8.796   1.216   2.261 -0.5060  0.1160  0.4453
  776MOL0     C 6979   8.936   1.413   2.167 -0.2209 -0.5833 -0.5225
  776MOL0     C 6980   9.066   1.367   2.230  0.6471 -0.0802 -0.5044
  776MOL0     O 6981   9.182   1.435   2.178  0.0634 -0.1470 -0.9179
  776MOL0     C 6982   9.311   1.406   2.217 -0.3426  0.7735  0.4016
  776MOL0     C 6983   9.395   1.510   2.225 -0.2741  1.1109  0.4484
  776MOL0     C 6984   9.535   1.474   2.253 -0.2613 -0.2760 -0.2364
  776MOL0     C 6985   9.581   1.340   2.283  0.4979  0.5499 -0.3947
  776MOL0     O 6986   9.708   1.329   2.319 -0.4225  0.0148 -0.6232
  776MOL0     C 6987   9.755   1.214   2.385  0.2948 -0.0878 -0.1453
  776MOL0     C 6988   9.790   1.101   2.282  0.3940  0.0834  0.0630
  776MOL0     C 6989   9.929   1.133   2.221  0.2707  0.1167  0.3409
  776MOL0     C 6990   9.960   1.026   2.103  0.0320 -0.0423  0.4166
  776MOL0     C 6991  10.085   1.058   2.031 -0.8917 -0.2259  0.9850
  776MOL0     C 6992  10.215   1.023   2.112  0.5165  0.8969 -0.0755
  776MOL0     C 6993  10.342   1.054   2.037 -0.8360 -0.0200  0.6586
  776MOL0     C 6994  10.342   1.163   1.929 -0.5494  0.7408  1.2559
  776MOL0    Cl 6995  10.295   1.314   1.995  0.3448 -0.1835 -0.0645
  776MOL0     C 6996   9.486   1.234   2.283 -0.2553  0.3600  0.1369
  776MOL0     C 6997   9.354   1.270   2.253  0.5657 -0.0102 -0.0470
  776MOL0     O 6998   9.069   1.284   2.318  0.1761  0.0442  0.0715
  776MOL0     C 6999   8.937   1.537   2.093  0.4635  0.6853  0.7746
  776MOL0     C 7000   8.815   1.581   2.043 -0.3593  0.4172 -0.6888
  776MOL0     N 7001   8.217   1.448   2.410  0.5053  0.4420  0.2057
  776MOL0     N 7002   8.108   1.388   2.449 -0.5442  0.1026 -0.0818
  776MOL0     C 7003   7.502   2.261   2.271  0.7981 -0.0790 -0.6794
  776MOL0     C 7004   7.636   2.286   2.226  1.1608  0.0488  0.6941
  776MOL0     C 7005   7.953   2.401   1.956 -0.2366  0.1329 -0.2663
  776MOL0     C 7006   8.066   2.339   2.011 -0.3056  0.4655  0.0288
  776MOL0     C 7007   8.188   2.390   1.997 -0.2796  0.1993  0.8683
  776MOL0     C 7008   8.203   2.511   1.931  0.1895  0.7154 -0.0197
  776MOL0     O 7009   8.326   2.573   1.917 -0.3124 -0.5270 -0.3791
  776MOL0     C 7010   8.431   2.488   1.869 -0.1344  0.1914 -0.0265
  776MOL0     C 7011   8.523   2.435   1.977 -0.9085 -0.6391  0.9803
  776MOL0     C 7012   8.633   2.343   1.938  0.6674 -0.6927  0.3688
  776MOL0     C 7013   8.742   2.406   1.852  0.0979  0.5406  0.4379
  776MOL0     C 7014   8.855   2.311   1.843 -0.0144  0.5021 -0.4820
  776MOL0     C 7015   8.953   2.234   1.833 -0.2922  0.9266 -0.5150
  776MOL0     C 7016   8.102   2.575   1.873 -0.2186 -0.6832  0.1327
  776MOL0     C 7017   7.974   2.519   1.878  0.2403 -0.2122 -0.1399
  776MOL0     C 7018   7.860   2.585   1.795 -0.0839 -0.5129  0.2046
  776MOL0     H 7019   7.680   2.037   1.999  0.5757  0.2116 -1.4070
  776MOL0     H 7020   7.456   1.982   2.088  3.8648 -3.3152  0.4886
  776MOL0     H 7021   7.261   1.954   2.166  2.9980 -1.8127 -0.2311
  776MOL0     H 7022   7.151   1.981   2.312 -0.5082 -1.9705 -1.2729
  776MOL0     H 7023   7.430   1.900   2.351 -0.6929 -0.1209 -0.7100
  776MOL0     H 7024   7.299   1.892   2.466 -1.2856  0.5135 -0.3002
  776MOL0     H 7025   7.199   1.715   2.322 -1.2843  4.5844 -1.1312
  776MOL0     H 7026   7.339   1.741   2.207  0.2684  4.9245  0.3736
  776MOL0     H 7027   7.396   1.588   2.475  0.3571 -1.2485 -0.4163
  776MOL0     H 7028   7.347   1.518   2.336 -3.7697  0.8617  2.1415
  776MOL0     H 7029   7.589   1.713   2.359  2.4839 -0.4316 -1.4162
  776MOL0     H 7030   7.546   1.607   2.216  2.9455 -1.2894  0.4370
  776MOL0     H 7031   7.626   1.529   2.488  1.1617 -2.0585 -0.1296
  776MOL0     H 7032   7.594   1.419   2.355  2.7283 -1.6504  1.5434
  776MOL0     H 7033   7.799   1.613   2.291  2.0118 -0.8236  0.0898
  776MOL0     H 7034   7.783   1.453   2.232 -0.1468  2.1083 -0.7155
  776MOL0     H 7035   7.857   1.534   2.526 -1.1424  1.2006  0.4721
  776MOL0     H 7036   7.849   1.363   2.462 -2.8249  0.7691 -0.2715
  776MOL0     H 7037   8.023   1.680   2.313 -3.0157 -1.4328  0.8840
  776MOL0     H 7038   8.319   1.753   2.364  0.8026 -0.2950  1.3776
  776MOL0     H 7039   8.299   1.692   2.199 -3.1248  1.1090  2.0258
  776MOL0     H 7040   8.490   1.588   2.412 -2.8453  1.5938  1.2708
  776MOL0     H 7041   8.471   1.502   2.258 -1.0826 -1.1048  2.2710
  776MOL0     H 7042   8.521   1.796   2.266  0.5153  0.7266 -0.4623
  776MOL0     H 7043   8.650   1.686   2.272 -0.1324 -1.7929  1.4063
  776MOL0     H 7044   8.453   1.724   2.047 -1.0731 -2.1448  2.4131
  776MOL0     H 7045   8.624   1.774   2.048  0.1747  2.8848  3.4653
  776MOL0     H 7046   8.599   1.350   2.146 -0.9765  2.5778  1.6352
  776MOL0     H 7047   8.885   1.154   2.272 -0.4341  0.2875  0.8185
  776MOL0     H 7048   8.730   1.150   2.204  2.1405 -3.4002  1.1398
  776MOL0     H 7049   8.747   1.233   2.357 -1.9855 -4.1645  0.6456
  776MOL0     H 7050   9.349   1.608   2.214 -0.4979  1.2392  2.2179
  776MOL0     H 7051   9.611   1.551   2.258  1.2829 -1.5706 -2.1783
  776MOL0     H 7052   9.833   1.241   2.456  0.4929 -0.8474 -0.0735
  776MOL0     H 7053   9.676   1.172   2.448  1.0828  0.2941  1.1381
  776MOL0     H 7054   9.797   1.004   2.333 -1.3980 -1.8726 -3.0889
  776MOL0     H 7055   9.712   1.092   2.206  3.4447  1.6037 -3.5818
  776MOL0     H 7056  10.002   1.127   2.303 -0.4374 -1.3174  0.8892
  776MOL0     H 7057   9.939   1.238   2.192  2.6994  0.3854  1.8144
  776MOL0     H 7058   9.879   1.050   2.033  0.0702  1.2668  0.8015
  776MOL0     H 7059   9.953   0.920   2.131 -0.3343  0.1767  1.1622
  776MOL0     H 7060  10.093   1.007   1.934  0.7380  0.6210  0.6312
  776MOL0     H 7061  10.072   1.165   2.013 -2.0907 -0.0963  2.4517
  776MOL0     H 7062  10.206   0.915   2.125 -1.2440  1.1005  0.8364
  776MOL0     H 7063  10.208   1.068   2.212  2.2527 -0.1977  0.5889
  776MOL0     H 7064  10.379   0.964   1.988  1.1936  1.4191 -0.5964
  776MOL0     H 7065  10.415   1.079   2.115 -1.2382  0.6555  0.8200
  776MOL0     H 7066  10.276   1.142   1.844  1.1358 -1.1694  0.3351
  776MOL0     H 7067  10.445   1.174   1.894 -1.0241 -0.2824 -0.6668
  776MOL0     H 7068   9.513   1.136   2.321 -0.1365  0.2773 -0.1514
  776MOL0     H 7069   9.278   1.193   2.246 -0.7900  1.4183 -2.0606
  776MOL0     H 7070   9.026   1.589   2.059 -0.3609  1.2004 -0.6727
  776MOL0     H 7071   8.807   1.681   2.001 -1.8107  1.8420  2.7033
  776MOL0     H 7072   7.452   2.334   2.334  0.9489 -1.2312  0.8338
  776MOL0     H 7073   7.692   2.375   2.251  2.8641 -0.1155 -2.1623
  776MOL0     H 7074   8.066   2.242   2.059  1.2817 -0.4165 -1.6294
  776MOL0     H 7075   8.277   2.333   2.022  1.4766  1.5234 -1.8820
  776MOL0     H 7076   8.387   2.397   1.826  3.0729 -0.7644 -1.6109
  776MOL0     H 7077   8.484   2.550   1.796 -1.7576  0.1494 -1.2953
  776MOL0     H 7078   8.473   2.368   2.048  2.2197 -1.1193  2.9206
  776MOL0     H 7079   8.552   2.527   2.028 -2.6929  1.1987 -1.1196
  776MOL0     H 7080   8.677   2.295   2.027 -0.2076 -3.8426 -0.7635
  776MOL0     H 7081   8.587   2.266   1.875  1.8745 -2.4338  1.4923
  776MOL0     H 7082   8.779   2.500   1.895 -0.4522  0.9372  0.0602
  776MOL0     H 7083   8.710   2.433   1.751 -0.5676 -3.8385 -0.7142
  776MOL0     H 7084   9.014   2.146   1.835 -0.8227  0.5789  0.6230
  776MOL0     H 7085   8.111   2.668   1.818  0.9061  1.1780  3.1660
  776MOL0     H 7086   7.897   2.681   1.758  2.7718 -1.6369 -0.1759
  776MOL0     H 7087   7.837   2.529   1.704  0.0687  0.2610 -0.3181
  776MOL0     H 7088   7.774   2.608   1.858 -0.4936  0.3321 -0.6396
  777MOL0     O 7089   9.769   8.353   1.380  0.9353 -0.4114 -0.1655
  777MOL0     C 7090   9.760   8.449   1.301  0.0486  0.0377 -0.2164
  777MOL0     O 7091   9.863   8.503   1.235  0.7195 -0.2162  0.5859
  777MOL0     C 7092   9.991   8.453   1.231  0.4339 -0.7348 -0.6309
  777MOL0     C 7093  10.094   8.545   1.254 -0.2997 -0.5466 -0.1116
  777MOL0     C 7094  10.226   8.501   1.251 -0.6300 -0.5259  0.6089
  777MOL0     C 7095  10.253   8.357   1.241 -0.5140 -0.5156  0.3172
  777MOL0     O 7096  10.378   8.321   1.261 -0.3877  0.7478 -0.8443
  777MOL0     C 7097  10.428   8.194   1.216  0.2165 -0.1343 -0.4638
  777MOL0     C 7098  10.570   8.161   1.278  0.4798 -0.3459  0.7315
  777MOL0     C 7099  10.667   8.280   1.251  0.2843 -0.1953 -0.2913
  777MOL0     C 7100  10.783   8.247   1.358  0.4216  0.0126 -0.3459
  777MOL0     C 7101  10.915   8.298   1.311 -0.1850  0.2541  0.4419
  777MOL0     C 7102  11.034   8.231   1.389 -0.1599  1.0384  0.8262
  777MOL0     C 7103  11.158   8.309   1.383 -0.8555  0.3836 -0.1489
  777MOL0     C 7104  11.189   8.351   1.238  0.1922 -1.5938  1.3063
  777MOL0     N 7105  11.334   8.388   1.212 -0.3443 -0.3058 -0.9053
  777MOL0     C 7106  11.419   8.325   1.121 -0.3302  0.3114 -0.1138
  777MOL0     C 7107  11.545   8.377   1.157 -0.6465 -0.0651  0.1058
  777MOL0     C 7108  11.662   8.329   1.075  0.0615 -0.3584 -1.0084
  777MOL0     C 7109  11.767   8.440   1.079 -0.6912 -0.2409  0.6011
  777MOL0     C 7110  11.887   8.417   0.995  0.2841  0.9551  0.3502
  777MOL0     C 7111  11.952   8.279   1.018 -0.3221 -0.1450  0.3293
  777MOL0     O 7112  11.993   8.279   1.164 -0.1875  0.5510  0.5109
  777MOL0     C 7113  12.118   8.330   1.191 -0.3398  0.6576  0.5297
  777MOL0     C 7114  12.207   8.393   1.104 -0.0241 -0.4989 -0.1860
  777MOL0     C 7115  12.333   8.439   1.145  0.6095  0.1179 -0.2169
  777MOL0     C 7116  12.431   8.496   1.043 -0.3305 -0.5730 -0.4477
  777MOL0     C 7117  12.362   8.431   1.281  0.4234 -0.6687  0.4527
  777MOL0     C 7118  12.484   8.488   1.345  0.8090  0.2632 -0.9887
  777MOL0     O 7119  12.532   8.411   1.448  0.6492  0.2904 -0.4303
  777MOL0     C 7120  12.655   8.436   1.498  0.2122  0.3834 -0.4218
  777MOL0     C 7121  12.664   8.405   1.630  0.5327 -0.3684  0.4567
  777MOL0     C 7122  12.793   8.395   1.691 -0.4557  0.3073 -0.1266
  777MOL0     C 7123  12.905   8.405   1.614 -0.3925 -0.0123  0.0479
  777MOL0     O 7124  13.031   8.387   1.665  0.2249 -0.1248 -0.5780
  777MOL0     C 7125  13.129   8.318   1.585 -0.7863  0.0253  0.0754
  777MOL0     C 7126  13.109   8.175   1.560  0.2622 -0.2988 -0.4223
  777MOL0     C 7127  13.241   8.121   1.501  0.4206 -0.8121 -0.3162
  777MOL0     C 7128  13.242   7.969   1.500  0.4709  0.0285  0.3048
  777MOL0     C 7129  13.378   7.906   1.458  0.3645 -0.2557  0.2153
  777MOL0     C 7130  13.417   7.956   1.320  0.0147 -0.1341 -0.4555
  777MOL0     C 7131  13.554   7.899   1.275 -0.0476 -0.1270  0.1793
  777MOL0     C 7132  13.535   7.814   1.148 -0.8625 -0.3315 -0.9680
  777MOL0    Cl 7133  13.450   7.668   1.203 -0.2492 -0.1249  0.1836
  777MOL0     C 7134  12.892   8.442   1.480 -0.7883  0.2003 -0.5797
  777MOL0     C 7135  12.769   8.456   1.423 -0.5425 -0.4231  0.6708
  777MOL0     O 7136  12.537   8.586   1.308  0.4356 -0.7236 -0.3538
  777MOL0     C 7137  12.261   8.388   1.371 -0.3560  0.6927  0.3387
  777MOL0     C 7138  12.139   8.333   1.327 -0.2819  0.3426 -0.6068
  777MOL0     N 7139  11.535   8.458   1.274  0.5382 -0.3215 -0.0718
  777MOL0     N 7140  11.408   8.465   1.298  0.4587  0.6938 -0.0088
  777MOL0     C 7141  10.152   8.268   1.227  0.0846 -0.4002  0.1200
  777MOL0     C 7142  10.022   8.314   1.217  0.0978 -0.3899  0.4121
  777MOL0     C 7143   9.623   8.504   1.283  0.1968 -0.2375  0.1216
  777MOL0     C 7144   9.507   8.448   1.349  0.2137 -0.0865  0.4091
  777MOL0     C 7145   9.381   8.492   1.320  0.1141 -1.1316  0.3458
  777MOL0     C 7146   9.351   8.598   1.230 -0.2135 -0.1741 -0.9162
  777MOL0     O 7147   9.222   8.645   1.206  0.0251  0.0199 -0.1813
  777MOL0     C 7148   9.128   8.542   1.187  0.4934  1.2681  0.1617
  777MOL0     C 7149   9.026   8.607   1.087 -0.0283 -0.3802 -0.3589
  777MOL0     C 7150   8.946   8.723   1.155  1.0381 -0.7370 -0.1455
  777MOL0     C 7151   8.799   8.714   1.107  0.3253  0.0522  0.1338
  777MOL0     C 7152   8.799   8.741   0.965  0.3672  0.7101 -0.1744
  777MOL0     C 7153   8.808   8.732   0.841  0.1598 -0.1328 -0.7164
  777MOL0     C 7154   9.463   8.667   1.186 -0.0349 -1.2720 -0.5608
  777MOL0     C 7155   9.594   8.622   1.203  0.0790  0.5439 -0.6613
  777MOL0     C 7156   9.699   8.701   1.123  0.2511  0.1763  0.2342
  777MOL0     H 7157  10.059   8.645   1.279  0.9640 -0.3531  1.0272
  777MOL0     H 7158  10.317   8.556   1.271 -0.3148 -0.8077 -0.0616
  777MOL0     H 7159  10.432   8.192   1.106  3.0067  0.9106 -0.4641
  777MOL0     H 7160  10.359   8.113   1.242 -2.0162  1.0637 -2.2576
  777MOL0     H 7161  10.570   8.148   1.387  0.2619 -0.1830  0.7514
  777MOL0     H 7162  10.609   8.070   1.231  1.5327 -0.1275  1.1415
  777MOL0     H 7163  10.706   8.283   1.148 -1.8103 -0.4420 -1.1304
  777MOL0     H 7164  10.622   8.378   1.262  1.2861  0.3833 -1.1299
  777MOL0     H 7165  10.764   8.296   1.453  0.2158 -1.9512  0.6800
  777MOL0     H 7166  10.784   8.139   1.376 -0.0474 -0.2154 -1.5964
  777MOL0     H 7167  10.917   8.407   1.310 -0.6010  0.3230  2.4019
  777MOL0     H 7168  10.931   8.279   1.205  0.6552  1.4323  0.3449
  777MOL0     H 7169  11.012   8.219   1.496  0.2204  0.9001  0.8906
  777MOL0     H 7170  11.053   8.129   1.354  4.1550  2.1337 -0.5667
  777MOL0     H 7171  11.238   8.245   1.419 -0.0490 -1.2176 -4.2548
  777MOL0     H 7172  11.145   8.392   1.454  2.0341  1.3440 -0.6045
  777MOL0     H 7173  11.172   8.264   1.174 -1.5627 -1.1109  1.0576
  777MOL0     H 7174  11.130   8.437   1.207  2.1663 -0.4741  0.5382
  777MOL0     H 7175  11.387   8.263   1.038 -1.3715 -0.0253  0.5186
  777MOL0     H 7176  11.631   8.306   0.972 -0.8907 -2.3849 -0.3309
  777MOL0     H 7177  11.704   8.239   1.121  0.8656  1.4057  1.9446
  777MOL0     H 7178  11.728   8.539   1.056 -1.1212 -0.4269  0.5254
  777MOL0     H 7179  11.815   8.441   1.177  3.0787 -2.4696 -0.9862
  777MOL0     H 7180  11.867   8.436   0.889  0.2301  3.3384  0.7199
  777MOL0     H 7181  11.955   8.498   1.027  0.7482  0.5946  0.2881
  777MOL0     H 7182  11.877   8.202   1.000 -0.5325 -0.0548  0.7987
  777MOL0     H 7183  12.036   8.252   0.954 -1.8899 -1.6332 -1.2009
  777MOL0     H 7184  12.179   8.430   1.006  1.3550  1.2876  0.0327
  777MOL0     H 7185  12.445   8.602   1.066  5.5922 -1.4379  1.8315
  777MOL0     H 7186  12.399   8.470   0.942  0.8859 -2.9476 -0.2937
  777MOL0     H 7187  12.532   8.457   1.061 -0.7717 -1.1912  0.7892
  777MOL0     H 7188  12.571   8.391   1.683 -1.1327 -1.2001 -2.4613
  777MOL0     H 7189  12.806   8.383   1.798 -0.9461 -0.2522 -0.1217
  777MOL0     H 7190  13.138   8.358   1.484  3.3495 -1.3199 -0.2780
  777MOL0     H 7191  13.226   8.334   1.634 -0.4861 -1.7422  0.1374
  777MOL0     H 7192  13.083   8.114   1.647 -0.8304  0.1440 -0.4186
  777MOL0     H 7193  13.023   8.168   1.492 -0.8990 -1.6803  1.1354
  777MOL0     H 7194  13.331   8.168   1.541 -0.2777  0.9256 -0.6953
  777MOL0     H 7195  13.236   8.160   1.399 -0.8891 -2.4594 -0.9375
  777MOL0     H 7196  13.163   7.939   1.430 -0.5588  0.2487  1.3364
  777MOL0     H 7197  13.215   7.931   1.599 -0.5104  2.3635  1.0195
  777MOL0     H 7198  13.455   7.938   1.528 -1.1194 -2.2606  2.9363
  777MOL0     H 7199  13.367   7.797   1.468  1.8975 -0.2086  5.8663
  777MOL0     H 7200  13.435   8.064   1.326 -0.4831 -0.1233  1.6480
  777MOL0     H 7201  13.332   7.940   1.253 -0.8811  0.7833  0.4337
  777MOL0     H 7202  13.589   7.829   1.351  1.7881 -1.1511 -1.5291
  777MOL0     H 7203  13.631   7.976   1.266  1.9151 -1.9231  0.9414
  777MOL0     H 7204  13.636   7.790   1.115 -0.0859 -2.2979  2.3718
  777MOL0     H 7205  13.474   7.873   1.079 -0.9625  2.7096  1.4695
  777MOL0     H 7206  12.978   8.450   1.415 -0.4681 -3.3526 -0.8134
  777MOL0     H 7207  12.768   8.465   1.314  2.6808  2.7312  0.7440
  777MOL0     H 7208  12.286   8.390   1.477  1.7800  0.1066 -0.1163
  777MOL0     H 7209  12.065   8.297   1.398  0.9381 -0.1896  0.4197
  777MOL0     H 7210  10.156   8.159   1.230  1.2884 -0.5415 -2.9809
  777MOL0     H 7211   9.940   8.243   1.215 -0.1934 -0.1394  2.0231
  777MOL0     H 7212   9.524   8.367   1.419  1.2560  0.2323  0.5405
  777MOL0     H 7213   9.308   8.428   1.370 -1.1680 -1.1132 -1.3818
  777MOL0     H 7214   9.176   8.461   1.131 -1.5745  0.2848 -0.2646
  777MOL0     H 7215   9.078   8.510   1.279  1.8877 -0.3358  0.4364
  777MOL0     H 7216   8.958   8.535   1.043  1.1965 -1.4797 -0.5169
  777MOL0     H 7217   9.083   8.645   1.002  2.0666  1.2673  1.6375
  777MOL0     H 7218   8.950   8.713   1.264  2.2182 -1.4665 -0.2317
  777MOL0     H 7219   8.995   8.819   1.134 -2.5243  0.8553 -1.8551
  777MOL0     H 7220   8.734   8.785   1.160  0.0684 -2.1838  3.0408
  777MOL0     H 7221   8.758   8.615   1.131  4.6936 -1.7954  0.7735
  777MOL0     H 7222   8.805   8.727   0.734 -0.7428 -0.6877 -0.6702
  777MOL0     H 7223   9.428   8.755   1.132 -2.0805 -1.9989 -0.5217
  777MOL0     H 7224   9.651   8.779   1.064 -1.0357 -0.0730  0.8953
  777MOL0     H 7225   9.775   8.742   1.190 -0.2884 -0.0186  0.9898
  777MOL0     H 7226   9.745   8.636   1.048  0.7975  1.0306 -0.1888
  778MOL0     O 7227   3.682   6.095   7.588  0.2465 -0.1661  0.7309
  778MOL0     C 7228   3.691   5.974   7.595 -0.0090 -0.4634  1.0083
  778MOL0     O 7229   3.798   5.904   7.650  0.0991  0.3221  0.0416
  778MOL0     C 7230   3.874   5.977   7.737  0.5412  0.7143 -0.0854
  778MOL0     C 7231   3.822   6.029   7.857 -0.4894 -0.0201 -0.6030
  778MOL0     C 7232   3.907   6.081   7.954 -0.8092  0.0087  0.2191
  778MOL0     C 7233   4.044   6.093   7.930 -0.1913  1.0932 -0.2365
  778MOL0     O 7234   4.137   6.150   8.015 -0.1062  0.8096  0.8247
  778MOL0     C 7235   4.086   6.194   8.138  0.9211 -0.3268  0.2330
  778MOL0     C 7236   4.183   6.266   8.228  0.5873  0.3212  0.1457
  778MOL0     C 7237   4.314   6.189   8.253 -0.0857  0.0055 -0.7865
  778MOL0     C 7238   4.401   6.259   8.350  0.4302 -0.8165  0.2478
  778MOL0     C 7239   4.539   6.196   8.370  0.0202 -0.1156 -0.3401
  778MOL0     C 7240   4.614   6.274   8.477  0.0677  0.5458  0.4222
  778MOL0     C 7241   4.742   6.211   8.523 -1.5300 -0.0250  1.1309
  778MOL0     C 7242   4.823   6.190   8.395 -0.0602  0.2751 -0.4049
  778MOL0     N 7243   4.965   6.188   8.420 -0.0701 -0.4952 -0.3734
  778MOL0     C 7244   5.050   6.095   8.361  0.6600 -0.5196  0.0945
  778MOL0     C 7245   5.175   6.143   8.375  0.8365 -0.6783  0.2637
  778MOL0     C 7246   5.304   6.083   8.321  0.3881  0.4129 -0.0749
  778MOL0     C 7247   5.307   5.933   8.333  0.0278  0.2640  0.3688
  778MOL0     C 7248   5.343   5.890   8.473 -0.0064  0.4979  0.3279
  778MOL0     C 7249   5.344   5.738   8.484 -1.0619 -0.1909 -0.6566
  778MOL0     O 7250   5.423   5.670   8.388  0.5122  0.9450 -0.0889
  778MOL0     C 7251   5.556   5.681   8.371 -0.6630  0.4128 -0.9346
  778MOL0     C 7252   5.647   5.734   8.465  0.3213  0.5891 -0.0644
  778MOL0     C 7253   5.787   5.742   8.440  0.2371 -0.2651  0.8044
  778MOL0     C 7254   5.874   5.795   8.553 -0.8432  0.2377  0.0715
  778MOL0     C 7255   5.834   5.683   8.320 -0.1489  0.1149 -0.0866
  778MOL0     C 7256   5.981   5.672   8.283 -0.0329 -0.0784 -0.3192
  778MOL0     O 7257   6.078   5.750   8.342  0.6302  0.1324 -0.2665
  778MOL0     C 7258   6.205   5.749   8.294 -0.5785  0.0907 -0.1230
  778MOL0     C 7259   6.263   5.866   8.251  0.2249  0.1075  1.1262
  778MOL0     C 7260   6.394   5.867   8.210 -0.3496  0.1337  0.5862
  778MOL0     C 7261   6.471   5.750   8.214  0.0659 -0.9298  0.1116
  778MOL0     O 7262   6.592   5.763   8.152 -0.3601 -0.6557  0.0737
  778MOL0     C 7263   6.692   5.664   8.184 -0.9081 -0.4691 -0.1034
  778MOL0     C 7264   6.736   5.681   8.330  0.5623 -0.7181  0.8160
  778MOL0     C 7265   6.782   5.814   8.383 -0.1136 -0.5461 -0.2687
  778MOL0     C 7266   6.890   5.884   8.299 -0.7218 -0.3783 -0.6873
  778MOL0     C 7267   6.952   6.006   8.367  0.3137 -0.1800 -0.6093
  778MOL0     C 7268   7.079   6.069   8.303 -0.3130 -0.2917  0.1592
  778MOL0     C 7269   7.194   5.972   8.254  0.1705 -0.2190  0.1018
  778MOL0     C 7270   7.259   5.896   8.368 -0.3310  0.3635 -0.8037
  778MOL0    Cl 7271   7.327   6.009   8.494  0.0714 -0.8472 -0.3189
  778MOL0     C 7272   6.414   5.633   8.266  0.3680 -0.5344  0.5330
  778MOL0     C 7273   6.276   5.635   8.308 -1.0621  0.3131  0.1517
  778MOL0     O 7274   6.008   5.585   8.202 -0.0889 -0.1034  0.6054
  778MOL0     C 7275   5.743   5.629   8.231  0.1326 -0.3598  0.3397
  778MOL0     C 7276   5.603   5.620   8.257 -0.4136 -0.3338 -0.2310
  778MOL0     N 7277   5.166   6.258   8.449  0.6518  1.3912  0.8783
  778MOL0     N 7278   5.041   6.286   8.472  0.4736  0.4138 -0.1994
  778MOL0     C 7279   4.102   6.044   7.812 -0.2031 -0.6629  0.3602
  778MOL0     C 7280   4.016   5.976   7.716  0.0342 -0.4148 -0.2500
  778MOL0     C 7281   3.566   5.890   7.570  0.7332 -0.6130 -0.0326
  778MOL0     C 7282   3.558   5.752   7.599  1.0544 -0.4402  0.0078
  778MOL0     C 7283   3.449   5.670   7.578 -0.2721  0.0116 -0.0235
  778MOL0     C 7284   3.328   5.729   7.533  0.6697  0.5030 -0.4658
  778MOL0     O 7285   3.214   5.655   7.543 -0.1769  0.1802  0.2900
  778MOL0     C 7286   3.222   5.529   7.610 -0.5573  0.1504 -0.2174
  778MOL0     C 7287   3.079   5.464   7.617  0.0145  0.2394  0.0607
  778MOL0     C 7288   3.067   5.367   7.728  0.4779 -0.0506  1.5334
  778MOL0     C 7289   2.913   5.325   7.738 -0.4872 -0.1379 -0.4116
  778MOL0     C 7290   2.893   5.200   7.812  0.9130 -0.5037 -0.5818
  778MOL0     C 7291   2.860   5.097   7.866 -0.8464 -0.0415 -0.1093
  778MOL0     C 7292   3.334   5.861   7.489 -0.2395 -1.1624  0.1341
  778MOL0     C 7293   3.448   5.944   7.514  0.8186 -0.0245  0.3313
  778MOL0     C 7294   3.438   6.081   7.457  0.3882 -0.0494 -0.7781
  778MOL0     H 7295   3.715   6.025   7.877 -0.7840  0.5448 -1.9912
  778MOL0     H 7296   3.849   6.112   8.041 -2.9818  0.8707 -1.4414
  778MOL0     H 7297   4.030   6.110   8.181  2.4037 -2.2358 -1.3683
  778MOL0     H 7298   4.020   6.278   8.114  2.0802  0.9973  1.5530
  778MOL0     H 7299   4.200   6.365   8.185 -0.1374  0.4527  0.1585
  778MOL0     H 7300   4.123   6.290   8.316 -1.8569 -0.0941 -1.3148
  778MOL0     H 7301   4.280   6.088   8.279  0.2698 -0.2525 -1.3086
  778MOL0     H 7302   4.372   6.191   8.160  0.4376  2.8339 -0.4970
  778MOL0     H 7303   4.408   6.364   8.320 -3.2975 -0.7801 -1.0266
  778MOL0     H 7304   4.345   6.261   8.444 -0.9330 -0.9102 -0.5211
  778MOL0     H 7305   4.600   6.197   8.279  2.5918 -1.4999  1.2772
  778MOL0     H 7306   4.532   6.094   8.408 -2.7954 -0.0567 -0.4828
  778MOL0     H 7307   4.625   6.377   8.442  1.7945 -0.1541 -1.3211
  778MOL0     H 7308   4.550   6.276   8.565 -1.0050 -2.6735 -0.1447
  778MOL0     H 7309   4.730   6.123   8.586 -0.7248 -1.2009 -0.2964
  778MOL0     H 7310   4.796   6.276   8.593 -1.2885  0.2845  0.6622
  778MOL0     H 7311   4.779   6.098   8.356 -2.0447  0.5895  0.9333
  778MOL0     H 7312   4.806   6.271   8.324 -3.3365  2.9470  2.9846
  778MOL0     H 7313   5.016   6.009   8.303  1.4401 -1.9208  1.6534
  778MOL0     H 7314   5.387   6.129   8.375 -1.5581  0.8942  2.7648
  778MOL0     H 7315   5.320   6.109   8.216  1.5478 -0.3311 -0.0976
  778MOL0     H 7316   5.206   5.898   8.309  0.0834  1.0411 -1.0932
  778MOL0     H 7317   5.382   5.884   8.270  0.8679 -0.1647  1.6563
  778MOL0     H 7318   5.442   5.934   8.491  0.0916  0.4001  0.0382
  778MOL0     H 7319   5.283   5.937   8.551 -1.3925  0.7238 -0.8424
  778MOL0     H 7320   5.372   5.720   8.588 -0.9831  4.2894  0.2956
  778MOL0     H 7321   5.239   5.710   8.471 -2.0070  1.9240  1.5925
  778MOL0     H 7322   5.617   5.782   8.558 -0.8582  0.9676 -0.6255
  778MOL0     H 7323   5.971   5.830   8.517  0.6394 -2.8563  0.6243
  778MOL0     H 7324   5.891   5.714   8.626  1.1909  0.3685 -0.1913
  778MOL0     H 7325   5.824   5.876   8.606 -1.9733  0.9674 -2.0000
  778MOL0     H 7326   6.207   5.959   8.250  1.1388  0.6679  0.5215
  778MOL0     H 7327   6.428   5.961   8.167  2.1200 -0.5224  0.9831
  778MOL0     H 7328   6.675   5.558   8.162  1.7280 -1.3349  1.5115
  778MOL0     H 7329   6.785   5.691   8.133 -0.8382 -0.4767  0.0198
  778MOL0     H 7330   6.655   5.646   8.394  0.1305 -0.3114  0.5066
  778MOL0     H 7331   6.820   5.611   8.336  1.4676  0.3777  1.3267
  778MOL0     H 7332   6.828   5.786   8.478 -0.6212  1.0859  0.5024
  778MOL0     H 7333   6.700   5.882   8.407 -0.9399 -2.1230  1.7359
  778MOL0     H 7334   6.844   5.919   8.206  2.1915 -0.5225 -2.3017
  778MOL0     H 7335   6.958   5.807   8.262 -0.6826 -0.7610  0.1627
  778MOL0     H 7336   6.871   6.079   8.376 -0.4047 -1.0968  0.7735
  778MOL0     H 7337   6.982   5.980   8.469 -1.9577  2.7014  0.9409
  778MOL0     H 7338   7.117   6.155   8.360 -1.5123  0.9807 -0.8952
  778MOL0     H 7339   7.057   6.132   8.216 -3.0425  3.0135  2.9482
  778MOL0     H 7340   7.268   6.034   8.202 -1.5630  0.1545 -2.0777
  778MOL0     H 7341   7.159   5.910   8.171 -2.5035 -0.4301  1.2810
  778MOL0     H 7342   7.336   5.832   8.323  0.0366  0.1172  0.1499
  778MOL0     H 7343   7.190   5.834   8.426  1.9655 -1.2227  0.4185
  778MOL0     H 7344   6.484   5.551   8.280 -0.7093 -1.9634 -1.8040
  778MOL0     H 7345   6.231   5.545   8.350  2.0172 -0.6367  1.7979
  778MOL0     H 7346   5.780   5.568   8.149 -2.4982 -1.4096 -0.1700
  778MOL0     H 7347   5.527   5.577   8.193 -1.3774 -1.4125  1.5953
  778MOL0     H 7348   4.211   6.051   7.812 -0.2881  3.1626  2.8390
  778MOL0     H 7349   4.067   5.929   7.633  1.4925  0.8341 -0.1109
  778MOL0     H 7350   3.641   5.708   7.654  0.0475 -1.4963  0.7103
  778MOL0     H 7351   3.472   5.567   7.604  1.5077 -0.3535 -2.7078
  778MOL0     H 7352   3.297   5.461   7.569  0.1671  0.2507  0.8836
  778MOL0     H 7353   3.250   5.544   7.715  2.2234 -2.4912 -0.4374
  778MOL0     H 7354   3.067   5.405   7.526  2.2198  1.9794 -1.4616
  778MOL0     H 7355   2.997   5.536   7.619 -1.1039 -0.9719 -0.6545
  778MOL0     H 7356   3.136   5.282   7.720 -0.2857 -0.6028  0.5346
  778MOL0     H 7357   3.093   5.426   7.816  1.2838  0.4045  0.9914
  778MOL0     H 7358   2.864   5.325   7.640  0.0330 -1.2981 -0.6881
  778MOL0     H 7359   2.868   5.408   7.794  0.9569  1.4387 -1.4794
  778MOL0     H 7360   2.840   5.001   7.910  0.1378 -0.1661  0.1026
  778MOL0     H 7361   3.241   5.908   7.460  0.3363 -0.4886 -0.6683
  778MOL0     H 7362   3.529   6.091   7.397  0.2242  1.1750 -0.8647
  778MOL0     H 7363   3.351   6.094   7.392 -2.0315 -0.7905  2.1090
  778MOL0     H 7364   3.424   6.160   7.531 -4.2611 -0.0344 -1.3796
  779MOL0     O 7365   0.923   8.313   2.455  0.5537 -0.8205  0.0103
  779MOL0     C 7366   0.922   8.431   2.497 -0.6615  0.8226 -0.1072
  779MOL0     O 7367   1.032   8.515   2.512  0.1162  0.1693 -0.0350
  779MOL0     C 7368   1.156   8.458   2.482  0.5671  0.4787 -0.6017
  779MOL0     C 7369   1.203   8.331   2.495 -1.1419  0.2747 -0.5627
  779MOL0     C 7370   1.331   8.294   2.448  0.4517 -0.6043 -0.5394
  779MOL0     C 7371   1.423   8.391   2.403 -0.2927 -0.2714 -0.1728
  779MOL0     O 7372   1.546   8.351   2.372 -0.2284  0.3770 -0.1564
  779MOL0     C 7373   1.649   8.442   2.337 -0.7710 -0.1741 -0.2571
  779MOL0     C 7374   1.786   8.373   2.322  0.2252 -0.6858  0.0154
  779MOL0     C 7375   1.912   8.466   2.307  0.6578 -0.4598  0.0132
  779MOL0     C 7376   1.968   8.539   2.431  0.2897  0.0671  0.2829
  779MOL0     C 7377   2.070   8.645   2.383 -0.2343 -0.6513  0.0285
  779MOL0     C 7378   2.183   8.589   2.287  0.7084 -0.7980  0.6531
  779MOL0     C 7379   2.257   8.479   2.363  0.2043 -0.4485  0.5913
  779MOL0     C 7380   2.352   8.412   2.269 -0.1025  0.0450  0.5927
  779MOL0     N 7381   2.414   8.293   2.329  0.3040  0.4046  0.5251
  779MOL0     C 7382   2.470   8.278   2.461  0.4450 -0.1020  0.1623
  779MOL0     C 7383   2.514   8.148   2.466  0.3356  0.1089  0.6674
  779MOL0     C 7384   2.574   8.076   2.578 -1.0344  0.4870 -0.1990
  779MOL0     C 7385   2.730   8.060   2.588 -0.1443  0.5069 -0.1747
  779MOL0     C 7386   2.792   7.977   2.475  0.7285  0.0145 -0.4687
  779MOL0     C 7387   2.933   7.974   2.474 -0.7547 -0.0729 -0.1793
  779MOL0     O 7388   2.997   8.101   2.490 -0.1026 -1.0157  0.1226
  779MOL0     C 7389   3.134   8.112   2.495 -0.5485 -0.1419  1.0509
  779MOL0     C 7390   3.180   8.248   2.496 -0.0490  0.2164 -0.3434
  779MOL0     C 7391   3.313   8.285   2.492  0.1994 -0.0066 -0.6567
  779MOL0     C 7392   3.343   8.434   2.507 -0.3715  0.1500  0.9870
  779MOL0     C 7393   3.409   8.177   2.493  0.8877 -0.0445 -0.2514
  779MOL0     C 7394   3.554   8.206   2.507  0.0901  0.5416  0.8485
  779MOL0     O 7395   3.612   8.328   2.454 -0.4784  0.2631 -0.3507
  779MOL0     C 7396   3.743   8.351   2.410  0.5806  0.4745  0.1840
  779MOL0     C 7397   3.773   8.486   2.403  0.4604 -0.1641 -0.0176
  779MOL0     C 7398   3.900   8.526   2.365 -0.7969 -0.4190  0.4607
  779MOL0     C 7399   4.004   8.437   2.347  0.3465 -0.3497 -0.4886
  779MOL0     O 7400   4.129   8.485   2.322  0.4611 -0.6432 -0.1059
  779MOL0     C 7401   4.184   8.581   2.422  0.9984 -0.1867  0.8178
  779MOL0     C 7402   4.285   8.675   2.344  0.5909  0.6304 -0.0702
  779MOL0     C 7403   4.410   8.602   2.300 -0.6690  0.0406  0.3339
  779MOL0     C 7404   4.493   8.686   2.195 -0.7522 -0.1962  0.6521
  779MOL0     C 7405   4.639   8.657   2.172  0.4185 -0.3050 -0.3496
  779MOL0     C 7406   4.696   8.757   2.059 -0.3555 -0.5213  0.3017
  779MOL0     C 7407   4.839   8.724   2.039 -0.5996  0.3963  0.1471
  779MOL0     C 7408   4.915   8.832   1.967  0.0343 -0.0088  0.6119
  779MOL0    Cl 7409   5.087   8.801   1.918 -0.1770 -0.1933 -0.3614
  779MOL0     C 7410   3.982   8.297   2.367 -0.5301  0.5014 -0.5519
  779MOL0     C 7411   3.848   8.252   2.400  0.4922  1.1791  0.2896
  779MOL0     O 7412   3.621   8.116   2.549 -0.1105  0.6040 -0.4677
  779MOL0     C 7413   3.364   8.044   2.478 -0.3253 -0.1134 -0.1762
  779MOL0     C 7414   3.227   8.012   2.474  0.8550 -1.0914 -0.0425
  779MOL0     N 7415   2.477   8.093   2.343 -0.4369  0.9970  0.9825
  779MOL0     N 7416   2.409   8.170   2.268 -0.5256  0.5261 -0.7515
  779MOL0     C 7417   1.380   8.524   2.397 -0.1472  0.1105  0.0799
  779MOL0     C 7418   1.245   8.551   2.433 -0.0216  0.2814 -0.1918
  779MOL0     C 7419   0.787   8.480   2.531  0.4764  0.8858 -0.0505
  779MOL0     C 7420   0.779   8.617   2.553 -0.2419  0.2180 -0.4272
  779MOL0     C 7421   0.655   8.681   2.591  0.0289  0.5250  0.5411
  779MOL0     C 7422   0.540   8.607   2.605  1.0333 -0.4893 -0.4901
  779MOL0     O 7423   0.416   8.656   2.625 -0.4409 -0.2346 -0.3469
  779MOL0     C 7424   0.409   8.802   2.632 -0.1162  0.4646 -0.4271
  779MOL0     C 7425   0.262   8.858   2.650 -0.1825 -0.1739 -0.0421
  779MOL0     C 7426   0.230   9.000   2.578 -0.1884  0.7357 -0.4158
  779MOL0     C 7427   0.094   9.048   2.626 -0.9147 -0.3980 -1.1585
  779MOL0     C 7428   0.093   9.093   2.764 -1.0269 -0.4973  0.0964
  779MOL0     C 7429   0.079   9.113   2.884  1.1253  1.4900  0.1654
  779MOL0     C 7430   0.547   8.471   2.580 -0.8804 -0.7449 -0.0749
  779MOL0     C 7431   0.662   8.409   2.542 -0.4004  0.1068  0.8526
  779MOL0     C 7432   0.635   8.265   2.515  0.4953 -0.5213  0.1437
  779MOL0     H 7433   1.145   8.247   2.533 -0.5669  0.2274  0.2243
  779MOL0     H 7434   1.374   8.195   2.443  2.2834  0.2368 -3.2441
  779MOL0     H 7435   1.676   8.519   2.409  0.5267 -0.9963  0.1684
  779MOL0     H 7436   1.626   8.486   2.239  0.4951 -0.1946 -0.5825
  779MOL0     H 7437   1.800   8.296   2.398 -0.0543 -0.5351  0.2205
  779MOL0     H 7438   1.779   8.333   2.220  3.6086  2.2929 -1.6117
  779MOL0     H 7439   1.993   8.414   2.257  2.5564  2.5234 -0.2825
  779MOL0     H 7440   1.884   8.542   2.233  0.3792 -0.3194  0.2614
  779MOL0     H 7441   1.890   8.588   2.489  0.6039  1.3428 -0.3421
  779MOL0     H 7442   2.016   8.467   2.499 -1.1002 -1.0996  0.0857
  779MOL0     H 7443   2.115   8.685   2.474  3.8114 -0.2967 -1.9072
  779MOL0     H 7444   2.019   8.724   2.328  0.1946  1.4187  2.4129
  779MOL0     H 7445   2.151   8.547   2.192  1.1285  0.5020 -0.0885
  779MOL0     H 7446   2.250   8.671   2.259 -0.2045 -0.5179 -0.7767
  779MOL0     H 7447   2.189   8.411   2.415 -0.0566 -0.3436  0.3912
  779MOL0     H 7448   2.313   8.529   2.443  1.2405  1.6450 -1.3275
  779MOL0     H 7449   2.300   8.365   2.185  1.5737 -2.0222  0.6088
  779MOL0     H 7450   2.426   8.479   2.224 -0.0241  0.0166  0.6793
  779MOL0     H 7451   2.481   8.353   2.538  0.7381 -1.3210  1.3392
  779MOL0     H 7452   2.525   7.980   2.592 -0.9335  0.5879  0.9168
  779MOL0     H 7453   2.562   8.143   2.664  1.4450  2.2256 -1.0715
  779MOL0     H 7454   2.765   8.163   2.585  1.6335 -0.0782 -0.5494
  779MOL0     H 7455   2.746   8.017   2.687  2.7675  1.2815 -0.2382
  779MOL0     H 7456   2.762   7.872   2.478 -1.0638  0.3741 -2.8781
  779MOL0     H 7457   2.750   8.022   2.385 -0.3412 -1.8532 -0.9569
  779MOL0     H 7458   2.970   7.902   2.548 -0.7568 -0.4625 -0.5539
  779MOL0     H 7459   2.956   7.931   2.376 -0.3753  0.9386 -0.5494
  779MOL0     H 7460   3.111   8.331   2.508  0.3561  0.5979 -0.6150
  779MOL0     H 7461   3.411   8.444   2.591  1.1061  0.6180 -0.2186
  779MOL0     H 7462   3.256   8.497   2.528  1.0723  2.9116 -0.6393
  779MOL0     H 7463   3.403   8.480   2.428 -1.1818 -0.3400  0.0655
  779MOL0     H 7464   3.700   8.563   2.423  3.3204  2.5760  0.6204
  779MOL0     H 7465   3.925   8.630   2.344  1.1167 -0.9671 -0.1475
  779MOL0     H 7466   4.114   8.648   2.473  0.9698  0.7792 -0.4484
  779MOL0     H 7467   4.229   8.522   2.503 -0.0434 -0.3546  1.2836
  779MOL0     H 7468   4.241   8.737   2.266  2.8437 -1.4938 -3.2979
  779MOL0     H 7469   4.327   8.735   2.425  2.3453  2.1523 -2.0349
  779MOL0     H 7470   4.388   8.504   2.257  2.8703 -0.0592 -1.6454
  779MOL0     H 7471   4.487   8.587   2.376  1.2311 -0.0932 -1.5066
  779MOL0     H 7472   4.480   8.788   2.234  0.0211  0.3693 -0.5160
  779MOL0     H 7473   4.436   8.685   2.101  2.0604 -1.0880 -1.1446
  779MOL0     H 7474   4.688   8.668   2.269  0.7063 -0.3371 -0.4880
  779MOL0     H 7475   4.645   8.556   2.130 -0.5971 -0.4843 -0.0774
  779MOL0     H 7476   4.678   8.862   2.085  3.5580  0.3001  0.2260
  779MOL0     H 7477   4.639   8.753   1.966  0.4032 -2.4099 -0.1338
  779MOL0     H 7478   4.846   8.629   1.986  0.8765  1.1772 -1.1509
  779MOL0     H 7479   4.893   8.705   2.133  0.0033 -3.5372 -0.7965
  779MOL0     H 7480   4.911   8.925   2.024 -0.1750  0.1575  0.3259
  779MOL0     H 7481   4.853   8.864   1.883 -0.0740  1.8397  1.3518
  779MOL0     H 7482   4.064   8.236   2.330  0.0182  1.2639 -0.6109
  779MOL0     H 7483   3.820   8.150   2.424  1.9826  0.1403 -2.0609
  779MOL0     H 7484   3.428   7.956   2.474 -1.9875 -1.3800 -4.3606
  779MOL0     H 7485   3.193   7.911   2.454 -0.1101 -0.8860  0.4883
  779MOL0     H 7486   1.452   8.599   2.366 -1.7117  1.6228 -0.0240
  779MOL0     H 7487   1.201   8.650   2.429 -0.1907  0.3046  1.5145
  779MOL0     H 7488   0.869   8.678   2.547 -1.8122  2.6709 -0.7464
  779MOL0     H 7489   0.655   8.790   2.598 -1.3826  0.7534 -1.8382
  779MOL0     H 7490   0.472   8.827   2.718 -0.7059  0.3422  0.0479
  779MOL0     H 7491   0.452   8.849   2.543  0.2722 -0.0649 -0.5268
  779MOL0     H 7492   0.229   8.862   2.754 -1.5222 -0.4089 -0.4430
  779MOL0     H 7493   0.196   8.786   2.602 -0.8106  0.1746  0.2803
  779MOL0     H 7494   0.304   9.078   2.596  0.0598  1.2527 -3.2625
  779MOL0     H 7495   0.236   8.979   2.471  1.0788  1.3717 -0.4767
  779MOL0     H 7496   0.035   8.960   2.601  0.9031 -2.1778  0.5381
  779MOL0     H 7497   0.061   9.129   2.560 -0.2716  1.4637  0.6905
  779MOL0     H 7498   0.064   9.138   2.987 -1.1374  3.3815 -0.5481
  779MOL0     H 7499   0.452   8.419   2.586 -1.2814  0.0063  0.2190
  779MOL0     H 7500   0.720   8.209   2.556  1.0742  1.2958  1.6128
  779MOL0     H 7501   0.543   8.226   2.559  0.8327 -0.6798  0.7253
  779MOL0     H 7502   0.633   8.261   2.406 -1.0662 -0.4570  0.1563
  780MOL0     O 7503   1.132   1.082   9.516 -0.4528 -0.3903 -0.5296
  780MOL0     C 7504   1.092   1.073   9.402 -0.0449  0.7970  0.0993
  780MOL0     O 7505   1.165   1.098   9.286  1.1325 -0.0675  0.4659
  780MOL0     C 7506   1.296   1.124   9.306  0.5290  0.5949  0.2297
  780MOL0     C 7507   1.373   1.019   9.355 -0.6341 -0.7999  0.4412
  780MOL0     C 7508   1.510   1.052   9.387 -0.1299 -0.3277 -0.1471
  780MOL0     C 7509   1.570   1.177   9.381 -0.3224 -0.1758 -0.7377
  780MOL0     O 7510   1.697   1.217   9.421  0.0609 -0.0081  0.0751
  780MOL0     C 7511   1.758   1.127   9.511  0.0413 -0.4202 -1.1360
  780MOL0     C 7512   1.884   1.159   9.569 -1.1234  0.5577 -0.7656
  780MOL0     C 7513   1.999   1.185   9.476 -0.3438  0.3228  1.0124
  780MOL0     C 7514   2.057   1.058   9.400 -0.8833 -0.1547 -0.0080
  780MOL0     C 7515   2.184   1.105   9.325  0.5427 -0.5148 -0.1248
  780MOL0     C 7516   2.292   1.141   9.427 -0.0008  0.0201  0.0144
  780MOL0     C 7517   2.431   1.119   9.370 -0.3982  0.4486 -0.2020
  780MOL0     C 7518   2.543   1.158   9.469  0.1514 -0.7506  0.5057
  780MOL0     N 7519   2.679   1.134   9.424  0.4640 -1.0807 -0.0627
  780MOL0     C 7520   2.737   1.010   9.426  0.1708 -0.1286  0.0394
  780MOL0     C 7521   2.853   1.022   9.346 -0.2193 -0.1544  0.7936
  780MOL0     C 7522   2.954   0.914   9.315  0.7513 -0.0351  0.2273
  780MOL0     C 7523   2.882   0.779   9.297  0.1245 -0.7027  0.4605
  780MOL0     C 7524   2.814   0.757   9.166 -0.1098 -0.7741  0.3269
  780MOL0     C 7525   2.683   0.679   9.158 -0.0051  0.4981  0.6006
  780MOL0     O 7526   2.595   0.750   9.244  0.4275 -0.1765  0.4512
  780MOL0     C 7527   2.468   0.698   9.264  0.0584  0.2898  0.2610
  780MOL0     C 7528   2.411   0.593   9.190 -0.1443  0.5294 -0.4098
  780MOL0     C 7529   2.279   0.540   9.230  0.3842  0.5251 -0.0842
  780MOL0     C 7530   2.226   0.425   9.139 -1.1939 -0.0577 -0.9008
  780MOL0     C 7531   2.200   0.614   9.320 -0.0134  0.8806  0.5903
  780MOL0     C 7532   2.053   0.591   9.332 -0.0641  0.4764 -0.1221
  780MOL0     O 7533   1.986   0.696   9.392  0.4709 -0.2409 -0.2839
  780MOL0     C 7534   1.849   0.682   9.413 -0.4047  0.5721 -0.6263
  780MOL0     C 7535   1.756   0.696   9.308 -0.5029 -0.1077 -0.0964
  780MOL0     C 7536   1.620   0.699   9.347  0.4855  0.3746  0.2874
  780MOL0     C 7537   1.570   0.681   9.476 -0.3156 -0.1090  0.5415
  780MOL0     O 7538   1.433   0.672   9.487 -0.1473  0.2825 -0.1641
  780MOL0     C 7539   1.380   0.689   9.618  1.2073  0.8231  0.6779
  780MOL0     C 7540   1.225   0.710   9.607 -0.5353  0.0065 -0.2167
  780MOL0     C 7541   1.153   0.590   9.556  0.3474  0.2225 -0.4123
  780MOL0     C 7542   0.999   0.587   9.579 -0.4837 -0.2084  0.0654
  780MOL0     C 7543   0.937   0.468   9.508  0.2198 -0.4452  0.1090
  780MOL0     C 7544   1.009   0.337   9.527  0.5252  0.3196 -0.0774
  780MOL0     C 7545   0.912   0.222   9.474  0.3582 -0.0540 -0.4041
  780MOL0     C 7546   0.937   0.095   9.557  0.3886 -0.2612  0.1187
  780MOL0    Cl 7547   1.074  -0.004   9.482 -0.3882 -0.4053  0.1108
  780MOL0     C 7548   1.664   0.660   9.576  0.5700  0.4056  0.1091
  780MOL0     C 7549   1.796   0.656   9.543  0.4242  0.1859 -0.1198
  780MOL0     O 7550   1.996   0.480   9.313  1.1071 -0.5111  0.1954
  780MOL0     C 7551   2.260   0.722   9.389 -0.0155 -0.2428 -0.3880
  780MOL0     C 7552   2.395   0.755   9.368 -0.2226  0.0941  0.5707
  780MOL0     N 7553   2.864   1.150   9.304 -0.2347 -0.1150 -0.1658
  780MOL0     N 7554   2.757   1.212   9.345 -1.4024  0.6460  0.4062
  780MOL0     C 7555   1.473   1.277   9.350 -0.5418 -0.2964  0.9593
  780MOL0     C 7556   1.342   1.252   9.311  1.1742 -0.2558  0.9737
  780MOL0     C 7557   0.947   1.039   9.389  0.1548 -0.3164  0.7351
  780MOL0     C 7558   0.884   0.972   9.500 -0.1489 -0.0415  0.1137
  780MOL0     C 7559   0.744   0.945   9.511  0.5516  0.0490  1.0736
  780MOL0     C 7560   0.669   0.968   9.394  0.2599  0.1840 -0.4092
  780MOL0     O 7561   0.532   0.945   9.384  0.6728  0.3296 -0.0186
  780MOL0     C 7562   0.478   0.828   9.449  0.1979 -0.1208 -0.1558
  780MOL0     C 7563   0.503   0.702   9.359 -0.7252 -0.0634 -1.2408
  780MOL0     C 7564   0.641   0.647   9.363 -0.5925  0.2981 -0.0381
  780MOL0     C 7565   0.639   0.516   9.284  0.4403 -0.4231  0.2005
  780MOL0     C 7566   0.565   0.411   9.355  0.4655  0.1842 -0.1262
  780MOL0     C 7567   0.505   0.334   9.427 -0.1608 -0.0975 -0.4289
  780MOL0     C 7568   0.728   1.015   9.283  0.3582  0.2789 -0.0100
  780MOL0     C 7569   0.863   1.064   9.276 -0.4561  0.5476  0.0176
  780MOL0     C 7570   0.908   1.120   9.138  1.1477  0.1992  0.1701
  780MOL0     H 7571   1.343   0.915   9.356  0.4273 -1.1880  3.7786
  780MOL0     H 7572   1.566   0.968   9.425 -2.1640 -1.3070  0.8480
  780MOL0     H 7573   1.779   1.028   9.469  0.6557 -1.9994  2.5005
  780MOL0     H 7574   1.688   1.107   9.592 -0.9058 -1.2555 -2.1266
  780MOL0     H 7575   1.876   1.237   9.645 -1.6757  1.4816 -1.7420
  780MOL0     H 7576   1.906   1.069   9.626 -1.4332  1.3980  0.7214
  780MOL0     H 7577   1.951   1.258   9.410 -4.5766 -1.9657  1.1453
  780MOL0     H 7578   2.075   1.233   9.537  0.3983  1.9684 -1.0848
  780MOL0     H 7579   2.086   0.983   9.475 -1.5056  0.8100  1.2347
  780MOL0     H 7580   1.979   1.015   9.337 -0.0362  1.0572 -1.9552
  780MOL0     H 7581   2.167   1.190   9.258  1.5133 -0.4857 -0.3384
  780MOL0     H 7582   2.222   1.026   9.259  2.6094  0.6977 -0.4723
  780MOL0     H 7583   2.291   1.245   9.463 -0.8348 -0.4336  1.3914
  780MOL0     H 7584   2.275   1.077   9.514 -0.1808 -0.0685 -0.0849
  780MOL0     H 7585   2.449   1.174   9.278  1.8223 -0.9275 -0.6815
  780MOL0     H 7586   2.458   1.015   9.351 -0.3676  0.3219  0.5020
  780MOL0     H 7587   2.531   1.266   9.484  1.5176 -0.6180  0.7153
  780MOL0     H 7588   2.526   1.107   9.564 -4.2599  0.0901  0.3784
  780MOL0     H 7589   2.698   0.917   9.467  1.4957 -1.4298 -1.4856
  780MOL0     H 7590   3.033   0.917   9.390  0.5608  1.3756  0.3906
  780MOL0     H 7591   2.991   0.935   9.214  0.5212 -1.4635 -0.1728
  780MOL0     H 7592   2.959   0.703   9.312  2.6807  1.3837 -1.1910
  780MOL0     H 7593   2.802   0.755   9.369 -0.0630 -1.0543  0.1368
  780MOL0     H 7594   2.786   0.853   9.122  0.6126 -1.3529 -1.5085
  780MOL0     H 7595   2.876   0.704   9.092 -1.3188 -0.9504 -0.5798
  780MOL0     H 7596   2.648   0.690   9.055  0.7865 -1.2857  0.1150
  780MOL0     H 7597   2.695   0.574   9.186  2.7868  0.3116 -0.9662
  780MOL0     H 7598   2.462   0.550   9.104 -0.4207 -0.6098 -0.0158
  780MOL0     H 7599   2.306   0.407   9.067 -0.4484 -1.1920  0.1690
  780MOL0     H 7600   2.136   0.465   9.090 -1.5117 -0.3765 -0.5841
  780MOL0     H 7601   2.204   0.332   9.191  1.4760  0.2416  0.9624
  780MOL0     H 7602   1.783   0.709   9.203  0.7323  1.3460  0.3683
  780MOL0     H 7603   1.536   0.702   9.278 -0.9218  1.0294  1.9512
  780MOL0     H 7604   1.418   0.612   9.686  0.7473 -1.9936 -2.0222
  780MOL0     H 7605   1.417   0.787   9.650 -0.4910  1.6020  0.3786
  780MOL0     H 7606   1.185   0.739   9.704  0.5491 -1.0168  0.5602
  780MOL0     H 7607   1.205   0.796   9.542 -1.8859  0.8882  1.3150
  780MOL0     H 7608   1.191   0.502   9.609 -1.9090  0.3105  1.5131
  780MOL0     H 7609   1.175   0.577   9.450  0.4429 -3.1131 -0.1033
  780MOL0     H 7610   0.969   0.683   9.537  1.7804  1.2536  1.5295
  780MOL0     H 7611   0.970   0.582   9.685 -1.5726 -1.7874 -0.2629
  780MOL0     H 7612   0.842   0.449   9.560 -1.2625  3.4440 -0.8331
  780MOL0     H 7613   0.926   0.470   9.400  0.2033 -3.1578  0.0032
  780MOL0     H 7614   1.035   0.332   9.633 -0.9657  0.1109  0.2909
  780MOL0     H 7615   1.098   0.328   9.463 -0.7629  1.7488 -2.1713
  780MOL0     H 7616   0.936   0.192   9.372  1.1862 -1.6053  0.2096
  780MOL0     H 7617   0.808   0.256   9.487 -0.5375 -2.8518  0.5784
  780MOL0     H 7618   0.844   0.036   9.551  1.0483 -1.7924  2.9066
  780MOL0     H 7619   0.949   0.111   9.665 -1.0460 -1.8597  0.5689
  780MOL0     H 7620   1.635   0.659   9.681 -1.5203  1.1885 -0.4057
  780MOL0     H 7621   1.858   0.645   9.631 -2.3545  0.2637  1.9881
  780MOL0     H 7622   2.202   0.778   9.463 -1.6284  1.6417 -2.9203
  780MOL0     H 7623   2.446   0.822   9.436  0.6832  0.8679 -0.8070
  780MOL0     H 7624   1.519   1.375   9.347 -2.3832  0.6021  1.0992
  780MOL0     H 7625   1.270   1.325   9.273  1.5586 -0.2050  0.3173
  780MOL0     H 7626   0.942   0.946   9.587 -2.6873  0.2529  2.0206
  780MOL0     H 7627   0.698   0.906   9.601 -1.8269  0.1215 -0.0452
  780MOL0     H 7628   0.512   0.822   9.553 -0.4132  1.9224  0.2024
  780MOL0     H 7629   0.370   0.841   9.444  0.4136  2.7015  0.7036
  780MOL0     H 7630   0.469   0.727   9.258  1.7187 -1.1537 -2.4110
  780MOL0     H 7631   0.429   0.630   9.394 -0.8432 -0.4415 -2.2351
  780MOL0     H 7632   0.704   0.718   9.309  0.1685 -0.7509 -0.5606
  780MOL0     H 7633   0.685   0.626   9.461  0.6139  0.7240 -0.4731
  780MOL0     H 7634   0.741   0.480   9.269  1.8967  3.9372 -1.7994
  780MOL0     H 7635   0.594   0.529   9.185  1.4750 -1.9502 -0.5034
  780MOL0     H 7636   0.444   0.269   9.486 -0.0768 -0.1820 -0.4355
  780MOL0     H 7637   0.657   1.042   9.205 -0.9455 -1.7865  0.3840
  780MOL0     H 7638   0.922   1.228   9.132  1.5363  0.1119 -0.5422
  780MOL0     H 7639   1.004   1.077   9.109  1.8755  1.5412  0.4909
  780MOL0     H 7640   0.834   1.099   9.061 -0.8199  1.3707  1.6174
  781MOL0     O 7641   5.544   3.161   0.302 -0.0886 -0.0751  0.2391
  781MOL0     C 7642   5.544   3.109   0.414 -0.0633 -0.7241  0.1139
  781MOL0     O 7643   5.654   3.062   0.479  0.0861  0.9067  0.1595
  781MOL0     C 7644   5.782   3.060   0.438  1.2559 -0.1370 -0.2556
  781MOL0     C 7645   5.854   2.952   0.474  0.7324  0.6782  0.2665
  781MOL0     C 7646   5.988   2.954   0.443 -0.2911 -0.4745 -0.6510
  781MOL0     C 7647   6.051   3.060   0.379 -0.3414  0.3688 -0.0463
  781MOL0     O 7648   6.179   3.051   0.344  0.4180 -0.5794  1.1938
  781MOL0     C 7649   6.210   2.944   0.254 -0.0990 -1.0379  0.4433
  781MOL0     C 7650   6.340   2.981   0.197 -1.0915  0.1822  0.4094
  781MOL0     C 7651   6.342   2.895   0.069  0.8185  0.2563 -0.3036
  781MOL0     C 7652   6.466   2.899  -0.017 -0.6025  0.0671  0.4781
  781MOL0     C 7653   6.459   2.805  -0.138  0.3900 -0.4414  0.0346
  781MOL0     C 7654   6.497   2.659  -0.115  0.7666  0.5252  0.1048
  781MOL0     C 7655   6.451   2.587  -0.245 -0.4665 -0.5200  0.0046
  781MOL0     C 7656   6.536   2.578  -0.375 -0.2280 -0.1100 -0.7726
  781MOL0     N 7657   6.656   2.489  -0.364  0.2387  0.3984  0.6134
  781MOL0     C 7658   6.664   2.367  -0.427  0.5949 -0.1964 -0.1584
  781MOL0     C 7659   6.768   2.305  -0.363  0.4436 -0.3522 -0.6691
  781MOL0     C 7660   6.838   2.175  -0.378  0.9070 -0.6993 -1.2516
  781MOL0     C 7661   6.791   2.104  -0.507  0.1610 -0.5506  0.1021
  781MOL0     C 7662   6.857   1.964  -0.517 -0.7371  0.5434 -0.0155
  781MOL0     C 7663   6.840   1.886  -0.653  0.1067 -0.2664  0.1146
  781MOL0     O 7664   6.898   1.954  -0.762  0.8483 -0.4685  0.3455
  781MOL0     C 7665   6.917   1.891  -0.894  0.1843  0.6506 -0.0703
  781MOL0     C 7666   6.911   1.757  -0.916  0.4329 -0.6965  0.1756
  781MOL0     C 7667   6.926   1.702  -1.044 -0.0806  0.0196  0.2285
  781MOL0     C 7668   6.896   1.558  -1.055 -0.1699  0.0256 -0.3324
  781MOL0     C 7669   6.958   1.788  -1.156  0.0901  0.2294 -0.0669
  781MOL0     C 7670   6.965   1.751  -1.298 -0.0175  0.6684 -1.2125
  781MOL0     O 7671   6.907   1.837  -1.389 -0.8452  0.0688  0.0102
  781MOL0     C 7672   6.936   1.802  -1.523  0.0050 -0.4413 -0.4598
  781MOL0     C 7673   6.898   1.685  -1.589 -0.0672  0.1607  0.3213
  781MOL0     C 7674   6.936   1.657  -1.722  0.2048 -0.2201 -0.5641
  781MOL0     C 7675   7.033   1.736  -1.785  0.1977 -0.4035  0.8847
  781MOL0     O 7676   7.078   1.700  -1.910  0.3596 -0.1086 -0.1905
  781MOL0     C 7677   7.186   1.781  -1.977  0.2962  0.5155 -0.1339
  781MOL0     C 7678   7.126   1.914  -2.034 -0.0933  0.0319  0.7035
  781MOL0     C 7679   7.236   2.022  -2.041  0.1045 -0.1873 -0.0723
  781MOL0     C 7680   7.269   2.091  -1.907 -0.1112  0.5523  0.8007
  781MOL0     C 7681   7.360   2.211  -1.931  1.0338 -0.3022  0.3124
  781MOL0     C 7682   7.306   2.346  -1.996  0.7561 -0.7232 -0.2411
  781MOL0     C 7683   7.388   2.470  -1.960  0.8866 -0.3136  0.0691
  781MOL0     C 7684   7.334   2.582  -2.048  0.2950 -0.4420  0.4536
  781MOL0    Cl 7685   7.407   2.753  -2.013 -0.0568  0.0796 -0.1731
  781MOL0     C 7686   7.077   1.846  -1.712 -0.6016  0.1055 -0.1992
  781MOL0     C 7687   7.022   1.888  -1.593 -0.2498 -0.2850  0.1952
  781MOL0     O 7688   7.027   1.647  -1.328  0.4397 -0.5562 -0.2425
  781MOL0     C 7689   6.951   1.927  -1.121  0.4517 -0.1068  0.8327
  781MOL0     C 7690   6.941   1.978  -1.002 -0.3193  0.2644  0.2276
  781MOL0     N 7691   6.813   2.388  -0.263 -0.4857  0.3719  0.0446
  781MOL0     N 7692   6.743   2.492  -0.267  0.1662  0.1218 -0.3227
  781MOL0     C 7693   5.978   3.172   0.351 -0.1306  0.6517 -0.1633
  781MOL0     C 7694   5.841   3.170   0.384  0.7324  0.3147  0.1577
  781MOL0     C 7695   5.413   3.092   0.482 -0.4204  0.2064  1.6347
  781MOL0     C 7696   5.310   3.184   0.466  0.7007 -0.9814  0.0499
  781MOL0     C 7697   5.190   3.177   0.536  0.6253 -0.1617  0.0148
  781MOL0     C 7698   5.172   3.076   0.625 -0.5655 -0.1155  0.1310
  781MOL0     O 7699   5.058   3.061   0.694 -0.2568  0.0111 -0.4783
  781MOL0     C 7700   4.968   3.161   0.724  0.1960 -0.0793  0.2979
  781MOL0     C 7701   5.039   3.258   0.822 -0.3768 -0.2481 -0.0946
  781MOL0     C 7702   4.939   3.363   0.877 -0.5851 -0.1863  0.2963
  781MOL0     C 7703   4.802   3.313   0.927 -0.5759  0.4155  0.3486
  781MOL0     C 7704   4.829   3.220   1.039 -0.6299  0.2376 -0.1331
  781MOL0     C 7705   4.848   3.146   1.132 -1.1088  0.5010  0.3327
  781MOL0     C 7706   5.274   2.983   0.647  0.2197  0.0432 -0.5911
  781MOL0     C 7707   5.393   2.982   0.573 -0.4103  0.1918 -0.1265
  781MOL0     C 7708   5.484   2.864   0.581 -0.2335  0.0152  0.4620
  781MOL0     H 7709   5.809   2.867   0.525 -0.4558  2.6802  2.8346
  781MOL0     H 7710   6.052   2.869   0.467  1.9302  1.8758  2.6574
  781MOL0     H 7711   6.130   2.939   0.180  1.9574  0.8235 -2.1317
  781MOL0     H 7712   6.213   2.849   0.307  0.6954 -1.1445  0.2244
  781MOL0     H 7713   6.337   3.088   0.177 -1.3543  0.1974  0.5294
  781MOL0     H 7714   6.421   2.950   0.264  1.7621 -0.9295 -3.1767
  781MOL0     H 7715   6.330   2.793   0.106 -2.8737  0.4121 -0.7057
  781MOL0     H 7716   6.247   2.916   0.019 -0.7053  0.4115  2.4159
  781MOL0     H 7717   6.457   3.002  -0.052  0.1260  0.7697  2.3067
  781MOL0     H 7718   6.562   2.891   0.034 -0.5835  3.0394  1.0827
  781MOL0     H 7719   6.520   2.834  -0.224  1.1892 -1.5194  0.2138
  781MOL0     H 7720   6.353   2.811  -0.162  0.9285  2.0837 -2.1040
  781MOL0     H 7721   6.599   2.623  -0.098  0.0704 -2.9898 -2.0142
  781MOL0     H 7722   6.421   2.622  -0.046 -0.3726  2.1536 -0.2360
  781MOL0     H 7723   6.347   2.612  -0.267 -0.3866  1.8323  1.9454
  781MOL0     H 7724   6.456   2.480  -0.222 -1.5119 -0.6736 -0.3984
  781MOL0     H 7725   6.470   2.527  -0.445 -1.5923  0.7927 -0.1964
  781MOL0     H 7726   6.558   2.675  -0.421  1.7356 -0.8567 -1.4864
  781MOL0     H 7727   6.601   2.345  -0.513 -0.0642 -0.4072  0.3736
  781MOL0     H 7728   6.797   2.111  -0.299 -0.7750 -1.6088 -2.7743
  781MOL0     H 7729   6.946   2.191  -0.374  0.8933 -0.7502 -0.5949
  781MOL0     H 7730   6.682   2.099  -0.500 -0.0380  2.0849  0.0527
  781MOL0     H 7731   6.813   2.160  -0.598  1.1866  0.3384  0.8683
  781MOL0     H 7732   6.963   1.970  -0.489 -1.0063  0.0800  1.1096
  781MOL0     H 7733   6.817   1.902  -0.437 -0.4552  0.5350  0.1189
  781MOL0     H 7734   6.893   1.792  -0.638  0.0665 -0.1646  0.9376
  781MOL0     H 7735   6.736   1.863  -0.678 -0.1022 -0.2700  0.9538
  781MOL0     H 7736   6.897   1.693  -0.829 -0.9296 -1.3364 -0.4830
  781MOL0     H 7737   6.937   1.507  -0.968 -0.1697 -1.3689 -1.1178
  781MOL0     H 7738   6.949   1.524  -1.145  0.6016  1.4282 -0.4445
  781MOL0     H 7739   6.787   1.549  -1.052 -0.5874  3.3555 -1.3508
  781MOL0     H 7740   6.836   1.610  -1.540 -0.3096 -0.4623 -0.9021
  781MOL0     H 7741   6.902   1.572  -1.781  0.2548 -0.3569 -0.3978
  781MOL0     H 7742   7.262   1.802  -1.901  0.1886  1.1737 -0.1996
  781MOL0     H 7743   7.235   1.724  -2.057 -1.7833  1.8390 -2.5280
  781MOL0     H 7744   7.104   1.903  -2.141  0.7581 -0.3059  0.5551
  781MOL0     H 7745   7.038   1.936  -1.973 -1.0444 -0.0256 -0.5928
  781MOL0     H 7746   7.218   2.096  -2.120 -1.3765 -1.3867 -0.9110
  781MOL0     H 7747   7.320   1.962  -2.077 -1.4432 -3.0836  0.7759
  781MOL0     H 7748   7.309   2.018  -1.836 -2.7647 -1.6414  0.1829
  781MOL0     H 7749   7.177   2.133  -1.864  0.5575  1.8487  1.0096
  781MOL0     H 7750   7.398   2.246  -1.835 -1.1836  1.2122  0.7115
  781MOL0     H 7751   7.442   2.181  -1.997 -0.0734 -0.1322 -1.1932
  781MOL0     H 7752   7.207   2.372  -1.959  1.7262  4.3380 -0.5373
  781MOL0     H 7753   7.291   2.329  -2.103 -4.0255  2.8356 -0.4485
  781MOL0     H 7754   7.492   2.457  -1.990  0.5993 -0.3136 -0.9609
  781MOL0     H 7755   7.373   2.488  -1.853  0.6389  0.0432 -0.0246
  781MOL0     H 7756   7.226   2.594  -2.039  0.2626 -0.4724  0.1185
  781MOL0     H 7757   7.344   2.553  -2.153  0.5503 -0.7787  0.5664
  781MOL0     H 7758   7.149   1.914  -1.756 -1.4512  0.3267 -1.2995
  781MOL0     H 7759   7.048   1.984  -1.549 -1.1025  1.4008 -2.7345
  781MOL0     H 7760   6.956   2.011  -1.190 -0.7156  1.4012  2.4898
  781MOL0     H 7761   6.936   2.084  -0.981  2.2020  0.3280  0.8093
  781MOL0     H 7762   6.020   3.260   0.304 -0.2591  0.0679 -1.4098
  781MOL0     H 7763   5.784   3.261   0.371  0.6266  0.1061 -0.9276
  781MOL0     H 7764   5.318   3.270   0.400 -1.6530 -0.8022 -0.0838
  781MOL0     H 7765   5.114   3.249   0.506  0.0359  0.0729  1.9467
  781MOL0     H 7766   4.937   3.213   0.633 -2.9908 -1.1977  0.6276
  781MOL0     H 7767   4.877   3.107   0.752 -0.7454  0.2149 -1.9432
  781MOL0     H 7768   5.129   3.304   0.779 -0.1770 -1.2081 -0.7268
  781MOL0     H 7769   5.065   3.197   0.909  2.2649  0.6330 -0.1527
  781MOL0     H 7770   5.005   3.412   0.950  3.7081 -2.4144 -1.6830
  781MOL0     H 7771   4.919   3.431   0.794 -0.1502 -0.7478 -0.2772
  781MOL0     H 7772   4.751   3.255   0.849  0.1781  2.7081 -1.9989
  781MOL0     H 7773   4.735   3.391   0.962 -0.2732  0.8440 -0.0087
  781MOL0     H 7774   4.868   3.071   1.206 -1.7343 -1.7285 -1.6063
  781MOL0     H 7775   5.269   2.901   0.719 -1.5271  0.0346 -0.6875
  781MOL0     H 7776   5.593   2.871   0.577 -0.2337  0.8178  1.5037
  781MOL0     H 7777   5.463   2.798   0.666  0.4049  1.1468  1.5240
  781MOL0     H 7778   5.445   2.802   0.499 -2.3829  1.0863  0.5777
  782MOL0     O 7779   8.668  11.134  11.427 -1.0383  0.0310  0.0459
  782MOL0     C 7780   8.718  11.098  11.534 -0.7598  0.2418 -0.9616
  782MOL0     O 7781   8.775  10.978  11.549 -0.5336 -0.0912 -0.4730
  782MOL0     C 7782   8.799  10.900  11.448 -0.1567  0.3116  0.1912
  782MOL0     C 7783   8.926  10.886  11.401 -0.3113  0.4490 -1.2827
  782MOL0     C 7784   8.956  10.809  11.294  1.1007  0.2530  0.3558
  782MOL0     C 7785   8.858  10.728  11.234  0.3348  0.3311  0.6563
  782MOL0     O 7786   8.872  10.645  11.116  0.4989 -0.1263 -0.3751
  782MOL0     C 7787   9.006  10.622  11.076  0.0807 -0.5930 -0.6606
  782MOL0     C 7788   9.034  10.547  10.949 -0.2858 -0.1805 -0.2491
  782MOL0     C 7789   8.987  10.408  10.951 -0.2527 -0.1066  0.2717
  782MOL0     C 7790   9.009  10.346  10.813  0.1039  0.8149 -0.6663
  782MOL0     C 7791   9.160  10.316  10.796  0.3196 -0.4675 -1.2035
  782MOL0     C 7792   9.185  10.222  10.672 -1.3847  0.0209 -0.6452
  782MOL0     C 7793   9.336  10.191  10.679  0.0376  0.3768 -0.0271
  782MOL0     C 7794   9.361  10.079  10.778  0.3200 -0.1990 -1.0665
  782MOL0     N 7795   9.476   9.987  10.745 -0.3447 -0.1986  0.0306
  782MOL0     C 7796   9.608  10.014  10.754  0.8789  0.3767  0.1036
  782MOL0     C 7797   9.678   9.903  10.725 -0.4922 -0.2187 -0.1939
  782MOL0     C 7798   9.833   9.890  10.736 -0.3010 -0.6233 -0.8156
  782MOL0     C 7799   9.906   9.978  10.634 -0.0061 -0.3296 -0.7713
  782MOL0     C 7800   9.870   9.936  10.492 -0.5482 -0.1325 -0.7508
  782MOL0     C 7801   9.893   9.788  10.455  0.3295 -0.1491  0.3234
  782MOL0     O 7802  10.016   9.739  10.495 -0.6646  0.3296 -0.2185
  782MOL0     C 7803  10.127   9.794  10.445 -0.0039  0.2011 -0.3642
  782MOL0     C 7804  10.228   9.817  10.538  0.1968 -0.6963  0.2008
  782MOL0     C 7805  10.352   9.865  10.503 -0.1626  0.1157 -0.3378
  782MOL0     C 7806  10.452   9.894  10.608 -0.0531 -0.5802  0.8007
  782MOL0     C 7807  10.368   9.910  10.370 -0.6649 -0.5060 -0.2314
  782MOL0     C 7808  10.495   9.962  10.308 -0.7034  0.2062 -0.2173
  782MOL0     O 7809  10.497   9.957  10.174 -0.1071 -0.5667 -0.1965
  782MOL0     C 7810  10.613   9.986  10.106 -0.3163  1.2630 -0.2871
  782MOL0     C 7811  10.741   9.938  10.147 -0.2138  0.6119 -0.1370
  782MOL0     C 7812  10.848   9.948  10.058 -0.1123 -0.1791 -0.5859
  782MOL0     C 7813  10.829  10.014   9.938 -0.4754 -0.4713 -0.8229
  782MOL0     O 7814  10.932  10.033   9.858 -0.4321  0.0113 -0.7792
  782MOL0     C 7815  10.956  10.161   9.808 -0.6353 -0.2118 -0.4970
  782MOL0     C 7816  11.103  10.182   9.776 -0.3314  0.4849  0.0786
  782MOL0     C 7817  11.141  10.222   9.627  0.5311  0.7825  0.0614
  782MOL0     C 7818  11.281  10.293   9.622 -0.3952  0.5257 -1.0227
  782MOL0     C 7819  11.405  10.199   9.624 -0.5375  0.5549  0.3380
  782MOL0     C 7820  11.537  10.271   9.602 -0.6911  0.0604 -0.1185
  782MOL0     C 7821  11.574  10.366   9.713  0.6094 -1.0111 -0.5127
  782MOL0     C 7822  11.708  10.444   9.698 -1.0773 -0.0831 -1.4490
  782MOL0    Cl 7823  11.855  10.341   9.722 -0.0344 -0.3552 -0.5130
  782MOL0     C 7824  10.705  10.063   9.897 -0.2775 -0.7114  0.3588
  782MOL0     C 7825  10.589  10.046   9.981 -0.3060  0.9749 -0.0414
  782MOL0     O 7826  10.587  10.006  10.377  1.5890 -0.1047 -0.3726
  782MOL0     C 7827  10.263   9.888  10.285  0.1387 -0.9599 -0.5054
  782MOL0     C 7828  10.148   9.831  10.314  1.0555  0.3569 -0.3858
  782MOL0     N 7829   9.580   9.804  10.692  0.4062  0.0695 -0.0096
  782MOL0     N 7830   9.466   9.862  10.707 -0.0997 -0.0913  0.4199
  782MOL0     C 7831   8.729  10.732  11.287  0.3098  1.0161  0.5924
  782MOL0     C 7832   8.698  10.823  11.389 -0.3215  0.1206 -0.6146
  782MOL0     C 7833   8.672  11.187  11.645 -0.2345 -0.5215 -0.9618
  782MOL0     C 7834   8.544  11.240  11.639  0.9367 -0.0856 -0.9508
  782MOL0     C 7835   8.493  11.307  11.747  0.1828 -0.4217 -0.5729
  782MOL0     C 7836   8.566  11.325  11.867 -0.9012  1.1227  0.2085
  782MOL0     O 7837   8.520  11.358  11.989 -0.3537 -0.0755  1.0126
  782MOL0     C 7838   8.379  11.395  12.000  0.1339 -0.3691  0.1032
  782MOL0     C 7839   8.363  11.420  12.146  0.1744 -0.2295 -0.1475
  782MOL0     C 7840   8.218  11.459  12.182  0.4402  0.2171  0.1466
  782MOL0     C 7841   8.217  11.603  12.247 -0.4006  0.0287 -0.3301
  782MOL0     C 7842   8.244  11.699  12.140 -0.4420  0.5542 -1.6997
  782MOL0     C 7843   8.262  11.792  12.061 -0.7563  0.0300 -0.9935
  782MOL0     C 7844   8.702  11.280  11.864  0.3670 -0.0079  0.3361
  782MOL0     C 7845   8.757  11.196  11.763 -0.3476  0.8628  0.2516
  782MOL0     C 7846   8.899  11.143  11.771  0.3045  0.2799 -0.3670
  782MOL0     H 7847   9.009  10.940  11.446 -2.0397  0.7933  1.7698
  782MOL0     H 7848   9.056  10.811  11.251  0.8128  1.1485 -0.3188
  782MOL0     H 7849   9.067  10.572  11.152  3.3435  2.8365 -0.6967
  782MOL0     H 7850   9.063  10.713  11.059  1.9634 -1.9348 -2.0558
  782MOL0     H 7851   8.999  10.602  10.861 -2.1077 -0.6466  0.1256
  782MOL0     H 7852   9.142  10.541  10.938 -0.1137  1.3180  0.4094
  782MOL0     H 7853   9.036  10.351  11.030  0.8914  1.2751  0.6067
  782MOL0     H 7854   8.880  10.399  10.970  0.1066  0.7772  3.1913
  782MOL0     H 7855   8.951  10.254  10.818 -0.0592  0.8481 -1.6014
  782MOL0     H 7856   8.976  10.408  10.729  0.7149 -0.2170 -1.6987
  782MOL0     H 7857   9.198  10.266  10.886 -0.7012  1.9831  0.7321
  782MOL0     H 7858   9.206  10.415  10.786 -1.5005  0.2949 -2.4343
  782MOL0     H 7859   9.116  10.137  10.675 -0.8890 -0.3800  1.6549
  782MOL0     H 7860   9.156  10.281  10.585 -0.2155 -0.9545 -1.7347
  782MOL0     H 7861   9.401  10.275  10.709 -0.7972  0.8548  0.4802
  782MOL0     H 7862   9.365  10.157  10.580  0.2430 -1.2127  0.5512
  782MOL0     H 7863   9.387  10.113  10.879  1.0801 -0.5657 -1.1269
  782MOL0     H 7864   9.268  10.022  10.778 -0.2036  0.4126  2.5935
  782MOL0     H 7865   9.653  10.107  10.788  2.4130  1.0434 -3.2683
  782MOL0     H 7866   9.874   9.790  10.719  1.2145  0.0502 -1.3171
  782MOL0     H 7867   9.854   9.928  10.837 -1.1146  1.2988 -1.3272
  782MOL0     H 7868   9.898  10.086  10.648  0.3741 -0.4702  0.7788
  782MOL0     H 7869  10.011   9.973  10.662  0.2209  3.0391 -0.6619
  782MOL0     H 7870   9.767   9.963  10.467 -0.7794 -0.0648  0.2361
  782MOL0     H 7871   9.933  10.002  10.433  1.3121  0.4966  1.7557
  782MOL0     H 7872   9.809   9.735  10.504  0.7240  0.1048  1.3086
  782MOL0     H 7873   9.884   9.784  10.346 -3.4919  0.3233  0.4680
  782MOL0     H 7874  10.208   9.774  10.635  0.6175 -3.3696 -0.7954
  782MOL0     H 7875  10.446   9.999  10.639 -1.5821 -0.9391  1.7867
  782MOL0     H 7876  10.555   9.866  10.582  0.0325  1.3644 -1.2542
  782MOL0     H 7877  10.417   9.844  10.698 -1.9991 -0.9525 -0.1043
  782MOL0     H 7878  10.765   9.902  10.246 -0.2224 -0.7301 -0.6057
  782MOL0     H 7879  10.940   9.900  10.086 -1.0466 -1.7879 -0.1723
  782MOL0     H 7880  10.892  10.172   9.720 -0.6040 -0.3356 -0.5355
  782MOL0     H 7881  10.918  10.230   9.884  0.3216  0.7445 -0.8645
  782MOL0     H 7882  11.144  10.256   9.845  0.0899  0.4957 -0.1831
  782MOL0     H 7883  11.156  10.089   9.800 -0.7960  0.8851  3.0299
  782MOL0     H 7884  11.063  10.290   9.591 -1.2176 -1.5660 -0.8071
  782MOL0     H 7885  11.143  10.141   9.554 -3.8113 -0.5883  1.1470
  782MOL0     H 7886  11.296  10.359   9.708  1.0857  0.2534 -1.0354
  782MOL0     H 7887  11.277  10.359   9.535  1.0444  0.5010 -1.1266
  782MOL0     H 7888  11.412  10.133   9.711 -1.4606 -2.6013 -1.7730
  782MOL0     H 7889  11.402  10.130   9.539 -0.0647  1.5044 -0.4735
  782MOL0     H 7890  11.539  10.325   9.506  3.3292  2.0167  0.8206
  782MOL0     H 7891  11.613  10.193   9.596  1.7240  2.2921 -0.4653
  782MOL0     H 7892  11.565  10.309   9.805  0.7774  0.8060  0.6821
  782MOL0     H 7893  11.498  10.444   9.723  1.5310  0.4731 -3.6498
  782MOL0     H 7894  11.708  10.530   9.766 -2.1266 -0.5558 -0.8316
  782MOL0     H 7895  11.708  10.491   9.600  3.0703 -0.2222 -1.7296
  782MOL0     H 7896  10.687  10.126   9.810 -0.2850  2.9933  2.7981
  782MOL0     H 7897  10.486  10.059   9.950 -0.8513  0.5088  1.5018
  782MOL0     H 7898  10.275   9.924  10.183  1.0310  2.8941  0.8110
  782MOL0     H 7899  10.074   9.804  10.240  2.0136 -2.3560 -0.4609
  782MOL0     H 7900   8.648  10.672  11.245 -0.5589  2.7017 -0.2381
  782MOL0     H 7901   8.597  10.828  11.430 -0.2001 -1.2780 -0.0719
  782MOL0     H 7902   8.476  11.220  11.557  0.3151 -1.0973 -0.2084
  782MOL0     H 7903   8.385  11.322  11.744  0.0644 -0.0843  2.4271
  782MOL0     H 7904   8.350  11.484  11.943  0.2587  0.1779  0.8688
  782MOL0     H 7905   8.317  11.318  11.954 -1.9322  2.5307 -2.4169
  782MOL0     H 7906   8.439  11.494  12.175 -0.4800  0.9412 -1.3225
  782MOL0     H 7907   8.378  11.324  12.196 -2.3354 -0.5146  0.1540
  782MOL0     H 7908   8.152  11.453  12.094 -0.0358 -0.2397  0.5277
  782MOL0     H 7909   8.180  11.378  12.245  1.2996 -0.8352 -0.6564
  782MOL0     H 7910   8.284  11.602  12.334 -1.4231  1.0083  0.4891
  782MOL0     H 7911   8.119  11.612  12.294 -0.5248  0.3185 -0.6425
  782MOL0     H 7912   8.291  11.856  11.980 -2.1668  0.6062 -1.0626
  782MOL0     H 7913   8.773  11.317  11.938  0.7174 -0.5298  0.2615
  782MOL0     H 7914   8.944  11.212  11.843 -2.0060 -0.4084  1.8553
  782MOL0     H 7915   8.906  11.040  11.808 -0.1594 -0.2614 -1.7076
  782MOL0     H 7916   8.959  11.147  11.680  1.1332 -1.0504  0.0891
  783MOL0     O 7917   6.603   2.347   8.597 -0.8567 -0.9669 -0.3527
  783MOL0     C 7918   6.567   2.367   8.481 -0.5735  0.0945  0.3288
  783MOL0     O 7919   6.635   2.336   8.373 -0.0850 -0.1269  0.5849
  783MOL0     C 7920   6.775   2.331   8.355 -0.1016  0.4060 -0.1686
  783MOL0     C 7921   6.866   2.384   8.456 -0.3041 -0.4053  0.8770
  783MOL0     C 7922   6.998   2.380   8.444  0.4991  0.1166 -0.3077
  783MOL0     C 7923   7.048   2.313   8.328 -0.2348 -0.1977 -0.4708
  783MOL0     O 7924   7.183   2.302   8.306 -0.1381  0.4577 -0.3366
  783MOL0     C 7925   7.265   2.411   8.352  0.4027  0.7594 -0.3647
  783MOL0     C 7926   7.233   2.546   8.272 -0.6166  0.0595  0.6736
  783MOL0     C 7927   7.364   2.619   8.244 -0.2133  0.4947 -0.1087
  783MOL0     C 7928   7.422   2.661   8.379 -0.1186 -1.2557  0.3646
  783MOL0     C 7929   7.554   2.741   8.372 -0.1802 -0.5201  1.1478
  783MOL0     C 7930   7.681   2.665   8.319 -1.1376 -0.3131 -0.5895
  783MOL0     C 7931   7.808   2.771   8.309  0.1460 -0.2005 -0.5107
  783MOL0     C 7932   7.858   2.825   8.447 -0.1077  0.7299  1.2363
  783MOL0     N 7933   7.900   2.717   8.540 -0.2859  0.2605 -0.4408
  783MOL0     C 7934   7.998   2.628   8.523  0.3011 -0.4567  0.2820
  783MOL0     C 7935   7.998   2.552   8.639 -0.2341  0.2827  0.0290
  783MOL0     C 7936   8.067   2.421   8.649 -0.2508  1.5424  0.1076
  783MOL0     C 7937   8.037   2.347   8.781  0.4899  0.2436 -0.3730
  783MOL0     C 7938   8.099   2.203   8.807 -0.3755 -0.2415 -0.1540
  783MOL0     C 7939   8.245   2.191   8.759 -0.0886  0.9377  1.1103
  783MOL0     O 7940   8.242   2.179   8.612 -0.1560 -0.3872 -0.4440
  783MOL0     C 7941   8.349   2.144   8.534 -0.1260 -0.1486  0.7256
  783MOL0     C 7942   8.478   2.135   8.568 -0.3142  0.7196 -0.4421
  783MOL0     C 7943   8.579   2.103   8.479 -0.0870  0.2399  0.3421
  783MOL0     C 7944   8.723   2.126   8.534  0.8756  0.3515  1.0768
  783MOL0     C 7945   8.548   2.077   8.344 -0.7643  0.2481 -0.5768
  783MOL0     C 7946   8.645   2.024   8.241 -0.3467 -0.1067  0.1677
  783MOL0     O 7947   8.612   2.018   8.115 -0.6570 -0.3219  0.5855
  783MOL0     C 7948   8.711   1.971   8.021 -0.5710 -0.6212 -1.1268
  783MOL0     C 7949   8.708   1.838   7.974 -0.5427 -0.1601 -0.4191
  783MOL0     C 7950   8.798   1.795   7.879 -0.7731 -0.5367  0.4464
  783MOL0     C 7951   8.901   1.874   7.830 -0.7671 -0.4573 -0.2796
  783MOL0     O 7952   8.982   1.827   7.733  0.0638 -0.1163  0.6850
  783MOL0     C 7953   9.116   1.797   7.782 -0.5357  0.4863  1.1700
  783MOL0     C 7954   9.219   1.909   7.755 -0.5846 -0.4343  0.9345
  783MOL0     C 7955   9.202   1.987   7.620 -0.0598 -0.4202 -0.8893
  783MOL0     C 7956   9.284   2.114   7.618 -0.2208 -0.1687  0.1977
  783MOL0     C 7957   9.224   2.236   7.677 -0.7005 -1.2428 -0.7751
  783MOL0     C 7958   9.342   2.341   7.685 -0.3887 -0.5029  0.2341
  783MOL0     C 7959   9.294   2.494   7.693 -0.3557 -0.8704 -0.1480
  783MOL0     C 7960   9.412   2.596   7.694  0.4311  0.2081  0.1664
  783MOL0    Cl 7961   9.488   2.563   7.852 -0.3430  0.1116 -0.4079
  783MOL0     C 7962   8.901   2.008   7.875  0.2958 -0.2997 -0.3338
  783MOL0     C 7963   8.811   2.058   7.971  0.4889  0.0686 -0.3214
  783MOL0     O 7964   8.744   1.979   8.291  0.4008  0.6900  0.9232
  783MOL0     C 7965   8.418   2.097   8.298 -0.2497 -0.9303 -0.3574
  783MOL0     C 7966   8.320   2.131   8.398 -0.5048  0.1666  0.3644
  783MOL0     N 7967   7.901   2.601   8.730 -0.2103  0.6152  0.6802
  783MOL0     N 7968   7.842   2.694   8.662  0.3483 -0.3286 -0.5028
  783MOL0     C 7969   6.966   2.252   8.235 -0.1007  0.6483  0.1029
  783MOL0     C 7970   6.824   2.274   8.241 -0.6604 -1.1097 -0.1767
  783MOL0     C 7971   6.434   2.427   8.459  0.3280  0.5699  0.3423
  783MOL0     C 7972   6.366   2.484   8.565 -0.7372  0.4244 -0.5568
  783MOL0     C 7973   6.241   2.543   8.556 -0.3928 -0.0550  0.1358
  783MOL0     C 7974   6.171   2.560   8.439 -0.5993 -0.4918  0.2503
  783MOL0     O 7975   6.045   2.614   8.433 -0.0437 -0.7542 -0.2691
  783MOL0     C 7976   5.983   2.654   8.310 -0.3322 -0.1158 -0.4562
  783MOL0     C 7977   6.006   2.800   8.289  0.3473  0.4269  0.2684
  783MOL0     C 7978   5.969   2.883   8.418 -0.0586 -0.3364 -0.2286
  783MOL0     C 7979   6.086   2.924   8.499  0.8555  0.3801  0.4745
  783MOL0     C 7980   6.185   3.009   8.422  0.1075 -0.2835  0.1563
  783MOL0     C 7981   6.253   3.074   8.342  0.3839  0.5370  0.7418
  783MOL0     C 7982   6.239   2.503   8.327 -0.2500  0.0876  0.7404
  783MOL0     C 7983   6.364   2.431   8.335 -0.3385 -0.5717  0.8804
  783MOL0     C 7984   6.404   2.354   8.212 -1.2609  0.3539  0.5338
  783MOL0     H 7985   6.831   2.423   8.551  2.2874 -0.1472  1.8111
  783MOL0     H 7986   7.056   2.421   8.527  0.0043 -1.9134  1.1316
  783MOL0     H 7987   7.369   2.390   8.324  0.9822  1.9329  0.8254
  783MOL0     H 7988   7.262   2.434   8.459 -1.2897 -0.0425 -0.2050
  783MOL0     H 7989   7.183   2.538   8.175  0.8820  5.6165 -0.9259
  783MOL0     H 7990   7.169   2.609   8.334 -1.1903 -0.0228  0.1732
  783MOL0     H 7991   7.429   2.560   8.178 -0.4424  1.4484 -1.2335
  783MOL0     H 7992   7.345   2.709   8.185  1.3010  0.8612 -0.0785
  783MOL0     H 7993   7.349   2.722   8.434 -0.8444  0.7149 -2.5028
  783MOL0     H 7994   7.430   2.568   8.435  0.2423 -2.7503 -2.0182
  783MOL0     H 7995   7.575   2.781   8.472 -1.5069 -0.9891  1.6350
  783MOL0     H 7996   7.531   2.826   8.306  3.1706  1.9060  2.8041
  783MOL0     H 7997   7.704   2.585   8.390  1.0043 -0.3642 -1.2477
  783MOL0     H 7998   7.668   2.625   8.218 -1.1671  1.8281 -1.4954
  783MOL0     H 7999   7.779   2.854   8.244 -0.9630 -2.0180 -2.4293
  783MOL0     H 8000   7.897   2.730   8.260 -0.4613 -0.0787 -1.7399
  783MOL0     H 8001   7.942   2.893   8.429 -0.1739 -0.0386 -3.4344
  783MOL0     H 8002   7.776   2.886   8.486  0.4045  1.3839  1.3116
  783MOL0     H 8003   8.061   2.612   8.437 -0.8199  0.9992 -0.8722
  783MOL0     H 8004   8.176   2.425   8.640  0.1987 -0.9339  2.9157
  783MOL0     H 8005   8.020   2.357   8.573 -0.8374  0.9013  0.9960
  783MOL0     H 8006   8.069   2.407   8.867  0.3241 -2.4956  1.7422
  783MOL0     H 8007   7.928   2.336   8.783  0.3215  1.7685  0.8236
  783MOL0     H 8008   8.076   2.174   8.910  1.7485  1.1941  0.7997
  783MOL0     H 8009   8.039   2.143   8.738  2.8376 -1.7943 -1.7810
  783MOL0     H 8010   8.303   2.276   8.796  0.6321  1.3998 -0.9694
  783MOL0     H 8011   8.292   2.104   8.806  4.7268  0.4281 -3.6762
  783MOL0     H 8012   8.506   2.151   8.672  1.4246 -0.0752 -0.7602
  783MOL0     H 8013   8.731   2.116   8.643 -0.4937  0.3215  1.1847
  783MOL0     H 8014   8.754   2.221   8.491  0.0840  1.0924  2.1008
  783MOL0     H 8015   8.799   2.054   8.500 -0.2977 -1.2840  1.7912
  783MOL0     H 8016   8.626   1.770   7.998 -0.0794 -1.4106 -2.2048
  783MOL0     H 8017   8.797   1.701   7.824  1.0826  1.3710 -3.2816
  783MOL0     H 8018   9.113   1.769   7.887 -0.9159 -0.4327  0.9299
  783MOL0     H 8019   9.153   1.709   7.727  2.3284  1.9432  0.5780
  783MOL0     H 8020   9.212   1.980   7.837  1.0681  1.5858 -0.5789
  783MOL0     H 8021   9.318   1.864   7.765 -0.9026 -2.2034 -2.2275
  783MOL0     H 8022   9.094   2.006   7.612 -0.0660  2.5207  3.1392
  783MOL0     H 8023   9.236   1.924   7.538 -2.3501 -2.5896 -0.3167
  783MOL0     H 8024   9.302   2.136   7.512 -1.7113 -1.8824 -0.4496
  783MOL0     H 8025   9.384   2.088   7.654  0.6795 -0.2422 -2.1540
  783MOL0     H 8026   9.134   2.259   7.619 -0.0868 -2.5362 -2.2780
  783MOL0     H 8027   9.184   2.236   7.779  0.5057  3.4597 -0.0395
  783MOL0     H 8028   9.410   2.330   7.599 -1.9475  1.0971 -1.2755
  783MOL0     H 8029   9.408   2.318   7.769 -0.4895 -1.8953 -0.0307
  783MOL0     H 8030   9.236   2.508   7.785  1.0617 -0.3967  0.7225
  783MOL0     H 8031   9.219   2.523   7.619  0.3841  0.6294 -0.3690
  783MOL0     H 8032   9.374   2.698   7.701 -1.2041 -0.4567  3.4115
  783MOL0     H 8033   9.478   2.579   7.609 -0.4636 -1.3514 -0.2762
  783MOL0     H 8034   8.957   2.081   7.817 -0.7773 -0.1349 -1.1958
  783MOL0     H 8035   8.836   2.152   8.018 -0.6613 -0.6474  1.8876
  783MOL0     H 8036   8.395   2.117   8.194 -0.5468 -1.8829 -0.4848
  783MOL0     H 8037   8.213   2.126   8.379 -0.0752 -3.4173 -2.1333
  783MOL0     H 8038   7.010   2.198   8.151 -0.5936  1.7371 -0.8943
  783MOL0     H 8039   6.756   2.237   8.164 -0.4129  0.4535 -1.1983
  783MOL0     H 8040   6.417   2.486   8.661  0.4081 -1.1390 -1.0710
  783MOL0     H 8041   6.192   2.575   8.647  2.1344 -0.4833  1.7557
  783MOL0     H 8042   6.007   2.605   8.215 -2.1977 -3.0491  0.4392
  783MOL0     H 8043   5.876   2.645   8.327 -0.5106  1.3319 -0.7610
  783MOL0     H 8044   5.958   2.838   8.198  2.5437  3.4827  0.2646
  783MOL0     H 8045   6.112   2.817   8.270  0.6586 -1.7102 -0.1305
  783MOL0     H 8046   5.912   2.973   8.394 -1.7540 -0.9552  1.2569
  783MOL0     H 8047   5.897   2.823   8.474 -1.7756  2.6704  1.0383
  783MOL0     H 8048   6.123   2.826   8.531 -2.3751 -0.9621  0.5181
  783MOL0     H 8049   6.036   2.975   8.582 -3.2516  1.4365 -2.3288
  783MOL0     H 8050   6.326   3.122   8.280  1.4457 -1.2004  0.5893
  783MOL0     H 8051   6.194   2.523   8.231  1.4954  0.3946 -0.0451
  783MOL0     H 8052   6.448   2.258   8.241 -1.4623  0.0423 -0.1764
  783MOL0     H 8053   6.317   2.320   8.155 -1.7183 -1.7831  2.3709
  783MOL0     H 8054   6.473   2.415   8.152 -0.9826  1.2587  1.7332
  784MOL0     O 8055   1.485   7.394  11.124 -0.5060  0.3378  0.4259
  784MOL0     C 8056   1.509   7.509  11.136  0.1571 -0.8733  0.1639
  784MOL0     O 8057   1.634   7.563  11.162  0.2769  0.2196  0.6543
  784MOL0     C 8058   1.738   7.479  11.174 -0.1652 -0.3328 -0.4467
  784MOL0     C 8059   1.806   7.413  11.069  0.1338 -0.6315 -0.3972
  784MOL0     C 8060   1.926   7.350  11.094  0.5408  0.5045  0.3297
  784MOL0     C 8061   1.983   7.352  11.225 -0.0618  1.0575 -1.0399
  784MOL0     O 8062   2.108   7.297  11.248  0.3962  0.5459 -0.2424
  784MOL0     C 8063   2.199   7.293  11.131  0.2829 -0.4878 -0.0431
  784MOL0     C 8064   2.324   7.225  11.174 -1.0079  0.3382 -0.1440
  784MOL0     C 8065   2.310   7.080  11.232 -0.1312  0.1660 -0.0434
  784MOL0     C 8066   2.442   7.016  11.282  0.3155 -0.3835 -0.8372
  784MOL0     C 8067   2.431   6.873  11.332 -0.4031 -0.7313 -0.1791
  784MOL0     C 8068   2.454   6.762  11.240  0.7897 -0.3579  0.8427
  784MOL0     C 8069   2.521   6.642  11.289 -0.5925 -0.1353 -0.2139
  784MOL0     C 8070   2.469   6.567  11.410  0.1017 -0.0601 -0.0194
  784MOL0     N 8071   2.537   6.432  11.431  0.1071 -0.3338 -0.5415
  784MOL0     C 8072   2.632   6.407  11.521  0.2579  0.0320  0.1834
  784MOL0     C 8073   2.680   6.287  11.491  0.0105 -0.0117 -0.2969
  784MOL0     C 8074   2.785   6.202  11.555  0.2642 -0.3798  0.4216
  784MOL0     C 8075   2.766   6.192  11.710  0.3194 -0.0275  0.3632
  784MOL0     C 8076   2.889   6.236  11.794 -0.3991 -0.6529  0.2448
  784MOL0     C 8077   2.863   6.256  11.942  0.8602 -0.2783  0.0302
  784MOL0     O 8078   2.758   6.350  11.973  0.1664 -0.5795 -0.4530
  784MOL0     C 8079   2.776   6.480  11.924  0.2793 -0.2690 -0.4174
  784MOL0     C 8080   2.664   6.565  11.904  0.4635 -0.0666 -0.7254
  784MOL0     C 8081   2.673   6.695  11.848 -0.1985  0.8785  0.1425
  784MOL0     C 8082   2.545   6.777  11.824 -0.0887  0.3696  0.0190
  784MOL0     C 8083   2.797   6.733  11.810  0.2860  0.7924  0.6264
  784MOL0     C 8084   2.813   6.850  11.722 -0.4066  0.5584 -1.3086
  784MOL0     O 8085   2.722   6.876  11.624 -0.5436  0.3078 -0.1128
  784MOL0     C 8086   2.746   6.982  11.548 -0.3801 -0.3095  0.3127
  784MOL0     C 8087   2.835   6.968  11.438 -0.4412  0.6465  1.3310
  784MOL0     C 8088   2.847   7.076  11.351 -0.3344 -1.2505 -0.6152
  784MOL0     C 8089   2.778   7.195  11.380 -0.5502 -0.4363  0.3238
  784MOL0     O 8090   2.795   7.299  11.288 -0.0271 -0.3490  0.1143
  784MOL0     C 8091   2.737   7.427  11.314 -0.1132  0.2603 -0.7233
  784MOL0     C 8092   2.811   7.535  11.233 -0.2036 -0.2882  0.5738
  784MOL0     C 8093   2.966   7.506  11.228  0.1690 -0.1005 -0.0094
  784MOL0     C 8094   3.033   7.612  11.138 -0.2043  0.4979 -0.5402
  784MOL0     C 8095   3.189   7.608  11.137  0.5070 -0.4335 -0.4098
  784MOL0     C 8096   3.239   7.469  11.098 -0.2983 -0.2685  0.2235
  784MOL0     C 8097   3.397   7.455  11.098  0.3980 -0.1056 -0.1838
  784MOL0     C 8098   3.461   7.448  10.962 -0.4358  0.1571  0.3672
  784MOL0    Cl 8099   3.463   7.606  10.885  0.4016 -0.2387 -0.1552
  784MOL0     C 8100   2.684   7.201  11.483  0.1412  0.8672  0.4044
  784MOL0     C 8101   2.664   7.092  11.576 -0.0155  0.1312  0.8339
  784MOL0     O 8102   2.912   6.923  11.751  0.5217  0.5873  0.2323
  784MOL0     C 8103   2.914   6.667  11.844  1.0587  0.1326 -1.4899
  784MOL0     C 8104   2.897   6.535  11.898 -0.1768 -0.0932  0.3390
  784MOL0     N 8105   2.616   6.232  11.380  0.1119 -0.2365  0.5138
  784MOL0     N 8106   2.523   6.319  11.355 -0.2999  0.3562 -0.8159
  784MOL0     C 8107   1.919   7.418  11.326 -0.3498 -0.0165  0.2292
  784MOL0     C 8108   1.800   7.488  11.299 -0.6813 -0.5319  0.7804
  784MOL0     C 8109   1.392   7.607  11.132 -0.7318  0.6918  0.0810
  784MOL0     C 8110   1.413   7.744  11.137  0.0722 -0.4487 -0.1131
  784MOL0     C 8111   1.300   7.839  11.136  0.5642 -0.7679  0.3613
  784MOL0     C 8112   1.170   7.793  11.139 -0.7046 -0.5062  0.4406
  784MOL0     O 8113   1.067   7.877  11.147 -0.5463 -0.2761 -0.1699
  784MOL0     C 8114   1.056   7.941  11.274 -0.2033 -0.2801 -0.8174
  784MOL0     C 8115   0.937   8.041  11.262 -0.3250 -0.7459 -0.4861
  784MOL0     C 8116   0.804   7.967  11.265  0.3965  0.3047  0.3653
  784MOL0     C 8117   0.741   7.956  11.132 -0.2640 -0.7096  0.7882
  784MOL0     C 8118   0.603   7.901  11.141  0.8921 -0.5436  0.2659
  784MOL0     C 8119   0.487   7.851  11.150 -0.9465  0.2581  0.4695
  784MOL0     C 8120   1.150   7.661  11.125  0.2596  1.3771  0.2453
  784MOL0     C 8121   1.254   7.566  11.125  0.6846 -0.5158 -0.1242
  784MOL0     C 8122   1.203   7.424  11.148 -0.1253 -0.0008  0.5639
  784MOL0     H 8123   1.762   7.413  10.970 -0.5348  0.6869 -0.1270
  784MOL0     H 8124   1.970   7.298  11.009 -0.6353 -0.6283  0.3881
  784MOL0     H 8125   2.215   7.399  11.109 -1.8317 -0.2470 -0.5790
  784MOL0     H 8126   2.167   7.246  11.038 -0.2243 -1.4902  0.6269
  784MOL0     H 8127   2.392   7.213  11.088  1.3973  0.3034  1.6610
  784MOL0     H 8128   2.374   7.290  11.247  0.1426  0.1843 -0.7596
  784MOL0     H 8129   2.233   7.080  11.310 -0.4089 -0.4329 -0.3128
  784MOL0     H 8130   2.276   7.009  11.156  0.1990 -0.2689  0.2046
  784MOL0     H 8131   2.521   7.025  11.208  1.8615 -1.2815  0.6249
  784MOL0     H 8132   2.467   7.091  11.358  0.4100 -0.4646 -0.7884
  784MOL0     H 8133   2.334   6.857  11.380  0.6076 -0.8605  1.9303
  784MOL0     H 8134   2.501   6.856  11.414  0.4828 -0.0432 -0.7671
  784MOL0     H 8135   2.354   6.741  11.201  0.0873  0.5697  2.0526
  784MOL0     H 8136   2.516   6.796  11.156 -0.1725 -2.3614 -0.7450
  784MOL0     H 8137   2.619   6.682  11.318 -1.3122 -0.0392  2.3283
  784MOL0     H 8138   2.529   6.561  11.217 -2.1414 -0.6175  0.1262
  784MOL0     H 8139   2.489   6.627  11.499 -1.5082  0.2748  0.1540
  784MOL0     H 8140   2.363   6.541  11.398 -0.5138  2.5133 -0.8447
  784MOL0     H 8141   2.658   6.472  11.604 -0.7495 -1.1619  1.4800
  784MOL0     H 8142   2.880   6.248  11.526  0.2095 -0.6021 -0.1225
  784MOL0     H 8143   2.798   6.103  11.512 -0.0223 -0.3268  0.2116
  784MOL0     H 8144   2.687   6.265  11.728  0.1434 -0.2019  0.2855
  784MOL0     H 8145   2.727   6.091  11.726  0.1864 -0.9376 -4.4068
  784MOL0     H 8146   2.969   6.161  11.796 -2.0577 -2.4755  0.7906
  784MOL0     H 8147   2.935   6.328  11.756  0.6980 -1.0595  0.5459
  784MOL0     H 8148   2.831   6.157  11.978  2.2134 -0.7228  0.0706
  784MOL0     H 8149   2.959   6.272  11.992  2.3141 -3.7498 -1.2880
  784MOL0     H 8150   2.565   6.532  11.932 -0.3487  1.2025 -1.9825
  784MOL0     H 8151   2.471   6.747  11.899  0.1982 -0.4310 -0.0192
  784MOL0     H 8152   2.513   6.752  11.723  3.1104  2.9849 -1.8498
  784MOL0     H 8153   2.570   6.883  11.839  2.9323 -0.5945  2.6803
  784MOL0     H 8154   2.895   6.881  11.414  3.0355  3.4822 -1.3769
  784MOL0     H 8155   2.911   7.069  11.264 -0.0696  2.2231 -0.8568
  784MOL0     H 8156   2.630   7.421  11.289 -0.4482  0.8931  0.4975
  784MOL0     H 8157   2.751   7.454  11.419 -1.2878 -1.3869 -0.1047
  784MOL0     H 8158   2.772   7.536  11.131 -0.5356 -0.6312  0.6948
  784MOL0     H 8159   2.788   7.632  11.279 -1.7332 -0.3673  0.0342
  784MOL0     H 8160   2.966   7.405  11.185 -4.1472  0.5412 -2.0282
  784MOL0     H 8161   3.003   7.495  11.331 -0.3266 -2.7496 -0.0406
  784MOL0     H 8162   3.000   7.700  11.194 -2.9888 -1.7212  1.6110
  784MOL0     H 8163   2.987   7.616  11.038 -2.1950  0.8018  0.3357
  784MOL0     H 8164   3.221   7.685  11.066 -2.7844  1.7899  0.2861
  784MOL0     H 8165   3.211   7.631  11.242 -0.1780  1.9338 -0.7188
  784MOL0     H 8166   3.206   7.431  11.001  1.3503 -1.0582 -0.0624
  784MOL0     H 8167   3.215   7.389  11.168 -0.0766 -1.2414 -0.7916
  784MOL0     H 8168   3.413   7.365  11.157  1.6653  1.4875  2.0595
  784MOL0     H 8169   3.439   7.537  11.158 -0.4235  0.4162 -0.2985
  784MOL0     H 8170   3.407   7.370  10.908 -1.4452  2.5460 -2.3279
  784MOL0     H 8171   3.570   7.435  10.963 -0.4157  0.1693 -0.5296
  784MOL0     H 8172   2.612   7.282  11.487 -0.6738  0.4186 -2.8233
  784MOL0     H 8173   2.599   7.085  11.663  0.9661 -1.7327  1.4511
  784MOL0     H 8174   3.011   6.713  11.828  1.2756  1.4281  2.5176
  784MOL0     H 8175   2.990   6.489  11.930 -0.9368 -1.0131  1.3253
  784MOL0     H 8176   1.969   7.428  11.423  0.1891  0.8450 -0.1247
  784MOL0     H 8177   1.759   7.563  11.366  2.5917  1.9588  0.2447
  784MOL0     H 8178   1.515   7.782  11.137  0.0747 -0.3961  1.4389
  784MOL0     H 8179   1.319   7.946  11.130 -4.2953  0.2691 -1.3243
  784MOL0     H 8180   1.044   7.875  11.361 -2.3001  0.2318 -0.6591
  784MOL0     H 8181   1.152   7.993  11.273  0.6037 -1.7331 -1.3885
  784MOL0     H 8182   0.951   8.082  11.162  0.3511 -0.5880 -0.3301
  784MOL0     H 8183   0.934   8.126  11.331 -2.8507 -1.4403  0.3800
  784MOL0     H 8184   0.811   7.873  11.321 -0.3847 -0.0190 -0.0738
  784MOL0     H 8185   0.730   8.022  11.324  1.4982  2.3457 -0.0851
  784MOL0     H 8186   0.804   7.890  11.073  1.4103 -0.1794  1.9233
  784MOL0     H 8187   0.744   8.055  11.087  1.1037 -0.5956  1.1089
  784MOL0     H 8188   0.389   7.807  11.155 -0.3163 -1.3657 -0.5283
  784MOL0     H 8189   1.046   7.633  11.117  0.9440 -0.6975 -3.1536
  784MOL0     H 8190   1.207   7.377  11.049 -0.3162 -1.1647  1.0913
  784MOL0     H 8191   1.259   7.366  11.222 -0.3216 -1.9103 -0.7131
  784MOL0     H 8192   1.100   7.432  11.182 -0.4658  2.4419 -0.8139
  785MOL0     O 8193  10.145  10.361   6.345  0.6039  0.1531  0.4394
  785MOL0     C 8194  10.151  10.282   6.250  0.1043 -0.6657 -0.3688
  785MOL0     O 8195  10.244  10.289   6.147 -0.2460  0.2136  0.0622
  785MOL0     C 8196  10.329  10.396   6.142 -0.6921 -0.2543  0.6660
  785MOL0     C 8197  10.299  10.512   6.064 -0.1513 -0.7339 -0.3407
  785MOL0     C 8198  10.393  10.613   6.040 -1.2351 -0.0871 -0.0425
  785MOL0     C 8199  10.522  10.618   6.108  0.0267 -0.8532 -0.3550
  785MOL0     O 8200  10.607  10.731   6.123  0.0215 -0.0950 -0.9170
  785MOL0     C 8201  10.569  10.851   6.061 -0.5185 -0.1447  0.2216
  785MOL0     C 8202  10.682  10.960   6.091 -0.2595  0.2537 -0.2028
  785MOL0     C 8203  10.674  11.010   6.232  0.1459 -0.1986 -0.8274
  785MOL0     C 8204  10.720  11.159   6.212  0.3381 -0.8399 -0.3737
  785MOL0     C 8205  10.737  11.228   6.359 -0.6326  0.0575  0.2541
  785MOL0     C 8206  10.611  11.220   6.436 -0.0911  1.0961  1.2942
  785MOL0     C 8207  10.599  11.310   6.551  0.2436  0.5083 -1.2102
  785MOL0     C 8208  10.478  11.276   6.638 -0.1184 -0.2023  0.5774
  785MOL0     N 8209  10.459  11.375   6.748  1.0546  0.6393 -0.2794
  785MOL0     C 8210  10.361  11.475   6.747  0.1217  0.3032  0.1998
  785MOL0     C 8211  10.350  11.520   6.870  0.0277 -0.5272 -0.2368
  785MOL0     C 8212  10.267  11.642   6.901  1.2988 -0.7368  0.1256
  785MOL0     C 8213  10.139  11.597   6.977  0.3872 -0.0435 -0.1891
  785MOL0     C 8214  10.178  11.528   7.109  0.1895 -0.5908  0.0410
  785MOL0     C 8215  10.246  11.618   7.207  0.4572 -0.5836  0.7454
  785MOL0     O 8216  10.225  11.572   7.341  0.3316  0.4203  0.4540
  785MOL0     C 8217  10.107  11.586   7.400 -0.6375  1.0457 -0.3028
  785MOL0     C 8218   9.996  11.654   7.344 -0.6124 -0.5139  0.2139
  785MOL0     C 8219   9.868  11.656   7.400  0.7111  0.0433  1.0408
  785MOL0     C 8220   9.747  11.700   7.320  1.0627 -0.2312 -0.1832
  785MOL0     C 8221   9.857  11.598   7.534 -0.0900 -0.3761 -0.6443
  785MOL0     C 8222   9.730  11.611   7.620 -0.2649 -0.2831 -0.0206
  785MOL0     O 8223   9.730  11.552   7.747  0.2897 -0.6941 -0.3461
  785MOL0     C 8224   9.610  11.515   7.807 -0.1785  0.5704  0.0770
  785MOL0     C 8225   9.586  11.377   7.835  0.1421 -0.1493  1.0562
  785MOL0     C 8226   9.477  11.331   7.910 -0.6160  0.2072 -1.0327
  785MOL0     C 8227   9.379  11.423   7.953  0.5944  0.7285 -0.0169
  785MOL0     O 8228   9.256  11.376   8.005  0.1685 -0.1153  0.1833
  785MOL0     C 8229   9.210  11.261   7.952 -0.2257  0.1123  0.0152
  785MOL0     C 8230   9.060  11.274   7.953 -0.1624  0.8956 -0.1346
  785MOL0     C 8231   8.993  11.156   7.892 -0.5793  0.5140 -0.4256
  785MOL0     C 8232   8.843  11.164   7.885  1.3414 -0.6497  0.9640
  785MOL0     C 8233   8.800  11.066   7.770 -0.6809  0.0692 -0.4113
  785MOL0     C 8234   8.648  11.023   7.773  0.5946  0.1854 -0.1482
  785MOL0     C 8235   8.557  11.118   7.699 -0.9012 -0.0454 -0.0166
  785MOL0     C 8236   8.537  11.265   7.748  0.7056 -0.2848  0.2254
  785MOL0    Cl 8237   8.527  11.265   7.925 -0.5454  0.6053 -0.0132
  785MOL0     C 8238   9.389  11.557   7.919 -0.5244  0.6384  1.2391
  785MOL0     C 8239   9.504  11.600   7.842  0.3482 -0.0016 -0.6571
  785MOL0     O 8240   9.635  11.671   7.567  0.3623  0.1177  0.3906
  785MOL0     C 8241   9.968  11.525   7.592  0.8035  0.1167  1.3131
  785MOL0     C 8242  10.093  11.523   7.520 -0.3371 -0.2324 -0.4449
  785MOL0     N 8243  10.448  11.451   6.944  0.1527  0.1466  0.2828
  785MOL0     N 8244  10.503  11.366   6.875 -0.0087  0.1863  0.5229
  785MOL0     C 8245  10.548  10.506   6.187 -0.1507  0.2769  0.4909
  785MOL0     C 8246  10.459  10.400   6.202 -0.2334  0.1179 -0.4439
  785MOL0     C 8247  10.054  10.168   6.243 -0.4826 -0.3526 -0.4100
  785MOL0     C 8248  10.049  10.093   6.121  0.1570 -0.2799 -0.2895
  785MOL0     C 8249   9.975   9.979   6.099 -0.1950  0.0804  0.0520
  785MOL0     C 8250   9.907   9.922   6.201  0.0777  0.1408 -0.2223
  785MOL0     O 8251   9.843   9.797   6.184  0.2693 -0.3012 -0.3087
  785MOL0     C 8252   9.930   9.692   6.207 -0.1855  0.1396  1.0277
  785MOL0     C 8253   9.913   9.592   6.093 -0.0259 -0.1701 -0.2620
  785MOL0     C 8254  10.013   9.460   6.091  0.2343  0.9009 -1.1048
  785MOL0     C 8255   9.952   9.344   5.999 -0.3450 -0.4878  0.7790
  785MOL0     C 8256  10.053   9.236   5.997  0.2414 -0.4009 -0.4982
  785MOL0     C 8257  10.135   9.147   6.000 -0.3649 -0.1334 -0.0880
  785MOL0     C 8258   9.904   9.992   6.321 -0.1520  0.6032  0.2192
  785MOL0     C 8259   9.968  10.120   6.347  0.1489  0.0179 -0.6359
  785MOL0     C 8260   9.928  10.182   6.480  0.0847 -1.0344  0.0051
  785MOL0     H 8261  10.206  10.503   6.007 -0.3283 -2.6673  0.1946
  785MOL0     H 8262  10.378  10.696   5.972 -0.1980 -0.4468 -0.7241
  785MOL0     H 8263  10.473  10.885   6.099 -1.2591 -0.1110 -1.6116
  785MOL0     H 8264  10.572  10.848   5.952  0.0780  0.5113  0.2129
  785MOL0     H 8265  10.784  10.922   6.076  0.1679  0.4908  1.8571
  785MOL0     H 8266  10.664  11.042   6.021 -2.7713 -0.4218 -0.4196
  785MOL0     H 8267  10.571  11.008   6.269  0.6407 -3.0095  0.6980
  785MOL0     H 8268  10.748  10.961   6.296  3.8139  1.9285 -3.0387
  785MOL0     H 8269  10.818  11.162   6.164  0.8383 -2.0487  0.5280
  785MOL0     H 8270  10.654  11.220   6.150  1.2743  1.4653  0.7999
  785MOL0     H 8271  10.773  11.330   6.347  1.2430 -0.6547 -0.5076
  785MOL0     H 8272  10.825  11.186   6.410 -1.2208 -0.7624  0.6166
  785MOL0     H 8273  10.528  11.232   6.365 -0.0746 -0.8250  0.9103
  785MOL0     H 8274  10.600  11.116   6.470 -1.3646  0.4218 -0.9951
  785MOL0     H 8275  10.589  11.414   6.519 -0.2747  0.4447 -1.2763
  785MOL0     H 8276  10.686  11.301   6.616 -0.8795 -1.3652  0.1374
  785MOL0     H 8277  10.388  11.282   6.576 -1.9562  1.2204  3.1639
  785MOL0     H 8278  10.493  11.173   6.670 -0.2826 -0.4670 -0.1752
  785MOL0     H 8279  10.310  11.519   6.662 -1.6836  0.2963  1.2197
  785MOL0     H 8280  10.236  11.683   6.804  0.3267 -0.2969  0.6033
  785MOL0     H 8281  10.313  11.724   6.955  0.4511  0.6556 -1.1818
  785MOL0     H 8282  10.065  11.674   6.996 -0.4955 -0.9114 -0.0196
  785MOL0     H 8283  10.086  11.518   6.922  0.1320 -1.0872  1.4772
  785MOL0     H 8284  10.086  11.489   7.153  0.8716 -0.4184  1.6829
  785MOL0     H 8285  10.249  11.445   7.103  1.5014  0.4633  0.4573
  785MOL0     H 8286  10.352  11.640   7.190 -0.5063  1.5201 -4.8538
  785MOL0     H 8287  10.200  11.716   7.191 -0.1823 -1.1169 -0.8673
  785MOL0     H 8288  10.004  11.692   7.242 -0.1271  0.6821  0.6810
  785MOL0     H 8289   9.682  11.614   7.301 -1.2597  1.5864 -0.8304
  785MOL0     H 8290   9.781  11.740   7.223  2.3932 -0.2189  0.2646
  785MOL0     H 8291   9.699  11.781   7.375  2.5766  0.4465  0.2014
  785MOL0     H 8292   9.671  11.315   7.811 -1.0656 -1.0658 -1.1106
  785MOL0     H 8293   9.479  11.228   7.944  0.8974  0.6737  0.4329
  785MOL0     H 8294   9.245  11.250   7.849  1.4025 -0.3358  0.5935
  785MOL0     H 8295   9.239  11.172   8.007 -3.7983 -1.4443 -0.3683
  785MOL0     H 8296   9.027  11.285   8.057 -2.6836  1.0317 -0.8831
  785MOL0     H 8297   9.027  11.366   7.905 -3.4604  0.2546  0.6527
  785MOL0     H 8298   9.020  11.061   7.940 -0.0537  2.2103  2.9510
  785MOL0     H 8299   9.038  11.153   7.792  0.3920  1.3906 -0.0303
  785MOL0     H 8300   8.809  11.266   7.864  3.1733 -0.4309 -1.3521
  785MOL0     H 8301   8.804  11.141   7.985 -0.2278  0.5715  0.6916
  785MOL0     H 8302   8.812  11.115   7.673  1.4018 -1.1564 -0.8347
  785MOL0     H 8303   8.857  10.973   7.775  1.5876  1.4492  1.8680
  785MOL0     H 8304   8.598  11.014   7.870 -1.5961  3.2292 -0.8547
  785MOL0     H 8305   8.633  10.925   7.728  0.4526 -0.8781  2.0855
  785MOL0     H 8306   8.457  11.073   7.705  0.2334 -2.9981 -1.4270
  785MOL0     H 8307   8.582  11.122   7.593  2.5034  1.5095  0.6964
  785MOL0     H 8308   8.448  11.315   7.708  1.2703  0.1469 -0.5011
  785MOL0     H 8309   8.628  11.319   7.722 -0.2926  1.8392  0.8603
  785MOL0     H 8310   9.316  11.635   7.937 -2.1663 -0.6801  0.5819
  785MOL0     H 8311   9.507  11.703   7.806 -1.9142  0.7152  1.0419
  785MOL0     H 8312   9.941  11.483   7.689 -2.3556  1.2816  1.0422
  785MOL0     H 8313  10.177  11.474   7.567  1.3640  0.2109 -2.8623
  785MOL0     H 8314  10.642  10.484   6.238 -0.3830 -1.0217  0.3947
  785MOL0     H 8315  10.478  10.320   6.272  0.1412  0.8590  0.3103
  785MOL0     H 8316  10.109  10.122   6.035  0.5093 -0.9334 -0.2709
  785MOL0     H 8317   9.977   9.922   6.007 -2.3617 -1.1232  0.6931
  785MOL0     H 8318  10.033   9.727   6.202 -0.3323  0.4101 -2.1772
  785MOL0     H 8319   9.917   9.646   6.305 -1.9270  1.1126  1.2954
  785MOL0     H 8320   9.937   9.645   6.000 -0.8528  0.4671 -0.1271
  785MOL0     H 8321   9.806   9.575   6.081  0.3586 -1.3020 -2.5229
  785MOL0     H 8322  10.114   9.477   6.054  1.5282 -1.4517  0.9601
  785MOL0     H 8323  10.019   9.422   6.194  0.5742  2.4748 -0.5120
  785MOL0     H 8324   9.922   9.381   5.900 -2.8819 -2.3025  0.7675
  785MOL0     H 8325   9.864   9.306   6.052 -0.8666  1.2160  1.1889
  785MOL0     H 8326  10.218   9.081   6.018  0.4334  0.6878 -0.6634
  785MOL0     H 8327   9.840   9.957   6.401 -0.0561  0.8621  0.4133
  785MOL0     H 8328  10.007  10.194   6.554 -1.4698  0.6597  1.4986
  785MOL0     H 8329   9.876  10.278   6.469  0.7827 -0.5047  1.0819
  785MOL0     H 8330   9.854  10.115   6.525  1.0040 -1.9408  0.1927
  786MOL0     O 8331   8.340   9.250   4.077 -0.8445 -0.2096 -0.0484
  786MOL0     C 8332   8.296   9.356   4.037  0.0562 -0.0053 -0.8750
  786MOL0     O 8333   8.321   9.485   4.089 -0.4840 -0.3583  0.4210
  786MOL0     C 8334   8.436   9.518   4.156 -0.4574  0.3430  0.1650
  786MOL0     C 8335   8.534   9.426   4.191 -0.6563 -0.4668  0.3787
  786MOL0     C 8336   8.653   9.475   4.249  0.5402 -0.8165 -0.5993
  786MOL0     C 8337   8.674   9.610   4.283  0.2667 -0.1674 -0.3633
  786MOL0     O 8338   8.788   9.670   4.341  0.2999 -0.5670  0.5754
  786MOL0     C 8339   8.909   9.592   4.343 -0.1108  0.1633  1.0862
  786MOL0     C 8340   9.027   9.680   4.368 -0.8772  0.5579 -0.1347
  786MOL0     C 8341   9.066   9.783   4.262  0.1874 -0.8785 -0.1462
  786MOL0     C 8342   9.193   9.858   4.296 -0.6008  0.0220  0.3599
  786MOL0     C 8343   9.315   9.762   4.281  0.3967 -0.0080  0.4812
  786MOL0     C 8344   9.452   9.837   4.299  0.5489  0.3870 -0.1211
  786MOL0     C 8345   9.576   9.749   4.267 -0.0673  0.0256 -0.1090
  786MOL0     C 8346   9.704   9.820   4.317 -0.0413  0.2193  0.8225
  786MOL0     N 8347   9.828   9.746   4.289  0.1184  0.4339 -0.1662
  786MOL0     C 8348   9.874   9.712   4.166 -0.5897  0.7353  0.7508
  786MOL0     C 8349  10.000   9.671   4.180  0.4979 -0.9344  0.2045
  786MOL0     C 8350  10.081   9.613   4.065  0.1551  0.1712  0.1487
  786MOL0     C 8351  10.195   9.711   4.028 -0.5930  0.8737  0.4565
  786MOL0     C 8352  10.300   9.715   4.133  0.0771 -0.0991  1.3150
  786MOL0     C 8353  10.398   9.827   4.106  0.3208  0.2423  0.7476
  786MOL0     O 8354  10.501   9.822   4.201  0.0173 -0.4560 -0.7658
  786MOL0     C 8355  10.623   9.794   4.151 -0.1474  0.2181  0.2217
  786MOL0     C 8356  10.722   9.884   4.188 -0.3389  0.8650 -0.4041
  786MOL0     C 8357  10.851   9.858   4.144 -0.3746  0.2034 -0.1730
  786MOL0     C 8358  10.949   9.957   4.206 -0.8594  0.0238  0.6955
  786MOL0     C 8359  10.900   9.749   4.072 -0.0890 -0.3383  0.1637
  786MOL0     C 8360  11.040   9.728   4.017 -0.0656  0.0146 -0.0504
  786MOL0     O 8361  11.057   9.625   3.917  0.7548 -0.1229  0.1870
  786MOL0     C 8362  11.184   9.598   3.858 -0.6838  0.0387  0.1876
  786MOL0     C 8363  11.311   9.635   3.919 -0.6711 -0.0034 -0.0335
  786MOL0     C 8364  11.430   9.607   3.851 -0.2791  0.1063  0.4730
  786MOL0     C 8365  11.434   9.539   3.727  0.1397 -0.1051 -0.6001
  786MOL0     O 8366  11.547   9.520   3.658  0.0009  0.7102  0.5574
  786MOL0     C 8367  11.635   9.630   3.668 -0.0963  0.2884 -0.1532
  786MOL0     C 8368  11.736   9.618   3.563 -0.6193  0.0379  0.0259
  786MOL0     C 8369  11.826   9.494   3.586 -0.2489  0.3388 -0.2065
  786MOL0     C 8370  11.922   9.470   3.460 -0.2613 -0.1231  0.3607
  786MOL0     C 8371  12.057   9.407   3.501 -0.1772 -0.6347 -0.1655
  786MOL0     C 8372  12.045   9.272   3.569  0.4362  0.9508 -0.1629
  786MOL0     C 8373  12.183   9.204   3.576 -0.9927  0.0297  0.5934
  786MOL0     C 8374  12.176   9.058   3.624  0.8732  0.2732 -0.5362
  786MOL0    Cl 8375  12.085   8.937   3.517  0.0669  0.2317  0.3526
  786MOL0     C 8376  11.309   9.500   3.668 -0.4422  0.0410 -0.0681
  786MOL0     C 8377  11.181   9.529   3.732  0.1150  0.1072 -0.5225
  786MOL0     O 8378  11.123   9.806   4.041 -0.1526 -0.9161  0.1243
  786MOL0     C 8379  10.793   9.667   4.028 -0.3111 -0.5524  0.6356
  786MOL0     C 8380  10.659   9.692   4.072 -0.1667 -0.4975  0.7397
  786MOL0     N 8381  10.029   9.687   4.313  0.0347  0.7067  0.3964
  786MOL0     N 8382   9.926   9.724   4.375 -0.2469 -0.3239  0.1344
  786MOL0     C 8383   8.581   9.701   4.240  1.4673  0.8995 -0.0674
  786MOL0     C 8384   8.457   9.653   4.190 -0.1420 -0.5887 -0.4447
  786MOL0     C 8385   8.186   9.332   3.943 -0.3645 -0.4395 -0.6007
  786MOL0     C 8386   8.068   9.404   3.970 -0.3942  0.2529  0.1111
  786MOL0     C 8387   7.957   9.384   3.890  0.8494  0.6214 -0.1664
  786MOL0     C 8388   7.945   9.272   3.805  0.2700 -0.3885  0.4960
  786MOL0     O 8389   7.823   9.250   3.742 -0.5218  0.2454  0.9787
  786MOL0     C 8390   7.810   9.104   3.717  0.2761 -0.5412  0.1139
  786MOL0     C 8391   7.668   9.079   3.673  0.5711  0.2490  1.0878
  786MOL0     C 8392   7.557   9.133   3.763 -0.0461 -0.1166  0.0059
  786MOL0     C 8393   7.418   9.086   3.733 -0.2265 -0.4520  0.1610
  786MOL0     C 8394   7.395   8.939   3.732  0.3152 -0.6738  0.1887
  786MOL0     C 8395   7.373   8.818   3.734 -0.0774 -0.1982  0.0558
  786MOL0     C 8396   8.063   9.203   3.784  0.0551 -0.2924  0.0574
  786MOL0     C 8397   8.183   9.232   3.850 -0.5359  0.4871 -0.7602
  786MOL0     C 8398   8.308   9.159   3.803  0.6701 -0.8374 -0.3750
  786MOL0     H 8399   8.539   9.319   4.178 -3.4306 -0.8570  1.7470
  786MOL0     H 8400   8.742   9.416   4.270  0.9443  0.5047  1.6788
  786MOL0     H 8401   8.921   9.524   4.257  2.4253  0.3680  1.2129
  786MOL0     H 8402   8.905   9.527   4.431  0.4289  0.0194  1.0037
  786MOL0     H 8403   9.006   9.726   4.465  1.7585 -0.1843  0.8924
  786MOL0     H 8404   9.107   9.613   4.401 -1.5953 -0.0652  0.3642
  786MOL0     H 8405   9.077   9.722   4.172  0.0524 -1.9445  0.5314
  786MOL0     H 8406   8.982   9.853   4.259  1.0777  0.1555 -2.0830
  786MOL0     H 8407   9.198   9.933   4.216  3.6771  0.4355  0.7664
  786MOL0     H 8408   9.193   9.900   4.397 -1.0188 -0.2805  0.4860
  786MOL0     H 8409   9.312   9.728   4.177 -0.0977  1.8239 -0.1565
  786MOL0     H 8410   9.310   9.674   4.346  2.1418 -1.9032 -1.7801
  786MOL0     H 8411   9.453   9.924   4.232 -2.8787 -1.2302 -2.5689
  786MOL0     H 8412   9.459   9.865   4.405  1.2272 -4.1865  1.2398
  786MOL0     H 8413   9.591   9.724   4.162  1.9807 -0.0714  0.1610
  786MOL0     H 8414   9.570   9.647   4.305  3.8347 -0.2384  0.1874
  786MOL0     H 8415   9.709   9.917   4.267 -1.6795 -0.3176 -0.4867
  786MOL0     H 8416   9.717   9.847   4.422  1.3524 -1.3249  1.0861
  786MOL0     H 8417   9.814   9.720   4.076 -0.8908 -0.1121  0.8713
  786MOL0     H 8418  10.027   9.599   3.971  0.7924  2.6757 -0.6745
  786MOL0     H 8419  10.130   9.523   4.102  0.7808  0.1749 -0.6500
  786MOL0     H 8420  10.237   9.667   3.937  0.4743 -0.3814  1.5325
  786MOL0     H 8421  10.161   9.813   4.007 -3.6888  0.6706  3.4994
  786MOL0     H 8422  10.258   9.731   4.233 -1.7495  0.6172  0.4765
  786MOL0     H 8423  10.354   9.619   4.131  0.4886  0.1272 -1.1938
  786MOL0     H 8424  10.437   9.835   4.005  0.3112 -0.6444  0.6633
  786MOL0     H 8425  10.346   9.922   4.121  0.1286  0.2232  0.2002
  786MOL0     H 8426  10.682   9.966   4.248 -1.0663  2.1551 -2.5452
  786MOL0     H 8427  11.017   9.890   4.260 -1.0298  0.1964  1.1368
  786MOL0     H 8428  10.913  10.026   4.283 -0.0198  1.1447  0.1050
  786MOL0     H 8429  10.989  10.016   4.124 -2.6704  0.7102  0.2615
  786MOL0     H 8430  11.316   9.677   4.019 -0.6641 -2.8207  1.2582
  786MOL0     H 8431  11.525   9.621   3.901  2.0955 -2.2329 -3.0114
  786MOL0     H 8432  11.586   9.727   3.667  1.3322  1.0619  1.0286
  786MOL0     H 8433  11.677   9.614   3.767 -0.2279 -0.1279 -0.1613
  786MOL0     H 8434  11.674   9.611   3.473 -3.7941  3.4684  1.6673
  786MOL0     H 8435  11.798   9.708   3.560 -0.5150 -0.0570 -0.9467
  786MOL0     H 8436  11.768   9.401   3.583  0.8444 -0.3368 -0.5965
  786MOL0     H 8437  11.879   9.513   3.679 -1.0388  1.1283  0.1031
  786MOL0     H 8438  11.941   9.572   3.423  1.5251  0.1412  1.8544
  786MOL0     H 8439  11.882   9.413   3.376  0.7989 -1.6611  0.8750
  786MOL0     H 8440  12.112   9.387   3.408  3.6401 -0.6336  1.8795
  786MOL0     H 8441  12.120   9.474   3.560  1.2678 -2.3156  0.2762
  786MOL0     H 8442  11.978   9.208   3.510 -0.2843  0.0861  1.5212
  786MOL0     H 8443  11.997   9.273   3.667 -3.3787  1.5366 -1.8599
  786MOL0     H 8444  12.244   9.278   3.629  1.3127  2.2710 -4.5072
  786MOL0     H 8445  12.234   9.197   3.480  0.6558 -0.6155  1.4887
  786MOL0     H 8446  12.131   9.061   3.724 -1.2320  4.1977 -1.3888
  786MOL0     H 8447  12.277   9.017   3.636 -0.7996 -4.9306 -1.7651
  786MOL0     H 8448  11.315   9.443   3.576  1.5722  1.3062 -0.7884
  786MOL0     H 8449  11.088   9.495   3.687  0.2647 -1.7362  0.4817
  786MOL0     H 8450  10.811   9.583   3.962 -1.5767 -1.5706  1.5314
  786MOL0     H 8451  10.584   9.624   4.032 -1.5378  0.9868  0.6637
  786MOL0     H 8452   8.591   9.806   4.267 -1.5966  1.4421 -0.6639
  786MOL0     H 8453   8.386   9.735   4.176  0.8980  0.6744  1.2727
  786MOL0     H 8454   8.053   9.469   4.056 -1.8642  0.1877 -0.0694
  786MOL0     H 8455   7.868   9.445   3.886 -0.4907 -1.2177 -0.0394
  786MOL0     H 8456   7.883   9.067   3.644  0.5792 -2.7354  1.4668
  786MOL0     H 8457   7.828   9.054   3.812  1.5652  1.8239  1.2217
  786MOL0     H 8458   7.647   8.972   3.670 -0.2754  0.3471  2.5184
  786MOL0     H 8459   7.653   9.117   3.571  4.5996  1.0142  0.6030
  786MOL0     H 8460   7.577   9.096   3.864  1.5058 -3.2099 -1.3093
  786MOL0     H 8461   7.565   9.242   3.771  3.1824 -0.1860 -0.6577
  786MOL0     H 8462   7.393   9.138   3.640  5.3773  2.0668 -0.2986
  786MOL0     H 8463   7.348   9.135   3.802  0.2176  1.1932 -0.5122
  786MOL0     H 8464   7.357   8.714   3.752 -3.1545 -0.1501 -1.7534
  786MOL0     H 8465   8.069   9.126   3.707  1.2479 -1.7341  1.5046
  786MOL0     H 8466   8.306   9.181   3.696  0.1406  0.9099 -0.0458
  786MOL0     H 8467   8.397   9.212   3.838  0.2752 -1.7929  2.3080
  786MOL0     H 8468   8.308   9.052   3.825 -2.1399 -0.5846  1.4174
  787MOL0     O 8469  10.832   1.870   2.265 -0.5235  0.5156  0.3583
  787MOL0     C 8470  10.848   1.856   2.140  0.4152 -0.2458 -0.1078
  787MOL0     O 8471  10.960   1.879   2.069 -0.1727  0.5659  0.0780
  787MOL0     C 8472  11.077   1.863   2.134 -0.4454 -0.3815 -0.4909
  787MOL0     C 8473  11.138   1.972   2.199  0.1117 -0.2041  0.8204
  787MOL0     C 8474  11.254   1.937   2.272  0.7412  0.5828  0.6135
  787MOL0     C 8475  11.316   1.816   2.270  0.2517  0.2980 -0.1144
  787MOL0     O 8476  11.431   1.783   2.337  0.1705  0.0001 -0.5212
  787MOL0     C 8477  11.512   1.893   2.391  0.4537 -0.1970  0.5967
  787MOL0     C 8478  11.637   1.844   2.452 -0.2667  0.0022  0.3052
  787MOL0     C 8479  11.702   1.953   2.537  0.0277  0.3276  0.8659
  787MOL0     C 8480  11.770   2.052   2.440 -0.3245 -0.2386 -0.0914
  787MOL0     C 8481  11.826   2.181   2.500 -0.2832 -0.3261  0.1848
  787MOL0     C 8482  11.921   2.149   2.611  0.5297 -0.0439 -0.0573
  787MOL0     C 8483  11.992   2.270   2.666  0.3077  0.5089 -0.4328
  787MOL0     C 8484  12.102   2.223   2.764 -0.0712 -0.5806  0.5931
  787MOL0     N 8485  12.159   2.331   2.830 -1.2593 -0.4492 -0.0446
  787MOL0     C 8486  12.113   2.400   2.940 -0.3560  0.4788  0.0934
  787MOL0     C 8487  12.203   2.500   2.952 -0.1989 -0.3647 -0.1661
  787MOL0     C 8488  12.196   2.610   3.052  0.0768  1.0615  0.2145
  787MOL0     C 8489  12.151   2.745   3.002  1.1652  0.3109 -0.0417
  787MOL0     C 8490  12.085   2.816   3.128 -0.7597  0.0985  0.3885
  787MOL0     C 8491  12.043   2.953   3.075  0.2641  0.0793  0.2165
  787MOL0     O 8492  12.151   3.018   3.011 -0.2346  0.6237  1.1032
  787MOL0     C 8493  12.224   3.104   3.095 -0.2264  0.7097 -0.2215
  787MOL0     C 8494  12.211   3.112   3.238 -0.0511 -0.6132 -0.0911
  787MOL0     C 8495  12.301   3.200   3.302  0.1287 -0.1676 -0.2007
  787MOL0     C 8496  12.300   3.200   3.458 -0.4135  0.9466  0.8141
  787MOL0     C 8497  12.390   3.275   3.233 -0.2474  0.1808 -0.9397
  787MOL0     C 8498  12.478   3.367   3.305  0.6051  0.3738  0.1863
  787MOL0     O 8499  12.416   3.489   3.344 -0.4623  0.6721 -0.1052
  787MOL0     C 8500  12.492   3.579   3.422 -0.4941  0.3014 -0.1428
  787MOL0     C 8501  12.461   3.713   3.408  0.7523  0.2522 -0.0648
  787MOL0     C 8502  12.531   3.811   3.480 -0.0192  0.0674  0.1222
  787MOL0     C 8503  12.611   3.772   3.593  0.7799 -0.1403 -0.9476
  787MOL0     O 8504  12.662   3.854   3.688  0.9686  0.2014 -0.0706
  787MOL0     C 8505  12.664   3.993   3.663  0.2573 -0.5824 -0.4176
  787MOL0     C 8506  12.780   4.025   3.564  0.7134  0.3592  0.0312
  787MOL0     C 8507  12.922   3.994   3.600 -0.4787  0.7096 -0.6122
  787MOL0     C 8508  12.987   4.088   3.708  0.2715  0.2040  0.3259
  787MOL0     C 8509  13.141   4.096   3.705  0.6954  0.6037  0.6786
  787MOL0     C 8510  13.201   4.198   3.812  0.4886  0.2425  0.6961
  787MOL0     C 8511  13.354   4.205   3.792 -0.0166 -0.2308  0.1497
  787MOL0     C 8512  13.409   4.255   3.925  0.1711 -0.2822  0.1774
  787MOL0    Cl 8513  13.343   4.417   3.994 -0.8101 -0.2481 -0.7235
  787MOL0     C 8514  12.641   3.639   3.613 -0.2237  0.1912  0.5581
  787MOL0     C 8515  12.584   3.540   3.528  0.5719  0.3909 -0.5739
  787MOL0     O 8516  12.597   3.344   3.308 -0.1255  0.0991 -0.4630
  787MOL0     C 8517  12.410   3.265   3.094 -0.1070  0.3382  0.0055
  787MOL0     C 8518  12.327   3.175   3.024 -0.1920 -0.0458 -0.9662
  787MOL0     N 8519  12.306   2.483   2.863  0.6806  0.2696  0.0616
  787MOL0     N 8520  12.269   2.397   2.787 -0.1897  0.0186 -0.0911
  787MOL0     C 8521  11.256   1.707   2.200  0.3251 -0.5455 -0.7825
  787MOL0     C 8522  11.134   1.733   2.139 -1.1989  0.9143 -0.2910
  787MOL0     C 8523  10.728   1.823   2.051  0.5900 -0.2330 -0.6644
  787MOL0     C 8524  10.745   1.750   1.938 -0.9594 -0.3730 -0.2548
  787MOL0     C 8525  10.642   1.742   1.848 -0.0758  0.8386  0.3418
  787MOL0     C 8526  10.517   1.789   1.876 -0.1370 -1.0340 -0.9838
  787MOL0     O 8527  10.419   1.796   1.785 -0.8341  0.1620 -0.1064
  787MOL0     C 8528  10.405   1.701   1.672 -0.0804  0.3507 -0.7412
  787MOL0     C 8529  10.291   1.610   1.731  0.9238 -0.1068  0.6748
  787MOL0     C 8530  10.236   1.512   1.616 -0.3497 -0.0763 -0.2022
  787MOL0     C 8531  10.332   1.403   1.569 -0.1527  0.1515  0.1232
  787MOL0     C 8532  10.423   1.459   1.468  0.6155 -0.3715 -0.9176
  787MOL0     C 8533  10.499   1.513   1.394 -0.3425 -0.0461  0.3289
  787MOL0     C 8534  10.491   1.855   2.001 -0.3773 -0.5454  0.4286
  787MOL0     C 8535  10.600   1.871   2.086 -0.2854  0.0789 -0.8977
  787MOL0     C 8536  10.573   1.953   2.206 -0.0493 -0.0275 -0.3008
  787MOL0     H 8537  11.108   2.074   2.217 -1.1266 -0.5464  0.7759
  787MOL0     H 8538  11.296   2.028   2.315 -0.2075  1.1300  0.4318
  787MOL0     H 8539  11.459   1.949   2.469  1.7250  1.3568  0.3973
  787MOL0     H 8540  11.535   1.957   2.306  0.9146  1.3679  1.8530
  787MOL0     H 8541  11.615   1.750   2.504  0.3433 -1.2999 -1.6429
  787MOL0     H 8542  11.706   1.816   2.371 -0.9129  0.3199 -0.3724
  787MOL0     H 8543  11.632   2.007   2.602  1.2665 -0.0292  2.5643
  787MOL0     H 8544  11.780   1.903   2.594 -1.1899 -0.0933  2.2060
  787MOL0     H 8545  11.856   2.001   2.396  1.3150  2.0548  0.3150
  787MOL0     H 8546  11.700   2.075   2.359 -0.9153  0.4105  0.5907
  787MOL0     H 8547  11.744   2.239   2.543 -2.3082 -3.4794  0.8641
  787MOL0     H 8548  11.891   2.226   2.424 -1.0799 -2.3732 -1.8222
  787MOL0     H 8549  11.867   2.102   2.694  2.7283 -1.8156  0.4697
  787MOL0     H 8550  11.990   2.072   2.576 -0.2484 -1.0474  0.5550
  787MOL0     H 8551  11.916   2.330   2.717  0.6412  0.3606  0.2422
  787MOL0     H 8552  12.043   2.331   2.590  1.5256  0.2586  0.1581
  787MOL0     H 8553  12.052   2.154   2.832 -1.6371 -0.5750 -0.4843
  787MOL0     H 8554  12.177   2.181   2.696  0.1334  1.2401 -0.3720
  787MOL0     H 8555  12.025   2.379   3.001  1.5439 -1.8847  2.2199
  787MOL0     H 8556  12.297   2.616   3.095  0.7914  3.1645 -1.5697
  787MOL0     H 8557  12.131   2.573   3.132 -1.1297  0.0454 -1.1776
  787MOL0     H 8558  12.240   2.800   2.970  0.7913  1.4346  0.8161
  787MOL0     H 8559  12.075   2.736   2.923  1.9174 -2.5639 -0.5594
  787MOL0     H 8560  11.995   2.769   3.168 -2.0439  0.3727 -1.9822
  787MOL0     H 8561  12.148   2.821   3.217  0.8654 -2.0030 -0.5612
  787MOL0     H 8562  11.968   2.933   2.997  1.3722 -0.9343 -0.6110
  787MOL0     H 8563  11.993   3.014   3.151  0.0555  2.2936 -1.5923
  787MOL0     H 8564  12.143   3.051   3.297 -1.1738  0.3321 -0.3719
  787MOL0     H 8565  12.326   3.098   3.490  1.4200  0.8279 -0.8463
  787MOL0     H 8566  12.199   3.202   3.500 -0.7721 -4.2565  0.8413
  787MOL0     H 8567  12.356   3.286   3.494  0.7646  0.1012  1.0691
  787MOL0     H 8568  12.400   3.742   3.323 -0.5392  3.2422  1.7233
  787MOL0     H 8569  12.511   3.915   3.456 -0.0110  0.0338 -0.0316
  787MOL0     H 8570  12.565   4.030   3.635  0.8233  3.0449  1.7153
  787MOL0     H 8571  12.695   4.045   3.754  0.9825  0.9513 -1.5019
  787MOL0     H 8572  12.757   3.965   3.475  0.1579  0.4722  0.0954
  787MOL0     H 8573  12.772   4.130   3.531  2.1301  0.7979  0.9835
  787MOL0     H 8574  12.970   4.011   3.503  1.2875 -3.0539 -0.5827
  787MOL0     H 8575  12.941   3.891   3.632  0.3885  1.7746  2.6460
  787MOL0     H 8576  12.949   4.056   3.805 -1.8316  0.3196 -0.4024
  787MOL0     H 8577  12.956   4.190   3.681  0.5838  0.6956  1.7469
  787MOL0     H 8578  13.175   3.993   3.718 -2.5440 -0.7738 -0.6677
  787MOL0     H 8579  13.171   4.138   3.608 -3.3373  0.8395 -0.6488
  787MOL0     H 8580  13.177   4.156   3.911  0.7191  0.0741  0.6824
  787MOL0     H 8581  13.160   4.298   3.794  2.5656  0.8422 -1.1043
  787MOL0     H 8582  13.379   4.272   3.708 -1.4535  3.5265  2.4811
  787MOL0     H 8583  13.398   4.105   3.777  1.4269  0.4649 -0.4782
  787MOL0     H 8584  13.515   4.276   3.907  0.0134  0.1592 -0.2688
  787MOL0     H 8585  13.401   4.187   4.010 -1.2397  2.4719  2.4226
  787MOL0     H 8586  12.692   3.615   3.706 -2.5789  0.3184  1.9651
  787MOL0     H 8587  12.591   3.438   3.563  0.8777  0.5434 -0.1832
  787MOL0     H 8588  12.491   3.325   3.055 -1.2111  1.0807 -1.2469
  787MOL0     H 8589  12.338   3.160   2.917 -1.9778 -0.4926 -1.1320
  787MOL0     H 8590  11.303   1.610   2.185  0.9104  0.0879 -3.7323
  787MOL0     H 8591  11.091   1.653   2.080 -1.0164 -0.2042  1.0390
  787MOL0     H 8592  10.845   1.724   1.906 -0.3924  1.4033 -0.0381
  787MOL0     H 8593  10.667   1.716   1.746 -1.2265 -1.2248  0.5142
  787MOL0     H 8594  10.380   1.748   1.577 -0.9646  2.3718  0.4117
  787MOL0     H 8595  10.494   1.638   1.664 -1.1366 -1.2526 -0.3315
  787MOL0     H 8596  10.218   1.674   1.782  3.1038 -0.0862  4.0554
  787MOL0     H 8597  10.329   1.548   1.812 -0.6933 -0.4367  1.2243
  787MOL0     H 8598  10.144   1.464   1.650 -0.4951 -0.6945 -1.4560
  787MOL0     H 8599  10.206   1.569   1.528 -0.8142 -0.2354 -0.1487
  787MOL0     H 8600  10.269   1.332   1.515 -0.0851 -0.4710  0.8388
  787MOL0     H 8601  10.390   1.356   1.649 -0.2326  2.2931  1.5179
  787MOL0     H 8602  10.562   1.568   1.328 -0.7456 -1.9326 -1.7634
  787MOL0     H 8603  10.395   1.900   2.024 -0.2530  1.1722 -2.0566
  787MOL0     H 8604  10.639   2.041   2.204 -0.8051  0.5482 -0.5776
  787MOL0     H 8605  10.473   1.997   2.206  0.0195  0.2146 -2.2585
  787MOL0     H 8606  10.594   1.901   2.299  0.7232  4.3968  2.2860
  788MOL0     O 8607   8.450   3.965   8.620  0.2922  0.4055  0.1482
  788MOL0     C 8608   8.552   3.961   8.553 -0.4494 -0.6725  0.4457
  788MOL0     O 8609   8.671   4.031   8.583  0.1551 -0.0948  0.0529
  788MOL0     C 8610   8.699   4.066   8.707 -0.0720 -0.2604 -0.7634
  788MOL0     C 8611   8.781   4.175   8.721  0.1201  0.2165 -0.7368
  788MOL0     C 8612   8.793   4.237   8.848  0.1045  0.1376 -0.2286
  788MOL0     C 8613   8.729   4.187   8.960  0.5666  0.2585 -0.0608
  788MOL0     O 8614   8.731   4.252   9.079  1.0028 -0.6646  0.2160
  788MOL0     C 8615   8.690   4.189   9.197  0.1375  0.2881 -0.0960
  788MOL0     C 8616   8.706   4.287   9.317 -0.1791  0.0555 -0.1400
  788MOL0     C 8617   8.854   4.331   9.343  0.5920  1.0484  0.0153
  788MOL0     C 8618   8.862   4.473   9.403 -0.1282  0.8136 -0.2755
  788MOL0     C 8619   9.003   4.531   9.403  0.1909  0.2457 -0.4628
  788MOL0     C 8620   9.098   4.457   9.500 -0.0506 -0.8363  0.0357
  788MOL0     C 8621   9.242   4.482   9.486  0.4590 -0.6901  0.3908
  788MOL0     C 8622   9.301   4.466   9.342  0.4631  0.1385 -0.7879
  788MOL0     N 8623   9.282   4.327   9.292 -0.6272  0.5401 -0.0060
  788MOL0     C 8624   9.201   4.304   9.184 -0.2786 -0.0904  0.6271
  788MOL0     C 8625   9.225   4.169   9.162 -1.2275 -1.0718  0.2244
  788MOL0     C 8626   9.159   4.110   9.043  0.1573  0.0382 -0.2116
  788MOL0     C 8627   9.227   3.983   8.996  0.3400  0.3397 -0.7897
  788MOL0     C 8628   9.367   4.000   8.928  0.2586 -0.5969  0.1890
  788MOL0     C 8629   9.427   3.874   8.866 -0.6658  0.0807 -0.6722
  788MOL0     O 8630   9.417   3.769   8.961  0.3796 -0.3961  0.3955
  788MOL0     C 8631   9.397   3.636   8.910 -0.2716  0.2198  0.4176
  788MOL0     C 8632   9.327   3.552   8.990  0.2340 -0.1656  0.0700
  788MOL0     C 8633   9.309   3.416   8.962 -0.7837 -0.8532  0.5383
  788MOL0     C 8634   9.229   3.332   9.060 -1.1486 -0.4272  0.1806
  788MOL0     C 8635   9.357   3.364   8.842 -0.2129 -0.2747  0.3171
  788MOL0     C 8636   9.338   3.212   8.806  0.0278 -0.8463 -0.6734
  788MOL0     O 8637   9.378   3.198   8.673  0.2794 -0.2223 -1.0710
  788MOL0     C 8638   9.361   3.080   8.613 -0.3478  0.1326 -0.5910
  788MOL0     C 8639   9.311   3.083   8.486 -0.5929  0.1393  0.7174
  788MOL0     C 8640   9.299   2.961   8.416 -0.4368  0.2066  0.2441
  788MOL0     C 8641   9.327   2.832   8.473  0.5006 -0.9854 -0.2592
  788MOL0     O 8642   9.327   2.716   8.409 -0.9801  0.2402  0.4180
  788MOL0     C 8643   9.278   2.718   8.274 -0.5463  1.0899  0.4775
  788MOL0     C 8644   9.282   2.577   8.222  0.3589 -0.0225  0.7193
  788MOL0     C 8645   9.177   2.483   8.274  0.5617 -0.5017 -0.3739
  788MOL0     C 8646   9.196   2.339   8.211  0.5020  0.1513  0.0380
  788MOL0     C 8647   9.074   2.244   8.237  0.5370 -0.4406  1.2230
  788MOL0     C 8648   9.090   2.110   8.171  0.0211 -0.1100  0.3180
  788MOL0     C 8649   9.195   2.038   8.249 -0.1614  0.9286  0.2256
  788MOL0     C 8650   9.202   1.888   8.196  0.3870  0.0449  0.1659
  788MOL0    Cl 8651   9.043   1.821   8.217 -0.2576 -0.4875 -0.2580
  788MOL0     C 8652   9.371   2.834   8.607 -0.5083  0.1804 -0.2086
  788MOL0     C 8653   9.402   2.955   8.668  0.2012 -0.4051  0.2124
  788MOL0     O 8654   9.290   3.133   8.881  0.4126 -0.2452  0.8014
  788MOL0     C 8655   9.441   3.447   8.763  0.6495  0.3679 -0.0989
  788MOL0     C 8656   9.466   3.579   8.800  0.0269 -0.9802 -0.5301
  788MOL0     N 8657   9.306   4.117   9.254 -0.0584  0.8932  0.6251
  788MOL0     N 8658   9.347   4.209   9.330  0.9741 -0.0627  0.2037
  788MOL0     C 8659   8.662   4.061   8.946 -0.5137  0.6134 -0.4293
  788MOL0     C 8660   8.656   3.995   8.821 -0.5969  0.1532  0.0643
  788MOL0     C 8661   8.535   3.905   8.409  0.0925 -0.2727 -0.5457
  788MOL0     C 8662   8.630   3.947   8.315  0.2819 -0.3804  0.3348
  788MOL0     C 8663   8.624   3.907   8.185 -0.0799 -0.7262  0.0949
  788MOL0     C 8664   8.519   3.828   8.134  0.3583 -0.5822  0.0130
  788MOL0     O 8665   8.514   3.767   8.012  0.3332  0.0361  0.1326
  788MOL0     C 8666   8.596   3.798   7.896  0.2304  0.2349  0.3310
  788MOL0     C 8667   8.528   3.901   7.803  0.4245  0.2465 -0.4260
  788MOL0     C 8668   8.408   3.839   7.731  1.3766  0.0608 -0.1919
  788MOL0     C 8669   8.357   3.921   7.619  0.4014 -0.8669 -0.4098
  788MOL0     C 8670   8.249   3.859   7.543 -0.0218 -1.0698  0.1693
  788MOL0     C 8671   8.149   3.833   7.486  0.2308  0.3374  0.0983
  788MOL0     C 8672   8.415   3.804   8.227  0.1851 -0.9416  0.6986
  788MOL0     C 8673   8.418   3.839   8.362 -0.0789 -0.7134 -0.1272
  788MOL0     C 8674   8.294   3.809   8.445 -0.6130  0.1698  0.1494
  788MOL0     H 8675   8.814   4.215   8.625 -0.7016  2.1716 -0.2498
  788MOL0     H 8676   8.865   4.318   8.862  1.6271 -1.2787  0.4453
  788MOL0     H 8677   8.750   4.100   9.220 -1.1408 -0.6758 -0.4005
  788MOL0     H 8678   8.584   4.164   9.191 -0.0239  1.0467 -0.4784
  788MOL0     H 8679   8.647   4.373   9.283 -0.0979  0.4047  0.5825
  788MOL0     H 8680   8.667   4.235   9.405  3.1395  1.3754  2.2963
  788MOL0     H 8681   8.893   4.262   9.419 -1.8455  2.3768  2.6661
  788MOL0     H 8682   8.908   4.345   9.248  0.5330 -0.1513 -0.2095
  788MOL0     H 8683   8.801   4.541   9.342  1.6461  2.4895 -0.2926
  788MOL0     H 8684   8.819   4.470   9.504 -0.5255  3.0914 -0.3160
  788MOL0     H 8685   8.990   4.635   9.433 -0.4570  0.0693 -0.1141
  788MOL0     H 8686   9.034   4.532   9.298 -1.8855  2.5023 -1.1555
  788MOL0     H 8687   9.070   4.471   9.604  3.0463 -1.5263  1.0581
  788MOL0     H 8688   9.088   4.350   9.479 -1.8927 -0.3908 -1.6596
  788MOL0     H 8689   9.291   4.405   9.546 -2.0538 -2.0652  0.7940
  788MOL0     H 8690   9.263   4.583   9.523 -3.1547 -0.2846  1.6807
  788MOL0     H 8691   9.262   4.537   9.269 -0.0704  1.2088  0.4892
  788MOL0     H 8692   9.410   4.480   9.343  0.7424 -1.2473 -3.5526
  788MOL0     H 8693   9.149   4.379   9.124  0.9624  0.0364 -0.3432
  788MOL0     H 8694   9.168   4.189   8.968 -0.2255  2.1773  1.8431
  788MOL0     H 8695   9.053   4.090   9.064  0.1262  1.0200  0.6554
  788MOL0     H 8696   9.249   3.913   9.076  0.3445  0.4979 -0.6533
  788MOL0     H 8697   9.162   3.935   8.921  1.1804 -1.6844 -0.2851
  788MOL0     H 8698   9.375   4.069   8.844  5.9503  0.1651  0.9757
  788MOL0     H 8699   9.437   4.049   8.995  2.1437  1.8387 -3.2589
  788MOL0     H 8700   9.385   3.835   8.773  1.0922 -2.7854 -0.3912
  788MOL0     H 8701   9.532   3.892   8.839 -0.6384 -0.5827 -1.0177
  788MOL0     H 8702   9.299   3.579   9.092  0.3917 -3.5876  1.1662
  788MOL0     H 8703   9.308   3.261   9.088 -1.0692  0.4106  2.3175
  788MOL0     H 8704   9.140   3.283   9.020 -1.1691  0.2075 -0.5699
  788MOL0     H 8705   9.193   3.390   9.146  1.1108  2.9525 -0.9497
  788MOL0     H 8706   9.277   3.171   8.433 -0.5769  1.8072  3.3029
  788MOL0     H 8707   9.273   2.984   8.313 -0.3715  3.7384  0.8872
  788MOL0     H 8708   9.174   2.751   8.271 -1.1740 -0.5856  1.9564
  788MOL0     H 8709   9.340   2.790   8.221 -1.7835  2.2337  0.5286
  788MOL0     H 8710   9.294   2.579   8.113  2.0575  1.1692  0.8868
  788MOL0     H 8711   9.381   2.541   8.251  0.9709  1.6284  0.7902
  788MOL0     H 8712   9.077   2.516   8.243  0.3780 -0.0446  0.6647
  788MOL0     H 8713   9.181   2.478   8.383  0.6233  1.4193 -0.2386
  788MOL0     H 8714   9.282   2.304   8.269  1.2717  3.4844  1.1219
  788MOL0     H 8715   9.216   2.351   8.104  0.8990 -0.2286  0.0660
  788MOL0     H 8716   9.037   2.239   8.340 -1.7814  1.8139  0.6002
  788MOL0     H 8717   8.990   2.281   8.178  1.1775 -1.6375 -0.5398
  788MOL0     H 8718   9.124   2.119   8.068  2.2336  0.8822  1.0698
  788MOL0     H 8719   8.994   2.058   8.170 -0.0438 -0.1318  2.6149
  788MOL0     H 8720   9.166   2.035   8.355 -1.7177  0.4899 -0.1912
  788MOL0     H 8721   9.293   2.088   8.253 -0.7461  2.0661  0.7327
  788MOL0     H 8722   9.271   1.818   8.243  1.3966 -0.1916 -1.6157
  788MOL0     H 8723   9.219   1.889   8.088 -0.6334  0.2482 -0.0020
  788MOL0     H 8724   9.402   2.741   8.651  5.0635  0.3473 -2.8570
  788MOL0     H 8725   9.444   2.963   8.768 -2.2690  0.5830  1.2495
  788MOL0     H 8726   9.487   3.412   8.672  4.3476 -2.5864  2.5781
  788MOL0     H 8727   9.530   3.645   8.743 -0.7875  0.1565 -0.1423
  788MOL0     H 8728   8.610   4.024   9.033  2.9898 -1.3035  1.0602
  788MOL0     H 8729   8.602   3.901   8.813 -0.8765 -0.0537  3.2085
  788MOL0     H 8730   8.716   4.006   8.347  0.1373 -1.6208  3.2187
  788MOL0     H 8731   8.701   3.933   8.114 -0.8805  1.9882  0.0933
  788MOL0     H 8732   8.696   3.837   7.918  1.4390 -1.6150 -1.4112
  788MOL0     H 8733   8.608   3.700   7.847 -3.1035 -0.6873  1.1216
  788MOL0     H 8734   8.592   3.955   7.733  0.9223  1.2335  0.7545
  788MOL0     H 8735   8.490   3.978   7.871 -0.7401 -0.7743  0.0998
  788MOL0     H 8736   8.433   3.741   7.689 -0.3471 -0.8522  0.7993
  788MOL0     H 8737   8.327   3.825   7.802  1.2297  2.0887  0.1045
  788MOL0     H 8738   8.450   3.938   7.563  2.1572 -0.8269  2.3036
  788MOL0     H 8739   8.321   4.019   7.651  0.2442 -1.2217  0.5387
  788MOL0     H 8740   8.057   3.815   7.434 -0.1950 -0.8728  1.2320
  788MOL0     H 8741   8.334   3.738   8.200 -0.2587 -0.9346  1.9704
  788MOL0     H 8742   8.312   3.764   8.543  0.7265  0.9335  0.2758
  788MOL0     H 8743   8.244   3.904   8.466 -1.8555 -0.2684 -0.6934
  788MOL0     H 8744   8.232   3.742   8.384  1.8039 -2.1312  0.0431
  789MOL0     O 8745   7.137  11.375   0.842  0.4605 -0.2968  0.7622
  789MOL0     C 8746   7.124  11.295   0.933 -0.0954  0.6933 -0.0750
  789MOL0     O 8747   7.220  11.259   1.031  0.1526  0.0878  0.7727
  789MOL0     C 8748   7.339  11.319   1.024 -0.4643  0.7883  0.8348
  789MOL0     C 8749   7.439  11.258   0.943  0.2367 -0.9338 -0.5382
  789MOL0     C 8750   7.567  11.312   0.945  0.0201  0.1320 -0.8980
  789MOL0     C 8751   7.607  11.417   1.030  0.6093 -0.6634  0.5074
  789MOL0     O 8752   7.742  11.444   1.043  0.1544 -0.4860  0.3687
  789MOL0     C 8753   7.785  11.553   1.116 -0.9553  0.1731 -1.2950
  789MOL0     C 8754   7.946  11.570   1.107  0.7951  0.4051 -0.4830
  789MOL0     C 8755   8.030  11.477   1.200  0.3940  1.0065 -1.2228
  789MOL0     C 8756   8.013  11.490   1.355  0.2185  0.2777  0.1085
  789MOL0     C 8757   8.076  11.369   1.433 -0.2057 -0.1392 -0.1060
  789MOL0     C 8758   8.233  11.382   1.443  0.4984 -0.1449 -0.8449
  789MOL0     C 8759   8.298  11.242   1.460 -0.1661 -0.8277  0.2371
  789MOL0     C 8760   8.305  11.170   1.325 -0.9255 -0.7013 -0.8238
  789MOL0     N 8761   8.401  11.232   1.232  0.4287 -0.7355  0.3008
  789MOL0     C 8762   8.539  11.230   1.248  0.2636 -0.9677 -0.5171
  789MOL0     C 8763   8.581  11.310   1.149 -0.3735 -0.6459  0.5110
  789MOL0     C 8764   8.728  11.334   1.122 -0.3873  0.4254  0.4294
  789MOL0     C 8765   8.797  11.231   1.032  0.2228  1.2193  0.8498
  789MOL0     C 8766   8.729  11.209   0.898  0.6963 -0.2082 -0.1925
  789MOL0     C 8767   8.735  11.335   0.823  0.4640 -0.5335  0.7685
  789MOL0     O 8768   8.864  11.367   0.769 -0.0500  0.0071  0.0960
  789MOL0     C 8769   8.867  11.471   0.695 -0.2631  0.4337 -0.2675
  789MOL0     C 8770   8.773  11.567   0.672 -0.4473  0.1763  0.6096
  789MOL0     C 8771   8.803  11.676   0.583  0.2775 -0.1391  0.9326
  789MOL0     C 8772   8.686  11.767   0.570 -1.0911  0.3155  0.0459
  789MOL0     C 8773   8.923  11.685   0.510 -0.8957 -0.1884 -0.1122
  789MOL0     C 8774   8.949  11.778   0.410  0.3555 -0.5736  0.0060
  789MOL0     O 8775   8.852  11.819   0.328  0.6064  0.7093 -0.3332
  789MOL0     C 8776   8.874  11.926   0.248  0.1484  0.4024  0.5049
  789MOL0     C 8777   8.961  11.916   0.137  0.9616 -0.0759 -0.0895
  789MOL0     C 8778   8.988  12.029   0.058 -0.3119 -0.5207  0.4245
  789MOL0     C 8779   8.939  12.151   0.093 -0.4651  0.2177 -0.3333
  789MOL0     O 8780   8.970  12.262   0.013 -0.8619 -0.0198 -0.1473
  789MOL0     C 8781   8.918  12.391   0.037 -0.5592  0.1766 -0.3502
  789MOL0     C 8782   8.978  12.481  -0.069  0.2059  0.0467  0.0015
  789MOL0     C 8783   8.975  12.634  -0.045 -0.9083 -0.0072 -0.0733
  789MOL0     C 8784   8.836  12.690  -0.091 -0.3903  0.8805  0.7508
  789MOL0     C 8785   8.860  12.830  -0.151 -0.4344  0.1862  0.8410
  789MOL0     C 8786   8.735  12.917  -0.165 -0.8323  0.5396 -1.2003
  789MOL0     C 8787   8.753  13.056  -0.217  0.6120 -0.6563  0.0703
  789MOL0     C 8788   8.621  13.115  -0.279  0.1620  1.3573  0.4474
  789MOL0    Cl 8789   8.637  13.293  -0.285 -0.3063 -0.4183 -0.0198
  789MOL0     C 8790   8.856  12.156   0.207 -0.0839 -1.0044 -0.3112
  789MOL0     C 8791   8.822  12.049   0.279  0.8770  0.0375 -0.0445
  789MOL0     O 8792   9.067  11.815   0.395  0.2557  0.7218 -0.4894
  789MOL0     C 8793   9.020  11.586   0.540  0.1088  0.0954  0.0144
  789MOL0     C 8794   9.000  11.487   0.643 -0.1502  0.9703 -0.8500
  789MOL0     N 8795   8.479  11.365   1.081 -0.0870  0.3519 -0.3577
  789MOL0     N 8796   8.363  11.317   1.134  0.0072 -0.6285  0.5045
  789MOL0     C 8797   7.508  11.478   1.107  0.1201 -0.4899 -0.4130
  789MOL0     C 8798   7.372  11.434   1.107  0.0706  0.3853 -0.5652
  789MOL0     C 8799   6.983  11.246   0.944  0.3295  0.7982  0.1781
  789MOL0     C 8800   6.872  11.324   0.899  0.8042  0.2867  0.2753
  789MOL0     C 8801   6.741  11.266   0.908 -0.3495  0.5223  0.1315
  789MOL0     C 8802   6.713  11.140   0.966 -0.3512  0.2777  0.4565
  789MOL0     O 8803   6.582  11.104   0.970  0.6862 -0.2872  0.2306
  789MOL0     C 8804   6.553  10.971   1.026  0.4819  0.6160  0.9469
  789MOL0     C 8805   6.572  10.849   0.937 -0.0538  0.0374 -0.8730
  789MOL0     C 8806   6.544  10.722   1.016  0.3975  0.1126  0.4766
  789MOL0     C 8807   6.662  10.658   1.090  0.1683 -0.8292  0.1365
  789MOL0     C 8808   6.606  10.555   1.173 -0.0653  0.2499 -0.1770
  789MOL0     C 8809   6.557  10.472   1.247  0.1832 -0.1012 -0.0829
  789MOL0     C 8810   6.825  11.063   1.008 -0.3405 -0.2961  0.6874
  789MOL0     C 8811   6.955  11.118   1.002 -0.4972 -0.0539 -0.6091
  789MOL0     C 8812   7.065  11.026   1.046 -0.8098  0.2538  0.7320
  789MOL0     H 8813   7.412  11.185   0.868  1.6286 -2.7948  0.6540
  789MOL0     H 8814   7.649  11.262   0.894  0.1919 -0.3274 -0.1886
  789MOL0     H 8815   7.764  11.535   1.222  0.9227  0.8804 -0.7558
  789MOL0     H 8816   7.732  11.646   1.091 -2.3641  1.9926  6.1157
  789MOL0     H 8817   7.973  11.554   1.002  1.5370  1.7253 -0.5023
  789MOL0     H 8818   7.980  11.671   1.132  4.8562 -0.3918 -1.9994
  789MOL0     H 8819   8.013  11.380   1.151 -0.0905  1.4643 -1.9852
  789MOL0     H 8820   8.137  11.487   1.177  1.8350 -1.4180  3.1923
  789MOL0     H 8821   8.051  11.585   1.395  0.4358 -0.6070  2.0873
  789MOL0     H 8822   7.909  11.500   1.386 -0.0439  1.2367 -1.0097
  789MOL0     H 8823   8.039  11.281   1.379 -1.6743 -0.7926  1.8145
  789MOL0     H 8824   8.037  11.355   1.534  0.7684 -3.8274 -0.0755
  789MOL0     H 8825   8.270  11.433   1.354  0.1031 -1.5230 -1.8271
  789MOL0     H 8826   8.257  11.448   1.528 -1.3415  1.4395 -1.4677
  789MOL0     H 8827   8.240  11.177   1.526 -0.9402 -0.1798  0.2098
  789MOL0     H 8828   8.398  11.254   1.503 -0.4314 -0.6147  0.7937
  789MOL0     H 8829   8.353  11.073   1.339  1.6566  0.4920 -0.9736
  789MOL0     H 8830   8.203  11.155   1.288 -1.0732 -2.3839  0.1748
  789MOL0     H 8831   8.608  11.173   1.310 -0.1451 -0.2830  0.6003
  789MOL0     H 8832   8.778  11.329   1.219  0.0731  0.5032  0.1980
  789MOL0     H 8833   8.743  11.437   1.086 -0.3256  0.4170  0.4313
  789MOL0     H 8834   8.904  11.251   1.020  0.2708 -0.1902 -1.7009
  789MOL0     H 8835   8.794  11.139   1.091  2.3525  0.6854  0.2474
  789MOL0     H 8836   8.768  11.135   0.828  0.6976  3.0195 -3.9499
  789MOL0     H 8837   8.621  11.195   0.913  0.4564  0.7515 -0.9268
  789MOL0     H 8838   8.672  11.321   0.735  1.3407 -2.6858  0.4291
  789MOL0     H 8839   8.689  11.413   0.885 -1.0806 -2.0857  1.6663
  789MOL0     H 8840   8.679  11.573   0.726 -0.6095 -4.3963  1.2202
  789MOL0     H 8841   8.707  11.864   0.524  1.8381 -0.4093 -0.3612
  789MOL0     H 8842   8.640  11.788   0.667  0.4769 -1.1918  1.1717
  789MOL0     H 8843   8.609  11.718   0.509  1.4086 -1.1506 -2.1537
  789MOL0     H 8844   9.016  11.825   0.115  4.4556  1.4892  1.5043
  789MOL0     H 8845   9.059  12.023  -0.024 -0.5002  2.5528 -0.0744
  789MOL0     H 8846   8.810  12.389   0.024 -0.6875  1.0354  0.4563
  789MOL0     H 8847   8.953  12.423   0.135  0.2090  2.4259 -1.2898
  789MOL0     H 8848   9.083  12.456  -0.057  0.8080  2.4116  0.2356
  789MOL0     H 8849   8.942  12.456  -0.169  2.6330 -0.4341 -0.8074
  789MOL0     H 8850   9.058  12.668  -0.108 -1.9268 -0.3525 -1.6688
  789MOL0     H 8851   8.988  12.660   0.060 -1.2489  1.4532 -0.3789
  789MOL0     H 8852   8.777  12.692   0.001 -2.1193 -0.2471 -0.2936
  789MOL0     H 8853   8.778  12.628  -0.159 -1.0492 -1.3568  3.1988
  789MOL0     H 8854   8.931  12.871  -0.078 -1.2536  2.3706  0.4938
  789MOL0     H 8855   8.919  12.822  -0.243  1.6231  1.5039  1.9669
  789MOL0     H 8856   8.710  12.926  -0.059 -0.2301  1.1726 -1.1060
  789MOL0     H 8857   8.671  12.859  -0.232 -0.2540 -1.1354 -0.3607
  789MOL0     H 8858   8.837  13.067  -0.286  0.7073 -1.0900  0.1149
  789MOL0     H 8859   8.768  13.121  -0.130 -2.2608  0.6267 -0.2789
  789MOL0     H 8860   8.540  13.088  -0.212 -0.9991  0.4286 -1.2475
  789MOL0     H 8861   8.604  13.074  -0.380  1.2195  1.3536  0.2537
  789MOL0     H 8862   8.822  12.254   0.238 -1.6380 -0.4497 -3.4290
  789MOL0     H 8863   8.764  12.067   0.370  0.5527 -1.2847  0.0406
  789MOL0     H 8864   9.106  11.601   0.476 -0.3729  3.2038 -0.1064
  789MOL0     H 8865   9.087  11.425   0.665 -0.7838  0.2994 -0.1655
  789MOL0     H 8866   7.535  11.557   1.176 -0.8145  0.1103 -0.7174
  789MOL0     H 8867   7.281  11.469   1.154 -0.8611 -0.8478 -1.3976
  789MOL0     H 8868   6.888  11.420   0.851  3.0071  1.0074  2.2696
  789MOL0     H 8869   6.660  11.328   0.872  0.8887  0.9965 -2.0542
  789MOL0     H 8870   6.617  10.956   1.114  1.8222  1.9867  0.2663
  789MOL0     H 8871   6.455  10.973   1.074 -0.8355  1.4322 -1.6466
  789MOL0     H 8872   6.674  10.839   0.898  0.5689 -1.5397  1.0036
  789MOL0     H 8873   6.509  10.856   0.848  0.3950 -0.4036 -1.2373
  789MOL0     H 8874   6.462  10.731   1.088  0.0181 -3.9037  0.7934
  789MOL0     H 8875   6.506  10.649   0.944 -1.8660  1.1706  0.5120
  789MOL0     H 8876   6.703  10.738   1.153 -3.2421  1.8920 -0.7936
  789MOL0     H 8877   6.744  10.626   1.026  0.5332  1.2202 -0.4630
  789MOL0     H 8878   6.526  10.410   1.329  0.4037  0.9479  0.8181
  789MOL0     H 8879   6.818  10.959   1.036  1.4292 -0.2891  1.2466
  789MOL0     H 8880   7.015  10.929   1.048 -2.4720  1.0425 -0.4416
  789MOL0     H 8881   7.144  11.029   0.971  0.5101  1.1080  2.0913
  789MOL0     H 8882   7.107  11.064   1.140  0.6261  2.7357 -0.8074
  790MOL0     O 8883  10.838   7.717   1.494  0.3759 -0.3354  0.0183
  790MOL0     C 8884  10.845   7.623   1.422  0.7821 -0.0001 -0.4513
  790MOL0     O 8885  10.750   7.583   1.335 -0.8539  0.7037 -0.2533
  790MOL0     C 8886  10.621   7.634   1.360  0.6161 -0.8796  0.6804
  790MOL0     C 8887  10.551   7.594   1.473  0.0714  0.4151 -0.3762
  790MOL0     C 8888  10.423   7.640   1.495 -0.1797  0.5950 -0.6194
  790MOL0     C 8889  10.361   7.726   1.404  0.6079  0.0173  0.5643
  790MOL0     O 8890  10.240   7.778   1.439  0.0856 -0.1586 -0.3049
  790MOL0     C 8891  10.176   7.874   1.354  0.0818 -0.4810 -0.1837
  790MOL0     C 8892  10.031   7.877   1.388 -0.3675 -0.8585 -0.3363
  790MOL0     C 8893   9.975   7.748   1.327  0.1180  0.2555  0.3060
  790MOL0     C 8894   9.820   7.740   1.350  0.1121 -0.3032  0.0128
  790MOL0     C 8895   9.751   7.607   1.324  0.1319 -0.0953 -0.0386
  790MOL0     C 8896   9.595   7.612   1.322 -0.5378  0.0275  0.0111
  790MOL0     C 8897   9.520   7.637   1.451 -0.3800 -0.2081  0.3185
  790MOL0     C 8898   9.492   7.782   1.465 -0.8037 -0.7595  0.4551
  790MOL0     N 8899   9.435   7.812   1.598  0.6338 -0.4836 -0.4863
  790MOL0     C 8900   9.465   7.763   1.723 -0.1533 -0.0994 -0.4503
  790MOL0     C 8901   9.369   7.807   1.804 -0.1544  0.7385 -0.3375
  790MOL0     C 8902   9.380   7.774   1.949  0.1870 -0.2233 -0.1789
  790MOL0     C 8903   9.460   7.882   2.031 -0.0773 -0.9948 -0.6312
  790MOL0     C 8904   9.372   7.990   2.084  0.5884  0.0759 -0.4535
  790MOL0     C 8905   9.441   8.101   2.165  0.3254  0.6361 -0.3675
  790MOL0     O 8906   9.518   8.174   2.078 -0.4284 -0.0488  0.0709
  790MOL0     C 8907   9.618   8.244   2.132 -0.0286 -0.1851  0.3199
  790MOL0     C 8908   9.606   8.382   2.143  0.3388 -0.5146  0.2047
  790MOL0     C 8909   9.720   8.466   2.176 -0.0079  0.7627 -0.5136
  790MOL0     C 8910   9.704   8.614   2.181 -0.5113 -0.8365  0.1272
  790MOL0     C 8911   9.844   8.402   2.205 -0.2461 -0.1173 -0.0772
  790MOL0     C 8912   9.975   8.477   2.222 -0.3674 -0.1105 -0.1333
  790MOL0     O 8913  10.068   8.407   2.289  0.1467 -0.2977  0.5568
  790MOL0     C 8914  10.198   8.434   2.284  0.2620 -0.2731  0.1425
  790MOL0     C 8915  10.275   8.415   2.168 -0.3318 -0.2590 -0.1964
  790MOL0     C 8916  10.411   8.413   2.157  0.0795  0.7126 -0.1916
  790MOL0     C 8917  10.474   8.437   2.279 -0.5574 -0.0316  0.4926
  790MOL0     O 8918  10.612   8.436   2.292 -0.3038  0.0105  0.4266
  790MOL0     C 8919  10.679   8.540   2.217 -0.1096 -0.3943 -0.5762
  790MOL0     C 8920  10.829   8.520   2.236  0.2144 -0.5261 -1.4066
  790MOL0     C 8921  10.880   8.526   2.381 -0.1244 -1.1812 -0.2723
  790MOL0     C 8922  11.036   8.545   2.381  0.1231 -0.1490  0.4386
  790MOL0     C 8923  11.083   8.544   2.520 -0.2105 -0.0691 -0.3465
  790MOL0     C 8924  11.233   8.549   2.523 -0.9156 -0.5265 -0.3340
  790MOL0     C 8925  11.309   8.425   2.466  0.0677 -0.8841  0.6930
  790MOL0     C 8926  11.463   8.451   2.471 -0.7350  1.5397 -0.5547
  790MOL0    Cl 8927  11.536   8.422   2.632 -0.3293  0.2435 -0.0492
  790MOL0     C 8928  10.404   8.448   2.402  0.5465  0.2543  0.0478
  790MOL0     C 8929  10.268   8.435   2.403 -0.4254  0.2437  0.7878
  790MOL0     O 8930   9.993   8.594   2.189  0.1256  0.3746  0.2786
  790MOL0     C 8931   9.852   8.257   2.200  0.6405 -0.2288  0.0950
  790MOL0     C 8932   9.735   8.180   2.176 -0.3466  0.0627 -0.8078
  790MOL0     N 8933   9.278   7.885   1.736 -0.4102  1.2172  0.5459
  790MOL0     N 8934   9.323   7.882   1.610  0.2161 -0.9748 -0.5407
  790MOL0     C 8935  10.422   7.756   1.285 -0.3582 -0.0757  1.0062
  790MOL0     C 8936  10.566   7.720   1.268  0.4558 -0.4072 -0.4918
  790MOL0     C 8937  10.977   7.546   1.418 -0.0303 -0.2633 -0.6258
  790MOL0     C 8938  10.979   7.420   1.358  0.3344 -0.0248  0.1266
  790MOL0     C 8939  11.093   7.342   1.347 -0.1959 -0.0630  0.3994
  790MOL0     C 8940  11.215   7.394   1.380  0.5009  0.2627 -0.1136
  790MOL0     O 8941  11.323   7.307   1.363  0.2349  0.0576  0.3126
  790MOL0     C 8942  11.452   7.360   1.322  0.3398 -0.4894 -0.1851
  790MOL0     C 8943  11.545   7.251   1.268 -0.3026 -0.5653 -0.0742
  790MOL0     C 8944  11.473   7.122   1.225 -0.5249 -0.1135  0.4567
  790MOL0     C 8945  11.566   7.005   1.188 -0.6190  0.3712 -0.1320
  790MOL0     C 8946  11.493   6.880   1.141 -0.1327  0.2202  0.0169
  790MOL0     C 8947  11.386   6.719   1.101  0.4340 -0.2705  0.1758
  790MOL0     C 8948  11.219   7.518   1.447  0.2660 -0.6472 -0.5321
  790MOL0     C 8949  11.104   7.596   1.465  0.0506 -0.6488  0.8843
  790MOL0     C 8950  11.128   7.731   1.536  0.2974  0.7416 -0.0583
  790MOL0     H 8951  10.586   7.522   1.546 -0.0025  0.5043 -0.2512
  790MOL0     H 8952  10.356   7.600   1.571  0.8761 -1.8942 -0.9198
  790MOL0     H 8953  10.191   7.853   1.248 -2.3728 -0.1735 -0.6681
  790MOL0     H 8954  10.217   7.975   1.362  1.1644 -1.0486  3.1950
  790MOL0     H 8955  10.004   7.886   1.494  0.5386 -2.5388  0.0721
  790MOL0     H 8956   9.995   7.962   1.329 -0.7591 -1.5442 -1.0958
  790MOL0     H 8957   9.991   7.731   1.220 -4.0769  0.4125 -0.5106
  790MOL0     H 8958  10.024   7.664   1.379  3.5978  2.6707  1.2761
  790MOL0     H 8959   9.796   7.768   1.453 -0.4261  0.2178 -0.2452
  790MOL0     H 8960   9.768   7.818   1.294 -0.7032 -0.9877 -0.2033
  790MOL0     H 8961   9.798   7.533   1.390  1.1857  1.7393  1.3717
  790MOL0     H 8962   9.776   7.563   1.226  1.6837 -1.2535  0.8181
  790MOL0     H 8963   9.569   7.691   1.251 -0.0535  1.8007  1.7220
  790MOL0     H 8964   9.558   7.516   1.282 -0.3201 -1.1324  2.4064
  790MOL0     H 8965   9.575   7.601   1.538  1.5410  2.1142  0.1837
  790MOL0     H 8966   9.420   7.595   1.441 -0.7402  0.4088  1.2677
  790MOL0     H 8967   9.593   7.826   1.458 -0.5368 -1.5208 -0.5911
  790MOL0     H 8968   9.455   7.820   1.370  1.4709 -1.5646 -0.8245
  790MOL0     H 8969   9.559   7.721   1.754 -0.8029 -0.8140  0.6131
  790MOL0     H 8970   9.428   7.676   1.959  0.3446 -0.1924 -0.6381
  790MOL0     H 8971   9.289   7.755   2.008 -0.7023  1.3573 -0.9865
  790MOL0     H 8972   9.510   7.825   2.110 -0.3950 -1.5886 -0.8526
  790MOL0     H 8973   9.537   7.932   1.971 -2.6897  1.6143 -2.0250
  790MOL0     H 8974   9.317   8.022   1.994  1.5569  2.3460 -0.3006
  790MOL0     H 8975   9.302   7.932   2.145  2.7002 -2.7345 -0.4983
  790MOL0     H 8976   9.360   8.159   2.211  0.3972  0.9754 -0.6671
  790MOL0     H 8977   9.502   8.058   2.246  0.5917  1.0346 -0.3572
  790MOL0     H 8978   9.516   8.434   2.112 -0.4283 -1.7872  0.2465
  790MOL0     H 8979   9.744   8.668   2.094 -5.9892  0.4798 -1.9677
  790MOL0     H 8980   9.740   8.651   2.277 -2.1546  3.4666 -0.6515
  790MOL0     H 8981   9.597   8.639   2.178  0.0262  2.2386 -4.3414
  790MOL0     H 8982  10.210   8.380   2.088 -3.3096  0.0185  1.9218
  790MOL0     H 8983  10.468   8.375   2.072  0.3367 -1.9011  1.0455
  790MOL0     H 8984  10.657   8.531   2.111  0.0946 -2.5637 -0.4789
  790MOL0     H 8985  10.647   8.633   2.265 -1.5845 -1.5733  0.8566
  790MOL0     H 8986  10.866   8.429   2.188 -2.3981 -1.0807 -2.5355
  790MOL0     H 8987  10.877   8.606   2.189  3.2654 -0.6803  1.1022
  790MOL0     H 8988  10.848   8.440   2.441 -0.8222  0.1096  1.2588
  790MOL0     H 8989  10.843   8.614   2.434  0.7486 -0.6040 -0.6054
  790MOL0     H 8990  11.068   8.636   2.330  1.4593 -1.5376 -1.3542
  790MOL0     H 8991  11.079   8.467   2.318  1.2148  2.1585 -1.8342
  790MOL0     H 8992  11.045   8.626   2.582 -0.2877 -1.7132  1.9198
  790MOL0     H 8993  11.056   8.453   2.574  0.6442 -1.6446 -2.4386
  790MOL0     H 8994  11.277   8.557   2.622  0.2834 -1.2784 -0.7848
  790MOL0     H 8995  11.261   8.643   2.475  0.0641  2.0842  4.6915
  790MOL0     H 8996  11.272   8.418   2.363 -1.3156  0.6124  1.0495
  790MOL0     H 8997  11.285   8.332   2.519 -1.1140 -1.2779 -0.4679
  790MOL0     H 8998  11.484   8.554   2.439 -2.0929  1.8270 -0.5834
  790MOL0     H 8999  11.517   8.393   2.396 -0.6836  2.7528 -1.4998
  790MOL0     H 9000  10.439   8.457   2.505  1.3133 -0.3020 -0.1496
  790MOL0     H 9001  10.210   8.447   2.494  0.0740  3.8935  0.7859
  790MOL0     H 9002   9.944   8.200   2.203 -0.1549 -1.6127 -0.6509
  790MOL0     H 9003   9.747   8.072   2.164  1.0128  0.1612 -0.4729
  790MOL0     H 9004  10.388   7.814   1.200  3.0806 -2.0657 -2.0231
  790MOL0     H 9005  10.620   7.747   1.178 -2.9542  4.1835 -1.4999
  790MOL0     H 9006  10.891   7.379   1.309  0.2071 -0.3665  0.6416
  790MOL0     H 9007  11.096   7.248   1.293  1.3441  1.4273 -2.4018
  790MOL0     H 9008  11.438   7.444   1.254  3.4666  0.0684 -0.3002
  790MOL0     H 9009  11.499   7.389   1.417  1.3209 -1.4123 -0.3561
  790MOL0     H 9010  11.620   7.221   1.342  0.2879 -0.4224 -0.6105
  790MOL0     H 9011  11.613   7.288   1.190 -1.8043  1.2000 -0.6080
  790MOL0     H 9012  11.409   7.088   1.307 -0.8816 -2.3782 -0.6653
  790MOL0     H 9013  11.409   7.146   1.140  2.0928  1.1773 -1.2757
  790MOL0     H 9014  11.630   6.976   1.271  1.9814 -0.5651 -2.2932
  790MOL0     H 9015  11.635   7.046   1.113  0.5932  0.0791  0.7834
  790MOL0     H 9016  11.326   6.636   1.071 -3.0039  0.6488  3.7170
  790MOL0     H 9017  11.320   7.538   1.483  0.1288  1.4655 -1.2085
  790MOL0     H 9018  11.064   7.804   1.487  1.3124  1.5855 -0.1574
  790MOL0     H 9019  11.088   7.725   1.638 -1.4736 -1.4742 -0.7990
  790MOL0     H 9020  11.229   7.773   1.530  1.3068 -1.5112  0.1562
  791MOL0     O 9021   6.901   1.316   7.731  0.3334 -0.3813  0.9968
  791MOL0     C 9022   6.893   1.428   7.677  0.1538  0.4587  0.2361
  791MOL0     O 9023   6.985   1.479   7.587 -0.0063 -0.4894  0.0999
  791MOL0     C 9024   7.107   1.415   7.573  0.0788  1.2275 -1.1971
  791MOL0     C 9025   7.149   1.396   7.444  0.8925  0.4038  0.5402
  791MOL0     C 9026   7.267   1.334   7.417  0.2257 -0.0411  1.0798
  791MOL0     C 9027   7.346   1.292   7.522 -0.5140 -0.5295  0.1043
  791MOL0     O 9028   7.470   1.233   7.507 -0.0395 -0.2134 -0.6600
  791MOL0     C 9029   7.527   1.211   7.377 -0.7465  0.5685  0.3600
  791MOL0     C 9030   7.574   1.348   7.315  0.3124  0.1379  0.1827
  791MOL0     C 9031   7.680   1.419   7.398 -0.2317 -0.2632  0.1304
  791MOL0     C 9032   7.819   1.397   7.323 -0.0068  0.6585 -1.2035
  791MOL0     C 9033   7.951   1.448   7.395  0.2799  0.0550 -0.6977
  791MOL0     C 9034   7.955   1.605   7.405  0.6829  0.1204 -0.7742
  791MOL0     C 9035   8.094   1.644   7.386 -0.1146 -0.5481  0.2841
  791MOL0     C 9036   8.142   1.657   7.235  0.2814 -0.1114 -0.3327
  791MOL0     N 9037   8.288   1.696   7.232  0.2427 -0.3519 -0.1429
  791MOL0     C 9038   8.387   1.617   7.181 -0.6943 -0.0681  0.2896
  791MOL0     C 9039   8.500   1.690   7.204 -0.2095 -0.3124  0.3863
  791MOL0     C 9040   8.642   1.657   7.167 -0.5209 -0.1277  0.2034
  791MOL0     C 9041   8.730   1.583   7.269 -0.0358  0.9960  0.0624
  791MOL0     C 9042   8.694   1.432   7.274  0.5585 -0.1923  0.0941
  791MOL0     C 9043   8.779   1.359   7.377  0.0235  0.5996  0.1737
  791MOL0     O 9044   8.918   1.407   7.362 -0.3996 -0.8297 -0.3359
  791MOL0     C 9045   9.003   1.419   7.474 -0.0410  0.2372  0.5162
  791MOL0     C 9046   9.134   1.438   7.440 -0.2811 -0.4179  0.2234
  791MOL0     C 9047   9.235   1.452   7.541  0.2874  0.0685  0.2177
  791MOL0     C 9048   9.371   1.472   7.478 -0.3029  0.5049 -0.4931
  791MOL0     C 9049   9.210   1.454   7.675  0.5526  0.3212 -0.0843
  791MOL0     C 9050   9.305   1.468   7.788  0.8784  0.4545  0.3821
  791MOL0     O 9051   9.252   1.479   7.912 -0.1117  0.0122  0.3371
  791MOL0     C 9052   9.307   1.496   8.033  0.9355  0.1686 -0.9768
  791MOL0     C 9053   9.221   1.478   8.144  0.0618 -0.1398 -0.1937
  791MOL0     C 9054   9.259   1.509   8.280 -0.5479  0.2150  0.2825
  791MOL0     C 9055   9.397   1.547   8.303  0.9044 -0.2755  0.6349
  791MOL0     O 9056   9.436   1.580   8.437 -0.7397  0.3553 -0.3760
  791MOL0     C 9057   9.553   1.660   8.459  1.0733 -0.2431  0.4784
  791MOL0     C 9058   9.524   1.807   8.414 -0.2760  0.4830 -0.1471
  791MOL0     C 9059   9.637   1.900   8.441 -0.2893 -0.1350 -0.0037
  791MOL0     C 9060   9.608   2.050   8.407 -1.9448 -0.8452  0.8215
  791MOL0     C 9061   9.629   2.148   8.526 -0.2638 -0.2089 -0.4793
  791MOL0     C 9062   9.583   2.297   8.494 -0.0746 -0.0853 -0.1578
  791MOL0     C 9063   9.617   2.389   8.611  0.9229 -0.1369 -0.6489
  791MOL0     C 9064   9.653   2.530   8.555  0.5812 -0.3419 -0.1246
  791MOL0    Cl 9065   9.811   2.535   8.494 -0.5281  0.1720 -0.0811
  791MOL0     C 9066   9.485   1.541   8.199  0.6382  0.3498  0.0386
  791MOL0     C 9067   9.445   1.520   8.067  0.8713  0.0292  1.2727
  791MOL0     O 9068   9.426   1.469   7.762  0.0721 -0.2437 -0.5522
  791MOL0     C 9069   9.075   1.427   7.700 -0.4129 -0.9770 -0.0863
  791MOL0     C 9070   8.982   1.404   7.608  0.1909 -0.3844  0.1207
  791MOL0     N 9071   8.471   1.814   7.266  0.5272  1.0117 -0.1522
  791MOL0     N 9072   8.341   1.818   7.280  1.0026  0.9264  0.4559
  791MOL0     C 9073   7.307   1.309   7.652  0.1490 -1.5635 -0.5720
  791MOL0     C 9074   7.184   1.376   7.688  0.5142 -0.0742  0.8769
  791MOL0     C 9075   6.767   1.500   7.688  0.4096 -0.3871 -0.6191
  791MOL0     C 9076   6.725   1.576   7.574  0.4671  0.0717  0.4519
  791MOL0     C 9077   6.616   1.657   7.573  0.3813  0.8328  0.0092
  791MOL0     C 9078   6.534   1.666   7.690 -0.0775  1.0487 -0.8729
  791MOL0     O 9079   6.420   1.740   7.673 -0.6713  0.4147  0.3804
  791MOL0     C 9080   6.322   1.742   7.789  1.0041 -0.3653 -0.6961
  791MOL0     C 9081   6.206   1.819   7.748  0.8442 -0.0390  0.4183
  791MOL0     C 9082   6.097   1.738   7.668 -0.4430 -0.7566 -0.0764
  791MOL0     C 9083   6.008   1.830   7.582  0.5839  0.1576 -0.4585
  791MOL0     C 9084   5.872   1.769   7.584  0.2832  0.6340 -0.1988
  791MOL0     C 9085   5.758   1.735   7.583  0.5330  0.4302  0.2138
  791MOL0     C 9086   6.574   1.591   7.806 -0.7239 -0.2411 -0.0022
  791MOL0     C 9087   6.684   1.503   7.800 -0.4589 -0.0322 -0.6329
  791MOL0     C 9088   6.710   1.434   7.931 -0.3482  0.2949 -0.0259
  791MOL0     H 9089   7.081   1.431   7.367  0.2818 -1.6432  0.1042
  791MOL0     H 9090   7.300   1.320   7.314 -0.2287 -0.4321  0.9852
  791MOL0     H 9091   7.468   1.151   7.308  1.4684  1.1040 -2.1550
  791MOL0     H 9092   7.612   1.146   7.403 -1.5562  1.1904  5.7985
  791MOL0     H 9093   7.615   1.315   7.219  0.5319 -1.9818  0.9419
  791MOL0     H 9094   7.481   1.397   7.285  0.7880  0.4800 -0.7652
  791MOL0     H 9095   7.640   1.521   7.393  0.8484  0.1402 -0.6164
  791MOL0     H 9096   7.671   1.380   7.500 -1.8215  0.1134  0.1567
  791MOL0     H 9097   7.850   1.292   7.318  0.4425  0.7777 -1.0418
  791MOL0     H 9098   7.809   1.443   7.224  1.1247  2.4653 -0.5323
  791MOL0     H 9099   8.032   1.422   7.326  2.1718  4.7154 -0.6382
  791MOL0     H 9100   7.963   1.409   7.496 -0.9442  0.7588 -0.2547
  791MOL0     H 9101   7.891   1.656   7.333 -0.1621  0.4928  0.2052
  791MOL0     H 9102   7.917   1.634   7.503 -1.3248 -0.1878 -1.4286
  791MOL0     H 9103   8.164   1.574   7.433  3.0649  3.2159  1.7966
  791MOL0     H 9104   8.102   1.740   7.440 -2.2751 -0.6929  0.9292
  791MOL0     H 9105   8.130   1.563   7.181 -0.4046 -0.7505  0.8902
  791MOL0     H 9106   8.073   1.735   7.200  0.5443  0.1569 -0.2576
  791MOL0     H 9107   8.391   1.518   7.136  0.2359  0.2681 -0.3988
  791MOL0     H 9108   8.700   1.749   7.150  5.8619 -3.1039  2.7122
  791MOL0     H 9109   8.643   1.610   7.068 -1.7296  0.5245 -0.1393
  791MOL0     H 9110   8.828   1.582   7.220 -0.9636  1.6276 -1.8862
  791MOL0     H 9111   8.730   1.629   7.368 -0.3142 -0.2612  0.6646
  791MOL0     H 9112   8.588   1.429   7.300  0.3559 -0.9788 -0.7582
  791MOL0     H 9113   8.694   1.383   7.176 -2.5732 -1.4793  0.6162
  791MOL0     H 9114   8.749   1.383   7.480  1.6762 -0.2586  0.8938
  791MOL0     H 9115   8.766   1.252   7.358  1.0770  0.2580  1.2776
  791MOL0     H 9116   9.160   1.438   7.335  1.2504 -0.6692  0.5683
  791MOL0     H 9117   9.384   1.404   7.394  3.3615 -0.3695  0.6051
  791MOL0     H 9118   9.446   1.435   7.549 -2.6163 -4.8473 -0.4236
  791MOL0     H 9119   9.386   1.578   7.455  1.0959  1.5251  4.0841
  791MOL0     H 9120   9.118   1.453   8.123 -0.3291 -0.1622  1.5729
  791MOL0     H 9121   9.191   1.519   8.364 -3.0603  1.3244 -1.7400
  791MOL0     H 9122   9.573   1.653   8.566  0.6670 -1.1671  0.5003
  791MOL0     H 9123   9.637   1.619   8.402  0.0227 -1.7337 -0.0451
  791MOL0     H 9124   9.495   1.802   8.309 -0.2302 -1.3808 -0.1051
  791MOL0     H 9125   9.443   1.856   8.469 -0.0776  2.5845 -1.5872
  791MOL0     H 9126   9.721   1.858   8.384  0.4942  0.6165  0.5681
  791MOL0     H 9127   9.664   1.893   8.547  3.2880  1.0736 -0.7062
  791MOL0     H 9128   9.503   2.052   8.377 -1.9143 -0.0778  0.7473
  791MOL0     H 9129   9.652   2.081   8.312 -0.3314 -2.0710  1.1141
  791MOL0     H 9130   9.556   2.115   8.601 -0.4596 -0.4777 -0.7833
  791MOL0     H 9131   9.731   2.147   8.565 -1.2914  1.0756  2.4658
  791MOL0     H 9132   9.474   2.289   8.493 -0.1815  0.8974  0.9071
  791MOL0     H 9133   9.601   2.331   8.392 -0.1805 -2.0782 -0.8771
  791MOL0     H 9134   9.701   2.345   8.665  0.0188 -2.7008 -1.1516
  791MOL0     H 9135   9.531   2.397   8.677 -0.3049 -2.1907 -1.8750
  791MOL0     H 9136   9.652   2.595   8.644 -0.1057  0.1658 -0.4914
  791MOL0     H 9137   9.580   2.569   8.484  3.4935  1.6753 -2.2282
  791MOL0     H 9138   9.591   1.555   8.215  0.7249 -1.4498  1.2110
  791MOL0     H 9139   9.522   1.531   7.992 -1.4337  1.1422 -1.0834
  791MOL0     H 9140   9.043   1.415   7.803  0.1999  1.4169  0.4452
  791MOL0     H 9141   8.890   1.372   7.656 -0.1436 -1.6655 -1.2680
  791MOL0     H 9142   7.364   1.267   7.735 -0.9570 -1.2072  0.4008
  791MOL0     H 9143   7.154   1.401   7.789 -0.6634 -0.5858  0.6791
  791MOL0     H 9144   6.778   1.565   7.480 -3.2923 -1.3991 -1.6993
  791MOL0     H 9145   6.609   1.715   7.481 -0.2061  0.2434 -0.3242
  791MOL0     H 9146   6.284   1.644   7.821  1.8667 -0.2485  0.7924
  791MOL0     H 9147   6.360   1.789   7.880 -2.0083 -2.0231  1.5893
  791MOL0     H 9148   6.234   1.902   7.682 -1.4820  0.2066 -0.3579
  791MOL0     H 9149   6.160   1.852   7.842  2.0259 -1.3644  1.5098
  791MOL0     H 9150   6.155   1.670   7.605  0.0693  1.0730 -1.6757
  791MOL0     H 9151   6.036   1.685   7.743  0.0082  2.5529  2.8569
  791MOL0     H 9152   6.059   1.829   7.485  1.8085 -3.0188  0.1097
  791MOL0     H 9153   6.009   1.932   7.621 -1.2949  0.0147  0.0772
  791MOL0     H 9154   5.654   1.708   7.583  0.8774 -1.1056 -1.3760
  791MOL0     H 9155   6.511   1.600   7.894 -0.8004 -0.9941  0.0253
  791MOL0     H 9156   6.810   1.440   7.975 -1.2033  0.2576  2.0615
  791MOL0     H 9157   6.645   1.478   8.007 -2.6834 -1.5242 -0.8684
  791MOL0     H 9158   6.685   1.328   7.920  0.6510 -0.3641  3.0073
  792MOL0     O 9159   1.260   6.031   0.816 -0.1044  0.7899  0.0185
  792MOL0     C 9160   1.174   6.062   0.738 -0.5484 -0.2551 -0.4069
  792MOL0     O 9161   1.154   6.002   0.610 -0.2319  0.2270 -0.3534
  792MOL0     C 9162   1.251   5.922   0.557 -0.0938  0.1316  0.0465
  792MOL0     C 9163   1.371   5.973   0.509 -0.7177 -1.1005  1.0016
  792MOL0     C 9164   1.478   5.888   0.462  1.4668 -0.6690  0.3740
  792MOL0     C 9165   1.467   5.753   0.462  0.1379  0.1355 -0.7426
  792MOL0     O 9166   1.576   5.678   0.427  0.2752  0.1047 -0.0791
  792MOL0     C 9167   1.611   5.564   0.507 -0.5873 -0.0183  0.3928
  792MOL0     C 9168   1.764   5.590   0.549  0.8431  0.0181 -0.4239
  792MOL0     C 9169   1.771   5.687   0.662 -0.5220 -0.6831  0.4431
  792MOL0     C 9170   1.909   5.672   0.732  0.3865 -0.0747  0.2159
  792MOL0     C 9171   2.024   5.706   0.643  0.3572  0.4515 -0.3164
  792MOL0     C 9172   2.144   5.725   0.737 -0.3455  0.5023 -0.1919
  792MOL0     C 9173   2.273   5.736   0.641 -0.6960  0.5251 -0.2124
  792MOL0     C 9174   2.401   5.722   0.729 -0.4966 -0.0045  0.5531
  792MOL0     N 9175   2.519   5.686   0.635 -0.4090  1.2265  0.6796
  792MOL0     C 9176   2.559   5.733   0.512 -0.5838  0.2748 -0.0240
  792MOL0     C 9177   2.663   5.654   0.479  0.4390 -0.7164  0.2458
  792MOL0     C 9178   2.726   5.663   0.347 -0.8641 -0.2926  0.2149
  792MOL0     C 9179   2.821   5.785   0.346  0.4658 -0.4270  0.0862
  792MOL0     C 9180   2.906   5.769   0.212 -0.6393 -0.3108 -0.7688
  792MOL0     C 9181   3.006   5.881   0.206 -0.2185 -0.6630 -0.4348
  792MOL0     O 9182   3.073   5.904   0.331  0.7563  0.3435 -0.4446
  792MOL0     C 9183   3.197   5.863   0.355  0.0051 -0.2570  0.4330
  792MOL0     C 9184   3.282   5.770   0.283  0.0285 -0.5261 -0.1139
  792MOL0     C 9185   3.404   5.735   0.326  0.5625  0.3804 -0.2142
  792MOL0     C 9186   3.460   5.602   0.259 -0.2060  0.0642  0.0259
  792MOL0     C 9187   3.459   5.802   0.438 -0.0848 -0.4008 -0.2150
  792MOL0     C 9188   3.580   5.764   0.511 -0.6867  0.1183  0.0720
  792MOL0     O 9189   3.615   5.826   0.626  0.4896 -0.1836 -0.4885
  792MOL0     C 9190   3.745   5.825   0.672 -0.5803  0.0115 -0.3546
  792MOL0     C 9191   3.751   5.852   0.812 -0.8165  0.5653 -0.2458
  792MOL0     C 9192   3.877   5.872   0.881  0.3666  0.7150 -0.0790
  792MOL0     C 9193   3.994   5.868   0.807 -0.1795  0.4181 -0.4592
  792MOL0     O 9194   4.119   5.881   0.873 -0.4617  0.7689  0.0095
  792MOL0     C 9195   4.225   5.803   0.824 -0.5786  0.3207 -0.2271
  792MOL0     C 9196   4.315   5.889   0.738 -0.2121 -0.1386 -0.4181
  792MOL0     C 9197   4.379   6.001   0.825 -1.1400 -0.2436 -0.1766
  792MOL0     C 9198   4.500   6.062   0.747 -0.1214 -0.8080  0.1322
  792MOL0     C 9199   4.548   6.196   0.810  0.3536  0.1186  0.2379
  792MOL0     C 9200   4.620   6.281   0.707 -0.1229  0.4963 -0.0506
  792MOL0     C 9201   4.680   6.421   0.748 -0.3525  0.1975 -0.1044
  792MOL0     C 9202   4.752   6.415   0.881 -0.5431  0.6516  0.7334
  792MOL0    Cl 9203   4.879   6.288   0.898  0.1431 -0.3269  0.7725
  792MOL0     C 9204   3.987   5.840   0.669  0.0678 -0.5889  1.1350
  792MOL0     C 9205   3.869   5.820   0.604  0.7986  0.8383  0.4512
  792MOL0     O 9206   3.636   5.667   0.467 -0.6627 -0.2369 -0.8056
  792MOL0     C 9207   3.396   5.915   0.485  0.6978  0.5767  0.0822
  792MOL0     C 9208   3.268   5.942   0.450  0.5205  0.4924  0.5799
  792MOL0     N 9209   2.692   5.560   0.575  0.1401 -0.3457 -0.3620
  792MOL0     N 9210   2.603   5.578   0.665 -0.5769  0.5182  0.6373
  792MOL0     C 9211   1.349   5.700   0.516 -0.3266 -0.0289 -1.2707
  792MOL0     C 9212   1.239   5.780   0.564  0.3533 -0.0164  0.2294
  792MOL0     C 9213   1.056   6.153   0.772 -0.0838  0.0693  0.4495
  792MOL0     C 9214   0.943   6.155   0.694 -0.3103 -0.2322 -0.2127
  792MOL0     C 9215   0.837   6.243   0.724  0.0933 -1.1601  0.5097
  792MOL0     C 9216   0.833   6.332   0.837  0.1884  0.2057  0.3215
  792MOL0     O 9217   0.721   6.414   0.846 -0.4358 -0.4075 -0.2310
  792MOL0     C 9218   0.682   6.476   0.972  0.3522 -0.1559 -0.3348
  792MOL0     C 9219   0.590   6.587   0.948  0.5013  0.0090  0.3102
  792MOL0     C 9220   0.543   6.654   1.077 -0.7860 -0.6427  0.1721
  792MOL0     C 9221   0.543   6.812   1.072 -0.1850  0.9700  0.6462
  792MOL0     C 9222   0.506   6.880   1.189 -0.6524 -0.2300  0.1416
  792MOL0     C 9223   0.493   6.943   1.289 -0.3559  0.1113 -0.3774
  792MOL0     C 9224   0.950   6.345   0.905 -0.9641 -0.5358 -0.1803
  792MOL0     C 9225   1.055   6.250   0.878 -0.0129  0.2540 -0.3816
  792MOL0     C 9226   1.183   6.275   0.957 -0.0189 -0.8564 -0.4952
  792MOL0     H 9227   1.378   6.082   0.504  0.2238 -1.1821  0.2418
  792MOL0     H 9228   1.572   5.941   0.445 -0.0406  2.3576  0.8748
  792MOL0     H 9229   1.613   5.471   0.449  4.6750 -1.7779  2.8419
  792MOL0     H 9230   1.538   5.546   0.587 -2.5705  0.5950 -1.1894
  792MOL0     H 9231   1.807   5.496   0.583 -2.9852 -1.6625  0.2774
  792MOL0     H 9232   1.831   5.629   0.472  1.7097  1.8548  1.1625
  792MOL0     H 9233   1.758   5.791   0.630 -1.1075 -0.6606  0.7367
  792MOL0     H 9234   1.697   5.652   0.735 -3.2760  0.3726 -1.6396
  792MOL0     H 9235   1.923   5.727   0.826  3.4681  0.8908 -0.7020
  792MOL0     H 9236   1.933   5.568   0.758  3.3724  0.3491 -0.5088
  792MOL0     H 9237   2.012   5.801   0.591  2.7640  1.8220  1.4467
  792MOL0     H 9238   2.043   5.636   0.561 -1.6045 -0.1029 -0.3654
  792MOL0     H 9239   2.122   5.810   0.802 -1.1228 -2.0827  3.2088
  792MOL0     H 9240   2.154   5.636   0.800  0.8445  1.2080  0.6372
  792MOL0     H 9241   2.276   5.822   0.573 -0.7664 -0.5955 -1.6812
  792MOL0     H 9242   2.265   5.648   0.576 -2.4884  1.2595 -1.0222
  792MOL0     H 9243   2.416   5.817   0.782  0.1462 -0.0973  0.5467
  792MOL0     H 9244   2.374   5.640   0.795  0.8758  0.1348  1.3223
  792MOL0     H 9245   2.487   5.789   0.453  0.6917 -0.5960 -2.5207
  792MOL0     H 9246   2.655   5.685   0.267 -0.6089  0.3001  0.1482
  792MOL0     H 9247   2.771   5.566   0.325 -2.3665 -0.9765  0.0731
  792MOL0     H 9248   2.764   5.878   0.343 -1.6883 -1.6739  0.1278
  792MOL0     H 9249   2.883   5.787   0.436  1.4790  2.1154 -0.6063
  792MOL0     H 9250   2.957   5.673   0.221  0.3586 -0.0306 -2.8531
  792MOL0     H 9251   2.840   5.773   0.126 -2.9699 -1.3204  0.8702
  792MOL0     H 9252   3.088   5.859   0.136 -0.5292  0.2297 -1.0927
  792MOL0     H 9253   2.968   5.976   0.167  0.2965 -0.5140 -0.5846
  792MOL0     H 9254   3.232   5.718   0.202  0.1078  1.2590 -1.3539
  792MOL0     H 9255   3.456   5.530   0.341 -0.9434  1.4154  1.2217
  792MOL0     H 9256   3.560   5.622   0.219 -0.0301 -2.7253 -1.1582
  792MOL0     H 9257   3.402   5.566   0.174  1.8645 -0.6947 -1.1269
  792MOL0     H 9258   3.663   5.856   0.876  0.6219  0.1984  1.8546
  792MOL0     H 9259   3.864   5.891   0.987 -0.2291 -1.1365  0.2261
  792MOL0     H 9260   4.283   5.761   0.907  0.0418  0.7515 -0.4374
  792MOL0     H 9261   4.194   5.716   0.765 -2.4898 -0.4167  1.7435
  792MOL0     H 9262   4.390   5.821   0.697 -0.4697  0.5355 -2.0648
  792MOL0     H 9263   4.257   5.930   0.654  0.0002  2.4888  0.6197
  792MOL0     H 9264   4.414   5.962   0.921  3.7760 -2.7427 -2.6073
  792MOL0     H 9265   4.310   6.083   0.846 -2.2350 -0.4009 -2.7417
  792MOL0     H 9266   4.469   6.085   0.645  1.1004 -0.2911 -0.1347
  792MOL0     H 9267   4.572   5.980   0.741  0.3509 -0.3303 -0.9824
  792MOL0     H 9268   4.469   6.251   0.863 -0.8824  1.0755 -2.4005
  792MOL0     H 9269   4.633   6.170   0.874  0.0911 -3.2799 -0.6255
  792MOL0     H 9270   4.549   6.293   0.625 -1.8342 -1.0354  1.1241
  792MOL0     H 9271   4.698   6.217   0.665  0.3087  0.5696  0.6171
  792MOL0     H 9272   4.593   6.480   0.779 -0.3602 -1.1411  2.7536
  792MOL0     H 9273   4.732   6.464   0.663 -1.7067 -1.4724 -1.8758
  792MOL0     H 9274   4.680   6.387   0.959 -1.8769  1.5197 -0.1539
  792MOL0     H 9275   4.789   6.514   0.908 -2.7222  1.6531  0.2207
  792MOL0     H 9276   4.076   5.833   0.606 -2.6095 -1.1608 -2.9173
  792MOL0     H 9277   3.867   5.802   0.497 -0.7042 -3.6071  0.9895
  792MOL0     H 9278   3.436   5.979   0.562  1.1155  1.3280 -0.7410
  792MOL0     H 9279   3.205   6.022   0.488 -3.2744 -0.3053 -3.2924
  792MOL0     H 9280   1.348   5.592   0.524  1.1075 -0.0237 -0.7090
  792MOL0     H 9281   1.160   5.719   0.605 -0.5280  0.4413 -0.7275
  792MOL0     H 9282   0.920   6.097   0.606  0.2389  0.5853 -0.9052
  792MOL0     H 9283   0.751   6.248   0.658 -0.1715  0.0154  0.9180
  792MOL0     H 9284   0.632   6.403   1.038 -0.8871 -0.4806 -1.5787
  792MOL0     H 9285   0.772   6.506   1.026  0.7778 -0.3199 -0.9488
  792MOL0     H 9286   0.504   6.558   0.886  1.0968 -1.4240  0.1083
  792MOL0     H 9287   0.639   6.663   0.887 -2.3577  1.5073 -0.3386
  792MOL0     H 9288   0.444   6.610   1.093 -0.8266 -1.4279 -1.9438
  792MOL0     H 9289   0.617   6.629   1.153  2.6375  3.6126 -1.3094
  792MOL0     H 9290   0.460   6.827   1.002 -0.9462 -1.7220  0.8343
  792MOL0     H 9291   0.647   6.836   1.048 -0.3185  2.0818  1.1391
  792MOL0     H 9292   0.483   7.010   1.372 -2.9034 -0.0396 -0.4792
  792MOL0     H 9293   0.974   6.425   0.974 -0.3586 -0.8953  0.0337
  792MOL0     H 9294   1.176   6.210   1.044 -2.5877 -1.1852 -0.8465
  792MOL0     H 9295   1.274   6.250   0.901  0.4420  0.0568 -0.1693
  792MOL0     H 9296   1.191   6.377   0.996  0.3781 -2.1045  2.9638
  793MOL0     O 9297   6.424   0.256   2.554  0.3924  0.7459  0.0854
  793MOL0     C 9298   6.380   0.354   2.600  0.8171 -0.7871 -0.1326
  793MOL0     O 9299   6.266   0.420   2.561 -0.4026 -0.3230 -0.1952
  793MOL0     C 9300   6.206   0.392   2.445 -1.7083 -0.7940  0.0568
  793MOL0     C 9301   6.185   0.260   2.412  0.2023 -0.1041  0.2601
  793MOL0     C 9302   6.151   0.224   2.280 -0.2448 -0.4538  0.3824
  793MOL0     C 9303   6.127   0.325   2.189 -0.2457 -0.0035 -0.1935
  793MOL0     O 9304   6.081   0.286   2.068  0.1276 -0.4186 -0.3581
  793MOL0     C 9305   6.093   0.386   1.963  0.0159  0.1107  0.3746
  793MOL0     C 9306   6.236   0.402   1.917 -0.1877 -0.2357 -0.1929
  793MOL0     C 9307   6.260   0.274   1.835  0.4237 -0.4402  0.3620
  793MOL0     C 9308   6.409   0.247   1.835 -0.1584 -0.2656 -0.0117
  793MOL0     C 9309   6.448   0.150   1.726 -0.3204 -0.2494 -0.5312
  793MOL0     C 9310   6.424  -0.003   1.775 -0.4605 -1.2645 -0.3197
  793MOL0     C 9311   6.469  -0.103   1.671 -0.6295  0.5103  0.4943
  793MOL0     C 9312   6.458  -0.251   1.698 -0.8943  0.0525  0.3380
  793MOL0     N 9313   6.557  -0.323   1.606  1.3305  0.4967  0.3240
  793MOL0     C 9314   6.605  -0.443   1.652 -0.3113 -0.1268  0.2900
  793MOL0     C 9315   6.669  -0.493   1.540  0.4149  0.6695  0.5061
  793MOL0     C 9316   6.736  -0.631   1.533  0.3057  0.6078 -0.0168
  793MOL0     C 9317   6.891  -0.639   1.535  0.2353 -0.2447  0.3199
  793MOL0     C 9318   6.960  -0.579   1.415 -0.2185 -0.6298 -0.0141
  793MOL0     C 9319   7.058  -0.681   1.359 -0.3778  0.2164  0.9161
  793MOL0     O 9320   6.996  -0.807   1.306  0.0050 -0.5157 -0.6900
  793MOL0     C 9321   7.084  -0.901   1.270  0.5240  1.2887 -0.1782
  793MOL0     C 9322   7.207  -0.870   1.214 -0.0502 -0.3638  0.3366
  793MOL0     C 9323   7.295  -0.966   1.170 -0.0372  0.0805  0.1477
  793MOL0     C 9324   7.423  -0.919   1.109  1.0261  0.3538  0.1144
  793MOL0     C 9325   7.267  -1.096   1.190  0.1937 -0.2083  0.5787
  793MOL0     C 9326   7.352  -1.204   1.148  0.0745 -0.5364  0.3475
  793MOL0     O 9327   7.421  -1.196   1.025 -0.5512 -0.8775 -0.6771
  793MOL0     C 9328   7.515  -1.292   1.001  0.0385  0.5084  1.3644
  793MOL0     C 9329   7.497  -1.433   0.984  0.0670 -0.8221 -0.5704
  793MOL0     C 9330   7.600  -1.522   0.975 -0.0739  0.2424  1.0071
  793MOL0     C 9331   7.732  -1.477   0.965  0.0685  0.5105 -0.0260
  793MOL0     O 9332   7.826  -1.574   0.949  0.3563 -0.0320  0.2962
  793MOL0     C 9333   7.972  -1.540   0.952  0.0321  0.4451  0.3133
  793MOL0     C 9334   8.036  -1.674   0.906  0.9590  0.3666  0.0440
  793MOL0     C 9335   8.003  -1.700   0.756  0.2171 -0.0381 -0.2834
  793MOL0     C 9336   8.045  -1.846   0.714 -0.2255  0.1561 -0.3532
  793MOL0     C 9337   7.993  -1.901   0.580 -0.9992 -0.5500 -0.1597
  793MOL0     C 9338   7.943  -2.050   0.575 -0.4140  0.0515 -0.0337
  793MOL0     C 9339   7.919  -2.089   0.431  0.4421 -0.5636  0.5143
  793MOL0     C 9340   7.880  -2.239   0.415 -0.7744 -0.2724  0.2070
  793MOL0    Cl 9341   8.015  -2.346   0.460 -0.2106 -0.0192 -0.4384
  793MOL0     C 9342   7.754  -1.340   0.978  0.2245 -0.3630 -0.2302
  793MOL0     C 9343   7.647  -1.253   0.986  0.3152  0.3725 -0.6243
  793MOL0     O 9344   7.374  -1.282   1.233  0.6127  0.3978  0.4942
  793MOL0     C 9345   7.143  -1.134   1.251 -0.2304 -0.6441  0.1140
  793MOL0     C 9346   7.055  -1.037   1.291 -0.2326 -0.9778  0.7067
  793MOL0     N 9347   6.649  -0.402   1.438  0.0679 -0.1180 -0.9073
  793MOL0     N 9348   6.575  -0.299   1.475  0.9839  0.2704  0.2035
  793MOL0     C 9349   6.143   0.460   2.229 -0.1006  0.1078  0.1168
  793MOL0     C 9350   6.188   0.492   2.352  0.9260  0.0557 -0.1636
  793MOL0     C 9351   6.455   0.420   2.714 -0.6528  0.9489  0.2467
  793MOL0     C 9352   6.385   0.506   2.794 -0.9820  0.4159  0.2219
  793MOL0     C 9353   6.442   0.564   2.909  0.8479  0.7442 -0.4220
  793MOL0     C 9354   6.569   0.532   2.949  0.1152  0.4081 -0.0736
  793MOL0     O 9355   6.612   0.563   3.070 -0.2795  0.5074 -0.6980
  793MOL0     C 9356   6.527   0.502   3.178 -0.1976  0.5067  0.5066
  793MOL0     C 9357   6.486   0.621   3.272  1.1131  1.0209  0.3027
  793MOL0     C 9358   6.598   0.695   3.346  0.8394 -0.3738 -0.7546
  793MOL0     C 9359   6.531   0.802   3.428  0.6644  0.8233 -0.1488
  793MOL0     C 9360   6.597   0.932   3.433  0.1910  0.0878  0.3709
  793MOL0     C 9361   6.658   1.030   3.454  0.0272  0.1618  0.0577
  793MOL0     C 9362   6.636   0.446   2.870  0.1921 -0.8434 -0.0579
  793MOL0     C 9363   6.586   0.384   2.754 -1.0331 -0.4164  0.3594
  793MOL0     C 9364   6.678   0.279   2.692  0.8330  0.5767 -0.2238
  793MOL0     H 9365   6.210   0.179   2.481  2.1205  2.1719  2.4161
  793MOL0     H 9366   6.162   0.121   2.250 -2.1237 -0.5678 -0.0525
  793MOL0     H 9367   6.050   0.485   1.983 -2.9013 -1.1320  0.6825
  793MOL0     H 9368   6.029   0.347   1.882  0.4130  0.4551 -0.1129
  793MOL0     H 9369   6.248   0.492   1.855  0.4692 -0.5439 -0.5246
  793MOL0     H 9370   6.295   0.417   2.007 -1.6425 -0.8492  0.9114
  793MOL0     H 9371   6.202   0.189   1.871  1.1018 -2.5981 -3.1454
  793MOL0     H 9372   6.216   0.295   1.737 -2.2315  2.3273  1.9455
  793MOL0     H 9373   6.457   0.345   1.819  1.6250 -0.9558  0.7472
  793MOL0     H 9374   6.436   0.221   1.938 -0.0678  0.3546  0.1257
  793MOL0     H 9375   6.555   0.162   1.706 -0.5468 -0.5466 -2.0573
  793MOL0     H 9376   6.394   0.171   1.634  0.5400  1.3749 -0.7024
  793MOL0     H 9377   6.479  -0.010   1.870 -0.0047  3.2584 -0.0394
  793MOL0     H 9378   6.317  -0.014   1.792 -0.4965  1.0776  1.5004
  793MOL0     H 9379   6.570  -0.074   1.641 -0.8189  0.5073 -0.1723
  793MOL0     H 9380   6.417  -0.095   1.575  0.9136 -1.2984 -0.5525
  793MOL0     H 9381   6.489  -0.270   1.801  0.5983 -0.8603 -0.2358
  793MOL0     H 9382   6.358  -0.284   1.669 -1.4565  0.7491  1.4321
  793MOL0     H 9383   6.601  -0.484   1.753  1.7263  1.7648  1.2403
  793MOL0     H 9384   6.697  -0.694   1.452  0.4983  0.1318  0.2549
  793MOL0     H 9385   6.703  -0.686   1.622  1.4384  0.3146  0.2405
  793MOL0     H 9386   6.931  -0.582   1.620 -3.4141  4.4359 -0.7265
  793MOL0     H 9387   6.928  -0.740   1.555 -1.6580 -0.7021  1.8206
  793MOL0     H 9388   6.885  -0.539   1.346 -2.1505 -0.0362  2.2995
  793MOL0     H 9389   7.014  -0.494   1.457 -0.4977 -1.0047  1.1355
  793MOL0     H 9390   7.112  -0.624   1.284 -2.6668  0.8717 -0.3168
  793MOL0     H 9391   7.122  -0.701   1.445 -0.5734 -1.3204  0.7394
  793MOL0     H 9392   7.236  -0.766   1.198  1.4106 -1.0365 -1.7754
  793MOL0     H 9393   7.514  -0.961   1.153  2.4680  1.5787 -1.5577
  793MOL0     H 9394   7.437  -0.811   1.113 -0.2116  0.6619 -2.2191
  793MOL0     H 9395   7.421  -0.949   1.004  0.4455  0.0577  0.2066
  793MOL0     H 9396   7.396  -1.471   0.990  0.4087 -1.9298 -1.4877
  793MOL0     H 9397   7.576  -1.628   0.978  1.0558 -0.1790 -1.6919
  793MOL0     H 9398   8.004  -1.469   0.875  1.8985 -0.0143  0.6080
  793MOL0     H 9399   8.003  -1.516   1.054 -1.4999 -0.6638  1.0630
  793MOL0     H 9400   8.143  -1.668   0.928  1.0192  0.9050 -0.3710
  793MOL0     H 9401   7.991  -1.753   0.967 -1.2954  2.4690  1.3033
  793MOL0     H 9402   8.052  -1.625   0.693 -3.0862  2.7744  0.1980
  793MOL0     H 9403   7.899  -1.687   0.726 -0.0894 -1.7941 -0.1073
  793MOL0     H 9404   8.010  -1.914   0.792  2.5873 -1.2210 -0.1631
  793MOL0     H 9405   8.153  -1.865   0.716 -0.1973  0.3453  1.1370
  793MOL0     H 9406   7.920  -1.827   0.546  0.3061  0.1523 -1.5613
  793MOL0     H 9407   8.077  -1.886   0.511  0.6025  4.2076  2.3511
  793MOL0     H 9408   7.851  -2.062   0.632  0.3823  2.5942  1.9817
  793MOL0     H 9409   8.015  -2.120   0.620 -1.0101 -0.0652  0.7449
  793MOL0     H 9410   7.998  -2.065   0.359  1.8059  0.7403  2.3320
  793MOL0     H 9411   7.833  -2.028   0.402 -1.2962 -2.0511  2.2487
  793MOL0     H 9412   7.864  -2.253   0.308 -0.2735 -2.4000  0.3648
  793MOL0     H 9413   7.799  -2.260   0.485  0.3224 -2.1403  0.9705
  793MOL0     H 9414   7.854  -1.300   0.974 -0.2690  1.1322  1.4159
  793MOL0     H 9415   7.676  -1.150   1.003 -2.9460  1.0738  1.5622
  793MOL0     H 9416   7.117  -1.239   1.254  1.4347 -1.2335 -2.5316
  793MOL0     H 9417   6.962  -1.061   1.341 -0.6236  1.9288  1.5530
  793MOL0     H 9418   6.134   0.548   2.166 -0.9178  0.8704  1.2470
  793MOL0     H 9419   6.200   0.592   2.393  0.3469  0.1543 -0.2381
  793MOL0     H 9420   6.280   0.523   2.769 -0.5888  0.9163 -1.1918
  793MOL0     H 9421   6.375   0.626   2.968 -0.2899  0.5547 -1.4847
  793MOL0     H 9422   6.426   0.479   3.142 -0.1949 -2.7441  2.2758
  793MOL0     H 9423   6.575   0.424   3.237 -0.5132  1.2863  1.8524
  793MOL0     H 9424   6.416   0.579   3.345  0.5584  1.6309  0.1319
  793MOL0     H 9425   6.436   0.691   3.205 -0.8888 -1.8687 -1.4297
  793MOL0     H 9426   6.647   0.626   3.415 -2.2049 -2.2877 -0.3040
  793MOL0     H 9427   6.676   0.732   3.279  1.6042  0.0157  0.3360
  793MOL0     H 9428   6.523   0.773   3.533  1.5496 -0.5545 -0.4424
  793MOL0     H 9429   6.430   0.816   3.389  0.3242 -1.8007 -0.3266
  793MOL0     H 9430   6.727   1.111   3.458  1.7516 -1.2950  1.3211
  793MOL0     H 9431   6.738   0.433   2.905 -0.0084  0.8991  1.3670
  793MOL0     H 9432   6.769   0.278   2.751 -0.5478 -2.5066  2.1127
  793MOL0     H 9433   6.626   0.184   2.706  0.5349  0.5447 -1.4232
  793MOL0     H 9434   6.688   0.289   2.583  1.1894 -0.8272 -0.3313
  794MOL0     O 9435   1.858   1.782   9.477  0.6607  0.1225 -0.4373
  794MOL0     C 9436   1.815   1.664   9.486  0.5703 -0.4658 -0.4298
  794MOL0     O 9437   1.900   1.553   9.514  0.5298  0.0569  0.5344
  794MOL0     C 9438   2.032   1.562   9.492 -0.6985 -0.0011  0.4505
  794MOL0     C 9439   2.114   1.532   9.600  0.7890 -0.6590  0.1625
  794MOL0     C 9440   2.249   1.519   9.570 -1.1528  0.9490  0.6247
  794MOL0     C 9441   2.312   1.524   9.441  0.0347 -0.0899 -0.3109
  794MOL0     O 9442   2.449   1.491   9.429  0.0121 -0.7526 -0.9786
  794MOL0     C 9443   2.534   1.494   9.308 -0.3531 -0.3922 -0.7452
  794MOL0     C 9444   2.671   1.548   9.335 -0.8059  0.7690  0.3792
  794MOL0     C 9445   2.667   1.692   9.390 -0.4617 -0.0474  0.2790
  794MOL0     C 9446   2.578   1.789   9.320  0.2749  0.6165 -0.3207
  794MOL0     C 9447   2.555   1.910   9.400  0.1041 -0.3545  0.3157
  794MOL0     C 9448   2.673   1.992   9.442 -0.6757  0.0746 -0.1770
  794MOL0     C 9449   2.760   2.021   9.316 -0.4132  0.8466  0.0446
  794MOL0     C 9450   2.858   2.138   9.354  0.1402 -0.1071  0.0621
  794MOL0     N 9451   2.939   2.157   9.237 -0.3210 -0.5558  0.2698
  794MOL0     C 9452   3.011   2.056   9.178 -0.2187 -0.4058 -0.0663
  794MOL0     C 9453   3.061   2.117   9.067 -0.8212 -0.5381 -0.0702
  794MOL0     C 9454   3.152   2.039   8.969 -0.1654 -0.0572  0.9226
  794MOL0     C 9455   3.299   2.074   9.002 -0.5295  0.1362  0.2076
  794MOL0     C 9456   3.382   2.006   8.900  0.6280 -0.2653 -0.2764
  794MOL0     C 9457   3.529   2.002   8.939 -0.3238  0.1942 -0.1375
  794MOL0     O 9458   3.593   2.133   8.944 -0.0165 -0.0689  0.6637
  794MOL0     C 9459   3.726   2.154   8.921 -0.1063  0.0926 -0.6538
  794MOL0     C 9460   3.777   2.277   8.970  0.6110  0.0700 -0.2560
  794MOL0     C 9461   3.909   2.309   8.957  0.0017 -0.2872  1.1560
  794MOL0     C 9462   3.944   2.448   8.990 -0.5772 -0.0133 -0.2229
  794MOL0     C 9463   4.004   2.213   8.907  0.5188  0.1801  0.2399
  794MOL0     C 9464   4.155   2.233   8.896  0.4958  0.4647  0.3332
  794MOL0     O 9465   4.217   2.139   8.815  1.4879  0.2671  0.2837
  794MOL0     C 9466   4.329   2.188   8.760 -0.0765 -0.7087 -0.0034
  794MOL0     C 9467   4.453   2.170   8.817 -0.7930  0.4066 -0.4222
  794MOL0     C 9468   4.568   2.209   8.757  0.2059  0.3837  0.3576
  794MOL0     C 9469   4.562   2.280   8.633 -0.4014  0.3972 -0.5749
  794MOL0     O 9470   4.673   2.322   8.565 -0.3907  0.4423  0.5778
  794MOL0     C 9471   4.793   2.354   8.640  0.5620  1.0804  0.1369
  794MOL0     C 9472   4.897   2.378   8.527 -0.5999  0.0277  0.9939
  794MOL0     C 9473   5.028   2.422   8.591  0.2377  0.5719  0.3647
  794MOL0     C 9474   5.147   2.411   8.492  0.2189  0.1912 -0.1423
  794MOL0     C 9475   5.273   2.435   8.578 -0.0693 -0.8346  0.2065
  794MOL0     C 9476   5.391   2.456   8.488  0.2164  1.1066  0.3824
  794MOL0     C 9477   5.447   2.599   8.487 -0.5503 -0.2517  0.9091
  794MOL0     C 9478   5.551   2.619   8.373 -0.5329  0.3797 -0.9129
  794MOL0    Cl 9479   5.639   2.772   8.405  0.0530  0.1400 -0.1631
  794MOL0     C 9480   4.441   2.282   8.567  0.8645  0.8312 -0.1926
  794MOL0     C 9481   4.320   2.228   8.624  0.3085 -0.2557 -0.2203
  794MOL0     O 9482   4.217   2.318   8.956 -0.5465 -0.0193 -0.1239
  794MOL0     C 9483   3.948   2.090   8.853 -0.6776 -0.9418 -0.5512
  794MOL0     C 9484   3.810   2.070   8.856  0.5107  0.0506 -0.7250
  794MOL0     N 9485   3.016   2.250   9.057 -0.5265  0.5244 -0.1094
  794MOL0     N 9486   2.935   2.265   9.154  0.4297 -0.8448 -1.1393
  794MOL0     C 9487   2.226   1.548   9.337  0.4370  0.3413 -0.2100
  794MOL0     C 9488   2.089   1.568   9.364  0.5827  0.1871 -1.0902
  794MOL0     C 9489   1.668   1.641   9.505 -0.1713 -0.6268  0.0700
  794MOL0     C 9490   1.609   1.517   9.553 -0.9166 -0.4093  0.2250
  794MOL0     C 9491   1.472   1.494   9.564  0.7439  0.5039  0.3218
  794MOL0     C 9492   1.382   1.601   9.534  0.5756 -0.7694  0.3410
  794MOL0     O 9493   1.243   1.593   9.543 -0.2710  0.5593  0.0308
  794MOL0     C 9494   1.178   1.472   9.595  0.4373 -0.0286 -0.3204
  794MOL0     C 9495   1.037   1.495   9.625  0.3676 -0.3939  0.6362
  794MOL0     C 9496   0.981   1.375   9.695  0.1707 -0.1466  0.5674
  794MOL0     C 9497   0.828   1.387   9.700 -0.1428 -0.3506  0.6228
  794MOL0     C 9498   0.780   1.257   9.744 -0.1136  0.5294  1.0805
  794MOL0     C 9499   0.754   1.150   9.791  0.3374  0.6888  0.5433
  794MOL0     C 9500   1.431   1.721   9.495 -1.1735 -0.6446 -0.3965
  794MOL0     C 9501   1.566   1.738   9.470 -0.5754 -0.2443 -0.2347
  794MOL0     C 9502   1.602   1.878   9.412  0.0131  0.2390 -0.4462
  794MOL0     H 9503   2.070   1.543   9.699  0.2684  0.1637 -0.1503
  794MOL0     H 9504   2.315   1.487   9.650  1.0915 -0.3599 -1.5654
  794MOL0     H 9505   2.496   1.530   9.213 -0.1973 -1.2638 -1.1490
  794MOL0     H 9506   2.545   1.386   9.292  3.1093 -0.4765  1.2926
  794MOL0     H 9507   2.729   1.476   9.394  0.9761 -0.8348 -3.0048
  794MOL0     H 9508   2.731   1.549   9.243  0.1344 -0.8281  0.9312
  794MOL0     H 9509   2.645   1.671   9.495  2.3094 -0.1963  0.9122
  794MOL0     H 9510   2.767   1.738   9.387 -0.9419  1.0614 -3.8025
  794MOL0     H 9511   2.617   1.797   9.218 -1.7317 -1.3047 -1.3260
  794MOL0     H 9512   2.480   1.740   9.323  1.0392 -1.0739  3.4859
  794MOL0     H 9513   2.501   1.881   9.490 -2.0685  3.4458  0.4442
  794MOL0     H 9514   2.488   1.984   9.355 -1.3949 -0.3852  2.3484
  794MOL0     H 9515   2.640   2.091   9.476  1.2724  1.1858 -1.3062
  794MOL0     H 9516   2.738   1.945   9.516  0.9764  0.5783 -1.2360
  794MOL0     H 9517   2.714   2.042   9.219  0.3603 -0.6579 -0.6840
  794MOL0     H 9518   2.819   1.932   9.292 -0.1279  0.8763  0.6194
  794MOL0     H 9519   2.807   2.232   9.379 -0.6162  0.4773 -3.2783
  794MOL0     H 9520   2.917   2.111   9.443 -0.8452 -1.0423  0.4667
  794MOL0     H 9521   3.028   1.952   9.202 -0.1509 -0.1702  0.9381
  794MOL0     H 9522   3.138   2.074   8.866  2.1692 -3.6088 -0.8218
  794MOL0     H 9523   3.139   1.931   8.980  2.0297 -0.6640 -1.3709
  794MOL0     H 9524   3.319   2.182   8.992  0.6039 -0.2152 -1.7896
  794MOL0     H 9525   3.320   2.034   9.102  1.4009 -1.0443 -0.6269
  794MOL0     H 9526   3.351   1.901   8.899  0.2604 -0.1849 -2.7540
  794MOL0     H 9527   3.374   2.055   8.802  3.1772 -2.3026 -1.6493
  794MOL0     H 9528   3.527   1.964   9.042 -1.4915  1.2513  0.2554
  794MOL0     H 9529   3.584   1.933   8.874  2.6701  1.5157  0.8231
  794MOL0     H 9530   3.719   2.355   9.019 -0.2930 -1.0389  0.4833
  794MOL0     H 9531   3.860   2.518   8.988 -0.0305  0.6489 -0.3323
  794MOL0     H 9532   4.021   2.478   8.918  1.3166  0.4231  1.8451
  794MOL0     H 9533   3.999   2.463   9.084 -0.3417 -1.3989 -0.1105
  794MOL0     H 9534   4.463   2.107   8.905  3.0939  3.1757  1.4554
  794MOL0     H 9535   4.667   2.185   8.794  0.0268  1.2140  1.4096
  794MOL0     H 9536   4.770   2.445   8.696  2.2438  3.2443 -2.4398
  794MOL0     H 9537   4.832   2.274   8.704  1.3069  1.0060 -0.3994
  794MOL0     H 9538   4.910   2.282   8.476 -2.5565  0.1417  0.1946
  794MOL0     H 9539   4.866   2.457   8.458  1.3634  0.0180  0.0286
  794MOL0     H 9540   5.053   2.353   8.671 -2.6868 -0.1853  0.7389
  794MOL0     H 9541   5.030   2.524   8.630  0.3782  0.6645  0.1211
  794MOL0     H 9542   5.136   2.489   8.415 -0.6106  0.2717  0.0456
  794MOL0     H 9543   5.150   2.315   8.439  2.1442  1.1887 -1.9773
  794MOL0     H 9544   5.254   2.535   8.617 -0.0899  0.5336 -2.9652
  794MOL0     H 9545   5.291   2.361   8.657 -3.1187  1.7241  3.6443
  794MOL0     H 9546   5.372   2.434   8.383 -1.2618  1.5740  0.5403
  794MOL0     H 9547   5.461   2.377   8.518 -2.0714 -1.1019  0.2129
  794MOL0     H 9548   5.483   2.618   8.589 -0.4608  0.1585  0.8048
  794MOL0     H 9549   5.359   2.663   8.473 -1.5646 -1.7778  0.0525
  794MOL0     H 9550   5.494   2.617   8.280  0.4856 -3.3150 -1.6450
  794MOL0     H 9551   5.618   2.534   8.358 -1.2161 -0.0119 -1.8724
  794MOL0     H 9552   4.434   2.321   8.465 -1.1081  1.3272  0.0860
  794MOL0     H 9553   4.221   2.231   8.579 -0.9769  2.5366  2.4371
  794MOL0     H 9554   4.018   2.022   8.806 -1.2622 -2.3535  0.5143
  794MOL0     H 9555   3.767   1.976   8.825  0.8813 -0.2033 -0.4925
  794MOL0     H 9556   2.252   1.558   9.232 -0.8166 -0.8990 -0.6697
  794MOL0     H 9557   2.023   1.601   9.285 -0.9950  1.0311  0.5272
  794MOL0     H 9558   1.686   1.448   9.587 -0.5399 -1.5792 -2.6656
  794MOL0     H 9559   1.443   1.396   9.600 -0.1780  0.8562  0.5894
  794MOL0     H 9560   1.189   1.390   9.524  1.3337 -0.3074  0.1187
  794MOL0     H 9561   1.229   1.437   9.686  1.5856 -0.9820 -1.3065
  794MOL0     H 9562   0.976   1.511   9.536 -2.4806  1.0787  2.7132
  794MOL0     H 9563   1.018   1.573   9.700 -2.5865  1.0343 -1.4082
  794MOL0     H 9564   1.008   1.284   9.641 -1.7732 -0.0740 -0.6105
  794MOL0     H 9565   1.023   1.365   9.796 -0.3584 -2.4667  0.6118
  794MOL0     H 9566   0.782   1.405   9.602  0.0984 -1.2563  0.3226
  794MOL0     H 9567   0.812   1.463   9.776  0.6627 -0.8224  1.2832
  794MOL0     H 9568   0.743   1.049   9.823 -0.0886 -0.1234 -1.9504
  794MOL0     H 9569   1.363   1.803   9.477 -1.3078 -0.1577  2.0799
  794MOL0     H 9570   1.512   1.941   9.408  1.5933  2.6329 -0.1664
  794MOL0     H 9571   1.674   1.934   9.472 -0.5756  3.5484 -2.5716
  794MOL0     H 9572   1.638   1.862   9.309  3.8200 -0.8027  0.8809
  795MOL0     O 9573   6.164   1.831   2.037  0.7448 -0.3688 -0.4408
  795MOL0     C 9574   6.055   1.778   2.025 -0.8300  0.9123 -1.2916
  795MOL0     O 9575   6.028   1.654   2.062  0.4029  0.1632  0.3619
  795MOL0     C 9576   6.123   1.564   2.099  0.2110  0.1489 -0.4635
  795MOL0     C 9577   6.113   1.448   2.024 -0.2894  0.4328  1.0293
  795MOL0     C 9578   6.192   1.335   2.056  0.0345  0.6665 -0.7218
  795MOL0     C 9579   6.292   1.348   2.155 -0.3906 -0.2103  0.3454
  795MOL0     O 9580   6.379   1.252   2.188  0.9666  0.3420 -0.1563
  795MOL0     C 9581   6.437   1.176   2.081  0.3024  0.2223 -0.4248
  795MOL0     C 9582   6.535   1.073   2.137 -0.5046  0.0857  0.3112
  795MOL0     C 9583   6.639   1.138   2.230 -0.0496  0.3013 -0.3135
  795MOL0     C 9584   6.743   1.043   2.296  0.0073 -0.3890  0.1168
  795MOL0     C 9585   6.888   1.040   2.244 -0.4387 -0.3163  0.7798
  795MOL0     C 9586   6.992   0.977   2.335 -1.2098 -0.1159  0.0682
  795MOL0     C 9587   6.961   0.833   2.389 -0.3230  0.2885  1.3229
  795MOL0     C 9588   6.975   0.732   2.271 -0.2086  0.1900  0.3534
  795MOL0     N 9589   7.107   0.712   2.213 -0.2497 -0.2338  1.1253
  795MOL0     C 9590   7.215   0.649   2.277  0.3902 -0.0122 -0.0254
  795MOL0     C 9591   7.294   0.613   2.172 -0.0475  0.9414 -0.3998
  795MOL0     C 9592   7.425   0.537   2.191 -0.1988  0.2646 -0.4263
  795MOL0     C 9593   7.450   0.468   2.061  1.3424 -0.3070 -0.4164
  795MOL0     C 9594   7.576   0.389   2.080 -0.6390 -0.2643  0.2039
  795MOL0     C 9595   7.700   0.473   2.064  0.3051  0.6237 -0.0810
  795MOL0     O 9596   7.696   0.543   1.942  0.4528  0.0843 -0.2824
  795MOL0     C 9597   7.807   0.602   1.889  0.3266  0.5329  0.1543
  795MOL0     C 9598   7.929   0.599   1.948 -0.0386  0.8220  0.1059
  795MOL0     C 9599   8.045   0.641   1.883  0.6788 -0.4565 -0.3340
  795MOL0     C 9600   8.172   0.612   1.953  0.2078  0.4458 -0.1704
  795MOL0     C 9601   8.029   0.719   1.764 -0.0592  1.7158 -0.3637
  795MOL0     C 9602   8.149   0.785   1.693  1.0418  0.5557 -0.3989
  795MOL0     O 9603   8.277   0.746   1.715  0.2554 -0.3588 -0.3316
  795MOL0     C 9604   8.376   0.805   1.638  0.1962  0.0799  0.3376
  795MOL0     C 9605   8.383   0.767   1.500 -0.2728 -0.2050 -0.9185
  795MOL0     C 9606   8.476   0.823   1.410  0.4832  0.3470 -0.6468
  795MOL0     C 9607   8.573   0.911   1.464  0.4041  0.4503 -0.0955
  795MOL0     O 9608   8.674   0.951   1.385 -0.2688  0.3239 -0.2050
  795MOL0     C 9609   8.643   1.083   1.328 -0.5714  0.2265 -0.2292
  795MOL0     C 9610   8.757   1.182   1.346 -0.0257  0.2218 -0.6202
  795MOL0     C 9611   8.699   1.320   1.336 -0.2061 -0.3688  0.4832
  795MOL0     C 9612   8.807   1.426   1.296  0.9252  0.1701  0.1275
  795MOL0     C 9613   8.843   1.420   1.155  0.1976 -0.0467 -0.1455
  795MOL0     C 9614   8.932   1.542   1.123 -0.8712 -0.4178  1.5202
  795MOL0     C 9615   8.980   1.524   0.980  0.1061 -0.6991 -0.4176
  795MOL0     C 9616   9.110   1.594   0.939  0.7082  0.6203  0.2784
  795MOL0    Cl 9617   9.124   1.769   0.979  0.0012 -0.2466  0.0855
  795MOL0     C 9618   8.562   0.951   1.599 -0.4528 -0.8795 -1.0540
  795MOL0     C 9619   8.464   0.898   1.687 -0.4992 -0.0532 -0.3864
  795MOL0     O 9620   8.109   0.874   1.624  0.2336 -0.1819  0.3334
  795MOL0     C 9621   7.902   0.716   1.701 -0.4856 -0.6033 -0.1595
  795MOL0     C 9622   7.793   0.662   1.763  0.1403 -0.3488  0.2123
  795MOL0     N 9623   7.246   0.657   2.052 -0.0901  0.3261 -0.1772
  795MOL0     N 9624   7.134   0.724   2.074 -0.3972 -0.1428 -0.5469
  795MOL0     C 9625   6.301   1.470   2.227  0.1460 -0.5495 -1.3067
  795MOL0     C 9626   6.223   1.578   2.191  0.5060  0.1522 -0.1176
  795MOL0     C 9627   5.947   1.863   1.969  0.2865 -0.8220  0.5342
  795MOL0     C 9628   5.972   2.000   1.955  0.5013 -0.2892 -0.0831
  795MOL0     C 9629   5.888   2.087   1.890  0.4376 -0.0494  0.1530
  795MOL0     C 9630   5.773   2.052   1.822 -0.7141  0.4261  0.8913
  795MOL0     O 9631   5.683   2.146   1.788 -0.0738  0.5558 -0.0126
  795MOL0     C 9632   5.586   2.197   1.882 -0.3706 -0.9342  1.2340
  795MOL0     C 9633   5.490   2.279   1.805  0.1364 -1.0163 -0.3897
  795MOL0     C 9634   5.422   2.198   1.691 -0.8094  0.1064  0.0109
  795MOL0     C 9635   5.315   2.272   1.607  0.4609 -0.8492 -0.2466
  795MOL0     C 9636   5.367   2.379   1.518 -0.6732  0.6028  0.5128
  795MOL0     C 9637   5.405   2.459   1.434 -0.0586  0.0368 -0.2885
  795MOL0     C 9638   5.744   1.917   1.833 -0.0025 -0.0425 -0.1232
  795MOL0     C 9639   5.827   1.820   1.904  0.2025 -0.8142  0.7700
  795MOL0     C 9640   5.790   1.677   1.907 -0.5970 -0.1363 -0.4195
  795MOL0     H 9641   6.051   1.443   1.935 -1.2920 -0.4640  1.7442
  795MOL0     H 9642   6.178   1.247   1.994 -0.8178 -1.2807  2.0258
  795MOL0     H 9643   6.477   1.258   2.021 -3.1352  2.3448 -0.0794
  795MOL0     H 9644   6.357   1.118   2.035 -0.1180  1.6291 -1.5201
  795MOL0     H 9645   6.482   0.988   2.181  1.4328 -1.7546 -0.6961
  795MOL0     H 9646   6.583   1.029   2.048 -1.3367 -1.1338  0.4354
  795MOL0     H 9647   6.701   1.215   2.183  1.3837  1.2783  2.9210
  795MOL0     H 9648   6.589   1.197   2.307 -0.6270 -1.1385  0.4563
  795MOL0     H 9649   6.752   1.070   2.401 -0.4084 -1.3351  0.3993
  795MOL0     H 9650   6.713   0.938   2.294  0.5863 -0.5775  0.9588
  795MOL0     H 9651   6.920   1.139   2.210 -1.8114 -0.3148 -0.6414
  795MOL0     H 9652   6.888   0.979   2.152 -0.3752  1.1832 -0.2563
  795MOL0     H 9653   7.085   0.963   2.279  0.6930  1.0568  2.7265
  795MOL0     H 9654   7.005   1.036   2.426  0.5091  0.8466 -0.7631
  795MOL0     H 9655   6.855   0.819   2.414 -1.9406  1.4318 -3.7134
  795MOL0     H 9656   7.035   0.811   2.467  0.7567 -2.1767 -0.2499
  795MOL0     H 9657   6.951   0.635   2.315  1.1419  0.5056  1.9030
  795MOL0     H 9658   6.909   0.755   2.187 -0.3398 -2.0222 -0.2137
  795MOL0     H 9659   7.236   0.633   2.382 -2.8389  2.8000  1.2287
  795MOL0     H 9660   7.422   0.464   2.273 -2.1661  1.7782  0.9220
  795MOL0     H 9661   7.502   0.611   2.215  1.3195 -1.7680  1.3539
  795MOL0     H 9662   7.361   0.408   2.038  0.4477 -0.2944  2.5967
  795MOL0     H 9663   7.457   0.545   1.983 -0.4686  2.0803  1.6071
  795MOL0     H 9664   7.577   0.339   2.177 -1.8182 -4.0056 -1.5238
  795MOL0     H 9665   7.575   0.302   2.013 -0.7190  0.2820 -0.5211
  795MOL0     H 9666   7.737   0.536   2.145  0.9551 -2.3844  2.1679
  795MOL0     H 9667   7.782   0.403   2.045 -1.4462 -0.4805 -4.7169
  795MOL0     H 9668   7.939   0.555   2.046  0.6140 -1.8388 -1.0420
  795MOL0     H 9669   8.217   0.696   2.007  3.2093 -1.5509  0.7260
  795MOL0     H 9670   8.256   0.587   1.887 -0.1186  0.4911 -0.6105
  795MOL0     H 9671   8.172   0.529   2.024  2.5706 -1.0294 -1.7341
  795MOL0     H 9672   8.318   0.687   1.464 -1.7419  1.1636 -1.3949
  795MOL0     H 9673   8.488   0.793   1.306 -2.0663  0.1745 -0.9587
  795MOL0     H 9674   8.630   1.072   1.220 -0.7962  2.3215 -0.4412
  795MOL0     H 9675   8.542   1.116   1.354 -1.0389 -1.2715 -0.0317
  795MOL0     H 9676   8.795   1.172   1.448  1.9888  0.9062 -1.2546
  795MOL0     H 9677   8.838   1.164   1.276 -0.9722 -1.9544 -1.2391
  795MOL0     H 9678   8.673   1.347   1.439 -1.9070  1.3697 -0.3255
  795MOL0     H 9679   8.611   1.331   1.272  0.4035  1.6846 -0.0980
  795MOL0     H 9680   8.898   1.399   1.350  0.4427 -1.0766  0.3517
  795MOL0     H 9681   8.777   1.527   1.328 -0.0229 -0.3390  0.9154
  795MOL0     H 9682   8.896   1.327   1.133  0.6065 -0.0630  0.8796
  795MOL0     H 9683   8.753   1.433   1.094 -0.4788 -0.3071  0.7837
  795MOL0     H 9684   9.018   1.546   1.191  0.5296  1.2458 -0.2329
  795MOL0     H 9685   8.867   1.629   1.136 -4.0675 -2.1344 -1.4086
  795MOL0     H 9686   8.907   1.548   0.903 -1.4758 -3.0385  0.2590
  795MOL0     H 9687   8.996   1.417   0.960 -1.5561 -1.2968  1.2052
  795MOL0     H 9688   9.127   1.582   0.831  1.4740 -1.0071  0.5407
  795MOL0     H 9689   9.200   1.538   0.966  0.5723  0.6556  0.8069
  795MOL0     H 9690   8.633   1.022   1.640  2.6388 -2.8495 -2.6256
  795MOL0     H 9691   8.458   0.918   1.793 -0.1898 -0.8618 -0.2097
  795MOL0     H 9692   7.892   0.747   1.597 -0.1604  1.0088  0.2692
  795MOL0     H 9693   7.699   0.660   1.710  0.4756  2.2356 -0.6113
  795MOL0     H 9694   6.370   1.474   2.310 -0.1428  2.7734 -1.0633
  795MOL0     H 9695   6.245   1.675   2.235 -2.6400  0.2997  1.4128
  795MOL0     H 9696   6.055   2.036   2.014  2.3109 -1.7663 -1.5925
  795MOL0     H 9697   5.920   2.191   1.890  0.2197  0.1007 -2.6913
  795MOL0     H 9698   5.529   2.117   1.929 -2.1757 -1.3472 -1.3956
  795MOL0     H 9699   5.642   2.255   1.955  0.1724 -1.2091  1.0422
  795MOL0     H 9700   5.547   2.363   1.765 -1.9110 -0.1831 -1.7424
  795MOL0     H 9701   5.411   2.308   1.875  1.5004  0.4456  0.6029
  795MOL0     H 9702   5.503   2.164   1.626 -0.6756 -2.1441  1.2511
  795MOL0     H 9703   5.365   2.117   1.739 -0.2238  0.1739  0.8503
  795MOL0     H 9704   5.250   2.317   1.683 -0.9511  0.5465 -2.1690
  795MOL0     H 9705   5.251   2.207   1.547 -0.3878 -0.9576  0.7493
  795MOL0     H 9706   5.419   2.534   1.358 -2.8314  0.7823 -0.1718
  795MOL0     H 9707   5.655   1.884   1.780  0.7718  0.7988 -2.0239
  795MOL0     H 9708   5.771   1.638   2.007  0.4922 -0.1540 -0.2015
  795MOL0     H 9709   5.698   1.672   1.848  0.7604  0.6348 -2.7530
  795MOL0     H 9710   5.868   1.618   1.857 -0.9751  0.7282 -2.1223
  796MOL0     O 9711  10.221   0.533   7.020  0.3862 -0.5677  1.0523
  796MOL0     C 9712  10.164   0.624   6.959  0.3705 -0.4389  0.3313
  796MOL0     O 9713  10.174   0.645   6.825  0.3843  0.0433  0.6549
  796MOL0     C 9714  10.232   0.557   6.742 -0.1827 -0.2457  0.4363
  796MOL0     C 9715  10.161   0.492   6.641 -0.9611  0.3488 -0.4621
  796MOL0     C 9716  10.220   0.411   6.545  0.0012  0.6127  0.2489
  796MOL0     C 9717  10.353   0.374   6.558  0.1662  0.1310 -0.2425
  796MOL0     O 9718  10.409   0.289   6.466 -0.6879 -0.0018 -0.2227
  796MOL0     C 9719  10.349   0.251   6.342 -0.7150  0.5009  0.4487
  796MOL0     C 9720  10.421   0.130   6.277 -0.4360 -0.2504  0.3273
  796MOL0     C 9721  10.376   0.112   6.135 -0.0582 -0.0308 -0.7140
  796MOL0     C 9722  10.468   0.004   6.071 -0.0008 -0.1687  0.2203
  796MOL0     C 9723  10.459  -0.008   5.917  0.1006 -0.2157  0.6565
  796MOL0     C 9724  10.601  -0.009   5.861  0.4254 -0.2954  0.8557
  796MOL0     C 9725  10.589  -0.028   5.705 -0.8608 -0.0570  0.0729
  796MOL0     C 9726  10.700  -0.127   5.649 -0.0196 -0.1536 -0.6229
  796MOL0     N 9727  10.835  -0.079   5.655 -0.0746  0.3674 -0.2967
  796MOL0     C 9728  10.935  -0.115   5.741  0.1439  0.2177 -0.3841
  796MOL0     C 9729  11.043  -0.043   5.703 -0.1865 -0.2414  0.2374
  796MOL0     C 9730  11.172  -0.011   5.780 -0.1947  0.3760  0.3276
  796MOL0     C 9731  11.211  -0.119   5.888  0.2875  0.8590 -0.4671
  796MOL0     C 9732  11.336  -0.064   5.956 -0.0981 -0.5322 -0.1364
  796MOL0     C 9733  11.379  -0.150   6.076  0.0171 -0.3712  0.7231
  796MOL0     O 9734  11.523  -0.134   6.101  0.5676  0.0881  0.3396
  796MOL0     C 9735  11.573  -0.203   6.202  0.1004  0.2174  0.0284
  796MOL0     C 9736  11.506  -0.293   6.287 -0.3363  0.6482 -0.4634
  796MOL0     C 9737  11.570  -0.375   6.387 -0.5135 -0.1698  0.4828
  796MOL0     C 9738  11.503  -0.491   6.450 -0.5864 -0.2543 -0.1741
  796MOL0     C 9739  11.706  -0.339   6.418  0.6211  0.0087 -0.9381
  796MOL0     C 9740  11.784  -0.417   6.515  0.8375 -0.4501  0.4747
  796MOL0     O 9741  11.875  -0.346   6.589  0.4588 -0.2905  0.3533
  796MOL0     C 9742  11.942  -0.406   6.689 -0.7071  1.0385  0.0710
  796MOL0     C 9743  11.982  -0.332   6.797 -0.1035  0.1537 -0.3613
  796MOL0     C 9744  12.046  -0.387   6.909 -0.2874 -0.0685 -0.9181
  796MOL0     C 9745  12.086  -0.524   6.905 -0.0473 -0.5023 -1.0668
  796MOL0     O 9746  12.136  -0.577   7.025  0.6763  0.2523  0.0688
  796MOL0     C 9747  12.185  -0.705   7.027 -0.2945  0.3727  0.1612
  796MOL0     C 9748  12.247  -0.727   7.169 -0.4631 -0.0579  0.4619
  796MOL0     C 9749  12.145  -0.742   7.284 -0.2886 -1.0863  0.6548
  796MOL0     C 9750  12.206  -0.781   7.413  0.4485 -0.0478 -0.7754
  796MOL0     C 9751  12.119  -0.751   7.531  0.1671 -0.1523 -0.7627
  796MOL0     C 9752  12.108  -0.607   7.588  0.2879  0.5101  0.2489
  796MOL0     C 9753  12.237  -0.542   7.620 -0.5434 -1.0672  0.5088
  796MOL0     C 9754  12.216  -0.401   7.683 -0.5344  0.3460  0.2627
  796MOL0    Cl 9755  12.132  -0.399   7.837 -0.4092  0.2997 -0.2267
  796MOL0     C 9756  12.073  -0.589   6.782  1.1379  0.4180 -0.5238
  796MOL0     C 9757  11.995  -0.535   6.681  0.6647 -0.1266  0.1568
  796MOL0     O 9758  11.770  -0.543   6.516  0.3024 -0.1888 -0.0502
  796MOL0     C 9759  11.769  -0.240   6.344 -0.5430  1.0344 -0.0470
  796MOL0     C 9760  11.706  -0.173   6.242 -0.1896  0.3704  0.4401
  796MOL0     N 9761  11.004   0.042   5.606  0.1357  0.8767  0.2097
  796MOL0     N 9762  10.883   0.015   5.572 -0.7305 -0.1352 -0.0518
  796MOL0     C 9763  10.431   0.446   6.652  0.1820 -0.1402 -0.8847
  796MOL0     C 9764  10.369   0.533   6.747 -0.0452  1.1252  0.1574
  796MOL0     C 9765  10.070   0.721   7.022 -0.0054 -0.4936 -0.2724
  796MOL0     C 9766  10.053   0.844   6.959 -0.0567 -0.2764  0.0004
  796MOL0     C 9767   9.948   0.927   6.997 -0.2293  0.5991  0.2372
  796MOL0     C 9768   9.870   0.901   7.112 -0.7441 -0.3660  0.5902
  796MOL0     O 9769   9.761   0.971   7.141 -0.3975 -0.4294 -0.5920
  796MOL0     C 9770   9.749   1.094   7.076 -0.0477  0.7084 -0.1013
  796MOL0     C 9771   9.625   1.162   7.125  0.0641  0.5377 -0.3886
  796MOL0     C 9772   9.500   1.086   7.090  0.0652 -0.2815 -0.5236
  796MOL0     C 9773   9.378   1.148   7.150 -0.4445 -0.3489  0.2228
  796MOL0     C 9774   9.389   1.145   7.298 -0.1758 -0.2924  0.1576
  796MOL0     C 9775   9.389   1.131   7.419  0.6086 -0.2330  0.3009
  796MOL0     C 9776   9.905   0.787   7.186  0.3417 -0.0598 -0.1241
  796MOL0     C 9777   9.998   0.687   7.137  0.7599 -0.8596  0.3786
  796MOL0     C 9778   9.994   0.558   7.201 -0.0174  0.0724 -1.4428
  796MOL0     H 9779  10.054   0.510   6.632 -1.6323 -2.3937  0.8806
  796MOL0     H 9780  10.153   0.360   6.477 -1.7305  1.6781  1.0911
  796MOL0     H 9781  10.346   0.336   6.272  1.4889  1.1830  1.0764
  796MOL0     H 9782  10.245   0.221   6.351 -0.6288 -0.0718 -0.4153
  796MOL0     H 9783  10.528   0.155   6.277 -0.0770 -1.7012 -0.3053
  796MOL0     H 9784  10.403   0.044   6.342  0.0973 -0.0664  0.7297
  796MOL0     H 9785  10.273   0.077   6.137  0.2361 -0.8956 -0.3742
  796MOL0     H 9786  10.385   0.208   6.083 -1.7825  0.7794  0.4257
  796MOL0     H 9787  10.565   0.051   6.090  0.6085 -0.4024 -2.0506
  796MOL0     H 9788  10.461  -0.093   6.121 -0.2243  0.1777  0.8707
  796MOL0     H 9789  10.398   0.074   5.880 -0.6334 -0.4408  1.3212
  796MOL0     H 9790  10.400  -0.097   5.893 -0.8489  1.0433 -1.9557
  796MOL0     H 9791  10.654   0.086   5.876  1.1141 -0.9565  2.8778
  796MOL0     H 9792  10.647  -0.095   5.910 -1.0567 -0.1593  2.5925
  796MOL0     H 9793  10.608   0.069   5.659  0.1497  1.5581  3.5279
  796MOL0     H 9794  10.491  -0.067   5.678 -0.4855 -1.9649  1.2676
  796MOL0     H 9795  10.701  -0.220   5.705  0.2213  0.3879  0.2913
  796MOL0     H 9796  10.676  -0.143   5.543 -0.1302 -1.9180 -0.3513
  796MOL0     H 9797  10.923  -0.185   5.823  0.2695 -1.6404 -1.8785
  796MOL0     H 9798  11.155   0.084   5.832 -0.5249  0.6171 -0.1980
  796MOL0     H 9799  11.256   0.003   5.711 -0.4984  0.0566 -0.1108
  796MOL0     H 9800  11.140  -0.134   5.969 -1.2761  1.3353 -1.7112
  796MOL0     H 9801  11.230  -0.218   5.847  1.6501  1.2163 -0.7492
  796MOL0     H 9802  11.413  -0.067   5.879  0.8952  4.2243  0.3833
  796MOL0     H 9803  11.314   0.037   5.989  0.2216 -0.8360  1.0596
  796MOL0     H 9804  11.325  -0.128   6.168  0.3179 -0.7995  1.0071
  796MOL0     H 9805  11.355  -0.251   6.040  1.1271  0.3102 -2.2388
  796MOL0     H 9806  11.408  -0.327   6.256 -0.5820  2.0295 -1.2701
  796MOL0     H 9807  11.398  -0.499   6.420 -1.1481 -1.4754  1.8432
  796MOL0     H 9808  11.502  -0.460   6.555 -1.0770  3.2827 -1.0842
  796MOL0     H 9809  11.549  -0.586   6.422 -1.7650  0.5027 -5.7895
  796MOL0     H 9810  11.952  -0.228   6.798 -1.2372 -0.0927 -2.4357
  796MOL0     H 9811  12.063  -0.333   7.001 -0.8781  0.1896 -0.9593
  796MOL0     H 9812  12.111  -0.785   7.013  1.3278 -1.3904  1.0778
  796MOL0     H 9813  12.264  -0.709   6.951  0.6049  1.0294  1.0430
  796MOL0     H 9814  12.297  -0.823   7.157  0.5426  0.4376  0.5918
  796MOL0     H 9815  12.325  -0.655   7.194  0.8675 -0.9773 -0.8654
  796MOL0     H 9816  12.058  -0.800   7.253 -1.4534  0.5377  0.7652
  796MOL0     H 9817  12.110  -0.640   7.306  2.4016  0.4678 -1.6232
  796MOL0     H 9818  12.307  -0.745   7.434  0.9065 -1.6810  0.0072
  796MOL0     H 9819  12.232  -0.888   7.414 -1.9510 -0.6777 -1.3073
  796MOL0     H 9820  12.017  -0.780   7.505  0.3889  0.3212 -2.2517
  796MOL0     H 9821  12.147  -0.810   7.619 -0.2789 -1.5834 -1.5508
  796MOL0     H 9822  12.058  -0.609   7.686 -2.0308  5.3388 -0.5455
  796MOL0     H 9823  12.050  -0.546   7.518  0.7594  0.6495 -0.0258
  796MOL0     H 9824  12.297  -0.524   7.531 -0.9463  2.4200  0.7987
  796MOL0     H 9825  12.297  -0.600   7.690  2.5883 -0.5459 -1.5731
  796MOL0     H 9826  12.181  -0.321   7.617  1.3805  1.7284  0.8454
  796MOL0     H 9827  12.319  -0.373   7.707 -0.4941  0.5429 -0.1311
  796MOL0     H 9828  12.131  -0.681   6.781  0.3255 -0.1132 -1.8101
  796MOL0     H 9829  11.986  -0.607   6.599  0.3922 -1.1956  1.1009
  796MOL0     H 9830  11.872  -0.210   6.356  0.2949 -0.5290 -2.6450
  796MOL0     H 9831  11.775  -0.110   6.188  1.8065 -1.8972  0.1839
  796MOL0     H 9832  10.538   0.427   6.650  0.4453  0.8939  0.9198
  796MOL0     H 9833  10.422   0.575   6.832  1.1081 -1.9686  1.1072
  796MOL0     H 9834  10.115   0.866   6.873 -1.2218 -1.1207 -1.0981
  796MOL0     H 9835   9.940   1.015   6.934 -1.1215  0.3731  0.0161
  796MOL0     H 9836   9.835   1.153   7.112  0.6797 -1.8718  2.8149
  796MOL0     H 9837   9.751   1.088   6.967  1.6828  0.4798 -0.0914
  796MOL0     H 9838   9.614   1.265   7.092  0.1432  0.8286  0.4693
  796MOL0     H 9839   9.644   1.162   7.232  1.5973  5.3609 -0.4350
  796MOL0     H 9840   9.481   1.075   6.983 -1.4941 -0.4216 -0.2605
  796MOL0     H 9841   9.501   0.982   7.124 -0.5743  0.4405  1.9463
  796MOL0     H 9842   9.294   1.081   7.129 -2.8182  2.8133 -1.3156
  796MOL0     H 9843   9.361   1.248   7.110 -2.4037 -0.7053  0.0343
  796MOL0     H 9844   9.388   1.116   7.525  1.3686  1.5679  0.5971
  796MOL0     H 9845   9.851   0.761   7.277 -1.2430  0.1566 -0.9758
  796MOL0     H 9846  10.094   0.545   7.244 -1.6720 -2.5594  2.2892
  796MOL0     H 9847   9.921   0.549   7.283  0.3575  1.9501 -0.8639
  796MOL0     H 9848   9.962   0.478   7.133 -2.1723  0.6261 -1.1692
  797MOL0     O 9849   2.198   4.689   0.982  0.3664 -0.4669  0.3004
  797MOL0     C 9850   2.179   4.752   1.087 -0.2344 -0.0870 -0.6043
  797MOL0     O 9851   2.268   4.771   1.184 -0.1478 -0.0525 -0.2146
  797MOL0     C 9852   2.404   4.751   1.177 -0.2515  0.1669  0.1795
  797MOL0     C 9853   2.483   4.759   1.297 -0.4535  0.5292  0.9556
  797MOL0     C 9854   2.621   4.742   1.288 -0.2680 -0.5058 -0.4451
  797MOL0     C 9855   2.689   4.713   1.165  0.6425 -0.5036 -0.4642
  797MOL0     O 9856   2.822   4.693   1.173 -0.3403 -0.2757  0.6554
  797MOL0     C 9857   2.879   4.660   1.051 -0.1742  0.0827 -0.0904
  797MOL0     C 9858   3.036   4.651   1.067 -0.1540 -0.3573 -0.5631
  797MOL0     C 9859   3.107   4.678   0.934  0.5953 -0.4131  0.8801
  797MOL0     C 9860   3.250   4.714   0.963  0.2880  1.0569 -0.6612
  797MOL0     C 9861   3.326   4.773   0.844 -0.7704 -0.6266  0.2145
  797MOL0     C 9862   3.461   4.825   0.892  0.1587  0.1412 -0.1113
  797MOL0     C 9863   3.510   4.941   0.803 -0.0487 -0.1953  0.0442
  797MOL0     C 9864   3.637   5.005   0.848 -0.8408 -0.6603 -0.6239
  797MOL0     N 9865   3.768   4.936   0.833  0.3940  0.4231  0.4996
  797MOL0     C 9866   3.830   4.927   0.709  0.6404 -0.3106  0.9437
  797MOL0     C 9867   3.947   4.864   0.721  0.5356  0.4175  0.1303
  797MOL0     C 9868   4.056   4.826   0.614  0.7481  0.2021  0.1519
  797MOL0     C 9869   4.168   4.927   0.585 -0.5053  0.4220 -0.1755
  797MOL0     C 9870   4.121   5.074   0.566  0.3952 -0.4669  0.2058
  797MOL0     C 9871   4.241   5.150   0.519  0.1640  0.9536 -0.0151
  797MOL0     O 9872   4.275   5.124   0.377  0.2738 -0.7969  0.1329
  797MOL0     C 9873   4.410   5.103   0.346 -0.3728  0.4798  0.4308
  797MOL0     C 9874   4.443   5.013   0.241 -0.0237 -0.0918  0.7240
  797MOL0     C 9875   4.573   4.976   0.210  0.6252  0.0305 -0.1084
  797MOL0     C 9876   4.584   4.896   0.089 -0.5718  0.5405 -0.2301
  797MOL0     C 9877   4.676   5.013   0.295 -0.3685 -1.1492  0.7020
  797MOL0     C 9878   4.820   4.972   0.281  0.0341  0.4380 -0.1508
  797MOL0     O 9879   4.919   5.051   0.323 -0.4258 -0.3058 -0.4492
  797MOL0     C 9880   5.031   4.987   0.361  0.7695  1.1277 -0.0070
  797MOL0     C 9881   5.040   4.886   0.459 -0.5699  0.3343 -0.4837
  797MOL0     C 9882   5.167   4.823   0.475  0.7391  0.1044  0.1337
  797MOL0     C 9883   5.279   4.860   0.399 -0.4770 -1.1667 -0.7186
  797MOL0     O 9884   5.395   4.794   0.416 -0.5517  0.6381  0.2566
  797MOL0     C 9885   5.389   4.647   0.411 -0.0998 -0.3126  0.0411
  797MOL0     C 9886   5.428   4.595   0.541 -0.0709  0.6157 -0.5978
  797MOL0     C 9887   5.441   4.439   0.550 -0.7724 -0.5620 -0.0495
  797MOL0     C 9888   5.484   4.387   0.696 -0.8261 -0.4911  0.1918
  797MOL0     C 9889   5.480   4.234   0.704 -0.2678  0.1195 -0.5184
  797MOL0     C 9890   5.543   4.169   0.579  0.4167 -0.7741 -0.5952
  797MOL0     C 9891   5.540   4.013   0.600  0.0597 -0.3748  0.6227
  797MOL0     C 9892   5.579   3.927   0.479 -0.6806 -0.2381 -0.1120
  797MOL0    Cl 9893   5.432   3.906   0.373  0.0684  0.3289 -0.2476
  797MOL0     C 9894   5.265   4.950   0.298  0.3712 -0.3072  0.2181
  797MOL0     C 9895   5.145   5.016   0.281  0.6963 -1.0694  0.3565
  797MOL0     O 9896   4.840   4.867   0.225  0.1441 -0.0942  0.7583
  797MOL0     C 9897   4.645   5.091   0.396 -0.2990  0.0136 -0.4731
  797MOL0     C 9898   4.520   5.141   0.421  0.3293 -0.5702  0.4432
  797MOL0     N 9899   3.963   4.847   0.858 -0.2099 -0.0395  0.2369
  797MOL0     N 9900   3.865   4.892   0.918 -0.2929  0.6649 -0.1466
  797MOL0     C 9901   2.606   4.705   1.050 -0.3544 -0.5438  1.0244
  797MOL0     C 9902   2.470   4.720   1.061  0.4124  0.0113  0.2020
  797MOL0     C 9903   2.039   4.800   1.105 -0.2273 -0.1077 -0.0293
  797MOL0     C 9904   1.934   4.714   1.070  0.1243  0.4778 -0.3169
  797MOL0     C 9905   1.806   4.752   1.088 -0.0203 -0.1504  0.1854
  797MOL0     C 9906   1.767   4.879   1.134  0.3473 -0.7562  0.0058
  797MOL0     O 9907   1.647   4.933   1.142  0.3927 -0.1478  0.9388
  797MOL0     C 9908   1.534   4.856   1.119  0.1990  0.2563  0.0360
  797MOL0     C 9909   1.409   4.937   1.129  0.6153  1.0278  0.9338
  797MOL0     C 9910   1.410   5.047   1.024 -0.0710  1.0067 -0.2930
  797MOL0     C 9911   1.280   5.122   1.005  0.0449 -0.2477 -0.8468
  797MOL0     C 9912   1.251   5.212   1.128  0.2345  0.3329 -0.4386
  797MOL0     C 9913   1.228   5.292   1.224  0.0116 -0.1168  0.1301
  797MOL0     C 9914   1.872   4.966   1.163 -0.0461  0.0930 -1.3705
  797MOL0     C 9915   2.007   4.929   1.152 -0.9118  0.5813 -1.2201
  797MOL0     C 9916   2.116   5.036   1.182 -0.1862  0.3559 -0.3542
  797MOL0     H 9917   2.430   4.783   1.389  1.2299  2.8687  1.4106
  797MOL0     H 9918   2.670   4.767   1.381 -0.8112  3.4334 -1.0729
  797MOL0     H 9919   2.852   4.735   0.976 -1.1496 -2.8494 -2.8639
  797MOL0     H 9920   2.839   4.564   1.018 -1.6370 -0.3602  2.6418
  797MOL0     H 9921   3.063   4.724   1.144  0.3769 -0.4764 -0.6274
  797MOL0     H 9922   3.068   4.552   1.101  1.3782 -0.9807 -3.4768
  797MOL0     H 9923   3.097   4.589   0.871  2.7394 -1.7090  2.2578
  797MOL0     H 9924   3.049   4.754   0.882  2.3671 -0.3090 -1.0775
  797MOL0     H 9925   3.252   4.790   1.042  0.2266  1.9200 -1.4616
  797MOL0     H 9926   3.290   4.616   0.989 -3.9502 -0.7955 -0.2333
  797MOL0     H 9927   3.267   4.863   0.824  2.3277  1.3303 -1.0931
  797MOL0     H 9928   3.334   4.710   0.756  0.4558 -0.1785 -0.0205
  797MOL0     H 9929   3.448   4.855   0.996  0.0934 -0.0068 -0.0760
  797MOL0     H 9930   3.541   4.751   0.895  0.0045 -0.0030  0.4645
  797MOL0     H 9931   3.434   5.020   0.803 -0.5495 -0.6679 -0.1248
  797MOL0     H 9932   3.522   4.905   0.700 -1.1449 -1.2995  0.2782
  797MOL0     H 9933   3.649   5.109   0.817 -0.8067  0.3611  2.5000
  797MOL0     H 9934   3.613   5.008   0.955 -5.6124 -2.0218 -1.4120
  797MOL0     H 9935   3.785   4.952   0.614  1.3655  0.0221  0.6790
  797MOL0     H 9936   3.999   4.807   0.523 -2.6976  0.6851  2.0241
  797MOL0     H 9937   4.103   4.731   0.643  1.1240  0.8271  1.7221
  797MOL0     H 9938   4.242   4.929   0.666  0.7120  1.1789 -1.2683
  797MOL0     H 9939   4.232   4.895   0.502  0.5717 -2.6918  1.6766
  797MOL0     H 9940   4.049   5.095   0.488  0.5460  0.8471  0.3976
  797MOL0     H 9941   4.088   5.103   0.666  1.7962  0.4693  0.4259
  797MOL0     H 9942   4.222   5.256   0.541 -3.1074  0.1300  1.7682
  797MOL0     H 9943   4.328   5.122   0.580  1.6324  0.4067 -2.2264
  797MOL0     H 9944   4.356   4.982   0.184 -1.4412  4.6626 -0.0944
  797MOL0     H 9945   4.611   4.794   0.118 -0.7551  0.5136 -0.1512
  797MOL0     H 9946   4.669   4.937   0.034  0.8858 -1.2657  0.5512
  797MOL0     H 9947   4.489   4.892   0.034 -0.4918  2.3882 -0.5548
  797MOL0     H 9948   4.966   4.859   0.534  1.3954 -1.8525  0.8095
  797MOL0     H 9949   5.182   4.754   0.557  1.1010  2.6063  2.2974
  797MOL0     H 9950   5.286   4.612   0.395  0.7544 -2.4014 -1.1939
  797MOL0     H 9951   5.447   4.604   0.330  1.3608 -0.5491  1.1761
  797MOL0     H 9952   5.524   4.638   0.572  1.1073 -1.9200 -0.4698
  797MOL0     H 9953   5.357   4.613   0.623  1.4007 -0.5224  1.0197
  797MOL0     H 9954   5.515   4.409   0.475 -0.5744 -4.8070  1.5678
  797MOL0     H 9955   5.340   4.406   0.527  0.1805 -3.7450 -0.0463
  797MOL0     H 9956   5.421   4.436   0.771  0.1444 -1.1897  1.5091
  797MOL0     H 9957   5.582   4.428   0.718 -0.2097 -0.6763 -1.9771
  797MOL0     H 9958   5.508   4.201   0.804 -1.2623 -0.5941 -0.4671
  797MOL0     H 9959   5.372   4.216   0.700 -1.0231  3.1929  1.8084
  797MOL0     H 9960   5.649   4.195   0.578  0.2165  0.1081 -2.1168
  797MOL0     H 9961   5.490   4.204   0.490  3.2477  2.4475 -1.1855
  797MOL0     H 9962   5.447   3.977   0.645  1.7328 -3.3635  1.9882
  797MOL0     H 9963   5.620   3.992   0.672  0.0259 -0.2563  0.6941
  797MOL0     H 9964   5.609   3.831   0.523 -2.4547 -0.4929  0.6317
  797MOL0     H 9965   5.663   3.973   0.427 -0.9408  0.0544 -0.2716
  797MOL0     H 9966   5.353   4.954   0.235  0.0777 -2.5599 -0.4204
  797MOL0     H 9967   5.142   5.098   0.209  1.6366 -1.0361  0.3509
  797MOL0     H 9968   4.732   5.126   0.451  1.2203  0.4740 -3.0287
  797MOL0     H 9969   4.513   5.213   0.502 -1.0090  1.2986 -1.2133
  797MOL0     H 9970   2.642   4.694   0.948 -2.9903 -0.3727 -0.0089
  797MOL0     H 9971   2.424   4.705   0.964  2.0927 -1.2946 -0.4508
  797MOL0     H 9972   1.955   4.613   1.037 -1.9060  0.1210 -0.6234
  797MOL0     H 9973   1.740   4.670   1.062  4.3147 -3.1382 -2.7244
  797MOL0     H 9974   1.539   4.817   1.017 -1.3183  3.0973 -1.2629
  797MOL0     H 9975   1.525   4.768   1.182 -3.1102 -0.3603 -1.0806
  797MOL0     H 9976   1.408   4.970   1.233 -0.8288 -1.6330  1.8387
  797MOL0     H 9977   1.323   4.873   1.110  2.0464 -0.6036 -0.4307
  797MOL0     H 9978   1.483   5.121   1.057  0.3551  0.0057  1.0984
  797MOL0     H 9979   1.440   5.004   0.928  2.2033  0.1260  0.7225
  797MOL0     H 9980   1.202   5.050   0.981 -0.7813  0.1331  0.6244
  797MOL0     H 9981   1.290   5.191   0.920 -0.4378  2.3497  1.0947
  797MOL0     H 9982   1.190   5.359   1.298  0.1244  0.7491 -0.5795
  797MOL0     H 9983   1.853   5.068   1.193  1.5740 -0.3604  1.6667
  797MOL0     H 9984   2.199   5.040   1.111  0.4282  1.9982  0.4076
  797MOL0     H 9985   2.072   5.136   1.195  0.3218  0.3965  1.3150
  797MOL0     H 9986   2.171   5.025   1.276  0.0243 -0.6196 -0.5834
  798MOL0     O 9987   2.011   7.769   4.919 -0.3296  0.8245 -0.1300
  798MOL0     C 9988   2.032   7.693   5.017  0.0084  0.7495 -0.3932
  798MOL0     O 9989   2.148   7.614   5.030 -0.1097 -0.0110 -0.7085
  798MOL0     C 9990   2.253   7.615   4.943  0.3902 -0.0201  0.1438
  798MOL0     C 9991   2.381   7.583   4.991 -0.7623  0.0454  0.3525
  798MOL0     C 9992   2.491   7.550   4.901  0.1015 -0.1039 -0.4598
  798MOL0     C 9993   2.468   7.566   4.766  0.2275  0.4719  0.1471
  798MOL0     O 9994   2.566   7.544   4.666  0.1559  0.7263 -0.1171
  798MOL0     C 9995   2.623   7.414   4.670 -0.1327 -0.1874  0.4214
  798MOL0     C 9996   2.772   7.426   4.656 -0.4332  0.9663 -0.1635
  798MOL0     C 9997   2.839   7.291   4.664 -0.7917  0.3193  0.4098
  798MOL0     C 9998   3.002   7.304   4.666 -0.4276 -0.3888  0.8414
  798MOL0     C 9999   3.079   7.164   4.690  0.6269 -0.6166 -0.5274
  798MOL0     C10000   3.226   7.179   4.719  0.1455 -0.3091  0.3731
  798MOL0     C10001   3.308   7.233   4.594 -0.2457  0.9966  0.4686
  798MOL0     C10002   3.461   7.219   4.594 -0.3809  0.2223  0.3640
  798MOL0     N10003   3.506   7.298   4.714  0.1410  0.4847  0.0268
  798MOL0     C10004   3.527   7.434   4.716 -0.4946 -0.5910  0.0238
  798MOL0     C10005   3.598   7.468   4.816  0.3886 -1.0152  0.0212
  798MOL0     C10006   3.626   7.609   4.878  1.3611  0.3437 -0.0344
  798MOL0     C10007   3.752   7.660   4.801  0.4846 -0.7106  0.4393
  798MOL0     C10008   3.794   7.803   4.837  0.3113  0.7077 -0.8907
  798MOL0     C10009   3.942   7.839   4.801  0.0267  0.6201 -0.0586
  798MOL0     O10010   3.948   7.869   4.662 -0.3778  0.2517  0.4999
  798MOL0     C10011   3.941   8.001   4.636 -0.8734 -0.1317  0.4131
  798MOL0     C10012   3.848   8.032   4.534  1.1475 -0.5043  0.8136
  798MOL0     C10013   3.837   8.161   4.474 -0.8312 -0.7067  0.3796
  798MOL0     C10014   3.745   8.169   4.352 -0.6283  0.0691 -1.0475
  798MOL0     C10015   3.921   8.264   4.528 -0.2591 -0.8804  0.1927
  798MOL0     C10016   3.917   8.411   4.482  0.1163  0.3816  0.1332
  798MOL0     O10017   3.963   8.516   4.557  0.1725  0.3239  0.2031
  798MOL0     C10018   3.979   8.632   4.489 -0.0008 -1.0111 -0.2127
  798MOL0     C10019   4.115   8.663   4.451  0.8279  0.3528  0.1724
  798MOL0     C10020   4.146   8.790   4.408  1.7108  0.4506  0.7764
  798MOL0     C10021   4.049   8.890   4.407  0.1976  0.6296  0.3080
  798MOL0     O10022   4.076   9.003   4.336 -0.0234  0.3905 -0.1230
  798MOL0     C10023   3.970   9.064   4.260  1.1192 -0.8184 -0.1147
  798MOL0     C10024   4.030   9.168   4.175 -0.3341  0.2555  0.1989
  798MOL0     C10025   3.929   9.249   4.094  0.9641  0.2911  0.0378
  798MOL0     C10026   3.993   9.341   3.992  0.3344 -0.3653 -0.7845
  798MOL0     C10027   3.889   9.431   3.921 -0.5500 -0.3576 -0.0897
  798MOL0     C10028   3.943   9.566   3.863 -0.6084 -0.2216  0.1671
  798MOL0     C10029   3.816   9.629   3.788  0.4261 -1.1672  0.0305
  798MOL0     C10030   3.729   9.713   3.877  0.4610  0.6940  0.1897
  798MOL0    Cl10031   3.824   9.834   3.985  0.3366  0.0964 -0.1843
  798MOL0     C10032   3.925   8.863   4.458  0.9442 -0.9225 -0.4885
  798MOL0     C10033   3.884   8.740   4.493  0.5085  0.2479  0.6761
  798MOL0     O10034   3.860   8.424   4.374 -0.5630 -0.3081  0.3438
  798MOL0     C10035   4.004   8.234   4.635 -0.2200  0.4302  0.8020
  798MOL0     C10036   4.016   8.107   4.691 -0.0876  0.6762  0.2586
  798MOL0     N10037   3.637   7.358   4.882 -0.4382  0.0473  0.2581
  798MOL0     N10038   3.580   7.255   4.820 -0.7105  0.2360 -0.1898
  798MOL0     C10039   2.337   7.589   4.714  0.5838  1.0978 -0.4262
  798MOL0     C10040   2.228   7.608   4.806  0.0153  0.2119  0.7670
  798MOL0     C10041   1.930   7.696   5.129 -0.0964  0.0806  1.1399
  798MOL0     C10042   1.803   7.749   5.089 -0.6653  0.5394 -1.4410
  798MOL0     C10043   1.709   7.792   5.182  0.3850  0.3327  0.0097
  798MOL0     C10044   1.731   7.766   5.320 -0.3635  0.2372 -0.3548
  798MOL0     O10045   1.632   7.815   5.409 -0.4738 -0.0328 -0.5875
  798MOL0     C10046   1.658   7.789   5.547 -0.7950  0.1671 -0.6708
  798MOL0     C10047   1.560   7.841   5.656 -0.8943  0.4826  0.0437
  798MOL0     C10048   1.412   7.796   5.644 -0.6540 -0.0630  0.5799
  798MOL0     C10049   1.391   7.647   5.683  0.1492 -0.0882 -0.0383
  798MOL0     C10050   1.263   7.608   5.625  0.7290  0.3266  0.0334
  798MOL0     C10051   1.160   7.559   5.580 -0.2955 -0.3144 -0.5639
  798MOL0     C10052   1.853   7.700   5.359 -0.8695 -1.1058 -1.2491
  798MOL0     C10053   1.954   7.673   5.266  0.1852  0.1325 -0.0248
  798MOL0     C10054   2.088   7.616   5.314  0.2067  0.4063 -0.1746
  798MOL0     H10055   2.400   7.566   5.097 -0.8966 -1.6142  0.1378
  798MOL0     H10056   2.587   7.523   4.944 -1.1609 -1.6375  1.5697
  798MOL0     H10057   2.594   7.363   4.577  0.3834  5.3135 -3.1824
  798MOL0     H10058   2.602   7.357   4.761  4.3481 -3.6019 -0.3156
  798MOL0     H10059   2.804   7.471   4.561 -1.6875  2.9122  0.2702
  798MOL0     H10060   2.811   7.494   4.732 -2.4208  2.0868 -0.0809
  798MOL0     H10061   2.818   7.247   4.761 -1.0056  0.6050  0.4940
  798MOL0     H10062   2.802   7.223   4.586  1.8043 -1.1975  0.3819
  798MOL0     H10063   3.044   7.341   4.572  2.0485  0.8661  2.3530
  798MOL0     H10064   3.022   7.380   4.742 -2.5473  0.6232  0.4712
  798MOL0     H10065   3.066   7.091   4.609 -0.0597  0.2251 -1.1951
  798MOL0     H10066   3.037   7.109   4.775  0.2486 -1.0486 -0.9861
  798MOL0     H10067   3.231   7.238   4.812  1.6740  0.4010 -0.1181
  798MOL0     H10068   3.273   7.085   4.748 -0.6074 -0.3725  1.4339
  798MOL0     H10069   3.291   7.340   4.577 -0.3921  0.6222 -2.0989
  798MOL0     H10070   3.276   7.178   4.505 -1.4851  3.7272 -0.8871
  798MOL0     H10071   3.495   7.115   4.598 -0.9170  0.0723  1.2748
  798MOL0     H10072   3.500   7.268   4.505 -0.2078 -0.4938  0.0361
  798MOL0     H10073   3.471   7.512   4.664 -0.6197 -0.6764  0.0297
  798MOL0     H10074   3.639   7.617   4.986  0.7641 -0.3992  0.0970
  798MOL0     H10075   3.544   7.677   4.852  1.5390 -0.0305 -1.6910
  798MOL0     H10076   3.834   7.587   4.799  2.4161  1.3469 -1.4190
  798MOL0     H10077   3.723   7.674   4.697  1.7655 -0.4295  0.1058
  798MOL0     H10078   3.718   7.872   4.801 -1.5091 -0.2632  0.8787
  798MOL0     H10079   3.804   7.818   4.945  1.4751  5.8934 -1.4911
  798MOL0     H10080   3.961   7.923   4.868  1.1948 -0.0389  0.4752
  798MOL0     H10081   4.011   7.762   4.836  2.5402  3.2126  1.1116
  798MOL0     H10082   3.795   7.946   4.495 -1.7506  2.0443 -1.4570
  798MOL0     H10083   3.651   8.222   4.368  0.7018  2.0806  0.5849
  798MOL0     H10084   3.715   8.066   4.328  3.1098 -2.2549  2.6808
  798MOL0     H10085   3.796   8.219   4.269  0.6451  0.6568  0.0506
  798MOL0     H10086   4.195   8.590   4.451  0.0958 -0.6079  3.1264
  798MOL0     H10087   4.239   8.812   4.357 -0.2344  3.2926 -1.9271
  798MOL0     H10088   3.912   8.994   4.200  1.7039 -1.1719 -0.2686
  798MOL0     H10089   3.905   9.122   4.326  0.0394  2.1257 -3.4948
  798MOL0     H10090   4.086   9.234   4.242  0.7213 -0.2113 -0.2077
  798MOL0     H10091   4.104   9.123   4.109  2.7440  0.6824  3.0524
  798MOL0     H10092   3.866   9.309   4.160  1.0333  1.5448 -0.9983
  798MOL0     H10093   3.850   9.192   4.045 -2.2965  1.0125  3.9237
  798MOL0     H10094   4.048   9.280   3.920  3.4534  0.1088  1.0074
  798MOL0     H10095   4.060   9.399   4.056 -3.0894  1.4017  1.4937
  798MOL0     H10096   3.838   9.370   3.847 -3.6001  1.6424  0.1903
  798MOL0     H10097   3.808   9.452   3.991  0.6350  1.0971  0.9230
  798MOL0     H10098   4.020   9.548   3.787  1.3773  3.3989  1.0646
  798MOL0     H10099   3.999   9.631   3.931 -0.0614 -1.4059  0.8607
  798MOL0     H10100   3.755   9.556   3.734 -0.3463  0.3650 -1.2747
  798MOL0     H10101   3.851   9.704   3.715 -3.4972  3.0628  1.9936
  798MOL0     H10102   3.672   9.640   3.936  1.5801  0.1189  0.6022
  798MOL0     H10103   3.660   9.765   3.810 -0.3785 -1.0692 -0.3818
  798MOL0     H10104   3.844   8.935   4.463  0.3170 -1.6627  0.5748
  798MOL0     H10105   3.782   8.721   4.526 -0.6513  3.8225 -0.4376
  798MOL0     H10106   4.079   8.300   4.678  1.0426 -0.1525 -0.4318
  798MOL0     H10107   4.090   8.090   4.769  0.1979  0.2643 -0.1041
  798MOL0     H10108   2.310   7.583   4.609  0.3003  2.4263 -0.4477
  798MOL0     H10109   2.126   7.609   4.769 -0.1194 -5.1337  0.2561
  798MOL0     H10110   1.775   7.761   4.985 -0.1293  0.3589 -1.6103
  798MOL0     H10111   1.614   7.839   5.163  0.4002  0.8758  1.1883
  798MOL0     H10112   1.667   7.680   5.554 -0.5009  0.2556  0.8479
  798MOL0     H10113   1.759   7.820   5.576 -1.9745  2.7793  1.0515
  798MOL0     H10114   1.559   7.950   5.666 -1.9226  0.3394  2.0165
  798MOL0     H10115   1.599   7.814   5.754 -0.8744  0.4122  0.0167
  798MOL0     H10116   1.360   7.857   5.719  0.5748  0.5527  0.9681
  798MOL0     H10117   1.373   7.812   5.544  1.0028  0.4898 -0.0131
  798MOL0     H10118   1.388   7.644   5.792  0.2275  1.1570  0.0091
  798MOL0     H10119   1.470   7.585   5.639 -0.7208  0.2654 -2.2040
  798MOL0     H10120   1.069   7.511   5.550  0.1024 -1.1764 -0.3899
  798MOL0     H10121   1.876   7.684   5.464  0.8698 -0.6675 -1.5398
  798MOL0     H10122   2.173   7.668   5.270 -0.6360  1.0340 -1.1231
  798MOL0     H10123   2.103   7.620   5.422  0.8560  0.9254 -0.2759
  798MOL0     H10124   2.104   7.515   5.276 -0.6539 -0.6676  2.1112
  799MOL0     O10125   9.623   9.208   4.443 -0.1329  0.5313  0.7428
  799MOL0     C10126   9.601   9.226   4.327 -0.4433 -1.0041  1.0207
  799MOL0     O10127   9.696   9.220   4.229  0.3469 -0.1268 -0.4302
  799MOL0     C10128   9.828   9.214   4.257  0.0804 -0.7458 -0.2453
  799MOL0     C10129   9.894   9.103   4.224 -0.5671  0.9685  0.0741
  799MOL0     C10130  10.032   9.088   4.234 -0.0008  0.0846 -0.1140
  799MOL0     C10131  10.106   9.203   4.283 -0.5735  0.8161 -0.9919
  799MOL0     O10132  10.245   9.211   4.288  0.1890  1.1280  0.3137
  799MOL0     C10133  10.330   9.102   4.333 -0.7207 -0.0046 -0.3953
  799MOL0     C10134  10.434   9.175   4.430 -0.4766  1.0500 -0.4211
  799MOL0     C10135  10.527   9.064   4.482  0.7571  0.1269  0.3557
  799MOL0     C10136  10.670   9.070   4.438 -0.0527 -0.1050  0.2997
  799MOL0     C10137  10.752   8.954   4.486 -0.0470  0.3516 -0.0075
  799MOL0     C10138  10.905   8.954   4.469  0.8227  0.4372  0.8316
  799MOL0     C10139  10.987   9.057   4.558  0.5910  0.2574 -0.5116
  799MOL0     C10140  11.105   9.119   4.493 -0.3354 -0.4074  0.3850
  799MOL0     N10141  11.192   9.010   4.438  0.8963  0.1377  0.2776
  799MOL0     C10142  11.239   8.910   4.517 -0.2819 -0.0504 -0.2351
  799MOL0     C10143  11.263   8.806   4.430 -0.5827 -0.0805 -0.1976
  799MOL0     C10144  11.267   8.665   4.467 -0.7086  0.0453  0.6081
  799MOL0     C10145  11.415   8.615   4.486 -0.4626  0.1495  0.3276
  799MOL0     C10146  11.411   8.470   4.524  0.0625  0.2550 -0.4769
  799MOL0     C10147  11.558   8.421   4.532 -0.1340  0.5100 -1.0409
  799MOL0     O10148  11.579   8.313   4.445 -0.1829  0.1093 -0.1854
  799MOL0     C10149  11.691   8.327   4.373 -0.1844 -0.3898 -0.4236
  799MOL0     C10150  11.816   8.330   4.436 -1.0820  0.3339  0.5590
  799MOL0     C10151  11.937   8.337   4.367 -0.2183  0.8122  0.7156
  799MOL0     C10152  12.058   8.333   4.451  0.6416 -0.0171  0.1039
  799MOL0     C10153  11.924   8.349   4.223 -0.5198 -0.1061  0.3906
  799MOL0     C10154  12.047   8.376   4.140  0.4390 -0.2431  0.5594
  799MOL0     O10155  12.164   8.329   4.185 -0.5192 -0.1580 -0.6384
  799MOL0     C10156  12.274   8.350   4.109 -0.1995 -0.1819 -0.3893
  799MOL0     C10157  12.392   8.388   4.167  0.6863  0.1896 -0.5714
  799MOL0     C10158  12.510   8.399   4.099 -0.3724 -0.5409 -0.3556
  799MOL0     C10159  12.524   8.369   3.965  0.2182 -0.2868  0.7649
  799MOL0     O10160  12.650   8.380   3.911  0.4982 -0.0367  0.3726
  799MOL0     C10161  12.656   8.385   3.771 -0.3858 -0.5061  0.8774
  799MOL0     C10162  12.802   8.393   3.714 -0.2845  0.5079 -0.0616
  799MOL0     C10163  12.875   8.527   3.738  0.5429  0.2137  0.4007
  799MOL0     C10164  13.010   8.516   3.674 -0.7715 -0.2988  0.4947
  799MOL0     C10165  13.007   8.571   3.527  0.4459  0.7012  0.2734
  799MOL0     C10166  13.015   8.721   3.526 -0.5447  0.5883 -0.1168
  799MOL0     C10167  12.970   8.776   3.388  0.0204  0.3445  0.6533
  799MOL0     C10168  13.082   8.760   3.285 -0.1826 -0.6261 -0.1607
  799MOL0    Cl10169  13.251   8.802   3.351 -0.1196  0.1913  0.0580
  799MOL0     C10170  12.405   8.344   3.901  0.4688 -0.5631  0.3189
  799MOL0     C10171  12.280   8.320   3.965  0.6408  0.2618 -0.3382
  799MOL0     O10172  12.020   8.419   4.029 -0.3546  0.1089  0.0410
  799MOL0     C10173  11.804   8.343   4.161 -0.0287 -0.6818  0.3225
  799MOL0     C10174  11.684   8.339   4.233  0.0970  0.3344 -0.1342
  799MOL0     N10175  11.231   8.845   4.302  0.9077  0.0426  0.5636
  799MOL0     N10176  11.196   8.967   4.305 -0.2389 -0.7103 -0.3966
  799MOL0     C10177  10.045   9.323   4.304  0.4757 -0.1296  0.7523
  799MOL0     C10178   9.905   9.326   4.296 -0.2852 -0.6788 -0.0779
  799MOL0     C10179   9.470   9.293   4.278  1.5201 -0.2982 -0.6012
  799MOL0     C10180   9.466   9.374   4.160 -0.2381 -0.3696 -0.5630
  799MOL0     C10181   9.343   9.417   4.110 -0.6625 -0.3573  0.4894
  799MOL0     C10182   9.229   9.392   4.180 -0.0006  0.1431  0.3608
  799MOL0     O10183   9.111   9.445   4.126  0.0382  0.1374  0.4199
  799MOL0     C10184   9.104   9.500   3.999  0.3056  0.4465  0.2041
  799MOL0     C10185   8.957   9.508   3.962  0.0563  0.3146 -0.1449
  799MOL0     C10186   8.906   9.371   3.934  0.4153  0.4332 -0.0820
  799MOL0     C10187   8.764   9.369   3.882 -0.6330 -0.3052  0.3176
  799MOL0     C10188   8.714   9.235   3.848 -0.1716 -0.8711 -0.7127
  799MOL0     C10189   8.652   9.128   3.831 -0.2046 -0.1112 -0.9493
  799MOL0     C10190   9.234   9.317   4.295 -0.1228  0.4974  0.8808
  799MOL0     C10191   9.355   9.270   4.350 -0.1378 -0.5080 -0.1034
  799MOL0     C10192   9.344   9.195   4.481  0.0080  0.3889 -0.1149
  799MOL0     H10193   9.827   9.026   4.186  0.5265  1.2669 -2.6859
  799MOL0     H10194  10.085   8.996   4.213 -0.5908 -1.1278  3.0452
  799MOL0     H10195  10.385   9.073   4.243 -2.3876  1.0380 -1.8208
  799MOL0     H10196  10.273   9.018   4.372  0.7450 -0.7316  0.2840
  799MOL0     H10197  10.488   9.258   4.383 -0.9422  1.9693  0.6194
  799MOL0     H10198  10.379   9.218   4.514  1.6116  1.4735  0.8175
  799MOL0     H10199  10.530   9.067   4.591  2.2807 -1.1780  0.3907
  799MOL0     H10200  10.490   8.969   4.443  0.0485  1.9536 -3.9637
  799MOL0     H10201  10.675   9.071   4.329 -2.9878 -1.6218  0.0216
  799MOL0     H10202  10.726   9.157   4.472  0.9608 -0.2241 -0.9994
  799MOL0     H10203  10.718   8.860   4.442  2.6904 -1.0712  0.6407
  799MOL0     H10204  10.728   8.951   4.593  0.5897 -0.4234  0.1260
  799MOL0     H10205  10.942   8.855   4.497  4.7850  0.6908 -2.5344
  799MOL0     H10206  10.932   8.962   4.364  0.9171  2.9068  0.9862
  799MOL0     H10207  11.018   9.011   4.653 -0.8776  1.4840  0.6050
  799MOL0     H10208  10.923   9.135   4.600 -0.2700 -1.3826  1.3700
  799MOL0     H10209  11.072   9.179   4.408  0.5275 -2.5991 -1.6078
  799MOL0     H10210  11.167   9.176   4.562  1.3656 -2.2319  0.4695
  799MOL0     H10211  11.237   8.900   4.625 -1.8283  1.8636 -0.0170
  799MOL0     H10212  11.230   8.617   4.376 -1.8691 -0.6563  1.4296
  799MOL0     H10213  11.200   8.641   4.549 -2.4018  0.2514 -0.6561
  799MOL0     H10214  11.468   8.621   4.391 -2.0871 -0.0318 -0.6196
  799MOL0     H10215  11.474   8.667   4.563  0.3831 -2.4163  1.5062
  799MOL0     H10216  11.360   8.459   4.620  0.6779  1.1492 -0.0266
  799MOL0     H10217  11.371   8.407   4.445  0.1891 -0.2914 -0.1104
  799MOL0     H10218  11.627   8.504   4.515  2.0148 -1.2357 -1.3373
  799MOL0     H10219  11.589   8.384   4.631 -0.6252 -1.5207 -1.5972
  799MOL0     H10220  11.817   8.328   4.545 -1.5722  1.1904  0.5848
  799MOL0     H10221  12.021   8.364   4.550 -3.3959  1.8758 -1.7659
  799MOL0     H10222  12.142   8.395   4.418  1.4497  1.4130  4.2129
  799MOL0     H10223  12.108   8.236   4.461  3.2045  0.9581 -2.0546
  799MOL0     H10224  12.386   8.413   4.272  1.0831 -1.1035 -0.2165
  799MOL0     H10225  12.598   8.428   4.156 -0.5308  0.1762 -0.4661
  799MOL0     H10226  12.608   8.293   3.735 -1.5385  0.3074  0.2779
  799MOL0     H10227  12.581   8.459   3.742 -0.8039 -0.5536  1.8184
  799MOL0     H10228  12.854   8.309   3.760 -1.5204  0.7316  1.9108
  799MOL0     H10229  12.806   8.372   3.607 -2.9696 -4.8727  0.5432
  799MOL0     H10230  12.877   8.543   3.846 -0.7346  0.0828  0.4586
  799MOL0     H10231  12.823   8.614   3.697  1.2315 -0.2239 -1.4802
  799MOL0     H10232  13.048   8.414   3.685  0.0630 -0.0476 -0.0186
  799MOL0     H10233  13.081   8.579   3.727 -2.1656  0.4331  1.5833
  799MOL0     H10234  13.080   8.525   3.459  1.9575  2.2003  0.8086
  799MOL0     H10235  12.919   8.532   3.474 -0.9464  3.0808  0.7124
  799MOL0     H10236  13.116   8.747   3.559 -0.2881 -0.2197 -0.2330
  799MOL0     H10237  12.936   8.764   3.588 -1.4290 -0.9408 -0.1364
  799MOL0     H10238  12.952   8.884   3.396  1.5276  0.6825 -0.1483
  799MOL0     H10239  12.879   8.727   3.352  0.3137  1.1847 -1.4081
  799MOL0     H10240  13.068   8.832   3.204 -1.7669  0.4028  0.9578
  799MOL0     H10241  13.088   8.662   3.236  1.0917 -0.2462 -0.8079
  799MOL0     H10242  12.414   8.327   3.794  1.9307  0.4122  0.2557
  799MOL0     H10243  12.197   8.288   3.903  2.0455  0.2278 -2.3301
  799MOL0     H10244  11.805   8.346   4.052 -0.1098 -1.3683  0.2990
  799MOL0     H10245  11.586   8.321   4.191  0.7525 -2.9035 -0.4875
  799MOL0     H10246  10.103   9.411   4.333  1.8047 -0.9069  0.5060
  799MOL0     H10247   9.850   9.417   4.316 -1.8142 -1.6454  0.2808
  799MOL0     H10248   9.561   9.376   4.109 -0.7587  1.5146 -1.5593
  799MOL0     H10249   9.353   9.469   4.016  1.7329 -1.2358  0.1958
  799MOL0     H10250   9.143   9.602   3.997 -0.6623  0.8291 -0.0049
  799MOL0     H10251   9.154   9.443   3.920 -0.3543  0.0757  0.0448
  799MOL0     H10252   8.955   9.561   3.867 -0.0167  0.0682 -0.2811
  799MOL0     H10253   8.889   9.548   4.037 -1.0479 -3.5010  1.1170
  799MOL0     H10254   8.971   9.315   3.866  0.7652 -0.6234  1.0670
  799MOL0     H10255   8.909   9.312   4.027 -2.8727  0.7685  0.3628
  799MOL0     H10256   8.778   9.421   3.787 -0.0930 -2.2597 -0.7268
  799MOL0     H10257   8.694   9.419   3.950  1.2207  0.1507  1.9943
  799MOL0     H10258   8.582   9.050   3.807  1.4346 -1.7200 -0.6453
  799MOL0     H10259   9.139   9.313   4.347 -0.6702  0.9489 -0.0516
  799MOL0     H10260   9.240   9.172   4.506 -0.6135  1.9128 -1.1468
  799MOL0     H10261   9.402   9.104   4.465  2.8423  2.1306 -0.5096
  799MOL0     H10262   9.389   9.256   4.559 -0.8091  1.0921 -0.1768
  800MOL0     O10263   6.137   7.520  10.082  0.1645  0.6552 -0.0706
  800MOL0     C10264   6.123   7.583  10.186  0.5310 -0.0620 -0.2787
  800MOL0     O10265   6.202   7.567  10.300  0.4915 -0.5019  0.0270
  800MOL0     C10266   6.313   7.499  10.296 -0.4171  0.2827  0.3207
  800MOL0     C10267   6.428   7.569  10.331  1.4375  0.2513 -0.4024
  800MOL0     C10268   6.550   7.505  10.339 -0.6357 -0.3351  0.1536
  800MOL0     C10269   6.566   7.372  10.310  0.5389  0.6014 -0.8528
  800MOL0     O10270   6.687   7.324  10.305  0.6574 -0.2086  0.0229
  800MOL0     C10271   6.708   7.188  10.258  0.0378 -0.2243 -0.4710
  800MOL0     C10272   6.861   7.176  10.254  0.8227 -0.0023 -0.0851
  800MOL0     C10273   6.901   7.028  10.229 -0.0703  0.4321 -0.2023
  800MOL0     C10274   7.045   7.012  10.266  0.1011  0.2775 -0.0695
  800MOL0     C10275   7.087   6.867  10.238 -0.5767  0.6716  0.0504
  800MOL0     C10276   7.230   6.844  10.226 -0.3545 -0.7841 -0.7708
  800MOL0     C10277   7.247   6.712  10.150 -0.2996  0.3371  0.3259
  800MOL0     C10278   7.398   6.677  10.153  0.6618  0.2099 -0.3540
  800MOL0     N10279   7.489   6.737  10.055  0.1996  0.0535  0.2289
  800MOL0     C10280   7.471   6.849   9.975 -0.2537  0.2254  0.0657
  800MOL0     C10281   7.601   6.871   9.915  0.1269  0.0304  0.2984
  800MOL0     C10282   7.655   6.982   9.836  0.1716  0.2519  0.3225
  800MOL0     C10283   7.796   6.949   9.775  0.7196  0.0595 -0.1041
  800MOL0     C10284   7.871   7.058   9.697 -0.0976  0.0483  0.2772
  800MOL0     C10285   8.019   7.031   9.714 -0.7189  0.7104 -0.2070
  800MOL0     O10286   8.043   6.926   9.615  0.4031  0.3595 -0.4782
  800MOL0     C10287   8.165   6.909   9.562  0.4857 -0.0400  0.1583
  800MOL0     C10288   8.285   6.959   9.620 -0.9411 -0.6388 -0.8362
  800MOL0     C10289   8.411   6.934   9.561  0.6112  0.8601 -0.3750
  800MOL0     C10290   8.532   6.983   9.642 -0.1994 -0.1639 -0.7081
  800MOL0     C10291   8.425   6.861   9.443 -0.1611 -1.0530  1.2796
  800MOL0     C10292   8.552   6.830   9.377 -0.4763  0.2196  0.1753
  800MOL0     O10293   8.538   6.714   9.305 -0.2283 -0.2521 -0.4990
  800MOL0     C10294   8.624   6.687   9.202  0.3925  0.0935 -1.3074
  800MOL0     C10295   8.657   6.782   9.103  0.0392 -0.2779  0.3755
  800MOL0     C10296   8.750   6.764   8.998 -0.8543  0.3953 -0.3591
  800MOL0     C10297   8.810   6.632   8.991  0.8624  0.2601  0.3677
  800MOL0     O10298   8.910   6.595   8.903  0.3388 -0.2678 -1.1520
  800MOL0     C10299   8.921   6.674   8.782  0.3678  0.8842 -0.4128
  800MOL0     C10300   9.023   6.615   8.685 -0.2972 -0.2402 -0.3566
  800MOL0     C10301   9.057   6.714   8.571  0.1617 -0.2969  0.2517
  800MOL0     C10302   9.192   6.698   8.484  0.1356  0.8782 -0.1037
  800MOL0     C10303   9.204   6.800   8.370 -0.3244  0.7241  0.0062
  800MOL0     C10304   9.355   6.803   8.320 -0.0549 -0.1113 -0.2847
  800MOL0     C10305   9.384   6.941   8.252  0.0238 -0.0142 -0.7514
  800MOL0     C10306   9.416   7.062   8.348 -0.6215  0.4639  0.0659
  800MOL0    Cl10307   9.273   7.152   8.408 -0.1703 -0.0757 -0.4414
  800MOL0     C10308   8.775   6.535   9.093  0.6086 -0.4032  0.1252
  800MOL0     C10309   8.678   6.562   9.189  0.1354 -0.4031 -0.1880
  800MOL0     O10310   8.663   6.873   9.408 -0.1762 -0.5355  0.0525
  800MOL0     C10311   8.307   6.828   9.370  0.2448 -0.1927 -0.3094
  800MOL0     C10312   8.178   6.843   9.437 -0.7055 -0.1641 -0.0969
  800MOL0     N10313   7.671   6.765   9.950 -0.5618 -0.3721 -0.1115
  800MOL0     N10314   7.610   6.682  10.019  0.5657 -0.0152  0.4723
  800MOL0     C10315   6.447   7.298  10.273  0.1400 -0.0985  0.8976
  800MOL0     C10316   6.326   7.364  10.269 -0.2564 -0.9719  0.1133
  800MOL0     C10317   6.014   7.677  10.208 -0.6915 -1.0472 -0.2708
  800MOL0     C10318   6.003   7.739  10.332 -0.3401  0.5097 -0.2786
  800MOL0     C10319   5.903   7.833  10.359  0.2058  0.5135 -0.2954
  800MOL0     C10320   5.825   7.884  10.258 -0.5775 -0.4519  0.1341
  800MOL0     O10321   5.745   7.996  10.302 -0.2645 -0.2070 -0.0322
  800MOL0     C10322   5.684   8.076  10.205 -0.6333 -0.1157  0.4306
  800MOL0     C10323   5.540   8.038  10.192  0.1149 -1.0290 -0.2651
  800MOL0     C10324   5.445   8.123  10.104  0.1018  0.0549  0.2394
  800MOL0     C10325   5.482   8.103   9.960 -0.4111 -0.1431 -0.8131
  800MOL0     C10326   5.437   8.219   9.881  0.0984 -0.5320  0.2384
  800MOL0     C10327   5.409   8.312   9.808  0.7523  0.2893  0.8531
  800MOL0     C10328   5.840   7.832  10.127 -0.0316  0.0309 -0.3665
  800MOL0     C10329   5.926   7.727  10.102 -0.4033 -0.2406 -0.5749
  800MOL0     C10330   5.930   7.679   9.964  0.6867  0.8498 -0.1298
  800MOL0     H10331   6.418   7.670  10.370  1.1879 -0.2419  0.8832
  800MOL0     H10332   6.640   7.563  10.359 -1.6950  1.8338 -0.9935
  800MOL0     H10333   6.659   7.153  10.166 -3.0197  1.7235  0.2604
  800MOL0     H10334   6.667   7.124  10.337 -0.0265  0.9677  0.4821
  800MOL0     H10335   6.907   7.243  10.180 -2.3332 -0.1939 -2.3968
  800MOL0     H10336   6.907   7.207  10.349 -0.9685  2.4360  0.0658
  800MOL0     H10337   6.838   6.960  10.287 -1.4388  1.4778 -0.4107
  800MOL0     H10338   6.889   6.997  10.124 -1.0730  0.2028 -0.0331
  800MOL0     H10339   7.114   7.075  10.210 -0.0932  1.2707  0.7793
  800MOL0     H10340   7.058   7.029  10.373  1.3678  1.2496 -0.3598
  800MOL0     H10341   7.036   6.839  10.146  0.1389  2.9541 -1.1137
  800MOL0     H10342   7.046   6.794  10.308  1.7984 -2.0218 -1.1619
  800MOL0     H10343   7.276   6.929  10.175 -0.1964 -0.0267  0.5937
  800MOL0     H10344   7.275   6.837  10.325  0.1878  0.7576 -0.8705
  800MOL0     H10345   7.210   6.722  10.048  0.8146 -0.0147 -0.1256
  800MOL0     H10346   7.183   6.632  10.189 -1.8710 -0.3738 -3.3585
  800MOL0     H10347   7.444   6.699  10.250  0.7821  4.4363 -1.1754
  800MOL0     H10348   7.407   6.569  10.136  2.5100  0.4740 -1.2757
  800MOL0     H10349   7.389   6.921   9.975  1.4224  2.2542 -1.4392
  800MOL0     H10350   7.656   7.064   9.908  1.1970 -0.4747  1.1670
  800MOL0     H10351   7.588   7.010   9.754  2.3717 -0.3545 -1.8187
  800MOL0     H10352   7.848   6.919   9.866 -0.0055  2.3379  1.1394
  800MOL0     H10353   7.777   6.863   9.709 -1.2680 -1.2459  2.0206
  800MOL0     H10354   7.842   7.055   9.592 -1.2393  0.2223  0.5722
  800MOL0     H10355   7.844   7.160   9.729  1.2265  0.5026  0.0161
  800MOL0     H10356   8.075   7.123   9.698  0.4951  0.5797  2.6157
  800MOL0     H10357   8.052   6.991   9.811 -2.3296  3.3041  1.5456
  800MOL0     H10358   8.284   7.012   9.715 -0.7489 -1.4877 -0.3497
  800MOL0     H10359   8.583   7.070   9.598  0.5676  1.9478  3.7815
  800MOL0     H10360   8.613   6.912   9.659  1.4497  1.9974  1.1726
  800MOL0     H10361   8.503   7.004   9.745 -3.4362  2.0071 -1.8997
  800MOL0     H10362   8.609   6.878   9.116  0.3680 -0.1555  0.6691
  800MOL0     H10363   8.762   6.853   8.937 -0.8740  1.1009  0.6444
  800MOL0     H10364   8.823   6.685   8.735 -0.4103 -2.2776  0.2822
  800MOL0     H10365   8.956   6.774   8.811 -1.7268  1.5972 -0.1330
  800MOL0     H10366   9.123   6.594   8.723 -0.2789 -1.8357 -1.2382
  800MOL0     H10367   8.980   6.522   8.647 -1.4696 -0.1436  0.6447
  800MOL0     H10368   9.066   6.819   8.601  1.6954  0.0152 -1.1262
  800MOL0     H10369   8.975   6.712   8.497  1.8672  0.4601 -1.7618
  800MOL0     H10370   9.202   6.598   8.442 -0.0574 -0.3817  2.6617
  800MOL0     H10371   9.265   6.721   8.562  0.0937 -0.5331  0.3796
  800MOL0     H10372   9.143   6.771   8.284  1.8654  0.1536 -1.4276
  800MOL0     H10373   9.176   6.898   8.410 -0.8979  0.9445 -0.9045
  800MOL0     H10374   9.379   6.727   8.246  1.2236 -0.2594  0.2608
  800MOL0     H10375   9.418   6.785   8.408 -2.0232 -1.9893  0.8288
  800MOL0     H10376   9.306   6.967   8.179 -1.4163 -5.1471 -1.4358
  800MOL0     H10377   9.467   6.929   8.182  0.6634  1.1283 -0.2068
  800MOL0     H10378   9.469   7.147   8.304 -1.8274  0.7158 -0.9778
  800MOL0     H10379   9.479   7.029   8.431 -1.0201  0.3642  0.3282
  800MOL0     H10380   8.836   6.450   9.120  2.9143  1.3101  0.5631
  800MOL0     H10381   8.643   6.497   9.268 -1.6263  1.7291  0.8787
  800MOL0     H10382   8.303   6.784   9.271 -0.2249 -0.5081 -0.1490
  800MOL0     H10383   8.088   6.804   9.389 -0.7312 -0.9099  0.5429
  800MOL0     H10384   6.425   7.207  10.218  0.7779  0.2589  0.0215
  800MOL0     H10385   6.230   7.319  10.248  0.1526 -3.5744  3.0649
  800MOL0     H10386   6.055   7.702  10.420 -1.1772  1.6839  0.7368
  800MOL0     H10387   5.893   7.867  10.462  0.6713 -2.3875  0.8106
  800MOL0     H10388   5.688   8.179  10.242 -0.5666 -0.1467  0.5127
  800MOL0     H10389   5.735   8.066  10.109 -1.0805  0.0424  0.1779
  800MOL0     H10390   5.488   8.039  10.288 -0.7088  0.3695 -0.7063
  800MOL0     H10391   5.526   7.934  10.160 -1.1177 -0.8894 -0.2569
  800MOL0     H10392   5.343   8.102  10.139  0.2915  0.8676  1.3084
  800MOL0     H10393   5.455   8.229  10.129 -1.5408 -0.0672  1.5657
  800MOL0     H10394   5.432   8.017   9.915  0.5831 -0.5245 -1.2142
  800MOL0     H10395   5.591   8.095   9.954 -0.1795  0.8278  1.2649
  800MOL0     H10396   5.376   8.388   9.740 -0.7124 -1.7767 -0.8422
  800MOL0     H10397   5.784   7.883  10.048 -0.4471 -0.2103 -0.2298
  800MOL0     H10398   6.028   7.647   9.927 -1.1729 -1.6119 -3.4021
  800MOL0     H10399   5.871   7.590   9.942 -0.4075  1.2909  0.9319
  800MOL0     H10400   5.892   7.755   9.895 -2.3207 -0.0223  0.4532
  801MOL0     O10401   4.507   2.611   0.389  0.0921  0.5803  0.1160
  801MOL0     C10402   4.458   2.504   0.350  0.3540  0.8158  0.0140
  801MOL0     O10403   4.519   2.416   0.274 -0.2667  0.9812  0.4807
  801MOL0     C10404   4.646   2.428   0.225 -0.9784 -0.3834  0.3307
  801MOL0     C10405   4.748   2.523   0.242 -0.0699  0.4398  0.5165
  801MOL0     C10406   4.874   2.513   0.198  0.4844 -0.0141  0.7466
  801MOL0     C10407   4.909   2.398   0.130 -0.5176  0.5070  0.2779
  801MOL0     O10408   5.032   2.376   0.072  0.3888 -0.2290  0.0038
  801MOL0     C10409   5.144   2.455   0.113  1.4563  0.0800 -0.2075
  801MOL0     C10410   5.271   2.401   0.049  1.3035 -0.5978 -1.0625
  801MOL0     C10411   5.324   2.281   0.130 -0.0308 -0.5779  0.1438
  801MOL0     C10412   5.470   2.275   0.097  0.8143 -1.1838  0.1841
  801MOL0     C10413   5.536   2.169   0.183  0.2931  0.0158  0.1856
  801MOL0     C10414   5.689   2.165   0.153 -0.4138 -1.0510 -0.1257
  801MOL0     C10415   5.764   2.094   0.263 -0.2445  0.4971 -0.0745
  801MOL0     C10416   5.914   2.076   0.219  0.5602  0.1303  0.6901
  801MOL0     N10417   5.925   1.964   0.126 -0.4952 -0.0840 -0.3103
  801MOL0     C10418   5.923   1.824   0.159  0.4099 -0.6262  1.0454
  801MOL0     C10419   5.935   1.763   0.033 -0.0993 -0.7479 -0.5330
  801MOL0     C10420   5.936   1.621   0.005 -0.1174 -0.0239  0.2399
  801MOL0     C10421   6.057   1.574  -0.091  0.7451 -0.1879 -0.3464
  801MOL0     C10422   6.017   1.456  -0.172  0.3004  0.1406  0.1458
  801MOL0     C10423   6.128   1.432  -0.282  0.2040 -0.7195  0.0889
  801MOL0     O10424   6.228   1.349  -0.219 -0.3038  0.0895 -0.5015
  801MOL0     C10425   6.356   1.388  -0.236 -0.0889  0.3581  0.6297
  801MOL0     C10426   6.421   1.488  -0.173  0.6408 -0.0834  0.6922
  801MOL0     C10427   6.548   1.526  -0.200 -0.6849 -0.0955  0.5191
  801MOL0     C10428   6.595   1.647  -0.134  0.3110  0.6690 -1.3446
  801MOL0     C10429   6.615   1.460  -0.311 -0.1489 -0.5630 -0.2842
  801MOL0     C10430   6.755   1.493  -0.356 -0.7010 -0.2188 -0.1671
  801MOL0     O10431   6.777   1.473  -0.485  0.3933 -0.6611 -0.0379
  801MOL0     C10432   6.898   1.433  -0.522 -0.3921  0.1279  0.5443
  801MOL0     C10433   6.981   1.360  -0.433 -1.2826 -0.2417 -0.7254
  801MOL0     C10434   7.116   1.328  -0.463  0.3758 -0.0366 -0.7893
  801MOL0     C10435   7.153   1.352  -0.594 -0.1920  0.2584  1.0536
  801MOL0     O10436   7.278   1.326  -0.648 -0.4883  0.1762  0.1179
  801MOL0     C10437   7.386   1.356  -0.560 -0.2461  0.1440  0.0139
  801MOL0     C10438   7.518   1.368  -0.641  0.1635  0.4363  0.5058
  801MOL0     C10439   7.563   1.223  -0.671  0.9014  0.4049 -0.2816
  801MOL0     C10440   7.689   1.236  -0.753  0.6480  0.7357 -0.0727
  801MOL0     C10441   7.733   1.086  -0.785  0.7758  0.1608  0.1752
  801MOL0     C10442   7.883   1.103  -0.791 -0.2527  0.3136 -0.3944
  801MOL0     C10443   7.941   0.963  -0.828  0.7694 -0.4076  0.0967
  801MOL0     C10444   8.088   0.952  -0.875 -0.5015 -0.6249 -0.6197
  801MOL0    Cl10445   8.132   1.052  -1.013  0.2659 -0.4149  0.2598
  801MOL0     C10446   7.069   1.420  -0.687  0.1725  0.3451 -0.8013
  801MOL0     C10447   6.944   1.467  -0.650  0.5785 -0.1916  0.0772
  801MOL0     O10448   6.830   1.557  -0.276  0.1704  0.1217  0.5549
  801MOL0     C10449   6.558   1.347  -0.362  0.8234  0.1049  0.7020
  801MOL0     C10450   6.422   1.315  -0.332 -0.3672  0.1955 -0.9476
  801MOL0     N10451   5.956   1.866  -0.063  0.6319 -0.3213 -0.3368
  801MOL0     N10452   5.943   1.985  -0.011  0.0035  0.8195  0.8296
  801MOL0     C10453   4.818   2.299   0.102  0.5613 -0.3383 -0.7808
  801MOL0     C10454   4.686   2.314   0.150 -0.8908  1.0797  0.5022
  801MOL0     C10455   4.326   2.466   0.400  0.1111  0.4793 -0.1201
  801MOL0     C10456   4.222   2.503   0.328  0.1082 -0.1155  0.1860
  801MOL0     C10457   4.093   2.477   0.380  1.1041  0.5056 -0.4444
  801MOL0     C10458   4.070   2.397   0.490 -0.0478  0.2642 -0.9606
  801MOL0     O10459   3.936   2.367   0.511  0.0176  0.3747 -0.1659
  801MOL0     C10460   3.910   2.288   0.621  0.6394 -0.0878 -0.5600
  801MOL0     C10461   3.763   2.245   0.605  0.2502  0.3401 -0.0923
  801MOL0     C10462   3.666   2.364   0.619  0.3441 -0.3067 -0.3584
  801MOL0     C10463   3.532   2.315   0.664  0.2862  1.1684  0.2927
  801MOL0     C10464   3.417   2.392   0.612 -0.4835  0.2170 -0.0982
  801MOL0     C10465   3.326   2.461   0.578  1.3117  0.0798 -0.0499
  801MOL0     C10466   4.183   2.346   0.554 -0.5092  0.1499 -0.6410
  801MOL0     C10467   4.312   2.373   0.509 -0.5370  0.1792  0.1852
  801MOL0     C10468   4.428   2.316   0.578  0.2400 -0.0325 -0.0890
  801MOL0     H10469   4.737   2.617   0.296  1.0389  0.2299  1.1239
  801MOL0     H10470   4.943   2.592   0.224 -0.0147  0.8966 -0.5648
  801MOL0     H10471   5.155   2.447   0.222 -0.2190  1.2070  0.0764
  801MOL0     H10472   5.136   2.561   0.091 -1.7382  0.5804  2.6457
  801MOL0     H10473   5.242   2.363  -0.049 -1.3411 -2.6511  0.3821
  801MOL0     H10474   5.340   2.486   0.038  1.3634 -0.6088 -0.7875
  801MOL0     H10475   5.307   2.298   0.236 -0.7353  0.2116 -0.0854
  801MOL0     H10476   5.278   2.183   0.111 -0.1307 -0.9834  2.2939
  801MOL0     H10477   5.478   2.259  -0.011 -0.1497  2.4570 -0.5479
  801MOL0     H10478   5.521   2.369   0.114 -3.2477  0.8674  2.7035
  801MOL0     H10479   5.493   2.071   0.163 -0.5242  0.5207 -0.5943
  801MOL0     H10480   5.518   2.179   0.290 -0.8044 -3.0842  0.3951
  801MOL0     H10481   5.694   2.118   0.055  0.4227  0.6213 -0.9162
  801MOL0     H10482   5.732   2.263   0.134 -0.8769 -0.5505  1.2675
  801MOL0     H10483   5.717   2.000   0.291 -1.9323  1.9250  2.2448
  801MOL0     H10484   5.753   2.150   0.356 -0.7308  0.6686 -0.2336
  801MOL0     H10485   5.963   2.160   0.170  1.6331 -1.1309 -0.4994
  801MOL0     H10486   5.970   2.048   0.309  0.5663 -0.2143  0.5787
  801MOL0     H10487   5.892   1.773   0.249 -0.5326  0.7004  1.5063
  801MOL0     H10488   5.840   1.599  -0.043 -0.7294 -2.0957  2.2348
  801MOL0     H10489   5.932   1.561   0.096  0.1863 -3.8126 -2.0269
  801MOL0     H10490   6.096   1.655  -0.153  1.8265 -0.1377  0.3780
  801MOL0     H10491   6.139   1.545  -0.025 -2.4688 -2.6456  3.0092
  801MOL0     H10492   6.005   1.360  -0.121 -2.6035  0.1817 -0.2846
  801MOL0     H10493   5.923   1.475  -0.225  0.7689  2.2387  0.0029
  801MOL0     H10494   6.088   1.387  -0.373  1.4782 -1.7788  0.0302
  801MOL0     H10495   6.179   1.526  -0.307  0.7445 -1.5705 -2.3369
  801MOL0     H10496   6.358   1.537  -0.099 -1.5080  0.2678 -1.2605
  801MOL0     H10497   6.617   1.717  -0.215  0.9303 -0.4387 -2.1551
  801MOL0     H10498   6.684   1.628  -0.073 -1.5836  0.3136  1.4853
  801MOL0     H10499   6.517   1.704  -0.083  1.4765  0.7746  0.4214
  801MOL0     H10500   6.947   1.335  -0.333  1.4099 -0.7691  0.1343
  801MOL0     H10501   7.174   1.271  -0.390  0.4063  0.6115 -0.3032
  801MOL0     H10502   7.365   1.454  -0.516 -3.4378 -0.5493  0.3053
  801MOL0     H10503   7.399   1.283  -0.480 -1.2450  0.9794  0.9648
  801MOL0     H10504   7.510   1.432  -0.729 -1.5276  0.0881  0.3577
  801MOL0     H10505   7.585   1.414  -0.568  1.9061 -1.7640  0.3702
  801MOL0     H10506   7.483   1.174  -0.726 -0.5653  3.0492 -0.6646
  801MOL0     H10507   7.578   1.171  -0.576  5.3737 -0.0444 -1.0059
  801MOL0     H10508   7.772   1.285  -0.702  0.0972  0.0542  1.5309
  801MOL0     H10509   7.671   1.288  -0.848  0.0935  1.1588  0.2547
  801MOL0     H10510   7.711   1.017  -0.702 -0.1961 -0.2385 -0.3955
  801MOL0     H10511   7.702   1.049  -0.883  2.9880 -2.3768  0.3212
  801MOL0     H10512   7.920   1.143  -0.696 -0.6788 -0.5963  0.1797
  801MOL0     H10513   7.899   1.175  -0.872 -0.0046  3.4206  2.2247
  801MOL0     H10514   7.881   0.909  -0.902  0.4127 -0.0769  0.1400
  801MOL0     H10515   7.937   0.902  -0.737 -1.3822  1.5124  1.4066
  801MOL0     H10516   8.116   0.848  -0.890  0.4332 -0.4668 -0.0432
  801MOL0     H10517   8.158   0.988  -0.799  0.0538  0.9138 -1.8116
  801MOL0     H10518   7.099   1.441  -0.789 -0.3769 -1.1162 -1.2929
  801MOL0     H10519   6.870   1.514  -0.713  0.7918  1.5358  1.0543
  801MOL0     H10520   6.613   1.279  -0.426  1.6513  1.1589  0.2668
  801MOL0     H10521   6.372   1.241  -0.394 -2.9023  1.6008 -0.7377
  801MOL0     H10522   4.847   2.211   0.046  0.2119  0.6032 -2.5080
  801MOL0     H10523   4.607   2.242   0.130  0.1930  0.5946 -2.5867
  801MOL0     H10524   4.242   2.577   0.251 -0.7782 -1.6702 -1.6425
  801MOL0     H10525   4.006   2.494   0.317  0.6059 -1.2911 -0.3122
  801MOL0     H10526   3.965   2.194   0.631  0.0565 -0.4153 -0.3897
  801MOL0     H10527   3.914   2.348   0.712 -0.5438  0.3807 -0.8014
  801MOL0     H10528   3.750   2.172   0.686  0.9326  1.2708  0.8837
  801MOL0     H10529   3.736   2.194   0.512  0.1687 -1.0210  0.6457
  801MOL0     H10530   3.712   2.428   0.695  0.2711 -0.8269  0.1276
  801MOL0     H10531   3.663   2.417   0.524 -0.2646 -0.6067 -0.5065
  801MOL0     H10532   3.538   2.318   0.773 -0.5288  1.3585  0.3397
  801MOL0     H10533   3.513   2.211   0.636  1.2498  0.5781  1.7651
  801MOL0     H10534   3.231   2.495   0.543  2.0683 -0.2671 -2.6078
  801MOL0     H10535   4.169   2.275   0.636  0.4752 -3.0061 -3.0249
  801MOL0     H10536   4.474   2.234   0.521  1.6118  0.9096 -0.3951
  801MOL0     H10537   4.501   2.396   0.594 -0.4251  1.0056 -1.9003
  801MOL0     H10538   4.392   2.277   0.673  1.9470  3.6220  2.2930
  802MOL0     O10539   2.536   5.319   5.649 -0.2717 -0.7561 -0.5322
  802MOL0     C10540   2.522   5.396   5.551 -0.4220 -0.0872  0.4120
  802MOL0     O10541   2.596   5.417   5.445  0.1194 -0.6513  0.2575
  802MOL0     C10542   2.723   5.351   5.445  0.4074 -0.8132  0.3367
  802MOL0     C10543   2.813   5.338   5.557 -0.3752 -0.5725  0.2606
  802MOL0     C10544   2.936   5.282   5.534 -0.0444  0.1267 -0.6836
  802MOL0     C10545   2.977   5.244   5.403  1.0068  0.0761  0.7284
  802MOL0     O10546   3.101   5.196   5.380  0.0154 -0.2655 -0.3844
  802MOL0     C10547   3.100   5.056   5.409  0.5038 -0.0092 -0.9267
  802MOL0     C10548   3.232   4.997   5.416  0.4443  0.5902  0.9165
  802MOL0     C10549   3.297   5.017   5.557  0.0356  0.0748  0.3045
  802MOL0     C10550   3.439   5.076   5.544  0.5045  0.1887 -0.3139
  802MOL0     C10551   3.500   5.070   5.682 -0.4799 -0.3113 -0.1960
  802MOL0     C10552   3.626   5.159   5.691  1.1645  0.1472 -0.0110
  802MOL0     C10553   3.605   5.311   5.685  0.5732  0.1800 -0.3438
  802MOL0     C10554   3.724   5.395   5.734 -0.1568 -0.6474 -0.5352
  802MOL0     N10555   3.857   5.364   5.675 -0.4952  0.3972 -0.3451
  802MOL0     C10556   3.925   5.427   5.578  0.9791  0.8430  0.2000
  802MOL0     C10557   4.024   5.346   5.537 -0.0331  0.1106  0.2797
  802MOL0     C10558   4.126   5.378   5.429  0.5536 -0.5089 -0.0426
  802MOL0     C10559   4.195   5.257   5.365  0.6592  0.5638  0.0946
  802MOL0     C10560   4.265   5.289   5.232 -0.2904 -0.1688 -0.1835
  802MOL0     C10561   4.400   5.356   5.269  0.2717 -0.4852  0.9686
  802MOL0     O10562   4.487   5.263   5.317 -0.7226  0.1001  0.2011
  802MOL0     C10563   4.613   5.300   5.341  0.6254  0.1780  0.7305
  802MOL0     C10564   4.690   5.379   5.253  0.1142 -0.2124  0.0360
  802MOL0     C10565   4.827   5.393   5.264  0.2076  0.1896  0.2943
  802MOL0     C10566   4.893   5.474   5.154  0.3586 -0.2955  0.3629
  802MOL0     C10567   4.886   5.341   5.379 -0.5130  0.2782  0.5617
  802MOL0     C10568   5.033   5.332   5.389 -0.3020  0.2151 -0.6295
  802MOL0     O10569   5.121   5.346   5.285 -0.0665  0.4182  0.4069
  802MOL0     C10570   5.258   5.343   5.301  0.6261 -0.0191 -1.0821
  802MOL0     C10571   5.325   5.459   5.353 -0.3846 -0.4848 -0.3869
  802MOL0     C10572   5.463   5.466   5.347 -0.1816  0.6159  0.9247
  802MOL0     C10573   5.536   5.364   5.289 -0.7036 -0.4158  0.8172
  802MOL0     O10574   5.674   5.376   5.282  0.2791  0.6723 -0.4689
  802MOL0     C10575   5.754   5.304   5.378  1.2088  0.1997 -0.1214
  802MOL0     C10576   5.901   5.305   5.331  0.3440 -0.0055 -0.0178
  802MOL0     C10577   5.990   5.249   5.441 -1.0879 -0.4294 -0.3197
  802MOL0     C10578   6.138   5.278   5.411 -0.3117  0.8979  0.4455
  802MOL0     C10579   6.222   5.232   5.525 -0.2247  0.4256  0.0376
  802MOL0     C10580   6.376   5.264   5.501  0.1108  0.7703  0.3665
  802MOL0     C10581   6.472   5.239   5.621 -0.0585 -0.4262 -0.5178
  802MOL0     C10582   6.625   5.225   5.576  0.7749 -1.0685 -0.1499
  802MOL0    Cl10583   6.670   5.376   5.495 -0.0182 -0.0151  0.4777
  802MOL0     C10584   5.472   5.245   5.240  0.0427 -0.1324  0.2667
  802MOL0     C10585   5.334   5.245   5.246  1.1953  0.8058 -0.2881
  802MOL0     O10586   5.062   5.330   5.510 -0.4127  0.5543  1.1815
  802MOL0     C10587   4.804   5.269   5.473 -0.2063  0.2152 -0.3156
  802MOL0     C10588   4.672   5.246   5.456 -0.0885 -0.1196  0.6069
  802MOL0     N10589   4.012   5.222   5.596 -0.3453 -0.3262  0.8560
  802MOL0     N10590   3.915   5.239   5.679 -0.3445  0.2623  0.7986
  802MOL0     C10591   2.884   5.253   5.292 -0.8735  0.3258 -0.2103
  802MOL0     C10592   2.759   5.300   5.319  0.2669 -0.8115  0.7561
  802MOL0     C10593   2.410   5.479   5.559  1.5743 -0.8231 -1.4825
  802MOL0     C10594   2.358   5.530   5.434  0.1196 -0.2759  0.3256
  802MOL0     C10595   2.243   5.603   5.428  0.4057 -0.5077 -0.7132
  802MOL0     C10596   2.162   5.621   5.539  0.0770  0.0708  0.8903
  802MOL0     O10597   2.048   5.696   5.533  0.5655 -0.7579  0.1923
  802MOL0     C10598   1.932   5.630   5.478 -0.2782  0.5620  0.8243
  802MOL0     C10599   1.890   5.510   5.563  0.6358 -0.0875 -0.6120
  802MOL0     C10600   1.737   5.514   5.611 -0.4676  0.5480  0.4471
  802MOL0     C10601   1.652   5.504   5.483 -0.4147  0.3592 -0.7438
  802MOL0     C10602   1.514   5.460   5.508  0.2668  0.1000 -0.0441
  802MOL0     C10603   1.393   5.435   5.518 -0.9205 -0.2829  0.3949
  802MOL0     C10604   2.209   5.576   5.658  0.3328 -0.9454 -0.8438
  802MOL0     C10605   2.335   5.510   5.674  0.4491  0.2448 -0.1044
  802MOL0     C10606   2.370   5.469   5.820 -1.6532 -0.1454  0.4769
  802MOL0     H10607   2.782   5.391   5.646 -0.9473 -1.7352  0.7684
  802MOL0     H10608   3.004   5.290   5.618 -1.4088  2.9498  0.2926
  802MOL0     H10609   3.047   5.010   5.325  0.7514 -2.1298  0.0140
  802MOL0     H10610   3.054   5.030   5.505  0.2296 -1.0133 -1.3109
  802MOL0     H10611   3.230   4.892   5.384  0.7543  0.7562  0.3441
  802MOL0     H10612   3.300   5.044   5.345  2.4232  1.5297  3.2626
  802MOL0     H10613   3.239   5.086   5.619  1.3253  0.1353  1.4786
  802MOL0     H10614   3.287   4.920   5.607 -3.7612 -0.4014 -0.9957
  802MOL0     H10615   3.491   5.016   5.469 -1.3353 -1.4559 -0.3471
  802MOL0     H10616   3.427   5.181   5.516  1.5073  0.8819  1.6594
  802MOL0     H10617   3.518   4.965   5.708  1.4800  0.9043  4.4276
  802MOL0     H10618   3.424   5.108   5.752  1.5702  3.5622  0.2168
  802MOL0     H10619   3.675   5.140   5.787 -0.3574  0.4788  0.8647
  802MOL0     H10620   3.693   5.132   5.609 -1.2158 -2.2109 -1.3254
  802MOL0     H10621   3.514   5.341   5.738 -1.2948 -1.1944 -2.5959
  802MOL0     H10622   3.599   5.343   5.580 -2.6199  2.6763  0.4580
  802MOL0     H10623   3.700   5.499   5.710  1.2144 -0.2507 -0.2629
  802MOL0     H10624   3.726   5.396   5.843  0.0479 -1.6613 -0.5209
  802MOL0     H10625   3.908   5.529   5.545 -1.4280  0.0216 -1.3393
  802MOL0     H10626   4.191   5.456   5.470  1.8886 -0.9651 -1.2158
  802MOL0     H10627   4.067   5.427   5.351  1.7808  0.0389 -0.6569
  802MOL0     H10628   4.253   5.197   5.436 -1.6874 -0.9925  0.8293
  802MOL0     H10629   4.119   5.182   5.341  2.2610 -0.7812 -0.9513
  802MOL0     H10630   4.282   5.198   5.175  2.0905 -0.7231  1.2754
  802MOL0     H10631   4.203   5.357   5.174 -0.4514 -0.1988 -0.0479
  802MOL0     H10632   4.441   5.405   5.180  1.5957 -0.3461  1.6250
  802MOL0     H10633   4.390   5.445   5.333 -3.0338  1.1621 -1.5315
  802MOL0     H10634   4.653   5.412   5.157 -1.2201 -1.1199  0.2098
  802MOL0     H10635   4.836   5.556   5.111 -0.2698  1.3707  4.0261
  802MOL0     H10636   4.931   5.407   5.077  0.0301  0.3047 -0.3301
  802MOL0     H10637   4.978   5.528   5.196  0.0868  2.1185 -1.9389
  802MOL0     H10638   5.281   5.547   5.400  2.7385  0.9885 -0.0112
  802MOL0     H10639   5.509   5.555   5.390 -0.4622  1.9142 -1.3259
  802MOL0     H10640   5.734   5.346   5.477 -3.1950 -1.1642 -0.2416
  802MOL0     H10641   5.724   5.200   5.389  0.3181  0.2337 -2.0077
  802MOL0     H10642   5.917   5.226   5.256  2.5180 -0.0742  0.4353
  802MOL0     H10643   5.917   5.403   5.287 -1.3322 -1.0927 -3.3473
  802MOL0     H10644   5.983   5.140   5.437 -1.3973 -0.4646  0.8857
  802MOL0     H10645   5.949   5.275   5.539 -0.0669 -1.4554  0.3987
  802MOL0     H10646   6.171   5.382   5.409  2.3936  0.2033  2.6915
  802MOL0     H10647   6.168   5.230   5.318  0.5235 -1.0443  1.6716
  802MOL0     H10648   6.188   5.286   5.614 -0.3192  0.0861  0.2092
  802MOL0     H10649   6.198   5.129   5.551  0.2301  0.1736 -0.5401
  802MOL0     H10650   6.378   5.369   5.472 -1.3207  1.0492  1.1613
  802MOL0     H10651   6.418   5.210   5.416  1.9361  1.0647  1.0399
  802MOL0     H10652   6.454   5.146   5.674  2.1727  0.2302  1.5753
  802MOL0     H10653   6.474   5.326   5.688  2.5480 -0.2010 -0.7921
  802MOL0     H10654   6.625   5.141   5.506 -2.5153 -1.4989  0.2140
  802MOL0     H10655   6.695   5.220   5.659 -0.6937  4.6326  1.8814
  802MOL0     H10656   5.533   5.163   5.201 -1.5255 -0.1757 -2.3400
  802MOL0     H10657   5.290   5.155   5.204  0.2350  0.6130  1.0718
  802MOL0     H10658   4.850   5.224   5.561 -1.1375 -0.1640 -0.0122
  802MOL0     H10659   4.605   5.197   5.526  0.4087 -1.4840  0.1659
  802MOL0     H10660   2.881   5.209   5.192 -3.7134 -3.1047  1.1672
  802MOL0     H10661   2.680   5.296   5.245  2.1096 -1.8797 -1.2441
  802MOL0     H10662   2.409   5.505   5.342 -2.1563 -0.3395 -0.9971
  802MOL0     H10663   2.222   5.650   5.332 -1.0584 -2.7608 -1.6007
  802MOL0     H10664   1.855   5.709   5.474  0.0539  0.8556 -2.0749
  802MOL0     H10665   1.942   5.594   5.375 -1.5140  3.7765 -0.5602
  802MOL0     H10666   1.951   5.492   5.652  1.2078 -0.6127 -1.1017
  802MOL0     H10667   1.918   5.424   5.502 -1.2271  0.9099 -3.0602
  802MOL0     H10668   1.711   5.434   5.681  1.7126 -0.8445 -0.2434
  802MOL0     H10669   1.723   5.598   5.679  3.6016  2.0262 -0.2656
  802MOL0     H10670   1.694   5.429   5.415 -0.0197 -1.6247  1.5288
  802MOL0     H10671   1.644   5.601   5.433 -3.0086  1.5401  1.6681
  802MOL0     H10672   1.288   5.413   5.517 -0.8707 -0.5989 -1.5253
  802MOL0     H10673   2.141   5.593   5.742  0.0472 -1.3850 -0.9810
  802MOL0     H10674   2.306   5.523   5.891  0.5014  0.8208  1.8111
  802MOL0     H10675   2.358   5.363   5.844 -1.7629 -0.2030  0.1632
  802MOL0     H10676   2.470   5.497   5.858 -1.2366  0.6216 -1.1145
  803MOL0     O10677  10.776  10.570   7.130  1.4894  0.1618  0.2208
  803MOL0     C10678  10.676  10.579   7.056  0.5810  0.8081 -0.0175
  803MOL0     O10679  10.640  10.485   6.964 -0.2368  0.1296 -0.1135
  803MOL0     C10680  10.708  10.363   6.950  0.4609 -0.1367 -0.0618
  803MOL0     C10681  10.643  10.240   6.992 -0.5874  0.0799  0.8007
  803MOL0     C10682  10.707  10.120   6.956  0.2901  0.5343  0.0727
  803MOL0     C10683  10.836  10.110   6.902 -0.3087 -0.2979  0.3059
  803MOL0     O10684  10.896   9.984   6.892  0.4162  0.3472 -1.0384
  803MOL0     C10685  11.030   9.979   6.845  0.1173  0.4631  0.2554
  803MOL0     C10686  11.057   9.838   6.799  0.1486 -0.0677  0.7238
  803MOL0     C10687  11.200   9.810   6.743  0.6826 -0.4254  0.3514
  803MOL0     C10688  11.211   9.674   6.666  0.5741 -0.5567  1.2754
  803MOL0     C10689  11.263   9.566   6.765 -0.1768 -0.3516 -0.0234
  803MOL0     C10690  11.328   9.453   6.678 -0.1495  0.0303 -0.2382
  803MOL0     C10691  11.337   9.322   6.756  0.1662 -0.8112 -0.3558
  803MOL0     C10692  11.383   9.208   6.669 -0.7483  0.2337  0.2107
  803MOL0     N10693  11.521   9.160   6.689  0.3596  0.7322 -0.0408
  803MOL0     C10694  11.598   9.099   6.592  0.7100  0.0925 -0.1104
  803MOL0     C10695  11.700   9.044   6.658 -0.2084 -0.3981 -0.7972
  803MOL0     C10696  11.820   8.969   6.606 -0.0200  0.4969  0.4285
  803MOL0     C10697  11.896   9.046   6.498  0.6269 -0.1636 -0.2555
  803MOL0     C10698  12.042   8.984   6.481  1.2942  0.6971 -0.7442
  803MOL0     C10699  12.125   9.039   6.375 -0.2674  0.1399 -0.5047
  803MOL0     O10700  12.256   8.996   6.400  0.2348  0.0385  0.1240
  803MOL0     C10701  12.355   9.032   6.312  0.1135  0.3741  0.8004
  803MOL0     C10702  12.329   9.104   6.192 -0.1642  0.0329  0.0011
  803MOL0     C10703  12.432   9.154   6.117  0.5882  0.6155  0.0408
  803MOL0     C10704  12.404   9.235   6.005  0.3515  0.0000 -0.5971
  803MOL0     C10705  12.566   9.122   6.147  0.5008  0.1487 -0.5190
  803MOL0     C10706  12.683   9.143   6.065 -0.2749 -0.5803  0.2437
  803MOL0     O10707  12.683   9.269   6.003  0.4803  0.6044  0.1156
  803MOL0     C10708  12.793   9.297   5.926  0.6277  0.6471  0.2131
  803MOL0     C10709  12.818   9.225   5.806 -0.1396 -0.8321 -0.0596
  803MOL0     C10710  12.938   9.239   5.735  0.3951  0.2574 -0.1218
  803MOL0     C10711  13.038   9.323   5.773  0.6276  1.0007 -0.5710
  803MOL0     O10712  13.151   9.338   5.696  0.0830 -0.6105 -0.5663
  803MOL0     C10713  13.188   9.241   5.597 -0.3203  0.1115  0.2205
  803MOL0     C10714  13.331   9.269   5.545 -0.5657  0.1181 -0.7987
  803MOL0     C10715  13.448   9.248   5.647 -0.6823  0.6879 -1.4015
  803MOL0     C10716  13.581   9.287   5.590  0.0787  0.2023  0.0185
  803MOL0     C10717  13.691   9.232   5.674 -0.1549 -1.1560 -0.3891
  803MOL0     C10718  13.831   9.274   5.625 -0.6295 -1.0210  0.1662
  803MOL0     C10719  13.924   9.268   5.746 -0.3023 -0.3989  0.0770
  803MOL0     C10720  14.072   9.269   5.696 -0.2524  0.5601 -0.4345
  803MOL0    Cl10721  14.173   9.180   5.817 -0.4332  0.2355 -0.0548
  803MOL0     C10722  13.007   9.401   5.882 -0.0474  0.5534  0.4634
  803MOL0     C10723  12.889   9.385   5.958 -0.8463  0.2300  0.9544
  803MOL0     O10724  12.775   9.062   6.055  0.2683 -0.0171  0.0393
  803MOL0     C10725  12.588   9.031   6.254 -0.1559 -1.0787 -0.2538
  803MOL0     C10726  12.486   8.989   6.344 -0.1918 -0.3411  0.5161
  803MOL0     N10727  11.689   9.075   6.798 -0.5300  0.0960  0.5398
  803MOL0     N10728  11.576   9.148   6.809 -0.7208  0.2648  0.1434
  803MOL0     C10729  10.902  10.235   6.886  0.4275 -0.3157 -0.4256
  803MOL0     C10730  10.843  10.358   6.913  0.4633 -0.5673  0.1048
  803MOL0     C10731  10.598  10.703   7.052 -0.0808 -0.7441  0.9660
  803MOL0     C10732  10.513  10.722   6.931  0.0157 -0.2112 -0.7190
  803MOL0     C10733  10.427  10.821   6.921 -0.8260 -0.6639  0.1146
  803MOL0     C10734  10.427  10.927   7.013 -0.1143  0.5498  0.3265
  803MOL0     O10735  10.336  11.027   7.012  0.8685 -0.1936  0.1031
  803MOL0     C10736  10.255  11.059   6.893  0.3206  0.3044 -0.0418
  803MOL0     C10737  10.106  11.054   6.937  0.5249  0.3250 -0.0945
  803MOL0     C10738  10.066  11.141   7.056 -0.1813  0.2252  0.3923
  803MOL0     C10739   9.917  11.137   7.076  0.0047  0.9735 -0.2822
  803MOL0     C10740   9.888  11.216   7.196 -0.4125 -0.1383 -0.3867
  803MOL0     C10741   9.862  11.264   7.308  1.0009 -0.5419 -0.5243
  803MOL0     C10742  10.499  10.908   7.133  0.6933  0.1091 -0.0533
  803MOL0     C10743  10.588  10.796   7.156  0.5987 -1.2134  0.8845
  803MOL0     C10744  10.647  10.780   7.288 -0.1478  0.1761 -0.3124
  803MOL0     H10745  10.543  10.235   7.035 -0.2785  3.2876  2.1275
  803MOL0     H10746  10.643  10.035   6.973 -2.7415  2.5476 -0.5192
  803MOL0     H10747  11.107  10.007   6.918  2.1726 -1.2908 -1.1081
  803MOL0     H10748  11.051  10.046   6.761  1.1361 -1.5620 -1.2028
  803MOL0     H10749  11.029   9.772   6.881 -4.1732 -1.3212 -1.4447
  803MOL0     H10750  10.991   9.817   6.714  1.0162  4.9620 -1.5623
  803MOL0     H10751  11.233   9.892   6.680  1.7086 -2.3778 -1.7611
  803MOL0     H10752  11.263   9.817   6.833 -0.0259 -0.2868  0.8491
  803MOL0     H10753  11.114   9.642   6.627  1.5733 -3.3903  0.8344
  803MOL0     H10754  11.276   9.686   6.579  0.8016 -0.4978  1.4518
  803MOL0     H10755  11.183   9.534   6.833 -1.1708  1.8383 -0.0572
  803MOL0     H10756  11.353   9.599   6.819 -0.1161 -1.0361  0.3050
  803MOL0     H10757  11.263   9.429   6.593  1.2930 -1.3306 -1.0087
  803MOL0     H10758  11.427   9.484   6.643  0.4066 -2.1458 -0.7291
  803MOL0     H10759  11.233   9.307   6.786 -0.3987  2.6071 -0.2649
  803MOL0     H10760  11.399   9.339   6.844  0.3423 -1.0618 -0.4291
  803MOL0     H10761  11.312   9.127   6.686 -2.8017  1.2529 -2.7301
  803MOL0     H10762  11.383   9.238   6.564 -0.5894 -0.2255  0.0737
  803MOL0     H10763  11.571   9.089   6.487 -2.3621 -2.4862  0.7779
  803MOL0     H10764  11.782   8.872   6.574 -3.2636 -0.0682  4.9916
  803MOL0     H10765  11.889   8.951   6.688 -1.5699 -0.9545  1.4703
  803MOL0     H10766  11.854   9.046   6.397  1.7442 -1.8065 -0.7640
  803MOL0     H10767  11.911   9.151   6.526  3.9381 -0.3231 -0.9527
  803MOL0     H10768  12.097   8.989   6.576 -1.6832 -1.5973  1.2800
  803MOL0     H10769  12.031   8.879   6.454  1.7283  0.8121 -1.3921
  803MOL0     H10770  12.093   9.001   6.277 -0.7624  0.9488 -0.6691
  803MOL0     H10771  12.116   9.147   6.383 -0.6398 -0.0265  3.3095
  803MOL0     H10772  12.226   9.112   6.162  0.1134 -0.1268 -1.0135
  803MOL0     H10773  12.297   9.245   5.983  0.4004  3.4576  0.1913
  803MOL0     H10774  12.454   9.183   5.923  1.4593 -1.5702  0.9759
  803MOL0     H10775  12.445   9.335   6.017 -0.9359  0.3870  1.0986
  803MOL0     H10776  12.741   9.160   5.766  0.5073 -1.5415 -0.1568
  803MOL0     H10777  12.955   9.171   5.652 -0.8891  1.6248 -1.5680
  803MOL0     H10778  13.181   9.136   5.628 -4.9574  0.0521 -0.3014
  803MOL0     H10779  13.124   9.231   5.509  0.0227 -0.9675  0.0824
  803MOL0     H10780  13.349   9.183   5.480 -2.5975 -2.7022  2.0437
  803MOL0     H10781  13.346   9.361   5.487  4.2076 -0.2432 -0.4866
  803MOL0     H10782  13.453   9.149   5.693 -2.8891  2.2880  2.8164
  803MOL0     H10783  13.428   9.309   5.735 -0.6741  3.5143 -3.2266
  803MOL0     H10784  13.585   9.394   5.569 -0.0242 -0.2008 -2.4178
  803MOL0     H10785  13.590   9.243   5.490 -2.9975  2.3540 -1.3573
  803MOL0     H10786  13.695   9.268   5.777  1.3911 -0.1178 -0.7719
  803MOL0     H10787  13.693   9.123   5.689 -0.3169 -1.1247 -0.1303
  803MOL0     H10788  13.839   9.376   5.587  1.3105 -0.7800  1.0682
  803MOL0     H10789  13.878   9.209   5.550 -1.1357  0.1182 -1.1911
  803MOL0     H10790  13.902   9.175   5.799 -2.2066 -0.4264 -0.7210
  803MOL0     H10791  13.909   9.352   5.815 -0.2839  0.1539 -0.5811
  803MOL0     H10792  14.095   9.375   5.682  0.6345  0.1696 -2.2565
  803MOL0     H10793  14.090   9.211   5.605 -1.4614 -1.3734  0.4831
  803MOL0     H10794  13.084   9.468   5.919  0.4925  1.0982 -1.5562
  803MOL0     H10795  12.872   9.443   6.049  1.0981  1.3377  0.6791
  803MOL0     H10796  12.690   9.003   6.278  1.1767  2.2300 -1.4124
  803MOL0     H10797  12.513   8.940   6.437  0.0822 -0.2743  0.4741
  803MOL0     H10798  11.009  10.236   6.869  0.4875 -1.5855 -0.2135
  803MOL0     H10799  10.908  10.443   6.896  1.7035 -1.2077  1.4788
  803MOL0     H10800  10.513  10.646   6.854 -2.4008 -0.0329 -0.9487
  803MOL0     H10801  10.353  10.817   6.842  0.1515  0.4201 -0.9007
  803MOL0     H10802  10.261  11.164   6.861 -1.3068 -0.1151 -1.9672
  803MOL0     H10803  10.269  10.994   6.806  0.5616  0.6534 -0.2656
  803MOL0     H10804  10.077  10.950   6.952 -0.7685  0.6586 -0.1678
  803MOL0     H10805  10.061  11.083   6.842  4.4188  3.6440 -1.2177
  803MOL0     H10806  10.112  11.101   7.147  1.2550  1.5394  0.2911
  803MOL0     H10807  10.105  11.241   7.034 -0.1128 -0.0723 -0.9514
  803MOL0     H10808   9.890  11.037   7.110  1.4833  0.4479 -0.6090
  803MOL0     H10809   9.862  11.169   6.987 -0.8918  2.8114  0.8576
  803MOL0     H10810   9.850  11.300   7.408  0.9996  0.3723 -0.8471
  803MOL0     H10811  10.474  10.973   7.216 -0.8955 -1.5481  0.8312
  803MOL0     H10812  10.630  10.677   7.320 -0.8318  1.4021  3.8140
  803MOL0     H10813  10.753  10.806   7.282  0.3030 -1.5471 -0.4288
  803MOL0     H10814  10.608  10.846   7.365  0.7150 -0.2483  0.5074
  804MOL0     O10815   9.302   8.395   0.499  0.1349 -0.3317  0.5967
  804MOL0     C10816   9.243   8.482   0.571 -0.3959 -0.6304  0.7717
  804MOL0     O10817   9.290   8.533   0.688 -0.0142 -0.2055 -0.1008
  804MOL0     C10818   9.423   8.502   0.729 -0.1593 -0.9621 -0.0764
  804MOL0     C10819   9.439   8.464   0.867 -0.0572  1.8484 -0.1895
  804MOL0     C10820   9.569   8.430   0.910 -0.5612 -0.6241  0.3062
  804MOL0     C10821   9.676   8.445   0.824 -0.1120 -0.0234 -0.4184
  804MOL0     O10822   9.803   8.439   0.890  0.5965  0.1337  0.4887
  804MOL0     C10823   9.903   8.499   0.803  0.4579 -0.5266  0.3005
  804MOL0     C10824  10.028   8.539   0.893 -0.3715  0.1026  0.3308
  804MOL0     C10825  10.148   8.570   0.801  0.4691  0.4346 -0.0784
  804MOL0     C10826  10.266   8.510   0.876 -0.5125 -0.6664 -1.0564
  804MOL0     C10827  10.399   8.561   0.830  0.0442 -0.1357  0.2433
  804MOL0     C10828  10.515   8.459   0.867 -0.1356 -0.2143  0.2750
  804MOL0     C10829  10.650   8.544   0.862  0.1699  0.3311  0.7797
  804MOL0     C10830  10.745   8.510   0.971  0.7750 -0.2806  0.7317
  804MOL0     N10831  10.882   8.545   0.951  0.6005  0.4197 -0.0636
  804MOL0     C10832  10.924   8.668   0.910 -0.5755 -0.5741  0.2532
  804MOL0     C10833  11.067   8.659   0.903  0.9757 -0.0353  0.6377
  804MOL0     C10834  11.159   8.778   0.882 -0.9919  0.0140 -0.3240
  804MOL0     C10835  11.203   8.842   1.012  0.4923 -0.8606 -0.3823
  804MOL0     C10836  11.298   8.756   1.097  0.1087 -0.3877 -0.1389
  804MOL0     C10837  11.312   8.796   1.243 -0.1418 -0.4183  0.0334
  804MOL0     O10838  11.381   8.928   1.241  0.5304 -0.3604 -0.3519
  804MOL0     C10839  11.522   8.934   1.207  0.8026 -0.1719 -0.4678
  804MOL0     C10840  11.574   9.063   1.190 -0.1587 -0.5204  0.0916
  804MOL0     C10841  11.706   9.087   1.156 -0.8251  0.1000 -0.7560
  804MOL0     C10842  11.741   9.232   1.149  0.2886  0.1698 -0.0080
  804MOL0     C10843  11.799   8.978   1.139  0.6061  0.3047 -0.4156
  804MOL0     C10844  11.948   8.995   1.113  0.5236  0.8874 -0.2363
  804MOL0     O10845  12.018   8.872   1.114  0.2474 -0.1072  0.4229
  804MOL0     C10846  12.154   8.868   1.086 -0.1121  0.6907 -0.0577
  804MOL0     C10847  12.201   8.868   0.957 -0.1192  0.4811  0.6955
  804MOL0     C10848  12.336   8.882   0.928  0.6608 -0.4967  0.0036
  804MOL0     C10849  12.431   8.877   1.025 -1.0098 -0.6572  0.0483
  804MOL0     O10850  12.561   8.874   0.974 -0.2451 -0.0422 -0.0004
  804MOL0     C10851  12.658   8.899   1.078 -1.0358 -0.2782 -1.1201
  804MOL0     C10852  12.796   8.904   1.022  0.3095 -0.3125 -0.1905
  804MOL0     C10853  12.817   9.006   0.909 -0.1233 -0.1005  0.0940
  804MOL0     C10854  12.937   8.983   0.821 -0.1550  0.1214 -0.6079
  804MOL0     C10855  12.944   9.093   0.715  0.0675 -0.3662  0.5201
  804MOL0     C10856  13.066   9.104   0.634 -0.3686  0.1177  0.0368
  804MOL0     C10857  13.053   9.194   0.504  0.3762  0.0619  0.2882
  804MOL0     C10858  12.997   9.335   0.525  0.5067 -0.1429  0.4197
  804MOL0    Cl10859  13.066   9.400   0.673 -0.2677 -0.2670  0.4623
  804MOL0     C10860  12.386   8.839   1.156 -0.3791 -0.3139 -0.1356
  804MOL0     C10861  12.248   8.852   1.184 -0.1029 -0.2006 -0.3360
  804MOL0     O10862  11.990   9.101   1.086 -0.6424 -0.5073 -0.1851
  804MOL0     C10863  11.748   8.846   1.162  0.2827 -0.4848  0.5564
  804MOL0     C10864  11.615   8.828   1.187 -0.3258  0.7554 -0.0273
  804MOL0     N10865  11.094   8.525   0.927  0.4815 -0.3369  0.3997
  804MOL0     N10866  10.986   8.462   0.945 -0.6413 -0.1996  0.3817
  804MOL0     C10867   9.649   8.457   0.681 -0.0434 -0.3097 -0.0496
  804MOL0     C10868   9.530   8.496   0.635  1.1591  0.3579 -0.4544
  804MOL0     C10869   9.112   8.537   0.519 -0.1362  0.1619  0.1353
  804MOL0     C10870   9.083   8.675   0.550  0.7830  0.2472  0.3684
  804MOL0     C10871   8.971   8.733   0.497  0.0684 -0.8090  0.4763
  804MOL0     C10872   8.895   8.669   0.402  0.2456 -0.4800  0.0506
  804MOL0     O10873   8.778   8.724   0.351 -0.0213 -0.3959 -0.3038
  804MOL0     C10874   8.658   8.662   0.325  0.1599 -0.4080 -0.6483
  804MOL0     C10875   8.620   8.547   0.429 -0.0691 -0.3467  0.1100
  804MOL0     C10876   8.495   8.478   0.392  0.4234  0.7662 -0.1126
  804MOL0     C10877   8.483   8.328   0.421 -0.5497  0.6991  0.4855
  804MOL0     C10878   8.597   8.244   0.380 -0.2214  0.0708  0.0319
  804MOL0     C10879   8.700   8.185   0.367 -0.3362  0.5015  0.1594
  804MOL0     C10880   8.938   8.543   0.356  0.5479 -0.0376  0.4730
  804MOL0     C10881   9.041   8.469   0.410  0.4118 -0.7527  1.3448
  804MOL0     C10882   9.050   8.333   0.350 -0.1112 -1.0233 -0.0211
  804MOL0     H10883   9.351   8.446   0.926  1.2438  1.9525  1.8785
  804MOL0     H10884   9.605   8.407   1.010  0.5084 -4.1247 -0.7185
  804MOL0     H10885   9.863   8.585   0.748  1.5732  0.4923  1.0247
  804MOL0     H10886   9.939   8.418   0.739  1.7223 -2.2213  2.9447
  804MOL0     H10887   9.996   8.623   0.956 -3.0859  1.8106 -2.9268
  804MOL0     H10888  10.051   8.456   0.959  0.6571  1.1039  1.2769
  804MOL0     H10889  10.135   8.520   0.705 -1.0947 -0.8175  0.7306
  804MOL0     H10890  10.160   8.679   0.796 -0.4063  0.5111 -0.5526
  804MOL0     H10891  10.257   8.548   0.978 -2.3233  1.8122 -2.0258
  804MOL0     H10892  10.275   8.402   0.887  2.2434 -0.3570  0.4915
  804MOL0     H10893  10.409   8.658   0.878 -1.5993 -0.2808  0.9485
  804MOL0     H10894  10.402   8.594   0.726  0.2464  0.9229  0.5709
  804MOL0     H10895  10.503   8.434   0.973  0.6548 -1.8234  0.0153
  804MOL0     H10896  10.522   8.372   0.801  0.1772 -0.9860  1.3106
  804MOL0     H10897  10.626   8.650   0.870 -1.8600  0.0088 -0.2894
  804MOL0     H10898  10.698   8.519   0.767 -3.3515 -2.3398 -0.4968
  804MOL0     H10899  10.715   8.566   1.060  0.3900  0.4426  0.1610
  804MOL0     H10900  10.735   8.403   0.990  1.7858 -0.2248  1.6474
  804MOL0     H10901  10.869   8.759   0.890  2.6441  0.9814 -2.5551
  804MOL0     H10902  11.135   8.849   0.802  0.3544 -0.0609 -0.8040
  804MOL0     H10903  11.239   8.718   0.839 -0.1856  0.7314  0.1632
  804MOL0     H10904  11.257   8.935   0.990 -0.9801  0.2432  0.4561
  804MOL0     H10905  11.112   8.872   1.064  0.0736  0.5122 -1.8050
  804MOL0     H10906  11.252   8.657   1.097  0.8418 -0.7525  1.0666
  804MOL0     H10907  11.395   8.767   1.048  0.5540  3.9670  1.2456
  804MOL0     H10908  11.220   8.792   1.303 -0.9691  0.4993 -1.1297
  804MOL0     H10909  11.373   8.713   1.280 -1.8216 -1.6986  0.0804
  804MOL0     H10910  11.503   9.145   1.200  0.3817 -0.0410  0.0858
  804MOL0     H10911  11.768   9.253   1.046 -1.7176  0.7109 -0.4667
  804MOL0     H10912  11.820   9.255   1.222 -0.2771  0.0269  0.6595
  804MOL0     H10913  11.659   9.296   1.183  1.5329  1.5733  0.4557
  804MOL0     H10914  12.125   8.888   0.882 -1.9796 -0.2444  2.2940
  804MOL0     H10915  12.367   8.891   0.825 -3.5795  1.1758 -1.3222
  804MOL0     H10916  12.625   8.990   1.130 -0.3330 -0.9605  0.5846
  804MOL0     H10917  12.665   8.822   1.155 -0.9984 -0.1185 -0.9608
  804MOL0     H10918  12.856   8.940   1.106 -0.4491 -2.0616  1.1317
  804MOL0     H10919  12.812   8.802   0.988  0.1181 -0.8054  1.1561
  804MOL0     H10920  12.833   9.097   0.969  1.7396 -1.3501  1.6103
  804MOL0     H10921  12.728   9.006   0.845 -0.0196  1.1199 -0.0862
  804MOL0     H10922  12.921   8.889   0.768 -2.2039  0.2882 -0.3773
  804MOL0     H10923  13.027   8.983   0.884 -0.4677 -0.9257 -0.1520
  804MOL0     H10924  12.853   9.087   0.656 -0.5400  0.2389  1.3659
  804MOL0     H10925  12.931   9.189   0.766  0.0051 -0.0510 -0.0819
  804MOL0     H10926  13.096   9.007   0.593  0.8905  0.9293 -1.0198
  804MOL0     H10927  13.146   9.139   0.699  0.1294 -1.8483  0.5526
  804MOL0     H10928  13.000   9.143   0.423  0.3836 -1.0833  0.9868
  804MOL0     H10929  13.154   9.212   0.466 -0.4409 -0.4488 -2.3578
  804MOL0     H10930  12.887   9.342   0.529  0.4070 -1.6611  1.1226
  804MOL0     H10931  13.019   9.405   0.445 -1.0211 -0.1999 -0.0972
  804MOL0     H10932  12.459   8.825   1.235 -0.6392 -1.9645 -0.1444
  804MOL0     H10933  12.220   8.837   1.288  1.8310  0.0527  0.2643
  804MOL0     H10934  11.817   8.762   1.153 -0.4411 -1.1562  1.0684
  804MOL0     H10935  11.586   8.723   1.183  0.9752  0.4119 -1.6339
  804MOL0     H10936   9.725   8.454   0.603  1.6630  1.7580  1.4110
  804MOL0     H10937   9.517   8.524   0.531  2.0875 -0.1976 -0.7303
  804MOL0     H10938   9.139   8.750   0.604  1.7693  3.2311 -4.1579
  804MOL0     H10939   8.949   8.834   0.530 -4.2363 -1.7024  0.8382
  804MOL0     H10940   8.577   8.735   0.336 -0.8253 -1.6222  0.5070
  804MOL0     H10941   8.654   8.633   0.220 -1.8412 -0.2245 -0.6699
  804MOL0     H10942   8.596   8.599   0.522  0.7523  0.1857  0.0340
  804MOL0     H10943   8.703   8.477   0.441 -2.0675 -3.0513 -0.9302
  804MOL0     H10944   8.409   8.520   0.444  0.5278 -0.7378  1.3761
  804MOL0     H10945   8.467   8.498   0.288  2.4970 -1.5925 -1.2548
  804MOL0     H10946   8.392   8.310   0.362 -2.5756  2.9918  2.6474
  804MOL0     H10947   8.456   8.319   0.526 -1.5458  2.4291  0.4277
  804MOL0     H10948   8.798   8.141   0.366  0.4394  1.7166  4.3412
  804MOL0     H10949   8.885   8.487   0.280  0.3528 -1.0901  1.3641
  804MOL0     H10950   8.954   8.295   0.315  0.5425 -1.5970 -1.2805
  804MOL0     H10951   9.122   8.324   0.268 -0.6459 -3.1963 -0.3159
  804MOL0     H10952   9.088   8.260   0.422  2.0684  1.0619  1.0826
  805MOL0     O10953   0.487   2.274   7.806  0.3014 -0.3199 -0.6757
  805MOL0     C10954   0.597   2.234   7.776 -0.4473  0.8579  0.5258
  805MOL0     O10955   0.701   2.209   7.864  0.4340 -0.5388  0.1762
  805MOL0     C10956   0.717   2.285   7.982  0.8063  0.2129 -0.6996
  805MOL0     C10957   0.849   2.274   8.033  0.1569  0.0106  0.6467
  805MOL0     C10958   0.882   2.323   8.157 -0.3810  0.2113  0.2662
  805MOL0     C10959   0.789   2.402   8.226 -0.3633  0.3299  0.4866
  805MOL0     O10960   0.838   2.454   8.340  0.1191 -0.4827  0.5503
  805MOL0     C10961   0.793   2.592   8.369  0.2301  0.5916  0.3864
  805MOL0     C10962   0.874   2.659   8.485 -0.4446  0.5974  0.3049
  805MOL0     C10963   0.863   2.811   8.496 -0.2113  0.3994 -0.1507
  805MOL0     C10964   0.976   2.870   8.405  1.4141  0.6213 -0.5913
  805MOL0     C10965   0.946   3.022   8.398  0.5440 -0.6146 -0.1537
  805MOL0     C10966   1.013   3.093   8.280  0.3015 -0.4581  0.3305
  805MOL0     C10967   1.161   3.115   8.312 -0.4731  0.9223  0.8979
  805MOL0     C10968   1.226   3.174   8.183  0.4789  0.1306 -0.1853
  805MOL0     N10969   1.280   3.069   8.096 -0.1070 -0.0216 -1.5710
  805MOL0     C10970   1.405   3.081   8.058  0.3351  0.4911  0.3593
  805MOL0     C10971   1.420   3.004   7.949  0.3213 -0.1880 -0.2955
  805MOL0     C10972   1.551   3.006   7.882 -0.5025  0.1417  0.3163
  805MOL0     C10973   1.631   2.882   7.903  0.4698 -0.0829 -0.0654
  805MOL0     C10974   1.715   2.831   7.780  0.4991  1.3483  0.6903
  805MOL0     C10975   1.794   2.698   7.820  0.3688  1.0327  0.5058
  805MOL0     O10976   1.873   2.660   7.701  0.1635  0.3837  0.2414
  805MOL0     C10977   2.006   2.692   7.684  0.1262  0.0221 -0.5915
  805MOL0     C10978   2.096   2.719   7.796  1.0124  0.0970  0.8144
  805MOL0     C10979   2.228   2.745   7.766  0.1827 -0.7607  0.1707
  805MOL0     C10980   2.320   2.781   7.888 -0.3043  0.4093  0.2021
  805MOL0     C10981   2.274   2.744   7.632 -0.3593 -0.1420  0.5883
  805MOL0     C10982   2.413   2.760   7.593  0.5847  0.2205  0.2627
  805MOL0     O10983   2.444   2.800   7.460 -0.5693 -1.0232 -0.3795
  805MOL0     C10984   2.579   2.785   7.420 -1.1491  0.2503  1.3125
  805MOL0     C10985   2.671   2.874   7.464  0.2108 -0.1803  0.4014
  805MOL0     C10986   2.805   2.863   7.418  0.5194 -0.6893  1.7067
  805MOL0     C10987   2.832   2.775   7.314 -0.8788 -0.6322 -0.5682
  805MOL0     O10988   2.968   2.782   7.283 -0.1958  0.5014  0.0200
  805MOL0     C10989   3.026   2.672   7.216  0.5985 -0.4002  0.3694
  805MOL0     C10990   3.169   2.665   7.253 -0.0241 -0.2944 -0.9846
  805MOL0     C10991   3.265   2.581   7.183 -0.9510  0.2048 -0.7350
  805MOL0     C10992   3.380   2.546   7.276  0.4756  0.1343  0.1649
  805MOL0     C10993   3.495   2.472   7.218 -0.2462  0.0375 -0.1277
  805MOL0     C10994   3.600   2.454   7.328  0.3691 -0.1827  0.6343
  805MOL0     C10995   3.722   2.385   7.259  0.0722  0.5367  0.1774
  805MOL0     C10996   3.840   2.361   7.346  0.8190  0.2632  0.2565
  805MOL0    Cl10997   3.811   2.244   7.480  0.2259 -0.0055 -0.3734
  805MOL0     C10998   2.740   2.686   7.262  0.2185 -0.5262  0.0349
  805MOL0     C10999   2.607   2.700   7.311 -0.1499 -0.2356 -0.8885
  805MOL0     O11000   2.498   2.721   7.681  0.5139 -0.0507 -0.1338
  805MOL0     C11001   2.183   2.728   7.526 -0.5252 -0.3088 -0.1927
  805MOL0     C11002   2.050   2.711   7.553  0.6153  0.1287  0.0251
  805MOL0     N11003   1.293   2.936   7.925 -0.2006  0.1459 -0.2104
  805MOL0     N11004   1.215   2.981   8.014  0.3434 -0.6783 -0.0955
  805MOL0     C11005   0.654   2.397   8.187  0.5389  0.2299 -0.3674
  805MOL0     C11006   0.617   2.342   8.065  0.3772 -0.5064  0.4618
  805MOL0     C11007   0.621   2.188   7.628 -0.6830  0.9208 -0.1185
  805MOL0     C11008   0.526   2.221   7.531  0.3900  0.3861 -0.0873
  805MOL0     C11009   0.531   2.197   7.395 -0.2393  0.3415  0.2075
  805MOL0     C11010   0.638   2.122   7.350 -0.3489  0.1032 -0.0628
  805MOL0     O11011   0.659   2.100   7.217 -0.6888  0.8108  1.1830
  805MOL0     C11012   0.558   2.037   7.145  0.1259  0.3427 -0.1681
  805MOL0     C11013   0.619   1.944   7.037 -0.4470  0.2063 -0.5772
  805MOL0     C11014   0.657   2.017   6.903  0.1262  0.1729 -0.0348
  805MOL0     C11015   0.701   1.914   6.797 -0.3110  0.5643  0.5512
  805MOL0     C11016   0.630   1.792   6.793  1.0634  0.2338 -0.2240
  805MOL0     C11017   0.556   1.697   6.807  0.0206  0.0050  0.9729
  805MOL0     C11018   0.739   2.077   7.438 -0.9499  0.0670  1.2140
  805MOL0     C11019   0.737   2.112   7.579  0.9767 -0.3012  0.6078
  805MOL0     C11020   0.849   2.059   7.659  0.1600  0.3787  0.3779
  805MOL0     H11021   0.929   2.222   7.981  1.0954  0.4538  1.6186
  805MOL0     H11022   0.986   2.319   8.189 -0.3520 -1.1727  0.0556
  805MOL0     H11023   0.688   2.601   8.400  0.1822  2.2772 -0.1510
  805MOL0     H11024   0.797   2.659   8.282 -0.1279  1.7786  1.2448
  805MOL0     H11025   0.846   2.618   8.582 -1.4833 -0.7058 -0.5166
  805MOL0     H11026   0.975   2.617   8.472 -1.2995 -1.3208 -0.5537
  805MOL0     H11027   0.760   2.828   8.465  0.2131  3.0429 -0.3572
  805MOL0     H11028   0.877   2.837   8.601  0.2577 -1.8417  0.3777
  805MOL0     H11029   1.071   2.843   8.451  3.0362  0.0858 -3.8979
  805MOL0     H11030   0.968   2.828   8.304 -2.1978 -0.1485 -0.1135
  805MOL0     H11031   0.979   3.077   8.487  0.0826 -0.0307 -0.3357
  805MOL0     H11032   0.840   3.040   8.379  0.3028 -0.3040  1.3500
  805MOL0     H11033   0.995   3.037   8.187 -2.2636 -0.3207  0.6530
  805MOL0     H11034   0.968   3.191   8.258  1.0239 -0.6162 -2.1519
  805MOL0     H11035   1.220   3.035   8.358 -0.5362  0.5619  0.3610
  805MOL0     H11036   1.161   3.189   8.393 -2.1391  0.7627  1.0720
  805MOL0     H11037   1.150   3.236   8.135  1.8284  0.0382 -2.5899
  805MOL0     H11038   1.309   3.231   8.226 -1.0559  2.5276 -0.2231
  805MOL0     H11039   1.488   3.137   8.099  0.5030  0.3486  0.2144
  805MOL0     H11040   1.612   3.095   7.898 -1.3534  1.4598 -3.0020
  805MOL0     H11041   1.542   3.010   7.773  0.1786  1.2002  0.2814
  805MOL0     H11042   1.693   2.894   7.992  0.3395  0.6435 -0.0634
  805MOL0     H11043   1.557   2.805   7.926  0.5509 -0.3871 -0.8112
  805MOL0     H11044   1.636   2.794   7.714  0.3490 -0.3926  1.7744
  805MOL0     H11045   1.774   2.910   7.732 -0.7503  1.7915 -0.1827
  805MOL0     H11046   1.860   2.722   7.904 -1.6602  0.9231  2.2277
  805MOL0     H11047   1.732   2.612   7.846  0.4704  0.1164 -2.0093
  805MOL0     H11048   2.063   2.712   7.899  0.4917 -4.4822  0.5599
  805MOL0     H11049   2.411   2.835   7.860  2.2379 -2.6702  1.8115
  805MOL0     H11050   2.352   2.687   7.935 -0.7532 -0.7276 -1.6455
  805MOL0     H11051   2.268   2.837   7.965 -1.6802  0.0264 -0.4140
  805MOL0     H11052   2.644   2.934   7.551 -2.0323 -2.0263  1.0691
  805MOL0     H11053   2.894   2.912   7.457  0.3301  2.6174 -1.4885
  805MOL0     H11054   2.977   2.582   7.255  0.5527  0.0001  1.2642
  805MOL0     H11055   3.024   2.673   7.107  0.5490 -1.1957  0.3556
  805MOL0     H11056   3.216   2.763   7.246 -1.1638  0.1589 -3.0370
  805MOL0     H11057   3.167   2.642   7.360  1.3099  0.2624 -0.8150
  805MOL0     H11058   3.300   2.620   7.086  0.3638 -2.6444 -1.4899
  805MOL0     H11059   3.215   2.489   7.151  0.6454 -1.2864  0.8996
  805MOL0     H11060   3.341   2.494   7.364 -1.5174  2.4494  0.7649
  805MOL0     H11061   3.414   2.642   7.316 -3.6108  1.5152  0.8094
  805MOL0     H11062   3.470   2.374   7.176  0.7508 -0.8162  1.2027
  805MOL0     H11063   3.536   2.533   7.137  0.2938 -0.0098  0.1123
  805MOL0     H11064   3.559   2.377   7.394 -1.3092 -0.5139 -0.7196
  805MOL0     H11065   3.634   2.546   7.376 -0.0639 -0.0887  0.7639
  805MOL0     H11066   3.756   2.456   7.184 -0.8035  2.4985  1.5643
  805MOL0     H11067   3.689   2.294   7.207 -0.2766  0.5318  0.4054
  805MOL0     H11068   3.872   2.455   7.391 -1.5786  0.6975  1.1809
  805MOL0     H11069   3.916   2.319   7.279 -1.9835 -2.6662 -1.3567
  805MOL0     H11070   2.757   2.635   7.168 -1.8302  1.4993 -1.5356
  805MOL0     H11071   2.529   2.632   7.278 -0.8199  1.5354 -3.2122
  805MOL0     H11072   2.222   2.741   7.426  1.2269 -0.7676  0.4056
  805MOL0     H11073   1.977   2.721   7.473  0.5032  1.6811  0.2816
  805MOL0     H11074   0.572   2.439   8.244 -0.1067 -0.0008 -1.1156
  805MOL0     H11075   0.511   2.350   8.045  0.6361  1.2021 -0.4066
  805MOL0     H11076   0.439   2.281   7.555  0.3490  0.5758 -0.6936
  805MOL0     H11077   0.462   2.221   7.315  0.2403 -1.1639 -0.6937
  805MOL0     H11078   0.493   1.987   7.217 -0.1467 -0.4267 -0.9304
  805MOL0     H11079   0.498   2.112   7.093  2.0878  0.8298 -1.8464
  805MOL0     H11080   0.537   1.876   7.012  1.9039 -2.7735 -0.8738
  805MOL0     H11081   0.699   1.884   7.083 -2.6984 -0.4296  2.9082
  805MOL0     H11082   0.564   2.062   6.869 -0.5935 -3.2709 -3.2392
  805MOL0     H11083   0.729   2.099   6.916  1.1331 -0.5361 -0.9296
  805MOL0     H11084   0.806   1.885   6.802 -0.2249 -0.5821 -3.9751
  805MOL0     H11085   0.695   1.959   6.697 -0.3047 -2.0397 -0.7039
  805MOL0     H11086   0.481   1.620   6.805 -0.5789  0.5981 -0.4431
  805MOL0     H11087   0.823   2.026   7.392  0.6052  3.4842 -0.1440
  805MOL0     H11088   0.912   1.996   7.596  3.2434  2.6312  0.9786
  805MOL0     H11089   0.924   2.128   7.698  0.9857 -1.1668  1.6236
  805MOL0     H11090   0.819   1.985   7.734  3.0175 -0.8423  0.4403
  806MOL0     O11091   5.341  10.513   8.213  0.7347 -0.5380  0.6379
  806MOL0     C11092   5.370  10.632   8.248  0.4705  0.1358 -0.0803
  806MOL0     O11093   5.494  10.688   8.237 -0.6637  0.1837  0.1391
  806MOL0     C11094   5.611  10.630   8.190  0.5820  0.1888  0.1312
  806MOL0     C11095   5.697  10.712   8.125 -0.1013  0.3013  0.1310
  806MOL0     C11096   5.820  10.671   8.081  0.7190 -0.3752  0.4019
  806MOL0     C11097   5.860  10.540   8.084 -0.0708 -0.0425 -0.5282
  806MOL0     O11098   5.974  10.498   8.025  0.7175  0.2708  0.5667
  806MOL0     C11099   6.021  10.562   7.904 -0.4948 -0.3810  0.0641
  806MOL0     C11100   6.162  10.518   7.885 -0.0643  0.5335 -0.4207
  806MOL0     C11101   6.238  10.596   7.777  0.6295 -0.2099 -0.0296
  806MOL0     C11102   6.371  10.522   7.753 -1.1938 -0.3500  0.5165
  806MOL0     C11103   6.440  10.565   7.616 -0.2468 -0.0746 -0.3997
  806MOL0     C11104   6.592  10.559   7.619  0.7411 -0.0278  0.5722
  806MOL0     C11105   6.645  10.423   7.621 -0.4729  0.7247 -0.3181
  806MOL0     C11106   6.792  10.413   7.675  0.0504  0.4025 -0.6624
  806MOL0     N11107   6.885  10.484   7.588  0.2103 -0.0831  1.1081
  806MOL0     C11108   6.936  10.606   7.615 -0.6660  0.6101 -0.3686
  806MOL0     C11109   6.994  10.644   7.499 -0.2791 -0.3161 -0.3657
  806MOL0     C11110   7.087  10.764   7.479  0.2464  0.2746  0.8487
  806MOL0     C11111   7.228  10.717   7.415  0.6712 -0.3218  0.5030
  806MOL0     C11112   7.306  10.845   7.400  0.4817  0.5333 -0.4825
  806MOL0     C11113   7.427  10.812   7.308  0.5909  0.2546 -0.2690
  806MOL0     O11114   7.472  10.943   7.264  0.1273 -0.5196 -0.5273
  806MOL0     C11115   7.601  10.941   7.221 -0.1511  0.1982  0.0674
  806MOL0     C11116   7.662  10.832   7.144  0.8257  0.7790 -0.3346
  806MOL0     C11117   7.790  10.835   7.097  0.9331 -0.1720  0.1567
  806MOL0     C11118   7.842  10.724   7.006  0.4154 -0.6623  0.1970
  806MOL0     C11119   7.855  10.960   7.106  0.4338  0.3555  0.2817
  806MOL0     C11120   7.977  10.993   7.027  0.0858 -0.1088 -0.0592
  806MOL0     O11121   8.005  11.132   7.010 -0.5696 -0.1069 -0.0779
  806MOL0     C11122   8.129  11.167   6.969  0.6841 -0.0634 -0.1569
  806MOL0     C11123   8.188  11.127   6.850  0.2597 -0.4344 -0.4704
  806MOL0     C11124   8.328  11.149   6.837  1.1067 -0.6336 -0.1050
  806MOL0     C11125   8.390  11.232   6.925 -0.1789 -0.3220 -0.8894
  806MOL0     O11126   8.515  11.267   6.898 -0.6204  0.1478 -0.1613
  806MOL0     C11127   8.618  11.240   6.995  0.4670 -0.3104 -0.5306
  806MOL0     C11128   8.752  11.232   6.932 -0.7909  0.1421 -0.2968
  806MOL0     C11129   8.867  11.212   7.034  0.3106  0.7584 -0.4336
  806MOL0     C11130   9.010  11.214   6.979 -0.3115 -0.4672  0.3856
  806MOL0     C11131   9.114  11.177   7.081 -0.3519  0.2316  0.0055
  806MOL0     C11132   9.244  11.158   7.009  0.6050 -0.1949  0.4492
  806MOL0     C11133   9.339  11.084   7.099 -0.8273  0.6877 -0.3681
  806MOL0     C11134   9.479  11.062   7.046 -0.3801  0.6192 -0.5301
  806MOL0    Cl11135   9.480  10.995   6.886  0.0542 -0.1761 -0.0485
  806MOL0     C11136   8.323  11.279   7.041 -0.5085  0.5000 -0.2323
  806MOL0     C11137   8.188  11.254   7.063 -0.1505  0.0582 -0.1549
  806MOL0     O11138   8.042  10.905   6.975 -0.6820  0.2863  0.0229
  806MOL0     C11139   7.803  11.063   7.180  0.6568 -0.3585 -1.0212
  806MOL0     C11140   7.678  11.053   7.241 -0.8707 -0.0594 -1.2365
  806MOL0     N11141   6.982  10.545   7.408  0.7685 -1.0776  0.3929
  806MOL0     N11142   6.921  10.440   7.465 -0.5680 -1.0157  0.7082
  806MOL0     C11143   5.778  10.452   8.155 -0.4517 -0.0396  0.3709
  806MOL0     C11144   5.650  10.492   8.207  0.1577  0.7125  1.0615
  806MOL0     C11145   5.264  10.727   8.281  0.3855  0.0126 -0.2523
  806MOL0     C11146   5.280  10.858   8.228 -0.3004 -0.4047 -0.4319
  806MOL0     C11147   5.183  10.960   8.271  0.3922 -0.2668  0.3213
  806MOL0     C11148   5.085  10.928   8.356  0.4487  0.7622  0.1511
  806MOL0     O11149   5.006  11.036   8.391 -0.4559 -0.4435  0.1579
  806MOL0     C11150   4.906  11.015   8.490 -0.4608 -0.8098 -0.7125
  806MOL0     C11151   4.825  11.136   8.522  0.4809  0.2005  0.3576
  806MOL0     C11152   4.925  11.247   8.560  0.2474  0.4300 -0.5625
  806MOL0     C11153   4.850  11.367   8.617  0.1388  0.1793  0.0426
  806MOL0     C11154   4.798  11.366   8.752  0.2979  0.6453  0.6107
  806MOL0     C11155   4.743  11.351   8.860  0.6857 -1.1016  0.4693
  806MOL0     C11156   5.066  10.792   8.388 -0.0259  0.4618  0.4012
  806MOL0     C11157   5.146  10.692   8.353  0.2363  0.3173 -1.0570
  806MOL0     C11158   5.126  10.543   8.400  0.4175 -0.8550  0.4684
  806MOL0     H11159   5.657  10.811   8.109  1.4071  1.0429  0.7859
  806MOL0     H11160   5.880  10.745   8.028  0.1591 -0.7072 -0.7379
  806MOL0     H11161   6.022  10.671   7.909  3.2088 -0.3511  2.0943
  806MOL0     H11162   5.969  10.528   7.814  0.0939 -0.6334 -0.1881
  806MOL0     H11163   6.220  10.537   7.975  0.1362  0.6713 -0.5773
  806MOL0     H11164   6.162  10.412   7.860  3.8813  0.1430  0.6228
  806MOL0     H11165   6.175  10.582   7.689 -1.8539 -4.6132  2.1162
  806MOL0     H11166   6.245  10.704   7.797 -0.7321 -0.5182  2.6012
  806MOL0     H11167   6.433  10.551   7.838 -0.7486 -1.5601  0.6319
  806MOL0     H11168   6.351  10.414   7.752 -3.0188 -0.0471 -1.0645
  806MOL0     H11169   6.415  10.670   7.598  1.6721  0.2454 -1.4621
  806MOL0     H11170   6.405  10.498   7.536  2.3386 -1.4515 -0.4924
  806MOL0     H11171   6.627  10.614   7.531  2.9690  1.8727  2.4911
  806MOL0     H11172   6.617  10.620   7.706 -1.7679  3.6025 -1.0203
  806MOL0     H11173   6.634  10.372   7.526  0.2257  1.3102 -0.7275
  806MOL0     H11174   6.580  10.369   7.690 -0.6684 -0.7847 -1.6312
  806MOL0     H11175   6.811  10.444   7.778  1.1301 -0.7978 -0.4804
  806MOL0     H11176   6.808  10.305   7.680 -1.8995  0.0718 -0.4212
  806MOL0     H11177   6.940  10.658   7.711 -0.9413  0.7674 -0.4410
  806MOL0     H11178   7.091  10.822   7.572  1.3319  0.8800  0.4374
  806MOL0     H11179   7.041  10.838   7.413 -1.3605  0.3489  1.9845
  806MOL0     H11180   7.277  10.641   7.477 -1.8521 -3.3239 -0.9086
  806MOL0     H11181   7.201  10.673   7.318  1.9820  1.0487 -0.5428
  806MOL0     H11182   7.241  10.918   7.351 -2.3495 -0.7135  1.1888
  806MOL0     H11183   7.347  10.874   7.498  0.8757 -2.7945  0.4433
  806MOL0     H11184   7.501  10.764   7.373  1.5187 -1.1572 -2.2609
  806MOL0     H11185   7.396  10.743   7.229  0.3207 -0.8014  0.7246
  806MOL0     H11186   7.598  10.748   7.119  0.3230  0.7385  1.0044
  806MOL0     H11187   7.842  10.748   6.899  3.0416 -2.0401 -0.1903
  806MOL0     H11188   7.782  10.634   7.018 -4.7207  2.2420 -0.4435
  806MOL0     H11189   7.943  10.697   7.038  0.3684 -0.1352  0.8194
  806MOL0     H11190   8.135  11.065   6.779  1.9121  0.0154 -2.1639
  806MOL0     H11191   8.383  11.117   6.749 -0.1835  0.5127 -1.3751
  806MOL0     H11192   8.623  11.323   7.065  0.9650 -0.2960 -0.5822
  806MOL0     H11193   8.591  11.149   7.049  0.9398 -1.1415 -1.6636
  806MOL0     H11194   8.745  11.140   6.873 -1.2287  0.1835 -0.3115
  806MOL0     H11195   8.764  11.321   6.871  2.5481  0.2957  0.3677
  806MOL0     H11196   8.840  11.116   7.079  2.2309 -0.5366 -1.9005
  806MOL0     H11197   8.866  11.290   7.112  2.7444  1.3350 -0.9180
  806MOL0     H11198   9.039  11.314   6.945 -0.0661  0.3806  2.8601
  806MOL0     H11199   9.018  11.145   6.895  2.6517  0.4243 -0.1638
  806MOL0     H11200   9.124  11.258   7.154 -1.5922  1.0726 -0.7105
  806MOL0     H11201   9.083  11.089   7.137 -0.0532 -0.2004 -0.4975
  806MOL0     H11202   9.283  11.256   6.979  0.5927 -0.4798 -0.5246
  806MOL0     H11203   9.226  11.104   6.915  0.2026  0.6383  0.0386
  806MOL0     H11204   9.298  10.987   7.128 -0.8750  1.0217  0.7208
  806MOL0     H11205   9.359  11.144   7.188  1.9064  3.2319 -2.4732
  806MOL0     H11206   9.539  11.009   7.121  0.3847  1.0674 -0.8103
  806MOL0     H11207   9.531  11.159   7.045 -0.4904  0.7690  1.7919
  806MOL0     H11208   8.381  11.340   7.111 -1.8601  0.2856  1.1395
  806MOL0     H11209   8.140  11.299   7.148  1.1963 -1.1257  1.3036
  806MOL0     H11210   7.839  11.166   7.181  0.1827 -0.1882  0.0604
  806MOL0     H11211   7.637  11.142   7.288  0.5513  1.0284 -1.9847
  806MOL0     H11212   5.815  10.350   8.156  0.2317  0.1986  1.5038
  806MOL0     H11213   5.574  10.420   8.235 -0.2512  0.7577  0.1086
  806MOL0     H11214   5.364  10.891   8.168  1.1586 -1.1224  1.1277
  806MOL0     H11215   5.198  11.065   8.249 -0.5605 -0.1959 -0.0181
  806MOL0     H11216   4.834  10.943   8.450  0.0494 -2.0808  0.5579
  806MOL0     H11217   4.948  10.978   8.584 -1.2562  0.3288  0.1063
  806MOL0     H11218   4.763  11.117   8.610  0.3797 -0.9889  0.0446
  806MOL0     H11219   4.762  11.170   8.439 -0.5251 -0.8514  0.6703
  806MOL0     H11220   4.994  11.194   8.626 -1.3769  0.9671  1.6989
  806MOL0     H11221   4.982  11.280   8.472  0.7494  0.9586 -0.0469
  806MOL0     H11222   4.774  11.396   8.545  0.5768  2.6381  0.4914
  806MOL0     H11223   4.923  11.449   8.620  1.3850 -0.9389  1.9602
  806MOL0     H11224   4.699  11.342   8.957 -1.2764  1.4144 -0.0497
  806MOL0     H11225   4.976  10.759   8.439 -0.6103 -1.6006 -1.7882
  806MOL0     H11226   5.116  10.469   8.320  1.2693 -3.2401  2.4870
  806MOL0     H11227   5.199  10.528   8.479  0.5351  1.7835  0.9760
  806MOL0     H11228   5.028  10.531   8.446 -0.0222 -0.2216 -0.2539
  807MOL0     O11229   9.727   3.423   3.854 -0.3006 -0.6684  0.2642
  807MOL0     C11230   9.805   3.514   3.888 -0.0814  0.4302 -0.0417
  807MOL0     O11231   9.770   3.626   3.949 -0.8725 -0.0023  0.3091
  807MOL0     C11232   9.665   3.639   4.037 -0.3254 -0.0213  0.2442
  807MOL0     C11233   9.547   3.561   4.037  0.2159 -0.5680 -0.3924
  807MOL0     C11234   9.456   3.583   4.144  0.2882 -0.0500  0.0467
  807MOL0     C11235   9.474   3.685   4.244 -0.1249  0.2934  0.4809
  807MOL0     O11236   9.375   3.733   4.329 -0.6971  0.4821  0.4691
  807MOL0     C11237   9.331   3.647   4.434  0.7229  0.7619 -0.2533
  807MOL0     C11238   9.186   3.658   4.489  0.0893 -0.2851  0.0342
  807MOL0     C11239   9.086   3.657   4.370  0.4004 -1.5188 -0.0288
  807MOL0     C11240   8.936   3.621   4.418 -0.1748  0.0050 -0.6507
  807MOL0     C11241   8.830   3.630   4.316  0.2762 -0.0538  0.2366
  807MOL0     C11242   8.781   3.493   4.259  0.1006 -0.0520 -0.5321
  807MOL0     C11243   8.685   3.518   4.133  0.0588  0.9300 -0.7553
  807MOL0     C11244   8.733   3.616   4.030 -0.0357 -0.3893  0.2827
  807MOL0     N11245   8.873   3.601   3.972 -0.3611  0.8462  0.1035
  807MOL0     C11246   8.917   3.487   3.912  0.0113  0.0344  0.2681
  807MOL0     C11247   9.056   3.507   3.895  0.1050 -0.3726  0.0928
  807MOL0     C11248   9.162   3.415   3.854  0.1702 -0.4528  0.1927
  807MOL0     C11249   9.269   3.489   3.769  0.1083 -0.2141  0.5515
  807MOL0     C11250   9.378   3.391   3.727  0.0972  1.0924 -1.0270
  807MOL0     C11251   9.355   3.369   3.571 -0.1166 -0.2987  0.4042
  807MOL0     O11252   9.461   3.287   3.532  0.3184  0.1988  1.0398
  807MOL0     C11253   9.577   3.356   3.489 -0.0967  1.5089 -0.0594
  807MOL0     C11254   9.598   3.491   3.472  0.1516  0.2980 -1.2386
  807MOL0     C11255   9.717   3.544   3.424 -0.1314 -0.0820 -0.5612
  807MOL0     C11256   9.731   3.695   3.403  0.5160  0.1413 -0.7854
  807MOL0     C11257   9.825   3.460   3.393  0.3915  0.7420  0.5283
  807MOL0     C11258   9.947   3.508   3.315 -0.3414  0.1545  0.0958
  807MOL0     O11259   9.987   3.636   3.315  0.6818 -0.1542 -0.3755
  807MOL0     C11260  10.082   3.679   3.223  0.0589  0.7882 -0.1013
  807MOL0     C11261  10.215   3.640   3.240  0.0173  0.0815 -0.2789
  807MOL0     C11262  10.315   3.687   3.155 -0.3674 -0.2396  0.1853
  807MOL0     C11263  10.280   3.759   3.040  0.3296  0.4071  0.2297
  807MOL0     O11264  10.380   3.800   2.958  0.0260  0.1200  0.3594
  807MOL0     C11265  10.354   3.911   2.883  0.7242 -0.3060  0.5832
  807MOL0     C11266  10.496   3.932   2.824 -0.4353 -0.1688  0.0013
  807MOL0     C11267  10.477   4.048   2.719  0.8870 -0.1071  0.4131
  807MOL0     C11268  10.477   3.989   2.580  0.0396  0.1602  0.7355
  807MOL0     C11269  10.436   4.095   2.473  0.5087 -0.1688  0.3888
  807MOL0     C11270  10.406   4.036   2.336  0.1223  0.0435  0.1800
  807MOL0     C11271  10.373   4.145   2.237 -0.3383 -0.1791 -0.3311
  807MOL0     C11272  10.240   4.220   2.252  0.2142 -0.2839 -0.0280
  807MOL0    Cl11273  10.268   4.361   2.378  0.4081  0.1594 -0.1696
  807MOL0     C11274  10.144   3.770   3.010  0.0801  0.2445 -0.7375
  807MOL0     C11275  10.049   3.742   3.102 -0.6687 -0.2041 -0.4520
  807MOL0     O11276  10.007   3.416   3.259  0.7126  0.6445 -0.1665
  807MOL0     C11277   9.807   3.314   3.414 -0.5037 -0.5367 -1.0017
  807MOL0     C11278   9.681   3.267   3.462 -0.4688  0.7899  0.3962
  807MOL0     N11279   9.080   3.641   3.949  0.1424  0.8786  1.4074
  807MOL0     N11280   8.971   3.687   3.988 -0.0465  0.8524  0.3907
  807MOL0     C11281   9.594   3.753   4.240  0.9485  0.8223  0.2641
  807MOL0     C11282   9.682   3.739   4.132  0.0529  0.1916 -0.0697
  807MOL0     C11283   9.937   3.517   3.814 -0.4396 -0.0602  0.2123
  807MOL0     C11284   9.981   3.411   3.729  0.4521  0.3645 -0.2025
  807MOL0     C11285  10.099   3.410   3.662 -0.5463 -0.9106 -0.1825
  807MOL0     C11286  10.188   3.509   3.662 -0.1026 -0.0086 -0.0450
  807MOL0     O11287  10.301   3.500   3.588  0.1048  0.3292 -0.1960
  807MOL0     C11288  10.419   3.576   3.623 -0.4723 -0.4207 -0.7496
  807MOL0     C11289  10.513   3.491   3.703  0.2921 -0.1152  0.0652
  807MOL0     C11290  10.630   3.564   3.763 -0.5870 -0.3162 -0.3503
  807MOL0     C11291  10.726   3.459   3.827  0.2149 -0.1651 -0.6572
  807MOL0     C11292  10.796   3.378   3.728 -0.7252 -0.1029 -0.0328
  807MOL0     C11293  10.864   3.314   3.651  0.2975  0.3350  0.2445
  807MOL0     C11294  10.155   3.614   3.755 -0.4526  0.2975  0.3142
  807MOL0     C11295  10.036   3.621   3.833  0.1795 -0.1611  0.5568
  807MOL0     C11296  10.037   3.720   3.947 -0.3403  0.3432  0.5702
  807MOL0     H11297   9.535   3.482   3.963  1.7115 -3.3508  2.1058
  807MOL0     H11298   9.361   3.532   4.135  0.1088  0.6246 -5.9401
  807MOL0     H11299   9.395   3.658   4.522  1.3171 -1.7237 -0.3240
  807MOL0     H11300   9.350   3.543   4.406 -2.5885  0.1995 -0.8218
  807MOL0     H11301   9.162   3.572   4.553  0.5213 -1.9924 -1.9772
  807MOL0     H11302   9.181   3.755   4.538  2.9384 -0.2415  0.3885
  807MOL0     H11303   9.081   3.751   4.314 -0.6297 -2.2291 -1.1904
  807MOL0     H11304   9.116   3.587   4.292  3.1662 -4.1342  3.0699
  807MOL0     H11305   8.939   3.521   4.463  0.9012  0.2767 -0.0795
  807MOL0     H11306   8.915   3.690   4.500 -0.8383 -2.6053  1.5207
  807MOL0     H11307   8.867   3.686   4.230 -2.7544 -2.8275 -3.2464
  807MOL0     H11308   8.739   3.674   4.359  1.7558  0.7284  2.7863
  807MOL0     H11309   8.862   3.421   4.241  0.3983 -0.2397  1.3839
  807MOL0     H11310   8.736   3.440   4.344 -0.2514 -1.6622 -1.6612
  807MOL0     H11311   8.588   3.554   4.169  1.3385  2.3492  1.6047
  807MOL0     H11312   8.665   3.419   4.092 -0.2889 -0.3036  2.1158
  807MOL0     H11313   8.661   3.614   3.947  1.9212 -0.6964 -1.5047
  807MOL0     H11314   8.737   3.713   4.081  3.2756  0.6045 -1.5509
  807MOL0     H11315   8.860   3.395   3.896  0.2541  0.1581 -1.5200
  807MOL0     H11316   9.120   3.334   3.794  1.4825 -0.6326 -0.5272
  807MOL0     H11317   9.211   3.375   3.944  0.4887  0.3946  0.4098
  807MOL0     H11318   9.243   3.555   3.687  0.6963  2.6912  2.5378
  807MOL0     H11319   9.308   3.558   3.845 -3.7867  1.2658  1.4649
  807MOL0     H11320   9.476   3.435   3.749  1.4935 -1.9409 -0.7359
  807MOL0     H11321   9.370   3.296   3.780 -0.1487  1.2083 -0.8531
  807MOL0     H11322   9.260   3.320   3.550  0.3540 -1.1253  0.1702
  807MOL0     H11323   9.353   3.467   3.521  0.9018 -0.9098 -0.9002
  807MOL0     H11324   9.523   3.561   3.507  2.1755  1.5126  0.9266
  807MOL0     H11325   9.636   3.749   3.406  0.7074  0.4544  1.6606
  807MOL0     H11326   9.769   3.716   3.303  0.2899  1.1676 -0.6609
  807MOL0     H11327   9.788   3.747   3.481 -0.0640 -1.8113  1.0454
  807MOL0     H11328  10.234   3.572   3.323  0.2177 -1.5091 -1.5831
  807MOL0     H11329  10.418   3.662   3.178 -1.3347 -2.0007  3.1513
  807MOL0     H11330  10.290   3.873   2.803  3.0171 -1.6691 -0.7051
  807MOL0     H11331  10.324   4.005   2.929  1.8213  1.7762 -2.6446
  807MOL0     H11332  10.575   3.960   2.894 -1.7985 -0.2757  1.6363
  807MOL0     H11333  10.527   3.841   2.771 -0.2650 -0.4701  0.6088
  807MOL0     H11334  10.555   4.124   2.733  0.8486  0.9787 -4.0197
  807MOL0     H11335  10.392   4.108   2.751  2.6480  1.4512  2.5012
  807MOL0     H11336  10.402   3.911   2.565 -0.0128  0.3438  0.0490
  807MOL0     H11337  10.573   3.938   2.566 -0.7104 -1.7284  2.0671
  807MOL0     H11338  10.339   4.132   2.507  0.1617  0.8548 -1.5647
  807MOL0     H11339  10.506   4.178   2.460 -1.4979  1.3538 -1.4624
  807MOL0     H11340  10.327   3.960   2.343 -0.9298  1.0056 -0.8961
  807MOL0     H11341  10.496   3.983   2.306  1.1752  1.3730  0.9132
  807MOL0     H11342  10.355   4.081   2.150 -2.4431  2.0276 -1.6254
  807MOL0     H11343  10.455   4.212   2.209 -1.1601  0.0808 -2.3088
  807MOL0     H11344  10.155   4.157   2.277 -0.1342  1.1180  2.6388
  807MOL0     H11345  10.227   4.267   2.154 -0.3366 -0.7591 -0.1863
  807MOL0     H11346  10.114   3.791   2.907  1.7738 -1.0186 -1.5335
  807MOL0     H11347   9.946   3.771   3.081 -0.8492 -0.5151 -0.0047
  807MOL0     H11348   9.879   3.240   3.381 -1.2127 -1.1067 -1.3140
  807MOL0     H11349   9.648   3.163   3.469  1.8433  0.0840  1.6820
  807MOL0     H11350   9.611   3.838   4.305  3.2473  0.9520 -0.4345
  807MOL0     H11351   9.772   3.800   4.128 -0.7649  1.4495  0.2482
  807MOL0     H11352   9.907   3.333   3.712  0.5663  0.2295 -0.0744
  807MOL0     H11353  10.120   3.324   3.600 -0.2338 -1.6212  0.8961
  807MOL0     H11354  10.484   3.604   3.539 -0.7603  1.3489 -0.4369
  807MOL0     H11355  10.388   3.668   3.675  0.1540 -0.7245  0.2025
  807MOL0     H11356  10.553   3.411   3.639  1.8855  0.0247  0.8485
  807MOL0     H11357  10.458   3.438   3.781  3.7182 -1.1729  1.9651
  807MOL0     H11358  10.680   3.622   3.685 -3.2855  3.0134  0.1414
  807MOL0     H11359  10.605   3.638   3.839  0.1412  0.3681 -0.7625
  807MOL0     H11360  10.665   3.392   3.888 -0.1792 -0.9499 -1.8750
  807MOL0     H11361  10.800   3.501   3.896  0.3225 -3.2587  1.2981
  807MOL0     H11362  10.930   3.254   3.593  0.8953  1.7041 -0.5330
  807MOL0     H11363  10.224   3.698   3.759  0.1462  0.4871 -5.3937
  807MOL0     H11364  10.135   3.767   3.961 -1.2780  3.5623 -2.2094
  807MOL0     H11365   9.980   3.812   3.929  1.6138  1.5890  0.4330
  807MOL0     H11366  10.016   3.670   4.042 -0.2424  0.5401  0.6971
  808MOL0     O11367   5.417   6.502   6.220  0.0556 -0.1779  0.4791
  808MOL0     C11368   5.396   6.385   6.194 -0.5932 -0.2869 -0.7742
  808MOL0     O11369   5.497   6.302   6.166 -0.4365  0.7618 -0.7385
  808MOL0     C11370   5.623   6.326   6.213 -0.3306  0.2194  0.1959
  808MOL0     C11371   5.728   6.349   6.121  0.5432 -1.0445  0.4149
  808MOL0     C11372   5.858   6.371   6.167  0.1625 -0.3235  0.3423
  808MOL0     C11373   5.885   6.367   6.308 -0.0883  0.2173 -0.3450
  808MOL0     O11374   6.007   6.387   6.352  0.1772  0.0047  0.0887
  808MOL0     C11375   6.103   6.275   6.337  0.9873  1.3159 -0.1707
  808MOL0     C11376   6.240   6.325   6.387  0.2883  0.4801  0.4759
  808MOL0     C11377   6.252   6.356   6.534  1.0495  0.5387  0.0487
  808MOL0     C11378   6.401   6.374   6.582 -0.4659 -0.3537  0.0318
  808MOL0     C11379   6.400   6.403   6.735 -0.3866  0.0087  0.0231
  808MOL0     C11380   6.396   6.266   6.805  0.4185 -0.2334 -0.8392
  808MOL0     C11381   6.423   6.293   6.951  0.7093  1.0447 -0.4297
  808MOL0     C11382   6.295   6.329   7.023 -0.2468  0.5716 -0.5792
  808MOL0     N11383   6.304   6.294   7.171  0.6561  0.4018  0.4606
  808MOL0     C11384   6.341   6.380   7.266  0.2502  0.2668  0.7522
  808MOL0     C11385   6.335   6.311   7.385  0.6379 -0.5356 -1.1698
  808MOL0     C11386   6.389   6.369   7.511  0.3376 -0.2515  0.9330
  808MOL0     C11387   6.535   6.333   7.517  0.5269  0.6996 -0.6403
  808MOL0     C11388   6.596   6.373   7.654  0.9580 -0.0806 -0.4442
  808MOL0     C11389   6.656   6.520   7.643 -0.7444  0.2886 -0.1484
  808MOL0     O11390   6.770   6.525   7.551  0.0849 -0.6568 -0.3583
  808MOL0     C11391   6.894   6.529   7.601 -0.7698 -0.1755 -0.1639
  808MOL0     C11392   6.985   6.571   7.508  0.9798 -0.7896  0.5895
  808MOL0     C11393   7.125   6.577   7.551 -0.1553 -0.2475  0.0507
  808MOL0     C11394   7.222   6.616   7.438 -0.3460  0.2986  0.3205
  808MOL0     C11395   7.164   6.542   7.689 -0.3441 -1.2611  0.7733
  808MOL0     C11396   7.307   6.549   7.734  0.1320 -0.2465  0.0504
  808MOL0     O11397   7.398   6.614   7.650 -0.1077 -0.5675 -0.2626
  808MOL0     C11398   7.530   6.628   7.692  0.0371 -0.2281 -1.0832
  808MOL0     C11399   7.559   6.743   7.756  0.2434 -0.2199  0.2459
  808MOL0     C11400   7.690   6.769   7.799  0.5035  0.8631 -0.3593
  808MOL0     C11401   7.795   6.672   7.777 -0.6098 -0.7180 -1.4067
  808MOL0     O11402   7.931   6.688   7.814  0.3918  0.0041 -1.2399
  808MOL0     C11403   7.973   6.823   7.842  0.4016 -0.0703 -0.6737
  808MOL0     C11404   8.124   6.819   7.850 -0.3348  0.8033  0.2004
  808MOL0     C11405   8.181   6.952   7.815 -1.2732 -0.7423  0.5313
  808MOL0     C11406   8.120   7.068   7.882  0.0108  0.3692 -0.3324
  808MOL0     C11407   8.190   7.202   7.869  0.4861 -0.3996 -0.4456
  808MOL0     C11408   8.158   7.258   7.728  0.3932  0.2676  0.1084
  808MOL0     C11409   8.226   7.394   7.697 -0.4781 -0.6301  0.2813
  808MOL0     C11410   8.180   7.462   7.569 -0.2593  0.0579  0.3885
  808MOL0    Cl11411   8.296   7.579   7.509 -0.5289 -0.0490  0.0039
  808MOL0     C11412   7.760   6.558   7.708  0.8330 -0.1191 -0.2564
  808MOL0     C11413   7.628   6.532   7.670  0.0944 -1.1709 -0.1984
  808MOL0     O11414   7.330   6.520   7.849  0.1417  0.4620 -0.6037
  808MOL0     C11415   7.058   6.504   7.779 -1.3225 -0.8651  0.0880
  808MOL0     C11416   6.927   6.502   7.739  0.0361  0.8157  0.6316
  808MOL0     N11417   6.296   6.184   7.359 -0.3965  0.0741 -0.0403
  808MOL0     N11418   6.277   6.174   7.230 -0.2057  0.6842 -0.4363
  808MOL0     C11419   5.783   6.337   6.396 -0.2552 -0.0696  0.1525
  808MOL0     C11420   5.654   6.313   6.351  0.6878 -0.0690 -0.0533
  808MOL0     C11421   5.258   6.340   6.189 -0.1774  0.1959  0.1198
  808MOL0     C11422   5.213   6.256   6.087  0.0501 -0.5128  0.2558
  808MOL0     C11423   5.076   6.221   6.079 -0.7758  0.3109 -0.0259
  808MOL0     C11424   4.982   6.266   6.167 -0.1876  0.0176  0.8540
  808MOL0     O11425   4.856   6.212   6.164 -0.3056 -0.2867 -0.1201
  808MOL0     C11426   4.750   6.287   6.232  0.0856 -0.8000  0.1959
  808MOL0     C11427   4.611   6.237   6.168 -0.6555 -0.1016 -0.0849
  808MOL0     C11428   4.607   6.253   6.014 -0.3654  0.3295 -0.4904
  808MOL0     C11429   4.468   6.281   5.958 -0.1439  0.0640  0.0136
  808MOL0     C11430   4.457   6.309   5.812 -0.8189 -0.3834  0.4019
  808MOL0     C11431   4.443   6.327   5.696 -0.1327 -0.9972  0.2751
  808MOL0     C11432   5.028   6.356   6.263  0.6547  0.0488 -0.0494
  808MOL0     C11433   5.162   6.397   6.276 -0.1408 -0.1977 -0.0396
  808MOL0     C11434   5.211   6.467   6.407  0.3354 -0.0345  0.0114
  808MOL0     H11435   5.703   6.369   6.017 -0.0864  1.2098  0.9369
  808MOL0     H11436   5.933   6.394   6.093  0.5418  0.7950  1.0514
  808MOL0     H11437   6.110   6.248   6.231  0.3123  3.3256 -0.7673
  808MOL0     H11438   6.070   6.203   6.412  2.6611  1.1350  0.4479
  808MOL0     H11439   6.315   6.249   6.361 -0.9214  0.2702 -2.8695
  808MOL0     H11440   6.258   6.417   6.330 -0.8703 -0.8187 -2.2110
  808MOL0     H11441   6.194   6.447   6.550 -1.4574 -0.7075 -1.4453
  808MOL0     H11442   6.215   6.270   6.589  1.6169 -1.0864 -2.0019
  808MOL0     H11443   6.454   6.282   6.554 -0.0371  1.0176 -4.5596
  808MOL0     H11444   6.456   6.452   6.528 -0.2929 -0.9487 -0.6768
  808MOL0     H11445   6.313   6.462   6.763 -1.7641 -1.5782 -0.7075
  808MOL0     H11446   6.494   6.449   6.766  0.7339 -0.7630 -2.0280
  808MOL0     H11447   6.303   6.209   6.797  1.3722 -2.2280  1.1173
  808MOL0     H11448   6.482   6.208   6.769 -0.2619 -1.7656 -0.0964
  808MOL0     H11449   6.507   6.356   6.983  1.5448  0.1025 -0.7202
  808MOL0     H11450   6.454   6.197   6.993  1.7600  1.5181 -0.0759
  808MOL0     H11451   6.263   6.434   7.018  0.4462  0.7665 -0.9997
  808MOL0     H11452   6.208   6.276   6.984 -1.0179  1.8411 -0.6504
  808MOL0     H11453   6.383   6.478   7.244 -1.8055  0.7462 -1.4967
  808MOL0     H11454   6.323   6.334   7.590 -0.9187  1.1954  0.5712
  808MOL0     H11455   6.381   6.478   7.510  2.8976  0.0042 -0.7620
  808MOL0     H11456   6.541   6.224   7.515  1.3571  0.7362 -0.4212
  808MOL0     H11457   6.588   6.379   7.433  0.3529  0.4715 -0.8736
  808MOL0     H11458   6.528   6.387   7.738  1.9309 -0.5401  0.4463
  808MOL0     H11459   6.675   6.300   7.675  0.2750 -0.9316 -0.7475
  808MOL0     H11460   6.591   6.595   7.596 -0.3565 -0.1204 -1.3970
  808MOL0     H11461   6.681   6.550   7.745  1.5180 -1.1204 -0.2207
  808MOL0     H11462   6.955   6.582   7.404  3.1530 -0.0489 -0.0345
  808MOL0     H11463   7.234   6.725   7.438 -0.1274  0.2855  1.3359
  808MOL0     H11464   7.178   6.584   7.343 -1.9172  0.1107  1.0765
  808MOL0     H11465   7.324   6.575   7.438  0.1841  1.4376  2.6053
  808MOL0     H11466   7.480   6.817   7.757  0.0656 -0.1745 -3.2195
  808MOL0     H11467   7.693   6.858   7.861 -3.1955  1.4670 -0.7622
  808MOL0     H11468   7.937   6.895   7.767  2.0303  2.2958  0.6754
  808MOL0     H11469   7.939   6.858   7.940 -1.0271  0.1532 -1.2184
  808MOL0     H11470   8.151   6.803   7.955  0.8636 -2.5522 -0.4968
  808MOL0     H11471   8.165   6.745   7.782  0.4889  2.3576 -1.0628
  808MOL0     H11472   8.168   6.972   7.708 -2.2973 -1.6556  0.4674
  808MOL0     H11473   8.284   6.943   7.850  0.1448 -0.1647 -3.0657
  808MOL0     H11474   8.124   7.045   7.989 -3.0259  0.1838 -0.1692
  808MOL0     H11475   8.014   7.082   7.859  0.1890 -0.7690 -1.9750
  808MOL0     H11476   8.155   7.269   7.948  0.1277 -0.9754 -0.1099
  808MOL0     H11477   8.298   7.190   7.885  0.6101  0.0781 -0.8769
  808MOL0     H11478   8.050   7.275   7.719  0.2116 -1.2908 -1.0971
  808MOL0     H11479   8.174   7.184   7.649 -1.4951 -0.5277  0.4099
  808MOL0     H11480   8.334   7.396   7.711 -0.0656  5.7537 -0.4497
  808MOL0     H11481   8.197   7.462   7.778  0.6155 -0.7999  0.8294
  808MOL0     H11482   8.084   7.514   7.578 -0.1958 -0.0968  2.2750
  808MOL0     H11483   8.166   7.387   7.491 -2.0133 -0.0055  0.7307
  808MOL0     H11484   7.836   6.489   7.675  1.9261  1.0850 -0.3417
  808MOL0     H11485   7.591   6.450   7.609  1.4630  0.6911 -3.8521
  808MOL0     H11486   7.096   6.479   7.878  0.8669 -2.5295 -1.0832
  808MOL0     H11487   6.863   6.470   7.820  0.9748  0.2001  1.1392
  808MOL0     H11488   5.805   6.331   6.502 -1.1755  0.6631  0.3994
  808MOL0     H11489   5.590   6.274   6.430  0.9075 -0.3599 -0.0140
  808MOL0     H11490   5.273   6.212   6.008  0.6229  0.5819  0.0702
  808MOL0     H11491   5.044   6.170   5.988  1.7449  1.6538 -1.7954
  808MOL0     H11492   4.748   6.274   6.341 -2.0788 -1.1773  0.1658
  808MOL0     H11493   4.754   6.394   6.211 -2.0607  0.6981  5.6457
  808MOL0     H11494   4.523   6.291   6.203  0.0127  1.7707 -1.1395
  808MOL0     H11495   4.611   6.132   6.199  0.6878  0.3234  1.5186
  808MOL0     H11496   4.666   6.339   5.981  2.1426 -1.5121 -1.1123
  808MOL0     H11497   4.651   6.161   5.974 -0.1082 -2.0060  4.3954
  808MOL0     H11498   4.426   6.360   6.020  1.3893  0.3987  0.6646
  808MOL0     H11499   4.406   6.193   5.981 -1.1117  0.4339 -1.0365
  808MOL0     H11500   4.432   6.349   5.592 -0.1494 -0.1963  0.4425
  808MOL0     H11501   4.964   6.398   6.339 -2.6258 -0.6851 -2.1694
  808MOL0     H11502   5.142   6.452   6.491 -1.0971  2.9992 -0.4522
  808MOL0     H11503   5.311   6.432   6.433 -0.5028 -1.3052  1.7868
  808MOL0     H11504   5.214   6.575   6.387 -1.2354 -0.3503 -2.3012
  809MOL0     O11505   2.914   7.877   2.052  0.0078 -0.5455  0.5434
  809MOL0     C11506   2.920   7.773   2.122  1.0843  0.4249 -0.1046
  809MOL0     O11507   3.032   7.699   2.152  0.0174 -0.5010 -0.0756
  809MOL0     C11508   3.155   7.750   2.110 -0.1909 -0.1268 -0.0760
  809MOL0     C11509   3.251   7.667   2.045  0.1158 -0.3911 -0.9139
  809MOL0     C11510   3.372   7.715   2.001 -0.8797 -0.3473  0.1950
  809MOL0     C11511   3.408   7.852   2.023  0.3573 -0.1479 -0.0699
  809MOL0     O11512   3.520   7.909   1.970 -0.1799 -0.1478 -0.1885
  809MOL0     C11513   3.645   7.876   2.039  0.0675 -0.0923  0.8182
  809MOL0     C11514   3.676   7.970   2.152  0.1231 -1.1849  0.1114
  809MOL0     C11515   3.695   8.115   2.103  0.5900 -1.0460  1.1732
  809MOL0     C11516   3.833   8.144   2.044 -0.1674 -0.7897 -0.2092
  809MOL0     C11517   3.826   8.278   1.978  0.8047  0.1986 -0.2731
  809MOL0     C11518   3.955   8.321   1.914  0.1775  0.3895  0.0416
  809MOL0     C11519   3.948   8.468   1.879 -0.5111  0.0096 -0.7208
  809MOL0     C11520   4.013   8.539   1.996  0.2579  0.3106 -0.7039
  809MOL0     N11521   4.032   8.677   1.975 -0.1026 -0.3932 -0.1575
  809MOL0     C11522   3.946   8.780   1.982  1.2490  0.8853  0.3325
  809MOL0     C11523   4.020   8.889   1.975  0.1487  0.6384 -0.3074
  809MOL0     C11524   3.965   9.034   1.983  0.1041  0.5990  0.8452
  809MOL0     C11525   3.875   9.065   1.860 -0.4225  1.2503  0.4635
  809MOL0     C11526   3.948   9.131   1.735 -0.1117  0.5880  0.2676
  809MOL0     C11527   3.849   9.195   1.643  0.1619  0.2920 -0.2621
  809MOL0     O11528   3.880   9.276   1.537 -0.4195 -0.2722 -0.9728
  809MOL0     C11529   3.784   9.314   1.448 -0.1800 -0.0395 -0.0889
  809MOL0     C11530   3.815   9.383   1.335  0.1884  0.2785  0.5648
  809MOL0     C11531   3.718   9.413   1.239 -0.5231 -0.1646 -0.3691
  809MOL0     C11532   3.766   9.492   1.120 -0.3390  0.2433  0.1741
  809MOL0     C11533   3.583   9.382   1.262  0.4632 -0.7206 -0.5771
  809MOL0     C11534   3.478   9.422   1.166  0.0192  0.8192 -0.1973
  809MOL0     O11535   3.493   9.393   1.040  0.1338  0.2110  0.1993
  809MOL0     C11536   3.389   9.400   0.949  0.5854  0.0823 -0.4055
  809MOL0     C11537   3.425   9.397   0.818 -0.2724 -0.1522 -0.0033
  809MOL0     C11538   3.340   9.426   0.713 -0.7224 -0.8855 -0.0433
  809MOL0     C11539   3.204   9.432   0.737  0.0283  0.0536 -0.1521
  809MOL0     O11540   3.136   9.448   0.625 -0.3180  0.2588  0.1684
  809MOL0     C11541   3.004   9.401   0.627 -0.3757  0.2684 -0.7355
  809MOL0     C11542   2.941   9.389   0.483  0.2767 -0.6226 -0.1929
  809MOL0     C11543   2.792   9.345   0.478  0.1958  0.6124 -1.3421
  809MOL0     C11544   2.753   9.317   0.334 -0.9214 -0.9234 -0.8075
  809MOL0     C11545   2.615   9.271   0.313 -0.2672  0.2081 -0.1281
  809MOL0     C11546   2.583   9.201   0.179 -0.1413 -0.5146  0.2211
  809MOL0     C11547   2.442   9.142   0.174  0.3066  0.4256 -0.9176
  809MOL0     C11548   2.441   9.003   0.225  0.4643  0.1625  0.0324
  809MOL0    Cl11549   2.280   8.933   0.190  0.1969  0.6417 -0.0454
  809MOL0     C11550   3.162   9.414   0.867  0.0547 -0.1551  0.3443
  809MOL0     C11551   3.251   9.397   0.973  0.5228 -0.1333 -0.1283
  809MOL0     O11552   3.392   9.493   1.213 -0.2332 -0.7612 -0.3329
  809MOL0     C11553   3.545   9.323   1.384 -0.4944  0.0763 -0.5595
  809MOL0     C11554   3.640   9.288   1.473 -0.1076 -0.2762  0.1963
  809MOL0     N11555   4.153   8.852   1.970  0.2261  0.2963  0.2996
  809MOL0     N11556   4.161   8.722   1.967 -0.0222  0.9311  0.3354
  809MOL0     C11557   3.314   7.933   2.096 -0.5381  0.0097 -0.2567
  809MOL0     C11558   3.192   7.881   2.140 -0.3436  0.4560  0.3053
  809MOL0     C11559   2.797   7.715   2.188  0.2096  1.3947  0.0138
  809MOL0     C11560   2.808   7.601   2.258 -0.1861 -0.4942 -0.2553
  809MOL0     C11561   2.705   7.551   2.344 -1.4239  1.0309  0.6871
  809MOL0     C11562   2.582   7.618   2.342 -0.7603 -0.2961  1.0394
  809MOL0     O11563   2.485   7.567   2.418 -0.0540 -0.0053  0.1442
  809MOL0     C11564   2.366   7.645   2.439  0.0539  0.0642 -0.1849
  809MOL0     C11565   2.263   7.618   2.344 -0.5177 -0.3109 -1.0146
  809MOL0     C11566   2.207   7.475   2.367 -0.3293 -0.3905 -0.3575
  809MOL0     C11567   2.121   7.413   2.255 -0.0397 -1.1114 -0.2762
  809MOL0     C11568   2.001   7.495   2.225 -0.4099 -0.6455  0.3334
  809MOL0     C11569   1.906   7.565   2.197 -0.6621 -0.1497  0.5477
  809MOL0     C11570   2.565   7.726   2.254  0.3637 -0.1246  0.4422
  809MOL0     C11571   2.672   7.779   2.184  0.1137  0.4429 -0.2085
  809MOL0     C11572   2.647   7.906   2.109  1.2108  0.0565 -0.1511
  809MOL0     H11573   3.230   7.561   2.029  0.5347 -0.2857 -2.2854
  809MOL0     H11574   3.440   7.658   1.939  0.3680  0.4798  0.7671
  809MOL0     H11575   3.731   7.875   1.972 -0.1091  1.6262  0.5156
  809MOL0     H11576   3.635   7.771   2.070  0.1087 -0.4391 -0.3057
  809MOL0     H11577   3.599   7.961   2.229  2.9122 -0.2350  3.2504
  809MOL0     H11578   3.767   7.931   2.197  0.7932  0.2012  0.0148
  809MOL0     H11579   3.619   8.131   2.026 -0.5203 -2.2523  1.9704
  809MOL0     H11580   3.648   8.180   2.177 -3.1030 -0.2406 -1.6300
  809MOL0     H11581   3.907   8.138   2.124 -1.2336 -0.5393  0.8196
  809MOL0     H11582   3.872   8.070   1.973  3.8974  1.5834 -0.7977
  809MOL0     H11583   3.791   8.349   2.054  2.0518  1.2147 -0.6266
  809MOL0     H11584   3.745   8.276   1.905 -0.3353  0.0379  0.9379
  809MOL0     H11585   4.050   8.301   1.965  0.1411  1.6495  0.6565
  809MOL0     H11586   3.952   8.260   1.823 -1.3449 -0.3377  0.5504
  809MOL0     H11587   3.847   8.510   1.866  0.1376  0.8235 -4.3530
  809MOL0     H11588   4.011   8.480   1.790 -0.1125 -1.9027 -0.7573
  809MOL0     H11589   3.944   8.529   2.080  0.4358 -0.7952 -0.6820
  809MOL0     H11590   4.104   8.494   2.035 -0.8788  0.7195  2.7334
  809MOL0     H11591   3.837   8.777   1.983  1.2481 -2.8232  1.7061
  809MOL0     H11592   4.052   9.100   1.987  0.3078  0.5904 -1.9375
  809MOL0     H11593   3.911   9.071   2.072  3.3586  1.3024  2.6848
  809MOL0     H11594   3.830   8.970   1.830  0.1867  1.0716  0.1061
  809MOL0     H11595   3.788   9.125   1.887 -1.1488 -0.1114  1.2805
  809MOL0     H11596   4.029   9.202   1.757  0.2639  0.0147  0.7626
  809MOL0     H11597   3.999   9.051   1.680 -0.3580  0.8776 -0.4040
  809MOL0     H11598   3.792   9.111   1.602 -0.3978  0.2297  0.6263
  809MOL0     H11599   3.774   9.248   1.701 -1.1812 -0.3108 -1.4011
  809MOL0     H11600   3.921   9.401   1.325 -0.1635  2.6038  0.5024
  809MOL0     H11601   3.871   9.523   1.115  0.5423 -2.5748 -0.3990
  809MOL0     H11602   3.703   9.581   1.133 -1.3593  0.0229 -2.5348
  809MOL0     H11603   3.741   9.439   1.027 -1.8185  1.5702 -0.2329
  809MOL0     H11604   3.530   9.377   0.798 -0.5489 -0.7516 -0.9100
  809MOL0     H11605   3.389   9.435   0.617 -1.3978 -2.4939 -0.5655
  809MOL0     H11606   3.007   9.300   0.667 -1.3151  0.6945  0.4606
  809MOL0     H11607   2.936   9.453   0.695  1.0655  0.5756  0.5331
  809MOL0     H11608   2.943   9.490   0.443 -1.1121  1.0520  3.5424
  809MOL0     H11609   3.001   9.325   0.418 -1.6051 -1.6111 -1.0363
  809MOL0     H11610   2.735   9.421   0.532  1.6401 -0.4878  1.9252
  809MOL0     H11611   2.780   9.250   0.531  0.1388  1.9097  1.0694
  809MOL0     H11612   2.823   9.233   0.319  1.8649 -0.3122  5.3600
  809MOL0     H11613   2.761   9.405   0.269 -0.0977 -0.5230 -0.1825
  809MOL0     H11614   2.598   9.209   0.401  1.3392 -2.8012 -1.7752
  809MOL0     H11615   2.551   9.360   0.322  2.0384  1.8130  1.5412
  809MOL0     H11616   2.652   9.122   0.151  0.2124 -1.8586  4.2132
  809MOL0     H11617   2.592   9.282   0.105 -0.4839 -2.6306 -2.2857
  809MOL0     H11618   2.411   9.116   0.073 -2.5396 -2.5722  0.5245
  809MOL0     H11619   2.368   9.198   0.233 -1.9176 -1.9364 -1.2593
  809MOL0     H11620   2.466   8.991   0.331 -0.0496  2.8146  0.5413
  809MOL0     H11621   2.514   8.944   0.168  0.3480  1.2420 -1.2996
  809MOL0     H11622   3.055   9.404   0.877 -0.4552 -0.5334 -3.7497
  809MOL0     H11623   3.198   9.380   1.066  0.6408 -2.5750 -0.4575
  809MOL0     H11624   3.440   9.307   1.407  0.1738 -2.0745  1.4286
  809MOL0     H11625   3.601   9.248   1.566 -0.4154  1.3747  0.8229
  809MOL0     H11626   3.353   8.029   2.129  1.5541 -0.8514 -0.0322
  809MOL0     H11627   3.135   7.942   2.209 -0.6096  0.0881  0.4083
  809MOL0     H11628   2.902   7.545   2.253  1.0600  1.5923 -1.7386
  809MOL0     H11629   2.718   7.468   2.413 -1.8507 -0.1098 -0.5780
  809MOL0     H11630   2.325   7.632   2.540  1.2481 -0.1986  0.2802
  809MOL0     H11631   2.380   7.753   2.432 -0.6752  0.1043 -1.3539
  809MOL0     H11632   2.317   7.605   2.250  0.3632  1.1321 -0.7331
  809MOL0     H11633   2.189   7.697   2.333  0.8220  1.0776 -0.4638
  809MOL0     H11634   2.288   7.405   2.387 -0.4072  0.1351  2.0782
  809MOL0     H11635   2.156   7.472   2.464  0.0134  0.6893 -0.1339
  809MOL0     H11636   2.083   7.314   2.284 -0.6338 -0.6224  0.7113
  809MOL0     H11637   2.182   7.397   2.166  0.4694 -0.2441 -0.0977
  809MOL0     H11638   1.826   7.630   2.166 -0.4497 -0.5901 -1.0048
  809MOL0     H11639   2.471   7.780   2.246 -0.2298 -1.0496  0.9302
  809MOL0     H11640   2.711   7.983   2.153 -0.7570  0.0742  3.0224
  809MOL0     H11641   2.657   7.887   2.002 -0.1785 -0.4799 -0.2163
  809MOL0     H11642   2.545   7.943   2.122  0.4340 -1.3677 -1.8066
  810MOL0     O11643   9.084   6.360   5.484 -0.0606 -0.4409  0.3225
  810MOL0     C11644   9.005   6.318   5.397 -0.6351 -1.0936  0.1942
  810MOL0     O11645   9.027   6.303   5.262 -0.1604  0.6257 -0.0998
  810MOL0     C11646   9.157   6.270   5.233 -0.1678 -0.3801 -0.0543
  810MOL0     C11647   9.196   6.136   5.236 -0.7767 -0.5784  0.1343
  810MOL0     C11648   9.324   6.094   5.195  0.1292  0.7143  0.5211
  810MOL0     C11649   9.408   6.190   5.143  0.0897  0.5671  0.1197
  810MOL0     O11650   9.532   6.156   5.098  0.5387  0.3276 -0.4998
  810MOL0     C11651   9.621   6.083   5.177 -0.9228  0.3205  0.7474
  810MOL0     C11652   9.755   6.118   5.112  0.1867  0.2092 -0.5796
  810MOL0     C11653   9.873   6.055   5.197  0.5908  0.1129  0.5244
  810MOL0     C11654   9.919   6.143   5.313  0.3273  0.0219  0.0785
  810MOL0     C11655  10.017   6.064   5.407 -0.5090  0.4844  0.0102
  810MOL0     C11656  10.131   5.996   5.335  0.4691  0.8169  0.1434
  810MOL0     C11657  10.217   6.105   5.274  1.3269  0.1934 -1.0316
  810MOL0     C11658  10.328   6.030   5.183 -0.0021  0.3104 -0.0796
  810MOL0     N11659  10.422   6.127   5.144 -0.5049 -0.4149  0.8390
  810MOL0     C11660  10.535   6.156   5.227 -0.1000  0.5741 -0.0036
  810MOL0     C11661  10.624   6.203   5.137 -0.6517  0.5729 -0.1514
  810MOL0     C11662  10.759   6.247   5.171  0.7709 -0.3521  0.2843
  810MOL0     C11663  10.765   6.361   5.277  0.8009  0.5016 -0.1278
  810MOL0     C11664  10.906   6.417   5.278 -0.1455  0.0991  0.9954
  810MOL0     C11665  10.937   6.504   5.402  0.0348  0.3949  0.4520
  810MOL0     O11666  10.941   6.431   5.523 -0.2129 -0.1904 -0.0681
  810MOL0     C11667  11.067   6.409   5.579 -0.1107 -0.2554  0.6707
  810MOL0     C11668  11.184   6.405   5.503 -0.0899  0.9635  0.2208
  810MOL0     C11669  11.315   6.388   5.563 -0.0693 -0.5490  0.3895
  810MOL0     C11670  11.428   6.393   5.471 -0.6461 -0.2458  0.0427
  810MOL0     C11671  11.325   6.382   5.706  0.1660  0.4456  0.1464
  810MOL0     C11672  11.461   6.375   5.771  0.7369 -0.2249 -0.4637
  810MOL0     O11673  11.570   6.451   5.741 -0.3345 -0.5571 -0.1953
  810MOL0     C11674  11.682   6.463   5.822  0.2721 -0.3725 -0.6038
  810MOL0     C11675  11.761   6.567   5.784  0.0495  0.2763  0.1092
  810MOL0     C11676  11.877   6.607   5.858  0.4813 -0.0633 -0.3549
  810MOL0     C11677  11.909   6.533   5.976 -0.4261 -0.2787  0.5893
  810MOL0     O11678  12.018   6.577   6.042 -0.8949  0.6185 -0.0226
  810MOL0     C11679  12.106   6.485   6.124  0.5220  0.3099  0.4572
  810MOL0     C11680  12.167   6.375   6.020  0.5430  0.4788 -0.0029
  810MOL0     C11681  12.288   6.420   5.945 -1.1992  0.0462  0.7365
  810MOL0     C11682  12.263   6.551   5.860 -0.6518 -0.5986  0.1703
  810MOL0     C11683  12.398   6.596   5.791 -0.3076  0.0947 -0.6880
  810MOL0     C11684  12.389   6.715   5.692 -0.3110 -0.6774 -0.4214
  810MOL0     C11685  12.498   6.736   5.587  0.0006  0.0031 -1.0971
  810MOL0     C11686  12.637   6.756   5.645  0.8443  0.4176  0.6028
  810MOL0    Cl11687  12.759   6.813   5.527 -0.6264 -0.1483 -0.0242
  810MOL0     C11688  11.828   6.424   6.013 -0.4855 -0.3866  0.2535
  810MOL0     C11689  11.722   6.386   5.933 -0.3898  0.5194  0.5316
  810MOL0     O11690  11.458   6.295   5.869 -0.1944 -0.2993  0.9913
  810MOL0     C11691  11.201   6.366   5.777 -0.7262  0.0777 -0.6237
  810MOL0     C11692  11.081   6.387   5.719 -0.1525 -0.5595  1.1487
  810MOL0     N11693  10.573   6.213   5.012  0.7224 -0.8500 -0.3342
  810MOL0     N11694  10.455   6.165   5.017  0.3225  0.7285 -0.4238
  810MOL0     C11695   9.361   6.319   5.124  0.1241  0.7288 -0.1158
  810MOL0     C11696   9.245   6.362   5.172  0.2531 -0.6929  0.4112
  810MOL0     C11697   8.867   6.301   5.437 -0.4272 -0.5678 -0.0647
  810MOL0     C11698   8.771   6.360   5.355 -0.8530 -0.0907 -0.6928
  810MOL0     C11699   8.637   6.370   5.398 -0.4428  1.1356 -0.1959
  810MOL0     C11700   8.597   6.305   5.519 -0.3430  0.7920  0.2337
  810MOL0     O11701   8.467   6.323   5.556  0.4845  0.3928 -0.2518
  810MOL0     C11702   8.442   6.298   5.693 -0.6244 -0.0294 -0.2955
  810MOL0     C11703   8.303   6.349   5.729 -1.0299 -0.1976 -0.6304
  810MOL0     C11704   8.297   6.500   5.691  0.5047  0.2241 -1.0716
  810MOL0     C11705   8.197   6.580   5.781  0.1924  0.2592 -0.3391
  810MOL0     C11706   8.271   6.669   5.867 -0.9423  0.2210  0.3059
  810MOL0     C11707   8.334   6.737   5.945 -0.0144 -0.4534 -0.1186
  810MOL0     C11708   8.698   6.231   5.587  0.4268 -0.6262 -0.1112
  810MOL0     C11709   8.828   6.232   5.552 -0.0267 -0.4508  0.3794
  810MOL0     C11710   8.936   6.160   5.632 -0.0374 -0.3873  0.5329
  810MOL0     H11711   9.133   6.060   5.281 -1.1259 -1.1093 -1.2149
  810MOL0     H11712   9.350   5.989   5.198 -0.1143  0.5178 -2.3038
  810MOL0     H11713   9.597   5.977   5.165 -0.5256  0.4125 -1.0516
  810MOL0     H11714   9.618   6.122   5.280  2.1084  0.3061  0.9305
  810MOL0     H11715   9.758   6.098   5.005 -0.0041 -4.1163  0.0450
  810MOL0     H11716   9.766   6.226   5.126  0.8276  0.0710  0.0747
  810MOL0     H11717   9.840   5.953   5.218 -1.0099 -0.5418 -3.9399
  810MOL0     H11718   9.955   6.036   5.127  0.0557  1.6681 -0.5695
  810MOL0     H11719   9.968   6.233   5.274 -0.4162  1.0218  1.3730
  810MOL0     H11720   9.828   6.171   5.366 -0.2542  0.4430 -1.1079
  810MOL0     H11721   9.969   5.983   5.463  3.4159 -2.0105  0.1411
  810MOL0     H11722  10.057   6.131   5.483  1.4014 -0.7776  0.1702
  810MOL0     H11723  10.189   5.944   5.412 -0.1766  0.3138  0.2967
  810MOL0     H11724  10.100   5.918   5.265  0.8358 -0.6034  1.4887
  810MOL0     H11725  10.258   6.170   5.352 -2.2090 -0.4005  1.5779
  810MOL0     H11726  10.160   6.170   5.209  1.2913  3.2304  1.7800
  810MOL0     H11727  10.375   5.950   5.240 -2.7948 -2.2103 -1.0995
  810MOL0     H11728  10.292   5.981   5.092 -3.0291 -1.0529  1.6952
  810MOL0     H11729  10.544   6.120   5.329 -2.9692 -3.3547 -0.9040
  810MOL0     H11730  10.801   6.294   5.081  2.5686  0.5552  1.5329
  810MOL0     H11731  10.823   6.164   5.202  1.3389 -0.3468 -0.8462
  810MOL0     H11732  10.699   6.445   5.256  0.7143  1.8129  4.3352
  810MOL0     H11733  10.738   6.318   5.374  4.4095 -2.3485 -0.1506
  810MOL0     H11734  10.974   6.332   5.290 -2.3242 -1.4628  3.1889
  810MOL0     H11735  10.926   6.470   5.184  1.3888  1.1335  1.8615
  810MOL0     H11736  11.029   6.559   5.385  0.2205 -0.4360 -1.5637
  810MOL0     H11737  10.869   6.587   5.423 -1.2363 -1.0922  2.6060
  810MOL0     H11738  11.192   6.405   5.395 -2.4207  2.5830 -0.0198
  810MOL0     H11739  11.404   6.320   5.393  2.9581  0.1552 -1.6930
  810MOL0     H11740  11.521   6.360   5.519 -1.3830 -0.6771  1.2083
  810MOL0     H11741  11.452   6.490   5.426  2.5011 -0.7758  0.3147
  810MOL0     H11742  11.740   6.637   5.703  0.2121  1.4326  1.0447
  810MOL0     H11743  11.942   6.685   5.819 -0.8046  0.2838 -1.9408
  810MOL0     H11744  12.184   6.543   6.173  0.8004  0.1432  0.2132
  810MOL0     H11745  12.043   6.434   6.197 -2.3505 -0.6595 -2.4436
  810MOL0     H11746  12.193   6.284   6.075 -2.5167 -2.4383 -2.8577
  810MOL0     H11747  12.087   6.341   5.953  0.7567 -1.5890  0.7133
  810MOL0     H11748  12.331   6.351   5.871 -1.5550 -1.1034  1.5778
  810MOL0     H11749  12.374   6.444   6.009 -1.2598 -1.2398  1.3325
  810MOL0     H11750  12.224   6.634   5.919 -1.1462 -0.5590 -0.1994
  810MOL0     H11751  12.191   6.527   5.781 -0.6817  0.0980 -0.0159
  810MOL0     H11752  12.457   6.630   5.876  3.7624 -2.3467 -2.2693
  810MOL0     H11753  12.447   6.507   5.752  1.4575  1.0564 -0.7608
  810MOL0     H11754  12.374   6.805   5.753  0.0671  0.4465 -1.9310
  810MOL0     H11755  12.299   6.701   5.631 -2.0959  1.2846  1.5912
  810MOL0     H11756  12.494   6.820   5.516 -1.7554  2.5733  1.7677
  810MOL0     H11757  12.511   6.644   5.530  1.0548 -1.6926  1.6971
  810MOL0     H11758  12.673   6.659   5.683 -2.2819 -1.9594 -1.9722
  810MOL0     H11759  12.637   6.830   5.725 -1.1755  3.2022 -1.7787
  810MOL0     H11760  11.864   6.367   6.098 -0.4137 -3.9811 -1.9536
  810MOL0     H11761  11.663   6.311   5.985 -1.9906 -1.0474 -3.1433
  810MOL0     H11762  11.200   6.351   5.884 -2.5220  0.4939 -0.5391
  810MOL0     H11763  10.991   6.391   5.779  0.6010  1.6000  2.2212
  810MOL0     H11764   9.442   6.382   5.088  2.2108 -3.1088 -3.0213
  810MOL0     H11765   9.209   6.465   5.166 -1.4827 -1.2598  0.4568
  810MOL0     H11766   8.794   6.403   5.258 -0.5656 -0.4453 -0.7873
  810MOL0     H11767   8.567   6.421   5.332 -0.7621  0.8521 -0.0813
  810MOL0     H11768   8.454   6.194   5.725 -2.8198 -0.1360  0.3403
  810MOL0     H11769   8.518   6.348   5.754  1.9735 -4.0376  0.1732
  810MOL0     H11770   8.277   6.339   5.834 -0.8015  0.0210 -0.5512
  810MOL0     H11771   8.229   6.297   5.668 -2.4670 -1.9650  2.4532
  810MOL0     H11772   8.396   6.548   5.685  2.4407 -2.4489  3.8396
  810MOL0     H11773   8.243   6.510   5.596  0.8773 -0.3118 -1.3480
  810MOL0     H11774   8.134   6.514   5.842  1.6212 -0.3756  0.5194
  810MOL0     H11775   8.130   6.648   5.728 -0.5573 -0.3465 -0.1909
  810MOL0     H11776   8.382   6.798   6.018  0.0119  1.7657 -1.8740
  810MOL0     H11777   8.668   6.178   5.676 -0.1685  1.7776  1.1918
  810MOL0     H11778   9.005   6.112   5.562 -0.9137  0.8717 -1.3157
  810MOL0     H11779   8.988   6.235   5.692 -0.3143  2.1760 -2.1575
  810MOL0     H11780   8.884   6.085   5.691  0.4938  0.5370  2.2260
  811MOL0     O11781   1.841   9.946   4.683  0.6865  0.5120  0.7518
  811MOL0     C11782   1.812   9.896   4.793  0.2527 -1.4703 -0.8341
  811MOL0     O11783   1.904   9.893   4.898 -0.2004 -0.1107  0.0482
  811MOL0     C11784   2.034   9.946   4.892  1.1267  0.3037 -0.8337
  811MOL0     C11785   2.095  10.014   4.788  0.2872  0.4189 -0.0371
  811MOL0     C11786   2.219  10.065   4.816  0.2141  0.6056 -0.1144
  811MOL0     C11787   2.275  10.068   4.945 -0.2777 -0.3541  0.2063
  811MOL0     O11788   2.373  10.150   4.987  0.3589 -0.2536  0.0010
  811MOL0     C11789   2.472  10.200   4.894  0.8733 -0.5371  0.2589
  811MOL0     C11790   2.575  10.279   4.977  0.1787  0.1575  0.2429
  811MOL0     C11791   2.526  10.391   5.073 -1.5813 -1.0303 -0.6115
  811MOL0     C11792   2.656  10.452   5.132  0.0217  0.7446  0.2405
  811MOL0     C11793   2.621  10.573   5.210 -0.1914  0.1578  0.4083
  811MOL0     C11794   2.748  10.640   5.253  1.0584 -1.3059 -1.0112
  811MOL0     C11795   2.711  10.750   5.357  0.4191 -0.1860 -0.1632
  811MOL0     C11796   2.828  10.836   5.396  0.3683  0.6759 -0.1629
  811MOL0     N11797   2.917  10.755   5.481 -0.3261  0.5150 -0.5481
  811MOL0     C11798   3.036  10.703   5.437  0.4681  0.4788 -0.2897
  811MOL0     C11799   3.079  10.617   5.530  0.2639 -0.2198  0.8609
  811MOL0     C11800   3.217  10.558   5.515  0.0633  0.5989 -0.3925
  811MOL0     C11801   3.210  10.401   5.543 -0.4618 -0.3219  0.2658
  811MOL0     C11802   3.131  10.338   5.435  0.7588 -0.3398 -0.0708
  811MOL0     C11803   2.980  10.335   5.447  0.0338  1.5313 -0.4810
  811MOL0     O11804   2.919  10.220   5.391 -0.2663 -0.3955  0.0950
  811MOL0     C11805   2.782  10.200   5.396  0.0902 -0.9057  0.2471
  811MOL0     C11806   2.731  10.090   5.328 -0.2851  0.7082  0.3962
  811MOL0     C11807   2.592  10.056   5.317  0.0316  0.0276 -0.7068
  811MOL0     C11808   2.560   9.937   5.230 -0.1308  0.1513  0.4661
  811MOL0     C11809   2.509  10.137   5.396  0.1146  0.3412 -0.6071
  811MOL0     C11810   2.363  10.100   5.409  0.7220  0.5059 -0.9484
  811MOL0     O11811   2.294  10.203   5.465  0.1642 -0.4394 -0.0182
  811MOL0     C11812   2.169  10.196   5.503  0.0007 -0.2111 -1.0038
  811MOL0     C11813   2.147  10.220   5.634  0.2515  0.1152 -0.0296
  811MOL0     C11814   2.012  10.239   5.680  0.6180  0.7341  0.2092
  811MOL0     C11815   1.901  10.226   5.595 -0.4878 -0.3351  0.6096
  811MOL0     O11816   1.765  10.224   5.616  0.6139  0.2013 -0.1951
  811MOL0     C11817   1.725  10.245   5.752 -0.2365  0.1365  0.6854
  811MOL0     C11818   1.578  10.269   5.765 -0.0351  0.3949 -0.8518
  811MOL0     C11819   1.547  10.416   5.747  0.9923 -0.3320 -0.1135
  811MOL0     C11820   1.407  10.452   5.778  0.2613  0.1780  0.6249
  811MOL0     C11821   1.376  10.592   5.742 -0.3071 -0.3608 -0.0393
  811MOL0     C11822   1.237  10.625   5.810 -0.2989  0.1736 -0.3147
  811MOL0     C11823   1.178  10.771   5.778  0.3563  0.3827 -0.4990
  811MOL0     C11824   1.170  10.796   5.632 -0.3695  0.1063 -0.1160
  811MOL0    Cl11825   1.047  10.697   5.544 -0.0361 -0.2453  0.2047
  811MOL0     C11826   1.934  10.194   5.459 -0.0853 -1.0760 -0.5291
  811MOL0     C11827   2.065  10.180   5.414 -0.3963 -0.7419  0.0686
  811MOL0     O11828   2.325   9.985   5.397  0.1643  0.6160  0.1632
  811MOL0     C11829   2.557  10.256   5.461  0.5271 -0.2936 -0.3960
  811MOL0     C11830   2.695  10.277   5.468 -0.3007 -0.2362  0.3233
  811MOL0     N11831   3.005  10.627   5.635  0.9353 -0.5255 -0.5352
  811MOL0     N11832   2.902  10.701   5.612 -0.3961  0.2765  0.1794
  811MOL0     C11833   2.211   9.999   5.052 -0.0747  0.4423 -0.0764
  811MOL0     C11834   2.095   9.932   5.025 -0.6180 -0.4417 -0.6272
  811MOL0     C11835   1.673   9.843   4.833  0.2620 -0.6421 -0.8920
  811MOL0     C11836   1.672   9.770   4.951  0.6085  0.2922  0.1763
  811MOL0     C11837   1.557   9.712   5.000  0.8279 -0.5848 -0.1071
  811MOL0     C11838   1.432   9.730   4.932  0.4978  0.0503 -0.0713
  811MOL0     O11839   1.328   9.682   5.002 -0.1146  0.1853 -0.0809
  811MOL0     C11840   1.204   9.655   4.937 -0.1438 -0.5882  0.0642
  811MOL0     C11841   1.101   9.601   5.036  0.5254  0.1458 -0.6949
  811MOL0     C11842   1.070   9.706   5.148 -0.4083 -0.1771 -0.2573
  811MOL0     C11843   0.983   9.651   5.258 -0.0456 -0.1487  0.0145
  811MOL0     C11844   0.983   9.756   5.359 -0.4212 -0.2615 -0.4655
  811MOL0     C11845   0.989   9.837   5.445 -0.9784 -0.5364  0.3166
  811MOL0     C11846   1.431   9.800   4.816 -0.5721 -0.6470 -0.3129
  811MOL0     C11847   1.548   9.860   4.762 -0.8909  0.2632 -1.2900
  811MOL0     C11848   1.547   9.939   4.637 -0.1208 -0.0272  0.1992
  811MOL0     H11849   2.047  10.056   4.700  0.8520  3.1511  0.8663
  811MOL0     H11850   2.275  10.111   4.735 -0.3621 -0.9220 -1.4045
  811MOL0     H11851   2.422  10.269   4.826  3.0111  0.8234 -0.0094
  811MOL0     H11852   2.515  10.126   4.827  0.5195  0.4797 -1.1179
  811MOL0     H11853   2.627  10.204   5.038 -0.8628 -1.1472 -0.4325
  811MOL0     H11854   2.650  10.325   4.912  2.5722 -2.3226  1.0566
  811MOL0     H11855   2.457  10.464   5.029 -0.5927  1.4625  1.6410
  811MOL0     H11856   2.468  10.344   5.153 -1.3322  0.4135  0.4666
  811MOL0     H11857   2.710  10.375   5.188 -0.7038  0.0440 -0.0148
  811MOL0     H11858   2.722  10.485   5.052  1.5998  1.1917  1.6608
  811MOL0     H11859   2.566  10.543   5.300 -0.7696 -0.0269  0.0012
  811MOL0     H11860   2.563  10.642   5.149  0.1965  0.0299 -0.1087
  811MOL0     H11861   2.808  10.560   5.299 -1.6709 -3.9745 -1.7658
  811MOL0     H11862   2.794  10.694   5.170 -0.3124 -2.0683 -2.3099
  811MOL0     H11863   2.658  10.718   5.448  0.0706  0.8473  0.0144
  811MOL0     H11864   2.638  10.822   5.317  0.4756 -0.1158 -0.1418
  811MOL0     H11865   2.882  10.867   5.306 -1.1842  1.7849 -0.7613
  811MOL0     H11866   2.787  10.927   5.441  2.8740  0.5819  2.5451
  811MOL0     H11867   3.093  10.724   5.347  1.5209  1.4253  0.5621
  811MOL0     H11868   3.283  10.615   5.581 -1.1174 -1.2422  2.5607
  811MOL0     H11869   3.251  10.579   5.413 -1.5427 -0.8484 -1.2868
  811MOL0     H11870   3.313  10.362   5.545  1.3802  3.6888 -2.5430
  811MOL0     H11871   3.163  10.386   5.640  0.5425  0.0918  0.8304
  811MOL0     H11872   3.168  10.386   5.344  0.6961  0.9439  0.5586
  811MOL0     H11873   3.155  10.232   5.427  3.4179  0.1923  0.0419
  811MOL0     H11874   2.960  10.354   5.553 -0.3609 -0.7182 -0.1145
  811MOL0     H11875   2.934  10.423   5.399 -0.7928  0.7979 -1.0707
  811MOL0     H11876   2.801  10.024   5.277 -0.8721  0.0364  0.4513
  811MOL0     H11877   2.595   9.839   5.265 -0.8124 -0.7256 -1.2145
  811MOL0     H11878   2.623   9.947   5.141 -0.8029  2.9010  0.2214
  811MOL0     H11879   2.462   9.947   5.183 -0.2009 -0.5111  0.4613
  811MOL0     H11880   2.240  10.234   5.690  0.8708  1.3599 -1.3014
  811MOL0     H11881   1.996  10.248   5.786  3.4510 -0.5345  0.8461
  811MOL0     H11882   1.757  10.156   5.807  1.6486  0.9443  0.9972
  811MOL0     H11883   1.783  10.333   5.782  0.6309  0.1305 -0.8563
  811MOL0     H11884   1.520  10.203   5.700 -0.6921 -0.7815  0.8548
  811MOL0     H11885   1.551  10.252   5.870 -0.1575  0.3524 -0.8904
  811MOL0     H11886   1.568  10.452   5.646 -2.2222  1.1427 -0.3494
  811MOL0     H11887   1.624  10.468   5.805  0.1254  0.9412 -0.0638
  811MOL0     H11888   1.394  10.443   5.886  2.9085 -2.5086  0.8327
  811MOL0     H11889   1.343  10.383   5.723 -0.0495  0.6239  0.4202
  811MOL0     H11890   1.450  10.670   5.764 -0.6906  0.1443 -0.5261
  811MOL0     H11891   1.366  10.605   5.634 -1.2251  2.0703  0.2879
  811MOL0     H11892   1.243  10.627   5.920 -0.3493  2.8789 -0.2834
  811MOL0     H11893   1.159  10.556   5.778 -0.2490 -0.8050  1.5601
  811MOL0     H11894   1.240  10.845   5.829  0.3990  1.1279 -1.6129
  811MOL0     H11895   1.074  10.777   5.812  0.2810  1.1387 -0.8547
  811MOL0     H11896   1.266  10.794   5.581  0.6758 -0.1735  1.7654
  811MOL0     H11897   1.136  10.898   5.611 -3.1281 -0.4070  1.3686
  811MOL0     H11898   1.855  10.189   5.385  0.7787  1.7166 -1.7664
  811MOL0     H11899   2.085  10.156   5.310  1.9288 -1.7131  0.6615
  811MOL0     H11900   2.488  10.321   5.514 -0.2567 -1.5231  0.1428
  811MOL0     H11901   2.739  10.358   5.525  1.0209 -0.5463 -0.2213
  811MOL0     H11902   2.246  10.009   5.155 -0.4190  4.1703 -0.1918
  811MOL0     H11903   2.039   9.886   5.106 -1.9901  0.5820 -0.9673
  811MOL0     H11904   1.763   9.745   5.006  1.1680 -4.0092 -2.2682
  811MOL0     H11905   1.567   9.673   5.101 -0.9358  0.9634  0.7487
  811MOL0     H11906   1.164   9.749   4.899  0.8691  0.9767  2.5973
  811MOL0     H11907   1.223   9.589   4.852  1.6674  2.3975 -2.0373
  811MOL0     H11908   1.127   9.505   5.081 -1.0350 -0.2162 -0.5125
  811MOL0     H11909   1.004   9.583   4.988 -1.0889  0.3348  2.2592
  811MOL0     H11910   1.169   9.735   5.185  0.4139 -2.7947 -0.2179
  811MOL0     H11911   1.018   9.788   5.098 -1.5406 -2.5337 -3.2407
  811MOL0     H11912   1.025   9.558   5.297  1.0361  1.2719  2.4927
  811MOL0     H11913   0.881   9.620   5.231  0.0920  0.1370 -0.8639
  811MOL0     H11914   0.986   9.908   5.525 -0.2702  0.2292 -0.3206
  811MOL0     H11915   1.342   9.812   4.755 -0.7114 -2.2110 -0.4622
  811MOL0     H11916   1.443   9.932   4.602  0.3882  1.1154 -1.6994
  811MOL0     H11917   1.579  10.040   4.665  0.3561 -0.2432  0.4383
  811MOL0     H11918   1.608   9.898   4.556  0.6919  1.5382 -0.0214
  812MOL0     O11919   4.720  10.356  10.933 -0.2246  0.6070 -0.3045
  812MOL0     C11920   4.650  10.371  10.840  0.1834 -0.4690  0.2816
  812MOL0     O11921   4.618  10.488  10.781  0.1762 -0.3292  0.7155
  812MOL0     C11922   4.697  10.594  10.816 -0.3615 -0.8203  0.5180
  812MOL0     C11923   4.805  10.631  10.742  0.6721  0.3208  0.2430
  812MOL0     C11924   4.874  10.746  10.768 -1.0697  0.1118 -0.5711
  812MOL0     C11925   4.837  10.836  10.868  0.2122 -0.0869  0.6949
  812MOL0     O11926   4.908  10.950  10.884  0.1155 -0.4449 -0.5551
  812MOL0     C11927   4.968  10.967  11.014  0.0592  0.4378 -0.8343
  812MOL0     C11928   4.996  11.114  11.054 -1.0653 -0.0444 -0.1050
  812MOL0     C11929   5.108  11.174  10.960  0.4369  0.0352 -0.3289
  812MOL0     C11930   5.247  11.100  10.978  0.0937 -0.0699 -0.2148
  812MOL0     C11931   5.349  11.185  10.894  0.3972 -1.0113 -0.1207
  812MOL0     C11932   5.497  11.156  10.941 -0.7364  0.5583 -0.2384
  812MOL0     C11933   5.594  11.265  10.905 -0.0911 -1.7654 -0.2942
  812MOL0     C11934   5.632  11.277  10.757 -0.2529  0.1394 -0.0979
  812MOL0     N11935   5.721  11.391  10.736  0.7742 -0.7128  0.2833
  812MOL0     C11936   5.853  11.402  10.759 -0.5645  0.2567  0.3256
  812MOL0     C11937   5.884  11.534  10.732 -0.4556  0.5401 -0.0063
  812MOL0     C11938   6.019  11.604  10.747  0.0295  0.3156 -0.6145
  812MOL0     C11939   6.115  11.593  10.625  0.1899  0.1142 -0.1369
  812MOL0     C11940   6.125  11.451  10.565 -0.0786  0.5523  0.3526
  812MOL0     C11941   6.183  11.341  10.656 -0.4409 -1.0601 -0.0528
  812MOL0     O11942   6.319  11.370  10.699  0.3483  0.4258 -0.4214
  812MOL0     C11943   6.425  11.360  10.616 -0.3474  0.1145 -0.4034
  812MOL0     C11944   6.538  11.415  10.673 -0.0570 -0.4723  0.1208
  812MOL0     C11945   6.660  11.425  10.606 -0.4168 -0.1904  0.8081
  812MOL0     C11946   6.769  11.495  10.686  0.2189 -0.2475 -0.0038
  812MOL0     C11947   6.668  11.376  10.473  0.5539 -0.3392 -0.0452
  812MOL0     C11948   6.788  11.393  10.387 -0.3057 -0.8686 -0.6244
  812MOL0     O11949   6.880  11.489  10.420  0.1218 -0.1697  0.5395
  812MOL0     C11950   7.002  11.490  10.348 -0.1722  0.2012 -0.0055
  812MOL0     C11951   7.134  11.497  10.412 -0.0505 -0.5127 -0.0928
  812MOL0     C11952   7.254  11.501  10.335  0.7140  0.1847 -0.0900
  812MOL0     C11953   7.253  11.498  10.190  0.0095 -1.1690  0.2692
  812MOL0     O11954   7.378  11.483  10.131 -0.1593  0.1305  0.1471
  812MOL0     C11955   7.381  11.497   9.988 -0.5690 -0.2855  0.1268
  812MOL0     C11956   7.527  11.454   9.954  1.1314 -0.1271  0.6000
  812MOL0     C11957   7.550  11.498   9.814  0.2677 -0.2977 -0.2249
  812MOL0     C11958   7.695  11.485   9.768  0.0621  0.5874 -0.2607
  812MOL0     C11959   7.718  11.549   9.634 -0.5496 -0.3315  0.6645
  812MOL0     C11960   7.855  11.506   9.582  0.4903 -0.1745 -0.4594
  812MOL0     C11961   7.904  11.594   9.473  0.8583 -0.0269  0.7784
  812MOL0     C11962   8.055  11.575   9.438  0.0777 -0.3132 -0.2462
  812MOL0    Cl11963   8.100  11.419   9.375 -0.0453  0.3428  0.0338
  812MOL0     C11964   7.122  11.508  10.128 -0.7722 -0.7428 -0.4857
  812MOL0     C11965   7.010  11.500  10.208 -0.0424  0.5182  0.0927
  812MOL0     O11966   6.786  11.341  10.276 -0.6213 -0.4351 -0.4120
  812MOL0     C11967   6.554  11.313  10.417  1.0748  0.3063 -0.9550
  812MOL0     C11968   6.430  11.309  10.489 -0.7725  0.3736 -0.5536
  812MOL0     N11969   5.772  11.596  10.697 -0.0474  0.0291 -0.0068
  812MOL0     N11970   5.682  11.505  10.677  0.1022  0.0101  0.8388
  812MOL0     C11971   4.714  10.797  10.938 -0.4267 -0.4780 -0.2381
  812MOL0     C11972   4.641  10.688  10.910 -0.1469 -0.3939 -0.4267
  812MOL0     C11973   4.579  10.246  10.780  0.3847 -0.0053  1.1727
  812MOL0     C11974   4.482  10.268  10.676  0.4859  0.7366  0.4798
  812MOL0     C11975   4.406  10.157  10.624  0.5974 -0.2164  0.0660
  812MOL0     C11976   4.429  10.028  10.676 -0.0574  0.9217  0.4117
  812MOL0     O11977   4.353   9.915  10.639  0.3277  0.2861 -0.2332
  812MOL0     C11978   4.257   9.927  10.528 -0.2265  0.7987 -0.8028
  812MOL0     C11979   4.210   9.786  10.495  0.2139  0.4933 -0.1666
  812MOL0     C11980   4.116   9.735  10.597  0.3632  0.2538 -0.8737
  812MOL0     C11981   3.984   9.807  10.614  0.0630 -0.4344  0.2768
  812MOL0     C11982   3.870   9.720  10.642  0.6495  0.4850  0.1797
  812MOL0     C11983   3.793   9.632  10.678 -0.6691 -0.9637 -1.1277
  812MOL0     C11984   4.527  10.010  10.777  0.6718  0.2723  0.2870
  812MOL0     C11985   4.598  10.113  10.831  0.9607  0.5812 -0.4012
  812MOL0     C11986   4.707  10.072  10.925 -0.3509 -0.0900 -0.4315
  812MOL0     H11987   4.838  10.580  10.652 -2.0385 -1.5844  0.2018
  812MOL0     H11988   4.960  10.756  10.702  0.2131 -4.4829  0.1100
  812MOL0     H11989   5.061  10.910  11.019 -1.3068 -1.8191  2.3948
  812MOL0     H11990   4.903  10.930  11.094 -0.7871  1.7274 -0.9047
  812MOL0     H11991   4.909  11.174  11.026  1.2584  3.9327  0.4016
  812MOL0     H11992   5.018  11.132  11.160 -0.7505 -0.7596 -0.0426
  812MOL0     H11993   5.079  11.164  10.855 -2.0065  1.3419  0.1494
  812MOL0     H11994   5.118  11.280  10.986  1.0593 -0.4444  1.5265
  812MOL0     H11995   5.280  11.097  11.082  0.4433  1.6202 -0.2406
  812MOL0     H11996   5.238  10.996  10.945 -0.2099  0.0112 -0.3890
  812MOL0     H11997   5.334  11.293  10.898 -1.4427 -1.2580  0.5151
  812MOL0     H11998   5.351  11.152  10.790  4.3432  1.8614 -1.1929
  812MOL0     H11999   5.494  11.145  11.050 -1.5787 -0.3231 -0.3483
  812MOL0     H12000   5.525  11.061  10.895 -0.7107 -0.9551  2.6922
  812MOL0     H12001   5.679  11.256  10.973 -0.9705  0.9854  1.3260
  812MOL0     H12002   5.551  11.359  10.941  0.7846 -2.1979  2.0969
  812MOL0     H12003   5.682  11.185  10.726 -1.4048 -0.6241  0.2413
  812MOL0     H12004   5.537  11.284  10.704 -0.4324 -1.9514 -0.1339
  812MOL0     H12005   5.919  11.324  10.795  0.5379  0.1233 -1.8430
  812MOL0     H12006   6.063  11.555  10.834 -0.0057  0.8619 -0.2883
  812MOL0     H12007   6.012  11.708  10.779 -2.3687 -0.5093  1.9265
  812MOL0     H12008   6.089  11.661  10.543 -0.0186  1.4128  0.9642
  812MOL0     H12009   6.216  11.626  10.648 -0.0692  0.5302  0.4505
  812MOL0     H12010   6.029  11.412  10.531  0.5107  0.9904 -2.0043
  812MOL0     H12011   6.197  11.452  10.483 -0.0815  2.1150  0.3339
  812MOL0     H12012   6.114  11.330  10.740 -1.7474  1.4743 -0.6842
  812MOL0     H12013   6.188  11.241  10.612  2.6494 -0.1996 -2.0024
  812MOL0     H12014   6.531  11.468  10.768 -1.3613  2.5607 -1.5245
  812MOL0     H12015   6.768  11.602  10.664  4.1493 -0.0795  0.0186
  812MOL0     H12016   6.871  11.458  10.669  0.8409  1.8014 -0.9643
  812MOL0     H12017   6.742  11.488  10.792 -1.8382 -3.4792 -0.5997
  812MOL0     H12018   7.135  11.503  10.520 -0.8545  4.4381 -0.1201
  812MOL0     H12019   7.344  11.492  10.396  1.4351 -2.7849 -1.3765
  812MOL0     H12020   7.312  11.431   9.935 -0.8628 -1.1419  1.5289
  812MOL0     H12021   7.359  11.597   9.951 -1.0468  0.5861  2.6060
  812MOL0     H12022   7.599  11.499  10.023  2.4897 -1.4170  0.0785
  812MOL0     H12023   7.537  11.345   9.963  0.0809 -0.2270  0.6496
  812MOL0     H12024   7.525  11.603   9.802  0.4531 -0.0293  1.4898
  812MOL0     H12025   7.499  11.439   9.737 -0.3737  1.5472 -1.2764
  812MOL0     H12026   7.721  11.379   9.764 -1.8994 -0.0017  1.0062
  812MOL0     H12027   7.768  11.524   9.839 -0.1108  1.1718 -0.3983
  812MOL0     H12028   7.642  11.514   9.563  0.1003 -1.2192  0.3808
  812MOL0     H12029   7.717  11.658   9.637  1.8052 -0.2734  1.7578
  812MOL0     H12030   7.851  11.407   9.536 -0.7394 -0.3223 -0.0584
  812MOL0     H12031   7.930  11.511   9.662 -0.3175  2.5358  0.2568
  812MOL0     H12032   7.898  11.701   9.497  1.5096 -0.2414  1.9894
  812MOL0     H12033   7.847  11.580   9.381  1.3595  4.6970 -0.5192
  812MOL0     H12034   8.101  11.572   9.537 -1.7662 -1.8287  0.6268
  812MOL0     H12035   8.090  11.640   9.357 -2.5904  2.3602  0.5722
  812MOL0     H12036   7.111  11.507  10.020 -0.0960 -1.9381 -0.5534
  812MOL0     H12037   6.913  11.504  10.159  0.3118 -0.5253 -0.7269
  812MOL0     H12038   6.558  11.261  10.322 -3.0725  0.2485 -1.2887
  812MOL0     H12039   6.349  11.259  10.438 -0.1048 -1.6511  0.3052
  812MOL0     H12040   4.685  10.872  11.011  0.7347  1.4406 -1.6340
  812MOL0     H12041   4.550  10.659  10.961 -0.0343 -0.6215 -0.3556
  812MOL0     H12042   4.466  10.364  10.628  1.3266 -0.3322 -2.1401
  812MOL0     H12043   4.339  10.176  10.541  3.6593 -1.6481 -2.9766
  812MOL0     H12044   4.180   9.999  10.555  0.4706  2.0222 -1.9793
  812MOL0     H12045   4.313   9.976  10.447  3.9489  0.6510  1.6754
  812MOL0     H12046   4.298   9.723  10.483 -1.0952 -1.2249 -1.2403
  812MOL0     H12047   4.164   9.803  10.397 -0.3495 -2.0807 -0.4018
  812MOL0     H12048   4.095   9.634  10.561 -0.6663  0.0406  0.2634
  812MOL0     H12049   4.162   9.722  10.695 -4.2615 -1.4542  1.3816
  812MOL0     H12050   3.966   9.875  10.530  3.3017  2.0618  1.4083
  812MOL0     H12051   3.986   9.872  10.702 -2.8704 -1.1147  0.9275
  812MOL0     H12052   3.730   9.553  10.712 -2.0513  0.0125 -1.3491
  812MOL0     H12053   4.528   9.916  10.832 -3.1897  0.8474  1.6455
  812MOL0     H12054   4.688  10.128  11.017 -0.7229  1.1263 -1.2311
  812MOL0     H12055   4.705   9.965  10.949  1.5156 -0.5633 -2.1524
  812MOL0     H12056   4.808  10.093  10.891 -0.0535 -2.5643 -1.2980
  813MOL0     O12057  11.177   0.421   0.589 -0.3876 -1.2000 -0.0477
  813MOL0     C12058  11.148   0.539   0.610 -1.4519  1.0225 -0.3035
  813MOL0     O12059  11.238   0.643   0.645 -0.2139 -0.8565 -0.0456
  813MOL0     C12060  11.369   0.621   0.666  1.0338 -0.1270  1.0301
  813MOL0     C12061  11.416   0.571   0.781  0.1796 -0.3335  0.4672
  813MOL0     C12062  11.552   0.541   0.807  0.0969  0.4457  0.2679
  813MOL0     C12063  11.647   0.568   0.706  0.3119  0.4183 -0.1712
  813MOL0     O12064  11.774   0.515   0.726  0.5604  0.5035 -0.0657
  813MOL0     C12065  11.885   0.586   0.685  0.6523 -0.1070  0.4863
  813MOL0     C12066  11.968   0.639   0.798  0.0144 -0.1697 -0.0674
  813MOL0     C12067  12.095   0.708   0.740 -0.4173 -0.4031 -0.5727
  813MOL0     C12068  12.224   0.694   0.821 -0.0712 -0.0491  0.2515
  813MOL0     C12069  12.343   0.773   0.761 -0.0002 -0.7093  0.5529
  813MOL0     C12070  12.465   0.761   0.852 -0.8006 -0.0086 -0.5843
  813MOL0     C12071  12.583   0.838   0.800 -0.3795 -0.7704  0.6900
  813MOL0     C12072  12.570   0.990   0.808  0.8754 -0.3203  0.0774
  813MOL0     N12073  12.662   1.059   0.721 -1.1003  0.5274 -0.3394
  813MOL0     C12074  12.645   1.092   0.587 -1.0439 -0.3971  0.6365
  813MOL0     C12075  12.767   1.134   0.542 -1.1834  0.0914  0.2287
  813MOL0     C12076  12.804   1.174   0.403 -0.1435  1.1215 -0.4547
  813MOL0     C12077  12.676   1.152   0.308  0.1057  0.2885  0.5760
  813MOL0     C12078  12.699   1.169   0.153  0.1650 -0.0234  0.0330
  813MOL0     C12079  12.764   1.053   0.091  0.2209 -0.5722 -0.3277
  813MOL0     O12080  12.887   1.034   0.161 -0.1109  0.5235 -0.0710
  813MOL0     C12081  12.973   0.931   0.128  0.2147 -0.7033 -0.3490
  813MOL0     C12082  12.942   0.814   0.042 -0.0284 -0.0246 -0.0805
  813MOL0     C12083  13.042   0.717   0.009  0.2194 -0.0874  0.1746
  813MOL0     C12084  12.997   0.606  -0.080 -0.0063  0.4408  0.1655
  813MOL0     C12085  13.172   0.735   0.058  0.0515 -0.2169  0.0983
  813MOL0     C12086  13.280   0.641   0.039 -0.4443 -0.7910 -0.2920
  813MOL0     O12087  13.408   0.684   0.079  0.2463 -0.9778 -0.6870
  813MOL0     C12088  13.513   0.603   0.077 -0.5628  0.2244  1.2202
  813MOL0     C12089  13.628   0.649   0.018 -0.3472 -0.3157  0.7423
  813MOL0     C12090  13.750   0.572   0.025  0.5569 -0.6945  0.5533
  813MOL0     C12091  13.745   0.441   0.083 -0.4477  0.6815 -0.0066
  813MOL0     O12092  13.845   0.348   0.104  0.6591 -0.3948  0.6595
  813MOL0     C12093  13.966   0.413   0.151 -0.0013 -0.7144 -0.7406
  813MOL0     C12094  14.061   0.313   0.218 -0.3426 -0.5860 -0.0202
  813MOL0     C12095  14.170   0.384   0.301  0.2112 -0.8537  0.4907
  813MOL0     C12096  14.304   0.297   0.282 -0.6109 -0.3407 -0.3698
  813MOL0     C12097  14.423   0.386   0.324 -0.8621  0.5394 -0.1622
  813MOL0     C12098  14.438   0.518   0.257 -0.1055  0.4833  0.3509
  813MOL0     C12099  14.593   0.556   0.249  0.2699 -0.1751  0.1413
  813MOL0     C12100  14.640   0.583   0.392  0.2894  0.1838 -0.2363
  813MOL0    Cl12101  14.816   0.587   0.375  0.1382  0.0733  0.2409
  813MOL0     C12102  13.623   0.392   0.136 -0.6798 -0.6231 -0.3548
  813MOL0     C12103  13.512   0.472   0.128 -0.6492  0.8120 -0.5281
  813MOL0     O12104  13.259   0.539  -0.025 -0.4125  0.2340 -0.7358
  813MOL0     C12105  13.201   0.849   0.143  0.4830  0.5844 -0.7272
  813MOL0     C12106  13.099   0.942   0.174 -0.1463  0.4060 -1.2635
  813MOL0     N12107  12.850   1.138   0.653  0.3237 -0.4753 -0.1149
  813MOL0     N12108  12.788   1.094   0.757  0.0126  0.2923  0.1821
  813MOL0     C12109  11.605   0.618   0.585 -0.3568 -0.6818  1.0761
  813MOL0     C12110  11.467   0.639   0.562 -1.3057 -0.6394 -0.2805
  813MOL0     C12111  11.001   0.572   0.590 -0.1333 -0.0495 -0.0523
  813MOL0     C12112  10.976   0.698   0.528 -0.0842  0.2498 -0.3389
  813MOL0     C12113  10.844   0.748   0.509 -0.2761  0.0583 -0.0276
  813MOL0     C12114  10.741   0.656   0.528 -0.1651  0.6822  0.5729
  813MOL0     O12115  10.617   0.696   0.482 -0.0133  0.6066  0.5204
  813MOL0     C12116  10.559   0.613   0.383 -0.2100  0.7222  0.8668
  813MOL0     C12117  10.490   0.700   0.276  0.5805  0.3694 -0.2613
  813MOL0     C12118  10.475   0.636   0.145  0.0745 -0.1344  0.8197
  813MOL0     C12119  10.465   0.742   0.038 -0.0676 -0.8352  1.0461
  813MOL0     C12120  10.410   0.692  -0.087  0.2175  0.3694 -0.3298
  813MOL0     C12121  10.363   0.629  -0.176 -0.4804  0.1828 -0.3116
  813MOL0     C12122  10.763   0.526   0.595 -1.2272  0.0228 -0.7920
  813MOL0     C12123  10.895   0.485   0.627  0.1207 -0.5665 -0.1975
  813MOL0     C12124  10.911   0.348   0.703 -0.7312  0.3370  0.2388
  813MOL0     H12125  11.344   0.545   0.859 -0.1895  0.5614  0.4260
  813MOL0     H12126  11.576   0.491   0.900 -1.7658  0.8260  0.9971
  813MOL0     H12127  11.863   0.674   0.624  3.0352  0.6413  0.6159
  813MOL0     H12128  11.948   0.511   0.635  0.9116  0.1245  0.4616
  813MOL0     H12129  11.922   0.715   0.862 -1.0268 -1.0859  0.3067
  813MOL0     H12130  11.982   0.558   0.870 -2.0473 -1.7160 -1.3084
  813MOL0     H12131  12.115   0.676   0.638 -1.4375 -2.5720 -0.1583
  813MOL0     H12132  12.069   0.813   0.731  0.5188 -0.1145 -0.1197
  813MOL0     H12133  12.202   0.738   0.919  1.4900  2.8714 -0.5794
  813MOL0     H12134  12.257   0.590   0.829  0.8038  0.1733 -0.3419
  813MOL0     H12135  12.315   0.877   0.741  2.4194 -0.0996  0.0470
  813MOL0     H12136  12.372   0.732   0.664 -3.3987  2.5688 -2.1699
  813MOL0     H12137  12.456   0.790   0.957  1.4400  3.4163 -1.1798
  813MOL0     H12138  12.491   0.655   0.857 -0.9371 -0.0023  0.5866
  813MOL0     H12139  12.616   0.810   0.700  1.9042  2.0621  0.5187
  813MOL0     H12140  12.665   0.810   0.867  1.0049 -1.0820 -1.0835
  813MOL0     H12141  12.469   1.026   0.786  0.9373 -0.2765 -0.1404
  813MOL0     H12142  12.579   1.014   0.914 -2.7514  1.3787  0.1437
  813MOL0     H12143  12.559   1.073   0.524 -1.3384  0.3248  0.8025
  813MOL0     H12144  12.897   1.134   0.363 -0.0154  1.5719 -0.6135
  813MOL0     H12145  12.815   1.283   0.410 -0.8090  1.1660  0.0188
  813MOL0     H12146  12.628   1.054   0.313  1.7554 -0.8860 -2.9108
  813MOL0     H12147  12.608   1.233   0.334  0.6005  1.7268 -2.2382
  813MOL0     H12148  12.603   1.194   0.108 -0.4779  0.8509  1.7821
  813MOL0     H12149  12.760   1.258   0.137  0.5343 -0.3877 -0.6077
  813MOL0     H12150  12.707   0.963   0.114 -2.1661  0.8172 -0.4380
  813MOL0     H12151  12.775   1.068  -0.017 -0.5562 -1.2815 -0.5117
  813MOL0     H12152  12.844   0.807  -0.003  0.5591 -2.8825 -1.0959
  813MOL0     H12153  13.051   0.615  -0.174 -0.1906  0.5249  0.0686
  813MOL0     H12154  12.891   0.616  -0.102  0.1218 -0.7168 -1.0720
  813MOL0     H12155  13.026   0.507  -0.043  2.4005  0.7124 -0.8184
  813MOL0     H12156  13.635   0.747  -0.028  1.5984 -0.3954  0.7684
  813MOL0     H12157  13.844   0.609  -0.015  1.8503 -1.5342  2.6512
  813MOL0     H12158  14.021   0.464   0.071 -1.9812 -1.8975 -2.9670
  813MOL0     H12159  13.941   0.492   0.222  0.0152 -0.8289 -0.6061
  813MOL0     H12160  13.998   0.259   0.289  1.6916 -5.0668 -1.3115
  813MOL0     H12161  14.097   0.245   0.140 -1.2349 -0.6272 -0.4121
  813MOL0     H12162  14.142   0.392   0.406  0.7924  0.0322  0.5862
  813MOL0     H12163  14.189   0.481   0.254  1.5676 -1.2419  0.1813
  813MOL0     H12164  14.302   0.270   0.176  0.9320  0.1644 -0.5464
  813MOL0     H12165  14.305   0.205   0.341  0.3611 -0.0043  0.1523
  813MOL0     H12166  14.399   0.399   0.430 -0.1262 -2.5401  0.4900
  813MOL0     H12167  14.518   0.332   0.320 -0.5083  1.1037  0.4867
  813MOL0     H12168  14.375   0.591   0.310 -0.2041 -0.8045  2.0746
  813MOL0     H12169  14.397   0.509   0.155  1.9148 -1.2212 -0.3756
  813MOL0     H12170  14.612   0.654   0.203  3.2086 -0.8169 -0.1997
  813MOL0     H12171  14.647   0.480   0.192  2.7380  0.3599  1.6167
  813MOL0     H12172  14.627   0.502   0.464 -0.9302  0.4651 -0.1177
  813MOL0     H12173  14.594   0.674   0.431  1.6140  0.7552  0.0347
  813MOL0     H12174  13.615   0.290   0.172  1.4329 -0.4204  0.8299
  813MOL0     H12175  13.423   0.438   0.180  0.1519 -1.3601 -0.4508
  813MOL0     H12176  13.298   0.858   0.191 -0.4722 -3.3216  2.4207
  813MOL0     H12177  13.128   1.019   0.245 -1.7461 -0.6298  0.5879
  813MOL0     H12178  11.684   0.639   0.513  2.0346 -0.5288  3.5740
  813MOL0     H12179  11.433   0.670   0.464 -0.4796 -0.3405 -0.4831
  813MOL0     H12180  11.063   0.760   0.512  0.2979 -0.6009 -1.7385
  813MOL0     H12181  10.827   0.836   0.448 -0.0845  0.1057 -0.0114
  813MOL0     H12182  10.642   0.564   0.332 -1.8061 -1.1104 -0.1189
  813MOL0     H12183  10.486   0.541   0.422  0.3408  1.3492  3.2183
  813MOL0     H12184  10.547   0.793   0.270  0.8648  0.3886  2.1080
  813MOL0     H12185  10.391   0.732   0.310  0.3089  0.2099 -0.8823
  813MOL0     H12186  10.560   0.577   0.111 -0.2026 -1.2485  1.9770
  813MOL0     H12187  10.382   0.578   0.144 -1.2329  1.8493  0.5194
  813MOL0     H12188  10.562   0.776   0.002  0.5587 -2.2407  1.3480
  813MOL0     H12189  10.406   0.826   0.075 -1.1484 -1.6668  1.2907
  813MOL0     H12190  10.343   0.577  -0.268  2.6096  2.2781 -2.3696
  813MOL0     H12191  10.681   0.459   0.619 -0.3584 -1.4680 -1.8014
  813MOL0     H12192  10.991   0.361   0.776  0.5766  3.4942 -1.5460
  813MOL0     H12193  10.815   0.322   0.748  0.9944 -1.7571  3.0717
  813MOL0     H12194  10.927   0.261   0.638 -0.8488  0.0784  0.5524
  814MOL0     O12195   5.687   5.545   7.875 -0.1827 -0.2037  0.1117
  814MOL0     C12196   5.707   5.483   7.768  0.0873 -0.3787  0.0929
  814MOL0     O12197   5.818   5.499   7.689 -0.1510  0.0416 -0.4474
  814MOL0     C12198   5.925   5.579   7.715  0.5192 -0.0296 -0.3276
  814MOL0     C12199   6.004   5.629   7.614 -0.5614 -0.1351 -0.6644
  814MOL0     C12200   6.112   5.722   7.629 -0.5061  0.3927 -0.5151
  814MOL0     C12201   6.150   5.754   7.757 -0.0584 -0.6611  0.0961
  814MOL0     O12202   6.260   5.832   7.772 -0.3892 -0.0771 -0.4620
  814MOL0     C12203   6.280   5.958   7.703  0.4308 -0.5754 -0.2539
  814MOL0     C12204   6.406   6.030   7.766 -0.4573  0.9490 -0.7352
  814MOL0     C12205   6.530   5.935   7.743 -0.2470  0.9303 -0.8246
  814MOL0     C12206   6.649   5.950   7.843  0.0238 -0.4382  0.0332
  814MOL0     C12207   6.763   5.851   7.809 -0.3574  0.1861  0.1695
  814MOL0     C12208   6.864   5.915   7.705 -0.1476 -1.0510 -0.7780
  814MOL0     C12209   6.973   5.814   7.669 -0.0649  0.6520  0.0879
  814MOL0     C12210   7.068   5.862   7.563 -0.4091  0.0358 -0.1914
  814MOL0     N12211   7.151   5.973   7.620 -0.0673 -0.2041 -0.0683
  814MOL0     C12212   7.250   5.969   7.714  0.2533 -0.1011 -0.0461
  814MOL0     C12213   7.280   6.101   7.747  0.4448 -0.1938  0.3745
  814MOL0     C12214   7.378   6.139   7.844  0.1414 -0.7295 -0.2842
  814MOL0     C12215   7.517   6.152   7.784  0.7972  0.9302  0.0743
  814MOL0     C12216   7.621   6.124   7.893 -0.5683 -0.4890 -0.9539
  814MOL0     C12217   7.768   6.181   7.852  0.5266  0.1472 -0.4841
  814MOL0     O12218   7.813   6.127   7.725  0.0870  0.5747 -0.4250
  814MOL0     C12219   7.945   6.161   7.701 -0.0019 -0.4814 -0.1779
  814MOL0     C12220   8.008   6.264   7.770 -0.4634  0.3401 -0.6801
  814MOL0     C12221   8.138   6.298   7.732  0.0768  0.9865  0.5964
  814MOL0     C12222   8.200   6.420   7.793 -0.2125  0.6896  0.4731
  814MOL0     C12223   8.207   6.226   7.624  0.4399 -0.0211 -0.7194
  814MOL0     C12224   8.354   6.237   7.601  0.0117 -0.4379 -0.6944
  814MOL0     O12225   8.405   6.194   7.479  0.4329 -0.1174 -0.2906
  814MOL0     C12226   8.538   6.221   7.444 -0.6056 -0.1197  0.3901
  814MOL0     C12227   8.609   6.341   7.485  0.3610  0.2343 -0.5665
  814MOL0     C12228   8.732   6.371   7.431  0.4255  0.6888  0.1526
  814MOL0     C12229   8.802   6.270   7.361  0.6404 -0.0516 -0.3169
  814MOL0     O12230   8.930   6.311   7.328  0.4517  0.2868 -0.0660
  814MOL0     C12231   9.027   6.200   7.295 -0.4736 -0.2321  0.2882
  814MOL0     C12232   9.169   6.260   7.298  0.3154 -0.8331  0.0583
  814MOL0     C12233   9.185   6.343   7.169 -0.3327  0.2841 -0.1771
  814MOL0     C12234   9.319   6.419   7.162 -0.2800 -0.4417 -0.1475
  814MOL0     C12235   9.313   6.520   7.050 -0.9331 -0.6231  0.2550
  814MOL0     C12236   9.395   6.644   7.076 -0.3159  0.7440  0.8134
  814MOL0     C12237   9.433   6.711   6.938 -0.5203  0.0554  0.6032
  814MOL0     C12238   9.315   6.783   6.879  0.7758  0.0886 -0.0896
  814MOL0    Cl12239   9.210   6.668   6.781 -0.2492 -0.5306 -0.1756
  814MOL0     C12240   8.742   6.137   7.336 -0.0278  0.5132 -0.1164
  814MOL0     C12241   8.610   6.120   7.378 -0.7511  0.8455  0.3097
  814MOL0     O12242   8.423   6.256   7.704  0.1964 -0.0538 -0.2318
  814MOL0     C12243   8.140   6.137   7.554  0.3159  0.6710  0.3873
  814MOL0     C12244   8.006   6.110   7.589 -0.4626 -0.0514  0.0627
  814MOL0     N12245   7.199   6.173   7.666  0.7075  0.2280  0.0297
  814MOL0     N12246   7.126   6.109   7.592  0.0669  0.2848 -0.5223
  814MOL0     C12247   6.084   5.696   7.863  1.0587  0.5794  0.4109
  814MOL0     C12248   5.967   5.616   7.847  0.3574  0.0245 -0.0480
  814MOL0     C12249   5.604   5.386   7.705  0.8620 -1.0153 -0.7443
  814MOL0     C12250   5.645   5.312   7.592 -0.9203  0.0424  1.2475
  814MOL0     C12251   5.558   5.241   7.518  0.0419  0.2874 -0.7498
  814MOL0     C12252   5.433   5.228   7.561  0.5391  0.2466 -0.4730
  814MOL0     O12253   5.340   5.152   7.499  0.0910 -0.5151  0.4244
  814MOL0     C12254   5.251   5.206   7.403 -0.1833 -0.3055 -0.5976
  814MOL0     C12255   5.119   5.265   7.476  0.3336  0.5170  0.1250
  814MOL0     C12256   5.015   5.291   7.362  0.1390 -0.5133 -0.0976
  814MOL0     C12257   4.958   5.167   7.292  0.2499  0.6985 -0.0388
  814MOL0     C12258   4.834   5.193   7.216 -0.1511 -1.0864  0.1717
  814MOL0     C12259   4.732   5.211   7.149 -0.0536 -0.6362 -0.1371
  814MOL0     C12260   5.386   5.285   7.678  0.0387  0.2429 -0.1213
  814MOL0     C12261   5.471   5.368   7.752 -0.3945 -0.5846  0.1743
  814MOL0     C12262   5.410   5.427   7.876 -1.1716 -0.2602  0.0602
  814MOL0     H12263   5.979   5.603   7.512 -1.5865  0.0950 -0.4883
  814MOL0     H12264   6.169   5.751   7.541  1.6774 -2.5492 -0.2239
  814MOL0     H12265   6.192   6.020   7.724 -0.1235 -1.2343 -0.5836
  814MOL0     H12266   6.288   5.956   7.594  0.4156 -1.5902 -0.2500
  814MOL0     H12267   6.407   6.125   7.711  1.0979 -0.4395 -3.3004
  814MOL0     H12268   6.402   6.056   7.872 -1.2394  2.0552 -1.0166
  814MOL0     H12269   6.510   5.830   7.716 -2.9275  1.9956 -3.6089
  814MOL0     H12270   6.569   5.964   7.645  0.2499 -1.1294 -1.2998
  814MOL0     H12271   6.682   6.054   7.851 -0.1959 -0.2606 -1.1770
  814MOL0     H12272   6.604   5.923   7.939 -0.3267 -2.4131 -0.6398
  814MOL0     H12273   6.719   5.755   7.783 -4.1673  2.1434 -1.3436
  814MOL0     H12274   6.811   5.830   7.905  0.6136 -0.4314 -0.4356
  814MOL0     H12275   6.803   5.938   7.617 -2.3842 -0.3940  0.8568
  814MOL0     H12276   6.904   6.004   7.756 -1.4847 -1.2956  0.7989
  814MOL0     H12277   6.920   5.725   7.634 -0.9366  2.4660 -3.7623
  814MOL0     H12278   7.029   5.781   7.757  0.6001 -1.6542 -1.1368
  814MOL0     H12279   7.129   5.776   7.535 -2.5549 -2.1748  1.4623
  814MOL0     H12280   7.008   5.904   7.481 -0.7808  1.4476  0.7636
  814MOL0     H12281   7.289   5.884   7.770 -1.6470  0.4434  2.2589
  814MOL0     H12282   7.382   6.080   7.936  1.7408  2.7682  2.1576
  814MOL0     H12283   7.368   6.245   7.870  2.4998 -0.1929 -1.2546
  814MOL0     H12284   7.526   6.080   7.702  3.4826  1.8736 -0.5924
  814MOL0     H12285   7.528   6.255   7.748  0.5635  1.7167  2.1221
  814MOL0     H12286   7.598   6.166   7.991  2.4373 -4.7993  1.9626
  814MOL0     H12287   7.616   6.017   7.916  0.2727 -0.5203 -0.8906
  814MOL0     H12288   7.762   6.291   7.851 -1.0772  0.0787 -1.5330
  814MOL0     H12289   7.841   6.154   7.929  1.3580 -3.0467 -2.2410
  814MOL0     H12290   7.966   6.313   7.857 -1.5026 -0.8714 -0.4675
  814MOL0     H12291   8.248   6.397   7.889  0.5929 -0.5855 -0.1978
  814MOL0     H12292   8.124   6.499   7.794 -1.6381 -0.5391 -2.1549
  814MOL0     H12293   8.277   6.461   7.728  0.0960 -1.0596 -0.3232
  814MOL0     H12294   8.564   6.414   7.551  1.4991  1.2228 -0.8618
  814MOL0     H12295   8.786   6.464   7.449 -0.7640  1.6133 -0.8322
  814MOL0     H12296   9.028   6.117   7.368  1.5682  2.3199  3.4500
  814MOL0     H12297   8.998   6.170   7.194 -1.5382  0.3441  0.4074
  814MOL0     H12298   9.179   6.310   7.395 -0.5144  0.7083 -0.6238
  814MOL0     H12299   9.243   6.180   7.308 -0.5869 -1.7102 -0.1140
  814MOL0     H12300   9.103   6.413   7.152 -0.4323  0.0481 -0.6468
  814MOL0     H12301   9.193   6.272   7.087  0.5943 -0.4665  0.5373
  814MOL0     H12302   9.405   6.354   7.145  1.5800  1.7536  0.4128
  814MOL0     H12303   9.341   6.467   7.258 -0.2171 -0.4863 -0.1395
  814MOL0     H12304   9.350   6.475   6.957  1.5036  0.2748  0.7102
  814MOL0     H12305   9.207   6.537   7.031 -0.7382  0.1700 -0.1525
  814MOL0     H12306   9.488   6.622   7.130  0.0463 -1.9806 -0.7264
  814MOL0     H12307   9.334   6.710   7.139  4.0778  4.1898  1.9957
  814MOL0     H12308   9.486   6.646   6.868  2.9243  1.6814  1.4670
  814MOL0     H12309   9.501   6.797   6.944  1.0870 -0.9750 -1.4053
  814MOL0     H12310   9.350   6.848   6.798 -0.9694  0.7914 -0.3428
  814MOL0     H12311   9.266   6.848   6.953  0.7886 -0.7334  0.6495
  814MOL0     H12312   8.804   6.060   7.291 -0.8540  0.1795 -0.7092
  814MOL0     H12313   8.569   6.022   7.358 -0.4474  1.2081 -2.4837
  814MOL0     H12314   8.185   6.084   7.471  1.6775 -0.9188  2.0692
  814MOL0     H12315   7.954   6.027   7.541  0.5815 -0.3126 -0.6370
  814MOL0     H12316   6.116   5.721   7.964  1.1007  0.4166  0.4373
  814MOL0     H12317   5.916   5.600   7.941  0.9917  0.7962  0.4448
  814MOL0     H12318   5.750   5.301   7.567 -1.2101 -0.9599  0.3872
  814MOL0     H12319   5.586   5.182   7.431  4.2359 -1.4977  1.5067
  814MOL0     H12320   5.302   5.282   7.342  1.0445 -1.1851 -0.7191
  814MOL0     H12321   5.214   5.119   7.348  0.4328 -2.8096  2.6281
  814MOL0     H12322   5.145   5.361   7.522 -3.1522  1.1910  0.9801
  814MOL0     H12323   5.088   5.200   7.558 -0.5047 -0.1803 -0.7112
  814MOL0     H12324   4.935   5.354   7.403  2.1234  1.0410  1.5734
  814MOL0     H12325   5.065   5.352   7.286  2.1051 -0.6647  1.0130
  814MOL0     H12326   4.929   5.098   7.371  0.5556 -0.2796 -0.7707
  814MOL0     H12327   5.030   5.116   7.227 -0.3787 -1.2779  0.7422
  814MOL0     H12328   4.644   5.221   7.088  0.5636  0.3821 -0.9085
  814MOL0     H12329   5.290   5.259   7.720  0.3750  1.7981  1.7345
  814MOL0     H12330   5.448   5.530   7.874  0.4634 -0.8534 -0.9535
  814MOL0     H12331   5.300   5.422   7.877 -1.1721 -2.6787 -1.9343
  814MOL0     H12332   5.443   5.382   7.969 -1.3607 -0.7129 -0.0910
  815MOL0     O12333   8.022   9.999   7.633  0.0879 -0.0929 -0.3491
  815MOL0     C12334   7.980   9.955   7.744 -0.8813  1.2320  0.2611
  815MOL0     O12335   8.043   9.849   7.809  0.0430 -0.8337  0.2828
  815MOL0     C12336   8.161   9.795   7.765 -0.3556 -0.2479  0.1117
  815MOL0     C12337   8.283   9.848   7.813  0.6721  0.1439  0.5363
  815MOL0     C12338   8.398   9.775   7.765  0.4081 -0.4148  0.6641
  815MOL0     C12339   8.403   9.683   7.662  0.4943 -0.4872  0.1257
  815MOL0     O12340   8.526   9.654   7.606 -0.4000  0.3213 -0.3833
  815MOL0     C12341   8.605   9.761   7.563 -0.6962  1.1529 -0.6972
  815MOL0     C12342   8.682   9.728   7.434 -0.2254 -0.0165  0.1415
  815MOL0     C12343   8.588   9.717   7.310  0.2304  0.2197 -0.4165
  815MOL0     C12344   8.658   9.728   7.176  0.0434 -0.2290  0.1666
  815MOL0     C12345   8.738   9.602   7.145 -0.1656  0.6032 -0.2717
  815MOL0     C12346   8.788   9.594   6.998 -0.5587 -0.1874 -0.6026
  815MOL0     C12347   8.849   9.736   6.957 -0.6116  0.7856  0.2307
  815MOL0     C12348   8.967   9.788   7.039 -0.0732 -0.5596  0.6745
  815MOL0     N12349   9.074   9.691   7.045 -0.5069  0.3049  0.4780
  815MOL0     C12350   9.154   9.641   6.939 -1.2855 -0.3038 -0.2369
  815MOL0     C12351   9.238   9.548   7.005 -0.8634 -0.0469  0.0571
  815MOL0     C12352   9.335   9.448   6.948  0.3219 -0.1533 -0.3015
  815MOL0     C12353   9.470   9.519   6.927  0.1462 -0.1819  0.9032
  815MOL0     C12354   9.534   9.565   7.050 -0.2768  0.3418 -0.1793
  815MOL0     C12355   9.682   9.595   7.019 -0.3168 -0.1884 -1.2318
  815MOL0     O12356   9.736   9.625   7.153 -0.2916 -0.6924 -0.2627
  815MOL0     C12357   9.860   9.673   7.175  0.7260 -0.1063 -0.2506
  815MOL0     C12358   9.955   9.693   7.073  0.1030 -0.1449 -0.2236
  815MOL0     C12359  10.086   9.719   7.104  0.1315 -0.7384 -0.8081
  815MOL0     C12360  10.178   9.741   6.994 -0.3669 -0.4809 -0.7386
  815MOL0     C12361  10.120   9.727   7.242  0.4390 -0.9336 -0.4024
  815MOL0     C12362  10.248   9.777   7.298 -0.0773  0.4020 -0.6629
  815MOL0     O12363  10.354   9.773   7.214  0.4420  0.4355  0.3501
  815MOL0     C12364  10.476   9.820   7.258  0.4058  0.1915  0.6348
  815MOL0     C12365  10.583   9.730   7.269 -0.4548  0.2229  0.3072
  815MOL0     C12366  10.705   9.767   7.327 -0.8755 -0.0001  0.9100
  815MOL0     C12367  10.735   9.904   7.351  0.0243  0.2643 -0.2357
  815MOL0     O12368  10.853   9.958   7.407 -0.0150 -0.3695 -0.2818
  815MOL0     C12369  10.959   9.869   7.457  0.2463  0.4362  0.4348
  815MOL0     C12370  11.071   9.961   7.495  0.2538 -0.7443 -0.4783
  815MOL0     C12371  11.185   9.891   7.563  0.1072  0.5963 -0.2709
  815MOL0     C12372  11.316   9.979   7.578 -0.2878 -0.1157  0.1860
  815MOL0     C12373  11.418   9.896   7.674  0.3877 -0.6403  0.4812
  815MOL0     C12374  11.546   9.964   7.727  0.1976  0.5578 -0.3231
  815MOL0     C12375  11.633   9.864   7.805 -1.2703 -0.4578 -0.6124
  815MOL0     C12376  11.777   9.911   7.843 -0.4351 -0.3351 -0.2521
  815MOL0    Cl12377  11.821   9.914   8.016  0.2272 -0.1950  0.1318
  815MOL0     C12378  10.630   9.999   7.330  0.0491  1.1834  0.9556
  815MOL0     C12379  10.499   9.956   7.293 -0.2511 -0.0247  0.3740
  815MOL0     O12380  10.248   9.828   7.407  0.4386 -0.0373 -0.5684
  815MOL0     C12381  10.025   9.700   7.346  0.0399 -0.1909  0.1635
  815MOL0     C12382   9.895   9.670   7.311 -0.3096  0.2731  0.5334
  815MOL0     N12383   9.188   9.532   7.133  0.1070  0.1141 -0.7770
  815MOL0     N12384   9.096   9.619   7.158 -0.4443  0.1033 -0.3082
  815MOL0     C12385   8.281   9.630   7.626  0.6302 -0.0437 -1.1125
  815MOL0     C12386   8.159   9.690   7.669  0.5826  0.3807 -0.0099
  815MOL0     C12387   7.865  10.018   7.805 -0.4737  0.5367 -0.3999
  815MOL0     C12388   7.803   9.966   7.926 -0.9922 -0.3556 -0.2649
  815MOL0     C12389   7.686  10.025   7.973 -0.0058 -0.0984 -0.8130
  815MOL0     C12390   7.641  10.149   7.928 -0.0798  1.0713  0.2230
  815MOL0     O12391   7.535  10.223   7.980 -0.3853  0.3368  0.1264
  815MOL0     C12392   7.487  10.203   8.112 -0.3414 -0.0952  0.1480
  815MOL0     C12393   7.359  10.286   8.126 -0.0162 -0.2475 -0.3772
  815MOL0     C12394   7.326  10.259   8.269  0.0359 -0.3963  0.0782
  815MOL0     C12395   7.189  10.293   8.312  0.3967 -0.1027  0.3593
  815MOL0     C12396   7.190  10.277   8.459 -0.3538  0.9089 -0.2714
  815MOL0     C12397   7.194  10.246   8.579  0.0916  0.1821  0.0234
  815MOL0     C12398   7.700  10.198   7.808 -0.9348 -0.0242 -0.2262
  815MOL0     C12399   7.813  10.135   7.746  0.9576 -1.0794  0.6506
  815MOL0     C12400   7.853  10.201   7.606 -0.1784 -0.0619  0.8438
  815MOL0     H12401   8.290   9.922   7.891 -0.9682  1.0558 -0.1231
  815MOL0     H12402   8.493   9.793   7.813 -0.3799 -2.5293  3.2326
  815MOL0     H12403   8.679   9.775   7.642  1.6899  1.1615 -2.8113
  815MOL0     H12404   8.564   9.863   7.561 -0.1735  1.3601 -1.3778
  815MOL0     H12405   8.751   9.813   7.426 -2.6818  2.2022  0.8326
  815MOL0     H12406   8.746   9.640   7.444  0.8674  1.0148  3.7771
  815MOL0     H12407   8.532   9.624   7.326 -1.5290  0.6392 -3.3973
  815MOL0     H12408   8.513   9.796   7.318 -0.1934 -0.3190  1.4572
  815MOL0     H12409   8.574   9.740   7.107 -1.1177  0.4368  1.6582
  815MOL0     H12410   8.714   9.821   7.169 -1.4710  0.7160  0.2227
  815MOL0     H12411   8.681   9.509   7.157 -2.3067  2.0477  1.4625
  815MOL0     H12412   8.819   9.599   7.219 -1.6674 -0.0771  1.4189
  815MOL0     H12413   8.859   9.513   6.979 -2.3877 -1.6779 -1.4266
  815MOL0     H12414   8.703   9.582   6.929  0.1580 -0.4528 -1.4561
  815MOL0     H12415   8.768   9.808   6.946 -2.1156 -1.0786 -2.0812
  815MOL0     H12416   8.880   9.721   6.853 -0.5147  0.4592  0.3030
  815MOL0     H12417   9.003   9.877   6.988  0.8457 -0.6648  1.1149
  815MOL0     H12418   8.930   9.821   7.136  0.9384 -1.0906  1.2613
  815MOL0     H12419   9.147   9.661   6.832  0.1261  2.9975  0.1759
  815MOL0     H12420   9.299   9.407   6.854  0.0204 -1.8971  0.5332
  815MOL0     H12421   9.343   9.368   7.022 -2.7031 -0.5747 -0.3203
  815MOL0     H12422   9.525   9.440   6.874 -1.7018 -0.6439 -0.4240
  815MOL0     H12423   9.444   9.600   6.858 -2.5331 -1.9430 -0.3296
  815MOL0     H12424   9.464   9.639   7.089 -1.5416 -0.8934 -0.0456
  815MOL0     H12425   9.529   9.487   7.126  0.4423  0.7178  0.2684
  815MOL0     H12426   9.736   9.509   6.978 -0.3000 -0.9585  0.3241
  815MOL0     H12427   9.684   9.688   6.963 -0.9012  1.3798  1.1898
  815MOL0     H12428   9.923   9.670   6.972  1.5219  0.5736 -0.8767
  815MOL0     H12429  10.123   9.742   6.900 -0.5678 -1.0252 -0.6310
  815MOL0     H12430  10.238   9.649   6.987 -1.7985 -1.4576 -0.4977
  815MOL0     H12431  10.238   9.831   7.012  0.2725 -0.8431 -1.0020
  815MOL0     H12432  10.585   9.626   7.236 -0.6426  0.7627 -1.5303
  815MOL0     H12433  10.791   9.701   7.322 -0.2564  0.7772  1.1372
  815MOL0     H12434  10.925   9.821   7.549  0.4102 -0.1290  0.2032
  815MOL0     H12435  10.984   9.799   7.377 -3.8138  0.9432 -1.5342
  815MOL0     H12436  11.108   9.999   7.399  3.4633 -1.2428  0.4577
  815MOL0     H12437  11.021  10.037   7.556 -0.4339 -1.7998  0.3121
  815MOL0     H12438  11.216   9.805   7.504 -1.6298  1.6107 -2.8018
  815MOL0     H12439  11.146   9.853   7.658 -0.3834  0.7103 -0.4249
  815MOL0     H12440  11.300  10.081   7.613  1.6851  0.8003 -1.3682
  815MOL0     H12441  11.364   9.990   7.480 -0.9071 -2.1517 -0.3876
  815MOL0     H12442  11.364   9.857   7.761 -1.8121 -1.4432 -1.1607
  815MOL0     H12443  11.453   9.810   7.618  0.3461 -0.9585  0.9380
  815MOL0     H12444  11.513  10.045   7.793 -0.8638 -0.1047 -0.0132
  815MOL0     H12445  11.600  10.010   7.644  1.5675  1.0311  0.7978
  815MOL0     H12446  11.633   9.772   7.746 -0.5312 -0.0477 -1.2590
  815MOL0     H12447  11.592   9.843   7.905 -0.5274  0.0432 -0.1867
  815MOL0     H12448  11.790  10.010   7.799 -2.9160 -0.3578 -1.2452
  815MOL0     H12449  11.841   9.841   7.789 -1.1900 -2.3456  1.3204
  815MOL0     H12450  10.643  10.103   7.358 -1.5323  1.8287 -0.5417
  815MOL0     H12451  10.413  10.022   7.290 -0.7706 -0.5896  1.9542
  815MOL0     H12452  10.054   9.700   7.450 -1.5077 -1.1796  0.6299
  815MOL0     H12453   9.826   9.644   7.391 -1.0209  1.8101  0.4558
  815MOL0     H12454   8.282   9.554   7.549 -1.4291  0.9351 -2.1761
  815MOL0     H12455   8.066   9.648   7.633  0.1730 -0.3322  1.7521
  815MOL0     H12456   7.840   9.875   7.974 -0.2102  0.0724 -0.0312
  815MOL0     H12457   7.637   9.981   8.059  4.5690  0.0155  2.2091
  815MOL0     H12458   7.468  10.097   8.133 -2.8437  0.4460  0.9420
  815MOL0     H12459   7.566  10.239   8.178 -0.5758 -1.5595  1.2760
  815MOL0     H12460   7.275  10.244   8.070 -0.2609 -0.8139  0.3859
  815MOL0     H12461   7.373  10.391   8.101 -3.8367  0.9649  1.7024
  815MOL0     H12462   7.335  10.153   8.291 -0.3836 -0.2474  1.0153
  815MOL0     H12463   7.402  10.312   8.327 -1.7341 -0.6626  2.8021
  815MOL0     H12464   7.120  10.230   8.256  1.1214 -2.4361  1.9259
  815MOL0     H12465   7.161  10.395   8.282 -1.8752  0.6962  4.4442
  815MOL0     H12466   7.202  10.203   8.677  1.6370 -0.3867 -0.3243
  815MOL0     H12467   7.646  10.283   7.766 -0.8964  0.3602  0.4742
  815MOL0     H12468   7.869  10.131   7.523  3.6564 -0.1682  1.5040
  815MOL0     H12469   7.775  10.268   7.569 -0.0370 -0.5193 -0.3358
  815MOL0     H12470   7.940  10.268   7.603 -1.7011  2.0865  2.0172
  816MOL0     O12471  10.290  10.699   3.644 -0.3167 -0.2911  0.3730
  816MOL0     C12472  10.245  10.597   3.589  0.0316  0.6138 -0.5659
  816MOL0     O12473  10.124  10.550   3.601 -0.4236 -0.1388 -0.6106
  816MOL0     C12474  10.032  10.622   3.677  0.0933  0.9084  0.6155
  816MOL0     C12475   9.941  10.698   3.610  0.4289 -0.2649  1.0102
  816MOL0     C12476   9.852  10.788   3.678 -0.6299 -0.4442 -0.1759
  816MOL0     C12477   9.849  10.784   3.823 -0.4564  0.1639  0.0537
  816MOL0     O12478   9.765  10.879   3.884 -0.3437 -0.0457  0.3117
  816MOL0     C12479   9.752  10.888   4.024  0.4188 -0.5703  0.4044
  816MOL0     C12480   9.683  11.021   4.074 -0.0889 -0.0058 -1.0542
  816MOL0     C12481   9.717  11.036   4.222 -0.2042 -0.1501  0.2482
  816MOL0     C12482   9.631  11.133   4.287  0.1452 -0.4428 -0.2600
  816MOL0     C12483   9.671  11.176   4.431 -0.1598  0.7360  0.2771
  816MOL0     C12484   9.796  11.267   4.417 -0.3206 -0.9199 -0.3874
  816MOL0     C12485   9.856  11.318   4.546  0.6489 -0.1222  0.2717
  816MOL0     C12486   9.964  11.426   4.525  0.9121 -0.3118  0.2216
  816MOL0     N12487  10.093  11.370   4.467  0.6044 -0.0790  0.3914
  816MOL0     C12488  10.153  11.420   4.355  0.1622  0.2199  0.4498
  816MOL0     C12489  10.239  11.322   4.306 -0.6523 -0.6309 -0.4158
  816MOL0     C12490  10.331  11.332   4.193 -0.0417  0.6607  0.5098
  816MOL0     C12491  10.479  11.283   4.225 -0.0323 -0.4923  0.4334
  816MOL0     C12492  10.502  11.130   4.185  0.0464  0.0690 -0.6958
  816MOL0     C12493  10.635  11.105   4.118 -0.2292  0.4266  0.2972
  816MOL0     O12494  10.741  11.145   4.210  1.0778  0.1887 -0.4418
  816MOL0     C12495  10.870  11.154   4.170 -0.2707 -0.1674  0.2918
  816MOL0     C12496  10.905  11.187   4.045  0.1187  0.9827  0.1718
  816MOL0     C12497  11.045  11.180   4.005  0.2287 -0.6503  0.2254
  816MOL0     C12498  11.080  11.250   3.874  0.0082  0.0057  0.8708
  816MOL0     C12499  11.144  11.135   4.088 -0.3465  0.2263  0.6047
  816MOL0     C12500  11.284  11.118   4.059 -0.0093  0.9883  0.2966
  816MOL0     O12501  11.337  11.026   4.138  0.1728 -0.3475 -0.0924
  816MOL0     C12502  11.467  11.027   4.151  0.0457  0.4342  0.5184
  816MOL0     C12503  11.521  11.094   4.262 -0.3952  0.9980 -0.5893
  816MOL0     C12504  11.666  11.065   4.294  0.6416  1.0885 -0.3011
  816MOL0     C12505  11.738  10.977   4.213 -0.0636  0.1062  0.4167
  816MOL0     O12506  11.871  10.943   4.220  0.3036 -0.2678  0.0391
  816MOL0     C12507  11.951  11.023   4.293 -0.7277  0.3322 -0.8074
  816MOL0     C12508  12.099  11.012   4.246 -0.3165  0.3531  0.2926
  816MOL0     C12509  12.109  11.079   4.106  0.5273 -0.2220  0.5916
  816MOL0     C12510  12.246  11.089   4.044  0.9077 -0.1220 -0.0201
  816MOL0     C12511  12.291  10.958   3.967 -0.8298 -0.1261  1.1244
  816MOL0     C12512  12.411  10.976   3.870 -0.2567 -0.4644 -0.1581
  816MOL0     C12513  12.532  10.986   3.960 -0.3058  0.7384  0.1560
  816MOL0     C12514  12.666  10.975   3.886 -0.7804  0.3315  0.3150
  816MOL0    Cl12515  12.705  10.822   3.810  0.3879  0.1985  0.2573
  816MOL0     C12516  11.675  10.924   4.103  0.2996 -0.2275 -0.3568
  816MOL0     C12517  11.545  10.946   4.069  0.9176  0.1170  0.5148
  816MOL0     O12518  11.345  11.195   3.992  0.2324  0.3849  0.2361
  816MOL0     C12519  11.111  11.104   4.219  0.2818 -0.4185  0.1009
  816MOL0     C12520  10.975  11.122   4.256 -0.0159 -0.5775 -0.2160
  816MOL0     N12521  10.230  11.214   4.396 -0.9190 -0.5751  0.5440
  816MOL0     N12522  10.141  11.242   4.483 -0.2405 -0.5692 -0.0550
  816MOL0     C12523   9.938  10.694   3.888 -0.1374  0.1250 -0.1198
  816MOL0     C12524  10.036  10.628   3.812  0.6208 -0.5005 -0.9873
  816MOL0     C12525  10.333  10.521   3.502  0.0359 -0.3911 -1.4833
  816MOL0     C12526  10.295  10.494   3.370  0.1498 -0.1216  0.8970
  816MOL0     C12527  10.373  10.446   3.265 -0.0657  1.4578 -0.9258
  816MOL0     C12528  10.507  10.416   3.290 -0.2066  0.1770 -0.5031
  816MOL0     O12529  10.594  10.392   3.187 -0.1611  0.0876  0.1948
  816MOL0     C12530  10.730  10.338   3.195 -0.6115  0.0881 -0.2195
  816MOL0     C12531  10.737  10.225   3.091 -0.5447  0.4270 -0.2047
  816MOL0     C12532  10.857  10.130   3.111  0.4265 -1.0199  0.5123
  816MOL0     C12533  10.846  10.010   3.025  0.4408  0.0575  0.3625
  816MOL0     C12534  10.970   9.927   3.027  1.1152  0.2913  0.6359
  816MOL0     C12535  11.069   9.861   3.021  0.0813  1.2670  0.6663
  816MOL0     C12536  10.546  10.414   3.430 -0.1071 -1.0167 -0.4392
  816MOL0     C12537  10.460  10.457   3.530  0.0437 -0.0443 -1.2376
  816MOL0     C12538  10.513  10.443   3.674  0.4405  0.5759 -0.0907
  816MOL0     H12539   9.938  10.669   3.505  0.0477  2.0423  0.3397
  816MOL0     H12540   9.786  10.850   3.619  1.4772  0.7455 -1.4292
  816MOL0     H12541   9.852  10.879   4.068  0.0385  0.9525  1.6511
  816MOL0     H12542   9.677  10.816   4.060 -1.8724  1.7741  0.5604
  816MOL0     H12543   9.727  11.106   4.020  2.2059  0.6225  1.5531
  816MOL0     H12544   9.575  11.013   4.058 -0.0289 -2.6520 -0.5705
  816MOL0     H12545   9.707  10.942   4.276 -1.4484 -1.6896 -2.4603
  816MOL0     H12546   9.821  11.066   4.237 -0.3706 -0.2120  1.6909
  816MOL0     H12547   9.617  11.224   4.227 -3.4322 -0.3206  0.5125
  816MOL0     H12548   9.528  11.097   4.295  0.1478 -0.2468  0.7229
  816MOL0     H12549   9.694  11.089   4.493  1.3963  0.3059 -0.8458
  816MOL0     H12550   9.590  11.239   4.470 -0.7805 -0.3932  0.8696
  816MOL0     H12551   9.875  11.227   4.353  0.6273  2.6772 -1.7187
  816MOL0     H12552   9.762  11.353   4.359  1.1607 -0.2227 -0.2805
  816MOL0     H12553   9.902  11.237   4.603  0.5487  0.2988  0.9568
  816MOL0     H12554   9.777  11.365   4.605  2.0913  1.2622  1.1952
  816MOL0     H12555   9.934  11.506   4.457 -2.9837 -0.4558  1.5339
  816MOL0     H12556   9.998  11.473   4.619  2.5817  0.3140 -0.6465
  816MOL0     H12557  10.138  11.517   4.309  2.0358  0.4749  0.2979
  816MOL0     H12558  10.349  11.437   4.167  3.3586  0.5749  1.9584
  816MOL0     H12559  10.286  11.282   4.107 -2.5827  0.9904  1.5473
  816MOL0     H12560  10.554  11.344   4.173  1.8320 -1.0408  2.3444
  816MOL0     H12561  10.499  11.303   4.331  1.3346  3.7834 -0.4281
  816MOL0     H12562  10.505  11.074   4.280 -0.9664 -0.0040 -0.6972
  816MOL0     H12563  10.427  11.097   4.112 -1.9370  1.0899  0.7762
  816MOL0     H12564  10.644  11.000   4.086 -2.1871 -0.8293  3.3804
  816MOL0     H12565  10.637  11.170   4.031 -0.0010 -1.2031 -0.9722
  816MOL0     H12566  10.836  11.223   3.969  0.0410  2.0229  0.7250
  816MOL0     H12567  11.137  11.174   3.820  0.5746  0.6900  0.4898
  816MOL0     H12568  11.163  11.321   3.873 -1.1507  1.5691 -2.7761
  816MOL0     H12569  10.997  11.294   3.817  2.3995  0.9766 -2.1414
  816MOL0     H12570  11.466  11.166   4.322 -2.6668 -0.7543 -0.4025
  816MOL0     H12571  11.712  11.104   4.384  1.9469 -2.5912  0.8246
  816MOL0     H12572  11.929  11.130   4.291  0.5703  0.6159 -2.2391
  816MOL0     H12573  11.945  10.985   4.395 -1.5880 -2.5385 -1.8298
  816MOL0     H12574  12.161  11.076   4.309 -1.1811  1.2212  0.2893
  816MOL0     H12575  12.141  10.912   4.234  0.3320  0.7614 -1.0502
  816MOL0     H12576  12.075  11.179   4.136  2.7849 -0.3687  4.2358
  816MOL0     H12577  12.052  11.018   4.035  1.2609 -1.7519  1.2741
  816MOL0     H12578  12.316  11.106   4.126  0.3707 -1.9641  0.8813
  816MOL0     H12579  12.237  11.167   3.968  2.0609  0.0619  0.0204
  816MOL0     H12580  12.324  10.886   4.042  2.0689 -2.3827 -2.0264
  816MOL0     H12581  12.199  10.925   3.918 -1.2323  1.8727  0.4421
  816MOL0     H12582  12.408  11.062   3.802 -0.5504 -1.9624 -2.1374
  816MOL0     H12583  12.415  10.877   3.823  1.1028 -1.2206  1.4377
  816MOL0     H12584  12.531  10.902   4.031 -2.4109  1.2253  0.7614
  816MOL0     H12585  12.524  11.080   4.016  2.7305  2.1957 -1.5979
  816MOL0     H12586  12.749  10.991   3.954  0.1452 -0.9280 -0.4846
  816MOL0     H12587  12.668  11.062   3.820  2.6339 -0.9143 -1.4706
  816MOL0     H12588  11.730  10.847   4.050  0.0691 -1.4183  1.0754
  816MOL0     H12589  11.506  10.897   3.981 -1.3586 -0.7274  1.9071
  816MOL0     H12590  11.185  11.077   4.293  0.2583  2.4234  1.3305
  816MOL0     H12591  10.951  11.098   4.359  2.0821 -1.7261  0.0581
  816MOL0     H12592   9.938  10.682   3.996 -2.1193  0.7495 -0.0132
  816MOL0     H12593  10.123  10.594   3.867  0.1077  1.0966  0.9605
  816MOL0     H12594  10.202  10.539   3.336  0.1301 -0.8067  0.0216
  816MOL0     H12595  10.340  10.449   3.162  0.2117  2.6890 -0.9972
  816MOL0     H12596  10.798  10.422   3.177 -0.7206  0.1063 -0.5580
  816MOL0     H12597  10.747  10.308   3.298 -1.2466  2.2183  0.5624
  816MOL0     H12598  10.738  10.261   2.988  0.4206 -0.1306 -0.4051
  816MOL0     H12599  10.645  10.167   3.109 -0.3521  0.3829  0.6911
  816MOL0     H12600  10.946  10.191   3.094  0.4263  0.5328  4.7770
  816MOL0     H12601  10.866  10.099   3.216  0.4905 -1.4013  0.3963
  816MOL0     H12602  10.839  10.061   2.929 -2.0532  3.4731  2.1245
  816MOL0     H12603  10.755   9.952   3.043 -1.8542  4.3038  5.0829
  816MOL0     H12604  11.166   9.814   3.015  0.5271  2.3190 -1.2080
  816MOL0     H12605  10.645  10.394   3.469 -0.6686  0.1618  1.7145
  816MOL0     H12606  10.599  10.376   3.687  1.2472  1.4377 -0.8233
  816MOL0     H12607  10.551  10.543   3.697 -0.0471  0.6020  0.6483
  816MOL0     H12608  10.429  10.416   3.738 -1.4186  0.8457 -2.2921
  817MOL0     O12609   9.740  11.329   1.496 -0.6782 -0.8317  0.2906
  817MOL0     C12610   9.639  11.393   1.466 -0.6172  0.1487  0.0783
  817MOL0     O12611   9.638  11.526   1.439  0.6560  0.4701  0.8489
  817MOL0     C12612   9.751  11.599   1.417 -0.1722 -0.1276  0.4341
  817MOL0     C12613   9.788  11.711   1.488 -0.1547  0.3032 -0.0846
  817MOL0     C12614   9.907  11.784   1.467 -0.9333 -0.4295  0.0099
  817MOL0     C12615  10.002  11.744   1.371 -0.4895 -0.2103  1.0793
  817MOL0     O12616  10.136  11.782   1.349  0.2131  0.5755 -0.0286
  817MOL0     C12617  10.179  11.901   1.417 -0.8993  0.2671  1.3696
  817MOL0     C12618  10.102  12.036   1.376  0.0065  0.7691 -0.0210
  817MOL0     C12619  10.180  12.103   1.267  0.3830 -0.1793 -0.3431
  817MOL0     C12620  10.142  12.040   1.136  0.2590 -0.2681 -0.4858
  817MOL0     C12621  10.242  12.106   1.031 -0.5262  0.0113  0.9827
  817MOL0     C12622  10.207  12.042   0.896  0.5701 -0.4173  0.0165
  817MOL0     C12623  10.304  12.090   0.795  0.1950  0.0760  0.3937
  817MOL0     C12624  10.279  12.017   0.662  0.3158 -0.0317  0.1528
  817MOL0     N12625  10.167  12.077   0.582 -0.5930  0.2544  0.1960
  817MOL0     C12626  10.148  12.207   0.540  0.2956  0.9464  0.3941
  817MOL0     C12627  10.021  12.204   0.488 -0.3426 -0.4479 -1.0808
  817MOL0     C12628   9.950  12.319   0.424 -0.8328 -0.0090  0.2983
  817MOL0     C12629  10.002  12.346   0.272  1.0029 -0.1079 -0.1331
  817MOL0     C12630   9.976  12.228   0.173 -0.0814  0.1582  0.6780
  817MOL0     C12631  10.035  12.240   0.035  0.6504  0.2468 -0.6149
  817MOL0     O12632   9.971  12.347  -0.042  0.1133  0.8375 -0.5456
  817MOL0     C12633   9.841  12.317  -0.090  0.4266 -0.2670  0.4723
  817MOL0     C12634   9.782  12.423  -0.148 -0.0001 -0.4294  0.1747
  817MOL0     C12635   9.655  12.416  -0.205 -0.3823  0.5707  0.0518
  817MOL0     C12636   9.592  12.542  -0.261  0.4535 -0.4283 -0.9900
  817MOL0     C12637   9.594  12.283  -0.222  0.6692 -0.4299  0.6726
  817MOL0     C12638   9.458  12.264  -0.285  0.2468  0.1059  0.3791
  817MOL0     O12639   9.410  12.135  -0.266  0.6299 -0.5183 -0.2566
  817MOL0     C12640   9.277  12.098  -0.275 -0.2558  0.5633  0.0676
  817MOL0     C12641   9.163  12.187  -0.269 -0.1494  1.3220 -0.7517
  817MOL0     C12642   9.038  12.137  -0.295  0.3445  0.1167 -0.0617
  817MOL0     C12643   9.005  12.007  -0.328 -0.3881 -0.0710 -0.7121
  817MOL0     O12644   8.876  11.979  -0.378 -0.6024 -0.0646  0.5556
  817MOL0     C12645   8.819  11.859  -0.324  0.7889 -0.3417 -0.5201
  817MOL0     C12646   8.668  11.868  -0.319 -0.6081  0.3741  0.0215
  817MOL0     C12647   8.608  11.867  -0.457 -0.2277  0.1193  0.4200
  817MOL0     C12648   8.467  11.930  -0.463  0.3528 -0.3350 -0.4011
  817MOL0     C12649   8.405  11.918  -0.606 -0.5398 -0.1460  0.5920
  817MOL0     C12650   8.291  12.020  -0.639 -0.1737  0.5661  0.3578
  817MOL0     C12651   8.331  12.156  -0.653 -0.0088  0.0241  0.3846
  817MOL0     C12652   8.428  12.200  -0.763 -0.2116 -0.6426 -0.0122
  817MOL0    Cl12653   8.368  12.128  -0.917  0.0828 -0.4282 -0.2856
  817MOL0     C12654   9.112  11.917  -0.312  0.2926 -0.1614 -0.5463
  817MOL0     C12655   9.246  11.960  -0.299 -0.4266 -0.2995 -0.0164
  817MOL0     O12656   9.394  12.349  -0.335  0.6752 -0.7787  0.4411
  817MOL0     C12657   9.662  12.168  -0.169 -0.1596 -0.4878 -1.1113
  817MOL0     C12658   9.786  12.186  -0.108  0.6131 -0.2067  0.1452
  817MOL0     N12659   9.971  12.077   0.497 -0.3701  0.2407 -0.0385
  817MOL0     N12660  10.056  12.006   0.554  0.1216  0.0909 -0.6020
  817MOL0     C12661   9.959  11.630   1.294 -0.2992  0.3773 -0.3568
  817MOL0     C12662   9.836  11.565   1.312  0.3759 -0.3948  0.1454
  817MOL0     C12663   9.513  11.306   1.442  0.1867  0.6097  0.5695
  817MOL0     C12664   9.415  11.359   1.354  0.5211  0.2456 -0.4988
  817MOL0     C12665   9.303  11.279   1.321 -0.2506  0.0952 -0.0218
  817MOL0     C12666   9.297  11.146   1.358 -0.6783  0.8370  0.4784
  817MOL0     O12667   9.203  11.058   1.304 -0.7506 -0.1788 -0.4772
  817MOL0     C12668   9.135  11.086   1.183  0.4772 -0.5267  0.2585
  817MOL0     C12669   9.235  11.112   1.066  0.0878  0.6826 -0.0531
  817MOL0     C12670   9.177  11.069   0.927 -0.3127 -0.1367 -0.7167
  817MOL0     C12671   9.194  11.169   0.815  0.7662  1.0183  0.1571
  817MOL0     C12672   9.334  11.183   0.768  1.0483  0.0195  0.3731
  817MOL0     C12673   9.449  11.178   0.747 -0.0544  0.6322 -0.5735
  817MOL0     C12674   9.393  11.097   1.441 -0.7315  0.0021 -1.1015
  817MOL0     C12675   9.505  11.174   1.483  0.3291  0.5701 -0.1567
  817MOL0     C12676   9.588  11.118   1.590  0.7875 -0.1615  0.1833
  817MOL0     H12677   9.723  11.738   1.571 -1.1529 -0.7317 -0.5024
  817MOL0     H12678   9.946  11.863   1.529  0.7947 -0.8327 -0.5019
  817MOL0     H12679  10.282  11.919   1.384 -1.4162 -0.5610 -0.8970
  817MOL0     H12680  10.186  11.886   1.525 -0.0670 -0.9331  1.1740
  817MOL0     H12681   9.999  12.023   1.343  0.2388 -3.9901  0.4684
  817MOL0     H12682  10.100  12.103   1.462 -2.5301 -1.2878  1.6857
  817MOL0     H12683  10.157  12.209   1.252 -1.3286 -0.3126  0.9742
  817MOL0     H12684  10.288  12.096   1.286  0.2581  0.3040  0.6559
  817MOL0     H12685  10.157  11.932   1.148  0.0717 -0.0633  2.5330
  817MOL0     H12686  10.041  12.064   1.104  0.2540 -1.4910 -1.4584
  817MOL0     H12687  10.347  12.095   1.060  0.1373  2.9880  0.0986
  817MOL0     H12688  10.229  12.215   1.023 -3.4173  0.0207  3.8180
  817MOL0     H12689  10.209  11.933   0.901  0.1969 -0.3687  2.4326
  817MOL0     H12690  10.100  12.064   0.885  0.2311 -1.2606  1.3807
  817MOL0     H12691  10.407  12.064   0.819 -0.6701 -3.6874  0.6269
  817MOL0     H12692  10.305  12.199   0.781 -0.3028  0.0432  0.0508
  817MOL0     H12693  10.372  12.028   0.605 -0.2525 -2.1122 -1.2928
  817MOL0     H12694  10.266  11.910   0.679  0.8284 -0.0105  0.7297
  817MOL0     H12695  10.217  12.290   0.550 -1.8989  2.6942  2.4169
  817MOL0     H12696   9.958  12.401   0.496  1.4914  0.0592  0.0580
  817MOL0     H12697   9.845  12.293   0.412 -1.3979  1.1164  2.3872
  817MOL0     H12698   9.940  12.431   0.241 -0.8524 -1.6913 -0.9589
  817MOL0     H12699  10.102  12.391   0.274  0.0390  2.1765 -0.1038
  817MOL0     H12700  10.011  12.129   0.205  0.3325 -1.3374 -3.7107
  817MOL0     H12701   9.867  12.223   0.165 -0.0357  1.2166 -1.0358
  817MOL0     H12702  10.140  12.268   0.049  0.5115 -0.2650  1.9432
  817MOL0     H12703  10.028  12.151  -0.028 -1.1059  0.9503 -1.4858
  817MOL0     H12704   9.836  12.518  -0.154  0.1656 -0.5814 -0.9773
  817MOL0     H12705   9.491  12.560  -0.222  1.5363  0.2882  1.6791
  817MOL0     H12706   9.589  12.547  -0.370  1.9254 -0.1739 -1.0314
  817MOL0     H12707   9.654  12.624  -0.224 -0.2171  0.1152 -1.0438
  817MOL0     H12708   9.180  12.289  -0.236  2.2928  0.4127  1.1711
  817MOL0     H12709   8.969  12.221  -0.298  0.0697  0.0672  2.3515
  817MOL0     H12710   8.848  11.774  -0.386  3.2983 -0.3741  0.5778
  817MOL0     H12711   8.852  11.846  -0.220  1.9021  1.2360 -0.6409
  817MOL0     H12712   8.630  11.779  -0.267  1.6258 -0.6331  0.0621
  817MOL0     H12713   8.640  11.955  -0.258 -0.5983 -1.2430  2.5074
  817MOL0     H12714   8.601  11.765  -0.497 -1.1088 -0.2301  1.3948
  817MOL0     H12715   8.669  11.920  -0.530  0.6492  0.3865  1.3293
  817MOL0     H12716   8.473  12.033  -0.427  0.7861 -0.7853  0.8940
  817MOL0     H12717   8.399  11.888  -0.389 -1.8145  0.4895 -1.8198
  817MOL0     H12718   8.477  11.948  -0.683 -0.7308  0.1750  0.5337
  817MOL0     H12719   8.375  11.815  -0.626  0.0462 -0.1168 -0.5326
  817MOL0     H12720   8.221  11.996  -0.558  2.5976 -1.9004  2.2178
  817MOL0     H12721   8.257  11.983  -0.736  0.6175  3.6620 -1.2189
  817MOL0     H12722   8.370  12.184  -0.555 -1.5970 -0.6584  1.2334
  817MOL0     H12723   8.239  12.215  -0.659  0.1324  0.1243 -2.0998
  817MOL0     H12724   8.533  12.175  -0.744 -0.2445 -1.4293 -0.8150
  817MOL0     H12725   8.430  12.308  -0.780 -0.9064 -0.7365 -0.7296
  817MOL0     H12726   9.080  11.814  -0.306 -1.3042  0.3685  1.3457
  817MOL0     H12727   9.320  11.880  -0.300 -2.8321 -2.7356 -2.2235
  817MOL0     H12728   9.618  12.069  -0.175  0.7006 -1.0062  0.6789
  817MOL0     H12729   9.824  12.098  -0.056  2.4614  0.4202 -0.0615
  817MOL0     H12730  10.027  11.587   1.221 -2.6166  0.1572 -2.5143
  817MOL0     H12731   9.823  11.474   1.254  3.3441 -1.3566  0.8207
  817MOL0     H12732   9.428  11.455   1.305  0.9391 -1.1796 -3.4391
  817MOL0     H12733   9.242  11.322   1.242 -0.4574  2.2798  1.2394
  817MOL0     H12734   9.065  11.005   1.159 -2.6000  2.8519 -3.3819
  817MOL0     H12735   9.070  11.173   1.197 -1.5176 -1.2383 -3.4899
  817MOL0     H12736   9.327  11.055   1.076 -0.5958 -0.6174 -0.9349
  817MOL0     H12737   9.265  11.217   1.066  2.2475  0.1645  2.7176
  817MOL0     H12738   9.216  10.969   0.906  0.0319 -0.4718  1.2723
  817MOL0     H12739   9.070  11.050   0.940 -1.0379  2.4865 -2.0566
  817MOL0     H12740   9.149  11.265   0.841  0.4758  1.6399 -2.3971
  817MOL0     H12741   9.135  11.128   0.732  1.0276 -0.0042  0.4576
  817MOL0     H12742   9.550  11.150   0.724 -0.4098 -1.5105  0.1935
  817MOL0     H12743   9.395  10.992   1.466 -1.7056  0.3633  0.6576
  817MOL0     H12744   9.546  11.023   1.625 -2.4640  1.6162  1.5341
  817MOL0     H12745   9.693  11.117   1.561  0.6615  1.5581 -0.4463
  817MOL0     H12746   9.583  11.178   1.681  1.7573 -0.6956  0.6080
  818MOL0     O12747  10.744   3.534   8.596  0.2603  0.0879 -0.0397
  818MOL0     C12748  10.667   3.531   8.697 -0.6794  0.7343  0.2868
  818MOL0     O12749  10.691   3.483   8.824 -0.0429 -0.9572  0.0055
  818MOL0     C12750  10.811   3.412   8.843  0.4344 -0.0077  0.5989
  818MOL0     C12751  10.938   3.465   8.825 -0.9749 -0.0746 -0.5931
  818MOL0     C12752  11.060   3.404   8.860 -0.4110 -0.0130  0.5739
  818MOL0     C12753  11.059   3.281   8.922  0.5803  0.4839  1.1169
  818MOL0     O12754  11.175   3.214   8.945  0.5210 -0.0689 -0.8150
  818MOL0     C12755  11.179   3.073   8.974  0.1697 -0.0492 -0.4154
  818MOL0     C12756  11.314   3.007   8.923 -0.5090  0.0938 -0.9408
  818MOL0     C12757  11.342   3.008   8.776 -1.0266 -0.7921 -0.2701
  818MOL0     C12758  11.449   2.903   8.750 -0.5529 -0.0447 -0.5751
  818MOL0     C12759  11.475   2.900   8.606  0.4753  0.2396  0.6510
  818MOL0     C12760  11.534   2.767   8.560  0.7670 -0.3679 -0.7325
  818MOL0     C12761  11.644   2.719   8.659  0.1533 -0.4539  1.0543
  818MOL0     C12762  11.733   2.635   8.573  0.6039 -0.0995 -0.1443
  818MOL0     N12763  11.862   2.619   8.634 -0.3593  0.0736 -0.6376
  818MOL0     C12764  11.911   2.508   8.683 -0.1603  1.0647  0.0975
  818MOL0     C12765  12.038   2.525   8.717  0.0707  0.3613 -0.2657
  818MOL0     C12766  12.130   2.423   8.767  0.5513 -0.0526  1.0542
  818MOL0     C12767  12.161   2.442   8.908 -0.0714  0.7645  0.4636
  818MOL0     C12768  12.239   2.315   8.965 -0.5731 -0.2283  0.2649
  818MOL0     C12769  12.391   2.348   8.950  0.2651  0.2240 -0.2033
  818MOL0     O12770  12.431   2.418   8.832 -0.3487 -0.2165 -0.0429
  818MOL0     C12771  12.558   2.465   8.833  0.6060  0.7497 -0.1854
  818MOL0     C12772  12.663   2.432   8.923  0.4501  0.5368  0.2216
  818MOL0     C12773  12.796   2.491   8.910  0.3632  0.1124 -0.7594
  818MOL0     C12774  12.891   2.473   9.026 -0.3560  0.3075 -0.0798
  818MOL0     C12775  12.824   2.580   8.804 -0.1709 -0.8603 -1.2103
  818MOL0     C12776  12.953   2.655   8.790  0.1355  0.0172 -0.7246
  818MOL0     O12777  12.939   2.789   8.759  0.6487  0.5918  0.0191
  818MOL0     C12778  13.053   2.861   8.748 -0.6517 -0.5903  0.0362
  818MOL0     C12779  13.132   2.880   8.866 -0.0549  1.0143 -0.3550
  818MOL0     C12780  13.262   2.933   8.846 -1.0599  0.3175 -0.6105
  818MOL0     C12781  13.297   2.986   8.722  0.2597  0.3219 -0.3455
  818MOL0     O12782  13.420   3.042   8.693 -0.6124  1.0111  0.0992
  818MOL0     C12783  13.538   2.971   8.736  0.4497  0.3952 -0.8283
  818MOL0     C12784  13.561   2.839   8.659  0.3221 -1.3540 -0.3994
  818MOL0     C12785  13.691   2.775   8.713 -0.2918  0.1531 -0.4604
  818MOL0     C12786  13.715   2.653   8.631 -0.5726  0.3112  0.0489
  818MOL0     C12787  13.813   2.548   8.700  0.0079 -0.4035  0.2050
  818MOL0     C12788  13.896   2.465   8.592 -0.3793 -0.5780  0.3548
  818MOL0     C12789  13.979   2.356   8.644 -0.4548  0.2214 -0.3878
  818MOL0     C12790  14.062   2.391   8.767 -0.1136  0.3764 -0.6655
  818MOL0    Cl12791  14.146   2.555   8.750  0.4148  0.2149  0.2007
  818MOL0     C12792  13.209   2.980   8.617 -0.0106  0.3213 -0.1979
  818MOL0     C12793  13.088   2.915   8.628 -0.4189  0.7704 -0.0216
  818MOL0     O12794  13.063   2.595   8.796  0.1688  0.1632 -0.1146
  818MOL0     C12795  12.719   2.602   8.721  0.8932  0.1572  0.4552
  818MOL0     C12796  12.591   2.546   8.726 -0.3023 -0.5468  0.2376
  818MOL0     N12797  12.064   2.660   8.703 -0.0055  0.8656 -0.5106
  818MOL0     N12798  11.961   2.714   8.644 -0.2028 -0.5284  0.2861
  818MOL0     C12799  10.931   3.226   8.943 -0.8855 -0.1445  0.5448
  818MOL0     C12800  10.810   3.282   8.894 -0.0472 -0.3509  0.4863
  818MOL0     C12801  10.552   3.618   8.669  0.5677 -0.3465 -0.7980
  818MOL0     C12802  10.501   3.685   8.782  0.8527  0.4560 -0.0649
  818MOL0     C12803  10.380   3.753   8.781 -0.2941 -0.6153  0.2991
  818MOL0     C12804  10.314   3.776   8.655  0.5578 -0.9981  0.4547
  818MOL0     O12805  10.205   3.850   8.630 -0.3448 -0.2337 -0.0651
  818MOL0     C12806  10.123   3.906   8.733  0.3551  0.0810  0.0337
  818MOL0     C12807  10.008   3.988   8.681 -0.6155 -0.5601 -0.0987
  818MOL0     C12808  10.051   4.077   8.570  0.6485  0.3285 -0.3273
  818MOL0     C12809   9.929   4.179   8.549 -0.6952  0.5856 -0.5400
  818MOL0     C12810   9.919   4.294   8.645  0.5459  0.6829  0.9272
  818MOL0     C12811   9.903   4.385   8.726  0.1771  0.0071  0.1230
  818MOL0     C12812  10.374   3.727   8.543 -0.1080 -0.3473 -0.2355
  818MOL0     C12813  10.484   3.640   8.541  0.6114  0.5584 -0.4823
  818MOL0     C12814  10.522   3.593   8.406  0.1662  0.6599 -0.0493
  818MOL0     H12815  10.940   3.560   8.772 -0.0645  0.4416  0.3142
  818MOL0     H12816  11.160   3.446   8.848 -0.7494  0.9645  1.0674
  818MOL0     H12817  11.092   3.019   8.937 -2.5719  0.9791  3.7937
  818MOL0     H12818  11.189   3.065   9.083  1.7055  3.9542 -0.0625
  818MOL0     H12819  11.393   3.064   8.973 -1.6031  1.3258 -0.5476
  818MOL0     H12820  11.324   2.907   8.965  0.5207  0.3007 -0.6712
  818MOL0     H12821  11.252   2.982   8.719 -0.2306 -0.8587 -1.5329
  818MOL0     H12822  11.380   3.108   8.751 -0.5231 -0.4076  1.7925
  818MOL0     H12823  11.542   2.923   8.802 -0.4464 -0.3868 -0.6353
  818MOL0     H12824  11.417   2.811   8.799  2.2599  0.0848  1.7730
  818MOL0     H12825  11.534   2.989   8.582 -0.4485  0.3912 -1.2405
  818MOL0     H12826  11.386   2.907   8.543  0.6069  0.4848  0.4898
  818MOL0     H12827  11.455   2.692   8.550 -0.3067  0.2178  2.1977
  818MOL0     H12828  11.580   2.785   8.463  0.8167 -1.0057 -0.8320
  818MOL0     H12829  11.603   2.658   8.740  0.2639 -1.1354  0.6016
  818MOL0     H12830  11.699   2.803   8.704 -1.3673  0.1296  1.8755
  818MOL0     H12831  11.676   2.543   8.557 -1.3851  0.9276  0.6771
  818MOL0     H12832  11.742   2.675   8.472  2.1235  2.0467  0.7582
  818MOL0     H12833  11.855   2.415   8.681 -0.1428  1.0330  1.0854
  818MOL0     H12834  12.212   2.433   8.696 -2.0909 -0.2757 -2.3347
  818MOL0     H12835  12.091   2.321   8.753  0.6378  0.2162 -1.8477
  818MOL0     H12836  12.225   2.531   8.911  0.5390  0.3751 -0.3766
  818MOL0     H12837  12.073   2.464   8.968 -0.8519 -2.9309  0.9050
  818MOL0     H12838  12.223   2.298   9.071  2.2638  2.9523  1.3738
  818MOL0     H12839  12.207   2.225   8.911 -1.5428 -0.9059  1.8885
  818MOL0     H12840  12.419   2.416   9.031  2.9020 -0.1636 -0.7303
  818MOL0     H12841  12.447   2.256   8.967 -1.7631 -1.0038  0.2871
  818MOL0     H12842  12.632   2.360   8.998 -1.7721  0.5004 -0.6500
  818MOL0     H12843  12.957   2.390   8.996  0.1267  0.3120  0.9145
  818MOL0     H12844  12.842   2.448   9.121 -0.0607  3.0118  0.8541
  818MOL0     H12845  12.946   2.567   9.038 -0.2716  0.3671 -0.8791
  818MOL0     H12846  13.113   2.822   8.955  1.7549 -0.8477 -1.1009
  818MOL0     H12847  13.331   2.931   8.929 -2.4348 -1.5561  0.5851
  818MOL0     H12848  13.623   3.038   8.726 -0.2108  1.7381  1.7083
  818MOL0     H12849  13.512   2.949   8.840 -1.8213  0.1827 -1.3713
  818MOL0     H12850  13.474   2.772   8.657 -0.5105 -0.2962 -0.2331
  818MOL0     H12851  13.582   2.866   8.556 -1.7952  2.1112 -0.0701
  818MOL0     H12852  13.676   2.750   8.818  2.0688 -2.3820 -0.6054
  818MOL0     H12853  13.772   2.849   8.717 -0.9843  1.0481 -1.9233
  818MOL0     H12854  13.756   2.680   8.533  1.2888 -2.4119 -0.0514
  818MOL0     H12855  13.619   2.602   8.620 -0.4397 -0.4013  1.8483
  818MOL0     H12856  13.882   2.594   8.770  1.9755 -2.2034 -0.4509
  818MOL0     H12857  13.749   2.480   8.757  1.5146 -1.8308  0.2475
  818MOL0     H12858  13.964   2.527   8.532 -1.3134 -0.5924 -0.7590
  818MOL0     H12859  13.831   2.418   8.517 -0.8921  2.0694 -0.9797
  818MOL0     H12860  14.049   2.323   8.566 -1.1650 -2.3552 -0.0170
  818MOL0     H12861  13.918   2.266   8.656 -3.2216  2.1925  1.4327
  818MOL0     H12862  14.131   2.312   8.799  0.5538  1.1634 -0.1402
  818MOL0     H12863  13.993   2.411   8.849 -1.2577  2.5909 -2.0561
  818MOL0     H12864  13.225   3.019   8.517  0.3121  2.2992  0.5939
  818MOL0     H12865  13.027   2.920   8.539 -0.6695 -0.9061  0.0312
  818MOL0     H12866  12.747   2.653   8.629 -1.5069  0.6905 -0.0574
  818MOL0     H12867  12.517   2.567   8.650 -0.1299  0.3884  0.3141
  818MOL0     H12868  10.923   3.137   9.004 -2.1701  1.1922  2.4256
  818MOL0     H12869  10.720   3.234   8.929 -0.4987  0.6686  0.7731
  818MOL0     H12870  10.549   3.667   8.878 -3.6852 -0.1404  2.3809
  818MOL0     H12871  10.331   3.788   8.871  2.2523  4.0491  0.1591
  818MOL0     H12872  10.085   3.824   8.794  2.8533  1.6425  4.0675
  818MOL0     H12873  10.195   3.966   8.790  2.0921 -0.0575 -1.8912
  818MOL0     H12874   9.968   4.048   8.764 -0.2546  1.5841 -1.4060
  818MOL0     H12875   9.925   3.929   8.640  0.2973 -0.8411 -1.6011
  818MOL0     H12876  10.133   4.142   8.605 -1.5484  2.7992  0.5499
  818MOL0     H12877  10.067   4.038   8.469  1.6049 -0.6516  0.1815
  818MOL0     H12878   9.838   4.118   8.540 -0.4411 -0.0431  0.9618
  818MOL0     H12879   9.939   4.226   8.451 -1.9958 -0.1788 -1.0792
  818MOL0     H12880   9.913   4.466   8.795 -1.3924  0.2277  0.1178
  818MOL0     H12881  10.324   3.755   8.451 -0.8946  1.6189  0.7276
  818MOL0     H12882  10.439   3.618   8.339  0.5377  1.4315 -0.2364
  818MOL0     H12883  10.621   3.637   8.388 -0.0525  2.3316  2.4424
  818MOL0     H12884  10.531   3.484   8.415  3.5133  0.7543 -0.8744
  819MOL0     O12885  10.304   3.854  11.064 -0.3044 -0.5251 -0.4637
  819MOL0     C12886  10.288   3.883  11.183  0.2345 -0.0754  0.0413
  819MOL0     O12887  10.359   3.836  11.290  0.4670  0.4096 -0.0910
  819MOL0     C12888  10.446   3.735  11.266  0.2970  0.0379 -0.0545
  819MOL0     C12889  10.424   3.608  11.326  0.4410 -0.7383  0.7505
  819MOL0     C12890  10.510   3.498  11.318  0.2105 -0.3894  0.0055
  819MOL0     C12891  10.638   3.524  11.258  0.2974 -0.0218 -0.0589
  819MOL0     O12892  10.721   3.421  11.225  0.4598  0.4641 -0.1970
  819MOL0     C12893  10.702   3.290  11.284  0.6051 -0.3771 -0.0916
  819MOL0     C12894  10.815   3.199  11.224 -0.5195 -0.5771 -0.6842
  819MOL0     C12895  10.809   3.056  11.283 -0.4507 -0.1090  0.3466
  819MOL0     C12896  10.711   2.974  11.211  0.3837  0.9203  0.1037
  819MOL0     C12897  10.710   2.835  11.275 -0.5086 -0.8611 -0.8060
  819MOL0     C12898  10.619   2.738  11.205 -0.3976  0.0379 -0.1820
  819MOL0     C12899  10.604   2.613  11.288 -0.9672  0.2940  0.1410
  819MOL0     C12900  10.534   2.495  11.212 -0.5222 -0.3116  0.0622
  819MOL0     N12901  10.641   2.412  11.148 -0.3493  0.1232  0.5896
  819MOL0     C12902  10.715   2.440  11.038  0.3833  0.4310 -0.0219
  819MOL0     C12903  10.784   2.326  11.002 -0.0738 -0.2307  0.4352
  819MOL0     C12904  10.895   2.329  10.902 -0.2460 -0.6759  0.0990
  819MOL0     C12905  10.990   2.203  10.919  0.7135  0.1024 -0.5156
  819MOL0     C12906  11.099   2.184  10.807  0.7282  1.2617  0.1130
  819MOL0     C12907  11.193   2.074  10.835 -0.2446 -0.9408  0.2908
  819MOL0     O12908  11.273   2.117  10.949  0.2228  1.0328  0.3141
  819MOL0     C12909  11.395   2.060  10.978  0.4582  0.1867  0.5480
  819MOL0     C12910  11.443   1.947  10.913 -0.0530  0.0792  0.0476
  819MOL0     C12911  11.566   1.886  10.946  0.0882 -0.8896 -0.2063
  819MOL0     C12912  11.595   1.756  10.878 -0.6915  1.0220 -0.7499
  819MOL0     C12913  11.644   1.942  11.045  0.0829 -0.5079 -0.1737
  819MOL0     C12914  11.777   1.871  11.100  0.2452 -0.2228 -1.2335
  819MOL0     O12915  11.796   1.914  11.232  0.6238  0.0430  0.0906
  819MOL0     C12916  11.915   1.902  11.298 -0.3311  0.4461  0.9627
  819MOL0     C12917  11.960   1.784  11.346 -0.1685  0.1686  0.1287
  819MOL0     C12918  12.086   1.761  11.403 -0.7921 -0.4052  0.1887
  819MOL0     C12919  12.165   1.876  11.411 -1.3766 -0.3831 -0.0486
  819MOL0     O12920  12.295   1.880  11.462 -0.6493 -0.6278 -0.5167
  819MOL0     C12921  12.379   1.768  11.437  0.8293  0.8138 -0.9156
  819MOL0     C12922  12.513   1.802  11.493  0.2678 -0.5961  0.1237
  819MOL0     C12923  12.550   1.759  11.626  0.5884 -0.4900 -0.7549
  819MOL0     C12924  12.705   1.794  11.649 -0.0977 -0.4674  0.1535
  819MOL0     C12925  12.743   1.758  11.782  1.1103  0.1937 -0.0612
  819MOL0     C12926  12.889   1.787  11.813 -0.3820  0.1463  0.0963
  819MOL0     C12927  12.927   1.938  11.823  0.0050  0.0057 -0.1011
  819MOL0     C12928  13.080   1.956  11.824 -0.2126  0.4214 -0.6556
  819MOL0    Cl12929  13.103   2.137  11.823  0.0599 -0.3368 -0.2724
  819MOL0     C12930  12.127   2.001  11.358 -0.3981  0.5066 -0.2994
  819MOL0     C12931  11.999   2.016  11.306 -0.2081 -0.3366 -0.7653
  819MOL0     O12932  11.852   1.804  11.032 -0.5549  0.0909  0.6048
  819MOL0     C12933  11.595   2.067  11.108 -0.0068 -0.7064  0.0651
  819MOL0     C12934  11.471   2.127  11.076 -0.2359  0.5128  0.5498
  819MOL0     N12935  10.742   2.228  11.091 -0.1093  0.7775  0.8447
  819MOL0     N12936  10.666   2.279  11.173  0.3903  0.2993 -0.0767
  819MOL0     C12937  10.661   3.655  11.198  0.0418  1.2826  0.0565
  819MOL0     C12938  10.562   3.757  11.195  0.2443  0.3099  0.5105
  819MOL0     C12939  10.162   3.964  11.206  0.4387 -0.1631  1.2727
  819MOL0     C12940  10.109   3.969  11.339  0.7149  0.3924  0.2148
  819MOL0     C12941   9.993   4.030  11.379  0.4272  0.0995 -0.8512
  819MOL0     C12942   9.925   4.111  11.296  0.8785 -0.0177  0.1691
  819MOL0     O12943   9.816   4.189  11.331  0.5249  0.0045  0.5966
  819MOL0     C12944   9.789   4.223  11.471  0.0825 -0.1869 -0.6470
  819MOL0     C12945   9.657   4.305  11.498 -0.8626 -0.2057  0.4585
  819MOL0     C12946   9.517   4.236  11.439 -0.2539  0.3301 -0.9075
  819MOL0     C12947   9.507   4.083  11.458 -0.0151  0.1950 -0.7129
  819MOL0     C12948   9.395   4.048  11.375  0.2334 -0.5367 -0.4947
  819MOL0     C12949   9.292   4.034  11.308 -0.5587 -0.1619 -0.3974
  819MOL0     C12950   9.979   4.116  11.169  0.0394  0.3624 -0.3226
  819MOL0     C12951  10.089   4.045  11.116 -0.1326  0.5090 -0.1089
  819MOL0     C12952  10.109   4.045  10.967 -0.0244  0.6954  0.2141
  819MOL0     H12953  10.338   3.602  11.391  1.0957 -0.5528  1.6500
  819MOL0     H12954  10.473   3.401  11.348 -1.3476 -0.5327 -2.1705
  819MOL0     H12955  10.607   3.248  11.249  1.3366 -1.3388 -1.0100
  819MOL0     H12956  10.707   3.297  11.393 -2.5955 -0.4903  0.1655
  819MOL0     H12957  10.835   3.197  11.117  1.2100  1.5221 -0.4766
  819MOL0     H12958  10.912   3.234  11.262 -1.3942  1.2503 -0.0063
  819MOL0     H12959  10.906   3.005  11.271 -0.0000  0.7664  0.2110
  819MOL0     H12960  10.795   3.056  11.392  0.4786 -1.8342  0.5079
  819MOL0     H12961  10.609   3.014  11.216 -0.2493 -0.7264  1.5257
  819MOL0     H12962  10.739   2.963  11.106 -2.8669 -2.0698 -0.6425
  819MOL0     H12963  10.674   2.851  11.377 -1.1790 -2.8592 -0.6757
  819MOL0     H12964  10.812   2.794  11.274  0.0961  0.3991  1.4019
  819MOL0     H12965  10.520   2.784  11.199 -0.9135 -0.7195  1.7845
  819MOL0     H12966  10.667   2.717  11.109 -2.4157 -0.3981 -1.1402
  819MOL0     H12967  10.532   2.639  11.367 -3.8393  1.6069 -2.6882
  819MOL0     H12968  10.700   2.581  11.330 -1.7061 -3.3311 -0.5560
  819MOL0     H12969  10.480   2.437  11.288 -1.7130 -1.9504 -1.9162
  819MOL0     H12970  10.464   2.530  11.135 -0.6774 -0.9749 -0.1073
  819MOL0     H12971  10.742   2.539  11.002  3.0478 -0.1253  0.2029
  819MOL0     H12972  10.957   2.419  10.909  0.7161 -1.4309  2.5772
  819MOL0     H12973  10.853   2.347  10.803 -1.0838  1.2774  0.7558
  819MOL0     H12974  11.040   2.228  11.013  2.0455  2.9138 -1.8683
  819MOL0     H12975  10.922   2.118  10.927  0.3134  0.5827  3.1718
  819MOL0     H12976  11.047   2.169  10.711 -1.6160  1.3729  1.3074
  819MOL0     H12977  11.160   2.273  10.792  2.1922  0.1819 -0.7282
  819MOL0     H12978  11.135   1.983  10.854 -1.7359 -0.8234 -2.9327
  819MOL0     H12979  11.260   2.067  10.749 -0.4822 -0.8696  0.0985
  819MOL0     H12980  11.372   1.899  10.846 -1.9693  0.0644  1.9851
  819MOL0     H12981  11.520   1.729  10.804 -1.3745  2.1225 -0.4890
  819MOL0     H12982  11.613   1.681  10.955  1.0207  0.3656 -1.7545
  819MOL0     H12983  11.689   1.768  10.825 -1.0451 -2.0029 -2.2656
  819MOL0     H12984  11.902   1.693  11.337 -0.1732  0.2127 -0.3194
  819MOL0     H12985  12.109   1.659  11.429  0.7388  0.5954  3.2892
  819MOL0     H12986  12.345   1.681  11.494  3.9465  0.2422  0.2850
  819MOL0     H12987  12.375   1.724  11.337 -3.4026 -1.0668 -0.1062
  819MOL0     H12988  12.590   1.761  11.426  0.8513  1.9478 -0.8956
  819MOL0     H12989  12.520   1.911  11.485 -2.6087 -0.1167  2.3772
  819MOL0     H12990  12.524   1.653  11.633 -0.7717 -0.0938  1.1063
  819MOL0     H12991  12.489   1.812  11.700  4.1953  0.9930  1.3833
  819MOL0     H12992  12.722   1.901  11.634  2.1869 -0.7098  0.6578
  819MOL0     H12993  12.767   1.730  11.585  0.6212 -1.8979  2.1650
  819MOL0     H12994  12.683   1.813  11.855 -0.2808 -1.8671  0.4283
  819MOL0     H12995  12.739   1.650  11.798  1.0405  0.0991 -0.6838
  819MOL0     H12996  12.956   1.737  11.743 -0.0565  0.6481  0.0455
  819MOL0     H12997  12.908   1.743  11.912  3.5064 -1.3353 -1.1319
  819MOL0     H12998  12.874   1.983  11.907  0.4875  0.5587 -0.0884
  819MOL0     H12999  12.891   1.985  11.731 -1.8820  0.9204  1.0414
  819MOL0     H13000  13.133   1.900  11.747  2.0931 -1.1428  1.8920
  819MOL0     H13001  13.120   1.912  11.916  0.7448 -0.7181 -1.5884
  819MOL0     H13002  12.203   2.078  11.364 -0.9560  0.9991  0.8033
  819MOL0     H13003  11.958   2.117  11.297 -0.0404  0.1022  2.3485
  819MOL0     H13004  11.663   2.110  11.181 -0.5832 -0.1784  0.3020
  819MOL0     H13005  11.453   2.230  11.106  1.5865  0.6915  1.1033
  819MOL0     H13006  10.751   3.667  11.139  1.0227  0.2513  1.2856
  819MOL0     H13007  10.585   3.852  11.148  0.9035 -0.6810 -1.2754
  819MOL0     H13008  10.154   3.909  11.417  0.1767  2.3738  2.1311
  819MOL0     H13009   9.967   4.023  11.484 -0.3925  0.7498 -0.9932
  819MOL0     H13010   9.774   4.132  11.529 -0.5283 -1.2015 -2.3087
  819MOL0     H13011   9.871   4.279  11.517 -2.3755  0.8569  2.8510
  819MOL0     H13012   9.670   4.395  11.436 -0.0423 -2.1227 -2.3682
  819MOL0     H13013   9.652   4.335  11.603 -0.3442 -0.4558  0.5586
  819MOL0     H13014   9.437   4.297  11.480  1.2684  0.9392  1.3110
  819MOL0     H13015   9.523   4.260  11.332 -1.8897 -0.3323 -1.1883
  819MOL0     H13016   9.486   4.054  11.561  1.6792 -3.0034 -1.1481
  819MOL0     H13017   9.592   4.028  11.417 -0.6713 -0.6413 -0.9886
  819MOL0     H13018   9.194   4.033  11.264 -0.4637 -0.9847 -0.6034
  819MOL0     H13019   9.923   4.183  11.104  1.4019  0.8742 -1.0098
  819MOL0     H13020  10.212   4.076  10.949  0.3069 -0.3884  0.1690
  819MOL0     H13021  10.100   3.947  10.921 -0.3720  0.5557  0.5733
  819MOL0     H13022  10.041   4.123  10.930 -2.1933 -0.2759  1.9405
  820MOL0     O13023   0.554   2.903   5.419 -0.8628  0.7748  0.4806
  820MOL0     C13024   0.539   2.783   5.400  0.0563 -0.0210  0.1616
  820MOL0     O13025   0.578   2.687   5.481  0.0776  0.5798 -0.6550
  820MOL0     C13026   0.668   2.718   5.581 -0.6596  1.1213 -0.6953
  820MOL0     C13027   0.631   2.806   5.686 -0.2996 -0.2028  0.1073
  820MOL0     C13028   0.712   2.829   5.793 -0.4728  0.2645 -0.4473
  820MOL0     C13029   0.836   2.767   5.800 -0.2108 -0.2342  0.5036
  820MOL0     O13030   0.935   2.789   5.889  0.4442 -0.2519 -0.4372
  820MOL0     C13031   0.912   2.907   5.973 -0.1619  1.0249  0.2073
  820MOL0     C13032   1.042   2.987   6.009  0.1206 -0.2675 -0.9079
  820MOL0     C13033   1.157   2.892   6.054  0.0652 -0.4705 -0.2768
  820MOL0     C13034   1.283   2.989   6.085  0.6629 -0.2550 -0.3686
  820MOL0     C13035   1.415   2.914   6.117 -0.1646  0.5837  0.4811
  820MOL0     C13036   1.520   3.005   6.179 -0.3985  0.1470 -0.0287
  820MOL0     C13037   1.586   3.095   6.072  0.6886  0.8003 -0.4048
  820MOL0     C13038   1.671   3.196   6.149 -0.3907  0.4230 -0.6809
  820MOL0     N13039   1.778   3.254   6.080  0.4326 -0.4724  0.8714
  820MOL0     C13040   1.884   3.191   6.017 -0.0526 -0.0867  0.1717
  820MOL0     C13041   1.959   3.285   5.960  0.1178  0.0034 -0.6794
  820MOL0     C13042   2.090   3.264   5.898 -0.1455 -0.0338 -0.1248
  820MOL0     C13043   2.073   3.219   5.753  0.1258 -1.0053 -0.1116
  820MOL0     C13044   1.999   3.319   5.660 -0.6697  0.1893  0.8914
  820MOL0     C13045   1.947   3.262   5.520 -0.8261  0.2646 -0.6829
  820MOL0     O13046   2.070   3.228   5.447 -0.2772  0.9379 -0.2254
  820MOL0     C13047   2.065   3.173   5.329 -0.4213 -0.1359 -0.0317
  820MOL0     C13048   1.949   3.135   5.262  0.2072 -0.6571  0.5870
  820MOL0     C13049   1.947   3.094   5.127  0.0556 -0.1205  0.2806
  820MOL0     C13050   1.802   3.088   5.072  0.1354  0.4779  0.2887
  820MOL0     C13051   2.064   3.098   5.049  0.0422 -0.1886 -0.1754
  820MOL0     C13052   2.084   3.040   4.916 -0.0926 -0.0874  0.3916
  820MOL0     O13053   2.166   3.111   4.830 -0.5641 -0.4118  0.4731
  820MOL0     C13054   2.175   3.090   4.693 -0.5510  0.8829 -0.6010
  820MOL0     C13055   2.300   3.128   4.634  0.5956 -0.1007  0.3441
  820MOL0     C13056   2.313   3.122   4.495  0.1980 -0.2157 -0.8820
  820MOL0     C13057   2.216   3.061   4.416  0.3631 -0.2456 -0.1098
  820MOL0     O13058   2.254   3.042   4.278 -0.2549 -0.3425 -0.0654
  820MOL0     C13059   2.163   2.979   4.184 -0.3158 -0.3950 -0.5850
  820MOL0     C13060   2.229   2.954   4.048  0.5041 -0.4146 -0.2667
  820MOL0     C13061   2.120   2.910   3.942 -0.1636  0.3297 -0.4445
  820MOL0     C13062   2.054   2.773   3.977 -0.2211  0.7616  0.3633
  820MOL0     C13063   1.922   2.758   3.899 -0.7929 -0.5705  0.5975
  820MOL0     C13064   1.852   2.628   3.946  0.3754  0.0888  0.6826
  820MOL0     C13065   1.734   2.587   3.858 -1.0624  0.4607 -0.0795
  820MOL0     C13066   1.644   2.480   3.907  0.1590  0.5761  0.1647
  820MOL0    Cl13067   1.484   2.454   3.824  0.4125  0.1292 -0.0730
  820MOL0     C13068   2.106   3.002   4.476 -0.5611 -0.2755  0.4094
  820MOL0     C13069   2.086   3.019   4.615 -0.2179 -0.7398 -1.5740
  820MOL0     O13070   2.013   2.947   4.886  0.3406  0.0362  0.3992
  820MOL0     C13071   2.185   3.131   5.119 -1.0246  0.8673  0.4009
  820MOL0     C13072   2.179   3.178   5.254 -0.0170  0.0035  0.0702
  820MOL0     N13073   1.892   3.409   5.991  0.0681  0.5737  0.6988
  820MOL0     N13074   1.784   3.383   6.049 -0.0192 -0.1014  0.2791
  820MOL0     C13075   0.878   2.685   5.695 -0.0248  0.0799  0.8919
  820MOL0     C13076   0.789   2.660   5.591 -0.4526  0.5577  0.1395
  820MOL0     C13077   0.462   2.739   5.283  0.5104 -0.6111  0.3531
  820MOL0     C13078   0.445   2.606   5.261 -0.1390  0.2024  0.4700
  820MOL0     C13079   0.349   2.555   5.173  0.5906 -0.6009 -0.2945
  820MOL0     C13080   0.278   2.642   5.093  0.0584 -0.0582 -1.2099
  820MOL0     O13081   0.160   2.617   5.021  0.0529 -0.2183 -0.1547
  820MOL0     C13082   0.116   2.482   5.007 -0.0974  0.5876 -0.0555
  820MOL0     C13083  -0.034   2.493   4.986  1.1196 -0.2790 -0.0137
  820MOL0     C13084  -0.097   2.356   4.950  0.3016  0.3596  1.1039
  820MOL0     C13085  -0.245   2.378   4.937 -0.2826  0.5595 -0.4247
  820MOL0     C13086  -0.317   2.434   5.059  0.1366  0.1395 -0.0565
  820MOL0     C13087  -0.390   2.465   5.152  0.1785 -0.7330  0.7565
  820MOL0     C13088   0.299   2.782   5.103 -0.6629  0.5154 -0.7877
  820MOL0     C13089   0.380   2.831   5.200 -0.4095  0.2679  0.6440
  820MOL0     C13090   0.378   2.982   5.226 -0.9998 -0.7496  0.2156
  820MOL0     H13091   0.532   2.852   5.686 -0.1738  0.0667  0.2966
  820MOL0     H13092   0.671   2.887   5.875 -0.6667 -1.9308  1.1073
  820MOL0     H13093   0.855   2.871   6.059  1.2626  1.4720  1.3845
  820MOL0     H13094   0.842   2.978   5.928 -1.6254 -1.5877 -1.9383
  820MOL0     H13095   1.076   3.041   5.920 -0.3428  0.1383 -0.8450
  820MOL0     H13096   1.021   3.048   6.097  1.6961 -1.3006  0.2387
  820MOL0     H13097   1.132   2.819   6.132  1.0130 -1.1709 -0.6199
  820MOL0     H13098   1.190   2.833   5.968  1.7666  2.6149 -1.9287
  820MOL0     H13099   1.304   3.055   6.000  1.3099 -2.2853 -1.8747
  820MOL0     H13100   1.262   3.056   6.169  3.4313  1.9374 -1.2591
  820MOL0     H13101   1.460   2.860   6.034 -0.5470 -3.0081  2.3966
  820MOL0     H13102   1.398   2.845   6.201  0.4503  0.9158  0.8840
  820MOL0     H13103   1.474   3.073   6.251 -0.4007  0.3964 -0.2692
  820MOL0     H13104   1.595   2.936   6.221  0.5414  0.8047 -0.6062
  820MOL0     H13105   1.502   3.146   6.023  0.9417  2.4803  0.8166
  820MOL0     H13106   1.652   3.042   6.002  1.6731  2.0628 -0.4803
  820MOL0     H13107   1.603   3.275   6.180 -0.1577  0.3174  0.1112
  820MOL0     H13108   1.704   3.147   6.240 -1.0248  1.7745  0.3163
  820MOL0     H13109   1.917   3.087   6.018  2.4883  0.6521  0.5616
  820MOL0     H13110   2.153   3.201   5.961  0.7961  0.8715 -0.1225
  820MOL0     H13111   2.138   3.362   5.894 -1.8932  0.9362  1.3297
  820MOL0     H13112   2.169   3.203   5.705  1.0005 -0.1111  1.2635
  820MOL0     H13113   2.014   3.128   5.740 -3.2160  1.0751 -0.6390
  820MOL0     H13114   1.907   3.346   5.712 -0.4970  3.2216 -0.1674
  820MOL0     H13115   2.058   3.410   5.642  1.1945 -0.8437  1.4865
  820MOL0     H13116   1.887   3.172   5.535  1.0435 -1.0973 -0.8919
  820MOL0     H13117   1.898   3.343   5.466 -0.2190  1.2346  0.1626
  820MOL0     H13118   1.855   3.119   5.315 -1.1263 -0.7422 -1.6759
  820MOL0     H13119   1.781   3.170   5.002 -0.4929 -2.7442 -3.7340
  820MOL0     H13120   1.724   3.080   5.148  2.5021 -1.2434  2.6869
  820MOL0     H13121   1.787   2.996   5.014  1.1227  0.7352 -0.4143
  820MOL0     H13122   2.381   3.176   4.689 -0.3929  1.1211  0.7774
  820MOL0     H13123   2.398   3.168   4.445  0.2311  3.6894  2.2534
  820MOL0     H13124   2.147   2.880   4.228  0.5205  0.1740  1.0677
  820MOL0     H13125   2.068   3.033   4.171  0.9339  1.8678 -0.8382
  820MOL0     H13126   2.281   3.046   4.020  2.5583 -0.6538  2.3823
  820MOL0     H13127   2.308   2.881   4.066  0.4463 -0.3727  0.1651
  820MOL0     H13128   2.169   2.910   3.844  1.1866  1.8766  0.1923
  820MOL0     H13129   2.046   2.990   3.936 -0.1541  0.5073  1.3049
  820MOL0     H13130   2.019   2.783   4.080  1.2157 -1.0334  1.0893
  820MOL0     H13131   2.115   2.683   3.965 -0.7527  0.5014 -0.4597
  820MOL0     H13132   1.856   2.845   3.911 -0.0098 -0.1802  2.5167
  820MOL0     H13133   1.952   2.745   3.795  2.0202 -2.1399  1.5290
  820MOL0     H13134   1.818   2.649   4.048  0.0953  3.0758  0.0448
  820MOL0     H13135   1.925   2.547   3.953 -0.0756 -0.8978 -3.4933
  820MOL0     H13136   1.778   2.563   3.761 -1.4863  0.6984 -0.3314
  820MOL0     H13137   1.669   2.674   3.846 -1.3308  0.4828  1.2956
  820MOL0     H13138   1.621   2.484   4.014  0.4797 -0.2169  0.2669
  820MOL0     H13139   1.698   2.386   3.891 -0.8949 -0.0194  0.0592
  820MOL0     H13140   2.036   2.938   4.424  0.2677  0.4580 -1.7195
  820MOL0     H13141   1.993   2.982   4.658  0.5798 -1.6689 -0.5744
  820MOL0     H13142   2.283   3.113   5.077 -0.6180 -0.5793  1.8843
  820MOL0     H13143   2.274   3.209   5.297  1.2705 -1.0236 -1.8460
  820MOL0     H13144   0.977   2.642   5.689 -0.1074  0.0669 -0.8320
  820MOL0     H13145   0.833   2.586   5.525 -2.9035 -2.0460  1.1942
  820MOL0     H13146   0.494   2.531   5.324 -0.4809  0.7492  1.3984
  820MOL0     H13147   0.329   2.449   5.163  1.1141 -0.6236 -1.2818
  820MOL0     H13148   0.161   2.430   4.922 -1.9003  1.6222 -1.7125
  820MOL0     H13149   0.127   2.426   5.100 -2.2548 -3.0840 -1.7909
  820MOL0     H13150  -0.060   2.547   4.895 -1.7028 -1.9885 -0.3498
  820MOL0     H13151  -0.081   2.545   5.069 -0.1156 -1.3324 -0.0140
  820MOL0     H13152  -0.057   2.324   4.853  0.6316  2.8655  0.3553
  820MOL0     H13153  -0.066   2.281   5.024  1.7125 -2.1156 -1.7849
  820MOL0     H13154  -0.284   2.282   4.902  0.6674 -0.1876  0.4927
  820MOL0     H13155  -0.284   2.442   4.857  0.3420  1.0125 -0.3721
  820MOL0     H13156  -0.457   2.488   5.233 -2.0754 -2.5966 -0.4579
  820MOL0     H13157   0.231   2.844   5.046 -1.3728 -0.2320 -0.7713
  820MOL0     H13158   0.349   2.989   5.332  2.3700  0.0301  1.2143
  820MOL0     H13159   0.478   3.024   5.208 -1.2428  0.8304  2.1762
  820MOL0     H13160   0.303   3.037   5.169  0.2713 -0.3616 -1.1520
  821MOL0     O13161   3.374   9.242  10.509 -0.2760 -0.2814  0.0863
  821MOL0     C13162   3.289   9.309  10.454  0.5815  1.7140 -0.4502
  821MOL0     O13163   3.314   9.401  10.366  0.2961  0.0648  0.3312
  821MOL0     C13164   3.438   9.444  10.319  0.1903 -0.3069  0.0697
  821MOL0     C13165   3.447   9.508  10.195  0.7153  1.0980 -0.4380
  821MOL0     C13166   3.573   9.556  10.158 -0.3544  0.3523 -1.2041
  821MOL0     C13167   3.690   9.520  10.225 -0.1292 -0.2280 -0.7377
  821MOL0     O13168   3.814   9.551  10.171 -0.0660  0.1944  0.0697
  821MOL0     C13169   3.927   9.469  10.221 -0.0515  0.4683  1.1991
  821MOL0     C13170   4.056   9.481  10.143 -0.6363  0.1714  0.6628
  821MOL0     C13171   4.120   9.614  10.181 -0.3764  0.2444 -0.1232
  821MOL0     C13172   4.190   9.683  10.062  0.2572 -0.4761 -0.2147
  821MOL0     C13173   4.339   9.639  10.038  0.7349  0.1545 -0.2044
  821MOL0     C13174   4.447   9.677  10.142  0.3703  0.0699 -0.5882
  821MOL0     C13175   4.446   9.816  10.199  0.8299  0.5024  0.3709
  821MOL0     C13176   4.494   9.898  10.084 -0.2757 -0.0306  0.2754
  821MOL0     N13177   4.505  10.039  10.118 -0.0917 -0.4154 -0.1191
  821MOL0     C13178   4.591  10.112  10.192 -0.5387 -0.5398  0.6507
  821MOL0     C13179   4.533  10.236  10.195  0.4640  0.5106 -0.0214
  821MOL0     C13180   4.598  10.343  10.279 -0.3662  0.4477 -0.5017
  821MOL0     C13181   4.577  10.481  10.228 -0.5696  0.0260 -0.7571
  821MOL0     C13182   4.670  10.579  10.296  0.3207  0.5280  0.2458
  821MOL0     C13183   4.649  10.715  10.228 -0.1079 -0.6021 -0.3292
  821MOL0     O13184   4.678  10.719  10.086  0.1199  0.4071  0.0092
  821MOL0     C13185   4.657  10.843  10.022 -0.3355  0.2622  0.4275
  821MOL0     C13186   4.764  10.910   9.970 -0.2486 -0.0319 -0.0164
  821MOL0     C13187   4.764  11.024   9.897 -0.3790 -0.3614 -0.1472
  821MOL0     C13188   4.892  11.079   9.854 -0.4836  0.6941  0.5976
  821MOL0     C13189   4.636  11.083   9.861 -0.0247  0.2313  0.5900
  821MOL0     C13190   4.618  11.211   9.789 -0.7713  0.6181  0.8219
  821MOL0     O13191   4.482  11.252   9.785  0.1738  0.2867 -0.5751
  821MOL0     C13192   4.424  11.368   9.725  0.1893  0.5960  0.0893
  821MOL0     C13193   4.281  11.370   9.713 -0.0429  0.3652 -0.1444
  821MOL0     C13194   4.215  11.480   9.653  0.5254  0.0628  0.3282
  821MOL0     C13195   4.286  11.592   9.610 -0.9168 -0.4836 -0.2840
  821MOL0     O13196   4.219  11.702   9.559 -0.9107 -0.2160  0.1831
  821MOL0     C13197   4.285  11.829   9.565 -0.1340 -1.2057  0.6308
  821MOL0     C13198   4.200  11.925   9.641 -0.5274  0.5773 -0.2246
  821MOL0     C13199   4.088  11.976   9.550 -0.3169 -0.7123 -0.7849
  821MOL0     C13200   4.040  12.111   9.603  0.6316 -0.5892  0.0771
  821MOL0     C13201   3.893  12.143   9.562  0.1548 -0.1351  0.6175
  821MOL0     C13202   3.868  12.136   9.411 -0.1709  0.1586 -1.2101
  821MOL0     C13203   3.730  12.200   9.380  0.6037  0.1196  0.1207
  821MOL0     C13204   3.632  12.080   9.395  0.3698 -0.0166 -0.4631
  821MOL0    Cl13205   3.453  12.139   9.423  0.0661 -0.1173 -0.1013
  821MOL0     C13206   4.429  11.582   9.618  0.6759 -0.2168  0.0033
  821MOL0     C13207   4.491  11.468   9.666 -0.9292 -0.1760 -0.0436
  821MOL0     O13208   4.718  11.266   9.735 -0.7687  0.1669  0.5142
  821MOL0     C13209   4.525  11.011   9.901  0.0811 -0.2752 -0.3022
  821MOL0     C13210   4.534  10.887   9.972  0.3067  0.8817  0.5793
  821MOL0     N13211   4.414  10.233  10.128  0.5914  0.0509  0.2927
  821MOL0     N13212   4.400  10.116  10.073  0.1047 -0.5040 -0.7325
  821MOL0     C13213   3.677   9.460  10.348  0.4592  0.0376  0.1026
  821MOL0     C13214   3.549   9.429  10.397  0.6606 -1.0456  0.4543
  821MOL0     C13215   3.149   9.278  10.502 -0.0800  0.1199 -0.0809
  821MOL0     C13216   3.128   9.239  10.639 -0.5467 -0.2360  0.5338
  821MOL0     C13217   3.002   9.190  10.675 -0.4280  0.8053  0.6909
  821MOL0     C13218   2.899   9.193  10.588  0.0228  0.0564 -0.7582
  821MOL0     O13219   2.784   9.156  10.653  0.4876 -0.2106  0.5153
  821MOL0     C13220   2.654   9.180  10.581  0.3371  0.7643 -0.0890
  821MOL0     C13221   2.540   9.136  10.674 -0.8466  0.1528 -0.1114
  821MOL0     C13222   2.400   9.153  10.609  0.2656 -0.1526 -0.5045
  821MOL0     C13223   2.301   9.086  10.702 -0.4984  0.0239  0.0029
  821MOL0     C13224   2.316   8.941  10.730 -0.8659  0.3020  0.9851
  821MOL0     C13225   2.308   8.818  10.740  0.0917  0.9170  0.0221
  821MOL0     C13226   2.909   9.234  10.462  0.1120 -0.4851 -0.4261
  821MOL0     C13227   3.036   9.273  10.418 -0.6299  0.7876  0.4925
  821MOL0     C13228   3.044   9.330  10.278  0.0193 -0.1951 -0.7824
  821MOL0     H13229   3.364   9.524  10.127  2.3677 -0.6133 -3.0480
  821MOL0     H13230   3.584   9.605  10.062  1.4952 -0.9748 -1.7354
  821MOL0     H13231   3.898   9.365  10.202  2.7442  0.1095 -2.2386
  821MOL0     H13232   3.959   9.480  10.325  1.2516 -0.5065  0.9304
  821MOL0     H13233   4.123   9.398  10.169  1.1260  0.0395 -3.5741
  821MOL0     H13234   4.040   9.485  10.035 -1.9803  0.9795  0.8653
  821MOL0     H13235   4.032   9.668  10.215 -1.7167 -2.3601  0.8035
  821MOL0     H13236   4.185   9.597  10.267 -1.9349 -3.0908  0.5231
  821MOL0     H13237   4.133   9.656   9.972 -3.0470 -0.5180  1.7514
  821MOL0     H13238   4.187   9.791  10.082  0.7612 -0.4227 -0.3979
  821MOL0     H13239   4.363   9.678   9.939  0.1676  3.9849  0.9954
  821MOL0     H13240   4.336   9.530  10.029  0.2810  0.0615  0.8471
  821MOL0     H13241   4.431   9.615  10.231 -3.4622  2.2514  0.5110
  821MOL0     H13242   4.544   9.655  10.098  0.4138 -3.4387  0.9419
  821MOL0     H13243   4.520   9.820  10.280  1.1980  0.0108  0.0682
  821MOL0     H13244   4.348   9.839  10.242  0.1988 -4.8493  2.5722
  821MOL0     H13245   4.592   9.861  10.050  0.5033 -0.8434  3.1046
  821MOL0     H13246   4.426   9.895   9.999  0.8728  4.0826 -1.0458
  821MOL0     H13247   4.684  10.085  10.241 -2.0359 -1.7797  2.9661
  821MOL0     H13248   4.703  10.318  10.297 -0.8227 -1.2866 -0.1221
  821MOL0     H13249   4.538  10.337  10.370 -1.6311  0.8759 -1.2836
  821MOL0     H13250   4.592  10.476  10.120 -1.4298  0.0134 -0.8819
  821MOL0     H13251   4.473  10.510  10.243 -0.1201  0.8377  1.0430
  821MOL0     H13252   4.642  10.593  10.400 -1.2434 -2.4317  0.3227
  821MOL0     H13253   4.773  10.544  10.289  0.7679  1.7471  0.5939
  821MOL0     H13254   4.544  10.747  10.232  0.1178  0.2850 -1.1618
  821MOL0     H13255   4.715  10.786  10.279 -2.0949  0.3610  1.0322
  821MOL0     H13256   4.861  10.879  10.008  0.4332  0.4211 -1.3082
  821MOL0     H13257   4.973  11.021   9.900  0.7413  0.7755 -1.3133
  821MOL0     H13258   4.900  11.182   9.889  1.0452  0.5397  0.7737
  821MOL0     H13259   4.906  11.085   9.745 -1.4875 -0.0760  0.4150
  821MOL0     H13260   4.242  11.285   9.768  1.4421 -2.6550 -3.4202
  821MOL0     H13261   4.108  11.483   9.637  0.7897  0.3438 -1.6700
  821MOL0     H13262   4.381  11.828   9.618 -0.5815  1.0268  1.5939
  821MOL0     H13263   4.300  11.872   9.466  1.5881 -1.2673  0.8379
  821MOL0     H13264   4.149  11.878   9.726 -1.3244 -0.4961 -1.2731
  821MOL0     H13265   4.261  12.006   9.681  0.6908 -0.4653  0.1050
  821MOL0     H13266   4.007  11.902   9.539 -3.0988  2.4285 -3.8258
  821MOL0     H13267   4.121  12.011   9.453  1.1483  2.8265  0.8199
  821MOL0     H13268   4.101  12.195   9.568  0.0476 -1.1173 -2.4577
  821MOL0     H13269   4.041  12.107   9.712 -4.3812  0.6322  0.3874
  821MOL0     H13270   3.822  12.078   9.613  0.3317  1.1991  2.6992
  821MOL0     H13271   3.865  12.240   9.605  1.7310 -1.0659  4.1663
  821MOL0     H13272   3.877  12.031   9.382 -2.4919 -0.0961 -1.1891
  821MOL0     H13273   3.949  12.193   9.363 -1.0444  1.6645 -0.9554
  821MOL0     H13274   3.723  12.214   9.272 -2.3130 -0.8702  0.1041
  821MOL0     H13275   3.704  12.288   9.440  3.1505  2.8687 -2.4591
  821MOL0     H13276   3.647  12.015   9.482  1.2400  1.7225  0.7324
  821MOL0     H13277   3.629  12.013   9.308 -0.8132 -1.7110  0.8097
  821MOL0     H13278   4.483  11.666   9.574 -0.6547  0.3109 -0.6858
  821MOL0     H13279   4.599  11.472   9.676 -1.1529  0.7759  3.1904
  821MOL0     H13280   4.425  11.048   9.885  0.3144  2.2815  2.9607
  821MOL0     H13281   4.441  10.835   9.994  0.0424  0.9833 -0.2579
  821MOL0     H13282   3.761   9.441  10.414  1.4574  1.5364 -0.6903
  821MOL0     H13283   3.544   9.396  10.500 -1.4001 -0.1509  0.6749
  821MOL0     H13284   3.208   9.223  10.710 -1.1683 -1.4809  0.9754
  821MOL0     H13285   2.992   9.152  10.776  0.6682 -0.9033  0.2046
  821MOL0     H13286   2.634   9.286  10.564 -1.3655  0.3080 -1.0699
  821MOL0     H13287   2.656   9.130  10.484  3.2800 -1.5486  1.0017
  821MOL0     H13288   2.540   9.190  10.768  0.9304 -1.1522  0.6878
  821MOL0     H13289   2.563   9.034  10.708  2.5108  1.5863  2.4270
  821MOL0     H13290   2.380   9.260  10.602  0.9898  0.0442  0.2081
  821MOL0     H13291   2.389   9.104  10.511 -0.5656 -0.7738 -0.1059
  821MOL0     H13292   2.207   9.111  10.653 -1.5957  1.0900  2.4427
  821MOL0     H13293   2.306   9.146  10.794 -1.6146 -0.4549  0.3931
  821MOL0     H13294   2.293   8.714  10.757  1.0195  0.6880 -0.4574
  821MOL0     H13295   2.834   9.241  10.384 -1.0110  0.4529  0.7101
  821MOL0     H13296   2.989   9.272  10.204  0.4725  0.0948 -1.3543
  821MOL0     H13297   2.995   9.427  10.290 -1.2995 -0.8369 -0.8458
  821MOL0     H13298   3.143   9.350  10.236 -0.1823 -0.1168 -1.2216
  822MOL0     O13299   9.407   7.314  11.051  0.4829  0.3258 -0.4558
  822MOL0     C13300   9.388   7.189  11.079 -0.7813 -0.5518  0.3435
  822MOL0     O13301   9.491   7.106  11.112  0.0130  1.1490 -0.3202
  822MOL0     C13302   9.622   7.161  11.137 -0.6835 -0.3506  0.3706
  822MOL0     C13303   9.650   7.237  11.249 -0.6625 -0.5776  0.4355
  822MOL0     C13304   9.780   7.296  11.261  0.0649  0.6266 -1.0719
  822MOL0     C13305   9.885   7.246  11.185 -0.3939 -1.1324  0.6124
  822MOL0     O13306  10.007   7.304  11.213  0.3260 -0.0256  0.6009
  822MOL0     C13307  10.131   7.253  11.149  0.4438 -0.4158 -0.4099
  822MOL0     C13308  10.245   7.345  11.190 -0.9548  0.1502 -0.1095
  822MOL0     C13309  10.377   7.320  11.109 -0.0037 -1.0858 -0.1980
  822MOL0     C13310  10.503   7.388  11.174 -0.1852 -0.5353 -1.2725
  822MOL0     C13311  10.628   7.387  11.089  0.0283  0.0725 -0.2536
  822MOL0     C13312  10.740   7.459  11.162  0.7124 -0.2575 -0.6688
  822MOL0     C13313  10.740   7.613  11.172 -0.4459  0.6707 -1.0153
  822MOL0     C13314  10.764   7.694  11.045  0.1486 -0.7815 -0.6325
  822MOL0     N13315  10.905   7.688  10.997  0.1602 -0.3842  0.1133
  822MOL0     C13316  10.953   7.588  10.916 -0.3296  0.2523  0.1677
  822MOL0     C13317  11.087   7.587  10.936 -0.5010  1.1509  0.0631
  822MOL0     C13318  11.193   7.492  10.874  0.2367 -0.3615 -0.0737
  822MOL0     C13319  11.337   7.555  10.874 -0.8449 -0.0123  0.6452
  822MOL0     C13320  11.436   7.443  10.841 -0.4181  0.2038 -0.3134
  822MOL0     C13321  11.579   7.500  10.818 -0.0539 -0.8576 -0.0763
  822MOL0     O13322  11.609   7.595  10.925 -0.3446 -0.7958 -0.8336
  822MOL0     C13323  11.699   7.687  10.905 -0.1428 -0.4489  0.0509
  822MOL0     C13324  11.834   7.653  10.879 -0.0143  0.1703  0.4544
  822MOL0     C13325  11.930   7.747  10.846  0.3269  0.1642 -0.3875
  822MOL0     C13326  12.064   7.700  10.852  0.5559 -0.6232  0.6533
  822MOL0     C13327  11.894   7.887  10.825  0.1424 -0.2557  0.3725
  822MOL0     C13328  11.984   7.991  10.779 -0.1439  0.0640  0.1670
  822MOL0     O13329  12.113   7.982  10.810  0.0243 -0.1814  0.4523
  822MOL0     C13330  12.208   8.074  10.784 -1.0833 -0.1768  0.5766
  822MOL0     C13331  12.342   8.041  10.823 -0.1926 -0.5804  0.5301
  822MOL0     C13332  12.433   8.140  10.830 -0.5171 -0.4519  0.0623
  822MOL0     C13333  12.424   8.265  10.764 -0.3259  0.7191  0.2085
  822MOL0     O13334  12.532   8.358  10.777  0.1059  0.0413  0.2115
  822MOL0     C13335  12.554   8.444  10.667  0.5591  0.2596  0.3165
  822MOL0     C13336  12.685   8.525  10.714  0.2728 -0.8676 -0.1263
  822MOL0     C13337  12.817   8.444  10.702 -0.6075  0.6947  0.5533
  822MOL0     C13338  12.941   8.524  10.745  0.2478 -0.6608  0.2499
  822MOL0     C13339  13.062   8.477  10.664 -0.0004 -0.1345 -0.1195
  822MOL0     C13340  13.120   8.357  10.720  0.7138  0.7193 -0.5616
  822MOL0     C13341  13.188   8.262  10.623  0.7014 -0.6769 -0.4854
  822MOL0     C13342  13.245   8.144  10.691  0.5877  1.1724 -0.1935
  822MOL0    Cl13343  13.284   8.011  10.562  0.6355 -0.0705 -0.5808
  822MOL0     C13344  12.296   8.302  10.720 -0.5453  0.9933  0.3401
  822MOL0     C13345  12.191   8.203  10.725  0.4618  0.8641 -0.0955
  822MOL0     O13346  11.929   8.077  10.711 -0.1318  0.6325 -0.4961
  822MOL0     C13347  11.760   7.921  10.852  0.3869  0.5231 -0.2742
  822MOL0     C13348  11.661   7.827  10.898  0.0639 -0.3237  0.2689
  822MOL0     N13349  11.115   7.677  11.034  0.5199  0.4738  0.7779
  822MOL0     N13350  11.006   7.730  11.080 -0.1283  0.7461 -0.2767
  822MOL0     C13351   9.861   7.144  11.090 -0.1189 -1.0794  1.0758
  822MOL0     C13352   9.730   7.114  11.057 -0.4612  0.4710  0.2684
  822MOL0     C13353   9.247   7.144  11.065 -0.2308  0.3032  0.1132
  822MOL0     C13354   9.152   7.247  11.071  1.0616  0.2436  0.4189
  822MOL0     C13355   9.018   7.219  11.049 -0.1929  0.3664 -0.9676
  822MOL0     C13356   8.976   7.091  11.025 -1.4427  0.5622 -0.0454
  822MOL0     O13357   8.844   7.056  11.014 -0.0177 -0.1388 -0.0633
  822MOL0     C13358   8.739   7.156  10.999 -0.2470 -0.0658 -0.3550
  822MOL0     C13359   8.610   7.087  10.958  0.5480 -1.0598 -0.0864
  822MOL0     C13360   8.627   7.010  10.816 -0.2403 -0.1163  0.3172
  822MOL0     C13361   8.498   6.932  10.770  0.1091  0.0996 -0.3763
  822MOL0     C13362   8.394   7.028  10.747  0.7837 -0.1736  0.5756
  822MOL0     C13363   8.313   7.112  10.709  0.5214 -1.0785 -0.3090
  822MOL0     C13364   9.071   6.981  11.030  0.6032 -0.4084 -0.2868
  822MOL0     C13365   9.209   7.014  11.059 -0.1817 -0.1716  0.7587
  822MOL0     C13366   9.308   6.896  11.054  0.2282 -0.3463 -0.0988
  822MOL0     H13367   9.573   7.269  11.318  1.2882  1.3976  1.8156
  822MOL0     H13368   9.806   7.364  11.342 -1.3514 -2.3955  2.1961
  822MOL0     H13369  10.119   7.256  11.040 -3.1958  1.9856 -0.0928
  822MOL0     H13370  10.156   7.151  11.181 -3.1720 -0.8326  1.6164
  822MOL0     H13371  10.224   7.450  11.168 -1.2059  0.7713  2.7035
  822MOL0     H13372  10.272   7.340  11.296  2.6921  2.9000 -0.7223
  822MOL0     H13373  10.397   7.212  11.102  0.3471 -1.0543  0.2538
  822MOL0     H13374  10.365   7.354  11.006  0.4880  3.1003  0.9398
  822MOL0     H13375  10.470   7.482  11.219 -0.9000 -0.9642 -0.8749
  822MOL0     H13376  10.533   7.335  11.265 -0.8424  0.4280 -0.4633
  822MOL0     H13377  10.605   7.434  10.992  0.7181 -1.7562 -1.3475
  822MOL0     H13378  10.655   7.284  11.063 -1.6506 -0.2156 -0.9889
  822MOL0     H13379  10.733   7.434  11.268 -0.1502  3.8186  0.4112
  822MOL0     H13380  10.839   7.431  11.125  1.2935  2.3604 -1.3124
  822MOL0     H13381  10.815   7.630  11.249 -0.2968  2.7709 -1.5686
  822MOL0     H13382  10.647   7.648  11.218  1.2138  1.0721  2.3030
  822MOL0     H13383  10.689   7.663  10.971  1.8227  0.0578 -2.7800
  822MOL0     H13384  10.750   7.798  11.076 -1.7826 -0.8932 -0.9966
  822MOL0     H13385  10.885   7.533  10.851 -0.3463  1.5477 -0.9484
  822MOL0     H13386  11.168   7.456  10.775  3.2294 -1.6703 -0.4693
  822MOL0     H13387  11.181   7.399  10.930  0.1011 -0.7114 -0.6806
  822MOL0     H13388  11.343   7.634  10.799 -2.7474  1.0643  1.5478
  822MOL0     H13389  11.361   7.603  10.969  2.4429  1.5927 -0.8422
  822MOL0     H13390  11.432   7.378  10.929 -2.4785  0.5499 -0.0894
  822MOL0     H13391  11.393   7.383  10.760 -2.3853  2.4197 -1.0145
  822MOL0     H13392  11.659   7.426  10.811  1.6193  0.8629  0.0820
  822MOL0     H13393  11.576   7.543  10.718  1.2226 -1.0675 -0.2237
  822MOL0     H13394  11.856   7.549  10.897 -2.1301 -0.6879 -1.4193
  822MOL0     H13395  12.114   7.771  10.917 -2.2617  0.5917  1.6661
  822MOL0     H13396  12.107   7.696  10.751 -2.6890 -1.0699 -0.8346
  822MOL0     H13397  12.067   7.597  10.888 -3.5856 -1.5553 -1.0651
  822MOL0     H13398  12.352   7.946  10.873 -1.4679 -0.4144  1.1340
  822MOL0     H13399  12.526   8.127  10.883  0.7817 -2.4542 -2.4962
  822MOL0     H13400  12.579   8.385  10.579  0.5681  2.2864 -1.1073
  822MOL0     H13401  12.473   8.513  10.644  0.3948  0.4981  1.5536
  822MOL0     H13402  12.686   8.608  10.643 -1.0589 -1.4142 -0.8289
  822MOL0     H13403  12.675   8.555  10.819  1.9592  1.4766 -0.5513
  822MOL0     H13404  12.828   8.419  10.596  1.8182  0.1826  0.8752
  822MOL0     H13405  12.803   8.354  10.761 -1.3960 -2.1501 -3.5448
  822MOL0     H13406  12.957   8.512  10.852 -1.3425 -0.3414  0.5473
  822MOL0     H13407  12.936   8.632  10.724 -1.0963 -0.9573 -1.1990
  822MOL0     H13408  13.037   8.455  10.560 -2.7990 -1.9514  0.8434
  822MOL0     H13409  13.140   8.554  10.668 -0.8306  0.8120 -1.4340
  822MOL0     H13410  13.041   8.299  10.769  1.3535 -0.4666 -0.8994
  822MOL0     H13411  13.179   8.391  10.805 -1.0206 -0.9072  1.4130
  822MOL0     H13412  13.280   8.304  10.580  2.0673 -0.5895  2.2887
  822MOL0     H13413  13.122   8.217  10.548  0.4384 -1.2024  0.0491
  822MOL0     H13414  13.173   8.096  10.758  3.4965  0.1706  2.4779
  822MOL0     H13415  13.335   8.166  10.749  0.4385 -0.5251  0.7597
  822MOL0     H13416  12.281   8.400  10.674 -1.3010  1.4756  1.5592
  822MOL0     H13417  12.088   8.232  10.706  0.8348  1.7862 -0.7516
  822MOL0     H13418  11.724   8.022  10.833  3.3794  1.5856 -0.7349
  822MOL0     H13419  11.559   7.860  10.915 -0.1476 -0.7754 -0.0995
  822MOL0     H13420   9.942   7.107  11.028  0.2604 -0.4891  1.2097
  822MOL0     H13421   9.705   7.049  10.974 -1.0682 -1.5247  1.9098
  822MOL0     H13422   9.169   7.353  11.085 -0.6015  0.1599  4.4079
  822MOL0     H13423   8.947   7.299  11.068  0.4439  0.3075  2.3098
  822MOL0     H13424   8.724   7.206  11.095 -1.0615 -0.1127 -0.4554
  822MOL0     H13425   8.751   7.230  10.919  0.4423 -1.4226 -1.5461
  822MOL0     H13426   8.541   7.168  10.936  3.5323  1.3468 -1.3211
  822MOL0     H13427   8.554   7.031  11.034  0.8352 -0.3559  0.6564
  822MOL0     H13428   8.653   7.083  10.738  0.2967 -1.4870 -0.8399
  822MOL0     H13429   8.713   6.942  10.827  1.8199  2.3393  0.2697
  822MOL0     H13430   8.485   6.853  10.844  3.0269 -0.9650 -0.8497
  822MOL0     H13431   8.515   6.874  10.678  1.5965 -0.1058 -0.0017
  822MOL0     H13432   8.245   7.188  10.675 -0.5015 -2.7691 -2.3129
  822MOL0     H13433   9.037   6.878  11.030  1.1615 -0.5998 -0.5394
  822MOL0     H13434   9.368   6.885  11.145  1.1577  0.2654 -0.6102
  822MOL0     H13435   9.263   6.797  11.049 -0.1166 -0.4002  2.6948
  822MOL0     H13436   9.375   6.909  10.968 -1.4534  1.4122 -1.2259
  823MOL0     O13437   2.745   1.496   7.504  0.2702 -0.0094  0.6625
  823MOL0     C13438   2.857   1.510   7.464 -0.1247 -1.3903  0.5118
  823MOL0     O13439   2.896   1.520   7.332 -0.7408 -0.4860 -0.4633
  823MOL0     C13440   2.808   1.558   7.232  0.1941  0.4245 -0.8636
  823MOL0     C13441   2.742   1.676   7.245 -0.5893  0.3255 -0.8994
  823MOL0     C13442   2.645   1.711   7.157  0.1070 -0.4099  0.8112
  823MOL0     C13443   2.613   1.636   7.049  0.3142 -0.6936  0.9117
  823MOL0     O13444   2.525   1.699   6.968 -0.8594  0.7071  0.0859
  823MOL0     C13445   2.452   1.614   6.878  0.2661 -0.1694  0.9047
  823MOL0     C13446   2.393   1.709   6.762  0.1749  0.5040 -0.5538
  823MOL0     C13447   2.347   1.635   6.632 -0.0622 -0.5571  0.4492
  823MOL0     C13448   2.207   1.678   6.585  0.3009  0.8088  0.1127
  823MOL0     C13449   2.172   1.587   6.470 -0.3493 -0.3375 -0.2903
  823MOL0     C13450   2.017   1.571   6.432 -1.3664  0.3790  0.1260
  823MOL0     C13451   1.952   1.703   6.404 -0.2416 -0.0640  1.1139
  823MOL0     C13452   1.801   1.685   6.412 -0.4596 -0.2264 -0.2212
  823MOL0     N13453   1.744   1.665   6.544  1.1513  0.1452 -0.0814
  823MOL0     C13454   1.612   1.694   6.582  0.7047 -0.1898  0.8927
  823MOL0     C13455   1.601   1.679   6.716 -0.5888  0.7170 -0.2683
  823MOL0     C13456   1.484   1.706   6.799 -0.6485  0.4152  0.5522
  823MOL0     C13457   1.461   1.862   6.815 -0.5525 -0.0779  0.5605
  823MOL0     C13458   1.573   1.946   6.890 -0.1557 -0.4606 -0.2711
  823MOL0     C13459   1.511   2.076   6.941  0.7684  0.2415  0.1079
  823MOL0     O13460   1.610   2.153   7.013 -0.6237  0.0517  0.4694
  823MOL0     C13461   1.553   2.259   7.076  0.1924  0.3704 -0.5518
  823MOL0     C13462   1.633   2.300   7.185  0.4439  0.4999  1.1539
  823MOL0     C13463   1.593   2.408   7.267  0.2890 -0.0750 -0.5247
  823MOL0     C13464   1.692   2.459   7.375  0.1605 -0.3796 -0.8453
  823MOL0     C13465   1.468   2.473   7.230 -0.5043 -0.6038 -0.4592
  823MOL0     C13466   1.417   2.587   7.306  0.2354  0.6285 -0.4756
  823MOL0     O13467   1.290   2.630   7.270  0.2625 -0.0056  0.2667
  823MOL0     C13468   1.212   2.712   7.348  0.2423  0.2730  0.0313
  823MOL0     C13469   1.238   2.758   7.480  0.1044 -0.1211 -0.5064
  823MOL0     C13470   1.154   2.841   7.554 -0.1654  0.2227 -1.0609
  823MOL0     C13471   1.039   2.885   7.490  0.3800 -0.1110 -0.1589
  823MOL0     O13472   0.949   2.969   7.560 -0.1411 -0.1098 -0.5181
  823MOL0     C13473   0.964   3.108   7.531 -0.0539  0.3134  0.2010
  823MOL0     C13474   0.865   3.178   7.623  0.5670 -0.4900  0.2937
  823MOL0     C13475   0.934   3.212   7.764  0.5346 -0.1705 -0.5732
  823MOL0     C13476   0.845   3.288   7.863 -0.2972 -0.2223 -0.2631
  823MOL0     C13477   0.742   3.202   7.920  0.1836  0.6418  0.1278
  823MOL0     C13478   0.654   3.293   8.008  1.3165  0.0131  0.6013
  823MOL0     C13479   0.512   3.249   8.011 -0.2226  0.3210  0.0747
  823MOL0     C13480   0.429   3.362   8.069  0.7237 -0.0781  0.1667
  823MOL0    Cl13481   0.247   3.307   8.072  0.1934  0.2453 -0.1574
  823MOL0     C13482   1.014   2.848   7.356  0.7111  0.0371 -0.6086
  823MOL0     C13483   1.094   2.764   7.289 -0.9955 -0.0058  1.2053
  823MOL0     O13484   1.478   2.624   7.405 -0.9047  0.1734  0.1334
  823MOL0     C13485   1.399   2.437   7.114 -0.5180 -0.2412  0.3452
  823MOL0     C13486   1.442   2.336   7.037 -0.4356  0.6233 -0.0677
  823MOL0     N13487   1.728   1.644   6.766  0.7714 -0.3960  0.1271
  823MOL0     N13488   1.806   1.647   6.660  0.2096 -0.6490  0.2448
  823MOL0     C13489   2.691   1.521   7.035 -0.5741  0.6389  1.1550
  823MOL0     C13490   2.781   1.475   7.128 -0.1096 -1.3393 -0.6915
  823MOL0     C13491   2.966   1.469   7.566  0.2517 -0.7051 -0.0393
  823MOL0     C13492   2.930   1.396   7.682 -0.5272 -0.1929  0.0215
  823MOL0     C13493   3.024   1.352   7.769  0.1031 -0.0249 -0.1292
  823MOL0     C13494   3.151   1.383   7.752  0.3765  0.4736 -0.1307
  823MOL0     O13495   3.246   1.360   7.851 -0.4139 -0.0762  0.6926
  823MOL0     C13496   3.217   1.283   7.973  0.6304  0.1191  0.8882
  823MOL0     C13497   3.343   1.271   8.044  0.3276 -0.3755 -0.6528
  823MOL0     C13498   3.387   1.407   8.086  0.4473 -0.1613 -0.7401
  823MOL0     C13499   3.502   1.394   8.194 -0.7704  0.4824 -0.3777
  823MOL0     C13500   3.547   1.512   8.273  0.1045  0.9191  0.2087
  823MOL0     C13501   3.589   1.592   8.355  0.2166  0.1347  0.3874
  823MOL0     C13502   3.191   1.466   7.645 -0.0556  0.6202 -0.3954
  823MOL0     C13503   3.102   1.499   7.549  0.6265  0.3687  0.7767
  823MOL0     C13504   3.151   1.591   7.435  0.7276  0.2859  0.2718
  823MOL0     H13505   2.758   1.741   7.331  1.8913 -1.7763  0.3441
  823MOL0     H13506   2.574   1.793   7.161  0.9007  0.2601  2.4448
  823MOL0     H13507   2.366   1.570   6.930  0.6778 -0.7013  1.1408
  823MOL0     H13508   2.514   1.537   6.831  0.0364  1.1683 -1.7586
  823MOL0     H13509   2.305   1.757   6.806 -1.1433  1.0729 -3.5671
  823MOL0     H13510   2.463   1.790   6.739 -2.2417  4.2022  3.5340
  823MOL0     H13511   2.416   1.644   6.548 -0.7336  2.2730  0.1047
  823MOL0     H13512   2.348   1.526   6.645 -0.3068 -0.8050 -1.3045
  823MOL0     H13513   2.130   1.663   6.661 -1.0819 -2.6450 -1.7390
  823MOL0     H13514   2.209   1.783   6.554  1.6958  0.6756 -0.3250
  823MOL0     H13515   2.203   1.485   6.493  1.2296 -0.1428 -1.4293
  823MOL0     H13516   2.227   1.620   6.382  1.7107 -2.9990 -0.1033
  823MOL0     H13517   2.003   1.509   6.344  1.1735 -1.8215  1.1268
  823MOL0     H13518   1.974   1.500   6.503 -1.9490 -2.5335 -2.9124
  823MOL0     H13519   1.988   1.742   6.309 -0.6213  0.5795  1.2279
  823MOL0     H13520   1.973   1.775   6.484 -1.0622  0.7477  0.6121
  823MOL0     H13521   1.757   1.776   6.369  1.5348  0.4329 -0.9695
  823MOL0     H13522   1.775   1.598   6.350  0.5235 -0.4919 -0.2716
  823MOL0     H13523   1.529   1.733   6.524  1.0939 -0.7876 -0.0851
  823MOL0     H13524   1.490   1.671   6.902 -0.4901 -1.0672  0.0595
  823MOL0     H13525   1.394   1.654   6.764 -0.2833 -0.5190  0.9705
  823MOL0     H13526   1.467   1.893   6.710 -0.8674 -0.3254  0.4685
  823MOL0     H13527   1.367   1.888   6.862 -0.4436 -1.8081  1.8313
  823MOL0     H13528   1.603   1.891   6.980 -1.3993  1.1391  1.2124
  823MOL0     H13529   1.648   1.975   6.816 -1.4270  0.4735 -1.2357
  823MOL0     H13530   1.480   2.143   6.860 -0.5344  0.8867  1.1151
  823MOL0     H13531   1.422   2.063   7.002 -1.7171 -0.4969 -3.3727
  823MOL0     H13532   1.714   2.237   7.223 -1.4679 -2.1907  1.0229
  823MOL0     H13533   1.656   2.451   7.478  1.1149  1.7868 -0.2879
  823MOL0     H13534   1.724   2.561   7.353  1.9816 -0.9455 -1.0011
  823MOL0     H13535   1.780   2.393   7.367 -1.6004 -2.8689 -0.7969
  823MOL0     H13536   1.332   2.733   7.529  0.2133 -0.9498 -1.1041
  823MOL0     H13537   1.176   2.875   7.655  2.5229 -1.9909 -0.7613
  823MOL0     H13538   1.066   3.141   7.553  0.2197 -0.4722  0.1372
  823MOL0     H13539   0.954   3.124   7.424  1.9488  0.7266  0.0377
  823MOL0     H13540   0.835   3.277   7.588 -2.0670 -0.7417  1.5274
  823MOL0     H13541   0.771   3.121   7.630 -1.2317  2.2894  0.3518
  823MOL0     H13542   1.015   3.280   7.734 -0.7573  1.3259 -0.8355
  823MOL0     H13543   0.976   3.125   7.814  1.0507  0.5008  0.1721
  823MOL0     H13544   0.805   3.375   7.810 -4.4433 -2.2093 -0.8749
  823MOL0     H13545   0.909   3.323   7.944 -0.3927  2.3056 -1.1902
  823MOL0     H13546   0.679   3.160   7.841  1.4013  0.9902 -1.0652
  823MOL0     H13547   0.794   3.125   7.976  0.6591  0.9877  0.1677
  823MOL0     H13548   0.663   3.394   7.967  2.9137 -0.7870 -1.1522
  823MOL0     H13549   0.701   3.307   8.106  0.9124  3.1898  0.4542
  823MOL0     H13550   0.500   3.155   8.065 -1.0067  1.2128  1.5373
  823MOL0     H13551   0.477   3.238   7.907 -0.7897  4.8747 -0.4574
  823MOL0     H13552   0.443   3.451   8.007  0.0289 -0.1588 -0.1148
  823MOL0     H13553   0.466   3.387   8.169  1.5262  0.6712 -0.3012
  823MOL0     H13554   0.924   2.884   7.306 -0.4258 -2.7801 -0.7688
  823MOL0     H13555   1.072   2.743   7.185 -1.2815  0.7682  1.1076
  823MOL0     H13556   1.318   2.501   7.079  0.5712  1.0796  0.1382
  823MOL0     H13557   1.387   2.315   6.945  0.9818  3.6007 -1.7607
  823MOL0     H13558   2.690   1.462   6.944 -0.4240 -0.3753  1.7881
  823MOL0     H13559   2.838   1.382   7.130 -3.6250 -3.8056  3.7659
  823MOL0     H13560   2.825   1.378   7.702 -0.9466  1.2383 -0.7488
  823MOL0     H13561   2.977   1.296   7.849  1.8699 -0.6083  0.5591
  823MOL0     H13562   3.136   1.337   8.024  0.3108  1.2812 -0.7349
  823MOL0     H13563   3.172   1.186   7.951 -0.0001  0.6059 -0.0482
  823MOL0     H13564   3.418   1.227   7.978 -0.1482  0.2582 -1.6499
  823MOL0     H13565   3.318   1.212   8.133 -2.6799 -0.5947 -1.5055
  823MOL0     H13566   3.421   1.461   7.997 -1.2747  3.2773  0.5034
  823MOL0     H13567   3.303   1.467   8.119 -0.0287 -0.3202 -1.6233
  823MOL0     H13568   3.597   1.352   8.157 -0.3494  1.3101 -0.2536
  823MOL0     H13569   3.454   1.334   8.272  2.7069 -1.1213  0.7603
  823MOL0     H13570   3.617   1.668   8.425 -2.2585  2.0225 -0.5307
  823MOL0     H13571   3.294   1.499   7.646  0.1135  0.3437  2.8180
  823MOL0     H13572   3.086   1.678   7.448 -0.4393 -0.8879  3.3211
  823MOL0     H13573   3.253   1.622   7.459  2.5048 -4.7888  0.6272
  823MOL0     H13574   3.134   1.537   7.341  1.9799  1.3133 -0.5700
  824MOL0     O13575   3.060   5.875   3.853  0.7964 -0.6235 -0.4186
  824MOL0     C13576   3.136   5.933   3.779 -0.6112  0.6987  0.0529
  824MOL0     O13577   3.264   5.966   3.817  0.0451 -0.3113  0.3820
  824MOL0     C13578   3.341   5.881   3.894 -0.2636  0.0400  0.1572
  824MOL0     C13579   3.473   5.926   3.927  1.2209 -0.5748 -0.6715
  824MOL0     C13580   3.561   5.844   4.008 -0.6395  1.2996 -0.2972
  824MOL0     C13581   3.514   5.715   4.058 -1.2204  0.7428 -0.4971
  824MOL0     O13582   3.590   5.633   4.141 -0.4142  0.0731  0.7418
  824MOL0     C13583   3.729   5.654   4.149  0.1108 -0.7899  0.4676
  824MOL0     C13584   3.801   5.538   4.213  0.1613  0.2588  0.5802
  824MOL0     C13585   3.763   5.524   4.360  0.0475 -0.5023 -0.2930
  824MOL0     C13586   3.872   5.439   4.429  0.6536  0.1491  0.6918
  824MOL0     C13587   3.852   5.421   4.582  0.2141 -0.2904 -0.5264
  824MOL0     C13588   3.948   5.319   4.648 -0.4169 -0.2659  0.2585
  824MOL0     C13589   3.961   5.326   4.805 -0.9255 -0.2466  0.3986
  824MOL0     C13590   4.010   5.197   4.883  0.8893 -0.6845  0.2441
  824MOL0     N13591   4.134   5.150   4.833 -0.2263  0.0218  0.2618
  824MOL0     C13592   4.249   5.219   4.823  0.1378 -0.4908 -0.4162
  824MOL0     C13593   4.342   5.138   4.777 -0.5981 -0.6753  0.2959
  824MOL0     C13594   4.488   5.174   4.768  0.1585 -0.0105 -0.1826
  824MOL0     C13595   4.557   5.149   4.904 -0.2143 -0.0714  0.1920
  824MOL0     C13596   4.712   5.141   4.889  0.4735  0.0250  0.2483
  824MOL0     C13597   4.782   5.098   5.015 -0.4638 -0.6760 -0.0043
  824MOL0     O13598   4.768   4.955   5.037  0.1451 -0.0734 -0.0592
  824MOL0     C13599   4.861   4.897   5.116 -0.1521 -0.9999  0.2886
  824MOL0     C13600   4.934   4.959   5.222 -0.4636 -0.5486  0.1078
  824MOL0     C13601   5.033   4.899   5.289  0.3239 -0.8253 -0.4189
  824MOL0     C13602   5.109   4.977   5.395 -0.0031 -0.3428 -0.7835
  824MOL0     C13603   5.069   4.761   5.262 -0.0494 -1.0380 -0.1529
  824MOL0     C13604   5.179   4.687   5.315  0.2032  0.8805  0.5171
  824MOL0     O13605   5.192   4.558   5.261 -0.3409  0.7140  0.1104
  824MOL0     C13606   5.320   4.502   5.254  0.7667 -1.1632  0.6388
  824MOL0     C13607   5.430   4.568   5.226 -1.5343 -0.4141 -0.4689
  824MOL0     C13608   5.557   4.497   5.231  0.0110 -0.1054  0.3204
  824MOL0     C13609   5.550   4.359   5.249 -0.4739 -0.0887  0.2810
  824MOL0     O13610   5.662   4.279   5.257 -0.6126 -0.0080 -0.2078
  824MOL0     C13611   5.787   4.342   5.217 -0.0124 -0.6105 -0.5940
  824MOL0     C13612   5.913   4.253   5.225 -0.1630 -0.1468 -0.5912
  824MOL0     C13613   6.042   4.315   5.172  0.2702 -0.5538 -0.3712
  824MOL0     C13614   6.157   4.223   5.143  0.0247  0.3327  0.0655
  824MOL0     C13615   6.289   4.295   5.105 -0.5093  0.2363 -0.1636
  824MOL0     C13616   6.366   4.343   5.221 -0.0696  0.1777 -0.0646
  824MOL0     C13617   6.496   4.413   5.198 -1.0684 -0.1128  0.4005
  824MOL0     C13618   6.600   4.308   5.131  0.4584 -0.6912 -0.0551
  824MOL0    Cl13619   6.768   4.380   5.147  0.0717 -0.5534  0.1033
  824MOL0     C13620   5.432   4.289   5.270  0.1950 -0.1289  0.1529
  824MOL0     C13621   5.318   4.365   5.269  0.5321  1.1693  0.3162
  824MOL0     O13622   5.245   4.732   5.404  0.0751  0.7271  0.6256
  824MOL0     C13623   4.992   4.699   5.157 -0.1667 -0.2079 -0.0892
  824MOL0     C13624   4.894   4.765   5.097 -0.8424 -0.0006  0.0081
  824MOL0     N13625   4.285   5.020   4.747  0.4038  0.0482 -0.1528
  824MOL0     N13626   4.154   5.028   4.778  0.4342  0.1397  0.4507
  824MOL0     C13627   3.386   5.675   4.029  0.3684  0.1974 -0.0765
  824MOL0     C13628   3.303   5.756   3.955  0.7270 -1.0758  0.6970
  824MOL0     C13629   3.105   5.964   3.633 -0.1912  0.4123 -0.5239
  824MOL0     C13630   3.200   6.009   3.543  0.3138 -0.4463 -0.7436
  824MOL0     C13631   3.172   6.050   3.414 -0.8385  0.1041 -0.5782
  824MOL0     C13632   3.049   6.039   3.366  1.1209 -0.1699 -0.4808
  824MOL0     O13633   3.024   6.103   3.252  0.0474  0.0421  0.2491
  824MOL0     C13634   2.970   6.232   3.263 -1.1049 -0.3965  1.2851
  824MOL0     C13635   2.944   6.298   3.130  0.3868  0.1274 -0.2950
  824MOL0     C13636   2.805   6.279   3.077 -0.4196 -0.4837  0.9961
  824MOL0     C13637   2.771   6.134   3.056  0.5793  0.1340  0.6882
  824MOL0     C13638   2.652   6.133   2.978  0.4437 -0.2273  0.3282
  824MOL0     C13639   2.553   6.130   2.907  0.3760 -0.1382  0.3899
  824MOL0     C13640   2.948   5.993   3.449 -0.0223 -0.2433  0.5991
  824MOL0     C13641   2.974   5.951   3.579 -0.1381 -0.8615 -0.8713
  824MOL0     C13642   2.851   5.911   3.657 -0.1545  0.1668 -0.1380
  824MOL0     H13643   3.518   6.003   3.866  2.9578 -2.4126 -1.8505
  824MOL0     H13644   3.660   5.886   4.020 -0.5810  1.3614 -0.9513
  824MOL0     H13645   3.747   5.748   4.201  0.1511 -0.1321 -0.6967
  824MOL0     H13646   3.760   5.679   4.047 -0.0709  0.4976  0.7068
  824MOL0     H13647   3.807   5.447   4.152 -0.6678 -0.1127  1.0388
  824MOL0     H13648   3.904   5.575   4.207  0.6117 -1.1301 -2.4033
  824MOL0     H13649   3.772   5.626   4.399  1.9364 -0.0620 -1.7301
  824MOL0     H13650   3.661   5.493   4.386  0.2895  0.8616  2.7212
  824MOL0     H13651   3.868   5.338   4.385 -2.9625 -0.6035  2.3548
  824MOL0     H13652   3.969   5.484   4.407 -0.3340  1.4581 -1.2638
  824MOL0     H13653   3.751   5.387   4.604  0.1183 -0.0145 -0.5449
  824MOL0     H13654   3.868   5.520   4.624  1.5283 -0.1266 -1.3378
  824MOL0     H13655   3.911   5.221   4.618 -3.1034  0.6089  0.4241
  824MOL0     H13656   4.050   5.332   4.611 -1.6106  1.3271 -2.8363
  824MOL0     H13657   3.855   5.339   4.830 -0.7004 -0.0241  1.2756
  824MOL0     H13658   4.018   5.414   4.837 -0.9372 -0.4929  1.1257
  824MOL0     H13659   4.021   5.212   4.991 -0.5733 -1.3226  0.5015
  824MOL0     H13660   3.934   5.120   4.869  0.1272  0.1114 -0.0828
  824MOL0     H13661   4.274   5.318   4.862  2.3343 -1.1807  0.0792
  824MOL0     H13662   4.509   5.275   4.732  0.2306  0.5013  1.2459
  824MOL0     H13663   4.520   5.104   4.690 -0.5284  1.0046 -1.4209
  824MOL0     H13664   4.538   5.228   4.977  0.0144  1.5974 -1.4813
  824MOL0     H13665   4.526   5.052   4.945 -0.1998  0.0452  0.4855
  824MOL0     H13666   4.756   5.077   4.812  1.0244  1.1139 -0.3539
  824MOL0     H13667   4.731   5.245   4.862  1.6216 -0.1829  0.2181
  824MOL0     H13668   4.884   5.135   5.006 -0.2133 -1.4925 -0.7006
  824MOL0     H13669   4.736   5.150   5.100  0.3595 -0.5519  0.3725
  824MOL0     H13670   4.936   5.066   5.243  2.8745 -0.6970  1.1323
  824MOL0     H13671   5.065   5.073   5.423 -0.1367 -0.9897  1.3977
  824MOL0     H13672   5.210   4.993   5.357 -0.4606 -1.3811 -2.5610
  824MOL0     H13673   5.106   4.918   5.487 -1.9473 -1.5172 -1.5344
  824MOL0     H13674   5.437   4.676   5.228  0.5565 -0.4149  3.8043
  824MOL0     H13675   5.644   4.559   5.212 -1.5710  1.4806 -2.2703
  824MOL0     H13676   5.777   4.389   5.118 -1.0027  4.1155  1.4767
  824MOL0     H13677   5.800   4.424   5.287 -2.3748 -1.0845  0.4968
  824MOL0     H13678   5.929   4.231   5.331  1.5770 -2.5343 -1.2396
  824MOL0     H13679   5.893   4.163   5.166 -1.8249 -1.1253  1.3343
  824MOL0     H13680   6.065   4.381   5.256 -1.9180 -1.7291  1.2374
  824MOL0     H13681   6.006   4.377   5.089 -0.6298  0.5717  0.8044
  824MOL0     H13682   6.128   4.163   5.057  0.9160  1.4746 -1.0744
  824MOL0     H13683   6.171   4.156   5.228 -1.4670 -0.8179 -0.5547
  824MOL0     H13684   6.355   4.230   5.045 -0.0405  2.4867 -2.2386
  824MOL0     H13685   6.273   4.386   5.046  1.6861  1.2967  0.7605
  824MOL0     H13686   6.380   4.263   5.293 -0.0202 -0.9279 -1.2602
  824MOL0     H13687   6.305   4.419   5.271  0.7587  0.9452 -0.2075
  824MOL0     H13688   6.546   4.460   5.283  0.8972  0.7160 -1.1291
  824MOL0     H13689   6.473   4.493   5.128 -1.8676  1.1303  2.0158
  824MOL0     H13690   6.586   4.300   5.023 -2.5237 -0.4175  0.2223
  824MOL0     H13691   6.595   4.210   5.178 -0.1571 -0.5651  0.1473
  824MOL0     H13692   5.425   4.181   5.267 -1.8604 -0.0537  0.9925
  824MOL0     H13693   5.221   4.323   5.294  2.2338 -1.3766  3.4232
  824MOL0     H13694   5.002   4.594   5.131  3.1613  0.3686 -1.6714
  824MOL0     H13695   4.841   4.707   5.023 -0.4579 -1.0372  0.5180
  824MOL0     H13696   3.362   5.571   4.049 -2.4878  0.8548  0.3521
  824MOL0     H13697   3.203   5.714   3.943  0.1257 -0.0897  2.0401
  824MOL0     H13698   3.299   6.020   3.586 -0.9831  1.3275  2.0952
  824MOL0     H13699   3.256   6.092   3.360  0.3768 -0.2736  0.9644
  824MOL0     H13700   2.871   6.231   3.309 -1.0837 -1.7828  1.3500
  824MOL0     H13701   3.034   6.299   3.321 -0.3130 -0.4681  0.5109
  824MOL0     H13702   3.016   6.249   3.064 -0.2606 -0.5559 -0.5031
  824MOL0     H13703   2.976   6.403   3.129  0.9486 -0.0382 -0.3525
  824MOL0     H13704   2.734   6.331   3.142 -0.0336  0.6076  0.5664
  824MOL0     H13705   2.810   6.319   2.975 -0.4267 -1.9545  0.4023
  824MOL0     H13706   2.760   6.088   3.154  0.7449 -0.8579  0.2532
  824MOL0     H13707   2.851   6.081   3.003  0.5688  1.8907 -1.2320
  824MOL0     H13708   2.468   6.118   2.843  0.3698 -2.1389  0.7245
  824MOL0     H13709   2.850   5.982   3.404  0.6978 -0.3830 -1.0006
  824MOL0     H13710   2.848   5.802   3.663 -0.0806  0.2284  3.5602
  824MOL0     H13711   2.849   5.950   3.759 -1.2859 -1.1911  0.3904
  824MOL0     H13712   2.756   5.953   3.623 -1.0114 -0.2617  1.5776
  825MOL0     O13713   3.076   7.097   1.887 -0.5774  0.2379  0.6956
  825MOL0     C13714   3.051   6.986   1.841  0.2990 -0.5887 -0.0298
  825MOL0     O13715   3.139   6.884   1.856 -0.0237  0.1657  0.8108
  825MOL0     C13716   3.245   6.894   1.944  0.2166  0.3547 -0.1911
  825MOL0     C13717   3.376   6.908   1.913  0.2782 -0.3433 -0.3599
  825MOL0     C13718   3.474   6.920   2.010 -0.3008 -0.0460  0.0727
  825MOL0     C13719   3.453   6.891   2.138  0.3077  0.5963 -0.9379
  825MOL0     O13720   3.557   6.900   2.221 -0.7248  0.0012  0.0905
  825MOL0     C13721   3.539   6.915   2.362  1.4563  0.4839 -0.0831
  825MOL0     C13722   3.665   6.915   2.446  1.1208  0.3228  0.6329
  825MOL0     C13723   3.641   6.917   2.599  0.9855 -1.0893  0.8601
  825MOL0     C13724   3.770   6.915   2.678 -0.7020  0.8042 -0.2068
  825MOL0     C13725   3.764   6.965   2.826  0.5683 -0.3633  0.6143
  825MOL0     C13726   3.906   6.957   2.886 -0.0589  0.3235 -0.1087
  825MOL0     C13727   3.994   7.065   2.838 -0.8759 -0.9709 -0.6034
  825MOL0     C13728   4.142   7.065   2.880  0.4238  0.3883 -0.1825
  825MOL0     N13729   4.165   7.132   3.012  0.5572 -0.9916 -0.8897
  825MOL0     C13730   4.268   7.222   3.040  0.1457 -0.4666  0.5870
  825MOL0     C13731   4.235   7.277   3.153 -0.2081 -0.1466 -1.0695
  825MOL0     C13732   4.307   7.375   3.231 -1.0247  0.2196  0.3331
  825MOL0     C13733   4.453   7.322   3.265 -0.0688  0.6226 -0.8272
  825MOL0     C13734   4.446   7.202   3.369 -0.1205  0.3183  0.2551
  825MOL0     C13735   4.584   7.144   3.391 -1.3716 -0.7250 -0.3599
  825MOL0     O13736   4.588   7.051   3.506 -0.1114 -0.2908 -0.3307
  825MOL0     C13737   4.704   6.999   3.538 -0.1240  0.2725  0.2758
  825MOL0     C13738   4.688   6.918   3.648  0.1111  1.2902  0.2069
  825MOL0     C13739   4.797   6.845   3.694 -0.2120  0.5736 -0.2826
  825MOL0     C13740   4.784   6.764   3.820 -0.4002 -0.1109 -0.8294
  825MOL0     C13741   4.922   6.865   3.632 -0.7039  0.1668 -0.4981
  825MOL0     C13742   5.045   6.805   3.689  0.5730 -0.1363  0.6852
  825MOL0     O13743   5.103   6.690   3.628 -0.5927 -1.0329 -0.8168
  825MOL0     C13744   5.219   6.645   3.690  0.9576 -1.0955 -0.5860
  825MOL0     C13745   5.217   6.548   3.791  0.3565 -0.0192 -0.7127
  825MOL0     C13746   5.337   6.506   3.853  0.4340  0.1520 -0.0829
  825MOL0     C13747   5.462   6.546   3.796 -0.0943  0.5817 -0.0807
  825MOL0     O13748   5.572   6.503   3.866 -0.1646 -0.1703  0.2443
  825MOL0     C13749   5.698   6.578   3.858  0.1724 -0.6932  0.3849
  825MOL0     C13750   5.793   6.504   3.948  0.5723  0.9252  0.1672
  825MOL0     C13751   5.748   6.551   4.092  0.3875  0.6565  0.6186
  825MOL0     C13752   5.796   6.441   4.186  0.5576  0.1744  0.9675
  825MOL0     C13753   5.769   6.474   4.333  0.6586 -0.5982 -0.0668
  825MOL0     C13754   5.642   6.395   4.378 -0.9108 -1.0872  0.4074
  825MOL0     C13755   5.660   6.243   4.407  0.1396  0.3652 -0.4669
  825MOL0     C13756   5.555   6.184   4.506  0.0293  0.7824 -0.3383
  825MOL0    Cl13757   5.396   6.179   4.421 -0.2357  0.3648  0.5439
  825MOL0     C13758   5.469   6.633   3.687 -0.1742  0.1466  0.2920
  825MOL0     C13759   5.342   6.679   3.636  1.3120 -0.4664 -0.3721
  825MOL0     O13760   5.092   6.863   3.784  0.0463 -0.5946  0.3025
  825MOL0     C13761   4.940   6.958   3.534  0.7725  0.3033  0.7035
  825MOL0     C13762   4.830   7.024   3.475  0.0941  0.1136 -0.2839
  825MOL0     N13763   4.113   7.225   3.194 -0.3986  0.0610  0.0535
  825MOL0     N13764   4.080   7.130   3.119 -0.1493 -0.2697 -0.0609
  825MOL0     C13765   3.319   6.868   2.177  1.0370 -0.2341  0.3782
  825MOL0     C13766   3.217   6.870   2.079  0.1622 -0.6304  0.1838
  825MOL0     C13767   2.915   6.957   1.788 -0.5866 -0.8385 -0.3449
  825MOL0     C13768   2.870   6.825   1.805 -0.0827  0.1754 -0.3111
  825MOL0     C13769   2.740   6.787   1.773  0.0414 -0.0818  0.0022
  825MOL0     C13770   2.640   6.884   1.749 -0.4083  0.7232  0.5033
  825MOL0     O13771   2.513   6.830   1.737  0.0946  0.1431  0.5126
  825MOL0     C13772   2.414   6.921   1.697  0.7335  0.6384  0.6047
  825MOL0     C13773   2.275   6.864   1.726  0.3661  0.0775  0.1447
  825MOL0     C13774   2.175   6.980   1.749  0.5697 -0.5308  0.2114
  825MOL0     C13775   2.120   7.040   1.615  0.1815  0.2314  0.3864
  825MOL0     C13776   2.012   6.963   1.539 -0.8758  0.1521 -0.0592
  825MOL0     C13777   1.926   6.891   1.486 -0.6559  0.1615 -0.4350
  825MOL0     C13778   2.687   7.010   1.733  0.2201 -0.7017  0.5494
  825MOL0     C13779   2.817   7.054   1.758 -0.4364 -0.2243  1.2018
  825MOL0     C13780   2.849   7.193   1.719 -0.0887 -0.0438 -0.4140
  825MOL0     H13781   3.408   6.908   1.809 -0.2112 -0.8579 -0.5157
  825MOL0     H13782   3.573   6.940   1.971 -0.1497 -1.1521 -0.1616
  825MOL0     H13783   3.477   6.837   2.406  2.0444  0.9768  1.6907
  825MOL0     H13784   3.487   7.010   2.372  2.1357  0.7038  1.6842
  825MOL0     H13785   3.714   6.820   2.423 -2.7949 -1.6794 -0.4788
  825MOL0     H13786   3.733   6.991   2.408  2.2788 -0.4307  1.1412
  825MOL0     H13787   3.579   7.002   2.627  0.6183 -0.3757 -1.8504
  825MOL0     H13788   3.578   6.829   2.613 -1.5743 -0.0142 -2.5147
  825MOL0     H13789   3.815   6.816   2.675  1.8488  1.9061 -0.7221
  825MOL0     H13790   3.842   6.980   2.628  1.0621 -1.2157 -0.3987
  825MOL0     H13791   3.685   6.917   2.885  0.4531 -0.4983  0.3486
  825MOL0     H13792   3.746   7.073   2.826  1.0427 -0.2451 -1.7561
  825MOL0     H13793   3.904   6.974   2.994 -2.4511  4.2163 -0.5288
  825MOL0     H13794   3.940   6.856   2.864 -3.3073 -0.6395 -1.4392
  825MOL0     H13795   3.945   7.157   2.872 -2.6019 -2.9350  2.7999
  825MOL0     H13796   3.996   7.062   2.729 -0.4731 -2.3387 -0.5756
  825MOL0     H13797   4.165   6.958   2.881 -2.5648 -0.3263 -0.7851
  825MOL0     H13798   4.196   7.107   2.795 -1.0831  0.3235 -1.2091
  825MOL0     H13799   4.352   7.240   2.974  0.5435 -2.0554  0.6038
  825MOL0     H13800   4.247   7.397   3.320 -0.2120 -2.4736  1.6699
  825MOL0     H13801   4.316   7.465   3.171 -2.6626  1.4243  1.8097
  825MOL0     H13802   4.507   7.287   3.176  1.4890  0.4174  0.1639
  825MOL0     H13803   4.505   7.403   3.316 -2.0084  0.5443  1.4555
  825MOL0     H13804   4.414   7.234   3.468 -2.1330 -1.6323  0.3191
  825MOL0     H13805   4.388   7.120   3.327  0.2887  0.6643 -1.0628
  825MOL0     H13806   4.611   7.095   3.297 -2.6932 -2.9551  0.3448
  825MOL0     H13807   4.652   7.227   3.411 -3.9497  1.3148  0.5716
  825MOL0     H13808   4.589   6.914   3.691 -0.2558  1.9476 -0.5582
  825MOL0     H13809   4.884   6.755   3.862  0.2371 -1.7173 -2.5202
  825MOL0     H13810   4.756   6.663   3.788 -1.4300 -0.2653  0.4842
  825MOL0     H13811   4.702   6.796   3.885 -1.7372 -0.4042 -2.3117
  825MOL0     H13812   5.122   6.515   3.830  1.4300 -1.9641  0.4503
  825MOL0     H13813   5.334   6.441   3.939  0.8150 -0.1232 -0.2760
  825MOL0     H13814   5.729   6.569   3.753 -0.5748 -0.7885  0.1695
  825MOL0     H13815   5.681   6.681   3.889  4.4133  0.5915 -0.8745
  825MOL0     H13816   5.783   6.395   3.942  1.3572  0.9185 -1.4563
  825MOL0     H13817   5.894   6.541   3.929  2.2930 -2.8759  0.9184
  825MOL0     H13818   5.639   6.557   4.086  0.2630  0.1609  1.9762
  825MOL0     H13819   5.791   6.649   4.116  0.8708  0.5745  0.1055
  825MOL0     H13820   5.904   6.447   4.169 -0.0342  2.7656 -3.4729
  825MOL0     H13821   5.749   6.347   4.156 -2.2533  1.7603 -0.0289
  825MOL0     H13822   5.856   6.446   4.393  0.7101 -0.1592  0.0710
  825MOL0     H13823   5.746   6.579   4.357  0.2168  0.0962 -3.0680
  825MOL0     H13824   5.567   6.419   4.302  0.7371  1.4189 -0.5647
  825MOL0     H13825   5.597   6.443   4.465 -2.0461 -1.7972  0.2321
  825MOL0     H13826   5.761   6.227   4.446  0.4271  0.1159 -1.3020
  825MOL0     H13827   5.660   6.191   4.311  2.2006 -0.9958  0.1980
  825MOL0     H13828   5.553   6.251   4.592  2.8631  1.4284 -0.6676
  825MOL0     H13829   5.584   6.082   4.534  0.4031  0.8175 -0.5903
  825MOL0     H13830   5.562   6.660   3.639 -0.5044  0.0039 -0.4491
  825MOL0     H13831   5.341   6.752   3.556  0.7831 -0.7887 -0.6683
  825MOL0     H13832   5.038   6.985   3.495 -0.7371  4.3930 -0.7782
  825MOL0     H13833   4.844   7.095   3.394 -0.4758  2.4918  1.5971
  825MOL0     H13834   3.291   6.851   2.280  0.8015  0.3169  0.4065
  825MOL0     H13835   3.112   6.852   2.099 -0.3797 -1.7316 -3.0532
  825MOL0     H13836   2.929   6.745   1.849  0.1277 -0.5846 -1.9131
  825MOL0     H13837   2.723   6.680   1.780  1.1057 -0.2106  0.8166
  825MOL0     H13838   2.421   7.012   1.757 -3.0411  1.9274 -0.6494
  825MOL0     H13839   2.426   6.941   1.590  1.0995 -1.7964  0.1161
  825MOL0     H13840   2.273   6.806   1.819 -1.1151  1.6540  1.1715
  825MOL0     H13841   2.234   6.798   1.650 -2.4785  0.8338  0.8935
  825MOL0     H13842   2.087   6.942   1.802  1.5858 -2.2328  0.7429
  825MOL0     H13843   2.223   7.064   1.799  1.1445 -0.9406  0.3547
  825MOL0     H13844   2.202   7.047   1.542 -0.3518 -1.7441 -0.4574
  825MOL0     H13845   2.079   7.137   1.643  0.1139 -0.0857  1.4443
  825MOL0     H13846   1.852   6.830   1.438 -0.4371  1.7531 -2.9502
  825MOL0     H13847   2.620   7.085   1.693  0.7602 -0.9279 -0.8646
  825MOL0     H13848   2.768   7.231   1.656  0.4852  0.6216 -0.7633
  825MOL0     H13849   2.855   7.250   1.812 -1.8763 -0.0572 -0.2459
  825MOL0     H13850   2.947   7.201   1.670  0.9230 -2.2189  1.1254
  826MOL0     O13851   7.249  10.651   7.769 -0.4991 -0.6417 -0.5161
  826MOL0     C13852   7.297  10.572   7.848  0.2505  0.2951 -0.4505
  826MOL0     O13853   7.424  10.586   7.914 -0.5428 -0.0244 -0.1373
  826MOL0     C13854   7.518  10.663   7.848 -0.0678 -0.3424 -0.7061
  826MOL0     C13855   7.552  10.662   7.715 -0.0690 -0.4112 -0.0807
  826MOL0     C13856   7.647  10.738   7.653  0.1193 -0.5584 -0.1864
  826MOL0     C13857   7.716  10.830   7.729  0.5320 -0.3464  0.1167
  826MOL0     O13858   7.802  10.927   7.677 -0.0611 -0.4291  0.2035
  826MOL0     C13859   7.806  10.952   7.537  0.5760 -0.2107 -0.2254
  826MOL0     C13860   7.889  10.850   7.467 -0.4797 -0.5221  0.4751
  826MOL0     C13861   8.039  10.871   7.475 -0.0782  0.0574  0.1388
  826MOL0     C13862   8.118  10.770   7.388 -0.4029  1.3895  0.5264
  826MOL0     C13863   8.276  10.787   7.408  0.0269  0.4369 -0.9810
  826MOL0     C13864   8.340  10.922   7.372  0.0051 -0.4911 -0.3324
  826MOL0     C13865   8.314  10.976   7.235 -0.1572 -0.2677  0.5474
  826MOL0     C13866   8.342  10.884   7.112  0.2859  0.0192 -0.5663
  826MOL0     N13867   8.473  10.816   7.120 -0.1260 -0.4281  0.2415
  826MOL0     C13868   8.510  10.688   7.163  0.7664 -0.7642 -0.4927
  826MOL0     C13869   8.642  10.678   7.148 -0.1728  0.6070  0.0932
  826MOL0     C13870   8.722  10.564   7.213 -0.4520  0.1119  0.3002
  826MOL0     C13871   8.787  10.595   7.353 -0.0157  0.3324  0.3884
  826MOL0     C13872   8.686  10.584   7.470  0.1850 -0.0412 -0.7847
  826MOL0     C13873   8.779  10.606   7.594 -0.0928  0.0060 -0.2601
  826MOL0     O13874   8.700  10.577   7.713 -0.1304  0.0633 -0.2827
  826MOL0     C13875   8.771  10.549   7.827 -0.6895 -1.8999  0.0473
  826MOL0     C13876   8.895  10.614   7.871 -0.1169  0.0161 -0.5201
  826MOL0     C13877   8.950  10.595   8.002 -0.3704  0.8971 -0.0766
  826MOL0     C13878   9.082  10.663   8.035 -0.4325  0.2146 -0.3676
  826MOL0     C13879   8.880  10.512   8.092 -0.7235 -0.4349 -0.1217
  826MOL0     C13880   8.932  10.492   8.232  0.1807  0.8055  0.3336
  826MOL0     O13881   8.986  10.597   8.292  0.5574 -0.3317  1.2751
  826MOL0     C13882   9.017  10.592   8.421 -0.1410  0.3812  0.1340
  826MOL0     C13883   8.953  10.677   8.512 -0.2253 -0.2873  0.7399
  826MOL0     C13884   8.977  10.661   8.645  0.3451 -0.8389  0.7160
  826MOL0     C13885   9.060  10.561   8.702  0.3341 -0.3252  0.1014
  826MOL0     O13886   9.063  10.564   8.845 -0.1456  0.0362  0.3523
  826MOL0     C13887   9.165  10.489   8.913  0.0718 -0.9249  0.3453
  826MOL0     C13888   9.313  10.539   8.888 -0.9627 -0.1329 -0.4946
  826MOL0     C13889   9.406  10.481   8.994  0.5690 -0.0742 -0.0041
  826MOL0     C13890   9.550  10.481   8.954  0.1424 -0.5548 -0.1032
  826MOL0     C13891   9.642  10.402   9.055  0.1607  0.3845  0.2106
  826MOL0     C13892   9.766  10.338   8.990  0.4549 -0.1916 -0.5560
  826MOL0     C13893   9.873  10.441   8.941 -0.1536  0.2391 -0.8142
  826MOL0     C13894  10.015  10.375   8.920  0.0879  0.3435 -0.1804
  826MOL0    Cl13895  10.079  10.311   9.082  0.0570  0.5113  0.1232
  826MOL0     C13896   9.131  10.487   8.614  0.0101 -0.4641  0.3443
  826MOL0     C13897   9.110  10.503   8.478 -0.7587 -0.4112  0.2370
  826MOL0     O13898   8.914  10.380   8.282 -0.0832  0.2170 -0.2244
  826MOL0     C13899   8.765  10.438   8.045  0.8654  0.0174 -0.2242
  826MOL0     C13900   8.721  10.461   7.913  0.3751  0.2451 -0.4526
  826MOL0     N13901   8.690  10.795   7.087 -0.6855 -0.3251  0.4710
  826MOL0     N13902   8.592  10.869   7.067 -0.5989  0.5668 -0.7695
  826MOL0     C13903   7.688  10.828   7.870  0.7243  0.6348 -0.6728
  826MOL0     C13904   7.588  10.746   7.927 -0.9417  0.1454  0.0091
  826MOL0     C13905   7.202  10.471   7.898  0.0522  0.2354 -0.1874
  826MOL0     C13906   7.121  10.501   8.005  0.2876  0.0633 -0.3123
  826MOL0     C13907   7.015  10.414   8.043  1.0320  0.7338 -0.5733
  826MOL0     C13908   6.995  10.298   7.967 -0.6773 -0.4289  0.1937
  826MOL0     O13909   6.887  10.218   7.971  0.0995  0.2625 -0.2479
  826MOL0     C13910   6.772  10.265   8.035  0.6862  0.2315 -0.6684
  826MOL0     C13911   6.652  10.180   7.978  1.2883 -0.5903  0.0060
  826MOL0     C13912   6.507  10.237   8.005  0.6126 -0.4688  0.2002
  826MOL0     C13913   6.444  10.206   8.140 -0.2508 -0.1502 -0.0756
  826MOL0     C13914   6.313  10.261   8.161  0.7426 -1.2174 -0.6240
  826MOL0     C13915   6.196  10.301   8.181 -0.3242  0.0540  0.5821
  826MOL0     C13916   7.079  10.266   7.858  0.5834 -0.6379 -0.3516
  826MOL0     C13917   7.182  10.359   7.824 -0.1813  0.0318 -0.6449
  826MOL0     C13918   7.274  10.316   7.709 -0.5826  0.0372  0.6701
  826MOL0     H13919   7.510  10.591   7.644 -0.5965 -0.9746  0.7891
  826MOL0     H13920   7.671  10.709   7.551 -0.6220 -2.0480  0.0279
  826MOL0     H13921   7.861  11.047   7.538  2.2705 -1.1250  2.1705
  826MOL0     H13922   7.706  10.965   7.496 -2.4058 -1.3585  5.7350
  826MOL0     H13923   7.862  10.755   7.515 -3.3392  1.0274  2.2232
  826MOL0     H13924   7.853  10.872   7.366 -0.2514  1.1193  0.7388
  826MOL0     H13925   8.054  10.974   7.441  1.7997 -0.4390 -0.6717
  826MOL0     H13926   8.062  10.877   7.581 -2.0818  1.2986  0.5493
  826MOL0     H13927   8.083  10.670   7.417  1.2029  0.1777 -1.4530
  826MOL0     H13928   8.090  10.774   7.282  1.3966  0.7752 -0.0041
  826MOL0     H13929   8.326  10.705   7.356 -0.9629 -1.3148  0.6856
  826MOL0     H13930   8.292  10.775   7.516 -0.0684 -1.0477 -1.1053
  826MOL0     H13931   8.300  11.002   7.433  0.4140  0.6100 -1.4564
  826MOL0     H13932   8.449  10.916   7.378  0.4010  1.5494 -3.2297
  826MOL0     H13933   8.379  11.062   7.218  0.7439 -0.7699  1.3504
  826MOL0     H13934   8.216  11.024   7.225  1.7446  3.6877 -1.3066
  826MOL0     H13935   8.270  10.802   7.117 -2.3906  2.2897  0.4400
  826MOL0     H13936   8.315  10.927   7.015 -0.9737  0.4814 -0.0212
  826MOL0     H13937   8.450  10.616   7.218  0.0234 -0.3671 -0.7701
  826MOL0     H13938   8.791  10.519   7.141 -5.1022 -0.7775 -4.2545
  826MOL0     H13939   8.653  10.485   7.246  0.6734  0.0413  2.6536
  826MOL0     H13940   8.860  10.515   7.369  1.0098  0.7932 -1.5567
  826MOL0     H13941   8.840  10.691   7.349  0.3718  0.1186  0.3413
  826MOL0     H13942   8.606  10.658   7.469 -0.4708 -0.7369 -0.3486
  826MOL0     H13943   8.648  10.482   7.479  2.9124 -0.9717  3.1582
  826MOL0     H13944   8.868  10.543   7.592 -0.8066 -1.0133 -0.7553
  826MOL0     H13945   8.814  10.710   7.589 -1.6754  0.6079  0.3638
  826MOL0     H13946   8.930  10.692   7.805 -0.8667  1.6872  0.9489
  826MOL0     H13947   9.080  10.749   8.102  0.7738 -0.6078  0.7888
  826MOL0     H13948   9.135  10.683   7.941  0.2852 -2.4777 -0.6328
  826MOL0     H13949   9.142  10.587   8.087 -0.0050  0.7933  0.0008
  826MOL0     H13950   8.881  10.752   8.481 -1.3982 -1.6431  0.0696
  826MOL0     H13951   8.920  10.725   8.711 -2.7786 -2.5701 -0.1045
  826MOL0     H13952   9.145  10.489   9.020  2.7174 -0.4865  0.9154
  826MOL0     H13953   9.159  10.391   8.866  0.1947 -0.2422 -1.1712
  826MOL0     H13954   9.356  10.508   8.793 -0.0925 -1.0568  0.1798
  826MOL0     H13955   9.302  10.648   8.900 -3.2914 -0.2078 -1.4007
  826MOL0     H13956   9.373  10.379   9.015 -1.1641  0.7161  1.3555
  826MOL0     H13957   9.407  10.541   9.085  5.0320 -1.5837  1.2106
  826MOL0     H13958   9.571  10.587   8.938 -3.2221 -0.0262 -1.8179
  826MOL0     H13959   9.559  10.427   8.859 -1.0264 -1.3645  0.2303
  826MOL0     H13960   9.661  10.467   9.141  0.6490 -0.1727  0.5319
  826MOL0     H13961   9.591  10.316   9.100  0.7694  0.0750  0.3227
  826MOL0     H13962   9.732  10.274   8.908 -0.4442  2.6882 -2.5807
  826MOL0     H13963   9.816  10.272   9.062 -1.2089 -0.9949 -0.0809
  826MOL0     H13964   9.889  10.519   9.016  0.1484  2.2373 -2.8522
  826MOL0     H13965   9.837  10.490   8.850 -1.3635  2.4391  0.7491
  826MOL0     H13966  10.087  10.450   8.885  1.1856 -0.4330  0.3634
  826MOL0     H13967   9.992  10.300   8.845  0.5764 -0.5336  0.5326
  826MOL0     H13968   9.203  10.416   8.653  1.5179  0.5884 -0.3955
  826MOL0     H13969   9.168  10.447   8.407  0.2341  0.9723 -0.0705
  826MOL0     H13970   8.722  10.360   8.106  0.4636 -0.0088 -0.5410
  826MOL0     H13971   8.625  10.419   7.885 -0.2919  1.8629 -0.6955
  826MOL0     H13972   7.745  10.890   7.939  2.3826  0.0563 -1.4650
  826MOL0     H13973   7.576  10.745   8.035 -0.4098  1.5313  0.1066
  826MOL0     H13974   7.139  10.585   8.071  1.9131 -1.0870  0.7801
  826MOL0     H13975   6.950  10.436   8.127 -2.1067 -0.9961 -2.3579
  826MOL0     H13976   6.783  10.257   8.144 -0.0145  1.3788 -0.4963
  826MOL0     H13977   6.757  10.372   8.014  0.9722  0.3983 -0.0547
  826MOL0     H13978   6.651  10.077   8.015 -0.4302 -0.1338  1.4215
  826MOL0     H13979   6.660  10.191   7.870 -2.2525  0.4554 -0.2638
  826MOL0     H13980   6.516  10.345   7.989 -1.1449 -0.3823 -0.4130
  826MOL0     H13981   6.441  10.200   7.927 -0.2308 -0.5930  0.9501
  826MOL0     H13982   6.510  10.245   8.218  0.8543  1.1661 -1.6084
  826MOL0     H13983   6.436  10.097   8.145 -0.1254 -0.2548 -1.5707
  826MOL0     H13984   6.101  10.337   8.215  0.7265  1.8636  1.8389
  826MOL0     H13985   7.062  10.173   7.806  1.8502 -0.5773 -0.9130
  826MOL0     H13986   7.266  10.210   7.683  0.0870 -0.8003  3.5573
  826MOL0     H13987   7.256  10.384   7.625 -0.5441 -1.6038 -0.7375
  826MOL0     H13988   7.376  10.321   7.748 -0.2197 -2.3488  0.1603
  827MOL0     O13989   5.428   8.901  10.246  0.8654  0.3680  0.2324
  827MOL0     C13990   5.403   9.020  10.263  0.1277 -0.5262  0.9428
  827MOL0     O13991   5.449   9.099  10.367  0.1853  0.1566  0.7900
  827MOL0     C13992   5.526   9.033  10.454  0.6649 -0.6825 -0.3124
  827MOL0     C13993   5.658   9.072  10.486 -0.6038  0.2741 -0.2112
  827MOL0     C13994   5.735   9.006  10.578  0.3407  0.2859  0.9020
  827MOL0     C13995   5.685   8.895  10.649  0.3884  0.3445  0.6869
  827MOL0     O13996   5.765   8.822  10.737 -0.0586 -0.4799 -1.0996
  827MOL0     C13997   5.880   8.884  10.795  0.3497  0.2813 -1.4608
  827MOL0     C13998   5.921   8.822  10.931  1.2236  0.1786 -0.1809
  827MOL0     C13999   5.850   8.895  11.054  0.1809 -0.6520 -0.6826
  827MOL0     C14000   5.705   8.875  11.039  0.1528 -1.4888 -0.4800
  827MOL0     C14001   5.622   8.929  11.153 -0.1054  0.6469 -0.0608
  827MOL0     C14002   5.471   8.910  11.128 -0.4366  0.1355  0.2234
  827MOL0     C14003   5.438   8.762  11.132 -0.7081  0.3470 -1.3145
  827MOL0     C14004   5.288   8.735  11.135 -0.1611 -0.7931 -0.1311
  827MOL0     N14005   5.259   8.602  11.171  0.3780  0.1393 -0.5205
  827MOL0     C14006   5.277   8.488  11.094 -0.1689  0.1058  1.1095
  827MOL0     C14007   5.255   8.391  11.177  0.9930  1.2703  0.8863
  827MOL0     C14008   5.250   8.250  11.114 -0.1397 -0.1584  0.4307
  827MOL0     C14009   5.378   8.178  11.156  0.2330 -0.4131 -0.0141
  827MOL0     C14010   5.494   8.223  11.064  0.2695  0.8159 -0.0308
  827MOL0     C14011   5.625   8.164  11.100  0.0398  0.4716 -0.1664
  827MOL0     O14012   5.697   8.248  11.015  0.2539  0.5532 -0.7750
  827MOL0     C14013   5.835   8.232  11.006  0.4070  0.3703 -0.4616
  827MOL0     C14014   5.895   8.333  10.930  0.5727 -0.6882 -1.3090
  827MOL0     C14015   6.035   8.329  10.905  0.7791  0.0714 -0.2112
  827MOL0     C14016   6.088   8.418  10.796  1.0555 -0.1496  0.0922
  827MOL0     C14017   6.114   8.225  10.975  0.4473 -0.8922 -0.5375
  827MOL0     C14018   6.256   8.218  10.972 -0.2817 -0.3748  0.0247
  827MOL0     O14019   6.308   8.131  11.057  0.2405 -0.7416  0.3562
  827MOL0     C14020   6.438   8.093  11.049  0.3667  0.7012  1.0460
  827MOL0     C14021   6.545   8.182  11.053 -0.6556 -0.0516 -0.4284
  827MOL0     C14022   6.683   8.127  11.076  0.2374  0.1990 -0.2688
  827MOL0     C14023   6.701   7.985  11.089  0.2059  0.0258  0.6020
  827MOL0     O14024   6.825   7.930  11.117 -0.3876  0.3343 -0.6866
  827MOL0     C14025   6.892   7.985  11.233 -0.3845  0.2955 -0.2467
  827MOL0     C14026   6.980   7.876  11.296  0.6102 -0.0305  0.2022
  827MOL0     C14027   7.127   7.886  11.252  0.5859 -0.7752  0.1323
  827MOL0     C14028   7.210   7.787  11.330 -0.5812 -0.2672  0.4631
  827MOL0     C14029   7.354   7.790  11.282  0.2060  0.5458 -0.2662
  827MOL0     C14030   7.380   7.720  11.146  0.6179 -0.2748 -0.3759
  827MOL0     C14031   7.528   7.747  11.108 -0.4085  0.3177  0.4286
  827MOL0     C14032   7.557   7.683  10.977 -0.1359 -0.1942  0.9401
  827MOL0    Cl14033   7.726   7.717  10.927  0.0249 -0.0174 -0.2028
  827MOL0     C14034   6.591   7.901  11.077  0.1743  0.5194 -0.0449
  827MOL0     C14035   6.465   7.950  11.051  0.6906  0.1552  0.2549
  827MOL0     O14036   6.322   8.286  10.892  0.2569 -0.3093  0.1130
  827MOL0     C14037   6.043   8.134  11.059 -1.5625 -1.3016 -0.3304
  827MOL0     C14038   5.907   8.134  11.079 -0.4569  0.3192 -0.6150
  827MOL0     N14039   5.203   8.450  11.291  0.5187 -0.1123  0.0313
  827MOL0     N14040   5.193   8.574  11.287  0.2911 -0.3480  0.3015
  827MOL0     C14041   5.549   8.865  10.635 -0.2583  0.0271  0.0722
  827MOL0     C14042   5.476   8.923  10.529  0.0886  0.1486 -0.0682
  827MOL0     C14043   5.328   9.091  10.157  0.1918  0.4369  0.3867
  827MOL0     C14044   5.373   9.222  10.132 -0.2696  0.0938 -0.3804
  827MOL0     C14045   5.315   9.291  10.027 -0.4964 -0.1941  0.1507
  827MOL0     C14046   5.214   9.227   9.947 -0.7050 -0.1450  0.3980
  827MOL0     O14047   5.170   9.308   9.840 -0.5457  0.5032 -0.1560
  827MOL0     C14048   5.057   9.275   9.764 -0.5661  0.6599 -0.5801
  827MOL0     C14049   5.038   9.381   9.652  0.0567 -0.5121 -0.1168
  827MOL0     C14050   4.988   9.513   9.708  0.4552 -0.1253 -0.5285
  827MOL0     C14051   5.075   9.638   9.676 -0.4607  0.2644 -0.4064
  827MOL0     C14052   5.085   9.665   9.531 -0.1377  0.0913  0.0639
  827MOL0     C14053   5.106   9.672   9.410 -0.8981 -0.3645  0.8475
  827MOL0     C14054   5.174   9.099   9.971 -0.0838 -0.4739 -0.6763
  827MOL0     C14055   5.224   9.028  10.081 -0.7690  0.7130  0.0244
  827MOL0     C14056   5.181   8.889  10.107  0.6281  0.2109  0.1240
  827MOL0     H14057   5.706   9.158  10.440 -0.2229  0.0188 -0.2956
  827MOL0     H14058   5.840   9.032  10.584  0.4575 -0.1846  0.8696
  827MOL0     H14059   5.882   8.993  10.799  3.5440  0.3185  1.1431
  827MOL0     H14060   5.970   8.869  10.734  1.8432  1.3011  0.3515
  827MOL0     H14061   5.892   8.717  10.923  0.9046  0.2911 -0.5083
  827MOL0     H14062   6.030   8.834  10.939  1.2479 -0.2842  0.2837
  827MOL0     H14063   5.883   8.855  11.151  0.5594  1.9193  0.3233
  827MOL0     H14064   5.885   8.998  11.055  1.5805 -1.0876 -1.6231
  827MOL0     H14065   5.665   8.914  10.945  1.8426 -0.1606 -0.7079
  827MOL0     H14066   5.675   8.771  11.027  0.7694 -1.4170 -4.0250
  827MOL0     H14067   5.633   9.035  11.175  0.9515  0.0982  2.3608
  827MOL0     H14068   5.640   8.871  11.244 -1.9394  0.1183  0.0080
  827MOL0     H14069   5.429   8.962  11.215 -1.2456 -1.4411  0.8101
  827MOL0     H14070   5.452   8.954  11.029  0.3008  1.1357  0.5130
  827MOL0     H14071   5.475   8.734  11.232 -2.9532  2.3170  0.1686
  827MOL0     H14072   5.484   8.700  11.055 -0.3519 -2.8952  1.2719
  827MOL0     H14073   5.239   8.805  11.203 -0.0279 -1.1821  0.3718
  827MOL0     H14074   5.252   8.754  11.034  2.5345 -2.7954 -1.6394
  827MOL0     H14075   5.305   8.475  10.989  0.8980  1.3437  1.2076
  827MOL0     H14076   5.239   8.257  11.005 -2.5111  1.2523  0.6808
  827MOL0     H14077   5.168   8.190  11.155 -0.2928  2.4322  4.4703
  827MOL0     H14078   5.402   8.211  11.257 -0.3470  1.6386 -0.4776
  827MOL0     H14079   5.358   8.071  11.164  0.7591 -0.3563  3.9623
  827MOL0     H14080   5.466   8.182  10.967 -0.8378 -0.6661  0.8808
  827MOL0     H14081   5.486   8.332  11.060 -2.7461  0.9206  3.5702
  827MOL0     H14082   5.643   8.176  11.207  0.3511 -0.4504 -0.1069
  827MOL0     H14083   5.621   8.061  11.064  1.6622  0.6425 -0.9488
  827MOL0     H14084   5.839   8.415  10.886 -0.5400  0.4361  1.8635
  827MOL0     H14085   6.163   8.485  10.838 -0.1298  1.3941 -0.1664
  827MOL0     H14086   6.009   8.478  10.751 -2.6063 -3.0182  2.0990
  827MOL0     H14087   6.146   8.350  10.732  2.0993  1.6021 -0.8782
  827MOL0     H14088   6.533   8.290  11.050  1.5952  0.2614  0.2995
  827MOL0     H14089   6.762   8.199  11.090 -1.3082  1.6310  1.5352
  827MOL0     H14090   6.951   8.067  11.191 -0.5667  1.5329  1.7833
  827MOL0     H14091   6.820   8.009  11.312 -0.7846 -3.5268  0.7197
  827MOL0     H14092   6.966   7.867  11.404 -2.4858  2.6043  0.1637
  827MOL0     H14093   6.944   7.782  11.253  2.9982 -0.1445 -1.7405
  827MOL0     H14094   7.163   7.987  11.275 -1.9812  0.4920 -0.9666
  827MOL0     H14095   7.134   7.864  11.145 -0.1927  2.1996 -0.6403
  827MOL0     H14096   7.165   7.689  11.318  1.9688 -1.1798 -4.3613
  827MOL0     H14097   7.220   7.835  11.428  0.2386  0.2900  0.1189
  827MOL0     H14098   7.377   7.897  11.274  2.5589  0.1918  0.8385
  827MOL0     H14099   7.421   7.749  11.358  0.0400  2.1963  0.8182
  827MOL0     H14100   7.315   7.762  11.068 -0.9124  1.5960  1.7923
  827MOL0     H14101   7.364   7.612  11.157  0.2054 -0.1815 -0.0356
  827MOL0     H14102   7.599   7.725  11.188  1.8495  0.9098 -1.3353
  827MOL0     H14103   7.547   7.853  11.094  2.8334 -0.3275 -0.8398
  827MOL0     H14104   7.487   7.708  10.897 -0.6806  2.1204  2.0531
  827MOL0     H14105   7.559   7.575  10.991 -0.5023 -0.4377 -0.6629
  827MOL0     H14106   6.616   7.795  11.080  0.3829  0.5876  1.2599
  827MOL0     H14107   6.374   7.892  11.061 -1.3342  3.2783  1.3923
  827MOL0     H14108   6.098   8.058  11.114  2.7808  0.1120 -2.3028
  827MOL0     H14109   5.849   8.074  11.149  0.2115 -0.8439 -1.0240
  827MOL0     H14110   5.515   8.787  10.701 -0.3624 -1.4937 -1.6878
  827MOL0     H14111   5.385   8.874  10.498  0.5737 -0.8482  0.0603
  827MOL0     H14112   5.463   9.246  10.187 -1.1982  1.0563  0.7803
  827MOL0     H14113   5.353   9.391  10.011  0.4834 -0.6314 -0.3470
  827MOL0     H14114   5.073   9.182   9.708  1.3210  1.7598 -2.0062
  827MOL0     H14115   4.976   9.249   9.832  0.7201  0.5493  0.9583
  827MOL0     H14116   4.961   9.352   9.579  0.2105 -1.7519  0.1947
  827MOL0     H14117   5.140   9.385   9.614 -0.0745 -0.3859 -0.4618
  827MOL0     H14118   4.885   9.524   9.674  0.5298 -2.6694 -1.7901
  827MOL0     H14119   4.988   9.498   9.817  3.2633  0.9310 -0.2850
  827MOL0     H14120   5.174   9.616   9.717 -1.6917 -1.2096  1.9891
  827MOL0     H14121   5.041   9.733   9.717  0.2161  1.7379 -3.0407
  827MOL0     H14122   5.119   9.696   9.306 -2.0434  0.0491  0.7838
  827MOL0     H14123   5.100   9.055   9.905 -1.0471  0.3787 -0.1870
  827MOL0     H14124   5.076   8.872  10.081  0.8092 -0.3466 -0.2606
  827MOL0     H14125   5.246   8.823  10.048 -0.5118 -1.2453  0.4484
  827MOL0     H14126   5.187   8.853  10.210  0.4247  1.6877  0.6818
  828MOL0     O14127  11.127   7.866   9.574  0.8202  0.4532 -0.2938
  828MOL0     C14128  11.045   7.961   9.588 -0.8950  0.5293 -0.5712
  828MOL0     O14129  11.080   8.093   9.603  0.5151 -0.3586  0.3421
  828MOL0     C14130  11.211   8.120   9.593  0.1214  0.2879  0.3928
  828MOL0     C14131  11.260   8.140   9.466 -0.2492 -0.3453  0.2303
  828MOL0     C14132  11.395   8.156   9.440  0.6028  0.3388  0.7785
  828MOL0     C14133  11.491   8.161   9.536 -0.3335 -0.2483  0.2722
  828MOL0     O14134  11.618   8.175   9.501 -0.4611 -0.1669 -0.6075
  828MOL0     C14135  11.711   8.222   9.603  0.3469  0.3394  0.1112
  828MOL0     C14136  11.851   8.256   9.549  0.2503  0.6563  0.0796
  828MOL0     C14137  11.925   8.129   9.500  0.7454  0.6502 -0.3060
  828MOL0     C14138  12.066   8.147   9.459 -0.2912  0.2847  0.1994
  828MOL0     C14139  12.099   8.015   9.393 -0.7023 -0.0603  0.6330
  828MOL0     C14140  12.245   8.005   9.340 -0.6121 -0.2053 -0.2778
  828MOL0     C14141  12.312   8.135   9.284 -0.0735  0.2528  0.1383
  828MOL0     C14142  12.446   8.125   9.225  0.0158  0.3194 -0.8285
  828MOL0     N14143  12.540   8.088   9.329  0.5062 -0.2063  0.0901
  828MOL0     C14144  12.610   7.970   9.325  0.4141 -0.2774  0.6445
  828MOL0     C14145  12.711   7.999   9.399 -0.2120  1.5226 -0.1429
  828MOL0     C14146  12.804   7.892   9.435 -0.4371  0.1860  0.0393
  828MOL0     C14147  12.864   7.822   9.315 -0.5602 -0.0953 -0.0647
  828MOL0     C14148  12.939   7.912   9.207  0.9678  0.2343  0.3130
  828MOL0     C14149  13.065   7.963   9.272 -0.8262  0.5689  0.0567
  828MOL0     O14150  13.156   7.860   9.308  0.2161  0.2757  0.7034
  828MOL0     C14151  13.285   7.893   9.339  0.9663  1.2621 -0.2466
  828MOL0     C14152  13.372   7.786   9.373  1.0901  0.5893 -0.4239
  828MOL0     C14153  13.503   7.799   9.418  0.2384 -0.2909 -0.0132
  828MOL0     C14154  13.578   7.674   9.460  0.1201 -0.0254  0.3504
  828MOL0     C14155  13.558   7.931   9.422 -0.0827  0.4852  0.3777
  828MOL0     C14156  13.692   7.954   9.467 -0.0858  0.0701 -0.0362
  828MOL0     O14157  13.779   8.003   9.377  0.1531  0.0246 -0.6010
  828MOL0     C14158  13.899   8.047   9.423 -0.5043 -0.9592 -1.8037
  828MOL0     C14159  14.032   8.003   9.388  0.6482  0.1646  0.1257
  828MOL0     C14160  14.144   8.070   9.427 -0.8061 -0.2680 -0.1136
  828MOL0     C14161  14.148   8.169   9.526  0.6541 -0.3531 -0.5880
  828MOL0     O14162  14.260   8.238   9.568  0.0123  0.2264  0.8727
  828MOL0     C14163  14.268   8.337   9.681 -0.6511 -0.4020  0.9707
  828MOL0     C14164  14.404   8.386   9.707  0.5452 -0.3031  1.1962
  828MOL0     C14165  14.405   8.499   9.803 -0.3313  0.3764  0.5163
  828MOL0     C14166  14.557   8.520   9.834 -0.0949  0.0381  0.3137
  828MOL0     C14167  14.593   8.630   9.935 -0.2713 -0.3556  0.8152
  828MOL0     C14168  14.729   8.615   9.995 -0.6691  0.3875  0.4171
  828MOL0     C14169  14.749   8.502  10.097 -0.0155  0.0170 -0.8787
  828MOL0     C14170  14.872   8.500  10.178  0.1336 -0.9588 -1.1893
  828MOL0    Cl14171  15.010   8.510  10.081  0.4085  0.1566  0.0060
  828MOL0     C14172  14.022   8.206   9.574  0.0457 -0.2264  0.0273
  828MOL0     C14173  13.904   8.147   9.528  1.2351  0.2310 -0.0352
  828MOL0     O14174  13.712   7.943   9.589 -0.2859  0.5039  0.1567
  828MOL0     C14175  13.476   8.040   9.371 -0.1047  0.5115  0.1580
  828MOL0     C14176  13.342   8.025   9.336 -0.3304 -0.6508 -0.1576
  828MOL0     N14177  12.713   8.128   9.445 -0.5483 -0.2470 -0.1028
  828MOL0     N14178  12.606   8.180   9.403  0.1529 -0.1429  0.0682
  828MOL0     C14179  11.439   8.125   9.665  0.0225  0.4740  0.4978
  828MOL0     C14180  11.304   8.112   9.694 -0.7022  0.6175 -0.1830
  828MOL0     C14181  10.899   7.933   9.580  0.2774  0.1086  0.3481
  828MOL0     C14182  10.835   7.972   9.695  0.2981 -1.3987  0.5501
  828MOL0     C14183  10.700   7.943   9.708  0.2949 -0.2834  0.1715
  828MOL0     C14184  10.621   7.881   9.609 -0.1377  0.2290  0.2172
  828MOL0     O14185  10.489   7.871   9.627  0.9609  0.3389  0.3229
  828MOL0     C14186  10.404   7.882   9.514  0.1894 -0.3304  0.5119
  828MOL0     C14187  10.283   7.970   9.553 -0.3970 -0.1640  0.3350
  828MOL0     C14188  10.188   7.904   9.653  0.4695 -0.0826 -0.2309
  828MOL0     C14189  10.067   8.009   9.648 -0.3617 -0.0872 -0.8629
  828MOL0     C14190   9.966   7.989   9.752 -0.2250 -0.4167 -0.1721
  828MOL0     C14191   9.887   7.987   9.846 -0.7767  0.1697 -0.4751
  828MOL0     C14192  10.686   7.829   9.501  0.6434  0.4237 -0.4771
  828MOL0     C14193  10.826   7.855   9.483  0.4503 -0.6842 -0.7866
  828MOL0     C14194  10.890   7.813   9.353  0.3054 -0.3299 -1.1362
  828MOL0     H14195  11.191   8.135   9.383 -0.7928  1.1310  0.5505
  828MOL0     H14196  11.422   8.171   9.336  1.2879 -2.0412  0.5617
  828MOL0     H14197  11.728   8.138   9.671  0.8755  0.5775  0.2802
  828MOL0     H14198  11.663   8.307   9.653 -1.6115 -1.5853  1.6566
  828MOL0     H14199  11.850   8.322   9.462 -0.5250  0.9296  0.2892
  828MOL0     H14200  11.913   8.310   9.620  3.3294 -0.2452 -1.7071
  828MOL0     H14201  11.932   8.059   9.584  1.9772  1.2478  0.1256
  828MOL0     H14202  11.868   8.076   9.423 -0.3949 -2.0308  2.1995
  828MOL0     H14203  12.087   8.236   9.398  1.7640 -1.3666 -1.6486
  828MOL0     H14204  12.133   8.160   9.544  0.6188 -1.6234 -0.1728
  828MOL0     H14205  12.038   7.991   9.305  1.6451 -1.5346 -0.7118
  828MOL0     H14206  12.083   7.942   9.473 -1.5102  1.2544  1.7197
  828MOL0     H14207  12.312   7.972   9.421  0.7951  1.0344 -0.8896
  828MOL0     H14208  12.237   7.926   9.265 -0.6224 -2.5470  2.0207
  828MOL0     H14209  12.318   8.212   9.361  2.7608  0.6211 -0.3253
  828MOL0     H14210  12.249   8.177   9.205  1.5759  1.4856 -0.5733
  828MOL0     H14211  12.444   8.050   9.145  0.3394 -0.5892 -0.0101
  828MOL0     H14212  12.468   8.224   9.185 -1.0506 -0.2186 -2.9019
  828MOL0     H14213  12.591   7.884   9.261  1.1843  1.6528 -2.3928
  828MOL0     H14214  12.766   7.816   9.504  3.0091 -2.2256 -0.4810
  828MOL0     H14215  12.888   7.927   9.496  1.2453 -1.8907 -0.9815
  828MOL0     H14216  12.928   7.738   9.345 -0.5657 -1.1708 -2.7068
  828MOL0     H14217  12.780   7.777   9.262 -0.1790 -3.6141  2.0259
  828MOL0     H14218  12.963   7.849   9.121  1.4294 -1.9812  1.9841
  828MOL0     H14219  12.888   8.000   9.168  2.0993  0.5066 -0.5983
  828MOL0     H14220  13.119   8.020   9.196  1.3385 -3.2751 -1.6216
  828MOL0     H14221  13.052   8.029   9.358  0.7469  1.2494 -0.1842
  828MOL0     H14222  13.334   7.684   9.366 -0.6744  1.0449  1.3955
  828MOL0     H14223  13.671   7.691   9.516  0.1426  0.2284  0.2399
  828MOL0     H14224  13.593   7.611   9.372  1.0005  0.1258  0.3771
  828MOL0     H14225  13.508   7.617   9.521  0.2015  0.2701  0.7249
  828MOL0     H14226  14.051   7.914   9.329  0.3326 -0.1613  0.5110
  828MOL0     H14227  14.241   8.037   9.393 -1.2043 -0.2900 -1.2689
  828MOL0     H14228  14.219   8.428   9.645 -1.4651  0.7917  4.7241
  828MOL0     H14229  14.221   8.297   9.771 -0.0913  0.5555  1.7099
  828MOL0     H14230  14.463   8.298   9.736 -1.0645 -1.1232  2.1383
  828MOL0     H14231  14.444   8.424   9.613 -1.2757  3.0043  1.5940
  828MOL0     H14232  14.338   8.479   9.887  1.1290  1.6574  2.0732
  828MOL0     H14233  14.373   8.591   9.753  1.3268  0.4549 -0.4791
  828MOL0     H14234  14.610   8.557   9.746 -0.0400  1.7215  1.0105
  828MOL0     H14235  14.604   8.426   9.865  2.4933  1.3401  0.5919
  828MOL0     H14236  14.586   8.728   9.886 -3.1266  0.2488  2.2221
  828MOL0     H14237  14.511   8.644  10.006  0.8105  0.9329  1.8637
  828MOL0     H14238  14.755   8.707  10.048 -0.2872  0.7334 -0.3607
  828MOL0     H14239  14.796   8.614   9.909 -1.5074 -1.4603 -0.2809
  828MOL0     H14240  14.756   8.408  10.042 -0.3666 -1.4902  1.5364
  828MOL0     H14241  14.665   8.492  10.166  0.9698 -1.4338  0.1712
  828MOL0     H14242  14.866   8.414  10.245 -4.0858 -0.1519 -0.2564
  828MOL0     H14243  14.875   8.593  10.237  0.7693 -0.9308 -1.2610
  828MOL0     H14244  14.005   8.273   9.658 -1.5344 -0.5689  0.0121
  828MOL0     H14245  13.820   8.192   9.579  2.8821  2.5432  0.8364
  828MOL0     H14246  13.520   8.139   9.375  2.6097 -0.6351  0.5446
  828MOL0     H14247  13.277   8.105   9.302 -1.1046 -0.9547  0.5595
  828MOL0     H14248  11.507   8.110   9.748 -1.3027 -1.9253  1.2662
  828MOL0     H14249  11.287   8.090   9.799  1.5311 -0.2872  0.0389
  828MOL0     H14250  10.895   8.018   9.774  1.2930  2.5179 -2.1565
  828MOL0     H14251  10.654   7.966   9.803 -3.2117  1.0749 -1.6558
  828MOL0     H14252  10.445   7.929   9.424  0.0160  2.0378  1.5818
  828MOL0     H14253  10.361   7.783   9.494 -0.7185  0.2153 -0.3495
  828MOL0     H14254  10.240   8.004   9.458 -1.5987 -1.3611  0.4146
  828MOL0     H14255  10.331   8.056   9.600  0.2955  0.5192 -1.5164
  828MOL0     H14256  10.147   7.809   9.618  0.3395  0.3269 -1.2471
  828MOL0     H14257  10.247   7.889   9.743  0.7275  0.0458 -0.3738
  828MOL0     H14258  10.017   8.012   9.550 -2.0873 -1.1299 -0.0697
  828MOL0     H14259  10.120   8.104   9.658 -0.1034 -0.3713  0.7529
  828MOL0     H14260   9.806   7.980   9.916  0.2956  0.3416  0.8372
  828MOL0     H14261  10.632   7.766   9.431  2.1239 -2.3302  0.6487
  828MOL0     H14262  10.852   7.874   9.271  2.0377 -0.2161 -1.8937
  828MOL0     H14263  10.999   7.821   9.350  0.2636  1.0137 -0.0251
  828MOL0     H14264  10.859   7.709   9.337  0.3720 -0.7960  1.3114
  829MOL0     O14265   1.238   1.988   8.936  0.2887 -0.1230  1.1194
  829MOL0     C14266   1.181   1.968   9.041 -0.8715  0.5796  0.4676
  829MOL0     O14267   1.234   2.004   9.162 -0.2850  0.6197 -0.2126
  829MOL0     C14268   1.349   2.083   9.170  0.3008 -0.2050  0.1601
  829MOL0     C14269   1.341   2.190   9.265  0.7001  0.1871  0.2862
  829MOL0     C14270   1.459   2.256   9.298 -1.1278 -0.3254 -0.1619
  829MOL0     C14271   1.584   2.230   9.235 -0.3776 -0.0900 -0.7716
  829MOL0     O14272   1.688   2.307   9.268  0.6078  0.2194 -0.5290
  829MOL0     C14273   1.724   2.324   9.407 -0.1587 -0.6222 -0.2261
  829MOL0     C14274   1.872   2.297   9.413  0.4756  0.2557 -0.3277
  829MOL0     C14275   1.948   2.349   9.536  0.7919 -0.5266  0.4699
  829MOL0     C14276   1.904   2.301   9.671 -0.2751  1.2940  0.3096
  829MOL0     C14277   1.985   2.362   9.782  0.9108  0.1407  0.3201
  829MOL0     C14278   1.940   2.300   9.913  1.0188  0.2642 -0.2245
  829MOL0     C14279   2.019   2.357  10.026 -0.3182 -0.2304  0.1843
  829MOL0     C14280   1.984   2.305  10.172  0.6465  0.1463  0.7416
  829MOL0     N14281   2.093   2.345  10.260 -0.9511  0.0465 -1.0412
  829MOL0     C14282   2.077   2.446  10.360 -0.0322 -0.6109  0.0334
  829MOL0     C14283   2.200   2.492  10.388  0.2256 -0.6985  0.8044
  829MOL0     C14284   2.235   2.602  10.488 -0.1403 -0.7102  0.4510
  829MOL0     C14285   2.389   2.632  10.482 -0.3962  0.2878  0.3349
  829MOL0     C14286   2.420   2.726  10.366  0.4403  0.8456 -0.1285
  829MOL0     C14287   2.555   2.794  10.378  0.4748  0.1880 -0.1752
  829MOL0     O14288   2.578   2.888  10.484  0.7893  0.2762  0.2746
  829MOL0     C14289   2.569   3.022  10.453 -0.4049  0.0870 -0.3777
  829MOL0     C14290   2.512   3.075  10.335  0.1861 -0.0146  0.2121
  829MOL0     C14291   2.507   3.211  10.311 -0.4281 -1.0010 -0.3044
  829MOL0     C14292   2.430   3.270  10.194 -0.4127  0.3492 -0.6516
  829MOL0     C14293   2.561   3.292  10.410  0.3736  0.3404 -0.2006
  829MOL0     C14294   2.545   3.438  10.410 -0.3847  0.0089  1.2323
  829MOL0     O14295   2.653   3.487  10.342 -0.6165 -0.3965 -0.4882
  829MOL0     C14296   2.663   3.623  10.365 -0.9129 -0.0257 -0.2784
  829MOL0     C14297   2.587   3.714  10.282 -0.2171 -0.2702 -0.1246
  829MOL0     C14298   2.605   3.847  10.306 -0.2833 -1.4935 -0.7245
  829MOL0     C14299   2.684   3.900  10.405 -0.1005 -0.2972  0.3910
  829MOL0     O14300   2.718   4.033  10.393  0.6180 -0.2711  0.0615
  829MOL0     C14301   2.833   4.078  10.463  0.1767  0.6919  0.4969
  829MOL0     C14302   2.866   4.228  10.457 -0.1037  0.6149 -0.0610
  829MOL0     C14303   2.945   4.261  10.329  0.8308 -0.0411  0.3753
  829MOL0     C14304   3.097   4.219  10.344 -0.1021  0.3502  0.0345
  829MOL0     C14305   3.181   4.340  10.375  0.3062  0.4681 -0.3159
  829MOL0     C14306   3.331   4.313  10.378 -0.9303  0.1058  0.0966
  829MOL0     C14307   3.396   4.452  10.393 -0.2309  0.7221 -0.0342
  829MOL0     C14308   3.537   4.432  10.447 -0.3099  0.1480 -1.1093
  829MOL0    Cl14309   3.629   4.587  10.460 -0.4409  0.4155 -0.3679
  829MOL0     C14310   2.753   3.808  10.483  0.1950 -0.7103  0.4105
  829MOL0     C14311   2.744   3.671  10.470  0.5613 -0.1869 -0.0971
  829MOL0     O14312   2.442   3.496  10.442 -0.1030 -0.6316 -0.2917
  829MOL0     C14313   2.634   3.243  10.517  0.2047 -0.0486  0.0367
  829MOL0     C14314   2.630   3.103  10.544  0.1016  0.5305  0.5458
  829MOL0     N14315   2.287   2.411  10.315 -0.5034 -0.2604 -0.3516
  829MOL0     N14316   2.227   2.330  10.238 -0.1017 -0.3782  0.7079
  829MOL0     C14317   1.585   2.128   9.136 -0.5992 -0.5811  0.0079
  829MOL0     C14318   1.471   2.053   9.105 -0.4036 -0.2923  0.1584
  829MOL0     C14319   1.029   1.956   9.047 -0.4591 -0.1457 -0.7602
  829MOL0     C14320   0.957   2.029   9.152 -0.3291 -0.2792 -0.1191
  829MOL0     C14321   0.815   2.027   9.153 -1.0112 -0.1380 -0.1564
  829MOL0     C14322   0.749   1.966   9.055  0.0277  0.0779  0.9491
  829MOL0     O14323   0.607   1.986   9.045 -0.4187 -0.3547  0.1243
  829MOL0     C14324   0.563   2.004   8.906  0.1742  0.1620 -1.2623
  829MOL0     C14325   0.428   2.064   8.907 -0.3755  0.4660  0.1914
  829MOL0     C14326   0.408   2.211   8.936 -1.1127  0.1617  0.5043
  829MOL0     C14327   0.268   2.264   8.902 -0.5763 -0.4551 -0.7233
  829MOL0     C14328   0.275   2.412   8.927  0.1913 -0.0656  0.6108
  829MOL0     C14329   0.262   2.530   8.957 -0.5347 -0.3321  0.0964
  829MOL0     C14330   0.817   1.882   8.964 -0.6774  0.1042  0.0485
  829MOL0     C14331   0.957   1.877   8.959 -0.0559  1.0045  0.7042
  829MOL0     C14332   1.020   1.790   8.857  0.4270  0.1146  0.3514
  829MOL0     H14333   1.252   2.205   9.325 -0.7593 -0.5016 -1.5811
  829MOL0     H14334   1.471   2.335   9.372  2.3575 -1.5660  0.8081
  829MOL0     H14335   1.666   2.267   9.480 -2.0645  2.1943  0.6223
  829MOL0     H14336   1.710   2.431   9.426 -1.1230 -0.6376 -0.7988
  829MOL0     H14337   1.894   2.190   9.417  1.8845  0.5473  0.5479
  829MOL0     H14338   1.921   2.344   9.326  0.7212 -1.1229 -0.9553
  829MOL0     H14339   2.056   2.332   9.533  1.4140  2.8325 -1.0773
  829MOL0     H14340   1.937   2.458   9.544  2.7940 -0.4126  3.0678
  829MOL0     H14341   1.799   2.328   9.685  0.1850  1.7539  3.4855
  829MOL0     H14342   1.902   2.192   9.664  1.1468  1.3425 -4.1670
  829MOL0     H14343   1.959   2.469   9.783  2.7745  0.6405  0.1064
  829MOL0     H14344   2.091   2.347   9.758  1.2216 -1.1499  2.2581
  829MOL0     H14345   1.832   2.316   9.923  0.5617 -2.0741 -0.9050
  829MOL0     H14346   1.934   2.191   9.916  1.7255  0.1819 -1.2619
  829MOL0     H14347   2.005   2.465  10.034  2.4708  0.2107  0.1643
  829MOL0     H14348   2.124   2.340  10.000 -0.4951 -1.3675  0.1468
  829MOL0     H14349   1.892   2.356  10.205 -0.8990 -0.8449 -1.7560
  829MOL0     H14350   1.987   2.196  10.163 -0.9161  0.1973 -1.1875
  829MOL0     H14351   1.985   2.498  10.383  1.2381  2.1995 -0.8013
  829MOL0     H14352   2.226   2.562  10.589  0.5496 -1.2574  0.3023
  829MOL0     H14353   2.159   2.680  10.495 -0.5655 -1.1023  0.2147
  829MOL0     H14354   2.419   2.671  10.580  2.5056  0.2845 -0.4764
  829MOL0     H14355   2.443   2.536  10.481 -0.9821 -0.1102 -2.9317
  829MOL0     H14356   2.431   2.660  10.279  2.8674 -0.5545  1.1420
  829MOL0     H14357   2.342   2.802  10.350 -1.4436 -1.0298 -0.2967
  829MOL0     H14358   2.614   2.711  10.416 -1.3949 -0.5320  1.3441
  829MOL0     H14359   2.604   2.827  10.286  2.5514 -0.6512  0.5863
  829MOL0     H14360   2.472   3.010  10.258 -2.2009  2.7043 -1.0302
  829MOL0     H14361   2.431   3.197  10.112 -2.2785  2.1600 -2.4023
  829MOL0     H14362   2.466   3.366  10.156  1.0358 -0.5413 -1.6375
  829MOL0     H14363   2.326   3.278  10.227  0.1439 -0.2548  1.4397
  829MOL0     H14364   2.526   3.682  10.198 -1.1927  1.4782 -0.1427
  829MOL0     H14365   2.558   3.922  10.243 -0.0034 -1.3776 -0.7941
  829MOL0     H14366   2.819   4.062  10.571  2.4645  2.5423  1.1575
  829MOL0     H14367   2.921   4.020  10.432  0.1235 -0.2975  2.0468
  829MOL0     H14368   2.770   4.281  10.455 -1.3233 -1.5059 -1.5332
  829MOL0     H14369   2.922   4.269  10.542 -1.3809 -0.6369  1.4358
  829MOL0     H14370   2.920   4.364  10.303 -0.8689 -0.5728 -0.2007
  829MOL0     H14371   2.897   4.197  10.254  0.4925  1.5233 -0.7926
  829MOL0     H14372   3.135   4.186  10.248  2.7662 -1.5820  1.6932
  829MOL0     H14373   3.124   4.146  10.421  1.1919  1.2124  0.4294
  829MOL0     H14374   3.158   4.407  10.291  1.9116 -0.3824 -1.5043
  829MOL0     H14375   3.143   4.385  10.467 -0.3838 -1.8080  0.5634
  829MOL0     H14376   3.366   4.265  10.286  3.7259  2.9018  0.0899
  829MOL0     H14377   3.352   4.252  10.466  1.0554  1.2998  0.5094
  829MOL0     H14378   3.327   4.509  10.456 -2.5353 -0.0401 -1.7334
  829MOL0     H14379   3.403   4.486  10.290  2.3290 -1.3586 -0.6555
  829MOL0     H14380   3.588   4.358  10.384  2.6673  0.3759  0.8070
  829MOL0     H14381   3.529   4.384  10.545  1.0759 -0.6251 -1.3405
  829MOL0     H14382   2.824   3.830  10.563  1.3926 -1.0074 -0.5375
  829MOL0     H14383   2.804   3.600  10.526 -0.0016  0.0462  0.8100
  829MOL0     H14384   2.682   3.316  10.582  1.1384 -0.4166 -0.2215
  829MOL0     H14385   2.682   3.055  10.626  0.7279  0.7049  0.2621
  829MOL0     H14386   1.675   2.098   9.083 -0.4147  0.6251 -0.3836
  829MOL0     H14387   1.486   1.970   9.036 -1.7905  0.3450 -0.9692
  829MOL0     H14388   1.013   2.097   9.215 -2.5135  2.2610 -0.7272
  829MOL0     H14389   0.770   2.087   9.231  1.5402 -0.2740  1.5387
  829MOL0     H14390   0.635   2.056   8.843  2.2480  1.9989  2.3397
  829MOL0     H14391   0.540   1.902   8.874 -1.7303  0.3905 -0.7349
  829MOL0     H14392   0.362   2.018   8.980  4.1902 -2.2592  3.0528
  829MOL0     H14393   0.388   2.045   8.807 -1.2725 -3.0195  1.0919
  829MOL0     H14394   0.426   2.220   9.043 -0.7814  0.8845  0.3931
  829MOL0     H14395   0.477   2.266   8.871 -1.8769 -0.8436 -1.2256
  829MOL0     H14396   0.205   2.217   8.978 -0.4744  3.6275  2.2289
  829MOL0     H14397   0.252   2.238   8.797  2.8071 -3.6695 -0.6466
  829MOL0     H14398   0.254   2.630   8.995 -0.8890 -0.3318  0.0238
  829MOL0     H14399   0.756   1.845   8.882  2.0139  3.6372 -3.9931
  829MOL0     H14400   1.030   1.842   8.762  1.9237  1.1188  1.0265
  829MOL0     H14401   1.122   1.771   8.891  1.3290  1.9805 -1.1525
  829MOL0     H14402   0.965   1.695   8.865 -0.7168  0.8418  1.6959
  830MOL0     O14403   7.719   4.813   3.347 -0.6386  0.0507  0.3714
  830MOL0     C14404   7.681   4.776   3.237  0.1169  1.2552  0.2427
  830MOL0     O14405   7.754   4.778   3.122  0.0177 -0.1907 -0.1100
  830MOL0     C14406   7.860   4.858   3.115 -0.6280  0.0542 -0.0297
  830MOL0     C14407   7.861   4.993   3.073  0.1010  0.0748 -0.5912
  830MOL0     C14408   7.974   5.071   3.067 -0.5377 -0.1718 -1.2598
  830MOL0     C14409   8.097   5.019   3.104  0.3092  0.2423  0.6997
  830MOL0     O14410   8.206   5.102   3.099  0.3719 -0.3461  0.4454
  830MOL0     C14411   8.333   5.055   3.132 -0.0492 -0.4872 -0.2853
  830MOL0     C14412   8.443   5.169   3.129 -0.1984  0.1966  0.3100
  830MOL0     C14413   8.586   5.122   3.169 -0.4535  1.3670  0.3042
  830MOL0     C14414   8.633   5.006   3.082 -0.1729 -0.0527 -0.2931
  830MOL0     C14415   8.639   5.031   2.931 -0.1331 -0.5895 -1.0004
  830MOL0     C14416   8.765   5.110   2.898  0.5600  0.7853 -0.4808
  830MOL0     C14417   8.801   5.149   2.762  0.8876 -0.2094 -0.6706
  830MOL0     C14418   8.692   5.247   2.699  0.2617 -0.4187 -1.0381
  830MOL0     N14419   8.678   5.371   2.772  0.2360  0.9654 -0.5200
  830MOL0     C14420   8.567   5.405   2.842  0.3901  0.0225 -0.1992
  830MOL0     C14421   8.597   5.522   2.893  0.2230  0.5539  0.1866
  830MOL0     C14422   8.514   5.612   2.983  0.0044  0.0908 -0.8308
  830MOL0     C14423   8.445   5.536   3.101  0.0270  0.6221  0.2269
  830MOL0     C14424   8.372   5.624   3.207  0.8429 -0.0944  0.5627
  830MOL0     C14425   8.286   5.736   3.145  0.9824  0.9202  0.8025
  830MOL0     O14426   8.189   5.684   3.045 -0.3541 -0.5928 -0.3590
  830MOL0     C14427   8.068   5.627   3.088  0.5526  0.1734 -0.7973
  830MOL0     C14428   8.020   5.612   3.221 -0.3461 -0.9885  0.5250
  830MOL0     C14429   7.918   5.527   3.254 -0.0810  0.0610 -0.5687
  830MOL0     C14430   7.903   5.499   3.401  0.3257 -0.0211 -0.0416
  830MOL0     C14431   7.846   5.465   3.155 -1.0033  0.2753  0.3694
  830MOL0     C14432   7.725   5.375   3.172 -0.0913 -0.0984 -0.6065
  830MOL0     O14433   7.670   5.375   3.292  0.1147 -0.7381  0.1573
  830MOL0     C14434   7.568   5.287   3.311 -0.0466  0.3033 -0.5948
  830MOL0     C14435   7.587   5.153   3.348  0.5473 -0.4403 -1.0633
  830MOL0     C14436   7.476   5.069   3.371  0.1529  0.6879  0.0215
  830MOL0     C14437   7.348   5.120   3.360 -1.4155 -0.8114 -0.5256
  830MOL0     O14438   7.246   5.050   3.409 -0.1927 -0.2661  0.5357
  830MOL0     C14439   7.185   4.954   3.321 -0.2531  0.5592  0.2849
  830MOL0     C14440   7.039   4.991   3.316 -0.1093  1.0507 -0.0078
  830MOL0     C14441   6.974   4.922   3.203 -0.2992  0.8288  0.1150
  830MOL0     C14442   6.826   4.946   3.203 -0.5328 -1.1474 -0.2718
  830MOL0     C14443   6.751   4.821   3.243 -0.3150  0.2847 -0.3186
  830MOL0     C14444   6.617   4.862   3.295  0.5875  0.0062  0.4427
  830MOL0     C14445   6.545   4.734   3.341  0.6577  0.7938 -0.0599
  830MOL0     C14446   6.395   4.741   3.374 -0.1978 -0.0121  0.1954
  830MOL0    Cl14447   6.372   4.773   3.543 -0.1871 -0.3848 -0.1752
  830MOL0     C14448   7.321   5.253   3.313 -0.1212  1.4977 -0.0664
  830MOL0     C14449   7.433   5.330   3.291  0.0455  0.4316 -0.1119
  830MOL0     O14450   7.690   5.296   3.082 -0.5197  0.4489 -0.0770
  830MOL0     C14451   7.880   5.495   3.024  0.5250  0.2761  0.0523
  830MOL0     C14452   7.993   5.564   2.987 -0.2929  0.7045 -1.0200
  830MOL0     N14453   8.728   5.551   2.866 -0.2749  0.0112  0.8767
  830MOL0     N14454   8.771   5.462   2.787 -0.1736 -0.4102 -0.0759
  830MOL0     C14455   8.104   4.888   3.145 -0.1001 -1.3356  0.1801
  830MOL0     C14456   7.983   4.808   3.151 -0.4684 -0.2433  0.1771
  830MOL0     C14457   7.544   4.714   3.236 -0.0469  0.6489  0.3720
  830MOL0     C14458   7.453   4.760   3.140 -0.2245 -0.5393 -0.4871
  830MOL0     C14459   7.331   4.700   3.136  0.3713 -0.4181 -0.7584
  830MOL0     C14460   7.298   4.590   3.215  0.2011  0.3141 -0.1409
  830MOL0     O14461   7.168   4.543   3.203  0.2731  0.0452 -0.3707
  830MOL0     C14462   7.124   4.428   3.274  0.4285  0.2167  0.1095
  830MOL0     C14463   6.976   4.452   3.282  0.4271 -0.1144  0.1016
  830MOL0     C14464   6.908   4.335   3.354  0.8881 -1.5005  0.5271
  830MOL0     C14465   6.750   4.341   3.368 -0.7767 -0.4892  0.1979
  830MOL0     C14466   6.691   4.317   3.235 -0.3587 -0.2002  0.0829
  830MOL0     C14467   6.649   4.300   3.125  0.3480  0.6523 -0.0512
  830MOL0     C14468   7.395   4.528   3.292  0.3129 -0.0278  0.6241
  830MOL0     C14469   7.512   4.606   3.312  0.0997 -0.1852  0.6324
  830MOL0     C14470   7.603   4.563   3.434  0.7652 -0.4537 -0.0985
  830MOL0     H14471   7.765   5.030   3.038  0.8768  1.1354 -1.6633
  830MOL0     H14472   7.968   5.170   3.023 -0.3307 -0.1457 -1.2284
  830MOL0     H14473   8.350   4.972   3.062 -0.9405 -1.2877  0.4107
  830MOL0     H14474   8.331   5.011   3.232 -4.4579 -0.6084 -0.2189
  830MOL0     H14475   8.428   5.227   3.038  0.0068  0.6922  0.5842
  830MOL0     H14476   8.421   5.239   3.210 -3.1088 -1.9471  1.5560
  830MOL0     H14477   8.655   5.204   3.146 -1.1030  0.8696 -4.4020
  830MOL0     H14478   8.588   5.083   3.271  1.1580 -0.1196 -0.2469
  830MOL0     H14479   8.731   4.979   3.124 -0.1411  2.0353  1.1724
  830MOL0     H14480   8.575   4.916   3.104  1.9180 -1.2817  0.5101
  830MOL0     H14481   8.554   5.093   2.901  0.9291  1.2819 -0.3357
  830MOL0     H14482   8.641   4.935   2.878 -0.7680 -0.7776 -0.6970
  830MOL0     H14483   8.776   5.197   2.964 -1.2052 -1.2109  2.6852
  830MOL0     H14484   8.847   5.043   2.924 -0.4579  0.1021  1.1447
  830MOL0     H14485   8.823   5.058   2.705  1.7220 -1.4442  1.5000
  830MOL0     H14486   8.897   5.200   2.765  0.7147  0.0746  0.7575
  830MOL0     H14487   8.723   5.263   2.595 -0.0786  1.5395 -0.8650
  830MOL0     H14488   8.601   5.188   2.713  0.8779 -0.7356  2.8481
  830MOL0     H14489   8.480   5.342   2.860  1.5744 -1.0104  2.3437
  830MOL0     H14490   8.442   5.664   2.918 -0.0513  0.9012 -0.1386
  830MOL0     H14491   8.577   5.694   3.019 -1.0295 -0.8198  3.7419
  830MOL0     H14492   8.359   5.481   3.063  1.7179 -0.1628 -2.7585
  830MOL0     H14493   8.515   5.466   3.147  1.0093  0.8776 -0.8449
  830MOL0     H14494   8.298   5.563   3.260  1.4303 -0.1845  1.3018
  830MOL0     H14495   8.435   5.657   3.290 -0.2527  0.0044  1.3824
  830MOL0     H14496   8.229   5.792   3.220 -2.7448 -0.0936 -1.0270
  830MOL0     H14497   8.349   5.795   3.078  0.2000  0.6596 -0.1996
  830MOL0     H14498   8.075   5.666   3.297 -2.4724  2.3138 -0.0471
  830MOL0     H14499   7.864   5.592   3.441 -2.2850 -0.5423 -1.1770
  830MOL0     H14500   7.997   5.490   3.457  0.1690  0.4861  0.3066
  830MOL0     H14501   7.839   5.413   3.423 -0.8904  0.5858 -1.1149
  830MOL0     H14502   7.689   5.115   3.357  0.6845  0.3200  1.2663
  830MOL0     H14503   7.489   4.973   3.420  3.5607  0.5611 -0.8369
  830MOL0     H14504   7.230   4.947   3.221  0.4994  1.6088  0.5341
  830MOL0     H14505   7.188   4.852   3.361 -5.7734  0.2324  0.6880
  830MOL0     H14506   6.989   4.962   3.409 -0.5919 -1.6470 -1.0342
  830MOL0     H14507   7.034   5.100   3.310 -2.2083  1.0894  1.2894
  830MOL0     H14508   6.996   4.816   3.216  1.4728  1.1324 -0.0739
  830MOL0     H14509   7.024   4.960   3.114  0.8223 -0.8229  0.0013
  830MOL0     H14510   6.790   4.988   3.108  0.1690 -0.1407 -0.1005
  830MOL0     H14511   6.796   5.023   3.274 -1.3893 -0.4928 -1.3096
  830MOL0     H14512   6.745   4.763   3.150 -0.3812  0.0193 -0.1469
  830MOL0     H14513   6.801   4.764   3.321 -0.5289  0.3589 -0.1271
  830MOL0     H14514   6.560   4.909   3.215 -2.1726 -1.7983  1.2236
  830MOL0     H14515   6.614   4.932   3.379  1.2435  2.0191 -1.1140
  830MOL0     H14516   6.592   4.672   3.418 -0.3386 -1.9357 -1.4990
  830MOL0     H14517   6.550   4.662   3.258 -1.3721 -0.3579  0.7429
  830MOL0     H14518   6.348   4.647   3.341  2.7901 -0.0278 -5.2646
  830MOL0     H14519   6.347   4.812   3.306 -0.1962 -1.3210 -1.2388
  830MOL0     H14520   7.221   5.294   3.302 -0.7634 -0.3225 -1.7893
  830MOL0     H14521   7.405   5.430   3.260 -2.1371  0.0667  0.5180
  830MOL0     H14522   7.836   5.447   2.937  2.7175 -1.1013 -0.4000
  830MOL0     H14523   8.025   5.580   2.885 -0.9002  2.4475 -0.9768
  830MOL0     H14524   8.203   4.860   3.178  0.5246  0.2380 -0.2847
  830MOL0     H14525   7.980   4.705   3.185  0.2690 -1.4889 -3.0875
  830MOL0     H14526   7.475   4.849   3.081 -1.8713  1.0286  1.1362
  830MOL0     H14527   7.255   4.728   3.063  0.0260 -0.7629 -0.5378
  830MOL0     H14528   7.150   4.329   3.234 -2.8142 -1.4000  1.5605
  830MOL0     H14529   7.160   4.414   3.376 -2.0269 -1.7318  0.8086
  830MOL0     H14530   6.934   4.465   3.181  0.6438  2.4663  0.2782
  830MOL0     H14531   6.947   4.536   3.345 -0.8010 -2.1180  2.3896
  830MOL0     H14532   6.940   4.243   3.304  1.8722 -0.2765 -1.2157
  830MOL0     H14533   6.943   4.326   3.457 -2.0934 -0.1172  1.7715
  830MOL0     H14534   6.717   4.439   3.403  0.1056 -0.8855  2.2374
  830MOL0     H14535   6.720   4.258   3.432 -2.0264 -0.0438  0.2265
  830MOL0     H14536   6.602   4.271   3.033 -0.9499  2.0798  0.1131
  830MOL0     H14537   7.358   4.454   3.363 -0.4938  0.8930  1.1907
  830MOL0     H14538   7.703   4.522   3.413 -0.0197 -1.7499 -1.4863
  830MOL0     H14539   7.612   4.642   3.509  2.5838 -2.1158  1.5515
  830MOL0     H14540   7.557   4.473   3.476  2.7946 -1.7651 -0.4992
  831MOL0     O14541   2.757   4.776   0.484 -0.1431 -0.4348  0.6255
  831MOL0     C14542   2.786   4.659   0.498  0.5555 -0.1943 -0.3303
  831MOL0     O14543   2.901   4.604   0.462 -0.2300 -0.1412  0.6855
  831MOL0     C14544   3.004   4.678   0.408 -0.5172 -0.4121 -0.4291
  831MOL0     C14545   3.136   4.648   0.466  0.1843  0.4539 -0.1855
  831MOL0     C14546   3.248   4.723   0.433  0.2391 -0.0957  0.3050
  831MOL0     C14547   3.238   4.825   0.331  0.4297 -0.0992  0.2467
  831MOL0     O14548   3.337   4.903   0.291 -0.0317 -0.3760 -0.6557
  831MOL0     C14549   3.382   5.001   0.390  0.1202 -0.1631 -0.3063
  831MOL0     C14550   3.532   5.007   0.376  0.5718  0.0713 -0.6446
  831MOL0     C14551   3.575   5.058   0.241  0.0377  0.0460  0.3555
  831MOL0     C14552   3.719   5.027   0.196  0.1460  0.9007 -0.2119
  831MOL0     C14553   3.827   5.113   0.270  0.5836 -0.2591  0.0576
  831MOL0     C14554   3.833   5.268   0.239  0.7970  0.5742  0.1421
  831MOL0     C14555   3.967   5.316   0.302 -0.4242 -0.2118 -0.2366
  831MOL0     C14556   4.000   5.449   0.242 -0.8715 -0.5757 -0.5857
  831MOL0     N14557   4.109   5.519   0.310 -0.3674  0.4183  1.1699
  831MOL0     C14558   4.116   5.655   0.326 -0.3907  1.3443 -0.2150
  831MOL0     C14559   4.244   5.669   0.365  0.4087 -0.7798 -0.4641
  831MOL0     C14560   4.330   5.800   0.386  0.3606  0.1413  0.6561
  831MOL0     C14561   4.412   5.836   0.264  1.3536  0.5184  0.0171
  831MOL0     C14562   4.458   5.981   0.272  1.0560  0.3553  0.5728
  831MOL0     C14563   4.569   5.992   0.366 -0.7524  0.0651 -0.3798
  831MOL0     O14564   4.635   6.127   0.353  0.2111  0.3230 -0.9340
  831MOL0     C14565   4.763   6.148   0.394 -0.7768  0.6118  0.0466
  831MOL0     C14566   4.810   6.272   0.376  0.8156  0.7151 -0.0293
  831MOL0     C14567   4.934   6.319   0.418 -0.2587  0.9875  0.1870
  831MOL0     C14568   4.947   6.470   0.422  0.1160  0.1643 -0.1448
  831MOL0     C14569   5.022   6.219   0.460  0.5076 -0.4350 -0.0583
  831MOL0     C14570   5.169   6.255   0.505  1.4394  1.2701  0.2238
  831MOL0     O14571   5.230   6.158   0.574  0.4842  0.0149  0.2564
  831MOL0     C14572   5.334   6.195   0.655  0.4527  0.7547 -0.3440
  831MOL0     C14573   5.349   6.328   0.712 -0.7336  0.0851 -0.1571
  831MOL0     C14574   5.444   6.350   0.806  0.0699 -0.1592 -0.0008
  831MOL0     C14575   5.527   6.250   0.852  0.5687  0.0658 -0.6939
  831MOL0     O14576   5.617   6.290   0.945 -0.1655  0.0330 -0.3503
  831MOL0     C14577   5.700   6.198   1.019  0.8493 -0.0036  0.0872
  831MOL0     C14578   5.823   6.140   0.935  0.2610 -0.2362 -0.0338
  831MOL0     C14579   5.922   6.254   0.879  0.7069 -0.5649  0.5514
  831MOL0     C14580   6.028   6.185   0.787 -0.4374 -0.8402 -0.0030
  831MOL0     C14581   6.124   6.293   0.730  0.8082  0.6947 -0.9004
  831MOL0     C14582   6.201   6.258   0.601  0.6661  0.4296 -0.2325
  831MOL0     C14583   6.300   6.369   0.564 -0.0365 -0.2028 -0.2031
  831MOL0     C14584   6.339   6.357   0.416  0.7267  0.1157  0.0966
  831MOL0    Cl14585   6.462   6.489   0.395  0.2141 -0.1862  0.5086
  831MOL0     C14586   5.505   6.117   0.805 -0.5015  0.2794 -0.6193
  831MOL0     C14587   5.413   6.092   0.707 -0.4225 -0.6474 -0.5203
  831MOL0     O14588   5.224   6.348   0.453  0.4014 -0.5647 -0.0609
  831MOL0     C14589   4.981   6.083   0.468  0.0555  1.2834  0.0888
  831MOL0     C14590   4.850   6.053   0.442  0.4086  0.5424 -0.2003
  831MOL0     N14591   4.311   5.549   0.378 -1.3907 -0.2487 -0.2560
  831MOL0     N14592   4.224   5.455   0.349 -1.0848  0.1678  0.3691
  831MOL0     C14593   3.105   4.849   0.284 -0.1444 -0.2093  0.1234
  831MOL0     C14594   2.993   4.779   0.320  0.0965  0.3542  0.4213
  831MOL0     C14595   2.691   4.583   0.567 -0.5652  0.5351  0.2121
  831MOL0     C14596   2.731   4.451   0.590 -0.6571  0.2679  0.1088
  831MOL0     C14597   2.645   4.359   0.642  0.1765  0.3436 -0.2426
  831MOL0     C14598   2.526   4.394   0.702 -0.0960 -0.8298 -0.7687
  831MOL0     O14599   2.448   4.290   0.743 -0.2693 -0.8326  0.0561
  831MOL0     C14600   2.311   4.316   0.770 -1.0140 -0.5439 -0.1438
  831MOL0     C14601   2.229   4.186   0.810  0.7675  0.0181  0.9487
  831MOL0     C14602   2.082   4.212   0.785  0.0065  0.2011 -0.3140
  831MOL0     C14603   1.986   4.083   0.781  0.1102 -0.3622  0.0544
  831MOL0     C14604   1.978   4.013   0.915  0.4583  0.6417 -0.2698
  831MOL0     C14605   1.981   3.960   1.031 -0.1901 -0.0159  0.0924
  831MOL0     C14606   2.494   4.530   0.700  1.0134  0.5867 -0.4854
  831MOL0     C14607   2.570   4.622   0.631  0.5991  0.5890 -0.0788
  831MOL0     C14608   2.532   4.769   0.656 -0.6517  0.3588 -0.0964
  831MOL0     H14609   3.139   4.570   0.541  1.2752  3.6192  3.3843
  831MOL0     H14610   3.348   4.711   0.473  1.3299 -1.0870 -2.4377
  831MOL0     H14611   3.345   4.967   0.487  1.3481 -2.4113 -0.5696
  831MOL0     H14612   3.352   5.105   0.373  1.6171  0.7848  2.2266
  831MOL0     H14613   3.572   5.076   0.451 -0.9265 -0.9077  1.1265
  831MOL0     H14614   3.573   4.909   0.400  1.5073  1.2030  3.0169
  831MOL0     H14615   3.515   5.012   0.162 -0.5469  0.8930  0.2975
  831MOL0     H14616   3.560   5.165   0.226 -0.0756  0.2556  1.8892
  831MOL0     H14617   3.735   4.922   0.220  2.1663  1.4870  1.3244
  831MOL0     H14618   3.741   5.043   0.090  2.1352  0.8817  0.1453
  831MOL0     H14619   3.929   5.076   0.251  0.2702 -1.4997  0.7397
  831MOL0     H14620   3.802   5.105   0.376 -3.3106  0.0825 -0.6994
  831MOL0     H14621   3.836   5.289   0.132  1.9917  1.9366  0.4142
  831MOL0     H14622   3.752   5.325   0.286  1.3272  0.9330  0.6302
  831MOL0     H14623   4.055   5.255   0.278  0.5703  1.8654 -2.3165
  831MOL0     H14624   3.946   5.323   0.409 -0.0275  0.4785 -0.2003
  831MOL0     H14625   4.028   5.434   0.138 -0.4420  1.3176 -0.7826
  831MOL0     H14626   3.903   5.498   0.254  0.1759  1.4521  0.0867
  831MOL0     H14627   4.040   5.730   0.303 -1.1777  1.5644  2.7524
  831MOL0     H14628   4.403   5.786   0.466 -0.1571 -2.2100  0.8070
  831MOL0     H14629   4.269   5.886   0.415 -0.2977  1.3370 -3.5115
  831MOL0     H14630   4.492   5.763   0.252  1.4112  0.1539  2.2206
  831MOL0     H14631   4.346   5.839   0.177  0.2943  2.6171  0.8136
  831MOL0     H14632   4.488   6.003   0.169  3.6994  1.5875  1.5144
  831MOL0     H14633   4.370   6.041   0.298 -0.7427 -0.5188 -2.7888
  831MOL0     H14634   4.545   5.970   0.470  1.5890 -1.5407 -0.0943
  831MOL0     H14635   4.646   5.921   0.333 -0.7924 -0.6929  1.0803
  831MOL0     H14636   4.721   6.326   0.344 -0.2677 -0.1861  1.3286
  831MOL0     H14637   4.845   6.509   0.422 -0.1593 -0.5289  0.5452
  831MOL0     H14638   5.001   6.512   0.337  1.4017 -2.1401 -0.5300
  831MOL0     H14639   4.994   6.493   0.519  0.6548 -0.9142 -0.1339
  831MOL0     H14640   5.304   6.418   0.670  2.6355  1.8544 -0.3532
  831MOL0     H14641   5.447   6.450   0.849 -0.1401  0.7532 -1.9859
  831MOL0     H14642   5.743   6.244   1.108  0.3084 -0.7139  0.7316
  831MOL0     H14643   5.644   6.111   1.055  2.6646 -2.1017 -1.8643
  831MOL0     H14644   5.870   6.070   1.003 -1.8949 -2.8304 -1.0290
  831MOL0     H14645   5.788   6.087   0.846 -0.6266  0.1373  0.0729
  831MOL0     H14646   5.982   6.293   0.963 -0.3836 -1.0766  1.5951
  831MOL0     H14647   5.868   6.327   0.818  0.3314 -2.5007 -1.5553
  831MOL0     H14648   5.979   6.137   0.701 -4.3141  1.1420  0.8458
  831MOL0     H14649   6.070   6.103   0.845 -1.0948  1.5153  4.2133
  831MOL0     H14650   6.067   6.386   0.724 -0.2091  0.2290  0.8732
  831MOL0     H14651   6.202   6.309   0.805  0.4008  1.4717 -0.6349
  831MOL0     H14652   6.134   6.246   0.515  0.7794  1.8962 -0.5565
  831MOL0     H14653   6.261   6.169   0.619  3.0632  1.4872 -2.3825
  831MOL0     H14654   6.391   6.362   0.625  1.3292 -2.5109 -2.3129
  831MOL0     H14655   6.246   6.464   0.564 -1.6516 -1.0840 -0.8248
  831MOL0     H14656   6.261   6.364   0.339  2.3853 -0.6965 -1.7493
  831MOL0     H14657   6.387   6.263   0.389 -0.0894  0.3258 -2.3198
  831MOL0     H14658   5.564   6.040   0.853  0.6395  1.4058 -0.1442
  831MOL0     H14659   5.392   5.995   0.663 -0.5104 -1.2990  0.8902
  831MOL0     H14660   5.049   6.008   0.508 -1.9436 -0.1141  1.0378
  831MOL0     H14661   4.819   5.951   0.462  0.5314  0.8151  1.5311
  831MOL0     H14662   3.088   4.935   0.221 -0.0545 -0.6284 -0.4734
  831MOL0     H14663   2.902   4.814   0.271  1.8917  1.3819 -2.4500
  831MOL0     H14664   2.826   4.416   0.549 -0.3139  2.2443 -0.9310
  831MOL0     H14665   2.676   4.255   0.645 -0.0813  0.2637 -0.3229
  831MOL0     H14666   2.308   4.390   0.851 -1.7310  1.8248 -2.2222
  831MOL0     H14667   2.278   4.351   0.672  2.4214 -0.2217 -1.2963
  831MOL0     H14668   2.242   4.165   0.916  0.9932 -0.6066  0.8009
  831MOL0     H14669   2.271   4.111   0.742  0.6622  1.6081 -0.9739
  831MOL0     H14670   2.039   4.275   0.864 -1.0944 -2.0437  0.9947
  831MOL0     H14671   2.069   4.266   0.691 -0.3850 -1.4417 -1.2404
  831MOL0     H14672   2.030   4.019   0.704  1.8277  0.6217  0.1572
  831MOL0     H14673   1.891   4.130   0.754 -0.3297 -2.0068 -1.4163
  831MOL0     H14674   1.975   3.924   1.132  0.2456  0.3179  0.2386
  831MOL0     H14675   2.401   4.561   0.747  1.4179  1.0888 -0.0152
  831MOL0     H14676   2.433   4.773   0.703 -0.1895 -0.2016  0.9762
  831MOL0     H14677   2.590   4.816   0.736  1.6937 -3.3199  0.6338
  831MOL0     H14678   2.527   4.830   0.566  0.1597  0.4567 -0.0802
  832MOL0     O14679   1.002  10.297   4.796  0.6041  0.4478  0.2607
  832MOL0     C14680   0.966  10.216   4.885 -0.4456 -0.1768 -0.1702
  832MOL0     O14681   1.053  10.139   4.963  0.0619  0.6609  0.3030
  832MOL0     C14682   1.182  10.169   4.972 -0.3090  0.4067  0.2969
  832MOL0     C14683   1.231  10.300   4.999 -0.5099 -0.3704  0.1392
  832MOL0     C14684   1.368  10.340   5.001  0.2228 -0.6182  0.4773
  832MOL0     C14685   1.459  10.248   4.970 -0.3583 -0.5365  0.5623
  832MOL0     O14686   1.594  10.284   4.983 -0.1738  0.2337  1.0779
  832MOL0     C14687   1.688  10.206   4.911 -0.5908  0.4332  0.0596
  832MOL0     C14688   1.819  10.273   4.888 -0.2351 -0.5128 -0.1885
  832MOL0     C14689   1.895  10.337   5.003  0.1060  0.5720  0.1967
  832MOL0     C14690   2.041  10.372   4.959 -0.0246 -0.4782 -0.1699
  832MOL0     C14691   2.107  10.495   5.041  0.1959 -0.8123 -0.0088
  832MOL0     C14692   2.151  10.452   5.179  0.8961  0.4925 -0.2635
  832MOL0     C14693   2.209  10.564   5.264  0.1553  0.6418  0.2200
  832MOL0     C14694   2.213  10.526   5.409 -0.1986  0.1018 -0.0153
  832MOL0     N14695   2.263  10.640   5.481 -0.2180 -0.4059  1.1147
  832MOL0     C14696   2.367  10.644   5.570  0.3591  1.2155 -0.1829
  832MOL0     C14697   2.363  10.770   5.624 -0.6236  0.4034 -0.2420
  832MOL0     C14698   2.434  10.818   5.752 -0.4187  0.2423 -0.6046
  832MOL0     C14699   2.589  10.819   5.746  0.4959  0.4512 -0.6660
  832MOL0     C14700   2.637  10.898   5.871 -0.4589 -0.1381 -0.0362
  832MOL0     C14701   2.788  10.869   5.885 -0.9317 -0.1144 -0.2861
  832MOL0     O14702   2.829  10.911   6.018 -0.7985 -0.1280 -0.6012
  832MOL0     C14703   2.903  11.028   6.025  0.8668 -1.1165  0.5344
  832MOL0     C14704   2.929  11.119   5.923  0.2617  0.2017 -0.4603
  832MOL0     C14705   3.018  11.230   5.933  0.6576  0.6772 -0.2493
  832MOL0     C14706   3.058  11.309   5.812 -0.1958  0.1461 -0.5071
  832MOL0     C14707   3.079  11.258   6.060  0.2797  0.2020 -0.4246
  832MOL0     C14708   3.172  11.369   6.094  1.0388  0.1764  0.9072
  832MOL0     O14709   3.159  11.440   6.206  0.3914  0.1074  0.5736
  832MOL0     C14710   3.035  11.486   6.218  0.3643 -0.2173 -0.6895
  832MOL0     C14711   2.941  11.421   6.310 -0.3840 -0.5345  1.6405
  832MOL0     C14712   2.814  11.474   6.341 -0.2763 -0.0914  0.1201
  832MOL0     C14713   2.773  11.583   6.263  0.5003  0.8590 -0.1638
  832MOL0     O14714   2.642  11.632   6.258  0.1768 -0.2241 -0.1167
  832MOL0     C14715   2.570  11.577   6.151 -0.9926  0.1563  0.8768
  832MOL0     C14716   2.444  11.662   6.133  0.7275  0.8630  0.1535
  832MOL0     C14717   2.482  11.802   6.090 -0.1162  1.1517 -0.0343
  832MOL0     C14718   2.361  11.894   6.065 -0.0721 -0.3885 -0.4135
  832MOL0     C14719   2.403  12.017   5.966  0.1609 -0.8806 -0.0335
  832MOL0     C14720   2.287  12.114   5.935  0.4717  0.2841 -0.7348
  832MOL0     C14721   2.170  12.056   5.857  0.2846 -0.3441  0.0174
  832MOL0     C14722   2.176  12.071   5.702 -0.6829 -0.5661  0.1455
  832MOL0    Cl14723   2.285  11.963   5.609  0.1532  0.2873 -0.1693
  832MOL0     C14724   2.861  11.657   6.182 -0.0694  0.3984 -0.6139
  832MOL0     C14725   2.995  11.611   6.165 -0.0995 -0.3597 -0.2723
  832MOL0     O14726   3.263  11.382   6.015  0.1631  0.6161 -0.4307
  832MOL0     C14727   3.046  11.168   6.167 -0.6314  0.7015  0.0729
  832MOL0     C14728   2.971  11.051   6.144 -0.7334 -0.3269  0.6509
  832MOL0     N14729   2.278  10.844   5.557  0.0106  0.0812  0.1479
  832MOL0     N14730   2.219  10.770   5.467 -0.2629  0.0204  0.6862
  832MOL0     C14731   1.414  10.115   4.953  0.2434  0.2798  0.7749
  832MOL0     C14732   1.278  10.076   4.953  0.0775  0.0817 -0.0620
  832MOL0     C14733   0.818  10.180   4.914  0.0888  0.2617 -0.5673
  832MOL0     C14734   0.786  10.107   5.032 -0.4553  0.2749  0.3429
  832MOL0     C14735   0.660  10.066   5.062 -0.0453  0.0879 -0.1180
  832MOL0     C14736   0.548  10.109   4.990 -0.7265 -0.4325 -0.5310
  832MOL0     O14737   0.426  10.071   5.039  0.1626  0.6941 -0.2972
  832MOL0     C14738   0.326  10.033   4.940  0.2582  0.0179 -0.0923
  832MOL0     C14739   0.240   9.910   4.999 -0.1870  0.4289  0.4639
  832MOL0     C14740   0.151   9.853   4.896  1.2129 -0.5421 -0.2135
  832MOL0     C14741   0.213   9.747   4.798  0.4827  0.5516  0.2204
  832MOL0     C14742   0.261   9.627   4.868 -0.3032 -1.2488 -0.0902
  832MOL0     C14743   0.293   9.523   4.934 -0.1642  0.0090  0.1952
  832MOL0     C14744   0.572  10.189   4.876 -0.2297  0.1612  0.0963
  832MOL0     C14745   0.707  10.217   4.842  0.7099 -0.5343  0.4806
  832MOL0     C14746   0.704  10.305   4.708 -0.5019  0.2529 -0.2220
  832MOL0     H14747   1.159  10.375   5.032 -0.4137  0.6424 -1.8139
  832MOL0     H14748   1.394  10.445   5.002 -0.6576 -0.3912  1.4098
  832MOL0     H14749   1.652  10.187   4.809  4.8118  1.1504 -2.3426
  832MOL0     H14750   1.706  10.116   4.971  2.8109  1.5791  1.0373
  832MOL0     H14751   1.889  10.198   4.848  0.1086 -0.4167  0.2248
  832MOL0     H14752   1.819  10.353   4.813  1.7571 -0.0497  0.2297
  832MOL0     H14753   1.842  10.426   5.037 -3.9439 -1.1777 -0.9918
  832MOL0     H14754   1.893  10.262   5.082  0.1282  0.4402  0.0741
  832MOL0     H14755   2.111  10.289   4.972  0.1188 -0.2223  0.7246
  832MOL0     H14756   2.033  10.405   4.855 -0.7024  2.3733  0.6985
  832MOL0     H14757   2.043  10.583   5.052  3.5784  1.8733 -0.3602
  832MOL0     H14758   2.193  10.538   4.989  0.3873 -2.1021 -0.8018
  832MOL0     H14759   2.067  10.411   5.235 -0.7550  3.4263 -0.4366
  832MOL0     H14760   2.211  10.362   5.162 -2.4031 -2.9701  3.9155
  832MOL0     H14761   2.144  10.652   5.269 -0.5503  0.2221 -1.1062
  832MOL0     H14762   2.309  10.593   5.231  0.8903 -1.7938  0.0762
  832MOL0     H14763   2.118  10.494   5.454 -0.4311 -0.0193 -0.5847
  832MOL0     H14764   2.280  10.440   5.400 -1.7334 -1.0998 -0.4239
  832MOL0     H14765   2.429  10.561   5.602 -1.4526 -0.7588 -1.5079
  832MOL0     H14766   2.407  10.754   5.836  3.6715 -2.7392 -1.2382
  832MOL0     H14767   2.407  10.922   5.770  0.9654  1.1473 -3.1556
  832MOL0     H14768   2.630  10.718   5.739  1.3537  0.6119  1.3488
  832MOL0     H14769   2.615  10.879   5.658  0.6726 -1.7481 -2.1780
  832MOL0     H14770   2.621  11.005   5.866 -3.8830 -0.2674  3.5010
  832MOL0     H14771   2.585  10.859   5.959  2.0412 -0.2188  1.5131
  832MOL0     H14772   2.797  10.760   5.882  0.1715 -0.1277  1.6916
  832MOL0     H14773   2.847  10.912   5.803  0.4628 -0.8483  0.2889
  832MOL0     H14774   2.878  11.099   5.829 -0.3804 -0.7434  0.0669
  832MOL0     H14775   2.980  11.302   5.736  0.8012 -1.6759 -1.4282
  832MOL0     H14776   3.153  11.268   5.776  0.2967  1.4517 -0.7333
  832MOL0     H14777   3.075  11.416   5.825 -1.9524  0.4696 -0.6289
  832MOL0     H14778   2.962  11.332   6.368 -1.9107 -0.5216  2.2668
  832MOL0     H14779   2.738  11.420   6.398  1.0222 -2.7379 -0.5046
  832MOL0     H14780   2.634  11.575   6.063  1.5530  0.4635  2.6214
  832MOL0     H14781   2.538  11.476   6.178 -2.1635 -0.0349 -1.0621
  832MOL0     H14782   2.369  11.619   6.066 -1.0018  1.9615  1.2850
  832MOL0     H14783   2.395  11.674   6.230  0.6061  0.0770  0.1931
  832MOL0     H14784   2.541  11.782   6.000  1.8924 -0.9120  1.6019
  832MOL0     H14785   2.551  11.846   6.163  2.4291  0.4432 -1.8541
  832MOL0     H14786   2.316  11.929   6.158  1.2135 -0.0096  0.0820
  832MOL0     H14787   2.281  11.840   6.012 -1.6240  1.3691  0.0369
  832MOL0     H14788   2.487  12.067   6.015  0.1358 -1.2980  0.4469
  832MOL0     H14789   2.444  11.979   5.872 -2.1230  0.8711 -1.8190
  832MOL0     H14790   2.321  12.213   5.901 -0.2798  1.3789  1.4908
  832MOL0     H14791   2.248  12.133   6.036  3.3150 -0.9568  0.7129
  832MOL0     H14792   2.074  12.095   5.891 -0.8492 -2.0827 -1.0050
  832MOL0     H14793   2.159  11.948   5.874  2.1035 -0.7919 -1.3558
  832MOL0     H14794   2.202  12.173   5.670 -0.9690 -1.0134 -1.6366
  832MOL0     H14795   2.083  12.050   5.648  0.0448  0.0081 -1.4065
  832MOL0     H14796   2.814  11.751   6.153 -1.3955  0.2293  0.8757
  832MOL0     H14797   3.074  11.666   6.114 -0.1110 -1.0519 -1.0728
  832MOL0     H14798   3.088  11.178   6.267  4.6570 -0.6128 -1.6787
  832MOL0     H14799   2.943  10.975   6.218 -1.5832 -1.0094 -0.3377
  832MOL0     H14800   1.483  10.031   4.958  0.0927 -0.0372 -1.6070
  832MOL0     H14801   1.260   9.973   4.923  0.6645 -0.2381  0.6413
  832MOL0     H14802   0.864  10.059   5.089 -0.4203 -2.4280 -1.7999
  832MOL0     H14803   0.634   9.998   5.143 -1.6423  0.2834 -0.4321
  832MOL0     H14804   0.251  10.111   4.926 -0.9081 -1.3074 -1.6260
  832MOL0     H14805   0.381  10.007   4.849  0.5701  0.5164 -0.0499
  832MOL0     H14806   0.178   9.936   5.086 -0.8652  0.3972 -0.0075
  832MOL0     H14807   0.310   9.829   5.024  1.1317  1.5447  0.5035
  832MOL0     H14808   0.071   9.794   4.943  0.8215 -2.9074 -3.4528
  832MOL0     H14809   0.094   9.922   4.832 -0.2102 -1.7651 -0.3423
  832MOL0     H14810   0.286   9.796   4.733  0.1943 -0.4018 -0.8516
  832MOL0     H14811   0.127   9.716   4.737 -1.0117  2.3152  1.3061
  832MOL0     H14812   0.352   9.454   4.992  0.2128  0.6741  0.6189
  832MOL0     H14813   0.500  10.236   4.809  0.4524  2.2050  0.7456
  832MOL0     H14814   0.796  10.281   4.654  0.0734  0.9269  0.4501
  832MOL0     H14815   0.625  10.262   4.644  0.8045 -2.8245  0.0398
  832MOL0     H14816   0.699  10.411   4.735 -1.3239  0.0238  0.5947
  833MOL0     O14817   9.555   1.887   6.367  0.0729  0.5220  0.1951
  833MOL0     C14818   9.433   1.868   6.333  0.3224 -0.2058 -1.1702
  833MOL0     O14819   9.377   1.901   6.206 -1.6576 -0.0203  0.2380
  833MOL0     C14820   9.459   1.942   6.107  0.6516  0.6597  0.3365
  833MOL0     C14821   9.392   2.021   6.010  0.5404 -0.1831 -0.5871
  833MOL0     C14822   9.464   2.055   5.901  0.1420 -1.1849 -0.0133
  833MOL0     C14823   9.598   2.016   5.876  0.9601 -0.0739 -0.6847
  833MOL0     O14824   9.670   2.041   5.766  0.0477 -0.2235  0.1248
  833MOL0     C14825   9.617   2.108   5.650 -0.5644  0.9790  0.9253
  833MOL0     C14826   9.714   2.100   5.530  0.4393 -0.0847 -0.3331
  833MOL0     C14827   9.857   2.153   5.561  0.7266  0.1512  0.9539
  833MOL0     C14828   9.952   2.116   5.457 -0.2336 -0.9401 -0.1360
  833MOL0     C14829  10.099   2.134   5.497  0.3766 -0.0707 -0.0170
  833MOL0     C14830  10.140   2.272   5.524  0.3517 -0.5077 -0.2869
  833MOL0     C14831  10.147   2.361   5.402 -0.2472  0.2733 -0.0707
  833MOL0     C14832  10.180   2.506   5.435  0.3279  0.4298 -0.0581
  833MOL0     N14833  10.185   2.578   5.314 -0.0770 -0.2461  0.6209
  833MOL0     C14834  10.275   2.567   5.217 -1.4844 -0.5014 -0.4219
  833MOL0     C14835  10.261   2.684   5.147 -0.3096 -0.6615 -0.3469
  833MOL0     C14836  10.342   2.706   5.025 -0.1875 -0.6166 -1.5672
  833MOL0     C14837  10.264   2.708   4.896 -0.1138 -0.0094  0.2968
  833MOL0     C14838  10.352   2.751   4.779 -0.2661  0.4409  0.0340
  833MOL0     C14839  10.266   2.766   4.650  0.3525  0.2883 -0.6500
  833MOL0     O14840  10.158   2.852   4.663  0.1207  1.0932 -0.5489
  833MOL0     C14841  10.028   2.819   4.690  0.0378  0.5557 -0.3103
  833MOL0     C14842   9.939   2.928   4.683 -0.6333 -0.0608  0.1362
  833MOL0     C14843   9.804   2.912   4.718 -0.1839  0.1730  0.0361
  833MOL0     C14844   9.709   3.031   4.711 -0.3308  0.8907  0.3069
  833MOL0     C14845   9.757   2.784   4.747  0.0314 -0.2969  0.1402
  833MOL0     C14846   9.610   2.758   4.758 -0.6117  0.1252  0.7275
  833MOL0     O14847   9.580   2.667   4.857 -0.6554  0.8510 -0.5252
  833MOL0     C14848   9.447   2.642   4.896 -0.0651 -0.5040  0.7317
  833MOL0     C14849   9.402   2.512   4.916  0.3297  0.0975  0.0249
  833MOL0     C14850   9.276   2.482   4.948  0.8021 -0.0773 -0.4504
  833MOL0     C14851   9.174   2.581   4.959  0.0937 -0.6175 -0.2433
  833MOL0     O14852   9.044   2.555   5.006 -0.2058 -0.1246  0.1811
  833MOL0     C14853   9.002   2.421   4.980 -0.3423  0.8132 -0.2868
  833MOL0     C14854   8.855   2.398   5.019  0.3172  0.0000 -0.3969
  833MOL0     C14855   8.765   2.304   4.932 -0.7058  0.3782 -0.2887
  833MOL0     C14856   8.627   2.318   4.993  1.6515  0.2145  0.2678
  833MOL0     C14857   8.516   2.250   4.899  0.5851  0.6303  0.1193
  833MOL0     C14858   8.531   2.097   4.880  0.0426 -0.5289 -0.1764
  833MOL0     C14859   8.510   2.023   5.007  0.2633  0.6840  0.2114
  833MOL0     C14860   8.539   1.880   5.004 -0.8664 -0.2413  1.1375
  833MOL0    Cl14861   8.515   1.844   5.177  0.0598  0.1108  0.2537
  833MOL0     C14862   9.219   2.716   4.940 -0.8349  0.0095  0.0421
  833MOL0     C14863   9.360   2.747   4.918  0.0350 -0.7262 -0.4020
  833MOL0     O14864   9.531   2.801   4.674 -0.9287  0.9637  0.4475
  833MOL0     C14865   9.846   2.677   4.764  1.2710 -0.0121 -0.0682
  833MOL0     C14866   9.978   2.697   4.742 -0.0842  0.7404 -0.2944
  833MOL0     N14867  10.162   2.771   5.189  0.4254  0.1167  0.3857
  833MOL0     N14868  10.122   2.700   5.289 -0.6082  0.0686 -0.6432
  833MOL0     C14869   9.657   1.924   5.969  0.1055  0.0436  0.6864
  833MOL0     C14870   9.589   1.891   6.080  0.3392 -0.1736 -0.7188
  833MOL0     C14871   9.344   1.816   6.447 -0.3570 -0.8677  0.1961
  833MOL0     C14872   9.209   1.794   6.408  0.3430  0.1766 -0.7902
  833MOL0     C14873   9.108   1.735   6.493 -0.4947  0.1924  0.1119
  833MOL0     C14874   9.149   1.692   6.618  0.2750  1.0365 -0.0686
  833MOL0     O14875   9.055   1.638   6.698 -0.2859  0.5139  0.7615
  833MOL0     C14876   9.100   1.566   6.818  0.0902 -0.5782 -0.6423
  833MOL0     C14877   8.995   1.480   6.883  0.0490 -0.0274  0.0814
  833MOL0     C14878   9.045   1.398   7.003  0.4330 -0.6415  0.5598
  833MOL0     C14879   8.961   1.273   7.013 -0.2463  0.4522  1.1683
  833MOL0     C14880   8.985   1.173   6.906  0.3538  0.5112 -0.2682
  833MOL0     C14881   9.000   1.095   6.814  0.0381  0.9415 -0.5705
  833MOL0     C14882   9.285   1.715   6.654 -0.3824 -0.6241 -0.1065
  833MOL0     C14883   9.382   1.780   6.580 -0.1115  0.1749  0.6292
  833MOL0     C14884   9.526   1.771   6.629  0.0412 -0.4345 -0.2054
  833MOL0     H14885   9.290   2.044   6.040  0.4841 -0.4613 -0.5564
  833MOL0     H14886   9.421   2.126   5.831  1.5669 -1.5183 -1.2509
  833MOL0     H14887   9.590   2.211   5.678 -1.5373  0.3018  2.6181
  833MOL0     H14888   9.529   2.059   5.607  2.1540 -2.9048 -0.7407
  833MOL0     H14889   9.712   1.991   5.518 -2.3454 -0.1153 -0.3015
  833MOL0     H14890   9.670   2.145   5.440 -0.5525 -1.9758 -0.8422
  833MOL0     H14891   9.851   2.262   5.570 -1.3940  0.2647 -0.8122
  833MOL0     H14892   9.884   2.104   5.655 -0.6989 -4.3936 -0.7027
  833MOL0     H14893   9.933   2.014   5.422 -3.6834  0.0010 -1.4121
  833MOL0     H14894   9.923   2.174   5.369  0.6063 -3.3418 -2.1427
  833MOL0     H14895  10.152   2.104   5.406 -0.7118 -2.2959  0.0226
  833MOL0     H14896  10.110   2.068   5.583 -0.7415  1.0830  1.0606
  833MOL0     H14897  10.073   2.320   5.596  1.0362 -0.8795  0.6206
  833MOL0     H14898  10.239   2.259   5.567 -0.2890 -0.5128  1.2610
  833MOL0     H14899  10.052   2.368   5.348  0.3367  2.4455 -0.8741
  833MOL0     H14900  10.222   2.316   5.336 -0.7533  1.4847 -1.5090
  833MOL0     H14901  10.099   2.548   5.496 -3.2762 -0.9983 -3.4582
  833MOL0     H14902  10.278   2.521   5.481  0.1776 -3.6282  2.0433
  833MOL0     H14903  10.345   2.492   5.181 -0.3992  2.1061 -4.4054
  833MOL0     H14904  10.412   2.622   5.024  1.4334  0.4090  2.6713
  833MOL0     H14905  10.414   2.789   5.029  1.1846 -1.7372 -2.1304
  833MOL0     H14906  10.222   2.607   4.894  2.0655 -0.9835  0.2177
  833MOL0     H14907  10.186   2.783   4.908 -0.3353  0.0114 -1.1077
  833MOL0     H14908  10.404   2.842   4.809  1.4427 -1.0966  2.0535
  833MOL0     H14909  10.438   2.691   4.748 -1.6252  0.1722 -3.6268
  833MOL0     H14910  10.339   2.812   4.583  0.8303 -0.2834 -0.5295
  833MOL0     H14911  10.232   2.674   4.600 -1.8785  0.0677  1.1248
  833MOL0     H14912   9.985   3.022   4.653  0.5735 -0.4280  0.7349
  833MOL0     H14913   9.756   3.127   4.735 -0.2969  0.9293  0.0850
  833MOL0     H14914   9.637   3.018   4.792 -1.1693  0.7124 -0.4577
  833MOL0     H14915   9.662   3.037   4.613  2.6269 -0.0150 -1.2885
  833MOL0     H14916   9.471   2.428   4.903 -0.1382 -0.1713 -0.8206
  833MOL0     H14917   9.259   2.380   4.980  1.3711 -0.0888 -0.1643
  833MOL0     H14918   9.022   2.387   4.878  1.1050 -1.6818  0.7404
  833MOL0     H14919   9.056   2.356   5.050 -0.7072  0.2048 -0.5704
  833MOL0     H14920   8.860   2.357   5.120  2.3020 -0.5140 -0.6585
  833MOL0     H14921   8.803   2.493   5.010 -1.5541 -0.9717 -0.4394
  833MOL0     H14922   8.800   2.200   4.928 -0.2948  0.5168 -0.3579
  833MOL0     H14923   8.770   2.346   4.831  0.0000  1.1825  0.0651
  833MOL0     H14924   8.602   2.424   4.995  2.1094  0.3397 -0.2873
  833MOL0     H14925   8.621   2.278   5.094  0.6626 -1.5077 -0.4213
  833MOL0     H14926   8.412   2.266   4.929 -0.3425 -3.6747 -0.1368
  833MOL0     H14927   8.523   2.295   4.800  1.1153 -1.7122 -0.9753
  833MOL0     H14928   8.632   2.083   4.839  0.7260  2.0619  0.4091
  833MOL0     H14929   8.454   2.064   4.809 -2.4677  1.3040  1.5243
  833MOL0     H14930   8.406   2.036   5.039  0.8033  0.4546  2.1945
  833MOL0     H14931   8.562   2.066   5.093  0.8436  0.0518  0.1878
  833MOL0     H14932   8.638   1.858   4.964 -0.3773  0.8438  1.7073
  833MOL0     H14933   8.462   1.830   4.945 -1.4744 -0.9433  2.4813
  833MOL0     H14934   9.145   2.793   4.960 -1.1934 -0.6032  1.1044
  833MOL0     H14935   9.402   2.848   4.915 -1.2920 -0.1185  0.6022
  833MOL0     H14936   9.814   2.578   4.794 -1.2512 -0.0073 -2.4147
  833MOL0     H14937  10.041   2.609   4.729  0.3679  1.0528 -0.2670
  833MOL0     H14938   9.759   1.894   5.948  0.3470  1.0074  0.4336
  833MOL0     H14939   9.639   1.822   6.147 -2.7181 -1.3653  0.5020
  833MOL0     H14940   9.166   1.821   6.311 -0.1329  0.4808 -0.5022
  833MOL0     H14941   9.001   1.723   6.475 -0.4606 -0.8726  0.5387
  833MOL0     H14942   9.186   1.505   6.788 -0.7717 -2.0629 -0.1953
  833MOL0     H14943   9.129   1.643   6.890 -2.4654 -1.1551  1.1480
  833MOL0     H14944   8.952   1.418   6.805  1.9422 -0.7879 -0.4186
  833MOL0     H14945   8.908   1.537   6.917 -0.4336 -0.5804 -0.2336
  833MOL0     H14946   9.153   1.381   7.011  0.3961  0.0585  4.4288
  833MOL0     H14947   9.026   1.459   7.091  0.4375  1.7508 -1.0253
  833MOL0     H14948   8.854   1.295   7.005 -0.2465 -0.0807 -1.4917
  833MOL0     H14949   8.977   1.228   7.111 -0.1959  0.0970  1.0015
  833MOL0     H14950   9.014   1.037   6.725  1.1711 -0.1386  0.2630
  833MOL0     H14951   9.319   1.684   6.752  0.7847  0.8069 -0.0287
  833MOL0     H14952   9.588   1.738   6.544 -0.8734 -0.3088 -0.9317
  833MOL0     H14953   9.552   1.873   6.658 -2.3020  0.2555 -0.3929
  833MOL0     H14954   9.536   1.690   6.702  0.6782  1.6952  2.1925
  834MOL0     O14955   8.960   9.157   8.806 -0.1996  0.2383 -0.1118
  834MOL0     C14956   8.986   9.098   8.912  0.7269  0.0973  0.4209
  834MOL0     O14957   9.043   9.159   9.021 -0.1134  0.0474 -0.1330
  834MOL0     C14958   9.054   9.296   9.029  0.2570  0.1211 -0.1251
  834MOL0     C14959   9.162   9.365   8.968 -0.8605 -0.0099 -0.2988
  834MOL0     C14960   9.163   9.502   8.972 -0.1031 -0.6037  0.7784
  834MOL0     C14961   9.063   9.575   9.034 -0.6774 -0.5726 -1.0535
  834MOL0     O14962   9.065   9.715   9.048  0.1198 -0.2322  0.5968
  834MOL0     C14963   9.106   9.786   8.931  0.3548 -0.6840  0.5299
  834MOL0     C14964   9.076   9.931   8.964 -0.4316  0.4002 -0.8785
  834MOL0     C14965   9.160   9.978   9.083  0.2239  0.5516  0.0972
  834MOL0     C14966   9.158  10.137   9.087  0.1112 -0.2992  0.2247
  834MOL0     C14967   9.265  10.184   9.185 -0.8063 -0.3572  0.7957
  834MOL0     C14968   9.256  10.125   9.330  0.4063 -0.5420  0.6831
  834MOL0     C14969   9.129  10.182   9.392  0.2225  0.7582  0.7470
  834MOL0     C14970   9.097  10.122   9.529  0.0699 -0.6362  0.6325
  834MOL0     N14971   8.987  10.192   9.600 -0.1489 -0.0600 -1.3271
  834MOL0     C14972   8.973  10.329   9.627  0.4591  0.3292 -0.5424
  834MOL0     C14973   8.847  10.348   9.679 -0.2889 -0.0330  1.0038
  834MOL0     C14974   8.772  10.475   9.720  0.4716 -0.8882  0.5316
  834MOL0     C14975   8.630  10.474   9.653  0.1719 -0.4097 -0.3676
  834MOL0     C14976   8.561  10.596   9.713 -0.2091 -0.0435  0.6756
  834MOL0     C14977   8.412  10.581   9.716  0.5781  0.3082 -0.5419
  834MOL0     O14978   8.356  10.712   9.754 -0.5975 -0.3710 -0.3236
  834MOL0     C14979   8.221  10.716   9.784  0.1894 -0.7574  0.2071
  834MOL0     C14980   8.137  10.611   9.765 -0.4406  0.7465  0.0628
  834MOL0     C14981   8.006  10.631   9.811 -0.0004  0.5504 -0.5161
  834MOL0     C14982   7.912  10.510   9.812  0.1864  0.5127  0.1980
  834MOL0     C14983   7.960  10.751   9.867 -0.1135  0.2073 -0.1226
  834MOL0     C14984   7.838  10.781   9.953  0.6587 -0.5560  0.8922
  834MOL0     O14985   7.798  10.912   9.948  0.3394 -0.1371 -0.5345
  834MOL0     C14986   7.670  10.948   9.984 -0.1053  0.1136 -0.1716
  834MOL0     C14987   7.556  10.895   9.922 -0.8818 -0.4113 -0.5402
  834MOL0     C14988   7.431  10.950   9.961 -0.5828  0.0293 -0.3442
  834MOL0     C14989   7.424  11.055  10.051  0.5294  0.0219 -0.2230
  834MOL0     O14990   7.304  11.114  10.051  0.7171 -0.2756 -0.4693
  834MOL0     C14991   7.265  11.173  10.173  0.5202  1.2294 -0.6759
  834MOL0     C14992   7.236  11.069  10.287 -0.6001 -0.1311  0.2959
  834MOL0     C14993   7.168  11.141  10.411  0.4324 -0.1725  0.1722
  834MOL0     C14994   7.156  11.042  10.525  0.0412  0.2079 -0.1010
  834MOL0     C14995   7.050  11.095  10.620  0.4391 -0.6833 -0.1421
  834MOL0     C14996   7.001  10.990  10.715 -0.3086  1.0479  0.3555
  834MOL0     C14997   7.077  10.975  10.845  0.0978 -0.5420 -0.2541
  834MOL0     C14998   7.041  10.842  10.903 -0.3052 -0.8265 -0.0716
  834MOL0    Cl14999   7.061  10.848  11.087 -0.5588  0.2114  0.4959
  834MOL0     C15000   7.542  11.094  10.121  0.1501 -0.1651 -0.5571
  834MOL0     C15001   7.666  11.056  10.073 -0.5922  0.9722  0.0901
  834MOL0     O15002   7.778  10.689  10.017  0.3302  0.1116  0.2242
  834MOL0     C15003   8.054  10.858   9.870 -0.1224  0.1264 -0.9932
  834MOL0     C15004   8.185  10.832   9.834 -0.1063 -0.5479  0.4313
  834MOL0     N15005   8.784  10.228   9.677 -0.1380  0.4490  1.1193
  834MOL0     N15006   8.856  10.138   9.626 -0.3345 -0.1420  1.3248
  834MOL0     C15007   8.960   9.507   9.094  0.8004  0.1449 -0.2303
  834MOL0     C15008   8.948   9.368   9.082 -0.1086 -0.2272  0.1253
  834MOL0     C15009   8.954   8.948   8.920 -0.6058 -0.8737  0.8023
  834MOL0     C15010   8.894   8.891   8.807  0.4412  0.0390 -0.2974
  834MOL0     C15011   8.838   8.760   8.814  0.1801 -0.2083  0.0935
  834MOL0     C15012   8.859   8.681   8.925 -0.3522  0.2598  1.5166
  834MOL0     O15013   8.820   8.552   8.932 -0.3419  0.6252  0.1638
  834MOL0     C15014   8.699   8.495   8.880 -0.0045 -0.0500 -0.3797
  834MOL0     C15015   8.570   8.577   8.924 -0.2580 -0.5933  0.9310
  834MOL0     C15016   8.566   8.579   9.082 -0.5136 -0.3516 -0.1141
  834MOL0     C15017   8.467   8.692   9.131  0.0622 -0.4892  0.4375
  834MOL0     C15018   8.518   8.830   9.107 -0.4005  0.3999  0.5117
  834MOL0     C15019   8.568   8.943   9.089 -0.1571 -0.0023  0.5553
  834MOL0     C15020   8.923   8.733   9.035  0.4823  0.5730 -0.0880
  834MOL0     C15021   8.972   8.863   9.036 -0.1958  1.8047  0.0572
  834MOL0     C15022   9.048   8.908   9.154 -0.5600  0.1330  0.2489
  834MOL0     H15023   9.249   9.313   8.930 -1.5079  0.0556 -1.9308
  834MOL0     H15024   9.250   9.553   8.929 -0.8159  0.3505  0.4204
  834MOL0     H15025   9.052   9.746   8.845  2.7392 -1.5866 -0.6224
  834MOL0     H15026   9.213   9.773   8.915  0.3056 -2.4649  1.4319
  834MOL0     H15027   9.110   9.985   8.876  3.6307 -1.2357 -0.5572
  834MOL0     H15028   8.967   9.923   8.974 -0.4721  1.9725  0.4552
  834MOL0     H15029   9.114   9.944   9.176  2.1080  1.6126  1.4909
  834MOL0     H15030   9.265   9.947   9.075  0.9503  2.9703 -0.7166
  834MOL0     H15031   9.158  10.175   8.984 -2.4477 -2.9616 -0.8817
  834MOL0     H15032   9.057  10.165   9.120 -0.4307 -2.0727  0.1611
  834MOL0     H15033   9.265  10.293   9.196  0.0350 -0.5058  2.6935
  834MOL0     H15034   9.365  10.164   9.144 -1.2908  0.2267 -0.7824
  834MOL0     H15035   9.250  10.017   9.318  0.3240 -0.3378 -1.7501
  834MOL0     H15036   9.345  10.165   9.380  0.3296  0.7725 -0.1775
  834MOL0     H15037   9.036  10.173   9.334  0.1388 -0.3807  1.0259
  834MOL0     H15038   9.148  10.289   9.389 -1.0698  1.0443 -3.1062
  834MOL0     H15039   9.062  10.019   9.513 -0.6544 -0.1637 -1.0326
  834MOL0     H15040   9.182  10.112   9.597  1.6794 -1.7920 -1.4395
  834MOL0     H15041   9.056  10.398   9.617  2.6599 -2.3665 -2.3871
  834MOL0     H15042   8.840  10.560   9.705  0.6809 -1.2416 -0.6696
  834MOL0     H15043   8.761  10.486   9.828  0.2000  1.0527  0.3451
  834MOL0     H15044   8.615  10.470   9.545  2.6445 -1.2194 -0.7407
  834MOL0     H15045   8.584  10.382   9.691 -0.5476  0.9603  2.3877
  834MOL0     H15046   8.601  10.614   9.814  0.8075 -0.2079  0.3091
  834MOL0     H15047   8.600  10.677   9.651  0.8131 -1.3389 -0.4336
  834MOL0     H15048   8.381  10.554   9.615 -2.5851 -2.8731  1.0474
  834MOL0     H15049   8.376  10.492   9.767  0.5818  0.6195  0.0179
  834MOL0     H15050   8.165  10.516   9.719 -3.5367  0.2497 -1.1203
  834MOL0     H15051   7.819  10.523   9.756  0.3212 -1.8961 -0.7009
  834MOL0     H15052   7.889  10.482   9.915  0.2399  1.7276  0.5590
  834MOL0     H15053   7.962  10.434   9.751 -0.9353 -1.7225  1.9188
  834MOL0     H15054   7.574  10.825   9.841  1.5545  1.2094 -1.5224
  834MOL0     H15055   7.347  10.903   9.910 -0.4599  0.3883 -0.8866
  834MOL0     H15056   7.338  11.245  10.213  2.0986 -0.1064 -1.0122
  834MOL0     H15057   7.170  11.221  10.150 -0.5940 -0.3989  0.2869
  834MOL0     H15058   7.174  10.989  10.247  0.6743  0.0378 -2.2103
  834MOL0     H15059   7.326  11.023  10.329 -0.3985  1.0570  1.2244
  834MOL0     H15060   7.077  11.191  10.378  0.3729  0.2079  0.8875
  834MOL0     H15061   7.229  11.224  10.450  4.0835 -1.6958 -1.7551
  834MOL0     H15062   7.250  11.028  10.578  0.1717 -1.1118 -0.6310
  834MOL0     H15063   7.106  10.953  10.484  1.8591 -0.1782 -1.6084
  834MOL0     H15064   7.069  11.180  10.687 -3.0777 -1.2243  1.7731
  834MOL0     H15065   6.967  11.146  10.569  0.2098  1.5927  2.3033
  834MOL0     H15066   7.001  10.895  10.661 -1.3432 -1.2876  4.0473
  834MOL0     H15067   6.895  11.011  10.732 -1.1809 -0.2534 -2.8246
  834MOL0     H15068   7.050  11.057  10.913 -1.9534  0.3820 -2.0809
  834MOL0     H15069   7.185  10.986  10.832  0.4338 -0.5567  2.0069
  834MOL0     H15070   7.106  10.763  10.865 -3.4333 -3.5334 -0.2056
  834MOL0     H15071   6.943  10.805  10.873 -0.6642  0.3265 -0.3689
  834MOL0     H15072   7.534  11.167  10.201  5.3815  3.7630 -3.0949
  834MOL0     H15073   7.756  11.106  10.105  0.4099  0.2922 -1.5262
  834MOL0     H15074   8.021  10.956   9.903  1.8558 -0.1213  2.1616
  834MOL0     H15075   8.257  10.913   9.837 -1.1630  0.4060  0.3096
  834MOL0     H15076   8.879   9.563   9.140  2.0257  1.1826  0.7454
  834MOL0     H15077   8.857   9.321   9.118 -0.9476 -1.8317 -3.6349
  834MOL0     H15078   8.879   8.947   8.716 -0.2369  1.8733  0.8769
  834MOL0     H15079   8.784   8.715   8.731  0.7325 -0.7229  0.0032
  834MOL0     H15080   8.710   8.503   8.771  2.4049  0.5628 -0.1540
  834MOL0     H15081   8.689   8.391   8.911 -0.1239 -0.5919 -2.0996
  834MOL0     H15082   8.477   8.529   8.892 -0.5820  0.7065 -0.1546
  834MOL0     H15083   8.566   8.678   8.883  0.3867 -1.5067 -1.5811
  834MOL0     H15084   8.542   8.486   9.134 -1.0619 -0.7379 -1.0376
  834MOL0     H15085   8.667   8.587   9.123 -1.4507  0.2386  2.2278
  834MOL0     H15086   8.440   8.688   9.237 -2.2016  2.3263  0.1210
  834MOL0     H15087   8.374   8.680   9.076 -0.5366  2.1594  0.7027
  834MOL0     H15088   8.619   9.037   9.084 -0.2019  0.2396  3.2418
  834MOL0     H15089   8.926   8.657   9.113  1.4546 -1.6409 -2.1565
  834MOL0     H15090   9.050   8.831   9.232 -2.9625 -0.6919 -0.4447
  834MOL0     H15091   9.151   8.934   9.126  0.6623 -3.6462  0.7219
  834MOL0     H15092   8.992   8.995   9.189  0.9841 -0.0923  3.7409
  835MOL0     O15093   2.525   0.196   5.400 -0.2995  0.2473  0.5292
  835MOL0     C15094   2.480   0.119   5.482 -0.1948 -0.1887  0.2209
  835MOL0     O15095   2.526   0.097   5.605 -0.6900  0.4467  0.6493
  835MOL0     C15096   2.615   0.186   5.652 -0.0853 -0.5448 -0.5957
  835MOL0     C15097   2.740   0.139   5.674  0.3648 -0.2580 -0.2547
  835MOL0     C15098   2.832   0.211   5.749  0.3797 -0.3173 -0.1663
  835MOL0     C15099   2.802   0.334   5.800 -0.4651  0.1191 -0.4283
  835MOL0     O15100   2.909   0.401   5.874 -0.7002 -0.4558 -0.5224
  835MOL0     C15101   2.864   0.513   5.955  0.0785 -0.2356 -0.3407
  835MOL0     C15102   2.978   0.543   6.059 -0.5466  0.1040 -0.4871
  835MOL0     C15103   3.117   0.571   6.008  0.1525 -0.2492  0.1198
  835MOL0     C15104   3.116   0.697   5.921  0.3047  0.5257 -1.1940
  835MOL0     C15105   3.256   0.736   5.872  0.1278  0.5759 -0.3680
  835MOL0     C15106   3.321   0.627   5.784 -0.5402 -0.2377 -0.4712
  835MOL0     C15107   3.459   0.667   5.733  0.1402  0.9188 -0.2140
  835MOL0     C15108   3.465   0.768   5.611  0.3415 -0.1283 -0.1322
  835MOL0     N15109   3.598   0.785   5.555  0.7613 -0.0659 -0.0995
  835MOL0     C15110   3.636   0.764   5.423 -0.4489 -0.1351  0.4068
  835MOL0     C15111   3.774   0.772   5.421  0.6326 -0.5463  0.0543
  835MOL0     C15112   3.866   0.744   5.304  0.0837  0.2414 -0.1542
  835MOL0     C15113   3.842   0.597   5.286 -0.8151 -0.4735  0.3509
  835MOL0     C15114   3.931   0.539   5.170  0.1669  0.6244 -0.6712
  835MOL0     C15115   4.077   0.531   5.211  0.8327 -0.2721  0.3749
  835MOL0     O15116   4.098   0.478   5.349  0.2083 -0.6115  0.6542
  835MOL0     C15117   4.230   0.508   5.394 -0.7993 -0.0195 -0.1588
  835MOL0     C15118   4.256   0.474   5.528 -0.7072 -0.1476 -0.6092
  835MOL0     C15119   4.377   0.487   5.590 -0.6363 -0.2670  0.3278
  835MOL0     C15120   4.383   0.460   5.746  0.4086 -0.2140  0.3653
  835MOL0     C15121   4.487   0.533   5.515  0.4150  0.1992 -0.9940
  835MOL0     C15122   4.617   0.556   5.571  0.0577 -0.6431  0.0889
  835MOL0     O15123   4.711   0.637   5.500  1.1770  0.3717 -0.1491
  835MOL0     C15124   4.851   0.637   5.528  0.8501 -0.3740 -0.3010
  835MOL0     C15125   4.926   0.667   5.414  0.5679  0.4420  0.6436
  835MOL0     C15126   5.068   0.679   5.417  0.2602  0.1683  0.1475
  835MOL0     C15127   5.134   0.665   5.541  0.4939  0.0531 -0.4890
  835MOL0     O15128   5.263   0.682   5.542 -0.4110  0.3129 -0.2462
  835MOL0     C15129   5.337   0.729   5.657  0.6325  0.6434 -0.0583
  835MOL0     C15130   5.486   0.745   5.637  0.1161 -0.2370 -0.7287
  835MOL0     C15131   5.556   0.738   5.772  0.2993  0.1735  0.3354
  835MOL0     C15132   5.705   0.767   5.761 -0.2002 -0.5894  0.3502
  835MOL0     C15133   5.771   0.768   5.894 -0.0976  0.4374  0.5773
  835MOL0     C15134   5.714   0.855   6.004 -0.1653  0.0537 -0.4581
  835MOL0     C15135   5.664   0.992   5.959 -0.7699 -0.4115  0.7466
  835MOL0     C15136   5.782   1.090   5.905 -0.0824  0.6782 -0.5422
  835MOL0    Cl15137   5.902   1.138   6.039  0.0665 -0.2872  0.1459
  835MOL0     C15138   5.062   0.633   5.657 -1.1798 -0.5678  0.3211
  835MOL0     C15139   4.921   0.616   5.653 -0.0198  0.0349  0.7114
  835MOL0     O15140   4.653   0.482   5.669  0.3275 -0.3531  1.0652
  835MOL0     C15141   4.462   0.562   5.381  0.4671 -0.2985  0.0585
  835MOL0     C15142   4.344   0.549   5.318  0.5141 -0.2811 -0.9687
  835MOL0     N15143   3.819   0.794   5.555 -0.4598 -1.5813  0.3234
  835MOL0     N15144   3.713   0.800   5.628 -0.2535  0.1449  0.0824
  835MOL0     C15145   2.682   0.392   5.779 -0.2226  0.9549  0.2742
  835MOL0     C15146   2.584   0.315   5.705 -0.8209 -0.7379 -0.2299
  835MOL0     C15147   2.351   0.053   5.435  0.8276 -0.3734  0.0365
  835MOL0     C15148   2.338  -0.070   5.482 -1.0571  0.4501  0.0978
  835MOL0     C15149   2.237  -0.155   5.433 -1.1325  0.2679 -0.0349
  835MOL0     C15150   2.138  -0.111   5.356  0.3006  1.6270  1.1352
  835MOL0     O15151   2.028  -0.184   5.326  1.0788 -0.3634  0.0724
  835MOL0     C15152   2.044  -0.327   5.340  0.2613 -1.1053 -0.0341
  835MOL0     C15153   1.925  -0.389   5.265  0.4959  0.4363  0.0928
  835MOL0     C15154   1.930  -0.548   5.259  0.2403 -1.0016  0.3944
  835MOL0     C15155   1.890  -0.595   5.117  0.6601  0.1089 -0.6577
  835MOL0     C15156   1.758  -0.554   5.074  0.2871  0.4778  0.7210
  835MOL0     C15157   1.644  -0.530   5.023 -0.5241  0.1764 -0.1116
  835MOL0     C15158   2.146   0.020   5.309  1.0968 -0.2977  0.2703
  835MOL0     C15159   2.256   0.102   5.338 -0.3871  0.2350 -1.1812
  835MOL0     C15160   2.263   0.240   5.286  0.6832 -0.3602  0.6225
  835MOL0     H15161   2.780   0.046   5.635  3.3286  0.9810 -0.4454
  835MOL0     H15162   2.932   0.176   5.769  0.1790 -1.1325 -0.5550
  835MOL0     H15163   2.777   0.476   6.009  2.1690 -2.9080  1.4324
  835MOL0     H15164   2.848   0.609   5.904  0.2335  0.2527  0.5042
  835MOL0     H15165   2.933   0.630   6.109  1.4508  1.6778 -1.2923
  835MOL0     H15166   2.997   0.471   6.139  2.7692  2.9788  1.6038
  835MOL0     H15167   3.183   0.579   6.095 -0.9327  0.7508  0.8899
  835MOL0     H15168   3.145   0.482   5.952 -3.0587 -2.5961  1.8431
  835MOL0     H15169   3.055   0.677   5.833  1.3464 -0.3503 -1.7395
  835MOL0     H15170   3.083   0.785   5.978  1.2607 -0.5736  1.1658
  835MOL0     H15171   3.315   0.749   5.963  0.4634  0.5376 -0.5775
  835MOL0     H15172   3.268   0.832   5.821  3.7923  0.2506 -0.3654
  835MOL0     H15173   3.331   0.536   5.843  0.0784 -1.6383 -2.6283
  835MOL0     H15174   3.260   0.604   5.696 -1.5993 -0.1587  0.2138
  835MOL0     H15175   3.506   0.573   5.703 -0.0875  1.0050 -0.8428
  835MOL0     H15176   3.506   0.712   5.821  1.9635  1.4159 -1.3894
  835MOL0     H15177   3.404   0.721   5.533  1.4250 -3.2882  0.7863
  835MOL0     H15178   3.420   0.865   5.636 -2.3599 -1.6630  1.3208
  835MOL0     H15179   3.561   0.751   5.345 -1.2942  1.4927  0.8868
  835MOL0     H15180   3.969   0.761   5.339  0.7935 -1.7688 -1.1361
  835MOL0     H15181   3.844   0.805   5.216 -0.9627  1.0312  0.6294
  835MOL0     H15182   3.861   0.542   5.379  1.5373 -2.6514 -1.2471
  835MOL0     H15183   3.742   0.596   5.242  0.3610 -1.7853 -2.6100
  835MOL0     H15184   3.899   0.436   5.151 -1.4686 -0.1291  4.3910
  835MOL0     H15185   3.920   0.601   5.080 -0.7625 -0.7807 -1.5632
  835MOL0     H15186   4.126   0.457   5.147 -1.3566 -1.5470  0.0705
  835MOL0     H15187   4.113   0.634   5.207 -1.6750  0.6555 -0.9255
  835MOL0     H15188   4.165   0.448   5.581  0.3392  0.5427  1.5995
  835MOL0     H15189   4.458   0.518   5.801  0.1133 -0.5709  1.1669
  835MOL0     H15190   4.412   0.354   5.751  0.8002 -0.0792  1.2951
  835MOL0     H15191   4.284   0.475   5.788  1.0981 -1.8552  2.8378
  835MOL0     H15192   4.869   0.684   5.323 -4.5388 -4.2568  2.4155
  835MOL0     H15193   5.132   0.694   5.331  0.1776 -1.6154 -0.2659
  835MOL0     H15194   5.294   0.824   5.691 -1.4294 -0.5504  0.8321
  835MOL0     H15195   5.326   0.658   5.739  2.1872 -0.4379 -0.7287
  835MOL0     H15196   5.527   0.673   5.567  4.1477 -0.4533  1.5452
  835MOL0     H15197   5.517   0.842   5.597  1.0278 -1.7969 -4.1929
  835MOL0     H15198   5.543   0.635   5.807 -0.2549 -0.0777 -0.5455
  835MOL0     H15199   5.509   0.806   5.843  0.6935 -2.1011  2.8945
  835MOL0     H15200   5.722   0.859   5.705 -0.8729 -2.1651 -2.6411
  835MOL0     H15201   5.748   0.684   5.704 -1.0887  0.8551 -2.6497
  835MOL0     H15202   5.777   0.664   5.928  1.5384 -0.6730 -2.6906
  835MOL0     H15203   5.872   0.804   5.872 -0.0037  0.2876  0.7644
  835MOL0     H15204   5.794   0.864   6.078 -0.5823  0.5456 -0.0546
  835MOL0     H15205   5.629   0.804   6.051 -0.7055  1.3638  0.0280
  835MOL0     H15206   5.626   1.047   6.046  0.1988 -0.5870  1.3019
  835MOL0     H15207   5.582   0.989   5.887 -0.6929  2.7584  0.3962
  835MOL0     H15208   5.744   1.181   5.859  0.9135  0.8498 -1.0529
  835MOL0     H15209   5.837   1.035   5.828 -0.8869 -1.1153  0.0815
  835MOL0     H15210   5.116   0.621   5.751 -0.6942 -0.9114  0.0004
  835MOL0     H15211   4.868   0.585   5.742  0.2052 -2.7866 -0.0658
  835MOL0     H15212   4.536   0.595   5.309  1.8384 -1.3667  0.9298
  835MOL0     H15213   4.329   0.558   5.211 -2.2301 -3.4172 -1.0089
  835MOL0     H15214   2.662   0.492   5.815  0.8558  0.7190  1.6471
  835MOL0     H15215   2.482   0.349   5.689 -0.2109  1.4394  0.2125
  835MOL0     H15216   2.415  -0.114   5.544  0.9882 -2.0014 -3.8250
  835MOL0     H15217   2.241  -0.255   5.475 -0.2343  1.5528  3.2793
  835MOL0     H15218   2.132  -0.363   5.286  1.1711 -0.7425  1.1653
  835MOL0     H15219   2.032  -0.354   5.445 -1.7155  1.1684  0.4033
  835MOL0     H15220   1.915  -0.360   5.160  2.4414 -2.6373 -1.0707
  835MOL0     H15221   1.829  -0.370   5.313  0.5135 -0.6303  0.5800
  835MOL0     H15222   2.027  -0.585   5.292 -0.4822 -1.8855  1.6087
  835MOL0     H15223   1.862  -0.591   5.334  0.9227  0.1728  1.7371
  835MOL0     H15224   1.882  -0.704   5.121  1.0896  0.1034  0.1784
  835MOL0     H15225   1.965  -0.567   5.043  1.0934 -0.1300 -0.3126
  835MOL0     H15226   1.555  -0.515   4.965 -0.9106  0.4421  0.5357
  835MOL0     H15227   2.064   0.047   5.244  0.6829 -1.7149  0.1567
  835MOL0     H15228   2.161   0.267   5.258  0.2978 -2.0838  0.2155
  835MOL0     H15229   2.296   0.321   5.352 -2.9659  2.2857 -0.5277
  835MOL0     H15230   2.324   0.246   5.195  0.6990  2.1987  0.7303
  836MOL0     O15231   9.319   1.642   2.916  0.1874  0.4723 -0.3594
  836MOL0     C15232   9.311   1.541   2.984 -0.1147  0.0814 -0.3189
  836MOL0     O15233   9.413   1.448   2.992 -0.5009  0.3124  0.0329
  836MOL0     C15234   9.522   1.439   2.914 -0.5276 -0.0457  0.6086
  836MOL0     C15235   9.648   1.429   2.970 -0.5555  0.8370 -0.1192
  836MOL0     C15236   9.758   1.420   2.882 -0.3895  1.2684  0.1913
  836MOL0     C15237   9.740   1.411   2.743 -0.2898 -0.3842  0.3780
  836MOL0     O15238   9.848   1.402   2.660 -0.1240  0.1999  1.0028
  836MOL0     C15239   9.892   1.531   2.618 -0.2823 -0.3440 -0.0465
  836MOL0     C15240   9.998   1.503   2.515  0.2330 -0.6322  1.2089
  836MOL0     C15241  10.132   1.474   2.585  0.1026  0.1783  0.6839
  836MOL0     C15242  10.230   1.381   2.513  0.1356 -1.0167 -0.0576
  836MOL0     C15243  10.342   1.328   2.600 -0.3306  0.1614 -0.0605
  836MOL0     C15244  10.460   1.431   2.609  0.5909  0.0626  0.5422
  836MOL0     C15245  10.575   1.371   2.696 -0.0946 -1.0632 -0.5159
  836MOL0     C15246  10.681   1.471   2.764  0.7542  0.3770  0.3820
  836MOL0     N15247  10.789   1.393   2.821 -0.4646  0.7933  0.1467
  836MOL0     C15248  10.894   1.334   2.750  0.5373  0.2157 -0.5379
  836MOL0     C15249  10.968   1.265   2.845 -0.5786  0.0308  0.5118
  836MOL0     C15250  11.084   1.170   2.799 -0.3902  0.0581 -0.4292
  836MOL0     C15251  11.200   1.183   2.899 -0.7781  0.0243  0.4856
  836MOL0     C15252  11.327   1.109   2.847 -0.0925  0.0786  0.4693
  836MOL0     C15253  11.446   1.115   2.931 -0.6342 -0.8327  0.0503
  836MOL0     O15254  11.422   1.052   3.051 -0.1370 -0.0892  0.1935
  836MOL0     C15255  11.517   1.013   3.135 -0.6646 -0.0085 -0.5615
  836MOL0     C15256  11.485   0.953   3.257 -0.1807 -0.0773 -0.1784
  836MOL0     C15257  11.588   0.920   3.345  0.5532  0.4338 -0.1034
  836MOL0     C15258  11.543   0.863   3.472  0.1118  0.6545 -0.9946
  836MOL0     C15259  11.722   0.954   3.309 -0.9723  0.5367 -0.2716
  836MOL0     C15260  11.836   0.930   3.393  0.5978  0.7522 -0.5731
  836MOL0     O15261  11.958   0.951   3.353 -0.0650 -0.5314  0.2210
  836MOL0     C15262  12.069   0.958   3.432 -0.4379  0.6046 -0.1743
  836MOL0     C15263  12.188   0.883   3.394  0.7545  0.1372  0.3267
  836MOL0     C15264  12.308   0.910   3.456 -0.0612 -0.4349 -0.3504
  836MOL0     C15265  12.322   0.996   3.562  0.4544  0.0565 -1.0279
  836MOL0     O15266  12.439   1.021   3.632  0.0209  0.1320 -0.0148
  836MOL0     C15267  12.454   1.150   3.699 -0.1388  0.2492 -0.2622
  836MOL0     C15268  12.594   1.172   3.751  0.3947  0.0083  0.5981
  836MOL0     C15269  12.646   1.317   3.731 -0.4829  0.3807 -1.3216
  836MOL0     C15270  12.776   1.362   3.798  0.1048 -0.1983  0.1404
  836MOL0     C15271  12.815   1.496   3.742 -1.1579 -0.5657 -0.2818
  836MOL0     C15272  12.938   1.557   3.810  0.5979 -1.0528 -0.5515
  836MOL0     C15273  13.076   1.534   3.754 -0.0263  0.3068  0.0698
  836MOL0     C15274  13.187   1.552   3.852  0.1904 -0.2839 -0.5345
  836MOL0    Cl15275  13.199   1.715   3.929  0.0468 -0.3681 -0.6485
  836MOL0     C15276  12.203   1.060   3.601 -0.5651  0.8395  0.1918
  836MOL0     C15277  12.080   1.046   3.534  0.0475 -0.8901 -0.0970
  836MOL0     O15278  11.815   0.892   3.511 -0.2102 -0.0860 -0.2579
  836MOL0     C15279  11.756   1.013   3.187  0.6965  0.6395 -0.0652
  836MOL0     C15280  11.649   1.043   3.105 -0.9207  0.2540 -0.6065
  836MOL0     N15281  10.915   1.292   2.969 -0.2974  0.6735  0.9861
  836MOL0     N15282  10.806   1.372   2.949  0.0004 -0.3281 -0.8411
  836MOL0     C15283   9.616   1.431   2.686 -0.3377  0.0252  0.6556
  836MOL0     C15284   9.514   1.441   2.774 -0.4627  0.6753  0.7232
  836MOL0     C15285   9.192   1.509   3.056  0.6218 -0.4503  0.0525
  836MOL0     C15286   9.196   1.396   3.135 -0.6081 -0.4642 -0.1951
  836MOL0     C15287   9.074   1.344   3.191 -0.5539 -0.4285 -0.3762
  836MOL0     C15288   8.954   1.411   3.167  0.4460  0.6005 -0.2354
  836MOL0     O15289   8.839   1.363   3.220 -0.2361  0.4505  0.7273
  836MOL0     C15290   8.755   1.287   3.126 -0.5849 -0.6543  0.2621
  836MOL0     C15291   8.637   1.228   3.194  0.0057  0.9677 -0.2619
  836MOL0     C15292   8.542   1.162   3.095 -0.3128 -0.1180 -0.4363
  836MOL0     C15293   8.410   1.137   3.170  0.0718  0.4255 -0.3506
  836MOL0     C15294   8.317   1.047   3.102 -0.5795  0.8535 -0.6939
  836MOL0     C15295   8.243   0.968   3.047 -0.0601  0.0092  0.5448
  836MOL0     C15296   8.947   1.529   3.101 -0.2068 -0.7268  0.1059
  836MOL0     C15297   9.068   1.588   3.045 -0.4669  0.6921  0.0859
  836MOL0     C15298   9.056   1.726   3.005 -0.4213  0.1179  0.4537
  836MOL0     H15299   9.673   1.414   3.074  2.1657  0.1433 -0.7912
  836MOL0     H15300   9.859   1.414   2.919  0.4062  3.1283 -1.5073
  836MOL0     H15301   9.940   1.593   2.695  1.3270  2.0482 -2.7547
  836MOL0     H15302   9.813   1.588   2.569  0.5796  1.5555  0.6722
  836MOL0     H15303   9.959   1.430   2.444  1.0011 -3.0751  3.1171
  836MOL0     H15304  10.010   1.595   2.458 -2.3002 -0.4286  0.8993
  836MOL0     H15305  10.199   1.559   2.601  4.1965 -2.3769 -1.1567
  836MOL0     H15306  10.108   1.435   2.684 -0.4830  3.4307  1.9183
  836MOL0     H15307  10.170   1.304   2.463 -3.5087  2.5812 -1.7512
  836MOL0     H15308  10.274   1.434   2.428  0.7951  1.4342  1.6812
  836MOL0     H15309  10.385   1.244   2.544 -2.4184  0.3797 -2.1413
  836MOL0     H15310  10.305   1.291   2.696 -0.5908 -2.5489 -1.1196
  836MOL0     H15311  10.499   1.458   2.510  0.8223  2.8935  1.3364
  836MOL0     H15312  10.440   1.531   2.647  3.1714  0.2537  1.6041
  836MOL0     H15313  10.636   1.312   2.627  0.0054 -2.0050  0.3588
  836MOL0     H15314  10.526   1.308   2.771  0.7592  0.2922  1.2687
  836MOL0     H15315  10.725   1.531   2.684 -2.0002 -1.8012 -3.0734
  836MOL0     H15316  10.624   1.535   2.833 -0.2837  0.4303 -0.4991
  836MOL0     H15317  10.911   1.345   2.643 -3.9418 -1.1144 -1.6074
  836MOL0     H15318  11.118   1.218   2.707  0.6237 -0.7384 -0.4850
  836MOL0     H15319  11.048   1.067   2.797 -0.7074  0.0661  2.0000
  836MOL0     H15320  11.237   1.286   2.893  3.2578 -1.3045 -2.8960
  836MOL0     H15321  11.162   1.146   2.994 -0.5402 -2.3147 -0.2584
  836MOL0     H15322  11.310   1.002   2.831 -1.5730 -0.0880  2.6988
  836MOL0     H15323  11.355   1.156   2.752  1.1001  4.0443  2.5698
  836MOL0     H15324  11.538   1.083   2.881  0.4266  1.6361  0.2701
  836MOL0     H15325  11.480   1.217   2.952  1.5361 -0.9461 -2.3478
  836MOL0     H15326  11.382   0.929   3.282 -0.4436  0.1141 -1.0476
  836MOL0     H15327  11.589   0.927   3.548 -0.9658  1.9564 -1.3881
  836MOL0     H15328  11.572   0.758   3.479  0.8730  0.9657  1.6881
  836MOL0     H15329  11.435   0.867   3.487 -0.0190 -0.3417 -1.5710
  836MOL0     H15330  12.182   0.813   3.312  1.3592  0.6896 -0.2042
  836MOL0     H15331  12.395   0.857   3.418  1.5576  0.0449  2.4166
  836MOL0     H15332  12.435   1.234   3.632  0.7945  0.8451  0.1971
  836MOL0     H15333  12.390   1.149   3.788 -0.4783 -0.1018 -0.5043
  836MOL0     H15334  12.610   1.121   3.846  3.1345  0.2642  0.3655
  836MOL0     H15335  12.647   1.110   3.679 -1.9249  2.2410 -3.3815
  836MOL0     H15336  12.573   1.393   3.757 -0.6941 -1.4885  5.4873
  836MOL0     H15337  12.678   1.322   3.627  2.7954 -3.6379 -0.7787
  836MOL0     H15338  12.860   1.291   3.797  0.8718  0.6920 -0.3893
  836MOL0     H15339  12.760   1.385   3.903  1.2314  1.6103 -0.0530
  836MOL0     H15340  12.841   1.483   3.637 -0.2272  0.4923 -0.2075
  836MOL0     H15341  12.726   1.560   3.740 -1.7515 -1.3936 -2.4868
  836MOL0     H15342  12.935   1.534   3.917  0.7704  1.7098  0.1370
  836MOL0     H15343  12.928   1.666   3.807  1.0384 -0.9784  0.1889
  836MOL0     H15344  13.101   1.591   3.665  1.0141  0.7219  0.6101
  836MOL0     H15345  13.074   1.431   3.716 -0.1937  0.1171  0.5690
  836MOL0     H15346  13.287   1.554   3.808  1.0999  0.8557  1.4506
  836MOL0     H15347  13.181   1.479   3.934  0.5602  0.4565  0.1672
  836MOL0     H15348  12.202   1.141   3.673  1.0349 -0.1812  1.4208
  836MOL0     H15349  11.991   1.098   3.569  0.1047 -1.5710  1.1251
  836MOL0     H15350  11.859   1.015   3.153  0.4466  0.4035 -0.8547
  836MOL0     H15351  11.678   1.094   3.013 -3.0771  0.7797 -1.0645
  836MOL0     H15352   9.608   1.448   2.579 -1.6184  3.3077  1.1468
  836MOL0     H15353   9.417   1.454   2.728  0.1729  1.4046 -0.4560
  836MOL0     H15354   9.290   1.344   3.150  1.5922  2.8517 -1.4404
  836MOL0     H15355   9.080   1.253   3.249 -2.7526 -0.2829  0.1578
  836MOL0     H15356   8.716   1.355   3.050 -1.1337 -0.9713  0.2480
  836MOL0     H15357   8.822   1.209   3.089  0.2519 -0.1029  0.6079
  836MOL0     H15358   8.588   1.310   3.248  1.6510  1.0689  1.1623
  836MOL0     H15359   8.669   1.141   3.253 -1.8087  1.5611  1.7408
  836MOL0     H15360   8.525   1.220   3.004 -1.0624 -0.0678 -0.2712
  836MOL0     H15361   8.583   1.066   3.065 -1.1306 -0.7840  0.5117
  836MOL0     H15362   8.364   1.236   3.172 -0.7173  0.1332  3.1331
  836MOL0     H15363   8.433   1.110   3.274  1.5574  2.1521 -0.1659
  836MOL0     H15364   8.177   0.901   2.996 -2.9463  2.3041  0.9403
  836MOL0     H15365   8.853   1.582   3.097 -0.1661 -0.4015  2.1173
  836MOL0     H15366   8.959   1.761   3.040 -0.4412  2.8423 -1.9551
  836MOL0     H15367   9.137   1.785   3.048  1.4754 -0.7071 -1.7208
  836MOL0     H15368   9.051   1.738   2.896 -1.0056  0.2181  0.4881
  837MOL0     O15369   9.075  10.954   7.386 -0.5870 -0.7310 -0.0927
  837MOL0     C15370   9.064  11.045   7.468  0.5280  0.4545  0.1303
  837MOL0     O15371   9.145  11.065   7.575 -0.2105 -0.7064 -0.1453
  837MOL0     C15372   9.246  10.979   7.603  0.0402  0.4239  0.3609
  837MOL0     C15373   9.234  10.880   7.705 -0.0933 -0.5304  0.0431
  837MOL0     C15374   9.329  10.773   7.714  0.4241 -0.4336 -0.5171
  837MOL0     C15375   9.427  10.751   7.621  0.1243 -0.5539  0.5466
  837MOL0     O15376   9.523  10.659   7.621 -0.1023  0.3637 -0.0182
  837MOL0     C15377   9.544  10.584   7.743  0.1944  0.3526  0.4354
  837MOL0     C15378   9.667  10.498   7.741 -0.1082  0.3118  0.0920
  837MOL0     C15379   9.648  10.367   7.648 -0.1814 -0.1429 -0.0395
  837MOL0     C15380   9.770  10.274   7.671  0.6109  0.3707 -0.0410
  837MOL0     C15381   9.879  10.307   7.581 -0.3909 -0.7612 -0.3856
  837MOL0     C15382  10.006  10.233   7.634 -0.7403 -0.7562  0.6128
  837MOL0     C15383  10.140  10.283   7.578 -0.5227 -0.5752 -0.8444
  837MOL0     C15384  10.259  10.185   7.609  0.0719  0.0327  0.1558
  837MOL0     N15385  10.280  10.174   7.749 -0.6387 -0.2400  0.8482
  837MOL0     C15386  10.256  10.063   7.826 -0.6769  0.3631  0.3987
  837MOL0     C15387  10.301  10.084   7.950 -0.6055 -0.6187  0.5070
  837MOL0     C15388  10.282   9.992   8.069  0.1182  0.1555  0.1235
  837MOL0     C15389  10.167  10.029   8.158 -0.2919 -0.0737 -0.1187
  837MOL0     C15390  10.037   9.962   8.107  0.3831 -0.0523 -0.5739
  837MOL0     C15391   9.937   9.955   8.221 -0.6779  0.3846 -0.2110
  837MOL0     O15392   9.814   9.950   8.150  0.3109  0.3147  0.0940
  837MOL0     C15393   9.696   9.925   8.218 -0.1935 -0.1009 -0.0159
  837MOL0     C15394   9.584   9.931   8.136 -0.0114 -0.1092 -0.4441
  837MOL0     C15395   9.463   9.888   8.191 -0.4420  0.6699 -0.3911
  837MOL0     C15396   9.346   9.912   8.099  1.0017  0.7562  0.4455
  837MOL0     C15397   9.456   9.822   8.317 -0.0125 -0.3975 -0.4489
  837MOL0     C15398   9.328   9.755   8.366 -1.5644  0.4416  0.1464
  837MOL0     O15399   9.329   9.723   8.503  0.1519  0.3610 -0.1430
  837MOL0     C15400   9.205   9.672   8.551  0.1925  0.6243  0.7621
  837MOL0     C15401   9.196   9.550   8.621  1.5032  0.3909 -0.9695
  837MOL0     C15402   9.071   9.500   8.669  0.8793 -0.1227  0.5507
  837MOL0     C15403   8.957   9.580   8.648  0.6979  0.2649  0.0023
  837MOL0     O15404   8.837   9.564   8.709 -0.3065  0.1446 -0.5216
  837MOL0     C15405   8.799   9.441   8.757  0.3369  0.2956 -0.4247
  837MOL0     C15406   8.747   9.355   8.645  0.2116 -0.2506  0.7128
  837MOL0     C15407   8.629   9.438   8.582 -0.5454  0.2622  0.0793
  837MOL0     C15408   8.547   9.339   8.494 -0.3866  0.0271 -0.4723
  837MOL0     C15409   8.405   9.376   8.494 -0.1921  0.2664  0.7032
  837MOL0     C15410   8.313   9.258   8.461  0.0485 -0.2752  0.0654
  837MOL0     C15411   8.166   9.310   8.449  0.1648 -1.0303 -0.6096
  837MOL0     C15412   8.086   9.206   8.377 -0.0151 -0.3466 -0.0276
  837MOL0    Cl15413   8.139   9.185   8.207  0.0632 -0.0331 -0.0927
  837MOL0     C15414   8.964   9.705   8.583  0.0341 -0.0720  0.0861
  837MOL0     C15415   9.089   9.753   8.543 -0.2708  0.6029  0.3919
  837MOL0     O15416   9.235   9.733   8.293 -0.1538 -0.0020  0.6244
  837MOL0     C15417   9.571   9.822   8.401  0.2379 -0.2696 -0.3461
  837MOL0     C15418   9.689   9.874   8.349  0.3369  0.0517  0.4141
  837MOL0     N15419  10.377  10.198   7.947  0.4440  0.3919  0.1932
  837MOL0     N15420  10.378  10.233   7.820 -1.4662 -0.1498  0.1724
  837MOL0     C15421   9.439  10.854   7.527 -0.3159  1.5435 -0.0680
  837MOL0     C15422   9.353  10.964   7.515  0.1117  0.1104 -0.3880
  837MOL0     C15423   8.960  11.146   7.455  0.5709  0.5679 -0.4701
  837MOL0     C15424   8.996  11.279   7.496  0.6150  0.2850  0.0659
  837MOL0     C15425   8.898  11.380   7.484  0.4830 -0.5492 -0.0552
  837MOL0     C15426   8.774  11.352   7.413  0.2968 -0.6300 -1.2628
  837MOL0     O15427   8.679  11.450   7.391 -0.3941  0.5356 -0.1888
  837MOL0     C15428   8.659  11.556   7.475  0.2017 -0.0603 -0.5866
  837MOL0     C15429   8.540  11.637   7.433 -0.3814 -0.3399  0.4987
  837MOL0     C15430   8.405  11.574   7.460 -0.0853 -0.3523  0.0984
  837MOL0     C15431   8.367  11.455   7.373 -0.5957  0.6886 -0.1527
  837MOL0     C15432   8.233  11.406   7.397  0.0753  0.7775  0.9527
  837MOL0     C15433   8.120  11.369   7.426 -0.2275  0.3398 -0.3075
  837MOL0     C15434   8.738  11.224   7.383  0.5212 -0.5295  0.2120
  837MOL0     C15435   8.826  11.117   7.409  0.0095 -0.2894  0.3806
  837MOL0     C15436   8.777  10.981   7.388 -0.0059  0.7497 -0.1768
  837MOL0     H15437   9.149  10.888   7.772 -1.1352 -1.4959 -1.1323
  837MOL0     H15438   9.291  10.703   7.788  1.5651  0.1094  0.6279
  837MOL0     H15439   9.451  10.535   7.772 -0.1553  0.2783 -0.7559
  837MOL0     H15440   9.558  10.662   7.819  1.6857  0.4275  0.1030
  837MOL0     H15441   9.753  10.554   7.703 -1.9120  2.0547 -1.6181
  837MOL0     H15442   9.684  10.458   7.842  0.8053  0.6609  0.0867
  837MOL0     H15443   9.558  10.314   7.681 -1.3746  1.8338 -0.0317
  837MOL0     H15444   9.629  10.409   7.549  0.6056  1.6413  0.5400
  837MOL0     H15445   9.785  10.282   7.779  0.8573 -0.5239 -0.0017
  837MOL0     H15446   9.737  10.171   7.658 -3.7385  0.7749  4.6011
  837MOL0     H15447   9.902  10.414   7.584  1.7984 -1.1897  0.5929
  837MOL0     H15448   9.843  10.276   7.483 -0.3963 -2.9686  0.2788
  837MOL0     H15449  10.015  10.232   7.743  2.9826  1.2137  0.4858
  837MOL0     H15450   9.984  10.133   7.597  0.3529 -0.7306 -0.1564
  837MOL0     H15451  10.158  10.380   7.626 -0.1808 -0.5623 -0.9958
  837MOL0     H15452  10.125  10.301   7.471  1.2079  1.2060 -0.8607
  837MOL0     H15453  10.243  10.088   7.561  2.5111  0.1946 -1.1739
  837MOL0     H15454  10.351  10.217   7.559  0.3890 -1.6911 -0.4434
  837MOL0     H15455  10.206   9.974   7.790 -0.7680 -0.2851  2.0561
  837MOL0     H15456  10.377   9.993   8.123 -0.4759  1.7902  1.2317
  837MOL0     H15457  10.270   9.892   8.028 -1.9030 -0.3393  1.7452
  837MOL0     H15458  10.185  10.008   8.264  3.1409  1.0305 -0.3352
  837MOL0     H15459  10.146  10.136   8.159 -3.8182 -0.6604  1.2137
  837MOL0     H15460  10.009  10.024   8.021  2.8748 -0.8246 -2.0291
  837MOL0     H15461  10.041   9.858   8.072 -2.6551 -0.7644  0.7925
  837MOL0     H15462   9.962   9.862   8.275  1.2814  1.2077  0.4089
  837MOL0     H15463   9.932  10.036   8.294 -0.4877 -1.0386  1.4714
  837MOL0     H15464   9.583   9.960   8.031 -1.2850 -0.0183 -0.4216
  837MOL0     H15465   9.362  10.008   8.048  2.2912  0.6272  0.5833
  837MOL0     H15466   9.257   9.924   8.161  0.5668  0.2369 -0.0593
  837MOL0     H15467   9.340   9.833   8.023  2.8861  0.8832  0.1033
  837MOL0     H15468   9.294   9.506   8.634  1.5221  0.7015  0.0403
  837MOL0     H15469   9.050   9.407   8.720 -1.9805  0.1107 -0.0209
  837MOL0     H15470   8.876   9.396   8.820 -1.0038  0.5520  1.4927
  837MOL0     H15471   8.717   9.453   8.829  3.4625  1.3262  3.2664
  837MOL0     H15472   8.820   9.327   8.569 -2.0094 -2.2257 -0.8161
  837MOL0     H15473   8.708   9.264   8.692  0.9644 -0.7958  0.3049
  837MOL0     H15474   8.665   9.516   8.515  1.3224  0.4796  1.2643
  837MOL0     H15475   8.567   9.479   8.663  1.2735  0.2227  1.5662
  837MOL0     H15476   8.562   9.235   8.525 -1.3196 -1.0113 -3.1701
  837MOL0     H15477   8.576   9.350   8.389  0.1616 -1.5878 -0.5113
  837MOL0     H15478   8.379   9.408   8.595 -1.3833 -1.3522  0.9592
  837MOL0     H15479   8.395   9.463   8.429  0.0582  0.3990  0.8430
  837MOL0     H15480   8.316   9.183   8.541  0.5349 -1.4607 -1.0286
  837MOL0     H15481   8.344   9.205   8.370  0.5083 -0.5807  0.3940
  837MOL0     H15482   8.162   9.408   8.400 -2.4841 -1.1278 -0.7302
  837MOL0     H15483   8.144   9.326   8.555 -1.3046 -2.4788 -0.6597
  837MOL0     H15484   7.980   9.234   8.374 -0.0911 -0.7054 -1.3984
  837MOL0     H15485   8.081   9.104   8.418 -1.7071 -0.6756 -0.9515
  837MOL0     H15486   8.869   9.756   8.570 -0.5142 -1.4528 -1.7831
  837MOL0     H15487   9.082   9.854   8.504  0.3536  0.7867  0.7477
  837MOL0     H15488   9.562   9.782   8.502  0.5291  0.0731 -0.1802
  837MOL0     H15489   9.775   9.862   8.413  0.1603 -0.8235  0.4913
  837MOL0     H15490   9.518  10.839   7.454  1.8010  1.1818  2.1506
  837MOL0     H15491   9.358  11.024   7.425 -0.4996  0.3182 -0.2899
  837MOL0     H15492   9.090  11.304   7.543  0.2265 -0.4396  1.2926
  837MOL0     H15493   8.906  11.485   7.508 -2.2212 -0.8821  3.0177
  837MOL0     H15494   8.642  11.522   7.578  0.2278 -0.8536 -0.8444
  837MOL0     H15495   8.753  11.612   7.473 -0.3133  0.8348 -0.6180
  837MOL0     H15496   8.553  11.656   7.326 -2.9543  1.0241  0.3529
  837MOL0     H15497   8.539  11.739   7.471  1.6112  0.2209 -0.8164
  837MOL0     H15498   8.393  11.549   7.565 -1.3761 -1.6500 -0.3195
  837MOL0     H15499   8.327  11.651   7.453 -0.5358 -0.8286 -0.2513
  837MOL0     H15500   8.440  11.376   7.392 -2.4717 -0.9730  0.5385
  837MOL0     H15501   8.365  11.483   7.267  0.5490 -0.9595 -0.6594
  837MOL0     H15502   8.025  11.334   7.462  0.4512 -0.8978  0.3322
  837MOL0     H15503   8.636  11.213   7.346  0.6597 -2.2298  0.2513
  837MOL0     H15504   8.672  10.968   7.361 -0.0165 -0.0825  0.2234
  837MOL0     H15505   8.837  10.928   7.313 -0.9883  1.5895 -1.6056
  837MOL0     H15506   8.792  10.932   7.485  2.5699 -0.9978 -1.3374
  838MOL0     O15507  11.248   4.275   6.655  0.1573 -0.3891 -0.2876
  838MOL0     C15508  11.176   4.332   6.739 -0.2092 -0.1297  0.5761
  838MOL0     O15509  11.060   4.286   6.791  0.5093  0.0262 -0.3570
  838MOL0     C15510  10.976   4.209   6.724 -0.8972  1.1145  0.0400
  838MOL0     C15511  10.878   4.142   6.794  0.4179  0.9207 -0.1565
  838MOL0     C15512  10.779   4.075   6.725  0.1172  0.6000  0.0004
  838MOL0     C15513  10.772   4.069   6.581 -0.1287 -0.1103  0.1703
  838MOL0     O15514  10.683   3.996   6.500  0.1805 -0.1023  0.1983
  838MOL0     C15515  10.576   3.922   6.570 -0.5116  0.6761  0.3633
  838MOL0     C15516  10.629   3.779   6.604 -0.9984  0.8298  0.4333
  838MOL0     C15517  10.664   3.695   6.478 -0.8269  0.0663 -0.4368
  838MOL0     C15518  10.797   3.721   6.407  0.1956 -0.2373  0.6249
  838MOL0     C15519  10.857   3.599   6.335 -1.0355 -0.0466 -0.9250
  838MOL0     C15520  10.780   3.569   6.211 -0.3262 -0.0793  1.3694
  838MOL0     C15521  10.867   3.475   6.116  0.8143 -0.6355  0.3232
  838MOL0     C15522  10.959   3.553   6.031  0.8648  0.6548  0.5662
  838MOL0     N15523  11.023   3.464   5.936  0.5796  0.1368 -0.5709
  838MOL0     C15524  11.119   3.374   5.975 -0.3753 -0.3083  0.5748
  838MOL0     C15525  11.155   3.322   5.856  0.7259  0.8277  0.3439
  838MOL0     C15526  11.276   3.223   5.834  0.3337 -0.3652 -0.0135
  838MOL0     C15527  11.409   3.292   5.869  0.3496 -0.4941 -0.2572
  838MOL0     C15528  11.470   3.389   5.765  0.5048  0.1715 -0.1122
  838MOL0     C15529  11.604   3.455   5.815  0.0962  0.1849 -0.1485
  838MOL0     O15530  11.703   3.347   5.806 -0.1220 -0.1732 -0.4083
  838MOL0     C15531  11.837   3.371   5.804 -0.4293  0.0354  0.0891
  838MOL0     C15532  11.918   3.270   5.773 -0.1008  0.0342 -0.2765
  838MOL0     C15533  12.060   3.281   5.774 -0.4499  0.0911  0.8690
  838MOL0     C15534  12.129   3.164   5.714 -0.2793  0.0672  0.5776
  838MOL0     C15535  12.121   3.394   5.825 -0.1376 -0.0363 -0.9646
  838MOL0     C15536  12.265   3.413   5.833 -0.3901  0.1133 -1.0198
  838MOL0     O15537  12.344   3.300   5.848 -1.0074 -0.0916 -0.5775
  838MOL0     C15538  12.462   3.327   5.927 -0.4448 -0.4505  0.0865
  838MOL0     C15539  12.579   3.341   5.857 -0.1390  0.1792  0.6321
  838MOL0     C15540  12.690   3.392   5.921  0.4681  0.3202 -0.1772
  838MOL0     C15541  12.687   3.420   6.055  0.0237  0.2407 -0.1885
  838MOL0     O15542  12.806   3.459   6.118 -0.3383  0.3789  0.5262
  838MOL0     C15543  12.819   3.527   6.234  0.2017 -0.0225  0.0609
  838MOL0     C15544  12.967   3.553   6.285  0.2697  0.5554 -0.3017
  838MOL0     C15545  13.043   3.638   6.187 -0.5109  0.8544  0.4886
  838MOL0     C15546  13.177   3.686   6.251 -0.0040  0.1101  0.3324
  838MOL0     C15547  13.237   3.797   6.166  1.1591 -0.2314 -0.2689
  838MOL0     C15548  13.309   3.729   6.051  0.4495 -0.6280 -0.2034
  838MOL0     C15549  13.368   3.835   5.955 -0.4862 -0.3386 -0.2654
  838MOL0     C15550  13.446   3.776   5.836  0.5684  0.1439 -0.4230
  838MOL0    Cl15551  13.348   3.638   5.761  0.2385  0.2775  0.2498
  838MOL0     C15552  12.577   3.402   6.134  0.3217 -0.7174  0.4319
  838MOL0     C15553  12.461   3.360   6.066 -0.0421 -0.5927  0.0455
  838MOL0     O15554  12.317   3.523   5.828  0.6479  0.0760 -0.1890
  838MOL0     C15555  12.035   3.495   5.871  1.3230 -0.8445  0.1771
  838MOL0     C15556  11.897   3.486   5.852 -0.2798 -0.2253  0.5062
  838MOL0     N15557  11.059   3.355   5.764 -0.4853 -0.2560 -0.0304
  838MOL0     N15558  10.986   3.454   5.809  0.5863 -0.1593 -0.4399
  838MOL0     C15559  10.877   4.123   6.516  0.3845 -0.6354  0.3119
  838MOL0     C15560  10.980   4.197   6.584 -0.5313 -0.2073 -0.2000
  838MOL0     C15561  11.216   4.463   6.789  0.8069  0.1134  0.1028
  838MOL0     C15562  11.110   4.548   6.839 -0.2276  0.7169  0.0415
  838MOL0     C15563  11.145   4.669   6.905  0.1840  0.3534 -0.5441
  838MOL0     C15564  11.282   4.712   6.915  0.3509 -0.2802 -0.5072
  838MOL0     O15565  11.315   4.832   6.986 -0.1238 -0.3986  0.2512
  838MOL0     C15566  11.229   4.870   7.095 -0.2339  0.8520 -0.7402
  838MOL0     C15567  11.314   4.924   7.217 -0.0452  0.1464 -0.0123
  838MOL0     C15568  11.441   5.003   7.160  0.8987 -0.2530 -0.2708
  838MOL0     C15569  11.407   5.143   7.127 -0.3200 -0.5336  0.3721
  838MOL0     C15570  11.347   5.221   7.234 -0.2761 -0.5505 -0.0036
  838MOL0     C15571  11.305   5.279   7.331 -0.0568 -0.2961  0.4861
  838MOL0     C15572  11.372   4.635   6.856  0.3609 -0.0772  0.6698
  838MOL0     C15573  11.349   4.512   6.797 -0.3938  0.6085  1.0125
  838MOL0     C15574  11.481   4.440   6.750  0.3032 -0.2299 -0.5838
  838MOL0     H15575  10.884   4.130   6.902  1.0741  0.5018 -0.2393
  838MOL0     H15576  10.700   4.024   6.780 -1.3074  0.2444 -2.2682
  838MOL0     H15577  10.498   3.913   6.493 -0.3206 -2.7714  0.4036
  838MOL0     H15578  10.522   3.971   6.651 -0.2552 -0.6922  1.3909
  838MOL0     H15579  10.718   3.775   6.667  0.9094  0.2184 -2.1507
  838MOL0     H15580  10.545   3.732   6.658 -0.6535 -0.5211 -0.1613
  838MOL0     H15581  10.671   3.590   6.509 -0.1350 -0.0047 -0.8230
  838MOL0     H15582  10.586   3.698   6.401  0.3669  1.5267 -1.6569
  838MOL0     H15583  10.787   3.801   6.333 -1.6852 -0.4776  0.5735
  838MOL0     H15584  10.867   3.744   6.487 -0.0209 -1.8659  1.3293
  838MOL0     H15585  10.854   3.518   6.408  2.1609 -1.2167 -1.9139
  838MOL0     H15586  10.961   3.624   6.311 -1.7910  2.9494 -1.5665
  838MOL0     H15587  10.683   3.524   6.233 -0.3792  0.7963  3.1399
  838MOL0     H15588  10.756   3.663   6.160  1.4796 -0.0217  0.5474
  838MOL0     H15589  10.794   3.422   6.053 -2.5985 -0.5560  3.8139
  838MOL0     H15590  10.918   3.399   6.175  0.2204  1.7760  4.3363
  838MOL0     H15591  10.912   3.625   5.963  2.3130 -2.0958 -3.7908
  838MOL0     H15592  11.041   3.598   6.088  0.3177  3.3023 -0.5478
  838MOL0     H15593  11.159   3.349   6.073  2.6556  1.2050 -0.1527
  838MOL0     H15594  11.271   3.185   5.732 -2.0231  0.7960 -0.4098
  838MOL0     H15595  11.264   3.144   5.908  0.8500  1.7137  2.4503
  838MOL0     H15596  11.400   3.340   5.967 -2.9495  0.9053 -1.1059
  838MOL0     H15597  11.479   3.209   5.884  0.8896 -0.0173 -0.1476
  838MOL0     H15598  11.490   3.341   5.669  2.9649 -1.2893  1.0457
  838MOL0     H15599  11.389   3.458   5.740 -0.7207 -0.5203  1.7230
  838MOL0     H15600  11.634   3.528   5.738  1.2135  0.0253  0.1150
  838MOL0     H15601  11.594   3.497   5.915 -3.1191 -1.0371  0.1433
  838MOL0     H15602  11.873   3.180   5.732 -0.9868 -0.8088  2.3145
  838MOL0     H15603  12.065   3.079   5.689  0.0360  0.4522 -1.7881
  838MOL0     H15604  12.210   3.127   5.777  0.2702 -1.5151 -0.9510
  838MOL0     H15605  12.166   3.196   5.616 -3.4271  1.8221 -0.1516
  838MOL0     H15606  12.581   3.316   5.752  0.2453 -2.4269  1.1687
  838MOL0     H15607  12.777   3.421   5.863  2.4409  0.0201  2.4361
  838MOL0     H15608  12.763   3.621   6.230  1.2608  0.5686 -1.5150
  838MOL0     H15609  12.774   3.474   6.319 -1.0476  1.1160  0.1519
  838MOL0     H15610  12.964   3.606   6.380 -2.1326  1.8480 -1.0222
  838MOL0     H15611  13.017   3.460   6.316 -0.1245  1.2445  2.6643
  838MOL0     H15612  12.981   3.727   6.171 -0.0978  0.6723 -2.5931
  838MOL0     H15613  13.057   3.597   6.087  1.8618  0.5800  0.8874
  838MOL0     H15614  13.253   3.608   6.259  1.2130  1.2344  0.2051
  838MOL0     H15615  13.158   3.718   6.353  0.9040  0.1190  0.5100
  838MOL0     H15616  13.161   3.870   6.139  3.1866  2.3545  0.6172
  838MOL0     H15617  13.308   3.857   6.222 -0.0028  0.1298  0.8515
  838MOL0     H15618  13.237   3.661   6.004 -1.6690 -0.8417  3.0201
  838MOL0     H15619  13.394   3.671   6.088  1.6867  2.5803  2.5640
  838MOL0     H15620  13.439   3.905   6.000  1.7144 -3.3552  1.3341
  838MOL0     H15621  13.287   3.900   5.920  1.5499  3.3654  1.3665
  838MOL0     H15622  13.540   3.738   5.877 -0.1372  0.7406  1.8881
  838MOL0     H15623  13.460   3.849   5.756 -2.0348  0.0785 -1.0273
  838MOL0     H15624  12.569   3.422   6.240  1.5302 -1.7397  0.7353
  838MOL0     H15625  12.360   3.361   6.105 -0.1599 -0.9840 -0.2362
  838MOL0     H15626  12.068   3.581   5.929 -2.4950  0.3562  0.9089
  838MOL0     H15627  11.846   3.578   5.877 -1.7261 -1.3690  2.0260
  838MOL0     H15628  10.866   4.127   6.408  2.2946  0.6920  0.1178
  838MOL0     H15629  11.052   4.248   6.521  1.1811 -0.6877  1.2722
  838MOL0     H15630  11.007   4.513   6.830 -0.0234 -0.6091  2.1026
  838MOL0     H15631  11.061   4.736   6.919  0.0464 -0.1088  0.9891
  838MOL0     H15632  11.161   4.948   7.060  1.2965  1.7607 -1.8155
  838MOL0     H15633  11.173   4.781   7.125 -0.0724  0.1460 -2.4431
  838MOL0     H15634  11.345   4.833   7.270  0.1871 -0.8807 -1.8171
  838MOL0     H15635  11.257   4.991   7.282 -1.1489  1.4327 -2.2086
  838MOL0     H15636  11.517   5.002   7.239  2.3196 -0.2890 -1.5958
  838MOL0     H15637  11.478   4.955   7.069 -3.5109 -1.2278 -1.7913
  838MOL0     H15638  11.339   5.140   7.041 -0.4191  1.7865  0.3172
  838MOL0     H15639  11.494   5.196   7.088 -3.4866  4.4785 -0.7173
  838MOL0     H15640  11.285   5.341   7.416  1.7882  1.2630 -0.1308
  838MOL0     H15641  11.476   4.666   6.859 -0.2433  2.5255 -1.3213
  838MOL0     H15642  11.464   4.399   6.650  4.3655 -1.9486 -0.7480
  838MOL0     H15643  11.562   4.510   6.728  2.6485 -2.9449 -1.1222
  838MOL0     H15644  11.521   4.362   6.816 -0.3521 -0.7419 -0.7796
  839MOL0     O15645  10.692  11.197   8.498 -0.0203  0.0667  0.2493
  839MOL0     C15646  10.778  11.142   8.569 -0.7197 -0.8916  0.8857
  839MOL0     O15647  10.911  11.164   8.546 -0.3187  0.2531  0.0358
  839MOL0     C15648  10.965  11.181   8.416 -0.0360  0.3160  0.0160
  839MOL0     C15649  10.901  11.171   8.289 -0.1875 -0.1051  0.1079
  839MOL0     C15650  10.973  11.186   8.171 -0.4563  1.0449 -0.5519
  839MOL0     C15651  11.107  11.217   8.171  0.6125 -0.2485 -0.3621
  839MOL0     O15652  11.178  11.234   8.059 -0.0305 -0.3382  0.2691
  839MOL0     C15653  11.121  11.285   7.932  0.2167  0.1142 -0.1162
  839MOL0     C15654  11.180  11.416   7.902 -0.2208 -0.5857  0.0344
  839MOL0     C15655  11.125  11.474   7.773  0.1816 -0.2126  0.4006
  839MOL0     C15656  11.160  11.622   7.728 -1.1701 -0.3376  0.9164
  839MOL0     C15657  11.316  11.645   7.734  0.6755  0.5679 -0.5750
  839MOL0     C15658  11.349  11.771   7.666  1.0872 -0.0382  0.8691
  839MOL0     C15659  11.478  11.829   7.716 -0.1879  0.9730  0.3868
  839MOL0     C15660  11.599  11.739   7.689  0.3817  0.6696 -0.4931
  839MOL0     N15661  11.730  11.794   7.720 -0.4733  0.1552 -0.4011
  839MOL0     C15662  11.769  11.913   7.662 -0.5414  0.2459  0.2349
  839MOL0     C15663  11.878  11.952   7.736 -0.1061  0.2184 -0.2481
  839MOL0     C15664  11.958  12.075   7.710  1.2655  0.2606  0.3183
  839MOL0     C15665  12.017  12.116   7.843 -0.1437 -0.1609  0.5156
  839MOL0     C15666  11.922  12.199   7.925 -0.1303  0.4432 -0.1477
  839MOL0     C15667  11.970  12.252   8.064  0.8988  0.0580  1.1439
  839MOL0     O15668  12.110  12.277   8.042 -0.0888 -0.2923 -0.1434
  839MOL0     C15669  12.207  12.254   8.140  0.6276  0.3393 -0.2160
  839MOL0     C15670  12.182  12.214   8.275  0.1206 -0.1681  0.1761
  839MOL0     C15671  12.286  12.196   8.369  0.7862 -0.5170 -0.0062
  839MOL0     C15672  12.249  12.149   8.495  0.2955 -0.3799 -0.7387
  839MOL0     C15673  12.425  12.204   8.321 -0.3481  0.4593 -0.6171
  839MOL0     C15674  12.551  12.174   8.398  0.0158 -1.0024 -0.4495
  839MOL0     O15675  12.665  12.188   8.326  0.0311  0.6417 -0.7185
  839MOL0     C15676  12.788  12.192   8.377 -0.6134  0.7986  0.4898
  839MOL0     C15677  12.831  12.217   8.512 -0.0800 -0.3735  0.1892
  839MOL0     C15678  12.967  12.215   8.552  0.3698  0.9583 -0.5748
  839MOL0     C15679  13.066  12.174   8.457 -0.2344  0.1208  0.2657
  839MOL0     O15680  13.201  12.149   8.487 -0.1777  0.0782  0.5591
  839MOL0     C15681  13.261  12.219   8.597 -0.5049 -0.3577 -0.0676
  839MOL0     C15682  13.395  12.265   8.541 -0.1889 -0.2166  0.0264
  839MOL0     C15683  13.495  12.154   8.506 -0.3724  0.8282 -0.6998
  839MOL0     C15684  13.641  12.200   8.494 -0.3375 -0.6895  0.2806
  839MOL0     C15685  13.737  12.092   8.540 -1.1570 -0.3151 -0.2877
  839MOL0     C15686  13.885  12.145   8.531  0.6815 -0.4766 -0.4734
  839MOL0     C15687  13.986  12.046   8.581 -0.4670  0.3312 -0.4128
  839MOL0     C15688  14.132  12.090   8.570 -0.0131  0.1456 -1.0541
  839MOL0    Cl15689  14.189  12.104   8.405  0.2813  0.1830 -0.0475
  839MOL0     C15690  13.022  12.143   8.328  1.1235 -0.7402  0.0350
  839MOL0     C15691  12.888  12.159   8.285 -0.3014  0.2641  0.3543
  839MOL0     O15692  12.547  12.138   8.515 -0.6315  0.0831 -0.3968
  839MOL0     C15693  12.443  12.240   8.191  0.0039  0.6032  0.2355
  839MOL0     C15694  12.339  12.260   8.102 -1.0467  0.0654 -0.6379
  839MOL0     N15695  11.909  11.852   7.831  0.1827  0.2379  0.2958
  839MOL0     N15696  11.826  11.748   7.807  0.5128 -0.8611 -0.2639
  839MOL0     C15697  11.174  11.216   8.301 -0.0260 -0.3199  0.8089
  839MOL0     C15698  11.099  11.214   8.419 -0.1523  0.0060 -0.1439
  839MOL0     C15699  10.752  11.098   8.710  0.0474  0.5912  0.1744
  839MOL0     C15700  10.864  11.074   8.802 -0.5456 -0.4624  0.0286
  839MOL0     C15701  10.833  11.026   8.932  0.0786  0.3991 -0.1699
  839MOL0     C15702  10.710  10.990   8.962  0.9217  0.1342  0.0810
  839MOL0     O15703  10.691  10.927   9.086 -0.6163 -0.2083 -0.1069
  839MOL0     C15704  10.556  10.921   9.144 -0.1983  0.3282  0.3731
  839MOL0     C15705  10.518  11.053   9.205 -0.3036  0.4781 -0.0196
  839MOL0     C15706  10.607  11.090   9.322  0.1825  0.3420  0.1769
  839MOL0     C15707  10.547  11.208   9.414  0.5025  0.2471  0.5100
  839MOL0     C15708  10.454  11.139   9.501 -0.2800 -0.7741 -0.2578
  839MOL0     C15709  10.392  11.057   9.566  0.4697  0.3915  0.6780
  839MOL0     C15710  10.599  11.008   8.884  0.8982 -0.0933  0.3698
  839MOL0     C15711  10.618  11.080   8.767  0.1194 -1.0479  0.3072
  839MOL0     C15712  10.490  11.106   8.690 -0.8010  0.3542 -0.5853
  839MOL0     H15713  10.798  11.142   8.274  0.2748 -0.3312 -3.5470
  839MOL0     H15714  10.917  11.175   8.078  1.4287  1.1374 -1.7496
  839MOL0     H15715  11.012  11.277   7.926  0.2292 -0.0543 -0.1429
  839MOL0     H15716  11.154  11.215   7.855 -2.0109 -1.6217  0.3979
  839MOL0     H15717  11.144  11.486   7.979 -0.9420 -0.7864 -0.1124
  839MOL0     H15718  11.289  11.411   7.906 -0.0319  2.1678  0.6218
  839MOL0     H15719  11.157  11.405   7.695  0.0407  1.3618 -1.1008
  839MOL0     H15720  11.016  11.460   7.779  0.0270 -0.2119 -1.6942
  839MOL0     H15721  11.144  11.637   7.621 -0.0418  1.9852  1.0007
  839MOL0     H15722  11.109  11.696   7.792  0.9655 -0.6989  3.2011
  839MOL0     H15723  11.374  11.563   7.692 -0.1825  0.5183 -1.6979
  839MOL0     H15724  11.337  11.650   7.841  0.1416 -2.8301 -0.1972
  839MOL0     H15725  11.357  11.749   7.559 -0.1558 -0.7380  0.8938
  839MOL0     H15726  11.269  11.843   7.687 -0.2219 -1.8326  2.2948
  839MOL0     H15727  11.469  11.854   7.822 -7.0552  0.7281  0.2780
  839MOL0     H15728  11.495  11.928   7.671  0.4785  1.1150  0.9265
  839MOL0     H15729  11.596  11.649   7.752 -1.7725 -0.1830 -1.7023
  839MOL0     H15730  11.607  11.712   7.583  5.4495  1.6709 -0.6408
  839MOL0     H15731  11.709  11.960   7.584 -3.3251  0.2724  2.2058
  839MOL0     H15732  11.893  12.160   7.686  1.8856  0.5752 -0.2921
  839MOL0     H15733  12.037  12.068   7.634  0.2838  1.4132 -0.8579
  839MOL0     H15734  12.056  12.033   7.903 -1.4748 -0.5563  0.8544
  839MOL0     H15735  12.103  12.179   7.818  0.9143 -2.0491 -0.8452
  839MOL0     H15736  11.908  12.293   7.871  0.6919  0.3570 -0.5267
  839MOL0     H15737  11.828  12.147   7.945  0.5712 -2.0112 -2.5460
  839MOL0     H15738  11.912  12.342   8.084  1.2141  0.4787  0.2142
  839MOL0     H15739  11.944  12.187   8.149 -0.6475 -1.2354 -0.2519
  839MOL0     H15740  12.080  12.206   8.312  0.4116 -1.3450  0.7744
  839MOL0     H15741  12.144  12.123   8.507 -0.0188 -0.3849 -2.9981
  839MOL0     H15742  12.268  12.222   8.574  0.3756 -2.0646  0.8873
  839MOL0     H15743  12.305  12.060   8.525 -0.8346 -0.1440  2.4066
  839MOL0     H15744  12.753  12.233   8.586  2.0873  2.1399  2.1541
  839MOL0     H15745  12.987  12.243   8.655 -1.0201  1.5572 -0.4466
  839MOL0     H15746  13.208  12.309   8.629  1.2922  1.1182 -1.0058
  839MOL0     H15747  13.271  12.154   8.685 -2.8511  1.6099  1.8300
  839MOL0     H15748  13.374  12.330   8.456  2.6035 -0.5160 -1.0125
  839MOL0     H15749  13.448  12.317   8.621 -1.0301  0.0044  0.4388
  839MOL0     H15750  13.461  12.104   8.415 -1.8974  2.9368 -1.3622
  839MOL0     H15751  13.498  12.076   8.583  3.9448  0.4297 -0.9755
  839MOL0     H15752  13.662  12.284   8.561 -0.9063 -0.1340 -0.2134
  839MOL0     H15753  13.667  12.238   8.395 -0.6205 -0.5170  0.2677
  839MOL0     H15754  13.722  12.067   8.646  5.0343  0.2407  1.1131
  839MOL0     H15755  13.728  11.999   8.482 -1.9797  0.4918 -1.4920
  839MOL0     H15756  13.888  12.242   8.580  1.9724 -0.4718 -0.5128
  839MOL0     H15757  13.896  12.162   8.423 -3.2569  0.1253 -0.9337
  839MOL0     H15758  13.970  11.951   8.530 -0.8706  1.3743 -2.3442
  839MOL0     H15759  13.974  12.028   8.688  3.1008 -2.2438 -0.2848
  839MOL0     H15760  14.186  12.016   8.630  0.2644  1.0176 -0.1928
  839MOL0     H15761  14.137  12.187   8.619 -0.9132 -0.7139  0.8786
  839MOL0     H15762  13.103  12.108   8.265 -0.3795 -5.4307  0.3286
  839MOL0     H15763  12.856  12.125   8.187  2.4861 -1.4643 -0.0651
  839MOL0     H15764  12.543  12.250   8.149  0.0695 -0.3418  0.1623
  839MOL0     H15765  12.359  12.297   8.002 -0.8062  1.0582 -0.2369
  839MOL0     H15766  11.281  11.230   8.308 -0.0248  0.4155 -0.5223
  839MOL0     H15767  11.149  11.226   8.514 -1.3802  0.6626  0.4403
  839MOL0     H15768  10.967  11.100   8.780 -0.1001  2.2230  4.1127
  839MOL0     H15769  10.906  11.023   9.012 -0.6989  2.3322  0.6889
  839MOL0     H15770  10.480  10.875   9.080  0.6011 -0.1163 -0.2585
  839MOL0     H15771  10.565  10.852   9.228 -2.9475  1.4651  1.7334
  839MOL0     H15772  10.418  11.037   9.245 -0.5903 -0.2396 -0.9687
  839MOL0     H15773  10.514  11.132   9.129 -5.1791  0.8257  0.3252
  839MOL0     H15774  10.638  11.006   9.385 -0.3260  0.9324  1.2344
  839MOL0     H15775  10.702  11.125   9.280  0.0582 -1.2192 -1.5326
  839MOL0     H15776  10.498  11.278   9.346  1.0302 -1.3225 -1.6070
  839MOL0     H15777  10.627  11.266   9.460 -0.0950  1.6844 -0.2141
  839MOL0     H15778  10.332  10.983   9.615  0.8019  0.8813  1.8692
  839MOL0     H15779  10.498  10.979   8.910 -0.2820  1.2171 -2.3283
  839MOL0     H15780  10.478  11.037   8.606 -0.1625  0.7265 -0.9953
  839MOL0     H15781  10.403  11.094   8.755 -0.9358 -2.0850 -1.1161
  839MOL0     H15782  10.471  11.208   8.655 -2.3875  0.9499  1.7293
  840MOL0     O15783   7.797   3.293   5.112  1.1966  0.0161 -0.2865
  840MOL0     C15784   7.803   3.265   4.991  0.3249 -0.2913  0.3404
  840MOL0     O15785   7.913   3.290   4.909  0.3168  0.4714  0.3537
  840MOL0     C15786   8.028   3.347   4.953  1.0032 -0.7168  0.6963
  840MOL0     C15787   8.097   3.436   4.873  0.3359  0.5087 -0.4255
  840MOL0     C15788   8.222   3.494   4.913  0.4278  0.5510  0.3823
  840MOL0     C15789   8.272   3.462   5.034 -0.2025  0.2530  0.0250
  840MOL0     O15790   8.399   3.506   5.059 -0.9015 -0.5045 -0.2638
  840MOL0     C15791   8.457   3.501   5.192  0.2834 -0.2244 -0.1723
  840MOL0     C15792   8.594   3.572   5.188  0.8455  0.5461  0.4153
  840MOL0     C15793   8.599   3.699   5.282  0.3902  0.4201 -0.6169
  840MOL0     C15794   8.734   3.761   5.313  0.8679 -0.2777 -0.2626
  840MOL0     C15795   8.797   3.688   5.436  0.1231 -0.1630  0.1784
  840MOL0     C15796   8.937   3.736   5.464 -0.5787 -0.2112 -0.3690
  840MOL0     C15797   8.993   3.671   5.591  0.3027 -0.5801  0.6584
  840MOL0     C15798   9.149   3.683   5.596 -0.0703 -0.4266  0.1655
  840MOL0     N15799   9.194   3.823   5.623  0.1897  0.8006  1.1170
  840MOL0     C15800   9.279   3.900   5.545  0.3332 -0.2420  0.5982
  840MOL0     C15801   9.288   4.012   5.609  0.0186 -0.7604 -0.1732
  840MOL0     C15802   9.384   4.123   5.581  0.3145  0.3413 -0.1651
  840MOL0     C15803   9.365   4.237   5.685  0.1007 -0.1282 -0.1824
  840MOL0     C15804   9.437   4.364   5.639  0.4450  0.8337  0.2199
  840MOL0     C15805   9.416   4.476   5.736  0.4787 -0.1071 -0.3113
  840MOL0     O15806   9.469   4.458   5.865 -0.1345  0.0473  0.1728
  840MOL0     C15807   9.608   4.474   5.871  0.8729  0.1660 -0.5031
  840MOL0     C15808   9.695   4.373   5.862 -0.1199  0.4718  0.5190
  840MOL0     C15809   9.830   4.399   5.869  0.1904  0.2830 -0.0297
  840MOL0     C15810   9.922   4.276   5.866 -0.2061  0.3319  0.2153
  840MOL0     C15811   9.881   4.533   5.878 -0.5051  0.6113 -0.3587
  840MOL0     C15812  10.025   4.572   5.906 -0.0579 -0.0315 -0.0019
  840MOL0     O15813  10.056   4.669   5.992  0.1966  0.2250 -0.1304
  840MOL0     C15814  10.184   4.727   5.986 -0.7015  0.1415 -0.5506
  840MOL0     C15815  10.305   4.661   6.026 -0.5616 -0.7363  0.2277
  840MOL0     C15816  10.429   4.723   6.018 -0.2657  0.1904 -0.2149
  840MOL0     C15817  10.433   4.854   5.997  0.2187 -0.2938 -0.1941
  840MOL0     O15818  10.563   4.899   6.022 -0.1099 -0.5522  0.0216
  840MOL0     C15819  10.566   5.034   6.069 -0.0992 -0.2535 -0.1370
  840MOL0     C15820  10.682   5.050   6.170 -0.2846  0.4739  1.2301
  840MOL0     C15821  10.671   4.949   6.284 -1.1582  0.0216  0.7407
  840MOL0     C15822  10.789   4.963   6.366  0.1834  0.1020 -0.3400
  840MOL0     C15823  10.781   4.862   6.478  0.1779  0.0742 -0.5719
  840MOL0     C15824  10.697   4.905   6.597 -0.1081 -0.7339  0.5616
  840MOL0     C15825  10.710   4.804   6.710 -0.1356  0.4235  0.3083
  840MOL0     C15826  10.603   4.817   6.820 -0.0381  0.4244 -0.2703
  840MOL0    Cl15827  10.595   4.991   6.898  0.5641  0.2837 -0.5222
  840MOL0     C15828  10.316   4.926   5.977 -0.3091 -0.9274  0.4568
  840MOL0     C15829  10.194   4.863   5.967  0.8208 -0.4692 -0.8535
  840MOL0     O15830  10.106   4.500   5.846  0.2480 -0.4757 -0.7447
  840MOL0     C15831   9.790   4.637   5.882  0.5604 -0.3123  0.2386
  840MOL0     C15832   9.651   4.603   5.878 -0.3817 -0.3588 -0.6766
  840MOL0     N15833   9.210   4.015   5.729  0.2222 -0.0704  0.0595
  840MOL0     N15834   9.159   3.894   5.734  0.3361 -0.6105  0.1026
  840MOL0     C15835   8.206   3.372   5.114  0.3063 -0.2003 -0.0182
  840MOL0     C15836   8.086   3.308   5.078 -0.2428  0.4285 -0.6347
  840MOL0     C15837   7.684   3.185   4.944 -0.2853 -1.1970  0.3762
  840MOL0     C15838   7.636   3.093   5.038  0.3176  0.6803  0.2735
  840MOL0     C15839   7.526   3.008   5.011 -0.1854  0.2242 -0.0296
  840MOL0     C15840   7.458   3.016   4.884  0.2961  0.3632 -0.8962
  840MOL0     O15841   7.341   2.950   4.863 -0.0010  0.4389 -0.4311
  840MOL0     C15842   7.349   2.803   4.853  0.6085 -0.5825  0.3858
  840MOL0     C15843   7.248   2.735   4.770  0.7519  0.2033  0.3598
  840MOL0     C15844   7.288   2.739   4.620 -0.0377 -0.1044 -0.9788
  840MOL0     C15845   7.187   2.692   4.510 -0.0904 -0.2856 -1.0096
  840MOL0     C15846   7.258   2.674   4.385 -0.3739  0.4482 -0.1344
  840MOL0     C15847   7.335   2.637   4.294  0.3909 -0.1277 -0.0879
  840MOL0     C15848   7.512   3.103   4.791  0.1938 -0.2953 -0.1473
  840MOL0     C15849   7.627   3.188   4.809  0.1619  0.2606  0.6661
  840MOL0     C15850   7.669   3.285   4.704 -0.0181  0.1796 -0.9491
  840MOL0     H15851   8.066   3.445   4.769 -2.1830 -1.1136  0.0938
  840MOL0     H15852   8.278   3.548   4.838 -1.3941  0.9563 -0.7666
  840MOL0     H15853   8.456   3.397   5.224  2.1493 -0.2891 -0.1838
  840MOL0     H15854   8.403   3.552   5.271  0.2237 -0.0883 -0.2989
  840MOL0     H15855   8.665   3.498   5.225 -0.5503 -1.1108 -0.0721
  840MOL0     H15856   8.620   3.604   5.087 -2.2150 -0.8367 -0.9411
  840MOL0     H15857   8.545   3.780   5.232 -0.9310  0.7497  1.2537
  840MOL0     H15858   8.547   3.699   5.378  1.4735  2.6401  0.0663
  840MOL0     H15859   8.792   3.754   5.220  0.6802 -1.1138 -0.3251
  840MOL0     H15860   8.715   3.865   5.342  0.0376 -0.7580  1.0232
  840MOL0     H15861   8.796   3.581   5.412 -1.2054 -0.0133 -0.5822
  840MOL0     H15862   8.733   3.710   5.522  0.2144  0.3970  0.1066
  840MOL0     H15863   9.009   3.739   5.382 -1.5931  1.0553 -1.2536
  840MOL0     H15864   8.929   3.844   5.484 -0.3222 -0.2925  0.1941
  840MOL0     H15865   8.971   3.564   5.594  2.9551 -1.1922  0.6180
  840MOL0     H15866   8.947   3.715   5.680 -0.3619 -1.0698  0.5660
  840MOL0     H15867   9.176   3.617   5.678  0.4388 -1.7270 -1.0047
  840MOL0     H15868   9.194   3.650   5.502  1.4402 -0.3227  0.8231
  840MOL0     H15869   9.336   3.868   5.458 -0.0632 -0.0932  0.2742
  840MOL0     H15870   9.360   4.160   5.481  0.9666  0.6966 -0.1927
  840MOL0     H15871   9.488   4.091   5.581 -0.0575 -0.9736  0.5142
  840MOL0     H15872   9.259   4.259   5.696 -0.2246 -2.2427  1.6492
  840MOL0     H15873   9.403   4.203   5.782  2.8551 -0.2481 -1.2051
  840MOL0     H15874   9.544   4.344   5.628  0.1931 -0.3931 -0.2702
  840MOL0     H15875   9.388   4.383   5.542  1.0540  0.7617 -0.1049
  840MOL0     H15876   9.465   4.562   5.688  1.5205 -0.1022  0.7113
  840MOL0     H15877   9.312   4.510   5.741  0.7500  0.5457  2.0441
  840MOL0     H15878   9.663   4.270   5.866  2.8027 -0.5111  1.3873
  840MOL0     H15879   9.985   4.265   5.955  0.1786 -1.7006 -0.2491
  840MOL0     H15880   9.999   4.281   5.788 -1.3317 -0.5955 -0.9898
  840MOL0     H15881   9.858   4.189   5.851  1.0397 -0.0131 -4.6066
  840MOL0     H15882  10.293   4.556   6.047  0.7936 -1.4905 -2.3707
  840MOL0     H15883  10.522   4.669   6.034  1.2745  1.8045 -2.9226
  840MOL0     H15884  10.577   5.095   5.979  1.7208 -0.5855 -0.1915
  840MOL0     H15885  10.473   5.072   6.111  1.4496  1.9236  1.5371
  840MOL0     H15886  10.770   5.028   6.109 -1.4711  0.3170 -0.5122
  840MOL0     H15887  10.696   5.156   6.196  1.0518  1.3183 -2.3290
  840MOL0     H15888  10.676   4.847   6.244 -0.4990  0.6738 -0.9520
  840MOL0     H15889  10.578   4.957   6.340 -0.5712  1.5073  1.5687
  840MOL0     H15890  10.786   5.066   6.403 -0.8224  0.2280 -0.7465
  840MOL0     H15891  10.881   4.931   6.316  0.0589 -2.5583  0.9849
  840MOL0     H15892  10.737   4.766   6.450  0.0499 -0.2821  0.7881
  840MOL0     H15893  10.884   4.836   6.506 -0.0707  0.2399  0.5323
  840MOL0     H15894  10.590   4.917   6.574  0.2042  2.3574  0.3089
  840MOL0     H15895  10.733   5.004   6.627  5.5255 -2.6024  1.0691
  840MOL0     H15896  10.809   4.806   6.757 -0.2566 -0.6679  0.6333
  840MOL0     H15897  10.694   4.702   6.675 -1.0087  0.1015  1.5804
  840MOL0     H15898  10.623   4.756   6.908 -4.0775  0.8774  1.1559
  840MOL0     H15899  10.503   4.795   6.782  0.1983 -2.0997  0.4042
  840MOL0     H15900  10.323   5.034   5.981  0.5484 -1.0179  2.2151
  840MOL0     H15901  10.104   4.920   5.947  1.4205  0.7694 -0.1437
  840MOL0     H15902   9.830   4.738   5.885 -2.2421  0.8959  0.1181
  840MOL0     H15903   9.572   4.677   5.882 -0.4159 -0.1455 -3.4906
  840MOL0     H15904   8.246   3.353   5.214  1.5751  2.2302  0.0124
  840MOL0     H15905   8.027   3.247   5.145  0.0040  0.0214 -0.7876
  840MOL0     H15906   7.681   3.091   5.137  1.3884 -0.3729 -0.1971
  840MOL0     H15907   7.479   2.944   5.085 -0.5922  1.7669  1.0757
  840MOL0     H15908   7.452   2.773   4.832  0.8697  0.3778  0.2619
  840MOL0     H15909   7.337   2.757   4.951 -1.4980 -2.6668 -0.7457
  840MOL0     H15910   7.150   2.781   4.785 -0.6321 -2.4057 -0.0806
  840MOL0     H15911   7.243   2.628   4.793 -2.1010  0.4750  1.3762
  840MOL0     H15912   7.308   2.843   4.592 -0.7163 -0.4635 -2.9687
  840MOL0     H15913   7.383   2.684   4.614  0.3314  0.7002 -3.5511
  840MOL0     H15914   7.101   2.759   4.515 -1.1194 -1.5895  3.0344
  840MOL0     H15915   7.150   2.597   4.551  2.5049 -1.0336 -0.1461
  840MOL0     H15916   7.409   2.607   4.223  0.2752  0.9362 -0.6761
  840MOL0     H15917   7.460   3.123   4.697 -0.0753  1.0742  0.2688
  840MOL0     H15918   7.691   3.376   4.761 -0.6027 -1.2886  1.7960
  840MOL0     H15919   7.761   3.260   4.650  1.3298  1.7774  0.4760
  840MOL0     H15920   7.583   3.309   4.641 -2.3069 -0.4306  1.7392
  841MOL0     O15921   4.506   1.589   1.678 -0.1892  0.7317  0.5825
  841MOL0     C15922   4.520   1.665   1.583  0.3131 -0.0763  0.1063
  841MOL0     O15923   4.572   1.637   1.459  0.7375 -0.3893 -0.3747
  841MOL0     C15924   4.644   1.525   1.440 -0.1182 -0.3005  0.3089
  841MOL0     C15925   4.745   1.487   1.528 -0.3556 -0.0333  0.9038
  841MOL0     C15926   4.823   1.377   1.496  0.0367 -0.2730 -0.6024
  841MOL0     C15927   4.808   1.310   1.376  0.0047 -0.6114 -1.4621
  841MOL0     O15928   4.895   1.206   1.354  0.5995 -1.0833  0.0634
  841MOL0     C15929   4.846   1.103   1.271 -0.0192 -0.1991 -0.1911
  841MOL0     C15930   4.888   0.960   1.321  0.0405  0.1833  0.1377
  841MOL0     C15931   4.827   0.937   1.463  0.0683  0.1215  0.0741
  841MOL0     C15932   4.831   0.783   1.499 -0.0570  0.0921  0.5873
  841MOL0     C15933   4.787   0.746   1.643  0.8288 -0.7041 -0.2456
  841MOL0     C15934   4.639   0.763   1.666  0.5127 -0.0066  0.0052
  841MOL0     C15935   4.608   0.777   1.819  0.2312 -0.4029  0.4370
  841MOL0     C15936   4.462   0.807   1.815  0.5056  0.8871  0.2401
  841MOL0     N15937   4.387   0.809   1.943 -0.2653 -0.6978  0.2618
  841MOL0     C15938   4.440   0.769   2.062 -0.0391 -0.5162 -0.2252
  841MOL0     C15939   4.337   0.755   2.145 -0.5390  0.0265 -0.2669
  841MOL0     C15940   4.337   0.711   2.285  0.4766 -0.3712  0.5715
  841MOL0     C15941   4.463   0.634   2.327 -0.8125 -0.6142  0.6616
  841MOL0     C15942   4.457   0.577   2.466 -0.7870 -0.2669 -0.6890
  841MOL0     C15943   4.583   0.487   2.493 -0.0050 -0.9104  1.0214
  841MOL0     O15944   4.711   0.553   2.506 -0.4391  0.3923 -0.4276
  841MOL0     C15945   4.829   0.481   2.523 -1.1734 -0.3371  0.2201
  841MOL0     C15946   4.846   0.346   2.500  0.1468 -0.0366 -0.4197
  841MOL0     C15947   4.980   0.288   2.497 -0.4455 -0.2770 -0.0158
  841MOL0     C15948   4.969   0.141   2.470 -0.6678  0.9801 -0.5013
  841MOL0     C15949   5.094   0.368   2.518 -0.3792 -0.0921  0.0942
  841MOL0     C15950   5.231   0.312   2.527  0.3432  0.0487  0.1730
  841MOL0     O15951   5.336   0.402   2.541  0.5730  0.3008 -0.4884
  841MOL0     C15952   5.457   0.357   2.574 -0.0183 -0.5362 -0.7720
  841MOL0     C15953   5.569   0.388   2.495 -0.4432  0.4782 -0.0519
  841MOL0     C15954   5.700   0.355   2.529 -0.0766  0.8922  0.8656
  841MOL0     C15955   5.721   0.304   2.656 -0.5868  0.7098  0.4464
  841MOL0     O15956   5.861   0.297   2.690  0.3547 -0.7804 -0.1700
  841MOL0     C15957   5.905   0.273   2.830  0.0958 -0.3584 -0.0880
  841MOL0     C15958   6.058   0.247   2.830 -0.2932 -0.1292  0.1350
  841MOL0     C15959   6.093   0.142   2.938  0.3294 -0.6630 -0.4455
  841MOL0     C15960   6.243   0.124   2.942 -0.9150 -0.6673  0.2393
  841MOL0     C15961   6.283   0.054   3.069  0.1741  0.7215 -0.7399
  841MOL0     C15962   6.435   0.041   3.075 -0.4295  0.4923 -0.0499
  841MOL0     C15963   6.521   0.171   3.079 -0.0956  0.9504  0.5799
  841MOL0     C15964   6.663   0.123   3.106  0.8561 -0.0134 -0.5450
  841MOL0    Cl15965   6.763   0.266   3.142  0.4107  0.1977 -0.5448
  841MOL0     C15966   5.612   0.265   2.731  0.0304 -0.7847 -0.2064
  841MOL0     C15967   5.477   0.304   2.701 -0.5936 -0.0146 -0.0671
  841MOL0     O15968   5.250   0.191   2.498 -0.1940  0.7376  0.3934
  841MOL0     C15969   5.074   0.498   2.558 -0.3646  0.3196  0.0040
  841MOL0     C15970   4.946   0.554   2.553 -0.0166 -0.2580 -0.2471
  841MOL0     N15971   4.225   0.818   2.078  0.5334 -0.0725  0.2027
  841MOL0     N15972   4.255   0.835   1.956 -0.3453  0.9915 -0.8560
  841MOL0     C15973   4.723   1.352   1.283 -0.6574 -0.0239 -0.5837
  841MOL0     C15974   4.636   1.462   1.313 -0.8857 -0.8896  0.8397
  841MOL0     C15975   4.451   1.795   1.603  0.2697  0.9682  0.2296
  841MOL0     C15976   4.380   1.819   1.718 -0.2517  0.1568 -0.2599
  841MOL0     C15977   4.306   1.930   1.743  0.0882  0.4228 -0.0131
  841MOL0     C15978   4.303   2.031   1.645  0.2036 -0.6085  0.2906
  841MOL0     O15979   4.227   2.150   1.648  0.4588  0.2383  0.2596
  841MOL0     C15980   4.147   2.173   1.765 -0.1397 -0.5674  0.1644
  841MOL0     C15981   4.222   2.215   1.887 -0.5386  0.8427 -0.1193
  841MOL0     C15982   4.143   2.315   1.974 -0.2348  0.3748 -1.1158
  841MOL0     C15983   4.213   2.330   2.107  0.4198 -0.0616  0.5630
  841MOL0     C15984   4.345   2.396   2.080  0.5599  0.6306 -0.1317
  841MOL0     C15985   4.446   2.456   2.067  0.0981  0.4468  0.0882
  841MOL0     C15986   4.374   2.009   1.524 -0.1188  0.8377 -0.7702
  841MOL0     C15987   4.463   1.897   1.510  0.7653  0.1280 -0.9729
  841MOL0     C15988   4.551   1.907   1.390 -0.3226  0.2028  0.3259
  841MOL0     H15989   4.774   1.555   1.608  2.7264  0.2752 -0.3366
  841MOL0     H15990   4.901   1.341   1.563 -1.6059  0.0232  1.5731
  841MOL0     H15991   4.891   1.120   1.173 -1.2124 -1.3713 -0.9783
  841MOL0     H15992   4.737   1.105   1.265 -0.0298 -1.8574 -1.1160
  841MOL0     H15993   4.848   0.889   1.248  0.4432  1.0245 -0.9280
  841MOL0     H15994   4.997   0.951   1.325 -0.0904 -1.6538  0.8364
  841MOL0     H15995   4.880   0.993   1.540 -1.1336  0.0293  1.0054
  841MOL0     H15996   4.722   0.966   1.461  0.4494  1.6168  0.8533
  841MOL0     H15997   4.773   0.729   1.424 -0.1939 -0.4700  1.0895
  841MOL0     H15998   4.935   0.749   1.491 -0.3455 -0.3738 -2.1057
  841MOL0     H15999   4.849   0.805   1.711  0.6179  1.8360 -2.0970
  841MOL0     H16000   4.810   0.640   1.660 -0.1003 -0.7167  1.1456
  841MOL0     H16001   4.610   0.857   1.618  0.2914  0.4781  1.0622
  841MOL0     H16002   4.590   0.676   1.622 -1.4582  0.5201  1.0526
  841MOL0     H16003   4.662   0.862   1.862 -2.0558  1.1547  0.4349
  841MOL0     H16004   4.624   0.685   1.876 -0.1736  0.8996  2.7753
  841MOL0     H16005   4.442   0.903   1.766  0.4032  0.3686 -0.7469
  841MOL0     H16006   4.417   0.735   1.747  1.4344 -0.5761  1.1356
  841MOL0     H16007   4.546   0.765   2.081 -0.0068  2.9884  1.2381
  841MOL0     H16008   4.249   0.646   2.292  0.3019 -0.4186 -1.3642
  841MOL0     H16009   4.335   0.800   2.348  1.3760  0.4692 -0.5297
  841MOL0     H16010   4.489   0.554   2.258  0.5567  0.9675 -0.7532
  841MOL0     H16011   4.533   0.718   2.332 -0.3091 -1.0824  2.1945
  841MOL0     H16012   4.447   0.658   2.538 -1.6463  0.8706 -2.0274
  841MOL0     H16013   4.365   0.521   2.484 -0.7411 -0.0149  0.4243
  841MOL0     H16014   4.555   0.439   2.586 -0.3805  1.2391  2.0845
  841MOL0     H16015   4.598   0.413   2.414  1.0337 -0.9791  1.2802
  841MOL0     H16016   4.761   0.284   2.473 -0.6225  1.4058 -1.4869
  841MOL0     H16017   4.983   0.130   2.362 -1.0152 -1.6451 -0.3235
  841MOL0     H16018   4.876   0.097   2.506 -0.2614 -0.8313 -1.5389
  841MOL0     H16019   5.041   0.075   2.519 -2.5554 -0.1643  0.8051
  841MOL0     H16020   5.551   0.425   2.395  1.0313 -2.1604 -1.4322
  841MOL0     H16021   5.776   0.389   2.459 -0.3896  2.0115  1.0549
  841MOL0     H16022   5.887   0.360   2.894  0.9667  0.1757 -0.5557
  841MOL0     H16023   5.855   0.182   2.864 -2.6302  1.2544  0.6041
  841MOL0     H16024   6.086   0.217   2.729  0.8766  1.2596  0.0122
  841MOL0     H16025   6.118   0.337   2.847  1.5647 -0.8081 -2.2339
  841MOL0     H16026   6.040   0.048   2.924  1.0948 -1.0917 -0.5345
  841MOL0     H16027   6.057   0.183   3.033 -0.8918  1.6309 -1.8076
  841MOL0     H16028   6.285   0.223   2.960 -1.7724 -0.7877  3.6575
  841MOL0     H16029   6.288   0.078   2.854 -1.1580  2.4101 -1.6542
  841MOL0     H16030   6.237   0.108   3.152  1.7789 -0.8114  1.2673
  841MOL0     H16031   6.242  -0.048   3.066  3.0996 -1.0833  5.4052
  841MOL0     H16032   6.458  -0.011   2.982 -1.8426  0.7176 -0.5504
  841MOL0     H16033   6.466  -0.038   3.143 -2.9624 -3.0126 -2.5711
  841MOL0     H16034   6.489   0.235   3.161 -0.3073  1.9605 -0.2594
  841MOL0     H16035   6.520   0.226   2.984  2.6200 -1.3286 -0.9279
  841MOL0     H16036   6.701   0.073   3.017  2.4338  0.0763  0.0503
  841MOL0     H16037   6.669   0.048   3.186 -3.0450 -0.0296 -0.0726
  841MOL0     H16038   5.637   0.218   2.826 -0.0076  1.7763  1.1609
  841MOL0     H16039   5.391   0.280   2.763  1.5558 -0.8780  2.7622
  841MOL0     H16040   5.157   0.564   2.582 -0.7306  2.0484 -2.9494
  841MOL0     H16041   4.942   0.662   2.564  0.2539 -0.3643  1.1972
  841MOL0     H16042   4.702   1.302   1.189 -1.9596  0.6680 -0.6879
  841MOL0     H16043   4.554   1.485   1.245 -1.3615 -0.3314  1.5823
  841MOL0     H16044   4.358   1.737   1.785  1.1133 -2.3257 -2.6456
  841MOL0     H16045   4.262   1.942   1.842  2.9201  1.1789  1.2697
  841MOL0     H16046   4.090   2.264   1.742 -2.3041 -1.9001 -0.0271
  841MOL0     H16047   4.084   2.085   1.783 -1.8232  0.1778 -1.6167
  841MOL0     H16048   4.320   2.256   1.861 -1.3651  1.3578 -2.7713
  841MOL0     H16049   4.248   2.130   1.950  0.0820  2.5437  2.0314
  841MOL0     H16050   4.132   2.416   1.933 -0.8087  0.0031 -1.8915
  841MOL0     H16051   4.043   2.275   1.995 -0.2161  0.5232 -0.7262
  841MOL0     H16052   4.220   2.234   2.160  2.9361  0.0491  0.5410
  841MOL0     H16053   4.161   2.396   2.177  0.5241  0.3791  0.2297
  841MOL0     H16054   4.541   2.507   2.066  0.6119 -0.3171  2.8820
  841MOL0     H16055   4.366   2.087   1.449 -0.6817  0.9672 -0.5794
  841MOL0     H16056   4.639   1.844   1.406 -0.8955 -1.4923 -2.5143
  841MOL0     H16057   4.495   1.876   1.301 -2.9510  4.5767  0.1415
  841MOL0     H16058   4.580   2.010   1.369 -1.3570  0.6556  1.0168
  842MOL0     O16059   6.298   3.900   9.416  0.0766 -0.8259 -0.3462
  842MOL0     C16060   6.296   3.904   9.537  0.6574  0.3869  0.2032
  842MOL0     O16061   6.395   3.963   9.607 -0.1462  0.1187  0.1111
  842MOL0     C16062   6.510   3.993   9.538  0.5929  0.2319 -0.1110
  842MOL0     C16063   6.522   4.116   9.474 -1.1203 -0.2042 -0.3547
  842MOL0     C16064   6.647   4.171   9.437  0.0817  0.1304  0.2988
  842MOL0     C16065   6.759   4.094   9.468  0.2049  0.4476  0.2320
  842MOL0     O16066   6.874   4.159   9.452 -0.3668 -0.2488 -0.6679
  842MOL0     C16067   6.962   4.090   9.361  0.0140 -0.1036  0.0392
  842MOL0     C16068   7.102   4.127   9.396  0.5361 -0.5589 -0.1282
  842MOL0     C16069   7.137   4.275   9.357  0.1473  0.0720 -0.2092
  842MOL0     C16070   7.288   4.302   9.375  0.1408  0.4203  0.4832
  842MOL0     C16071   7.382   4.204   9.300  0.0818 -0.2109  0.7483
  842MOL0     C16072   7.531   4.213   9.335  0.3969  0.3187  0.6034
  842MOL0     C16073   7.587   4.351   9.302  0.3437 -0.1291 -0.0089
  842MOL0     C16074   7.735   4.376   9.327 -0.1686  0.7913  0.0787
  842MOL0     N16075   7.778   4.343   9.463  0.7468  0.7149  0.2255
  842MOL0     C16076   7.848   4.231   9.499 -0.4543  0.8490 -0.3947
  842MOL0     C16077   7.882   4.257   9.629  0.1539  0.3259 -0.5808
  842MOL0     C16078   7.930   4.153   9.720  0.4898  0.3389 -0.3463
  842MOL0     C16079   8.074   4.167   9.763  1.2881 -0.4885 -0.4255
  842MOL0     C16080   8.170   4.115   9.657  1.0696 -0.4274 -0.8958
  842MOL0     C16081   8.166   3.966   9.627 -0.5769  0.1900  0.6160
  842MOL0     O16082   8.268   3.923   9.542 -0.3821 -0.8020 -0.4904
  842MOL0     C16083   8.243   3.811   9.467 -0.0735  0.3990 -0.0866
  842MOL0     C16084   8.336   3.791   9.366  0.6357 -0.7772 -0.1240
  842MOL0     C16085   8.338   3.680   9.277 -0.4996  0.9932 -0.1372
  842MOL0     C16086   8.431   3.678   9.157 -0.3624 -0.2867 -0.0225
  842MOL0     C16087   8.240   3.580   9.302 -0.1668  0.8341 -0.1303
  842MOL0     C16088   8.239   3.449   9.238 -0.2271  0.8388  0.9336
  842MOL0     O16089   8.120   3.386   9.241 -0.1696 -0.0577  0.7742
  842MOL0     C16090   8.107   3.252   9.210  0.5541  0.0348 -0.3577
  842MOL0     C16091   8.181   3.160   9.268 -0.6449  0.1646  0.2021
  842MOL0     C16092   8.170   3.019   9.229 -0.7476 -0.3652 -1.5854
  842MOL0     C16093   8.071   2.990   9.132  0.2940  0.8687  0.6296
  842MOL0     O16094   8.037   2.864   9.083 -0.4441 -0.1361  0.0560
  842MOL0     C16095   8.155   2.785   9.046  0.7719  0.3793 -0.8196
  842MOL0     C16096   8.248   2.851   8.930 -0.3735  0.2995 -0.1552
  842MOL0     C16097   8.167   2.854   8.804 -0.2461  0.4277  0.2153
  842MOL0     C16098   8.255   2.930   8.708 -0.2450  0.1470 -1.0205
  842MOL0     C16099   8.187   2.945   8.575  0.7343 -0.5218  0.2464
  842MOL0     C16100   8.248   3.054   8.484  0.9015 -0.2862 -0.0034
  842MOL0     C16101   8.390   3.043   8.457  0.4754  0.2685 -0.1959
  842MOL0     C16102   8.416   3.128   8.337  0.6385  0.2430  0.3250
  842MOL0    Cl16103   8.580   3.114   8.287  0.1130  0.4643  0.1118
  842MOL0     C16104   7.985   3.088   9.077 -0.5805 -1.1836 -0.3918
  842MOL0     C16105   8.010   3.221   9.109  0.5324 -0.1339  0.2425
  842MOL0     O16106   8.339   3.398   9.182 -0.0132  0.6721 -1.1769
  842MOL0     C16107   8.146   3.600   9.398  0.2603 -0.5317  0.6338
  842MOL0     C16108   8.143   3.714   9.476 -1.2362  0.0107  0.3286
  842MOL0     N16109   7.837   4.379   9.662 -0.0257  0.2096  0.0152
  842MOL0     N16110   7.766   4.431   9.563 -0.7063  0.8110  0.1452
  842MOL0     C16111   6.752   3.972   9.536  0.0922  0.2658 -0.5936
  842MOL0     C16112   6.622   3.919   9.569 -0.7418 -0.3089  0.8470
  842MOL0     C16113   6.177   3.847   9.613 -0.5639 -0.2635 -0.3279
  842MOL0     C16114   6.162   3.873   9.750 -0.0618 -0.2661 -0.4012
  842MOL0     C16115   6.070   3.815   9.826 -0.5796 -0.0532  0.3255
  842MOL0     C16116   5.972   3.733   9.770 -0.6336 -0.2506 -0.2500
  842MOL0     O16117   5.890   3.652   9.840  0.2360 -0.2145  0.1109
  842MOL0     C16118   5.901   3.646   9.982 -0.7386 -0.1505  0.0262
  842MOL0     C16119   5.798   3.554  10.045 -0.6494 -0.0638 -0.0414
  842MOL0     C16120   5.657   3.592  10.030  0.2933  0.2005  0.4227
  842MOL0     C16121   5.614   3.568   9.881 -0.3246  0.4071 -0.5785
  842MOL0     C16122   5.468   3.560   9.867  0.5253  0.7264  0.0872
  842MOL0     C16123   5.352   3.546   9.867 -0.3032  0.3324 -0.7634
  842MOL0     C16124   5.967   3.723   9.630 -0.3408  0.0304 -0.3614
  842MOL0     C16125   6.068   3.777   9.552 -0.6852 -1.0601 -0.1179
  842MOL0     C16126   6.062   3.751   9.400 -0.5167 -0.3609  0.9050
  842MOL0     H16127   6.433   4.177   9.460 -0.6833  0.8629  1.2026
  842MOL0     H16128   6.647   4.259   9.373 -1.7827 -1.3604 -1.9404
  842MOL0     H16129   6.932   4.109   9.257  1.1450 -1.4572 -0.5631
  842MOL0     H16130   6.962   3.981   9.365 -0.6236 -0.2999 -2.8439
  842MOL0     H16131   7.124   4.113   9.502  4.5616 -1.4705 -0.9218
  842MOL0     H16132   7.172   4.063   9.342 -0.2151 -1.0717 -0.5134
  842MOL0     H16133   7.115   4.291   9.252 -0.2260 -0.7540 -0.2667
  842MOL0     H16134   7.083   4.345   9.422  0.6633 -0.0345  0.3538
  842MOL0     H16135   7.295   4.401   9.329 -2.4536 -0.9310 -3.2749
  842MOL0     H16136   7.316   4.304   9.481  2.3780  0.6561 -0.0671
  842MOL0     H16137   7.369   4.215   9.192 -0.7385 -2.1073  0.6197
  842MOL0     H16138   7.352   4.101   9.318 -4.5281  0.8029  0.0378
  842MOL0     H16139   7.549   4.188   9.440  0.1527 -1.4271  0.2699
  842MOL0     H16140   7.585   4.139   9.275  0.0046  0.3420  0.2186
  842MOL0     H16141   7.536   4.429   9.360  1.4758  0.4816  0.1946
  842MOL0     H16142   7.560   4.379   9.199 -2.0840 -4.1436 -0.6782
  842MOL0     H16143   7.800   4.326   9.254  0.0638  0.7134  0.3368
  842MOL0     H16144   7.759   4.482   9.314  2.1865  0.9261  3.9573
  842MOL0     H16145   7.870   4.150   9.431 -0.6974  1.6497 -1.4496
  842MOL0     H16146   7.914   4.061   9.662  0.4839  0.2944 -0.2734
  842MOL0     H16147   7.867   4.148   9.809 -4.6617 -2.8249 -3.6272
  842MOL0     H16148   8.102   4.271   9.781 -0.0091 -0.3738  1.2808
  842MOL0     H16149   8.086   4.098   9.847 -4.6596 -1.8526 -0.2476
  842MOL0     H16150   8.140   4.167   9.565 -0.4739  0.5333  0.1153
  842MOL0     H16151   8.272   4.137   9.690  0.4314 -0.0684  0.9701
  842MOL0     H16152   8.177   3.917   9.724 -0.9107  0.4265  0.7760
  842MOL0     H16153   8.067   3.952   9.583 -0.4507  0.3722  0.2725
  842MOL0     H16154   8.418   3.858   9.343 -0.8126  0.0170 -3.5751
  842MOL0     H16155   8.463   3.774   9.116  0.6387 -0.8423 -0.5883
  842MOL0     H16156   8.380   3.638   9.068  1.8933  2.7691 -2.9791
  842MOL0     H16157   8.511   3.608   9.181  2.3192  3.0193  1.4217
  842MOL0     H16158   8.252   3.203   9.338 -2.3398  2.3108  0.7079
  842MOL0     H16159   8.230   2.940   9.272 -2.2873 -1.5339 -1.4686
  842MOL0     H16160   8.214   2.789   9.138 -1.8185 -0.6253  1.0091
  842MOL0     H16161   8.140   2.677   9.033  0.4367  0.0211  1.9798
  842MOL0     H16162   8.273   2.955   8.955 -0.5176  0.3494 -0.2231
  842MOL0     H16163   8.342   2.794   8.929 -0.4964  0.1048 -0.8849
  842MOL0     H16164   8.079   2.917   8.818 -0.1215  0.8983 -1.0278
  842MOL0     H16165   8.128   2.762   8.759 -1.5548  0.7626  0.6179
  842MOL0     H16166   8.350   2.876   8.702 -0.8337 -0.9542 -0.7535
  842MOL0     H16167   8.279   3.024   8.758 -0.8881 -0.8293  1.2721
  842MOL0     H16168   8.197   2.845   8.531  2.3960 -0.6499  0.8239
  842MOL0     H16169   8.080   2.962   8.590  0.7082 -0.7072  0.2781
  842MOL0     H16170   8.215   3.152   8.518 -0.4330 -0.7264  0.0093
  842MOL0     H16171   8.190   3.032   8.394 -1.7277 -2.9651  2.1521
  842MOL0     H16172   8.418   2.941   8.431 -0.3952  0.2270 -1.0202
  842MOL0     H16173   8.450   3.059   8.547 -0.2186  1.2711  0.1128
  842MOL0     H16174   8.391   3.233   8.352 -0.7228  0.2777 -1.7715
  842MOL0     H16175   8.354   3.111   8.248  1.1965  2.3230 -0.5355
  842MOL0     H16176   7.904   3.072   9.006  0.8993 -0.9294 -2.2225
  842MOL0     H16177   7.950   3.302   9.068  1.7994  1.5126  1.4899
  842MOL0     H16178   8.061   3.536   9.413 -0.3023 -0.2205 -0.9984
  842MOL0     H16179   8.061   3.704   9.547 -1.5090  3.2668  0.6386
  842MOL0     H16180   6.846   3.925   9.565  0.1376  2.4492  3.3930
  842MOL0     H16181   6.609   3.828   9.626 -1.4938 -0.8394 -0.1441
  842MOL0     H16182   6.236   3.932   9.804  0.0392 -3.1961  3.0115
  842MOL0     H16183   6.068   3.842   9.931 -0.3617  1.3124 -0.0111
  842MOL0     H16184   6.000   3.616  10.017 -2.0502 -2.5011  2.1185
  842MOL0     H16185   5.880   3.749  10.013 -1.8133  0.7381 -3.2660
  842MOL0     H16186   5.818   3.553  10.152 -0.2059 -0.3625 -0.1250
  842MOL0     H16187   5.820   3.452  10.012  1.0281  0.2345  0.0346
  842MOL0     H16188   5.599   3.525  10.094  1.3441  1.2721  2.5779
  842MOL0     H16189   5.644   3.698  10.051 -1.4082  0.2089 -0.4963
  842MOL0     H16190   5.665   3.487   9.829 -5.1242 -1.8187 -2.4278
  842MOL0     H16191   5.652   3.662   9.839  1.9616  0.1810  0.7891
  842MOL0     H16192   5.246   3.558   9.875 -0.0655  1.6246  1.1992
  842MOL0     H16193   5.880   3.668   9.595 -0.6211 -0.3294  0.8361
  842MOL0     H16194   6.064   3.839   9.336 -4.0801 -0.0169  1.0696
  842MOL0     H16195   6.150   3.698   9.362  0.0768  0.1972  1.4914
  842MOL0     H16196   5.980   3.683   9.374 -0.1128  0.2098 -2.3357
  843MOL0     O16197   4.452   8.239   7.550 -0.7963  0.0621  0.1529
  843MOL0     C16198   4.368   8.247   7.641 -0.0733  0.6485 -0.1581
  843MOL0     O16199   4.401   8.300   7.760 -0.5022  0.4190 -0.6330
  843MOL0     C16200   4.495   8.407   7.756  0.4841 -0.8304  0.1886
  843MOL0     C16201   4.466   8.535   7.714  0.7866 -0.0386 -0.1285
  843MOL0     C16202   4.557   8.643   7.719  0.6914  1.0706  0.1344
  843MOL0     C16203   4.688   8.613   7.771 -0.6774  0.8410  0.3164
  843MOL0     O16204   4.784   8.716   7.765  0.0806 -0.1658 -0.6622
  843MOL0     C16205   4.922   8.690   7.821  0.1523  0.3623  0.0224
  843MOL0     C16206   4.991   8.818   7.847  0.4700 -0.2681  0.3141
  843MOL0     C16207   4.956   8.907   7.964  0.2556 -0.5691 -0.0290
  843MOL0     C16208   5.037   9.036   7.955 -0.4030 -0.0112  0.3491
  843MOL0     C16209   5.049   9.093   8.095  0.2216 -1.1459  0.4258
  843MOL0     C16210   5.157   9.031   8.167 -0.4995  0.0983 -0.4777
  843MOL0     C16211   5.165   9.081   8.310  0.6769 -0.2152  0.2552
  843MOL0     C16212   5.050   9.039   8.402  0.5313 -0.1111  0.3421
  843MOL0     N16213   5.080   9.045   8.549  0.3507 -0.3458  0.0675
  843MOL0     C16214   5.136   9.151   8.625  0.0784 -0.0587  0.3128
  843MOL0     C16215   5.154   9.099   8.752  0.3274 -0.3043  0.1554
  843MOL0     C16216   5.210   9.147   8.874  0.5284  0.2602  0.1613
  843MOL0     C16217   5.340   9.078   8.919 -0.7461 -0.1475 -0.4705
  843MOL0     C16218   5.464   9.131   8.845 -0.4800 -0.1726 -0.5032
  843MOL0     C16219   5.600   9.060   8.892 -0.1104 -0.6359  0.2154
  843MOL0     O16220   5.612   9.087   9.036 -0.1981 -0.6466 -0.2956
  843MOL0     C16221   5.715   9.025   9.100 -0.2742 -0.2467  1.1879
  843MOL0     C16222   5.718   9.028   9.236  0.3373  0.4641 -0.0090
  843MOL0     C16223   5.817   8.965   9.315 -0.0666 -0.3843 -0.2634
  843MOL0     C16224   5.808   8.964   9.468  0.7232  0.5234 -0.5072
  843MOL0     C16225   5.926   8.897   9.247  0.6350 -0.4163 -0.0750
  843MOL0     C16226   6.045   8.842   9.320 -1.4512  0.1641  0.3661
  843MOL0     O16227   6.078   8.891   9.439  0.4652 -0.5743  0.3548
  843MOL0     C16228   6.194   8.848   9.498 -0.1324 -0.4928  0.6767
  843MOL0     C16229   6.186   8.835   9.638 -0.4027  0.3999 -0.1544
  843MOL0     C16230   6.296   8.806   9.719  0.9752 -0.5587 -0.3347
  843MOL0     C16231   6.423   8.795   9.653 -0.2110 -0.2918  0.3660
  843MOL0     O16232   6.537   8.760   9.719 -0.2307  0.5067 -0.3323
  843MOL0     C16233   6.545   8.794   9.859  0.0127  0.1196  0.3914
  843MOL0     C16234   6.525   8.942   9.906  0.1550 -0.8384  0.0358
  843MOL0     C16235   6.603   9.045   9.824  0.8774 -0.6413  0.2028
  843MOL0     C16236   6.652   9.171   9.891  0.6612 -0.7092  0.4820
  843MOL0     C16237   6.735   9.270   9.791 -0.4781  0.3202 -0.4479
  843MOL0     C16238   6.815   9.373   9.868  0.0276 -0.5242  0.7922
  843MOL0     C16239   6.910   9.451   9.782 -0.3476  0.3182  0.7912
  843MOL0     C16240   7.048   9.389   9.769  0.0893  0.2274  0.1610
  843MOL0    Cl16241   7.138   9.370   9.925 -0.1331 -0.4695 -0.0180
  843MOL0     C16242   6.435   8.815   9.518  0.2352  0.1764 -0.6329
  843MOL0     C16243   6.319   8.843   9.436 -0.7355 -0.3513 -0.5503
  843MOL0     O16244   6.119   8.765   9.256 -0.4016  0.2924 -0.6391
  843MOL0     C16245   5.918   8.881   9.105 -0.0325  0.0854 -0.1606
  843MOL0     C16246   5.812   8.946   9.040 -0.3957 -0.1367 -0.0642
  843MOL0     N16247   5.117   8.966   8.744 -0.7384 -0.2034  0.4912
  843MOL0     N16248   5.071   8.938   8.630  0.4735 -0.6474  0.2008
  843MOL0     C16249   4.713   8.486   7.825 -0.2744  0.5183  0.2549
  843MOL0     C16250   4.615   8.388   7.809 -1.6445 -0.2995  0.5075
  843MOL0     C16251   4.229   8.197   7.610  0.7163 -0.3810 -0.0689
  843MOL0     C16252   4.191   8.182   7.470 -0.6075 -0.4657  0.5613
  843MOL0     C16253   4.065   8.130   7.442 -0.1621  0.4870  0.3332
  843MOL0     C16254   3.972   8.110   7.542 -0.1276 -0.6096 -0.6110
  843MOL0     O16255   3.846   8.059   7.521  0.2920 -0.0162  0.3959
  843MOL0     C16256   3.785   8.065   7.390 -0.8670  0.4501 -0.4587
  843MOL0     C16257   3.639   8.019   7.391 -0.2107  0.7538 -0.5934
  843MOL0     C16258   3.642   7.864   7.415 -0.3247  0.3116 -0.0907
  843MOL0     C16259   3.498   7.796   7.447  0.4010  0.5244 -0.2497
  843MOL0     C16260   3.404   7.838   7.338 -0.9099  0.7382  0.2951
  843MOL0     C16261   3.333   7.893   7.261  0.0329 -0.6504 -0.0626
  843MOL0     C16262   4.002   8.149   7.677 -0.0139  0.4667 -0.0019
  843MOL0     C16263   4.132   8.192   7.710  0.7756 -0.3303  0.2147
  843MOL0     C16264   4.141   8.225   7.851 -0.0487  0.1110  0.2840
  843MOL0     H16265   4.370   8.547   7.665  1.1416 -0.6067 -0.9796
  843MOL0     H16266   4.523   8.729   7.662 -1.0093  1.2145  1.2931
  843MOL0     H16267   4.981   8.626   7.755 -0.9392  0.9630 -1.5942
  843MOL0     H16268   4.916   8.637   7.916 -0.5616 -0.1832 -0.3193
  843MOL0     H16269   5.091   8.788   7.878  0.3994 -1.2143 -0.3404
  843MOL0     H16270   5.010   8.882   7.760 -0.3198 -0.2294  0.1589
  843MOL0     H16271   4.853   8.944   7.964  0.1897 -0.7540 -0.6741
  843MOL0     H16272   4.975   8.854   8.058 -0.7195 -0.0001  0.5126
  843MOL0     H16273   5.139   9.008   7.924  0.7370  2.0242  1.9767
  843MOL0     H16274   4.997   9.110   7.886 -1.4808 -0.7897  0.1101
  843MOL0     H16275   4.957   9.082   8.152 -0.7827  2.0855 -0.3996
  843MOL0     H16276   5.070   9.200   8.091 -1.0166 -0.9057 -0.1167
  843MOL0     H16277   5.147   8.922   8.165  0.3276 -0.0826  2.0972
  843MOL0     H16278   5.250   9.068   8.123  0.2016 -1.9210 -0.8281
  843MOL0     H16279   5.168   9.190   8.303 -1.5400  0.0936  2.5569
  843MOL0     H16280   5.258   9.045   8.354  0.5808 -2.9824 -1.5083
  843MOL0     H16281   4.958   9.090   8.374  0.2666  0.4385  2.0934
  843MOL0     H16282   5.021   8.936   8.378 -1.0551  0.1533  0.9750
  843MOL0     H16283   5.166   9.245   8.580  1.6065 -0.3686  0.6310
  843MOL0     H16284   5.137   9.124   8.953  0.2052 -1.4894 -0.6044
  843MOL0     H16285   5.229   9.253   8.858 -1.3401  0.3931 -1.5160
  843MOL0     H16286   5.350   9.090   9.027  0.9176 -2.8156 -0.2506
  843MOL0     H16287   5.334   8.971   8.896 -1.0886 -0.7518  2.0648
  843MOL0     H16288   5.452   9.127   8.736  3.5421  1.4395 -1.1956
  843MOL0     H16289   5.470   9.239   8.863  2.7516 -0.2376 -0.6467
  843MOL0     H16290   5.592   8.956   8.857 -1.9595 -0.2695 -0.5539
  843MOL0     H16291   5.687   9.102   8.840 -0.3694 -3.4078 -2.8193
  843MOL0     H16292   5.624   9.068   9.275 -0.3738  0.4396 -1.6221
  843MOL0     H16293   5.902   9.002   9.510  2.9380 -0.6182 -3.9874
  843MOL0     H16294   5.794   8.864   9.509  0.5974  1.2803  1.4101
  843MOL0     H16295   5.720   9.012   9.513  0.5935  0.0825 -0.2793
  843MOL0     H16296   6.087   8.840   9.684  0.5020  1.1119  1.8588
  843MOL0     H16297   6.283   8.793   9.826  0.9519 -1.9038 -0.4947
  843MOL0     H16298   6.482   8.732   9.924 -0.3593  0.0083 -0.0718
  843MOL0     H16299   6.647   8.762   9.882 -0.1490 -0.9911 -0.3613
  843MOL0     H16300   6.420   8.972   9.914 -0.3528 -2.2340 -0.8456
  843MOL0     H16301   6.565   8.942  10.008  2.0426  0.4265 -0.6483
  843MOL0     H16302   6.544   9.090   9.743  4.0460  2.8940 -0.3867
  843MOL0     H16303   6.684   8.998   9.769  1.9914  0.6124  0.7220
  843MOL0     H16304   6.721   9.145   9.972  1.4791 -1.6169 -0.4690
  843MOL0     H16305   6.562   9.216   9.934  0.3658 -0.4665 -0.3759
  843MOL0     H16306   6.809   9.214   9.732  1.1486  2.4579 -0.5686
  843MOL0     H16307   6.675   9.318   9.713 -0.2253 -0.6568 -1.2731
  843MOL0     H16308   6.872   9.321   9.946  0.3642 -1.7236 -0.2216
  843MOL0     H16309   6.747   9.440   9.922 -1.6952 -1.0309 -0.6542
  843MOL0     H16310   6.918   9.544   9.839  0.2152 -1.2423  3.4203
  843MOL0     H16311   6.864   9.471   9.684  0.9633 -0.1275  0.0574
  843MOL0     H16312   7.109   9.445   9.698  0.0247 -0.5339 -0.5104
  843MOL0     H16313   7.025   9.291   9.726  0.7129  0.1209  0.0549
  843MOL0     H16314   6.533   8.809   9.473  1.1521  1.6899  1.0402
  843MOL0     H16315   6.335   8.862   9.330 -0.1083  1.9703 -0.0974
  843MOL0     H16316   5.994   8.835   9.043 -1.4269 -1.8063 -0.5728
  843MOL0     H16317   5.815   8.954   8.932 -0.5848 -1.3551 -0.1750
  843MOL0     H16318   4.813   8.464   7.864 -0.4427  1.8795  1.5237
  843MOL0     H16319   4.648   8.289   7.840  0.4889 -0.4302 -1.8120
  843MOL0     H16320   4.267   8.195   7.393 -0.3335  2.0418  1.1884
  843MOL0     H16321   4.043   8.106   7.339  1.6853 -0.1254  0.0333
  843MOL0     H16322   3.788   8.167   7.351 -0.2603 -0.1421 -2.0268
  843MOL0     H16323   3.824   8.003   7.309 -1.9897  0.5117 -1.0647
  843MOL0     H16324   3.594   8.033   7.292  0.8895  1.5229 -1.0032
  843MOL0     H16325   3.582   8.072   7.468 -0.0284 -2.1993  1.7735
  843MOL0     H16326   3.686   7.815   7.327 -1.3720  2.5900 -1.9845
  843MOL0     H16327   3.709   7.835   7.497  0.3897 -1.1401 -1.1308
  843MOL0     H16328   3.458   7.832   7.542 -0.8440 -1.2563 -0.0663
  843MOL0     H16329   3.512   7.690   7.467  2.0408  1.1033  2.0437
  843MOL0     H16330   3.254   7.946   7.211  1.0839  1.5550  0.4974
  843MOL0     H16331   3.924   8.137   7.751 -0.5554  0.2354 -0.6104
  843MOL0     H16332   4.235   8.184   7.890  1.4773  2.2196 -0.9679
  843MOL0     H16333   4.144   8.333   7.870  2.5586  0.1419  0.0688
  843MOL0     H16334   4.057   8.187   7.910 -0.1820  0.3206  0.2312
  844MOL0     O16335   4.321   8.421   6.969 -0.1498  0.1106 -0.1587
  844MOL0     C16336   4.337   8.440   7.095  0.2461  0.4376  0.4034
  844MOL0     O16337   4.255   8.395   7.195  0.1681  0.2872  0.5624
  844MOL0     C16338   4.149   8.325   7.144  0.2153 -0.3509  1.2789
  844MOL0     C16339   4.176   8.197   7.078 -0.0814 -0.2333  0.0413
  844MOL0     C16340   4.069   8.121   7.038  0.2326 -0.1434 -0.2165
  844MOL0     C16341   3.936   8.168   7.040 -0.7157 -0.2149  0.2023
  844MOL0     O16342   3.831   8.085   7.008 -0.1526 -0.0118  0.5194
  844MOL0     C16343   3.858   7.983   6.908 -0.3950 -0.2921 -0.3667
  844MOL0     C16344   3.726   7.955   6.834  0.3890 -0.1302 -0.0136
  844MOL0     C16345   3.627   7.873   6.927  0.5082  0.7386  0.2610
  844MOL0     C16346   3.680   7.738   6.975 -0.8810 -0.4206 -0.1090
  844MOL0     C16347   3.564   7.636   6.987 -0.2692  0.5248 -0.0419
  844MOL0     C16348   3.531   7.548   6.859  0.3733 -0.7582 -0.2873
  844MOL0     C16349   3.653   7.476   6.804  0.6134 -0.0441  0.3676
  844MOL0     C16350   3.616   7.382   6.697  0.4100  0.2183 -0.7998
  844MOL0     N16351   3.727   7.300   6.660 -0.1581  0.3187  0.2065
  844MOL0     C16352   3.756   7.180   6.721 -0.0935  0.8307  0.4932
  844MOL0     C16353   3.861   7.123   6.651 -0.0523 -1.1234  0.1885
  844MOL0     C16354   3.939   6.998   6.687  0.1973  0.2401  0.5944
  844MOL0     C16355   4.092   7.026   6.656 -0.2729 -0.2240  0.4244
  844MOL0     C16356   4.143   6.954   6.536 -0.2142 -1.1083 -0.1985
  844MOL0     C16357   4.292   6.976   6.535  0.5926  0.8955 -0.1882
  844MOL0     O16358   4.344   6.878   6.635  0.0577 -0.1966 -0.2599
  844MOL0     C16359   4.471   6.874   6.673 -0.2317  0.0707 -0.2369
  844MOL0     C16360   4.511   6.771   6.750 -0.2272  0.0469  0.6331
  844MOL0     C16361   4.638   6.753   6.788 -0.7448  0.5948 -1.1364
  844MOL0     C16362   4.662   6.624   6.869 -0.6855  0.2401  0.5341
  844MOL0     C16363   4.743   6.840   6.743  0.5401  0.0232  0.3066
  844MOL0     C16364   4.885   6.827   6.767  0.0086  0.3324 -0.1115
  844MOL0     O16365   4.963   6.913   6.703 -0.0672  0.0937 -0.1650
  844MOL0     C16366   5.098   6.900   6.705 -0.3505  0.5495  0.5419
  844MOL0     C16367   5.185   6.998   6.755  0.7945 -0.8825 -0.0897
  844MOL0     C16368   5.323   6.983   6.742 -1.0193 -0.0177 -0.4492
  844MOL0     C16369   5.380   6.886   6.668  0.0254  0.1642  0.1850
  844MOL0     O16370   5.520   6.873   6.660 -0.8883 -0.4788  0.3820
  844MOL0     C16371   5.589   6.972   6.588  0.0820 -0.6124 -0.3145
  844MOL0     C16372   5.717   7.003   6.661 -0.4109  0.0218  0.4103
  844MOL0     C16373   5.802   7.070   6.554 -0.6471 -0.3189 -0.7780
  844MOL0     C16374   5.952   7.107   6.605 -0.1919  0.0734  0.5081
  844MOL0     C16375   6.040   7.127   6.479 -0.3909  0.4603  0.2229
  844MOL0     C16376   6.187   7.157   6.520 -0.5444  0.4737  1.2227
  844MOL0     C16377   6.264   7.177   6.393  0.2128  0.0258  0.8068
  844MOL0     C16378   6.412   7.141   6.397  0.3350 -0.2786 -0.4882
  844MOL0    Cl16379   6.479   7.122   6.237  0.0484 -0.4679 -0.4187
  844MOL0     C16380   5.295   6.793   6.600 -0.4862  0.3360  0.2211
  844MOL0     C16381   5.154   6.803   6.619  0.2132  0.0494 -1.2903
  844MOL0     O16382   4.931   6.753   6.855 -0.2239 -0.0424 -0.0143
  844MOL0     C16383   4.708   6.949   6.659  0.1277  0.1060 -0.7019
  844MOL0     C16384   4.569   6.968   6.630 -0.2496 -0.1470 -0.1746
  844MOL0     N16385   3.897   7.211   6.549 -1.0362  0.1388 -0.0034
  844MOL0     N16386   3.818   7.320   6.560 -0.5451  0.1450  0.8260
  844MOL0     C16387   3.914   8.283   7.113  0.0765 -0.3053 -0.0128
  844MOL0     C16388   4.016   8.360   7.165  0.0846 -0.2561  0.3035
  844MOL0     C16389   4.443   8.543   7.137  0.5334 -0.1836 -0.4927
  844MOL0     C16390   4.466   8.555   7.279 -0.4751  0.4563  0.0989
  844MOL0     C16391   4.556   8.639   7.330 -0.5580 -0.3305  0.0499
  844MOL0     C16392   4.610   8.735   7.251 -0.5669 -0.4260 -0.3881
  844MOL0     O16393   4.707   8.820   7.296  0.4047 -0.6244  0.9908
  844MOL0     C16394   4.737   8.823   7.439 -0.1536 -0.2933 -0.3872
  844MOL0     C16395   4.803   8.951   7.471 -0.6351 -0.2482  0.5142
  844MOL0     C16396   4.937   8.957   7.387  1.2948 -0.0807 -0.5128
  844MOL0     C16397   5.050   8.865   7.442 -0.2974 -0.0710  0.2935
  844MOL0     C16398   5.177   8.885   7.369 -0.1445 -0.1966  0.1569
  844MOL0     C16399   5.281   8.905   7.309 -0.2138  0.3839  0.3616
  844MOL0     C16400   4.590   8.741   7.110  0.7965 -0.1844  0.4494
  844MOL0     C16401   4.511   8.635   7.057 -0.0698  0.1251  0.4935
  844MOL0     C16402   4.530   8.620   6.907  0.0658  0.3461 -0.1714
  844MOL0     H16403   4.280   8.171   7.061  0.0025 -0.2931  0.6027
  844MOL0     H16404   4.086   8.020   7.001 -1.1690 -1.9383  3.5293
  844MOL0     H16405   3.886   7.894   6.963  0.1899 -0.3288 -0.7134
  844MOL0     H16406   3.925   8.015   6.828 -1.5583  2.0028 -0.5220
  844MOL0     H16407   3.675   8.049   6.811  0.8966 -0.0059 -0.6471
  844MOL0     H16408   3.735   7.899   6.740 -1.4996 -1.7562  0.6994
  844MOL0     H16409   3.589   7.927   7.014 -0.0267 -1.0578  1.1727
  844MOL0     H16410   3.544   7.855   6.858 -0.9250  2.7206  1.3394
  844MOL0     H16411   3.761   7.697   6.913 -2.6585 -2.1439 -1.3994
  844MOL0     H16412   3.720   7.755   7.075 -1.3407  0.6010 -0.0853
  844MOL0     H16413   3.472   7.684   7.023 -1.2182 -0.2838 -1.3144
  844MOL0     H16414   3.602   7.576   7.071  0.8100  3.7792  1.9831
  844MOL0     H16415   3.449   7.483   6.889  0.5532 -0.2315  1.4555
  844MOL0     H16416   3.497   7.617   6.782 -2.0741 -0.2156  1.1900
  844MOL0     H16417   3.705   7.427   6.887  0.1108 -0.7990  0.2482
  844MOL0     H16418   3.734   7.539   6.764  0.4167  0.4267  0.7116
  844MOL0     H16419   3.529   7.321   6.722  1.5347 -1.6837 -1.3415
  844MOL0     H16420   3.588   7.433   6.604 -0.5513  2.0892  0.4645
  844MOL0     H16421   3.699   7.133   6.800 -0.1362 -2.0804 -1.1070
  844MOL0     H16422   3.898   6.912   6.634  1.1137  0.9633 -1.3741
  844MOL0     H16423   3.925   6.978   6.794 -1.2221 -0.1153  0.3597
  844MOL0     H16424   4.110   7.133   6.640  1.3858 -0.4011  0.8568
  844MOL0     H16425   4.155   6.998   6.742 -1.1102 -0.4647  0.9682
  844MOL0     H16426   4.118   6.847   6.532  4.4597 -2.3656 -3.1786
  844MOL0     H16427   4.083   6.994   6.454 -2.1920 -0.1520  1.6190
  844MOL0     H16428   4.330   6.946   6.437 -0.6185  1.1729 -0.7647
  844MOL0     H16429   4.322   7.080   6.547  0.2227  0.9199  0.5904
  844MOL0     H16430   4.431   6.705   6.782  1.4156 -1.1028  2.6110
  844MOL0     H16431   4.705   6.654   6.965  1.6811 -0.7473 -0.1477
  844MOL0     H16432   4.742   6.578   6.810 -0.2171  0.8512  0.6810
  844MOL0     H16433   4.581   6.552   6.880  0.8699 -1.6743  0.1120
  844MOL0     H16434   5.142   7.070   6.823  1.5157 -0.5020 -0.0186
  844MOL0     H16435   5.390   7.050   6.796  1.5545 -0.9098 -2.3367
  844MOL0     H16436   5.616   6.931   6.490  2.6927  1.5206 -0.6136
  844MOL0     H16437   5.529   7.062   6.573  0.0885  0.2476  3.7630
  844MOL0     H16438   5.697   7.062   6.751  0.7241  0.7932  0.1833
  844MOL0     H16439   5.762   6.907   6.687  1.2088  0.8984  1.0234
  844MOL0     H16440   5.755   7.167   6.540 -1.7820 -0.1389  3.0743
  844MOL0     H16441   5.805   6.997   6.473 -4.2740 -1.8479  0.2632
  844MOL0     H16442   6.000   7.030   6.666  2.4278  2.9809  2.4655
  844MOL0     H16443   5.951   7.196   6.669  1.2402  1.0028 -0.6852
  844MOL0     H16444   6.042   7.038   6.416  4.5691 -0.5862  1.4317
  844MOL0     H16445   6.002   7.211   6.419  0.8989 -0.4865 -2.0309
  844MOL0     H16446   6.236   7.077   6.576 -0.7294  0.0577  0.7913
  844MOL0     H16447   6.200   7.251   6.575 -2.4082  0.4657  1.7317
  844MOL0     H16448   6.248   7.280   6.362 -1.7612 -0.8129 -1.2617
  844MOL0     H16449   6.231   7.115   6.309  3.3890  1.6999 -1.9178
  844MOL0     H16450   6.426   7.047   6.452  0.9234 -1.0343 -1.8570
  844MOL0     H16451   6.450   7.225   6.455  0.1068  0.1845 -1.0025
  844MOL0     H16452   5.332   6.714   6.535 -3.9868 -2.7482  1.6054
  844MOL0     H16453   5.077   6.738   6.578 -2.1618  2.4684 -0.9255
  844MOL0     H16454   4.774   7.026   6.619  0.5324 -0.2735 -0.7723
  844MOL0     H16455   4.545   7.051   6.564  0.3240  2.3805  2.5742
  844MOL0     H16456   3.808   8.299   7.128 -0.6055 -3.4597 -0.7209
  844MOL0     H16457   3.977   8.445   7.219 -1.0179  0.2085 -1.1341
  844MOL0     H16458   4.419   8.481   7.344  0.0677 -0.5755 -0.6459
  844MOL0     H16459   4.576   8.620   7.435 -0.9513  0.8281  0.3421
  844MOL0     H16460   4.646   8.826   7.499  0.8390  1.4904  1.1340
  844MOL0     H16461   4.785   8.730   7.469 -0.5474 -0.1784  0.6313
  844MOL0     H16462   4.813   8.977   7.577 -1.5472  1.1156  0.2866
  844MOL0     H16463   4.750   9.036   7.429  1.6653  1.3969  0.7557
  844MOL0     H16464   4.915   8.931   7.283  1.9431  2.3523 -1.3227
  844MOL0     H16465   4.964   9.063   7.389  1.1372  0.0200 -2.1949
  844MOL0     H16466   5.015   8.762   7.429 -0.8191  0.1310  0.0861
  844MOL0     H16467   5.081   8.889   7.544 -1.6706  2.7722  0.1564
  844MOL0     H16468   5.370   8.919   7.252  0.3285 -0.8623  0.8672
  844MOL0     H16469   4.646   8.805   7.043  0.3325 -2.3611 -2.2081
  844MOL0     H16470   4.539   8.517   6.871 -2.3055  0.0359  0.0062
  844MOL0     H16471   4.437   8.651   6.859 -0.0409  0.4220  0.0840
  844MOL0     H16472   4.606   8.687   6.865 -1.2928  2.5596  0.7308
  845MOL0     O16473  10.468   5.334   9.160  0.0416  0.3271  0.1519
  845MOL0     C16474  10.482   5.276   9.048  0.4938 -0.9443 -0.3496
  845MOL0     O16475  10.602   5.264   8.980  0.5057 -0.5517 -0.0130
  845MOL0     C16476  10.716   5.272   9.059 -0.6742 -0.1290  0.5733
  845MOL0     C16477  10.741   5.361   9.166 -0.2313 -0.3516 -0.3068
  845MOL0     C16478  10.858   5.346   9.247  0.3094 -0.3484 -0.1127
  845MOL0     C16479  10.957   5.251   9.207  0.1868 -0.1267 -0.8665
  845MOL0     O16480  11.077   5.229   9.272  0.3345 -0.0307  0.3636
  845MOL0     C16481  11.139   5.345   9.334 -0.4752 -0.4841  0.0502
  845MOL0     C16482  11.180   5.453   9.232 -0.0222 -0.1050  0.4847
  845MOL0     C16483  11.264   5.580   9.278  0.2940 -0.0581 -0.0663
  845MOL0     C16484  11.386   5.558   9.366 -0.8635  0.2332 -0.3336
  845MOL0     C16485  11.507   5.497   9.295 -0.1271 -0.3496 -0.2531
  845MOL0     C16486  11.553   5.563   9.165 -0.2088  0.4195 -0.3022
  845MOL0     C16487  11.588   5.713   9.185 -0.8216 -0.1842 -0.1656
  845MOL0     C16488  11.726   5.735   9.248  0.1705 -0.2757 -0.9046
  845MOL0     N16489  11.768   5.873   9.220 -0.6202 -0.1917  0.5037
  845MOL0     C16490  11.795   5.981   9.298  0.4399  0.1254 -0.3751
  845MOL0     C16491  11.852   6.080   9.224  0.3791  1.1246  0.0356
  845MOL0     C16492  11.889   6.219   9.263  0.7166  0.4119  0.1665
  845MOL0     C16493  12.039   6.239   9.261 -0.1402 -0.1289  1.1685
  845MOL0     C16494  12.110   6.156   9.369 -0.4104 -0.6335  0.5476
  845MOL0     C16495  12.261   6.163   9.340  0.4024  0.2384 -0.2952
  845MOL0     O16496  12.306   6.257   9.436  0.2425  0.5838 -0.3246
  845MOL0     C16497  12.434   6.311   9.422  0.7164  0.0138 -0.2318
  845MOL0     C16498  12.457   6.450   9.414 -1.4921  0.9984  0.5297
  845MOL0     C16499  12.590   6.500   9.414  0.8595  0.2939 -0.1082
  845MOL0     C16500  12.609   6.645   9.405 -0.1715 -0.9248  0.1266
  845MOL0     C16501  12.697   6.410   9.409  0.3171 -0.1031 -0.6308
  845MOL0     C16502  12.838   6.446   9.390 -0.1267  0.3038  0.9206
  845MOL0     O16503  12.924   6.345   9.341  0.0276 -0.3634  0.3570
  845MOL0     C16504  13.060   6.372   9.352  0.0506  0.2240  0.5263
  845MOL0     C16505  13.125   6.417   9.470  0.2256  0.7525  0.4870
  845MOL0     C16506  13.263   6.451   9.460 -0.5467  0.2399  0.4197
  845MOL0     C16507  13.341   6.440   9.345 -0.0847  0.0122 -1.2190
  845MOL0     O16508  13.470   6.480   9.361  0.6709 -0.4555  0.3144
  845MOL0     C16509  13.530   6.529   9.244 -0.1150 -0.2904 -0.1030
  845MOL0     C16510  13.646   6.624   9.279 -0.1992 -0.7856  0.1557
  845MOL0     C16511  13.719   6.673   9.153  0.1444 -0.5602 -0.9411
  845MOL0     C16512  13.862   6.649   9.165 -0.0614 -0.2805 -0.0537
  845MOL0     C16513  13.943   6.705   9.052 -0.2189 -0.1989  0.3297
  845MOL0     C16514  14.088   6.690   9.056 -0.4123  0.1020  0.4783
  845MOL0     C16515  14.165   6.709   8.929  0.1623  0.0196 -0.2764
  845MOL0     C16516  14.312   6.678   8.940  0.2405  0.9215 -0.4761
  845MOL0    Cl16517  14.362   6.510   8.950  0.3161  0.2465 -0.2961
  845MOL0     C16518  13.277   6.391   9.230 -0.0445  0.0548  0.1174
  845MOL0     C16519  13.140   6.361   9.232  0.0799  0.6289  0.4790
  845MOL0     O16520  12.868   6.564   9.403 -0.0783  0.0860  0.6730
  845MOL0     C16521  12.676   6.274   9.418  0.5816  0.6136  0.9350
  845MOL0     C16522  12.543   6.221   9.434 -0.2044 -0.1202  0.4495
  845MOL0     N16523  11.852   6.026   9.091 -0.0185  0.1403  0.2243
  845MOL0     N16524  11.800   5.909   9.095 -0.2799  0.3545  1.2057
  845MOL0     C16525  10.934   5.177   9.092  0.3207 -0.5721 -0.1367
  845MOL0     C16526  10.816   5.185   9.023 -0.4492  0.0081  0.1576
  845MOL0     C16527  10.357   5.221   8.984  0.4863  0.5833 -0.2299
  845MOL0     C16528  10.367   5.108   8.905 -0.1127  0.5256 -0.5770
  845MOL0     C16529  10.258   5.052   8.832 -0.4096 -0.9401  0.3112
  845MOL0     C16530  10.131   5.116   8.836 -0.4049  0.7829 -0.9717
  845MOL0     O16531  10.032   5.066   8.755 -0.5293 -0.1024  0.4328
  845MOL0     C16532   9.926   5.162   8.721  0.6366  0.1210  0.2910
  845MOL0     C16533   9.794   5.098   8.684 -0.6691 -0.1253  0.0734
  845MOL0     C16534   9.702   5.193   8.605  0.8833 -0.1029  0.5453
  845MOL0     C16535   9.550   5.150   8.599 -0.5795 -0.3538 -0.3155
  845MOL0     C16536   9.476   5.215   8.489  0.7224 -0.7364  0.7633
  845MOL0     C16537   9.410   5.262   8.391 -0.8636  0.4860 -0.5277
  845MOL0     C16538  10.122   5.223   8.928  0.2578  0.7511  0.3263
  845MOL0     C16539  10.232   5.285   9.001  0.3679 -0.5582 -0.3822
  845MOL0     C16540  10.213   5.411   9.075  0.6053 -0.0036 -1.0569
  845MOL0     H16541  10.679   5.448   9.187  1.2048  0.9315 -1.1448
  845MOL0     H16542  10.874   5.414   9.330  1.6475  0.8874 -1.3233
  845MOL0     H16543  11.234   5.314   9.380 -0.6579 -2.1693 -0.6157
  845MOL0     H16544  11.074   5.389   9.410 -0.4999 -0.6157  0.1066
  845MOL0     H16545  11.233   5.406   9.149 -0.4767  0.3767 -0.0808
  845MOL0     H16546  11.092   5.498   9.186  3.4314  5.0722 -2.0966
  845MOL0     H16547  11.304   5.635   9.192  1.7797  0.7856  1.1106
  845MOL0     H16548  11.201   5.646   9.339 -0.0387 -0.2317 -0.2206
  845MOL0     H16549  11.410   5.659   9.400  4.3139 -0.5945 -0.7339
  845MOL0     H16550  11.359   5.491   9.449  1.1298 -1.9888 -1.3560
  845MOL0     H16551  11.474   5.393   9.295  1.7997 -1.0548  2.2058
  845MOL0     H16552  11.590   5.486   9.365  0.5456 -1.8458 -1.2319
  845MOL0     H16553  11.635   5.499   9.132 -3.6718 -3.4817 -2.3342
  845MOL0     H16554  11.483   5.554   9.081  2.6418  3.1128 -3.2527
  845MOL0     H16555  11.504   5.774   9.219 -1.0472  0.1126 -1.2115
  845MOL0     H16556  11.600   5.756   9.085 -2.2216 -0.6940 -0.5711
  845MOL0     H16557  11.736   5.718   9.356 -0.2419  0.0031 -0.8190
  845MOL0     H16558  11.797   5.671   9.195 -1.1773  0.2207 -3.5038
  845MOL0     H16559  11.757   5.979   9.400  0.0811  2.6806 -0.4055
  845MOL0     H16560  11.865   6.250   9.365  1.3617  2.9907 -0.3895
  845MOL0     H16561  11.833   6.281   9.192  1.8584  1.6236  0.2747
  845MOL0     H16562  12.078   6.210   9.163  0.7416 -0.1769  1.5279
  845MOL0     H16563  12.058   6.346   9.260 -3.1934  0.5372 -0.4819
  845MOL0     H16564  12.089   6.193   9.469  0.6933 -0.1315  0.6154
  845MOL0     H16565  12.070   6.055   9.354 -2.6580  0.5149 -1.8299
  845MOL0     H16566  12.312   6.069   9.364  0.4324  0.5175  0.7440
  845MOL0     H16567  12.287   6.206   9.243  2.1876 -0.8636 -0.3448
  845MOL0     H16568  12.378   6.524   9.408  0.2707  2.8590 -1.0340
  845MOL0     H16569  12.518   6.702   9.426  0.1350 -0.5531  0.4840
  845MOL0     H16570  12.636   6.677   9.304 -0.2875  0.7097  0.5951
  845MOL0     H16571  12.689   6.674   9.475  1.0718  2.7633 -2.5147
  845MOL0     H16572  13.064   6.447   9.555 -0.0731  2.5157 -0.3001
  845MOL0     H16573  13.325   6.477   9.546  0.4749  0.2361 -0.3009
  845MOL0     H16574  13.568   6.448   9.181  1.1624  1.4565 -1.7041
  845MOL0     H16575  13.459   6.581   9.180 -2.1814 -2.1179  0.5839
  845MOL0     H16576  13.618   6.712   9.337  2.4848  1.1460 -1.2930
  845MOL0     H16577  13.711   6.566   9.345  0.8830  2.8502  2.5930
  845MOL0     H16578  13.702   6.780   9.136  0.0571 -0.5239 -0.6442
  845MOL0     H16579  13.668   6.617   9.074 -1.1269 -1.0655  0.1861
  845MOL0     H16580  13.875   6.541   9.173  2.0496 -0.1006 -0.4400
  845MOL0     H16581  13.891   6.689   9.263 -1.0624  0.5368 -0.0782
  845MOL0     H16582  13.907   6.651   8.964 -0.3753  1.8288 -0.8925
  845MOL0     H16583  13.927   6.813   9.043  0.5158 -0.1713 -0.8481
  845MOL0     H16584  14.112   6.597   9.110 -1.2843  0.5129  1.6237
  845MOL0     H16585  14.114   6.767   9.129 -3.9301  0.8277  1.1625
  845MOL0     H16586  14.149   6.815   8.907  1.3001 -0.2907 -2.9124
  845MOL0     H16587  14.123   6.649   8.848  2.4267  1.5661 -2.7561
  845MOL0     H16588  14.364   6.735   9.018  0.9376  2.0180 -1.6895
  845MOL0     H16589  14.355   6.725   8.851  2.0690  1.6295  0.7178
  845MOL0     H16590  13.328   6.382   9.135 -1.1015  1.7773 -0.6647
  845MOL0     H16591  13.094   6.342   9.135  0.6687 -0.7728  0.4568
  845MOL0     H16592  12.751   6.197   9.429 -2.2432 -2.4486  0.5818
  845MOL0     H16593  12.513   6.117   9.443 -1.1555 -0.0582 -1.4949
  845MOL0     H16594  11.010   5.104   9.065 -0.2408 -0.9278 -0.8002
  845MOL0     H16595  10.810   5.115   8.940  0.6025  2.7366 -2.3871
  845MOL0     H16596  10.466   5.063   8.895  0.2994  0.8606  1.5716
  845MOL0     H16597  10.281   4.969   8.766 -0.9625  0.0872 -1.2443
  845MOL0     H16598   9.903   5.237   8.797 -2.4802 -2.1577  1.8443
  845MOL0     H16599   9.973   5.216   8.639  4.5277 -0.3917  1.9452
  845MOL0     H16600   9.753   5.063   8.779 -1.2813 -1.5156 -0.6810
  845MOL0     H16601   9.825   5.015   8.622  2.4485  0.1049  1.1373
  845MOL0     H16602   9.709   5.298   8.634 -4.6590  1.0429 -0.9515
  845MOL0     H16603   9.741   5.190   8.503  0.2785 -0.9609  0.3313
  845MOL0     H16604   9.506   5.169   8.697  1.1464 -0.9484  0.6220
  845MOL0     H16605   9.540   5.041   8.590  0.1754 -0.5061  0.5613
  845MOL0     H16606   9.343   5.301   8.318 -0.6448  2.0309  0.0517
  845MOL0     H16607  10.032   5.282   8.944 -1.5672 -1.5530 -0.9045
  845MOL0     H16608  10.125   5.467   9.042  0.9680  0.5942 -1.0147
  845MOL0     H16609  10.218   5.399   9.184  3.8472  1.4034 -0.9352
  845MOL0     H16610  10.295   5.480   9.056  1.4991 -0.6131  0.3918
  846MOL0     O16611   8.741   0.800   4.945  0.0549  0.3198  0.8776
  846MOL0     C16612   8.764   0.868   5.050  0.4366 -0.2671  0.2441
  846MOL0     O16613   8.846   0.976   5.058  0.1156 -0.0034  0.1477
  846MOL0     C16614   8.905   1.041   4.954  0.2431  0.4834  0.0255
  846MOL0     C16615   8.976   0.979   4.852 -1.5845  0.0862  0.1270
  846MOL0     C16616   9.046   1.057   4.757 -0.3584 -0.6252  0.1346
  846MOL0     C16617   9.061   1.198   4.770  0.1683 -0.9300 -0.1157
  846MOL0     O16618   9.136   1.280   4.689 -0.3321 -0.4044 -0.0042
  846MOL0     C16619   9.245   1.210   4.622  0.7438  0.7483  0.6378
  846MOL0     C16620   9.292   1.311   4.523 -0.5081 -0.1007 -0.5765
  846MOL0     C16621   9.391   1.247   4.422 -0.4696 -0.5150 -0.5604
  846MOL0     C16622   9.419   1.341   4.309  0.4310  0.1042  0.4856
  846MOL0     C16623   9.514   1.289   4.202  0.0995  0.8234  0.1221
  846MOL0     C16624   9.470   1.153   4.145  0.0677 -0.0243  0.3471
  846MOL0     C16625   9.550   1.031   4.204  1.0366 -0.4620  0.2263
  846MOL0     C16626   9.499   0.904   4.138  0.1672 -0.5635  0.5928
  846MOL0     N16627   9.493   0.916   3.990  0.3778  0.8732 -0.9476
  846MOL0     C16628   9.597   0.941   3.899 -0.7010 -1.3643 -0.6784
  846MOL0     C16629   9.535   0.946   3.781  0.3527 -0.4221 -0.3656
  846MOL0     C16630   9.608   0.984   3.657 -0.0949  0.3472  0.2333
  846MOL0     C16631   9.740   0.905   3.634 -0.3331 -0.2996 -0.8066
  846MOL0     C16632   9.704   0.757   3.612 -0.0958  0.3759  0.0595
  846MOL0     C16633   9.817   0.659   3.594 -0.0413 -0.3096 -0.0420
  846MOL0     O16634   9.911   0.725   3.506 -0.3404 -0.0848  1.5457
  846MOL0     C16635  10.026   0.653   3.475  0.1999 -0.8748 -0.3532
  846MOL0     C16636  10.127   0.716   3.392 -0.7357 -0.6147  0.2182
  846MOL0     C16637  10.229   0.642   3.334  0.3147 -0.5071 -0.1582
  846MOL0     C16638  10.306   0.717   3.228 -0.2178  0.1863 -0.2490
  846MOL0     C16639  10.240   0.507   3.358 -0.1949  0.0912 -1.0512
  846MOL0     C16640  10.326   0.407   3.285  0.0697 -0.6257  0.5607
  846MOL0     O16641  10.315   0.269   3.317  0.5056  0.6040  0.3938
  846MOL0     C16642  10.388   0.175   3.244  0.1480  0.5052 -0.5565
  846MOL0     C16643  10.316   0.070   3.187 -0.4339 -0.6333 -0.7561
  846MOL0     C16644  10.371  -0.016   3.093 -0.4329 -0.3720 -0.0170
  846MOL0     C16645  10.513  -0.011   3.064  0.0674  0.1818  0.1503
  846MOL0     O16646  10.570  -0.085   2.967 -0.0724 -0.1139 -0.1470
  846MOL0     C16647  10.694  -0.041   2.914  0.3021  0.2952  1.3885
  846MOL0     C16648  10.710  -0.124   2.791  0.2347  0.4269  0.7307
  846MOL0     C16649  10.788  -0.245   2.805  0.0659  0.2559 -1.0215
  846MOL0     C16650  10.801  -0.324   2.672  0.3170 -0.2867 -0.2946
  846MOL0     C16651  10.875  -0.461   2.691 -0.5398 -0.0158  0.3874
  846MOL0     C16652  10.933  -0.516   2.560 -0.2348  0.2548  0.0714
  846MOL0     C16653  11.064  -0.600   2.576  0.0599  0.1096  0.0140
  846MOL0     C16654  11.185  -0.496   2.581  1.3000 -0.0285 -0.4435
  846MOL0    Cl16655  11.346  -0.573   2.616  0.0372 -0.8479  0.0750
  846MOL0     C16656  10.587   0.091   3.128 -0.8132  0.2451 -1.0778
  846MOL0     C16657  10.521   0.184   3.206 -0.5200  0.2994  0.7987
  846MOL0     O16658  10.404   0.460   3.200  0.2751  0.5193  0.2571
  846MOL0     C16659  10.157   0.455   3.454  0.5823  1.0192  0.2905
  846MOL0     C16660  10.045   0.525   3.511 -0.6497 -0.1491  0.0394
  846MOL0     N16661   9.402   0.898   3.793 -0.4739 -0.1844 -0.6413
  846MOL0     N16662   9.380   0.889   3.916  0.1123  0.5494 -1.0060
  846MOL0     C16663   8.983   1.253   4.870  0.6365 -0.3517  0.3242
  846MOL0     C16664   8.902   1.177   4.955  0.2644 -0.1076 -0.3885
  846MOL0     C16665   8.681   0.799   5.155  0.2119  0.4109 -0.9969
  846MOL0     C16666   8.684   0.658   5.170 -0.5890 -0.1880  0.8813
  846MOL0     C16667   8.609   0.589   5.267  0.4331 -0.0478 -0.3012
  846MOL0     C16668   8.524   0.660   5.347 -0.1481 -0.4743 -0.1829
  846MOL0     O16669   8.443   0.598   5.442  0.2490 -0.1107 -0.3423
  846MOL0     C16670   8.401   0.461   5.418 -0.3108 -0.7596 -0.7444
  846MOL0     C16671   8.261   0.448   5.497  0.0614 -0.0349 -1.0508
  846MOL0     C16672   8.218   0.305   5.491 -0.5819  0.8048 -0.2851
  846MOL0     C16673   8.070   0.294   5.527  0.7530 -0.7114 -0.1302
  846MOL0     C16674   7.971   0.354   5.437  0.8546 -0.0835  0.0648
  846MOL0     C16675   7.890   0.403   5.366 -0.4796 -0.0022 -0.0784
  846MOL0     C16676   8.510   0.792   5.336 -0.0038 -1.6911 -0.0055
  846MOL0     C16677   8.592   0.865   5.235  0.6124 -0.2772 -0.2943
  846MOL0     C16678   8.568   1.015   5.213  0.3031  0.3082 -0.1895
  846MOL0     H16679   8.974   0.875   4.823 -0.8989  0.3508 -0.9307
  846MOL0     H16680   9.100   1.006   4.677  4.2309 -1.2871  3.2125
  846MOL0     H16681   9.226   1.126   4.555  2.1009  1.0587 -0.1626
  846MOL0     H16682   9.323   1.190   4.696  0.7697 -1.0675  0.1711
  846MOL0     H16683   9.200   1.353   4.481  0.1646  0.3432 -1.6531
  846MOL0     H16684   9.353   1.393   4.562  4.1102 -1.7555 -3.4666
  846MOL0     H16685   9.486   1.229   4.472 -0.8456  0.0591  0.3763
  846MOL0     H16686   9.358   1.150   4.382  1.9609 -3.7637  4.4086
  846MOL0     H16687   9.323   1.375   4.269  0.6056  0.6517  0.5283
  846MOL0     H16688   9.462   1.431   4.353  0.8425  1.9592 -3.3218
  846MOL0     H16689   9.615   1.274   4.241 -0.8138 -2.0292  1.6305
  846MOL0     H16690   9.522   1.363   4.122 -2.0492  1.8767  0.7985
  846MOL0     H16691   9.361   1.142   4.144  0.0591 -0.3201  1.7737
  846MOL0     H16692   9.501   1.165   4.041  1.8791 -2.2800  0.5548
  846MOL0     H16693   9.540   1.023   4.312  1.6347  2.6740  0.6118
  846MOL0     H16694   9.653   1.046   4.170  0.6636  1.0017 -0.3365
  846MOL0     H16695   9.569   0.829   4.175 -2.2885 -2.0471  2.5827
  846MOL0     H16696   9.403   0.865   4.174  0.0953 -1.5810 -0.6484
  846MOL0     H16697   9.700   0.960   3.928 -1.6795  1.2234  1.5109
  846MOL0     H16698   9.632   1.090   3.646  1.0117  0.3602  2.2789
  846MOL0     H16699   9.542   0.954   3.574  1.1538 -3.0851  0.3116
  846MOL0     H16700   9.794   0.935   3.543  0.6971  0.4008  0.0195
  846MOL0     H16701   9.800   0.911   3.725 -4.5018  1.1662  2.1424
  846MOL0     H16702   9.649   0.722   3.700  0.0734  0.4255  0.1871
  846MOL0     H16703   9.645   0.734   3.523 -0.1115  0.3888  0.0674
  846MOL0     H16704   9.864   0.641   3.691  0.1002  1.4656  0.2457
  846MOL0     H16705   9.781   0.565   3.550 -0.0895 -0.3561  0.0964
  846MOL0     H16706  10.098   0.809   3.344 -0.3154 -1.2831 -1.3994
  846MOL0     H16707  10.296   0.667   3.132 -1.2002  2.0982 -1.1992
  846MOL0     H16708  10.410   0.709   3.262 -0.5818 -2.3996  0.4927
  846MOL0     H16709  10.274   0.821   3.216 -3.4501 -0.6550  0.0036
  846MOL0     H16710  10.210   0.078   3.206 -0.4680 -1.3535 -0.6059
  846MOL0     H16711  10.308  -0.091   3.047 -0.2774 -1.0157  0.7897
  846MOL0     H16712  10.701   0.066   2.889  1.2268  0.4880  2.4205
  846MOL0     H16713  10.776  -0.064   2.982  0.1190 -1.7444  0.9872
  846MOL0     H16714  10.618  -0.141   2.733  1.5810 -2.8245 -0.7150
  846MOL0     H16715  10.779  -0.064   2.730  2.6328 -0.5871  2.2888
  846MOL0     H16716  10.743  -0.306   2.883 -0.1119  0.8923 -0.6194
  846MOL0     H16717  10.882  -0.229   2.858 -1.4638 -1.2380  2.4069
  846MOL0     H16718  10.853  -0.272   2.591 -2.3725  1.0850 -1.2564
  846MOL0     H16719  10.699  -0.344   2.637 -1.3699  1.3936  3.1866
  846MOL0     H16720  10.955  -0.451   2.766  1.3819  0.2066 -1.5955
  846MOL0     H16721  10.806  -0.534   2.734 -1.4788 -0.1303 -1.2546
  846MOL0     H16722  10.951  -0.431   2.494  0.8668  0.9305  1.2064
  846MOL0     H16723  10.861  -0.580   2.508  1.5070 -0.0373 -2.1135
  846MOL0     H16724  11.073  -0.667   2.491 -3.5196  0.3041 -0.6732
  846MOL0     H16725  11.051  -0.653   2.671  0.9026  0.3722  0.2890
  846MOL0     H16726  11.160  -0.427   2.662 -1.7331 -1.9108  0.4007
  846MOL0     H16727  11.206  -0.445   2.487  0.9836 -2.3222 -1.8353
  846MOL0     H16728  10.694   0.103   3.114 -0.2318 -1.7162  1.0696
  846MOL0     H16729  10.578   0.266   3.249  1.3410 -0.1812 -0.5953
  846MOL0     H16730  10.160   0.351   3.487 -1.7089  0.0587 -2.1507
  846MOL0     H16731   9.973   0.468   3.568 -0.3768 -0.5565 -0.0177
  846MOL0     H16732   8.991   1.361   4.866  0.2920 -0.3699 -1.7156
  846MOL0     H16733   8.851   1.232   5.033 -1.4670  0.4299 -1.8370
  846MOL0     H16734   8.749   0.597   5.108 -1.0106 -1.9821  2.1512
  846MOL0     H16735   8.628   0.482   5.277 -0.0410 -0.0153  1.0608
  846MOL0     H16736   8.397   0.446   5.310 -0.4507  2.1992 -1.2421
  846MOL0     H16737   8.479   0.395   5.458 -2.3306 -2.9381 -0.2015
  846MOL0     H16738   8.187   0.507   5.443 -2.3861 -2.1262 -0.1574
  846MOL0     H16739   8.269   0.489   5.598  0.3074 -0.6512 -0.8165
  846MOL0     H16740   8.243   0.269   5.391  0.0754  0.1348  0.1105
  846MOL0     H16741   8.273   0.244   5.564  0.7251  2.1694 -0.0701
  846MOL0     H16742   8.059   0.343   5.624  1.5626 -1.1901  0.2203
  846MOL0     H16743   8.049   0.189   5.549 -0.5630 -1.0771 -2.7183
  846MOL0     H16744   7.826   0.441   5.289  2.8313  2.1150 -1.9954
  846MOL0     H16745   8.444   0.845   5.403  2.0981 -0.9979  1.6553
  846MOL0     H16746   8.557   1.038   5.107 -3.0058 -1.9789 -0.4831
  846MOL0     H16747   8.472   1.058   5.246  0.4699  0.8862 -0.4352
  846MOL0     H16748   8.640   1.077   5.267  1.5792  0.4509 -1.9665
  847MOL0     O16749   0.517  10.432   3.396 -0.3076  0.0688  0.2863
  847MOL0     C16750   0.474  10.415   3.283  0.7262  0.2922  0.1353
  847MOL0     O16751   0.531  10.336   3.184 -0.1411  0.2772  0.1092
  847MOL0     C16752   0.646  10.270   3.204 -0.2661 -0.0779 -0.3342
  847MOL0     C16753   0.743  10.274   3.103  0.4850 -0.7503 -0.9582
  847MOL0     C16754   0.865  10.204   3.117  0.3711 -0.0748  0.0394
  847MOL0     C16755   0.887  10.125   3.225  0.4254  0.4551  0.1999
  847MOL0     O16756   1.005  10.044   3.220  0.2915  0.1785  0.2920
  847MOL0     C16757   1.033   9.962   3.339  0.6965 -0.7974  0.1425
  847MOL0     C16758   1.164   9.895   3.311  0.1512 -0.3601  0.5814
  847MOL0     C16759   1.137   9.788   3.203 -0.0609 -0.9096  0.5078
  847MOL0     C16760   1.251   9.692   3.192  0.4182 -0.5089 -0.9704
  847MOL0     C16761   1.226   9.557   3.247 -0.2997 -0.0694  0.4737
  847MOL0     C16762   1.351   9.466   3.230 -1.0430 -0.7783 -0.1014
  847MOL0     C16763   1.327   9.343   3.315  0.6951 -0.5841 -0.1425
  847MOL0     C16764   1.433   9.232   3.324  0.3954 -0.7897 -0.3439
  847MOL0     N16765   1.494   9.191   3.194 -0.3855 -0.2748 -0.7707
  847MOL0     C16766   1.572   9.273   3.121 -0.1483 -0.8769  0.3439
  847MOL0     C16767   1.605   9.197   3.017 -0.4218 -0.3326  0.9376
  847MOL0     C16768   1.689   9.236   2.894 -0.9712  0.4914 -0.3918
  847MOL0     C16769   1.830   9.262   2.943 -0.1656  0.0817  0.1018
  847MOL0     C16770   1.913   9.291   2.818 -0.3057 -0.4652  0.3630
  847MOL0     C16771   2.038   9.360   2.859 -1.7271  0.1506  0.3222
  847MOL0     O16772   2.112   9.270   2.943 -0.1445  0.1615 -0.4925
  847MOL0     C16773   2.244   9.244   2.926 -0.3758  0.6606  0.3804
  847MOL0     C16774   2.287   9.129   2.991 -0.2187 -0.2322 -0.6021
  847MOL0     C16775   2.423   9.090   2.981  0.3246 -0.2682 -0.0545
  847MOL0     C16776   2.456   8.965   3.051  0.7198 -0.0507  0.5963
  847MOL0     C16777   2.504   9.151   2.879 -0.6254  0.1743 -0.0309
  847MOL0     C16778   2.643   9.110   2.852  0.1750  0.1795  0.3242
  847MOL0     O16779   2.684   8.998   2.902  0.3061  0.4512 -0.3393
  847MOL0     C16780   2.820   8.957   2.892  1.0999 -0.4062 -0.3407
  847MOL0     C16781   2.853   8.817   2.893  0.7599 -0.7873 -1.0912
  847MOL0     C16782   2.979   8.765   2.878  0.2910  0.0183  0.0289
  847MOL0     C16783   3.088   8.856   2.874 -0.1814 -0.2778 -0.1949
  847MOL0     O16784   3.216   8.809   2.869 -0.7595 -0.9132 -0.3535
  847MOL0     C16785   3.285   8.850   2.750  0.5211 -0.3509  0.2218
  847MOL0     C16786   3.404   8.756   2.726  0.3592 -0.1123  0.1156
  847MOL0     C16787   3.523   8.798   2.800  0.1573  0.0248  0.2397
  847MOL0     C16788   3.644   8.709   2.751 -0.4866 -0.4281  0.0963
  847MOL0     C16789   3.774   8.737   2.822  0.9283 -0.0043 -0.7555
  847MOL0     C16790   3.883   8.658   2.763  0.5251  0.1472  0.3166
  847MOL0     C16791   3.878   8.507   2.797 -0.4693  0.1088  0.2357
  847MOL0     C16792   3.997   8.428   2.752  0.5822  0.4056  0.1801
  847MOL0    Cl16793   4.134   8.495   2.837 -0.0536  0.2009 -0.4919
  847MOL0     C16794   3.063   8.993   2.880  0.0038  0.2866 -0.4591
  847MOL0     C16795   2.930   9.035   2.892 -0.6161  0.8704  0.2118
  847MOL0     O16796   2.709   9.186   2.791 -0.8050 -0.1713 -0.3057
  847MOL0     C16797   2.453   9.257   2.807 -0.0757  0.2001  0.6450
  847MOL0     C16798   2.326   9.302   2.836 -0.1924 -0.3723  0.2768
  847MOL0     N16799   1.538   9.077   3.026  0.0051  0.5036  0.1401
  847MOL0     N16800   1.466   9.077   3.128 -0.3254  0.5726 -0.0748
  847MOL0     C16801   0.795  10.124   3.325  0.5367  0.0176  0.1752
  847MOL0     C16802   0.676  10.195   3.319  1.4538  0.3423 -0.6403
  847MOL0     C16803   0.345  10.482   3.239 -0.0566  0.1572 -0.7367
  847MOL0     C16804   0.273  10.427   3.133 -0.5155 -0.2474  0.1908
  847MOL0     C16805   0.167  10.498   3.074 -0.1789 -0.0256 -0.2722
  847MOL0     C16806   0.117  10.608   3.139 -1.1719 -0.0552  0.3485
  847MOL0     O16807  -0.006  10.659   3.108 -0.1728  0.1598 -0.8163
  847MOL0     C16808  -0.065  10.636   2.989 -0.3250  1.4763  0.3029
  847MOL0     C16809  -0.181  10.731   2.952  0.2828 -0.4834  0.3723
  847MOL0     C16810  -0.288  10.739   3.061 -0.0564 -0.5026  0.2557
  847MOL0     C16811  -0.337  10.607   3.119  0.0597 -0.4312  0.0182
  847MOL0     C16812  -0.383  10.523   3.011  0.1808  0.4329  0.7128
  847MOL0     C16813  -0.413  10.454   2.912  0.3963  0.3604  0.1727
  847MOL0     C16814   0.179  10.657   3.250 -0.5962 -0.4034 -0.4117
  847MOL0     C16815   0.297  10.600   3.294  0.4503  0.4427 -0.0210
  847MOL0     C16816   0.371  10.686   3.398 -0.1022  0.7449  0.2548
  847MOL0     H16817   0.721  10.338   3.019  0.1113 -0.8840 -0.9631
  847MOL0     H16818   0.931  10.217   3.032 -2.1609  1.1328 -1.8937
  847MOL0     H16819   0.950   9.893   3.359 -2.1983  2.4034  0.2000
  847MOL0     H16820   1.048  10.028   3.425 -2.6545 -1.1394  1.1622
  847MOL0     H16821   1.242   9.965   3.279 -0.5898 -0.0733 -0.6892
  847MOL0     H16822   1.198   9.854   3.406  1.1809  2.0786  1.3516
  847MOL0     H16823   1.043   9.735   3.218 -1.2141  0.6152 -1.0051
  847MOL0     H16824   1.123   9.840   3.109  1.6878  1.1797  1.3299
  847MOL0     H16825   1.267   9.684   3.084 -0.9329  2.4837 -1.5000
  847MOL0     H16826   1.341   9.734   3.239  2.1034 -2.4641 -2.2777
  847MOL0     H16827   1.140   9.510   3.199  1.1515 -0.4357 -1.9296
  847MOL0     H16828   1.206   9.574   3.354  0.9865  1.1834  0.5480
  847MOL0     H16829   1.371   9.436   3.127  4.2466 -2.4913  1.1466
  847MOL0     H16830   1.440   9.506   3.279  0.2556 -3.4111 -0.1848
  847MOL0     H16831   1.239   9.288   3.280 -1.6839  2.4106  0.6667
  847MOL0     H16832   1.301   9.373   3.417 -2.3855  2.3184 -1.5902
  847MOL0     H16833   1.508   9.264   3.396  0.0499 -1.2517  0.2319
  847MOL0     H16834   1.387   9.139   3.361 -1.8924 -0.0055 -1.0531
  847MOL0     H16835   1.610   9.371   3.149  2.6307 -2.0264  0.9930
  847MOL0     H16836   1.650   9.328   2.851 -0.4726  1.1237  0.4848
  847MOL0     H16837   1.700   9.149   2.828  3.1002 -1.5654  2.5157
  847MOL0     H16838   1.831   9.354   3.003 -0.5979  0.1667 -0.0180
  847MOL0     H16839   1.874   9.179   2.999  1.7070 -0.5357 -2.1155
  847MOL0     H16840   1.952   9.192   2.791  1.6894 -0.0067  1.2901
  847MOL0     H16841   1.861   9.351   2.744 -2.7549 -1.2168  1.3928
  847MOL0     H16842   2.087   9.385   2.764  0.2141 -5.6480 -0.5983
  847MOL0     H16843   2.019   9.451   2.915  2.6376  0.3517  1.8666
  847MOL0     H16844   2.222   9.080   3.063  1.4407 -2.1818 -0.3183
  847MOL0     H16845   2.556   8.977   3.093  1.0757  1.2225 -0.5537
  847MOL0     H16846   2.447   8.877   2.987 -1.6294 -0.3716  1.2612
  847MOL0     H16847   2.392   8.949   3.139  2.6655  1.0286  2.3064
  847MOL0     H16848   2.774   8.743   2.894 -1.3942  1.3632 -1.4626
  847MOL0     H16849   3.000   8.658   2.876  1.7638  0.2209  1.5005
  847MOL0     H16850   3.218   8.853   2.664  0.3136 -0.2990  0.3825
  847MOL0     H16851   3.320   8.952   2.766 -0.5727 -0.2913  2.7445
  847MOL0     H16852   3.375   8.652   2.745 -1.5537  0.7843  2.6513
  847MOL0     H16853   3.428   8.768   2.620  0.7593 -2.2621 -0.0863
  847MOL0     H16854   3.502   8.788   2.907 -0.2246  3.2641  0.5925
  847MOL0     H16855   3.556   8.899   2.773  0.6862 -0.9115 -2.9834
  847MOL0     H16856   3.657   8.725   2.643  0.9106  1.0470  0.4324
  847MOL0     H16857   3.611   8.606   2.765 -2.0207  0.1374  0.8647
  847MOL0     H16858   3.794   8.844   2.813 -1.1873  0.4754 -0.4314
  847MOL0     H16859   3.771   8.718   2.930 -1.9007 -1.1803 -0.9326
  847MOL0     H16860   3.977   8.699   2.801  0.8375  0.3302 -0.6309
  847MOL0     H16861   3.874   8.672   2.655 -1.4222 -0.7517  0.3255
  847MOL0     H16862   3.785   8.466   2.755 -1.2233 -0.1285  2.0487
  847MOL0     H16863   3.860   8.493   2.904  0.2424  1.4413  0.5516
  847MOL0     H16864   3.999   8.424   2.643 -0.1988  2.4139  0.0423
  847MOL0     H16865   3.990   8.326   2.790  0.4089  0.7991  1.2735
  847MOL0     H16866   3.143   9.064   2.899  1.4460 -0.5485 -2.9559
  847MOL0     H16867   2.916   9.142   2.907 -1.6568  0.4811  2.4511
  847MOL0     H16868   2.517   9.309   2.736 -1.1247  1.6981  0.7591
  847MOL0     H16869   2.299   9.381   2.767 -1.4595 -1.4608 -0.5351
  847MOL0     H16870   0.808  10.065   3.415  1.7957  1.0520  0.7022
  847MOL0     H16871   0.609  10.198   3.405  2.4822 -0.5275  0.2237
  847MOL0     H16872   0.315  10.343   3.079  2.2897  1.5055 -0.6157
  847MOL0     H16873   0.117  10.445   2.993 -0.6437 -3.2987  1.9511
  847MOL0     H16874   0.008  10.631   2.908  1.9003 -2.0029  2.2267
  847MOL0     H16875  -0.104  10.534   2.996 -0.1177  1.5127  2.8427
  847MOL0     H16876  -0.231  10.694   2.862  1.1241  1.8771 -1.1695
  847MOL0     H16877  -0.145  10.830   2.925  1.2367 -0.2305  2.3467
  847MOL0     H16878  -0.251  10.799   3.144 -3.2876 -2.0072  3.0357
  847MOL0     H16879  -0.377  10.790   3.023 -0.5369 -1.3421  0.2227
  847MOL0     H16880  -0.422  10.623   3.186 -1.3936  1.0655 -2.0542
  847MOL0     H16881  -0.263  10.550   3.176 -0.7344 -2.2389 -0.6676
  847MOL0     H16882  -0.420  10.382   2.833  1.8336 -0.9935  1.2173
  847MOL0     H16883   0.128  10.742   3.295  1.0140  1.4157 -1.8809
  847MOL0     H16884   0.476  10.700   3.370  0.6077  0.1768  2.4734
  847MOL0     H16885   0.324  10.785   3.405 -0.9849  0.6806 -3.1596
  847MOL0     H16886   0.367  10.637   3.496 -0.6752  1.5233  0.6346
  848MOL0     O16887   3.958  10.215   9.016 -0.2694 -0.1461 -0.9122
  848MOL0     C16888   3.857  10.220   9.089  0.1725 -0.1421  0.8372
  848MOL0     O16889   3.853  10.291   9.208  0.2679 -0.2138  0.7270
  848MOL0     C16890   3.956  10.358   9.268 -0.9082  0.5404  0.3895
  848MOL0     C16891   4.094  10.321   9.253  0.0139 -0.3821  0.3221
  848MOL0     C16892   4.196  10.408   9.310  0.6652  0.0698 -0.2985
  848MOL0     C16893   4.163  10.519   9.375  0.1065 -0.6864 -0.7192
  848MOL0     O16894   4.248  10.612   9.427  0.2751 -0.1215 -0.3173
  848MOL0     C16895   4.385  10.578   9.421 -0.0291  0.1928 -0.7018
  848MOL0     C16896   4.469  10.690   9.483 -0.2153 -0.5975  0.5410
  848MOL0     C16897   4.605  10.632   9.526 -0.0995 -0.9172 -0.0887
  848MOL0     C16898   4.698  10.727   9.605 -0.9123 -0.2591  0.5749
  848MOL0     C16899   4.841  10.686   9.582  0.5935  0.0873 -0.0589
  848MOL0     C16900   4.924  10.770   9.670  0.4853 -0.2398 -0.3680
  848MOL0     C16901   5.074  10.733   9.681  0.5455 -1.2095 -0.4210
  848MOL0     C16902   5.154  10.841   9.759 -0.1462  0.0521  0.0844
  848MOL0     N16903   5.162  10.824   9.909 -0.1157 -0.3456 -0.1581
  848MOL0     C16904   5.096  10.737   9.997  0.3563 -0.3247  0.4293
  848MOL0     C16905   5.141  10.759  10.115  0.1725  0.5995  0.1143
  848MOL0     C16906   5.089  10.717  10.246  0.6340 -0.2876  0.1385
  848MOL0     C16907   5.189  10.651  10.330 -0.2605  0.1915 -0.7049
  848MOL0     C16908   5.125  10.643  10.467 -0.5476  0.8018 -0.0113
  848MOL0     C16909   5.201  10.546  10.562 -0.1228 -0.5621 -1.1484
  848MOL0     O16910   5.115  10.515  10.681  0.5285  0.0454 -0.1959
  848MOL0     C16911   5.145  10.421  10.769 -0.3581  0.3558 -0.6999
  848MOL0     C16912   5.271  10.353  10.778 -0.5301 -0.5209  0.0676
  848MOL0     C16913   5.297  10.251  10.875 -0.5504  0.1601  0.1310
  848MOL0     C16914   5.438  10.182  10.868  0.1212 -0.0255  0.3025
  848MOL0     C16915   5.194  10.209  10.967 -0.2526 -0.4960 -0.1942
  848MOL0     C16916   5.212  10.100  11.067  1.3386 -0.6724  0.5050
  848MOL0     O16917   5.334  10.038  11.077 -0.4699  0.1672 -0.8447
  848MOL0     C16918   5.347   9.917  11.145  0.2085 -0.2131  0.7417
  848MOL0     C16919   5.435   9.821  11.088 -0.0587  1.0682  0.1174
  848MOL0     C16920   5.449   9.692  11.151 -0.5783 -0.5410  0.2888
  848MOL0     C16921   5.404   9.662  11.279  1.2065 -0.0107  0.5388
  848MOL0     O16922   5.436   9.542  11.344  0.1530 -0.4439 -0.6499
  848MOL0     C16923   5.499   9.438  11.279 -0.4648  1.1521 -0.6384
  848MOL0     C16924   5.494   9.302  11.356 -0.3036  0.0579 -1.1713
  848MOL0     C16925   5.626   9.281  11.423 -0.3565 -0.0477 -0.7773
  848MOL0     C16926   5.655   9.376  11.546  0.2100  0.8758  0.2727
  848MOL0     C16927   5.749   9.316  11.652  0.3887  0.2379 -0.1239
  848MOL0     C16928   5.871   9.245  11.601  0.7675 -0.4223 -0.7974
  848MOL0     C16929   5.965   9.336  11.526  0.0943 -0.3615  0.7150
  848MOL0     C16930   6.091   9.262  11.463 -0.2010 -0.0082  0.3070
  848MOL0    Cl16931   6.164   9.159  11.593  0.1893  0.2943  0.6458
  848MOL0     C16932   5.330   9.764  11.332  0.3911 -0.0440 -0.0553
  848MOL0     C16933   5.299   9.888  11.272  0.8202  1.1914 -0.4478
  848MOL0     O16934   5.109  10.061  11.116  0.6338 -0.3342 -0.7365
  848MOL0     C16935   5.065  10.268  10.951 -0.7575 -0.2887 -0.5027
  848MOL0     C16936   5.044  10.381  10.862  0.1455 -0.0109  0.2660
  848MOL0     N16937   5.233  10.865  10.111 -0.5737  0.9039 -0.5053
  848MOL0     N16938   5.252  10.893   9.990  0.6696  0.1847  0.1938
  848MOL0     C16939   4.027  10.545   9.404 -0.5261 -0.1951 -0.5650
  848MOL0     C16940   3.931  10.460   9.358  0.5105  0.1232  0.1925
  848MOL0     C16941   3.735  10.149   9.037 -0.0927  0.5066  0.3968
  848MOL0     C16942   3.734  10.127   8.901 -0.6177  0.5687  0.2055
  848MOL0     C16943   3.629  10.063   8.836 -0.2892  0.2642  0.3523
  848MOL0     C16944   3.515  10.018   8.907  0.0321  0.1834 -0.5519
  848MOL0     O16945   3.398   9.966   8.860 -0.2727  0.0404  0.5766
  848MOL0     C16946   3.371   9.910   8.728 -0.4463  0.6680 -0.1145
  848MOL0     C16947   3.233   9.851   8.732 -0.1734  0.4059  0.8288
  848MOL0     C16948   3.120   9.958   8.737 -0.1707 -0.1382 -0.2407
  848MOL0     C16949   3.005   9.913   8.645  0.0659 -0.4214 -0.2519
  848MOL0     C16950   2.901  10.016   8.657  0.5540  0.5407  0.3397
  848MOL0     C16951   2.811  10.099   8.676 -0.3309  0.1237  0.6116
  848MOL0     C16952   3.515  10.032   9.045  0.5401 -0.1860 -0.5299
  848MOL0     C16953   3.620  10.098   9.109  0.2881  1.1085 -0.6798
  848MOL0     C16954   3.605  10.110   9.258  0.0383 -0.3192 -0.6900
  848MOL0     H16955   4.113  10.228   9.201  0.1329 -0.7403  0.9896
  848MOL0     H16956   4.300  10.379   9.304 -0.0715 -3.3267  1.2404
  848MOL0     H16957   4.415  10.561   9.317 -0.0338 -1.2449 -0.4872
  848MOL0     H16958   4.414  10.485   9.471  1.9390  0.8324 -0.5652
  848MOL0     H16959   4.499  10.758   9.403  2.0101  0.0019  1.7976
  848MOL0     H16960   4.423  10.757   9.557  2.0119  2.6128 -0.7510
  848MOL0     H16961   4.582  10.549   9.593  1.5639 -1.1988  0.1564
  848MOL0     H16962   4.648  10.591   9.434 -3.5909 -0.8771 -1.9494
  848MOL0     H16963   4.698  10.832   9.576 -0.8704 -0.3504  0.2394
  848MOL0     H16964   4.669  10.715   9.710 -1.1498  1.7266  0.7653
  848MOL0     H16965   4.875  10.709   9.480  1.9398  0.7559  0.5219
  848MOL0     H16966   4.851  10.579   9.604 -2.3413 -0.0649  0.9563
  848MOL0     H16967   4.907  10.878   9.657 -0.7693 -0.4186 -0.3542
  848MOL0     H16968   4.885  10.743   9.769  1.2306 -0.8249 -0.2205
  848MOL0     H16969   5.103  10.729   9.575  0.6827  0.7277 -0.4915
  848MOL0     H16970   5.081  10.636   9.732 -2.6570 -1.1891  0.2504
  848MOL0     H16971   5.256  10.825   9.724 -0.9745 -2.2587 -1.5459
  848MOL0     H16972   5.134  10.945   9.733  0.7412  0.1456 -0.2452
  848MOL0     H16973   5.010  10.676   9.972  0.0244  1.2148 -2.6729
  848MOL0     H16974   5.005  10.650  10.228  0.9115 -0.3131 -1.1481
  848MOL0     H16975   5.051  10.807  10.295 -0.9609 -0.9801  0.2294
  848MOL0     H16976   5.223  10.556  10.287  1.7808 -0.4313  2.0285
  848MOL0     H16977   5.279  10.713  10.343  0.3349 -0.9982  1.2491
  848MOL0     H16978   5.135  10.736  10.523  1.4350  0.7424 -0.1929
  848MOL0     H16979   5.025  10.602  10.449  0.9230 -2.2370 -2.1811
  848MOL0     H16980   5.223  10.458  10.502 -2.1388 -0.1294 -2.6400
  848MOL0     H16981   5.290  10.598  10.599 -0.4040 -1.0353  0.2903
  848MOL0     H16982   5.344  10.379  10.703 -1.7363  0.7428 -0.7204
  848MOL0     H16983   5.429  10.077  10.837  2.7310  0.2711 -1.8141
  848MOL0     H16984   5.480  10.199  10.967  0.2037  0.9270  0.1152
  848MOL0     H16985   5.508  10.227  10.797  1.2581  1.4992  2.2777
  848MOL0     H16986   5.475   9.843  10.989  0.0462 -0.7692 -0.2834
  848MOL0     H16987   5.501   9.616  11.094 -0.3216 -1.3086  1.5224
  848MOL0     H16988   5.438   9.422  11.190 -1.2216 -0.5163  0.1402
  848MOL0     H16989   5.603   9.464  11.257  0.5834 -0.1837  2.2133
  848MOL0     H16990   5.424   9.309  11.439  0.5811  1.4556 -0.5161
  848MOL0     H16991   5.461   9.213  11.301  0.3774 -2.3892  2.0596
  848MOL0     H16992   5.705   9.299  11.350  0.5588  0.7515  0.3614
  848MOL0     H16993   5.630   9.181  11.468  1.6674  1.2078  2.1820
  848MOL0     H16994   5.561   9.410  11.590 -2.5299 -1.8007 -2.9479
  848MOL0     H16995   5.695   9.471  11.509 -3.1358  2.4200  0.2160
  848MOL0     H16996   5.783   9.392  11.723  1.9659  0.2585 -0.8506
  848MOL0     H16997   5.691   9.246  11.713  0.9043 -0.8427 -0.8394
  848MOL0     H16998   5.834   9.172  11.528 -0.2399 -2.2183  1.3772
  848MOL0     H16999   5.918   9.187  11.681  0.3899 -2.4415 -1.9426
  848MOL0     H17000   5.999   9.419  11.590  0.3960  2.6447 -3.0127
  848MOL0     H17001   5.914   9.390  11.446  2.5662  0.7343 -0.2300
  848MOL0     H17002   6.164   9.334  11.425 -0.0091 -1.1825 -1.6944
  848MOL0     H17003   6.065   9.210  11.371 -1.0252 -0.8868  1.0077
  848MOL0     H17004   5.271   9.737  11.419  0.6402 -0.7469 -0.1002
  848MOL0     H17005   5.239   9.964  11.321  1.7106  2.0892 -0.7053
  848MOL0     H17006   4.986  10.228  11.014 -1.1396 -2.1552 -2.0567
  848MOL0     H17007   4.952  10.439  10.859  2.2760  3.6901 -1.5218
  848MOL0     H17008   4.002  10.637   9.456  1.8605  2.2820 -3.4072
  848MOL0     H17009   3.829  10.495   9.371  0.7542  2.1880 -2.5830
  848MOL0     H17010   3.805  10.165   8.828 -1.0986 -1.5090 -1.4349
  848MOL0     H17011   3.632  10.053   8.728 -1.9004 -1.4814  0.4330
  848MOL0     H17012   3.392   9.979   8.646  3.1499 -1.1444 -0.8976
  848MOL0     H17013   3.434   9.823   8.711 -0.2122  0.8505 -0.1797
  848MOL0     H17014   3.215   9.772   8.805  2.5381 -3.0562 -1.8501
  848MOL0     H17015   3.219   9.793   8.640  1.4978 -0.4305  1.0441
  848MOL0     H17016   3.091   9.967   8.842  1.3021 -0.0006  0.1802
  848MOL0     H17017   3.160  10.057   8.710  0.1845 -0.1982  0.0505
  848MOL0     H17018   2.968   9.812   8.667  0.3193 -0.5767 -0.5328
  848MOL0     H17019   3.040   9.909   8.541 -0.3199  1.2178 -0.4714
  848MOL0     H17020   2.733  10.173   8.684  0.9157  2.2141 -3.6117
  848MOL0     H17021   3.430  10.002   9.106 -0.1462  0.4963 -1.1415
  848MOL0     H17022   3.699  10.132   9.310  0.6814  0.3924 -2.0998
  848MOL0     H17023   3.544  10.196   9.288 -1.2412 -1.1757 -0.7838
  848MOL0     H17024   3.571  10.015   9.300  1.3410 -0.1789  0.7848
  849MOL0     O17025  11.202   3.053   2.923 -0.2047  0.3350  0.4370
  849MOL0     C17026  11.221   3.174   2.915  0.2033 -0.1228 -0.3400
  849MOL0     O17027  11.158   3.259   2.826 -0.2039 -0.2610 -0.3512
  849MOL0     C17028  11.090   3.214   2.720  0.6311  1.1967  0.4957
  849MOL0     C17029  10.975   3.282   2.675 -1.0100 -0.7661  0.4318
  849MOL0     C17030  10.899   3.242   2.570  0.3501  0.2424 -0.0133
  849MOL0     C17031  10.922   3.116   2.506  0.7582 -0.1929  0.5752
  849MOL0     O17032  10.856   3.057   2.397 -0.6625  0.3266  0.6450
  849MOL0     C17033  10.821   3.148   2.284 -0.0517  0.0626  0.2643
  849MOL0     C17034  10.683   3.209   2.295  0.1380  0.1501 -0.6741
  849MOL0     C17035  10.581   3.116   2.353 -0.4452 -0.4606 -0.3547
  849MOL0     C17036  10.434   3.171   2.352 -0.6777  0.1804  0.8447
  849MOL0     C17037  10.374   3.171   2.210  0.7213 -0.9624 -0.4623
  849MOL0     C17038  10.231   3.230   2.209 -0.6929  0.4447 -0.5955
  849MOL0     C17039  10.153   3.192   2.084 -0.1995  0.8957 -0.3374
  849MOL0     C17040  10.125   3.307   1.988  0.2725  0.3838 -0.0471
  849MOL0     N17041  10.240   3.326   1.897  0.1928 -1.0375 -1.2297
  849MOL0     C17042  10.359   3.376   1.932  0.3276 -0.1912  0.7135
  849MOL0     C17043  10.425   3.391   1.815  0.2233 -0.5359  0.1905
  849MOL0     C17044  10.565   3.443   1.787  0.8573  0.2236  0.8238
  849MOL0     C17045  10.665   3.418   1.892  0.4080  0.3836 -0.6029
  849MOL0     C17046  10.799   3.495   1.873  0.5644  0.0653 -0.6189
  849MOL0     C17047  10.891   3.462   1.985  0.3116 -0.2049 -0.4097
  849MOL0     O17048  11.009   3.544   1.964  0.0421 -0.1085  0.1710
  849MOL0     C17049  11.116   3.489   2.033  0.9690  0.1830 -0.9221
  849MOL0     C17050  11.105   3.395   2.140 -0.3439 -0.5847 -0.0053
  849MOL0     C17051  11.224   3.348   2.207  0.0669  0.1510 -0.6370
  849MOL0     C17052  11.215   3.244   2.312 -0.2799 -0.3170 -0.2017
  849MOL0     C17053  11.342   3.386   2.152 -0.4591  0.0157 -0.0475
  849MOL0     C17054  11.473   3.320   2.193 -0.0863  0.1222  0.1560
  849MOL0     O17055  11.516   3.210   2.123  0.1734  0.3965 -0.2196
  849MOL0     C17056  11.653   3.171   2.145  0.5845  0.0973  0.1272
  849MOL0     C17057  11.758   3.263   2.157  0.0418  0.2312 -1.0496
  849MOL0     C17058  11.885   3.233   2.166 -0.7143  0.5368  0.0826
  849MOL0     C17059  11.922   3.100   2.172 -0.7233  0.3073 -0.5324
  849MOL0     O17060  12.049   3.065   2.171 -0.4009  0.7206 -0.1438
  849MOL0     C17061  12.160   3.158   2.170 -0.7744 -0.8504  0.3105
  849MOL0     C17062  12.285   3.066   2.158 -0.8004 -0.3177  0.0304
  849MOL0     C17063  12.410   3.139   2.108 -0.4294 -0.0193 -0.3065
  849MOL0     C17064  12.467   3.222   2.221  0.4643  0.8826 -0.1244
  849MOL0     C17065  12.605   3.268   2.176  0.3120  0.5448  0.1808
  849MOL0     C17066  12.687   3.320   2.290 -0.1353 -0.0148 -0.6767
  849MOL0     C17067  12.803   3.410   2.238  0.3164 -1.1287  0.2934
  849MOL0     C17068  12.889   3.483   2.344 -0.7092  0.0157  0.3667
  849MOL0    Cl17069  12.987   3.618   2.270 -0.0038 -0.3218  0.5336
  849MOL0     C17070  11.827   3.000   2.168 -0.2901 -0.4906  0.8608
  849MOL0     C17071  11.686   3.035   2.149 -0.9742  1.3832  1.4194
  849MOL0     O17072  11.527   3.366   2.291  0.1025 -0.2601  0.6099
  849MOL0     C17073  11.354   3.473   2.041 -1.1366  0.0218 -1.5027
  849MOL0     C17074  11.242   3.534   1.992  0.9435 -0.7169  0.2948
  849MOL0     N17075  10.347   3.347   1.716 -0.2480 -0.1226 -0.0145
  849MOL0     N17076  10.231   3.299   1.765 -0.6186 -0.3052  0.1183
  849MOL0     C17077  11.028   3.047   2.549 -1.1162  0.6475  0.4663
  849MOL0     C17078  11.118   3.097   2.650  0.4827  1.1997  0.0344
  849MOL0     C17079  11.298   3.247   3.028 -0.5887 -0.6794 -0.2310
  849MOL0     C17080  11.371   3.370   2.995  0.9776 -0.5351  0.6574
  849MOL0     C17081  11.441   3.447   3.092  0.4926  0.2451  0.4956
  849MOL0     C17082  11.448   3.392   3.219 -0.1238 -0.5667  0.5657
  849MOL0     O17083  11.535   3.437   3.310  0.7958  0.6269  1.1472
  849MOL0     C17084  11.660   3.492   3.265 -0.1656  0.7912 -0.4885
  849MOL0     C17085  11.748   3.464   3.388  0.6994 -0.7468  0.2028
  849MOL0     C17086  11.775   3.321   3.436 -0.1960  0.4840  0.1097
  849MOL0     C17087  11.865   3.249   3.328  0.5350 -0.0824 -0.1222
  849MOL0     C17088  11.784   3.172   3.235  0.5481 -0.1576  0.4110
  849MOL0     C17089  11.709   3.119   3.157 -0.4799 -0.2177 -0.5064
  849MOL0     C17090  11.379   3.270   3.251  0.7688  0.1434 -0.3579
  849MOL0     C17091  11.299   3.209   3.159 -0.2291 -0.4867 -0.3811
  849MOL0     C17092  11.216   3.094   3.211  0.1840 -0.3365 -0.2701
  849MOL0     H17093  10.944   3.376   2.720  1.3629 -0.4163  1.4696
  849MOL0     H17094  10.804   3.288   2.548 -0.0488 -0.3590  0.4060
  849MOL0     H17095  10.823   3.067   2.211 -1.3935  0.7091 -0.5175
  849MOL0     H17096  10.893   3.223   2.251 -0.7097  0.9013  0.6983
  849MOL0     H17097  10.684   3.300   2.356  1.0078 -0.7892  0.7672
  849MOL0     H17098  10.651   3.248   2.197 -1.2180  0.5574 -0.0994
  849MOL0     H17099  10.598   3.014   2.317  0.1501 -1.2783  2.0169
  849MOL0     H17100  10.600   3.105   2.461 -1.7202  1.4305  0.0996
  849MOL0     H17101  10.367   3.101   2.403 -2.3937 -0.6103 -2.2245
  849MOL0     H17102  10.432   3.275   2.388  0.4487  0.1804  0.9422
  849MOL0     H17103  10.363   3.066   2.185 -3.4478 -0.7206 -0.3681
  849MOL0     H17104  10.442   3.227   2.145 -1.2946  1.4854 -0.6257
  849MOL0     H17105  10.177   3.179   2.290  2.8761 -0.4883  1.3936
  849MOL0     H17106  10.218   3.334   2.240 -0.3044  0.1836  0.5124
  849MOL0     H17107  10.053   3.158   2.114  1.0394 -2.1398  0.7806
  849MOL0     H17108  10.189   3.102   2.032 -4.6131 -1.0803 -0.4913
  849MOL0     H17109  10.034   3.288   1.930 -0.7401  0.0160  1.6119
  849MOL0     H17110  10.116   3.399   2.046 -0.3753  0.9577 -1.0184
  849MOL0     H17111  10.390   3.406   2.031 -1.0845 -0.1776  1.1628
  849MOL0     H17112  10.557   3.551   1.776  0.4182  0.0078 -1.5632
  849MOL0     H17113  10.601   3.401   1.692 -1.2505  0.3778 -0.1060
  849MOL0     H17114  10.621   3.453   1.986 -0.2030 -2.6581  0.3536
  849MOL0     H17115  10.692   3.312   1.898  2.7271  0.7408 -2.8876
  849MOL0     H17116  10.834   3.464   1.774 -1.3483 -1.8180 -0.8002
  849MOL0     H17117  10.790   3.604   1.875  0.9893  0.1032 -0.7715
  849MOL0     H17118  10.845   3.489   2.080  1.3383  4.4860 -1.0036
  849MOL0     H17119  10.913   3.356   1.969 -1.1201 -0.2792 -2.1968
  849MOL0     H17120  11.009   3.375   2.186 -1.4403 -0.1155 -1.9986
  849MOL0     H17121  11.220   3.290   2.411  0.6169  2.8682 -1.6051
  849MOL0     H17122  11.292   3.167   2.303  0.8029  0.5590  1.2159
  849MOL0     H17123  11.116   3.202   2.294 -0.3803  0.7837 -2.5820
  849MOL0     H17124  11.734   3.367   2.137 -0.8144  0.2334 -0.0543
  849MOL0     H17125  11.959   3.312   2.175  2.7559 -2.2413 -1.5508
  849MOL0     H17126  12.158   3.218   2.079 -1.0180 -1.8096 -0.3370
  849MOL0     H17127  12.159   3.224   2.257  0.3521  1.1072 -1.0911
  849MOL0     H17128  12.302   3.014   2.253  2.1575  2.9111  1.4461
  849MOL0     H17129  12.269   2.990   2.080  1.2139 -0.1189 -0.6121
  849MOL0     H17130  12.384   3.220   2.039  1.7809  3.5553  2.6317
  849MOL0     H17131  12.476   3.068   2.058 -2.5300 -2.5577  0.3574
  849MOL0     H17132  12.471   3.157   2.309  2.8401 -0.2069 -0.9271
  849MOL0     H17133  12.409   3.310   2.250  0.8227 -0.2229  4.6182
  849MOL0     H17134  12.663   3.191   2.125  1.5550  0.9198  0.9684
  849MOL0     H17135  12.596   3.346   2.100  0.9363 -0.5289 -1.0400
  849MOL0     H17136  12.730   3.238   2.349  2.2253  1.2868 -0.4650
  849MOL0     H17137  12.622   3.372   2.362  0.3419 -0.0533 -0.2139
  849MOL0     H17138  12.756   3.495   2.188 -0.0026 -0.6214  1.4175
  849MOL0     H17139  12.867   3.355   2.169 -0.0645 -0.0457 -0.9556
  849MOL0     H17140  12.964   3.418   2.390  1.3200  0.8071 -1.5902
  849MOL0     H17141  12.816   3.519   2.417 -1.4069  1.4315 -0.9597
  849MOL0     H17142  11.860   2.896   2.166  4.5121  0.8101  0.5720
  849MOL0     H17143  11.612   2.956   2.147 -0.0179  0.4667  1.0137
  849MOL0     H17144  11.456   3.496   2.011 -0.2252 -0.4825  0.9248
  849MOL0     H17145  11.247   3.608   1.913  0.1421 -0.7475  0.2024
  849MOL0     H17146  11.066   2.952   2.513  2.3633  0.8740  3.0439
  849MOL0     H17147  11.198   3.027   2.670 -0.7625 -1.0063 -2.1832
  849MOL0     H17148  11.388   3.411   2.896  0.4815  0.8939  1.1342
  849MOL0     H17149  11.493   3.537   3.061  2.0329  0.5780  3.6299
  849MOL0     H17150  11.698   3.438   3.178  0.2121 -0.7587  0.5977
  849MOL0     H17151  11.651   3.594   3.227 -1.2232  0.8005 -0.2436
  849MOL0     H17152  11.696   3.521   3.465 -2.1285 -1.1864 -1.2421
  849MOL0     H17153  11.841   3.518   3.366 -0.0020  0.8476  0.9827
  849MOL0     H17154  11.823   3.331   3.534  0.6578 -0.3010 -0.2207
  849MOL0     H17155  11.680   3.274   3.462 -0.9429  2.0708  0.3842
  849MOL0     H17156  11.915   3.172   3.388  1.5592 -0.3393 -1.2497
  849MOL0     H17157  11.928   3.321   3.274 -1.1865  0.7648 -1.0725
  849MOL0     H17158  11.648   3.062   3.089  0.7731 -0.4845 -1.4301
  849MOL0     H17159  11.398   3.238   3.353  3.5446 -0.1521 -0.8944
  849MOL0     H17160  11.111   3.114   3.192 -0.2514 -1.4839  0.7877
  849MOL0     H17161  11.240   2.995   3.170 -1.4951 -1.1281  0.5928
  849MOL0     H17162  11.223   3.086   3.320 -0.6774  0.4902 -0.1486
  850MOL0     O17163   3.429   3.429   1.692 -0.3108 -0.3029 -0.0458
  850MOL0     C17164   3.320   3.373   1.682  0.1772 -1.3268  1.2100
  850MOL0     O17165   3.285   3.280   1.581 -0.7544 -0.5839 -0.4086
  850MOL0     C17166   3.370   3.223   1.496  0.0027  0.4498 -0.9272
  850MOL0     C17167   3.483   3.278   1.439  0.6384  0.4678 -1.2363
  850MOL0     C17168   3.551   3.226   1.333 -0.4915  0.7811 -0.0460
  850MOL0     C17169   3.507   3.097   1.285 -0.3213  0.1230  0.5828
  850MOL0     O17170   3.574   3.014   1.193  0.5143 -0.6872  0.1117
  850MOL0     C17171   3.711   3.041   1.164  0.8657  0.0656 -0.0527
  850MOL0     C17172   3.808   3.029   1.284  0.1916  0.5604  0.1627
  850MOL0     C17173   3.951   3.040   1.236 -0.8344  0.1463  0.0602
  850MOL0     C17174   4.033   2.904   1.239 -0.1639 -0.5804  0.1774
  850MOL0     C17175   4.182   2.927   1.218  0.3025  0.2872 -0.3465
  850MOL0     C17176   4.264   2.812   1.281  0.3768  0.6268 -0.5762
  850MOL0     C17177   4.411   2.783   1.230  0.7302  0.0454  0.2859
  850MOL0     C17178   4.490   2.915   1.238  0.4965  0.4958  0.3013
  850MOL0     N17179   4.531   2.951   1.373 -0.4217 -0.4152 -0.4439
  850MOL0     C17180   4.452   3.016   1.466 -0.7866 -0.7324 -0.0105
  850MOL0     C17181   4.532   3.015   1.578 -0.1733  0.9760 -0.4650
  850MOL0     C17182   4.487   3.078   1.706  0.1086  0.7204  0.5529
  850MOL0     C17183   4.427   2.968   1.805  0.1973 -0.0047 -0.1487
  850MOL0     C17184   4.513   2.839   1.827 -0.5133 -0.5591  0.5546
  850MOL0     C17185   4.440   2.708   1.782 -0.1501  0.1470  0.2814
  850MOL0     O17186   4.513   2.580   1.789 -1.3487 -0.3116  0.3960
  850MOL0     C17187   4.540   2.529   1.665 -0.2239 -0.0911  0.1909
  850MOL0     C17188   4.620   2.602   1.576 -0.8646  0.2008 -0.2771
  850MOL0     C17189   4.671   2.548   1.455 -0.8036  0.4489  0.3824
  850MOL0     C17190   4.765   2.628   1.367 -0.0978  0.6894  0.8984
  850MOL0     C17191   4.619   2.413   1.423 -0.6760  0.1106 -0.2300
  850MOL0     C17192   4.643   2.351   1.294  1.1041 -0.0419 -0.0142
  850MOL0     O17193   4.602   2.419   1.180 -0.0115  0.3456  0.4122
  850MOL0     C17194   4.622   2.350   1.064  0.0660  0.4560  0.3778
  850MOL0     C17195   4.556   2.230   1.046 -0.1514  0.2294  0.4285
  850MOL0     C17196   4.563   2.172   0.924  0.1743  0.3652 -0.2890
  850MOL0     C17197   4.648   2.213   0.822 -0.1685 -0.0783 -0.0835
  850MOL0     O17198   4.660   2.125   0.717  0.1286 -0.7380  0.5390
  850MOL0     C17199   4.787   2.109   0.655 -0.3358 -0.0906  0.8406
  850MOL0     C17200   4.881   2.027   0.744  0.8641 -0.1633  0.1862
  850MOL0     C17201   5.019   2.007   0.680  0.3919 -0.5945  0.4103
  850MOL0     C17202   5.089   1.896   0.762 -0.3792 -0.6646  0.2211
  850MOL0     C17203   5.199   1.838   0.682 -0.0311 -0.2089 -0.6605
  850MOL0     C17204   5.259   1.732   0.769  0.1097  0.6439  0.5482
  850MOL0     C17205   5.360   1.652   0.704  0.4046 -0.2796 -0.6504
  850MOL0     C17206   5.401   1.539   0.784 -0.5346 -0.1964 -1.3374
  850MOL0    Cl17207   5.508   1.567   0.933 -0.2440  0.0074  0.2818
  850MOL0     C17208   4.713   2.339   0.839 -0.0209 -0.6693 -0.2942
  850MOL0     C17209   4.692   2.409   0.957  0.1174 -0.8744  0.3550
  850MOL0     O17210   4.691   2.242   1.298 -0.0836  0.3752  0.3451
  850MOL0     C17211   4.533   2.354   1.505 -0.2750  0.6892  0.0925
  850MOL0     C17212   4.493   2.402   1.627 -1.1548 -0.0586  0.7735
  850MOL0     N17213   4.656   2.964   1.550  1.0849  0.1258 -0.0769
  850MOL0     N17214   4.652   2.928   1.428  0.0299  0.0912  0.8367
  850MOL0     C17215   3.393   3.035   1.335 -1.0044  0.1146  0.3966
  850MOL0     C17216   3.322   3.101   1.437  0.4464 -0.2994 -0.0125
  850MOL0     C17217   3.221   3.407   1.785 -0.0914  0.7240 -0.5077
  850MOL0     C17218   3.122   3.309   1.817 -0.3265 -0.5475 -0.6304
  850MOL0     C17219   3.024   3.333   1.920 -0.6316  0.7431  0.3171
  850MOL0     C17220   3.018   3.448   1.994 -0.2800  0.2409 -0.5845
  850MOL0     O17221   2.929   3.476   2.094 -0.2735 -0.0311 -0.4807
  850MOL0     C17222   2.810   3.392   2.100 -0.1548 -0.9823 -1.1491
  850MOL0     C17223   2.734   3.446   2.222 -0.0772 -0.6666  0.9463
  850MOL0     C17224   2.823   3.450   2.342  1.1246 -0.2582  0.0067
  850MOL0     C17225   2.946   3.354   2.360 -0.2280 -0.6134  0.0442
  850MOL0     C17226   2.927   3.214   2.318 -0.7579  0.6475 -0.7253
  850MOL0     C17227   2.917   3.101   2.278 -0.8958  0.0079 -0.0214
  850MOL0     C17228   3.121   3.544   1.979  1.0269  0.4654  0.3756
  850MOL0     C17229   3.222   3.527   1.873 -0.5903  0.4824  0.0830
  850MOL0     C17230   3.317   3.638   1.850  0.9008 -0.3652  0.9873
  850MOL0     H17231   3.515   3.372   1.484  1.1479 -1.1253  2.0123
  850MOL0     H17232   3.642   3.275   1.299  0.4960 -1.4156 -0.8264
  850MOL0     H17233   3.713   3.142   1.123 -0.0205  0.4034  0.7071
  850MOL0     H17234   3.731   2.960   1.092 -1.2161 -2.4665  1.9922
  850MOL0     H17235   3.788   3.109   1.355  1.8863 -0.1825  1.5652
  850MOL0     H17236   3.783   2.932   1.328  1.2696  0.2364  0.0961
  850MOL0     H17237   3.959   3.071   1.132  0.0422 -2.2173 -0.6568
  850MOL0     H17238   4.004   3.112   1.300 -0.4378 -0.6537  0.6556
  850MOL0     H17239   4.024   2.858   1.338  0.1556  0.2663  0.6134
  850MOL0     H17240   3.984   2.842   1.163 -3.5090 -0.0924  1.7516
  850MOL0     H17241   4.207   3.023   1.264 -1.7986  0.2267  1.1062
  850MOL0     H17242   4.200   2.935   1.111 -1.0783  1.2763 -0.5299
  850MOL0     H17243   4.268   2.824   1.390 -1.6651 -3.8253  0.1937
  850MOL0     H17244   4.205   2.723   1.259 -1.5508  1.4356  0.9646
  850MOL0     H17245   4.406   2.737   1.131 -0.5251 -1.3348  0.9638
  850MOL0     H17246   4.454   2.707   1.295 -0.3675 -1.3892 -0.6168
  850MOL0     H17247   4.583   2.908   1.181  0.1738  0.2607 -0.2062
  850MOL0     H17248   4.444   3.003   1.193 -0.3154 -1.2865 -2.6634
  850MOL0     H17249   4.349   3.050   1.458  0.2303  2.9407  0.5495
  850MOL0     H17250   4.413   3.155   1.681 -1.2736 -0.2107  1.6101
  850MOL0     H17251   4.571   3.132   1.751 -0.5384  1.6473  0.6708
  850MOL0     H17252   4.416   3.028   1.896  1.6713 -2.2156  1.5832
  850MOL0     H17253   4.325   2.937   1.779  0.0099  0.9573 -0.6037
  850MOL0     H17254   4.602   2.858   1.767  0.8522  0.2802  2.7366
  850MOL0     H17255   4.553   2.834   1.928  0.6372  3.6976  0.4798
  850MOL0     H17256   4.345   2.700   1.836 -1.5185  0.8776 -1.8912
  850MOL0     H17257   4.406   2.721   1.679 -0.8645  0.0761  0.5055
  850MOL0     H17258   4.664   2.695   1.611 -0.3869  0.8758 -2.5160
  850MOL0     H17259   4.805   2.558   1.293 -2.1041  1.7514 -1.3290
  850MOL0     H17260   4.843   2.667   1.432  2.1765 -1.0569 -0.6404
  850MOL0     H17261   4.719   2.710   1.311  0.8809  0.2728 -0.5651
  850MOL0     H17262   4.493   2.188   1.124 -0.1116  0.1351  0.4090
  850MOL0     H17263   4.508   2.081   0.902 -1.5207  1.4224 -0.6262
  850MOL0     H17264   4.781   2.056   0.560  1.7641 -0.2211  0.7414
  850MOL0     H17265   4.822   2.210   0.630 -2.0999  0.5534  0.8521
  850MOL0     H17266   4.894   2.086   0.835 -1.5904  0.6252  0.0949
  850MOL0     H17267   4.828   1.935   0.771 -3.3408  2.2469  0.9864
  850MOL0     H17268   5.075   2.101   0.676 -2.3521  1.1350 -2.9718
  850MOL0     H17269   5.000   1.976   0.577 -0.5131 -1.6811  0.8925
  850MOL0     H17270   5.012   1.825   0.794 -0.4081 -0.6647  0.1499
  850MOL0     H17271   5.129   1.937   0.855 -1.4551  1.9682 -0.4065
  850MOL0     H17272   5.167   1.798   0.585  0.8800  1.3271 -1.6366
  850MOL0     H17273   5.279   1.910   0.664  0.7012 -1.2156 -1.6283
  850MOL0     H17274   5.181   1.666   0.809 -0.8736  2.5220  1.8688
  850MOL0     H17275   5.296   1.779   0.861  0.3979  1.5818 -0.0448
  850MOL0     H17276   5.437   1.728   0.685 -0.5999  1.2576  1.1728
  850MOL0     H17277   5.318   1.616   0.609 -0.2921  0.5219 -0.6549
  850MOL0     H17278   5.462   1.485   0.712  2.3815  1.8327 -0.5744
  850MOL0     H17279   5.313   1.486   0.822 -1.9928  2.5539 -0.5991
  850MOL0     H17280   4.772   2.376   0.757 -1.8262  1.5740 -0.6713
  850MOL0     H17281   4.732   2.510   0.959 -0.0780 -0.7790 -0.4197
  850MOL0     H17282   4.499   2.256   1.474  0.0412  0.5578  0.1629
  850MOL0     H17283   4.414   2.353   1.684 -1.7304  1.3072  1.1767
  850MOL0     H17284   3.369   2.935   1.300  0.2098 -0.2695  0.5918
  850MOL0     H17285   3.233   3.060   1.485  0.1226 -1.4219 -1.5094
  850MOL0     H17286   3.123   3.229   1.745 -0.6844 -0.5574 -0.6241
  850MOL0     H17287   2.953   3.253   1.937 -1.5581  1.1881 -1.1889
  850MOL0     H17288   2.748   3.417   2.013  0.0773  0.9201 -0.8023
  850MOL0     H17289   2.823   3.283   2.095  1.0178 -0.9442  0.3982
  850MOL0     H17290   2.656   3.373   2.246  0.8645 -2.3656 -0.8444
  850MOL0     H17291   2.681   3.538   2.192 -2.0007 -2.4672 -1.7729
  850MOL0     H17292   2.870   3.547   2.356  3.2241 -1.1150 -0.6676
  850MOL0     H17293   2.762   3.437   2.431  0.6353 -4.5273 -0.7388
  850MOL0     H17294   2.963   3.348   2.468 -0.0222  0.8456  0.1168
  850MOL0     H17295   3.037   3.401   2.320 -0.5027  3.2413  3.3310
  850MOL0     H17296   2.916   2.997   2.250 -1.2036  0.1206 -0.4285
  850MOL0     H17297   3.113   3.633   2.041 -0.3810  2.1062 -1.9713
  850MOL0     H17298   3.409   3.611   1.903  1.9953  0.4971 -0.3898
  850MOL0     H17299   3.324   3.671   1.746  0.2497  0.4856  1.2006
  850MOL0     H17300   3.285   3.727   1.905  4.0796  0.6070  1.4866
  851MOL0     O17301   4.359   9.206  10.958 -0.1774 -0.6373 -0.5979
  851MOL0     C17302   4.277   9.289  10.927  0.8800 -0.5746  0.5890
  851MOL0     O17303   4.285   9.423  10.957 -0.1793  0.3232  0.1611
  851MOL0     C17304   4.410   9.475  10.972  0.1015  0.0744  0.1199
  851MOL0     C17305   4.478   9.541  10.869 -0.0355  1.3318  0.1471
  851MOL0     C17306   4.609   9.577  10.889  0.1494  1.4103 -0.3607
  851MOL0     C17307   4.674   9.576  11.013  0.7801 -0.2903 -1.0823
  851MOL0     O17308   4.805   9.627  11.022  0.6587  0.4918  0.8784
  851MOL0     C17309   4.877   9.626  11.157  0.3944 -0.1669  1.1919
  851MOL0     C17310   4.923   9.484  11.203 -0.1803  0.5105  0.1316
  851MOL0     C17311   5.019   9.408  11.105 -0.1880  0.2296 -0.1959
  851MOL0     C17312   5.140   9.502  11.066  0.0324  0.7354 -0.6371
  851MOL0     C17313   5.109   9.555  10.925 -0.0717  0.0015 -0.8250
  851MOL0     C17314   5.180   9.697  10.905  0.7927  0.5532 -0.0999
  851MOL0     C17315   5.139   9.752  10.772 -0.0030  0.1965  0.4201
  851MOL0     C17316   5.216   9.680  10.654  0.1080 -0.0852 -0.1768
  851MOL0     N17317   5.364   9.666  10.657 -0.5894 -1.3854  0.0476
  851MOL0     C17318   5.450   9.580  10.589  0.6032 -0.4697  0.1381
  851MOL0     C17319   5.578   9.625  10.600  0.7302  1.4985  0.2014
  851MOL0     C17320   5.704   9.562  10.540 -0.3764 -0.6444 -1.2829
  851MOL0     C17321   5.685   9.465  10.427  0.2778 -0.0412 -0.0990
  851MOL0     C17322   5.810   9.438  10.347 -0.9588  0.1306 -0.0285
  851MOL0     C17323   5.932   9.396  10.427  0.0567 -1.0712  0.2182
  851MOL0     O17324   5.907   9.295  10.523 -0.1191  0.0592 -0.6738
  851MOL0     C17325   6.010   9.242  10.605 -0.5849  0.5190  0.2378
  851MOL0     C17326   6.122   9.186  10.543 -0.0816 -0.2051  0.1010
  851MOL0     C17327   6.222   9.141  10.621 -0.9201  0.3169 -0.0002
  851MOL0     C17328   6.352   9.100  10.543 -0.8554 -0.3854  1.6910
  851MOL0     C17329   6.217   9.142  10.763  0.5938  0.4132  0.0107
  851MOL0     C17330   6.323   9.090  10.849 -0.2348  0.2346  1.1176
  851MOL0     O17331   6.293   9.068  10.978 -0.0161  0.3941  0.1881
  851MOL0     C17332   6.384   9.017  11.074  1.0584  0.1075 -0.2204
  851MOL0     C17333   6.520   9.025  11.076 -0.1783  0.3378  0.3088
  851MOL0     C17334   6.588   8.990  11.186  0.0890  0.2332  0.0236
  851MOL0     C17335   6.522   8.945  11.293 -0.3187  0.6127 -0.6176
  851MOL0     O17336   6.601   8.910  11.405 -0.2366  0.1306 -0.3400
  851MOL0     C17337   6.591   8.767  11.432 -0.7640  0.4261 -0.1089
  851MOL0     C17338   6.653   8.731  11.561 -0.0482 -0.5594  0.2317
  851MOL0     C17339   6.590   8.786  11.689  0.7662  0.6350 -0.3485
  851MOL0     C17340   6.520   8.673  11.769  0.4160  0.1921 -0.3192
  851MOL0     C17341   6.441   8.727  11.887 -0.3335 -0.3300  0.2856
  851MOL0     C17342   6.419   8.604  11.974 -0.1708 -0.5069  0.0814
  851MOL0     C17343   6.367   8.643  12.105  1.0156 -0.1739 -0.7556
  851MOL0     C17344   6.385   8.558  12.231 -0.0610  0.9671  0.5030
  851MOL0    Cl17345   6.557   8.580  12.278 -0.2122  0.1372  0.3771
  851MOL0     C17346   6.384   8.913  11.295 -1.1933  0.6806  0.2597
  851MOL0     C17347   6.315   8.955  11.182 -0.7684  0.3327 -0.7529
  851MOL0     O17348   6.437   9.072  10.800 -0.6325  0.6590  0.0926
  851MOL0     C17349   6.101   9.187  10.825 -0.1582  0.3443 -0.2998
  851MOL0     C17350   6.000   9.241  10.742 -0.5953  0.6292  0.3423
  851MOL0     N17351   5.579   9.730  10.691  0.2520  0.3448 -0.5935
  851MOL0     N17352   5.448   9.763  10.712 -0.2423  0.2081  0.7043
  851MOL0     C17353   4.592   9.532  11.119  0.0916 -0.5277  0.1017
  851MOL0     C17354   4.466   9.479  11.100  0.6323 -0.0201 -0.0709
  851MOL0     C17355   4.146   9.245  10.866  0.4002  0.2194  0.0950
  851MOL0     C17356   4.038   9.334  10.864  0.5915  0.2825  0.4982
  851MOL0     C17357   3.912   9.299  10.828 -0.3742  1.2720  0.1096
  851MOL0     C17358   3.881   9.169  10.773 -0.0260  0.0872 -0.4684
  851MOL0     O17359   3.760   9.131  10.748 -0.1904  0.3819  0.2282
  851MOL0     C17360   3.660   9.218  10.707  0.1062  0.2730 -0.2369
  851MOL0     C17361   3.563   9.238  10.824 -0.0353  0.2767  0.5076
  851MOL0     C17362   3.469   9.118  10.828  0.5821 -0.3413  0.7461
  851MOL0     C17363   3.377   9.129  10.951  0.3458  1.6778 -1.1483
  851MOL0     C17364   3.275   9.017  10.940  0.0419 -1.1948  0.0921
  851MOL0     C17365   3.190   8.928  10.930 -0.8677  0.5490  0.8140
  851MOL0     C17366   3.987   9.080  10.758 -0.2462 -0.4621  0.0043
  851MOL0     C17367   4.121   9.115  10.808  1.0786  0.3402 -0.1841
  851MOL0     C17368   4.220   9.012  10.785 -0.9798 -0.3014 -1.3266
  851MOL0     H17369   4.434   9.554  10.771  0.9692 -1.9851 -0.8794
  851MOL0     H17370   4.669   9.616  10.807  1.9623  0.9283  0.6686
  851MOL0     H17371   4.811   9.665  11.235 -1.2275 -1.0417  0.3009
  851MOL0     H17372   4.963   9.693  11.152  0.7661 -0.7163 -1.3840
  851MOL0     H17373   4.957   9.489  11.307 -0.7323  0.6331  0.3117
  851MOL0     H17374   4.834   9.420  11.201 -1.2768  2.0032 -0.0521
  851MOL0     H17375   5.049   9.320  11.163 -0.4019  0.4851  0.3063
  851MOL0     H17376   4.961   9.380  11.017 -0.2553 -0.8017  0.1652
  851MOL0     H17377   5.143   9.587  11.136  1.4121 -1.2796  1.9255
  851MOL0     H17378   5.228   9.438  11.066 -1.9925 -2.2249 -0.1649
  851MOL0     H17379   5.003   9.572  10.906 -0.4579  1.3921  2.1348
  851MOL0     H17380   5.140   9.482  10.848 -3.3296  0.1821 -2.4786
  851MOL0     H17381   5.152   9.772  10.980  0.8680  2.2853 -1.7530
  851MOL0     H17382   5.289   9.695  10.912  0.6941 -0.9551  3.0017
  851MOL0     H17383   5.162   9.859  10.767 -2.5524  0.7501 -1.1656
  851MOL0     H17384   5.031   9.744  10.756  0.0548  0.2455 -0.0364
  851MOL0     H17385   5.183   9.577  10.634  0.2158  0.0276 -0.9382
  851MOL0     H17386   5.193   9.741  10.566  0.9041  2.0708  1.0413
  851MOL0     H17387   5.419   9.516  10.507 -2.0917 -2.1931  2.3357
  851MOL0     H17388   5.756   9.509  10.620  0.7851  1.4483 -0.5640
  851MOL0     H17389   5.769   9.646  10.512  1.6331 -1.9921 -0.8445
  851MOL0     H17390   5.635   9.376  10.467 -1.9319  0.3142 -1.8747
  851MOL0     H17391   5.612   9.509  10.358 -2.0222 -1.8887  1.0043
  851MOL0     H17392   5.799   9.360  10.271 -0.4805  0.5179 -0.5053
  851MOL0     H17393   5.838   9.531  10.295  0.1453 -0.8522 -1.2741
  851MOL0     H17394   6.014   9.354  10.368  1.2126 -0.3643  1.2672
  851MOL0     H17395   5.971   9.486  10.475 -2.3725  0.9243 -1.2965
  851MOL0     H17396   6.123   9.164  10.437  2.4043 -1.9838  0.4274
  851MOL0     H17397   6.374   8.994  10.558 -0.0412 -0.1054  2.5751
  851MOL0     H17398   6.447   9.149  10.567  2.1729 -3.1006 -3.2273
  851MOL0     H17399   6.348   9.120  10.436  0.5373 -1.5344  1.4040
  851MOL0     H17400   6.577   9.075  10.999  0.9028 -0.4578  0.5604
  851MOL0     H17401   6.696   8.994  11.198 -0.1404 -0.4212  3.1478
  851MOL0     H17402   6.494   8.716  11.434  0.7415 -2.7632 -1.4448
  851MOL0     H17403   6.652   8.722  11.353  1.1716  4.2652 -1.0158
  851MOL0     H17404   6.657   8.622  11.559  1.4575 -0.5407 -1.9805
  851MOL0     H17405   6.756   8.768  11.551  0.2087 -0.8573  1.6258
  851MOL0     H17406   6.513   8.861  11.668  0.6634  0.6121 -0.0719
  851MOL0     H17407   6.661   8.827  11.762  2.2667 -0.8463 -0.9165
  851MOL0     H17408   6.603   8.608  11.798 -1.6100 -1.6669  1.6814
  851MOL0     H17409   6.463   8.615  11.697  1.1746  0.1962 -0.9352
  851MOL0     H17410   6.503   8.800  11.940 -0.0513  0.8825 -1.6351
  851MOL0     H17411   6.345   8.771  11.858  0.2558 -0.4274 -2.0451
  851MOL0     H17412   6.511   8.546  11.981 -1.1430 -2.2944 -1.1499
  851MOL0     H17413   6.348   8.537  11.924 -1.8679 -0.3540  2.1432
  851MOL0     H17414   6.259   8.646  12.086  1.4328  1.5236 -3.3724
  851MOL0     H17415   6.384   8.748  12.129  1.8159 -0.6175  0.7427
  851MOL0     H17416   6.379   8.455  12.195  0.3647  1.6700 -1.7500
  851MOL0     H17417   6.312   8.574  12.311 -2.5645 -1.9342 -1.0047
  851MOL0     H17418   6.325   8.864  11.372  1.1395 -1.7909  0.6391
  851MOL0     H17419   6.207   8.946  11.175 -0.5369 -2.2339 -1.7682
  851MOL0     H17420   6.081   9.197  10.931 -2.2259  0.0800 -0.6256
  851MOL0     H17421   5.912   9.280  10.791 -0.7165 -1.2600  1.7491
  851MOL0     H17422   4.637   9.543  11.217  1.2385 -0.2939 -0.4336
  851MOL0     H17423   4.409   9.439  11.183  3.3910  0.7428  2.3548
  851MOL0     H17424   4.034   9.435  10.904 -3.6911  1.0391 -1.3380
  851MOL0     H17425   3.830   9.364  10.858  0.2939  1.4604  1.6704
  851MOL0     H17426   3.705   9.315  10.686  2.1333 -0.6176 -0.3130
  851MOL0     H17427   3.604   9.180  10.621 -1.3588  2.1827 -0.1888
  851MOL0     H17428   3.508   9.329  10.799 -2.4147 -0.8365  1.4094
  851MOL0     H17429   3.612   9.248  10.922 -0.8287 -0.6743  1.0214
  851MOL0     H17430   3.414   9.114  10.733 -0.6489  3.5609  1.1266
  851MOL0     H17431   3.526   9.025  10.837  1.9979  0.4745  0.4794
  851MOL0     H17432   3.331   9.228  10.938  1.7497  2.7157  1.1374
  851MOL0     H17433   3.427   9.117  11.047  1.5732  1.5796 -1.7717
  851MOL0     H17434   3.121   8.848  10.911 -0.1195 -0.0985  0.7593
  851MOL0     H17435   3.976   8.987  10.702 -1.8514 -2.0122  2.6513
  851MOL0     H17436   4.288   8.997  10.869 -1.1877  3.6396 -0.2419
  851MOL0     H17437   4.173   8.915  10.764 -1.2569 -0.3669 -0.4577
  851MOL0     H17438   4.283   9.040  10.701 -2.8854  0.5156 -2.5595
  852MOL0     O17439   4.496   3.902   7.184  0.0244  0.8615  0.0669
  852MOL0     C17440   4.535   3.802   7.125 -0.5675  0.3232 -0.6459
  852MOL0     O17441   4.583   3.685   7.185  0.3488  0.0913 -0.1397
  852MOL0     C17442   4.572   3.648   7.316 -0.1134 -0.9087  0.3300
  852MOL0     C17443   4.642   3.540   7.353 -0.3749  0.0838  0.6477
  852MOL0     C17444   4.622   3.484   7.479  0.3951  0.3476  0.7331
  852MOL0     C17445   4.531   3.532   7.571  0.8172 -0.4105 -0.8033
  852MOL0     O17446   4.506   3.459   7.688 -0.0429 -0.0621 -0.4468
  852MOL0     C17447   4.466   3.530   7.806  0.0014 -0.3517 -1.0407
  852MOL0     C17448   4.479   3.432   7.932 -1.1997 -0.8687 -0.6744
  852MOL0     C17449   4.627   3.406   7.972  0.5461  0.0081 -0.2005
  852MOL0     C17450   4.661   3.282   8.064  0.2696  0.2659 -0.3154
  852MOL0     C17451   4.811   3.264   8.089 -0.4414  0.2352 -0.3048
  852MOL0     C17452   4.866   3.379   8.187  0.1764 -0.6238  0.5828
  852MOL0     C17453   4.984   3.320   8.266 -0.0963  0.0770  0.3716
  852MOL0     C17454   5.052   3.425   8.359  0.0553  0.2876 -0.6240
  852MOL0     N17455   5.153   3.373   8.448  0.2612 -1.0077  1.0481
  852MOL0     C17456   5.269   3.307   8.406  0.7464 -0.9294  0.2368
  852MOL0     C17457   5.333   3.280   8.516 -0.6195  0.4403  0.0018
  852MOL0     C17458   5.477   3.237   8.517  0.0401  0.2410 -1.1919
  852MOL0     C17459   5.533   3.182   8.652 -0.7292  1.1459  0.6647
  852MOL0     C17460   5.490   3.040   8.689 -0.0414 -0.3897  1.0210
  852MOL0     C17461   5.532   2.991   8.824  0.0368  0.0460  0.1260
  852MOL0     O17462   5.474   2.857   8.846 -0.2365 -0.0184  0.0596
  852MOL0     C17463   5.541   2.739   8.823  0.6521  0.2511  0.1615
  852MOL0     C17464   5.476   2.627   8.877 -0.6238 -0.1327  0.1649
  852MOL0     C17465   5.536   2.502   8.871 -1.1886 -0.0340  0.1534
  852MOL0     C17466   5.465   2.392   8.942 -0.2709  0.1690 -0.0524
  852MOL0     C17467   5.664   2.494   8.800 -0.4348 -0.0004 -0.2963
  852MOL0     C17468   5.743   2.368   8.794  0.6247 -0.1907  0.2908
  852MOL0     O17469   5.834   2.355   8.685  0.3374 -0.4293 -0.0819
  852MOL0     C17470   5.912   2.236   8.690  0.2711 -0.6312  0.0350
  852MOL0     C17471   6.045   2.240   8.734  0.1706  0.4889 -0.0935
  852MOL0     C17472   6.128   2.134   8.706 -0.1278  0.3678 -0.7805
  852MOL0     C17473   6.079   2.011   8.651 -0.4229  0.1199 -0.0635
  852MOL0     O17474   6.152   1.904   8.605  0.0981  0.4947 -0.2831
  852MOL0     C17475   6.294   1.926   8.618  0.5136 -0.5138 -0.3098
  852MOL0     C17476   6.365   1.789   8.594  0.4716  0.9756 -0.5505
  852MOL0     C17477   6.511   1.800   8.651  0.6892  0.2898 -0.2492
  852MOL0     C17478   6.600   1.884   8.554  0.2438  0.6557  0.0882
  852MOL0     C17479   6.682   1.991   8.625  0.7543 -0.9371  0.0810
  852MOL0     C17480   6.782   1.952   8.729 -0.5825  0.4734  0.4119
  852MOL0     C17481   6.866   2.063   8.796 -0.0581 -0.1759 -0.7118
  852MOL0     C17482   7.017   2.033   8.768  0.1858  0.2372 -0.0806
  852MOL0    Cl17483   7.070   1.875   8.843 -0.0355  0.6935 -0.0633
  852MOL0     C17484   5.947   2.001   8.625  0.4850  0.0069 -0.4184
  852MOL0     C17485   5.864   2.113   8.637 -0.7056  0.2473  0.0391
  852MOL0     O17486   5.726   2.280   8.885 -0.1910  0.5253 -0.2125
  852MOL0     C17487   5.728   2.606   8.744 -0.1249  0.2886 -0.5308
  852MOL0     C17488   5.667   2.726   8.759  0.3940  0.2404 -0.5044
  852MOL0     N17489   5.262   3.313   8.622  0.0243 -0.1925 -0.0496
  852MOL0     N17490   5.152   3.377   8.583 -0.6440 -0.9391 -0.2357
  852MOL0     C17491   4.466   3.644   7.536 -0.1989 -0.6358 -0.4192
  852MOL0     C17492   4.481   3.710   7.408 -0.1737  0.2781 -0.4597
  852MOL0     C17493   4.552   3.827   6.986 -0.3346 -0.6980 -0.1430
  852MOL0     C17494   4.683   3.801   6.931 -0.2185  0.6736 -0.6698
  852MOL0     C17495   4.707   3.826   6.793 -0.7396  0.4179 -0.0560
  852MOL0     C17496   4.602   3.872   6.713  0.1201 -0.4431  0.4623
  852MOL0     O17497   4.633   3.887   6.580 -0.3483 -0.1903  0.3215
  852MOL0     C17498   4.551   3.974   6.495  0.0825  0.1528 -0.5797
  852MOL0     C17499   4.558   4.123   6.533 -0.7934  0.2720 -0.1855
  852MOL0     C17500   4.536   4.215   6.407  0.5767  0.3735 -0.3016
  852MOL0     C17501   4.411   4.204   6.316  0.0491  1.1231  0.2560
  852MOL0     C17502   4.284   4.196   6.399 -0.6083  0.9149 -0.8940
  852MOL0     C17503   4.200   4.189   6.487  0.2990  0.4824 -0.6855
  852MOL0     C17504   4.482   3.905   6.766  0.5196 -0.2260  0.0939
  852MOL0     C17505   4.450   3.874   6.900  0.6969 -1.1219 -0.6169
  852MOL0     C17506   4.305   3.886   6.936 -0.1185  0.7128  0.1641
  852MOL0     H17507   4.717   3.487   7.295 -0.3533 -0.2390  0.9614
  852MOL0     H17508   4.672   3.392   7.508 -1.4193 -1.0151 -0.2577
  852MOL0     H17509   4.360   3.559   7.809 -0.5619 -2.2753 -1.4024
  852MOL0     H17510   4.525   3.616   7.840 -3.6767  1.8287  0.5070
  852MOL0     H17511   4.415   3.476   8.009  0.7871 -0.3700  0.7659
  852MOL0     H17512   4.451   3.330   7.902  0.0541 -2.2072  2.3432
  852MOL0     H17513   4.690   3.392   7.884  0.6425 -1.6294  0.0991
  852MOL0     H17514   4.660   3.500   8.017  0.6506  0.1360 -0.5419
  852MOL0     H17515   4.606   3.287   8.158  0.8096 -2.3430  0.2364
  852MOL0     H17516   4.621   3.188   8.025  3.4850 -0.7643 -1.4488
  852MOL0     H17517   4.878   3.259   8.003  0.7605  1.5740  0.5026
  852MOL0     H17518   4.817   3.170   8.143 -1.3290  1.1639  1.5061
  852MOL0     H17519   4.894   3.470   8.134  0.6530  0.0783  2.0035
  852MOL0     H17520   4.792   3.409   8.261  0.7323  3.8678 -0.3660
  852MOL0     H17521   5.066   3.279   8.206  0.3206  0.1057  0.9137
  852MOL0     H17522   4.950   3.234   8.325 -0.5498  0.3355  0.4910
  852MOL0     H17523   5.100   3.505   8.301 -0.1273  0.7640 -0.1257
  852MOL0     H17524   4.973   3.467   8.422 -0.1968  0.0859 -0.8076
  852MOL0     H17525   5.294   3.284   8.303 -1.1800 -1.8616 -0.0639
  852MOL0     H17526   5.520   3.336   8.505 -1.2409  1.2381  1.5170
  852MOL0     H17527   5.486   3.177   8.426  0.3052  0.1109 -1.0804
  852MOL0     H17528   5.638   3.164   8.629 -1.2092 -1.6291  0.2794
  852MOL0     H17529   5.518   3.246   8.739  2.2144  0.6215  1.6648
  852MOL0     H17530   5.380   3.037   8.683 -0.0057 -2.9492  0.2072
  852MOL0     H17531   5.522   2.972   8.610 -2.5281  1.1534 -1.4939
  852MOL0     H17532   5.641   2.990   8.832  0.2051 -3.3457 -0.8672
  852MOL0     H17533   5.492   3.067   8.891 -1.1209  1.3848 -1.9929
  852MOL0     H17534   5.379   2.634   8.925  0.2828 -1.5464  2.3917
  852MOL0     H17535   5.471   2.305   8.876  2.0700 -0.0474  0.3753
  852MOL0     H17536   5.363   2.422   8.969 -0.1452  2.5755 -1.9523
  852MOL0     H17537   5.520   2.368   9.033 -1.7219  2.0267  1.4035
  852MOL0     H17538   6.068   2.341   8.768 -3.4888  1.7780 -1.0086
  852MOL0     H17539   6.225   2.158   8.750 -1.0325  2.3006  0.2827
  852MOL0     H17540   6.334   1.997   8.545 -2.2787  0.5856 -0.8952
  852MOL0     H17541   6.312   1.960   8.721  1.0645  2.6510 -1.3547
  852MOL0     H17542   6.308   1.706   8.635  0.2401  2.5853  2.7075
  852MOL0     H17543   6.374   1.764   8.488  1.5540  0.4021 -0.3412
  852MOL0     H17544   6.562   1.704   8.648  1.8846  0.9195 -0.9175
  852MOL0     H17545   6.513   1.847   8.750 -3.3604 -0.4742  0.3582
  852MOL0     H17546   6.537   1.939   8.484  1.6916  1.2565 -0.8126
  852MOL0     H17547   6.663   1.821   8.490 -0.2062  1.6948 -1.4473
  852MOL0     H17548   6.733   2.047   8.546  4.0940 -2.7265  0.8088
  852MOL0     H17549   6.615   2.066   8.668  1.7141 -1.7464  3.2593
  852MOL0     H17550   6.842   1.883   8.670 -3.6460 -3.1371  1.1531
  852MOL0     H17551   6.729   1.908   8.813  0.1841 -1.5039 -0.0949
  852MOL0     H17552   6.842   2.061   8.903 -0.4856 -0.6101 -0.8102
  852MOL0     H17553   6.835   2.165   8.772  2.2378  1.3146  1.9623
  852MOL0     H17554   7.075   2.116   8.810 -1.5014  1.7629 -0.6640
  852MOL0     H17555   7.030   2.032   8.660 -0.9872  2.0176 -0.2803
  852MOL0     H17556   5.916   1.914   8.567  0.7603  0.1052 -0.7161
  852MOL0     H17557   5.770   2.101   8.584 -0.6724 -2.6968  0.5219
  852MOL0     H17558   5.826   2.606   8.695  1.9949 -1.1380  3.2850
  852MOL0     H17559   5.724   2.810   8.720  1.7911 -0.0568  0.7572
  852MOL0     H17560   4.401   3.687   7.612 -0.9700 -1.4953 -0.5846
  852MOL0     H17561   4.412   3.792   7.392 -0.5953 -0.0299 -0.2348
  852MOL0     H17562   4.758   3.754   6.994 -2.1341  1.7425  2.6678
  852MOL0     H17563   4.799   3.806   6.739  0.1752 -0.2334  1.6461
  852MOL0     H17564   4.596   3.966   6.395  4.8458 -1.5277  1.4001
  852MOL0     H17565   4.446   3.943   6.487  0.5004 -1.0910 -1.7309
  852MOL0     H17566   4.661   4.149   6.557 -0.4905 -0.8330 -0.2278
  852MOL0     H17567   4.505   4.161   6.622 -1.7537  0.2141 -0.7201
  852MOL0     H17568   4.540   4.316   6.450  1.8518 -0.1181  0.7970
  852MOL0     H17569   4.623   4.193   6.345  0.7957  3.2927 -1.2042
  852MOL0     H17570   4.414   4.107   6.265  0.0677  1.4804 -0.4350
  852MOL0     H17571   4.402   4.281   6.239 -2.7251 -1.1540 -1.9507
  852MOL0     H17572   4.128   4.183   6.566  2.3415 -0.1806  1.2256
  852MOL0     H17573   4.394   3.927   6.707 -0.0238  2.0372  1.6344
  852MOL0     H17574   4.282   3.907   7.041  0.3298 -0.5833  0.5327
  852MOL0     H17575   4.265   3.973   6.882  1.9991  1.2577 -0.6015
  852MOL0     H17576   4.252   3.795   6.907 -0.1282  0.7146  0.1762
  853MOL0     O17577   8.176  10.253  11.078 -0.2569 -0.5807  0.5895
  853MOL0     C17578   8.072  10.192  11.079 -0.9139  0.0776 -0.0357
  853MOL0     O17579   8.052  10.062  11.110  0.4327  0.4621  0.3448
  853MOL0     C17580   8.146   9.969  11.087 -0.5686  0.1980 -0.3762
  853MOL0     C17581   8.130   9.843  11.146  0.2749 -0.8627  0.6964
  853MOL0     C17582   8.218   9.743  11.146 -1.2784 -0.6712 -0.2179
  853MOL0     C17583   8.341   9.761  11.081  0.0798 -0.4994 -0.2043
  853MOL0     O17584   8.441   9.671  11.094  1.1209 -0.2660 -0.4474
  853MOL0     C17585   8.416   9.530  11.107 -0.6704 -0.3600 -0.2720
  853MOL0     C17586   8.536   9.455  11.072  0.0674  0.1470 -0.1498
  853MOL0     C17587   8.656   9.486  11.172 -0.9708 -0.5910  0.0140
  853MOL0     C17588   8.800   9.426  11.133  0.9847 -0.7799 -0.0563
  853MOL0     C17589   8.889   9.460  11.252  0.2118 -0.9390  0.6036
  853MOL0     C17590   9.013   9.388  11.249 -0.4958  0.3945  0.4736
  853MOL0     C17591   9.107   9.419  11.136  0.4423  1.6465  0.7646
  853MOL0     C17592   9.105   9.314  11.032 -0.6745 -0.4884  0.3281
  853MOL0     N17593   9.223   9.318  10.936  1.0915  0.2813 -0.0944
  853MOL0     C17594   9.282   9.430  10.878 -1.0200 -0.7720 -0.0640
  853MOL0     C17595   9.404   9.392  10.835  0.1523 -0.9381  0.1305
  853MOL0     C17596   9.518   9.479  10.788 -0.2721 -0.2902  0.7346
  853MOL0     C17597   9.645   9.397  10.751  0.2016 -0.4403 -0.2100
  853MOL0     C17598   9.758   9.500  10.721 -0.2845  0.1515 -0.0676
  853MOL0     C17599   9.861   9.439  10.634 -0.1092 -0.4572 -0.4899
  853MOL0     O17600   9.813   9.414  10.509  0.3261  0.0630  0.2240
  853MOL0     C17601   9.898   9.437  10.396 -0.3687  0.0213 -0.0992
  853MOL0     C17602   9.843   9.484  10.276 -0.1445 -0.5796 -0.1601
  853MOL0     C17603   9.929   9.511  10.166 -0.2293  0.3722 -0.3341
  853MOL0     C17604   9.857   9.572  10.049  0.2645 -0.0764  0.1692
  853MOL0     C17605  10.070   9.501  10.192 -0.1840 -0.5239  0.4503
  853MOL0     C17606  10.164   9.544  10.093  0.9554 -1.1128  0.2933
  853MOL0     O17607  10.292   9.573  10.136  0.2407 -1.0268  0.1130
  853MOL0     C17608  10.393   9.580  10.039  0.6451 -0.4200 -0.8765
  853MOL0     C17609  10.409   9.678   9.947  0.6372  1.1414  0.2500
  853MOL0     C17610  10.521   9.679   9.868 -0.9824 -0.6999  0.2578
  853MOL0     C17611  10.627   9.584   9.874  0.0378  0.3326 -0.0088
  853MOL0     O17612  10.732   9.566   9.778 -0.2630 -0.4619  0.5649
  853MOL0     C17613  10.863   9.537   9.826 -0.1811  0.1014 -0.3260
  853MOL0     C17614  10.926   9.426   9.750 -0.7577  0.1066 -0.3750
  853MOL0     C17615  11.076   9.398   9.790  1.2727  1.1047  0.5674
  853MOL0     C17616  11.182   9.463   9.702  0.1151  0.2714  0.2406
  853MOL0     C17617  11.317   9.421   9.761 -0.5841 -0.3008 -0.7608
  853MOL0     C17618  11.426   9.473   9.669 -0.0210  1.0477 -0.0121
  853MOL0     C17619  11.561   9.413   9.704  0.8760 -0.1410  0.7775
  853MOL0     C17620  11.641   9.419   9.567  0.1284  0.6579  0.2763
  853MOL0    Cl17621  11.807   9.366   9.613  0.4313 -0.3144 -0.3589
  853MOL0     C17622  10.620   9.491   9.984  0.0772 -1.5160  0.3617
  853MOL0     C17623  10.493   9.480  10.050  0.0807  0.1640  0.2905
  853MOL0     O17624  10.128   9.541   9.975 -0.5552  0.6481 -0.2032
  853MOL0     C17625  10.124   9.445  10.300  0.7395  0.0370 -0.2759
  853MOL0     C17626  10.038   9.421  10.407  1.3976  0.7047 -0.3632
  853MOL0     N17627   9.422   9.261  10.858 -0.2787 -0.5199  0.0360
  853MOL0     N17628   9.321   9.220  10.923  0.4316  0.1989 -0.2706
  853MOL0     C17629   8.370   9.888  11.030  0.4471 -0.0341 -0.1865
  853MOL0     C17630   8.275   9.988  11.035 -0.0803  0.4326  0.7977
  853MOL0     C17631   7.950  10.261  11.013 -0.4262  0.3729 -0.6565
  853MOL0     C17632   7.853  10.175  10.959 -0.4820  0.6114 -0.7714
  853MOL0     C17633   7.733  10.228  10.903 -0.3945 -0.8024  0.0571
  853MOL0     C17634   7.713  10.358  10.883  1.0004 -0.6300  0.2736
  853MOL0     O17635   7.611  10.406  10.802 -0.5427 -0.6735 -0.0105
  853MOL0     C17636   7.581  10.340  10.677  0.2752 -0.6760  0.8599
  853MOL0     C17637   7.457  10.259  10.689  1.0573 -0.2269 -0.4892
  853MOL0     C17638   7.400  10.190  10.562  0.4064  0.7669  0.8012
  853MOL0     C17639   7.251  10.168  10.572  0.6794 -0.9154 -0.2746
  853MOL0     C17640   7.239  10.063  10.674  0.9969 -0.7709  0.0291
  853MOL0     C17641   7.213   9.992  10.767 -0.6454  0.5719  0.1699
  853MOL0     C17642   7.809  10.445  10.939 -0.7490  0.4252  0.3406
  853MOL0     C17643   7.926  10.400  11.004 -0.2771 -0.5290  0.1301
  853MOL0     C17644   8.016  10.505  11.081  0.2934  0.5909 -0.4358
  853MOL0     H17645   8.040   9.826  11.204 -0.2879  0.1309  0.1494
  853MOL0     H17646   8.193   9.657  11.207 -1.2398 -0.3075  0.3231
  853MOL0     H17647   8.342   9.493  11.036 -1.1514 -1.6397  0.8562
  853MOL0     H17648   8.390   9.505  11.210 -1.1805 -0.7197 -0.4884
  853MOL0     H17649   8.518   9.347  11.075  2.0242 -0.1929  0.4322
  853MOL0     H17650   8.566   9.489  10.973  1.6280 -1.6775 -0.3475
  853MOL0     H17651   8.678   9.593  11.172 -0.3702 -0.7043 -0.9350
  853MOL0     H17652   8.624   9.456  11.273  0.6472 -0.3946  0.6136
  853MOL0     H17653   8.790   9.319  11.109  0.2401 -0.4249 -1.4847
  853MOL0     H17654   8.825   9.478  11.040  1.9259 -1.9756 -0.4921
  853MOL0     H17655   8.837   9.435  11.345 -0.0522  0.4169  0.8400
  853MOL0     H17656   8.916   9.566  11.258  1.4213 -1.2094  0.1911
  853MOL0     H17657   9.056   9.409  11.347  3.9434  0.5687 -1.2935
  853MOL0     H17658   8.979   9.284  11.250  0.6379 -0.0511  3.5049
  853MOL0     H17659   9.208   9.432  11.177  0.3519  1.1689  1.1496
  853MOL0     H17660   9.082   9.513  11.087  1.1812  0.9444 -1.0188
  853MOL0     H17661   9.105   9.216  11.080 -1.0643 -1.7524 -2.1240
  853MOL0     H17662   9.012   9.322  10.975  0.6414  2.8533 -1.6362
  853MOL0     H17663   9.251   9.532  10.895 -0.7457 -0.5952 -0.6201
  853MOL0     H17664   9.547   9.570  10.841 -1.5230  0.1490  0.6894
  853MOL0     H17665   9.481   9.519  10.693 -1.1195  2.4216  2.1199
  853MOL0     H17666   9.673   9.334  10.836  2.5443  0.9811  0.1546
  853MOL0     H17667   9.623   9.345  10.658 -1.1400  0.9059 -0.6967
  853MOL0     H17668   9.711   9.578  10.660  0.6813  1.3483  0.6753
  853MOL0     H17669   9.798   9.541  10.814  2.5082  0.2597 -1.2317
  853MOL0     H17670   9.938   9.517  10.637  0.0639 -0.6317  1.5833
  853MOL0     H17671   9.902   9.346  10.676 -0.6269  0.7137  2.8975
  853MOL0     H17672   9.735   9.492  10.266 -0.4379 -2.7617  0.9018
  853MOL0     H17673   9.898   9.670  10.025  0.7599  0.0303  1.3756
  853MOL0     H17674   9.751   9.580  10.075  0.5117  1.2067  0.8315
  853MOL0     H17675   9.867   9.511   9.959  1.0894  0.0977  0.1434
  853MOL0     H17676  10.327   9.749   9.932  0.0520  0.9124  2.1002
  853MOL0     H17677  10.512   9.747   9.784 -1.7516  1.2919  1.8604
  853MOL0     H17678  10.920   9.630   9.822 -2.2736  1.4616 -0.0690
  853MOL0     H17679  10.869   9.506   9.931 -2.9304  1.4448  0.3276
  853MOL0     H17680  10.870   9.333   9.759 -0.5399 -0.0404 -0.5354
  853MOL0     H17681  10.922   9.446   9.643  1.7420 -1.3876 -0.8193
  853MOL0     H17682  11.090   9.290   9.780  0.9569  1.0684  0.5079
  853MOL0     H17683  11.098   9.431   9.892 -0.6703  0.8006  1.1263
  853MOL0     H17684  11.170   9.572   9.705 -1.8789  0.0797  2.3588
  853MOL0     H17685  11.166   9.426   9.600  0.0701  0.8413  0.0407
  853MOL0     H17686  11.338   9.467   9.858  0.4405  1.2993 -1.6855
  853MOL0     H17687  11.321   9.312   9.763 -2.3443 -0.4883 -3.3141
  853MOL0     H17688  11.446   9.581   9.670  0.7618  1.0510 -3.2231
  853MOL0     H17689  11.399   9.445   9.567 -0.7796  1.7191 -0.0055
  853MOL0     H17690  11.538   9.309   9.729 -3.1897  0.2994 -0.3579
  853MOL0     H17691  11.614   9.466   9.784  3.7521  1.2541 -1.8234
  853MOL0     H17692  11.639   9.519   9.523 -0.1814  0.2960 -0.5428
  853MOL0     H17693  11.601   9.348   9.495  0.0461 -2.0414  2.7884
  853MOL0     H17694  10.695   9.412   9.995 -0.2597 -1.6596  1.7591
  853MOL0     H17695  10.492   9.415  10.137 -0.0121  2.5927  2.2262
  853MOL0     H17696  10.227   9.412  10.311  0.5029 -0.1059  1.9641
  853MOL0     H17697  10.075   9.378  10.499  1.4333 -1.0782 -1.1625
  853MOL0     H17698   8.465   9.909  10.983  0.1013  0.8458 -0.5147
  853MOL0     H17699   8.315  10.077  10.988  0.5974 -0.2982 -0.0424
  853MOL0     H17700   7.855  10.066  10.955  0.7080  0.6156 -0.5639
  853MOL0     H17701   7.654  10.155  10.890 -1.1757 -0.1649  1.1342
  853MOL0     H17702   7.585  10.414  10.596  2.0029  1.6034  2.8913
  853MOL0     H17703   7.660  10.269  10.652 -0.0278 -0.9792  0.7493
  853MOL0     H17704   7.385  10.337  10.716  1.2497  0.6404 -2.3429
  853MOL0     H17705   7.468  10.189  10.773 -1.2311  1.6864  1.5673
  853MOL0     H17706   7.413  10.254  10.474  1.4900  0.1748  0.5087
  853MOL0     H17707   7.456  10.097  10.546 -0.8628  0.3242 -1.5265
  853MOL0     H17708   7.221  10.112  10.483  0.7416  0.0288 -0.8982
  853MOL0     H17709   7.198  10.261  10.595 -0.1538 -1.6161  0.7150
  853MOL0     H17710   7.208   9.912  10.839  0.7457 -2.0922 -2.4658
  853MOL0     H17711   7.792  10.552  10.931 -0.7576  0.3696 -0.5015
  853MOL0     H17712   8.120  10.493  11.049 -0.7430 -2.4145 -3.2396
  853MOL0     H17713   7.988  10.611  11.070  0.3281  0.8075  1.3171
  853MOL0     H17714   8.016  10.488  11.189  0.0929 -0.5721 -0.6096
  854MOL0     O17715   0.601   0.790   0.280  0.1787  1.0649 -0.2291
  854MOL0     C17716   0.498   0.858   0.278 -0.7447 -0.5471 -1.1611
  854MOL0     O17717   0.493   0.999   0.307  0.2828  0.0922 -0.0847
  854MOL0     C17718   0.608   1.069   0.343 -0.1163  0.6454 -0.1076
  854MOL0     C17719   0.735   1.017   0.377  0.2499 -0.2863  0.5428
  854MOL0     C17720   0.837   1.106   0.403  0.2957 -0.3219 -0.4617
  854MOL0     C17721   0.822   1.246   0.397 -0.3899 -0.0506  0.2629
  854MOL0     O17722   0.930   1.327   0.431  0.2950 -0.4478 -0.0140
  854MOL0     C17723   0.909   1.471   0.442 -0.1305 -1.2012 -0.5076
  854MOL0     C17724   1.038   1.527   0.507 -0.0333 -0.5835  0.6693
  854MOL0     C17725   1.086   1.455   0.632  0.0565  0.5929  0.0476
  854MOL0     C17726   1.155   1.551   0.738  0.2542 -0.4017 -0.3512
  854MOL0     C17727   1.248   1.475   0.829 -0.0061 -0.1551 -0.4323
  854MOL0     C17728   1.161   1.373   0.913 -0.3869  0.4478 -0.2619
  854MOL0     C17729   1.237   1.342   1.040 -0.1681  0.5382 -0.7167
  854MOL0     C17730   1.372   1.269   1.036 -0.4819 -0.6132  0.6322
  854MOL0     N17731   1.439   1.290   1.162  0.9688  0.2638 -0.6378
  854MOL0     C17732   1.551   1.371   1.181  0.3808 -1.1846  0.2434
  854MOL0     C17733   1.586   1.340   1.308  0.3134 -0.7160  0.1724
  854MOL0     C17734   1.713   1.391   1.377  0.2696  0.9136 -0.4484
  854MOL0     C17735   1.841   1.324   1.344  0.2486  0.5649 -0.1446
  854MOL0     C17736   1.961   1.392   1.408 -0.7561 -0.2785  0.2454
  854MOL0     C17737   2.078   1.326   1.338  0.3759 -0.6577 -0.3717
  854MOL0     O17738   2.200   1.369   1.416  0.1154 -0.0022 -0.1445
  854MOL0     C17739   2.326   1.351   1.368 -0.2920  0.7777 -1.1214
  854MOL0     C17740   2.343   1.311   1.238 -0.2123  1.0915  0.1247
  854MOL0     C17741   2.466   1.295   1.177 -1.1676 -0.0996  0.2379
  854MOL0     C17742   2.481   1.238   1.038 -0.3985 -0.6203  0.3065
  854MOL0     C17743   2.582   1.341   1.248 -0.4116  0.1520 -0.5164
  854MOL0     C17744   2.725   1.343   1.208 -0.9728  1.1483  1.1453
  854MOL0     O17745   2.775   1.224   1.166 -0.6641  0.4735 -0.2049
  854MOL0     C17746   2.902   1.208   1.135 -0.9988  0.1982  0.3240
  854MOL0     C17747   3.000   1.219   1.231  0.5229  0.3194  0.5725
  854MOL0     C17748   3.138   1.197   1.207 -0.2614 -0.4738 -0.3951
  854MOL0     C17749   3.177   1.147   1.082 -1.0345  0.7442 -0.1647
  854MOL0     O17750   3.309   1.090   1.068 -0.5053  0.4254  0.5531
  854MOL0     C17751   3.325   0.956   1.124 -0.0184  0.7024  0.5405
  854MOL0     C17752   3.403   0.866   1.029  1.1036 -0.4223 -0.0026
  854MOL0     C17753   3.555   0.881   1.040 -0.6454 -0.7014 -0.4491
  854MOL0     C17754   3.633   0.806   0.934 -0.0057 -0.7052 -0.2659
  854MOL0     C17755   3.782   0.841   0.934  0.4646  0.5409 -0.5119
  854MOL0     C17756   3.860   0.717   0.896  0.6073 -0.1480  1.1950
  854MOL0     C17757   4.002   0.732   0.943 -0.0300  0.1023 -0.4098
  854MOL0     C17758   4.072   0.814   0.841  0.5166  0.1680 -0.9120
  854MOL0    Cl17759   4.243   0.812   0.869  0.1529  0.9120  0.3513
  854MOL0     C17760   3.084   1.151   0.986  0.4873 -0.0182 -0.4718
  854MOL0     C17761   2.951   1.177   1.006  0.2112  0.2975 -0.3052
  854MOL0     O17762   2.790   1.447   1.230 -0.0342  0.1903 -0.0150
  854MOL0     C17763   2.563   1.383   1.381 -0.5552 -0.7013  0.0325
  854MOL0     C17764   2.440   1.394   1.442 -0.2999 -0.1470 -0.6896
  854MOL0     N17765   1.496   1.244   1.355  0.0391 -0.4113 -0.7298
  854MOL0     N17766   1.410   1.215   1.268 -0.2659 -0.3100  0.7124
  854MOL0     C17767   0.691   1.291   0.365 -0.2036  0.0175  0.5957
  854MOL0     C17768   0.593   1.205   0.333  0.2007  0.0556 -0.6676
  854MOL0     C17769   0.367   0.786   0.259  0.3496 -0.4711  0.0775
  854MOL0     C17770   0.255   0.867   0.258 -0.5691  0.2352 -0.4196
  854MOL0     C17771   0.128   0.821   0.236 -0.2477  0.2830 -0.8430
  854MOL0     C17772   0.105   0.694   0.210  0.9255 -0.5692 -0.0498
  854MOL0     O17773  -0.031   0.664   0.202  0.7588  0.5921  0.1924
  854MOL0     C17774  -0.069   0.528   0.193 -0.1411 -0.5754 -0.8221
  854MOL0     C17775  -0.224   0.527   0.226  0.3287 -0.8696  0.4037
  854MOL0     C17776  -0.305   0.610   0.135 -0.4210  0.0371 -0.1826
  854MOL0     C17777  -0.453   0.596   0.171 -0.4720  1.2864  1.5396
  854MOL0     C17778  -0.534   0.710   0.129 -0.9773  0.0527 -0.4944
  854MOL0     C17779  -0.603   0.810   0.124  0.3928  0.1590  0.5966
  854MOL0     C17780   0.206   0.602   0.212  0.1869  0.4638 -0.1393
  854MOL0     C17781   0.343   0.644   0.232 -1.2871  0.1542 -0.1552
  854MOL0     C17782   0.451   0.537   0.238  1.0053 -0.2150  0.2755
  854MOL0     H17783   0.752   0.913   0.403  0.5263  0.0526  1.7930
  854MOL0     H17784   0.934   1.078   0.443 -0.1815 -2.5692 -0.7773
  854MOL0     H17785   0.825   1.497   0.507  0.9582  3.5533 -0.6129
  854MOL0     H17786   0.888   1.516   0.344  0.5322  3.5708  1.2965
  854MOL0     H17787   1.123   1.520   0.438 -0.4904  2.9254 -0.4598
  854MOL0     H17788   1.030   1.635   0.520  0.1075 -0.0097 -3.0245
  854MOL0     H17789   1.001   1.409   0.683 -0.0771  2.7474  1.9014
  854MOL0     H17790   1.155   1.373   0.610 -0.2691  0.9838 -2.7034
  854MOL0     H17791   1.227   1.607   0.678 -0.9529  0.5663 -0.9360
  854MOL0     H17792   1.089   1.625   0.785  0.8473  0.1473 -0.3749
  854MOL0     H17793   1.298   1.546   0.895 -0.5587 -0.9404  0.8778
  854MOL0     H17794   1.332   1.434   0.773  0.5879  2.2068 -1.3952
  854MOL0     H17795   1.067   1.423   0.940 -0.7670 -0.5234  0.2498
  854MOL0     H17796   1.138   1.286   0.851 -2.2959  1.3982 -0.9743
  854MOL0     H17797   1.171   1.277   1.098  1.1749  0.5271  0.8648
  854MOL0     H17798   1.247   1.438   1.093  0.4612 -0.9206  1.9841
  854MOL0     H17799   1.348   1.166   1.008 -1.2529 -0.0658 -0.7905
  854MOL0     H17800   1.441   1.312   0.963  1.3436 -0.5952  2.2935
  854MOL0     H17801   1.609   1.429   1.110 -0.0031 -0.1396  0.7590
  854MOL0     H17802   1.702   1.381   1.486 -1.0334 -0.0185 -0.6384
  854MOL0     H17803   1.717   1.498   1.355  1.7229  0.8872 -0.3992
  854MOL0     H17804   1.834   1.221   1.381 -1.2832  1.4899  2.3816
  854MOL0     H17805   1.849   1.341   1.236  2.1872  2.6745  0.2621
  854MOL0     H17806   1.952   1.496   1.374  1.2276  0.3993  1.6126
  854MOL0     H17807   1.961   1.365   1.514 -2.1493 -1.8238 -0.1113
  854MOL0     H17808   2.066   1.218   1.346  5.5532 -1.4316  0.2172
  854MOL0     H17809   2.087   1.344   1.230 -0.1797  1.5836 -0.1055
  854MOL0     H17810   2.268   1.289   1.162  1.5188  0.7052 -1.5471
  854MOL0     H17811   2.581   1.258   1.000  0.9753 -1.8532  3.0411
  854MOL0     H17812   2.415   1.295   0.971 -1.0243 -2.2494 -0.5311
  854MOL0     H17813   2.450   1.133   1.039  2.0457 -1.4100 -0.5508
  854MOL0     H17814   2.964   1.236   1.332  2.5928 -1.4517  1.6908
  854MOL0     H17815   3.201   1.208   1.295 -2.3450 -0.8940  1.2271
  854MOL0     H17816   3.371   0.961   1.223 -0.4492  1.7832  0.6952
  854MOL0     H17817   3.227   0.909   1.134  1.3712 -3.2557 -2.0989
  854MOL0     H17818   3.379   0.762   1.052 -1.7483  0.0981 -0.2562
  854MOL0     H17819   3.368   0.875   0.926  1.4334 -2.7232 -0.3742
  854MOL0     H17820   3.587   0.838   1.135 -0.8320 -0.7945 -0.4284
  854MOL0     H17821   3.577   0.986   1.019 -0.6284 -1.1775 -3.1601
  854MOL0     H17822   3.587   0.825   0.836 -1.1806 -0.1771  0.3593
  854MOL0     H17823   3.615   0.701   0.960 -0.2666 -0.4589  0.5635
  854MOL0     H17824   3.813   0.927   0.875  2.2339 -0.2272 -0.7881
  854MOL0     H17825   3.818   0.874   1.032 -1.3226  2.9637 -0.5932
  854MOL0     H17826   3.844   0.698   0.790  0.4493 -2.7848  1.6237
  854MOL0     H17827   3.816   0.626   0.939  1.6844 -1.5291 -0.4502
  854MOL0     H17828   4.058   0.638   0.952 -1.3305 -0.6381  0.4168
  854MOL0     H17829   4.011   0.767   1.046  0.0261 -1.3210  0.1029
  854MOL0     H17830   4.040   0.917   0.858  2.3524  0.4632  1.4657
  854MOL0     H17831   4.053   0.791   0.736 -1.5093  3.1331 -1.2906
  854MOL0     H17832   3.128   1.137   0.888 -0.9222 -1.3983 -0.9542
  854MOL0     H17833   2.882   1.180   0.921  0.4418 -0.4996 -0.5325
  854MOL0     H17834   2.647   1.403   1.446 -0.2337 -3.1964  0.4883
  854MOL0     H17835   2.429   1.410   1.549  0.2533  2.0238 -0.9087
  854MOL0     H17836   0.674   1.398   0.367  0.5506  0.1338  2.0224
  854MOL0     H17837   0.503   1.256   0.300  0.0044  0.2926  0.2095
  854MOL0     H17838   0.267   0.972   0.279  2.4023 -0.2616  0.9779
  854MOL0     H17839   0.048   0.895   0.241 -0.0261  0.6483 -2.3989
  854MOL0     H17840  -0.044   0.499   0.090 -0.0840  1.8329 -1.5540
  854MOL0     H17841  -0.017   0.458   0.260 -0.7180 -2.6123 -2.3750
  854MOL0     H17842  -0.238   0.549   0.333  1.3939  2.7708 -0.0434
  854MOL0     H17843  -0.257   0.425   0.208 -1.3594 -0.6116  1.7896
  854MOL0     H17844  -0.278   0.715   0.150 -1.9051  0.4299 -0.0731
  854MOL0     H17845  -0.282   0.579   0.033 -0.6399  1.9643 -0.8580
  854MOL0     H17846  -0.465   0.589   0.279 -1.7630 -0.1393  1.3450
  854MOL0     H17847  -0.497   0.505   0.127  3.8125 -0.8918  1.1697
  854MOL0     H17848  -0.668   0.895   0.120 -1.4554 -1.0721  2.4394
  854MOL0     H17849   0.188   0.499   0.181 -0.1232  1.0228 -1.9226
  854MOL0     H17850   0.402   0.440   0.223 -0.3212  0.0832  2.2203
  854MOL0     H17851   0.512   0.553   0.149 -1.6048 -0.3133 -1.6509
  854MOL0     H17852   0.501   0.532   0.336  0.7568 -1.9762  0.3459
  855MOL0     O17853   4.032  10.847   7.100  0.7423 -0.1994  0.4381
  855MOL0     C17854   3.971  10.819   6.992 -0.4771 -0.1808 -0.0216
  855MOL0     O17855   4.016  10.728   6.900  0.1147 -0.3563 -0.5578
  855MOL0     C17856   4.143  10.701   6.889 -0.4416  0.2164  1.0443
  855MOL0     C17857   4.261  10.755   6.948  0.8441  0.9143  0.0039
  855MOL0     C17858   4.388  10.717   6.902  0.4005  0.3372  0.0752
  855MOL0     C17859   4.405  10.607   6.814 -0.5422  0.0726 -0.0885
  855MOL0     O17860   4.529  10.563   6.755 -0.5986  0.2910 -0.5319
  855MOL0     C17861   4.653  10.633   6.787 -0.6714  0.1833 -0.7962
  855MOL0     C17862   4.760  10.553   6.714  0.4660 -0.6075 -1.1528
  855MOL0     C17863   4.900  10.608   6.736  0.1148 -0.9358  0.5662
  855MOL0     C17864   4.993  10.515   6.667 -0.5192  0.8375 -1.1028
  855MOL0     C17865   5.146  10.558   6.701  0.8172  0.8709  0.1081
  855MOL0     C17866   5.258  10.489   6.618  0.5868  0.5851  0.5219
  855MOL0     C17867   5.350  10.389   6.701  0.3333  0.2555 -0.0440
  855MOL0     C17868   5.281  10.257   6.732 -0.0493  0.7806 -0.8798
  855MOL0     N17869   5.384  10.174   6.791  0.6252 -0.9016 -0.4229
  855MOL0     C17870   5.384  10.148   6.926 -0.2096 -0.1190  0.0682
  855MOL0     C17871   5.510  10.093   6.947  0.8103  0.4588  0.0062
  855MOL0     C17872   5.544  10.066   7.092 -0.3709 -1.1020  0.5012
  855MOL0     C17873   5.498   9.936   7.148  0.5113  0.0904 -0.9325
  855MOL0     C17874   5.584   9.821   7.098  0.1978  0.2083  0.4714
  855MOL0     C17875   5.520   9.681   7.121  0.1240  0.5544  0.0252
  855MOL0     O17876   5.429   9.703   7.231  0.4900  0.2848  0.0239
  855MOL0     C17877   5.462   9.691   7.360  0.9013  0.1813 -0.2265
  855MOL0     C17878   5.576   9.635   7.417  0.3122 -0.0013 -0.0408
  855MOL0     C17879   5.598   9.622   7.553 -0.3613 -0.3633  0.5327
  855MOL0     C17880   5.726   9.545   7.595 -0.1260  0.5433  0.8834
  855MOL0     C17881   5.495   9.660   7.646 -0.1881 -0.7033  0.5908
  855MOL0     C17882   5.492   9.636   7.786 -0.2198 -0.5725 -0.0348
  855MOL0     O17883   5.615   9.629   7.852 -0.1138  0.5409  0.3611
  855MOL0     C17884   5.617   9.574   7.974 -0.2004 -0.7663  0.9304
  855MOL0     C17885   5.529   9.612   8.076  0.1046  0.0464  0.9286
  855MOL0     C17886   5.557   9.570   8.210 -0.8809  0.5125  0.7121
  855MOL0     C17887   5.671   9.491   8.231  0.2523  0.0960 -0.7129
  855MOL0     O17888   5.675   9.439   8.356 -0.1946 -0.5103 -0.2676
  855MOL0     C17889   5.811   9.423   8.411  0.2486  0.0034 -0.9139
  855MOL0     C17890   5.801   9.395   8.570 -0.5837  0.3675 -0.2660
  855MOL0     C17891   5.900   9.300   8.631 -0.5563 -0.3618 -0.2736
  855MOL0     C17892   5.905   9.321   8.782  0.0317  0.0804 -0.0341
  855MOL0     C17893   6.003   9.221   8.852 -0.2774  0.7085 -1.0348
  855MOL0     C17894   6.148   9.285   8.860  0.3597 -0.1552  0.2034
  855MOL0     C17895   6.272   9.195   8.904  1.5920  0.4084  0.7952
  855MOL0     C17896   6.256   9.173   9.056  0.3227  0.3113  0.2897
  855MOL0    Cl17897   6.395   9.083   9.115 -0.1591 -0.2334 -0.3761
  855MOL0     C17898   5.748   9.447   8.120  0.7193  0.0404 -0.0640
  855MOL0     C17899   5.724   9.492   7.992 -1.0498 -0.7012 -0.1444
  855MOL0     O17900   5.384   9.627   7.839  0.6401 -0.2204  0.2684
  855MOL0     C17901   5.377   9.716   7.589  0.2354 -0.6168 -0.4438
  855MOL0     C17902   5.366   9.733   7.457  0.2246 -0.0151  0.0067
  855MOL0     N17903   5.579  10.074   6.831  0.5617 -0.1361 -0.4989
  855MOL0     N17904   5.504  10.123   6.739  0.2182 -0.0717 -0.1257
  855MOL0     C17905   4.288  10.544   6.759  0.4357  0.6569 -0.0064
  855MOL0     C17906   4.163  10.592   6.801  0.1895  0.3131 -0.2347
  855MOL0     C17907   3.845  10.894   6.959  0.3337 -0.7594  0.4712
  855MOL0     C17908   3.809  10.897   6.823 -0.9533 -0.2528 -0.8684
  855MOL0     C17909   3.688  10.941   6.781  0.2650  0.0049 -0.0450
  855MOL0     C17910   3.606  11.008   6.874  0.1304  1.2547  0.4511
  855MOL0     O17911   3.501  11.091   6.830 -0.3891  0.0919  0.1853
  855MOL0     C17912   3.453  11.087   6.695  0.3295 -0.0399 -0.3891
  855MOL0     C17913   3.363  10.970   6.683  0.2671 -0.2512 -0.1712
  855MOL0     C17914   3.338  10.931   6.531 -0.3112 -0.3069 -0.4377
  855MOL0     C17915   3.232  11.003   6.464  0.5402  0.5398  1.2045
  855MOL0     C17916   3.283  11.138   6.439 -0.3373  0.4667 -0.4829
  855MOL0     C17917   3.316  11.248   6.403 -0.2477 -1.1114  0.0901
  855MOL0     C17918   3.643  11.003   7.013 -0.8560  1.8460  1.1078
  855MOL0     C17919   3.766  10.953   7.054 -0.1114  0.1635 -0.2201
  855MOL0     C17920   3.780  10.940   7.200  0.4499 -0.4766  0.1629
  855MOL0     H17921   4.246  10.844   7.008 -0.8518 -0.2256  1.3764
  855MOL0     H17922   4.461  10.790   6.935  0.2286 -0.0961  1.4876
  855MOL0     H17923   4.666  10.620   6.895  0.0125 -0.8265 -0.9830
  855MOL0     H17924   4.662  10.736   6.753  2.6690  1.6381  3.5955
  855MOL0     H17925   4.775  10.449   6.744  1.1479  0.4965  3.0550
  855MOL0     H17926   4.744  10.565   6.607  0.9545  0.6690 -1.1049
  855MOL0     H17927   4.908  10.707   6.691  1.5444 -0.5002  1.7025
  855MOL0     H17928   4.924  10.621   6.842  1.5178  0.0804  0.1484
  855MOL0     H17929   4.983  10.412   6.704  0.5427  0.6273 -1.3516
  855MOL0     H17930   4.967  10.513   6.561 -1.3020 -0.5653 -0.9120
  855MOL0     H17931   5.161  10.537   6.807  1.4395 -0.2234 -0.1849
  855MOL0     H17932   5.151  10.666   6.680 -2.5755  1.5335  1.9422
  855MOL0     H17933   5.224  10.424   6.536 -1.6947  1.7917  0.4280
  855MOL0     H17934   5.306  10.570   6.563  0.9509 -0.3268 -0.5422
  855MOL0     H17935   5.377  10.442   6.793 -0.2261  0.7913 -0.1820
  855MOL0     H17936   5.438  10.366   6.641  0.7087 -0.3110  0.7049
  855MOL0     H17937   5.203  10.275   6.807  0.1017  2.8259 -1.1711
  855MOL0     H17938   5.240  10.211   6.642  2.0257  1.7032 -2.3586
  855MOL0     H17939   5.312  10.192   6.994 -1.1435  0.7856 -1.4447
  855MOL0     H17940   5.497  10.148   7.148  1.1955  0.7812 -0.8019
  855MOL0     H17941   5.652  10.082   7.103 -0.8216  0.9001  3.2842
  855MOL0     H17942   5.512   9.937   7.256 -2.2177  1.2830 -0.5184
  855MOL0     H17943   5.391   9.918   7.139  0.2631  0.0859  1.4669
  855MOL0     H17944   5.604   9.838   6.992  1.0573  1.3149  0.8066
  855MOL0     H17945   5.678   9.819   7.153 -0.0660 -1.4346  0.9377
  855MOL0     H17946   5.476   9.642   7.029  0.7586  1.2779 -0.6014
  855MOL0     H17947   5.604   9.614   7.139 -0.6108  0.0342  1.6254
  855MOL0     H17948   5.654   9.616   7.344  1.5917  3.0536  0.3750
  855MOL0     H17949   5.781   9.497   7.514  1.9518  0.7101  2.1215
  855MOL0     H17950   5.703   9.458   7.657 -0.9596  0.4694  0.4891
  855MOL0     H17951   5.793   9.608   7.654  0.7947  0.4238 -0.0129
  855MOL0     H17952   5.459   9.691   8.052 -0.7119 -0.4903  1.4862
  855MOL0     H17953   5.486   9.602   8.286  0.7009 -0.8980  2.9162
  855MOL0     H17954   5.854   9.332   8.368 -1.3156 -0.9162 -0.6437
  855MOL0     H17955   5.877   9.508   8.393  1.2291 -0.2530  1.1783
  855MOL0     H17956   5.796   9.486   8.629 -3.2535 -0.1214  0.3984
  855MOL0     H17957   5.703   9.349   8.585  0.4715 -2.7674 -1.9948
  855MOL0     H17958   6.002   9.318   8.596  0.6789 -2.2392  2.0077
  855MOL0     H17959   5.886   9.195   8.602 -0.7273 -0.7765  1.2152
  855MOL0     H17960   5.804   9.317   8.823 -0.4485  0.9259 -1.0921
  855MOL0     H17961   5.944   9.423   8.793 -3.0170  1.6561 -2.1377
  855MOL0     H17962   5.971   9.203   8.955  3.0509 -0.8901 -0.1474
  855MOL0     H17963   6.004   9.124   8.803  1.6944 -0.4499  1.0745
  855MOL0     H17964   6.150   9.373   8.924  2.3521 -2.6100  3.8525
  855MOL0     H17965   6.176   9.307   8.757  1.4421 -1.6287  0.1499
  855MOL0     H17966   6.369   9.245   8.898  3.3989 -2.7206  1.4779
  855MOL0     H17967   6.284   9.106   8.842  1.0400  0.6525  0.3319
  855MOL0     H17968   6.168   9.110   9.076  0.7732  0.3589  2.7449
  855MOL0     H17969   6.248   9.271   9.104 -1.0208  1.1210 -1.4750
  855MOL0     H17970   5.812   9.361   8.138 -1.1322 -1.1828  1.0620
  855MOL0     H17971   5.774   9.446   7.907 -2.3808 -0.1756 -1.2489
  855MOL0     H17972   5.288   9.745   7.643  1.7111  4.3300 -0.1848
  855MOL0     H17973   5.278   9.788   7.425  0.0944  2.2997  3.7069
  855MOL0     H17974   4.290  10.472   6.679 -2.2623  0.0606  0.3705
  855MOL0     H17975   4.075  10.551   6.753 -1.2832  2.2143  0.7224
  855MOL0     H17976   3.882  10.858   6.753  0.7212 -2.0026  1.6929
  855MOL0     H17977   3.656  10.927   6.678 -1.7365 -1.1546  0.6851
  855MOL0     H17978   3.407  11.184   6.675  0.9476  1.1716  3.1798
  855MOL0     H17979   3.536  11.081   6.624  0.3008  1.7380 -0.6193
  855MOL0     H17980   3.266  10.993   6.727 -0.2008  0.3086 -1.4435
  855MOL0     H17981   3.398  10.884   6.740 -2.6957  0.6722  3.3914
  855MOL0     H17982   3.434  10.943   6.480  0.0921 -3.1147 -0.5402
  855MOL0     H17983   3.318  10.823   6.529  0.7154 -0.5814  1.8351
  855MOL0     H17984   3.149  11.015   6.533  0.5689  0.1704  1.3068
  855MOL0     H17985   3.195  10.955   6.373  0.1774 -1.2098  2.2394
  855MOL0     H17986   3.334  11.346   6.364  2.6127 -1.3999  0.4194
  855MOL0     H17987   3.570  11.057   7.073 -2.6310  0.9171 -0.1236
  855MOL0     H17988   3.686  10.969   7.248  0.7680  2.5077 -0.7940
  855MOL0     H17989   3.804  10.835   7.220 -0.8350 -1.9164 -4.5479
  855MOL0     H17990   3.857  11.006   7.241  0.1402 -0.4679  0.7379
  856MOL0     O17991   3.320   4.351   0.111  0.3697 -0.5516 -0.2573
  856MOL0     C17992   3.257   4.373   0.007 -0.6738  0.3217  0.2679
  856MOL0     O17993   3.304   4.456  -0.098 -0.9296  0.1995 -0.0325
  856MOL0     C17994   3.439   4.488  -0.080  0.3053  0.5216  0.1554
  856MOL0     C17995   3.539   4.433  -0.159 -0.6210  0.5364  0.0653
  856MOL0     C17996   3.675   4.481  -0.154  0.1968 -0.5266 -0.3252
  856MOL0     C17997   3.710   4.584  -0.068  0.7668 -0.6819 -0.4516
  856MOL0     O17998   3.840   4.633  -0.047  0.3490  0.5060  0.8186
  856MOL0     C17999   3.954   4.561  -0.106  0.4134  0.4511 -0.0522
  856MOL0     C18000   4.089   4.624  -0.062  0.2443  0.3855 -0.0743
  856MOL0     C18001   4.117   4.609   0.085 -0.6291 -0.4934 -0.0520
  856MOL0     C18002   4.243   4.682   0.128 -0.9306 -0.2519  0.5290
  856MOL0     C18003   4.269   4.688   0.281  0.4804  0.2527  0.4474
  856MOL0     C18004   4.338   4.564   0.335 -0.8251 -0.2553 -0.4498
  856MOL0     C18005   4.492   4.554   0.315 -0.5672 -0.9710 -0.5570
  856MOL0     C18006   4.568   4.667   0.398 -0.6105  0.6574  0.1912
  856MOL0     N18007   4.556   4.663   0.550  0.1550  0.0508 -0.8611
  856MOL0     C18008   4.512   4.776   0.623 -0.0539 -0.1724 -0.5262
  856MOL0     C18009   4.509   4.732   0.749  0.4395 -0.4630  0.3198
  856MOL0     C18010   4.436   4.809   0.865  0.1596 -0.4863  1.1067
  856MOL0     C18011   4.491   4.798   1.007 -0.2271  0.2829  0.9595
  856MOL0     C18012   4.416   4.900   1.103 -0.6192 -0.1482  0.5271
  856MOL0     C18013   4.281   4.856   1.141 -0.4564 -0.7949  0.4962
  856MOL0     O18014   4.216   4.943   1.237 -0.3505 -0.4313 -0.3396
  856MOL0     C18015   4.078   4.935   1.262 -0.8822 -0.2679  0.0544
  856MOL0     C18016   4.000   4.824   1.235 -0.0891  0.3232  0.0854
  856MOL0     C18017   3.862   4.830   1.245  0.4779  0.3305 -0.4399
  856MOL0     C18018   3.785   4.703   1.205 -0.8809  0.3643 -0.5025
  856MOL0     C18019   3.800   4.952   1.290  0.1666 -0.4244  0.3390
  856MOL0     C18020   3.652   4.981   1.294  0.1550  0.0487  0.0583
  856MOL0     O18021   3.603   5.065   1.396 -0.1296  0.4059  0.0248
  856MOL0     C18022   3.464   5.065   1.402  1.3515  0.3560 -0.9939
  856MOL0     C18023   3.402   5.188   1.427  0.0109 -0.3379  0.1411
  856MOL0     C18024   3.263   5.212   1.442  0.7638 -0.4575 -0.0880
  856MOL0     C18025   3.173   5.102   1.418 -0.7216  0.7582 -0.0710
  856MOL0     O18026   3.040   5.127   1.416  0.5370  0.0678  0.4867
  856MOL0     C18027   2.959   5.080   1.524 -0.8652 -0.1206 -0.6899
  856MOL0     C18028   2.853   4.993   1.460  0.6018 -0.0905 -0.4030
  856MOL0     C18029   2.771   5.073   1.353 -0.9805  0.2851 -0.7603
  856MOL0     C18030   2.645   5.149   1.416 -0.5699  0.4599 -0.0315
  856MOL0     C18031   2.578   5.238   1.314 -0.2677  1.1569  0.1665
  856MOL0     C18032   2.442   5.274   1.360 -0.3619 -0.9443 -0.6051
  856MOL0     C18033   2.385   5.353   1.244  0.0607  0.7386  0.2794
  856MOL0     C18034   2.236   5.371   1.271 -0.2454  0.2706 -0.3024
  856MOL0    Cl18035   2.164   5.379   1.111 -0.2084 -0.0842 -0.1643
  856MOL0     C18036   3.231   4.974   1.395  0.0715 -0.4967 -0.5026
  856MOL0     C18037   3.375   4.961   1.383  0.7739 -0.0773 -0.4851
  856MOL0     O18038   3.588   4.948   1.192 -0.2207  0.1083 -0.5191
  856MOL0     C18039   3.884   5.059   1.326  0.9428  0.7463  0.3385
  856MOL0     C18040   4.020   5.055   1.304  0.3655 -0.0864 -0.2815
  856MOL0     N18041   4.574   4.607   0.758  0.2930 -0.0855 -0.1128
  856MOL0     N18042   4.603   4.565   0.638  0.4393 -0.8017  0.7549
  856MOL0     C18043   3.605   4.635   0.021 -0.0759  0.2959  0.4534
  856MOL0     C18044   3.470   4.593   0.008  0.4864  0.2292  0.1933
  856MOL0     C18045   3.134   4.317  -0.006  0.1515  1.1133  0.1724
  856MOL0     C18046   3.096   4.276  -0.135  0.5733 -0.6836 -0.1954
  856MOL0     C18047   2.978   4.213  -0.159 -0.5127 -1.5500  0.4540
  856MOL0     C18048   2.882   4.193  -0.056  0.1090 -0.6915  0.0111
  856MOL0     O18049   2.762   4.134  -0.090 -0.6766 -0.5907  1.0509
  856MOL0     C18050   2.641   4.140  -0.005 -0.0996  0.8443  0.2950
  856MOL0     C18051   2.507   4.157  -0.095 -0.8608 -0.3798  0.2029
  856MOL0     C18052   2.507   4.070  -0.220  0.0101 -0.1074 -0.2869
  856MOL0     C18053   2.365   4.093  -0.288 -0.7178 -1.0422 -0.7013
  856MOL0     C18054   2.260   4.033  -0.217  0.8104  0.0099 -0.6619
  856MOL0     C18055   2.180   3.963  -0.153 -0.8266  0.8486 -0.0919
  856MOL0     C18056   2.911   4.241   0.075 -0.1250  0.7443  0.4721
  856MOL0     C18057   3.038   4.296   0.103 -0.9939 -0.2821  1.0099
  856MOL0     C18058   3.068   4.343   0.238  0.7240  0.5957 -0.1410
  856MOL0     H18059   3.531   4.350  -0.229 -3.5503  2.7623 -2.5297
  856MOL0     H18060   3.755   4.425  -0.201 -0.3203 -0.1916 -1.6737
  856MOL0     H18061   3.949   4.561  -0.216 -1.5168 -0.2100 -0.0151
  856MOL0     H18062   3.946   4.456  -0.079 -1.0127  0.8845  1.3521
  856MOL0     H18063   4.171   4.577  -0.117  0.6529  2.1470 -1.0509
  856MOL0     H18064   4.087   4.730  -0.089  1.6042  0.9663  1.8629
  856MOL0     H18065   4.039   4.646   0.152  1.0541 -0.7598  2.1862
  856MOL0     H18066   4.129   4.501   0.099 -1.2710 -0.5595 -0.0020
  856MOL0     H18067   4.318   4.621   0.078 -2.2319 -2.1467  0.8034
  856MOL0     H18068   4.259   4.785   0.094  0.8517 -0.6065  0.2359
  856MOL0     H18069   4.171   4.701   0.328  0.1290 -2.8107  0.7765
  856MOL0     H18070   4.335   4.773   0.302  1.1031  0.0155 -0.4702
  856MOL0     H18071   4.325   4.550   0.442  2.9229  1.2463  0.3272
  856MOL0     H18072   4.289   4.477   0.288 -0.1471 -0.2447 -1.1988
  856MOL0     H18073   4.511   4.570   0.208 -0.0153 -1.5550 -0.5525
  856MOL0     H18074   4.528   4.454   0.340  0.4009 -0.4935  0.0401
  856MOL0     H18075   4.674   4.670   0.373 -0.9088 -0.0215 -1.2488
  856MOL0     H18076   4.519   4.761   0.371 -1.7228 -0.2225 -0.9497
  856MOL0     H18077   4.491   4.876   0.586 -0.3925 -0.4137 -0.9952
  856MOL0     H18078   4.334   4.772   0.862 -0.3913  1.0313 -0.2295
  856MOL0     H18079   4.423   4.914   0.839  2.8704 -0.8244 -2.2802
  856MOL0     H18080   4.479   4.699   1.051 -0.6851 -0.5395 -0.9532
  856MOL0     H18081   4.598   4.821   1.000 -0.2602  0.0143 -0.5680
  856MOL0     H18082   4.469   4.903   1.198 -1.1392 -0.5359  0.8310
  856MOL0     H18083   4.423   4.999   1.058  1.8652 -0.6876 -0.4694
  856MOL0     H18084   4.218   4.851   1.051 -2.2200 -2.1350  1.7396
  856MOL0     H18085   4.283   4.754   1.180  0.9118 -0.5980  0.9944
  856MOL0     H18086   4.054   4.731   1.217  0.5078  0.1796  2.3400
  856MOL0     H18087   3.783   4.689   1.097 -0.9801  2.2510 -0.7834
  856MOL0     H18088   3.683   4.715   1.242 -0.7266 -1.1735  0.5075
  856MOL0     H18089   3.815   4.604   1.242  0.6897  1.1032  0.3186
  856MOL0     H18090   3.468   5.272   1.439  1.4459 -1.3270 -0.5120
  856MOL0     H18091   3.221   5.311   1.456 -0.8107 -0.9502 -1.0682
  856MOL0     H18092   3.021   5.018   1.589 -1.8680  0.4796  0.9033
  856MOL0     H18093   2.931   5.175   1.569 -0.1251  1.7568 -3.8680
  856MOL0     H18094   2.906   4.911   1.410  1.9647 -0.0501  0.9404
  856MOL0     H18095   2.781   4.956   1.534 -0.3957  3.0005  0.3249
  856MOL0     H18096   2.740   4.990   1.288  2.7042 -2.1368  0.2631
  856MOL0     H18097   2.845   5.135   1.301  1.5538 -0.1483  2.0878
  856MOL0     H18098   2.673   5.190   1.513 -1.4924 -3.3587  2.0764
  856MOL0     H18099   2.579   5.063   1.430  0.7105 -1.1337 -2.9326
  856MOL0     H18100   2.637   5.322   1.275  0.7452 -0.5177 -2.1696
  856MOL0     H18101   2.564   5.170   1.229  1.9612  0.5550  0.2076
  856MOL0     H18102   2.446   5.336   1.450  0.5293 -0.8894 -0.6752
  856MOL0     H18103   2.384   5.182   1.374 -0.5542 -0.8251 -0.6178
  856MOL0     H18104   2.402   5.298   1.151  2.8881  1.4835  0.2733
  856MOL0     H18105   2.445   5.443   1.233  2.9577 -1.2255 -1.1258
  856MOL0     H18106   2.215   5.458   1.333 -0.8389  0.2093 -0.4165
  856MOL0     H18107   2.189   5.281   1.311 -0.8598  0.6927 -0.0662
  856MOL0     H18108   3.172   4.887   1.370 -0.6444  0.7256 -3.4738
  856MOL0     H18109   3.418   4.865   1.357  0.2809 -0.9274  1.6423
  856MOL0     H18110   3.833   5.153   1.348 -1.6259 -0.7987  1.5527
  856MOL0     H18111   4.088   5.136   1.326  0.1590 -0.5040  2.1347
  856MOL0     H18112   3.616   4.715   0.093 -1.9993  1.7657 -0.7944
  856MOL0     H18113   3.395   4.636   0.074 -0.3375 -2.0446  0.8447
  856MOL0     H18114   3.162   4.286  -0.221 -1.0515 -1.9641 -1.6797
  856MOL0     H18115   2.953   4.202  -0.264  0.4573  0.7244 -0.0750
  856MOL0     H18116   2.632   4.041   0.041  2.7033 -0.2338 -1.2602
  856MOL0     H18117   2.638   4.205   0.082  1.4876  0.3035  0.7931
  856MOL0     H18118   2.509   4.261  -0.130 -2.5733 -0.3207  0.1948
  856MOL0     H18119   2.416   4.149  -0.034 -1.7241 -0.0934 -1.0020
  856MOL0     H18120   2.591   4.088  -0.287  1.4147 -1.0626  1.1273
  856MOL0     H18121   2.516   3.965  -0.190 -1.0863  0.5042  2.5031
  856MOL0     H18122   2.363   4.063  -0.393  0.3386  3.0569 -2.0937
  856MOL0     H18123   2.344   4.200  -0.299 -1.3902 -1.2551 -1.5569
  856MOL0     H18124   2.114   3.890  -0.110 -0.4504 -2.2637 -4.0825
  856MOL0     H18125   2.844   4.227   0.159 -0.7840  2.0566  0.1877
  856MOL0     H18126   2.976   4.327   0.295  1.7659 -2.1500  0.9520
  856MOL0     H18127   3.140   4.281   0.292  0.1636 -1.0780 -1.2329
  856MOL0     H18128   3.106   4.445   0.244  0.1622  0.9926 -2.4499
  857MOL0     O18129  11.152   5.872   8.629  0.3989  0.0504  0.5451
  857MOL0     C18130  11.150   5.812   8.733  0.2553 -0.1182  0.0522
  857MOL0     O18131  11.263   5.774   8.805 -0.5055 -0.2104  0.2734
  857MOL0     C18132  11.384   5.755   8.738 -0.4667  0.6488  0.0799
  857MOL0     C18133  11.499   5.770   8.816  0.4966  0.3893  1.1511
  857MOL0     C18134  11.630   5.741   8.768 -0.7061 -1.0571  0.0075
  857MOL0     C18135  11.645   5.706   8.631 -0.5561  0.0629  0.0437
  857MOL0     O18136  11.760   5.685   8.558 -0.1787 -0.5852  0.7903
  857MOL0     C18137  11.881   5.710   8.633 -0.5208  0.6013  0.6862
  857MOL0     C18138  11.988   5.736   8.522  0.4090 -1.2813  0.9317
  857MOL0     C18139  12.126   5.759   8.588  0.9463 -0.5335 -0.3399
  857MOL0     C18140  12.212   5.830   8.500 -0.3734 -0.4113 -0.2774
  857MOL0     C18141  12.345   5.880   8.557 -0.2536  0.0455  0.1014
  857MOL0     C18142  12.428   5.762   8.609  0.0745  0.1392  0.0313
  857MOL0     C18143  12.567   5.810   8.667 -0.1822 -0.3258 -0.2471
  857MOL0     C18144  12.647   5.678   8.692  0.5886 -0.2765  0.3519
  857MOL0     N18145  12.779   5.705   8.752 -0.4219  0.4536  0.4631
  857MOL0     C18146  12.887   5.695   8.671  0.4917  1.3456 -0.0722
  857MOL0     C18147  12.989   5.733   8.747  0.6199  0.3748  0.3352
  857MOL0     C18148  13.136   5.733   8.695 -0.0057  0.0133 -0.6006
  857MOL0     C18149  13.229   5.673   8.793  0.4122 -0.9096 -0.0065
  857MOL0     C18150  13.190   5.530   8.811  0.5130 -1.5591  0.3008
  857MOL0     C18151  13.264   5.468   8.931  0.9677 -0.1646 -0.3611
  857MOL0     O18152  13.404   5.488   8.908 -0.1069  0.1965  0.2550
  857MOL0     C18153  13.496   5.393   8.965 -0.2063 -1.1977  0.2721
  857MOL0     C18154  13.625   5.409   8.917  0.3300 -0.9075 -0.1639
  857MOL0     C18155  13.730   5.349   8.982  0.3140 -0.1018 -0.9372
  857MOL0     C18156  13.869   5.362   8.930  0.3451 -0.4771 -0.6686
  857MOL0     C18157  13.704   5.266   9.098  0.0266  0.2184  0.1450
  857MOL0     C18158  13.801   5.188   9.180  0.3072 -0.8214  0.1871
  857MOL0     O18159  13.769   5.180   9.317  0.4277 -0.2155  0.7383
  857MOL0     C18160  13.853   5.105   9.393  0.1986  0.9433  0.2148
  857MOL0     C18161  13.815   4.977   9.433  0.4729  0.1053 -0.2466
  857MOL0     C18162  13.898   4.904   9.528  0.0687  0.2743  0.2900
  857MOL0     C18163  14.016   4.964   9.573  0.5585  0.0807 -0.5573
  857MOL0     O18164  14.091   4.915   9.665 -0.2094  0.7321 -0.2384
  857MOL0     C18165  14.081   4.766   9.684  0.0041  0.8006  0.2153
  857MOL0     C18166  14.159   4.719   9.808  0.7521 -1.1083  0.6700
  857MOL0     C18167  14.155   4.565   9.831  0.8176 -0.4553  0.3725
  857MOL0     C18168  14.251   4.519   9.935  0.5044  0.8515  0.3810
  857MOL0     C18169  14.374   4.450   9.882 -0.0521 -0.2650  0.2660
  857MOL0     C18170  14.470   4.410   9.994  0.4077 -0.0384 -0.5593
  857MOL0     C18171  14.593   4.361   9.921  0.4527 -0.2050 -0.6062
  857MOL0     C18172  14.576   4.243   9.828  0.6201  0.4218  1.0327
  857MOL0    Cl18173  14.738   4.190   9.779 -0.0782  0.2901  0.6144
  857MOL0     C18174  14.059   5.085   9.517  0.0038 -1.0245  0.3091
  857MOL0     C18175  13.971   5.160   9.435 -0.1886  0.2693  0.1409
  857MOL0     O18176  13.896   5.127   9.131  0.1789 -0.8929  0.2612
  857MOL0     C18177  13.575   5.238   9.131 -0.3657  0.1620  0.2426
  857MOL0     C18178  13.465   5.290   9.056  0.2240 -0.3104 -0.3674
  857MOL0     N18179  12.944   5.753   8.877 -0.1987  0.1614 -0.3739
  857MOL0     N18180  12.816   5.735   8.878 -0.4058  0.3966  0.7158
  857MOL0     C18181  11.520   5.682   8.562 -1.2186  0.5216 -0.6042
  857MOL0     C18182  11.398   5.713   8.610 -1.3253 -0.0943 -0.3687
  857MOL0     C18183  11.020   5.760   8.792  0.4665  0.3471  0.3704
  857MOL0     C18184  11.022   5.667   8.898 -0.2402  0.3924  0.1699
  857MOL0     C18185  10.900   5.612   8.942  0.3593  0.5583  0.1842
  857MOL0     C18186  10.780   5.645   8.879  1.4391 -0.4506  0.1099
  857MOL0     O18187  10.665   5.574   8.920 -0.8483  0.2801  0.1737
  857MOL0     C18188  10.552   5.647   8.953  0.7278  0.2938 -0.4907
  857MOL0     C18189  10.451   5.624   8.848  0.1560 -0.1545 -0.6246
  857MOL0     C18190  10.323   5.710   8.866 -0.3875 -0.1693  0.2891
  857MOL0     C18191  10.239   5.720   8.738  0.8219  0.9878  0.0032
  857MOL0     C18192  10.280   5.823   8.649 -0.1609 -0.3012  0.1042
  857MOL0     C18193  10.284   5.914   8.571 -1.6677  0.0346  0.1157
  857MOL0     C18194  10.783   5.751   8.790  0.3890 -0.8297 -0.1377
  857MOL0     C18195  10.893   5.813   8.748  0.1927  0.5625  0.3298
  857MOL0     C18196  10.872   5.930   8.642  0.2025  0.0544 -0.1194
  857MOL0     H18197  11.497   5.806   8.919  3.0448  0.2919  1.3054
  857MOL0     H18198  11.709   5.755   8.841  0.5094  0.5480 -1.5375
  857MOL0     H18199  11.920   5.622   8.686  1.4953  0.3408 -1.1046
  857MOL0     H18200  11.876   5.798   8.698 -0.3416  0.9211  0.2695
  857MOL0     H18201  11.985   5.644   8.463  0.8271 -2.4303  2.6485
  857MOL0     H18202  11.952   5.822   8.464  0.5656 -1.1749  0.9936
  857MOL0     H18203  12.108   5.810   8.683 -0.2086  2.5196 -2.0313
  857MOL0     H18204  12.172   5.661   8.599  2.1848 -0.0952 -1.2660
  857MOL0     H18205  12.234   5.768   8.413  0.2045 -0.8147  0.1477
  857MOL0     H18206  12.160   5.925   8.493  0.0028  0.0904  2.5200
  857MOL0     H18207  12.316   5.959   8.627  2.0744  1.3151 -0.2813
  857MOL0     H18208  12.411   5.926   8.483  1.5861 -0.2275  1.4912
  857MOL0     H18209  12.378   5.701   8.684 -0.7875 -0.5084 -1.0371
  857MOL0     H18210  12.442   5.695   8.524  0.7131  1.4963 -0.9730
  857MOL0     H18211  12.557   5.875   8.754  1.9118 -0.1928 -0.0403
  857MOL0     H18212  12.613   5.874   8.591  1.8630  0.1142  1.2762
  857MOL0     H18213  12.588   5.607   8.750  0.1666 -1.6039 -1.6109
  857MOL0     H18214  12.664   5.624   8.598  4.1117 -0.2131  0.7878
  857MOL0     H18215  12.882   5.664   8.567  0.1598  2.0495 -0.2729
  857MOL0     H18216  13.159   5.839   8.680 -0.4684  0.4084  1.2331
  857MOL0     H18217  13.133   5.680   8.600  1.5895  2.1020 -1.8904
  857MOL0     H18218  13.331   5.694   8.759  0.7391 -1.4806  0.5891
  857MOL0     H18219  13.216   5.729   8.887 -1.3461 -1.8625  0.3497
  857MOL0     H18220  13.085   5.525   8.842 -0.6295  0.7688 -2.7212
  857MOL0     H18221  13.209   5.479   8.716  1.2972  0.6769 -0.8021
  857MOL0     H18222  13.235   5.512   9.027 -0.2468 -2.5279  0.4278
  857MOL0     H18223  13.233   5.364   8.930 -2.6223  0.7645  0.4212
  857MOL0     H18224  13.646   5.472   8.830  0.4126 -0.9064 -0.1435
  857MOL0     H18225  13.902   5.269   8.883 -1.1271  0.5702 -4.1355
  857MOL0     H18226  13.930   5.393   9.015 -0.4539  1.6589 -0.7951
  857MOL0     H18227  13.886   5.441   8.856  2.5200 -0.1338  0.1175
  857MOL0     H18228  13.722   4.931   9.402  0.2963  1.7538 -2.3696
  857MOL0     H18229  13.856   4.805   9.546  0.3286  0.0395 -0.3531
  857MOL0     H18230  13.983   4.718   9.684  0.4001 -0.0240  0.3332
  857MOL0     H18231  14.126   4.721   9.595 -0.7135  0.5729 -0.0428
  857MOL0     H18232  14.261   4.758   9.800 -0.0823  1.5077  1.6415
  857MOL0     H18233  14.113   4.764   9.897 -0.1382 -1.9837  0.6735
  857MOL0     H18234  14.176   4.495   9.749  0.1526 -1.0488  0.7022
  857MOL0     H18235  14.054   4.540   9.864  0.3958  0.7551  0.0502
  857MOL0     H18236  14.196   4.455  10.005  0.1941  0.4662 -0.2051
  857MOL0     H18237  14.282   4.603   9.998  1.6083  0.5724  0.2263
  857MOL0     H18238  14.342   4.365   9.821  0.3776 -0.4046  0.2294
  857MOL0     H18239  14.427   4.523   9.820 -0.2556 -0.8926 -0.6642
  857MOL0     H18240  14.426   4.327  10.050 -0.7788  0.9270 -0.0016
  857MOL0     H18241  14.494   4.491  10.064  0.1880 -2.0954  2.0389
  857MOL0     H18242  14.667   4.341   9.999 -0.9468 -1.0585  0.5677
  857MOL0     H18243  14.635   4.437   9.855 -1.1330 -0.5718 -2.1096
  857MOL0     H18244  14.518   4.270   9.740  1.9473 -1.2435 -0.4296
  857MOL0     H18245  14.513   4.169   9.880 -1.8401  1.1453 -0.7200
  857MOL0     H18246  14.160   5.123   9.525  0.0722 -1.1180 -0.0970
  857MOL0     H18247  13.994   5.260   9.400  0.8815 -0.3290 -0.9756
  857MOL0     H18248  13.560   5.172   9.216 -0.4465 -0.3713 -0.1767
  857MOL0     H18249  13.363   5.270   9.087 -1.1971 -0.5475 -4.6335
  857MOL0     H18250  11.527   5.651   8.459  0.0712  1.1666 -0.7361
  857MOL0     H18251  11.312   5.695   8.546 -0.6535 -1.4037 -0.9502
  857MOL0     H18252  11.114   5.614   8.920  0.1223  1.3562  1.0092
  857MOL0     H18253  10.896   5.531   9.014  0.1711 -0.6733 -1.1388
  857MOL0     H18254  10.508   5.602   9.042  2.5505  2.4470  1.6608
  857MOL0     H18255  10.569   5.754   8.971  1.6980 -0.2741  2.5725
  857MOL0     H18256  10.430   5.516   8.842  1.0184 -0.2536 -2.8466
  857MOL0     H18257  10.501   5.644   8.753  2.9587 -0.9714  0.5893
  857MOL0     H18258  10.264   5.660   8.943 -1.2927  1.9643  1.0639
  857MOL0     H18259  10.349   5.810   8.902 -1.0410  0.0498  0.1696
  857MOL0     H18260  10.135   5.741   8.764  0.6251  0.4995 -0.3611
  857MOL0     H18261  10.230   5.621   8.691 -3.0884  1.3134 -0.3103
  857MOL0     H18262  10.295   5.995   8.502 -1.3379  0.0328  0.1620
  857MOL0     H18263  10.698   5.800   8.744  0.7707 -0.5207 -0.5272
  857MOL0     H18264  10.866   5.883   8.544  3.5990  2.1427 -1.4848
  857MOL0     H18265  10.784   5.995   8.645 -2.1745 -2.8714 -1.1454
  857MOL0     H18266  10.952   6.003   8.657 -1.7536  2.3287 -0.2161
  858MOL0     O18267   1.404   1.607   5.364 -0.4696  0.0819 -0.4322
  858MOL0     C18268   1.397   1.566   5.245  0.4592  0.0572  0.0853
  858MOL0     O18269   1.490   1.547   5.154 -0.4257  0.4334  0.0908
  858MOL0     C18270   1.611   1.616   5.165 -0.0920 -0.5785 -0.0491
  858MOL0     C18271   1.611   1.754   5.159 -0.1630 -1.0618 -0.2017
  858MOL0     C18272   1.731   1.824   5.155 -0.2314 -1.0148 -1.4829
  858MOL0     C18273   1.855   1.756   5.145 -0.1626 -0.3807  0.1594
  858MOL0     O18274   1.979   1.813   5.130  0.3155 -0.0318  0.1821
  858MOL0     C18275   2.004   1.939   5.082 -0.1093 -1.5552 -0.9837
  858MOL0     C18276   1.984   1.943   4.926  0.3828 -0.1401 -0.4548
  858MOL0     C18277   2.082   2.056   4.871 -0.1286  0.0478 -0.0561
  858MOL0     C18278   2.050   2.105   4.737 -0.3003 -0.2966  0.4507
  858MOL0     C18279   2.155   2.195   4.676  0.0023  0.3282 -0.1997
  858MOL0     C18280   2.293   2.140   4.646  0.4433  0.1502 -0.1353
  858MOL0     C18281   2.405   2.172   4.745  0.1340  0.2739  1.1954
  858MOL0     C18282   2.536   2.106   4.707 -0.2712 -0.0267  1.2787
  858MOL0     N18283   2.617   2.193   4.621 -0.6790  0.2080 -0.1898
  858MOL0     C18284   2.672   2.159   4.496  0.7206 -0.5705 -0.2292
  858MOL0     C18285   2.733   2.268   4.454 -0.2073  0.0487 -0.5394
  858MOL0     C18286   2.786   2.288   4.314  0.6632  0.8791  0.7165
  858MOL0     C18287   2.926   2.349   4.325  0.2330 -0.1162 -0.1959
  858MOL0     C18288   2.964   2.352   4.172 -0.5019  0.9479  0.9429
  858MOL0     C18289   3.094   2.408   4.126  0.0974 -0.3963 -1.6296
  858MOL0     O18290   3.205   2.339   4.196 -0.8893 -0.7809  0.0431
  858MOL0     C18291   3.322   2.358   4.131 -0.7692 -1.0249 -0.5063
  858MOL0     C18292   3.413   2.258   4.148  0.1629  0.4681 -0.1956
  858MOL0     C18293   3.548   2.270   4.119  0.6924 -0.1861  0.3446
  858MOL0     C18294   3.639   2.148   4.154 -0.3532  0.4496  0.2435
  858MOL0     C18295   3.593   2.392   4.067  0.5843  0.0337  0.1463
  858MOL0     C18296   3.731   2.419   4.029  0.1210  0.6088 -0.1238
  858MOL0     O18297   3.751   2.510   3.932  0.5597 -0.1974 -0.7866
  858MOL0     C18298   3.887   2.519   3.889 -0.7083  0.3281 -0.0489
  858MOL0     C18299   3.962   2.405   3.848  0.5099  0.1846 -0.2083
  858MOL0     C18300   4.081   2.420   3.776 -0.5035 -0.0733 -0.2145
  858MOL0     C18301   4.128   2.551   3.754 -0.2561 -0.1396  0.7052
  858MOL0     O18302   4.244   2.590   3.680  1.3943  0.1508 -0.9324
  858MOL0     C18303   4.322   2.500   3.606 -0.7049 -0.0640 -0.3633
  858MOL0     C18304   4.461   2.540   3.565 -0.7881 -0.1343  0.7202
  858MOL0     C18305   4.549   2.631   3.651 -0.5746 -0.7254  0.0158
  858MOL0     C18306   4.484   2.770   3.640 -0.2439  0.1359  0.2358
  858MOL0     C18307   4.576   2.883   3.668  0.7905  0.0955 -0.0488
  858MOL0     C18308   4.655   2.885   3.794 -0.7077 -0.3918 -0.2915
  858MOL0     C18309   4.574   2.867   3.919  0.1110 -0.3113 -0.2996
  858MOL0     C18310   4.653   2.899   4.044 -0.9737  1.2373 -0.1251
  858MOL0    Cl18311   4.816   2.821   4.057 -0.1761  0.4942  0.3354
  858MOL0     C18312   4.064   2.666   3.798  0.0055  0.3273  0.3357
  858MOL0     C18313   3.942   2.645   3.870 -0.0279 -0.0447  0.4980
  858MOL0     O18314   3.816   2.374   4.104  0.1903 -1.3186 -0.4924
  858MOL0     C18315   3.500   2.489   4.027 -0.4408 -0.9159  0.2814
  858MOL0     C18316   3.366   2.472   4.067 -0.6117 -0.1149 -0.1105
  858MOL0     N18317   2.726   2.366   4.554  0.1970  0.0422  0.0866
  858MOL0     N18318   2.635   2.331   4.637  0.0034  0.8153  0.7733
  858MOL0     C18319   1.847   1.617   5.135 -1.1312  0.5771 -0.2621
  858MOL0     C18320   1.729   1.547   5.147  0.2974  0.9923  0.6356
  858MOL0     C18321   1.263   1.517   5.200  0.2168  1.0554  0.2088
  858MOL0     C18322   1.151   1.565   5.265  0.3946  0.6407  0.1037
  858MOL0     C18323   1.016   1.528   5.230 -0.2197  0.5380  0.0693
  858MOL0     C18324   0.992   1.453   5.118 -0.7008  0.2986 -0.0017
  858MOL0     O18325   0.862   1.435   5.071 -0.0110  0.0089 -0.5464
  858MOL0     C18326   0.842   1.405   4.932  0.0636  0.3698 -0.0374
  858MOL0     C18327   0.688   1.368   4.918 -0.5795 -0.9951  0.6549
  858MOL0     C18328   0.647   1.251   5.002  0.0218 -0.5777  0.2148
  858MOL0     C18329   0.511   1.204   4.956  0.7434  0.7233  0.2139
  858MOL0     C18330   0.433   1.154   5.065  0.8975  0.8006 -0.2320
  858MOL0     C18331   0.344   1.112   5.153  0.5195 -0.1132 -0.6348
  858MOL0     C18332   1.103   1.388   5.069  0.2699 -0.8827  0.2345
  858MOL0     C18333   1.234   1.420   5.102 -1.9280 -0.4886  0.4360
  858MOL0     C18334   1.347   1.351   5.027 -0.3796 -0.0650  0.1020
  858MOL0     H18335   1.526   1.822   5.161  1.1128  0.6427 -0.7050
  858MOL0     H18336   1.725   1.933   5.159  2.1067 -0.8465 -0.6222
  858MOL0     H18337   2.110   1.953   5.103 -0.4873 -2.9540  2.6033
  858MOL0     H18338   1.942   2.007   5.142  4.5921 -0.2346  3.0279
  858MOL0     H18339   2.007   1.852   4.869 -0.7734 -1.7299  1.4742
  858MOL0     H18340   1.876   1.958   4.913  0.0464 -1.4745  0.6228
  858MOL0     H18341   2.073   2.146   4.933  0.8063  1.2776 -1.6373
  858MOL0     H18342   2.183   2.016   4.877 -0.1196 -0.7884 -3.5497
  858MOL0     H18343   2.028   2.023   4.667 -0.0138 -1.5421  1.7602
  858MOL0     H18344   1.966   2.173   4.753  0.1466  0.5476 -0.6604
  858MOL0     H18345   2.174   2.278   4.745  0.5373  1.4945 -1.6977
  858MOL0     H18346   2.105   2.236   4.588 -1.3508 -0.2133  0.2788
  858MOL0     H18347   2.291   2.031   4.648 -3.8288  0.0244 -1.0084
  858MOL0     H18348   2.320   2.171   4.545  1.7408  1.6685  0.6244
  858MOL0     H18349   2.370   2.151   4.846 -0.4040 -0.8136  0.8003
  858MOL0     H18350   2.424   2.280   4.738  1.8175 -0.0967 -0.9312
  858MOL0     H18351   2.586   2.082   4.801 -0.4176  1.8554  1.8750
  858MOL0     H18352   2.513   2.017   4.647  1.6654 -0.2803  0.8412
  858MOL0     H18353   2.646   2.063   4.452 -1.3488 -0.2844  0.2710
  858MOL0     H18354   2.720   2.349   4.252 -1.2547 -2.0273 -0.2973
  858MOL0     H18355   2.787   2.198   4.252 -2.5590  0.8054  0.5896
  858MOL0     H18356   2.928   2.453   4.360 -1.0839  1.3528 -3.9168
  858MOL0     H18357   2.988   2.284   4.386  0.6413  0.2967 -0.1645
  858MOL0     H18358   2.952   2.252   4.129 -2.9672  1.1459  0.9721
  858MOL0     H18359   2.891   2.421   4.128 -0.6987 -0.6386 -1.3870
  858MOL0     H18360   3.089   2.407   4.017  0.1900 -0.0948 -1.6373
  858MOL0     H18361   3.106   2.513   4.155  1.7007 -0.9829  0.0400
  858MOL0     H18362   3.380   2.166   4.194  3.6501 -0.2442  1.1066
  858MOL0     H18363   3.586   2.052   4.154 -0.5487  0.5205 -1.3045
  858MOL0     H18364   3.685   2.163   4.252  0.3125  1.7372 -0.2429
  858MOL0     H18365   3.720   2.144   4.080  0.0510 -1.9334  0.7213
  858MOL0     H18366   3.922   2.305   3.862  0.8421 -0.1320 -1.3767
  858MOL0     H18367   4.127   2.335   3.727  1.3106  0.3414  0.6734
  858MOL0     H18368   4.334   2.407   3.662 -1.4754 -0.7360 -1.2760
  858MOL0     H18369   4.264   2.469   3.519  0.9194 -2.2965 -0.7352
  858MOL0     H18370   4.519   2.447   3.561  2.7135  1.8447  1.1363
  858MOL0     H18371   4.455   2.579   3.463  2.8021  1.3976  0.9226
  858MOL0     H18372   4.645   2.640   3.599 -0.5564 -2.1662 -0.2392
  858MOL0     H18373   4.569   2.605   3.756 -1.1281 -0.2727  0.2345
  858MOL0     H18374   4.403   2.773   3.714 -1.2739 -0.2844 -0.8309
  858MOL0     H18375   4.424   2.782   3.549  0.3313 -1.7896 -0.4605
  858MOL0     H18376   4.647   2.888   3.585 -0.8520  4.1571 -1.4720
  858MOL0     H18377   4.534   2.984   3.666  2.4297  0.8290  0.8444
  858MOL0     H18378   4.711   2.979   3.795  1.0607 -1.4140  0.7735
  858MOL0     H18379   4.728   2.804   3.789  4.6810  3.5820  3.1598
  858MOL0     H18380   4.552   2.760   3.920 -0.3622 -0.2181  0.5094
  858MOL0     H18381   4.486   2.932   3.913 -0.1044 -0.3373  1.7394
  858MOL0     H18382   4.590   2.876   4.130  0.0447 -2.2738 -0.2021
  858MOL0     H18383   4.675   3.006   4.056 -0.7562  0.9220  3.0068
  858MOL0     H18384   4.114   2.759   3.772  1.6458 -0.1450  1.6086
  858MOL0     H18385   3.887   2.731   3.909  0.5703  0.0376  1.1635
  858MOL0     H18386   3.518   2.581   3.973 -1.2651 -0.0322  1.4468
  858MOL0     H18387   3.304   2.558   4.043  1.9127  1.3355 -1.8939
  858MOL0     H18388   1.932   1.554   5.113  0.9278  2.7343  1.0340
  858MOL0     H18389   1.731   1.439   5.151 -1.7094  0.8841 -0.0611
  858MOL0     H18390   1.162   1.645   5.337  0.1164  0.0711  0.7911
  858MOL0     H18391   0.931   1.578   5.277 -2.6976 -2.5445 -0.7763
  858MOL0     H18392   0.865   1.485   4.861 -1.3526  0.5837 -0.2746
  858MOL0     H18393   0.897   1.318   4.896 -1.7307 -1.8146  2.1698
  858MOL0     H18394   0.657   1.348   4.815 -0.8447 -0.5948  0.6565
  858MOL0     H18395   0.636   1.454   4.961  2.9824  0.6706  2.0354
  858MOL0     H18396   0.717   1.169   4.986 -1.0209 -0.7765 -4.9846
  858MOL0     H18397   0.642   1.289   5.105  1.3786  0.3628 -0.0371
  858MOL0     H18398   0.528   1.133   4.875  0.0152  1.3456 -0.5169
  858MOL0     H18399   0.451   1.288   4.919 -0.8484  0.1256  1.3444
  858MOL0     H18400   0.265   1.086   5.220 -0.0775 -2.1654 -2.0361
  858MOL0     H18401   1.077   1.345   4.973 -3.8726  2.1027 -0.2607
  858MOL0     H18402   1.390   1.428   4.963 -1.3602 -0.8958 -1.6243
  858MOL0     H18403   1.409   1.302   5.103 -3.2769 -1.6092  1.6590
  858MOL0     H18404   1.316   1.268   4.963  1.6533  0.6786 -1.9839
  859MOL0     O18405  10.580   0.235  10.266 -0.2978  0.3934  0.0252
  859MOL0     C18406  10.558   0.212  10.149 -0.0396  0.7226 -0.4206
  859MOL0     O18407  10.441   0.179  10.094 -0.2620  0.1445 -0.3923
  859MOL0     C18408  10.324   0.179  10.167  0.1231 -1.1555 -0.4639
  859MOL0     C18409  10.301   0.288  10.258 -0.0351  0.1753  0.4620
  859MOL0     C18410  10.178   0.297  10.328 -0.3991 -0.9176  1.0802
  859MOL0     C18411  10.075   0.205  10.305  0.4735  0.3137 -0.4498
  859MOL0     O18412   9.960   0.222  10.387  0.2023  0.5437  0.8679
  859MOL0     C18413   9.880   0.101  10.405  0.2788 -0.0654 -0.0647
  859MOL0     C18414   9.770   0.141  10.499 -1.3473 -0.8117 -0.0864
  859MOL0     C18415   9.690   0.020  10.534 -0.1546 -0.1818 -0.5591
  859MOL0     C18416   9.560   0.072  10.602  0.3650 -0.6633 -0.7997
  859MOL0     C18417   9.474  -0.033  10.665  0.7483 -0.1249 -0.3521
  859MOL0     C18418   9.533  -0.078  10.798 -0.2383 -0.1067 -0.2939
  859MOL0     C18419   9.446  -0.169  10.881 -0.8649  0.4807  0.3151
  859MOL0     C18420   9.376  -0.110  11.001 -0.4442  0.1155  0.1522
  859MOL0     N18421   9.275  -0.001  10.985  0.1850 -0.8833  0.7692
  859MOL0     C18422   9.195  -0.012  10.874 -0.5955  0.0868 -0.9967
  859MOL0     C18423   9.102   0.080  10.902  0.2297  0.1215  0.1474
  859MOL0     C18424   8.994   0.109  10.807  0.6084 -0.2940 -0.7588
  859MOL0     C18425   8.975   0.260  10.775 -0.1567  1.4220  0.9030
  859MOL0     C18426   9.068   0.316  10.670 -0.7231  0.2276 -0.2007
  859MOL0     C18427   9.203   0.370  10.728  0.3355 -0.8222 -0.5571
  859MOL0     O18428   9.299   0.381  10.624  0.0118  0.2344  0.4182
  859MOL0     C18429   9.428   0.424  10.651  0.6257 -0.0095  0.0627
  859MOL0     C18430   9.476   0.447  10.778  0.2421 -0.1012 -0.0158
  859MOL0     C18431   9.601   0.498  10.812  0.7680 -0.3727  0.0191
  859MOL0     C18432   9.626   0.531  10.958 -0.0191  0.1499  0.0207
  859MOL0     C18433   9.689   0.526  10.704  0.4217  0.6839  0.9704
  859MOL0     C18434   9.827   0.560  10.723  0.2795 -0.6919  0.1789
  859MOL0     O18435   9.885   0.640  10.625  0.1547  0.0598 -0.2113
  859MOL0     C18436  10.025   0.646  10.623  0.7524  0.4019 -0.5138
  859MOL0     C18437  10.094   0.768  10.609  0.0831 -0.4966  0.2948
  859MOL0     C18438  10.236   0.772  10.608 -0.2792 -0.3989  0.0078
  859MOL0     C18439  10.313   0.654  10.589  0.7756  0.0916  0.2269
  859MOL0     O18440  10.452   0.664  10.577 -0.0264 -0.3407 -0.4644
  859MOL0     C18441  10.525   0.546  10.548 -0.5039 -0.5575  0.9148
  859MOL0     C18442  10.669   0.585  10.527  0.5257  0.1726 -0.6312
  859MOL0     C18443  10.705   0.679  10.413 -0.5684 -0.6574  0.6768
  859MOL0     C18444  10.617   0.644  10.290  0.1243 -0.8373 -1.2527
  859MOL0     C18445  10.663   0.702  10.153  0.3681 -0.2090 -0.2315
  859MOL0     C18446  10.812   0.666  10.121 -0.2369  0.1626  0.5117
  859MOL0     C18447  10.858   0.711   9.984 -0.7844 -0.2071 -0.7307
  859MOL0     C18448  10.913   0.850   9.986 -0.1990 -0.6393 -0.6345
  859MOL0    Cl18449  10.786   0.976   9.978  0.5942 -0.0331  0.1069
  859MOL0     C18450  10.243   0.537  10.600  0.4436  1.0905 -0.2788
  859MOL0     C18451  10.106   0.527  10.625 -0.1020 -0.1914  0.1301
  859MOL0     O18452   9.881   0.511  10.817 -0.1185 -0.2840 -0.5708
  859MOL0     C18453   9.649   0.497  10.569  0.7948 -0.3573  0.7506
  859MOL0     C18454   9.520   0.445  10.547 -0.2499  0.1312 -0.2001
  859MOL0     N18455   9.130   0.153  11.018  0.0532  0.1878  0.4661
  859MOL0     N18456   9.234   0.100  11.068  0.0456  0.1822  0.1110
  859MOL0     C18457  10.106   0.097  10.224 -0.2168  0.3899 -0.0145
  859MOL0     C18458  10.223   0.088  10.150 -0.3496 -0.3842  0.0779
  859MOL0     C18459  10.665   0.239  10.053  0.4152  1.0525 -0.0094
  859MOL0     C18460  10.643   0.326   9.948  0.7157  0.5036 -0.3270
  859MOL0     C18461  10.747   0.369   9.862  0.0166  0.3572  0.3420
  859MOL0     C18462  10.865   0.304   9.867 -0.6081  1.0412  1.0095
  859MOL0     O18463  10.969   0.338   9.785  0.1229 -0.2943  0.2495
  859MOL0     C18464  11.001   0.477   9.757 -0.5483 -0.3863  0.0281
  859MOL0     C18465  11.104   0.498   9.636  0.4451  1.1556  0.4883
  859MOL0     C18466  11.252   0.455   9.653 -0.6253  0.0249 -0.1972
  859MOL0     C18467  11.261   0.306   9.637 -0.0793  0.6033 -0.4795
  859MOL0     C18468  11.403   0.277   9.623  0.8786  0.7306  0.8792
  859MOL0     C18469  11.516   0.247   9.624 -1.5427  0.1765  0.7477
  859MOL0     C18470  10.886   0.204   9.968 -0.4716  0.0550 -0.4040
  859MOL0     C18471  10.788   0.173  10.057 -0.8249  0.7796 -0.6461
  859MOL0     C18472  10.838   0.079  10.172  0.1058  0.1129 -0.1020
  859MOL0     H18473  10.377   0.365  10.269 -1.4029  1.6274  0.1917
  859MOL0     H18474  10.172   0.381  10.397 -1.7491  2.2535 -2.5549
  859MOL0     H18475   9.946   0.024  10.445 -0.4012 -0.5776  0.0965
  859MOL0     H18476   9.842   0.070  10.307 -0.7145  0.1575  0.2354
  859MOL0     H18477   9.822   0.182  10.587  1.1365 -2.3085 -0.7802
  859MOL0     H18478   9.713   0.220  10.450  1.0595  1.7284  0.9267
  859MOL0     H18479   9.661  -0.049  10.455  1.0364 -1.1918 -0.1321
  859MOL0     H18480   9.751  -0.034  10.607  0.4670  1.8101  0.4915
  859MOL0     H18481   9.591   0.152  10.670 -0.3200 -1.5937  0.6564
  859MOL0     H18482   9.503   0.115  10.519 -0.3727 -2.3535 -1.2097
  859MOL0     H18483   9.474  -0.117  10.595 -1.9292 -0.8776  0.3901
  859MOL0     H18484   9.371   0.001  10.684 -0.2336 -2.4140 -1.1404
  859MOL0     H18485   9.633  -0.118  10.781 -0.2138  0.2828 -1.0995
  859MOL0     H18486   9.542   0.009  10.865 -3.0313 -1.4050  2.0312
  859MOL0     H18487   9.504  -0.243  10.936  1.5584  0.1753 -2.4689
  859MOL0     H18488   9.377  -0.224  10.816 -0.5568 -2.0634  2.0140
  859MOL0     H18489   9.315  -0.190  11.046 -2.3311  1.3016 -0.2082
  859MOL0     H18490   9.449  -0.082  11.078 -0.0167 -2.2002  0.6895
  859MOL0     H18491   9.209  -0.076  10.787 -2.6821 -0.7276 -0.7825
  859MOL0     H18492   8.903   0.065  10.851 -0.5828  0.0781 -2.7436
  859MOL0     H18493   9.006   0.044  10.720 -0.7854  0.3091 -1.4263
  859MOL0     H18494   8.882   0.257  10.717  1.3314 -0.4339 -1.6556
  859MOL0     H18495   8.960   0.320  10.865 -2.5465 -0.8261  2.1352
  859MOL0     H18496   9.102   0.232  10.607 -0.2784  0.0275  0.3017
  859MOL0     H18497   9.025   0.399  10.613 -0.2171  0.3953 -0.3531
  859MOL0     H18498   9.186   0.469  10.772  1.0406 -1.8142  2.1110
  859MOL0     H18499   9.246   0.304  10.804  1.8398  1.1711  0.4101
  859MOL0     H18500   9.408   0.425  10.859 -1.0342  2.1060 -0.3941
  859MOL0     H18501   9.655   0.635  10.975 -2.6971  0.9867  0.0176
  859MOL0     H18502   9.690   0.452  10.999 -0.4077 -1.9299 -3.0120
  859MOL0     H18503   9.536   0.514  11.018 -0.7582 -0.1483 -1.1383
  859MOL0     H18504  10.042   0.863  10.605 -1.5669 -1.3985 -1.6729
  859MOL0     H18505  10.293   0.864  10.594 -1.0760 -0.1732 -2.3156
  859MOL0     H18506  10.502   0.484  10.636 -4.3375 -2.3694 -1.1346
  859MOL0     H18507  10.479   0.496  10.463  0.2140  0.1066  0.1206
  859MOL0     H18508  10.695   0.626  10.625  1.9541 -0.2074 -0.8402
  859MOL0     H18509  10.724   0.491  10.527 -1.8703 -1.5004  3.0775
  859MOL0     H18510  10.814   0.674  10.400 -0.7236 -0.9892 -0.7328
  859MOL0     H18511  10.674   0.778  10.446 -1.7579 -1.1990  1.2058
  859MOL0     H18512  10.513   0.672  10.308  0.1894  0.7014 -2.9779
  859MOL0     H18513  10.624   0.535  10.282 -1.4677 -0.8527 -3.2825
  859MOL0     H18514  10.593   0.672  10.074 -0.7458  1.3946  0.1030
  859MOL0     H18515  10.653   0.810  10.165 -2.4184 -0.5822  1.9701
  859MOL0     H18516  10.816   0.557  10.127 -1.7056  0.0748  0.4574
  859MOL0     H18517  10.878   0.710  10.196 -0.2644 -0.0419  0.6535
  859MOL0     H18518  10.793   0.705   9.896  1.5947 -0.1154 -2.5722
  859MOL0     H18519  10.941   0.645   9.959 -3.0487 -3.6946  0.2895
  859MOL0     H18520  10.976   0.855   9.897  2.6093 -0.3038  1.2292
  859MOL0     H18521  10.974   0.877  10.073 -1.8497 -0.0028  0.3721
  859MOL0     H18522  10.287   0.437  10.599 -4.3980 -1.4408  2.2291
  859MOL0     H18523  10.048   0.436  10.637 -1.0972 -0.1746 -3.5477
  859MOL0     H18524   9.714   0.500  10.482 -0.3227  0.6889 -0.0872
  859MOL0     H18525   9.502   0.407  10.447  1.7710  2.5916 -1.6322
  859MOL0     H18526  10.032   0.024  10.193 -0.4712  0.2145  0.9984
  859MOL0     H18527  10.235   0.003  10.083 -0.0952 -0.6351  0.4366
  859MOL0     H18528  10.546   0.374   9.951  1.2473  1.6958 -1.1905
  859MOL0     H18529  10.717   0.442   9.787 -3.4848 -0.6027  0.6167
  859MOL0     H18530  10.911   0.538   9.741 -0.3736 -0.5673 -1.9050
  859MOL0     H18531  11.063   0.515   9.838  2.8956 -0.7932 -2.2376
  859MOL0     H18532  11.109   0.606   9.625  0.9899  1.2688  1.6771
  859MOL0     H18533  11.048   0.453   9.553 -2.0165 -1.3079  3.1896
  859MOL0     H18534  11.320   0.520   9.599  0.6330  0.8821  2.2506
  859MOL0     H18535  11.281   0.462   9.758 -2.9757 -1.8999  0.7005
  859MOL0     H18536  11.200   0.267   9.556 -1.3834 -2.5655  1.8304
  859MOL0     H18537  11.221   0.245   9.719  1.0684 -0.7196 -0.8590
  859MOL0     H18538  11.618   0.213   9.621 -1.0773  1.5758 -0.3223
  859MOL0     H18539  10.984   0.157   9.967  1.2552  3.2179  1.9683
  859MOL0     H18540  10.846  -0.024  10.136  3.2986  0.0499  0.5134
  859MOL0     H18541  10.939   0.118  10.188  0.6667 -1.5415  0.6081
  859MOL0     H18542  10.766   0.081  10.254 -2.3174 -2.7541 -1.9323
  860MOL0     O18543   0.256   9.637   1.855  0.3092 -0.0081  0.2730
  860MOL0     C18544   0.282   9.712   1.945 -0.2395  0.4913 -0.1390
  860MOL0     O18545   0.407   9.775   1.964 -0.3926  0.2936 -0.2634
  860MOL0     C18546   0.524   9.723   1.909 -0.1450 -0.3760 -0.2041
  860MOL0     C18547   0.543   9.602   1.836 -0.3843 -0.3492 -0.9500
  860MOL0     C18548   0.668   9.584   1.777 -0.1820  0.7143 -0.3885
  860MOL0     C18549   0.770   9.680   1.774 -0.1333 -0.1040 -0.4260
  860MOL0     O18550   0.885   9.679   1.701  0.5588 -0.1780 -0.2411
  860MOL0     C18551   0.955   9.559   1.677 -0.6168  0.2662  1.3288
  860MOL0     C18552   1.074   9.581   1.594  0.1729  0.3223  0.2425
  860MOL0     C18553   1.164   9.696   1.622  0.8430  0.3686  0.2767
  860MOL0     C18554   1.258   9.730   1.502  0.3689 -0.7054  0.0242
  860MOL0     C18555   1.365   9.838   1.542  0.7348  0.0993  0.1075
  860MOL0     C18556   1.485   9.798   1.633  0.7548  0.2310  0.9628
  860MOL0     C18557   1.581   9.715   1.555 -0.6385  0.1981  0.1363
  860MOL0     C18558   1.657   9.780   1.434 -0.0274  0.1792 -1.0020
  860MOL0     N18559   1.802   9.780   1.446 -1.0371 -0.4908 -0.0239
  860MOL0     C18560   1.889   9.677   1.412 -0.6892 -0.0793  0.0354
  860MOL0     C18561   2.020   9.722   1.444 -0.0097  0.2785 -0.3831
  860MOL0     C18562   2.147   9.642   1.436 -0.3837  0.5776  0.1461
  860MOL0     C18563   2.251   9.721   1.523 -0.1324 -0.1320  0.2240
  860MOL0     C18564   2.395   9.663   1.486 -0.6799  0.3179  0.6698
  860MOL0     C18565   2.407   9.515   1.520 -0.2801 -1.3716 -0.1769
  860MOL0     O18566   2.365   9.489   1.655  0.3543  0.0962  0.6222
  860MOL0     C18567   2.348   9.356   1.694  0.4671  0.1303  0.6608
  860MOL0     C18568   2.244   9.323   1.774 -0.3274  0.8327 -0.0775
  860MOL0     C18569   2.212   9.192   1.827  0.2217 -0.2226 -0.3213
  860MOL0     C18570   2.096   9.173   1.919  0.5354  0.2491 -0.1675
  860MOL0     C18571   2.310   9.091   1.810 -0.2933 -0.2332  0.0665
  860MOL0     C18572   2.318   8.955   1.875 -0.7154  0.1346 -0.0252
  860MOL0     O18573   2.373   8.857   1.801 -0.0421 -0.4011  0.4304
  860MOL0     C18574   2.432   8.751   1.863  0.4691  1.0945 -0.0300
  860MOL0     C18575   2.404   8.625   1.812 -0.2075 -0.2428 -0.7740
  860MOL0     C18576   2.471   8.510   1.872 -0.4936 -0.8625 -0.5592
  860MOL0     C18577   2.558   8.531   1.979 -0.5597  0.2362  0.2378
  860MOL0     O18578   2.637   8.433   2.038 -0.2055  0.5106 -0.1917
  860MOL0     C18579   2.640   8.294   1.992  0.1040 -0.6920 -0.2337
  860MOL0     C18580   2.763   8.266   1.898  0.0497 -1.1256  0.3254
  860MOL0     C18581   2.746   8.336   1.762  0.3683 -0.2492 -0.9300
  860MOL0     C18582   2.864   8.315   1.666 -0.1512  0.6195  0.4138
  860MOL0     C18583   2.843   8.400   1.541  0.0220 -0.3387 -0.3234
  860MOL0     C18584   2.964   8.395   1.436  0.3173  0.5389  0.6932
  860MOL0     C18585   3.026   8.256   1.397  0.4302  0.5693  0.1413
  860MOL0     C18586   2.922   8.160   1.340  0.4184 -0.4517  1.6342
  860MOL0    Cl18587   2.982   7.988   1.356  0.2977 -0.1058 -0.4321
  860MOL0     C18588   2.578   8.661   2.033  0.0619 -0.1050  0.9343
  860MOL0     C18589   2.516   8.767   1.975  0.0428 -1.2799 -0.6326
  860MOL0     O18590   2.290   8.950   1.992 -0.6994 -0.3954 -0.5689
  860MOL0     C18591   2.412   9.124   1.716  0.2990  0.5199 -0.1415
  860MOL0     C18592   2.430   9.246   1.656 -0.4088  0.7195  0.5379
  860MOL0     N18593   2.002   9.843   1.506  0.2237  0.2629 -0.1062
  860MOL0     N18594   1.881   9.887   1.492 -0.3046 -0.9119 -0.0476
  860MOL0     C18595   0.746   9.800   1.840  0.2278 -0.4306  0.4972
  860MOL0     C18596   0.625   9.818   1.911 -0.0222  0.1074 -0.6282
  860MOL0     C18597   0.164   9.758   2.028  0.1332  0.9296 -0.0354
  860MOL0     C18598   0.173   9.880   2.110 -0.2021  0.5552  0.4638
  860MOL0     C18599   0.061   9.920   2.186  0.0335 -0.6866  0.9154
  860MOL0     C18600  -0.053   9.851   2.183  1.1858  0.1313  0.1295
  860MOL0     O18601  -0.168   9.887   2.241  0.0918 -0.4356  0.4784
  860MOL0     C18602  -0.154   9.880   2.384 -0.4049  0.6145  0.0050
  860MOL0     C18603  -0.290   9.849   2.439 -0.5872  0.0477  0.1820
  860MOL0     C18604  -0.281   9.815   2.591  0.3960  0.1384 -0.3875
  860MOL0     C18605  -0.227   9.922   2.689 -0.1575 -0.1711 -0.5697
  860MOL0     C18606  -0.335  10.033   2.699 -0.6059 -0.2108  0.0209
  860MOL0     C18607  -0.408  10.126   2.701  0.1757  0.1307 -0.5310
  860MOL0     C18608  -0.064   9.726   2.117  0.3927 -0.7680  0.0888
  860MOL0     C18609   0.047   9.675   2.041  0.3033  0.6642  0.8539
  860MOL0     C18610   0.015   9.552   1.967  0.0762 -0.1093  0.0274
  860MOL0     H18611   0.465   9.527   1.825  0.2557 -0.7430 -3.7698
  860MOL0     H18612   0.690   9.485   1.741 -3.7849  0.2039 -1.6360
  860MOL0     H18613   0.893   9.493   1.616  1.1664  0.4113 -0.7449
  860MOL0     H18614   1.001   9.510   1.763  1.7938  2.2503  1.2804
  860MOL0     H18615   1.137   9.491   1.594  1.4467  1.1110 -2.1994
  860MOL0     H18616   1.029   9.586   1.494 -3.1498 -1.7751  1.4822
  860MOL0     H18617   1.102   9.781   1.651 -0.2650  0.2371 -1.5759
  860MOL0     H18618   1.217   9.657   1.710  0.6169  0.0697  0.2835
  860MOL0     H18619   1.312   9.637   1.481  0.8121 -0.3485 -0.4325
  860MOL0     H18620   1.199   9.762   1.416  0.7609  0.7208  0.2679
  860MOL0     H18621   1.316   9.925   1.586  1.5134 -1.2311  3.9423
  860MOL0     H18622   1.399   9.863   1.441  0.5248  1.5769  0.3799
  860MOL0     H18623   1.543   9.882   1.672  0.4835  0.8634  0.0349
  860MOL0     H18624   1.462   9.741   1.723  1.1311 -1.4553  0.0185
  860MOL0     H18625   1.524   9.627   1.522 -0.5766  0.5336 -0.8943
  860MOL0     H18626   1.656   9.682   1.627 -0.6707  0.6335  0.3757
  860MOL0     H18627   1.620   9.729   1.345 -2.6097 -0.5457  0.3591
  860MOL0     H18628   1.610   9.878   1.428 -4.4573 -1.7322 -1.9420
  860MOL0     H18629   1.871   9.576   1.374 -1.1884  0.7959 -2.2507
  860MOL0     H18630   2.163   9.640   1.327 -2.9367  2.4571 -0.3655
  860MOL0     H18631   2.135   9.544   1.482  1.7652  0.1614 -0.0879
  860MOL0     H18632   2.246   9.825   1.491 -1.8566  0.0683  1.0124
  860MOL0     H18633   2.228   9.716   1.630  2.0369 -2.2631  0.6809
  860MOL0     H18634   2.434   9.688   1.387 -0.1146 -0.9488  0.5454
  860MOL0     H18635   2.457   9.713   1.561 -0.6443  0.2591  0.6799
  860MOL0     H18636   2.347   9.464   1.445 -0.0577 -1.3556 -0.3695
  860MOL0     H18637   2.514   9.496   1.507  0.6723  1.1850  2.6331
  860MOL0     H18638   2.163   9.387   1.808 -3.1182 -1.7791 -1.4168
  860MOL0     H18639   2.005   9.224   1.886 -0.2339 -1.1811 -0.3397
  860MOL0     H18640   2.129   9.213   2.015  3.1055 -0.5083 -0.6606
  860MOL0     H18641   2.065   9.071   1.940 -0.9105  1.0098  1.7714
  860MOL0     H18642   2.342   8.615   1.723 -0.5842  2.7032 -0.9239
  860MOL0     H18643   2.466   8.411   1.829 -0.9872 -1.3792  0.6463
  860MOL0     H18644   2.663   8.237   2.083  3.4176 -0.6966 -0.9498
  860MOL0     H18645   2.547   8.256   1.950  0.6781 -1.4717 -0.8156
  860MOL0     H18646   2.862   8.292   1.938  1.1347 -2.8554 -1.0700
  860MOL0     H18647   2.764   8.158   1.882  1.1789 -1.2727  1.2090
  860MOL0     H18648   2.742   8.444   1.782  1.0693 -0.6264  1.4299
  860MOL0     H18649   2.652   8.306   1.714  0.4796  1.4259 -2.3172
  860MOL0     H18650   2.866   8.208   1.644 -2.6355  0.6505 -0.1988
  860MOL0     H18651   2.957   8.342   1.717 -0.0730  0.2746  0.4532
  860MOL0     H18652   2.753   8.370   1.488  0.7688 -0.6599 -1.4580
  860MOL0     H18653   2.832   8.504   1.571 -0.8088 -0.9576  1.6892
  860MOL0     H18654   3.045   8.456   1.475 -0.5019  2.9219 -1.1011
  860MOL0     H18655   2.945   8.447   1.341  1.1755  0.2639  0.3610
  860MOL0     H18656   3.059   8.209   1.491 -2.6910 -0.8602  0.6488
  860MOL0     H18657   3.108   8.273   1.327  1.5594  1.8624  1.7151
  860MOL0     H18658   2.911   8.180   1.233 -0.1884  1.3400  1.9920
  860MOL0     H18659   2.822   8.178   1.381 -0.3416  0.2895 -0.4288
  860MOL0     H18660   2.648   8.668   2.115 -0.3374 -2.6084  1.5890
  860MOL0     H18661   2.527   8.865   2.020  1.6167 -1.0330 -1.4769
  860MOL0     H18662   2.484   9.047   1.690 -0.0439  0.2529 -0.3078
  860MOL0     H18663   2.511   9.264   1.587  0.0459  4.0259  1.7852
  860MOL0     H18664   0.818   9.880   1.824  0.8013 -1.2387 -1.1864
  860MOL0     H18665   0.595   9.910   1.960 -2.6269 -0.0726 -1.7191
  860MOL0     H18666   0.264   9.938   2.114 -0.0623  0.2892  1.2417
  860MOL0     H18667   0.054  10.018   2.231  0.4679  0.5320 -1.5107
  860MOL0     H18668  -0.087   9.805   2.425 -2.3037  0.9176  4.1382
  860MOL0     H18669  -0.117   9.975   2.424  1.0208  0.1325 -0.1221
  860MOL0     H18670  -0.345   9.776   2.379  0.1054  0.9784 -1.6505
  860MOL0     H18671  -0.345   9.943   2.432 -2.7503 -1.0572  1.2710
  860MOL0     H18672  -0.382   9.782   2.616  0.6393  1.4212  2.6535
  860MOL0     H18673  -0.216   9.729   2.609  0.7912  0.5821  0.3443
  860MOL0     H18674  -0.134   9.968   2.655 -0.2559 -0.8929 -1.8572
  860MOL0     H18675  -0.210   9.881   2.789 -0.8571  1.5864  0.3092
  860MOL0     H18676  -0.472  10.211   2.692 -1.6665 -0.8549  1.9588
  860MOL0     H18677  -0.159   9.676   2.123 -0.0237 -0.0115 -0.0528
  860MOL0     H18678   0.083   9.475   2.006 -0.5840  0.2982  2.1386
  860MOL0     H18679  -0.087   9.517   1.987  0.9531 -3.2424 -0.3668
  860MOL0     H18680   0.016   9.562   1.859  1.3887  1.3886  0.1459
  861MOL0     O18681  10.518   4.147   1.426 -0.3422  0.5946 -0.0266
  861MOL0     C18682  10.537   4.262   1.461  0.6695 -0.1883 -0.2806
  861MOL0     O18683  10.655   4.324   1.464  0.6425 -0.1583 -0.7948
  861MOL0     C18684  10.771   4.289   1.399  0.6304 -0.9084  0.5899
  861MOL0     C18685  10.759   4.232   1.271  0.0984 -0.9332 -0.3159
  861MOL0     C18686  10.880   4.208   1.200  0.2717 -1.0591  0.3236
  861MOL0     C18687  11.005   4.210   1.268 -0.0941 -0.3840  0.5762
  861MOL0     O18688  11.125   4.163   1.222  0.1534 -0.5615 -0.0159
  861MOL0     C18689  11.126   4.067   1.115  0.4989  0.6852  0.8104
  861MOL0     C18690  11.229   3.953   1.141  0.3327  0.4304  0.0664
  861MOL0     C18691  11.259   3.945   1.295 -0.5280 -0.0443  0.1403
  861MOL0     C18692  11.372   3.848   1.331 -0.0603  0.4422 -0.6278
  861MOL0     C18693  11.502   3.929   1.315  0.0381  0.6635 -0.0399
  861MOL0     C18694  11.610   3.827   1.354 -0.0722 -0.2018  0.1224
  861MOL0     C18695  11.743   3.895   1.312  0.0101  0.5047  0.6909
  861MOL0     C18696  11.860   3.821   1.380  0.4656  0.2331 -0.8193
  861MOL0     N18697  11.990   3.898   1.377 -0.2581 -0.4615  0.0147
  861MOL0     C18698  12.046   3.939   1.257 -0.7543 -0.8602 -0.6903
  861MOL0     C18699  12.172   3.990   1.291 -0.4484 -0.3064 -0.2051
  861MOL0     C18700  12.260   4.059   1.191 -1.2465 -0.9512  0.0553
  861MOL0     C18701  12.261   4.211   1.215 -0.1530  0.3686  0.7517
  861MOL0     C18702  12.345   4.269   1.099 -0.6578  0.3642  0.5729
  861MOL0     C18703  12.360   4.424   1.116  0.7518  0.2826 -0.0093
  861MOL0     O18704  12.234   4.489   1.100 -0.6443 -0.6812 -0.4483
  861MOL0     C18705  12.238   4.624   1.060  1.0345  0.4300  0.6004
  861MOL0     C18706  12.112   4.681   1.033  0.8791 -0.5300 -0.4709
  861MOL0     C18707  12.096   4.816   0.988  0.7645 -0.0196 -0.3480
  861MOL0     C18708  11.964   4.874   0.946 -0.0365  0.1165  0.1789
  861MOL0     C18709  12.218   4.895   0.987 -0.4837  0.3399 -0.1068
  861MOL0     C18710  12.230   5.049   0.950  0.0184  0.1966 -0.0579
  861MOL0     O18711  12.351   5.105   0.966 -0.3388  0.2672  0.1267
  861MOL0     C18712  12.364   5.239   0.924 -0.3979  0.0144 -0.3919
  861MOL0     C18713  12.388   5.279   0.793  0.4884 -0.4644  0.2819
  861MOL0     C18714  12.396   5.415   0.754 -0.7505 -0.0807  0.7015
  861MOL0     C18715  12.386   5.522   0.851  0.1422  0.5959  0.5207
  861MOL0     O18716  12.415   5.652   0.832 -0.6123  0.1380 -0.3388
  861MOL0     C18717  12.316   5.737   0.765  0.5516  0.5173  0.4149
  861MOL0     C18718  12.193   5.751   0.857 -0.6435 -0.8388  0.2061
  861MOL0     C18719  12.105   5.869   0.822 -0.6644 -0.5466 -0.2321
  861MOL0     C18720  12.056   5.926   0.957 -0.0820 -0.4245  0.2245
  861MOL0     C18721  11.959   6.043   0.930  0.2816 -0.4377 -0.3366
  861MOL0     C18722  11.880   6.088   1.049  0.5700  0.0214 -0.0606
  861MOL0     C18723  11.765   6.188   1.016  0.1575 -0.0771  0.0545
  861MOL0     C18724  11.647   6.182   1.107  0.2759 -0.1397 -0.1359
  861MOL0    Cl18725  11.543   6.310   1.037 -0.0081  0.1172 -0.0280
  861MOL0     C18726  12.372   5.478   0.987 -0.2882 -0.1608 -0.1109
  861MOL0     C18727  12.362   5.337   1.021 -0.8290 -0.3503  0.2603
  861MOL0     O18728  12.135   5.098   0.900  0.1349 -0.6866 -0.7587
  861MOL0     C18729  12.339   4.840   1.024 -0.1843  0.0223  0.2981
  861MOL0     C18730  12.347   4.705   1.061 -0.5216  0.5657 -0.1718
  861MOL0     N18731  12.181   3.990   1.434  0.3435  0.0133 -0.5694
  861MOL0     N18732  12.078   3.927   1.481 -0.5128 -0.4606 -1.0716
  861MOL0     C18733  11.010   4.263   1.395 -0.2084 -0.2703 -0.3250
  861MOL0     C18734  10.891   4.308   1.457 -0.0934  0.0398 -0.8090
  861MOL0     C18735  10.420   4.347   1.481 -0.0287  0.1161 -0.5736
  861MOL0     C18736  10.433   4.464   1.569 -0.3758 -0.1780  1.1749
  861MOL0     C18737  10.331   4.553   1.585 -0.1820 -0.4025  0.7408
  861MOL0     C18738  10.206   4.534   1.526  0.7800 -0.0382 -0.5475
  861MOL0     O18739  10.113   4.629   1.574 -0.2449  0.2418 -0.1207
  861MOL0     C18740  10.006   4.652   1.480  0.1644 -0.4508 -0.0685
  861MOL0     C18741   9.893   4.730   1.557  0.1324  0.0304 -0.6322
  861MOL0     C18742   9.843   4.644   1.670  1.0281  0.3744  0.1301
  861MOL0     C18743   9.689   4.670   1.694 -0.0710  0.0878 -0.0101
  861MOL0     C18744   9.599   4.657   1.573  0.6572  0.8607  0.1255
  861MOL0     C18745   9.538   4.682   1.473 -0.3402 -0.2886  0.6514
  861MOL0     C18746  10.184   4.425   1.435  0.4657 -0.2900 -1.4961
  861MOL0     C18747  10.296   4.335   1.411  0.2666  0.3410  0.0255
  861MOL0     C18748  10.263   4.225   1.311 -0.0795 -0.4183  0.2806
  861MOL0     H18749  10.669   4.209   1.214  1.0625 -2.3444 -1.3314
  861MOL0     H18750  10.863   4.170   1.100  1.5055 -1.5717  0.2956
  861MOL0     H18751  11.152   4.124   1.026 -2.5491  0.7727 -0.1267
  861MOL0     H18752  11.026   4.024   1.110 -0.2105  2.3121  0.2722
  861MOL0     H18753  11.196   3.860   1.094  1.2334  1.0563 -1.9419
  861MOL0     H18754  11.323   3.980   1.092 -0.1902 -0.5944 -1.6241
  861MOL0     H18755  11.288   4.045   1.329 -0.7713  0.1070 -0.0919
  861MOL0     H18756  11.165   3.917   1.343 -0.7049 -0.9785 -0.6999
  861MOL0     H18757  11.368   3.807   1.433  4.4677 -0.5902 -0.6508
  861MOL0     H18758  11.375   3.777   1.248 -0.0889 -0.3898  0.0758
  861MOL0     H18759  11.497   4.019   1.377 -0.0530 -0.6899  2.0387
  861MOL0     H18760  11.505   3.941   1.207  1.1767 -2.2440 -0.4088
  861MOL0     H18761  11.607   3.823   1.463  1.9001 -1.4229  0.1810
  861MOL0     H18762  11.613   3.729   1.306  2.9351  0.1435 -0.6200
  861MOL0     H18763  11.759   4.001   1.334  2.8777  0.1450  0.7265
  861MOL0     H18764  11.758   3.867   1.207 -2.5504 -2.2152  0.9250
  861MOL0     H18765  11.837   3.796   1.484 -1.6680  0.5147 -1.1743
  861MOL0     H18766  11.880   3.735   1.317  1.0320  1.2044 -2.0098
  861MOL0     H18767  12.001   3.925   1.159 -3.8198  1.6791  0.1717
  861MOL0     H18768  12.231   4.032   1.089 -2.0447  1.3071 -0.3701
  861MOL0     H18769  12.356   4.012   1.213 -0.7665  0.5921  1.4178
  861MOL0     H18770  12.160   4.252   1.223  0.0117  0.5027  2.4249
  861MOL0     H18771  12.306   4.224   1.314  0.1140  0.0031  0.6811
  861MOL0     H18772  12.449   4.234   1.103 -0.3496  0.7139 -2.1107
  861MOL0     H18773  12.304   4.241   1.002  0.0233  0.4328  0.2569
  861MOL0     H18774  12.414   4.448   1.209  0.8713 -0.5257  0.1382
  861MOL0     H18775  12.422   4.458   1.032 -0.1987 -1.2183 -1.3754
  861MOL0     H18776  12.019   4.624   1.034 -0.1187  0.9080  2.6449
  861MOL0     H18777  11.918   4.929   1.029  3.5420  2.2459  0.9600
  861MOL0     H18778  11.898   4.792   0.917  0.8395  0.2720 -2.5253
  861MOL0     H18779  11.968   4.934   0.855  0.5987  2.3013  1.5505
  861MOL0     H18780  12.407   5.211   0.709 -0.0290  0.7312 -0.8336
  861MOL0     H18781  12.412   5.444   0.650  2.5084 -1.1258  0.7967
  861MOL0     H18782  12.362   5.836   0.758 -0.4533  0.9021 -1.0493
  861MOL0     H18783  12.292   5.689   0.670  0.6451  2.4807 -0.6358
  861MOL0     H18784  12.131   5.661   0.860 -1.1383 -0.4781  1.1650
  861MOL0     H18785  12.225   5.745   0.961 -1.3936  1.5406  0.6347
  861MOL0     H18786  12.021   5.849   0.756 -1.2546 -0.3129  0.4395
  861MOL0     H18787  12.159   5.957   0.785  1.5351 -0.2733  3.1998
  861MOL0     H18788  12.137   5.966   1.019 -1.3812 -1.0046  2.3929
  861MOL0     H18789  12.004   5.845   1.009 -2.4543  1.9937  1.9351
  861MOL0     H18790  12.016   6.125   0.884  2.5403 -0.2083  2.5988
  861MOL0     H18791  11.892   6.005   0.853 -1.0214  0.6164  0.2336
  861MOL0     H18792  11.950   6.134   1.119 -0.2420  3.2763 -1.2255
  861MOL0     H18793  11.838   6.000   1.100  2.2953 -0.8874 -0.1290
  861MOL0     H18794  11.727   6.181   0.913  1.5075 -1.0227 -0.3963
  861MOL0     H18795  11.809   6.288   1.013 -2.6714  1.3902  1.9941
  861MOL0     H18796  11.688   6.200   1.207 -2.7958  4.5217  0.5859
  861MOL0     H18797  11.607   6.081   1.097 -0.0746 -0.0411  0.2387
  861MOL0     H18798  12.366   5.541   1.076  0.5673 -0.2572  0.0297
  861MOL0     H18799  12.365   5.306   1.125  1.5868 -1.4025 -0.0648
  861MOL0     H18800  12.430   4.898   1.013 -0.6623  0.7065 -0.1503
  861MOL0     H18801  12.445   4.660   1.076 -0.8897  0.0272  0.6897
  861MOL0     H18802  11.104   4.282   1.447 -0.7567 -2.0656  1.4626
  861MOL0     H18803  10.895   4.339   1.561  0.7138  0.8126 -1.0574
  861MOL0     H18804  10.526   4.491   1.619  1.6805 -0.0308 -2.4019
  861MOL0     H18805  10.354   4.630   1.658 -1.4845  1.4905 -0.7455
  861MOL0     H18806  10.050   4.710   1.398 -0.8823 -2.8422 -2.5073
  861MOL0     H18807   9.956   4.563   1.440 -0.4206 -0.7077  1.2079
  861MOL0     H18808   9.820   4.762   1.482  4.0902  2.9447 -3.6516
  861MOL0     H18809   9.933   4.819   1.606 -0.8621 -0.2837  0.8410
  861MOL0     H18810   9.859   4.537   1.653  4.1394  0.9959 -1.5312
  861MOL0     H18811   9.893   4.682   1.759 -2.4893  1.2511  1.9307
  861MOL0     H18812   9.686   4.773   1.730  0.6592 -0.0724  0.5288
  861MOL0     H18813   9.658   4.605   1.777  1.5903 -2.1799 -1.0551
  861MOL0     H18814   9.480   4.697   1.384 -0.8712  0.5868  1.1373
  861MOL0     H18815  10.085   4.410   1.391 -1.2518  0.8218  1.6977
  861MOL0     H18816  10.261   4.126   1.357 -2.9921 -0.6594 -0.1818
  861MOL0     H18817  10.164   4.237   1.267  0.8414 -1.7277 -2.3997
  861MOL0     H18818  10.341   4.236   1.235 -1.9950 -0.0929 -1.7304
  862MOL0     O18819   3.533   0.792   3.795  0.2380  0.0716 -0.0785
  862MOL0     C18820   3.440   0.829   3.723  0.5232  0.0022 -0.3355
  862MOL0     O18821   3.453   0.854   3.587 -0.5482  0.0306 -0.0130
  862MOL0     C18822   3.584   0.854   3.534  0.6509  0.3201  0.0405
  862MOL0     C18823   3.618   0.953   3.437  0.3130  0.2133 -0.2951
  862MOL0     C18824   3.743   0.961   3.375  0.8573  0.4352 -0.8013
  862MOL0     C18825   3.839   0.868   3.411  0.3396  0.2252 -0.6102
  862MOL0     O18826   3.961   0.886   3.350  0.3147 -0.3231 -0.0599
  862MOL0     C18827   4.071   0.798   3.379  0.2605 -0.1517 -0.4633
  862MOL0     C18828   4.141   0.810   3.516 -0.3052  0.5024  0.0828
  862MOL0     C18829   4.218   0.941   3.529 -0.1496  0.7961  0.1171
  862MOL0     C18830   4.288   0.952   3.665  0.1129 -0.3671  0.2385
  862MOL0     C18831   4.406   1.056   3.661 -0.1972 -0.3533 -0.0049
  862MOL0     C18832   4.467   1.053   3.804 -0.4530  0.1842 -0.0308
  862MOL0     C18833   4.601   1.113   3.803  0.3736  1.0043 -0.3200
  862MOL0     C18834   4.711   1.023   3.871 -0.3685  0.2161  0.2461
  862MOL0     N18835   4.844   1.084   3.859 -0.2327 -0.3372 -0.4900
  862MOL0     C18836   4.935   1.104   3.965 -0.2063  0.0988  0.9288
  862MOL0     C18837   5.047   1.152   3.902 -0.3434 -0.4689  0.0618
  862MOL0     C18838   5.182   1.202   3.971  0.3995  0.5210 -0.2530
  862MOL0     C18839   5.211   1.135   4.103  0.6254  0.4720 -0.9088
  862MOL0     C18840   5.332   1.200   4.167  0.3296  0.1789  0.7930
  862MOL0     C18841   5.468   1.158   4.091 -0.4151  0.3372  0.3295
  862MOL0     O18842   5.579   1.238   4.149  0.4871  0.3630  0.7613
  862MOL0     C18843   5.702   1.179   4.148  0.2122 -1.1224  0.1402
  862MOL0     C18844   5.745   1.086   4.058 -1.1598  0.2151  0.2230
  862MOL0     C18845   5.879   1.043   4.069  0.2907  0.4984  0.0365
  862MOL0     C18846   5.919   0.931   3.974 -0.0129  1.2118  0.0700
  862MOL0     C18847   5.967   1.107   4.160  1.1298  0.2726 -0.7297
  862MOL0     C18848   6.101   1.053   4.183 -0.0146 -0.3087 -0.2127
  862MOL0     O18849   6.191   1.138   4.233  0.0394 -0.0079 -0.6186
  862MOL0     C18850   6.323   1.103   4.242 -1.5672  0.8981  0.9102
  862MOL0     C18851   6.365   1.033   4.349  0.0139  0.4787 -0.3848
  862MOL0     C18852   6.504   1.010   4.359  0.0546  0.3644  0.3013
  862MOL0     C18853   6.591   1.051   4.265 -1.2002  0.6692 -0.3741
  862MOL0     O18854   6.722   1.031   4.305  0.0883  0.1799 -0.6546
  862MOL0     C18855   6.821   0.975   4.219  0.1336  1.1156 -0.5090
  862MOL0     C18856   6.917   0.890   4.313  0.0138 -0.9393  0.0894
  862MOL0     C18857   7.024   0.827   4.233 -0.6723  0.3507 -1.0291
  862MOL0     C18858   7.156   0.821   4.315 -0.4516  0.2187 -0.5616
  862MOL0     C18859   7.255   0.755   4.234 -0.2159  0.6824  0.1594
  862MOL0     C18860   7.399   0.751   4.302  0.3586 -0.1682 -0.2491
  862MOL0     C18861   7.505   0.668   4.238 -0.0024  0.2221  0.4208
  862MOL0     C18862   7.466   0.533   4.194 -0.5533 -0.4984 -0.5214
  862MOL0    Cl18863   7.600   0.444   4.102  0.1281 -0.1149  0.2169
  862MOL0     C18864   6.552   1.110   4.149 -0.6222 -0.4678  0.0008
  862MOL0     C18865   6.413   1.134   4.141 -0.2881  0.2325 -0.6337
  862MOL0     O18866   6.127   0.933   4.160  0.0076 -0.0394 -0.0606
  862MOL0     C18867   5.913   1.198   4.254  0.1283  0.0295 -0.2396
  862MOL0     C18868   5.778   1.235   4.247 -0.0940  0.3101  0.4390
  862MOL0     N18869   5.023   1.165   3.767  0.8668  0.1376  0.1377
  862MOL0     N18870   4.900   1.121   3.742  0.4876  1.0589  0.1549
  862MOL0     C18871   3.806   0.759   3.492 -0.0901  1.0800 -0.3848
  862MOL0     C18872   3.678   0.747   3.549 -0.7588 -0.0829 -0.0400
  862MOL0     C18873   3.308   0.847   3.787 -0.9665 -0.0131 -0.2018
  862MOL0     C18874   3.274   0.973   3.815 -0.4441 -0.8983  0.2306
  862MOL0     C18875   3.147   1.004   3.856 -0.0281 -0.0570  0.1124
  862MOL0     C18876   3.048   0.907   3.864 -0.2695  0.5941  0.1482
  862MOL0     O18877   2.918   0.931   3.904 -0.2888 -0.1878 -0.3224
  862MOL0     C18878   2.865   1.063   3.919 -1.3642 -0.8045 -0.4178
  862MOL0     C18879   2.716   1.048   3.956  0.2411 -0.1166 -0.6220
  862MOL0     C18880   2.647   1.186   3.998  0.5295 -0.4529  0.3890
  862MOL0     C18881   2.619   1.273   3.873  0.7626  0.3548 -0.7246
  862MOL0     C18882   2.509   1.232   3.793  0.2443 -0.7379 -0.3657
  862MOL0     C18883   2.417   1.217   3.713 -0.2930 -0.0801  0.3698
  862MOL0     C18884   3.079   0.776   3.829 -0.2967  0.0355  0.8538
  862MOL0     C18885   3.208   0.748   3.792 -0.7348 -0.5539  0.1353
  862MOL0     C18886   3.238   0.610   3.745 -0.1505  0.0062  0.0270
  862MOL0     H18887   3.544   1.031   3.425  0.6097  0.7052  0.8807
  862MOL0     H18888   3.770   1.041   3.307 -0.6207  0.4077 -1.4591
  862MOL0     H18889   4.149   0.809   3.303  2.1847 -2.1954  1.0700
  862MOL0     H18890   4.041   0.693   3.369  2.7712 -0.7744 -2.4422
  862MOL0     H18891   4.063   0.814   3.593 -0.8762 -2.3657 -0.2299
  862MOL0     H18892   4.196   0.720   3.543 -0.1706  0.2051 -1.1392
  862MOL0     H18893   4.305   0.926   3.464  0.1571  0.1723  0.6614
  862MOL0     H18894   4.172   1.037   3.504  1.3313  1.6526  0.5246
  862MOL0     H18895   4.219   0.986   3.743 -0.4154  2.1129 -1.2005
  862MOL0     H18896   4.321   0.854   3.699 -0.1127 -0.3091  0.6391
  862MOL0     H18897   4.363   1.152   3.630  0.9735 -0.2079 -1.2486
  862MOL0     H18898   4.489   1.033   3.594 -0.9419 -2.6409 -0.2064
  862MOL0     H18899   4.400   1.120   3.858  1.4958  0.8461  1.6885
  862MOL0     H18900   4.462   0.952   3.847  1.5584  0.4605  1.0054
  862MOL0     H18901   4.602   1.208   3.857  1.8594  0.2806  0.9829
  862MOL0     H18902   4.632   1.143   3.703  0.6373  1.5211 -0.0895
  862MOL0     H18903   4.686   1.010   3.976  1.5761 -1.2369  0.5714
  862MOL0     H18904   4.717   0.921   3.833 -1.5814 -0.0097  0.5982
  862MOL0     H18905   4.927   1.102   4.074  0.4765  1.0360  1.0093
  862MOL0     H18906   5.175   1.310   3.986  0.8152  0.6188 -0.7428
  862MOL0     H18907   5.271   1.183   3.911 -0.9733 -1.3132 -1.8674
  862MOL0     H18908   5.125   1.148   4.169  0.3342  2.3069 -1.6014
  862MOL0     H18909   5.226   1.027   4.090 -1.0486  0.0845  0.0475
  862MOL0     H18910   5.330   1.309   4.172 -0.1604  0.3078 -1.4527
  862MOL0     H18911   5.335   1.171   4.273 -2.1527  1.9125  1.4276
  862MOL0     H18912   5.468   1.049   4.093 -3.9999  0.2468  1.6512
  862MOL0     H18913   5.465   1.182   3.984 -2.7860 -0.6427  0.1177
  862MOL0     H18914   5.673   1.051   3.984 -1.7078  0.7458  0.4943
  862MOL0     H18915   5.933   0.832   4.019  1.0192  0.2857 -2.1288
  862MOL0     H18916   6.007   0.950   3.912  2.2832 -0.0456  2.6696
  862MOL0     H18917   5.832   0.910   3.912 -1.6065 -2.1783  3.0522
  862MOL0     H18918   6.298   1.004   4.429  0.0982 -0.6844 -0.7099
  862MOL0     H18919   6.540   0.957   4.446  3.5969 -0.4504 -1.5098
  862MOL0     H18920   6.781   0.911   4.140  2.2155 -1.6867  0.5644
  862MOL0     H18921   6.886   1.054   4.180  0.7988 -0.3398 -2.5130
  862MOL0     H18922   6.963   0.956   4.387  1.4991 -1.7271 -0.1102
  862MOL0     H18923   6.860   0.822   4.377  1.0150 -1.2273  0.7005
  862MOL0     H18924   7.055   0.882   4.143  2.8097 -2.2488 -1.6650
  862MOL0     H18925   6.985   0.733   4.191 -1.5714 -0.0417  0.5932
  862MOL0     H18926   7.149   0.761   4.406 -0.0410  1.5050  0.3475
  862MOL0     H18927   7.180   0.922   4.348 -1.6146  1.4004 -3.0744
  862MOL0     H18928   7.226   0.652   4.215  0.5263  0.8020 -1.8822
  862MOL0     H18929   7.267   0.805   4.138  2.1968 -0.9149 -0.4548
  862MOL0     H18930   7.383   0.724   4.406 -2.4260  0.2607 -0.4977
  862MOL0     H18931   7.439   0.852   4.315 -0.1934 -0.1114  1.1917
  862MOL0     H18932   7.577   0.648   4.318 -1.3025 -2.0934  1.0894
  862MOL0     H18933   7.553   0.723   4.157  2.5585 -0.1987  1.5399
  862MOL0     H18934   7.378   0.532   4.128 -2.5356 -2.6159  1.9056
  862MOL0     H18935   7.448   0.471   4.282  0.1843  2.0460  1.5263
  862MOL0     H18936   6.625   1.130   4.071 -1.3388  1.1418 -0.3052
  862MOL0     H18937   6.376   1.189   4.055  0.2014  0.0071 -0.9953
  862MOL0     H18938   5.973   1.248   4.329 -0.1829  0.2866 -0.1606
  862MOL0     H18939   5.753   1.323   4.306 -1.3818  0.5371 -0.3781
  862MOL0     H18940   3.875   0.682   3.523 -0.7343  0.7615  0.2838
  862MOL0     H18941   3.656   0.652   3.596 -0.0566 -2.0742 -3.3885
  862MOL0     H18942   3.340   1.058   3.800 -1.3568 -0.1406  0.3787
  862MOL0     H18943   3.120   1.108   3.864  0.1213 -0.1548  2.8260
  862MOL0     H18944   2.912   1.117   4.002  0.9962 -1.0331 -1.5480
  862MOL0     H18945   2.872   1.126   3.830 -0.8055  1.9511  1.4267
  862MOL0     H18946   2.708   0.971   4.032  0.9672  1.3258  0.9710
  862MOL0     H18947   2.664   1.009   3.867  0.1799  0.7425 -0.9705
  862MOL0     H18948   2.551   1.179   4.051  0.2835  1.4087  0.2518
  862MOL0     H18949   2.720   1.238   4.060  0.7239  0.8334 -0.8698
  862MOL0     H18950   2.704   1.296   3.807 -0.1075  0.3786 -1.8658
  862MOL0     H18951   2.592   1.371   3.913 -0.8596 -0.9480  1.5857
  862MOL0     H18952   2.341   1.201   3.639  0.0668 -1.5517  0.2814
  862MOL0     H18953   2.998   0.705   3.832  1.4469 -2.2536 -1.4857
  862MOL0     H18954   3.165   0.536   3.779 -0.8983  0.2683 -0.9503
  862MOL0     H18955   3.232   0.610   3.636 -1.1976  2.7431  0.0050
  862MOL0     H18956   3.338   0.587   3.782 -1.2937 -4.1731  1.1169
  863MOL0     O18957   6.324   4.738   4.314  0.4289 -0.2792 -0.0355
  863MOL0     C18958   6.382   4.630   4.301  0.9715  0.0892 -0.2489
  863MOL0     O18959   6.320   4.507   4.285 -0.3575 -0.1306  0.1611
  863MOL0     C18960   6.194   4.498   4.232 -0.0463 -0.1985  0.1531
  863MOL0     C18961   6.118   4.399   4.293  0.4693 -0.3974  1.0399
  863MOL0     C18962   5.978   4.382   4.252  0.0473  0.0765 -0.3393
  863MOL0     C18963   5.921   4.466   4.156  0.5150 -0.4806  0.4555
  863MOL0     O18964   5.786   4.460   4.110 -0.1552  0.6675  0.4125
  863MOL0     C18965   5.728   4.328   4.095 -0.4922 -0.1767 -0.9360
  863MOL0     C18966   5.606   4.320   3.999 -0.2341  0.9234  0.2661
  863MOL0     C18967   5.647   4.334   3.851  0.0609  0.5420 -0.0259
  863MOL0     C18968   5.516   4.360   3.766  0.4292 -0.2338 -0.5103
  863MOL0     C18969   5.552   4.394   3.622 -0.1824  0.2996  0.3076
  863MOL0     C18970   5.449   4.464   3.545  0.1393 -0.1709  0.0540
  863MOL0     C18971   5.459   4.436   3.396  0.3312  0.7080 -0.2794
  863MOL0     C18972   5.516   4.554   3.322  0.3601 -0.2650  0.4104
  863MOL0     N18973   5.429   4.654   3.263  0.5162 -0.5847 -0.1634
  863MOL0     C18974   5.296   4.672   3.310  0.2782 -0.0841  0.0872
  863MOL0     C18975   5.239   4.753   3.214  0.0076  0.4529  0.0679
  863MOL0     C18976   5.100   4.796   3.219 -0.0885 -0.2386  0.0030
  863MOL0     C18977   5.059   4.860   3.089  0.1736 -0.3579  0.8171
  863MOL0     C18978   5.046   4.759   2.977 -0.0615  1.1765  0.6290
  863MOL0     C18979   5.082   4.815   2.839  0.4332 -0.8943 -0.4196
  863MOL0     O18980   5.086   4.736   2.722  0.2232 -0.0268  0.4082
  863MOL0     C18981   5.193   4.646   2.704 -0.5433 -0.1500 -0.3045
  863MOL0     C18982   5.186   4.554   2.593 -0.3157  0.2665 -0.0601
  863MOL0     C18983   5.294   4.478   2.557 -0.1182  0.6212  0.3749
  863MOL0     C18984   5.282   4.403   2.426  0.0102 -0.6123  0.3224
  863MOL0     C18985   5.418   4.487   2.616 -0.5041 -0.1944 -0.2936
  863MOL0     C18986   5.540   4.404   2.587  0.4426 -0.2057 -0.7184
  863MOL0     O18987   5.662   4.440   2.641 -0.2183 -0.7511 -0.0108
  863MOL0     C18988   5.760   4.351   2.632  0.9180  0.3641  1.1242
  863MOL0     C18989   5.824   4.325   2.506 -0.2007 -0.2499 -0.2186
  863MOL0     C18990   5.940   4.246   2.497  0.9151 -0.1109 -0.3046
  863MOL0     C18991   5.989   4.185   2.613  0.1202 -0.6334 -0.5251
  863MOL0     O18992   6.101   4.102   2.608 -0.2496 -0.4233  0.1415
  863MOL0     C18993   6.160   4.069   2.481  0.6216  0.0271  0.8208
  863MOL0     C18994   6.289   3.983   2.514 -0.6026  0.4086  0.0053
  863MOL0     C18995   6.342   3.910   2.392 -0.1111  0.2584  0.2349
  863MOL0     C18996   6.433   4.005   2.303 -0.9020  0.0626 -0.2966
  863MOL0     C18997   6.583   3.980   2.337 -0.2211 -0.9852  1.0909
  863MOL0     C18998   6.693   4.064   2.265 -0.3858  0.7256 -0.4513
  863MOL0     C18999   6.705   4.051   2.117 -0.2129  0.8158  0.8850
  863MOL0     C19000   6.760   3.915   2.074 -0.2895  0.4332  0.5387
  863MOL0    Cl19001   6.928   3.901   2.154 -0.3705  0.4212 -0.2575
  863MOL0     C19002   5.932   4.216   2.738  0.1435  1.2179 -0.5991
  863MOL0     C19003   5.811   4.289   2.743  0.1544 -0.5947  0.8565
  863MOL0     O19004   5.529   4.307   2.516 -0.3060  0.4464 -0.6676
  863MOL0     C19005   5.423   4.577   2.732 -0.5213  0.4475  0.1463
  863MOL0     C19006   5.313   4.653   2.771  0.4265 -0.1804  0.5960
  863MOL0     N19007   5.342   4.795   3.130  0.0632 -0.0539 -0.4662
  863MOL0     N19008   5.451   4.729   3.152 -0.4253  0.0661 -1.1850
  863MOL0     C19009   6.002   4.570   4.096  0.3199  0.7409 -0.9911
  863MOL0     C19010   6.130   4.581   4.130 -0.3758  0.3363  0.0794
  863MOL0     C19011   6.525   4.622   4.321 -0.2101  0.9010  0.5334
  863MOL0     C19012   6.571   4.500   4.367  0.3809  0.6091  0.1212
  863MOL0     C19013   6.698   4.493   4.431 -0.7335  0.7913  0.3331
  863MOL0     C19014   6.790   4.600   4.414 -0.1110  1.1075 -1.0665
  863MOL0     O19015   6.912   4.584   4.478  0.4083 -0.1354  0.3701
  863MOL0     C19016   7.025   4.671   4.456  0.1275  1.2571  0.4107
  863MOL0     C19017   7.155   4.587   4.465  0.3294  0.5577  0.1889
  863MOL0     C19018   7.224   4.598   4.329  0.1462 -0.2869 -0.5359
  863MOL0     C19019   7.355   4.515   4.316 -0.6885 -0.4818 -0.3253
  863MOL0     C19020   7.444   4.558   4.426 -0.9604  0.9412  0.2222
  863MOL0     C19021   7.510   4.581   4.523 -0.9797 -0.3054 -0.3819
  863MOL0     C19022   6.754   4.719   4.347  0.2251  0.4320  0.2445
  863MOL0     C19023   6.618   4.724   4.309  0.3901 -0.7330  0.0351
  863MOL0     C19024   6.573   4.869   4.265  0.2351  0.1725  0.1593
  863MOL0     H19025   6.164   4.325   4.358 -0.4130 -2.0666 -0.1561
  863MOL0     H19026   5.923   4.300   4.296  1.2359 -0.4620  0.1870
  863MOL0     H19027   5.695   4.282   4.189 -0.3498  0.3087 -0.6459
  863MOL0     H19028   5.802   4.251   4.068 -1.7682 -1.6633 -0.3764
  863MOL0     H19029   5.560   4.221   4.004  3.1981 -1.0616 -2.5442
  863MOL0     H19030   5.540   4.403   4.022  1.5443  2.3519  0.3890
  863MOL0     H19031   5.721   4.415   3.850  0.9711 -0.2698  0.6031
  863MOL0     H19032   5.696   4.244   3.815 -2.5268 -1.0111  0.0920
  863MOL0     H19033   5.467   4.263   3.764 -0.5306  0.0756  2.4240
  863MOL0     H19034   5.441   4.433   3.801  0.5534 -1.5350  2.7927
  863MOL0     H19035   5.572   4.298   3.574  1.6808  1.3419 -1.1832
  863MOL0     H19036   5.644   4.453   3.609 -1.5941  2.1579 -2.4659
  863MOL0     H19037   5.349   4.424   3.566 -0.9236  2.4011  0.2886
  863MOL0     H19038   5.438   4.572   3.559 -3.1568 -0.4602  0.6595
  863MOL0     H19039   5.362   4.407   3.354 -0.0362 -2.0130  2.1621
  863MOL0     H19040   5.529   4.353   3.382 -0.4691  0.3252 -2.4032
  863MOL0     H19041   5.583   4.601   3.394  1.3870 -0.9254 -0.0939
  863MOL0     H19042   5.575   4.522   3.235  2.1068  1.0417  1.0702
  863MOL0     H19043   5.246   4.631   3.397 -1.0490  1.6420  0.2028
  863MOL0     H19044   5.089   4.864   3.304  0.5582  2.4090 -1.9063
  863MOL0     H19045   5.033   4.713   3.244 -1.3290  0.0881 -1.9945
  863MOL0     H19046   4.959   4.902   3.107 -0.3603 -0.7973 -0.8670
  863MOL0     H19047   5.132   4.936   3.060  1.2177 -1.1446  1.3236
  863MOL0     H19048   5.094   4.664   3.000 -1.5120  0.4672  0.8799
  863MOL0     H19049   4.940   4.731   2.969 -0.1964  1.9215 -0.4069
  863MOL0     H19050   5.011   4.897   2.826  3.3948  1.9420  0.0619
  863MOL0     H19051   5.173   4.875   2.846 -1.3056  1.8077  0.5345
  863MOL0     H19052   5.091   4.544   2.542  0.0645  0.4998 -0.8231
  863MOL0     H19053   5.352   4.434   2.348 -1.4341  1.3991 -0.2504
  863MOL0     H19054   5.192   4.431   2.370  2.1205  1.1328 -2.4935
  863MOL0     H19055   5.289   4.295   2.441 -0.2975 -0.9969 -1.9155
  863MOL0     H19056   5.783   4.372   2.417 -0.3006  1.5338  0.7225
  863MOL0     H19057   5.997   4.229   2.406  3.6686 -0.8101  1.4420
  863MOL0     H19058   6.087   4.016   2.420  0.2443  1.8929 -0.4514
  863MOL0     H19059   6.202   4.161   2.438  1.9817 -0.4287  1.1257
  863MOL0     H19060   6.378   4.038   2.545 -0.4243  0.3437 -0.3895
  863MOL0     H19061   6.265   3.902   2.583  1.9670 -1.3026 -0.9513
  863MOL0     H19062   6.260   3.891   2.322  0.8508  0.0275 -0.8591
  863MOL0     H19063   6.392   3.814   2.407  1.4508  0.4789 -2.8599
  863MOL0     H19064   6.413   4.113   2.310  1.5325  0.6439 -1.3413
  863MOL0     H19065   6.413   3.980   2.198 -2.3328 -1.3348  0.2685
  863MOL0     H19066   6.593   3.998   2.444  2.0033  1.9432  0.5133
  863MOL0     H19067   6.606   3.875   2.316  1.5434 -0.6542  1.2250
  863MOL0     H19068   6.789   4.046   2.315 -0.9696  0.0638  0.4651
  863MOL0     H19069   6.662   4.168   2.275 -1.7973  0.4027 -1.2828
  863MOL0     H19070   6.783   4.120   2.082 -0.3903  1.0103  0.8714
  863MOL0     H19071   6.616   4.090   2.067  0.5537  2.8280  0.9863
  863MOL0     H19072   6.768   3.910   1.965 -0.6002 -2.4026  0.5812
  863MOL0     H19073   6.704   3.827   2.107  1.6238 -0.2725  2.0498
  863MOL0     H19074   5.958   4.170   2.833 -1.0901  0.6644 -0.4984
  863MOL0     H19075   5.771   4.297   2.843  2.8712 -1.0317  2.0486
  863MOL0     H19076   5.509   4.596   2.795 -1.4587 -0.1865  1.6905
  863MOL0     H19077   5.333   4.727   2.848  0.3625  0.5327 -0.0547
  863MOL0     H19078   5.950   4.631   4.023 -1.3114  0.6275  0.0228
  863MOL0     H19079   6.195   4.651   4.079  0.6469  0.4677  1.4942
  863MOL0     H19080   6.506   4.415   4.383  1.1687  0.0092  0.1735
  863MOL0     H19081   6.738   4.405   4.479  2.7470  3.1805  2.3189
  863MOL0     H19082   7.025   4.719   4.358 -0.2062 -4.3993 -2.7849
  863MOL0     H19083   7.028   4.746   4.536  0.5961  3.8407 -1.8897
  863MOL0     H19084   7.137   4.482   4.485 -2.5148  1.2297  1.6752
  863MOL0     H19085   7.233   4.629   4.529  0.9834 -1.1641  0.5721
  863MOL0     H19086   7.161   4.573   4.243  0.0950  1.7404 -1.1369
  863MOL0     H19087   7.245   4.701   4.298 -1.1745  0.2502  0.2755
  863MOL0     H19088   7.405   4.537   4.221  0.4684  0.1262  0.4015
  863MOL0     H19089   7.319   4.412   4.328 -1.2018 -0.5502 -2.0649
  863MOL0     H19090   7.557   4.603   4.617  1.8683 -0.1357 -1.7330
  863MOL0     H19091   6.822   4.803   4.334 -1.9547  2.6637  2.3133
  863MOL0     H19092   6.661   4.930   4.241  0.8593 -0.1558  1.4794
  863MOL0     H19093   6.516   4.851   4.173 -0.0987 -3.1434  0.8764
  863MOL0     H19094   6.510   4.916   4.340  0.2978 -0.2564  0.4859
  864MOL0     O19095   6.270   6.599   3.079 -0.0209 -0.0450 -1.1794
  864MOL0     C19096   6.236   6.717   3.051  0.4002  0.5653  0.3407
  864MOL0     O19097   6.316   6.827   3.073  0.0851  0.2061  0.0302
  864MOL0     C19098   6.450   6.802   3.107  0.3578  0.4996  0.4005
  864MOL0     C19099   6.544   6.768   3.006 -0.2926  0.1568 -0.8587
  864MOL0     C19100   6.680   6.739   3.042 -0.2050  0.3733 -0.0533
  864MOL0     C19101   6.720   6.748   3.170  0.1413  1.3344 -0.7630
  864MOL0     O19102   6.844   6.728   3.228  0.0303  0.7195  0.8063
  864MOL0     C19103   6.945   6.654   3.158  0.0001 -0.2721  0.0264
  864MOL0     C19104   7.054   6.613   3.259 -0.4144 -0.3219  0.2698
  864MOL0     C19105   7.177   6.552   3.188  0.0283  0.8976  0.4103
  864MOL0     C19106   7.297   6.520   3.284  1.2286 -0.1313  0.0277
  864MOL0     C19107   7.415   6.477   3.204  0.0271 -0.0561 -0.1321
  864MOL0     C19108   7.546   6.478   3.286 -0.8016  0.0104  0.5476
  864MOL0     C19109   7.683   6.463   3.213  0.2394  0.5874  0.1803
  864MOL0     C19110   7.709   6.580   3.131  0.3252 -0.4066 -0.1714
  864MOL0     N19111   7.843   6.568   3.076 -0.2636 -0.1537 -0.1951
  864MOL0     C19112   7.958   6.593   3.143 -0.2264  0.1182  1.1308
  864MOL0     C19113   8.046   6.582   3.040  0.3450  0.2143 -0.2002
  864MOL0     C19114   8.196   6.604   3.046  0.1894  0.3304 -0.1511
  864MOL0     C19115   8.227   6.735   3.119 -0.6330  0.1014 -0.1436
  864MOL0     C19116   8.240   6.845   3.014 -0.6306  0.3334 -0.2703
  864MOL0     C19117   8.297   6.978   3.081  0.5023  0.3247  0.1064
  864MOL0     O19118   8.431   6.971   3.129  0.0465 -0.3292  0.1780
  864MOL0     C19119   8.503   7.081   3.177  0.7437  0.0378 -0.0066
  864MOL0     C19120   8.638   7.069   3.183  0.6240 -0.1785  0.9532
  864MOL0     C19121   8.727   7.162   3.233  0.4186  0.5963 -0.3885
  864MOL0     C19122   8.873   7.124   3.253  0.3961  0.4983  0.5196
  864MOL0     C19123   8.674   7.292   3.268  0.5422 -0.5660  0.5128
  864MOL0     C19124   8.757   7.400   3.318 -0.0904 -0.3874 -0.3127
  864MOL0     O19125   8.693   7.499   3.392 -0.3349 -0.0264 -0.7416
  864MOL0     C19126   8.767   7.611   3.437 -0.5708 -0.2469  0.6666
  864MOL0     C19127   8.676   7.702   3.498  0.4528 -0.2786  0.1616
  864MOL0     C19128   8.724   7.825   3.558 -0.1844  0.8766  0.4904
  864MOL0     C19129   8.865   7.844   3.560  0.0956  0.3934 -0.1784
  864MOL0     O19130   8.911   7.958   3.616 -0.0309  0.4400 -0.0151
  864MOL0     C19131   8.926   7.947   3.761 -0.6536 -0.8205 -0.0924
  864MOL0     C19132   9.045   7.874   3.800 -0.3167  0.4947  0.2148
  864MOL0     C19133   9.176   7.938   3.777 -1.0112 -0.4932 -0.4000
  864MOL0     C19134   9.204   8.063   3.864 -0.3261  0.7512  0.5766
  864MOL0     C19135   9.334   8.055   3.946  0.5551  0.2837  0.1769
  864MOL0     C19136   9.463   8.048   3.864 -0.0296  0.3950  0.7480
  864MOL0     C19137   9.586   8.034   3.954 -0.6113  1.1124  0.0935
  864MOL0     C19138   9.715   8.021   3.870 -0.5800 -0.2099 -0.3175
  864MOL0    Cl19139   9.858   7.970   3.961  0.1278  0.0522 -0.2923
  864MOL0     C19140   8.949   7.757   3.497 -0.6658 -0.7545  1.0352
  864MOL0     C19141   8.905   7.639   3.432  0.3134 -0.0851  0.0235
  864MOL0     O19142   8.870   7.403   3.285 -0.8489  0.3497 -0.1603
  864MOL0     C19143   8.536   7.314   3.254  0.2780  0.5786  0.4016
  864MOL0     C19144   8.450   7.204   3.212  0.1511 -0.7724  0.2796
  864MOL0     N19145   7.988   6.557   2.922  0.2999 -0.4521  0.0885
  864MOL0     N19146   7.862   6.535   2.948 -0.2288 -0.1202  0.0579
  864MOL0     C19147   6.630   6.810   3.266  0.6458  0.7469  0.2337
  864MOL0     C19148   6.497   6.826   3.235  0.4486 -0.5961  0.0063
  864MOL0     C19149   6.092   6.745   3.028 -0.7558  0.8783 -1.0142
  864MOL0     C19150   6.038   6.870   3.067 -0.2677 -0.1725 -0.0546
  864MOL0     C19151   5.901   6.901   3.051 -0.2262  0.7298  0.1632
  864MOL0     C19152   5.817   6.808   2.989  1.1490 -0.7581  0.2699
  864MOL0     O19153   5.684   6.855   2.981 -0.0214 -0.1140  0.7849
  864MOL0     C19154   5.575   6.760   2.975 -0.1265  1.0222  0.6552
  864MOL0     C19155   5.468   6.802   2.863  0.0111  0.1668 -0.0682
  864MOL0     C19156   5.541   6.806   2.722 -0.5971 -0.3611  0.6271
  864MOL0     C19157   5.436   6.864   2.627  0.5570 -0.4142  0.6014
  864MOL0     C19158   5.334   6.759   2.604 -0.7038  0.0785  1.2402
  864MOL0     C19159   5.254   6.667   2.579 -0.7302 -0.6077  0.4839
  864MOL0     C19160   5.870   6.677   2.956  0.0408 -0.4963 -0.5585
  864MOL0     C19161   6.003   6.644   2.978  0.9219  0.8963  0.1721
  864MOL0     C19162   6.041   6.501   2.929 -0.6314 -0.1426  0.4109
  864MOL0     H19163   6.501   6.751   2.908  0.5300 -0.7031 -1.0879
  864MOL0     H19164   6.746   6.685   2.974 -1.8581 -2.8513  0.6943
  864MOL0     H19165   6.988   6.720   3.082 -2.3512 -1.0524 -2.0955
  864MOL0     H19166   6.891   6.566   3.122 -0.0118 -0.2329 -0.0509
  864MOL0     H19167   7.081   6.699   3.321  0.2145  0.4027 -0.9750
  864MOL0     H19168   7.015   6.535   3.326  0.7645 -0.8117  0.4193
  864MOL0     H19169   7.139   6.460   3.142  3.1368  0.0045 -0.5956
  864MOL0     H19170   7.208   6.609   3.101 -0.9307  0.5393 -0.1827
  864MOL0     H19171   7.301   6.607   3.350 -0.7973 -1.3973  2.0082
  864MOL0     H19172   7.271   6.432   3.344 -0.6262 -0.0936 -0.6532
  864MOL0     H19173   7.430   6.541   3.117  0.0356  1.8614  1.2157
  864MOL0     H19174   7.404   6.375   3.165  1.0178 -0.6315  1.0057
  864MOL0     H19175   7.550   6.574   3.339  1.5942  1.3511 -1.8518
  864MOL0     H19176   7.536   6.397   3.359 -0.6511 -3.3589 -2.9191
  864MOL0     H19177   7.693   6.368   3.159 -0.1768  0.3954  0.4350
  864MOL0     H19178   7.761   6.464   3.289  0.1299  0.9470  0.2891
  864MOL0     H19179   7.647   6.599   3.043  0.3506  0.8262  0.0565
  864MOL0     H19180   7.703   6.676   3.183 -3.6272 -1.3932  1.5961
  864MOL0     H19181   7.962   6.626   3.246  2.1786 -1.1508  1.5030
  864MOL0     H19182   8.237   6.605   2.945 -1.0657  4.6633 -0.8158
  864MOL0     H19183   8.238   6.518   3.098  2.5277 -1.0698 -3.9334
  864MOL0     H19184   8.151   6.754   3.196 -0.7027  0.5125 -0.3115
  864MOL0     H19185   8.326   6.735   3.166 -0.2407  0.7732 -0.9514
  864MOL0     H19186   8.312   6.805   2.943  2.5430 -0.2111  2.9573
  864MOL0     H19187   8.148   6.859   2.956  0.6987 -1.4870 -3.0243
  864MOL0     H19188   8.281   7.062   3.013 -3.0908  0.3154  0.7267
  864MOL0     H19189   8.224   6.998   3.160  1.4012  0.3801  0.9418
  864MOL0     H19190   8.684   6.979   3.142 -1.4104 -0.1952 -1.5708
  864MOL0     H19191   8.891   7.155   3.356 -2.8939 -1.0108  1.6718
  864MOL0     H19192   8.934   7.180   3.181 -1.4389  0.7179 -0.9443
  864MOL0     H19193   8.894   7.017   3.252 -1.6376  0.0092  2.7307
  864MOL0     H19194   8.568   7.693   3.489  0.0734  1.1815  2.5215
  864MOL0     H19195   8.654   7.898   3.599 -1.3688  0.7955 -1.2925
  864MOL0     H19196   8.919   8.047   3.804  0.1499 -0.3490 -1.0231
  864MOL0     H19197   8.838   7.900   3.807  1.2515 -1.7929  2.8352
  864MOL0     H19198   9.046   7.861   3.909 -0.2035  1.5304  0.3524
  864MOL0     H19199   9.043   7.782   3.741  0.1248 -0.8104  2.1254
  864MOL0     H19200   9.199   7.957   3.671  0.8182  3.2029  0.4996
  864MOL0     H19201   9.256   7.864   3.790  1.9757  2.2175 -1.8543
  864MOL0     H19202   9.126   8.059   3.941 -0.5529 -0.9910  0.2885
  864MOL0     H19203   9.187   8.151   3.801 -2.1535 -1.6352 -2.5714
  864MOL0     H19204   9.349   8.144   4.008  3.0539 -1.3428  2.1192
  864MOL0     H19205   9.326   7.963   4.005 -4.9612 -0.2438 -0.8836
  864MOL0     H19206   9.476   8.135   3.799 -2.0473 -0.1802 -0.4967
  864MOL0     H19207   9.453   7.963   3.797 -1.1236  1.2315 -0.1906
  864MOL0     H19208   9.584   7.941   4.012 -0.2555 -0.4389 -2.2203
  864MOL0     H19209   9.599   8.127   4.010  0.1709  0.8971  0.2969
  864MOL0     H19210   9.731   8.120   3.828  0.4552 -0.0165  0.4965
  864MOL0     H19211   9.703   7.958   3.781  2.7194 -1.8514  0.2254
  864MOL0     H19212   9.051   7.791   3.499 -1.1164  1.5293 -3.2776
  864MOL0     H19213   8.973   7.576   3.376  2.6459  0.1927  2.3427
  864MOL0     H19214   8.498   7.413   3.275 -0.7293  0.1711  0.5675
  864MOL0     H19215   8.342   7.214   3.217  0.0475 -1.5653 -0.1355
  864MOL0     H19216   6.676   6.840   3.360  2.3467  1.2666 -0.7317
  864MOL0     H19217   6.436   6.873   3.311  0.4375 -0.4820 -0.0728
  864MOL0     H19218   6.105   6.952   3.089 -1.6976  0.9810  0.1585
  864MOL0     H19219   5.868   7.002   3.073  0.0732  1.4370 -2.3255
  864MOL0     H19220   5.598   6.654   2.961 -0.5868  0.5370  3.1662
  864MOL0     H19221   5.527   6.763   3.073  2.6537  2.5791  2.0857
  864MOL0     H19222   5.417   6.892   2.898  2.3095  1.7771 -0.6186
  864MOL0     H19223   5.383   6.733   2.857 -0.8650  1.0668  1.4950
  864MOL0     H19224   5.637   6.859   2.724 -1.1219  0.6286  0.3700
  864MOL0     H19225   5.565   6.705   2.687  0.9950  0.5362 -1.0473
  864MOL0     H19226   5.489   6.886   2.534 -0.6125 -2.9673 -0.7763
  864MOL0     H19227   5.399   6.958   2.669  2.3911  1.3967 -1.5151
  864MOL0     H19228   5.190   6.582   2.567 -0.4947 -0.7058 -0.1081
  864MOL0     H19229   5.802   6.612   2.902 -0.7485 -0.9120  0.8586
  864MOL0     H19230   5.974   6.444   2.863  0.8946 -1.6144  0.0708
  864MOL0     H19231   6.137   6.514   2.880 -0.2499 -1.3360  0.8101
  864MOL0     H19232   6.057   6.436   3.015 -0.7385 -1.6340 -0.6500
  865MOL0     O19233   3.858   7.208   8.561  0.1952  0.1095 -0.4538
  865MOL0     C19234   3.940   7.300   8.556  0.6576  0.6006 -0.7764
  865MOL0     O19235   4.067   7.283   8.593 -0.4931  1.0193 -0.3113
  865MOL0     C19236   4.117   7.163   8.655  0.6975  0.1804  0.2857
  865MOL0     C19237   4.106   7.039   8.592 -0.2554  0.2567  0.0903
  865MOL0     C19238   4.178   6.933   8.644  0.8208 -0.2021  0.5166
  865MOL0     C19239   4.254   6.943   8.759 -0.4062 -0.4294 -0.1941
  865MOL0     O19240   4.327   6.842   8.812  0.2848  0.5517 -0.2570
  865MOL0     C19241   4.337   6.723   8.735  0.0096  0.5523  1.2716
  865MOL0     C19242   4.445   6.631   8.803  0.3288 -0.2360 -0.6463
  865MOL0     C19243   4.461   6.490   8.747  0.3095  0.7344  0.9915
  865MOL0     C19244   4.473   6.381   8.849 -0.1459  0.1258 -0.1209
  865MOL0     C19245   4.583   6.409   8.953 -0.3959 -0.1034 -0.4026
  865MOL0     C19246   4.625   6.279   9.038  0.2184  0.2240 -0.0351
  865MOL0     C19247   4.522   6.220   9.143  0.6743  0.1461 -0.5424
  865MOL0     C19248   4.490   6.319   9.254 -0.7394 -0.2735 -0.2239
  865MOL0     N19249   4.617   6.339   9.323  0.0783 -0.1033  0.3190
  865MOL0     C19250   4.664   6.258   9.423  0.1404 -0.3296 -0.0085
  865MOL0     C19251   4.765   6.336   9.482  0.0798 -1.0787 -0.5589
  865MOL0     C19252   4.856   6.296   9.592 -0.2128 -0.3088  0.1165
  865MOL0     C19253   5.000   6.296   9.529  0.0242 -0.4181 -0.1668
  865MOL0     C19254   5.092   6.213   9.615  0.5738 -0.0766 -0.2783
  865MOL0     C19255   5.218   6.171   9.540 -0.1754  0.2393 -0.3307
  865MOL0     O19256   5.325   6.124   9.629 -0.4775 -0.4713  0.1520
  865MOL0     C19257   5.447   6.093   9.569  0.8411  0.4360  0.4758
  865MOL0     C19258   5.466   6.071   9.426  0.4353  0.2084  0.1007
  865MOL0     C19259   5.582   6.014   9.371 -1.3874 -0.4392  0.3232
  865MOL0     C19260   5.591   5.996   9.221 -0.0938  1.1502  0.2961
  865MOL0     C19261   5.691   5.988   9.452  0.9462 -0.0523  0.2567
  865MOL0     C19262   5.819   5.924   9.398  0.9465  0.1779  0.3976
  865MOL0     O19263   5.808   5.814   9.317 -0.1311 -0.2534  0.0781
  865MOL0     C19264   5.890   5.806   9.205  0.0561  0.8064 -0.5141
  865MOL0     C19265   5.959   5.909   9.133 -1.2706 -0.3322 -0.8937
  865MOL0     C19266   6.033   5.888   9.020 -0.8826  0.2269 -0.2483
  865MOL0     C19267   6.031   5.761   8.951 -0.3548 -0.5660 -0.6715
  865MOL0     O19268   6.085   5.739   8.823  0.5738  0.1794 -0.0315
  865MOL0     C19269   6.202   5.819   8.793  0.3977 -0.1421 -0.6663
  865MOL0     C19270   6.262   5.784   8.654  0.8222  1.1051 -0.0295
  865MOL0     C19271   6.399   5.835   8.628 -0.9355 -0.2812 -0.0517
  865MOL0     C19272   6.510   5.786   8.723  0.3822 -0.0747 -0.1715
  865MOL0     C19273   6.504   5.630   8.739 -0.2452  0.8875  0.5146
  865MOL0     C19274   6.638   5.582   8.790 -0.0403  0.3508  0.0760
  865MOL0     C19275   6.629   5.434   8.835  0.6837  0.8831  0.4768
  865MOL0     C19276   6.765   5.375   8.881 -0.2476  0.0197 -0.4842
  865MOL0    Cl19277   6.885   5.359   8.744  0.2373 -0.3242  0.1076
  865MOL0     C19278   5.952   5.659   9.007  0.1764 -0.0321 -0.2248
  865MOL0     C19279   5.891   5.679   9.132  0.0606 -0.1981 -0.4909
  865MOL0     O19280   5.918   5.984   9.437 -0.1603  0.4248  0.4997
  865MOL0     C19281   5.676   6.026   9.589  0.0153 -0.0329  0.7129
  865MOL0     C19282   5.561   6.076   9.650  0.0034  0.4543  0.2880
  865MOL0     N19283   4.778   6.448   9.420 -0.0207 -0.2334  0.2539
  865MOL0     N19284   4.684   6.452   9.325 -0.2000 -0.3501 -0.7518
  865MOL0     C19285   4.261   7.069   8.821  0.0765 -0.0374 -0.3372
  865MOL0     C19286   4.202   7.179   8.763  0.8629  0.2128 -0.8597
  865MOL0     C19287   3.905   7.428   8.497  0.3791  0.2159 -1.4837
  865MOL0     C19288   4.005   7.509   8.440  0.1105 -0.9929  1.3692
  865MOL0     C19289   3.987   7.644   8.394 -0.2252 -0.5334  1.1616
  865MOL0     C19290   3.862   7.699   8.393 -0.1640  0.1071  0.6350
  865MOL0     O19291   3.847   7.826   8.348 -0.5262 -0.0316 -0.3763
  865MOL0     C19292   3.931   7.894   8.248  0.1049 -0.2031  0.4917
  865MOL0     C19293   3.920   7.827   8.116  0.2662 -0.3298  0.3616
  865MOL0     C19294   3.993   7.907   7.998 -0.2688 -0.8016 -0.4712
  865MOL0     C19295   3.993   7.828   7.868  0.4978  0.1350 -0.0414
  865MOL0     C19296   3.864   7.767   7.831  0.6815 -0.5574 -0.6103
  865MOL0     C19297   3.772   7.705   7.784  0.3111 -0.9545  0.5488
  865MOL0     C19298   3.751   7.621   8.444 -0.9325  0.0087 -0.5567
  865MOL0     C19299   3.781   7.486   8.492  0.4444  0.9556  0.5620
  865MOL0     C19300   3.657   7.417   8.552  0.3950 -0.4060 -0.6942
  865MOL0     H19301   4.055   7.032   8.496 -0.5136  2.3007  0.0438
  865MOL0     H19302   4.187   6.840   8.588  0.6083 -1.2934  2.2216
  865MOL0     H19303   4.378   6.751   8.638 -4.0387 -0.0238 -0.8185
  865MOL0     H19304   4.241   6.673   8.723  0.0747  0.7729 -0.4025
  865MOL0     H19305   4.540   6.685   8.802 -0.8291  2.1233  1.9038
  865MOL0     H19306   4.425   6.635   8.911 -2.1223 -0.3025 -1.0240
  865MOL0     H19307   4.383   6.475   8.672 -1.0488  3.8618  1.6002
  865MOL0     H19308   4.553   6.472   8.691 -0.2787 -0.4342  0.3707
  865MOL0     H19309   4.379   6.377   8.904 -0.6017 -0.5572 -0.9415
  865MOL0     H19310   4.490   6.282   8.807  1.9017  0.8700 -1.2218
  865MOL0     H19311   4.551   6.475   9.034  1.7370 -2.5031  2.6348
  865MOL0     H19312   4.674   6.445   8.904 -1.2683  0.8354 -1.3812
  865MOL0     H19313   4.646   6.195   8.972 -1.3800 -0.0736 -0.2035
  865MOL0     H19314   4.723   6.308   9.075  1.5236  3.0133 -4.8562
  865MOL0     H19315   4.558   6.122   9.175  1.3048  1.2496  2.4802
  865MOL0     H19316   4.428   6.193   9.094 -0.2336  1.4500  0.4081
  865MOL0     H19317   4.446   6.413   9.219 -1.6296 -0.6794 -0.2233
  865MOL0     H19318   4.422   6.281   9.331 -1.7023  0.0552 -0.8848
  865MOL0     H19319   4.643   6.153   9.440  2.7019 -0.9849 -0.4737
  865MOL0     H19320   4.821   6.197   9.623  2.1431 -2.2469 -2.8310
  865MOL0     H19321   4.843   6.366   9.674  0.6023  0.9301 -0.7763
  865MOL0     H19322   4.999   6.266   9.424  2.1397  3.2513 -1.4190
  865MOL0     H19323   5.033   6.400   9.539  2.1258 -0.6937 -3.0262
  865MOL0     H19324   5.126   6.273   9.700  1.2133  0.2744 -0.7714
  865MOL0     H19325   5.045   6.121   9.651  1.1800 -0.6009 -0.7977
  865MOL0     H19326   5.199   6.079   9.484  4.6195 -1.5293  0.5113
  865MOL0     H19327   5.256   6.250   9.476  1.4114 -2.5927 -3.1764
  865MOL0     H19328   5.376   6.071   9.366  0.5118  0.7274 -0.0200
  865MOL0     H19329   5.538   6.077   9.169  2.0683  3.0588  0.8694
  865MOL0     H19330   5.558   5.897   9.188 -0.1787  0.4666  2.3337
  865MOL0     H19331   5.693   5.999   9.181  0.0722 -2.1279  0.2535
  865MOL0     H19332   5.944   6.011   9.166  0.0270 -0.4105  0.0030
  865MOL0     H19333   6.081   5.973   8.972 -1.1324 -0.0885 -1.0792
  865MOL0     H19334   6.187   5.927   8.805  1.1073 -0.0268 -0.7680
  865MOL0     H19335   6.275   5.794   8.870 -0.2888  2.5209  0.9938
  865MOL0     H19336   6.266   5.677   8.636  0.8439  1.3481 -1.5661
  865MOL0     H19337   6.197   5.817   8.572  0.4275 -2.0450 -1.1098
  865MOL0     H19338   6.405   5.944   8.631 -2.1462 -0.1449 -1.3487
  865MOL0     H19339   6.444   5.807   8.533  2.4392 -0.7561  1.5466
  865MOL0     H19340   6.487   5.828   8.822  1.0452 -0.3135  0.0874
  865MOL0     H19341   6.601   5.830   8.683 -0.5928  1.7018 -0.5487
  865MOL0     H19342   6.423   5.609   8.811 -1.9792  3.2684 -0.5860
  865MOL0     H19343   6.487   5.566   8.652  0.3267 -1.4000  1.9862
  865MOL0     H19344   6.682   5.627   8.879  1.9576 -0.7284 -0.2983
  865MOL0     H19345   6.707   5.591   8.705  2.5481 -0.7233  1.9188
  865MOL0     H19346   6.596   5.377   8.748  0.5102  1.1861  0.3408
  865MOL0     H19347   6.546   5.431   8.906 -0.4118 -1.2857 -0.7996
  865MOL0     H19348   6.743   5.277   8.924  2.9315 -2.3052 -3.6045
  865MOL0     H19349   6.797   5.433   8.968 -2.6541 -3.6692  3.2486
  865MOL0     H19350   5.935   5.565   8.957 -3.0341  0.3896 -0.1131
  865MOL0     H19351   5.850   5.585   9.164 -0.1199 -0.2653 -0.9106
  865MOL0     H19352   5.757   6.019   9.660  0.1870  0.5466  0.5788
  865MOL0     H19353   5.557   6.102   9.756  2.0206 -1.8414  1.0344
  865MOL0     H19354   4.324   7.095   8.905  1.0877  3.7225 -2.0529
  865MOL0     H19355   4.223   7.280   8.798  1.6086 -0.7705  1.7463
  865MOL0     H19356   4.108   7.477   8.433  1.0545  2.0252 -0.9597
  865MOL0     H19357   4.071   7.691   8.344 -1.5090 -0.6373 -1.2349
  865MOL0     H19358   3.897   7.997   8.234 -0.4522 -0.6450 -1.7270
  865MOL0     H19359   4.034   7.903   8.283  0.2612  1.2319 -0.2660
  865MOL0     H19360   3.817   7.821   8.080  0.8903 -1.9431 -1.3253
  865MOL0     H19361   3.964   7.727   8.121 -0.5500 -0.6824  0.5959
  865MOL0     H19362   3.942   8.003   7.988 -0.4798 -0.9404 -0.7245
  865MOL0     H19363   4.098   7.919   8.026 -0.6886 -2.8590  2.4766
  865MOL0     H19364   4.068   7.749   7.870 -0.2448 -0.5918 -0.0856
  865MOL0     H19365   4.025   7.899   7.791  2.4062  0.2579  0.8303
  865MOL0     H19366   3.681   7.681   7.732 -0.5589  2.0301  0.5213
  865MOL0     H19367   3.653   7.669   8.444 -0.1420  1.7849 -2.3097
  865MOL0     H19368   3.672   7.378   8.653 -2.9419  1.3776  0.6563
  865MOL0     H19369   3.571   7.484   8.555  0.3917 -0.2462 -2.8092
  865MOL0     H19370   3.640   7.333   8.484 -1.7842 -1.0547  0.5807
  866MOL0     O19371   0.609   6.259   1.364 -0.5840 -0.4823 -0.3870
  866MOL0     C19372   0.681   6.355   1.397 -1.0739  0.4075 -0.0264
  866MOL0     O19373   0.822   6.358   1.392 -0.0886  0.6256 -0.5071
  866MOL0     C19374   0.895   6.251   1.360  0.1953  0.5127  0.4524
  866MOL0     C19375   0.874   6.192   1.235  0.3910  0.0579 -0.3791
  866MOL0     C19376   0.955   6.090   1.195 -0.2152  0.6098  0.5218
  866MOL0     C19377   1.052   6.038   1.278 -0.3140  0.6291  0.7132
  866MOL0     O19378   1.112   5.914   1.259 -0.3091  1.1151 -0.3618
  866MOL0     C19379   1.121   5.852   1.138 -0.4609 -0.4030  0.6998
  866MOL0     C19380   1.218   5.731   1.142  0.1891  0.4443 -0.3156
  866MOL0     C19381   1.364   5.783   1.128 -0.2804  0.4293 -0.4658
  866MOL0     C19382   1.461   5.674   1.072 -0.8503 -0.9127 -0.1299
  866MOL0     C19383   1.487   5.565   1.179 -0.0956 -0.5719 -0.5161
  866MOL0     C19384   1.551   5.443   1.129  0.9719  0.4144  0.0382
  866MOL0     C19385   1.593   5.348   1.234 -0.6113 -0.0853 -0.0182
  866MOL0     C19386   1.700   5.394   1.340 -0.4003  0.1902  0.0196
  866MOL0     N19387   1.738   5.295   1.436  0.3232  0.1578 -0.1658
  866MOL0     C19388   1.661   5.245   1.539  0.5485 -0.2607  0.4840
  866MOL0     C19389   1.742   5.202   1.630  0.8495  0.4747  0.1739
  866MOL0     C19390   1.680   5.133   1.747  0.2071 -0.2087  0.0874
  866MOL0     C19391   1.626   5.243   1.846  0.2872 -0.4309  0.2444
  866MOL0     C19392   1.737   5.330   1.917  1.2350  0.0742 -0.7044
  866MOL0     C19393   1.824   5.248   2.010  0.4448  0.0688 -0.0180
  866MOL0     O19394   1.902   5.341   2.086 -0.1755 -0.4764 -0.0644
  866MOL0     C19395   2.034   5.308   2.105 -0.1277 -0.2857 -0.3741
  866MOL0     C19396   2.073   5.259   2.225 -0.0252 -0.1984  0.3760
  866MOL0     C19397   2.203   5.216   2.256 -0.0016  0.7438 -0.4815
  866MOL0     C19398   2.229   5.185   2.403  0.2597 -0.3780 -1.1727
  866MOL0     C19399   2.297   5.202   2.151  0.5791 -0.8867  0.4072
  866MOL0     C19400   2.433   5.159   2.184 -0.5438  0.1089  0.5738
  866MOL0     O19401   2.466   5.051   2.266 -0.5650 -0.5093  0.1542
  866MOL0     C19402   2.595   5.032   2.311  0.3328 -0.2049  0.3610
  866MOL0     C19403   2.663   5.131   2.383  0.2088 -0.3939  0.3409
  866MOL0     C19404   2.792   5.114   2.423 -0.7525 -0.0086  1.1175
  866MOL0     C19405   2.853   4.988   2.395  0.0230  0.2723  0.2295
  866MOL0     O19406   2.990   4.976   2.423  0.4443 -0.3782  0.2653
  866MOL0     C19407   3.088   5.044   2.339  0.2940  0.2981  0.2055
  866MOL0     C19408   3.222   5.028   2.400 -0.1326 -0.4592  0.6346
  866MOL0     C19409   3.324   5.115   2.320 -0.1124  0.0799  0.3922
  866MOL0     C19410   3.462   5.083   2.365  0.6243  0.2126 -0.0767
  866MOL0     C19411   3.572   5.137   2.270  0.2623  0.3117 -0.4738
  866MOL0     C19412   3.712   5.104   2.312 -0.0427  0.7013 -0.0499
  866MOL0     C19413   3.811   5.174   2.223  0.7430  0.9965  0.6042
  866MOL0     C19414   3.942   5.211   2.297 -0.4950  0.3119  1.0785
  866MOL0    Cl19415   4.086   5.267   2.178 -0.2417  0.1522 -0.2477
  866MOL0     C19416   2.781   4.887   2.330  0.2812  0.1129 -0.2065
  866MOL0     C19417   2.654   4.909   2.284  0.5361  0.2477  0.4433
  866MOL0     O19418   2.517   5.216   2.106 -0.3331  0.1259 -0.0172
  866MOL0     C19419   2.258   5.259   2.027  0.0502 -0.1699  0.0463
  866MOL0     C19420   2.134   5.304   2.004  0.6445 -0.5643 -1.0607
  866MOL0     N19421   1.869   5.205   1.576 -0.3175  0.3192  0.5377
  866MOL0     N19422   1.866   5.260   1.455  0.8640 -0.1347  0.0364
  866MOL0     C19423   1.066   6.089   1.407 -0.1087  0.1427  0.0035
  866MOL0     C19424   0.990   6.197   1.447  0.0679  0.6170 -0.3565
  866MOL0     C19425   0.605   6.477   1.441 -0.0569 -0.7698  0.0737
  866MOL0     C19426   0.685   6.570   1.508  0.6528  0.1691  0.0519
  866MOL0     C19427   0.631   6.693   1.558 -0.5185 -0.3602 -0.7647
  866MOL0     C19428   0.495   6.712   1.548 -0.1584 -0.1967 -0.0817
  866MOL0     O19429   0.452   6.829   1.610  0.0086  0.7369 -0.5375
  866MOL0     C19430   0.311   6.862   1.590 -0.6928 -0.0786 -0.1875
  866MOL0     C19431   0.260   6.979   1.675 -0.2001 -0.0747 -0.2129
  866MOL0     C19432   0.256   6.940   1.825 -0.1943  0.7767 -1.1316
  866MOL0     C19433   0.386   6.974   1.899  0.1167  0.7312 -0.4417
  866MOL0     C19434   0.373   7.085   1.992  0.1395  0.4230  0.0873
  866MOL0     C19435   0.348   7.182   2.058 -0.5219  0.4519 -0.2941
  866MOL0     C19436   0.414   6.619   1.478 -1.2669  0.4579 -0.1471
  866MOL0     C19437   0.468   6.505   1.431 -0.3194  0.0729 -1.0465
  866MOL0     C19438   0.368   6.394   1.394  0.4786 -0.2667  0.1225
  866MOL0     H19439   0.789   6.220   1.173 -0.5770 -1.1295  0.3593
  866MOL0     H19440   0.942   6.045   1.097 -0.0726  0.1566  0.7072
  866MOL0     H19441   1.162   5.921   1.064 -0.4414 -0.3633  0.7475
  866MOL0     H19442   1.028   5.809   1.100 -0.5899 -0.9496  1.5929
  866MOL0     H19443   1.198   5.673   1.233  0.7521  1.3957  0.4247
  866MOL0     H19444   1.188   5.666   1.059 -0.6088 -1.1166  1.1347
  866MOL0     H19445   1.377   5.871   1.063  0.1166  0.2596 -0.6180
  866MOL0     H19446   1.387   5.809   1.232 -2.5475 -1.3205  0.5453
  866MOL0     H19447   1.411   5.623   0.989 -0.4761 -1.6764  0.1017
  866MOL0     H19448   1.557   5.720   1.045 -1.0211 -0.3171  0.2583
  866MOL0     H19449   1.387   5.544   1.218  0.6999 -0.0663  2.0095
  866MOL0     H19450   1.550   5.613   1.255 -0.6410 -0.8268  0.1058
  866MOL0     H19451   1.480   5.389   1.066  0.8002 -0.8292  1.2669
  866MOL0     H19452   1.643   5.470   1.076  0.8077 -0.6062 -0.7945
  866MOL0     H19453   1.625   5.265   1.170  1.7058  0.7097  0.0224
  866MOL0     H19454   1.510   5.322   1.300 -0.0720 -0.0169  0.7084
  866MOL0     H19455   1.777   5.427   1.270 -1.2818 -1.4309 -1.8065
  866MOL0     H19456   1.665   5.478   1.401 -2.0586  1.0833 -2.0052
  866MOL0     H19457   1.555   5.265   1.544  1.2260  3.8667  2.4488
  866MOL0     H19458   1.762   5.076   1.793 -1.9908 -1.1856  3.1464
  866MOL0     H19459   1.600   5.062   1.724  0.7786 -0.2428 -1.9699
  866MOL0     H19460   1.562   5.306   1.784 -0.2038 -0.8541  0.3202
  866MOL0     H19461   1.560   5.193   1.918  1.2481 -0.8898  0.8330
  866MOL0     H19462   1.798   5.395   1.854  1.5738  1.4609  0.9689
  866MOL0     H19463   1.683   5.397   1.985  2.5757 -0.0513  0.5426
  866MOL0     H19464   1.774   5.177   2.077  0.5771  2.2803  2.6092
  866MOL0     H19465   1.896   5.182   1.961  0.8422  0.1628  0.4308
  866MOL0     H19466   1.996   5.254   2.301  2.0154 -0.3605  2.5483
  866MOL0     H19467   2.324   5.229   2.432  0.4673 -3.0285  3.0067
  866MOL0     H19468   2.229   5.079   2.428 -2.6617 -0.4696 -1.1680
  866MOL0     H19469   2.153   5.239   2.462 -0.1262 -0.4755 -1.5720
  866MOL0     H19470   2.614   5.226   2.398  0.3109  0.0610 -1.9140
  866MOL0     H19471   2.829   5.202   2.475  2.5452  0.7128 -1.9847
  866MOL0     H19472   3.084   4.999   2.240  2.2624  0.6127 -0.0669
  866MOL0     H19473   3.075   5.152   2.332 -3.9665 -0.1383 -1.1129
  866MOL0     H19474   3.224   5.053   2.507  0.8116  0.2338  0.4720
  866MOL0     H19475   3.255   4.924   2.394 -0.7834 -0.7137  1.2732
  866MOL0     H19476   3.318   5.223   2.341  2.8584  0.2323  0.9205
  866MOL0     H19477   3.319   5.094   2.213 -1.1619 -1.6215  0.7523
  866MOL0     H19478   3.478   4.976   2.380  2.5300  0.7040  2.0346
  866MOL0     H19479   3.493   5.128   2.460  1.7989  0.0570 -0.3729
  866MOL0     H19480   3.560   5.087   2.174  0.8191 -2.9718  1.0102
  866MOL0     H19481   3.567   5.246   2.268 -0.4538  0.4613  2.7711
  866MOL0     H19482   3.717   4.995   2.313 -5.1126  0.2338 -0.0596
  866MOL0     H19483   3.732   5.135   2.416 -0.2760  0.4538  0.0705
  866MOL0     H19484   3.768   5.268   2.187 -2.6798 -0.5931  0.1079
  866MOL0     H19485   3.824   5.109   2.137 -1.1616  1.7934 -0.3557
  866MOL0     H19486   3.963   5.126   2.361  0.7763 -1.4200 -1.4641
  866MOL0     H19487   3.921   5.298   2.360 -1.7651  1.3989 -0.7518
  866MOL0     H19488   2.830   4.791   2.317  2.4908  1.4646 -2.8530
  866MOL0     H19489   2.604   4.831   2.228 -0.7495  0.3378  1.4096
  866MOL0     H19490   2.326   5.263   1.943 -1.4267 -0.5751 -1.2266
  866MOL0     H19491   2.102   5.343   1.907  0.2599 -0.9484 -1.0911
  866MOL0     H19492   1.142   6.056   1.478 -0.3738 -2.2106 -0.7073
  866MOL0     H19493   1.010   6.249   1.540 -2.7467 -0.4419  0.9579
  866MOL0     H19494   0.794   6.565   1.512  0.7035 -0.2078 -1.4293
  866MOL0     H19495   0.700   6.770   1.592 -0.7631  0.3045 -1.7184
  866MOL0     H19496   0.292   6.889   1.486  0.9766  1.4596 -0.1367
  866MOL0     H19497   0.249   6.773   1.607  0.5352 -1.3982 -2.2002
  866MOL0     H19498   0.158   7.011   1.651 -1.2535 -2.3000  1.0533
  866MOL0     H19499   0.324   7.067   1.667 -0.1783 -0.0879 -0.1792
  866MOL0     H19500   0.167   6.991   1.862 -0.2381  0.2283 -0.4737
  866MOL0     H19501   0.246   6.831   1.834  0.2639  0.8915  1.4097
  866MOL0     H19502   0.461   6.996   1.823  2.7475 -4.0072  0.4303
  866MOL0     H19503   0.433   6.895   1.959  0.0621 -0.2083 -1.6191
  866MOL0     H19504   0.309   7.255   2.125 -1.7597 -2.8175  2.8414
  866MOL0     H19505   0.310   6.643   1.461 -1.5488 -1.6327 -1.9189
  866MOL0     H19506   0.393   6.300   1.444  2.5716  0.1667 -0.0123
  866MOL0     H19507   0.262   6.422   1.402  0.0168 -1.7647 -0.4564
  866MOL0     H19508   0.384   6.379   1.287  0.4789 -1.7547  0.3060
  867MOL0     O19509   8.961  10.049   5.409  0.1763 -0.5636 -0.4491
  867MOL0     C19510   8.940   9.960   5.493  0.8021 -0.1316  0.6038
  867MOL0     O19511   8.849   9.966   5.599  1.0037 -0.4864  0.3339
  867MOL0     C19512   8.765  10.072   5.613 -0.6980  0.1456  0.4692
  867MOL0     C19513   8.633  10.030   5.650  0.5424 -0.8612 -0.2904
  867MOL0     C19514   8.529  10.127   5.659 -0.6337 -0.9674 -0.5415
  867MOL0     C19515   8.551  10.263   5.629 -0.2912  0.8261 -0.0456
  867MOL0     O19516   8.464  10.363   5.649  0.2680  0.8059  0.1369
  867MOL0     C19517   8.371  10.359   5.761 -0.3459 -0.6397  0.7656
  867MOL0     C19518   8.261  10.460   5.729  0.2728 -0.5158 -0.2921
  867MOL0     C19519   8.153  10.398   5.634  0.0988  0.0199 -0.7054
  867MOL0     C19520   8.061  10.299   5.688 -0.5149  0.1334  0.0649
  867MOL0     C19521   8.008  10.221   5.566  0.3787 -0.2693  0.4510
  867MOL0     C19522   7.926  10.308   5.459 -0.4924 -0.1633 -0.1784
  867MOL0     C19523   7.815  10.208   5.403 -0.3921 -0.7404  0.0651
  867MOL0     C19524   7.881  10.114   5.303  0.1193 -1.0284 -0.2046
  867MOL0     N19525   7.906   9.978   5.353  0.2485 -0.6595  0.3184
  867MOL0     C19526   7.816   9.885   5.386 -0.1390 -0.1909 -0.3833
  867MOL0     C19527   7.880   9.781   5.447 -1.0379 -1.1687 -0.0743
  867MOL0     C19528   7.804   9.666   5.512 -0.4740  0.4554  0.1809
  867MOL0     C19529   7.820   9.534   5.433  1.2583  0.0962  0.4345
  867MOL0     C19530   7.949   9.511   5.360  0.5186  0.0182 -0.1996
  867MOL0     C19531   7.980   9.368   5.294 -0.7486  0.4959  0.4139
  867MOL0     O19532   7.983   9.259   5.396 -0.0160 -0.5471 -0.6262
  867MOL0     C19533   8.103   9.195   5.394  0.0559 -1.0869 -0.1787
  867MOL0     C19534   8.210   9.275   5.429 -0.1821  0.0607 -0.3902
  867MOL0     C19535   8.338   9.213   5.442 -0.2049  0.4509 -0.8708
  867MOL0     C19536   8.455   9.301   5.481 -0.1478  0.4834 -1.0875
  867MOL0     C19537   8.350   9.076   5.419 -0.3187  0.6112 -0.2456
  867MOL0     C19538   8.479   9.002   5.435 -1.0906 -0.0935 -0.0933
  867MOL0     O19539   8.491   8.876   5.382  0.4845  0.1556  0.5695
  867MOL0     C19540   8.598   8.785   5.404  0.8541 -0.5354 -0.2693
  867MOL0     C19541   8.640   8.708   5.303 -0.4374  0.5067  0.3599
  867MOL0     C19542   8.743   8.612   5.317 -0.4255 -0.0502  0.2919
  867MOL0     C19543   8.809   8.598   5.440 -0.2734  1.1073  0.3929
  867MOL0     O19544   8.906   8.511   5.445 -0.4428  0.2505  0.2302
  867MOL0     C19545   9.021   8.560   5.520  0.1005  0.1296 -0.0919
  867MOL0     C19546   9.134   8.455   5.508  0.9656  0.1548  0.4601
  867MOL0     C19547   9.237   8.473   5.623  0.0301  0.8846 -0.1191
  867MOL0     C19548   9.340   8.359   5.610 -0.4691 -0.5526 -0.1719
  867MOL0     C19549   9.409   8.332   5.737  0.2409 -0.2660  0.1519
  867MOL0     C19550   9.473   8.453   5.802 -0.1293  0.2716 -0.5776
  867MOL0     C19551   9.590   8.403   5.892 -0.2018  0.2011  0.1979
  867MOL0     C19552   9.651   8.491   5.997 -0.4563 -0.8998 -0.3955
  867MOL0    Cl19553   9.538   8.474   6.131 -0.3942 -0.0663  0.0033
  867MOL0     C19554   8.772   8.689   5.540 -0.0717 -0.1164 -0.0736
  867MOL0     C19555   8.666   8.775   5.530 -0.3599 -0.1922  0.7120
  867MOL0     O19556   8.558   9.050   5.511 -0.3419  0.1615 -0.8443
  867MOL0     C19557   8.252   9.006   5.376  0.4202  0.5182 -0.6071
  867MOL0     C19558   8.118   9.062   5.380  0.3734 -0.1413 -0.6183
  867MOL0     N19559   8.016   9.803   5.430  0.2729 -0.4054  0.2365
  867MOL0     N19560   8.031   9.924   5.377  0.3720  0.1549 -0.9503
  867MOL0     C19561   8.683  10.297   5.590  0.4401 -0.3269 -0.2751
  867MOL0     C19562   8.794  10.204   5.577 -0.1189  0.4434 -0.0658
  867MOL0     C19563   9.046   9.847   5.508  0.0499  0.1145 -0.7582
  867MOL0     C19564   9.153   9.845   5.421 -0.0053  0.5899 -0.2746
  867MOL0     C19565   9.255   9.748   5.428 -0.2062  0.4969 -0.4263
  867MOL0     C19566   9.247   9.640   5.521  0.7374 -0.5729 -0.0909
  867MOL0     O19567   9.328   9.529   5.531 -0.3969 -0.3503 -0.5990
  867MOL0     C19568   9.462   9.550   5.497 -0.7093 -1.0677  0.7347
  867MOL0     C19569   9.490   9.472   5.365 -0.8032 -0.1172 -0.2828
  867MOL0     C19570   9.422   9.540   5.243 -0.7966 -0.2734 -0.3715
  867MOL0     C19571   9.438   9.461   5.111 -0.6975 -0.2559  0.9144
  867MOL0     C19572   9.364   9.335   5.128  0.6677 -0.6009 -0.2788
  867MOL0     C19573   9.311   9.225   5.130 -0.2162  0.9760 -1.0632
  867MOL0     C19574   9.143   9.646   5.612 -0.0506  0.2723 -0.6923
  867MOL0     C19575   9.044   9.748   5.614 -0.0796 -0.3921  0.1913
  867MOL0     C19576   8.948   9.736   5.731  0.4092  0.0235  0.5629
  867MOL0     H19577   8.627   9.925   5.678  0.8120 -1.2319 -1.5636
  867MOL0     H19578   8.429  10.091   5.682 -0.2917 -2.4678 -1.2307
  867MOL0     H19579   8.436  10.385   5.846 -0.6235  0.1753  0.7332
  867MOL0     H19580   8.322  10.265   5.786 -0.1084 -0.6380  1.2492
  867MOL0     H19581   8.220  10.506   5.820 -1.3257 -1.7633 -0.3235
  867MOL0     H19582   8.306  10.546   5.679 -2.4367  1.9430  1.1456
  867MOL0     H19583   8.094  10.478   5.589 -0.8676 -0.1853  0.1785
  867MOL0     H19584   8.214  10.345   5.560  0.1361  1.5007 -1.7904
  867MOL0     H19585   8.112  10.230   5.756  2.5168  1.7388 -0.4149
  867MOL0     H19586   7.974  10.347   5.734  0.3458  2.4955 -0.6257
  867MOL0     H19587   7.942  10.147   5.612  2.2430 -1.9059  0.6374
  867MOL0     H19588   8.088  10.161   5.522  1.2230  1.1836 -0.0457
  867MOL0     H19589   7.867  10.389   5.505  0.1502  2.5074 -3.6249
  867MOL0     H19590   7.994  10.348   5.384 -0.8370 -2.4702 -1.8086
  867MOL0     H19591   7.737  10.265   5.352  1.8070  1.1757 -1.3657
  867MOL0     H19592   7.767  10.155   5.486  2.8752 -1.3412  1.7708
  867MOL0     H19593   7.832  10.112   5.205  0.2160 -0.3958 -0.2666
  867MOL0     H19594   7.975  10.159   5.271 -0.6861  0.7088 -0.2484
  867MOL0     H19595   7.708   9.892   5.380 -0.2816 -2.5397 -1.9042
  867MOL0     H19596   7.701   9.692   5.536 -0.1742  1.9855 -0.1158
  867MOL0     H19597   7.852   9.647   5.609 -4.2804 -0.7638  2.0199
  867MOL0     H19598   7.811   9.447   5.499 -1.1580  1.5981  2.2637
  867MOL0     H19599   7.735   9.530   5.365 -0.4193 -0.1967  2.4311
  867MOL0     H19600   7.957   9.589   5.283  1.5557  2.1961  1.9588
  867MOL0     H19601   8.018   9.529   5.443 -4.1458 -1.0310  4.4152
  867MOL0     H19602   7.905   9.337   5.221 -0.2831  0.6246 -0.1287
  867MOL0     H19603   8.081   9.382   5.253  1.2609 -0.8147  4.3576
  867MOL0     H19604   8.200   9.383   5.435  2.1403  0.2830  0.4941
  867MOL0     H19605   8.475   9.289   5.588 -3.8116 -1.1821 -0.4401
  867MOL0     H19606   8.432   9.407   5.463  1.2591  0.5951 -2.4649
  867MOL0     H19607   8.548   9.277   5.429  1.0429 -2.9579  2.1890
  867MOL0     H19608   8.597   8.726   5.205  1.7992  1.7877 -0.4456
  867MOL0     H19609   8.768   8.550   5.231 -0.4395 -0.6476  0.7145
  867MOL0     H19610   9.045   8.653   5.468 -0.6262 -1.0136 -2.6524
  867MOL0     H19611   8.988   8.575   5.623 -0.4157 -2.8971  0.2793
  867MOL0     H19612   9.087   8.357   5.517  1.9012 -0.3181  0.3125
  867MOL0     H19613   9.172   8.466   5.406 -1.8598 -1.6091 -0.8828
  867MOL0     H19614   9.186   8.475   5.720 -1.6650 -1.7940 -0.8274
  867MOL0     H19615   9.293   8.567   5.614 -1.0697  1.7336  1.3303
  867MOL0     H19616   9.405   8.375   5.523 -4.4771 -0.3849 -3.4698
  867MOL0     H19617   9.298   8.261   5.586  1.7436 -1.4843 -0.5554
  867MOL0     H19618   9.341   8.277   5.802  2.1988 -4.0967 -0.7770
  867MOL0     H19619   9.480   8.251   5.718  3.0177  2.4959 -2.6278
  867MOL0     H19620   9.405   8.507   5.867  1.9274  1.3141  0.8300
  867MOL0     H19621   9.514   8.529   5.734 -1.4551  1.4266 -0.1438
  867MOL0     H19622   9.671   8.388   5.820 -2.8961  1.0310 -3.2885
  867MOL0     H19623   9.571   8.300   5.926  0.2843 -0.2149 -0.7344
  867MOL0     H19624   9.673   8.594   5.968  2.4147 -1.3064  0.0401
  867MOL0     H19625   9.747   8.451   6.028 -0.6660 -0.6057  0.6768
  867MOL0     H19626   8.826   8.692   5.634 -0.1596 -0.4153 -0.0148
  867MOL0     H19627   8.624   8.830   5.613 -0.4405 -1.1681  1.3402
  867MOL0     H19628   8.250   8.897   5.366 -0.1176  0.4756 -0.0701
  867MOL0     H19629   8.037   8.990   5.371  0.9476 -0.9261  0.3709
  867MOL0     H19630   8.704  10.402   5.573  1.5303 -0.5515 -0.4330
  867MOL0     H19631   8.888  10.234   5.532  0.3542 -2.0495 -0.9050
  867MOL0     H19632   9.169   9.920   5.345  0.8252  1.2849  0.5735
  867MOL0     H19633   9.335   9.759   5.356  0.8090  1.8052  0.8403
  867MOL0     H19634   9.486   9.657   5.491 -1.5908 -0.9518 -1.9986
  867MOL0     H19635   9.520   9.507   5.579  1.1314 -0.4525 -0.2048
  867MOL0     H19636   9.443   9.376   5.387 -1.8220  0.5263  0.4212
  867MOL0     H19637   9.595   9.458   5.337 -0.8659  2.8458 -2.4882
  867MOL0     H19638   9.314   9.542   5.261 -0.6838 -0.6873  0.3967
  867MOL0     H19639   9.458   9.641   5.223 -0.2035 -0.1377  1.2629
  867MOL0     H19640   9.545   9.441   5.098 -0.5046  0.0350  1.9674
  867MOL0     H19641   9.393   9.512   5.025  0.6521 -0.0790  0.2974
  867MOL0     H19642   9.252   9.135   5.138  1.4458 -0.3199 -2.6010
  867MOL0     H19643   9.132   9.567   5.686 -1.3305 -0.3628 -1.5259
  867MOL0     H19644   8.937   9.634   5.768  0.6548 -1.0341 -2.0120
  867MOL0     H19645   8.978   9.805   5.810  2.2604  0.6011 -0.5594
  867MOL0     H19646   8.846   9.761   5.701  0.2315  1.3282  2.1264
  868MOL0     O19647   4.938   1.736   9.624  0.5856  0.1977 -0.3848
  868MOL0     C19648   4.989   1.760   9.731 -0.4465  0.2954 -0.8601
  868MOL0     O19649   5.124   1.792   9.749  1.0707  0.4593 -0.3741
  868MOL0     C19650   5.215   1.733   9.664  0.2808  0.8312  0.8060
  868MOL0     C19651   5.196   1.610   9.601  0.0840  0.7422 -0.5576
  868MOL0     C19652   5.301   1.547   9.530  0.0665  0.2776  0.2397
  868MOL0     C19653   5.423   1.604   9.508 -1.2568 -0.4600 -0.2725
  868MOL0     O19654   5.514   1.543   9.427  0.8966  0.0457  0.4069
  868MOL0     C19655   5.613   1.628   9.372  0.5311  0.4086  0.1112
  868MOL0     C19656   5.718   1.550   9.291  0.8584 -0.8522  1.2363
  868MOL0     C19657   5.791   1.431   9.357  0.7243  0.6634 -0.1110
  868MOL0     C19658   5.943   1.434   9.351  0.8207  1.4312 -0.3798
  868MOL0     C19659   6.010   1.299   9.392 -0.6784  0.5037  0.4769
  868MOL0     C19660   6.159   1.309   9.369 -0.8672  0.9003  0.4757
  868MOL0     C19661   6.226   1.164   9.382  0.4564 -0.6771  0.6192
  868MOL0     C19662   6.195   1.095   9.247  0.5034  0.9408  0.2184
  868MOL0     N19663   6.292   0.989   9.240 -0.5428  0.8983  0.8034
  868MOL0     C19664   6.411   0.993   9.164  0.2073  0.1250 -0.3233
  868MOL0     C19665   6.461   0.872   9.167  0.3756 -0.4182 -0.2579
  868MOL0     C19666   6.600   0.828   9.136  0.5143  0.8742 -0.3621
  868MOL0     C19667   6.700   0.901   9.224  0.2854  0.9749  0.4137
  868MOL0     C19668   6.706   0.863   9.379  0.4609  0.4155 -0.8228
  868MOL0     C19669   6.830   0.929   9.444  0.2575 -0.1848 -0.3610
  868MOL0     O19670   6.840   0.886   9.587 -0.1934  0.0845  0.5290
  868MOL0     C19671   6.956   0.893   9.657  0.1358 -0.3670  0.3584
  868MOL0     C19672   7.084   0.917   9.601  0.5597 -0.1307 -0.0700
  868MOL0     C19673   7.203   0.899   9.683 -0.1477 -0.3082  0.7082
  868MOL0     C19674   7.325   0.925   9.606 -0.3731  0.7522  0.0487
  868MOL0     C19675   7.180   0.883   9.819 -0.5114  0.2616 -0.3928
  868MOL0     C19676   7.289   0.892   9.917 -0.4820  0.9075 -0.2147
  868MOL0     O19677   7.271   0.993  10.009  0.1604 -0.5097  0.5498
  868MOL0     C19678   7.312   0.973  10.136  0.0738  0.0413  0.0474
  868MOL0     C19679   7.228   0.911  10.237  0.6161 -0.0719  0.4377
  868MOL0     C19680   7.280   0.903  10.370 -0.9666 -0.1744  0.6910
  868MOL0     C19681   7.400   0.951  10.410 -1.3895 -0.0272  0.7733
  868MOL0     O19682   7.465   0.943  10.536 -0.1248 -0.0617 -0.6386
  868MOL0     C19683   7.434   0.833  10.619  0.3082 -0.3456 -0.2328
  868MOL0     C19684   7.489   0.703  10.559  0.1259 -0.4752  0.4939
  868MOL0     C19685   7.429   0.572  10.612  0.1074  0.7372 -0.1352
  868MOL0     C19686   7.455   0.563  10.766 -0.0110 -0.3457  0.6025
  868MOL0     C19687   7.436   0.426  10.834 -0.0191  0.1516 -0.0241
  868MOL0     C19688   7.466   0.444  10.984 -0.0900 -0.3085  1.1103
  868MOL0     C19689   7.464   0.306  11.054 -0.2641 -0.1506  0.4547
  868MOL0     C19690   7.472   0.318  11.206 -0.0790  0.0702 -0.4400
  868MOL0    Cl19691   7.634   0.404  11.238  0.0674  0.0544  0.2070
  868MOL0     C19692   7.480   1.019  10.311 -0.4252 -0.4513 -0.3259
  868MOL0     C19693   7.437   1.025  10.174  0.6053  0.2323 -0.2420
  868MOL0     O19694   7.366   0.798   9.928  0.2036  0.3222 -0.1162
  868MOL0     C19695   7.052   0.880   9.874 -0.4864  0.5506  0.5292
  868MOL0     C19696   6.945   0.884   9.787  0.0771 -0.6590  0.1387
  868MOL0     N19697   6.365   0.789   9.223 -0.2072  0.5100 -0.7944
  868MOL0     N19698   6.273   0.861   9.276  1.0794 -0.6460 -0.2919
  868MOL0     C19699   5.449   1.719   9.577  0.2431 -0.3472 -0.1713
  868MOL0     C19700   5.354   1.782   9.655  0.2840  0.0630 -0.2802
  868MOL0     C19701   4.902   1.763   9.850 -0.5434 -0.5546  0.1575
  868MOL0     C19702   4.768   1.814   9.833  0.0386  0.2959 -0.8441
  868MOL0     C19703   4.682   1.815   9.943  0.0027  0.1792  0.5814
  868MOL0     C19704   4.726   1.762  10.072 -0.1829 -0.0053 -0.2482
  868MOL0     O19705   4.653   1.759  10.186 -0.7099  0.2236  0.3599
  868MOL0     C19706   4.527   1.815  10.177 -0.1479  0.6152  0.9367
  868MOL0     C19707   4.478   1.842  10.311  0.0428  0.5417  0.0718
  868MOL0     C19708   4.456   1.711  10.385  0.1249 -0.1909 -0.5319
  868MOL0     C19709   4.395   1.735  10.533  0.0446 -0.1870  0.0863
  868MOL0     C19710   4.405   1.609  10.604  0.8797  0.4215 -0.5654
  868MOL0     C19711   4.415   1.511  10.674 -0.1985 -0.6272 -0.6301
  868MOL0     C19712   4.855   1.712  10.088 -0.2402 -0.5458  0.1943
  868MOL0     C19713   4.943   1.721   9.980  0.8990 -1.0092 -1.0364
  868MOL0     C19714   5.075   1.652  10.007  0.7105  0.2160  0.3848
  868MOL0     H19715   5.103   1.555   9.611  0.9938 -0.7245  0.1636
  868MOL0     H19716   5.284   1.455   9.475 -0.3703  1.5801 -1.9328
  868MOL0     H19717   5.665   1.672   9.457  1.5401  2.8248 -1.6679
  868MOL0     H19718   5.567   1.707   9.312  1.5712  0.4397 -0.6627
  868MOL0     H19719   5.653   1.510   9.212  0.1095 -2.5938  2.6591
  868MOL0     H19720   5.791   1.622   9.252  1.6196 -1.9270  0.6275
  868MOL0     H19721   5.762   1.435   9.463 -0.8012 -0.2549 -0.4603
  868MOL0     H19722   5.756   1.341   9.307 -0.1546  0.7358  0.3552
  868MOL0     H19723   5.976   1.456   9.249 -2.1581  0.6984 -1.6135
  868MOL0     H19724   5.984   1.509   9.419  0.7290 -0.5322  1.9774
  868MOL0     H19725   5.961   1.215   9.342  1.6408 -1.5969  1.5447
  868MOL0     H19726   5.992   1.288   9.499 -0.3246 -0.0721  0.4843
  868MOL0     H19727   6.184   1.355   9.273  2.2264 -0.6192  0.4363
  868MOL0     H19728   6.201   1.369   9.450  0.4762  2.7527 -1.5107
  868MOL0     H19729   6.173   1.111   9.462 -1.5234  0.1059 -0.1110
  868MOL0     H19730   6.333   1.168   9.401  0.6218  1.1503 -0.4838
  868MOL0     H19731   6.096   1.048   9.251  1.8342 -2.0880  0.1029
  868MOL0     H19732   6.214   1.161   9.162  2.5450 -1.9271 -1.6926
  868MOL0     H19733   6.468   1.082   9.136  0.5141 -0.2259 -0.8333
  868MOL0     H19734   6.641   0.847   9.036  2.8872 -1.6133  0.0343
  868MOL0     H19735   6.606   0.720   9.153  0.0267  1.0402  0.9683
  868MOL0     H19736   6.801   0.876   9.189  0.8513  0.7790  2.1074
  868MOL0     H19737   6.691   1.010   9.218 -0.2586  0.9310  0.4288
  868MOL0     H19738   6.615   0.902   9.425 -0.1349 -1.4744 -0.3399
  868MOL0     H19739   6.721   0.755   9.387  1.1045  0.3949 -2.0535
  868MOL0     H19740   6.914   0.886   9.390 -0.1486 -0.9158 -0.4342
  868MOL0     H19741   6.838   1.038   9.436  0.5933  0.0396  2.1274
  868MOL0     H19742   7.104   0.934   9.496 -0.7725 -2.6855 -0.8418
  868MOL0     H19743   7.410   0.884   9.661 -0.5934 -0.4666 -0.4863
  868MOL0     H19744   7.336   1.034   9.604 -0.5109  0.7630 -1.1115
  868MOL0     H19745   7.325   0.883   9.505  2.5215  0.4041  0.1129
  868MOL0     H19746   7.128   0.871  10.223  0.5551  0.3241 -0.3383
  868MOL0     H19747   7.220   0.841  10.436  1.0875 -2.3596  0.6613
  868MOL0     H19748   7.489   0.846  10.713 -1.0988  1.5002  0.3859
  868MOL0     H19749   7.326   0.833  10.632  0.1381 -0.1982 -1.5594
  868MOL0     H19750   7.467   0.701  10.452 -1.8285 -1.7255  0.8566
  868MOL0     H19751   7.598   0.706  10.563  0.1400 -1.1600  0.8074
  868MOL0     H19752   7.467   0.479  10.568  0.8739  0.3289  1.3309
  868MOL0     H19753   7.323   0.574  10.586  0.6653 -0.3186 -2.8021
  868MOL0     H19754   7.377   0.625  10.811  0.1057 -0.9246  1.6315
  868MOL0     H19755   7.553   0.609  10.785  0.1299 -0.8748  1.1885
  868MOL0     H19756   7.335   0.385  10.827 -0.0769 -0.6100  3.4253
  868MOL0     H19757   7.501   0.349  10.790  0.9706 -2.9627  5.8074
  868MOL0     H19758   7.396   0.508  11.038 -0.6322 -0.2313  0.3287
  868MOL0     H19759   7.570   0.477  10.992  1.0533 -3.3290  0.2054
  868MOL0     H19760   7.548   0.250  11.011 -1.9863 -2.6225  0.0863
  868MOL0     H19761   7.378   0.242  11.031  0.4108 -2.5547  3.9011
  868MOL0     H19762   7.459   0.219  11.251  1.0349 -0.0488 -0.3494
  868MOL0     H19763   7.391   0.375  11.252 -1.5840 -4.2127  2.8733
  868MOL0     H19764   7.579   1.055  10.336 -0.2381  1.0002 -2.8259
  868MOL0     H19765   7.504   1.080  10.109  1.2520  2.3040  2.0033
  868MOL0     H19766   7.032   0.880   9.981 -0.4456  1.5579  0.5456
  868MOL0     H19767   6.841   0.892   9.818 -0.3573 -1.6598 -0.9696
  868MOL0     H19768   5.537   1.781   9.567 -0.5415  1.5787  3.1819
  868MOL0     H19769   5.364   1.881   9.698 -0.4277  0.3002 -0.6522
  868MOL0     H19770   4.721   1.845   9.740 -1.6840  0.0907 -0.0686
  868MOL0     H19771   4.579   1.844   9.924  0.5964  0.4039 -2.9225
  868MOL0     H19772   4.547   1.910  10.127 -0.3137  0.5586  0.7631
  868MOL0     H19773   4.452   1.768  10.113  0.2556  1.9675 -0.5983
  868MOL0     H19774   4.385   1.900  10.315 -0.9739 -1.0818  1.5150
  868MOL0     H19775   4.552   1.903  10.364 -1.9882  2.3713  0.9520
  868MOL0     H19776   4.382   1.649  10.335 -0.4108 -0.8114  0.9584
  868MOL0     H19777   4.541   1.644  10.393  1.3758  1.5155  1.6479
  868MOL0     H19778   4.289   1.760  10.523 -0.3758 -0.4740  3.0449
  868MOL0     H19779   4.443   1.814  10.592 -0.4075  1.2256 -1.3549
  868MOL0     H19780   4.436   1.428  10.739 -0.9885 -0.5316 -0.2292
  868MOL0     H19781   4.879   1.666  10.184  3.6388  0.5554 -0.0640
  868MOL0     H19782   5.129   1.730  10.062  0.2855  2.2652 -1.9119
  868MOL0     H19783   5.067   1.567  10.075  0.6085 -0.3045 -0.2728
  868MOL0     H19784   5.126   1.630   9.913  0.0624  0.2228  0.0250
  869MOL0     O19785   2.826   7.902   7.045 -0.3323 -0.1760 -0.0577
  869MOL0     C19786   2.745   7.997   7.048 -0.0858  0.0704 -0.4046
  869MOL0     O19787   2.756   8.111   7.126  0.6517  0.5451  0.0278
  869MOL0     C19788   2.863   8.122   7.212  0.1324  0.1298 -0.5187
  869MOL0     C19789   2.989   8.141   7.161  0.1442 -0.2233  0.0041
  869MOL0     C19790   3.098   8.148   7.252 -0.2686 -0.4947  0.0529
  869MOL0     C19791   3.075   8.157   7.391 -0.1640 -1.0836  0.1494
  869MOL0     O19792   3.178   8.163   7.474 -0.6943  0.6439  0.4192
  869MOL0     C19793   3.179   8.243   7.592  0.5577 -0.0606  1.2270
  869MOL0     C19794   3.321   8.263   7.615 -0.8307 -0.4100  0.1077
  869MOL0     C19795   3.395   8.336   7.494  0.5888  0.2130  0.4049
  869MOL0     C19796   3.531   8.379   7.548  0.2548 -0.6587  0.2271
  869MOL0     C19797   3.617   8.436   7.432  0.3199 -0.4059  0.5407
  869MOL0     C19798   3.734   8.520   7.481 -0.2674  0.2516  0.5656
  869MOL0     C19799   3.840   8.428   7.546 -0.2652 -0.4684 -0.2935
  869MOL0     C19800   3.960   8.506   7.602  0.2925  0.3125  0.6953
  869MOL0     N19801   4.006   8.612   7.515  0.5649 -0.4243 -0.6067
  869MOL0     C19802   3.968   8.748   7.522  0.0563  1.1678 -0.0634
  869MOL0     C19803   4.070   8.827   7.479  0.3113  0.1763  0.9751
  869MOL0     C19804   4.072   8.976   7.488 -0.5536 -0.0103 -0.0038
  869MOL0     C19805   4.010   9.017   7.624 -0.5940 -0.3800  0.8593
  869MOL0     C19806   4.040   9.175   7.657  0.2658 -0.2109  0.1240
  869MOL0     C19807   3.948   9.210   7.779 -0.2755 -1.5769 -1.0078
  869MOL0     O19808   3.998   9.145   7.899  0.8418 -0.0424 -0.1368
  869MOL0     C19809   4.092   9.207   7.972  0.3066  0.4346 -0.3634
  869MOL0     C19810   4.167   9.322   7.946  0.3301  0.0083  0.2008
  869MOL0     C19811   4.272   9.362   8.021  0.3111  0.0288  0.0493
  869MOL0     C19812   4.363   9.466   7.966 -0.6926 -0.3429  0.1340
  869MOL0     C19813   4.283   9.312   8.153  0.1935  0.4391 -0.6918
  869MOL0     C19814   4.371   9.365   8.255  0.5824  0.0551 -0.0516
  869MOL0     O19815   4.374   9.294   8.380  0.2208 -0.0484  0.1695
  869MOL0     C19816   4.455   9.327   8.481 -0.4517  0.5145 -0.3527
  869MOL0     C19817   4.414   9.276   8.610 -0.0902 -0.3867  0.0131
  869MOL0     C19818   4.489   9.300   8.724  0.2214  0.4837  0.0555
  869MOL0     C19819   4.606   9.374   8.715  0.5193  0.8512 -0.3421
  869MOL0     O19820   4.652   9.413   8.840  0.4407  0.3781  0.1573
  869MOL0     C19821   4.773   9.487   8.846 -0.1535  0.5918 -1.4904
  869MOL0     C19822   4.816   9.519   8.993  0.3887 -0.5693 -0.2272
  869MOL0     C19823   4.848   9.398   9.083  0.4028  0.2759 -0.0268
  869MOL0     C19824   4.995   9.396   9.114 -0.2316  0.1963  0.4556
  869MOL0     C19825   5.036   9.292   9.230 -0.2615 -0.2519  0.5917
  869MOL0     C19826   5.187   9.304   9.257  0.2330  0.6801 -1.0244
  869MOL0     C19827   5.227   9.189   9.349 -0.1098  0.0522 -0.4719
  869MOL0     C19828   5.366   9.223   9.406 -0.2406 -0.1984 -0.3209
  869MOL0    Cl19829   5.444   9.102   9.527 -0.2304 -0.3631 -0.1273
  869MOL0     C19830   4.648   9.420   8.593 -0.4145  1.1210  0.7873
  869MOL0     C19831   4.576   9.398   8.475  0.2653  0.1744 -0.4693
  869MOL0     O19832   4.438   9.468   8.230  0.7878 -0.4523  0.3558
  869MOL0     C19833   4.200   9.201   8.185 -0.4627  0.0393  0.3667
  869MOL0     C19834   4.113   9.142   8.093  0.6945  0.2517  0.3836
  869MOL0     N19835   4.175   8.738   7.446 -0.0296  0.3405 -0.0256
  869MOL0     N19836   4.128   8.612   7.456 -1.3205 -1.1799  0.3094
  869MOL0     C19837   2.942   8.151   7.438  0.9106  0.2297 -0.7165
  869MOL0     C19838   2.835   8.125   7.348  0.3541 -0.5693 -0.4649
  869MOL0     C19839   2.625   8.000   6.955  0.0283  0.8489 -0.2890
  869MOL0     C19840   2.546   8.116   6.951 -1.4112  0.1187 -0.0611
  869MOL0     C19841   2.430   8.129   6.881  0.6829 -0.6360 -1.1033
  869MOL0     C19842   2.394   8.031   6.792 -0.8675  0.3770 -0.6568
  869MOL0     O19843   2.280   8.036   6.719 -0.2887 -0.0364  0.7052
  869MOL0     C19844   2.213   8.158   6.693  0.4032  0.2427  0.1139
  869MOL0     C19845   2.259   8.233   6.569 -0.5067  0.1581  0.0516
  869MOL0     C19846   2.386   8.319   6.606 -0.1446  0.0843 -0.2470
  869MOL0     C19847   2.421   8.426   6.503  0.0340  0.4756  0.6735
  869MOL0     C19848   2.521   8.526   6.546 -0.3954  0.3428 -0.1070
  869MOL0     C19849   2.595   8.609   6.605 -0.0054 -1.3603 -0.0089
  869MOL0     C19850   2.473   7.914   6.783 -0.3357 -0.1360 -0.1978
  869MOL0     C19851   2.584   7.897   6.866 -0.3492 -0.0126  0.1714
  869MOL0     C19852   2.652   7.754   6.858 -0.3202  0.4281  0.4421
  869MOL0     H19853   2.999   8.134   7.053 -1.9499  0.3320 -0.2746
  869MOL0     H19854   3.198   8.163   7.213  0.0556  1.9096  1.5847
  869MOL0     H19855   3.117   8.184   7.661 -3.5793  2.6755  0.2527
  869MOL0     H19856   3.116   8.331   7.572 -1.4885 -1.9149 -1.1077
  869MOL0     H19857   3.329   8.326   7.704  1.0418 -1.1824  0.5480
  869MOL0     H19858   3.377   8.170   7.633  2.3651  1.5890  1.3087
  869MOL0     H19859   3.413   8.264   7.414  1.1001  2.1724 -1.3368
  869MOL0     H19860   3.342   8.425   7.458 -1.7919 -1.3397 -0.1880
  869MOL0     H19861   3.511   8.460   7.619 -1.5391 -3.4792  3.2273
  869MOL0     H19862   3.586   8.307   7.609  2.4619  1.8597  1.4166
  869MOL0     H19863   3.556   8.498   7.365 -0.1560  1.0875  2.2667
  869MOL0     H19864   3.645   8.353   7.367 -0.9979  0.5927 -1.4199
  869MOL0     H19865   3.780   8.566   7.393  0.4404 -0.9621  0.2719
  869MOL0     H19866   3.699   8.598   7.549  1.7437  1.2256  0.5615
  869MOL0     H19867   3.867   8.360   7.465  0.8642  0.8780 -1.0927
  869MOL0     H19868   3.795   8.368   7.626 -1.3154  0.0711 -0.4561
  869MOL0     H19869   3.925   8.546   7.697 -0.4281 -0.9137  0.9625
  869MOL0     H19870   4.040   8.431   7.605  0.1273  0.0122 -1.1631
  869MOL0     H19871   3.875   8.782   7.566 -0.8259 -2.8704  1.6396
  869MOL0     H19872   4.012   9.010   7.403 -2.2128 -2.3414  0.1410
  869MOL0     H19873   4.176   9.004   7.475 -0.5291 -1.0680 -2.5114
  869MOL0     H19874   3.903   8.995   7.627 -0.4305 -1.4233 -0.2109
  869MOL0     H19875   4.054   8.965   7.709  0.2510 -0.0429  0.6367
  869MOL0     H19876   4.145   9.177   7.688  0.0000  3.3228  1.1363
  869MOL0     H19877   4.019   9.247   7.577  0.9965 -1.2660 -1.0673
  869MOL0     H19878   3.962   9.318   7.779  1.4575 -1.7562 -0.4008
  869MOL0     H19879   3.843   9.189   7.761 -1.0481 -1.0500  2.3423
  869MOL0     H19880   4.163   9.356   7.843  2.7752  0.8976  0.3356
  869MOL0     H19881   4.357   9.474   7.857 -1.3623  0.2746  0.2108
  869MOL0     H19882   4.466   9.442   7.993 -0.1585  1.3772 -0.2516
  869MOL0     H19883   4.342   9.566   8.005  0.4071  0.1313 -0.4326
  869MOL0     H19884   4.320   9.226   8.625  0.9879 -1.9055  2.2770
  869MOL0     H19885   4.454   9.254   8.816 -0.3753 -1.2980 -1.0028
  869MOL0     H19886   4.855   9.429   8.802  0.8422  0.1652  0.7769
  869MOL0     H19887   4.773   9.584   8.796 -0.5317  0.9179 -0.8693
  869MOL0     H19888   4.902   9.586   8.984 -1.8292  2.3302 -1.4768
  869MOL0     H19889   4.747   9.583   9.049  2.6841  0.6179  1.4103
  869MOL0     H19890   4.812   9.304   9.041 -2.8803  1.0999  0.6612
  869MOL0     H19891   4.784   9.400   9.172 -0.2185 -3.3595 -0.2741
  869MOL0     H19892   5.035   9.490   9.152 -0.2563  1.3471 -2.2163
  869MOL0     H19893   5.047   9.360   9.024 -1.4711 -1.5919  0.3914
  869MOL0     H19894   4.979   9.311   9.321  0.2071 -0.6749  0.9733
  869MOL0     H19895   5.010   9.188   9.208 -1.6742 -0.1426  1.5895
  869MOL0     H19896   5.195   9.394   9.318  3.4248 -3.1097  5.3052
  869MOL0     H19897   5.244   9.312   9.164 -2.8321  0.6299 -3.0428
  869MOL0     H19898   5.238   9.091   9.302 -2.3742 -2.4456  3.5603
  869MOL0     H19899   5.152   9.181   9.429 -1.3747 -0.0726 -1.6505
  869MOL0     H19900   5.349   9.319   9.454  1.7518  0.3733 -0.6536
  869MOL0     H19901   5.439   9.237   9.326 -1.0742  1.6070 -0.8120
  869MOL0     H19902   4.736   9.482   8.587 -0.1880  0.7103 -0.4594
  869MOL0     H19903   4.608   9.444   8.383  2.0406 -0.9138 -0.4404
  869MOL0     H19904   4.203   9.149   8.280 -0.4076 -3.2988 -1.3221
  869MOL0     H19905   4.055   9.053   8.115  1.3524 -1.1354 -2.9084
  869MOL0     H19906   2.910   8.161   7.541  2.1133  2.4256 -0.5015
  869MOL0     H19907   2.730   8.119   7.375  0.2020 -1.7645 -1.2860
  869MOL0     H19908   2.566   8.192   7.026  1.1822 -1.5522  1.0689
  869MOL0     H19909   2.369   8.217   6.898 -0.6755 -1.4369 -1.6618
  869MOL0     H19910   2.108   8.129   6.696  0.8607 -1.5216  0.2601
  869MOL0     H19911   2.214   8.223   6.782 -3.0137  1.2348 -0.4410
  869MOL0     H19912   2.176   8.299   6.545  0.0189  1.6769  2.1020
  869MOL0     H19913   2.283   8.165   6.487  3.6783  1.3821  0.0019
  869MOL0     H19914   2.380   8.367   6.703 -1.0525  1.5193 -0.9848
  869MOL0     H19915   2.467   8.246   6.617 -1.2412 -1.5023 -2.0514
  869MOL0     H19916   2.331   8.481   6.473  1.2636 -0.0659 -5.1773
  869MOL0     H19917   2.457   8.385   6.408  1.8501  0.0913  1.4927
  869MOL0     H19918   2.658   8.687   6.642 -0.7118  0.1457 -1.8235
  869MOL0     H19919   2.445   7.837   6.712 -3.0432 -0.2265  0.8449
  869MOL0     H19920   2.667   7.721   6.961 -0.3937  0.1896  0.3762
  869MOL0     H19921   2.588   7.683   6.805  2.5321 -0.9726 -1.3582
  869MOL0     H19922   2.745   7.765   6.802 -0.5666 -0.4362 -0.1545
  870MOL0     O19923  10.584   5.778   9.947  0.2389 -0.8986  0.1480
  870MOL0     C19924  10.630   5.788   9.831 -0.1864  0.4786  0.3703
  870MOL0     O19925  10.762   5.792   9.803 -0.2970 -1.0632  0.1237
  870MOL0     C19926  10.849   5.766   9.909 -0.0224 -0.9269  0.4239
  870MOL0     C19927  10.857   5.636   9.960 -0.2407  0.0833 -0.6032
  870MOL0     C19928  10.932   5.612  10.078 -0.1340 -0.7215  0.2008
  870MOL0     C19929  10.994   5.718  10.142 -0.3598  0.4196  0.4628
  870MOL0     O19930  11.056   5.700  10.268 -0.0908  0.3444 -0.2542
  870MOL0     C19931  11.175   5.769  10.305 -1.1759 -0.3968  0.6769
  870MOL0     C19932  11.235   5.712  10.423  0.1686  1.3956  0.3181
  870MOL0     C19933  11.237   5.551  10.414 -0.2017  0.1685 -0.6007
  870MOL0     C19934  11.356   5.508  10.324  0.3787 -0.4081  0.1554
  870MOL0     C19935  11.385   5.361  10.333  0.1386 -0.8017  0.4014
  870MOL0     C19936  11.513   5.332  10.250 -0.6986 -0.0074 -0.5644
  870MOL0     C19937  11.571   5.193  10.275 -0.1047  0.4301 -0.6518
  870MOL0     C19938  11.705   5.185  10.329  0.1177  0.0401  0.5730
  870MOL0     N19939  11.748   5.048  10.310 -0.7011  1.1584 -0.1857
  870MOL0     C19940  11.805   4.971  10.410 -0.4420 -0.3858  0.4421
  870MOL0     C19941  11.900   4.901  10.338 -0.1407 -0.5500  0.1145
  870MOL0     C19942  12.011   4.813  10.387 -0.0438 -0.1810  0.0796
  870MOL0     C19943  12.143   4.842  10.311  0.5206  0.1315  0.1896
  870MOL0     C19944  12.156   4.754  10.183  0.3149  0.2321 -0.1900
  870MOL0     C19945  12.286   4.781  10.107  0.8463  0.5628  0.2829
  870MOL0     O19946  12.297   4.695   9.988  0.1613  0.0295  0.4359
  870MOL0     C19947  12.419   4.682   9.922  0.1324 -0.8403  0.0870
  870MOL0     C19948  12.430   4.573   9.835  0.6357 -0.4144  0.5897
  870MOL0     C19949  12.550   4.540   9.770  0.2466 -0.0155 -0.2696
  870MOL0     C19950  12.572   4.407   9.689 -0.3965 -0.1631  0.1666
  870MOL0     C19951  12.657   4.631   9.780  1.6014  0.4634  0.0283
  870MOL0     C19952  12.786   4.613   9.728 -0.0479 -1.1174  0.5413
  870MOL0     O19953  12.893   4.645   9.809  0.2015 -0.7948 -0.8966
  870MOL0     C19954  13.019   4.637   9.767 -0.5196 -0.3677  0.0901
  870MOL0     C19955  13.063   4.696   9.646  0.5496  0.1336 -0.0561
  870MOL0     C19956  13.186   4.671   9.585 -0.0076 -0.5765  0.0665
  870MOL0     C19957  13.282   4.598   9.660  0.4215 -0.2800  0.5230
  870MOL0     O19958  13.407   4.590   9.599  0.8886  0.3272 -0.4098
  870MOL0     C19959  13.504   4.499   9.648  0.9380 -0.3844 -0.7276
  870MOL0     C19960  13.628   4.529   9.559  0.3018 -0.2588 -0.2119
  870MOL0     C19961  13.727   4.417   9.583  1.1315 -0.2388  0.8875
  870MOL0     C19962  13.858   4.445   9.513 -0.4799 -0.2347 -0.9365
  870MOL0     C19963  13.977   4.349   9.559 -0.2643 -0.2389  0.6985
  870MOL0     C19964  14.095   4.388   9.476  0.5372  1.6360  0.6526
  870MOL0     C19965  14.224   4.315   9.514  0.3340 -0.4045 -0.4006
  870MOL0     C19966  14.239   4.174   9.445 -0.2876 -0.8809 -0.3904
  870MOL0    Cl19967  14.402   4.097   9.474 -0.0628 -0.0270  0.3264
  870MOL0     C19968  13.244   4.537   9.784 -0.6857 -0.2832  0.2945
  870MOL0     C19969  13.117   4.555   9.828 -0.0972  0.0855 -0.4451
  870MOL0     O19970  12.793   4.574   9.615 -0.0799  0.1836 -0.1557
  870MOL0     C19971  12.647   4.747   9.860 -0.3486  0.6140  0.0465
  870MOL0     C19972  12.529   4.770   9.924 -0.3521 -0.9238 -0.4516
  870MOL0     N19973  11.879   4.916  10.204  0.7616 -0.3319 -0.5310
  870MOL0     N19974  11.798   5.012  10.191 -0.1812 -0.4131  0.2558
  870MOL0     C19975  10.989   5.844  10.084 -0.5816  0.3929 -1.0166
  870MOL0     C19976  10.911   5.873   9.978 -0.1822 -0.4754 -0.7344
  870MOL0     C19977  10.551   5.781   9.706  0.0496  0.1903 -0.3061
  870MOL0     C19978  10.611   5.711   9.596 -0.3757 -0.4943  0.4943
  870MOL0     C19979  10.536   5.694   9.479 -0.3657 -0.4766 -0.8426
  870MOL0     C19980  10.403   5.730   9.472 -0.9604  0.9160  0.1253
  870MOL0     O19981  10.338   5.729   9.347 -0.4133 -0.1395  0.3384
  870MOL0     C19982  10.198   5.728   9.336 -0.5260 -0.5857 -0.1023
  870MOL0     C19983  10.156   5.864   9.283  0.0720 -1.0284 -0.9188
  870MOL0     C19984  10.009   5.890   9.246  0.5675 -0.0352  0.3858
  870MOL0     C19985   9.891   5.854   9.343 -0.0487  0.1026 -0.1286
  870MOL0     C19986   9.934   5.881   9.480  0.8816  0.3615 -0.7501
  870MOL0     C19987   9.967   5.909   9.588 -0.4116  0.3471 -0.2738
  870MOL0     C19988  10.343   5.794   9.585  0.1807  1.1070 -0.3832
  870MOL0     C19989  10.419   5.823   9.699  0.1113 -0.5756  0.4967
  870MOL0     C19990  10.345   5.875   9.818 -0.1667 -0.2586 -0.2126
  870MOL0     H19991  10.818   5.555   9.899 -1.0841  0.0978 -0.1058
  870MOL0     H19992  10.930   5.517  10.131  0.6236 -0.2643  1.0723
  870MOL0     H19993  11.148   5.872  10.332  1.6193  0.2994  1.1182
  870MOL0     H19994  11.242   5.781  10.219 -2.1132 -2.0148 -0.3260
  870MOL0     H19995  11.334   5.757  10.440 -0.2497  2.1702  0.7231
  870MOL0     H19996  11.175   5.737  10.511 -2.2267 -0.0271 -0.8269
  870MOL0     H19997  11.264   5.512  10.513 -1.7459  0.3651 -0.0721
  870MOL0     H19998  11.148   5.503  10.372  1.8053 -1.3739 -3.4486
  870MOL0     H19999  11.324   5.536  10.223 -1.9375  1.0526  1.2129
  870MOL0     H20000  11.449   5.561  10.344  1.6953 -2.4521 -0.2166
  870MOL0     H20001  11.307   5.291  10.303  0.8324 -0.6090 -2.1609
  870MOL0     H20002  11.405   5.331  10.436  1.9077  0.9422  0.6291
  870MOL0     H20003  11.504   5.359  10.144 -1.2929  2.2359 -0.0102
  870MOL0     H20004  11.586   5.402  10.292  0.6860 -2.5715  1.5791
  870MOL0     H20005  11.567   5.143  10.179 -1.7379 -3.3850  1.1976
  870MOL0     H20006  11.494   5.132  10.323  0.4939 -0.5811 -0.9565
  870MOL0     H20007  11.773   5.255  10.279 -1.3546  0.2586 -1.2030
  870MOL0     H20008  11.694   5.211  10.435  0.1420 -0.4374  0.6968
  870MOL0     H20009  11.805   4.994  10.516  0.9127  1.2817  0.1153
  870MOL0     H20010  11.987   4.706  10.380 -1.3384  0.0833  0.3272
  870MOL0     H20011  12.035   4.836  10.492  0.9902 -1.4448  0.1507
  870MOL0     H20012  12.149   4.950  10.298  1.2081  0.1020  0.2339
  870MOL0     H20013  12.229   4.824  10.377  1.2600  1.4721 -0.3660
  870MOL0     H20014  12.137   4.648  10.200  0.7792  0.0836 -0.5522
  870MOL0     H20015  12.075   4.790  10.118  0.0394  2.6494  1.3936
  870MOL0     H20016  12.291   4.888  10.085 -2.9425  1.2375  1.8974
  870MOL0     H20017  12.376   4.770  10.169  2.1340  1.4860 -1.3464
  870MOL0     H20018  12.349   4.508   9.807 -0.4309  0.7744  0.8217
  870MOL0     H20019  12.518   4.325   9.738 -0.5180  0.6003  1.3523
  870MOL0     H20020  12.676   4.380   9.709 -0.4402  1.0050  2.3742
  870MOL0     H20021  12.536   4.407   9.586  0.8821 -0.8655 -0.2989
  870MOL0     H20022  12.977   4.733   9.590  1.9261  0.6705 -1.9215
  870MOL0     H20023  13.214   4.719   9.491 -0.0548 -2.7695 -1.1263
  870MOL0     H20024  13.525   4.519   9.754 -0.3775  1.3302 -0.7608
  870MOL0     H20025  13.450   4.405   9.635 -3.0118  0.9067  3.6042
  870MOL0     H20026  13.604   4.538   9.453  1.4175 -1.6864 -0.6220
  870MOL0     H20027  13.670   4.624   9.592  0.8542 -1.0920  1.6275
  870MOL0     H20028  13.681   4.323   9.551  0.1607  0.5673 -0.1354
  870MOL0     H20029  13.745   4.407   9.691  2.5809 -0.2296  0.6743
  870MOL0     H20030  13.885   4.546   9.544 -2.2746  0.0169 -0.0732
  870MOL0     H20031  13.842   4.442   9.405  0.7026  1.0818 -1.1798
  870MOL0     H20032  13.994   4.370   9.665  1.7139  0.7920  0.2310
  870MOL0     H20033  13.947   4.245   9.548 -2.6877 -0.1200  4.4118
  870MOL0     H20034  14.111   4.495   9.484  0.6240  1.7122 -0.4138
  870MOL0     H20035  14.064   4.366   9.373  1.6074  0.7864  0.4962
  870MOL0     H20036  14.239   4.292   9.620  1.5026  1.5150 -0.1112
  870MOL0     H20037  14.299   4.393   9.499 -0.0466  0.3049  1.1463
  870MOL0     H20038  14.223   4.175   9.337 -1.5514 -1.8045 -0.2293
  870MOL0     H20039  14.158   4.115   9.488 -1.8998  1.8619  0.5852
  870MOL0     H20040  13.313   4.473   9.837  0.8567 -0.6067 -1.9632
  870MOL0     H20041  13.077   4.510   9.918  0.6876  1.0490  0.4299
  870MOL0     H20042  12.734   4.809   9.883 -0.0351  1.0065 -2.0111
  870MOL0     H20043  12.543   4.859   9.984 -0.5030 -1.7720  0.8919
  870MOL0     H20044  11.028   5.919  10.151  3.1903 -2.1261 -0.0782
  870MOL0     H20045  10.896   5.969   9.929 -0.3541  0.5858  1.3064
  870MOL0     H20046  10.710   5.668   9.603  0.9017  2.1355 -0.0884
  870MOL0     H20047  10.581   5.633   9.401 -3.1408 -3.4468 -0.3512
  870MOL0     H20048  10.159   5.658   9.261  1.4348  0.9373 -2.7232
  870MOL0     H20049  10.149   5.689   9.426  0.4730  1.9317  1.6162
  870MOL0     H20050  10.212   5.898   9.195 -1.7448 -1.1998 -2.2021
  870MOL0     H20051  10.180   5.939   9.359 -1.4920 -0.3713 -1.0237
  870MOL0     H20052  10.009   6.000   9.240  2.5197  0.0905  1.7258
  870MOL0     H20053   9.986   5.846   9.149 -0.9397  1.2923  0.0926
  870MOL0     H20054   9.876   5.745   9.338 -1.4914  0.2363  0.6191
  870MOL0     H20055   9.800   5.910   9.319 -1.0901 -1.1680  0.6745
  870MOL0     H20056   9.991   5.927   9.690  0.4711  1.1169 -0.6062
  870MOL0     H20057  10.238   5.821   9.595 -0.2780 -1.0472  1.3819
  870MOL0     H20058  10.240   5.886   9.790 -1.0396 -4.4783  0.6847
  870MOL0     H20059  10.343   5.801   9.900 -1.6273  0.9114  0.8644
  870MOL0     H20060  10.388   5.968   9.856  2.7893 -2.2268  1.6948
  871MOL0     O20061   4.104   3.982   8.365  0.2580 -0.1424  0.9944
  871MOL0     C20062   4.028   4.027   8.451 -0.5896 -0.3541  0.3741
  871MOL0     O20063   4.063   4.140   8.523  1.0488 -0.6220 -0.8066
  871MOL0     C20064   4.191   4.177   8.546 -0.7425 -0.0278 -0.2742
  871MOL0     C20065   4.269   4.223   8.444 -0.6092 -0.4492  0.9978
  871MOL0     C20066   4.401   4.260   8.454  0.0547 -0.6667  0.4189
  871MOL0     C20067   4.458   4.258   8.583 -0.1840 -0.2578  1.1279
  871MOL0     O20068   4.577   4.315   8.607  0.2181  0.2380  0.7982
  871MOL0     C20069   4.686   4.283   8.526  0.4123 -0.4351 -0.1605
  871MOL0     C20070   4.745   4.408   8.478 -0.4709  0.3506 -0.4778
  871MOL0     C20071   4.887   4.380   8.409 -0.2042  0.6781 -0.2867
  871MOL0     C20072   4.917   4.508   8.334  0.4121 -0.5850  0.4231
  871MOL0     C20073   5.067   4.510   8.284  0.1564 -0.0622  0.3366
  871MOL0     C20074   5.086   4.427   8.154 -0.0302 -1.0104  0.4347
  871MOL0     C20075   5.219   4.443   8.100  1.1170 -0.4892 -0.2748
  871MOL0     C20076   5.243   4.358   7.973 -0.5402  0.3565 -0.2177
  871MOL0     N20077   5.383   4.384   7.912  0.1260  0.3668 -0.1264
  871MOL0     C20078   5.505   4.342   7.963 -0.4688  0.6433  0.0495
  871MOL0     C20079   5.594   4.411   7.883  0.5038  0.3301 -0.2190
  871MOL0     C20080   5.741   4.393   7.888 -0.9717 -0.3111 -0.3014
  871MOL0     C20081   5.798   4.523   7.937  0.4921 -0.0454  0.3269
  871MOL0     C20082   5.951   4.503   7.967  0.1665 -0.3681  0.1580
  871MOL0     C20083   6.046   4.474   7.854  1.0637 -0.0414 -0.8098
  871MOL0     O20084   6.176   4.468   7.922 -0.1078 -0.1064  0.1881
  871MOL0     C20085   6.235   4.586   7.938 -0.9026 -0.3476  0.0035
  871MOL0     C20086   6.348   4.591   8.019  0.2156  0.5254  0.1002
  871MOL0     C20087   6.425   4.707   8.047  0.5014  0.6326  0.5993
  871MOL0     C20088   6.538   4.682   8.142  0.1164  0.3409 -0.0015
  871MOL0     C20089   6.395   4.829   7.984 -0.2559 -0.0795 -0.1656
  871MOL0     C20090   6.480   4.950   7.990  0.6358  0.5586  0.7954
  871MOL0     O20091   6.603   4.947   8.049 -0.4323 -0.5397  0.1149
  871MOL0     C20092   6.681   5.066   8.060 -0.2076  0.2405 -0.2048
  871MOL0     C20093   6.655   5.153   8.169  0.1895  0.7362  0.3514
  871MOL0     C20094   6.723   5.274   8.180  1.0914  0.0625 -0.1045
  871MOL0     C20095   6.827   5.302   8.093  0.5507  0.1640  0.3903
  871MOL0     O20096   6.900   5.412   8.113 -0.3313  0.3423 -0.8566
  871MOL0     C20097   7.022   5.431   8.049 -0.1839 -0.1134  0.5193
  871MOL0     C20098   7.058   5.579   8.080 -0.0013  0.8624 -0.7336
  871MOL0     C20099   7.197   5.623   8.042  0.2285 -0.2832 -0.5781
  871MOL0     C20100   7.240   5.580   7.900 -0.8409  0.1596  0.5187
  871MOL0     C20101   7.386   5.618   7.878 -0.4406 -0.4534  0.0737
  871MOL0     C20102   7.423   5.586   7.727  0.1815 -0.1524 -0.7782
  871MOL0     C20103   7.572   5.585   7.701 -0.9406 -0.0872  0.3999
  871MOL0     C20104   7.642   5.720   7.726  0.3550  0.3907 -0.6005
  871MOL0    Cl20105   7.788   5.739   7.627  0.3299 -0.0872 -0.5407
  871MOL0     C20106   6.858   5.207   7.984 -0.5164 -1.0188  0.8116
  871MOL0     C20107   6.781   5.093   7.970 -0.2734  0.6138  0.4805
  871MOL0     O20108   6.441   5.048   7.931 -0.4317 -0.4505 -0.4841
  871MOL0     C20109   6.277   4.826   7.901  1.0035  0.2883  0.6637
  871MOL0     C20110   6.207   4.710   7.879 -0.9478  0.3475 -0.5095
  871MOL0     N20111   5.526   4.480   7.783 -0.6072  0.0090  0.0294
  871MOL0     N20112   5.398   4.453   7.796 -0.3432 -1.0679  0.0994
  871MOL0     C20113   4.388   4.210   8.688 -0.7844 -1.1290  0.3449
  871MOL0     C20114   4.252   4.169   8.673  0.1078  0.9771 -0.0497
  871MOL0     C20115   3.895   3.971   8.482  0.8562  0.5556  0.6280
  871MOL0     C20116   3.844   3.980   8.615 -0.2650 -0.0140  0.3090
  871MOL0     C20117   3.723   3.922   8.651 -0.1378 -0.1251 -0.4032
  871MOL0     C20118   3.634   3.870   8.550  0.6514 -0.0646  0.0620
  871MOL0     O20119   3.507   3.830   8.582 -0.1551  0.3652  0.3380
  871MOL0     C20120   3.450   3.867   8.706  0.6543  0.3333  0.4163
  871MOL0     C20121   3.305   3.808   8.711 -0.0002 -0.3868  0.5536
  871MOL0     C20122   3.203   3.881   8.619  1.1965  0.6028 -0.0660
  871MOL0     C20123   3.139   3.999   8.689  0.6192 -0.8486 -0.5669
  871MOL0     C20124   3.212   4.125   8.713  0.6767  0.3037  0.4152
  871MOL0     C20125   3.284   4.226   8.723  0.0163  0.4009  0.6799
  871MOL0     C20126   3.678   3.871   8.421  0.8230  0.5780  0.5846
  871MOL0     C20127   3.810   3.915   8.385  0.5076  0.1668  0.4545
  871MOL0     C20128   3.846   3.902   8.237 -0.6856  0.3662 -0.1800
  871MOL0     H20129   4.234   4.240   8.342  1.9581  1.9793  0.3733
  871MOL0     H20130   4.469   4.287   8.373 -0.2597  0.8833  0.6475
  871MOL0     H20131   4.657   4.224   8.438 -1.2912  1.2980 -0.8287
  871MOL0     H20132   4.760   4.231   8.587  0.9539 -0.1142 -0.5341
  871MOL0     H20133   4.675   4.449   8.405  0.2350  0.7871 -0.9217
  871MOL0     H20134   4.756   4.471   8.567 -0.3208 -0.9909  0.4859
  871MOL0     H20135   4.959   4.360   8.489  0.0055  1.1151 -0.3631
  871MOL0     H20136   4.888   4.291   8.344  0.6535 -0.3480  1.0683
  871MOL0     H20137   4.850   4.522   8.249  1.2107  0.8091 -0.0029
  871MOL0     H20138   4.891   4.583   8.409 -3.6757 -0.4032 -0.9417
  871MOL0     H20139   5.139   4.471   8.356  0.9661  0.1761 -0.3241
  871MOL0     H20140   5.091   4.616   8.269  0.8899 -0.0524  1.4952
  871MOL0     H20141   5.057   4.324   8.176  0.5176 -0.9757  1.3864
  871MOL0     H20142   5.014   4.453   8.076  0.4807 -0.5990  0.0947
  871MOL0     H20143   5.299   4.422   8.172  1.1104  0.8339  0.1473
  871MOL0     H20144   5.222   4.548   8.070 -2.1855 -0.6893 -1.7872
  871MOL0     H20145   5.219   4.252   7.980  0.2904  0.0750 -1.4052
  871MOL0     H20146   5.177   4.402   7.897 -0.6610  2.1156  0.8313
  871MOL0     H20147   5.528   4.262   8.033 -1.0000 -1.1831 -1.7920
  871MOL0     H20148   5.782   4.374   7.788  4.9412 -1.5780  1.9966
  871MOL0     H20149   5.758   4.310   7.957  2.4411  0.5269  0.0460
  871MOL0     H20150   5.772   4.600   7.865  3.1648 -0.7267 -1.5154
  871MOL0     H20151   5.749   4.548   8.032  2.3166  1.6995  0.8854
  871MOL0     H20152   5.991   4.595   8.010  2.8692 -0.6226 -1.5571
  871MOL0     H20153   5.960   4.426   8.044 -3.5926 -2.3575 -1.1414
  871MOL0     H20154   6.029   4.382   7.798  4.6119  1.1920 -4.3090
  871MOL0     H20155   6.029   4.550   7.778  0.5992 -1.2635 -1.9580
  871MOL0     H20156   6.381   4.500   8.068  0.5852  1.5683  1.8721
  871MOL0     H20157   6.540   4.769   8.209  1.7924 -0.4618  1.0613
  871MOL0     H20158   6.631   4.680   8.085  0.2961  0.9747  0.2644
  871MOL0     H20159   6.521   4.600   8.213  2.5629 -1.3893 -1.2617
  871MOL0     H20160   6.585   5.137   8.250  1.1144  3.6366  1.8844
  871MOL0     H20161   6.691   5.339   8.261 -1.9306  2.3474 -2.8295
  871MOL0     H20162   7.099   5.364   8.088 -3.6036 -2.7678  3.2465
  871MOL0     H20163   7.016   5.422   7.940  2.1352  0.7285  0.2599
  871MOL0     H20164   6.986   5.653   8.043 -0.6349  1.2454  1.1703
  871MOL0     H20165   7.047   5.597   8.187  0.5555 -1.4414 -0.2304
  871MOL0     H20166   7.275   5.586   8.109  2.6426  1.3387 -2.3059
  871MOL0     H20167   7.194   5.733   8.047 -0.2663 -0.1892 -2.2099
  871MOL0     H20168   7.181   5.631   7.822  0.5528  1.4131  0.2488
  871MOL0     H20169   7.223   5.474   7.881  1.9071  0.0416 -2.0740
  871MOL0     H20170   7.419   5.714   7.919 -1.2292  0.0230 -0.3797
  871MOL0     H20171   7.451   5.546   7.929 -2.6482 -3.2257 -0.7711
  871MOL0     H20172   7.374   5.660   7.663  1.2357  0.1764 -1.2191
  871MOL0     H20173   7.373   5.493   7.700  0.3532  0.1592 -2.2303
  871MOL0     H20174   7.592   5.554   7.598  2.7861 -1.3887  1.3388
  871MOL0     H20175   7.628   5.513   7.762 -0.5162  0.3342  0.5203
  871MOL0     H20176   7.678   5.739   7.827  0.7887  1.2108 -0.9006
  871MOL0     H20177   7.583   5.806   7.692  2.2947  0.5877 -3.8896
  871MOL0     H20178   6.932   5.226   7.907 -1.0980 -2.4670 -0.1413
  871MOL0     H20179   6.797   5.006   7.906  3.0830 -0.0379  1.9775
  871MOL0     H20180   6.240   4.915   7.851 -0.9452 -1.1936 -0.7177
  871MOL0     H20181   6.131   4.726   7.803  2.6727 -2.0643 -5.1879
  871MOL0     H20182   4.437   4.193   8.784  0.0744  0.8151  0.2809
  871MOL0     H20183   4.186   4.132   8.750  0.0089 -2.9482 -1.7926
  871MOL0     H20184   3.902   4.019   8.697 -2.9850 -3.1871  4.1379
  871MOL0     H20185   3.688   3.922   8.753 -1.5870 -1.3829 -0.8537
  871MOL0     H20186   3.504   3.814   8.785  1.0259  1.2555  0.7963
  871MOL0     H20187   3.445   3.975   8.721 -2.5850  0.1638  1.4473
  871MOL0     H20188   3.259   3.806   8.810 -1.1441  0.9379  0.0771
  871MOL0     H20189   3.303   3.705   8.673  3.1605  0.5737 -2.7940
  871MOL0     H20190   3.236   3.915   8.520 -0.1139  3.0282  0.2545
  871MOL0     H20191   3.118   3.816   8.598  0.3542  2.5134 -3.3179
  871MOL0     H20192   3.106   3.963   8.787  0.1363 -0.1260 -0.4612
  871MOL0     H20193   3.048   4.029   8.637 -0.8125  0.8956  2.6610
  871MOL0     H20194   3.356   4.304   8.729 -0.8746  1.1833  1.5795
  871MOL0     H20195   3.610   3.827   8.348  1.0584  0.4289  0.4519
  871MOL0     H20196   3.866   3.998   8.190 -0.2730 -0.3069 -1.4231
  871MOL0     H20197   3.939   3.845   8.225 -0.9262  0.3646 -2.6084
  871MOL0     H20198   3.774   3.843   8.178  0.0903 -0.0572 -0.7172
  872MOL0     O20199   0.306   7.051   6.227  0.3240 -0.1195 -0.9854
  872MOL0     C20200   0.235   7.090   6.313  0.6478  0.3607  0.1098
  872MOL0     O20201   0.269   7.114   6.438 -0.5987  0.9485  0.0772
  872MOL0     C20202   0.393   7.159   6.481  0.0921  0.5594  0.6392
  872MOL0     C20203   0.422   7.159   6.611  0.5795  0.5022 -0.7162
  872MOL0     C20204   0.553   7.192   6.659  0.3372 -0.1806  0.6465
  872MOL0     C20205   0.651   7.222   6.566  0.1415  1.0860  2.0029
  872MOL0     O20206   0.779   7.260   6.599 -0.8178  0.1655 -0.4895
  872MOL0     C20207   0.821   7.271   6.738  0.3265 -0.0289  0.5365
  872MOL0     C20208   0.931   7.381   6.749  0.8038 -0.6410  0.6929
  872MOL0     C20209   1.021   7.408   6.630  0.6155 -0.2987 -0.1738
  872MOL0     C20210   1.144   7.477   6.665 -0.1420 -0.1361  0.4079
  872MOL0     C20211   1.265   7.434   6.576  0.1440  0.0609  0.0765
  872MOL0     C20212   1.393   7.499   6.625  0.1517  0.3718 -0.4266
  872MOL0     C20213   1.506   7.420   6.563 -1.3066  0.3413  0.1988
  872MOL0     C20214   1.641   7.480   6.615 -0.3911  0.2783  0.7598
  872MOL0     N20215   1.663   7.458   6.757 -0.0338 -0.7180  0.4928
  872MOL0     C20216   1.666   7.333   6.823  0.9490  1.1106 -0.8381
  872MOL0     C20217   1.666   7.364   6.954 -0.1924  0.3752  0.2021
  872MOL0     C20218   1.672   7.271   7.071  0.0669  0.7622 -0.1873
  872MOL0     C20219   1.593   7.320   7.190  0.0312  0.3931 -0.1649
  872MOL0     C20220   1.488   7.215   7.246 -0.5341 -0.2347 -0.6886
  872MOL0     C20221   1.544   7.086   7.324  0.7366 -0.5318  0.9841
  872MOL0     O20222   1.591   7.135   7.448  0.0464  1.2169 -0.0413
  872MOL0     C20223   1.722   7.148   7.475 -0.2764  0.2526 -0.3165
  872MOL0     C20224   1.748   7.202   7.615 -0.0083 -0.2727  0.4053
  872MOL0     C20225   1.880   7.227   7.662 -0.3860  0.0609  0.1542
  872MOL0     C20226   1.908   7.285   7.802 -0.0751  0.4142  0.0514
  872MOL0     C20227   1.985   7.184   7.576  0.3467 -0.2902 -0.0585
  872MOL0     C20228   2.130   7.160   7.620  0.1744  0.6594  0.0549
  872MOL0     O20229   2.228   7.178   7.525  0.5173 -0.6308 -0.4175
  872MOL0     C20230   2.357   7.167   7.562  0.0064  0.2124  0.4577
  872MOL0     C20231   2.411   7.045   7.607  0.8983  0.4418 -0.2783
  872MOL0     C20232   2.547   7.032   7.649 -0.3480  0.4440 -0.5047
  872MOL0     C20233   2.623   7.152   7.647  0.2934  1.1249  0.0407
  872MOL0     O20234   2.753   7.138   7.687  0.2246  0.3444 -0.6853
  872MOL0     C20235   2.826   7.257   7.696 -0.4035 -0.6093  0.6292
  872MOL0     C20236   2.952   7.224   7.776 -0.5383 -0.1453  0.1693
  872MOL0     C20237   3.034   7.102   7.717  0.3787  0.7608 -0.3938
  872MOL0     C20238   3.168   7.108   7.782 -1.0880 -0.0105 -0.8094
  872MOL0     C20239   3.283   7.008   7.741 -0.0621  0.1081  0.0828
  872MOL0     C20240   3.419   7.058   7.801  0.1868 -0.2381  0.4651
  872MOL0     C20241   3.540   7.002   7.736  0.1843 -0.2726 -0.2462
  872MOL0     C20242   3.659   7.009   7.833 -0.6036  0.0983  0.2232
  872MOL0    Cl20243   3.638   6.889   7.971  0.0256 -0.1690 -0.1306
  872MOL0     C20244   2.570   7.282   7.609  0.1306  0.5861 -1.0391
  872MOL0     C20245   2.435   7.281   7.566  0.1587 -0.4732  0.1290
  872MOL0     O20246   2.147   7.119   7.742 -0.3737  0.5858  0.6211
  872MOL0     C20247   1.960   7.147   7.441  0.7743  0.9453 -0.8123
  872MOL0     C20248   1.827   7.136   7.380 -0.0834  0.0062 -0.0417
  872MOL0     N20249   1.652   7.500   6.957  0.2575  0.1364 -0.7249
  872MOL0     N20250   1.661   7.557   6.849  1.3165 -0.4393 -0.0878
  872MOL0     C20251   0.618   7.251   6.433  0.8527  0.4825  0.9042
  872MOL0     C20252   0.491   7.206   6.389 -0.3270  0.6710 -0.1507
  872MOL0     C20253   0.088   7.111   6.285  0.4122 -0.3561 -0.1943
  872MOL0     C20254  -0.001   7.123   6.390 -0.1781  0.3135 -0.2556
  872MOL0     C20255  -0.137   7.120   6.380 -1.3206  0.1785 -0.3228
  872MOL0     C20256  -0.193   7.106   6.254  0.1634 -0.9766 -0.0261
  872MOL0     O20257  -0.325   7.113   6.227 -0.6331 -0.0259  0.8125
  872MOL0     C20258  -0.411   7.145   6.333  0.0540 -0.0325 -0.4277
  872MOL0     C20259  -0.552   7.144   6.279 -0.2811 -0.0591  0.1984
  872MOL0     C20260  -0.597   7.278   6.227 -0.5949 -0.0951  0.1000
  872MOL0     C20261  -0.727   7.263   6.140 -0.6624  0.2458 -0.0824
  872MOL0     C20262  -0.830   7.186   6.207  0.3550 -1.0103 -0.2582
  872MOL0     C20263  -0.916   7.121   6.267  0.2003 -0.8547  0.3010
  872MOL0     C20264  -0.111   7.099   6.142 -0.3455 -0.1471 -0.6719
  872MOL0     C20265   0.026   7.107   6.158 -0.6880  0.3353 -0.3854
  872MOL0     C20266   0.100   7.095   6.031 -0.0463 -0.9021  0.3027
  872MOL0     H20267   0.347   7.114   6.675  1.3755  0.9267  0.5524
  872MOL0     H20268   0.576   7.179   6.764 -2.6738 -0.2902  1.3747
  872MOL0     H20269   0.860   7.171   6.761 -2.3945 -0.5319  3.7458
  872MOL0     H20270   0.736   7.293   6.803 -1.9272  2.6909 -2.9690
  872MOL0     H20271   0.899   7.476   6.793  2.0415 -0.6601  1.7138
  872MOL0     H20272   0.999   7.342   6.825 -0.5577 -2.5738  0.9801
  872MOL0     H20273   1.035   7.308   6.589 -2.8866 -0.7439 -0.6596
  872MOL0     H20274   0.962   7.471   6.562 -0.3389  0.0794  0.9727
  872MOL0     H20275   1.132   7.585   6.651 -1.5538 -0.4848 -1.3577
  872MOL0     H20276   1.166   7.463   6.772  3.0778 -0.0167 -0.1432
  872MOL0     H20277   1.237   7.463   6.475 -1.8309 -4.2191 -0.8482
  872MOL0     H20278   1.274   7.325   6.578 -0.3950  0.0039 -0.4852
  872MOL0     H20279   1.401   7.601   6.585 -0.8501 -0.2912 -2.4613
  872MOL0     H20280   1.389   7.497   6.734 -2.9586  1.4625 -0.4204
  872MOL0     H20281   1.504   7.400   6.456  1.2704 -1.3334  0.3827
  872MOL0     H20282   1.511   7.314   6.589  0.8378  0.2792 -0.3297
  872MOL0     H20283   1.723   7.433   6.559 -0.4411 -0.1763  1.0576
  872MOL0     H20284   1.646   7.586   6.591 -1.8069 -0.3933 -3.4554
  872MOL0     H20285   1.665   7.232   6.782  3.0546  0.4440  0.5417
  872MOL0     H20286   1.779   7.286   7.088  0.0071  0.0200  0.9206
  872MOL0     H20287   1.658   7.163   7.058 -2.4403  1.1922 -1.8999
  872MOL0     H20288   1.661   7.346   7.272  0.8058  1.0479 -0.9944
  872MOL0     H20289   1.542   7.413   7.165  2.0515  1.0567 -2.1391
  872MOL0     H20290   1.412   7.258   7.312 -0.9605  1.3087 -2.1234
  872MOL0     H20291   1.445   7.183   7.150  0.4195  0.3265 -1.3176
  872MOL0     H20292   1.460   7.017   7.335 -1.3284  1.1712 -2.3718
  872MOL0     H20293   1.618   7.040   7.258  0.3105  1.9197 -1.3924
  872MOL0     H20294   1.664   7.243   7.670  1.5726  0.5887  2.2825
  872MOL0     H20295   1.930   7.208   7.877 -1.1153  2.6349  2.8463
  872MOL0     H20296   1.821   7.335   7.845 -0.9972  0.8887 -2.2647
  872MOL0     H20297   1.985   7.363   7.808 -1.6469  2.1601 -1.0744
  872MOL0     H20298   2.346   6.958   7.602  0.1480  0.8837  1.2529
  872MOL0     H20299   2.587   6.933   7.667  0.3007  0.8616  0.4444
  872MOL0     H20300   2.841   7.310   7.602 -2.8341  3.7118  2.3486
  872MOL0     H20301   2.768   7.330   7.754 -1.6734  0.1562 -1.4813
  872MOL0     H20302   3.011   7.316   7.778 -1.0646  0.2104 -0.2997
  872MOL0     H20303   2.913   7.208   7.876 -0.1399  1.2900  0.5834
  872MOL0     H20304   3.049   7.096   7.609  0.7291  0.1951 -0.3162
  872MOL0     H20305   2.984   7.008   7.742 -1.0773  1.2822 -1.1689
  872MOL0     H20306   3.148   7.086   7.887 -1.1495 -1.2754 -1.0725
  872MOL0     H20307   3.206   7.209   7.762 -1.0847  0.1132 -0.1920
  872MOL0     H20308   3.272   6.909   7.785 -0.9192 -0.1925 -0.7907
  872MOL0     H20309   3.275   6.992   7.634 -2.5326 -2.1843  0.5282
  872MOL0     H20310   3.424   7.034   7.907 -0.1220 -1.3526  0.2345
  872MOL0     H20311   3.432   7.167   7.796 -1.7601  0.2751  3.7017
  872MOL0     H20312   3.542   7.067   7.648  0.0051  1.8133  1.2032
  872MOL0     H20313   3.525   6.897   7.711 -0.3460  0.5771 -4.1421
  872MOL0     H20314   3.672   7.108   7.878  1.5897 -0.6635  1.3602
  872MOL0     H20315   3.746   6.985   7.772 -0.4438 -2.0755  1.2024
  872MOL0     H20316   2.621   7.377   7.619  2.5578 -0.6673 -0.9207
  872MOL0     H20317   2.385   7.371   7.531  0.0671 -1.1750 -1.6643
  872MOL0     H20318   2.036   7.105   7.377 -1.6490 -4.0817 -0.8932
  872MOL0     H20319   1.814   7.108   7.276 -0.7200  0.4440 -0.0910
  872MOL0     H20320   0.707   7.279   6.377 -1.2795  2.3241 -1.8186
  872MOL0     H20321   0.474   7.202   6.282  0.5703  3.9821 -0.5377
  872MOL0     H20322   0.037   7.149   6.488 -2.3291 -0.2475  0.7886
  872MOL0     H20323  -0.192   7.119   6.472 -0.8580 -1.5162 -0.0357
  872MOL0     H20324  -0.399   7.063   6.404  0.1230 -0.5286 -1.0050
  872MOL0     H20325  -0.387   7.243   6.376 -0.1522 -0.7876  1.5022
  872MOL0     H20326  -0.626   7.110   6.352  0.9725  0.6454  1.8472
  872MOL0     H20327  -0.554   7.064   6.204  1.8336  0.3051 -0.3133
  872MOL0     H20328  -0.617   7.341   6.314 -0.2351  1.3300 -0.8206
  872MOL0     H20329  -0.517   7.332   6.177  0.7335  0.5837  2.7817
  872MOL0     H20330  -0.706   7.204   6.051 -1.6667 -0.5512  0.1886
  872MOL0     H20331  -0.765   7.362   6.112 -2.6324 -0.3319  0.4257
  872MOL0     H20332  -0.994   7.066   6.315  0.2801 -0.9128  0.3633
  872MOL0     H20333  -0.157   7.078   6.047 -0.8725 -1.5576 -0.1362
  872MOL0     H20334   0.168   7.009   6.032  1.2697  0.0521  3.1675
  872MOL0     H20335   0.042   7.090   5.939  1.6726 -0.4120 -0.8777
  872MOL0     H20336   0.167   7.181   6.015 -1.3393  0.1754  0.4912
  873MOL0     O20337   7.914   5.670   5.265  0.0243 -0.2273  0.0688
  873MOL0     C20338   7.842   5.605   5.202 -0.2017 -0.6444  0.0483
  873MOL0     O20339   7.888   5.498   5.122  0.1326 -0.3653  0.2251
  873MOL0     C20340   8.016   5.448   5.122 -0.0955  0.0460 -0.5275
  873MOL0     C20341   8.109   5.454   5.231 -0.1556  0.6993 -0.2120
  873MOL0     C20342   8.245   5.396   5.218  0.3670 -0.1206  0.8427
  873MOL0     C20343   8.277   5.320   5.100  0.5786 -0.8028 -0.7069
  873MOL0     O20344   8.404   5.259   5.082 -0.2682 -0.0758 -0.1031
  873MOL0     C20345   8.514   5.337   5.120  0.4180 -0.0606 -0.3673
  873MOL0     C20346   8.635   5.258   5.059  0.5222  0.2155 -0.1311
  873MOL0     C20347   8.776   5.265   5.127 -0.4403  0.6391 -0.5994
  873MOL0     C20348   8.830   5.408   5.102  0.2869  0.4309 -0.2398
  873MOL0     C20349   8.981   5.400   5.124  0.2005 -0.3249 -0.2833
  873MOL0     C20350   9.020   5.422   5.271  0.5150  0.5105  0.0910
  873MOL0     C20351   9.174   5.395   5.300 -0.9898 -0.1506  0.5220
  873MOL0     C20352   9.193   5.394   5.452 -0.2794 -0.0872  0.1432
  873MOL0     N20353   9.266   5.513   5.492  0.5233  0.4373 -0.0556
  873MOL0     C20354   9.191   5.621   5.533  0.1712  0.4163 -0.4518
  873MOL0     C20355   9.279   5.708   5.577  0.1709 -0.1340 -0.6347
  873MOL0     C20356   9.237   5.855   5.620  0.3710 -0.8479 -0.2171
  873MOL0     C20357   9.345   5.963   5.605 -0.0405  0.4904  0.5253
  873MOL0     C20358   9.289   6.102   5.617  0.0783  0.4872  0.0374
  873MOL0     C20359   9.413   6.208   5.644 -0.1015  0.1974 -0.4301
  873MOL0     O20360   9.521   6.187   5.553 -1.2058 -0.2577  0.6132
  873MOL0     C20361   9.645   6.223   5.607 -0.5123  0.5682  0.3404
  873MOL0     C20362   9.674   6.355   5.631 -0.0577 -0.1892  0.2007
  873MOL0     C20363   9.794   6.392   5.700 -1.5786  0.0801  0.1004
  873MOL0     C20364   9.819   6.538   5.721 -0.2069  0.9262  0.5037
  873MOL0     C20365   9.887   6.288   5.741  0.0602 -0.4042  0.1709
  873MOL0     C20366   9.998   6.325   5.837  0.4956  0.4524  0.7871
  873MOL0     O20367  10.105   6.240   5.845  0.7138 -0.1588 -0.4459
  873MOL0     C20368  10.212   6.264   5.919 -0.8981 -0.2625 -0.3590
  873MOL0     C20369  10.283   6.154   5.968 -0.8675  0.4770  0.1872
  873MOL0     C20370  10.401   6.175   6.040 -1.3491 -0.9173 -0.8116
  873MOL0     C20371  10.445   6.309   6.068 -0.7575  0.4151 -0.3434
  873MOL0     O20372  10.555   6.337   6.146 -0.8930 -0.1398 -0.0870
  873MOL0     C20373  10.655   6.232   6.150  0.2141 -0.4914 -0.8747
  873MOL0     C20374  10.797   6.295   6.191  0.5880 -0.1756  0.6570
  873MOL0     C20375  10.902   6.183   6.205  0.7610  0.0737  0.3374
  873MOL0     C20376  10.986   6.180   6.082 -0.3238 -0.8185  0.1166
  873MOL0     C20377  11.132   6.123   6.107 -0.1197 -0.3656  0.2285
  873MOL0     C20378  11.219   6.222   6.178  0.1723 -0.0244 -0.2554
  873MOL0     C20379  11.363   6.180   6.186  0.7107 -0.4126  0.5297
  873MOL0     C20380  11.453   6.297   6.243  0.0165 -0.0373  0.5946
  873MOL0    Cl20381  11.625   6.262   6.232 -0.0544  0.1266 -0.1729
  873MOL0     C20382  10.366   6.415   6.023 -0.3013  0.3204 -0.1020
  873MOL0     C20383  10.255   6.391   5.937 -0.6923 -0.2929  0.4327
  873MOL0     O20384   9.968   6.412   5.916  0.2374 -0.7197 -0.4775
  873MOL0     C20385   9.863   6.161   5.684  0.3833  0.7465 -1.0808
  873MOL0     C20386   9.737   6.122   5.630 -0.7274 -0.4868 -0.9807
  873MOL0     N20387   9.401   5.652   5.587 -0.2686  0.3470  0.8812
  873MOL0     N20388   9.396   5.536   5.529 -0.3874 -0.3775 -0.2671
  873MOL0     C20389   8.181   5.308   5.006 -0.0114 -0.0290  0.7016
  873MOL0     C20390   8.048   5.358   5.019  0.0393  0.3248  0.3060
  873MOL0     C20391   7.704   5.664   5.186  0.5954 -0.0997 -0.1135
  873MOL0     C20392   7.664   5.763   5.279  0.1770 -0.0105  0.6572
  873MOL0     C20393   7.532   5.805   5.271  0.3941  0.2917 -0.3055
  873MOL0     C20394   7.431   5.756   5.189  0.8655  0.4199  0.9422
  873MOL0     O20395   7.304   5.800   5.204 -0.0846 -0.9687 -0.4206
  873MOL0     C20396   7.204   5.794   5.102 -1.1187 -0.6171 -0.1342
  873MOL0     C20397   7.061   5.835   5.138  0.4800 -0.0040 -0.0095
  873MOL0     C20398   7.003   5.755   5.250  0.1627 -0.4982  0.7239
  873MOL0     C20399   6.890   5.837   5.328 -0.3735  0.4279  0.0010
  873MOL0     C20400   6.787   5.882   5.230 -0.1835 -0.1535  0.3377
  873MOL0     C20401   6.693   5.916   5.165  0.9207  0.6545 -0.3361
  873MOL0     C20402   7.478   5.671   5.085  0.0674  0.1169  0.1623
  873MOL0     C20403   7.609   5.622   5.081 -0.6899  0.5175 -0.9354
  873MOL0     C20404   7.647   5.529   4.962 -0.1253  0.4064 -0.0996
  873MOL0     H20405   8.083   5.509   5.321 -1.8750  0.1248 -0.3295
  873MOL0     H20406   8.314   5.391   5.301 -0.8951 -1.6218  1.8631
  873MOL0     H20407   8.537   5.356   5.225  0.1967  0.7754 -0.4681
  873MOL0     H20408   8.503   5.440   5.086  0.3369  1.1049  2.8024
  873MOL0     H20409   8.608   5.152   5.065 -1.7616  0.7930  1.1694
  873MOL0     H20410   8.646   5.281   4.953  2.2399 -0.7733 -0.2108
  873MOL0     H20411   8.768   5.245   5.234 -1.1965  2.8126 -0.2099
  873MOL0     H20412   8.846   5.191   5.086 -1.0374 -0.6143  0.5717
  873MOL0     H20413   8.817   5.427   4.995  0.5217 -2.7279 -0.9359
  873MOL0     H20414   8.789   5.488   5.164  0.1232 -1.3580  2.1210
  873MOL0     H20415   9.024   5.488   5.075 -1.1187  0.7275  0.3744
  873MOL0     H20416   9.028   5.312   5.080 -0.7613 -0.7312 -0.5118
  873MOL0     H20417   8.992   5.521   5.306 -0.5043  0.3938 -0.3530
  873MOL0     H20418   8.972   5.344   5.331  1.9716  0.1312  0.8045
  873MOL0     H20419   9.230   5.475   5.251 -1.8912  0.1386 -0.0601
  873MOL0     H20420   9.210   5.305   5.249  2.5429 -0.2025  2.7431
  873MOL0     H20421   9.097   5.394   5.505 -0.9253  2.7866 -0.8588
  873MOL0     H20422   9.260   5.310   5.473  1.6226  1.2602 -0.2736
  873MOL0     H20423   9.085   5.637   5.517  0.1924 -0.8280 -2.0730
  873MOL0     H20424   9.197   5.859   5.722  0.4540 -1.7986 -0.1377
  873MOL0     H20425   9.154   5.874   5.551 -0.0870 -0.2492  0.4800
  873MOL0     H20426   9.409   5.945   5.692 -2.1894  0.2860  2.1451
  873MOL0     H20427   9.406   5.964   5.514 -0.6354  4.5857 -0.0355
  873MOL0     H20428   9.237   6.137   5.528  2.0685  1.5948 -0.7650
  873MOL0     H20429   9.236   6.101   5.712  1.9356 -1.3697  1.1549
  873MOL0     H20430   9.369   6.307   5.631 -3.5743 -0.7808  2.2989
  873MOL0     H20431   9.447   6.201   5.748 -2.9672 -0.7938  0.5297
  873MOL0     H20432   9.598   6.429   5.609 -2.8795 -3.1258 -0.8608
  873MOL0     H20433   9.926   6.559   5.732  0.0625 -0.2139  0.2098
  873MOL0     H20434   9.771   6.562   5.817 -1.1744  0.2927  0.1840
  873MOL0     H20435   9.778   6.597   5.639 -1.1973  0.1696  0.4365
  873MOL0     H20436  10.246   6.054   5.949  0.1061  0.2704 -0.6920
  873MOL0     H20437  10.452   6.090   6.083  0.4507 -2.0494 -4.7104
  873MOL0     H20438  10.631   6.151   6.220 -0.4524 -0.6299 -1.2526
  873MOL0     H20439  10.678   6.183   6.054  1.4344  1.0128 -1.4047
  873MOL0     H20440  10.825   6.363   6.110  2.1383 -0.8661  0.5732
  873MOL0     H20441  10.776   6.364   6.273 -2.4278  2.1738 -1.8284
  873MOL0     H20442  10.846   6.092   6.228 -1.1327  1.3176  0.9281
  873MOL0     H20443  10.958   6.196   6.298 -0.2665 -0.7760  1.1084
  873MOL0     H20444  10.998   6.282   6.044  3.2611 -0.7264  1.1470
  873MOL0     H20445  10.936   6.121   6.004 -0.8843  0.5150 -0.5639
  873MOL0     H20446  11.134   6.030   6.164  3.2105 -0.3402  0.3220
  873MOL0     H20447  11.170   6.111   6.005 -1.7741  0.7822 -0.5814
  873MOL0     H20448  11.184   6.239   6.281 -1.5650  0.9479 -0.9619
  873MOL0     H20449  11.214   6.319   6.128 -0.6239  2.0363  3.3839
  873MOL0     H20450  11.389   6.157   6.083 -1.7694 -2.1408  0.1998
  873MOL0     H20451  11.384   6.084   6.234  0.5260 -1.3131 -1.1240
  873MOL0     H20452  11.415   6.326   6.341 -0.9134  3.5746 -0.6682
  873MOL0     H20453  11.419   6.387   6.190 -2.2865 -2.1986 -1.9458
  873MOL0     H20454  10.392   6.518   6.043  0.8848 -0.1180  0.6895
  873MOL0     H20455  10.206   6.465   5.876 -0.1124 -1.3418 -1.3786
  873MOL0     H20456   9.944   6.091   5.702 -0.3782 -0.1052 -0.9172
  873MOL0     H20457   9.716   6.024   5.589  1.8594  0.1367 -4.3023
  873MOL0     H20458   8.203   5.252   4.915 -1.7319 -0.6205  0.5967
  873MOL0     H20459   7.963   5.334   4.956  0.3215  0.5350 -0.1632
  873MOL0     H20460   7.720   5.799   5.365 -0.3292  1.4329  0.4122
  873MOL0     H20461   7.497   5.872   5.349 -0.2578 -2.1515  1.6244
  873MOL0     H20462   7.238   5.853   5.016  2.6647 -1.7686  0.4250
  873MOL0     H20463   7.200   5.688   5.076 -4.3031 -0.3316 -1.2761
  873MOL0     H20464   6.992   5.827   5.053  0.5136  0.7317 -0.1184
  873MOL0     H20465   7.059   5.942   5.164 -0.2154  0.2715 -1.1388
  873MOL0     H20466   6.958   5.664   5.209 -0.4140  0.0068  0.2244
  873MOL0     H20467   7.073   5.726   5.329 -1.1938 -2.0139  1.4262
  873MOL0     H20468   6.926   5.921   5.388 -0.4176  1.4753 -1.3892
  873MOL0     H20469   6.855   5.761   5.398  2.2938 -0.5511  0.3928
  873MOL0     H20470   6.597   5.939   5.123 -0.3712 -2.4890  0.6182
  873MOL0     H20471   7.414   5.647   5.001  0.7228 -2.2215  0.2550
  873MOL0     H20472   7.662   5.429   5.003  4.0780  0.5886 -0.7587
  873MOL0     H20473   7.570   5.537   4.885 -0.9084  0.3381  0.6574
  873MOL0     H20474   7.742   5.567   4.924  1.4346 -1.6381  1.4937
  874MOL0     O20475   8.452   8.701   4.755 -0.2174  0.7734  0.6275
  874MOL0     C20476   8.455   8.747   4.864  0.6744 -0.1880 -0.3259
  874MOL0     O20477   8.538   8.709   4.970  0.2182 -0.2231  0.9105
  874MOL0     C20478   8.649   8.641   4.927 -0.3343  0.2801 -0.2160
  874MOL0     C20479   8.654   8.507   4.952 -0.9053 -0.2719  0.0473
  874MOL0     C20480   8.759   8.428   4.905 -0.3179 -0.5808 -0.4359
  874MOL0     C20481   8.870   8.480   4.836  0.7804  0.8014 -0.8855
  874MOL0     O20482   8.974   8.390   4.815  0.6460 -0.0643  0.0484
  874MOL0     C20483   9.088   8.444   4.753 -0.0325  0.2883 -0.5032
  874MOL0     C20484   9.175   8.325   4.745  0.7662  0.0542 -0.7570
  874MOL0     C20485   9.296   8.344   4.660 -0.5854  0.7229  0.2844
  874MOL0     C20486   9.385   8.215   4.645  1.0863  0.1779  0.6060
  874MOL0     C20487   9.441   8.179   4.790  0.1800 -0.0205 -0.5273
  874MOL0     C20488   9.546   8.061   4.795 -0.8708  0.4040  0.2245
  874MOL0     C20489   9.500   7.942   4.711  0.6913  0.5434  0.9819
  874MOL0     C20490   9.584   7.814   4.727 -0.5954 -0.0753 -0.0277
  874MOL0     N20491   9.727   7.853   4.710  0.6810 -0.0207 -0.0366
  874MOL0     C20492   9.791   7.869   4.592  0.0804  0.1008 -0.0077
  874MOL0     C20493   9.923   7.884   4.633 -0.5574  0.4009  0.3194
  874MOL0     C20494  10.030   7.913   4.534  0.9398 -0.6010  0.3993
  874MOL0     C20495  10.167   7.838   4.563  0.4230  0.2976  0.4956
  874MOL0     C20496  10.269   7.867   4.456 -0.2901  0.0975  0.1053
  874MOL0     C20497  10.368   7.751   4.446  0.0510  0.1880 -0.0687
  874MOL0     O20498  10.432   7.722   4.569  0.2568 -0.0110  0.1537
  874MOL0     C20499  10.551   7.659   4.581 -0.6351  0.8857 -0.7254
  874MOL0     C20500  10.611   7.657   4.713 -0.3263  0.0864  0.7075
  874MOL0     C20501  10.720   7.575   4.731 -0.4914  0.1084  0.5725
  874MOL0     C20502  10.773   7.557   4.875 -0.1391  0.1004  0.2971
  874MOL0     C20503  10.779   7.503   4.615 -1.2544 -0.5848 -0.0414
  874MOL0     C20504  10.912   7.423   4.618 -0.1083 -0.0424 -0.5759
  874MOL0     O20505  10.973   7.415   4.738 -0.2171 -0.1791  0.0138
  874MOL0     C20506  11.067   7.327   4.770 -0.5720  0.3989  0.0590
  874MOL0     C20507  11.067   7.254   4.891  0.9251 -0.4968  0.0237
  874MOL0     C20508  11.163   7.152   4.913  0.0913  0.4735 -0.6116
  874MOL0     C20509  11.279   7.146   4.837 -0.3829  0.0567 -0.5012
  874MOL0     O20510  11.370   7.060   4.890  0.1906  0.2695 -0.5833
  874MOL0     C20511  11.462   7.003   4.799 -0.6955 -0.1500  0.2103
  874MOL0     C20512  11.521   6.879   4.861  0.1425  0.3004 -0.9740
  874MOL0     C20513  11.588   6.910   4.994  0.5495  0.4858 -0.6587
  874MOL0     C20514  11.643   6.782   5.064  0.2000  0.4947 -0.8291
  874MOL0     C20515  11.707   6.822   5.196 -0.4188 -1.7902  0.6288
  874MOL0     C20516  11.766   6.703   5.267  0.0139  0.5897  0.3551
  874MOL0     C20517  11.852   6.749   5.388  0.2224  0.2613 -0.3919
  874MOL0     C20518  11.918   6.623   5.456 -0.1031 -0.9464  0.6000
  874MOL0    Cl20519  12.051   6.656   5.577  0.2787 -0.0720  0.5131
  874MOL0     C20520  11.289   7.235   4.730 -0.2254 -0.2551 -1.1414
  874MOL0     C20521  11.180   7.316   4.698  0.9031  0.4988  1.3947
  874MOL0     O20522  10.959   7.377   4.509  0.1132 -0.3240 -0.5120
  874MOL0     C20523  10.719   7.511   4.488  0.5608 -0.2105 -0.8241
  874MOL0     C20524  10.609   7.598   4.475  0.7560 -0.5208  0.1800
  874MOL0     N20525   9.930   7.877   4.776 -0.1903 -0.1057 -0.5117
  874MOL0     N20526   9.811   7.862   4.815  0.6190  0.1627  0.0713
  874MOL0     C20527   8.870   8.621   4.829  0.5377 -1.1450  0.2342
  874MOL0     C20528   8.757   8.703   4.867 -1.0341  0.0739 -0.6980
  874MOL0     C20529   8.343   8.832   4.907 -0.9844  0.0328  0.2960
  874MOL0     C20530   8.340   8.964   4.857  0.1784  1.2163 -0.8406
  874MOL0     C20531   8.234   9.043   4.899  0.3452 -1.0579 -0.5483
  874MOL0     C20532   8.139   9.013   5.003 -1.2708 -0.4263  0.7248
  874MOL0     O20533   8.054   9.104   5.052 -0.3160 -0.0284  0.1536
  874MOL0     C20534   7.920   9.105   5.005  0.2853 -0.7428  0.1960
  874MOL0     C20535   7.896   9.220   4.909 -0.1075 -0.2978 -0.3248
  874MOL0     C20536   7.747   9.230   4.881  0.1988 -0.5189  0.2629
  874MOL0     C20537   7.653   9.298   4.980  0.4279  0.0949  0.5457
  874MOL0     C20538   7.508   9.277   4.946 -0.1063 -0.8416  0.2706
  874MOL0     C20539   7.390   9.282   4.919 -0.0719 -0.4278 -0.6040
  874MOL0     C20540   8.148   8.879   5.048 -0.8117  0.7561 -0.2334
  874MOL0     C20541   8.252   8.789   4.997  0.1004  0.7505  1.1757
  874MOL0     C20542   8.262   8.643   5.055  0.2517 -0.6011 -0.3845
  874MOL0     H20543   8.571   8.465   5.007 -1.8121  1.6021  0.2022
  874MOL0     H20544   8.752   8.323   4.932 -1.2553 -0.7940 -1.4564
  874MOL0     H20545   9.130   8.521   4.819 -3.6042  3.1407 -1.2538
  874MOL0     H20546   9.073   8.494   4.657  1.6155 -1.9268 -2.0288
  874MOL0     H20547   9.204   8.315   4.850 -0.6430  2.7318 -0.0384
  874MOL0     H20548   9.126   8.230   4.721 -0.2896 -0.0238  1.4471
  874MOL0     H20549   9.267   8.379   4.560  1.4966  0.5008 -0.4414
  874MOL0     H20550   9.365   8.418   4.702 -0.6041 -0.4510  2.5163
  874MOL0     H20551   9.323   8.137   4.600  2.4228  0.4899 -1.9637
  874MOL0     H20552   9.471   8.224   4.579  1.3149  0.8728  0.9838
  874MOL0     H20553   9.356   8.145   4.850 -1.1266 -1.0940 -2.8314
  874MOL0     H20554   9.493   8.263   4.838  0.8208 -0.5361 -0.3001
  874MOL0     H20555   9.641   8.094   4.751  0.0691 -0.1809  1.7564
  874MOL0     H20556   9.578   8.027   4.894  1.8108 -0.9234 -0.9865
  874MOL0     H20557   9.486   7.952   4.603 -3.2899 -1.1792  1.1649
  874MOL0     H20558   9.395   7.931   4.738 -0.1867  0.3966 -2.0645
  874MOL0     H20559   9.577   7.786   4.832 -0.0884 -0.2382 -0.0318
  874MOL0     H20560   9.551   7.732   4.662 -0.4482  1.4415 -2.1419
  874MOL0     H20561   9.746   7.869   4.494 -2.2730 -1.8732  0.9762
  874MOL0     H20562  10.039   8.022   4.525 -0.4116 -0.5243 -0.3626
  874MOL0     H20563   9.985   7.885   4.439 -1.7272 -1.0221  1.6658
  874MOL0     H20564  10.215   7.883   4.650 -0.9273  1.9027  0.4609
  874MOL0     H20565  10.157   7.730   4.581 -2.1941  0.5779  1.0931
  874MOL0     H20566  10.230   7.876   4.354 -0.9811  0.8967  0.4301
  874MOL0     H20567  10.324   7.961   4.470 -2.2321  1.1010  1.4169
  874MOL0     H20568  10.313   7.659   4.428  1.3477 -1.4298  3.3580
  874MOL0     H20569  10.442   7.776   4.370  0.5168  2.4306  1.0222
  874MOL0     H20570  10.573   7.729   4.785 -2.3980  2.2617 -2.2838
  874MOL0     H20571  10.781   7.449   4.889  3.4500  0.0343 -1.2709
  874MOL0     H20572  10.716   7.615   4.948  2.5761  2.6518  0.5959
  874MOL0     H20573  10.875   7.596   4.882  0.2461 -1.1577  3.0613
  874MOL0     H20574  10.975   7.254   4.948 -1.2391 -2.5046 -3.1223
  874MOL0     H20575  11.148   7.096   5.005  1.4495 -0.0682 -0.7002
  874MOL0     H20576  11.420   6.978   4.701 -0.9731  0.4677  0.1668
  874MOL0     H20577  11.545   7.067   4.770  0.2482 -0.7009  1.5747
  874MOL0     H20578  11.446   6.800   4.874  1.6702 -1.1463 -0.5720
  874MOL0     H20579  11.592   6.834   4.791  0.2107  0.6741 -1.1438
  874MOL0     H20580  11.523   6.966   5.061  0.5981  1.4719 -1.4156
  874MOL0     H20581  11.671   6.977   4.972 -0.0012  2.2418  2.2233
  874MOL0     H20582  11.712   6.725   5.001  0.9844 -3.4745  3.0576
  874MOL0     H20583  11.558   6.716   5.084  0.3817  0.7897  1.0695
  874MOL0     H20584  11.784   6.899   5.183 -1.3458 -0.2513  3.3660
  874MOL0     H20585  11.635   6.879   5.255  0.2376 -0.0087 -0.2276
  874MOL0     H20586  11.819   6.648   5.189 -1.2061  0.6728 -0.5811
  874MOL0     H20587  11.679   6.651   5.307  0.0721  0.7447  0.6859
  874MOL0     H20588  11.792   6.799   5.465  1.3761  1.1129 -0.0069
  874MOL0     H20589  11.929   6.824   5.365 -0.6369  1.6052  0.9131
  874MOL0     H20590  11.953   6.554   5.378 -3.3207  0.3566 -2.3145
  874MOL0     H20591  11.842   6.559   5.503 -0.9169 -0.7013 -0.3401
  874MOL0     H20592  11.367   7.244   4.655 -0.0046  1.1241 -0.7703
  874MOL0     H20593  11.205   7.370   4.607  0.8863  0.1354  1.1733
  874MOL0     H20594  10.758   7.459   4.401 -2.1372  0.1115 -2.3409
  874MOL0     H20595  10.573   7.603   4.373 -3.9204 -1.0279  1.5621
  874MOL0     H20596   8.962   8.670   4.802 -1.2976  1.0725 -2.6889
  874MOL0     H20597   8.773   8.810   4.859 -2.8994  0.6259  1.7896
  874MOL0     H20598   8.408   9.008   4.784  2.8612  2.4124  2.1214
  874MOL0     H20599   8.229   9.148   4.870 -0.6204 -0.9723 -0.1008
  874MOL0     H20600   7.889   9.019   4.944  0.5913  0.5418 -1.8794
  874MOL0     H20601   7.857   9.106   5.094 -0.5983 -0.3446 -0.4098
  874MOL0     H20602   7.948   9.214   4.813  0.2384  0.7171 -0.2170
  874MOL0     H20603   7.919   9.308   4.970  0.3529 -1.5486  1.4002
  874MOL0     H20604   7.733   9.288   4.789  0.6140 -0.9273 -0.0600
  874MOL0     H20605   7.709   9.128   4.867 -1.2328  0.0027  0.1694
  874MOL0     H20606   7.654   9.408   4.984 -0.0746  0.1082  0.4455
  874MOL0     H20607   7.671   9.252   5.077 -0.0288 -1.7157 -0.2003
  874MOL0     H20608   7.283   9.275   4.919 -0.0392 -1.2712  0.4003
  874MOL0     H20609   8.086   8.851   5.132 -1.2574 -0.8664 -1.0607
  874MOL0     H20610   8.159   8.614   5.076 -0.2103  1.0241 -0.2820
  874MOL0     H20611   8.317   8.576   4.987  1.6950  1.6881 -1.6217
  874MOL0     H20612   8.312   8.637   5.152 -0.9387  1.9591  0.4725
  875MOL0     O20613   0.535  10.872   2.892  0.2694 -0.0280  0.4727
  875MOL0     C20614   0.531  10.761   2.939 -0.4469 -0.2033  0.0762
  875MOL0     O20615   0.611  10.712   3.040 -1.1194  0.7937 -0.7588
  875MOL0     C20616   0.696  10.792   3.114  0.3119  0.3444 -0.3050
  875MOL0     C20617   0.658  10.922   3.154  0.3961  0.8999  0.5061
  875MOL0     C20618   0.746  10.991   3.238  0.0733  0.4431 -1.2706
  875MOL0     C20619   0.874  10.929   3.275  0.0893 -0.0694  0.3637
  875MOL0     O20620   0.953  11.003   3.361  0.6938 -0.1021  0.8747
  875MOL0     C20621   1.091  10.977   3.395  0.2514 -0.3998  0.2516
  875MOL0     C20622   1.159  11.108   3.437  0.6232  0.4232  0.3623
  875MOL0     C20623   1.070  11.194   3.536  0.9219  1.2064 -0.4498
  875MOL0     C20624   1.128  11.332   3.558 -1.3408 -0.0996  0.5883
  875MOL0     C20625   1.083  11.381   3.686  1.1309  0.1651 -0.0691
  875MOL0     C20626   1.167  11.500   3.727 -0.0249 -0.1423 -0.3088
  875MOL0     C20627   1.145  11.539   3.879 -0.3059  0.0131 -0.9330
  875MOL0     C20628   1.219  11.457   3.990 -0.0796  0.0306 -0.0758
  875MOL0     N20629   1.355  11.398   3.950  0.0409 -0.0575 -0.2172
  875MOL0     C20630   1.460  11.476   3.919 -0.2210 -0.0600  1.0639
  875MOL0     C20631   1.547  11.392   3.865  0.3152  0.0107 -0.5308
  875MOL0     C20632   1.674  11.416   3.789 -0.4477  0.2315 -0.3333
  875MOL0     C20633   1.793  11.451   3.873  0.0180 -0.3459 -0.3395
  875MOL0     C20634   1.818  11.604   3.904  0.3548  0.2899  0.3285
  875MOL0     C20635   1.902  11.630   4.026  0.5300 -0.1053  0.2672
  875MOL0     O20636   2.016  11.552   4.009 -0.0612 -0.0298 -0.1563
  875MOL0     C20637   2.135  11.623   4.030  0.9441 -0.1411 -0.4528
  875MOL0     C20638   2.216  11.640   3.915 -0.0016  0.6203  0.5273
  875MOL0     C20639   2.335  11.722   3.919 -0.0331  0.5897 -0.1703
  875MOL0     C20640   2.416  11.733   3.797  0.3338  0.0188  0.2256
  875MOL0     C20641   2.377  11.773   4.047 -0.1941 -0.0286  0.2194
  875MOL0     C20642   2.501  11.854   4.052  0.4840  0.3178 -0.3713
  875MOL0     O20643   2.613  11.796   4.000  0.0875 -0.2359  0.2493
  875MOL0     C20644   2.736  11.851   3.999 -0.1757 -0.0137 -0.5163
  875MOL0     C20645   2.776  11.984   4.026 -0.0253  0.0042 -0.3949
  875MOL0     C20646   2.912  12.016   4.044  0.5575  0.2499 -0.5600
  875MOL0     C20647   3.015  11.920   4.026 -0.0019 -0.4860 -0.5429
  875MOL0     O20648   3.149  11.956   4.045 -1.1086  0.3408  0.1715
  875MOL0     C20649   3.186  12.040   4.151  0.6548 -0.8424 -0.5819
  875MOL0     C20650   3.299  11.978   4.229 -0.2040 -0.4567 -0.6131
  875MOL0     C20651   3.394  12.096   4.258  0.4998  0.8719  0.0353
  875MOL0     C20652   3.509  12.062   4.339 -0.1934  0.8098  0.7345
  875MOL0     C20653   3.599  12.190   4.359 -0.6699  0.7322  0.9061
  875MOL0     C20654   3.734  12.153   4.421 -0.9702 -0.2493 -0.1838
  875MOL0     C20655   3.819  12.281   4.449  0.7569  0.0809 -0.1630
  875MOL0     C20656   3.965  12.245   4.468  0.8515 -0.7494 -1.3373
  875MOL0    Cl20657   4.022  12.159   4.320 -0.0627 -0.0567 -0.4533
  875MOL0     C20658   2.977  11.797   3.987  0.7537  0.2704 -0.5506
  875MOL0     C20659   2.844  11.761   3.979  0.1035 -0.1283  0.5553
  875MOL0     O20660   2.502  11.943   4.141 -0.2042  0.8137 -0.0359
  875MOL0     C20661   2.305  11.746   4.164 -0.0372 -0.1094  0.3832
  875MOL0     C20662   2.185  11.667   4.154 -0.0223 -0.6629  0.7970
  875MOL0     N20663   1.496  11.264   3.882 -0.1648  0.0122  0.4639
  875MOL0     N20664   1.381  11.264   3.936  0.2671 -0.1522  0.1118
  875MOL0     C20665   0.911  10.804   3.224 -0.0607 -0.1763  0.1677
  875MOL0     C20666   0.814  10.733   3.152  0.2657 -0.5626 -0.4893
  875MOL0     C20667   0.445  10.665   2.872  0.5657 -1.0236  1.1075
  875MOL0     C20668   0.481  10.530   2.889 -0.8758 -0.9957 -0.2640
  875MOL0     C20669   0.416  10.428   2.823  0.5332  1.0770 -0.0629
  875MOL0     C20670   0.303  10.460   2.744 -0.3787  0.7817 -0.3611
  875MOL0     O20671   0.241  10.357   2.687  0.5894 -0.2589 -0.3576
  875MOL0     C20672   0.176  10.371   2.560  1.2036  0.0166 -0.3512
  875MOL0     C20673   0.066  10.272   2.558 -0.0483  0.3185 -1.0774
  875MOL0     C20674  -0.043  10.316   2.655 -0.2882  0.0192 -0.2729
  875MOL0     C20675  -0.126  10.438   2.638  0.4643  0.4214 -0.1651
  875MOL0     C20676  -0.241  10.405   2.547 -0.1417  0.4930  0.1507
  875MOL0     C20677  -0.322  10.392   2.456  0.3334 -0.8641  0.2502
  875MOL0     C20678   0.265  10.591   2.733  0.0199 -0.3065  0.6006
  875MOL0     C20679   0.328  10.700   2.795 -0.2469 -0.7170 -0.2003
  875MOL0     C20680   0.277  10.841   2.777  0.0277 -0.1885 -0.0104
  875MOL0     H20681   0.559  10.958   3.126 -0.9114 -0.7326  2.6350
  875MOL0     H20682   0.721  11.090   3.275  0.9642 -0.6058  2.5190
  875MOL0     H20683   1.150  10.951   3.307  4.8788  3.9051  1.6292
  875MOL0     H20684   1.114  10.896   3.465  1.9804 -0.2428 -0.0927
  875MOL0     H20685   1.255  11.075   3.479  0.3519  1.2326  1.6764
  875MOL0     H20686   1.178  11.167   3.347  2.4924 -1.5656 -0.6439
  875MOL0     H20687   0.961  11.202   3.524  0.2264 -0.9305  2.8833
  875MOL0     H20688   1.076  11.136   3.629  1.3743  1.2367 -0.4580
  875MOL0     H20689   1.234  11.317   3.580 -0.7280  0.6853 -1.5241
  875MOL0     H20690   1.125  11.405   3.476 -1.5017  1.6314  2.0766
  875MOL0     H20691   1.078  11.301   3.760 -1.1590  0.4583  0.1772
  875MOL0     H20692   0.980  11.415   3.669  1.1834  0.2897 -0.1366
  875MOL0     H20693   1.272  11.482   3.702  0.2562  0.0274  0.7152
  875MOL0     H20694   1.134  11.582   3.663 -1.9856 -0.8762 -0.2874
  875MOL0     H20695   1.040  11.518   3.902 -0.1871  2.6599  2.8338
  875MOL0     H20696   1.147  11.646   3.897  2.3376 -0.2997  1.1953
  875MOL0     H20697   1.240  11.516   4.080 -0.8444 -2.9021  2.2040
  875MOL0     H20698   1.162  11.369   4.022 -2.1785  1.8573  1.4963
  875MOL0     H20699   1.462  11.584   3.920 -2.0097  0.1655 -2.4585
  875MOL0     H20700   1.652  11.504   3.728  0.8678  0.0619 -1.0998
  875MOL0     H20701   1.693  11.329   3.725  0.9485  0.8904 -0.8504
  875MOL0     H20702   1.792  11.386   3.961  1.8144  2.1629  1.7014
  875MOL0     H20703   1.881  11.416   3.817  1.2472 -1.5652  2.1830
  875MOL0     H20704   1.868  11.646   3.816  3.2304 -2.3124  0.5253
  875MOL0     H20705   1.727  11.664   3.913 -0.1921 -0.5745  0.6375
  875MOL0     H20706   1.905  11.738   4.041 -1.9041 -0.3977  4.1224
  875MOL0     H20707   1.851  11.595   4.116 -2.0242  0.1248 -1.0160
  875MOL0     H20708   2.168  11.589   3.833 -1.2165 -0.4169  1.8288
  875MOL0     H20709   2.493  11.655   3.795 -0.6889 -1.0176 -0.0011
  875MOL0     H20710   2.448  11.836   3.780  2.8315 -0.8250 -0.5708
  875MOL0     H20711   2.351  11.694   3.718  1.9654 -0.9776 -0.6718
  875MOL0     H20712   2.691  12.049   4.043 -0.6431 -0.9062  0.0596
  875MOL0     H20713   2.933  12.119   4.072 -0.9051  0.7390 -1.1689
  875MOL0     H20714   3.214  12.133   4.101  1.7040 -0.4999  0.6275
  875MOL0     H20715   3.102  12.052   4.219  0.7028  0.2479 -0.7024
  875MOL0     H20716   3.268  11.936   4.324 -1.3883  0.9547 -0.3348
  875MOL0     H20717   3.346  11.898   4.171 -1.0540  0.0234 -2.0040
  875MOL0     H20718   3.340  12.174   4.313  1.4385 -0.1100  2.5135
  875MOL0     H20719   3.427  12.131   4.160 -0.0212  0.4453 -0.2992
  875MOL0     H20720   3.569  11.979   4.301  1.8312  1.8524  1.4753
  875MOL0     H20721   3.472  12.024   4.434 -1.5036 -3.2745 -1.1646
  875MOL0     H20722   3.602  12.233   4.259  1.6192 -1.9641 -0.2963
  875MOL0     H20723   3.550  12.263   4.425 -1.5244  2.6183 -1.6451
  875MOL0     H20724   3.784  12.088   4.349 -0.1597  2.4518 -2.2152
  875MOL0     H20725   3.712  12.100   4.515  1.8213  0.6209  1.0721
  875MOL0     H20726   3.781  12.333   4.537  0.1147 -2.7013  1.3343
  875MOL0     H20727   3.805  12.352   4.368 -2.0397 -0.6506 -0.4154
  875MOL0     H20728   3.972  12.178   4.555  4.1717  2.0385  0.7616
  875MOL0     H20729   4.037  12.324   4.490  0.5876 -0.6351 -0.8702
  875MOL0     H20730   3.056  11.723   3.978  0.4501 -0.4847  2.0173
  875MOL0     H20731   2.815  11.666   3.936  0.0005 -0.1160  0.5963
  875MOL0     H20732   2.337  11.785   4.260  2.1083 -0.6425 -0.0447
  875MOL0     H20733   2.125  11.645   4.241  0.8158  1.2951  1.9216
  875MOL0     H20734   1.005  10.756   3.248 -0.4946 -2.1864 -1.8291
  875MOL0     H20735   0.846  10.632   3.129  3.0295  0.8472 -3.8191
  875MOL0     H20736   0.566  10.511   2.953  1.5094  0.9845 -2.6530
  875MOL0     H20737   0.447  10.324   2.824 -0.4380  0.7871  1.1984
  875MOL0     H20738   0.140  10.468   2.526  1.1529 -0.6219 -2.1990
  875MOL0     H20739   0.250  10.352   2.482  2.3971  2.2735  0.1122
  875MOL0     H20740   0.103  10.182   2.608 -3.4906 -0.5813  0.0806
  875MOL0     H20741   0.036  10.252   2.455 -0.5636 -0.7539 -0.7257
  875MOL0     H20742  -0.111  10.230   2.655 -1.0509  0.6155  0.0579
  875MOL0     H20743   0.000  10.330   2.755  0.7364  0.1066 -0.7163
  875MOL0     H20744  -0.068  10.518   2.590  0.7001 -1.3729 -3.1401
  875MOL0     H20745  -0.177  10.469   2.729  2.1236  1.5464  0.4345
  875MOL0     H20746  -0.392  10.394   2.375  0.0165  2.9465  0.4350
  875MOL0     H20747   0.176  10.619   2.679 -0.7724  0.3820  2.2001
  875MOL0     H20748   0.183  10.845   2.721 -0.5674  0.0683  0.9882
  875MOL0     H20749   0.257  10.887   2.874 -1.1318  0.0956 -0.3694
  875MOL0     H20750   0.341  10.900   2.710  1.1766 -1.7978 -0.3870
  876MOL0     O20751   4.110   7.841   3.973  0.6233 -1.0641 -0.1704
  876MOL0     C20752   4.010   7.908   3.978  0.4548 -0.3866  0.3558
  876MOL0     O20753   3.974   8.005   4.062  0.4196 -0.2543 -0.1337
  876MOL0     C20754   4.055   8.054   4.153 -0.4025 -0.0440 -0.1363
  876MOL0     C20755   4.075   8.192   4.164  0.2703 -0.7797  0.5908
  876MOL0     C20756   4.162   8.252   4.248  0.1763  0.2177 -0.1672
  876MOL0     C20757   4.222   8.171   4.345 -0.3429  0.3026 -0.5674
  876MOL0     O20758   4.297   8.240   4.439  0.3488  0.0145 -0.7485
  876MOL0     C20759   4.395   8.166   4.523 -0.3801 -0.0938 -0.3816
  876MOL0     C20760   4.471   8.272   4.602 -0.1258 -0.2023  0.1505
  876MOL0     C20761   4.388   8.320   4.718 -0.3981  0.9648  1.0303
  876MOL0     C20762   4.475   8.403   4.827 -0.2857  0.0158 -0.1381
  876MOL0     C20763   4.378   8.467   4.917  0.1309 -0.3998 -0.2458
  876MOL0     C20764   4.448   8.587   4.988  0.0011 -1.0252 -0.9452
  876MOL0     C20765   4.582   8.543   5.056  1.1878  1.0099  0.3202
  876MOL0     C20766   4.635   8.645   5.147 -0.3305  0.0157 -0.1081
  876MOL0     N20767   4.682   8.769   5.088 -1.0064 -0.4181  0.7313
  876MOL0     C20768   4.602   8.876   5.065 -0.6017 -1.2373  0.1229
  876MOL0     C20769   4.682   8.984   5.048  0.1162  0.1950 -0.4456
  876MOL0     C20770   4.646   9.128   5.024 -0.2352  0.0091  0.0851
  876MOL0     C20771   4.503   9.168   5.036  0.3639  0.1219 -0.8329
  876MOL0     C20772   4.446   9.169   5.184  0.3045 -0.0819 -0.3045
  876MOL0     C20773   4.454   9.307   5.260  0.8505  0.5007 -0.8057
  876MOL0     O20774   4.574   9.372   5.226  0.5535 -0.2851 -0.2959
  876MOL0     C20775   4.597   9.508   5.222  0.2643  0.9392  0.6880
  876MOL0     C20776   4.511   9.597   5.280  0.2910 -0.2569  0.7823
  876MOL0     C20777   4.528   9.739   5.260  0.0734  0.4977 -0.0509
  876MOL0     C20778   4.420   9.827   5.303  0.7672 -0.4291  0.2626
  876MOL0     C20779   4.651   9.791   5.207 -0.4062  0.7483 -0.6136
  876MOL0     C20780   4.671   9.937   5.196 -0.7294 -0.2520  0.7540
  876MOL0     O20781   4.725   9.988   5.075  0.0056 -0.3451 -0.1904
  876MOL0     C20782   4.738  10.121   5.053 -1.2222  0.2795  0.3050
  876MOL0     C20783   4.847  10.195   5.106  0.2109 -0.2095  0.2393
  876MOL0     C20784   4.866  10.334   5.080  0.1978 -0.4997  0.0498
  876MOL0     C20785   4.769  10.395   4.988  0.1699  0.1121 -0.3295
  876MOL0     O20786   4.772  10.527   4.950  0.3737 -0.4606  0.2931
  876MOL0     C20787   4.884  10.603   4.990 -0.1030  0.2877 -0.0999
  876MOL0     C20788   4.883  10.742   4.928 -0.4474 -0.3983 -0.1607
  876MOL0     C20789   4.992  10.838   4.988  0.1895 -0.4094 -0.1452
  876MOL0     C20790   5.133  10.808   4.945 -0.3070 -0.0146 -0.1697
  876MOL0     C20791   5.236  10.909   5.010  0.5512 -0.2145  0.4640
  876MOL0     C20792   5.374  10.856   4.987 -0.2045  0.3470  0.7369
  876MOL0     C20793   5.472  10.927   5.075  0.6175  0.1025  0.8339
  876MOL0     C20794   5.608  10.870   5.091 -0.0908 -0.1934 -0.6614
  876MOL0    Cl20795   5.698  10.966   5.215 -0.0673 -0.2335 -0.2568
  876MOL0     C20796   4.662  10.319   4.947 -0.3186 -0.5636 -0.2266
  876MOL0     C20797   4.645  10.188   4.982  0.3883 -0.3746  0.5265
  876MOL0     O20798   4.668  10.007   5.300  0.0400  0.7624 -0.2820
  876MOL0     C20799   4.743   9.698   5.147  0.5980  0.3143 -0.2523
  876MOL0     C20800   4.708   9.559   5.147  0.6986 -0.3453  0.1750
  876MOL0     N20801   4.813   8.943   5.060 -0.4465  1.0880  0.2233
  876MOL0     N20802   4.811   8.815   5.084  0.0698  0.5228 -0.4232
  876MOL0     C20803   4.219   8.031   4.334 -0.6769  0.3794 -0.4912
  876MOL0     C20804   4.132   7.968   4.239  0.5276  0.1666  0.1234
  876MOL0     C20805   3.919   7.899   3.860 -0.3673  0.9805 -0.9672
  876MOL0     C20806   3.868   8.022   3.801  0.2484 -0.3351 -0.2700
  876MOL0     C20807   3.782   8.017   3.687 -0.0178  0.8715  0.3401
  876MOL0     C20808   3.742   7.898   3.630 -0.1979  0.1262  1.2672
  876MOL0     O20809   3.651   7.879   3.526 -0.2961  0.0870 -1.4808
  876MOL0     C20810   3.623   7.759   3.458 -0.3472  0.9681  0.0259
  876MOL0     C20811   3.526   7.782   3.349 -0.0376  0.1199 -0.3281
  876MOL0     C20812   3.448   7.658   3.280  0.1073  0.7001  0.2259
  876MOL0     C20813   3.416   7.707   3.143  1.3193 -0.2239  0.6109
  876MOL0     C20814   3.324   7.602   3.085 -0.0235 -0.3617 -0.6620
  876MOL0     C20815   3.245   7.525   3.036  0.1022 -0.3827 -1.2922
  876MOL0     C20816   3.793   7.776   3.685  0.3072 -0.0805  1.5175
  876MOL0     C20817   3.886   7.770   3.794  0.2208 -0.5478 -0.4038
  876MOL0     C20818   3.914   7.647   3.869  0.3741  0.0002  0.1033
  876MOL0     H20819   4.021   8.254   4.093  1.5377 -1.7150 -1.2583
  876MOL0     H20820   4.178   8.360   4.252 -0.3950  0.3149 -0.4007
  876MOL0     H20821   4.468   8.101   4.473  0.9901  0.4139  0.9029
  876MOL0     H20822   4.329   8.099   4.579 -2.5142  2.0990 -0.1495
  876MOL0     H20823   4.567   8.229   4.631 -0.5062 -0.8151  0.5220
  876MOL0     H20824   4.493   8.358   4.538  0.7131  0.2015  0.9557
  876MOL0     H20825   4.309   8.381   4.673 -1.7112 -1.0098  0.5879
  876MOL0     H20826   4.351   8.231   4.769  1.6513 -0.8388 -0.4104
  876MOL0     H20827   4.536   8.334   4.885  0.5364  0.4981 -0.4172
  876MOL0     H20828   4.534   8.480   4.778 -0.3763 -0.3686 -0.8729
  876MOL0     H20829   4.341   8.394   4.990 -1.3351  1.3887  0.8867
  876MOL0     H20830   4.293   8.507   4.861  0.1919  1.9111  1.1740
  876MOL0     H20831   4.462   8.672   4.920 -2.1507 -0.6487 -0.9773
  876MOL0     H20832   4.383   8.624   5.067 -0.2839  0.5483 -1.8755
  876MOL0     H20833   4.660   8.519   4.984 -1.6541  0.7582 -2.9352
  876MOL0     H20834   4.547   8.455   5.110  1.5726  0.4010 -0.4140
  876MOL0     H20835   4.560   8.671   5.222 -1.3371 -1.6384 -0.4932
  876MOL0     H20836   4.706   8.588   5.207 -0.3952 -0.4400 -0.4573
  876MOL0     H20837   4.493   8.885   5.064 -0.5467 -0.0901 -1.8594
  876MOL0     H20838   4.671   9.144   4.919 -1.7752  1.6550 -0.0913
  876MOL0     H20839   4.700   9.198   5.089  0.6951  0.9590 -1.6391
  876MOL0     H20840   4.498   9.263   4.982  0.7801  1.9456  2.1166
  876MOL0     H20841   4.447   9.097   4.974 -1.7226  0.4202  0.6141
  876MOL0     H20842   4.343   9.135   5.173  0.9027 -1.8857 -0.6260
  876MOL0     H20843   4.496   9.092   5.243  0.5705 -0.8215 -1.4670
  876MOL0     H20844   4.380   9.380   5.225  2.2416  1.4222 -1.9698
  876MOL0     H20845   4.436   9.287   5.366 -0.9067 -2.7819 -1.5965
  876MOL0     H20846   4.413   9.561   5.308  0.9184 -0.2930  3.1657
  876MOL0     H20847   4.432   9.847   5.410  2.8418 -2.4787  0.5089
  876MOL0     H20848   4.321   9.782   5.310 -0.2159  1.6962  0.6691
  876MOL0     H20849   4.407   9.915   5.240 -1.3837 -0.6616  0.3130
  876MOL0     H20850   4.916  10.147   5.174 -2.3423  2.1942  5.0815
  876MOL0     H20851   4.939  10.397   5.130 -2.6345  2.8539  0.4183
  876MOL0     H20852   4.853  10.616   5.094 -1.2001  0.6969 -0.4659
  876MOL0     H20853   4.985  10.560   4.983 -0.5807 -1.2432  1.7006
  876MOL0     H20854   4.892  10.733   4.819  0.2837 -1.0309 -0.0599
  876MOL0     H20855   4.790  10.796   4.948 -1.3312 -1.5662 -0.9628
  876MOL0     H20856   4.994  10.843   5.097  0.1400  0.2244 -0.1654
  876MOL0     H20857   4.978  10.941   4.953 -1.5702 -0.4294  0.4088
  876MOL0     H20858   5.138  10.822   4.837  1.3464  0.5390 -0.0573
  876MOL0     H20859   5.162  10.706   4.974 -1.7873  0.4170  3.4027
  876MOL0     H20860   5.227  11.009   4.967  0.0021  0.1882  1.5018
  876MOL0     H20861   5.222  10.911   5.118  3.4935  0.2838  0.9195
  876MOL0     H20862   5.401  10.871   4.882  1.4630 -1.4874  0.8313
  876MOL0     H20863   5.373  10.748   5.008 -0.1705  0.3571  0.7891
  876MOL0     H20864   5.413  10.940   5.166 -2.1259 -1.5061 -0.5599
  876MOL0     H20865   5.494  11.027   5.037  0.3867 -0.4038 -0.7071
  876MOL0     H20866   5.657  10.857   4.994 -2.1053 -1.6308 -1.5800
  876MOL0     H20867   5.602  10.769   5.133 -1.0896  0.0636 -0.1545
  876MOL0     H20868   4.589  10.361   4.878 -1.4075 -0.8204  0.7402
  876MOL0     H20869   4.568  10.126   4.936  0.3832  0.2438 -0.3239
  876MOL0     H20870   4.834   9.727   5.095  1.4885  2.3207  2.2405
  876MOL0     H20871   4.772   9.493   5.089  1.2708  0.5710 -0.2524
  876MOL0     H20872   4.275   7.967   4.401 -0.1308 -0.3687 -1.6445
  876MOL0     H20873   4.119   7.861   4.231 -2.1238  0.5213 -1.3615
  876MOL0     H20874   3.900   8.119   3.838  1.6575 -0.5009 -0.9902
  876MOL0     H20875   3.738   8.107   3.646  1.4213  1.5148  0.1381
  876MOL0     H20876   3.720   7.741   3.410 -1.8536 -1.3642 -2.3828
  876MOL0     H20877   3.587   7.681   3.525 -1.8142  1.0663 -0.6206
  876MOL0     H20878   3.579   7.841   3.274 -1.5128  3.1780  0.8673
  876MOL0     H20879   3.446   7.839   3.397 -2.6359 -3.2756 -0.2362
  876MOL0     H20880   3.505   7.564   3.276 -1.7226 -0.5458  1.7405
  876MOL0     H20881   3.359   7.642   3.341 -0.4125  2.6093  0.0324
  876MOL0     H20882   3.499   7.716   3.072 -0.8557  1.5476 -1.9218
  876MOL0     H20883   3.366   7.804   3.155  0.2367 -0.5471 -1.0172
  876MOL0     H20884   3.171   7.476   2.977 -0.9357  0.0540 -0.3845
  876MOL0     H20885   3.764   7.682   3.639 -0.3143  1.2792 -1.0431
  876MOL0     H20886   4.014   7.607   3.854 -0.2206 -2.3363  1.7413
  876MOL0     H20887   3.905   7.668   3.976 -0.9861  0.7523 -0.1397
  876MOL0     H20888   3.838   7.570   3.853 -2.3479  2.2751  1.1237
  877MOL0     O20889   4.894   8.520   7.505  0.1128  0.4305 -0.6346
  877MOL0     C20890   4.922   8.405   7.467  0.0169 -0.4259  0.4550
  877MOL0     O20891   5.035   8.336   7.502  0.1519  0.3943  0.4503
  877MOL0     C20892   5.110   8.391   7.605  0.1937 -0.6900 -0.0797
  877MOL0     C20893   5.110   8.333   7.730  0.8719 -0.3964 -0.8532
  877MOL0     C20894   5.196   8.384   7.829 -1.2064 -0.6105 -0.5905
  877MOL0     C20895   5.277   8.485   7.797  0.0524 -1.6096 -0.5220
  877MOL0     O20896   5.350   8.544   7.907 -0.3130  0.0102  0.1290
  877MOL0     C20897   5.487   8.552   7.883 -0.7539 -0.0989 -0.4308
  877MOL0     C20898   5.558   8.587   8.009 -0.2294 -0.1013  0.2593
  877MOL0     C20899   5.537   8.482   8.126  0.4917  0.3131 -0.1161
  877MOL0     C20900   5.639   8.525   8.241 -0.5537  0.4035  0.8251
  877MOL0     C20901   5.632   8.441   8.362  0.1176  0.1972  0.0933
  877MOL0     C20902   5.714   8.308   8.365  0.3005  0.9760 -0.3273
  877MOL0     C20903   5.865   8.327   8.375  0.2271 -0.2661  0.8225
  877MOL0     C20904   5.925   8.279   8.503 -0.8566 -1.2009 -0.1705
  877MOL0     N20905   6.066   8.324   8.520 -0.1228 -0.1031  0.4741
  877MOL0     C20906   6.125   8.362   8.634  0.1765 -0.1578 -1.3955
  877MOL0     C20907   6.258   8.375   8.616  0.4813 -0.4569  0.2694
  877MOL0     C20908   6.360   8.419   8.722 -0.2213  0.1115  0.0115
  877MOL0     C20909   6.491   8.347   8.724  0.3521  0.2484 -0.6162
  877MOL0     C20910   6.478   8.192   8.746 -0.2463  0.8730 -0.0282
  877MOL0     C20911   6.570   8.138   8.855  0.2071 -0.1230 -0.0800
  877MOL0     O20912   6.705   8.145   8.798  0.5402 -0.3339 -0.1178
  877MOL0     C20913   6.807   8.088   8.874  0.8768 -0.7676  0.3453
  877MOL0     C20914   6.799   8.004   8.979 -0.3622  0.1259 -0.2895
  877MOL0     C20915   6.921   7.953   9.034  0.0993  1.0277 -0.5430
  877MOL0     C20916   6.895   7.839   9.136 -0.0596 -0.3661 -0.2023
  877MOL0     C20917   7.047   7.990   8.989 -0.7199 -0.4928  1.2531
  877MOL0     C20918   7.175   7.937   9.050 -0.6730 -0.0566  0.7299
  877MOL0     O20919   7.284   7.944   8.960 -0.0188 -0.1575  0.6911
  877MOL0     C20920   7.400   7.890   9.017 -0.0674  0.4593  0.9770
  877MOL0     C20921   7.421   7.749   9.031 -0.9613  0.1235  0.9227
  877MOL0     C20922   7.547   7.706   9.074 -0.3179  0.6223 -0.7047
  877MOL0     C20923   7.652   7.794   9.105 -0.0518 -0.8296 -0.0876
  877MOL0     O20924   7.781   7.772   9.148 -0.1078  0.6794 -0.1331
  877MOL0     C20925   7.796   7.635   9.184 -0.1624  0.2142  0.0038
  877MOL0     C20926   7.918   7.622   9.262 -0.4044 -0.6117 -0.1442
  877MOL0     C20927   8.046   7.640   9.178  0.1097 -0.0835  0.4749
  877MOL0     C20928   8.171   7.691   9.255 -0.4056 -0.5339 -0.7166
  877MOL0     C20929   8.286   7.669   9.159 -0.4479 -0.1608 -0.2278
  877MOL0     C20930   8.417   7.692   9.236 -0.6832  0.2246  0.0179
  877MOL0     C20931   8.539   7.663   9.149 -0.0194  0.4028  0.0064
  877MOL0     C20932   8.548   7.749   9.023  0.0760 -0.4147 -0.1330
  877MOL0    Cl20933   8.700   7.705   8.955 -0.1534  0.0665  0.2642
  877MOL0     C20934   7.626   7.932   9.091 -0.4005 -0.5426 -0.3663
  877MOL0     C20935   7.500   7.977   9.048  0.9441 -0.3398 -0.1872
  877MOL0     O20936   7.188   7.907   9.169  0.1713 -0.3540  0.1400
  877MOL0     C20937   7.047   8.085   8.885  0.2002  0.2168  0.8441
  877MOL0     C20938   6.932   8.134   8.823 -0.1832 -0.4369  0.2789
  877MOL0     N20939   6.285   8.327   8.484 -0.2698  0.2952 -0.8583
  877MOL0     N20940   6.167   8.289   8.436 -0.5430  0.6511 -0.2572
  877MOL0     C20941   5.278   8.543   7.671 -0.4421  0.0307  0.2965
  877MOL0     C20942   5.189   8.500   7.571 -0.1240  0.8484  0.4040
  877MOL0     C20943   4.852   8.343   7.352  0.4240  0.0080 -0.3819
  877MOL0     C20944   4.714   8.317   7.356 -0.2220 -0.3072  0.0108
  877MOL0     C20945   4.643   8.271   7.245  0.2460 -0.0095  0.1270
  877MOL0     C20946   4.700   8.240   7.121  0.1893 -0.2797 -0.0590
  877MOL0     O20947   4.643   8.180   7.016  0.3297 -0.2055 -0.5801
  877MOL0     C20948   4.695   8.055   6.972 -0.5367 -0.1983 -0.3200
  877MOL0     C20949   4.604   7.992   6.870  0.2750 -0.1873 -0.5788
  877MOL0     C20950   4.465   7.967   6.935 -0.3560  0.6128  0.3102
  877MOL0     C20951   4.466   7.826   6.996 -0.5251 -0.3134 -0.2297
  877MOL0     C20952   4.338   7.773   7.034 -0.2648  0.0067  0.1873
  877MOL0     C20953   4.226   7.735   7.068 -0.6382 -0.7950 -0.6164
  877MOL0     C20954   4.835   8.279   7.112  0.2539 -0.8085  0.0007
  877MOL0     C20955   4.912   8.325   7.227 -0.4701  0.0688  0.6478
  877MOL0     C20956   5.064   8.343   7.207  0.2966  0.3367  0.1045
  877MOL0     H20957   5.043   8.259   7.772 -3.7339  5.2404  3.5472
  877MOL0     H20958   5.207   8.343   7.929 -4.7537  0.5324  0.4138
  877MOL0     H20959   5.506   8.637   7.817 -0.5547 -0.3543 -0.7051
  877MOL0     H20960   5.522   8.460   7.835  2.1210  2.2879 -3.3607
  877MOL0     H20961   5.665   8.599   7.987  1.2042 -1.8807  4.9180
  877MOL0     H20962   5.521   8.685   8.043 -1.0630  0.0956 -1.1436
  877MOL0     H20963   5.436   8.488   8.167  0.9784  1.9788  0.9222
  877MOL0     H20964   5.548   8.379   8.090 -3.1138  0.3890 -1.9202
  877MOL0     H20965   5.742   8.521   8.206 -0.2161  1.3252  1.6631
  877MOL0     H20966   5.613   8.627   8.271 -0.3489  0.7747 -0.2344
  877MOL0     H20967   5.528   8.423   8.391  0.1099  1.1543  0.7182
  877MOL0     H20968   5.676   8.506   8.438  2.1863 -1.1645  0.1400
  877MOL0     H20969   5.676   8.261   8.457 -2.4410  5.8105  1.3412
  877MOL0     H20970   5.705   8.255   8.270  0.3211 -0.4785  0.4473
  877MOL0     H20971   5.891   8.431   8.351  0.4672 -0.6675 -0.7725
  877MOL0     H20972   5.913   8.261   8.302 -0.5454  1.3295 -1.1977
  877MOL0     H20973   5.873   8.332   8.583 -0.8286 -3.1420  1.1875
  877MOL0     H20974   5.915   8.171   8.517  0.1236 -1.3219 -0.2827
  877MOL0     H20975   6.078   8.384   8.730 -0.9676  3.7707 -2.6769
  877MOL0     H20976   6.318   8.409   8.823  1.1039  1.8275  0.7779
  877MOL0     H20977   6.376   8.524   8.695 -0.3642 -0.1724 -1.2233
  877MOL0     H20978   6.532   8.361   8.623  0.8522 -1.1775 -0.6429
  877MOL0     H20979   6.555   8.383   8.806 -2.2824 -1.1081  2.2279
  877MOL0     H20980   6.372   8.171   8.766 -0.5808  1.2289 -1.3200
  877MOL0     H20981   6.496   8.132   8.656 -0.0549 -1.1634  1.3050
  877MOL0     H20982   6.572   8.196   8.948  3.9228  1.0570 -0.7263
  877MOL0     H20983   6.541   8.035   8.879  2.0955 -0.1328  2.8078
  877MOL0     H20984   6.713   7.971   9.037  0.2504  2.2416  2.0006
  877MOL0     H20985   6.973   7.762   9.139  1.7011  1.2571 -1.3730
  877MOL0     H20986   6.803   7.783   9.119 -1.7037  1.3862  2.3256
  877MOL0     H20987   6.880   7.895   9.229  0.8372  1.5236 -1.1332
  877MOL0     H20988   7.340   7.692   8.986 -1.7717  2.0139 -0.1350
  877MOL0     H20989   7.565   7.599   9.068  0.0314  0.4956  1.7687
  877MOL0     H20990   7.711   7.600   9.245  1.0276 -2.5620  0.2290
  877MOL0     H20991   7.810   7.576   9.093  3.7655  0.0617  0.5287
  877MOL0     H20992   7.912   7.688   9.348  1.1286  0.7794 -1.0459
  877MOL0     H20993   7.919   7.521   9.303  0.2166  0.0757  1.6268
  877MOL0     H20994   8.023   7.716   9.103 -3.3957 -2.5756 -1.2388
  877MOL0     H20995   8.063   7.548   9.122  1.6911 -0.2427  1.1691
  877MOL0     H20996   8.167   7.616   9.335 -1.6312 -1.3348 -1.5000
  877MOL0     H20997   8.175   7.793   9.295 -1.6753  0.5666 -3.1736
  877MOL0     H20998   8.296   7.569   9.117 -1.4163 -0.3699  0.0159
  877MOL0     H20999   8.281   7.732   9.070 -0.5715 -1.1304 -0.9194
  877MOL0     H21000   8.429   7.636   9.329 -0.7708 -0.7613 -0.5490
  877MOL0     H21001   8.427   7.796   9.268  1.4079  0.5092 -1.3322
  877MOL0     H21002   8.524   7.556   9.131 -1.9690 -0.0732  3.5127
  877MOL0     H21003   8.634   7.673   9.202  0.0051  0.7443 -0.1007
  877MOL0     H21004   8.558   7.858   9.032 -0.1828 -0.3575 -0.5095
  877MOL0     H21005   8.467   7.726   8.953 -0.4276 -0.2211  0.3695
  877MOL0     H21006   7.700   8.010   9.108 -1.1887 -0.1460  1.5075
  877MOL0     H21007   7.483   8.084   9.059  1.7144 -0.1948 -0.3509
  877MOL0     H21008   7.146   8.108   8.848  1.0395 -2.6834  1.0004
  877MOL0     H21009   6.940   8.198   8.736 -0.0669 -1.8856 -0.8246
  877MOL0     H21010   5.331   8.631   7.638 -0.7877  0.4216  0.7677
  877MOL0     H21011   5.187   8.525   7.466  1.4782  0.4917  0.2585
  877MOL0     H21012   4.671   8.332   7.455  1.3129 -2.1685  1.0277
  877MOL0     H21013   4.539   8.247   7.267  0.4010  1.5737  3.0803
  877MOL0     H21014   4.796   8.064   6.930  0.5194 -1.3111  1.8094
  877MOL0     H21015   4.698   7.981   7.053 -0.1642 -1.6900 -1.6492
  877MOL0     H21016   4.649   7.905   6.823 -0.9294 -1.9919  1.4472
  877MOL0     H21017   4.590   8.069   6.792 -1.4895 -1.1400 -1.2733
  877MOL0     H21018   4.438   8.044   7.007 -0.9722  0.1631  0.5622
  877MOL0     H21019   4.386   7.963   6.859 -2.5020  0.0731  2.4551
  877MOL0     H21020   4.535   7.811   7.079  2.2298 -0.2563 -2.3670
  877MOL0     H21021   4.501   7.760   6.916 -1.9985  2.5304 -3.4556
  877MOL0     H21022   4.133   7.684   7.080 -1.3023  0.2880 -0.9345
  877MOL0     H21023   4.896   8.258   7.025  1.1195 -0.3206  0.4747
  877MOL0     H21024   5.085   8.400   7.117  5.1882  2.5572  2.2650
  877MOL0     H21025   5.117   8.396   7.287  4.2507 -3.2479  0.2639
  877MOL0     H21026   5.113   8.245   7.198 -1.1930 -0.7031  2.3179
  878MOL0     O21027   5.430   0.907   0.632  0.4629 -0.5403 -0.6725
  878MOL0     C21028   5.406   1.029   0.630 -0.3183  0.4899 -0.4053
  878MOL0     O21029   5.472   1.115   0.549 -0.1360 -0.0574 -0.0463
  878MOL0     C21030   5.579   1.083   0.478  0.7408 -0.0666  0.0087
  878MOL0     C21031   5.679   1.178   0.474  0.2574 -0.3903 -0.1018
  878MOL0     C21032   5.787   1.163   0.392  0.0737 -0.6545  0.6463
  878MOL0     C21033   5.805   1.048   0.314  0.5024  0.0614 -0.8774
  878MOL0     O21034   5.908   1.029   0.227 -0.3786 -0.1338  0.2675
  878MOL0     C21035   6.007   1.131   0.213 -0.2515 -0.3217  0.3000
  878MOL0     C21036   6.098   1.094   0.090 -0.2733 -0.3153  0.5948
  878MOL0     C21037   6.245   1.140   0.105  0.2275 -0.4159 -0.6969
  878MOL0     C21038   6.333   1.068  -0.004 -0.3949  0.4829  1.2630
  878MOL0     C21039   6.484   1.114   0.007 -0.0666  0.4137  0.1766
  878MOL0     C21040   6.568   1.051  -0.100  0.3295  0.5358  0.8587
  878MOL0     C21041   6.702   1.115  -0.121  0.1137 -0.1823 -0.4956
  878MOL0     C21042   6.793   1.089  -0.008 -0.7558 -0.1290  0.5657
  878MOL0     N21043   6.923   1.160  -0.038 -0.1917  0.3694 -0.4319
  878MOL0     C21044   6.954   1.292  -0.028  0.4706 -0.5779  0.7954
  878MOL0     C21045   7.072   1.313  -0.085 -0.6861  0.1636  0.1173
  878MOL0     C21046   7.150   1.444  -0.100 -0.8171  0.3324  0.2818
  878MOL0     C21047   7.239   1.489   0.024 -0.4237 -0.3149 -0.3149
  878MOL0     C21048   7.307   1.627   0.023  0.0998 -0.0507 -0.3592
  878MOL0     C21049   7.402   1.652  -0.097  0.1528 -0.1917  0.7948
  878MOL0     O21050   7.509   1.561  -0.087  0.1720  0.1781 -0.7950
  878MOL0     C21051   7.615   1.567  -0.174  0.3823  0.0527  0.1613
  878MOL0     C21052   7.745   1.550  -0.125 -0.2128  0.1958 -0.6962
  878MOL0     C21053   7.852   1.541  -0.212 -0.1696 -0.0630 -0.0090
  878MOL0     C21054   7.982   1.489  -0.150  0.0837 -0.2305 -0.6228
  878MOL0     C21055   7.832   1.571  -0.341 -0.2627 -0.0519  0.2686
  878MOL0     C21056   7.956   1.581  -0.429  0.4314  0.5765  0.5980
  878MOL0     O21057   8.055   1.656  -0.381  0.6522 -0.9775  0.1141
  878MOL0     C21058   8.155   1.695  -0.464  0.2564 -0.6930  0.9098
  878MOL0     C21059   8.143   1.832  -0.522 -0.3879  0.1364 -0.4839
  878MOL0     C21060   8.251   1.875  -0.603  0.1951  0.0971 -0.8360
  878MOL0     C21061   8.367   1.800  -0.620  0.1328 -0.0820 -0.2218
  878MOL0     O21062   8.467   1.847  -0.693 -0.1149  0.5982  0.0186
  878MOL0     C21063   8.600   1.804  -0.662 -0.2164  0.4706  0.3502
  878MOL0     C21064   8.685   1.897  -0.739 -0.7441  0.4887  0.3172
  878MOL0     C21065   8.837   1.857  -0.751 -0.0102 -0.3818 -0.7429
  878MOL0     C21066   8.893   1.874  -0.895 -0.4859  0.2961 -0.5721
  878MOL0     C21067   9.034   1.816  -0.910 -0.1255 -0.4023 -0.6096
  878MOL0     C21068   9.074   1.802  -1.052  0.1524 -0.0084  0.4044
  878MOL0     C21069   9.225   1.782  -1.090  0.9598 -0.4559 -0.6109
  878MOL0     C21070   9.272   1.643  -1.088 -0.0052  0.0240  0.4645
  878MOL0    Cl21071   9.278   1.553  -0.931  0.0210  0.1138 -0.1391
  878MOL0     C21072   8.375   1.667  -0.573  0.4322  0.6465  0.0224
  878MOL0     C21073   8.266   1.621  -0.490 -0.4804 -0.0209 -0.1724
  878MOL0     O21074   7.952   1.523  -0.539  0.1733 -0.8152 -0.6151
  878MOL0     C21075   7.706   1.602  -0.395  0.3369  0.2851 -0.4353
  878MOL0     C21076   7.598   1.597  -0.312  0.4441  0.6999 -0.4984
  878MOL0     N21077   7.121   1.184  -0.121  0.8804 -0.3542  0.0419
  878MOL0     N21078   7.031   1.104  -0.098 -0.2320  0.1482 -0.9243
  878MOL0     C21079   5.704   0.949   0.312  0.7458 -0.4891 -0.5715
  878MOL0     C21080   5.593   0.969   0.404  0.0037  0.6698  0.4239
  878MOL0     C21081   5.298   1.083   0.717  0.2954  0.5477 -0.9017
  878MOL0     C21082   5.218   1.199   0.670  0.3200 -0.0252 -0.0579
  878MOL0     C21083   5.102   1.243   0.737  0.1021  0.0211  0.9886
  878MOL0     C21084   5.050   1.181   0.854 -0.0654 -0.2548  0.2788
  878MOL0     O21085   4.944   1.218   0.929  0.3510  0.0456 -0.1941
  878MOL0     C21086   4.886   1.350   0.901  0.3206 -0.9927 -0.2678
  878MOL0     C21087   4.941   1.451   1.005  0.6354  0.3590  0.4738
  878MOL0     C21088   4.852   1.575   1.017  0.1020  1.4991 -0.3668
  878MOL0     C21089   4.911   1.666   1.114 -1.1690 -0.2700 -0.1067
  878MOL0     C21090   4.832   1.792   1.104 -0.1259  0.3328  0.5010
  878MOL0     C21091   4.760   1.889   1.096 -0.3979 -0.2026  0.0830
  878MOL0     C21092   5.128   1.079   0.903 -0.3307  0.4980 -0.5465
  878MOL0     C21093   5.245   1.028   0.835 -0.1879 -0.6504  0.4195
  878MOL0     C21094   5.307   0.909   0.893 -0.2692 -0.4037  0.3667
  878MOL0     H21095   5.671   1.264   0.540 -0.8323 -2.0148  2.0131
  878MOL0     H21096   5.860   1.244   0.398 -1.3731  0.7821 -0.1293
  878MOL0     H21097   6.056   1.137   0.311  1.9984 -2.5781 -0.5564
  878MOL0     H21098   5.964   1.226   0.181  1.6574  0.3188 -0.5446
  878MOL0     H21099   6.099   0.985   0.078  0.0354 -0.3948  1.2722
  878MOL0     H21100   6.050   1.125  -0.003 -0.3432 -1.9478  0.0522
  878MOL0     H21101   6.261   1.248   0.106 -0.3045 -0.3380 -0.3589
  878MOL0     H21102   6.285   1.105   0.201 -1.9413 -1.5956 -0.1756
  878MOL0     H21103   6.328   0.959   0.005  0.7686  0.5798  4.1125
  878MOL0     H21104   6.293   1.096  -0.102 -0.0745  1.4875  1.4082
  878MOL0     H21105   6.522   1.106   0.109 -0.7071  1.5174  0.5181
  878MOL0     H21106   6.476   1.221  -0.014 -2.0650  0.2136 -0.3078
  878MOL0     H21107   6.585   0.946  -0.075  3.2343  0.1885 -1.9433
  878MOL0     H21108   6.512   1.056  -0.194  4.0208 -0.6134 -1.6473
  878MOL0     H21109   6.681   1.221  -0.135 -0.9370 -0.5458 -1.8402
  878MOL0     H21110   6.751   1.083  -0.213 -2.4439  2.1323 -2.8588
  878MOL0     H21111   6.756   1.130   0.086  0.0611  0.7556  0.5156
  878MOL0     H21112   6.817   0.984   0.012  0.9050  0.2596  0.8218
  878MOL0     H21113   6.881   1.364   0.007  2.5960  2.1114  0.0571
  878MOL0     H21114   7.078   1.520  -0.133 -0.8466 -0.7925 -2.5092
  878MOL0     H21115   7.226   1.424  -0.175  0.9754  1.1417  1.8113
  878MOL0     H21116   7.187   1.488   0.119 -0.3112 -1.4784 -0.2516
  878MOL0     H21117   7.315   1.411   0.037  0.0993  0.3464  0.7250
  878MOL0     H21118   7.222   1.697   0.019  0.1511  0.6121  4.2680
  878MOL0     H21119   7.353   1.643   0.121  1.4170  2.5199 -1.3097
  878MOL0     H21120   7.338   1.639  -0.185 -1.6067  3.0972  1.4359
  878MOL0     H21121   7.435   1.756  -0.096  4.6304 -1.3468 -1.4414
  878MOL0     H21122   7.757   1.540  -0.017  1.1120  1.5702 -0.6874
  878MOL0     H21123   7.975   1.491  -0.041  0.5168  0.1027 -0.5978
  878MOL0     H21124   8.072   1.549  -0.167  0.0178  0.8574  2.4312
  878MOL0     H21125   8.000   1.383  -0.172  0.6808 -0.1367 -0.6028
  878MOL0     H21126   8.056   1.893  -0.500  0.5086  1.9922 -1.8092
  878MOL0     H21127   8.248   1.971  -0.653  1.8524  0.4254 -0.3707
  878MOL0     H21128   8.626   1.800  -0.556  1.0276  0.6136  0.0641
  878MOL0     H21129   8.615   1.705  -0.706 -0.7409  1.1908 -1.5955
  878MOL0     H21130   8.649   1.915  -0.840  3.7529 -0.2619 -1.6729
  878MOL0     H21131   8.675   1.986  -0.675 -1.3659 -0.7356  2.0075
  878MOL0     H21132   8.852   1.751  -0.727  4.1241  0.6259  2.1880
  878MOL0     H21133   8.907   1.915  -0.691  0.3211 -0.0252 -1.4577
  878MOL0     H21134   8.886   1.979  -0.922 -3.0429  0.6300  0.9391
  878MOL0     H21135   8.835   1.809  -0.961  1.1770 -0.8613 -0.9363
  878MOL0     H21136   9.097   1.897  -0.873 -2.5671  1.4528 -0.2652
  878MOL0     H21137   9.042   1.724  -0.851 -3.0257 -0.0629  0.4578
  878MOL0     H21138   9.050   1.894  -1.106  2.1954  0.6447  0.5024
  878MOL0     H21139   9.018   1.720  -1.099 -1.1806  2.1908 -2.1100
  878MOL0     H21140   9.280   1.848  -1.022 -0.8785  1.7045 -1.1360
  878MOL0     H21141   9.248   1.826  -1.187 -2.7379  1.6828 -0.7031
  878MOL0     H21142   9.376   1.646  -1.121  0.2581 -2.4830  0.8781
  878MOL0     H21143   9.208   1.591  -1.159 -0.3357 -0.8638  1.3800
  878MOL0     H21144   8.451   1.597  -0.605 -0.2202 -0.3046  0.4848
  878MOL0     H21145   8.267   1.513  -0.475 -0.1643 -0.2185 -1.4844
  878MOL0     H21146   7.691   1.625  -0.500 -2.7910  3.4310  0.5114
  878MOL0     H21147   7.499   1.617  -0.352 -0.4163  3.4356  2.5086
  878MOL0     H21148   5.702   0.863   0.246  0.9055 -0.4282 -0.6552
  878MOL0     H21149   5.507   0.902   0.396  0.6896 -0.1910  0.0503
  878MOL0     H21150   5.249   1.242   0.575 -1.3041 -0.5821 -0.8903
  878MOL0     H21151   5.049   1.323   0.686  3.2150  0.2849 -2.1894
  878MOL0     H21152   4.897   1.391   0.801 -4.1389  1.6144  0.0283
  878MOL0     H21153   4.777   1.350   0.910  0.0705  1.3937 -2.2387
  878MOL0     H21154   5.037   1.492   0.975 -0.3210  1.7522 -0.8406
  878MOL0     H21155   4.946   1.413   1.107 -1.0861 -0.4166  0.3191
  878MOL0     H21156   4.838   1.623   0.919  0.5749  1.8361 -0.2734
  878MOL0     H21157   4.757   1.539   1.057  1.9309  0.4354  3.4774
  878MOL0     H21158   5.017   1.690   1.099 -0.7128  0.2999  3.3452
  878MOL0     H21159   4.907   1.641   1.220  0.7017  0.3751  0.1480
  878MOL0     H21160   4.687   1.967   1.085 -0.0644  0.0614 -0.2884
  878MOL0     H21161   5.099   1.014   0.985 -0.1288  1.5164  0.3523
  878MOL0     H21162   5.288   0.899   1.001  0.1011  1.8747  0.6778
  878MOL0     H21163   5.258   0.822   0.848 -4.0341  2.4382 -1.5403
  878MOL0     H21164   5.416   0.902   0.882  0.2755 -2.1034  4.6273
  879MOL0     O21165   4.933   8.930   0.347  0.5030 -0.2863  0.4940
  879MOL0     C21166   4.891   8.817   0.343  0.4409 -0.1759  0.3615
  879MOL0     O21167   4.914   8.715   0.432  0.3118  0.0465  0.5270
  879MOL0     C21168   5.034   8.715   0.490 -0.1125 -0.6448 -0.2428
  879MOL0     C21169   5.127   8.616   0.452 -1.2077  0.0801 -1.3249
  879MOL0     C21170   5.251   8.603   0.513  0.0093 -0.2534  0.2357
  879MOL0     C21171   5.288   8.705   0.613  0.8641  0.8584  0.1196
  879MOL0     O21172   5.410   8.703   0.665 -0.3542 -0.9454 -1.1686
  879MOL0     C21173   5.423   8.724   0.807 -0.8885 -0.2510  0.0910
  879MOL0     C21174   5.529   8.633   0.876 -0.6385 -0.2228  0.4392
  879MOL0     C21175   5.529   8.628   1.029 -0.5574 -0.8820  0.3865
  879MOL0     C21176   5.634   8.533   1.081  1.4866 -0.0435 -0.2671
  879MOL0     C21177   5.580   8.388   1.096 -0.0382 -0.0526 -0.4730
  879MOL0     C21178   5.666   8.296   1.183 -0.5503 -0.0212 -0.8604
  879MOL0     C21179   5.716   8.351   1.324 -0.3341 -0.1460 -0.5526
  879MOL0     C21180   5.608   8.406   1.415  0.0942 -0.2100 -0.9335
  879MOL0     N21181   5.570   8.313   1.524 -0.8975 -0.1774 -0.7733
  879MOL0     C21182   5.654   8.282   1.628 -0.1030  0.5667  0.6774
  879MOL0     C21183   5.575   8.236   1.725 -0.0651 -0.1244  0.6016
  879MOL0     C21184   5.611   8.176   1.854  0.2469  0.3473  0.4254
  879MOL0     C21185   5.693   8.271   1.939  0.4225 -0.0254 -0.5914
  879MOL0     C21186   5.739   8.197   2.066 -0.0538 -0.4277 -0.4781
  879MOL0     C21187   5.822   8.288   2.161  0.8590  0.2130  0.2196
  879MOL0     O21188   5.848   8.230   2.284 -0.3248 -0.5694 -0.5247
  879MOL0     C21189   5.904   8.302   2.378 -0.4177 -0.7640  0.1019
  879MOL0     C21190   5.908   8.249   2.510 -0.4242 -0.3777  0.0759
  879MOL0     C21191   5.967   8.321   2.618  0.3243  0.0907 -0.1824
  879MOL0     C21192   5.989   8.246   2.744 -0.5202  0.5652  0.3199
  879MOL0     C21193   6.015   8.454   2.599 -0.1190 -0.2253  0.4799
  879MOL0     C21194   6.064   8.545   2.715  0.7708  0.8461  0.2054
  879MOL0     O21195   5.986   8.557   2.835  1.4340 -0.4958  0.3121
  879MOL0     C21196   6.026   8.659   2.909  0.3500 -0.2474 -0.8151
  879MOL0     C21197   5.959   8.782   2.933 -0.3773 -0.4978  0.1661
  879MOL0     C21198   6.021   8.891   2.998  0.0431  0.0824  0.3475
  879MOL0     C21199   6.156   8.879   3.039  1.4814  0.4022  0.5323
  879MOL0     O21200   6.235   8.975   3.093 -0.3135 -0.0984  0.5121
  879MOL0     C21201   6.206   9.116   3.094 -0.5277  0.5499 -0.6046
  879MOL0     C21202   6.335   9.202   3.065 -0.0078  0.0125 -0.4110
  879MOL0     C21203   6.409   9.150   2.938 -0.0965 -0.8193 -0.0430
  879MOL0     C21204   6.542   9.233   2.923  0.5983 -0.2629 -0.5432
  879MOL0     C21205   6.601   9.186   2.791 -0.4079  0.1410  0.9467
  879MOL0     C21206   6.741   9.231   2.749 -0.7647 -0.2694 -0.4098
  879MOL0     C21207   6.850   9.164   2.827  0.1347  0.6605 -0.5056
  879MOL0     C21208   6.985   9.203   2.767 -0.0713 -1.0436 -0.0455
  879MOL0    Cl21209   7.029   9.100   2.636 -0.8831 -0.1791 -0.3250
  879MOL0     C21210   6.213   8.753   3.025  0.2063 -0.5861  0.6788
  879MOL0     C21211   6.159   8.643   2.957  0.2905  0.0377  0.3940
  879MOL0     O21212   6.160   8.608   2.683 -0.0787 -0.3090 -0.7798
  879MOL0     C21213   6.022   8.500   2.467 -0.6912 -0.7565  0.5602
  879MOL0     C21214   5.964   8.429   2.359 -0.4516  0.9151  0.8294
  879MOL0     N21215   5.443   8.255   1.680  0.2041 -0.6695 -0.6409
  879MOL0     N21216   5.435   8.294   1.558  0.6018 -0.6018  0.3654
  879MOL0     C21217   5.190   8.800   0.655  0.4990 -1.0302  0.6010
  879MOL0     C21218   5.067   8.806   0.590  1.7032 -0.6829  0.4466
  879MOL0     C21219   4.788   8.800   0.241 -1.3745  0.1859  0.0927
  879MOL0     C21220   4.684   8.887   0.231 -0.2839  0.0417  0.1753
  879MOL0     C21221   4.595   8.881   0.121  1.0609  0.0796  0.5369
  879MOL0     C21222   4.591   8.766   0.030 -0.0083 -0.6277  0.3249
  879MOL0     O21223   4.513   8.756  -0.084 -0.1465 -0.6199 -0.0180
  879MOL0     C21224   4.503   8.873  -0.166  0.5838  0.0367 -0.2949
  879MOL0     C21225   4.404   8.862  -0.280 -0.0893 -0.2209  0.4896
  879MOL0     C21226   4.264   8.808  -0.228  0.0110 -0.2364 -0.1291
  879MOL0     C21227   4.163   8.808  -0.334  0.5571 -0.2626 -0.1625
  879MOL0     C21228   4.049   8.725  -0.302  0.0116  0.4409 -0.1232
  879MOL0     C21229   3.967   8.649  -0.269  0.7814 -1.6354 -0.6009
  879MOL0     C21230   4.687   8.674   0.052  0.5892  0.6941 -0.0901
  879MOL0     C21231   4.785   8.683   0.156 -0.4674 -0.1596 -0.3880
  879MOL0     C21232   4.872   8.564   0.171 -0.2572  0.7778 -0.3500
  879MOL0     H21233   5.109   8.531   0.387  3.0861 -1.9466 -0.2281
  879MOL0     H21234   5.316   8.517   0.494 -1.5185 -1.9298  2.1877
  879MOL0     H21235   5.330   8.704   0.861  0.1672 -2.1038  1.3505
  879MOL0     H21236   5.450   8.829   0.815  0.8605 -0.4966 -1.7705
  879MOL0     H21237   5.525   8.533   0.833  0.9548 -0.7528  1.4177
  879MOL0     H21238   5.624   8.673   0.838  1.1863 -3.8789  0.7024
  879MOL0     H21239   5.548   8.729   1.065 -1.3273 -0.2392 -0.9191
  879MOL0     H21240   5.433   8.599   1.073 -0.7270 -2.1901 -0.7682
  879MOL0     H21241   5.724   8.530   1.018 -0.2320 -0.4892 -2.8803
  879MOL0     H21242   5.654   8.572   1.181 -0.1538 -0.7211  0.3619
  879MOL0     H21243   5.585   8.348   0.995  1.0583 -2.9645  0.6216
  879MOL0     H21244   5.478   8.390   1.135  0.6774 -1.8327  1.7024
  879MOL0     H21245   5.607   8.205   1.198  0.2890 -0.2319  1.8155
  879MOL0     H21246   5.752   8.264   1.122  0.0741 -3.8286  1.6326
  879MOL0     H21247   5.779   8.440   1.316 -1.7058  0.9295  0.2048
  879MOL0     H21248   5.774   8.273   1.373 -1.0852 -0.7271 -0.5625
  879MOL0     H21249   5.640   8.502   1.457 -2.6005 -0.9888  3.5975
  879MOL0     H21250   5.521   8.434   1.356 -0.3654 -2.3084 -1.3235
  879MOL0     H21251   5.762   8.295   1.624 -0.0628 -0.0025 -1.4474
  879MOL0     H21252   5.657   8.079   1.836  1.4567  0.7032  1.4769
  879MOL0     H21253   5.516   8.169   1.908  0.6802  2.1025  1.4974
  879MOL0     H21254   5.781   8.310   1.888  0.9779 -1.6570 -0.9588
  879MOL0     H21255   5.629   8.356   1.964  1.1150  1.3528 -3.1955
  879MOL0     H21256   5.642   8.164   2.107 -0.3107  1.1501  0.2397
  879MOL0     H21257   5.794   8.106   2.038  0.9951  0.3838 -1.1091
  879MOL0     H21258   5.910   8.311   2.101 -0.0373 -2.8419 -2.5919
  879MOL0     H21259   5.756   8.373   2.180 -2.1784 -1.5963 -1.3189
  879MOL0     H21260   5.866   8.151   2.530 -1.8401  0.1985  0.0889
  879MOL0     H21261   6.065   8.288   2.811  1.6545 -1.6009 -0.6626
  879MOL0     H21262   6.044   8.154   2.724  0.0589  1.2152 -1.2876
  879MOL0     H21263   5.895   8.228   2.796 -1.0849  0.4023 -0.7419
  879MOL0     H21264   5.856   8.789   2.901 -0.4828  0.6177  0.6938
  879MOL0     H21265   5.965   8.984   2.998  1.1504  0.8627 -2.4025
  879MOL0     H21266   6.137   9.126   3.009 -3.5065 -0.8206  1.4638
  879MOL0     H21267   6.145   9.152   3.177 -1.1637 -1.6237 -0.0812
  879MOL0     H21268   6.304   9.306   3.058 -4.0367 -0.7847  2.3092
  879MOL0     H21269   6.394   9.203   3.156  0.0133  3.2684 -0.3469
  879MOL0     H21270   6.337   9.162   2.856 -2.4089  2.9899  2.2648
  879MOL0     H21271   6.434   9.044   2.951 -0.8128 -1.5747 -3.6880
  879MOL0     H21272   6.606   9.193   3.001 -2.5850 -2.1354  1.3162
  879MOL0     H21273   6.527   9.341   2.916 -1.3508 -0.5001 -0.7045
  879MOL0     H21274   6.611   9.078   2.782  1.6491  0.3393  0.4646
  879MOL0     H21275   6.538   9.226   2.710  2.2098 -2.0176 -2.4196
  879MOL0     H21276   6.752   9.339   2.759  0.1759 -0.3789 -0.2158
  879MOL0     H21277   6.757   9.217   2.642  2.2178  0.0544 -0.0833
  879MOL0     H21278   6.830   9.056   2.824  0.4434  0.6155 -1.4726
  879MOL0     H21279   6.846   9.198   2.930 -3.5826 -0.9088  0.0162
  879MOL0     H21280   7.057   9.203   2.849 -0.9116 -1.1463  0.7185
  879MOL0     H21281   6.981   9.300   2.718  2.4271 -1.3123 -0.9287
  879MOL0     H21282   6.313   8.750   3.068  0.2073  2.7651  1.1611
  879MOL0     H21283   6.212   8.551   2.937  1.1876 -0.0448  2.8920
  879MOL0     H21284   6.054   8.601   2.443  0.2968 -1.5619 -1.8800
  879MOL0     H21285   5.972   8.475   2.261 -1.7201  0.6161  0.5774
  879MOL0     H21286   5.218   8.875   0.729  0.2892 -1.3893  1.0497
  879MOL0     H21287   5.014   8.897   0.616  2.9015 -0.1724  1.1639
  879MOL0     H21288   4.676   8.970   0.300  0.2629  0.0875  0.1904
  879MOL0     H21289   4.530   8.967   0.111  0.1764 -0.6732 -0.3794
  879MOL0     H21290   4.469   8.954  -0.100 -2.7983 -4.5317  4.3624
  879MOL0     H21291   4.604   8.888  -0.206  1.6099  3.0034  2.8964
  879MOL0     H21292   4.440   8.780  -0.342 -1.4560  1.1365 -2.2683
  879MOL0     H21293   4.400   8.955  -0.339 -0.2483  0.7082  1.9100
  879MOL0     H21294   4.275   8.706  -0.189  1.8433 -0.4879 -1.2334
  879MOL0     H21295   4.234   8.871  -0.143  1.1282  0.2953 -0.1072
  879MOL0     H21296   4.201   8.775  -0.431  0.9806 -0.9052  0.2134
  879MOL0     H21297   4.123   8.910  -0.339  0.8513  0.0402  2.3082
  879MOL0     H21298   3.895   8.582  -0.226 -0.7167 -1.8004 -3.1692
  879MOL0     H21299   4.676   8.585  -0.009 -0.4909 -1.1113  2.5317
  879MOL0     H21300   4.829   8.479   0.116 -0.8468  1.5645 -1.1193
  879MOL0     H21301   4.977   8.581   0.148  0.6942 -2.7140  0.7480
  879MOL0     H21302   4.863   8.543   0.278  0.2970 -0.4080 -0.5228
  880MOL0     O21303  10.094   0.569   8.573  0.0967  0.0261 -0.2866
  880MOL0     C21304  10.153   0.479   8.627 -0.1196 -0.2114 -0.2091
  880MOL0     O21305  10.110   0.351   8.652  0.3502  0.6759  0.5672
  880MOL0     C21306   9.996   0.311   8.587  0.2364  0.3662 -0.8796
  880MOL0     C21307   9.980   0.322   8.449  0.2105 -0.4843 -0.4180
  880MOL0     C21308   9.879   0.277   8.372 -0.1253  0.0514 -0.6060
  880MOL0     C21309   9.781   0.195   8.435 -0.7487 -0.4404  0.0855
  880MOL0     O21310   9.668   0.146   8.382  0.1130  0.4132 -0.7034
  880MOL0     C21311   9.637   0.150   8.245  0.3519  0.4280  0.1275
  880MOL0     C21312   9.718   0.034   8.187 -0.2216  0.4727  0.1113
  880MOL0     C21313   9.668  -0.100   8.227  0.1585  0.4572 -1.1533
  880MOL0     C21314   9.682  -0.133   8.375 -0.4384 -0.1103 -0.0272
  880MOL0     C21315   9.668  -0.282   8.416 -0.9165  0.7519  0.1043
  880MOL0     C21316   9.663  -0.305   8.559 -0.1660 -0.4136 -0.7728
  880MOL0     C21317   9.768  -0.228   8.633  0.1297  0.6514 -0.6631
  880MOL0     C21318   9.794  -0.290   8.772 -0.2043 -0.6935  0.0428
  880MOL0     N21319   9.867  -0.413   8.761  0.5075  0.2668 -0.3323
  880MOL0     C21320   9.998  -0.430   8.739 -0.4517 -0.0334  0.6690
  880MOL0     C21321  10.022  -0.564   8.747 -0.4535  0.1612  0.2700
  880MOL0     C21322  10.157  -0.631   8.733 -0.0475  0.4861  0.0978
  880MOL0     C21323  10.210  -0.659   8.592  0.2449 -0.0529 -0.1432
  880MOL0     C21324  10.314  -0.768   8.594  0.3826 -0.3571 -0.0433
  880MOL0     C21325  10.383  -0.778   8.461  0.3195 -0.2219  0.5378
  880MOL0     O21326  10.473  -0.664   8.437 -1.0357 -0.0397  0.4739
  880MOL0     C21327  10.571  -0.677   8.339  0.0693 -0.5229 -0.1248
  880MOL0     C21328  10.572  -0.779   8.253 -0.2717  1.0360 -0.5288
  880MOL0     C21329  10.670  -0.809   8.162 -0.6911  0.0830 -0.3848
  880MOL0     C21330  10.647  -0.920   8.065 -0.5154  0.1323 -1.1815
  880MOL0     C21331  10.786  -0.724   8.157 -0.5752 -0.4007 -0.3213
  880MOL0     C21332  10.909  -0.755   8.077 -1.2562  0.2441  0.2659
  880MOL0     O21333  11.003  -0.656   8.064  0.2313  0.3004 -0.1413
  880MOL0     C21334  11.107  -0.662   7.984  0.4532  0.5120  0.4571
  880MOL0     C21335  11.128  -0.741   7.871 -0.6325  0.4852 -0.4353
  880MOL0     C21336  11.257  -0.739   7.813 -0.2445  0.0017  0.1916
  880MOL0     C21337  11.368  -0.665   7.861 -0.0244  0.0106 -0.1835
  880MOL0     O21338  11.495  -0.665   7.800  0.4258  0.1844  0.5011
  880MOL0     C21339  11.535  -0.767   7.709 -0.0881 -0.9079  1.0020
  880MOL0     C21340  11.480  -0.742   7.569 -0.4405  0.1053 -0.1968
  880MOL0     C21341  11.491  -0.865   7.482  0.0626 -0.9472  0.4443
  880MOL0     C21342  11.386  -0.973   7.519 -0.4474 -0.8603 -0.2802
  880MOL0     C21343  11.394  -1.093   7.425  0.0652  0.4703  0.3765
  880MOL0     C21344  11.523  -1.174   7.431 -0.0783  0.0610  0.1546
  880MOL0     C21345  11.543  -1.292   7.339  0.1000  0.5267  0.0043
  880MOL0     C21346  11.585  -1.258   7.199  0.0497 -0.0010 -0.3142
  880MOL0    Cl21347  11.759  -1.219   7.185  0.5872  0.4512  0.6019
  880MOL0     C21348  11.341  -0.583   7.968  0.6222  0.2715  0.2575
  880MOL0     C21349  11.212  -0.579   8.024 -0.2398  0.0181 -0.4613
  880MOL0     O21350  10.937  -0.870   8.049  0.1184 -0.0105  0.4056
  880MOL0     C21351  10.794  -0.611   8.250  0.3301 -0.3578  0.3482
  880MOL0     C21352  10.684  -0.590   8.334  0.3777  0.1085 -0.1445
  880MOL0     N21353   9.906  -0.621   8.781  0.0217  0.7417  0.6638
  880MOL0     N21354   9.811  -0.534   8.779 -0.2475 -0.9226  0.1121
  880MOL0     C21355   9.803   0.169   8.573 -0.8752  0.4384  1.0689
  880MOL0     C21356   9.901   0.235   8.647  0.4407  0.2294  0.2528
  880MOL0     C21357  10.281   0.520   8.691  0.1524  0.8768 -0.1696
  880MOL0     C21358  10.348   0.410   8.755  0.3919 -0.2856 -0.0273
  880MOL0     C21359  10.467   0.434   8.825  0.8519 -1.1519 -0.0331
  880MOL0     C21360  10.517   0.565   8.847  0.5944  0.1699  0.2973
  880MOL0     O21361  10.632   0.603   8.915  0.2905  0.3863  0.4458
  880MOL0     C21362  10.720   0.496   8.956 -0.6242 -0.7020  0.7067
  880MOL0     C21363  10.837   0.556   9.034  0.1600  0.2861 -0.1622
  880MOL0     C21364  10.953   0.459   9.059  0.1661 -0.0417  0.0212
  880MOL0     C21365  11.052   0.515   9.164 -1.1341  0.3611  0.7171
  880MOL0     C21366  11.167   0.420   9.187 -1.0559 -0.2448  0.0926
  880MOL0     C21367  11.258   0.340   9.210  0.4825 -0.6251 -0.2588
  880MOL0     C21368  10.452   0.669   8.782  0.3076  0.4462 -0.9312
  880MOL0     C21369  10.330   0.650   8.710 -1.0975  0.5356 -0.5716
  880MOL0     C21370  10.280   0.771   8.645  0.2105  0.2759 -0.1411
  880MOL0     H21371  10.056   0.379   8.396  0.8655  1.0045  1.9898
  880MOL0     H21372   9.878   0.312   8.269 -1.5606  2.6429  0.1932
  880MOL0     H21373   9.659   0.248   8.201 -0.0899  1.0225  1.2018
  880MOL0     H21374   9.532   0.123   8.228  0.0843  0.9624  0.8901
  880MOL0     H21375   9.707   0.047   8.079 -0.6760 -3.2325 -0.4014
  880MOL0     H21376   9.825   0.055   8.197 -0.1719  1.2355 -1.6844
  880MOL0     H21377   9.562  -0.102   8.202 -0.4797  0.9799  1.2312
  880MOL0     H21378   9.712  -0.187   8.178  0.1988 -1.2880  1.7326
  880MOL0     H21379   9.776  -0.089   8.412 -0.5808  0.1551  0.0239
  880MOL0     H21380   9.606  -0.079   8.432  0.1420  1.3383 -0.5506
  880MOL0     H21381   9.755  -0.330   8.371 -2.3325 -1.3127 -0.5941
  880MOL0     H21382   9.585  -0.329   8.361 -0.0774  1.1249 -1.5509
  880MOL0     H21383   9.564  -0.278   8.597  0.8841  1.4744  0.8057
  880MOL0     H21384   9.676  -0.412   8.579 -0.5841 -0.2999  0.1887
  880MOL0     H21385   9.728  -0.127   8.647  0.1025  0.5163  0.3114
  880MOL0     H21386   9.869  -0.214   8.593  2.4982  0.9458  4.5561
  880MOL0     H21387   9.852  -0.221   8.834 -1.8455  0.7526  0.0355
  880MOL0     H21388   9.695  -0.307   8.815 -0.5296 -2.4901 -1.3009
  880MOL0     H21389  10.078  -0.359   8.720 -0.7106 -0.5639 -3.3201
  880MOL0     H21390  10.143  -0.729   8.780  0.2689  0.6872  0.6172
  880MOL0     H21391  10.232  -0.570   8.784  0.9662 -0.5541 -0.0929
  880MOL0     H21392  10.119  -0.681   8.536 -1.5699  0.1460  2.5209
  880MOL0     H21393  10.243  -0.561   8.554  0.0958 -0.8379 -2.4068
  880MOL0     H21394  10.392  -0.748   8.668 -0.0395  1.2847 -0.0161
  880MOL0     H21395  10.263  -0.862   8.618  0.9139 -0.1789  1.9353
  880MOL0     H21396  10.436  -0.873   8.462 -2.6040 -2.0131 -1.1143
  880MOL0     H21397  10.299  -0.783   8.392 -0.7123 -0.0067  1.7334
  880MOL0     H21398  10.486  -0.846   8.254 -0.2815  1.0498 -0.2433
  880MOL0     H21399  10.730  -0.987   8.039 -0.4848  0.8828 -3.2064
  880MOL0     H21400  10.626  -0.880   7.965 -4.7423  0.2031 -0.4451
  880MOL0     H21401  10.561  -0.983   8.089  0.3778  0.2920  3.1584
  880MOL0     H21402  11.055  -0.806   7.824  1.3775 -1.6350 -0.8099
  880MOL0     H21403  11.260  -0.793   7.719 -0.8900  0.3519 -0.0352
  880MOL0     H21404  11.644  -0.763   7.704 -0.1725 -0.0109 -0.4513
  880MOL0     H21405  11.518  -0.868   7.749  1.1730 -2.4979 -2.1806
  880MOL0     H21406  11.373  -0.720   7.574 -0.4408 -0.1420  1.1311
  880MOL0     H21407  11.538  -0.659   7.529  0.8744 -0.5244  0.3233
  880MOL0     H21408  11.591  -0.908   7.494  1.2578  0.8316 -2.1878
  880MOL0     H21409  11.480  -0.826   7.380  1.8782  0.3070  0.6787
  880MOL0     H21410  11.286  -0.929   7.527  0.1962  0.6716 -0.3119
  880MOL0     H21411  11.416  -1.007   7.619 -2.2738 -0.3003  0.4936
  880MOL0     H21412  11.316  -1.164   7.450 -0.0806 -0.6823 -2.8815
  880MOL0     H21413  11.374  -1.053   7.325  1.5966  0.9689  0.2350
  880MOL0     H21414  11.544  -1.188   7.537  0.6929  1.1399  0.1648
  880MOL0     H21415  11.604  -1.108   7.397  0.0547  0.0661  0.4783
  880MOL0     H21416  11.452  -1.351   7.323  0.1751 -0.0838  1.6251
  880MOL0     H21417  11.620  -1.352   7.388  0.8556  1.2440 -0.2920
  880MOL0     H21418  11.523  -1.175   7.163  1.2937  1.0653 -0.0598
  880MOL0     H21419  11.574  -1.352   7.145 -0.6626 -2.0129  3.0761
  880MOL0     H21420  11.424  -0.522   8.002  0.1551  2.1713 -1.8284
  880MOL0     H21421  11.195  -0.516   8.111 -2.9998 -1.2773  0.0627
  880MOL0     H21422  10.885  -0.552   8.260  2.2609 -3.0788 -0.0719
  880MOL0     H21423  10.691  -0.506   8.403 -1.0158  0.1361 -0.0127
  880MOL0     H21424   9.731   0.106   8.624 -1.0027 -1.1291 -0.9145
  880MOL0     H21425   9.892   0.213   8.753  2.0432  0.5181  0.4722
  880MOL0     H21426  10.304   0.312   8.751 -2.9881  1.0622  0.8947
  880MOL0     H21427  10.507   0.344   8.873  0.8672 -2.0573 -1.6796
  880MOL0     H21428  10.671   0.413   9.007 -3.3220  0.3216 -0.0522
  880MOL0     H21429  10.768   0.463   8.863 -0.3694  1.8048 -0.1172
  880MOL0     H21430  10.799   0.583   9.133 -0.8382 -2.3632  0.2689
  880MOL0     H21431  10.878   0.637   8.974  0.7360  0.7763  0.8758
  880MOL0     H21432  10.921   0.357   9.080 -1.2114 -0.1579 -2.3508
  880MOL0     H21433  11.009   0.442   8.967  1.3831 -1.4529  0.9770
  880MOL0     H21434  10.996   0.525   9.257 -0.5280  2.7518  0.8768
  880MOL0     H21435  11.089   0.610   9.124  0.3228 -0.6578 -0.5107
  880MOL0     H21436  11.331   0.263   9.227  0.6264 -0.6450 -0.9249
  880MOL0     H21437  10.499   0.764   8.804  2.3558 -0.7016 -0.0520
  880MOL0     H21438  10.180   0.807   8.669 -0.6167 -1.2126 -1.1444
  880MOL0     H21439  10.352   0.852   8.660 -0.1785  0.7187 -0.6254
  880MOL0     H21440  10.293   0.748   8.539  1.0333  2.5547 -0.5795
  881MOL0     O21441   0.262   4.554   4.113 -0.6182  0.3127 -0.1601
  881MOL0     C21442   0.226   4.578   4.223  0.2510 -0.2702 -1.2799
  881MOL0     O21443   0.271   4.684   4.307  0.1570  0.9341 -0.3822
  881MOL0     C21444   0.368   4.764   4.249 -0.3136 -0.5324  0.2288
  881MOL0     C21445   0.498   4.735   4.291  0.6431  0.2336  0.3210
  881MOL0     C21446   0.597   4.828   4.267  0.3684 -0.4816 -0.5709
  881MOL0     C21447   0.574   4.952   4.207  0.7567 -0.7955 -0.5550
  881MOL0     O21448   0.669   5.055   4.188  0.1369 -0.2437  0.0715
  881MOL0     C21449   0.787   5.034   4.262  0.2145 -0.4835  0.9420
  881MOL0     C21450   0.862   5.167   4.267 -0.0297  1.2385  0.5793
  881MOL0     C21451   0.979   5.178   4.368  0.2415  0.5361 -0.3446
  881MOL0     C21452   1.069   5.294   4.333 -0.5126  0.0280 -0.2298
  881MOL0     C21453   1.190   5.318   4.429  0.8195 -0.0752  0.5200
  881MOL0     C21454   1.268   5.432   4.367  0.6108 -0.2142 -0.6036
  881MOL0     C21455   1.381   5.471   4.464  0.2022 -0.1040  1.3194
  881MOL0     C21456   1.509   5.379   4.440  0.4605 -0.5923  0.5986
  881MOL0     N21457   1.590   5.412   4.554  0.3193  0.1307 -0.0637
  881MOL0     C21458   1.598   5.337   4.664  0.2006 -0.6717 -0.2492
  881MOL0     C21459   1.698   5.393   4.735 -0.3111  0.2970  1.0046
  881MOL0     C21460   1.738   5.347   4.870 -0.3367  0.0245  0.6447
  881MOL0     C21461   1.857   5.421   4.928  1.1675  0.6279  0.2569
  881MOL0     C21462   1.895   5.372   5.069  0.8779  0.3181  0.3312
  881MOL0     C21463   2.008   5.463   5.104 -1.4073  0.2696 -1.2842
  881MOL0     O21464   2.068   5.394   5.217 -0.1331  0.3087  0.1174
  881MOL0     C21465   2.176   5.311   5.201 -0.0847  0.6385  0.0072
  881MOL0     C21466   2.254   5.288   5.084 -0.1532 -0.4866  0.5072
  881MOL0     C21467   2.366   5.203   5.087  0.9228  0.1240 -0.3126
  881MOL0     C21468   2.462   5.204   4.972  0.9215  0.0558 -0.2047
  881MOL0     C21469   2.398   5.143   5.213  0.1220  0.7398  0.0404
  881MOL0     C21470   2.522   5.058   5.240  0.6438 -1.0696  0.3734
  881MOL0     O21471   2.532   5.021   5.372 -0.4124  0.1151  0.7672
  881MOL0     C21472   2.635   4.942   5.412 -0.0248 -0.0397  0.1990
  881MOL0     C21473   2.647   4.807   5.362 -0.3975 -0.0401 -0.2211
  881MOL0     C21474   2.751   4.725   5.415  0.0778 -0.0223 -0.6200
  881MOL0     C21475   2.832   4.774   5.517 -0.0810 -0.2486 -0.0187
  881MOL0     O21476   2.937   4.696   5.560  0.1294  0.8490 -0.1413
  881MOL0     C21477   3.027   4.632   5.472 -0.5910 -0.6700 -1.1759
  881MOL0     C21478   3.111   4.536   5.550  0.5776  0.0453 -0.0802
  881MOL0     C21479   3.229   4.602   5.639  0.1757  0.7701  0.1821
  881MOL0     C21480   3.271   4.515   5.754  0.3144  0.3568  0.3585
  881MOL0     C21481   3.354   4.392   5.701  1.0277  0.0257  0.5940
  881MOL0     C21482   3.378   4.288   5.805  0.0717 -0.6783 -0.5772
  881MOL0     C21483   3.505   4.217   5.771  0.4662  0.4500  0.1982
  881MOL0     C21484   3.478   4.069   5.717 -0.1107  0.0110  0.1005
  881MOL0    Cl21485   3.404   3.961   5.842  0.2256 -0.2680 -0.4171
  881MOL0     C21486   2.813   4.905   5.567  0.8183  0.8141 -0.5363
  881MOL0     C21487   2.717   4.984   5.515  1.2804 -0.9609  0.3792
  881MOL0     O21488   2.598   5.023   5.147 -0.1770 -0.1491  0.0480
  881MOL0     C21489   2.310   5.170   5.327 -0.9041  1.2037  1.0740
  881MOL0     C21490   2.202   5.256   5.321  0.2871  0.0238  0.1898
  881MOL0     N21491   1.742   5.503   4.665  0.4008  0.4290 -0.0233
  881MOL0     N21492   1.676   5.513   4.552  0.3928 -0.0563 -0.0875
  881MOL0     C21493   0.448   4.979   4.164 -0.0953  0.4484  0.5161
  881MOL0     C21494   0.343   4.881   4.177  0.0138  0.2998  0.4539
  881MOL0     C21495   0.108   4.494   4.272 -0.1984 -0.3801  0.2533
  881MOL0     C21496   0.010   4.567   4.339  0.8091 -0.1408  0.9457
  881MOL0     C21497  -0.102   4.494   4.387 -0.5608  0.0435  0.0645
  881MOL0     C21498  -0.109   4.349   4.390  0.3261 -0.2325  0.5455
  881MOL0     O21499  -0.198   4.272   4.448  0.3153 -0.5910 -0.2046
  881MOL0     C21500  -0.310   4.335   4.510 -0.2504 -0.3028  0.2342
  881MOL0     C21501  -0.272   4.410   4.648  0.3368 -0.1204  0.1653
  881MOL0     C21502  -0.237   4.320   4.767  0.8620 -0.1223 -0.1430
  881MOL0     C21503  -0.158   4.378   4.891 -0.4961 -0.2205  0.7812
  881MOL0     C21504  -0.129   4.263   4.974 -1.0070  0.0802 -0.8248
  881MOL0     C21505  -0.115   4.151   5.033 -0.6365  0.2339 -0.5498
  881MOL0     C21506   0.003   4.286   4.322  0.3375  0.3152 -0.2165
  881MOL0     C21507   0.109   4.355   4.271 -0.4575 -0.3297  0.1945
  881MOL0     C21508   0.222   4.276   4.214 -0.5774 -0.7078 -0.4700
  881MOL0     H21509   0.508   4.644   4.349  0.4323  0.3532  0.5464
  881MOL0     H21510   0.696   4.796   4.296 -0.4823 -2.2264  0.6373
  881MOL0     H21511   0.842   4.955   4.211 -1.9323 -1.0542 -0.6485
  881MOL0     H21512   0.759   5.000   4.362 -1.5098  0.8098  0.9526
  881MOL0     H21513   0.905   5.185   4.168  1.5228 -0.1349  0.9631
  881MOL0     H21514   0.798   5.250   4.297  1.3278  1.2307  3.9230
  881MOL0     H21515   0.937   5.186   4.469  0.1302  3.0904 -0.5347
  881MOL0     H21516   1.030   5.081   4.363  1.4146  1.1966 -1.9175
  881MOL0     H21517   1.100   5.276   4.230 -1.7054 -0.9496 -0.4394
  881MOL0     H21518   1.003   5.381   4.338 -0.1610  0.3898 -1.5421
  881MOL0     H21519   1.243   5.224   4.450  2.3910  0.9431  1.3045
  881MOL0     H21520   1.154   5.343   4.530  0.1206 -1.9703  0.7986
  881MOL0     H21521   1.306   5.398   4.271  1.9187 -1.8791  0.4431
  881MOL0     H21522   1.202   5.517   4.347 -0.6594 -0.9727  0.2173
  881MOL0     H21523   1.337   5.482   4.564  1.1341 -0.2415  1.7507
  881MOL0     H21524   1.412   5.571   4.430 -0.0874 -1.2280 -2.7934
  881MOL0     H21525   1.482   5.273   4.435 -0.9326 -0.2071 -2.1507
  881MOL0     H21526   1.560   5.398   4.346 -0.1172 -2.3421 -0.1030
  881MOL0     H21527   1.535   5.253   4.692  1.5009 -1.6603 -0.1878
  881MOL0     H21528   1.763   5.241   4.860 -2.3391 -0.6098  1.6696
  881MOL0     H21529   1.650   5.359   4.935  0.2174  3.1082  0.9582
  881MOL0     H21530   1.947   5.398   4.872 -0.0181 -1.1677 -1.0178
  881MOL0     H21531   1.839   5.529   4.931  1.8286  0.7530 -0.1326
  881MOL0     H21532   1.815   5.387   5.143  1.0056  0.6347  0.4073
  881MOL0     H21533   1.929   5.269   5.065 -0.8865 -0.2725 -0.9281
  881MOL0     H21534   2.080   5.471   5.022  0.5339 -1.9016  0.0917
  881MOL0     H21535   1.982   5.565   5.131  1.2169  0.6950 -0.1154
  881MOL0     H21536   2.222   5.329   4.989 -0.7032 -0.9501  0.4864
  881MOL0     H21537   2.436   5.273   4.892  0.2046 -0.4589 -0.4288
  881MOL0     H21538   2.464   5.105   4.926  0.6962  0.9655 -2.2450
  881MOL0     H21539   2.562   5.239   5.001  0.8784  0.4830 -0.5648
  881MOL0     H21540   2.581   4.766   5.286  0.6176  1.0229 -1.7334
  881MOL0     H21541   2.757   4.619   5.391 -2.5278 -0.9931  2.2855
  881MOL0     H21542   2.974   4.582   5.391  1.1098  1.2812 -3.6819
  881MOL0     H21543   3.104   4.701   5.436  1.5282 -1.2423  1.8740
  881MOL0     H21544   3.047   4.473   5.613  3.1294 -3.9489 -1.1442
  881MOL0     H21545   3.159   4.476   5.473 -0.4238  2.8542 -3.1118
  881MOL0     H21546   3.191   4.690   5.691 -1.9542 -0.2900  0.5447
  881MOL0     H21547   3.313   4.629   5.574  1.5527 -1.4785  0.9115
  881MOL0     H21548   3.185   4.475   5.808  0.8248  0.7530  1.5007
  881MOL0     H21549   3.335   4.569   5.824  0.8239 -0.5637  0.6165
  881MOL0     H21550   3.296   4.345   5.621  0.7214  1.9565 -0.3990
  881MOL0     H21551   3.449   4.430   5.660  1.0876  0.5369  1.1848
  881MOL0     H21552   3.288   4.227   5.819 -0.7086  0.5392 -0.0011
  881MOL0     H21553   3.396   4.336   5.902  0.6264 -1.6190 -0.2058
  881MOL0     H21554   3.559   4.209   5.866 -2.4849 -0.6165  1.9382
  881MOL0     H21555   3.564   4.263   5.692 -0.0899 -1.1625 -1.2220
  881MOL0     H21556   3.575   4.024   5.694 -0.5773 -1.6190  1.1448
  881MOL0     H21557   3.419   4.062   5.625  1.7621  1.4277 -1.2813
  881MOL0     H21558   2.871   4.937   5.653  1.6470  0.3949 -0.9166
  881MOL0     H21559   2.692   5.082   5.554 -0.6609 -0.7817 -1.1491
  881MOL0     H21560   2.332   5.128   5.425 -3.5237  0.0500  1.2428
  881MOL0     H21561   2.147   5.291   5.408 -1.2217  1.1303 -1.1518
  881MOL0     H21562   0.438   5.076   4.116 -2.1475  0.4374  0.8628
  881MOL0     H21563   0.249   4.902   4.127  0.2746  0.2357 -0.0698
  881MOL0     H21564   0.022   4.675   4.344  0.5308  0.3515 -4.1487
  881MOL0     H21565  -0.182   4.560   4.420  1.2269  2.6929 -0.6464
  881MOL0     H21566  -0.345   4.404   4.433 -0.1073 -1.8701 -1.2996
  881MOL0     H21567  -0.386   4.261   4.538 -0.3572  0.4362  2.1144
  881MOL0     H21568  -0.357   4.475   4.670  1.0204  1.0220 -0.4696
  881MOL0     H21569  -0.181   4.466   4.627  1.4739 -2.3013 -1.0990
  881MOL0     H21570  -0.317   4.252   4.797  0.2628  0.8828  0.6225
  881MOL0     H21571  -0.163   4.249   4.729  2.2109  0.6112  1.0342
  881MOL0     H21572  -0.216   4.454   4.944  2.2111  0.8895  2.3828
  881MOL0     H21573  -0.068   4.427   4.852  0.0626 -1.3193  0.6515
  881MOL0     H21574  -0.097   4.057   5.080 -1.5951  0.2931 -0.0378
  881MOL0     H21575   0.003   4.177   4.321  0.1886  0.3146 -0.2498
  881MOL0     H21576   0.314   4.322   4.253 -0.5775 -1.7158  0.7936
  881MOL0     H21577   0.215   4.169   4.236  0.6767 -0.7971 -0.4353
  881MOL0     H21578   0.213   4.292   4.107 -1.5583  0.1908 -0.2741
  882MOL0     O21579   6.086   1.388   8.963  0.4551  0.3291  0.2610
  882MOL0     C21580   6.101   1.509   8.966  0.3561 -0.8160  1.0526
  882MOL0     O21581   6.220   1.576   8.981 -0.3921  1.0710 -0.0915
  882MOL0     C21582   6.328   1.495   9.019 -1.2764 -0.2146  0.0069
  882MOL0     C21583   6.383   1.537   9.139  0.1372  0.4970 -0.2937
  882MOL0     C21584   6.508   1.483   9.187 -0.2066  0.3300  0.2779
  882MOL0     C21585   6.566   1.373   9.120 -0.8213 -0.4559 -0.9746
  882MOL0     O21586   6.688   1.319   9.150  0.1357  0.3642 -0.0241
  882MOL0     C21587   6.757   1.342   9.275 -0.9601  0.2944  0.4861
  882MOL0     C21588   6.899   1.286   9.247  0.0832 -0.2075  0.0519
  882MOL0     C21589   6.980   1.305   9.376  0.2101 -0.5926  0.1392
  882MOL0     C21590   7.126   1.259   9.381  0.4694 -0.3393  0.2831
  882MOL0     C21591   7.217   1.319   9.484 -0.1952  0.2054 -0.6303
  882MOL0     C21592   7.172   1.279   9.625 -0.3515 -0.3950 -1.1847
  882MOL0     C21593   7.283   1.297   9.721 -0.0889 -0.6030 -0.0009
  882MOL0     C21594   7.306   1.441   9.765 -0.0209  0.2078 -0.3413
  882MOL0     N21595   7.421   1.469   9.858 -0.5970 -0.6407  0.0704
  882MOL0     C21596   7.449   1.401   9.966  0.1799  0.2852 -0.9754
  882MOL0     C21597   7.554   1.463  10.018  0.2867 -0.4776  0.2150
  882MOL0     C21598   7.616   1.423  10.152 -0.2672  0.2391  0.1550
  882MOL0     C21599   7.771   1.417  10.146  0.1541 -0.4733 -0.4081
  882MOL0     C21600   7.835   1.306  10.232  0.5984 -0.7484 -0.0926
  882MOL0     C21601   7.988   1.335  10.233  1.0579  0.8972 -1.0069
  882MOL0     O21602   8.046   1.308  10.103 -0.3112 -0.4403 -0.0851
  882MOL0     C21603   8.185   1.281  10.096  0.2346  0.7497 -0.5222
  882MOL0     C21604   8.278   1.292  10.199  0.3387 -0.4595 -0.0552
  882MOL0     C21605   8.416   1.252  10.177  0.2692 -0.6890 -0.6087
  882MOL0     C21606   8.503   1.252  10.294 -1.0194  0.6860 -0.1422
  882MOL0     C21607   8.444   1.200  10.051 -0.7175  0.8373  0.1311
  882MOL0     C21608   8.585   1.168  10.006 -1.3096  0.1529  0.9647
  882MOL0     O21609   8.592   1.070   9.911  0.6122  0.1404  0.3043
  882MOL0     C21610   8.721   1.052   9.864 -0.4732 -1.0316 -0.1428
  882MOL0     C21611   8.769   1.119   9.752  0.8846  0.2914 -0.9618
  882MOL0     C21612   8.911   1.118   9.728  0.5990 -0.3343 -0.6232
  882MOL0     C21613   8.997   1.030   9.794  0.3163  0.6898 -0.3553
  882MOL0     O21614   9.131   1.007   9.784 -0.6657  0.9268  0.1806
  882MOL0     C21615   9.195   1.028   9.653  0.0049  0.5000  0.5713
  882MOL0     C21616   9.342   1.032   9.688 -0.0092 -0.4554  0.2890
  882MOL0     C21617   9.442   1.055   9.567 -0.2492  0.0675 -0.3029
  882MOL0     C21618   9.451   0.915   9.490  0.3416 -0.6177 -0.2982
  882MOL0     C21619   9.552   0.935   9.365  1.0515  0.0238 -0.5757
  882MOL0     C21620   9.571   0.802   9.294 -0.2548 -0.4044  0.0983
  882MOL0     C21621   9.639   0.813   9.152  0.5216 -0.2800  0.3751
  882MOL0     C21622   9.792   0.803   9.155  0.5295  0.3528 -0.5094
  882MOL0    Cl21623   9.864   0.949   9.207 -0.0168  0.1462  0.4539
  882MOL0     C21624   8.941   0.957   9.905  0.3860 -0.4365 -0.2661
  882MOL0     C21625   8.807   0.971   9.932 -1.0083  0.7273 -0.0362
  882MOL0     O21626   8.686   1.215  10.069  0.0180 -0.3847 -1.0359
  882MOL0     C21627   8.350   1.201   9.953 -0.2116  0.1633  0.3027
  882MOL0     C21628   8.224   1.256   9.972  0.2763  0.2275  0.0210
  882MOL0     N21629   7.594   1.561   9.933  0.4511 -0.3767  0.4307
  882MOL0     N21630   7.510   1.571   9.835 -0.6998  0.0746  0.1989
  882MOL0     C21631   6.498   1.316   9.008 -0.1856 -0.2634 -0.2406
  882MOL0     C21632   6.384   1.383   8.956  0.5906 -0.1968 -0.0740
  882MOL0     C21633   5.981   1.596   8.950  0.0689  0.0043  0.1197
  882MOL0     C21634   6.004   1.738   8.931  0.0898 -0.3702  0.2527
  882MOL0     C21635   5.892   1.826   8.911 -0.2700 -0.0180  0.6152
  882MOL0     C21636   5.767   1.773   8.924  0.2174  0.2001 -0.3119
  882MOL0     O21637   5.659   1.859   8.903  0.4461  0.4571 -0.5055
  882MOL0     C21638   5.532   1.816   8.859  0.2188 -0.9323 -0.0721
  882MOL0     C21639   5.450   1.945   8.824  0.1166  0.5567 -0.8226
  882MOL0     C21640   5.302   1.905   8.782  0.2865 -0.7119  0.0430
  882MOL0     C21641   5.213   2.029   8.778  0.0201 -0.3698 -0.6595
  882MOL0     C21642   5.087   2.022   8.700 -0.4860  0.4139  0.6822
  882MOL0     C21643   4.977   2.028   8.645 -0.9638 -0.0535  1.3518
  882MOL0     C21644   5.745   1.634   8.936 -0.3134 -0.9097 -0.2415
  882MOL0     C21645   5.849   1.550   8.956  0.2377 -0.1538 -0.1662
  882MOL0     C21646   5.803   1.408   8.981  0.9760 -0.5111 -0.5347
  882MOL0     H21647   6.338   1.623   9.188 -0.4059  1.1754 -1.9162
  882MOL0     H21648   6.561   1.521   9.274 -0.4170 -1.0087  1.0181
  882MOL0     H21649   6.708   1.281   9.352 -3.0282 -0.2382 -1.1563
  882MOL0     H21650   6.759   1.447   9.307  1.8638  0.0834  1.2508
  882MOL0     H21651   6.888   1.181   9.220 -3.2509  0.1230 -0.2129
  882MOL0     H21652   6.950   1.334   9.163 -1.2080 -2.6887 -2.3050
  882MOL0     H21653   6.989   1.411   9.400  3.4933 -0.5080 -0.9799
  882MOL0     H21654   6.922   1.258   9.457 -3.4776  1.5078 -1.0495
  882MOL0     H21655   7.146   1.152   9.391 -1.6816 -0.9200 -1.0176
  882MOL0     H21656   7.172   1.287   9.286  0.0830 -1.7076 -0.3292
  882MOL0     H21657   7.225   1.428   9.479  2.0239  0.0335 -2.0795
  882MOL0     H21658   7.316   1.281   9.458  1.4118  3.1331  0.6347
  882MOL0     H21659   7.076   1.326   9.648 -1.5225 -1.8485 -2.8561
  882MOL0     H21660   7.156   1.171   9.631 -1.4880 -0.1900 -0.1624
  882MOL0     H21661   7.378   1.252   9.692  1.2556 -1.0792  4.3969
  882MOL0     H21662   7.245   1.243   9.808  0.8808 -0.9999  0.1851
  882MOL0     H21663   7.334   1.479   9.666 -1.5174  0.0209 -0.8586
  882MOL0     H21664   7.210   1.479   9.802 -0.4461 -1.1059 -0.0638
  882MOL0     H21665   7.403   1.315  10.013  1.5266  0.8483  1.5962
  882MOL0     H21666   7.579   1.326  10.188  0.7602  0.3892  1.7208
  882MOL0     H21667   7.593   1.503  10.222  3.2163  2.5149 -1.0620
  882MOL0     H21668   7.795   1.403  10.040 -0.4673  1.6286 -0.8727
  882MOL0     H21669   7.802   1.518  10.176 -2.3387 -0.1519  1.4394
  882MOL0     H21670   7.794   1.302  10.334 -0.6598 -0.6542 -0.5835
  882MOL0     H21671   7.821   1.205  10.194  0.9623 -1.9831  2.7660
  882MOL0     H21672   8.000   1.441  10.260 -1.3592  1.2100 -0.9458
  882MOL0     H21673   8.030   1.282  10.319 -1.1394  0.1132 -0.3451
  882MOL0     H21674   8.256   1.342  10.293  0.1266 -0.5495 -0.0569
  882MOL0     H21675   8.455   1.308  10.374  2.0469  1.1499  1.5238
  882MOL0     H21676   8.596   1.304  10.270  0.1203 -0.1467  2.1579
  882MOL0     H21677   8.528   1.150  10.325  0.6224  0.7222 -1.2141
  882MOL0     H21678   8.702   1.178   9.690 -2.7730 -4.5524 -2.2391
  882MOL0     H21679   8.946   1.166   9.638  3.7127 -0.3822  0.4603
  882MOL0     H21680   9.172   0.952   9.578  2.6358  0.0877  0.1016
  882MOL0     H21681   9.163   1.128   9.621  0.5299  1.8164  3.8333
  882MOL0     H21682   9.361   1.112   9.760  0.5334  0.4654 -0.8381
  882MOL0     H21683   9.373   0.944   9.745  1.3760  0.9727  1.8682
  882MOL0     H21684   9.545   1.067   9.600 -0.7439 -2.2163  2.4487
  882MOL0     H21685   9.403   1.136   9.505 -0.4868 -0.5314 -0.9615
  882MOL0     H21686   9.354   0.871   9.466  0.0616 -1.1883  1.6756
  882MOL0     H21687   9.486   0.837   9.558 -2.1124 -1.0500  0.5752
  882MOL0     H21688   9.511   1.015   9.303  0.1505  0.6051  0.7105
  882MOL0     H21689   9.649   0.968   9.401 -0.3296  1.6293  1.9762
  882MOL0     H21690   9.475   0.755   9.273  0.4335 -1.0527 -1.8212
  882MOL0     H21691   9.625   0.732   9.359 -2.3331 -1.7959  0.4237
  882MOL0     H21692   9.609   0.914   9.121  0.5967 -0.6050 -0.8022
  882MOL0     H21693   9.590   0.740   9.086 -0.6038  1.0827 -0.3526
  882MOL0     H21694   9.837   0.768   9.061  0.3316  1.2905 -0.9624
  882MOL0     H21695   9.818   0.717   9.217  0.0320  0.7178  0.2142
  882MOL0     H21696   9.004   0.898   9.970  1.3861  1.2917  0.3954
  882MOL0     H21697   8.763   0.933  10.024 -1.6055  2.7256  0.5705
  882MOL0     H21698   8.364   1.170   9.850 -1.6240  0.5108 -0.0039
  882MOL0     H21699   8.152   1.275   9.893  0.9025  1.3091 -0.3089
  882MOL0     H21700   6.547   1.236   8.954  0.6440 -0.9540  1.4717
  882MOL0     H21701   6.341   1.335   8.868 -0.8833  0.0500  0.4896
  882MOL0     H21702   6.100   1.784   8.913 -0.2201 -0.2995 -1.2778
  882MOL0     H21703   5.907   1.933   8.898 -3.4113  0.2886 -1.8075
  882MOL0     H21704   5.531   1.748   8.773 -0.3166  0.3573 -1.1232
  882MOL0     H21705   5.485   1.764   8.944  1.9191 -0.6496  1.0778
  882MOL0     H21706   5.494   2.000   8.740  1.5413 -1.3700 -1.4199
  882MOL0     H21707   5.437   2.014   8.907 -3.5971 -1.1506  0.2096
  882MOL0     H21708   5.310   1.866   8.680 -1.1806 -1.2187  0.1041
  882MOL0     H21709   5.259   1.825   8.842  1.4199 -0.8913  0.6447
  882MOL0     H21710   5.261   2.115   8.731  1.0805 -0.2018  0.6436
  882MOL0     H21711   5.177   2.061   8.876 -0.1449  2.5118 -1.5700
  882MOL0     H21712   4.888   2.025   8.584  0.1989  0.8514 -0.4950
  882MOL0     H21713   5.642   1.601   8.926  0.4078 -2.5149 -4.0301
  882MOL0     H21714   5.699   1.420   9.013  1.2657  1.7531 -0.3078
  882MOL0     H21715   5.800   1.349   8.890  2.3306 -0.5122 -0.5991
  882MOL0     H21716   5.854   1.362   9.066  0.6658 -3.3880 -1.7975
  883MOL0     O21717   1.568   0.705   4.505 -0.1725  0.2807 -0.0422
  883MOL0     C21718   1.495   0.626   4.565  0.7418  0.5976  0.4863
  883MOL0     O21719   1.520   0.572   4.690  0.5034 -0.2051  0.6666
  883MOL0     C21720   1.638   0.594   4.763  0.2410  0.9442 -0.4135
  883MOL0     C21721   1.752   0.664   4.729  1.2417 -0.5006 -0.1273
  883MOL0     C21722   1.854   0.671   4.824 -0.3097  0.4213  1.1142
  883MOL0     C21723   1.857   0.590   4.941 -0.4910 -1.4695  0.0213
  883MOL0     O21724   1.961   0.577   5.030  0.0758  0.3124 -0.4064
  883MOL0     C21725   2.077   0.655   5.022 -0.0465 -0.5661 -0.0048
  883MOL0     C21726   2.158   0.622   5.151 -0.3783  0.3567  0.2793
  883MOL0     C21727   2.072   0.623   5.281  0.0750  0.4084  0.9999
  883MOL0     C21728   2.017   0.761   5.318 -0.2370 -0.6117 -0.3731
  883MOL0     C21729   1.867   0.746   5.341  0.3231 -0.2506 -0.3269
  883MOL0     C21730   1.820   0.880   5.396 -0.3410 -0.6814  0.5867
  883MOL0     C21731   1.671   0.905   5.402  0.3226 -0.6038 -0.0842
  883MOL0     C21732   1.584   0.854   5.287 -0.3502 -0.0305  0.8448
  883MOL0     N21733   1.606   0.942   5.176 -0.3853 -0.0395 -0.3450
  883MOL0     C21734   1.635   0.898   5.049 -0.1276  0.4449  0.0775
  883MOL0     C21735   1.642   1.013   4.973 -0.8180 -0.8689  0.0641
  883MOL0     C21736   1.663   1.036   4.820 -0.1360 -1.0326 -0.6005
  883MOL0     C21737   1.532   1.094   4.769  0.3788 -0.4623  0.2082
  883MOL0     C21738   1.436   0.972   4.746  0.8831  0.2948  0.3805
  883MOL0     C21739   1.309   1.026   4.673 -0.0224 -0.0305 -0.5029
  883MOL0     O21740   1.346   1.056   4.531 -0.4699 -0.2098  0.6969
  883MOL0     C21741   1.292   0.987   4.420 -0.0360 -0.9517  0.3722
  883MOL0     C21742   1.357   0.979   4.297  0.3160 -0.9227  0.1304
  883MOL0     C21743   1.314   0.918   4.186  0.1637  0.7627 -0.7375
  883MOL0     C21744   1.400   0.919   4.053 -0.1001  0.0743 -0.9517
  883MOL0     C21745   1.188   0.847   4.191 -0.0667  0.3045 -0.3030
  883MOL0     C21746   1.126   0.770   4.081  1.2510  0.2365 -0.6430
  883MOL0     O21747   1.191   0.771   3.953  0.1111  0.8432 -0.2937
  883MOL0     C21748   1.124   0.708   3.852 -0.7694 -0.0027 -0.3828
  883MOL0     C21749   1.011   0.769   3.802 -0.9809 -1.5596 -0.6825
  883MOL0     C21750   0.934   0.704   3.717  1.1195 -0.1039 -0.9723
  883MOL0     C21751   0.963   0.574   3.660  0.0579 -0.7106  0.6754
  883MOL0     O21752   0.880   0.494   3.576  0.2570 -0.0394 -0.3156
  883MOL0     C21753   0.747   0.531   3.579 -0.2390 -0.2932  0.3454
  883MOL0     C21754   0.658   0.440   3.504  0.1310 -0.4284 -1.4300
  883MOL0     C21755   0.643   0.311   3.582  0.4577  1.2292 -0.6480
  883MOL0     C21756   0.553   0.212   3.508  0.2890  0.3518  0.2575
  883MOL0     C21757   0.515   0.081   3.586  0.1062 -0.3391 -0.2877
  883MOL0     C21758   0.643   0.008   3.621 -0.4255  0.0201 -0.0757
  883MOL0     C21759   0.620  -0.129   3.686  0.1645 -0.3607 -0.1422
  883MOL0     C21760   0.556  -0.222   3.587  0.2469  0.0816 -0.5534
  883MOL0    Cl21761   0.577  -0.390   3.645  0.0570  0.3592  0.3934
  883MOL0     C21762   1.082   0.515   3.706 -0.0251  0.3006 -0.1613
  883MOL0     C21763   1.158   0.581   3.805 -0.2321  0.5346 -0.2868
  883MOL0     O21764   1.020   0.704   4.115  0.0390 -0.7171 -0.3180
  883MOL0     C21765   1.126   0.846   4.318  0.5717  0.2813  0.3614
  883MOL0     C21766   1.169   0.926   4.431 -0.7059  0.5440  0.0962
  883MOL0     N21767   1.620   1.119   5.063 -0.1113  0.3166  0.1308
  883MOL0     N21768   1.594   1.075   5.180  0.4409 -0.1743 -0.4096
  883MOL0     C21769   1.745   0.519   4.969  0.4747  0.5788  0.3317
  883MOL0     C21770   1.633   0.529   4.883 -0.3920 -1.1060  0.5887
  883MOL0     C21771   1.390   0.565   4.485  0.2241  0.1228 -0.3136
  883MOL0     C21772   1.409   0.557   4.339  0.1208 -0.5867  0.2631
  883MOL0     C21773   1.312   0.505   4.257 -0.6207 -0.4427  0.0626
  883MOL0     C21774   1.187   0.472   4.312 -1.1360 -0.2832 -0.7892
  883MOL0     O21775   1.100   0.414   4.217  0.2355  0.4356  0.3366
  883MOL0     C21776   0.959   0.406   4.247 -0.1113  0.1310 -0.2590
  883MOL0     C21777   0.890   0.387   4.112 -0.2342  0.2491  0.4831
  883MOL0     C21778   0.739   0.418   4.116 -0.3505 -0.4431 -0.3052
  883MOL0     C21779   0.660   0.351   3.997  0.5087 -0.9888 -1.3916
  883MOL0     C21780   0.669   0.203   3.990 -0.2825  0.2038  0.2342
  883MOL0     C21781   0.688   0.080   4.005  0.3208  0.5196  1.2000
  883MOL0     C21782   1.166   0.473   4.443 -0.3127  0.0450 -0.1899
  883MOL0     C21783   1.260   0.526   4.534 -0.1680 -0.3180 -0.1682
  883MOL0     C21784   1.214   0.554   4.677  0.4132  0.1942  0.1089
  883MOL0     H21785   1.761   0.724   4.638  0.2922  0.3609  0.3249
  883MOL0     H21786   1.943   0.726   4.797 -0.1149  0.5177  1.9252
  883MOL0     H21787   2.045   0.760   5.021  1.5972  0.0021  1.8212
  883MOL0     H21788   2.132   0.637   4.929 -1.9166 -2.6610 -0.7927
  883MOL0     H21789   2.217   0.531   5.141 -1.9666 -0.4777 -2.5648
  883MOL0     H21790   2.231   0.703   5.157 -0.1651  0.8048 -4.4989
  883MOL0     H21791   1.987   0.557   5.260  0.0209  0.8128 -0.1199
  883MOL0     H21792   2.129   0.582   5.365 -0.4769  0.3508  1.3551
  883MOL0     H21793   2.075   0.783   5.408 -0.4436 -2.7845  0.3500
  883MOL0     H21794   2.023   0.841   5.244 -1.6577 -1.2704 -1.2405
  883MOL0     H21795   1.846   0.660   5.405 -0.8228  0.6274  0.5151
  883MOL0     H21796   1.821   0.733   5.243 -0.6272  1.5585 -0.1751
  883MOL0     H21797   1.862   0.901   5.494  1.6608 -2.8353  0.2910
  883MOL0     H21798   1.853   0.960   5.329 -0.0173 -0.4331  1.0386
  883MOL0     H21799   1.638   1.007   5.422 -1.0952 -1.3997  2.0015
  883MOL0     H21800   1.635   0.862   5.496 -0.5277  3.1893  1.4879
  883MOL0     H21801   1.606   0.751   5.259 -0.0123  0.0955  0.6438
  883MOL0     H21802   1.484   0.858   5.332  0.4576  1.4490  2.6255
  883MOL0     H21803   1.643   0.798   5.007 -3.1848  0.5539 -1.0407
  883MOL0     H21804   1.696   0.951   4.760 -0.4359 -1.6086  0.0395
  883MOL0     H21805   1.747   1.105   4.812  0.4318 -1.4165  1.6137
  883MOL0     H21806   1.494   1.174   4.834  2.6836  1.5988 -0.8077
  883MOL0     H21807   1.549   1.152   4.677  0.9292 -1.0793 -0.0842
  883MOL0     H21808   1.488   0.899   4.683 -2.8171 -2.1483 -0.1814
  883MOL0     H21809   1.403   0.933   4.843 -2.3290  0.1543 -0.6592
  883MOL0     H21810   1.226   0.955   4.676 -3.1258  3.1161 -3.3313
  883MOL0     H21811   1.262   1.108   4.728 -2.1105 -1.4427 -0.0797
  883MOL0     H21812   1.454   1.028   4.303 -0.8305  1.4254  1.0768
  883MOL0     H21813   1.434   0.817   4.032 -1.1443 -0.4636 -0.1173
  883MOL0     H21814   1.484   0.988   4.059 -1.0836  1.1869  1.2406
  883MOL0     H21815   1.348   0.955   3.963 -0.9520 -0.5995 -0.7463
  883MOL0     H21816   0.991   0.872   3.832 -2.3388 -2.3159  1.2266
  883MOL0     H21817   0.842   0.741   3.673  0.5421 -0.1203  0.1819
  883MOL0     H21818   0.721   0.525   3.685 -1.2986 -2.4958  0.0150
  883MOL0     H21819   0.731   0.629   3.534 -2.1860 -0.1654  1.1798
  883MOL0     H21820   0.563   0.493   3.509 -0.7298 -2.0335 -0.0683
  883MOL0     H21821   0.698   0.422   3.403 -1.3786 -0.7227 -1.9973
  883MOL0     H21822   0.595   0.330   3.678  1.2684  3.5252 -0.6330
  883MOL0     H21823   0.746   0.274   3.585 -0.3987 -1.3098  0.5575
  883MOL0     H21824   0.596   0.184   3.411 -2.2623  0.4479 -0.9947
  883MOL0     H21825   0.457   0.258   3.484 -0.4148 -2.1050 -2.1593
  883MOL0     H21826   0.467   0.120   3.676 -0.3600  2.9676 -1.8410
  883MOL0     H21827   0.451   0.017   3.525  1.1872 -0.7377 -1.0277
  883MOL0     H21828   0.702   0.066   3.693 -0.6737  0.9131 -0.5902
  883MOL0     H21829   0.706   0.000   3.533  0.4643  2.4657  0.2726
  883MOL0     H21830   0.553  -0.117   3.772  2.3374 -1.8043  1.8644
  883MOL0     H21831   0.713  -0.173   3.723  1.9363  1.4498 -2.1144
  883MOL0     H21832   0.608  -0.214   3.491  0.3003  0.1615 -0.5182
  883MOL0     H21833   0.452  -0.196   3.568  0.8503  4.6653  1.2050
  883MOL0     H21834   1.113   0.416   3.676  3.1781  1.1771 -0.1246
  883MOL0     H21835   1.244   0.523   3.838 -0.7167  0.9937  1.9302
  883MOL0     H21836   1.032   0.796   4.338  0.7193  0.6324  2.1382
  883MOL0     H21837   1.115   0.925   4.525 -0.7216 -0.6151  0.0859
  883MOL0     H21838   1.721   0.472   5.064 -4.0058  2.6982  0.5130
  883MOL0     H21839   1.537   0.485   4.907 -0.8268  0.4438  1.8758
  883MOL0     H21840   1.499   0.582   4.282 -2.2210  1.7667 -2.7594
  883MOL0     H21841   1.333   0.494   4.151  0.6973 -1.3820  0.3819
  883MOL0     H21842   0.935   0.328   4.320  0.5025  1.1946  1.1297
  883MOL0     H21843   0.924   0.504   4.282 -0.9263  0.1352 -1.0616
  883MOL0     H21844   0.908   0.282   4.084  1.5923  0.8791 -0.9351
  883MOL0     H21845   0.931   0.447   4.030 -0.6977  0.2759  0.2681
  883MOL0     H21846   0.692   0.380   4.207 -0.5746  3.0677  1.1860
  883MOL0     H21847   0.737   0.527   4.119  4.1295 -0.0964 -1.4391
  883MOL0     H21848   0.694   0.394   3.902  2.4339 -1.0489 -0.7808
  883MOL0     H21849   0.555   0.377   4.011  1.2782  0.9411  1.8290
  883MOL0     H21850   0.686  -0.025   4.026 -1.2528  0.3925  0.5494
  883MOL0     H21851   1.072   0.434   4.481 -0.5134  2.7062  2.3994
  883MOL0     H21852   1.289   0.615   4.728  0.9219  0.2989 -0.7491
  883MOL0     H21853   1.120   0.609   4.686  0.1258 -0.5738  2.3159
  883MOL0     H21854   1.192   0.462   4.731  3.1702  0.0059  1.0414
  884MOL0     O21855   6.793   3.682   9.733  0.0851  0.1087 -0.5505
  884MOL0     C21856   6.793   3.619   9.629  0.4919 -0.2012  0.2356
  884MOL0     O21857   6.694   3.535   9.592  0.2876 -0.2100  0.3438
  884MOL0     C21858   6.593   3.504   9.679 -0.5849 -0.4866 -0.0763
  884MOL0     C21859   6.471   3.565   9.643 -0.4842 -0.0533  0.3976
  884MOL0     C21860   6.364   3.549   9.735  0.0357 -0.1738  0.0693
  884MOL0     C21861   6.385   3.484   9.856 -0.2794 -0.3536  0.2006
  884MOL0     O21862   6.285   3.502   9.949 -0.3220 -0.2224 -0.1196
  884MOL0     C21863   6.286   3.426  10.065  0.6050  0.3003  0.5390
  884MOL0     C21864   6.145   3.423  10.128 -0.3089  0.4437 -0.4528
  884MOL0     C21865   6.143   3.338  10.259  0.0359  0.0682 -0.5330
  884MOL0     C21866   6.008   3.295  10.296  0.6135  0.2601 -0.1375
  884MOL0     C21867   6.011   3.210  10.425  0.0631 -0.6981  0.1879
  884MOL0     C21868   5.870   3.145  10.455  0.0387  0.0325  0.3144
  884MOL0     C21869   5.834   3.149  10.605  0.0165 -1.1291 -0.4907
  884MOL0     C21870   5.930   3.077  10.695 -0.5066  0.3920 -0.0162
  884MOL0     N21871   5.942   2.932  10.672 -0.2466  0.5495  0.0576
  884MOL0     C21872   5.847   2.836  10.704  0.5181 -0.6237  0.2906
  884MOL0     C21873   5.873   2.727  10.617  0.2439 -0.5966  0.4187
  884MOL0     C21874   5.803   2.596  10.629 -0.3977  0.7197  0.5810
  884MOL0     C21875   5.893   2.476  10.612  0.1293  0.4113 -0.1985
  884MOL0     C21876   5.801   2.352  10.612 -0.3285  0.0738  0.3469
  884MOL0     C21877   5.877   2.221  10.587  0.3299  1.0128 -0.2880
  884MOL0     O21878   5.985   2.220  10.491 -0.2965  0.4346  0.2370
  884MOL0     C21879   6.057   2.106  10.467  0.1312 -0.6127  0.0037
  884MOL0     C21880   6.114   2.095  10.343 -0.2448  0.6896 -0.3297
  884MOL0     C21881   6.181   1.984  10.297 -0.6982 -0.2860  0.0113
  884MOL0     C21882   6.234   1.993  10.159  0.5448  0.3871  0.3018
  884MOL0     C21883   6.191   1.871  10.379 -1.0599  0.1648  0.1080
  884MOL0     C21884   6.264   1.741  10.340 -0.5452 -0.0731  0.2444
  884MOL0     O21885   6.258   1.709  10.204  0.4032  0.1825  0.1555
  884MOL0     C21886   6.355   1.622  10.151  0.4889  0.6226 -0.3837
  884MOL0     C21887   6.485   1.639  10.173 -0.3727 -0.2256 -0.5600
  884MOL0     C21888   6.583   1.576  10.100 -0.3565  0.4376  0.0538
  884MOL0     C21889   6.549   1.477  10.004 -0.0111  0.7674 -0.2292
  884MOL0     O21890   6.658   1.420   9.934 -0.3803  0.3438  0.2604
  884MOL0     C21891   6.640   1.295   9.860 -0.1202  0.3165 -0.3758
  884MOL0     C21892   6.780   1.255   9.808  0.3312  0.5975 -0.4031
  884MOL0     C21893   6.878   1.178   9.902  0.4306 -0.5713 -0.8439
  884MOL0     C21894   6.963   1.273   9.989 -0.0697  0.3321  0.0128
  884MOL0     C21895   7.023   1.211  10.119 -0.4936  0.6500 -0.3439
  884MOL0     C21896   7.123   1.305  10.186 -0.4112 -0.4505  0.3066
  884MOL0     C21897   7.164   1.265  10.331  0.1583  0.2688 -0.2876
  884MOL0     C21898   7.301   1.313  10.376  0.5643 -0.0621 -0.0903
  884MOL0    Cl21899   7.309   1.486  10.366  0.2398  0.0053  0.0559
  884MOL0     C21900   6.407   1.457   9.994  0.4789  0.4606  0.7459
  884MOL0     C21901   6.308   1.533  10.057 -0.0370  0.3252 -0.6973
  884MOL0     O21902   6.304   1.663  10.434  0.0992 -0.1872  0.6571
  884MOL0     C21903   6.144   1.881  10.506  0.7302 -0.0007 -0.0745
  884MOL0     C21904   6.066   1.995  10.548 -1.3076  0.4157 -0.6518
  884MOL0     N21905   5.987   2.753  10.549  0.0636  0.8253 -1.1744
  884MOL0     N21906   6.016   2.874  10.573 -0.1339 -0.3987 -0.3389
  884MOL0     C21907   6.507   3.426   9.887 -0.4240  0.2727  0.2859
  884MOL0     C21908   6.611   3.432   9.793 -0.1815 -0.2217  0.1904
  884MOL0     C21909   6.901   3.654   9.532 -0.0163 -0.0923  0.2980
  884MOL0     C21910   7.023   3.692   9.595 -0.1488 -0.1587  0.1953
  884MOL0     C21911   7.132   3.710   9.519  0.7985 -0.1453 -0.1050
  884MOL0     C21912   7.121   3.708   9.379  1.0807  0.5642  0.8584
  884MOL0     O21913   7.215   3.736   9.289 -0.0568  0.3529  0.2946
  884MOL0     C21914   7.354   3.752   9.320 -0.4094  0.2742  0.4193
  884MOL0     C21915   7.413   3.616   9.372  0.4350 -0.4464  0.0495
  884MOL0     C21916   7.361   3.501   9.284 -0.1392 -0.0300 -0.4140
  884MOL0     C21917   7.411   3.499   9.145  0.5853  0.0088  0.4409
  884MOL0     C21918   7.553   3.529   9.130  0.9203 -0.1363 -0.1462
  884MOL0     C21919   7.668   3.544   9.139 -0.1774  0.1843  0.1405
  884MOL0     C21920   6.998   3.678   9.316  0.4675  1.5439  0.5032
  884MOL0     C21921   6.887   3.638   9.393 -0.3631  0.4119  0.3945
  884MOL0     C21922   6.763   3.582   9.320 -0.3188  0.0635  0.5488
  884MOL0     H21923   6.466   3.624   9.552 -0.2221  0.6537  0.8408
  884MOL0     H21924   6.275   3.604   9.707  0.6761  0.9776  0.2041
  884MOL0     H21925   6.356   3.470  10.137  0.5751  1.5686 -0.1894
  884MOL0     H21926   6.305   3.320  10.045 -2.4817 -0.6493  2.0290
  884MOL0     H21927   6.119   3.527  10.151  0.5094  0.4750  0.3829
  884MOL0     H21928   6.074   3.367  10.066  1.8288 -0.0493 -2.5849
  884MOL0     H21929   6.210   3.252  10.249  1.7444  1.1078  1.2121
  884MOL0     H21930   6.192   3.398  10.337  0.0588 -0.0331 -0.4684
  884MOL0     H21931   5.948   3.387  10.295  2.0952  1.3485  1.7182
  884MOL0     H21932   5.964   3.227  10.224  0.7979  1.1745 -1.1361
  884MOL0     H21933   6.038   3.278  10.506  1.7627 -0.2103 -0.7239
  884MOL0     H21934   6.095   3.140  10.426  0.7624  0.0892 -0.7365
  884MOL0     H21935   5.796   3.212  10.411 -1.8071 -0.7825  2.0063
  884MOL0     H21936   5.864   3.043  10.417  1.4118 -0.1274  0.4548
  884MOL0     H21937   5.728   3.128  10.620 -1.1120  4.0447  0.9062
  884MOL0     H21938   5.837   3.251  10.646  2.1034 -1.5258  0.5084
  884MOL0     H21939   6.032   3.114  10.706 -0.1602 -0.6144  0.2519
  884MOL0     H21940   5.886   3.079  10.795 -0.1888  1.1295  0.1145
  884MOL0     H21941   5.765   2.848  10.774  1.7441  1.3954  1.4829
  884MOL0     H21942   5.718   2.591  10.560  0.3896 -0.7747 -0.3413
  884MOL0     H21943   5.765   2.585  10.730 -0.3255  0.6450  0.6002
  884MOL0     H21944   5.932   2.483  10.510  0.9788 -3.3423 -0.2828
  884MOL0     H21945   5.984   2.473  10.673 -0.3396 -1.6243  0.4857
  884MOL0     H21946   5.742   2.337  10.703 -1.4015 -0.3079 -0.3902
  884MOL0     H21947   5.735   2.358  10.524 -2.7197 -0.4337  2.0089
  884MOL0     H21948   5.909   2.185  10.686  1.2291  0.4464 -0.7780
  884MOL0     H21949   5.807   2.142  10.559  0.9196  0.0982  0.7206
  884MOL0     H21950   6.099   2.184  10.283 -1.9050  2.0435  1.9369
  884MOL0     H21951   6.341   1.970  10.161  0.8098  1.5301  0.4462
  884MOL0     H21952   6.225   2.095  10.119 -3.4799  0.0364 -0.0496
  884MOL0     H21953   6.188   1.925  10.088  3.4995 -0.6840 -0.7670
  884MOL0     H21954   6.512   1.726  10.233 -0.4883 -0.1808 -0.5731
  884MOL0     H21955   6.686   1.607  10.111 -0.6441  2.3177 -1.8116
  884MOL0     H21956   6.620   1.208   9.923  4.5367 -1.7130 -1.3079
  884MOL0     H21957   6.570   1.299   9.775 -1.3037 -1.5291  0.4409
  884MOL0     H21958   6.754   1.184   9.728 -0.6281  2.3503 -1.7062
  884MOL0     H21959   6.822   1.347   9.768 -2.0107  1.5491 -0.8615
  884MOL0     H21960   6.949   1.134   9.832 -1.4390  0.0712 -3.2917
  884MOL0     H21961   6.826   1.099   9.957  1.8375 -0.7186  0.3239
  884MOL0     H21962   6.904   1.363  10.009  1.0404  1.0228  0.2418
  884MOL0     H21963   7.042   1.310   9.924  0.1800 -1.4000 -0.7217
  884MOL0     H21964   6.947   1.184  10.194  1.1088  1.1282  1.5454
  884MOL0     H21965   7.079   1.123  10.087  1.8446  2.2181 -0.7581
  884MOL0     H21966   7.082   1.406  10.187 -1.2858 -0.8000  0.8834
  884MOL0     H21967   7.213   1.309  10.124 -0.2718  3.6289  0.5370
  884MOL0     H21968   7.155   1.156  10.333  1.1205  0.1508 -1.3672
  884MOL0     H21969   7.093   1.312  10.399  1.0747 -0.3118  1.1395
  884MOL0     H21970   7.373   1.280  10.301  0.7532  0.5412 -0.1791
  884MOL0     H21971   7.329   1.278  10.476  3.0305  0.8831 -0.4058
  884MOL0     H21972   6.384   1.388   9.913 -0.4989  0.9107  0.6331
  884MOL0     H21973   6.205   1.504  10.039  0.0424 -1.4275  1.3002
  884MOL0     H21974   6.153   1.792  10.569 -1.8242 -0.1547  0.1767
  884MOL0     H21975   6.023   1.997  10.648  1.0926 -1.1159  0.5134
  884MOL0     H21976   6.525   3.388   9.987 -1.4002  0.1232  0.4156
  884MOL0     H21977   6.712   3.400   9.816  0.1142 -0.4879 -1.3318
  884MOL0     H21978   7.024   3.680   9.703 -0.9041 -1.4948  0.0741
  884MOL0     H21979   7.226   3.749   9.557  0.5809  2.9342 -2.3025
  884MOL0     H21980   7.400   3.792   9.230 -1.2220  1.3913  0.4803
  884MOL0     H21981   7.364   3.823   9.402  0.4618  2.0273 -1.1536
  884MOL0     H21982   7.369   3.586   9.468 -1.3079 -1.2799 -0.9789
  884MOL0     H21983   7.523   3.620   9.370  0.4547 -0.7736  0.3437
  884MOL0     H21984   7.405   3.422   9.345 -2.6751  0.2916  2.0530
  884MOL0     H21985   7.252   3.489   9.293  0.1316 -2.2732  0.5530
  884MOL0     H21986   7.344   3.558   9.082  0.8407 -0.0134  0.1454
  884MOL0     H21987   7.402   3.394   9.115 -1.5776  0.6848 -1.6205
  884MOL0     H21988   7.773   3.561   9.152  0.5891 -1.2688 -3.0769
  884MOL0     H21989   6.980   3.677   9.209 -1.1266  0.5263  0.7449
  884MOL0     H21990   6.797   3.569   9.217  0.2755  2.7327  0.3427
  884MOL0     H21991   6.737   3.483   9.358  0.7261 -0.0774  0.9427
  884MOL0     H21992   6.677   3.649   9.315  1.0721  1.8899 -0.3918
  885MOL0     O21993   7.749   7.794   4.365  0.1650  0.2139 -0.6244
  885MOL0     C21994   7.727   7.844   4.257  0.2009  0.3679  0.4897
  885MOL0     O21995   7.828   7.878   4.170  0.0155 -0.1321  1.2803
  885MOL0     C21996   7.949   7.843   4.199 -0.0948  0.5453 -0.5941
  885MOL0     C21997   7.995   7.710   4.167  0.7812 -0.2900 -0.1720
  885MOL0     C21998   8.121   7.682   4.190 -0.3494  0.6212 -0.0297
  885MOL0     C21999   8.215   7.767   4.254  0.1339  0.5018 -0.1839
  885MOL0     O22000   8.347   7.739   4.281 -0.4168 -0.2794 -0.2249
  885MOL0     C22001   8.372   7.608   4.334 -0.2681  0.2646 -0.0449
  885MOL0     C22002   8.523   7.590   4.363  0.1674 -0.2249  0.5185
  885MOL0     C22003   8.554   7.477   4.467  0.3410  0.4532  0.8200
  885MOL0     C22004   8.543   7.514   4.611 -0.9589  0.1269 -0.7284
  885MOL0     C22005   8.587   7.397   4.699 -0.2325  0.8336  0.6917
  885MOL0     C22006   8.581   7.441   4.848  0.0654  0.4293 -0.3836
  885MOL0     C22007   8.673   7.547   4.895 -0.4948  0.6511  0.6321
  885MOL0     C22008   8.830   7.521   4.856  0.0894 -0.0616 -0.4777
  885MOL0     N22009   8.869   7.581   4.730 -0.3463 -0.0239  0.0050
  885MOL0     C22010   8.949   7.506   4.642 -0.0452 -0.3230 -0.0942
  885MOL0     C22011   8.955   7.582   4.531  0.5252  0.8126  0.5117
  885MOL0     C22012   9.001   7.545   4.393  0.1894 -0.2393  0.0598
  885MOL0     C22013   9.115   7.435   4.405  0.8056 -1.2540  0.1302
  885MOL0     C22014   9.249   7.490   4.465  0.0090 -0.3708  0.4993
  885MOL0     C22015   9.366   7.388   4.456  0.1591 -0.0672 -0.4453
  885MOL0     O22016   9.479   7.443   4.520  0.2062  0.1563  0.0521
  885MOL0     C22017   9.597   7.386   4.525 -0.0955 -0.2663 -0.3894
  885MOL0     C22018   9.695   7.452   4.599 -0.0206  0.1362 -0.0127
  885MOL0     C22019   9.829   7.403   4.607 -0.1334 -0.6024  0.0718
  885MOL0     C22020   9.915   7.477   4.698 -0.5769  0.1202 -0.3327
  885MOL0     C22021   9.874   7.290   4.528  0.8171  0.7125  0.0446
  885MOL0     C22022  10.011   7.232   4.541  0.0056  0.6122 -0.6763
  885MOL0     O22023  10.124   7.309   4.567 -0.0725  0.1933 -0.1620
  885MOL0     C22024  10.249   7.256   4.588  0.4163  1.2200  0.3357
  885MOL0     C22025  10.343   7.311   4.678  0.1191 -0.1163  0.2757
  885MOL0     C22026  10.471   7.259   4.695 -0.0566 -0.3808  0.4969
  885MOL0     C22027  10.517   7.155   4.619 -0.1140 -0.4734  0.1619
  885MOL0     O22028  10.647   7.116   4.648  0.8468  0.0613 -0.5917
  885MOL0     C22029  10.741   7.069   4.546 -0.0160  0.0392 -0.5598
  885MOL0     C22030  10.881   7.077   4.608 -0.2648  0.5205  0.0578
  885MOL0     C22031  10.921   6.957   4.699 -0.8893  0.5694  0.1046
  885MOL0     C22032  11.001   6.858   4.616 -1.0329 -0.7067  0.2246
  885MOL0     C22033  11.024   6.728   4.689  0.0438  0.0094  1.3706
  885MOL0     C22034  11.128   6.644   4.620 -0.6228 -0.0087  0.5052
  885MOL0     C22035  11.272   6.656   4.678  0.3692 -0.1729  0.4222
  885MOL0     C22036  11.364   6.532   4.643 -0.0974  0.4668 -0.2843
  885MOL0    Cl22037  11.391   6.506   4.467 -0.0770 -0.1228  0.0379
  885MOL0     C22038  10.432   7.103   4.518 -0.3518  0.3326 -0.7178
  885MOL0     C22039  10.297   7.149   4.506  0.4308 -0.2288 -0.8723
  885MOL0     O22040  10.011   7.109   4.528  0.7600 -0.3414  0.1542
  885MOL0     C22041   9.775   7.227   4.448  0.6359  0.7472 -0.4152
  885MOL0     C22042   9.638   7.268   4.460 -0.0940  0.4427 -0.2072
  885MOL0     N22043   8.887   7.703   4.555 -0.0551  0.5533  0.0093
  885MOL0     N22044   8.833   7.692   4.676 -0.2615  0.4721  0.0338
  885MOL0     C22045   8.166   7.894   4.283 -0.0028  0.0921 -0.4048
  885MOL0     C22046   8.035   7.928   4.248 -0.2912 -1.0847  0.0915
  885MOL0     C22047   7.591   7.884   4.229  0.8574  0.0085  0.0825
  885MOL0     C22048   7.568   8.015   4.187  0.0704  0.7857  1.3387
  885MOL0     C22049   7.443   8.076   4.175  0.4116 -0.3631 -0.6586
  885MOL0     C22050   7.320   8.010   4.224 -0.3455 -0.0983  0.2844
  885MOL0     O22051   7.195   8.070   4.213  0.0986  0.0231 -0.0649
  885MOL0     C22052   7.102   8.009   4.120 -0.0634 -0.1019 -0.0159
  885MOL0     C22053   7.072   8.100   3.998  0.2987 -0.0595  0.8325
  885MOL0     C22054   6.964   8.048   3.908  0.0772  0.1978  0.1053
  885MOL0     C22055   6.996   7.918   3.836  0.0062  0.1799  0.5025
  885MOL0     C22056   6.893   7.895   3.733 -0.4673 -0.0075 -0.4280
  885MOL0     C22057   6.828   7.884   3.634 -0.2188  0.4331  0.8592
  885MOL0     C22058   7.355   7.881   4.267  0.4399  0.4785 -0.0229
  885MOL0     C22059   7.476   7.814   4.270 -0.5131 -0.0910  0.3932
  885MOL0     C22060   7.475   7.669   4.320 -0.3950 -0.1525  0.1418
  885MOL0     H22061   7.932   7.635   4.121  0.8143 -0.6982  0.4378
  885MOL0     H22062   8.153   7.584   4.156 -1.1146  0.0224  0.9297
  885MOL0     H22063   8.344   7.522   4.272  0.7437  1.4275 -2.2493
  885MOL0     H22064   8.318   7.610   4.429 -1.2646  0.3877 -0.6037
  885MOL0     H22065   8.568   7.572   4.265 -0.4977 -2.2065  0.5365
  885MOL0     H22066   8.567   7.686   4.393  2.0202 -0.1734 -2.0773
  885MOL0     H22067   8.476   7.403   4.443 -0.7658  0.8061  3.0331
  885MOL0     H22068   8.652   7.440   4.438  0.5822  0.6396  1.3900
  885MOL0     H22069   8.598   7.607   4.632  0.9823 -0.8971 -1.0555
  885MOL0     H22070   8.438   7.533   4.638 -0.5865  1.1614  0.0646
  885MOL0     H22071   8.686   7.358   4.675 -1.1773 -1.1356 -0.2011
  885MOL0     H22072   8.516   7.314   4.688  1.1481 -0.8465  3.3523
  885MOL0     H22073   8.482   7.485   4.864  0.8142  1.7740  0.6997
  885MOL0     H22074   8.596   7.352   4.909  0.9388  1.5581  1.1261
  885MOL0     H22075   8.660   7.548   5.004  1.6450  1.1549  0.9244
  885MOL0     H22076   8.653   7.648   4.859  2.8084  1.5400  1.0190
  885MOL0     H22077   8.898   7.560   4.933 -1.3342  0.8044  0.3903
  885MOL0     H22078   8.855   7.415   4.852  1.0097  0.0121  1.7136
  885MOL0     H22079   8.975   7.403   4.664 -0.7746 -0.4139  0.4116
  885MOL0     H22080   9.037   7.642   4.357 -0.7898 -0.3115 -1.1533
  885MOL0     H22081   8.924   7.514   4.323  0.1759  2.1919 -1.1278
  885MOL0     H22082   9.070   7.355   4.466 -0.6888 -0.4312  0.1431
  885MOL0     H22083   9.136   7.397   4.305 -1.6385  0.4295 -1.1140
  885MOL0     H22084   9.265   7.578   4.403 -5.3339 -0.2727 -1.2979
  885MOL0     H22085   9.236   7.538   4.563 -0.9331  1.4393 -0.4503
  885MOL0     H22086   9.344   7.296   4.511 -0.8396  0.8710  0.7950
  885MOL0     H22087   9.386   7.347   4.357 -1.3367 -1.7119 -0.1094
  885MOL0     H22088   9.670   7.525   4.675 -1.7294 -1.1194  0.6912
  885MOL0     H22089   9.993   7.407   4.731 -0.6322 -0.5635 -1.6130
  885MOL0     H22090   9.874   7.518   4.790 -1.1419  1.1042 -1.0091
  885MOL0     H22091   9.951   7.563   4.641  1.8197 -0.0355  0.8157
  885MOL0     H22092  10.298   7.396   4.729 -1.8027 -0.5631 -0.5915
  885MOL0     H22093  10.531   7.289   4.781 -0.4787 -0.0308  0.6720
  885MOL0     H22094  10.727   6.969   4.505  2.8802 -1.1252  0.9533
  885MOL0     H22095  10.743   7.152   4.474 -1.4233  0.6407  0.0454
  885MOL0     H22096  10.955   7.100   4.531  1.7325 -0.0104  1.7492
  885MOL0     H22097  10.894   7.166   4.671 -1.6292  0.6332  0.2189
  885MOL0     H22098  10.833   6.905   4.739  0.5687 -0.9855  1.4512
  885MOL0     H22099  10.981   6.997   4.781  0.8735  0.2485 -0.9666
  885MOL0     H22100  11.095   6.906   4.587 -2.0551 -0.4995 -3.1088
  885MOL0     H22101  10.948   6.828   4.526 -3.7408 -1.2506  1.8776
  885MOL0     H22102  11.043   6.758   4.793  0.2291  2.4099  0.6998
  885MOL0     H22103  10.931   6.672   4.686 -0.2309  0.4959  0.5766
  885MOL0     H22104  11.123   6.683   4.518 -3.2327  1.1848  1.0167
  885MOL0     H22105  11.099   6.539   4.611 -0.3386 -0.0349 -0.2135
  885MOL0     H22106  11.270   6.672   4.786  0.2652 -0.8222  0.5210
  885MOL0     H22107  11.311   6.754   4.649 -1.4349  0.4313 -0.0666
  885MOL0     H22108  11.325   6.438   4.684  0.5044  0.3142 -0.0479
  885MOL0     H22109  11.459   6.544   4.697 -1.9082  1.0023  3.0827
  885MOL0     H22110  10.463   7.024   4.451  1.1738  0.6675 -0.4351
  885MOL0     H22111  10.237   7.104   4.428 -1.0221  2.4335 -1.4282
  885MOL0     H22112   9.801   7.135   4.397 -0.1162  0.1349  0.2756
  885MOL0     H22113   9.564   7.221   4.396  0.2357  1.5456 -1.4299
  885MOL0     H22114   8.225   7.970   4.332 -0.3102 -0.6450  1.1956
  885MOL0     H22115   8.005   8.032   4.255 -1.6190 -1.2656 -1.9621
  885MOL0     H22116   7.652   8.078   4.163 -0.3315  1.0562  0.5942
  885MOL0     H22117   7.433   8.179   4.143  1.1213 -0.6909 -1.9924
  885MOL0     H22118   7.144   7.914   4.088  0.0532 -0.5090  1.2893
  885MOL0     H22119   7.015   7.980   4.179  1.0333 -0.6505  1.3945
  885MOL0     H22120   7.166   8.117   3.945 -0.0973  0.4765  0.2853
  885MOL0     H22121   7.039   8.198   4.033 -2.7158 -1.5875  2.7258
  885MOL0     H22122   6.880   8.022   3.973 -1.3730  0.0749 -1.7478
  885MOL0     H22123   6.940   8.124   3.833 -0.3550 -0.8066 -0.8075
  885MOL0     H22124   7.015   7.832   3.901  1.2982 -0.9891 -1.3306
  885MOL0     H22125   7.090   7.933   3.783  0.9706 -1.5222  1.6187
  885MOL0     H22126   6.756   7.878   3.554 -1.0161 -1.5363  1.6784
  885MOL0     H22127   7.271   7.816   4.294 -0.0223  2.5161  4.3162
  885MOL0     H22128   7.521   7.667   4.419 -0.0622  0.7900  0.0201
  885MOL0     H22129   7.376   7.627   4.341 -1.9487  2.7985 -0.7171
  885MOL0     H22130   7.541   7.612   4.254 -0.4600 -0.4281  0.3139
  886MOL0     O22131   2.639   0.016   1.876  0.2611 -0.0771 -0.2784
  886MOL0     C22132   2.659  -0.050   1.771 -0.5671 -0.1676 -0.5215
  886MOL0     O22133   2.777  -0.113   1.738  0.0377  0.1650 -0.0452
  886MOL0     C22134   2.885  -0.107   1.823  0.1051 -0.4767 -0.2668
  886MOL0     C22135   2.951   0.013   1.849  0.1137 -0.3232 -0.6715
  886MOL0     C22136   3.074   0.020   1.910  0.3093 -1.5233 -0.4195
  886MOL0     C22137   3.127  -0.103   1.953  0.0950  0.9350 -1.2493
  886MOL0     O22138   3.250  -0.091   2.010 -0.4182  0.3505 -0.6679
  886MOL0     C22139   3.308  -0.209   2.081  0.0546 -0.1500  0.2519
  886MOL0     C22140   3.439  -0.160   2.143 -0.3895  0.2853  0.2944
  886MOL0     C22141   3.527  -0.278   2.194  0.9877  0.3957 -0.4183
  886MOL0     C22142   3.638  -0.240   2.290 -0.4060 -0.3890 -0.7724
  886MOL0     C22143   3.731  -0.356   2.342  0.9231 -0.4751 -0.3083
  886MOL0     C22144   3.833  -0.294   2.436  0.4612 -0.5950  0.1911
  886MOL0     C22145   3.942  -0.389   2.489  0.3244 -0.1107 -0.4670
  886MOL0     C22146   4.033  -0.302   2.572 -0.3566  0.3793  0.4967
  886MOL0     N22147   4.132  -0.388   2.634  0.2479  0.4348  0.4529
  886MOL0     C22148   4.120  -0.445   2.757 -0.9979  0.0957  0.9876
  886MOL0     C22149   4.243  -0.496   2.795  0.6141 -0.1400 -0.5253
  886MOL0     C22150   4.287  -0.528   2.937  0.2156  0.1265  0.3607
  886MOL0     C22151   4.432  -0.551   2.947 -1.1453 -0.2935  0.0962
  886MOL0     C22152   4.464  -0.578   3.097  0.1922 -0.2568  0.5403
  886MOL0     C22153   4.610  -0.606   3.113  0.3777 -0.4585 -1.3886
  886MOL0     O22154   4.631  -0.615   3.254 -0.8929 -0.1155  0.0232
  886MOL0     C22155   4.743  -0.683   3.297  0.5703 -0.6444  1.0642
  886MOL0     C22156   4.848  -0.726   3.208  0.8060 -0.2035 -0.0708
  886MOL0     C22157   4.961  -0.804   3.252  0.3765  1.0545  0.3771
  886MOL0     C22158   5.063  -0.852   3.151  0.2404 -0.7952 -0.5198
  886MOL0     C22159   4.972  -0.841   3.389  0.1603 -0.1228 -0.2078
  886MOL0     C22160   5.082  -0.920   3.451  0.4890 -0.1592  0.6130
  886MOL0     O22161   5.062  -0.956   3.579 -1.0829  0.3398  0.1689
  886MOL0     C22162   5.150  -1.040   3.645  0.1783 -0.5146  0.1039
  886MOL0     C22163   5.284  -0.993   3.655 -0.2609  1.3952 -0.3457
  886MOL0     C22164   5.382  -1.080   3.701 -0.1666 -0.0841 -0.4171
  886MOL0     C22165   5.345  -1.214   3.748 -0.4172 -0.3905 -0.1990
  886MOL0     O22166   5.450  -1.291   3.785 -0.1620  0.7199  0.6800
  886MOL0     C22167   5.428  -1.429   3.793  0.3357 -0.3098 -0.8266
  886MOL0     C22168   5.559  -1.506   3.790 -0.1093 -0.2544 -0.9541
  886MOL0     C22169   5.627  -1.492   3.650  0.2570 -0.3607 -0.7149
  886MOL0     C22170   5.764  -1.564   3.643  0.2184  0.0733 -0.0735
  886MOL0     C22171   5.817  -1.585   3.499 -0.6597  0.2161 -0.0619
  886MOL0     C22172   5.942  -1.680   3.508  0.4738  0.8162 -0.7516
  886MOL0     C22173   5.888  -1.831   3.514  0.4148  0.2384  0.7512
  886MOL0     C22174   6.007  -1.927   3.526  0.3429  0.1495 -0.4327
  886MOL0    Cl22175   6.141  -1.892   3.410  0.2375  0.0821 -0.1518
  886MOL0     C22176   5.214  -1.252   3.736 -0.1230  0.1245  0.0349
  886MOL0     C22177   5.114  -1.166   3.684 -0.6475  0.4937 -0.1352
  886MOL0     O22178   5.180  -0.953   3.385  0.2407 -0.7953  0.4026
  886MOL0     C22179   4.861  -0.807   3.471  0.5188  0.1195  0.2595
  886MOL0     C22180   4.748  -0.733   3.426 -0.6887  0.0188 -0.4603
  886MOL0     N22181   4.321  -0.463   2.687  0.2097  0.1681 -0.0797
  886MOL0     N22182   4.257  -0.408   2.585  1.1282 -0.6395  0.4319
  886MOL0     C22183   3.064  -0.229   1.933  0.6261 -0.1927  0.0236
  886MOL0     C22184   2.939  -0.224   1.867  0.0194  0.2984 -0.3506
  886MOL0     C22185   2.555  -0.049   1.661  0.3247  0.1614 -0.6310
  886MOL0     C22186   2.556  -0.157   1.569 -0.6944 -0.6172 -0.4352
  886MOL0     C22187   2.457  -0.171   1.478  0.5640  0.0734 -0.2650
  886MOL0     C22188   2.347  -0.088   1.466 -0.3243  0.1085 -0.5266
  886MOL0     O22189   2.243  -0.093   1.379  0.2830 -0.1517 -0.2043
  886MOL0     C22190   2.264  -0.179   1.264  0.0098 -0.4197  0.2911
  886MOL0     C22191   2.213  -0.322   1.296  0.1333 -0.6077 -0.1332
  886MOL0     C22192   2.067  -0.338   1.323  1.2538 -0.1143  0.4682
  886MOL0     C22193   1.961  -0.292   1.216  0.3884 -0.1051  0.3327
  886MOL0     C22194   1.824  -0.318   1.269  0.3296 -0.3846 -0.6275
  886MOL0     C22195   1.716  -0.361   1.313  0.5067  0.0333 -0.7628
  886MOL0     C22196   2.352   0.030   1.544 -0.3496  0.2118  0.3891
  886MOL0     C22197   2.453   0.050   1.644  0.2288  0.2301 -0.8311
  886MOL0     C22198   2.441   0.176   1.733 -0.0526 -0.0715 -0.4579
  886MOL0     H22199   2.907   0.103   1.809 -0.3492 -0.9713 -1.6607
  886MOL0     H22200   3.119   0.116   1.931 -0.6936 -1.2520  0.6446
  886MOL0     H22201   3.329  -0.294   2.016  0.4126 -2.4346  3.1936
  886MOL0     H22202   3.232  -0.242   2.152 -0.5263  2.8836  1.1837
  886MOL0     H22203   3.506  -0.116   2.069 -0.6588 -0.2288 -0.2591
  886MOL0     H22204   3.416  -0.082   2.216 -2.7651 -1.4929  1.5947
  886MOL0     H22205   3.461  -0.350   2.242 -1.0623  3.4644  1.7377
  886MOL0     H22206   3.567  -0.322   2.102 -0.2152 -1.8321  0.0537
  886MOL0     H22207   3.690  -0.157   2.240 -0.4520 -1.2373 -2.3013
  886MOL0     H22208   3.586  -0.199   2.377 -0.5363 -0.1736 -0.9522
  886MOL0     H22209   3.776  -0.407   2.257  5.3144  0.0123  1.4665
  886MOL0     H22210   3.680  -0.436   2.396  1.5657 -2.7175 -2.8153
  886MOL0     H22211   3.875  -0.203   2.392 -0.1934 -0.4588 -0.1644
  886MOL0     H22212   3.777  -0.254   2.521 -0.5372 -0.5847 -0.4590
  886MOL0     H22213   3.991  -0.440   2.405 -0.0521 -1.7908  0.2851
  886MOL0     H22214   3.889  -0.463   2.550 -0.5233 -0.1320 -1.2092
  886MOL0     H22215   4.083  -0.228   2.509 -2.5134  0.0169 -1.8541
  886MOL0     H22216   3.983  -0.261   2.660 -1.2364  0.1239  0.1320
  886MOL0     H22217   4.031  -0.445   2.818 -2.2986 -0.0321 -0.8424
  886MOL0     H22218   4.241  -0.618   2.978  2.2943  0.4131  3.7254
  886MOL0     H22219   4.253  -0.455   3.011 -4.4881 -0.7964 -0.6211
  886MOL0     H22220   4.455  -0.644   2.894  0.8734  0.5055 -0.5386
  886MOL0     H22221   4.487  -0.468   2.901 -2.1620 -1.1490 -2.8947
  886MOL0     H22222   4.433  -0.490   3.154 -4.1763 -0.8343 -0.6146
  886MOL0     H22223   4.404  -0.663   3.128 -1.4846  0.9512  0.7254
  886MOL0     H22224   4.631  -0.704   3.069  3.5681 -1.4623  1.9420
  886MOL0     H22225   4.664  -0.518   3.076  4.9851 -1.3249  2.3928
  886MOL0     H22226   4.832  -0.709   3.102 -0.4472  0.2099  0.1733
  886MOL0     H22227   5.157  -0.797   3.162  0.7534 -2.1518  3.1240
  886MOL0     H22228   5.033  -0.843   3.046  0.4507 -1.9803 -0.7042
  886MOL0     H22229   5.078  -0.959   3.170  0.7038 -0.7466 -0.6136
  886MOL0     H22230   5.323  -0.898   3.622 -0.1177  0.8151 -1.9390
  886MOL0     H22231   5.488  -1.058   3.688  0.4199 -0.9558  2.3083
  886MOL0     H22232   5.379  -1.443   3.890 -0.9778 -0.5647 -1.5111
  886MOL0     H22233   5.366  -1.460   3.708  0.5630 -0.6020 -0.8872
  886MOL0     H22234   5.624  -1.477   3.873  0.1867 -0.8586 -0.9653
  886MOL0     H22235   5.539  -1.612   3.808  0.3695 -0.5984 -2.3282
  886MOL0     H22236   5.642  -1.386   3.630  0.7879  0.6392  3.8979
  886MOL0     H22237   5.562  -1.548   3.582 -0.7767 -0.0978  0.0453
  886MOL0     H22238   5.782  -1.659   3.693  0.9575 -0.3431 -1.1078
  886MOL0     H22239   5.838  -1.505   3.699  1.4536  0.2664 -1.8155
  886MOL0     H22240   5.738  -1.636   3.444 -0.7248  0.7178 -0.4410
  886MOL0     H22241   5.854  -1.493   3.452 -2.1226 -0.7385 -3.3193
  886MOL0     H22242   6.015  -1.656   3.586  0.4565  2.1428 -1.1107
  886MOL0     H22243   5.994  -1.659   3.414 -1.7313  0.6108 -2.1002
  886MOL0     H22244   5.829  -1.864   3.428  0.4399  2.2596 -0.0907
  886MOL0     H22245   5.821  -1.841   3.599  0.5265  0.2324  0.8384
  886MOL0     H22246   5.982  -2.033   3.513  2.9390 -0.4387 -1.1877
  886MOL0     H22247   6.048  -1.924   3.628 -0.8100  1.0879  0.0162
  886MOL0     H22248   5.182  -1.349   3.771  1.4236  0.7186  3.5555
  886MOL0     H22249   5.015  -1.204   3.657  0.3314 -0.6389 -2.4443
  886MOL0     H22250   4.847  -0.842   3.573 -1.9641 -0.5591 -0.2462
  886MOL0     H22251   4.676  -0.706   3.503  1.8348  2.0844  1.4012
  886MOL0     H22252   3.108  -0.323   1.964 -0.3600 -1.1307 -1.3313
  886MOL0     H22253   2.887  -0.319   1.855 -0.6895  0.2258  2.5711
  886MOL0     H22254   2.644  -0.221   1.570  0.2380  0.6148 -0.4569
  886MOL0     H22255   2.465  -0.251   1.404 -2.0241 -1.3563  0.8653
  886MOL0     H22256   2.203  -0.139   1.182  1.0441  1.1544  0.2410
  886MOL0     H22257   2.369  -0.183   1.233  0.2344  2.4372  0.4870
  886MOL0     H22258   2.270  -0.365   1.379  0.1761 -1.2792 -0.5000
  886MOL0     H22259   2.226  -0.372   1.199 -2.2397  1.1586 -1.4586
  886MOL0     H22260   2.050  -0.444   1.343  0.4287  0.0004  0.4061
  886MOL0     H22261   2.044  -0.275   1.410  0.4464 -0.0405  0.2048
  886MOL0     H22262   1.962  -0.354   1.126 -0.5495 -2.2365  1.7232
  886MOL0     H22263   1.971  -0.191   1.175 -0.5276  0.1091  0.6259
  886MOL0     H22264   1.622  -0.391   1.355 -0.6070  0.0698 -3.0608
  886MOL0     H22265   2.274   0.104   1.531 -0.2920 -0.0529 -1.8649
  886MOL0     H22266   2.401   0.133   1.825 -0.8067 -3.7324 -2.3289
  886MOL0     H22267   2.539   0.222   1.751 -0.4381  0.8856 -0.7523
  886MOL0     H22268   2.375   0.249   1.685  2.0644  0.7407 -2.3456
  887MOL0     O22269  11.252  10.776   6.170 -0.0121  0.3550 -0.0573
  887MOL0     C22270  11.133  10.777   6.155  0.5130  0.5780 -1.0397
  887MOL0     O22271  11.037  10.835   6.230  0.5415 -0.0426 -0.1989
  887MOL0     C22272  11.065  10.935   6.324  1.3048 -0.4392  0.3852
  887MOL0     C22273  11.061  10.905   6.457 -1.0577  0.7808 -0.6877
  887MOL0     C22274  11.080  11.008   6.554 -0.0024  0.5218  0.4275
  887MOL0     C22275  11.089  11.144   6.508  0.1372  0.7421  0.0423
  887MOL0     O22276  11.092  11.231   6.616 -0.1054  0.3244  0.3248
  887MOL0     C22277  11.145  11.363   6.585 -0.1649 -0.1122  0.1284
  887MOL0     C22278  11.293  11.328   6.558  0.0482 -0.3980  0.7138
  887MOL0     C22279  11.366  11.458   6.543  0.3798 -0.4897 -1.5896
  887MOL0     C22280  11.515  11.432   6.537  0.2729 -0.3107  0.0191
  887MOL0     C22281  11.608  11.544   6.570  0.0825 -0.6665 -0.1134
  887MOL0     C22282  11.693  11.510   6.692  0.0532 -0.6006 -0.1087
  887MOL0     C22283  11.818  11.600   6.717 -0.0184  0.1813  0.6573
  887MOL0     C22284  11.816  11.666   6.853 -0.2353  0.0993  0.9269
  887MOL0     N22285  11.949  11.727   6.882 -0.0992 -0.0533 -0.2176
  887MOL0     C22286  11.993  11.752   7.003 -0.4701 -0.6781  0.0137
  887MOL0     C22287  12.123  11.802   6.988 -0.0188  0.1068  0.3521
  887MOL0     C22288  12.214  11.835   7.104 -0.1836  0.5760 -0.2130
  887MOL0     C22289  12.368  11.813   7.073  1.0141  0.3041  0.0912
  887MOL0     C22290  12.423  11.935   6.993  0.0944  0.1939 -0.9485
  887MOL0     C22291  12.547  11.893   6.905  0.4771 -0.4994 -0.9405
  887MOL0     O22292  12.644  11.822   6.983  0.4149  0.0924  0.1386
  887MOL0     C22293  12.774  11.844   6.932  1.0888 -0.2868  0.0639
  887MOL0     C22294  12.874  11.854   7.027 -0.2686  0.9626 -0.8447
  887MOL0     C22295  13.008  11.862   7.000  0.7497 -0.1239  0.2423
  887MOL0     C22296  13.100  11.873   7.125  0.3534 -0.3002  0.5077
  887MOL0     C22297  13.042  11.887   6.865 -0.4632  0.6496  0.4594
  887MOL0     C22298  13.180  11.919   6.816  0.0555 -0.9538  0.2169
  887MOL0     O22299  13.252  12.002   6.896  0.0064  0.6902 -0.1222
  887MOL0     C22300  13.385  12.012   6.866  0.4134  0.4610 -0.2244
  887MOL0     C22301  13.423  12.133   6.908 -0.3836 -0.6130 -0.1153
  887MOL0     C22302  13.554  12.166   6.917 -0.6542 -1.0071  0.1990
  887MOL0     C22303  13.656  12.073   6.868  0.2265 -0.4473  0.5349
  887MOL0     O22304  13.799  12.092   6.871 -0.4716 -0.7191  0.5919
  887MOL0     C22305  13.843  12.226   6.915 -0.0570  0.1207  0.2633
  887MOL0     C22306  13.995  12.197   6.949 -0.9471 -0.0872  0.9246
  887MOL0     C22307  14.088  12.324   6.958  1.0646  0.4581  0.2065
  887MOL0     C22308  14.108  12.391   6.819 -0.6057  0.3442 -0.7709
  887MOL0     C22309  14.170  12.530   6.841  0.4653 -0.2036  0.5197
  887MOL0     C22310  14.309  12.541   6.766  0.1907  0.4054  0.2613
  887MOL0     C22311  14.379  12.679   6.778  0.7082 -0.3406 -0.2838
  887MOL0     C22312  14.510  12.681   6.699 -0.3196  0.2856 -0.1099
  887MOL0    Cl22313  14.625  12.552   6.757  0.2807  0.0792 -0.4328
  887MOL0     C22314  13.618  11.947   6.829  0.7430  0.6218 -0.4068
  887MOL0     C22315  13.481  11.914   6.829 -0.3161 -0.2082 -0.1340
  887MOL0     O22316  13.222  11.865   6.721 -0.3389  0.8158 -0.5785
  887MOL0     C22317  12.943  11.871   6.762 -0.3160 -0.1673  0.1812
  887MOL0     C22318  12.813  11.849   6.797  0.3983 -0.5535 -0.1250
  887MOL0     N22319  12.136  11.827   6.851 -0.5471  0.3946 -0.1144
  887MOL0     N22320  12.032  11.786   6.788 -0.7304  0.5854 -0.3486
  887MOL0     C22321  11.097  11.174   6.375 -1.0076  0.0503 -0.9084
  887MOL0     C22322  11.087  11.066   6.288  0.1254 -0.0328  0.2401
  887MOL0     C22323  11.072  10.691   6.047 -0.0226  0.7226 -1.7303
  887MOL0     C22324  10.932  10.662   6.057 -0.3643  0.1972  0.9023
  887MOL0     C22325  10.879  10.592   5.951  0.6220  0.5209 -0.6848
  887MOL0     C22326  10.949  10.544   5.840 -0.4943 -0.1403  1.0028
  887MOL0     O22327  10.873  10.471   5.751  0.4936  0.4454  0.3629
  887MOL0     C22328  10.928  10.371   5.663 -0.1591 -0.5479 -0.3699
  887MOL0     C22329  10.963  10.251   5.749 -0.3066  0.0763  0.8818
  887MOL0     C22330  11.032  10.138   5.673 -0.4705 -0.6274  0.3164
  887MOL0     C22331  11.140  10.175   5.569 -0.8517  0.2389  0.3029
  887MOL0     C22332  11.246  10.267   5.623  0.3158  0.2522  0.4787
  887MOL0     C22333  11.332  10.339   5.661  0.5711  0.0068  0.4053
  887MOL0     C22334  11.085  10.560   5.841  0.5306 -0.4813 -1.0491
  887MOL0     C22335  11.147  10.629   5.945 -0.1044  0.0071 -0.4525
  887MOL0     C22336  11.299  10.627   5.936  0.2007  0.0910  0.7424
  887MOL0     H22337  11.043  10.802   6.487  0.4873  0.8806  0.7525
  887MOL0     H22338  11.073  10.974   6.656  1.6997  0.0037  0.3900
  887MOL0     H22339  11.138  11.428   6.673 -1.4519 -0.7864  0.5510
  887MOL0     H22340  11.099  11.409   6.496  1.5525  0.3187 -0.5869
  887MOL0     H22341  11.330  11.269   6.642 -1.7086 -0.8666  1.2014
  887MOL0     H22342  11.316  11.284   6.461 -2.1265  1.2267 -0.6432
  887MOL0     H22343  11.341  11.520   6.457  1.1704  1.7973 -0.2308
  887MOL0     H22344  11.349  11.515   6.634 -2.2549 -0.7982 -1.7845
  887MOL0     H22345  11.549  11.349   6.600 -0.3441  0.6858  1.7482
  887MOL0     H22346  11.529  11.402   6.433 -1.0813 -0.2873 -0.1812
  887MOL0     H22347  11.559  11.638   6.596  0.3889 -0.9491  1.5933
  887MOL0     H22348  11.675  11.561   6.485 -1.0642 -1.1236 -1.1166
  887MOL0     H22349  11.630  11.513   6.781  1.1704  0.4112  0.6894
  887MOL0     H22350  11.738  11.411   6.679  1.4554 -0.1052  0.7271
  887MOL0     H22351  11.821  11.672   6.634 -0.3531 -1.5896 -0.9552
  887MOL0     H22352  11.910  11.542   6.704  1.5549  2.6509  0.0149
  887MOL0     H22353  11.742  11.746   6.846 -1.3702 -1.0712 -1.7074
  887MOL0     H22354  11.785  11.591   6.927  0.5979  2.2821  3.6478
  887MOL0     H22355  11.945  11.733   7.098 -0.5659  1.6580  0.4979
  887MOL0     H22356  12.185  11.769   7.186  0.7402 -1.0788 -1.1615
  887MOL0     H22357  12.192  11.939   7.128  0.7021  1.1175 -1.6203
  887MOL0     H22358  12.432  11.796   7.160 -1.6080 -0.2155  2.0705
  887MOL0     H22359  12.371  11.723   7.011 -0.9118  1.6257 -2.0850
  887MOL0     H22360  12.353  11.990   6.931 -0.9989  1.1482  1.0235
  887MOL0     H22361  12.463  12.000   7.072 -0.6430 -1.0652  0.5281
  887MOL0     H22362  12.517  11.832   6.819  2.3052 -0.2380 -1.8217
  887MOL0     H22363  12.588  11.990   6.877 -0.4741 -0.0976 -0.9753
  887MOL0     H22364  12.840  11.834   7.128 -1.7719  1.2648 -1.2661
  887MOL0     H22365  13.194  11.825   7.099  0.8137  0.2394  1.1488
  887MOL0     H22366  13.049  11.813   7.202  1.2059 -1.2595  0.3393
  887MOL0     H22367  13.118  11.977   7.155 -1.8527  0.6087 -1.0755
  887MOL0     H22368  13.345  12.204   6.932 -1.8751 -1.0816 -3.0688
  887MOL0     H22369  13.570  12.268   6.952 -0.6626 -0.9201 -0.0452
  887MOL0     H22370  13.840  12.303   6.838 -1.0239  1.4656  1.5884
  887MOL0     H22371  13.786  12.261   7.001  1.1019 -1.2201  1.6456
  887MOL0     H22372  14.005  12.133   7.037  1.7675 -1.9970 -0.6419
  887MOL0     H22373  14.032  12.138   6.865  1.2751 -1.7716  2.9587
  887MOL0     H22374  14.187  12.314   7.004  1.7091 -3.3666 -1.6531
  887MOL0     H22375  14.032  12.400   7.012 -0.1941 -1.6727  2.0684
  887MOL0     H22376  14.020  12.397   6.754 -1.3417 -1.0384  0.0643
  887MOL0     H22377  14.182  12.332   6.763  0.8790 -0.3866  1.7906
  887MOL0     H22378  14.106  12.608   6.798 -0.4529 -1.5519 -0.6726
  887MOL0     H22379  14.168  12.554   6.947  0.7365 -0.1792  0.5190
  887MOL0     H22380  14.297  12.524   6.658  2.1897  0.6761 -0.0435
  887MOL0     H22381  14.378  12.463   6.799  1.0190  1.0548  0.0966
  887MOL0     H22382  14.409  12.686   6.883  0.6505 -2.3338 -0.0998
  887MOL0     H22383  14.316  12.761   6.741  0.1620  0.0255  1.3558
  887MOL0     H22384  14.566  12.774   6.708  0.6448 -0.4031  1.2142
  887MOL0     H22385  14.475  12.669   6.596 -1.2227  0.3011  0.1854
  887MOL0     H22386  13.699  11.879   6.802  0.0863 -0.8816  1.2254
  887MOL0     H22387  13.461  11.813   6.795  1.6123 -0.0003 -2.0974
  887MOL0     H22388  12.976  11.888   6.661  1.4103  4.3793  1.2696
  887MOL0     H22389  12.743  11.840   6.715  1.2537  0.4830 -0.9949
  887MOL0     H22390  11.133  11.272   6.346  2.5549 -0.8032  0.1878
  887MOL0     H22391  11.099  11.083   6.182 -1.7388 -0.1296 -0.0192
  887MOL0     H22392  10.857  10.688   6.131  0.1294  4.3920  0.1585
  887MOL0     H22393  10.774  10.564   5.952  0.7133  0.1376 -1.5106
  887MOL0     H22394  10.848  10.350   5.592 -0.2246  0.0917 -0.4924
  887MOL0     H22395  11.005  10.404   5.593 -0.7553 -3.1252 -2.3760
  887MOL0     H22396  10.870  10.211   5.789  0.6793 -3.1227  0.2999
  887MOL0     H22397  11.042  10.274   5.821  2.3482 -0.1638 -1.7285
  887MOL0     H22398  11.070  10.075   5.755  0.0916  1.4639  1.7414
  887MOL0     H22399  10.958  10.074   5.624 -0.6311  0.0412 -0.3297
  887MOL0     H22400  11.104  10.225   5.478 -0.0032  1.7471  0.7513
  887MOL0     H22401  11.185  10.088   5.520 -0.0732  0.7674  0.0505
  887MOL0     H22402  11.392  10.423   5.690  1.2558 -1.0374  2.1946
  887MOL0     H22403  11.138  10.501   5.768  1.9759 -0.2348 -0.2318
  887MOL0     H22404  11.352  10.723   5.930 -0.0731  0.1616 -1.2009
  887MOL0     H22405  11.348  10.576   6.020  2.0325  0.8873  0.2007
  887MOL0     H22406  11.325  10.566   5.850  1.8489 -0.3697  1.5276
  888MOL0     O22407   5.871   3.959   5.022  0.5269  0.6310 -0.5293
  888MOL0     C22408   5.823   3.900   4.925 -0.6189 -0.4404 -0.0053
  888MOL0     O22409   5.894   3.833   4.827  0.1570 -0.0008  0.1014
  888MOL0     C22410   6.031   3.843   4.827  0.2019  0.5565 -0.1143
  888MOL0     C22411   6.093   3.948   4.763 -0.3656  0.1443  0.3894
  888MOL0     C22412   6.235   3.949   4.760 -0.6479 -0.2663 -0.6797
  888MOL0     C22413   6.313   3.857   4.827  0.4631 -0.2531  0.5660
  888MOL0     O22414   6.451   3.870   4.824 -0.2719  0.1293 -0.0687
  888MOL0     C22415   6.507   3.971   4.914  0.0078  0.6561  0.0133
  888MOL0     C22416   6.651   3.986   4.896 -0.0779  0.5494 -0.2298
  888MOL0     C22417   6.706   4.057   4.765  0.2226 -0.1361 -0.2619
  888MOL0     C22418   6.852   4.082   4.795 -1.0717  0.2323  1.1317
  888MOL0     C22419   6.921   4.178   4.688 -1.0815 -0.2094 -0.1037
  888MOL0     C22420   6.934   4.127   4.546 -0.0741  1.3093 -0.3003
  888MOL0     C22421   7.037   4.203   4.457  0.3429 -0.2512 -0.2431
  888MOL0     C22422   7.050   4.128   4.319  0.2529  0.3273 -0.0438
  888MOL0     N22423   7.147   4.187   4.228 -0.5896  0.1879  0.3414
  888MOL0     C22424   7.274   4.139   4.203 -0.0708 -1.1474 -0.8015
  888MOL0     C22425   7.337   4.222   4.114  0.2649  0.4831 -0.5561
  888MOL0     C22426   7.477   4.201   4.048  0.1342  0.2043  0.8767
  888MOL0     C22427   7.593   4.251   4.134  0.6208 -0.1294 -0.7720
  888MOL0     C22428   7.714   4.268   4.047 -0.0846 -0.2979  0.1822
  888MOL0     C22429   7.827   4.358   4.108  0.2852  0.5399 -0.0419
  888MOL0     O22430   7.934   4.345   4.010  0.1144 -0.3469 -0.5521
  888MOL0     C22431   8.071   4.360   4.048  0.8783 -0.1058  0.6008
  888MOL0     C22432   8.116   4.441   4.157  0.3973  0.0304  0.0555
  888MOL0     C22433   8.248   4.455   4.190  0.0266  0.9352 -0.3218
  888MOL0     C22434   8.279   4.536   4.317  0.2923 -0.8259 -0.3822
  888MOL0     C22435   8.348   4.375   4.123  0.3684 -0.2163  0.4633
  888MOL0     C22436   8.493   4.381   4.149 -0.4051  0.4779 -0.4176
  888MOL0     O22437   8.561   4.282   4.090  0.6293 -0.3212  0.2130
  888MOL0     C22438   8.696   4.251   4.104  0.0132  0.2019  0.5679
  888MOL0     C22439   8.736   4.125   4.073  0.1776 -0.4105 -0.2278
  888MOL0     C22440   8.869   4.095   4.074  0.2175  0.8408 -0.5092
  888MOL0     C22441   8.970   4.184   4.098 -0.4350  1.0765 -0.6291
  888MOL0     O22442   9.106   4.141   4.101 -0.9437  0.0271  0.5854
  888MOL0     C22443   9.137   4.003   4.140 -0.0680  0.3941  0.1735
  888MOL0     C22444   9.289   3.978   4.126  0.1930  0.1892 -0.2766
  888MOL0     C22445   9.351   4.043   4.004  0.7274 -0.9801  0.7557
  888MOL0     C22446   9.275   4.016   3.870  0.3531  0.0827 -0.4717
  888MOL0     C22447   9.375   4.036   3.755  0.0729 -0.7248  0.5732
  888MOL0     C22448   9.315   4.002   3.617  0.1307  0.2534  0.1897
  888MOL0     C22449   9.414   4.024   3.494 -0.2925 -0.5833  0.1439
  888MOL0     C22450   9.433   4.174   3.488  0.7695 -0.1646 -0.3744
  888MOL0    Cl22451   9.511   4.192   3.333  0.1513  0.0820 -0.2498
  888MOL0     C22452   8.934   4.313   4.130  0.0400 -0.4237  0.4296
  888MOL0     C22453   8.798   4.345   4.129  0.2554 -0.4096 -0.2953
  888MOL0     O22454   8.542   4.464   4.228 -0.0850 -0.1467  0.2435
  888MOL0     C22455   8.308   4.299   4.017  0.0656  0.5656  0.7333
  888MOL0     C22456   8.171   4.287   3.984  0.1152 -0.4576  0.1900
  888MOL0     N22457   7.247   4.312   4.081  0.0340  1.0970 -0.7113
  888MOL0     N22458   7.137   4.294   4.153  0.2865 -0.6749 -0.0244
  888MOL0     C22459   6.240   3.762   4.906  0.4310 -0.4449  0.1794
  888MOL0     C22460   6.105   3.748   4.894 -0.1715 -0.2843  0.8580
  888MOL0     C22461   5.676   3.918   4.893  0.5484  0.4428 -0.1038
  888MOL0     C22462   5.642   3.897   4.756  0.3723 -0.3717  0.2036
  888MOL0     C22463   5.502   3.900   4.719  1.0508  0.0928 -0.0133
  888MOL0     C22464   5.405   3.917   4.820 -0.5241  0.5400  0.0521
  888MOL0     O22465   5.273   3.934   4.783 -0.1810 -0.1319 -0.0696
  888MOL0     C22466   5.175   3.969   4.883  0.9406 -0.3575  0.6719
  888MOL0     C22467   5.139   3.842   4.962  0.0096 -0.7185 -0.3558
  888MOL0     C22468   5.082   3.735   4.871  0.3362 -0.1647 -0.6196
  888MOL0     C22469   5.025   3.613   4.954  0.3698 -0.3910 -0.5211
  888MOL0     C22470   4.942   3.636   5.074 -0.0592  0.8397 -0.2753
  888MOL0     C22471   4.880   3.654   5.180  0.7417 -0.1782 -0.0470
  888MOL0     C22472   5.445   3.940   4.955 -0.5661 -0.4962 -0.8255
  888MOL0     C22473   5.581   3.939   4.994  0.2237 -0.1370  0.1642
  888MOL0     C22474   5.613   3.959   5.145 -0.3226  0.2406  0.0648
  888MOL0     H22475   6.031   4.025   4.718 -0.3031 -0.9771 -1.7439
  888MOL0     H22476   6.293   4.018   4.700 -1.6412  1.2483  0.0319
  888MOL0     H22477   6.481   3.943   5.017 -0.3048  1.5970  0.2059
  888MOL0     H22478   6.466   4.069   4.887  2.0936  1.8591  0.9428
  888MOL0     H22479   6.679   4.053   4.978  2.4700 -2.1418  1.2642
  888MOL0     H22480   6.706   3.897   4.926  1.6337  2.6271  3.5167
  888MOL0     H22481   6.684   3.989   4.682 -1.4498 -0.5592  0.4727
  888MOL0     H22482   6.646   4.147   4.748 -1.7561 -0.6575  3.1112
  888MOL0     H22483   6.857   4.140   4.887  0.4044 -2.4588  2.8793
  888MOL0     H22484   6.910   3.993   4.821 -0.7491 -0.6164 -2.0178
  888MOL0     H22485   7.019   4.209   4.726 -1.4869  0.7417  0.2166
  888MOL0     H22486   6.872   4.276   4.689  2.6159  1.8660  1.8061
  888MOL0     H22487   6.967   4.023   4.536 -0.1904  1.4859 -3.5198
  888MOL0     H22488   6.834   4.125   4.501 -0.9967 -0.5849  1.6245
  888MOL0     H22489   7.136   4.207   4.501 -0.3751  0.6700  1.3735
  888MOL0     H22490   7.006   4.305   4.434  3.0975  1.2248  2.0847
  888MOL0     H22491   7.084   4.026   4.339  1.1181  0.8264  1.1491
  888MOL0     H22492   6.948   4.120   4.279  0.8932 -1.5908 -1.4245
  888MOL0     H22493   7.322   4.053   4.250  1.7720 -1.1573 -2.5774
  888MOL0     H22494   7.470   4.252   3.951  0.2726 -0.9294  0.2606
  888MOL0     H22495   7.493   4.096   4.026 -0.7070  0.7566 -3.1855
  888MOL0     H22496   7.564   4.342   4.186  0.6360 -0.2850 -0.4906
  888MOL0     H22497   7.618   4.176   4.209  4.3077  1.3554 -0.3108
  888MOL0     H22498   7.764   4.173   4.028 -1.7068 -1.3421  0.9158
  888MOL0     H22499   7.689   4.307   3.947  1.0405 -2.6725 -1.1070
  888MOL0     H22500   7.799   4.464   4.117 -0.2530  0.4628 -0.7359
  888MOL0     H22501   7.863   4.328   4.207 -0.1191 -1.2116 -0.4056
  888MOL0     H22502   8.043   4.500   4.212 -0.0406 -0.7041  0.2763
  888MOL0     H22503   8.351   4.480   4.377 -0.7167 -2.3554 -0.5409
  888MOL0     H22504   8.194   4.565   4.380  2.0416  1.4491  1.0793
  888MOL0     H22505   8.326   4.632   4.292 -0.7106 -0.1518  0.2421
  888MOL0     H22506   8.660   4.048   4.065 -1.9052  1.3054  1.7461
  888MOL0     H22507   8.892   3.989   4.065 -1.9578  0.1951  0.9556
  888MOL0     H22508   9.100   3.993   4.243  1.9024 -0.0170  0.8949
  888MOL0     H22509   9.085   3.926   4.083 -0.1062 -1.2628  2.3031
  888MOL0     H22510   9.336   4.023   4.213 -0.0857 -0.0997  0.0288
  888MOL0     H22511   9.294   3.870   4.145 -1.6607 -0.0248 -0.7877
  888MOL0     H22512   9.455   4.010   4.003  2.2126  3.0725  0.8286
  888MOL0     H22513   9.350   4.150   4.025  0.5959 -1.2698  2.3007
  888MOL0     H22514   9.197   4.088   3.842  0.4904  0.2594 -0.3992
  888MOL0     H22515   9.241   3.912   3.873  1.4350 -0.2839 -0.6409
  888MOL0     H22516   9.399   4.143   3.751  0.6738 -0.8846 -0.5400
  888MOL0     H22517   9.472   3.989   3.774 -0.2001 -1.1382  0.9777
  888MOL0     H22518   9.218   4.050   3.600  2.0451  3.4929 -3.2207
  888MOL0     H22519   9.294   3.895   3.619 -0.7740  0.3778 -1.4505
  888MOL0     H22520   9.374   4.006   3.394  2.2381  2.1558 -1.5306
  888MOL0     H22521   9.500   3.957   3.503  1.6632  1.6776 -0.6175
  888MOL0     H22522   9.497   4.205   3.572  2.8885  0.7356 -2.2216
  888MOL0     H22523   9.336   4.224   3.487  0.0023 -1.3664 -4.6055
  888MOL0     H22524   9.019   4.370   4.168  1.1832 -2.3807  0.9194
  888MOL0     H22525   8.772   4.450   4.145 -0.9844 -0.6457 -0.6337
  888MOL0     H22526   8.380   4.250   3.953  2.3455  1.8679  2.2001
  888MOL0     H22527   8.134   4.226   3.903 -0.7867 -1.4668  1.3309
  888MOL0     H22528   6.296   3.690   4.965 -0.2079  0.7340  2.3292
  888MOL0     H22529   6.057   3.666   4.945  1.9542 -1.2073  1.4981
  888MOL0     H22530   5.723   3.875   4.687  3.4569 -1.4208  3.8229
  888MOL0     H22531   5.458   3.888   4.620 -1.9442  1.5521  1.0443
  888MOL0     H22532   5.205   4.063   4.929  4.1347 -0.9307  0.0342
  888MOL0     H22533   5.083   4.004   4.835  1.6829 -0.3278 -0.7788
  888MOL0     H22534   5.062   3.866   5.035  2.6732  0.0206  2.4355
  888MOL0     H22535   5.214   3.802   5.031  0.4946  1.1143  0.2275
  888MOL0     H22536   5.003   3.771   4.805 -3.6251 -2.6991  2.3169
  888MOL0     H22537   5.164   3.695   4.810  0.7994 -0.0077 -0.1027
  888MOL0     H22538   5.108   3.552   4.987  3.3626  2.7101 -1.7056
  888MOL0     H22539   4.961   3.556   4.885 -0.3196 -1.4684  0.9535
  888MOL0     H22540   4.813   3.668   5.264  1.3917 -2.5286  0.9465
  888MOL0     H22541   5.371   3.965   5.030 -1.0897 -2.8589 -0.4596
  888MOL0     H22542   5.521   3.973   5.203 -0.2547 -0.8314  0.4559
  888MOL0     H22543   5.666   3.875   5.190 -0.0239  1.3563  1.8960
  888MOL0     H22544   5.678   4.043   5.171  2.3434 -1.0830 -1.8521
  889MOL0     O22545   7.176   2.282   7.926 -0.5115 -1.1103  0.6694
  889MOL0     C22546   7.148   2.352   7.824 -0.3445 -0.5036 -0.7742
  889MOL0     O22547   7.227   2.357   7.709 -0.0881 -0.5480 -0.4892
  889MOL0     C22548   7.366   2.342   7.728 -0.7205  0.0598  0.2374
  889MOL0     C22549   7.430   2.253   7.647  0.5777 -0.5712  0.1957
  889MOL0     C22550   7.570   2.232   7.659 -0.3915  0.1504 -0.0898
  889MOL0     C22551   7.644   2.314   7.746  0.2568  0.2521  0.8742
  889MOL0     O22552   7.781   2.308   7.754  0.8526 -0.0539  0.2580
  889MOL0     C22553   7.855   2.213   7.675  0.0070 -0.5813 -0.5144
  889MOL0     C22554   8.013   2.253   7.701 -0.1868  0.4455  0.1121
  889MOL0     C22555   8.098   2.153   7.614  0.4792 -0.4947  0.1358
  889MOL0     C22556   8.245   2.164   7.655  0.4602 -0.1092 -0.3057
  889MOL0     C22557   8.339   2.087   7.554 -0.2939 -0.1156  0.0809
  889MOL0     C22558   8.483   2.139   7.581 -0.0176  1.1026  0.0969
  889MOL0     C22559   8.585   2.049   7.511 -0.0090  0.5077 -0.2037
  889MOL0     C22560   8.725   2.110   7.538  0.6528 -0.5658 -0.5213
  889MOL0     N22561   8.831   2.051   7.460 -0.0180  0.3531  0.0812
  889MOL0     C22562   8.849   1.913   7.440  0.2106 -0.1068  0.4678
  889MOL0     C22563   8.956   1.907   7.362 -0.8138 -0.4912 -0.0211
  889MOL0     C22564   9.042   1.791   7.318 -0.2665  0.4817 -0.7088
  889MOL0     C22565   9.145   1.805   7.206  0.0538  0.3387  0.7442
  889MOL0     C22566   9.222   1.673   7.185 -0.2968 -0.4000  0.1703
  889MOL0     C22567   9.367   1.702   7.145  0.4485 -0.1074  0.0683
  889MOL0     O22568   9.410   1.588   7.075  0.2454  0.5783  0.6244
  889MOL0     C22569   9.546   1.558   7.087  0.7564  0.8193  0.3785
  889MOL0     C22570   9.609   1.509   6.980  0.4867  0.4710 -0.5737
  889MOL0     C22571   9.738   1.451   6.983 -0.0366  0.4602  0.4099
  889MOL0     C22572   9.797   1.391   6.849  0.3307  0.7199  0.3109
  889MOL0     C22573   9.813   1.460   7.101 -0.4966  0.3410 -0.2443
  889MOL0     C22574   9.961   1.435   7.114 -0.1952  0.4698  0.1492
  889MOL0     O22575  10.015   1.361   7.009  0.1738  0.5139 -0.7110
  889MOL0     C22576  10.140   1.305   7.007  0.1712 -0.6646  0.3464
  889MOL0     C22577  10.161   1.178   7.056  0.1635 -0.3626 -0.0843
  889MOL0     C22578  10.294   1.128   7.061 -0.5630  0.7057  0.4455
  889MOL0     C22579  10.402   1.211   7.012 -1.0114 -0.0573 -0.0136
  889MOL0     O22580  10.529   1.159   6.991  0.2630 -0.2400 -0.6100
  889MOL0     C22581  10.633   1.225   7.061  0.0527  0.7217  0.4652
  889MOL0     C22582  10.681   1.141   7.183 -0.5148 -0.3249 -0.9945
  889MOL0     C22583  10.578   1.154   7.299 -0.4020  0.0727  0.1741
  889MOL0     C22584  10.640   1.087   7.420 -0.5635 -0.0009  0.7019
  889MOL0     C22585  10.546   1.090   7.541 -0.0385 -1.0448  0.5078
  889MOL0     C22586  10.595   0.999   7.649  0.1639  0.6019 -0.1824
  889MOL0     C22587  10.520   1.014   7.779 -0.5812 -0.2357  0.1606
  889MOL0     C22588  10.588   0.934   7.892  0.0647 -0.0186  0.9821
  889MOL0    Cl22589  10.588   0.765   7.878  0.2930  0.4338 -0.1611
  889MOL0     C22590  10.378   1.333   6.955  0.0880 -1.0952 -0.0607
  889MOL0     C22591  10.247   1.384   6.955 -0.5469 -0.4162  0.1886
  889MOL0     O22592  10.031   1.467   7.214 -0.4432 -0.5128  0.4648
  889MOL0     C22593   9.745   1.524   7.211  0.2750 -0.1168 -0.3805
  889MOL0     C22594   9.609   1.563   7.209 -0.8654 -0.3371 -0.7502
  889MOL0     N22595   9.001   2.040   7.334 -0.3180 -0.7266  0.2699
  889MOL0     N22596   8.928   2.114   7.403 -0.6647 -0.0765 -0.7022
  889MOL0     C22597   7.574   2.406   7.833 -0.3068  0.2367 -0.2933
  889MOL0     C22598   7.439   2.423   7.821 -0.7611 -0.1960  0.3513
  889MOL0     C22599   7.010   2.405   7.824 -1.3910  0.2006  0.4956
  889MOL0     C22600   6.916   2.334   7.894  1.0320 -0.6077 -0.4460
  889MOL0     C22601   6.781   2.378   7.909 -0.0526  0.1928  0.3744
  889MOL0     C22602   6.741   2.492   7.841  0.3318  0.3433 -0.4889
  889MOL0     O22603   6.613   2.538   7.862  0.2195  0.5083  0.2362
  889MOL0     C22604   6.566   2.663   7.806 -0.6326  0.1626  0.8633
  889MOL0     C22605   6.433   2.715   7.863  0.8625  0.1169  0.2928
  889MOL0     C22606   6.429   2.725   8.018  0.4753 -0.3058  0.3485
  889MOL0     C22607   6.301   2.799   8.070 -0.0467 -0.1186 -0.0947
  889MOL0     C22608   6.294   2.938   8.016 -0.2392  0.3445 -0.5727
  889MOL0     C22609   6.288   3.048   7.961 -0.2237  0.2391 -0.2646
  889MOL0     C22610   6.839   2.559   7.760  0.4269  0.1494 -0.7103
  889MOL0     C22611   6.973   2.514   7.744 -0.4405 -0.2457  0.0317
  889MOL0     C22612   7.058   2.597   7.659  0.2682 -0.1232 -0.0277
  889MOL0     H22613   7.382   2.206   7.562  0.1356  1.7615 -0.9223
  889MOL0     H22614   7.604   2.150   7.597 -0.6262  0.9521 -1.2972
  889MOL0     H22615   7.833   2.240   7.571 -1.4592  1.0080  0.1444
  889MOL0     H22616   7.823   2.112   7.700 -1.5269 -0.4328 -1.7305
  889MOL0     H22617   8.012   2.359   7.673 -0.5963  0.5140  0.3710
  889MOL0     H22618   8.043   2.240   7.805  0.1425 -2.3735 -0.2738
  889MOL0     H22619   8.064   2.054   7.643 -0.4708 -0.5201 -0.9886
  889MOL0     H22620   8.082   2.170   7.507  0.3575  1.2029  0.3934
  889MOL0     H22621   8.272   2.270   7.664  0.0722 -0.1908  3.6334
  889MOL0     H22622   8.270   2.119   7.751  0.3978 -1.5414 -0.9320
  889MOL0     H22623   8.325   2.112   7.448  1.3694 -0.2546 -0.2016
  889MOL0     H22624   8.321   1.980   7.567  2.8453 -0.7945 -0.4609
  889MOL0     H22625   8.484   2.245   7.555 -1.4327  0.9285 -0.7851
  889MOL0     H22626   8.499   2.134   7.689  1.0386  1.2109 -0.0423
  889MOL0     H22627   8.556   2.043   7.405 -2.4400  1.0559  0.3875
  889MOL0     H22628   8.579   1.946   7.546  0.7355  0.1541 -1.0647
  889MOL0     H22629   8.731   2.219   7.523 -2.0873  0.2682  2.9423
  889MOL0     H22630   8.756   2.082   7.639  0.8564 -2.0749 -0.9826
  889MOL0     H22631   8.795   1.829   7.484  0.2336 -2.1193 -2.9610
  889MOL0     H22632   8.974   1.708   7.294  0.1814 -0.7085  1.8077
  889MOL0     H22633   9.097   1.746   7.400 -4.2380 -2.9473  0.4249
  889MOL0     H22634   9.099   1.833   7.111 -0.4476 -2.5846  0.0112
  889MOL0     H22635   9.212   1.884   7.242  3.6229 -2.1666  0.1267
  889MOL0     H22636   9.213   1.622   7.282  1.7670  0.0455  0.6413
  889MOL0     H22637   9.169   1.611   7.113 -2.3096  1.9875 -0.5491
  889MOL0     H22638   9.383   1.793   7.087 -0.3036  1.3626  2.0464
  889MOL0     H22639   9.414   1.728   7.241 -0.6268  2.4348 -0.0141
  889MOL0     H22640   9.562   1.514   6.882  0.6921  1.1712 -0.6389
  889MOL0     H22641   9.854   1.466   6.795  0.7417  0.6724  0.6735
  889MOL0     H22642   9.709   1.376   6.786  0.2724  3.0815 -0.2445
  889MOL0     H22643   9.849   1.295   6.858  0.1147  0.2584 -2.5933
  889MOL0     H22644  10.072   1.124   7.087 -0.0369 -1.0422 -1.7664
  889MOL0     H22645  10.312   1.026   7.093  1.4424  1.4238  1.8313
  889MOL0     H22646  10.710   1.223   6.984 -0.3044 -2.7012  0.0342
  889MOL0     H22647  10.609   1.329   7.084 -1.5587  0.7685 -1.1432
  889MOL0     H22648  10.702   1.039   7.153  0.1950 -1.2989  2.3649
  889MOL0     H22649  10.775   1.187   7.213 -0.7775  0.0740 -0.7621
  889MOL0     H22650  10.481   1.106   7.286  0.1547 -0.6016 -1.7631
  889MOL0     H22651  10.575   1.261   7.324  1.0275  0.3979 -0.8818
  889MOL0     H22652  10.731   1.139   7.452 -1.5515  0.8952  2.1684
  889MOL0     H22653  10.654   0.983   7.390 -0.9736  0.0186  0.4283
  889MOL0     H22654  10.555   1.193   7.576  1.4137 -0.4843 -1.3744
  889MOL0     H22655  10.441   1.072   7.515  0.1332 -0.3556 -0.7653
  889MOL0     H22656  10.700   1.011   7.680  0.6218  1.4475 -1.9278
  889MOL0     H22657  10.578   0.907   7.593 -1.8868  1.7331 -1.5442
  889MOL0     H22658  10.418   0.984   7.755 -0.1949 -0.2961 -1.5445
  889MOL0     H22659  10.530   1.118   7.812  0.6871 -0.1046 -0.5669
  889MOL0     H22660  10.540   0.949   7.990  4.3347 -2.0657  3.6679
  889MOL0     H22661  10.690   0.973   7.897 -0.9246  2.8543  0.6024
  889MOL0     H22662  10.461   1.394   6.923 -0.6957  0.3134  0.5026
  889MOL0     H22663  10.244   1.485   6.917 -1.4226 -0.9319 -1.1738
  889MOL0     H22664   9.810   1.532   7.298  3.8355 -0.0165 -2.8446
  889MOL0     H22665   9.569   1.599   7.303  2.7017 -1.0579  1.2492
  889MOL0     H22666   7.630   2.472   7.898  0.4575  0.3499 -1.0371
  889MOL0     H22667   7.396   2.499   7.885  2.5758 -0.5301  3.2810
  889MOL0     H22668   6.951   2.237   7.928  1.2529 -0.5746 -0.5731
  889MOL0     H22669   6.708   2.314   7.957 -0.3124 -0.7106 -1.1732
  889MOL0     H22670   6.643   2.739   7.816 -2.8497  2.2918  3.4985
  889MOL0     H22671   6.549   2.641   7.700  0.2362 -3.9485  1.3908
  889MOL0     H22672   6.350   2.653   7.827  2.5354 -1.2841 -1.3335
  889MOL0     H22673   6.414   2.814   7.821  0.2706 -0.3703 -0.6205
  889MOL0     H22674   6.440   2.625   8.060 -1.2904 -2.8391 -4.3808
  889MOL0     H22675   6.514   2.789   8.043 -0.1641  0.5819  0.2914
  889MOL0     H22676   6.313   2.811   8.178 -2.6104 -1.6110  0.4431
  889MOL0     H22677   6.206   2.747   8.051  0.4714 -1.6684  1.3221
  889MOL0     H22678   6.290   3.141   7.908  3.5749  0.5536  0.2032
  889MOL0     H22679   6.797   2.648   7.714 -0.6741 -0.6626 -1.3335
  889MOL0     H22680   7.099   2.544   7.573 -0.3030 -2.1967  0.9180
  889MOL0     H22681   7.002   2.682   7.619 -0.3396 -1.0850 -1.2882
  889MOL0     H22682   7.142   2.647   7.709  2.1935 -2.1382 -1.0670
  890MOL0     O22683   5.653  10.677   1.975  0.1587 -0.9100  0.2524
  890MOL0     C22684   5.671  10.799   1.984 -0.7998 -0.5049 -0.1835
  890MOL0     O22685   5.630  10.893   1.891  0.4423 -0.5515  0.0250
  890MOL0     C22686   5.579  10.842   1.767 -0.2203 -0.3976 -0.0731
  890MOL0     C22687   5.447  10.863   1.739  0.4775 -0.5947  0.5032
  890MOL0     C22688   5.387  10.841   1.618  0.9356 -0.2611 -0.2304
  890MOL0     C22689   5.452  10.787   1.513  0.1961 -0.2150  0.8112
  890MOL0     O22690   5.378  10.764   1.399  0.0109  0.6576 -0.2793
  890MOL0     C22691   5.381  10.633   1.342 -0.3126  0.2735 -0.1462
  890MOL0     C22692   5.250  10.559   1.331 -0.4966 -0.0811  0.2547
  890MOL0     C22693   5.121  10.618   1.269 -0.0316  0.1458 -0.1165
  890MOL0     C22694   5.139  10.658   1.121  0.0163 -0.8915  0.1560
  890MOL0     C22695   5.035  10.756   1.064 -0.7816  0.1020 -0.3851
  890MOL0     C22696   4.890  10.738   1.116  0.0530  0.2531 -0.1833
  890MOL0     C22697   4.781  10.812   1.032 -0.6006 -0.0059 -0.2952
  890MOL0     C22698   4.633  10.785   1.070 -0.5080 -0.7208  0.5876
  890MOL0     N22699   4.539  10.818   0.952  0.1015  0.1830 -0.6814
  890MOL0     C22700   4.497  10.943   0.912 -0.5246  0.0007 -0.3627
  890MOL0     C22701   4.428  10.923   0.799 -0.4417 -0.4142  1.0902
  890MOL0     C22702   4.355  11.025   0.710  0.6548 -0.0016 -0.6588
  890MOL0     C22703   4.448  11.062   0.603 -0.3405  0.0029  0.8555
  890MOL0     C22704   4.420  11.196   0.533  0.5080 -0.2048 -0.5279
  890MOL0     C22705   4.529  11.219   0.424  0.4529 -0.7807  0.0363
  890MOL0     O22706   4.657  11.224   0.493 -0.1663 -0.3552  0.3248
  890MOL0     C22707   4.769  11.256   0.421  0.0890 -0.0093  0.6292
  890MOL0     C22708   4.878  11.315   0.479  0.3256 -0.2079  0.6073
  890MOL0     C22709   4.991  11.346   0.407 -0.6895 -0.2446 -0.0777
  890MOL0     C22710   5.108  11.401   0.482 -0.4780 -0.1581  0.3128
  890MOL0     C22711   4.995  11.320   0.267 -0.2282 -0.9946 -0.0675
  890MOL0     C22712   5.108  11.368   0.176 -0.5145  0.6155 -0.3928
  890MOL0     O22713   5.078  11.370   0.042 -0.2028 -0.6370 -0.4175
  890MOL0     C22714   5.174  11.421  -0.034 -0.7682  0.6753  0.3048
  890MOL0     C22715   5.205  11.551  -0.033  0.4394 -0.1664  0.5237
  890MOL0     C22716   5.309  11.598  -0.115  0.2775 -0.5306  0.3571
  890MOL0     C22717   5.378  11.522  -0.203  1.0808 -0.7107  0.1120
  890MOL0     O22718   5.478  11.567  -0.291  0.0879 -0.1181 -0.1669
  890MOL0     C22719   5.521  11.703  -0.284 -1.3147 -0.2065  0.4882
  890MOL0     C22720   5.662  11.695  -0.335 -0.0731 -0.4321 -0.6564
  890MOL0     C22721   5.750  11.810  -0.299 -0.1338  0.5429 -0.9191
  890MOL0     C22722   5.889  11.791  -0.374  0.5278  0.8253 -0.4950
  890MOL0     C22723   5.992  11.891  -0.339 -0.2819  0.4207 -0.2222
  890MOL0     C22724   6.124  11.874  -0.420  0.3705  0.2360 -0.1098
  890MOL0     C22725   6.206  11.753  -0.354  0.4419  0.6004 -0.0995
  890MOL0     C22726   6.315  11.725  -0.447 -0.8521  0.0203 -0.7779
  890MOL0    Cl22727   6.403  11.580  -0.397 -0.2172  0.0274 -0.1222
  890MOL0     C22728   5.347  11.385  -0.197  0.4074  0.4953  0.7936
  890MOL0     C22729   5.238  11.335  -0.120 -0.0596 -0.3567  0.0722
  890MOL0     O22730   5.215  11.380   0.226 -0.2202 -0.5561  0.1364
  890MOL0     C22731   4.888  11.257   0.204  0.1511 -0.3889 -0.3919
  890MOL0     C22732   4.779  11.222   0.283  0.1108 -0.3071  0.2369
  890MOL0     N22733   4.432  10.783   0.773  0.4035  0.0203 -0.6476
  890MOL0     N22734   4.497  10.731   0.859  0.0280  0.4867 -0.2373
  890MOL0     C22735   5.584  10.759   1.539  0.0077 -0.3802  0.6182
  890MOL0     C22736   5.649  10.784   1.657 -0.8140  0.1953 -0.2131
  890MOL0     C22737   5.768  10.845   2.090  0.4983  0.5542 -0.6331
  890MOL0     C22738   5.755  10.971   2.140  0.7815 -1.1507  0.0727
  890MOL0     C22739   5.849  11.018   2.232 -0.2556  0.3190 -0.5332
  890MOL0     C22740   5.952  10.950   2.279  0.2650 -0.0240  0.3225
  890MOL0     O22741   6.039  11.016   2.365  0.1041  0.4476 -0.1824
  890MOL0     C22742   6.181  11.010   2.321 -0.6586  0.3421  0.6100
  890MOL0     C22743   6.296  11.085   2.406 -0.5208 -0.2478 -0.0778
  890MOL0     C22744   6.291  11.242   2.416  0.5598  0.6090 -0.0670
  890MOL0     C22745   6.392  11.307   2.507  0.3902  0.8246 -0.6557
  890MOL0     C22746   6.368  11.286   2.657 -0.5743  0.8745 -0.4515
  890MOL0     C22747   6.343  11.244   2.769  0.2169  0.4280  0.2286
  890MOL0     C22748   5.949  10.820   2.251  0.0649 -0.2716 -0.3149
  890MOL0     C22749   5.853  10.761   2.164  0.3487 -0.4707 -0.3480
  890MOL0     C22750   5.880  10.614   2.139  0.1599  0.2492 -0.1290
  890MOL0     H22751   5.378  10.904   1.812 -0.2446 -0.6108 -0.1647
  890MOL0     H22752   5.282  10.858   1.596  1.4177  0.3754 -2.3045
  890MOL0     H22753   5.455  10.571   1.393  0.4560 -0.0089 -1.5552
  890MOL0     H22754   5.418  10.636   1.239 -1.2828 -0.1510 -0.5264
  890MOL0     H22755   5.275  10.474   1.267 -0.6184 -0.5518  0.8273
  890MOL0     H22756   5.236  10.512   1.428  0.9350 -0.5282  0.2628
  890MOL0     H22757   5.042  10.545   1.284 -2.1684  2.4090  0.2990
  890MOL0     H22758   5.093  10.703   1.332 -2.7309 -1.2857  0.7269
  890MOL0     H22759   5.234  10.710   1.106  0.6407 -1.7934  0.8081
  890MOL0     H22760   5.150  10.576   1.049  2.2249 -1.1102  0.6583
  890MOL0     H22761   5.037  10.748   0.955 -1.0894  0.2539 -0.4016
  890MOL0     H22762   5.054  10.862   1.083  0.5410 -0.3473  1.0264
  890MOL0     H22763   4.860  10.634   1.105  2.4638 -0.3781 -1.3621
  890MOL0     H22764   4.883  10.771   1.220  1.3202 -0.9987  0.3206
  890MOL0     H22765   4.803  10.793   0.927  2.0097 -0.4169  0.2414
  890MOL0     H22766   4.798  10.920   1.042 -0.6582  0.2872 -2.7423
  890MOL0     H22767   4.616  10.681   1.097  2.5094 -1.8674 -1.3547
  890MOL0     H22768   4.600  10.855   1.147 -1.8927  3.4979 -3.3850
  890MOL0     H22769   4.498  11.034   0.971 -2.5736  0.1170 -0.4299
  890MOL0     H22770   4.320  11.103   0.778 -0.5885 -2.4764  1.7401
  890MOL0     H22771   4.262  10.985   0.669 -0.0324  0.5734  0.2998
  890MOL0     H22772   4.547  11.065   0.648  0.7601  0.7087 -1.4904
  890MOL0     H22773   4.436  10.984   0.528 -0.4700  0.5299  0.3226
  890MOL0     H22774   4.321  11.183   0.488  0.1867  2.1613 -0.6446
  890MOL0     H22775   4.419  11.284   0.597  0.9457  0.6816 -1.6971
  890MOL0     H22776   4.531  11.137   0.351  1.3289 -1.3926  0.7210
  890MOL0     H22777   4.503  11.307   0.365 -0.8483 -1.5277 -0.5438
  890MOL0     H22778   4.879  11.331   0.586  0.0697  0.5959  0.4990
  890MOL0     H22779   5.142  11.495   0.439 -1.0068 -0.3491 -0.5503
  890MOL0     H22780   5.186  11.325   0.474 -2.6102 -2.4508 -0.1374
  890MOL0     H22781   5.085  11.420   0.587 -0.0508  1.8564  0.0815
  890MOL0     H22782   5.142  11.618   0.025  4.4877  2.3306  2.4742
  890MOL0     H22783   5.314  11.707  -0.114  0.4269 -0.5205 -0.4368
  890MOL0     H22784   5.464  11.772  -0.347 -2.3600  1.6482  3.2691
  890MOL0     H22785   5.520  11.746  -0.183  0.1601  0.3972  0.2693
  890MOL0     H22786   5.720  11.607  -0.307  3.7815  2.4780  1.4401
  890MOL0     H22787   5.654  11.689  -0.444 -2.7289  0.4362 -0.5893
  890MOL0     H22788   5.767  11.810  -0.190  1.0232 -0.6944 -1.0786
  890MOL0     H22789   5.694  11.901  -0.322  0.0895  0.3773 -2.1619
  890MOL0     H22790   5.859  11.789  -0.480 -2.7502 -2.6031  0.3011
  890MOL0     H22791   5.927  11.695  -0.338  0.3438  0.4894 -1.1707
  890MOL0     H22792   5.952  11.992  -0.329 -3.3902 -0.5215 -1.8919
  890MOL0     H22793   6.023  11.868  -0.236 -2.1368 -2.7576 -0.2342
  890MOL0     H22794   6.183  11.964  -0.403 -0.3172  0.7808 -0.5787
  890MOL0     H22795   6.113  11.864  -0.528  1.5084  0.9492 -0.3092
  890MOL0     H22796   6.136  11.670  -0.337 -3.3970  3.7593  1.2395
  890MOL0     H22797   6.253  11.787  -0.261  3.0107 -2.6126 -0.0555
  890MOL0     H22798   6.371  11.818  -0.461 -0.9095  0.5996  2.0843
  890MOL0     H22799   6.276  11.696  -0.545 -2.0606  3.1743 -1.3842
  890MOL0     H22800   5.406  11.322  -0.263  0.3685  0.9644  0.3041
  890MOL0     H22801   5.210  11.231  -0.125 -0.1762 -0.3615  0.7643
  890MOL0     H22802   4.879  11.247   0.097  0.4127  0.8395 -0.5491
  890MOL0     H22803   4.698  11.170   0.233  0.8280 -1.8623  0.6377
  890MOL0     H22804   5.636  10.708   1.459 -1.6549 -0.4353 -0.4770
  890MOL0     H22805   5.757  10.789   1.651 -0.8669  0.9633 -0.6249
  890MOL0     H22806   5.684  11.043   2.100  0.3941 -0.2767  2.1584
  890MOL0     H22807   5.829  11.119   2.265 -0.5832  0.6848 -1.8013
  890MOL0     H22808   6.208  10.905   2.304 -0.4657  0.8459 -3.1117
  890MOL0     H22809   6.182  11.056   2.222 -1.1393  1.9893  1.3468
  890MOL0     H22810   6.391  11.052   2.363 -1.8863 -0.1835 -3.4631
  890MOL0     H22811   6.290  11.047   2.508 -0.4870 -1.1365 -0.3915
  890MOL0     H22812   6.293  11.283   2.315 -0.0350 -3.0402 -1.7099
  890MOL0     H22813   6.187  11.270   2.439  0.5766  3.7906 -3.0845
  890MOL0     H22814   6.401  11.416   2.501  2.8445  0.6174 -1.7082
  890MOL0     H22815   6.492  11.273   2.483  0.2766  0.5490 -0.7362
  890MOL0     H22816   6.313  11.208   2.866 -0.1803 -2.2694 -0.8082
  890MOL0     H22817   6.024  10.755   2.296  0.2611 -1.4925 -2.3099
  890MOL0     H22818   5.799  10.554   2.182  1.5454 -0.4967  1.5701
  890MOL0     H22819   5.883  10.595   2.031 -1.6320  0.6114 -0.2759
  890MOL0     H22820   5.972  10.576   2.184  1.1053  3.1140  0.5501
  891MOL0     O22821   1.888   0.051   3.054  0.2887  0.6160  0.0758
  891MOL0     C22822   1.775  -0.001   3.082  0.0719  0.8037  0.5642
  891MOL0     O22823   1.694   0.020   3.190  0.1557  0.1239  0.2300
  891MOL0     C22824   1.743   0.109   3.281  0.3787  0.0187  0.1644
  891MOL0     C22825   1.841   0.065   3.385  0.4723 -0.6163  0.0394
  891MOL0     C22826   1.898   0.155   3.476 -0.7508  0.2477 -0.1970
  891MOL0     C22827   1.876   0.294   3.454  0.0338 -0.0884  0.1131
  891MOL0     O22828   1.942   0.387   3.527 -0.2233 -0.7248 -0.4847
  891MOL0     C22829   2.077   0.387   3.484 -0.9685 -1.0257 -0.4119
  891MOL0     C22830   2.155   0.497   3.566  0.2757  0.4953 -0.0322
  891MOL0     C22831   2.101   0.515   3.709  0.5510  0.5465  0.7107
  891MOL0     C22832   2.160   0.640   3.770 -0.4674  0.4715 -0.1628
  891MOL0     C22833   2.135   0.652   3.925  0.5405  0.3797 -0.3197
  891MOL0     C22834   2.238   0.727   4.005 -0.0671 -0.2613  1.2302
  891MOL0     C22835   2.222   0.878   4.020 -0.2351 -0.1472 -0.1894
  891MOL0     C22836   2.350   0.958   4.022 -1.0714  0.6431 -0.2329
  891MOL0     N22837   2.417   0.944   4.155 -0.0975 -0.2460  1.0626
  891MOL0     C22838   2.491   0.834   4.183 -0.3856 -0.4798 -0.3132
  891MOL0     C22839   2.521   0.847   4.313 -0.2591 -0.0704  0.0123
  891MOL0     C22840   2.604   0.756   4.405 -0.0123 -0.4388 -0.4035
  891MOL0     C22841   2.711   0.839   4.476  0.5964 -0.2231  0.4349
  891MOL0     C22842   2.801   0.932   4.397 -1.6936 -0.1759 -0.4036
  891MOL0     C22843   2.920   0.842   4.336 -0.0655 -0.8225 -0.2677
  891MOL0     O22844   3.008   0.929   4.267 -0.1028 -0.0831  0.5006
  891MOL0     C22845   3.105   0.987   4.345  0.6056 -0.2193  0.6703
  891MOL0     C22846   3.208   1.054   4.276 -0.1592  0.1227  1.4391
  891MOL0     C22847   3.325   1.096   4.338  0.7167 -0.4100  0.6399
  891MOL0     C22848   3.446   1.123   4.245  0.4987  0.1045  0.1891
  891MOL0     C22849   3.335   1.096   4.480  0.7013 -0.3340  0.1907
  891MOL0     C22850   3.460   1.138   4.556  0.0582 -0.6130  1.7439
  891MOL0     O22851   3.553   1.207   4.490 -0.0064 -0.0179 -0.4953
  891MOL0     C22852   3.681   1.216   4.536  0.0358 -0.0528  0.6265
  891MOL0     C22853   3.718   1.250   4.670  0.5087  0.3059 -0.3539
  891MOL0     C22854   3.856   1.263   4.692  0.2274 -0.3966 -0.2110
  891MOL0     C22855   3.952   1.264   4.590 -0.0199 -0.5534 -0.4380
  891MOL0     O22856   4.086   1.294   4.625 -0.1788 -0.1780 -0.7318
  891MOL0     C22857   4.198   1.269   4.534  0.0711 -0.6194 -0.1591
  891MOL0     C22858   4.239   1.376   4.430  0.1070  0.7466 -0.0586
  891MOL0     C22859   4.301   1.496   4.499  0.1344 -0.2544  0.9287
  891MOL0     C22860   4.273   1.625   4.422 -0.3007  0.6628 -0.3630
  891MOL0     C22861   4.318   1.744   4.504 -0.3034 -0.0049 -0.4932
  891MOL0     C22862   4.281   1.872   4.442  0.3736 -0.8091  0.7466
  891MOL0     C22863   4.279   1.979   4.540 -0.0103 -0.4794 -0.6973
  891MOL0     C22864   4.403   2.015   4.620  0.3476  0.4217 -0.2645
  891MOL0    Cl22865   4.522   2.101   4.525 -0.4479 -0.3389  0.3789
  891MOL0     C22866   3.914   1.235   4.458 -0.7462  1.0865 -0.3703
  891MOL0     C22867   3.786   1.208   4.434  1.0737  0.0974 -0.4165
  891MOL0     O22868   3.459   1.106   4.671  0.3146 -0.1690  0.0313
  891MOL0     C22869   3.229   1.034   4.551 -0.1361 -0.1385 -0.6446
  891MOL0     C22870   3.119   0.982   4.487 -0.1635 -0.6364  0.1129
  891MOL0     N22871   2.478   0.971   4.350  0.2674  0.5347 -0.0724
  891MOL0     N22872   2.415   1.034   4.256 -0.6539  0.3385  0.8892
  891MOL0     C22873   1.789   0.340   3.359  0.1834  0.0604 -0.2747
  891MOL0     C22874   1.723   0.249   3.267  0.4427 -0.2647 -0.1544
  891MOL0     C22875   1.703  -0.072   2.969 -0.4284 -0.5887  0.2994
  891MOL0     C22876   1.582  -0.128   3.005 -0.6935 -0.1107  0.0629
  891MOL0     C22877   1.506  -0.207   2.919  0.4731 -0.6145 -0.3488
  891MOL0     C22878   1.543  -0.228   2.786  0.0295 -0.7552  0.5812
  891MOL0     O22879   1.459  -0.290   2.695  0.1541 -0.0299  0.4593
  891MOL0     C22880   1.371  -0.385   2.739  0.4973  0.4446  0.5000
  891MOL0     C22881   1.316  -0.467   2.622 -0.0506 -0.7577 -0.3111
  891MOL0     C22882   1.228  -0.379   2.535  0.3824  0.7077  0.6203
  891MOL0     C22883   1.184  -0.457   2.407  1.1562  0.0444 -0.3458
  891MOL0     C22884   1.283  -0.517   2.323  0.4177 -0.0032  1.0822
  891MOL0     C22885   1.384  -0.542   2.259  0.0008  0.3053  0.4483
  891MOL0     C22886   1.661  -0.165   2.745 -0.3350  0.6364  0.7716
  891MOL0     C22887   1.748  -0.104   2.837  0.1625 -0.8777  0.1145
  891MOL0     C22888   1.886  -0.060   2.787  0.2486 -0.1013  0.0237
  891MOL0     H22889   1.838  -0.041   3.406 -2.9524 -0.7099 -0.2854
  891MOL0     H22890   1.966   0.106   3.544  3.4939  0.6694 -3.7052
  891MOL0     H22891   2.080   0.401   3.376 -1.2686 -0.9549 -0.4104
  891MOL0     H22892   2.125   0.289   3.493  0.4928 -0.3790 -0.8069
  891MOL0     H22893   2.259   0.464   3.566  1.0775  2.7810 -1.6517
  891MOL0     H22894   2.148   0.589   3.508 -1.0005 -0.1833 -1.0210
  891MOL0     H22895   1.993   0.527   3.697  0.3917 -0.8697  0.5408
  891MOL0     H22896   2.126   0.427   3.768 -0.8331 -0.2849  0.0863
  891MOL0     H22897   2.267   0.630   3.746 -0.6183 -0.3449 -0.4932
  891MOL0     H22898   2.128   0.736   3.728 -3.1605  0.3061  1.3348
  891MOL0     H22899   2.134   0.554   3.974  1.6982  0.2166 -0.5841
  891MOL0     H22900   2.045   0.713   3.933 -1.0192 -1.8590 -0.0115
  891MOL0     H22901   2.234   0.696   4.110  2.0789  1.7884  2.0178
  891MOL0     H22902   2.336   0.697   3.966 -0.9533 -1.3201 -0.2787
  891MOL0     H22903   2.154   0.894   4.104 -1.6166 -6.5359  0.4078
  891MOL0     H22904   2.167   0.916   3.933 -0.5690  0.5189  0.3065
  891MOL0     H22905   2.414   0.917   3.944 -0.6897 -0.6193  0.7119
  891MOL0     H22906   2.328   1.065   4.009 -1.9968  0.9912  3.1067
  891MOL0     H22907   2.517   0.749   4.120  0.3727 -0.9999  0.6710
  891MOL0     H22908   2.651   0.681   4.342  1.7504 -0.2339  0.6102
  891MOL0     H22909   2.534   0.708   4.473 -2.2142  4.1853  1.0134
  891MOL0     H22910   2.648   0.898   4.544  1.2045 -2.1284  2.7966
  891MOL0     H22911   2.768   0.770   4.539  0.1603  0.0157  1.1063
  891MOL0     H22912   2.758   0.994   4.317  2.0687 -0.6746 -3.0313
  891MOL0     H22913   2.846   0.991   4.478 -2.5801 -0.4414  0.3106
  891MOL0     H22914   2.961   0.759   4.395 -2.5609 -4.0324 -2.6222
  891MOL0     H22915   2.868   0.784   4.259 -2.3547  0.1996  0.4057
  891MOL0     H22916   3.199   1.063   4.168 -0.9621 -1.2031  1.3614
  891MOL0     H22917   3.411   1.123   4.141  0.2233 -3.0336  0.1927
  891MOL0     H22918   3.516   1.041   4.262  1.8441  1.4166  1.2148
  891MOL0     H22919   3.489   1.214   4.287 -0.1031 -0.5063  2.2322
  891MOL0     H22920   3.642   1.234   4.745 -1.4702 -0.8263 -2.4516
  891MOL0     H22921   3.901   1.288   4.788 -1.3791 -2.2306  1.0991
  891MOL0     H22922   4.290   1.266   4.594 -0.7179  0.7762  1.2242
  891MOL0     H22923   4.183   1.172   4.487  1.1627 -1.4988  1.2404
  891MOL0     H22924   4.312   1.318   4.374 -0.0750 -1.4023  1.7766
  891MOL0     H22925   4.159   1.395   4.358  0.6029 -2.0311 -1.4763
  891MOL0     H22926   4.408   1.489   4.519  0.6694  1.2959 -1.0839
  891MOL0     H22927   4.255   1.511   4.597  0.7126  2.6380  0.8420
  891MOL0     H22928   4.168   1.628   4.390 -0.3789 -1.3486 -0.4205
  891MOL0     H22929   4.332   1.641   4.332  1.4487  1.4546  0.8598
  891MOL0     H22930   4.264   1.735   4.599 -1.9289  0.7347 -1.3134
  891MOL0     H22931   4.427   1.741   4.517  0.0887 -0.3820 -3.2047
  891MOL0     H22932   4.179   1.865   4.403  0.4985  0.5630  0.1142
  891MOL0     H22933   4.351   1.902   4.363  0.0461 -2.0298 -0.0211
  891MOL0     H22934   4.216   1.947   4.623 -0.9529 -1.8271 -1.8759
  891MOL0     H22935   4.233   2.064   4.487  2.7249 -0.3170 -3.0742
  891MOL0     H22936   4.434   1.923   4.671 -0.5344 -0.5486 -1.4151
  891MOL0     H22937   4.370   2.089   4.694 -2.1942  1.1424 -2.0174
  891MOL0     H22938   3.977   1.241   4.369  0.5152 -0.6553  0.3412
  891MOL0     H22939   3.737   1.181   4.341 -1.0520  2.4558 -0.0843
  891MOL0     H22940   3.233   1.025   4.659 -1.4075  1.1407 -0.4537
  891MOL0     H22941   3.042   0.939   4.550 -0.9357  0.4200 -0.0768
  891MOL0     H22942   1.758   0.444   3.354 -2.1813 -0.5522  0.6173
  891MOL0     H22943   1.651   0.285   3.194 -1.0602 -2.9477 -0.1587
  891MOL0     H22944   1.540  -0.141   3.105  0.4782 -1.1492  0.4403
  891MOL0     H22945   1.415  -0.252   2.956  0.9716 -0.1053  1.6157
  891MOL0     H22946   1.424  -0.460   2.799  1.9114  0.2598 -0.9051
  891MOL0     H22947   1.281  -0.341   2.783 -1.6735 -1.3045 -1.8172
  891MOL0     H22948   1.262  -0.557   2.653 -0.4943 -0.1038  0.8988
  891MOL0     H22949   1.401  -0.489   2.557 -0.0907 -1.4280 -0.1426
  891MOL0     H22950   1.131  -0.354   2.580 -0.2893 -0.2839 -0.2439
  891MOL0     H22951   1.284  -0.286   2.526  0.3074  0.7325  0.4225
  891MOL0     H22952   1.127  -0.388   2.344 -1.4464 -0.8436  0.8801
  891MOL0     H22953   1.114  -0.538   2.430  1.0764 -0.5161 -2.3419
  891MOL0     H22954   1.468  -0.558   2.194 -0.1331  0.6393  0.1898
  891MOL0     H22955   1.690  -0.169   2.641  1.1652  1.1073  1.1527
  891MOL0     H22956   1.965  -0.121   2.831  1.3795  1.3817  0.1292
  891MOL0     H22957   1.886  -0.076   2.678 -1.6292  3.4422 -0.6617
  891MOL0     H22958   1.899   0.045   2.813  2.7220  0.1989 -2.0482
  892MOL0     O22959   5.340   8.035   6.176 -0.0642  0.2436  0.3102
  892MOL0     C22960   5.248   8.105   6.219 -0.0953  0.6478  0.1700
  892MOL0     O22961   5.234   8.131   6.355  0.0939 -0.5218 -0.6572
  892MOL0     C22962   5.353   8.122   6.430 -0.9484 -0.1737 -0.4967
  892MOL0     C22963   5.380   8.015   6.513 -0.8325  0.2731  0.1755
  892MOL0     C22964   5.498   8.005   6.590  0.2023  0.9669 -0.5052
  892MOL0     C22965   5.592   8.116   6.584 -1.1561  0.1041  0.1760
  892MOL0     O22966   5.699   8.103   6.671  0.0293 -0.3025 -0.1185
  892MOL0     C22967   5.750   8.221   6.721  0.2870 -0.0003 -0.4896
  892MOL0     C22968   5.893   8.193   6.787  0.9564 -0.7494  0.2083
  892MOL0     C22969   5.985   8.119   6.691 -0.2826 -0.9768 -0.7352
  892MOL0     C22970   6.069   8.221   6.612  0.0111 -0.2236 -0.5107
  892MOL0     C22971   6.122   8.157   6.480  1.2615  0.3288  0.1272
  892MOL0     C22972   6.250   8.077   6.506  0.3778  0.6277  0.4833
  892MOL0     C22973   6.379   8.158   6.540  0.5018  0.4734 -0.7688
  892MOL0     C22974   6.467   8.086   6.638 -0.6300 -0.7597  0.4058
  892MOL0     N22975   6.416   8.073   6.771  0.6394  0.4391 -0.0410
  892MOL0     C22976   6.359   7.956   6.819 -0.4624  0.0526  0.1679
  892MOL0     C22977   6.307   7.988   6.943 -0.1319 -0.1967  0.2194
  892MOL0     C22978   6.238   7.899   7.044 -0.1641  0.2914  0.9586
  892MOL0     C22979   6.093   7.885   7.033 -0.1964 -0.6064  0.9796
  892MOL0     C22980   6.043   7.791   6.920 -0.6730  0.3743  0.2249
  892MOL0     C22981   5.893   7.790   6.898 -0.0550 -0.9384  0.7416
  892MOL0     O22982   5.847   7.658   6.858 -0.0040 -0.9227 -0.4284
  892MOL0     C22983   5.713   7.641   6.830  0.5563  0.5660 -0.2419
  892MOL0     C22984   5.681   7.521   6.771  0.6077 -0.4763 -0.3244
  892MOL0     C22985   5.545   7.485   6.740 -0.2867  0.0630  0.3567
  892MOL0     C22986   5.521   7.347   6.684  1.1920  1.1378  0.4717
  892MOL0     C22987   5.437   7.580   6.764 -0.5194 -0.2550  0.4868
  892MOL0     C22988   5.295   7.558   6.716  0.0661 -0.4303  0.2620
  892MOL0     O22989   5.250   7.434   6.688  0.9062 -0.1133 -0.5853
  892MOL0     C22990   5.124   7.415   6.646 -0.5905 -0.0852 -0.2035
  892MOL0     C22991   5.059   7.463   6.534 -0.4173  0.3490 -0.4170
  892MOL0     C22992   4.931   7.420   6.490  0.2809  0.5048 -0.8185
  892MOL0     C22993   4.865   7.319   6.560  0.5910 -0.4315  0.5875
  892MOL0     O22994   4.742   7.273   6.527  0.1678 -0.1491  0.3329
  892MOL0     C22995   4.655   7.320   6.421 -0.0914 -0.4624 -0.4336
  892MOL0     C22996   4.587   7.458   6.450 -0.8714  0.3069 -0.2355
  892MOL0     C22997   4.515   7.454   6.582 -0.9893  0.2341 -0.8755
  892MOL0     C22998   4.429   7.579   6.605 -0.0511  0.1567  0.9685
  892MOL0     C22999   4.345   7.560   6.725  0.1187 -0.0225 -0.0891
  892MOL0     C23000   4.245   7.452   6.718  0.2874 -0.2538 -0.8311
  892MOL0     C23001   4.184   7.441   6.856  0.2925  1.6311  0.3266
  892MOL0     C23002   4.081   7.333   6.873  0.4201 -0.4215 -0.4516
  892MOL0    Cl23003   4.005   7.354   7.031  0.0002 -0.0933 -0.1146
  892MOL0     C23004   4.922   7.272   6.679  0.3370  0.6283 -0.7225
  892MOL0     C23005   5.046   7.318   6.725  0.4922 -0.1456 -0.1481
  892MOL0     O23006   5.231   7.663   6.713  0.6673  0.2388  1.0880
  892MOL0     C23007   5.478   7.706   6.814  0.0774  0.1849 -0.4338
  892MOL0     C23008   5.611   7.733   6.857  0.5064  0.8574  0.3837
  892MOL0     N23009   6.324   8.121   6.966 -0.0333  0.2971  0.2385
  892MOL0     N23010   6.394   8.168   6.864  0.5433  0.5838  0.0618
  892MOL0     C23011   5.555   8.231   6.504 -0.8700  0.5639  0.2939
  892MOL0     C23012   5.439   8.236   6.432  0.6764 -0.3533 -0.7193
  892MOL0     C23013   5.137   8.131   6.139  0.8225 -0.8422  0.5222
  892MOL0     C23014   5.010   8.111   6.195  0.7106 -0.3287 -1.0161
  892MOL0     C23015   4.894   8.105   6.118  0.0471  0.1083  0.4151
  892MOL0     C23016   4.903   8.125   5.977 -0.4913 -0.2902  0.8589
  892MOL0     O23017   4.784   8.116   5.905 -0.4591 -0.5911  0.3968
  892MOL0     C23018   4.798   8.076   5.770  0.4738  0.0544  1.2539
  892MOL0     C23019   4.656   8.032   5.720  0.1603  0.1303  0.0718
  892MOL0     C23020   4.625   8.067   5.575 -0.5810  0.7134  0.1005
  892MOL0     C23021   4.496   8.006   5.527  0.6251 -0.2188 -0.5264
  892MOL0     C23022   4.387   8.092   5.562 -0.6318  0.1061  0.2582
  892MOL0     C23023   4.304   8.171   5.586 -0.6349  0.6550 -0.0967
  892MOL0     C23024   5.029   8.130   5.915 -0.3846  0.8107  0.2760
  892MOL0     C23025   5.147   8.150   5.993  0.8537 -0.1973  0.4437
  892MOL0     C23026   5.268   8.156   5.918 -0.4161  0.0222  0.0279
  892MOL0     H23027   5.307   7.935   6.502 -0.7204  0.4774 -3.4154
  892MOL0     H23028   5.515   7.920   6.656  1.1206 -0.6539 -2.7279
  892MOL0     H23029   5.684   8.255   6.802  1.0278  0.1310  0.0637
  892MOL0     H23030   5.758   8.296   6.641 -0.5651 -1.3113 -1.8660
  892MOL0     H23031   5.934   8.291   6.813 -0.6378  0.1953 -0.6421
  892MOL0     H23032   5.864   8.136   6.875  1.6937 -1.1960  0.1747
  892MOL0     H23033   6.056   8.062   6.751  2.4619 -0.0886 -2.9413
  892MOL0     H23034   5.931   8.054   6.622 -1.6021  1.6279 -2.3321
  892MOL0     H23035   6.010   8.310   6.589  3.6807  1.8869 -2.7559
  892MOL0     H23036   6.150   8.253   6.678  0.1275 -1.7996  0.1548
  892MOL0     H23037   6.120   8.234   6.402 -1.8947  1.9192  1.6110
  892MOL0     H23038   6.054   8.086   6.433  1.0392  1.0704 -0.7029
  892MOL0     H23039   6.233   8.004   6.587  1.1513 -0.9839 -0.7498
  892MOL0     H23040   6.272   8.023   6.414 -1.8973 -0.9847  0.7854
  892MOL0     H23041   6.353   8.255   6.581  0.5351  0.4057 -0.5878
  892MOL0     H23042   6.431   8.164   6.444 -1.9248 -0.8706 -2.2769
  892MOL0     H23043   6.480   7.984   6.600  5.0829 -0.2419  0.0220
  892MOL0     H23044   6.566   8.132   6.648 -0.6344 -1.0496  1.9710
  892MOL0     H23045   6.363   7.859   6.770  1.0608 -0.4844  1.2721
  892MOL0     H23046   6.271   7.947   7.137  1.8006  3.9426 -1.3730
  892MOL0     H23047   6.294   7.807   7.026  3.4235  2.7668 -2.1618
  892MOL0     H23048   6.067   7.849   7.134  3.1235  0.3676  2.3137
  892MOL0     H23049   6.051   7.985   7.021 -1.5642 -1.3307 -0.5421
  892MOL0     H23050   6.093   7.816   6.827 -2.0789  1.7757 -0.2021
  892MOL0     H23051   6.074   7.689   6.945 -1.8998 -0.6273 -2.0353
  892MOL0     H23052   5.841   7.826   6.988  0.4954  1.5307  0.1670
  892MOL0     H23053   5.858   7.860   6.821  1.0589 -0.2075  0.8831
  892MOL0     H23054   5.761   7.451   6.750 -0.5466 -1.1076 -3.1407
  892MOL0     H23055   5.463   7.287   6.756 -1.4133  1.4440 -1.2263
  892MOL0     H23056   5.620   7.303   6.669  1.1292  0.8146  0.9532
  892MOL0     H23057   5.458   7.342   6.595 -0.2873  2.4640  1.3933
  892MOL0     H23058   5.108   7.545   6.481 -1.1073 -1.1695 -3.6603
  892MOL0     H23059   4.893   7.456   6.395 -1.1616 -0.0042 -0.4567
  892MOL0     H23060   4.713   7.340   6.331  0.5534  1.0348  0.2816
  892MOL0     H23061   4.582   7.240   6.407  1.2458 -1.6573 -0.9400
  892MOL0     H23062   4.668   7.532   6.448  0.9868 -1.6338 -0.9353
  892MOL0     H23063   4.509   7.487   6.379 -1.3203 -2.2561 -0.9060
  892MOL0     H23064   4.592   7.450   6.660 -0.0704 -0.6011 -1.7872
  892MOL0     H23065   4.462   7.359   6.583  1.4935 -1.3171  3.0337
  892MOL0     H23066   4.365   7.596   6.518 -0.8074  0.8231  1.6392
  892MOL0     H23067   4.491   7.669   6.607  1.1705 -0.5248 -1.7547
  892MOL0     H23068   4.420   7.559   6.805 -0.5431  1.9880  0.6366
  892MOL0     H23069   4.296   7.656   6.744  1.4327  0.4745  0.9657
  892MOL0     H23070   4.297   7.358   6.697  1.6742  0.4672 -0.7820
  892MOL0     H23071   4.171   7.471   6.640 -2.6231 -0.5714  1.6629
  892MOL0     H23072   4.129   7.535   6.868  0.5673  1.7263  0.9199
  892MOL0     H23073   4.270   7.419   6.920  0.7086 -0.2675 -0.8246
  892MOL0     H23074   4.129   7.235   6.866  0.9683 -0.2160  0.2537
  892MOL0     H23075   4.003   7.330   6.797 -2.3177 -1.5434  2.1888
  892MOL0     H23076   4.864   7.196   6.730 -0.4154  0.6772 -1.4848
  892MOL0     H23077   5.098   7.275   6.810 -1.2346  2.5737  2.5114
  892MOL0     H23078   5.408   7.787   6.829 -0.3165 -0.0703 -0.8957
  892MOL0     H23079   5.628   7.829   6.904 -2.6144  1.9118 -0.3519
  892MOL0     H23080   5.623   8.315   6.499 -0.6013  0.3158 -0.3560
  892MOL0     H23081   5.434   8.324   6.368 -1.1036  1.2624  1.4650
  892MOL0     H23082   4.984   8.103   6.300 -1.8531 -0.7535 -1.6234
  892MOL0     H23083   4.798   8.100   6.169  0.4960  3.0523  1.7229
  892MOL0     H23084   4.834   8.159   5.709 -0.3054  1.4730  2.6337
  892MOL0     H23085   4.857   7.984   5.773 -1.7832 -1.5090  0.3545
  892MOL0     H23086   4.578   8.071   5.786  1.5008 -0.4926  2.1094
  892MOL0     H23087   4.650   7.923   5.727 -2.7692  0.1210 -1.1200
  892MOL0     H23088   4.613   8.174   5.559 -2.6171  0.8794  2.2480
  892MOL0     H23089   4.699   8.032   5.502  1.0925  3.7203  0.2043
  892MOL0     H23090   4.476   7.910   5.576 -0.4674  1.3876  2.4113
  892MOL0     H23091   4.499   7.993   5.418 -1.2634  1.7852 -0.8667
  892MOL0     H23092   4.233   8.251   5.593 -0.3048  0.8371  2.0198
  892MOL0     H23093   5.035   8.118   5.807 -1.0222  1.2296  0.1838
  892MOL0     H23094   5.265   8.205   5.821 -0.3822  0.2402  0.1339
  892MOL0     H23095   5.351   8.196   5.978  2.4361 -1.4490 -2.6160
  892MOL0     H23096   5.308   8.055   5.904  0.0819  0.0395  1.1540
  893MOL0     O23097   9.832   5.219   0.453  0.4620 -0.1244 -0.2346
  893MOL0     C23098   9.730   5.255   0.396  0.6998  0.2980 -0.1379
  893MOL0     O23099   9.687   5.386   0.395  0.5118  0.3488 -0.3366
  893MOL0     C23100   9.737   5.479   0.482 -0.0196 -0.0137 -0.2616
  893MOL0     C23101   9.655   5.514   0.589 -0.1719 -0.5347  0.0632
  893MOL0     C23102   9.711   5.601   0.686 -1.0199 -0.0603  0.3973
  893MOL0     C23103   9.847   5.637   0.681 -0.5818  1.1793 -0.0380
  893MOL0     O23104   9.885   5.722   0.789  0.3682  0.4672  1.3383
  893MOL0     C23105  10.018   5.763   0.808 -0.4200  0.1677  0.3443
  893MOL0     C23106  10.037   5.799   0.953 -0.7234 -0.2836  0.3333
  893MOL0     C23107   9.984   5.695   1.053  0.1658 -0.6098 -0.1671
  893MOL0     C23108   9.976   5.749   1.196 -1.3768  0.1631  0.0163
  893MOL0     C23109   9.892   5.872   1.222 -0.6353 -0.1866  0.2579
  893MOL0     C23110   9.747   5.847   1.168  0.0019 -0.4187 -0.2575
  893MOL0     C23111   9.642   5.946   1.216 -0.1353 -0.5458 -0.3489
  893MOL0     C23112   9.522   5.930   1.124  0.4111 -0.3136  0.5565
  893MOL0     N23113   9.401   6.007   1.172 -0.5399 -0.0608  0.5739
  893MOL0     C23114   9.297   6.043   1.081  0.4411  0.2030 -0.0830
  893MOL0     C23115   9.227   6.130   1.165  0.0620  0.0362  0.2444
  893MOL0     C23116   9.108   6.223   1.138 -0.4509  0.5444  0.6838
  893MOL0     C23117   8.979   6.151   1.144 -1.3531  0.3888  0.4253
  893MOL0     C23118   8.931   6.084   1.019 -0.1760 -0.9876 -0.3946
  893MOL0     C23119   8.800   6.018   1.057 -0.4862 -0.5047 -0.9609
  893MOL0     O23120   8.699   6.034   0.951  0.2018  0.0162 -0.3971
  893MOL0     C23121   8.567   6.005   0.993  0.7672 -0.6498  0.3894
  893MOL0     C23122   8.516   6.010   1.123  0.1968  0.3104 -0.6379
  893MOL0     C23123   8.382   5.988   1.154 -0.2005  0.9725  0.0943
  893MOL0     C23124   8.329   6.014   1.291 -0.1632  0.0136 -0.1305
  893MOL0     C23125   8.289   5.947   1.053  0.2497 -0.9548 -0.6907
  893MOL0     C23126   8.144   5.930   1.065  0.6742 -0.6626 -0.2084
  893MOL0     O23127   8.070   5.950   0.953  0.3339 -0.4990  0.6039
  893MOL0     C23128   7.934   5.926   0.932 -0.1222  0.0836 -0.0356
  893MOL0     C23129   7.887   5.982   0.813  0.1399 -0.5082 -0.4331
  893MOL0     C23130   7.754   5.974   0.783  0.1895  0.5215  1.1141
  893MOL0     C23131   7.658   5.917   0.867  0.2080 -0.6988  0.8446
  893MOL0     O23132   7.524   5.908   0.831 -0.1303  0.2338 -0.4563
  893MOL0     C23133   7.470   6.022   0.783  0.3037 -0.1826  0.7966
  893MOL0     C23134   7.336   6.028   0.856 -0.5127 -0.1490  0.2417
  893MOL0     C23135   7.242   6.118   0.772 -0.4539 -0.2603  0.1593
  893MOL0     C23136   7.112   6.155   0.844  0.7452  0.7445  0.1653
  893MOL0     C23137   7.124   6.217   0.984 -0.1602 -0.2502 -0.0650
  893MOL0     C23138   6.984   6.255   1.044 -0.5750 -0.0667 -0.0858
  893MOL0     C23139   7.004   6.304   1.190  0.1000  0.2103  0.6628
  893MOL0     C23140   6.871   6.294   1.265 -0.4902  0.9857  0.3100
  893MOL0    Cl23141   6.821   6.129   1.278  0.3697  0.1816  0.2027
  893MOL0     C23142   7.712   5.860   0.982 -0.3219 -0.0774  0.1666
  893MOL0     C23143   7.846   5.867   1.018 -0.0450  0.1288 -0.3097
  893MOL0     O23144   8.101   5.897   1.173 -0.2863 -0.1610  0.4704
  893MOL0     C23145   8.346   5.934   0.920 -0.3291 -0.4067 -0.5645
  893MOL0     C23146   8.476   5.973   0.892 -0.4258 -0.1691 -0.2157
  893MOL0     N23147   9.287   6.145   1.286 -0.7391 -0.2579  0.7030
  893MOL0     N23148   9.390   6.071   1.286 -0.2229  0.0356 -0.6620
  893MOL0     C23149   9.920   5.594   0.568 -1.0732 -0.8100 -0.7490
  893MOL0     C23150   9.863   5.527   0.460 -1.1655  0.5393 -0.0753
  893MOL0     C23151   9.633   5.159   0.334 -0.6940 -0.4024  0.1090
  893MOL0     C23152   9.504   5.202   0.311 -0.3507 -0.4650 -0.6915
  893MOL0     C23153   9.401   5.119   0.262  0.2304 -0.7372 -0.0954
  893MOL0     C23154   9.435   4.989   0.244  0.0656  0.3854 -0.1400
  893MOL0     O23155   9.338   4.900   0.198  0.6969 -0.0422 -0.7487
  893MOL0     C23156   9.203   4.887   0.264 -0.4639 -0.6486 -0.0291
  893MOL0     C23157   9.195   4.778   0.364 -0.7068  1.0672  0.6877
  893MOL0     C23158   9.312   4.765   0.448 -0.0143 -0.3879  0.4282
  893MOL0     C23159   9.293   4.669   0.563 -0.0313  0.2452  0.2242
  893MOL0     C23160   9.215   4.724   0.670 -0.5509  0.4785 -0.1100
  893MOL0     C23161   9.150   4.766   0.762 -0.3114  0.3254  0.5449
  893MOL0     C23162   9.565   4.947   0.253 -0.0442 -1.0516 -0.5677
  893MOL0     C23163   9.671   5.034   0.293  0.8062 -0.4724  0.4607
  893MOL0     C23164   9.814   4.986   0.295 -0.3738 -0.5625  0.5587
  893MOL0     H23165   9.556   5.472   0.593  0.7025 -3.2787 -2.8366
  893MOL0     H23166   9.644   5.642   0.760  0.2292  1.3584  0.7771
  893MOL0     H23167  10.050   5.841   0.739  2.7762 -0.4848  0.9352
  893MOL0     H23168  10.082   5.677   0.788  0.2285  0.1011  2.4969
  893MOL0     H23169  10.143   5.821   0.964 -0.9835 -0.0893  3.1156
  893MOL0     H23170   9.979   5.891   0.966 -0.8314  0.1397 -2.4633
  893MOL0     H23171   9.888   5.664   1.010  2.2570 -1.7852 -4.5982
  893MOL0     H23172  10.051   5.609   1.047  1.5596  0.5237 -2.8476
  893MOL0     H23173   9.966   5.673   1.274 -0.0135  0.2312  0.2855
  893MOL0     H23174  10.076   5.776   1.232 -0.3380 -4.2457  1.1529
  893MOL0     H23175   9.916   5.957   1.158 -0.1573 -2.4886 -2.8785
  893MOL0     H23176   9.899   5.902   1.327  2.3994 -0.2254  0.1484
  893MOL0     H23177   9.752   5.839   1.059  1.4670 -1.9235 -0.1211
  893MOL0     H23178   9.720   5.750   1.213 -2.4738  0.5527  0.5422
  893MOL0     H23179   9.679   6.049   1.221  4.1333 -1.9485  0.9415
  893MOL0     H23180   9.621   5.916   1.319  3.0019  2.4679  1.3807
  893MOL0     H23181   9.547   5.974   1.027 -3.1626 -0.3011 -0.4789
  893MOL0     H23182   9.494   5.830   1.088  2.2759 -0.4032 -0.8159
  893MOL0     H23183   9.289   6.014   0.977  2.5544 -2.7956  0.4652
  893MOL0     H23184   9.115   6.275   1.043  1.6396 -0.1996  0.3700
  893MOL0     H23185   9.113   6.297   1.219  1.3091 -2.1816  3.2988
  893MOL0     H23186   8.995   6.073   1.220  4.0584  0.1422 -0.6195
  893MOL0     H23187   8.903   6.221   1.181 -2.1826 -0.7877  1.0199
  893MOL0     H23188   8.928   6.156   0.938 -1.1106  0.0632  0.5296
  893MOL0     H23189   9.003   6.007   0.991 -0.2988 -2.0719  1.9460
  893MOL0     H23190   8.821   5.914   1.083  1.8478  0.7174  2.9831
  893MOL0     H23191   8.768   6.061   1.153  0.8548  0.3120 -0.8560
  893MOL0     H23192   8.583   6.036   1.204  0.5519  1.1707 -1.1955
  893MOL0     H23193   8.300   5.921   1.340 -0.6067  0.6663  0.8703
  893MOL0     H23194   8.243   6.081   1.290 -2.4328 -2.6672  1.4456
  893MOL0     H23195   8.410   6.047   1.357  1.4551  0.1356 -2.0619
  893MOL0     H23196   7.952   6.032   0.743 -0.8328 -1.9588 -2.4582
  893MOL0     H23197   7.717   6.025   0.695 -2.8918 -0.5489  1.6718
  893MOL0     H23198   7.517   6.118   0.807 -1.1074  1.0707 -1.0812
  893MOL0     H23199   7.450   5.999   0.678 -0.5098 -2.1149  1.3349
  893MOL0     H23200   7.286   5.931   0.868  0.4917 -0.8268 -0.8332
  893MOL0     H23201   7.364   6.064   0.956  2.5491  0.6572 -0.7963
  893MOL0     H23202   7.215   6.078   0.674 -3.4325 -0.5903  1.0154
  893MOL0     H23203   7.291   6.214   0.754 -0.3021 -0.3439  0.1256
  893MOL0     H23204   7.044   6.070   0.849  2.5184 -0.7721 -0.3886
  893MOL0     H23205   7.057   6.226   0.781  0.3776 -0.1129 -0.5019
  893MOL0     H23206   7.168   6.145   1.053  0.2970  2.2686  2.4875
  893MOL0     H23207   7.193   6.302   0.982  1.9298 -1.8724 -2.6520
  893MOL0     H23208   6.933   6.159   1.038 -0.5813 -0.1768  1.2410
  893MOL0     H23209   6.927   6.329   0.988  0.6952  0.5815 -0.5636
  893MOL0     H23210   7.043   6.406   1.190 -2.6438  1.3382  1.8201
  893MOL0     H23211   7.074   6.239   1.243 -1.5187 -2.8301 -0.6498
  893MOL0     H23212   6.793   6.337   1.201 -1.9568 -2.2274 -0.2518
  893MOL0     H23213   6.879   6.348   1.360  0.7869  0.7733  0.3454
  893MOL0     H23214   7.658   5.802   1.057  0.4567 -2.7287 -1.1985
  893MOL0     H23215   7.890   5.809   1.099  0.7760 -2.5764 -2.5355
  893MOL0     H23216   8.286   5.895   0.838 -0.5188 -0.9001 -0.1952
  893MOL0     H23217   8.515   5.981   0.791 -0.5770  3.4107 -0.1131
  893MOL0     H23218  10.025   5.617   0.562 -1.6371  1.7297 -2.2647
  893MOL0     H23219   9.923   5.488   0.378  2.4559  0.5082  2.3590
  893MOL0     H23220   9.468   5.300   0.339 -0.2109  0.0151 -2.0743
  893MOL0     H23221   9.302   5.164   0.254  1.0947  0.9974 -2.0766
  893MOL0     H23222   9.174   4.979   0.315 -1.2653 -0.3966 -0.9296
  893MOL0     H23223   9.131   4.875   0.183 -2.3883  0.4852  1.4381
  893MOL0     H23224   9.181   4.684   0.310 -1.7272 -0.1170  2.8822
  893MOL0     H23225   9.107   4.806   0.423 -0.5984  0.9484  0.9086
  893MOL0     H23226   9.394   4.736   0.381 -1.3343 -2.5731 -0.3198
  893MOL0     H23227   9.343   4.858   0.497  0.3798 -1.3037  2.0109
  893MOL0     H23228   9.392   4.644   0.601 -0.7243 -0.7708  1.4501
  893MOL0     H23229   9.253   4.570   0.538 -1.2947  0.4367  1.3960
  893MOL0     H23230   9.104   4.820   0.842 -1.7587  0.1560 -0.1267
  893MOL0     H23231   9.586   4.842   0.238 -0.4449 -1.2452  0.1693
  893MOL0     H23232   9.881   5.056   0.243  1.7680 -1.8369  1.4633
  893MOL0     H23233   9.863   4.969   0.391  0.0372 -2.6504  0.0301
  893MOL0     H23234   9.814   4.893   0.237  0.9282 -0.0778 -0.2737
  894MOL0     O23235   4.676  11.105   1.229  0.3414 -0.2367 -0.5004
  894MOL0     C23236   4.695  11.171   1.333 -0.0085  0.6010  0.1685
  894MOL0     O23237   4.817  11.210   1.380  0.3865 -0.2871  0.5797
  894MOL0     C23238   4.931  11.160   1.316 -0.5303  1.1874 -0.8418
  894MOL0     C23239   5.034  11.120   1.405  0.2354  0.0148  0.4959
  894MOL0     C23240   5.160  11.082   1.362 -0.0571  0.5608  0.5166
  894MOL0     C23241   5.193  11.080   1.225  0.0565 -0.2488 -0.4305
  894MOL0     O23242   5.320  11.060   1.183  0.6496  0.2568 -1.8196
  894MOL0     C23243   5.339  11.002   1.058 -0.3251  0.8139  0.6582
  894MOL0     C23244   5.482  10.943   1.032 -0.4237 -0.3249  0.3197
  894MOL0     C23245   5.595  11.047   1.052 -0.3979  0.5643 -0.9325
  894MOL0     C23246   5.588  11.185   0.989  0.4228 -0.5393  0.0568
  894MOL0     C23247   5.716  11.266   1.028  1.2509 -1.0684 -0.0801
  894MOL0     C23248   5.834  11.245   0.931 -0.0314  1.2324  0.0085
  894MOL0     C23249   5.950  11.326   0.973  0.2741  0.6577 -0.0902
  894MOL0     C23250   6.067  11.260   0.909 -0.1820 -0.9809  0.6027
  894MOL0     N23251   6.196  11.335   0.923 -0.8087 -0.0165 -1.0943
  894MOL0     C23252   6.255  11.372   1.042  0.6683 -0.0794 -0.2720
  894MOL0     C23253   6.384  11.390   1.014  0.3327 -0.7352 -0.0340
  894MOL0     C23254   6.489  11.446   1.104 -0.7735 -1.0238 -0.3830
  894MOL0     C23255   6.503  11.355   1.224  0.1402 -0.0914  0.3685
  894MOL0     C23256   6.622  11.409   1.302  0.6158 -0.7110 -0.8838
  894MOL0     C23257   6.758  11.350   1.248 -0.0265  0.2924 -0.1051
  894MOL0     O23258   6.863  11.407   1.325  0.5569 -0.9765 -0.3329
  894MOL0     C23259   6.942  11.328   1.406  0.4517 -0.2442  0.3107
  894MOL0     C23260   7.072  11.297   1.370 -0.3003 -0.1293 -0.3174
  894MOL0     C23261   7.150  11.212   1.455  0.0544 -1.7657 -0.1762
  894MOL0     C23262   7.277  11.148   1.404 -0.5868  0.0211 -0.0638
  894MOL0     C23263   7.091  11.157   1.568 -0.5323 -0.4566  0.4014
  894MOL0     C23264   7.140  11.047   1.660  0.7311 -0.0808  0.7402
  894MOL0     O23265   7.087  11.040   1.787  0.3004 -0.3511  0.5778
  894MOL0     C23266   7.156  10.977   1.884 -0.6551 -0.3487 -0.0700
  894MOL0     C23267   7.238  11.045   1.979 -0.6873  0.0502  0.6301
  894MOL0     C23268   7.329  10.970   2.052 -0.2340 -0.2254 -0.2944
  894MOL0     C23269   7.331  10.828   2.044 -0.2789  1.0452  0.2802
  894MOL0     O23270   7.436  10.769   2.114  1.0837  0.5763 -0.0210
  894MOL0     C23271   7.460  10.623   2.107 -0.0141 -0.5836  0.0034
  894MOL0     C23272   7.530  10.580   2.235 -0.2199  0.3321 -0.2927
  894MOL0     C23273   7.657  10.659   2.253 -0.0373  0.4783  0.1668
  894MOL0     C23274   7.758  10.610   2.361 -0.2777 -0.6137  0.4623
  894MOL0     C23275   7.894  10.687   2.354 -0.1823 -0.0953  0.3420
  894MOL0     C23276   7.904  10.837   2.385 -0.2899 -0.1428  0.3743
  894MOL0     C23277   7.849  10.872   2.527  0.1034 -0.2096  0.1152
  894MOL0     C23278   7.886  11.013   2.571 -0.5569 -0.1054  0.7785
  894MOL0    Cl23279   8.064  11.028   2.609 -0.4264  0.1295  0.5023
  894MOL0     C23280   7.229  10.763   1.969 -0.0201 -0.7868 -0.3190
  894MOL0     C23281   7.146  10.841   1.889  0.7690 -0.2212  0.2762
  894MOL0     O23282   7.232  10.977   1.620  0.3671  0.0822  0.1341
  894MOL0     C23283   6.963  11.202   1.605  0.5220 -0.2888  0.3344
  894MOL0     C23284   6.898  11.295   1.524  0.5286  0.8283  0.2146
  894MOL0     N23285   6.401  11.372   0.878  0.7576  0.0885 -0.6683
  894MOL0     N23286   6.288  11.340   0.822 -0.2441 -1.0145  0.5669
  894MOL0     C23287   5.098  11.132   1.135  0.4496  0.7011  0.1979
  894MOL0     C23288   4.969  11.179   1.181 -0.3122  0.3926  0.0511
  894MOL0     C23289   4.587  11.250   1.397 -0.4168  0.4730  0.4048
  894MOL0     C23290   4.458  11.248   1.331  0.1669 -0.1103 -0.0565
  894MOL0     C23291   4.352  11.324   1.378  0.8540  0.4694 -0.0485
  894MOL0     C23292   4.367  11.391   1.497  0.2756  0.6459  0.5825
  894MOL0     O23293   4.275  11.467   1.548  0.2447 -0.2352  0.3345
  894MOL0     C23294   4.174  11.391   1.620 -0.0760  0.5710 -0.1427
  894MOL0     C23295   4.050  11.473   1.626 -0.4518  0.2227 -1.1166
  894MOL0     C23296   3.924  11.392   1.656 -0.3879 -0.0490  0.3605
  894MOL0     C23297   3.788  11.461   1.641 -0.2840  0.3775 -1.0183
  894MOL0     C23298   3.743  11.504   1.510  0.5019 -0.3965 -0.4316
  894MOL0     C23299   3.715  11.567   1.409 -0.6587  0.2477  0.2952
  894MOL0     C23300   4.490  11.380   1.567  0.6609  0.0416 -0.4028
  894MOL0     C23301   4.599  11.322   1.519  0.1679  0.0102  0.0240
  894MOL0     C23302   4.712  11.307   1.619  0.1889 -0.4489 -0.0000
  894MOL0     H23303   5.011  11.102   1.510  1.1272 -0.5079  0.6165
  894MOL0     H23304   5.241  11.056   1.429  2.2750 -0.8662 -2.6051
  894MOL0     H23305   5.324  11.087   0.990  1.8207  1.9527  1.5219
  894MOL0     H23306   5.262  10.927   1.038  0.6260 -0.1928  0.6884
  894MOL0     H23307   5.503  10.861   1.101 -1.1546 -1.5229 -0.8248
  894MOL0     H23308   5.495  10.903   0.930  1.9050 -0.0226  0.4318
  894MOL0     H23309   5.606  11.064   1.159  2.9769  1.5136 -1.3034
  894MOL0     H23310   5.686  10.991   1.026 -0.7513  0.7477 -2.7182
  894MOL0     H23311   5.588  11.182   0.879  0.1115  3.3171 -0.1656
  894MOL0     H23312   5.503  11.239   1.031  0.0877  2.1250 -3.5521
  894MOL0     H23313   5.743  11.248   1.133 -0.4370 -1.9560  0.2353
  894MOL0     H23314   5.698  11.374   1.031 -0.4145 -1.3398  2.1051
  894MOL0     H23315   5.863  11.140   0.945 -3.5658  0.3447  2.3664
  894MOL0     H23316   5.805  11.250   0.826 -0.2768 -2.4362 -0.2484
  894MOL0     H23317   5.969  11.335   1.081 -2.9401 -0.1190  0.6436
  894MOL0     H23318   5.932  11.427   0.935 -1.2812  2.0570  3.7857
  894MOL0     H23319   6.076  11.157   0.944 -2.1503 -2.6536 -3.1461
  894MOL0     H23320   6.054  11.260   0.800  0.7554  1.2675  0.4315
  894MOL0     H23321   6.202  11.388   1.135  3.8159 -2.6850  2.2479
  894MOL0     H23322   6.452  11.544   1.136  0.0669 -0.8307  0.0214
  894MOL0     H23323   6.579  11.454   1.044 -1.4650  0.2185 -1.2942
  894MOL0     H23324   6.411  11.363   1.283  2.4565  1.3147  4.1428
  894MOL0     H23325   6.519  11.249   1.203  0.2615  0.3976 -2.4254
  894MOL0     H23326   6.620  11.517   1.290 -1.9209 -0.5376  0.4279
  894MOL0     H23327   6.609  11.387   1.408  0.7054 -0.1223 -0.7510
  894MOL0     H23328   6.754  11.241   1.257 -0.9740 -0.1481 -3.8662
  894MOL0     H23329   6.769  11.375   1.142  0.6659 -2.1827 -0.6771
  894MOL0     H23330   7.106  11.311   1.268  0.8333  0.5781  0.1357
  894MOL0     H23331   7.293  11.193   1.305 -2.4178  0.4327 -0.2208
  894MOL0     H23332   7.258  11.041   1.394 -0.2609 -0.1565  1.1731
  894MOL0     H23333   7.364  11.158   1.469 -0.4964 -0.5939 -0.0839
  894MOL0     H23334   7.225  11.151   2.001 -2.2320  0.4358 -1.7285
  894MOL0     H23335   7.388  11.023   2.127 -0.6752 -0.6409  0.3629
  894MOL0     H23336   7.373  10.556   2.108  1.6747 -2.8857 -0.4322
  894MOL0     H23337   7.515  10.598   2.016 -2.1492 -0.0904 -1.5247
  894MOL0     H23338   7.459  10.600   2.315  0.7756 -0.7789  0.9173
  894MOL0     H23339   7.548  10.472   2.231 -1.1721  0.1895 -2.7426
  894MOL0     H23340   7.634  10.759   2.291  0.0341  0.1340  1.1477
  894MOL0     H23341   7.714  10.660   2.159  1.2077 -0.3603  0.8816
  894MOL0     H23342   7.781  10.505   2.341 -2.3308 -0.6373 -2.3620
  894MOL0     H23343   7.707  10.632   2.455  0.2916  1.3023  0.3633
  894MOL0     H23344   7.950  10.643   2.437 -1.0117  1.3978  1.7503
  894MOL0     H23345   7.948  10.675   2.260 -0.3720  0.5048  0.1520
  894MOL0     H23346   7.856  10.893   2.304 -3.0799  2.2185  3.3817
  894MOL0     H23347   8.012  10.855   2.389 -0.6824  2.5127  2.2075
  894MOL0     H23348   7.894  10.808   2.603  1.0564 -0.7195 -0.8573
  894MOL0     H23349   7.740  10.858   2.533 -0.1978  1.0879 -1.4847
  894MOL0     H23350   7.839  11.041   2.666  0.0929 -0.2399  1.1476
  894MOL0     H23351   7.852  11.080   2.491  0.7960 -3.0335 -2.5470
  894MOL0     H23352   7.211  10.656   1.960  1.2783 -0.8679 -3.1510
  894MOL0     H23353   7.084  10.789   1.816 -0.9849  1.9616  0.0945
  894MOL0     H23354   6.916  11.166   1.696  0.0824 -0.2802  0.1125
  894MOL0     H23355   6.791  11.312   1.538  0.2890 -1.0143  1.0298
  894MOL0     H23356   5.123  11.135   1.030  5.2682 -0.5575  1.0621
  894MOL0     H23357   4.899  11.215   1.107 -0.0020 -0.7148 -0.8131
  894MOL0     H23358   4.441  11.197   1.237 -0.4702  1.4539 -0.8271
  894MOL0     H23359   4.261  11.323   1.320 -0.7241 -0.3475  2.3199
  894MOL0     H23360   4.157  11.288   1.589  0.0719 -0.8468  3.8861
  894MOL0     H23361   4.211  11.384   1.723 -0.6249 -0.5038 -0.0112
  894MOL0     H23362   4.033  11.502   1.522 -0.4359 -0.4670 -1.3208
  894MOL0     H23363   4.067  11.568   1.676 -1.8699 -0.3289  0.4838
  894MOL0     H23364   3.907  11.319   1.577 -1.8550  2.5931 -1.9413
  894MOL0     H23365   3.928  11.348   1.756 -0.4709 -1.0688 -0.0735
  894MOL0     H23366   3.786  11.551   1.703 -0.0379  1.5742 -2.6778
  894MOL0     H23367   3.713  11.396   1.688  4.1340 -3.1319  2.0840
  894MOL0     H23368   3.700  11.620   1.318 -0.6307  3.5776  2.0669
  894MOL0     H23369   4.495  11.410   1.672 -0.8472 -1.4858  0.1512
  894MOL0     H23370   4.798  11.370   1.596 -0.6548  0.4910 -0.6796
  894MOL0     H23371   4.682  11.337   1.720 -0.1760 -1.7844  0.3105
  894MOL0     H23372   4.737  11.200   1.624  1.7743 -0.0273  2.8284
  895MOL0     O23373   8.966   6.916   0.964  0.0755 -0.2920 -0.8395
  895MOL0     C23374   8.923   7.027   0.936 -0.9103 -0.5353  0.6045
  895MOL0     O23375   8.999   7.140   0.930 -0.5159  0.0492  0.0794
  895MOL0     C23376   9.134   7.124   0.956 -0.6241  0.3519  0.1316
  895MOL0     C23377   9.217   7.102   0.849  0.6367 -0.0432  0.7220
  895MOL0     C23378   9.359   7.095   0.869 -0.1980 -0.0970 -0.0500
  895MOL0     C23379   9.413   7.114   0.995  0.0565  0.8042  0.3177
  895MOL0     O23380   9.549   7.123   1.026 -1.0644 -0.1149 -0.2846
  895MOL0     C23381   9.650   7.136   0.931  0.3627  0.5821  0.2635
  895MOL0     C23382   9.780   7.124   1.020  0.3385 -0.1624  0.9683
  895MOL0     C23383   9.838   7.263   1.063  0.1013  0.6221 -0.1813
  895MOL0     C23384   9.972   7.253   1.146  0.4062 -0.4022 -1.3374
  895MOL0     C23385  10.024   7.393   1.176  0.2463 -0.7541 -0.5870
  895MOL0     C23386  10.133   7.386   1.285 -0.4117 -0.8254  0.3957
  895MOL0     C23387  10.247   7.283   1.253 -0.2721 -0.5591  0.1453
  895MOL0     C23388  10.365   7.300   1.362 -0.0561 -0.4273  0.8015
  895MOL0     N23389  10.492   7.246   1.309 -0.0156  0.0112 -0.5522
  895MOL0     C23390  10.497   7.128   1.239  0.5865 -0.7227  0.8831
  895MOL0     C23391  10.622   7.123   1.188  0.5437  0.2565 -0.0532
  895MOL0     C23392  10.669   7.030   1.081  0.3592  0.5558  0.3411
  895MOL0     C23393  10.805   7.052   1.029  0.4594  0.7059  0.7296
  895MOL0     C23394  10.810   7.140   0.907  0.6038 -0.1021 -0.0883
  895MOL0     C23395  10.763   7.061   0.789  0.2832  0.2866 -0.2347
  895MOL0     O23396  10.870   7.012   0.719 -0.0511 -0.5259  0.1908
  895MOL0     C23397  10.961   7.091   0.649  0.2534 -0.1150  0.1027
  895MOL0     C23398  10.943   7.223   0.612  0.1595 -0.6560 -0.3598
  895MOL0     C23399  11.042   7.305   0.540 -0.1836 -0.7344  0.8468
  895MOL0     C23400  11.010   7.446   0.507 -0.5816 -0.9084  0.4561
  895MOL0     C23401  11.169   7.240   0.510  0.3670 -0.3080  1.2542
  895MOL0     C23402  11.290   7.311   0.461 -0.1398 -0.9236 -0.3790
  895MOL0     O23403  11.394   7.234   0.423  0.6665  1.0219 -1.2003
  895MOL0     C23404  11.516   7.280   0.381  0.5428 -0.2156 -0.3088
  895MOL0     C23405  11.550   7.399   0.309 -0.6173 -0.0510  0.2895
  895MOL0     C23406  11.685   7.430   0.282 -0.1626  0.6185  0.0811
  895MOL0     C23407  11.790   7.359   0.344  0.0597  0.3909 -0.7823
  895MOL0     O23408  11.920   7.372   0.322 -0.1527  0.6854  0.5728
  895MOL0     C23409  11.966   7.508   0.313 -0.4694  0.2805  0.0038
  895MOL0     C23410  12.120   7.482   0.336  0.1044 -0.6696  0.2060
  895MOL0     C23411  12.214   7.461   0.217  0.2000 -0.3997  0.2590
  895MOL0     C23412  12.243   7.591   0.149 -0.1869  0.5865  0.1848
  895MOL0     C23413  12.370   7.579   0.058 -0.0477  0.1893 -0.1244
  895MOL0     C23414  12.494   7.613   0.147 -0.2755 -0.7238  0.1035
  895MOL0     C23415  12.616   7.565   0.072 -0.5316  0.9567  0.0325
  895MOL0     C23416  12.750   7.610   0.138 -0.3038  0.3480 -0.0751
  895MOL0    Cl23417  12.872   7.493   0.085 -0.2897  0.4748 -0.8697
  895MOL0     C23418  11.754   7.243   0.412  0.2491 -0.9574 -0.3397
  895MOL0     C23419  11.627   7.197   0.424  0.8274  0.5094 -0.6547
  895MOL0     O23420  11.295   7.434   0.461  0.6807  0.6014  0.1258
  895MOL0     C23421  11.178   7.108   0.537  0.0159  0.7325  0.2040
  895MOL0     C23422  11.083   7.032   0.611 -1.1653 -0.7475  0.4151
  895MOL0     N23423  10.686   7.242   1.222 -0.3891  0.6866  0.6918
  895MOL0     N23424  10.609   7.317   1.289  0.5283 -0.4956 -0.6534
  895MOL0     C23425   9.324   7.130   1.103 -0.1626 -0.9138 -0.3752
  895MOL0     C23426   9.186   7.130   1.090  0.7813 -0.2729  0.2398
  895MOL0     C23427   8.773   7.042   0.925 -0.6925  0.3099 -0.3194
  895MOL0     C23428   8.717   7.166   0.959 -0.3893 -0.2559 -0.3111
  895MOL0     C23429   8.586   7.194   0.972  0.2222  0.2653 -0.0101
  895MOL0     C23430   8.492   7.093   0.928 -0.4879 -0.1806 -0.2278
  895MOL0     O23431   8.357   7.130   0.937 -0.8326  1.0303 -0.3588
  895MOL0     C23432   8.262   7.048   0.871  0.0032  0.0180 -0.1797
  895MOL0     C23433   8.127   7.119   0.869  0.1415 -0.6167  1.0045
  895MOL0     C23434   8.090   7.170   1.006 -0.3462 -0.5498 -0.0630
  895MOL0     C23435   7.943   7.229   1.016 -0.3159  0.5820  0.1293
  895MOL0     C23436   7.911   7.337   0.925  0.6889  0.2392  1.1703
  895MOL0     C23437   7.884   7.417   0.841 -0.0925 -0.3478  0.2455
  895MOL0     C23438   8.549   6.972   0.877  0.2849  0.5462 -0.4435
  895MOL0     C23439   8.686   6.945   0.875  0.1932  0.6664  0.0923
  895MOL0     C23440   8.730   6.806   0.834 -0.0066  0.7064  0.0467
  895MOL0     H23441   9.179   7.095   0.748  4.3617 -0.2787 -0.8088
  895MOL0     H23442   9.424   7.072   0.785 -1.3996 -0.4938 -0.9092
  895MOL0     H23443   9.652   7.234   0.882  1.7998  0.8680  0.8406
  895MOL0     H23444   9.643   7.057   0.855 -0.3977  1.2572 -0.3791
  895MOL0     H23445   9.751   7.064   1.107 -1.4252  0.5378  0.8925
  895MOL0     H23446   9.857   7.072   0.961  1.0079  1.4826  0.3207
  895MOL0     H23447   9.852   7.312   0.967 -4.5268  1.0954 -0.8431
  895MOL0     H23448   9.758   7.303   1.126  1.5634  2.6700  0.4799
  895MOL0     H23449   9.944   7.213   1.244 -1.6878  2.3006 -0.6961
  895MOL0     H23450  10.047   7.189   1.099  0.8285 -1.4625  0.6704
  895MOL0     H23451   9.945   7.460   1.210  0.2913 -1.8600  1.9127
  895MOL0     H23452  10.069   7.439   1.087 -0.3819  0.0296 -0.5130
  895MOL0     H23453  10.185   7.479   1.308 -2.1329 -0.1154  1.7022
  895MOL0     H23454  10.072   7.363   1.374 -1.7110  0.9818  0.0330
  895MOL0     H23455  10.284   7.309   1.153  1.2472 -0.2933  0.7478
  895MOL0     H23456  10.194   7.187   1.254 -2.3325  0.4839  3.0018
  895MOL0     H23457  10.387   7.403   1.389  2.2462 -0.4952 -0.5284
  895MOL0     H23458  10.335   7.242   1.450  2.9989 -0.5871  1.8601
  895MOL0     H23459  10.411   7.067   1.215  0.1101  0.0684  0.5429
  895MOL0     H23460  10.605   7.028   0.993  0.2104  2.5463  0.3561
  895MOL0     H23461  10.654   6.932   1.126 -1.5307 -0.2070 -1.7821
  895MOL0     H23462  10.871   7.099   1.103  0.3133  0.1556  1.2124
  895MOL0     H23463  10.860   6.961   1.005  0.4542  1.1866 -1.2470
  895MOL0     H23464  10.748   7.230   0.914  0.5695 -0.2331  1.5760
  895MOL0     H23465  10.915   7.168   0.891  0.8718 -1.5574 -1.0535
  895MOL0     H23466  10.700   6.976   0.818  0.4569  0.3710  0.4115
  895MOL0     H23467  10.714   7.129   0.719 -1.4466 -0.7781 -0.1247
  895MOL0     H23468  10.850   7.276   0.628 -0.3168 -0.6179 -2.9099
  895MOL0     H23469  10.907   7.460   0.473 -1.6084 -0.0840  3.6026
  895MOL0     H23470  11.071   7.482   0.423  0.8861 -2.4766  0.7828
  895MOL0     H23471  11.036   7.520   0.583  0.8680  0.0767 -0.9413
  895MOL0     H23472  11.473   7.465   0.272 -0.9478 -0.8470 -0.4738
  895MOL0     H23473  11.703   7.523   0.230 -2.0464  1.1400  0.3122
  895MOL0     H23474  11.945   7.554   0.216  0.7241  2.1459  0.5785
  895MOL0     H23475  11.919   7.564   0.394  1.2363  1.8304 -0.0108
  895MOL0     H23476  12.157   7.573   0.384 -1.4314  0.8881 -1.4046
  895MOL0     H23477  12.119   7.400   0.408 -1.7399 -1.1938 -0.3524
  895MOL0     H23478  12.169   7.380   0.158 -0.7531 -0.9571  1.7024
  895MOL0     H23479  12.308   7.422   0.259  0.7576  0.2646 -0.3495
  895MOL0     H23480  12.271   7.664   0.225  1.4366 -1.3333  1.5384
  895MOL0     H23481  12.157   7.629   0.094  0.0760 -0.1665 -0.7761
  895MOL0     H23482  12.378   7.482   0.008 -2.8703  0.7610 -1.9455
  895MOL0     H23483  12.363   7.659  -0.016  1.3995  0.6755  0.2335
  895MOL0     H23484  12.490   7.568   0.247 -1.3340 -2.5537 -0.7253
  895MOL0     H23485  12.499   7.723   0.153 -0.5398 -0.5493 -2.0337
  895MOL0     H23486  12.617   7.600  -0.032 -2.0610 -0.3553 -0.4699
  895MOL0     H23487  12.616   7.456   0.060  1.7011  1.0400 -1.2188
  895MOL0     H23488  12.749   7.609   0.248 -0.1313  0.9194 -0.0686
  895MOL0     H23489  12.781   7.707   0.098  1.1087 -0.4884 -1.0976
  895MOL0     H23490  11.835   7.197   0.467  1.1046  0.7951 -0.0651
  895MOL0     H23491  11.612   7.103   0.476  4.0901 -1.1020 -2.3273
  895MOL0     H23492  11.268   7.050   0.519 -0.0192  0.3760  1.1477
  895MOL0     H23493  11.108   6.928   0.629 -0.1758 -0.3299  1.5484
  895MOL0     H23494   9.365   7.162   1.199  0.9305 -1.1648 -0.7421
  895MOL0     H23495   9.120   7.145   1.174 -0.7195 -0.0179 -0.9463
  895MOL0     H23496   8.779   7.252   0.985 -0.7846  0.3400 -1.2903
  895MOL0     H23497   8.552   7.290   1.008 -1.2983 -0.4806  0.6249
  895MOL0     H23498   8.294   7.034   0.767  0.5056  0.8339 -0.1489
  895MOL0     H23499   8.257   6.950   0.919 -1.8816  1.6982  3.4062
  895MOL0     H23500   8.052   7.055   0.821 -3.0055  3.4307 -0.0837
  895MOL0     H23501   8.142   7.207   0.805 -1.0125  1.2277  3.1485
  895MOL0     H23502   8.107   7.101   1.088  0.1356  1.5625  1.7238
  895MOL0     H23503   8.149   7.259   1.030 -2.1316  0.6674  0.0584
  895MOL0     H23504   7.905   7.251   1.116 -1.2546 -2.7248  0.5937
  895MOL0     H23505   7.880   7.144   0.993  1.6483 -1.4256  1.6718
  895MOL0     H23506   7.855   7.485   0.763 -1.0970  0.6962  1.4868
  895MOL0     H23507   8.485   6.890   0.848 -3.7674  2.4062  2.3296
  895MOL0     H23508   8.728   6.746   0.925 -2.5993 -0.0298 -0.4082
  895MOL0     H23509   8.656   6.767   0.763  1.2061  0.3214 -1.0393
  895MOL0     H23510   8.824   6.817   0.780  0.4474  0.7426  0.8423
  896MOL0     O23511   4.808   1.881   8.103 -0.1624  0.2536 -0.0914
  896MOL0     C23512   4.860   1.819   8.194  0.4196  0.1190 -0.3258
  896MOL0     O23513   4.965   1.727   8.190  0.2219  0.6134 -0.6242
  896MOL0     C23514   5.007   1.703   8.059  0.7314 -0.8862  0.1346
  896MOL0     C23515   5.057   1.807   7.979  0.9390 -0.9420  0.3611
  896MOL0     C23516   5.098   1.769   7.851  0.7391  0.0168 -0.4801
  896MOL0     C23517   5.074   1.640   7.799  0.5410  0.3180  0.0656
  896MOL0     O23518   5.121   1.621   7.673  0.0857  0.0261 -0.2167
  896MOL0     C23519   5.053   1.514   7.593  0.0970 -0.8928 -0.0630
  896MOL0     C23520   5.092   1.526   7.442 -0.4607 -0.6604  0.6611
  896MOL0     C23521   5.246   1.516   7.426 -0.1955  0.3177 -0.2037
  896MOL0     C23522   5.309   1.380   7.460 -1.0711 -0.1406 -0.0017
  896MOL0     C23523   5.445   1.340   7.394  0.2948 -0.1935  0.2042
  896MOL0     C23524   5.556   1.437   7.450 -0.4550  1.4991 -0.3160
  896MOL0     C23525   5.693   1.389   7.404  0.0590 -0.8411 -0.7380
  896MOL0     C23526   5.703   1.369   7.251  0.2732 -0.1486 -0.3561
  896MOL0     N23527   5.833   1.301   7.228  0.8138  0.4704  0.0617
  896MOL0     C23528   5.851   1.167   7.263 -0.3485 -0.2963 -0.0123
  896MOL0     C23529   5.980   1.146   7.223 -0.2491 -0.0774 -0.3302
  896MOL0     C23530   6.048   1.021   7.228  0.5163  0.0370 -0.3695
  896MOL0     C23531   6.169   1.034   7.321 -0.0009  0.7463 -0.2865
  896MOL0     C23532   6.211   0.888   7.355 -0.3716  0.0548  0.2931
  896MOL0     C23533   6.247   0.798   7.228  0.2886 -0.4477 -0.8474
  896MOL0     O23534   6.307   0.680   7.276 -0.5829  0.3629  0.4577
  896MOL0     C23535   6.436   0.656   7.269 -0.3183  0.4945  0.3412
  896MOL0     C23536   6.511   0.713   7.162  0.2066  0.4688 -0.4586
  896MOL0     C23537   6.648   0.702   7.149  0.2179 -0.4758  0.6206
  896MOL0     C23538   6.721   0.784   7.045 -0.5791 -0.0579  0.3264
  896MOL0     C23539   6.717   0.613   7.238  0.2923  0.7805 -0.6176
  896MOL0     C23540   6.864   0.593   7.229  0.0158  0.7295  0.5519
  896MOL0     O23541   6.917   0.591   7.105  0.2546 -0.1651 -0.4891
  896MOL0     C23542   7.053   0.589   7.093 -0.0360 -1.0987  0.2786
  896MOL0     C23543   7.101   0.494   7.007 -0.1777 -0.3306  0.0843
  896MOL0     C23544   7.237   0.479   6.989 -0.5050  0.2251  0.2256
  896MOL0     C23545   7.326   0.571   7.057  0.8936 -0.0122 -0.5696
  896MOL0     O23546   7.460   0.544   7.033  0.4819 -0.2298 -0.4072
  896MOL0     C23547   7.569   0.626   7.078  0.3525  0.1580 -0.8726
  896MOL0     C23548   7.704   0.555   7.039  1.2676  0.3456  0.5360
  896MOL0     C23549   7.828   0.641   7.091  0.0039 -0.2165  0.4059
  896MOL0     C23550   7.952   0.596   7.012  0.4949  0.2312  0.4751
  896MOL0     C23551   8.071   0.689   7.051 -0.0347  0.2565  0.3555
  896MOL0     C23552   8.201   0.622   7.008  0.3201 -0.0804  0.3289
  896MOL0     C23553   8.327   0.699   7.045  1.8049 -0.5043  0.0274
  896MOL0     C23554   8.449   0.615   7.035 -0.5276 -0.3731 -0.3507
  896MOL0    Cl23555   8.474   0.564   6.869 -0.5931  0.0350  0.2361
  896MOL0     C23556   7.275   0.664   7.144 -0.4760 -1.0085  0.3731
  896MOL0     C23557   7.136   0.678   7.166 -1.0077 -0.2683 -0.1010
  896MOL0     O23558   6.925   0.587   7.335 -0.1876 -0.2204  1.3721
  896MOL0     C23559   6.647   0.550   7.347 -0.2565  0.4749  0.2128
  896MOL0     C23560   6.507   0.572   7.348 -0.6087  0.8531  0.3015
  896MOL0     N23561   6.035   1.262   7.168  0.6747  0.4754 -0.2589
  896MOL0     N23562   5.943   1.354   7.167  0.0367 -0.5058  0.3428
  896MOL0     C23563   5.021   1.539   7.885  0.5298 -0.3309 -0.3081
  896MOL0     C23564   4.994   1.571   8.013 -1.4015  0.0835  0.9114
  896MOL0     C23565   4.791   1.832   8.316 -0.6573 -0.2751 -0.0873
  896MOL0     C23566   4.793   1.717   8.404  0.1942 -0.3760  0.7236
  896MOL0     C23567   4.715   1.728   8.524 -0.0606  0.9435 -0.5290
  896MOL0     C23568   4.641   1.838   8.568 -1.1470  0.3343 -0.1949
  896MOL0     O23569   4.563   1.830   8.680 -0.8416 -0.2415  0.9509
  896MOL0     C23570   4.430   1.808   8.639 -0.6370  0.2216  0.8038
  896MOL0     C23571   4.350   1.781   8.770 -0.1834 -0.3759  0.4312
  896MOL0     C23572   4.204   1.823   8.749 -0.1077 -0.1274  0.0637
  896MOL0     C23573   4.124   1.728   8.663  0.0720  0.0403 -1.0433
  896MOL0     C23574   3.986   1.767   8.650 -0.3766 -0.3263  0.1596
  896MOL0     C23575   3.867   1.782   8.639  0.0168 -0.8161 -0.6030
  896MOL0     C23576   4.652   1.954   8.484 -0.2547  0.1525 -0.9566
  896MOL0     C23577   4.724   1.954   8.366 -0.2671 -0.3644 -0.2950
  896MOL0     C23578   4.702   2.087   8.292 -0.1197  0.1447 -0.5582
  896MOL0     H23579   5.055   1.911   8.010  0.9313 -0.4740 -1.1493
  896MOL0     H23580   5.137   1.836   7.774 -0.1709 -0.6291 -1.5410
  896MOL0     H23581   4.945   1.528   7.604  0.0608 -0.1127 -1.2095
  896MOL0     H23582   5.081   1.412   7.622 -1.5855 -1.6544 -0.9392
  896MOL0     H23583   5.040   1.450   7.383  0.0138 -1.5147  1.3145
  896MOL0     H23584   5.058   1.627   7.419 -0.5112 -0.3862  1.8995
  896MOL0     H23585   5.283   1.540   7.325  1.1216  0.3187  0.2563
  896MOL0     H23586   5.286   1.592   7.494 -0.3193  2.1280 -2.0357
  896MOL0     H23587   5.326   1.391   7.568 -0.7016  1.5695 -0.2167
  896MOL0     H23588   5.228   1.308   7.443 -1.2314  0.4586 -2.0098
  896MOL0     H23589   5.443   1.358   7.286  1.2639 -0.0118  0.2065
  896MOL0     H23590   5.461   1.233   7.406 -0.2280 -0.2354  0.5798
  896MOL0     H23591   5.540   1.541   7.418 -0.2046  2.5230  2.5997
  896MOL0     H23592   5.557   1.442   7.559 -1.6616  0.6835 -0.2424
  896MOL0     H23593   5.713   1.296   7.457  2.3227  1.1139  2.2092
  896MOL0     H23594   5.763   1.466   7.438 -1.6103  1.8540 -2.9596
  896MOL0     H23595   5.623   1.311   7.205 -0.6752  0.4159  0.5457
  896MOL0     H23596   5.706   1.471   7.214  2.0180  0.9229  2.4008
  896MOL0     H23597   5.787   1.104   7.324 -1.1114  2.0467  1.7475
  896MOL0     H23598   6.079   0.998   7.126 -2.3560  0.9804 -1.5514
  896MOL0     H23599   5.991   0.937   7.268 -1.5814  1.0192 -1.1579
  896MOL0     H23600   6.254   1.067   7.262  0.5936 -0.5641 -0.1992
  896MOL0     H23601   6.155   1.090   7.414  1.5442  2.7713 -1.2282
  896MOL0     H23602   6.284   0.892   7.437 -0.9579 -2.3168  1.0246
  896MOL0     H23603   6.134   0.834   7.411 -1.0974 -2.0964 -2.5596
  896MOL0     H23604   6.163   0.768   7.164 -0.1115 -1.3469  0.0709
  896MOL0     H23605   6.313   0.856   7.163 -1.0187  1.2573 -0.7236
  896MOL0     H23606   6.459   0.764   7.082 -0.5368  0.3659 -0.0605
  896MOL0     H23607   6.754   0.720   6.963 -4.5685 -0.7730 -0.9181
  896MOL0     H23608   6.804   0.842   7.088 -0.8660 -0.0730  0.9062
  896MOL0     H23609   6.653   0.853   6.994  0.0357 -0.6476 -1.3702
  896MOL0     H23610   7.034   0.423   6.961  0.4918 -1.5428  0.9230
  896MOL0     H23611   7.279   0.405   6.922 -1.3683 -2.4508  2.4382
  896MOL0     H23612   7.556   0.719   7.022 -0.8679  0.2066 -0.5387
  896MOL0     H23613   7.554   0.651   7.184  1.0751 -2.9564  0.0642
  896MOL0     H23614   7.712   0.453   7.075  2.3756  0.1153 -0.2937
  896MOL0     H23615   7.700   0.556   6.929 -0.6723  1.3330  0.5774
  896MOL0     H23616   7.855   0.625   7.196 -0.3059 -2.9349  0.1568
  896MOL0     H23617   7.807   0.746   7.072  3.5230  0.9533  2.0130
  896MOL0     H23618   7.933   0.619   6.907 -1.2695  1.1587  0.9760
  896MOL0     H23619   7.976   0.489   7.008  0.6994  0.2892  0.1332
  896MOL0     H23620   8.070   0.789   7.007 -1.2289  0.8797  1.7160
  896MOL0     H23621   8.075   0.714   7.157  1.5819 -1.0397  0.6423
  896MOL0     H23622   8.200   0.612   6.899 -1.5865 -1.7771  0.4389
  896MOL0     H23623   8.207   0.525   7.057  1.6847  0.0567  0.4737
  896MOL0     H23624   8.324   0.751   7.141  0.5224 -0.9563  0.2572
  896MOL0     H23625   8.326   0.787   6.980  3.4908  0.7639  1.6464
  896MOL0     H23626   8.438   0.531   7.104  0.2605  1.8854  2.7526
  896MOL0     H23627   8.528   0.680   7.072 -1.6789 -0.8632  3.4235
  896MOL0     H23628   7.339   0.732   7.200 -1.8403 -0.4112  1.2792
  896MOL0     H23629   7.093   0.750   7.235 -0.2377 -0.5812  0.7276
  896MOL0     H23630   6.698   0.488   7.420  1.4262  0.3784 -0.9959
  896MOL0     H23631   6.461   0.521   7.433  0.1177  2.8317  1.9666
  896MOL0     H23632   5.018   1.433   7.860 -1.7048 -0.4161  0.1386
  896MOL0     H23633   4.951   1.498   8.080  1.6972 -1.1169  1.7574
  896MOL0     H23634   4.841   1.623   8.378 -2.1952 -1.1222 -1.4224
  896MOL0     H23635   4.710   1.648   8.597 -1.8802 -0.2011 -1.8118
  896MOL0     H23636   4.399   1.890   8.574 -0.8178 -0.7257 -0.3312
  896MOL0     H23637   4.408   1.721   8.576  2.5115 -0.1612  0.0669
  896MOL0     H23638   4.404   1.845   8.839  0.7158  1.3416 -1.7349
  896MOL0     H23639   4.364   1.677   8.800 -0.0061 -1.2389 -2.3359
  896MOL0     H23640   4.165   1.828   8.851  3.3596 -0.2618  1.5597
  896MOL0     H23641   4.202   1.922   8.703 -0.4345  0.3815  1.1251
  896MOL0     H23642   4.119   1.627   8.706  1.5528  0.2335 -0.3283
  896MOL0     H23643   4.180   1.723   8.569  1.0891  0.1946 -0.4695
  896MOL0     H23644   3.763   1.806   8.635  0.6407  3.3414  1.6589
  896MOL0     H23645   4.593   2.035   8.526  0.5185 -0.3012  1.1767
  896MOL0     H23646   4.668   2.164   8.362  0.1480  0.2142 -0.5050
  896MOL0     H23647   4.797   2.126   8.255 -1.3238  1.5804 -2.3181
  896MOL0     H23648   4.636   2.074   8.205  0.2686  1.7325 -1.1246
  897MOL0     O23649   1.343   3.206   4.913  0.4158  0.3781 -0.3164
  897MOL0     C23650   1.347   3.281   4.819  0.7506 -0.5626 -0.1474
  897MOL0     O23651   1.421   3.401   4.818  0.0123  0.7567  0.4929
  897MOL0     C23652   1.480   3.429   4.931  0.3493  0.1663 -0.3167
  897MOL0     C23653   1.620   3.422   4.923 -0.6274 -0.2441  0.1860
  897MOL0     C23654   1.690   3.437   5.044 -0.2505 -1.0616 -0.4116
  897MOL0     C23655   1.630   3.492   5.157 -0.8295  0.2981  0.2638
  897MOL0     O23656   1.704   3.529   5.271 -0.4499  0.2331 -0.4018
  897MOL0     C23657   1.837   3.589   5.246  0.4175 -0.1698  0.9109
  897MOL0     C23658   1.895   3.674   5.367  0.8437  0.6493 -0.4585
  897MOL0     C23659   2.036   3.720   5.332 -0.4645 -0.3157 -0.3007
  897MOL0     C23660   2.146   3.615   5.336  0.2262  0.3493  0.9250
  897MOL0     C23661   2.272   3.690   5.278 -0.0393 -0.3871 -0.3967
  897MOL0     C23662   2.390   3.596   5.247 -0.5018 -0.5993 -0.4564
  897MOL0     C23663   2.467   3.549   5.379 -0.8576 -0.0781 -0.1299
  897MOL0     C23664   2.600   3.481   5.343  0.8640  0.4481 -0.2770
  897MOL0     N23665   2.587   3.362   5.261 -0.7761 -0.4329  0.1013
  897MOL0     C23666   2.540   3.245   5.309  0.3681 -0.0853  0.2147
  897MOL0     C23667   2.547   3.163   5.198 -0.5265  0.1435  0.3726
  897MOL0     C23668   2.525   3.020   5.197  0.7937  1.1801  0.3634
  897MOL0     C23669   2.661   2.940   5.196 -0.4003  0.1357  0.1875
  897MOL0     C23670   2.625   2.787   5.183 -0.3381  0.4435  1.3170
  897MOL0     C23671   2.755   2.691   5.189 -0.1751  0.4140  0.6563
  897MOL0     O23672   2.870   2.741   5.123  0.5649 -0.8411 -0.6761
  897MOL0     C23673   2.981   2.666   5.118  0.1559 -1.3746 -0.8281
  897MOL0     C23674   3.010   2.547   5.187 -0.5300 -0.0120 -1.6474
  897MOL0     C23675   3.128   2.483   5.182 -0.4743  0.4256  0.8032
  897MOL0     C23676   3.161   2.371   5.271 -0.0714  0.0316 -0.2795
  897MOL0     C23677   3.236   2.544   5.095 -0.5645  0.5993 -0.0095
  897MOL0     C23678   3.377   2.484   5.071 -0.3028 -0.2340  0.4817
  897MOL0     O23679   3.428   2.385   5.144 -0.3442 -0.0983  0.1503
  897MOL0     C23680   3.555   2.327   5.119  0.3617 -0.9586  0.8242
  897MOL0     C23681   3.577   2.258   5.000  0.7022  0.2235  0.5143
  897MOL0     C23682   3.700   2.206   4.960 -0.3351 -0.2269  0.1447
  897MOL0     C23683   3.805   2.224   5.046  0.3049  0.5468 -0.0329
  897MOL0     O23684   3.925   2.167   5.001  0.1839 -0.1778  0.6073
  897MOL0     C23685   4.045   2.168   5.076 -0.6117 -0.9850 -0.5898
  897MOL0     C23686   4.104   2.315   5.088  0.6293  0.0858  0.2943
  897MOL0     C23687   4.240   2.318   5.158 -0.0865  0.7775 -0.5114
  897MOL0     C23688   4.298   2.453   5.167  0.2333 -0.5303  0.3574
  897MOL0     C23689   4.342   2.504   5.033 -0.4947  0.5318  0.4106
  897MOL0     C23690   4.398   2.647   5.036 -0.1085 -0.1176 -0.3651
  897MOL0     C23691   4.524   2.676   4.937  0.3618  0.5911 -0.3449
  897MOL0     C23692   4.572   2.816   4.950 -0.3158  0.7186 -0.4539
  897MOL0    Cl23693   4.634   2.856   5.115 -0.0422  0.2307  0.2694
  897MOL0     C23694   3.787   2.289   5.176 -0.0075  0.7028 -0.0100
  897MOL0     C23695   3.662   2.337   5.214 -0.0193 -0.5713 -0.3699
  897MOL0     O23696   3.435   2.537   4.977  0.6964 -0.4938 -0.1811
  897MOL0     C23697   3.203   2.663   5.033 -0.2289 -0.1832 -0.4889
  897MOL0     C23698   3.084   2.724   5.048 -0.0525 -0.3387  0.3378
  897MOL0     N23699   2.588   3.242   5.091  0.2237  0.0546 -0.1921
  897MOL0     N23700   2.619   3.355   5.128 -0.4419  0.1739  0.6010
  897MOL0     C23701   1.492   3.506   5.158  0.4114 -0.0913  0.0681
  897MOL0     C23702   1.413   3.472   5.050 -0.7906 -0.2731 -0.1988
  897MOL0     C23703   1.284   3.241   4.696 -0.2579  0.2714  0.2706
  897MOL0     C23704   1.342   3.288   4.572 -0.3861 -0.9456  0.1504
  897MOL0     C23705   1.279   3.266   4.449  0.4178  0.3562  0.3321
  897MOL0     C23706   1.165   3.191   4.443 -0.4844  0.5798 -0.3972
  897MOL0     O23707   1.107   3.179   4.316  0.3260 -0.0499 -0.2252
  897MOL0     C23708   0.968   3.167   4.306  0.6759  0.9816 -0.5463
  897MOL0     C23709   0.924   3.166   4.166 -0.4368  0.7014 -0.3975
  897MOL0     C23710   0.941   3.310   4.093 -0.1258 -0.0968  0.2051
  897MOL0     C23711   0.883   3.293   3.944  0.4380 -0.1861  0.9206
  897MOL0     C23712   0.873   3.419   3.878 -0.3988 -0.4290 -0.3900
  897MOL0     C23713   0.879   3.534   3.831 -0.3549  0.2752  0.4369
  897MOL0     C23714   1.108   3.143   4.561 -0.4760 -0.1903 -0.4420
  897MOL0     C23715   1.158   3.170   4.693 -0.2917 -0.4982  0.9800
  897MOL0     C23716   1.093   3.109   4.818 -0.1900  0.9551  0.8299
  897MOL0     H23717   1.681   3.388   4.840  0.5228  0.6109  0.6566
  897MOL0     H23718   1.794   3.407   5.055 -0.0932 -0.2875  0.3777
  897MOL0     H23719   1.822   3.649   5.155 -1.1826 -1.0830  0.5185
  897MOL0     H23720   1.896   3.502   5.216  0.4909  0.9718 -2.8603
  897MOL0     H23721   1.827   3.758   5.382  0.3211  0.1590 -0.0102
  897MOL0     H23722   1.892   3.611   5.456  1.9005  1.5781  0.2577
  897MOL0     H23723   2.037   3.784   5.244  1.6305 -0.2237 -0.2598
  897MOL0     H23724   2.074   3.786   5.410  1.9871 -4.7257  2.6887
  897MOL0     H23725   2.155   3.574   5.437 -2.2134  0.1840  1.1201
  897MOL0     H23726   2.105   3.540   5.267 -4.1387  1.5421  1.9176
  897MOL0     H23727   2.315   3.763   5.348 -0.2993 -2.2484  1.8527
  897MOL0     H23728   2.245   3.746   5.189 -0.2291 -0.3689 -0.3292
  897MOL0     H23729   2.355   3.510   5.188 -1.2352  0.6149 -1.8423
  897MOL0     H23730   2.457   3.654   5.182  1.6670  0.6607  2.6457
  897MOL0     H23731   2.407   3.476   5.434  0.2855  0.2088  1.5799
  897MOL0     H23732   2.485   3.630   5.450 -0.9791 -0.2418  0.0905
  897MOL0     H23733   2.651   3.559   5.286 -1.5700  0.5878 -2.4823
  897MOL0     H23734   2.648   3.444   5.434  0.6263 -0.0472 -0.3481
  897MOL0     H23735   2.512   3.216   5.409 -0.2216 -1.2594 -0.2799
  897MOL0     H23736   2.475   2.998   5.103  1.7145  0.1626  0.0884
  897MOL0     H23737   2.456   2.982   5.274 -1.0595  2.3301 -0.6704
  897MOL0     H23738   2.736   2.969   5.121  0.7970  1.0794  1.6764
  897MOL0     H23739   2.716   2.956   5.289 -0.3427 -3.3902  0.8779
  897MOL0     H23740   2.545   2.748   5.247 -0.4481 -2.2468 -0.2983
  897MOL0     H23741   2.587   2.787   5.081  0.4455 -1.5924  0.9733
  897MOL0     H23742   2.781   2.673   5.294 -1.5257 -2.5881  0.5921
  897MOL0     H23743   2.728   2.599   5.136  0.2586  0.1334  0.9164
  897MOL0     H23744   2.940   2.506   5.259 -0.5123  1.1621 -0.9306
  897MOL0     H23745   3.262   2.388   5.309  0.0641  1.6800 -1.2764
  897MOL0     H23746   3.139   2.280   5.214  0.2349 -0.0847 -0.2148
  897MOL0     H23747   3.104   2.379   5.364  1.4394 -6.1397  1.6690
  897MOL0     H23748   3.488   2.257   4.937  2.0671  3.9878 -1.8136
  897MOL0     H23749   3.713   2.160   4.862  4.1729  1.2601 -0.1610
  897MOL0     H23750   4.027   2.129   5.176  1.7320  2.9514  1.6364
  897MOL0     H23751   4.108   2.094   5.027  1.2173 -0.9860  1.6256
  897MOL0     H23752   4.108   2.348   4.984  1.5885  0.4149  0.4240
  897MOL0     H23753   4.030   2.383   5.131 -2.2813 -2.5550 -0.1817
  897MOL0     H23754   4.305   2.236   5.127 -0.0822  0.3265  0.6378
  897MOL0     H23755   4.209   2.284   5.257 -3.2927 -0.6701 -1.8741
  897MOL0     H23756   4.378   2.453   5.242  1.4144  1.2438 -0.8192
  897MOL0     H23757   4.222   2.525   5.200  1.7548  2.0928 -1.4728
  897MOL0     H23758   4.425   2.443   4.995 -0.7263  0.4254  0.0755
  897MOL0     H23759   4.269   2.500   4.952  1.2493  3.3434 -1.5208
  897MOL0     H23760   4.433   2.662   5.139 -0.0593  0.4115 -0.4542
  897MOL0     H23761   4.317   2.716   5.008 -2.6127 -2.5934  0.3121
  897MOL0     H23762   4.497   2.655   4.834 -1.0420 -0.9242  0.2785
  897MOL0     H23763   4.607   2.610   4.966 -2.7139 -2.2999  2.8908
  897MOL0     H23764   4.494   2.885   4.916 -2.3701 -1.5845 -0.6884
  897MOL0     H23765   4.648   2.836   4.874  1.6572  0.7614  1.4381
  897MOL0     H23766   3.873   2.292   5.243 -1.1252  0.8796  1.4691
  897MOL0     H23767   3.635   2.380   5.310 -1.2886  0.2370 -1.0536
  897MOL0     H23768   3.278   2.710   4.970 -1.2578  0.3986 -1.3023
  897MOL0     H23769   3.062   2.818   4.999  1.4014  1.0016  2.1166
  897MOL0     H23770   1.444   3.546   5.247  1.0383  0.9966 -0.0716
  897MOL0     H23771   1.305   3.476   5.040 -0.6851  1.2018 -1.1055
  897MOL0     H23772   1.443   3.328   4.578  0.1777 -2.4487  1.8050
  897MOL0     H23773   1.326   3.306   4.359  1.4628  0.0117  0.7119
  897MOL0     H23774   0.937   3.070   4.345 -0.3559  0.2689 -2.9561
  897MOL0     H23775   0.923   3.247   4.365 -1.7523 -1.6954  1.4879
  897MOL0     H23776   0.823   3.124   4.169  0.4966 -1.6530  1.6816
  897MOL0     H23777   0.969   3.082   4.112 -3.8525  0.5470 -3.3734
  897MOL0     H23778   0.876   3.379   4.147 -0.7306 -1.7538  1.6601
  897MOL0     H23779   1.047   3.340   4.094  1.4008 -4.5533  3.1340
  897MOL0     H23780   0.780   3.258   3.949  0.7434 -1.0729  1.1554
  897MOL0     H23781   0.948   3.223   3.890 -2.0400 -0.3033 -2.1749
  897MOL0     H23782   0.897   3.627   3.782  2.1431 -1.1724 -1.6061
  897MOL0     H23783   1.014   3.090   4.559 -0.1956 -0.6662 -0.9807
  897MOL0     H23784   1.168   3.045   4.866 -1.2537  0.7554  2.2938
  897MOL0     H23785   1.057   3.180   4.892 -1.0835  0.6594  0.6881
  897MOL0     H23786   1.006   3.049   4.791 -2.0507  1.7368  4.5316
  898MOL0     O23787   2.457   0.230   6.852  0.3590  0.5017 -0.7070
  898MOL0     C23788   2.490   0.204   6.738  0.1556 -0.3240 -0.0563
  898MOL0     O23789   2.616   0.223   6.682 -0.2534  0.1228  0.2851
  898MOL0     C23790   2.719   0.293   6.747  0.8076  1.0071  0.0519
  898MOL0     C23791   2.846   0.253   6.717  0.3641 -0.8064  0.3503
  898MOL0     C23792   2.955   0.322   6.770  0.7226  0.5604 -0.5039
  898MOL0     C23793   2.932   0.446   6.841  0.1172  0.0497  0.0307
  898MOL0     O23794   3.032   0.529   6.893  0.1226  0.1964 -0.1666
  898MOL0     C23795   3.097   0.598   6.787  0.0034  0.3194  0.3266
  898MOL0     C23796   3.166   0.717   6.841  0.3181 -0.4413 -0.2978
  898MOL0     C23797   3.305   0.684   6.894  0.0466  0.4562 -0.5751
  898MOL0     C23798   3.352   0.769   7.020  0.0468  0.3390 -0.1831
  898MOL0     C23799   3.493   0.741   7.068  0.2408 -0.3609  0.1013
  898MOL0     C23800   3.611   0.811   6.988 -0.1672  0.6743 -0.5452
  898MOL0     C23801   3.726   0.715   6.963 -0.5390 -0.4950 -0.0699
  898MOL0     C23802   3.707   0.595   6.872 -0.1851  0.4176  0.1849
  898MOL0     N23803   3.680   0.638   6.742 -0.3092  0.0444 -0.4485
  898MOL0     C23804   3.755   0.729   6.670 -0.2792 -0.0572 -0.5079
  898MOL0     C23805   3.699   0.720   6.545 -0.0895  0.1244  0.5137
  898MOL0     C23806   3.746   0.785   6.417 -0.0195 -0.2143 -0.0236
  898MOL0     C23807   3.723   0.693   6.300  0.0148  0.3952 -0.5063
  898MOL0     C23808   3.704   0.766   6.164  0.7476 -0.1472 -0.7528
  898MOL0     C23809   3.715   0.675   6.046 -1.2064  0.0071  0.6484
  898MOL0     O23810   3.843   0.610   6.038 -0.7021 -1.1466 -0.3063
  898MOL0     C23811   3.959   0.677   6.020  0.4560  0.2748  0.3598
  898MOL0     C23812   3.978   0.735   5.895 -0.4254 -0.7378  0.4001
  898MOL0     C23813   4.111   0.781   5.858  0.0499  0.4082  0.8593
  898MOL0     C23814   4.119   0.832   5.711 -0.2179  0.5490 -0.2672
  898MOL0     C23815   4.208   0.782   5.952 -0.3234 -0.3652 -0.3150
  898MOL0     C23816   4.344   0.841   5.941  0.2979 -0.3297 -0.3210
  898MOL0     O23817   4.447   0.778   6.003 -0.4071  0.0859  0.1061
  898MOL0     C23818   4.576   0.822   5.985  0.9107  1.1156 -0.3743
  898MOL0     C23819   4.650   0.860   6.094 -0.2157 -0.2997 -0.8264
  898MOL0     C23820   4.790   0.878   6.092 -0.0209 -0.0152 -0.5872
  898MOL0     C23821   4.859   0.858   5.970 -0.3136  0.3978  0.2137
  898MOL0     O23822   4.999   0.871   5.965  0.2633 -0.5660 -0.0126
  898MOL0     C23823   5.064   0.968   6.058 -0.3072 -0.5987 -0.6642
  898MOL0     C23824   5.193   1.028   6.002 -0.4098  0.1266 -0.1085
  898MOL0     C23825   5.273   1.104   6.116  0.6605 -0.0329  0.5506
  898MOL0     C23826   5.288   1.256   6.091 -1.1616  0.4462 -0.0713
  898MOL0     C23827   5.416   1.291   6.169 -0.0145  1.0669  0.0117
  898MOL0     C23828   5.461   1.430   6.136  0.1231 -0.4258 -0.0027
  898MOL0     C23829   5.600   1.461   6.189  0.5888  0.1964 -0.2734
  898MOL0     C23830   5.651   1.602   6.162 -0.1037  0.0967  0.3770
  898MOL0    Cl23831   5.779   1.644   6.290  0.1475 -0.0358 -0.0240
  898MOL0     C23832   4.784   0.845   5.853  0.8079 -0.4454  0.1627
  898MOL0     C23833   4.644   0.811   5.860 -0.5239 -0.9896  0.1355
  898MOL0     O23834   4.352   0.950   5.889 -0.5794 -0.1405  1.2780
  898MOL0     C23835   4.181   0.727   6.083 -0.0264  0.9243 -0.3740
  898MOL0     C23836   4.058   0.679   6.117 -0.2890 -0.5850 -0.5001
  898MOL0     N23837   3.584   0.635   6.548  0.6894 -0.3015  0.0478
  898MOL0     N23838   3.579   0.587   6.666 -0.6164 -0.7383  0.5940
  898MOL0     C23839   2.805   0.478   6.870  1.0913  0.0093  0.6286
  898MOL0     C23840   2.689   0.407   6.826  0.6561  0.9626 -0.1034
  898MOL0     C23841   2.390   0.133   6.654  0.8269 -0.1829  0.4257
  898MOL0     C23842   2.423   0.109   6.517 -0.6117 -0.9320 -0.0569
  898MOL0     C23843   2.350   0.020   6.436  0.3054  0.2847 -0.7441
  898MOL0     C23844   2.223  -0.024   6.474 -1.0482  0.4973 -0.3858
  898MOL0     O23845   2.144  -0.096   6.380  0.0630  0.0760 -0.0906
  898MOL0     C23846   2.004  -0.052   6.373 -0.3064  0.2697 -0.8124
  898MOL0     C23847   1.975   0.100   6.341 -0.0645 -0.4191  1.1183
  898MOL0     C23848   2.020   0.152   6.202 -0.4597 -0.3826 -0.0855
  898MOL0     C23849   1.953   0.086   6.082 -0.6381 -0.0175  0.3644
  898MOL0     C23850   2.009   0.148   5.964  0.3050 -0.0575  1.0919
  898MOL0     C23851   2.044   0.210   5.862 -0.2627 -0.3426  0.4617
  898MOL0     C23852   2.187   0.002   6.608 -0.0601 -0.1209  0.3478
  898MOL0     C23853   2.261   0.085   6.692 -0.8513  0.1467 -0.3052
  898MOL0     C23854   2.203   0.119   6.828  0.2443 -0.1036 -0.3338
  898MOL0     H23855   2.864   0.161   6.661  3.8101  1.2724 -2.3941
  898MOL0     H23856   3.055   0.285   6.753  0.0534 -1.1696 -0.8721
  898MOL0     H23857   3.024   0.637   6.714 -0.8223 -1.0086  0.4024
  898MOL0     H23858   3.170   0.537   6.733  0.3613 -0.8789  2.0838
  898MOL0     H23859   3.175   0.795   6.764  0.8117 -1.6517 -1.5241
  898MOL0     H23860   3.104   0.762   6.918  0.8707  2.7780 -1.5906
  898MOL0     H23861   3.314   0.578   6.919  2.0433  0.1578 -2.2121
  898MOL0     H23862   3.389   0.698   6.825  0.5906  2.2831  0.3902
  898MOL0     H23863   3.347   0.874   6.989 -0.0834  0.0769 -1.0822
  898MOL0     H23864   3.279   0.749   7.098 -2.1184  0.4455 -2.0741
  898MOL0     H23865   3.498   0.633   7.089 -0.3878 -0.4659 -0.2606
  898MOL0     H23866   3.485   0.797   7.162 -1.9717 -1.1983  0.4718
  898MOL0     H23867   3.568   0.853   6.896 -4.2907 -2.7443 -0.5413
  898MOL0     H23868   3.652   0.893   7.047 -5.5518  0.5761  4.1886
  898MOL0     H23869   3.767   0.683   7.060  0.2291  2.3544  0.6589
  898MOL0     H23870   3.809   0.773   6.922  1.2555 -1.0745  2.4753
  898MOL0     H23871   3.798   0.536   6.870  0.6818  1.6734  0.9564
  898MOL0     H23872   3.623   0.538   6.914 -0.6213  1.5228  0.8769
  898MOL0     H23873   3.837   0.788   6.710 -1.1262 -0.1964  1.5861
  898MOL0     H23874   3.853   0.808   6.417  1.1511 -4.5823  2.3818
  898MOL0     H23875   3.687   0.876   6.403 -2.4075 -2.0596 -3.4767
  898MOL0     H23876   3.799   0.615   6.293 -2.3721 -2.4047  1.7905
  898MOL0     H23877   3.629   0.639   6.314  0.4739 -0.5180 -0.8582
  898MOL0     H23878   3.602   0.804   6.171  0.5561 -0.9280  4.4738
  898MOL0     H23879   3.772   0.852   6.158  0.7305 -0.2188 -2.1856
  898MOL0     H23880   3.639   0.596   6.042 -0.1636 -1.0783  1.5064
  898MOL0     H23881   3.691   0.733   5.956 -2.3990 -0.6352  0.5295
  898MOL0     H23882   3.896   0.739   5.825 -0.9241  0.5588  1.0233
  898MOL0     H23883   4.027   0.866   5.664  0.1665 -1.5857 -2.7546
  898MOL0     H23884   4.164   0.761   5.641 -0.9492 -1.2841  1.0587
  898MOL0     H23885   4.189   0.916   5.719 -0.2132  0.7369 -2.0063
  898MOL0     H23886   4.595   0.871   6.187 -0.1015  0.3669 -0.8293
  898MOL0     H23887   4.847   0.904   6.181  0.1358  3.1949 -1.4743
  898MOL0     H23888   4.999   1.050   6.091  2.3777  0.1862  3.4339
  898MOL0     H23889   5.092   0.926   6.155 -1.1776  2.0477  0.8514
  898MOL0     H23890   5.257   0.946   5.967 -0.7181  0.0349 -0.4632
  898MOL0     H23891   5.168   1.105   5.929 -1.0770  1.1073  1.1108
  898MOL0     H23892   5.373   1.064   6.129  1.6202  1.0996 -2.4584
  898MOL0     H23893   5.225   1.081   6.212 -0.7092  0.5439  0.0417
  898MOL0     H23894   5.195   1.307   6.118 -1.2932  1.2947 -1.9055
  898MOL0     H23895   5.309   1.285   5.987 -1.7241  1.1737  0.0096
  898MOL0     H23896   5.411   1.283   6.278  4.2830  3.6330  0.6503
  898MOL0     H23897   5.497   1.229   6.130 -1.2792  0.6567 -2.1284
  898MOL0     H23898   5.383   1.497   6.173 -0.9465 -1.5228 -0.1854
  898MOL0     H23899   5.469   1.429   6.027  0.5013 -0.9205  0.0275
  898MOL0     H23900   5.671   1.382   6.164  0.6536 -0.6865  2.3752
  898MOL0     H23901   5.597   1.451   6.298  2.1860 -2.0503 -0.3744
  898MOL0     H23902   5.566   1.669   6.175 -1.2854 -1.1650 -0.6618
  898MOL0     H23903   5.693   1.604   6.061 -1.0482 -3.3150 -0.1948
  898MOL0     H23904   4.830   0.847   5.754  0.5973  0.8896  0.0744
  898MOL0     H23905   4.592   0.795   5.766  0.8563 -0.4882 -0.7319
  898MOL0     H23906   4.260   0.730   6.158  1.1945 -0.5750 -1.5278
  898MOL0     H23907   4.038   0.630   6.213  0.4623  0.6380  0.3078
  898MOL0     H23908   2.785   0.566   6.930  0.3172 -0.4463  1.0650
  898MOL0     H23909   2.588   0.444   6.836 -0.0236 -0.8568  0.0422
  898MOL0     H23910   2.511   0.157   6.476 -0.6761 -0.0915  0.7693
  898MOL0     H23911   2.376  -0.002   6.333 -1.3807  0.4501 -1.2338
  898MOL0     H23912   1.965  -0.114   6.292  1.6754 -2.3868  0.1181
  898MOL0     H23913   1.954  -0.078   6.467  2.5069 -0.9683  0.4534
  898MOL0     H23914   2.017   0.170   6.414 -0.7461 -0.3118  1.4163
  898MOL0     H23915   1.867   0.113   6.351 -0.2758 -1.7705  0.8976
  898MOL0     H23916   1.999   0.259   6.199  4.1976  0.7425 -0.4043
  898MOL0     H23917   2.128   0.140   6.207 -0.4698 -0.2271  0.6284
  898MOL0     H23918   1.844   0.077   6.085 -0.5572 -2.1413 -0.9287
  898MOL0     H23919   1.994  -0.016   6.089  0.9200  0.4878 -0.8970
  898MOL0     H23920   2.054   0.263   5.770 -2.2482 -0.8132 -0.0767
  898MOL0     H23921   2.097  -0.034   6.658  0.5765  1.2594  2.6447
  898MOL0     H23922   2.181   0.226   6.835 -1.9253 -0.3662 -1.9687
  898MOL0     H23923   2.109   0.067   6.847  0.5121 -0.7703 -0.7962
  898MOL0     H23924   2.277   0.089   6.903  0.8610  1.8269 -0.1329
  899MOL0     O23925   7.279   0.382   3.149  0.1677 -0.5504 -0.6571
  899MOL0     C23926   7.372   0.374   3.072  0.1879  0.5518 -0.6560
  899MOL0     O23927   7.491   0.447   3.080 -0.4630 -0.6341 -0.0630
  899MOL0     C23928   7.502   0.560   3.160 -0.2873  0.4759 -0.2165
  899MOL0     C23929   7.620   0.635   3.131  0.1877  0.3526  0.1855
  899MOL0     C23930   7.651   0.754   3.204 -0.2278 -0.1762 -0.0970
  899MOL0     C23931   7.566   0.797   3.305 -0.1690  0.0184  0.5171
  899MOL0     O23932   7.584   0.910   3.377 -0.1929  0.1173  0.0032
  899MOL0     C23933   7.695   0.923   3.456  0.0675  0.3881  0.0906
  899MOL0     C23934   7.692   1.022   3.583  0.6454  1.2539  0.5818
  899MOL0     C23935   7.669   1.159   3.525 -0.2318  0.0490 -0.1211
  899MOL0     C23936   7.727   1.269   3.608 -0.3808  0.5453 -0.4927
  899MOL0     C23937   7.724   1.394   3.537 -0.6225 -0.7813  0.1336
  899MOL0     C23938   7.843   1.487   3.582 -0.0043  0.3639  0.1138
  899MOL0     C23939   7.879   1.592   3.483 -0.5920 -0.0184  0.5116
  899MOL0     C23940   7.765   1.700   3.456  0.4789  0.2260 -0.4707
  899MOL0     N23941   7.787   1.791   3.340  0.1441 -0.4840  0.1379
  899MOL0     C23942   7.915   1.836   3.302  0.1703  0.4493 -0.3410
  899MOL0     C23943   7.895   1.872   3.172 -0.1411  1.2182  0.2864
  899MOL0     C23944   8.010   1.905   3.072  0.6936 -0.2429 -0.6440
  899MOL0     C23945   8.075   2.034   3.088 -0.6823  0.0012 -0.4388
  899MOL0     C23946   8.177   2.064   2.978  0.4572  0.1267 -0.5934
  899MOL0     C23947   8.239   2.205   2.963 -0.1313  0.3130 -0.1463
  899MOL0     O23948   8.324   2.192   2.844  0.2427  0.5705  0.2390
  899MOL0     C23949   8.432   2.274   2.846  0.0703  0.0605  1.7172
  899MOL0     C23950   8.430   2.413   2.828  0.4036  0.2650 -0.6504
  899MOL0     C23951   8.542   2.498   2.818  1.6497 -0.1637 -0.1501
  899MOL0     C23952   8.516   2.636   2.771 -0.5158 -0.1450  0.1482
  899MOL0     C23953   8.664   2.440   2.828  0.2791 -0.8933  0.0092
  899MOL0     C23954   8.791   2.518   2.836 -0.3928  0.8457  0.6389
  899MOL0     O23955   8.902   2.440   2.828  0.2747  0.0044 -0.7819
  899MOL0     C23956   9.027   2.492   2.797  0.1674 -0.4734  0.2021
  899MOL0     C23957   9.065   2.532   2.665  0.7269  0.0490 -0.7279
  899MOL0     C23958   9.196   2.577   2.634  0.8383 -0.5613 -0.0725
  899MOL0     C23959   9.285   2.607   2.744  0.4166  0.3301 -0.1414
  899MOL0     O23960   9.399   2.664   2.705 -0.2150  0.3072  0.2344
  899MOL0     C23961   9.500   2.700   2.791 -0.8658  0.4916 -0.0250
  899MOL0     C23962   9.627   2.754   2.717  0.2682 -0.3958 -0.4843
  899MOL0     C23963   9.746   2.808   2.802 -0.5743 -0.3918  0.0547
  899MOL0     C23964   9.884   2.805   2.728  0.3074 -0.3777 -0.0868
  899MOL0     C23965   9.887   2.900   2.595 -0.0454 -0.1114 -0.6872
  899MOL0     C23966  10.010   2.885   2.505 -0.0261  0.1168  0.1285
  899MOL0     C23967  10.141   2.951   2.564 -0.0938  0.5136  0.0617
  899MOL0     C23968  10.239   2.850   2.616  1.0244 -0.3762 -0.0870
  899MOL0    Cl23969  10.378   2.948   2.665 -0.1554  0.2244  0.5349
  899MOL0     C23970   9.246   2.568   2.872  0.4082  1.0545  0.2762
  899MOL0     C23971   9.118   2.512   2.902 -0.8164  0.1165  0.5318
  899MOL0     O23972   8.795   2.639   2.863  0.8288 -0.7393  0.3494
  899MOL0     C23973   8.668   2.299   2.847  0.0411 -0.0548  0.0554
  899MOL0     C23974   8.559   2.212   2.854  0.3925 -0.2391 -1.1198
  899MOL0     N23975   7.768   1.852   3.143  0.7054 -0.0487  0.6081
  899MOL0     N23976   7.698   1.810   3.242 -0.0189  0.6901  0.5323
  899MOL0     C23977   7.447   0.721   3.330 -0.4368 -0.0055 -0.2153
  899MOL0     C23978   7.415   0.606   3.253  0.0563  0.1686 -0.1901
  899MOL0     C23979   7.372   0.274   2.964 -0.5133  1.1346 -0.2033
  899MOL0     C23980   7.503   0.234   2.923  0.1328  0.6521  0.0290
  899MOL0     C23981   7.519   0.136   2.826  0.0414  0.1644  0.8234
  899MOL0     C23982   7.412   0.077   2.769  0.1387  0.3219  0.7038
  899MOL0     O23983   7.411  -0.020   2.671 -0.4788  0.5990 -0.4303
  899MOL0     C23984   7.532  -0.098   2.660  0.0615 -0.5891  0.0927
  899MOL0     C23985   7.508  -0.239   2.628 -0.7715  0.1116 -0.4875
  899MOL0     C23986   7.431  -0.260   2.495  0.5764 -0.8561 -0.4241
  899MOL0     C23987   7.497  -0.378   2.414  0.2856 -0.4905 -0.5429
  899MOL0     C23988   7.487  -0.504   2.483  0.4522 -0.3415 -0.0538
  899MOL0     C23989   7.465  -0.595   2.556 -0.2520 -0.1127 -0.6912
  899MOL0     C23990   7.283   0.117   2.799  0.0298 -0.6977 -0.4605
  899MOL0     C23991   7.261   0.220   2.896 -0.8716  0.6875  1.1547
  899MOL0     C23992   7.109   0.270   2.901 -0.1064  0.1857 -0.4324
  899MOL0     H23993   7.677   0.603   3.044 -0.6114  2.0820 -1.0376
  899MOL0     H23994   7.733   0.818   3.173 -0.9780 -0.0808 -2.0229
  899MOL0     H23995   7.783   0.943   3.393 -0.1025 -1.3930 -0.8101
  899MOL0     H23996   7.705   0.823   3.500  1.2562  0.1118 -0.7469
  899MOL0     H23997   7.604   1.002   3.646  1.8346  2.4914  2.7549
  899MOL0     H23998   7.784   1.014   3.642  0.6523 -0.4552  0.4014
  899MOL0     H23999   7.708   1.168   3.423 -1.9774  1.3711 -0.7147
  899MOL0     H24000   7.563   1.172   3.503 -0.3794  1.0651  1.1117
  899MOL0     H24001   7.683   1.272   3.709  1.3973 -0.9150  0.3953
  899MOL0     H24002   7.830   1.238   3.627 -0.2416  1.1885 -0.1734
  899MOL0     H24003   7.623   1.436   3.533  0.9583  3.5399  0.2556
  899MOL0     H24004   7.741   1.382   3.430  5.3348  1.4271  0.4809
  899MOL0     H24005   7.823   1.538   3.676  5.4179  1.8377  0.8184
  899MOL0     H24006   7.928   1.423   3.609 -0.7926 -0.1314  1.4918
  899MOL0     H24007   7.917   1.538   3.396  1.1865  0.4300  0.9759
  899MOL0     H24008   7.958   1.650   3.532 -0.6699  1.6316 -1.1669
  899MOL0     H24009   7.670   1.650   3.437 -0.0384  1.3973 -1.0419
  899MOL0     H24010   7.743   1.754   3.549  2.4703 -0.5995  0.5591
  899MOL0     H24011   8.010   1.828   3.355  0.4536  1.1024 -0.7379
  899MOL0     H24012   7.965   1.907   2.972  2.9834  0.0174 -1.7495
  899MOL0     H24013   8.084   1.824   3.073  1.1329  0.1496 -1.0162
  899MOL0     H24014   7.996   2.109   3.095 -3.0992 -2.3300 -1.1888
  899MOL0     H24015   8.135   2.042   3.179 -3.0032 -1.7846  1.3894
  899MOL0     H24016   8.257   1.990   2.988 -0.7611 -1.0011  1.4332
  899MOL0     H24017   8.131   2.047   2.880 -1.5809  1.2669  0.1022
  899MOL0     H24018   8.158   2.275   2.941  0.0091  0.0933 -1.4494
  899MOL0     H24019   8.295   2.242   3.049  1.2393  2.8247 -1.9837
  899MOL0     H24020   8.336   2.464   2.814 -0.1987 -1.0506 -1.6661
  899MOL0     H24021   8.567   2.652   2.676  1.3870 -2.2326  0.7168
  899MOL0     H24022   8.539   2.697   2.860 -1.9183 -1.7387  1.6807
  899MOL0     H24023   8.409   2.659   2.766 -0.1566  1.2988 -2.3293
  899MOL0     H24024   8.994   2.507   2.587  0.1226 -2.0999  0.4302
  899MOL0     H24025   9.225   2.610   2.534 -1.4696 -1.4391 -1.0944
  899MOL0     H24026   9.463   2.786   2.848  0.6933  2.0830 -1.2729
  899MOL0     H24027   9.529   2.613   2.851 -1.5619  0.7678  0.7252
  899MOL0     H24028   9.669   2.680   2.649 -1.4710 -2.3710  0.4808
  899MOL0     H24029   9.590   2.839   2.658  2.5293 -0.3214 -1.9170
  899MOL0     H24030   9.761   2.747   2.892 -1.6275 -0.6609  0.0587
  899MOL0     H24031   9.720   2.909   2.835 -2.9456 -1.5321  2.0817
  899MOL0     H24032   9.910   2.701   2.707 -1.5043 -0.3520 -2.9253
  899MOL0     H24033   9.967   2.838   2.791 -0.1220 -1.9736  1.3861
  899MOL0     H24034   9.809   2.852   2.535  0.9028 -1.6927 -0.6888
  899MOL0     H24035   9.865   3.007   2.606 -0.7666  0.1324 -3.6552
  899MOL0     H24036   9.989   2.942   2.414  0.3058  0.5178  0.2983
  899MOL0     H24037  10.023   2.779   2.484 -1.1229  0.0500 -0.2535
  899MOL0     H24038  10.124   3.028   2.639  0.1940  1.4898 -0.8417
  899MOL0     H24039  10.186   3.000   2.477 -1.2371 -0.0472 -0.8720
  899MOL0     H24040  10.262   2.770   2.544  1.3742  0.2025 -0.6263
  899MOL0     H24041  10.201   2.797   2.704  1.5901 -1.3799 -0.4268
  899MOL0     H24042   9.310   2.571   2.960  0.2187 -0.1405  0.4624
  899MOL0     H24043   9.099   2.495   3.007  0.4669  1.0331  0.9398
  899MOL0     H24044   8.770   2.261   2.848 -0.0153 -0.2007  0.1395
  899MOL0     H24045   8.565   2.107   2.880  0.4671  0.5456  2.7149
  899MOL0     H24046   7.380   0.761   3.405  1.0824 -2.5989  2.7326
  899MOL0     H24047   7.317   0.568   3.279  0.6004 -2.1761 -1.3040
  899MOL0     H24048   7.592   0.276   2.970 -0.8220  1.9530  0.7324
  899MOL0     H24049   7.616   0.102   2.790 -1.4525 -0.2467 -3.4514
  899MOL0     H24050   7.591  -0.055   2.579  0.5216 -1.4064 -0.0132
  899MOL0     H24051   7.606  -0.094   2.740 -0.1332  2.6496  0.2695
  899MOL0     H24052   7.455  -0.292   2.707 -1.6830  0.6895 -0.6917
  899MOL0     H24053   7.607  -0.285   2.619 -0.1634  0.8426  1.8708
  899MOL0     H24054   7.322  -0.253   2.502  0.4969  0.5555 -2.1218
  899MOL0     H24055   7.457  -0.170   2.437  1.6599  0.7860  2.3781
  899MOL0     H24056   7.602  -0.362   2.389  1.3545 -2.1433  2.4016
  899MOL0     H24057   7.438  -0.393   2.323  2.8988 -1.3124 -2.1919
  899MOL0     H24058   7.441  -0.678   2.619  1.4030 -1.3350 -1.5931
  899MOL0     H24059   7.210   0.055   2.748  0.1230 -0.1524 -1.2734
  899MOL0     H24060   7.041   0.195   2.861 -0.0480 -1.1265  1.7363
  899MOL0     H24061   7.094   0.293   3.007 -1.7276 -0.6184 -0.4617
  899MOL0     H24062   7.090   0.360   2.843 -3.9759  1.2590  2.1431
  900MOL0     O24063   7.136   2.864   6.243  0.0233  0.4971  0.4454
  900MOL0     C24064   7.183   2.753   6.229  0.1602 -0.7057 -0.3783
  900MOL0     O24065   7.316   2.725   6.208 -0.4064 -0.9017 -0.4682
  900MOL0     C24066   7.423   2.811   6.208 -0.3590 -0.6764 -0.7972
  900MOL0     C24067   7.545   2.748   6.226 -0.0722  0.8682 -0.4766
  900MOL0     C24068   7.664   2.825   6.228  0.4371 -0.0573 -0.4802
  900MOL0     C24069   7.662   2.971   6.217 -0.4854  0.2306 -0.0858
  900MOL0     O24070   7.763   3.055   6.201  0.0020 -0.1696  0.0150
  900MOL0     C24071   7.894   2.998   6.186  0.4055 -0.1060 -0.0005
  900MOL0     C24072   7.993   3.114   6.160 -0.2515  0.9786  0.5630
  900MOL0     C24073   8.119   3.066   6.076 -0.0144 -1.0473 -0.3624
  900MOL0     C24074   8.227   3.184   6.072 -0.1506 -0.4195 -0.1153
  900MOL0     C24075   8.353   3.130   5.996 -0.4943  0.2537 -0.0134
  900MOL0     C24076   8.454   3.241   5.984 -0.5174  0.1459 -0.2736
  900MOL0     C24077   8.525   3.291   6.107 -0.9712  0.7617  0.4415
  900MOL0     C24078   8.628   3.395   6.088 -0.1742 -0.0170 -0.4764
  900MOL0     N24079   8.691   3.428   6.216 -0.0430  0.2628  0.4109
  900MOL0     C24080   8.807   3.384   6.273 -0.5318  0.7746 -0.1276
  900MOL0     C24081   8.838   3.478   6.362 -0.2713  0.5921 -0.0613
  900MOL0     C24082   8.943   3.471   6.468 -0.8031  0.2124 -0.6820
  900MOL0     C24083   9.061   3.568   6.451  0.0038 -0.0997  0.3592
  900MOL0     C24084   9.155   3.558   6.574  0.1841  0.5280  0.2619
  900MOL0     C24085   9.099   3.607   6.706 -0.8570  0.3326  0.4347
  900MOL0     O24086   9.059   3.743   6.703 -0.3749 -0.4428 -0.3376
  900MOL0     C24087   8.933   3.783   6.730 -0.4881 -1.1118  0.4973
  900MOL0     C24088   8.819   3.753   6.659  0.6300  0.4106  1.1554
  900MOL0     C24089   8.694   3.821   6.670 -0.0960  0.7881  0.8041
  900MOL0     C24090   8.587   3.790   6.564 -0.3321  0.5661  0.7202
  900MOL0     C24091   8.683   3.917   6.774 -0.1723  0.1943 -0.7592
  900MOL0     C24092   8.554   3.969   6.820 -0.5319 -0.5045  0.2015
  900MOL0     O24093   8.521   3.966   6.953  0.1785  1.0455  0.6746
  900MOL0     C24094   8.393   3.960   6.988 -0.8833  0.1366 -0.3774
  900MOL0     C24095   8.334   4.071   7.048  0.4484 -0.7289  0.1562
  900MOL0     C24096   8.208   4.075   7.096  0.6917  0.1031 -0.6477
  900MOL0     C24097   8.125   3.966   7.091 -0.0946 -0.0582  0.1499
  900MOL0     O24098   7.991   3.967   7.134 -0.6676  0.7092 -0.1258
  900MOL0     C24099   7.941   4.067   7.217 -0.1859  0.5580  0.0598
  900MOL0     C24100   7.794   4.071   7.235  0.8026 -0.4212 -0.3987
  900MOL0     C24101   7.749   3.957   7.321 -0.3479 -0.9824 -0.3472
  900MOL0     C24102   7.615   3.987   7.390  1.3485 -0.6799 -0.4983
  900MOL0     C24103   7.559   3.875   7.487  1.0345 -0.1094 -0.0874
  900MOL0     C24104   7.621   3.861   7.619  0.2514  0.0407 -1.0131
  900MOL0     C24105   7.599   3.724   7.685 -0.0958 -0.4019  0.1185
  900MOL0     C24106   7.683   3.701   7.809  0.4609  0.0012  0.7812
  900MOL0    Cl24107   7.857   3.689   7.773  0.3817 -0.0541 -0.4513
  900MOL0     C24108   8.175   3.859   7.011  0.6162 -0.3876  0.3016
  900MOL0     C24109   8.310   3.850   6.963  0.0342  0.4090 -0.5859
  900MOL0     O24110   8.482   4.026   6.734  0.0529  0.5579 -0.4727
  900MOL0     C24111   8.800   3.938   6.856  0.2644 -0.0791  0.0207
  900MOL0     C24112   8.922   3.877   6.831  0.4297 -0.7621  0.7976
  900MOL0     N24113   8.756   3.577   6.347  0.8851  0.4342 -0.5605
  900MOL0     N24114   8.666   3.553   6.264  0.0278 -0.2123 -0.1400
  900MOL0     C24115   7.539   3.027   6.202 -0.2576  1.0453  0.7257
  900MOL0     C24116   7.421   2.953   6.193  0.6080 -0.6436 -0.3507
  900MOL0     C24117   7.083   2.652   6.253 -0.3380 -0.5162 -0.5227
  900MOL0     C24118   7.069   2.603   6.379 -0.0098 -0.6258  0.4351
  900MOL0     C24119   6.976   2.505   6.408  0.1399  1.0266 -0.5588
  900MOL0     C24120   6.905   2.434   6.309 -0.8382 -0.1892  0.0593
  900MOL0     O24121   6.813   2.344   6.345 -0.3500 -0.5397 -0.5785
  900MOL0     C24122   6.783   2.248   6.244  0.5592  0.4226 -0.0521
  900MOL0     C24123   6.669   2.173   6.309  0.5669 -0.0128  0.3604
  900MOL0     C24124   6.529   2.242   6.342 -0.4512  0.5720  0.1044
  900MOL0     C24125   6.435   2.160   6.438  0.0897  0.3934  0.2974
  900MOL0     C24126   6.307   2.236   6.456 -0.2724 -0.1096 -0.1086
  900MOL0     C24127   6.212   2.305   6.486  0.1620 -0.6408 -0.1172
  900MOL0     C24128   6.921   2.488   6.175 -0.8402  0.6925 -0.1081
  900MOL0     C24129   7.018   2.581   6.152  1.2171 -0.6829 -0.4069
  900MOL0     C24130   7.039   2.616   6.002  0.1520 -0.0619  1.0014
  900MOL0     H24131   7.552   2.639   6.225  0.7511  0.9217 -0.6371
  900MOL0     H24132   7.753   2.764   6.237 -0.2806 -1.3320 -1.5798
  900MOL0     H24133   7.893   2.928   6.101  3.2374  0.5661 -0.6876
  900MOL0     H24134   7.929   2.945   6.274  1.5714 -1.6457 -1.3251
  900MOL0     H24135   7.947   3.189   6.095  1.0556  1.7496  0.4910
  900MOL0     H24136   8.028   3.146   6.258 -2.8796  1.2119  1.4771
  900MOL0     H24137   8.148   2.967   6.113  1.5141 -0.2343  0.7173
  900MOL0     H24138   8.080   3.050   5.975 -1.0074  1.7381 -0.5125
  900MOL0     H24139   8.194   3.278   6.028 -1.5815  0.5279  2.7209
  900MOL0     H24140   8.254   3.212   6.174 -1.0881  2.3306 -0.5362
  900MOL0     H24141   8.321   3.093   5.898  0.3510 -0.1473 -0.1416
  900MOL0     H24142   8.394   3.051   6.058 -1.6331 -0.0082  0.4377
  900MOL0     H24143   8.531   3.232   5.906  0.4744 -1.2605  0.8096
  900MOL0     H24144   8.392   3.322   5.946 -0.4088 -0.1260 -1.0609
  900MOL0     H24145   8.576   3.207   6.154 -2.1064 -1.1209 -1.5598
  900MOL0     H24146   8.446   3.319   6.178  0.3060  0.4225  2.0762
  900MOL0     H24147   8.696   3.347   6.018 -0.2953 -1.6742  0.4898
  900MOL0     H24148   8.579   3.483   6.044 -1.0923  0.0746  0.6568
  900MOL0     H24149   8.861   3.298   6.235  0.3867  1.3192 -0.0727
  900MOL0     H24150   8.990   3.373   6.452 -0.1230  0.5429 -0.7227
  900MOL0     H24151   8.900   3.478   6.569 -1.7562 -0.7666 -1.0012
  900MOL0     H24152   9.113   3.533   6.362 -0.5562  2.2076 -0.9436
  900MOL0     H24153   9.026   3.671   6.443  2.2043  0.6718 -0.0257
  900MOL0     H24154   9.185   3.453   6.582 -2.0479 -0.2739 -1.0512
  900MOL0     H24155   9.244   3.619   6.553  1.5846 -2.1148 -2.0700
  900MOL0     H24156   9.025   3.537   6.746 -1.1516 -0.3336 -1.2209
  900MOL0     H24157   9.185   3.615   6.774 -0.8722  1.3451  0.3475
  900MOL0     H24158   8.846   3.691   6.574 -0.5643  0.0241  1.0477
  900MOL0     H24159   8.635   3.809   6.468  1.8072  1.1939  1.8492
  900MOL0     H24160   8.492   3.844   6.573 -0.8188 -0.3953  1.5994
  900MOL0     H24161   8.561   3.684   6.576  0.1869  0.5432  1.8039
  900MOL0     H24162   8.396   4.160   7.059  0.4730 -0.9787  2.8115
  900MOL0     H24163   8.172   4.162   7.150 -0.0840 -0.6923  0.1456
  900MOL0     H24164   7.991   4.081   7.313 -1.2488  1.0048  0.5663
  900MOL0     H24165   7.969   4.159   7.164  0.5417 -0.0977 -0.7216
  900MOL0     H24166   7.765   4.164   7.284  4.0399  0.2090  0.4957
  900MOL0     H24167   7.753   4.064   7.134  0.6090  2.9029 -0.6355
  900MOL0     H24168   7.818   3.952   7.406  3.4767  2.6967 -2.8400
  900MOL0     H24169   7.744   3.876   7.248  0.7200 -1.2925 -0.0868
  900MOL0     H24170   7.548   3.992   7.304 -1.3771 -0.0077  1.5184
  900MOL0     H24171   7.619   4.081   7.445  0.9270 -0.7436 -0.3551
  900MOL0     H24172   7.456   3.909   7.505  1.2942  0.6674 -0.0457
  900MOL0     H24173   7.557   3.777   7.438  0.3153 -1.0319  1.6982
  900MOL0     H24174   7.585   3.940   7.687  1.5830 -0.7496  0.6879
  900MOL0     H24175   7.729   3.869   7.604  0.0538 -0.5121 -2.8568
  900MOL0     H24176   7.632   3.656   7.606 -0.1368 -1.6564  1.1429
  900MOL0     H24177   7.493   3.709   7.706 -0.2087 -1.5823 -1.1558
  900MOL0     H24178   7.645   3.604   7.842 -0.2117 -0.8310 -2.1472
  900MOL0     H24179   7.664   3.785   7.876 -1.5012  1.4444 -1.4250
  900MOL0     H24180   8.099   3.789   6.981  0.6451  0.7216 -2.7946
  900MOL0     H24181   8.347   3.770   6.898 -0.4356 -2.7958  2.7574
  900MOL0     H24182   8.783   3.993   6.948 -0.4961 -1.1293  0.5218
  900MOL0     H24183   9.009   3.899   6.892  1.4197  1.6153 -1.3244
  900MOL0     H24184   7.531   3.134   6.184  0.3542  0.7844 -1.4091
  900MOL0     H24185   7.327   3.005   6.177  1.3886  1.3322  1.0511
  900MOL0     H24186   7.117   2.659   6.458 -0.9678  2.2826 -0.9194
  900MOL0     H24187   6.953   2.485   6.513 -1.2447 -2.1984 -1.3532
  900MOL0     H24188   6.760   2.284   6.143  1.9957 -0.2111 -0.6373
  900MOL0     H24189   6.870   2.187   6.220  1.1303  2.1412 -2.7706
  900MOL0     H24190   6.711   2.140   6.404 -2.3512  1.4180  2.2853
  900MOL0     H24191   6.643   2.089   6.245  2.4908  0.4784 -1.1789
  900MOL0     H24192   6.567   2.331   6.392 -0.0216  1.8542 -2.3469
  900MOL0     H24193   6.485   2.283   6.250  0.9375  4.1929  0.8764
  900MOL0     H24194   6.490   2.142   6.531  0.3529 -1.5022 -0.1926
  900MOL0     H24195   6.409   2.065   6.391  1.1305  0.4758 -0.5073
  900MOL0     H24196   6.137   2.379   6.505 -0.7838 -0.6705 -3.1616
  900MOL0     H24197   6.868   2.473   6.082 -3.1934  0.5880  1.1629
  900MOL0     H24198   7.087   2.540   5.939 -2.0224 -1.1704  0.6097
  900MOL0     H24199   6.948   2.645   5.949  1.6913 -2.0080 -3.1585
  900MOL0     H24200   7.108   2.701   6.003  0.9158 -0.6664  1.2269
  901MOL0     O24201   0.946   8.385   1.932  0.2029 -0.1951  0.1183
  901MOL0     C24202   0.914   8.283   1.996 -0.6035  0.6420  0.0749
  901MOL0     O24203   0.993   8.185   2.041  0.6091 -0.3685  0.1625
  901MOL0     C24204   1.127   8.192   2.004 -0.2948 -0.1999 -0.7158
  901MOL0     C24205   1.171   8.090   1.927 -0.1116  0.3824  0.9888
  901MOL0     C24206   1.313   8.076   1.891  0.6567 -0.0511 -1.0629
  901MOL0     C24207   1.405   8.162   1.946 -0.4998  0.1460  0.0523
  901MOL0     O24208   1.541   8.138   1.918  0.2012 -0.5904 -1.1464
  901MOL0     C24209   1.641   8.184   2.008 -0.1309 -0.6918  0.1947
  901MOL0     C24210   1.777   8.153   1.950  0.2643 -0.9679 -0.1949
  901MOL0     C24211   1.785   7.997   1.918  0.0355 -0.0451  0.1293
  901MOL0     C24212   1.932   7.961   1.874  0.2706 -0.5811  0.1278
  901MOL0     C24213   1.965   7.819   1.894 -0.6130  0.3548  0.1703
  901MOL0     C24214   2.102   7.787   1.848 -0.1506  0.7601 -1.3029
  901MOL0     C24215   2.156   7.654   1.902  0.3714  0.0664  0.5239
  901MOL0     C24216   2.282   7.609   1.828 -0.7773  0.0618  0.5074
  901MOL0     N24217   2.347   7.487   1.893  0.3659  1.0591  0.4336
  901MOL0     C24218   2.427   7.470   2.005  0.3536  0.6260  0.2309
  901MOL0     C24219   2.455   7.329   2.007  0.0086 -0.3185  0.4449
  901MOL0     C24220   2.534   7.271   2.118  0.4321  1.1141 -0.2951
  901MOL0     C24221   2.641   7.167   2.064 -0.0986 -0.6090  1.3869
  901MOL0     C24222   2.731   7.109   2.166  0.0581 -0.5823 -0.0948
  901MOL0     C24223   2.812   7.199   2.253 -0.2577  0.5920 -0.3884
  901MOL0     O24224   2.912   7.120   2.319  0.4295 -0.1606 -0.4492
  901MOL0     C24225   3.047   7.147   2.305 -0.5119 -0.0967 -0.0824
  901MOL0     C24226   3.108   7.194   2.188 -0.2960  0.0543  0.9249
  901MOL0     C24227   3.239   7.240   2.189 -0.9680 -0.0775  0.4242
  901MOL0     C24228   3.300   7.277   2.052 -0.2518 -0.6469 -0.5301
  901MOL0     C24229   3.320   7.236   2.309  0.5105 -0.6356 -0.2943
  901MOL0     C24230   3.458   7.277   2.323 -1.0216  0.0415  0.6875
  901MOL0     O24231   3.506   7.289   2.453  0.0525  0.0303  0.1080
  901MOL0     C24232   3.637   7.308   2.472 -0.0963 -0.0837 -0.6979
  901MOL0     C24233   3.676   7.372   2.589 -0.8882 -0.3475 -0.0568
  901MOL0     C24234   3.811   7.374   2.634 -0.8680 -0.0544  0.4128
  901MOL0     C24235   3.912   7.311   2.559  0.4160 -0.1507  0.9440
  901MOL0     O24236   4.044   7.299   2.590  0.6707 -0.7840 -0.3402
  901MOL0     C24237   4.087   7.404   2.687 -0.2070  0.2647 -0.0244
  901MOL0     C24238   4.239   7.411   2.679 -0.7867  0.0868  0.2727
  901MOL0     C24239   4.303   7.548   2.703 -0.1504 -0.9513 -0.0135
  901MOL0     C24240   4.283   7.576   2.856 -0.5414  0.0022  0.3054
  901MOL0     C24241   4.376   7.700   2.895 -0.3893 -1.0452  0.3733
  901MOL0     C24242   4.377   7.747   3.036  0.2643  0.7187 -0.5894
  901MOL0     C24243   4.480   7.864   3.054 -0.2947 -0.0116  0.4215
  901MOL0     C24244   4.471   7.931   3.189  0.0670 -0.6532 -0.8074
  901MOL0    Cl24245   4.536   7.809   3.303  0.0158  0.3445 -0.2770
  901MOL0     C24246   3.875   7.255   2.435  0.7027 -0.2383 -0.0397
  901MOL0     C24247   3.742   7.243   2.397 -0.3061 -0.4146  0.8788
  901MOL0     O24248   3.511   7.321   2.221 -0.3016 -0.1725  0.1165
  901MOL0     C24249   3.257   7.183   2.420  0.0899 -0.0265 -0.3881
  901MOL0     C24250   3.122   7.144   2.414  0.5602  0.0624 -0.6049
  901MOL0     N24251   2.391   7.269   1.896 -0.9292 -0.3703 -0.1697
  901MOL0     N24252   2.335   7.364   1.833  1.2605 -0.5950  0.6358
  901MOL0     C24253   1.353   8.267   2.029 -0.3395  1.0824 -0.6749
  901MOL0     C24254   1.221   8.278   2.058  0.3994  0.2352 -0.1372
  901MOL0     C24255   0.765   8.264   2.033 -0.2338 -0.0805  0.5461
  901MOL0     C24256   0.734   8.190   2.149 -0.8253  0.2893 -0.4486
  901MOL0     C24257   0.606   8.138   2.166 -0.5048  0.4080 -0.7329
  901MOL0     C24258   0.504   8.187   2.083 -0.1288  0.4683 -0.1103
  901MOL0     O24259   0.380   8.166   2.131  0.2385 -0.3309 -0.0708
  901MOL0     C24260   0.265   8.202   2.048  0.4399 -0.1210 -0.5822
  901MOL0     C24261   0.130   8.196   2.114 -0.7271  0.2289 -0.3764
  901MOL0     C24262   0.017   8.255   2.033 -0.2614  0.6038 -0.7410
  901MOL0     C24263  -0.114   8.248   2.118  0.7219 -0.1548  0.2164
  901MOL0     C24264  -0.219   8.290   2.022 -0.6035  0.5756 -0.4251
  901MOL0     C24265  -0.317   8.315   1.955  0.2159 -0.2381 -0.0211
  901MOL0     C24266   0.528   8.264   1.971 -0.2242  0.4934 -0.8194
  901MOL0     C24267   0.657   8.302   1.948 -0.6780  0.0143  0.0406
  901MOL0     C24268   0.676   8.387   1.821  0.2036 -0.1990 -0.7830
  901MOL0     H24269   1.102   8.023   1.878 -2.8703  0.5234  4.3512
  901MOL0     H24270   1.342   8.000   1.819  1.3760 -1.2042  0.3742
  901MOL0     H24271   1.627   8.124   2.099  2.0528 -1.1741  0.2629
  901MOL0     H24272   1.631   8.292   2.019  0.5253 -0.2340 -2.8603
  901MOL0     H24273   1.782   8.210   1.856 -1.8956 -1.7067 -0.8233
  901MOL0     H24274   1.857   8.198   2.009  0.3528  0.1947 -1.1492
  901MOL0     H24275   1.765   7.935   2.005  0.3479  0.3837  0.5081
  901MOL0     H24276   1.729   7.976   1.826  1.4670 -0.3575 -0.7077
  901MOL0     H24277   1.946   7.975   1.767 -1.0018 -2.0745 -0.2716
  901MOL0     H24278   2.006   8.021   1.928  0.8682 -0.4237 -0.8579
  901MOL0     H24279   1.890   7.765   1.837 -3.2955  1.9893  1.9444
  901MOL0     H24280   1.955   7.798   2.001  3.8217  0.8453  0.8799
  901MOL0     H24281   2.099   7.789   1.739  1.9010  2.4929 -1.3941
  901MOL0     H24282   2.168   7.867   1.883 -1.2910  0.4020  2.0056
  901MOL0     H24283   2.085   7.573   1.883  1.8537 -1.2931  0.5320
  901MOL0     H24284   2.174   7.681   2.006  0.6042 -0.4709  0.6261
  901MOL0     H24285   2.265   7.575   1.725  4.0765 -0.7085 -0.2759
  901MOL0     H24286   2.349   7.695   1.831  0.0832 -0.5170 -0.9538
  901MOL0     H24287   2.469   7.548   2.068  2.0186 -1.1212  1.3969
  901MOL0     H24288   2.454   7.224   2.176  2.4529  0.1413  1.8781
  901MOL0     H24289   2.589   7.344   2.178  0.7287 -0.8044  1.9467
  901MOL0     H24290   2.589   7.095   2.000  0.4453  1.5585 -1.7186
  901MOL0     H24291   2.708   7.216   1.993  0.9294 -1.0220  2.0381
  901MOL0     H24292   2.666   7.052   2.234  0.8009 -1.5983 -0.2146
  901MOL0     H24293   2.798   7.036   2.119 -0.5785 -1.0669 -0.2636
  901MOL0     H24294   2.848   7.286   2.197  1.0992  1.4228  1.6382
  901MOL0     H24295   2.748   7.240   2.332 -0.5211 -0.6845  0.0954
  901MOL0     H24296   3.053   7.192   2.095 -3.0020  0.4179  2.4125
  901MOL0     H24297   3.225   7.272   1.972 -4.7315 -0.5233  3.2133
  901MOL0     H24298   3.377   7.205   2.023  3.8500  4.1695 -3.3120
  901MOL0     H24299   3.356   7.371   2.047  2.4427 -1.9462  2.1048
  901MOL0     H24300   3.602   7.416   2.655  0.3939  0.9925  0.5468
  901MOL0     H24301   3.842   7.427   2.724  1.3567  0.5521 -0.6272
  901MOL0     H24302   4.052   7.500   2.648  1.4139  1.0624  0.3912
  901MOL0     H24303   4.049   7.394   2.789  0.8143 -1.1555  0.2471
  901MOL0     H24304   4.283   7.343   2.753  3.0989  1.2390 -0.7325
  901MOL0     H24305   4.279   7.377   2.582  0.7177  2.4072  0.0049
  901MOL0     H24306   4.267   7.634   2.645 -0.2316  0.1139  1.5438
  901MOL0     H24307   4.409   7.539   2.681 -0.5898  0.1606 -3.0097
  901MOL0     H24308   4.314   7.495   2.924 -3.3118  0.5568  2.4059
  901MOL0     H24309   4.180   7.598   2.885 -1.3963 -2.1067 -0.8517
  901MOL0     H24310   4.481   7.682   2.870  0.6858  1.9402  2.3243
  901MOL0     H24311   4.336   7.784   2.838  0.0989 -1.0838 -0.0340
  901MOL0     H24312   4.384   7.669   3.112  0.6682  1.7665  0.4715
  901MOL0     H24313   4.275   7.784   3.054  0.2733 -0.2868  1.9087
  901MOL0     H24314   4.451   7.944   2.985  1.3250 -0.1081 -0.4001
  901MOL0     H24315   4.579   7.822   3.039  0.0930  0.1697  2.2856
  901MOL0     H24316   4.373   7.970   3.217  0.9216  0.9971  0.0564
  901MOL0     H24317   4.540   8.017   3.195  0.4929 -0.8483 -2.3699
  901MOL0     H24318   3.955   7.217   2.372  1.1868  2.0297 -0.8897
  901MOL0     H24319   3.723   7.196   2.301  0.6565  2.4620 -0.8236
  901MOL0     H24320   3.311   7.159   2.511 -1.1641 -5.2362 -0.6915
  901MOL0     H24321   3.069   7.110   2.502  2.8612  1.4896  1.4897
  901MOL0     H24322   1.416   8.345   2.070 -0.5178  0.0177  1.7858
  901MOL0     H24323   1.186   8.362   2.118 -0.0687 -0.2509  0.2746
  901MOL0     H24324   0.808   8.147   2.216 -0.2739  0.3578 -0.9964
  901MOL0     H24325   0.589   8.072   2.250 -0.7464  2.0786  0.5702
  901MOL0     H24326   0.272   8.310   2.032  1.0416  0.0274  0.5584
  901MOL0     H24327   0.263   8.156   1.950 -1.6054 -0.7750 -0.2781
  901MOL0     H24328   0.130   8.256   2.205 -2.2599  2.9948 -2.0567
  901MOL0     H24329   0.115   8.091   2.141  1.5149 -1.0282 -3.4480
  901MOL0     H24330   0.037   8.360   2.009 -0.2643  1.5047  2.7056
  901MOL0     H24331   0.018   8.191   1.944  0.1799  0.8020 -0.8858
  901MOL0     H24332  -0.111   8.314   2.205 -3.0735  1.3831 -0.6249
  901MOL0     H24333  -0.129   8.147   2.156 -0.8045  0.2227  0.6786
  901MOL0     H24334  -0.410   8.342   1.909  0.1804 -4.1606 -2.7332
  901MOL0     H24335   0.446   8.306   1.914 -3.5558 -2.4017  1.4504
  901MOL0     H24336   0.579   8.408   1.774 -1.7145 -0.7070  2.5525
  901MOL0     H24337   0.726   8.478   1.853  0.5101 -0.8572  0.6869
  901MOL0     H24338   0.735   8.335   1.745 -1.5953 -1.6572 -1.2797
  902MOL0     O24339   8.493   3.785   3.187  0.4505 -0.1473 -0.9044
  902MOL0     C24340   8.497   3.789   3.063 -0.2210  0.4371  0.2162
  902MOL0     O24341   8.594   3.718   2.986 -0.2511 -0.5051  0.5491
  902MOL0     C24342   8.718   3.728   3.024 -0.0126 -0.3250  0.1681
  902MOL0     C24343   8.758   3.648   3.138 -0.5961 -0.1042 -0.2557
  902MOL0     C24344   8.898   3.657   3.169 -0.2349 -0.2657  0.0640
  902MOL0     C24345   8.983   3.748   3.107 -0.2621 -0.2243  0.3652
  902MOL0     O24346   9.110   3.757   3.170  0.1393  0.1361  0.6334
  902MOL0     C24347   9.212   3.825   3.096 -0.2473 -1.2728  0.3183
  902MOL0     C24348   9.343   3.770   3.136  0.2038  0.0429 -0.3317
  902MOL0     C24349   9.372   3.621   3.120  0.2211  1.1072  0.1296
  902MOL0     C24350   9.395   3.573   2.973 -0.4540 -0.2879  0.7900
  902MOL0     C24351   9.413   3.423   2.947  0.3948 -0.1307 -0.4911
  902MOL0     C24352   9.554   3.375   3.010 -0.4471  0.0605 -0.1944
  902MOL0     C24353   9.584   3.228   2.974  0.3048  0.3041 -0.1779
  902MOL0     C24354   9.710   3.168   3.052  0.6820  0.3586 -0.3538
  902MOL0     N24355   9.826   3.213   2.989 -0.2619  0.0108  0.6794
  902MOL0     C24356   9.902   3.326   3.011 -0.4386  0.9778  0.1492
  902MOL0     C24357  10.006   3.322   2.919 -0.3850  0.5374  0.5305
  902MOL0     C24358  10.096   3.434   2.891  0.5228  0.1294  0.0628
  902MOL0     C24359  10.216   3.396   2.812  0.0397 -0.3898 -0.1832
  902MOL0     C24360  10.302   3.509   2.772 -0.4333 -0.8279  0.0965
  902MOL0     C24361  10.383   3.460   2.647  0.4649  0.5731 -0.6865
  902MOL0     O24362  10.485   3.363   2.677 -0.8774  0.2047 -0.4660
  902MOL0     C24363  10.586   3.395   2.770  0.1529 -1.0543  0.2658
  902MOL0     C24364  10.619   3.528   2.805 -0.3477  0.3577  0.2910
  902MOL0     C24365  10.724   3.544   2.897  0.2264  0.1935  0.1775
  902MOL0     C24366  10.748   3.684   2.942 -0.4867 -0.2719  0.6285
  902MOL0     C24367  10.779   3.430   2.963 -0.5755  0.9223 -1.2966
  902MOL0     C24368  10.887   3.439   3.067  1.1034 -0.9046  1.1047
  902MOL0     O24369  10.883   3.548   3.151 -0.2785 -0.4396  0.3361
  902MOL0     C24370  10.969   3.565   3.259  0.2288  0.3427  0.0486
  902MOL0     C24371  11.031   3.469   3.335  0.4925  0.4358  0.5539
  902MOL0     C24372  11.108   3.502   3.448  0.1522 -0.1028  0.8430
  902MOL0     C24373  11.116   3.631   3.496  0.2442 -0.3959  0.8740
  902MOL0     O24374  11.169   3.653   3.619  0.0598  0.2720  0.0431
  902MOL0     C24375  11.161   3.551   3.717  0.8350  0.0817 -0.2154
  902MOL0     C24376  11.185   3.623   3.861  0.1625 -0.4498  0.2220
  902MOL0     C24377  11.315   3.703   3.869  0.1330  0.3316  0.0410
  902MOL0     C24378  11.347   3.723   4.015 -0.5906  0.6944  0.3748
  902MOL0     C24379  11.476   3.788   4.045 -0.1410 -0.6768  0.8762
  902MOL0     C24380  11.464   3.945   4.015 -0.0933  0.2734  0.3016
  902MOL0     C24381  11.347   4.017   4.081  0.1045 -0.5851  0.0591
  902MOL0     C24382  11.344   4.161   4.017  0.3332  0.4390  0.0929
  902MOL0    Cl24383  11.191   4.249   4.037 -0.0003  0.2901 -0.1489
  902MOL0     C24384  11.045   3.730   3.423  0.4280  0.3177 -0.3950
  902MOL0     C24385  10.975   3.697   3.306 -0.0490  0.2257 -0.5960
  902MOL0     O24386  10.970   3.350   3.070 -0.2042  0.5639  0.8197
  902MOL0     C24387  10.744   3.302   2.916  0.1715 -0.1802  1.0808
  902MOL0     C24388  10.651   3.287   2.814  0.1983 -0.5707 -0.6272
  902MOL0     N24389   9.998   3.203   2.848 -0.6661  0.3344  0.3035
  902MOL0     N24390   9.889   3.136   2.898 -0.1768 -1.3111  0.3854
  902MOL0     C24391   8.940   3.817   2.992  0.2284 -0.0255 -0.0233
  902MOL0     C24392   8.807   3.810   2.951 -0.4303 -0.7732 -0.1462
  902MOL0     C24393   8.388   3.851   2.989  0.3828 -0.6009  1.0064
  902MOL0     C24394   8.347   3.799   2.866 -0.2709  0.7373  0.0645
  902MOL0     C24395   8.237   3.834   2.795  0.0634 -0.2350  0.5608
  902MOL0     C24396   8.172   3.950   2.830  0.5083 -0.0311  0.6613
  902MOL0     O24397   8.070   4.005   2.755 -0.1656 -0.1342 -0.7432
  902MOL0     C24398   8.059   3.975   2.614 -0.1966 -0.6266 -0.5764
  902MOL0     C24399   8.181   4.038   2.533  0.9706 -0.7540  0.1824
  902MOL0     C24400   8.139   4.034   2.386 -0.8351 -0.3894  0.4161
  902MOL0     C24401   8.208   4.148   2.301 -0.3558 -0.2837 -0.1661
  902MOL0     C24402   8.354   4.122   2.285 -0.6848 -0.0337 -0.1484
  902MOL0     C24403   8.467   4.092   2.267 -0.1192  0.0732  0.0511
  902MOL0     C24404   8.211   4.004   2.945  0.5690 -0.4955  0.3083
  902MOL0     C24405   8.307   3.954   3.036 -0.0422 -0.4599  0.4158
  902MOL0     C24406   8.350   4.042   3.154 -0.7709  0.3819  0.5339
  902MOL0     H24407   8.690   3.598   3.207  0.1549  0.8339  1.2149
  902MOL0     H24408   8.937   3.591   3.246 -0.9305 -1.5275 -0.6351
  902MOL0     H24409   9.205   3.935   3.097  1.1040 -1.1722  1.0495
  902MOL0     H24410   9.203   3.786   2.995 -1.7252 -4.3118  1.5059
  902MOL0     H24411   9.428   3.810   3.079  0.4544  1.4224  0.9483
  902MOL0     H24412   9.369   3.802   3.237  2.8987  3.2597 -1.8277
  902MOL0     H24413   9.465   3.592   3.171 -0.9720 -1.1789  1.1643
  902MOL0     H24414   9.298   3.556   3.168 -0.1798  0.9798 -0.6458
  902MOL0     H24415   9.309   3.598   2.910 -2.3516 -3.0071  2.0823
  902MOL0     H24416   9.484   3.622   2.931 -0.2334 -0.9576  0.4649
  902MOL0     H24417   9.417   3.416   2.838  0.2212  0.1003 -0.5121
  902MOL0     H24418   9.327   3.367   2.985  0.8896  1.4963  3.4179
  902MOL0     H24419   9.624   3.454   2.979 -2.0436  0.7786 -2.1619
  902MOL0     H24420   9.564   3.384   3.119 -0.1362 -2.9290  0.0876
  902MOL0     H24421   9.606   3.220   2.867  2.4558  0.5756  0.2102
  902MOL0     H24422   9.493   3.177   3.005  0.9268  0.0723  1.3625
  902MOL0     H24423   9.716   3.189   3.159 -0.6185 -1.0429  0.0172
  902MOL0     H24424   9.695   3.060   3.042  3.4774 -0.2553  1.0305
  902MOL0     H24425   9.869   3.403   3.080  0.2317  1.3870  0.0283
  902MOL0     H24426  10.117   3.494   2.980  0.8259  0.2844 -0.1077
  902MOL0     H24427  10.036   3.505   2.833 -0.2643  0.8427  1.6935
  902MOL0     H24428  10.260   3.317   2.873 -1.9609  0.3739  2.4272
  902MOL0     H24429  10.177   3.346   2.722  0.3878 -3.4712  1.2454
  902MOL0     H24430  10.241   3.595   2.740  0.7742  0.4775  1.1749
  902MOL0     H24431  10.372   3.531   2.853 -1.2338 -1.3421  0.9391
  902MOL0     H24432  10.322   3.421   2.565  1.3935 -0.7987 -0.7554
  902MOL0     H24433  10.428   3.551   2.606  1.4554 -0.6316 -2.3823
  902MOL0     H24434  10.579   3.610   2.747 -1.0733 -0.8372 -0.9552
  902MOL0     H24435  10.717   3.769   2.880  1.2816  1.3971  1.9226
  902MOL0     H24436  10.854   3.710   2.942 -0.6872  0.5959  0.6807
  902MOL0     H24437  10.697   3.698   3.038 -1.2112 -2.3739  0.5978
  902MOL0     H24438  11.015   3.363   3.317 -0.8896  0.1465  3.0128
  902MOL0     H24439  11.165   3.423   3.494  0.6334 -1.0801 -1.3134
  902MOL0     H24440  11.056   3.520   3.720  0.3333  1.7529  2.8164
  902MOL0     H24441  11.232   3.471   3.696  0.9757  0.3030 -0.5776
  902MOL0     H24442  11.103   3.689   3.892 -0.2512 -1.1471  0.6200
  902MOL0     H24443  11.181   3.540   3.931  0.9614 -0.2671  0.4945
  902MOL0     H24444  11.299   3.804   3.831  1.8467  1.0211  0.9920
  902MOL0     H24445  11.398   3.671   3.805 -0.5990  2.9406 -2.3770
  902MOL0     H24446  11.370   3.625   4.059  2.4827  1.2438  0.2299
  902MOL0     H24447  11.253   3.758   4.058 -2.0678 -2.6793  0.1768
  902MOL0     H24448  11.500   3.761   4.148 -1.2231 -0.8052  1.1124
  902MOL0     H24449  11.557   3.744   3.987 -0.3750 -1.3947  1.0738
  902MOL0     H24450  11.461   3.951   3.906 -0.3525 -0.8248  0.2379
  902MOL0     H24451  11.552   4.000   4.048 -0.3385  0.0957  1.2876
  902MOL0     H24452  11.373   4.020   4.187  0.6906 -1.7228 -0.0327
  902MOL0     H24453  11.252   3.967   4.058 -0.3797  0.4406 -0.2400
  902MOL0     H24454  11.375   4.156   3.912  3.7602  1.8799  0.9021
  902MOL0     H24455  11.420   4.227   4.061 -1.3262  1.1156  2.0531
  902MOL0     H24456  11.032   3.825   3.473  1.7968  1.2962 -1.8349
  902MOL0     H24457  10.923   3.776   3.254  0.6296  1.8232  1.0310
  902MOL0     H24458  10.813   3.221   2.940  1.0175 -0.8509 -2.8487
  902MOL0     H24459  10.630   3.185   2.784  1.0977 -1.5813  1.9090
  902MOL0     H24460   8.998   3.901   2.955  0.0157  0.2150  0.1903
  902MOL0     H24461   8.760   3.874   2.877  0.6261  1.1911  0.7994
  902MOL0     H24462   8.414   3.723   2.827 -0.5163  0.7322 -0.3515
  902MOL0     H24463   8.208   3.779   2.706  1.0185 -0.1707  0.1948
  902MOL0     H24464   8.055   3.867   2.595  0.9738 -0.7641 -0.0979
  902MOL0     H24465   7.964   4.014   2.577  1.1137  0.8642 -2.6237
  902MOL0     H24466   8.277   3.985   2.537  2.5941  1.9953  1.2994
  902MOL0     H24467   8.204   4.142   2.560 -0.0225 -1.4344  4.3135
  902MOL0     H24468   8.161   3.939   2.337  0.4985 -0.4575  1.1008
  902MOL0     H24469   8.032   4.055   2.375 -1.4740 -2.5615  1.9809
  902MOL0     H24470   8.193   4.246   2.346 -0.0394 -1.1518  1.9789
  902MOL0     H24471   8.168   4.158   2.200 -0.7153  0.9336  0.0839
  902MOL0     H24472   8.572   4.069   2.257 -0.4267 -2.4430  1.7724
  902MOL0     H24473   8.148   4.091   2.964  1.5486  0.1682  0.5573
  902MOL0     H24474   8.445   4.088   3.126 -0.9640 -0.1466 -1.0606
  902MOL0     H24475   8.275   4.122   3.167 -0.2636  0.7358  1.3822
  902MOL0     H24476   8.363   3.988   3.248  1.4999  1.0357  0.6339
  903MOL0     O24477   3.671  10.678  10.965 -0.5695 -1.1002 -0.1258
  903MOL0     C24478   3.689  10.775  11.041 -0.5075  0.3177 -0.2307
  903MOL0     O24479   3.611  10.810  11.151  0.7118  1.2116  0.5220
  903MOL0     C24480   3.476  10.770  11.148  0.1163 -0.3044 -0.3505
  903MOL0     C24481   3.401  10.755  11.024 -0.5138 -0.1329 -0.6516
  903MOL0     C24482   3.261  10.753  11.035  0.1323  0.8609 -0.1245
  903MOL0     C24483   3.194  10.742  11.156 -0.1458 -0.1811  0.2249
  903MOL0     O24484   3.058  10.744  11.153  0.3320  0.5485  0.2097
  903MOL0     C24485   2.989  10.797  11.271 -0.8567  0.1120  0.3405
  903MOL0     C24486   2.842  10.795  11.253  0.4291  0.5022  0.3715
  903MOL0     C24487   2.773  10.653  11.245  0.9428 -0.1632 -0.1755
  903MOL0     C24488   2.631  10.633  11.305 -1.1411  1.1068  0.8026
  903MOL0     C24489   2.523  10.709  11.226  0.4607  1.0624 -0.1497
  903MOL0     C24490   2.389  10.630  11.224  0.7306 -0.1901  0.6594
  903MOL0     C24491   2.266  10.713  11.192 -0.2124  0.0112  0.0665
  903MOL0     C24492   2.281  10.812  11.073 -0.4122  0.7212  0.0527
  903MOL0     N24493   2.151  10.865  11.043 -1.1722 -0.2733  0.3354
  903MOL0     C24494   2.117  10.983  11.088  0.3014 -0.5819 -0.2206
  903MOL0     C24495   2.019  11.024  11.006  0.4100 -0.5378  0.1747
  903MOL0     C24496   1.944  11.154  10.991  0.0816 -0.4686 -0.3747
  903MOL0     C24497   1.961  11.230  10.858 -1.0259 -0.6457 -0.5163
  903MOL0     C24498   2.094  11.217  10.776  0.1420  0.4715 -0.4072
  903MOL0     C24499   2.214  11.272  10.843 -0.7951  0.5177  0.0991
  903MOL0     O24500   2.303  11.168  10.827 -0.7443  0.0171  0.2247
  903MOL0     C24501   2.437  11.199  10.866  0.3023  0.6212 -0.5963
  903MOL0     C24502   2.467  11.165  10.995  0.5211  0.7120 -0.2400
  903MOL0     C24503   2.602  11.170  11.040 -0.3924  0.1263 -0.0598
  903MOL0     C24504   2.630  11.110  11.178  0.7759  0.4296 -0.4781
  903MOL0     C24505   2.702  11.235  10.963 -0.1234 -0.5539  0.4451
  903MOL0     C24506   2.843  11.249  10.990  0.8896 -0.2906 -0.4389
  903MOL0     O24507   2.927  11.187  10.904  0.2284 -0.2020  0.4306
  903MOL0     C24508   3.060  11.202  10.925  0.2134 -0.6448  0.6503
  903MOL0     C24509   3.117  11.322  10.902  0.4375  0.1541  0.6532
  903MOL0     C24510   3.245  11.356  10.935  0.1006  0.9258  0.4097
  903MOL0     C24511   3.322  11.260  11.007  1.5693  0.8780 -0.2596
  903MOL0     O24512   3.451  11.283  11.058  0.5470 -0.5630  0.7002
  903MOL0     C24513   3.499  11.417  11.029 -0.7936 -0.2090  0.3085
  903MOL0     C24514   3.643  11.430  11.083  1.2279 -0.4561 -0.6597
  903MOL0     C24515   3.701  11.574  11.056  1.0908  1.3894  0.5456
  903MOL0     C24516   3.721  11.613  10.909  0.2321  0.7298 -0.4412
  903MOL0     C24517   3.816  11.520  10.829  0.2425 -0.3367  0.5416
  903MOL0     C24518   3.948  11.492  10.908 -0.4264 -0.4004  0.9824
  903MOL0     C24519   4.052  11.444  10.815 -0.5816 -0.0939 -0.7399
  903MOL0     C24520   4.128  11.315  10.864 -0.3500  0.3320 -0.1347
  903MOL0    Cl24521   4.250  11.274  10.739 -0.0029 -0.3235  0.0350
  903MOL0     C24522   3.267  11.137  11.023 -0.0779  0.0258 -0.7951
  903MOL0     C24523   3.139  11.102  10.986 -0.0216  0.6597  0.0387
  903MOL0     O24524   2.869  11.294  11.096 -0.4415 -0.7787 -0.2650
  903MOL0     C24525   2.663  11.282  10.837 -0.2802 -0.3080 -0.1523
  903MOL0     C24526   2.530  11.270  10.794 -0.0585 -0.2706  0.4953
  903MOL0     N24527   1.982  10.913  10.920  0.0396 -0.5802 -0.8666
  903MOL0     N24528   2.065  10.817  10.944  0.0047  0.6039 -0.2032
  903MOL0     C24529   3.273  10.739  11.272  0.7921  0.7722 -0.4449
  903MOL0     C24530   3.412  10.757  11.273  0.0920 -0.2593  0.8295
  903MOL0     C24531   3.820  10.854  11.038 -0.8896  0.2949  1.0234
  903MOL0     C24532   3.830  10.978  11.098  0.7648 -1.1337 -0.1688
  903MOL0     C24533   3.953  11.039  11.107 -0.5425 -0.3239 -0.1277
  903MOL0     C24534   4.066  10.994  11.053  0.6342  0.9629 -0.6402
  903MOL0     O24535   4.187  11.065  11.066  0.4264 -0.1005 -0.0505
  903MOL0     C24536   4.288  11.008  11.153  0.2561  0.3037  0.5587
  903MOL0     C24537   4.408  11.109  11.188 -0.3115 -0.0620  0.3695
  903MOL0     C24538   4.500  11.137  11.066  0.7766 -0.4298  0.4862
  903MOL0     C24539   4.613  11.239  11.104 -0.4240  0.0313 -0.5465
  903MOL0     C24540   4.705  11.160  11.197  0.9452 -0.4846  0.5887
  903MOL0     C24541   4.773  11.100  11.271 -0.2029  0.7621  0.3432
  903MOL0     C24542   4.065  10.873  10.993 -0.2293  0.2370 -0.6139
  903MOL0     C24543   3.939  10.803  10.980  0.3843  0.8558  0.1719
  903MOL0     C24544   3.956  10.660  10.921 -0.1295 -0.3220  0.2316
  903MOL0     H24545   3.449  10.771  10.928  2.8728 -2.2016  0.5409
  903MOL0     H24546   3.197  10.725  10.952 -0.8191  0.2203  0.8071
  903MOL0     H24547   3.019  10.901  11.285  0.1521 -0.2229  0.7586
  903MOL0     H24548   3.009  10.743  11.364 -2.4344  1.1716  1.3365
  903MOL0     H24549   2.802  10.858  11.333  0.9570  0.4342  0.6959
  903MOL0     H24550   2.821  10.849  11.160 -2.1968 -0.7387  0.1507
  903MOL0     H24551   2.765  10.627  11.139 -0.7644 -0.1829 -0.0803
  903MOL0     H24552   2.844  10.591  11.299  1.3123  0.6992  0.3477
  903MOL0     H24553   2.606  10.527  11.312 -0.3066  0.8776  0.4575
  903MOL0     H24554   2.648  10.663  11.409 -1.4609  1.1777  0.8362
  903MOL0     H24555   2.554  10.726  11.123  0.7942  2.0478  0.1055
  903MOL0     H24556   2.510  10.809  11.269 -2.4749  1.3598 -1.5118
  903MOL0     H24557   2.391  10.542  11.158 -1.0680  0.7127 -0.6917
  903MOL0     H24558   2.380  10.606  11.331 -2.9974  2.3301  1.1012
  903MOL0     H24559   2.243  10.777  11.278  1.9323  0.9754 -0.0300
  903MOL0     H24560   2.184  10.641  11.176 -0.2325 -0.0830  0.5695
  903MOL0     H24561   2.353  10.890  11.099  0.1859 -1.0000  4.5477
  903MOL0     H24562   2.318  10.758  10.985 -2.0222  1.1825 -0.9496
  903MOL0     H24563   2.163  11.046  11.164 -0.7968 -0.3956  0.3147
  903MOL0     H24564   1.990  11.217  11.068  1.8809 -1.1890 -0.8000
  903MOL0     H24565   1.840  11.145  11.024 -0.5263  0.6065 -1.9115
  903MOL0     H24566   1.880  11.198  10.792 -2.4559  0.7872  0.4797
  903MOL0     H24567   1.954  11.338  10.876  0.6918 -0.8008  1.3557
  903MOL0     H24568   2.110  11.114  10.745 -0.1140  0.2148  0.3038
  903MOL0     H24569   2.071  11.274  10.685 -3.7138 -0.6946 -0.3424
  903MOL0     H24570   2.259  11.364  10.806  1.2445 -0.3131  0.3686
  903MOL0     H24571   2.199  11.283  10.951 -1.6505  0.5607 -0.0196
  903MOL0     H24572   2.391  11.130  11.063  0.0105 -0.8659 -1.5566
  903MOL0     H24573   2.677  11.013  11.157  0.3300  0.5792 -2.3117
  903MOL0     H24574   2.535  11.091  11.229 -0.1841  0.5739 -2.1514
  903MOL0     H24575   2.690  11.172  11.246 -0.6026 -1.9137  3.1370
  903MOL0     H24576   3.052  11.398  10.858 -0.1464 -1.4179 -1.3653
  903MOL0     H24577   3.280  11.456  10.911 -0.9747  1.2222  0.0343
  903MOL0     H24578   3.496  11.442  10.922  1.0654  0.4386  0.3625
  903MOL0     H24579   3.436  11.487  11.084 -0.7792  1.2257 -1.3966
  903MOL0     H24580   3.642  11.406  11.189 -3.1807  2.0877  0.1128
  903MOL0     H24581   3.700  11.359  11.021 -1.1824 -2.8076 -0.3496
  903MOL0     H24582   3.787  11.577  11.123 -1.0273 -0.9346  3.6665
  903MOL0     H24583   3.623  11.644  11.089 -0.4983  0.4049 -0.8953
  903MOL0     H24584   3.769  11.711  10.917  1.1128  0.3918 -1.4201
  903MOL0     H24585   3.624  11.632  10.862 -0.5376 -2.1451 -0.2446
  903MOL0     H24586   3.761  11.431  10.797 -1.3669  0.2326  1.5990
  903MOL0     H24587   3.841  11.573  10.736  0.9325  1.4647  1.6913
  903MOL0     H24588   3.918  11.416  10.981 -2.3027 -0.9639 -0.2986
  903MOL0     H24589   3.982  11.582  10.959 -0.5574  1.2358 -1.6727
  903MOL0     H24590   4.127  11.521  10.797 -3.1620  3.4457  2.0717
  903MOL0     H24591   4.003  11.415  10.721  0.9536  1.0885 -1.9489
  903MOL0     H24592   4.069  11.225  10.884  0.9318 -0.4619  0.2457
  903MOL0     H24593   4.172  11.329  10.963 -2.0463 -1.5507  0.9675
  903MOL0     H24594   3.330  11.066  11.076 -0.8043  0.5080  0.7731
  903MOL0     H24595   3.097  11.004  11.010  2.2153 -0.4390 -0.2700
  903MOL0     H24596   2.735  11.323  10.767 -0.3305 -0.5288 -0.3346
  903MOL0     H24597   2.506  11.305  10.694 -1.4716 -1.4109  0.4030
  903MOL0     H24598   3.222  10.720  11.366  0.9204  0.9174 -0.3466
  903MOL0     H24599   3.472  10.773  11.362 -2.7739  1.1964  2.6431
  903MOL0     H24600   3.744  11.025  11.144  1.6221 -1.9407  2.4384
  903MOL0     H24601   3.955  11.133  11.163 -0.0257  1.0237 -2.2955
  903MOL0     H24602   4.241  10.966  11.243 -1.3614  0.7507 -0.0437
  903MOL0     H24603   4.329  10.922  11.099  1.9718  0.8216  0.9546
  903MOL0     H24604   4.456  11.073  11.279 -1.2817  1.1580  1.4087
  903MOL0     H24605   4.380  11.211  11.216 -1.7187 -1.2883  3.9413
  903MOL0     H24606   4.538  11.055  11.005  0.9457  1.6909 -2.4896
  903MOL0     H24607   4.439  11.183  10.987  0.7089 -0.4400  0.5317
  903MOL0     H24608   4.574  11.324  11.160 -0.5231  0.0355 -0.6228
  903MOL0     H24609   4.671  11.273  11.017  0.6986 -0.5110 -0.0309
  903MOL0     H24610   4.846  11.061  11.339  1.4352 -0.7374 -2.0673
  903MOL0     H24611   4.161  10.833  10.962  0.4173 -0.4969  2.0457
  903MOL0     H24612   3.911  10.662  10.822  2.2016  1.9501 -0.9126
  903MOL0     H24613   4.062  10.637  10.904  0.3716  1.0572  1.2482
  903MOL0     H24614   3.914  10.590  10.994  0.6301  2.5890  3.7823
  904MOL0     O24615   0.777   4.781   2.278  0.5787 -0.3666  1.1676
  904MOL0     C24616   0.684   4.818   2.202 -0.8040 -0.0945 -0.5487
  904MOL0     O24617   0.638   4.944   2.188  0.1773  0.7113  0.2835
  904MOL0     C24618   0.703   5.053   2.238 -0.4327 -0.0785 -0.1214
  904MOL0     C24619   0.628   5.153   2.300 -0.0646 -0.4166  0.6397
  904MOL0     C24620   0.690   5.267   2.353  0.6105  0.3231  0.9136
  904MOL0     C24621   0.828   5.282   2.360  0.0609 -0.2839 -0.2641
  904MOL0     O24622   0.879   5.391   2.424 -0.0759  0.4392  0.2049
  904MOL0     C24623   1.006   5.379   2.479  0.0795  0.0325 -0.4886
  904MOL0     C24624   1.025   5.514   2.562 -0.1626 -0.3819  0.0115
  904MOL0     C24625   1.169   5.516   2.611 -0.1592 -0.5335 -0.0283
  904MOL0     C24626   1.184   5.642   2.702 -0.2357  0.2776  0.4407
  904MOL0     C24627   1.334   5.685   2.712  0.5459 -0.0255  0.8396
  904MOL0     C24628   1.336   5.836   2.730  0.2991 -0.7651  0.5826
  904MOL0     C24629   1.485   5.885   2.729  1.3560  0.4438  0.6569
  904MOL0     C24630   1.507   6.021   2.780 -0.2022  1.3746  0.4609
  904MOL0     N24631   1.534   6.009   2.925  0.6019 -0.3306 -0.2384
  904MOL0     C24632   1.444   6.017   3.025  0.6691 -0.2390 -0.4413
  904MOL0     C24633   1.512   6.028   3.136  0.5309 -0.8969 -1.7164
  904MOL0     C24634   1.452   6.034   3.267  0.0664  0.3882  0.0723
  904MOL0     C24635   1.437   6.174   3.329  0.2628 -0.1553 -0.4007
  904MOL0     C24636   1.340   6.270   3.253  0.1381  0.3272 -1.4213
  904MOL0     C24637   1.203   6.204   3.265  0.3759 -0.0607  0.1791
  904MOL0     O24638   1.139   6.260   3.384  0.1613  0.2161  0.0401
  904MOL0     C24639   1.006   6.227   3.394  0.2072 -0.0162 -0.2856
  904MOL0     C24640   0.927   6.151   3.316  0.9695  0.0116 -0.1754
  904MOL0     C24641   0.789   6.133   3.330  0.3851  0.5150  0.5812
  904MOL0     C24642   0.708   6.070   3.220 -0.4460  0.3221 -0.7004
  904MOL0     C24643   0.737   6.181   3.456 -0.1709  0.7908 -0.0384
  904MOL0     C24644   0.598   6.155   3.491  0.2852  0.5086 -0.5477
  904MOL0     O24645   0.509   6.214   3.410  0.3872 -0.6880 -0.0242
  904MOL0     C24646   0.384   6.176   3.420 -0.4799 -0.8171 -0.2754
  904MOL0     C24647   0.296   6.262   3.491 -0.6676 -0.3354  0.5595
  904MOL0     C24648   0.164   6.236   3.490 -0.1051  0.4589 -0.2864
  904MOL0     C24649   0.116   6.118   3.441 -0.1898  0.0645 -0.1387
  904MOL0     O24650  -0.015   6.079   3.457  0.5568 -0.7550 -0.2663
  904MOL0     C24651  -0.103   6.152   3.548  0.5277  0.5186 -0.7222
  904MOL0     C24652  -0.248   6.093   3.552  0.0306  0.3634  0.4626
  904MOL0     C24653  -0.324   6.089   3.418  0.1489  0.3592 -0.1234
  904MOL0     C24654  -0.289   5.964   3.338  0.1007 -0.0174 -0.0284
  904MOL0     C24655  -0.349   5.971   3.204 -0.2806 -0.2282 -0.4821
  904MOL0     C24656  -0.497   5.945   3.180  0.7547 -0.2295 -0.0319
  904MOL0     C24657  -0.551   5.813   3.240 -0.3130 -0.0897 -0.2467
  904MOL0     C24658  -0.480   5.692   3.171 -0.5762 -1.3479  0.0594
  904MOL0    Cl24659  -0.564   5.532   3.205  0.4815  0.2409  0.2145
  904MOL0     C24660   0.210   6.025   3.389  0.3074  1.5114 -0.2815
  904MOL0     C24661   0.344   6.055   3.364  0.5048  0.1432  0.7043
  904MOL0     O24662   0.568   6.072   3.578  0.3435  0.2312 -0.6458
  904MOL0     C24663   0.814   6.264   3.535 -0.4601 -0.2786  0.5911
  904MOL0     C24664   0.949   6.283   3.507  0.4906 -0.6793 -0.0428
  904MOL0     N24665   1.642   6.039   3.111  0.6078  0.9512 -0.3469
  904MOL0     N24666   1.652   6.029   2.984 -0.5302 -0.9964  0.1051
  904MOL0     C24667   0.899   5.179   2.299 -0.3858  0.6203  0.5651
  904MOL0     C24668   0.845   5.062   2.236 -0.0829 -0.6398  0.0304
  904MOL0     C24669   0.602   4.709   2.146 -0.1411  0.7667  0.3428
  904MOL0     C24670   0.673   4.633   2.044  0.9291  0.0614  0.4733
  904MOL0     C24671   0.594   4.532   1.972  0.3932  0.9891  0.4998
  904MOL0     C24672   0.459   4.514   2.002 -0.2243 -0.3118  0.0203
  904MOL0     O24673   0.376   4.432   1.927 -0.0861  0.2085  0.2576
  904MOL0     C24674   0.360   4.483   1.796  0.3385  0.2137 -0.1417
  904MOL0     C24675   0.296   4.616   1.787  0.0603  0.4774 -0.4610
  904MOL0     C24676   0.155   4.603   1.853 -0.8153  0.3883  0.1452
  904MOL0     C24677   0.092   4.747   1.874 -0.4637  0.5300  0.7242
  904MOL0     C24678   0.067   4.826   1.756  0.8154 -0.3129  0.8873
  904MOL0     C24679   0.029   4.894   1.659 -0.0369  0.0485  0.0263
  904MOL0     C24680   0.396   4.583   2.107  0.3132 -0.1873 -0.0773
  904MOL0     C24681   0.465   4.695   2.170 -0.0078  0.6127  0.4004
  904MOL0     C24682   0.410   4.765   2.293  0.0071 -0.4266  0.4105
  904MOL0     H24683   0.520   5.146   2.309 -0.3622  1.4362 -0.8451
  904MOL0     H24684   0.612   5.333   2.391 -0.9113 -2.8041  3.6763
  904MOL0     H24685   1.080   5.375   2.398  0.4415 -2.4787 -0.1367
  904MOL0     H24686   1.011   5.283   2.531 -4.3895  0.4460  1.0846
  904MOL0     H24687   1.014   5.611   2.512  2.6902 -0.6441 -1.2933
  904MOL0     H24688   0.954   5.515   2.645 -1.0234 -4.1177 -0.4860
  904MOL0     H24689   1.191   5.433   2.679 -1.3683  0.1737  1.2853
  904MOL0     H24690   1.233   5.525   2.522  0.1493  2.1152  0.4004
  904MOL0     H24691   1.126   5.723   2.658  0.2325 -0.3674 -1.4653
  904MOL0     H24692   1.150   5.611   2.802 -3.0500 -3.9439 -1.5023
  904MOL0     H24693   1.375   5.668   2.612 -0.6953 -3.7145  0.7906
  904MOL0     H24694   1.388   5.639   2.794  2.8366  1.6707  0.3698
  904MOL0     H24695   1.275   5.889   2.656  0.5417  0.3360  1.1406
  904MOL0     H24696   1.301   5.859   2.832 -0.5989 -2.8340  0.7914
  904MOL0     H24697   1.534   5.871   2.632  2.4237  1.2846  1.0541
  904MOL0     H24698   1.538   5.821   2.801 -1.4722 -1.2185  1.4481
  904MOL0     H24699   1.592   6.065   2.727 -0.4806 -2.2093 -3.4763
  904MOL0     H24700   1.413   6.074   2.761 -0.6542  1.0162  1.5962
  904MOL0     H24701   1.337   6.004   3.019  0.8085 -1.0084 -1.4728
  904MOL0     H24702   1.512   5.965   3.327 -0.9624 -2.0291 -1.4908
  904MOL0     H24703   1.359   5.977   3.256  0.9977 -1.0766 -0.6146
  904MOL0     H24704   1.396   6.157   3.429  2.4579 -1.3050  0.3468
  904MOL0     H24705   1.537   6.217   3.327  0.1755  0.1263 -3.3911
  904MOL0     H24706   1.345   6.377   3.274 -1.0868  0.4669 -1.7596
  904MOL0     H24707   1.371   6.265   3.148  0.9903  2.7259 -1.3419
  904MOL0     H24708   1.149   6.235   3.175 -3.9169  0.7107  2.7616
  904MOL0     H24709   1.197   6.095   3.267  1.0094 -0.1905 -2.1378
  904MOL0     H24710   0.973   6.085   3.244  1.4515 -0.5430  0.6236
  904MOL0     H24711   0.603   6.101   3.221 -1.6603 -3.2454 -0.8799
  904MOL0     H24712   0.704   5.962   3.238 -3.9669  0.0470 -2.2735
  904MOL0     H24713   0.751   6.084   3.121 -0.1663 -1.0699 -0.7960
  904MOL0     H24714   0.336   6.355   3.532 -0.4657  0.1782 -0.7676
  904MOL0     H24715   0.099   6.312   3.532  0.0365 -1.2352  3.3954
  904MOL0     H24716  -0.059   6.133   3.646  0.4328  0.2598 -0.7284
  904MOL0     H24717  -0.114   6.259   3.527 -1.4208  0.6811  0.8096
  904MOL0     H24718  -0.258   5.991   3.590 -1.8985  0.7573  1.1536
  904MOL0     H24719  -0.306   6.150   3.625 -0.6991 -1.8727  1.7315
  904MOL0     H24720  -0.295   6.187   3.378 -1.6780  1.9157  2.0967
  904MOL0     H24721  -0.431   6.091   3.441 -0.6386 -1.1904 -3.1652
  904MOL0     H24722  -0.315   5.868   3.385  0.5012  0.0338  0.3028
  904MOL0     H24723  -0.181   5.962   3.326 -0.1888 -1.0433 -3.3964
  904MOL0     H24724  -0.327   6.073   3.173  0.8911  0.1599  1.4349
  904MOL0     H24725  -0.287   5.907   3.141  0.2510  0.7768 -0.9938
  904MOL0     H24726  -0.518   5.940   3.073  1.4994 -1.2719 -0.1488
  904MOL0     H24727  -0.550   6.031   3.222  0.4714 -0.6258  0.4437
  904MOL0     H24728  -0.658   5.799   3.220  0.4941 -3.1907 -3.5190
  904MOL0     H24729  -0.533   5.810   3.348 -0.1695  1.8025 -0.1793
  904MOL0     H24730  -0.371   5.693   3.185 -0.7869  2.0943  2.7414
  904MOL0     H24731  -0.486   5.711   3.063 -0.3883  2.4927  0.6122
  904MOL0     H24732   0.169   5.928   3.364 -0.2773  0.3922  4.0875
  904MOL0     H24733   0.421   5.990   3.323  0.6787  1.4848 -1.2514
  904MOL0     H24734   0.764   6.316   3.617 -0.6554  2.8910 -1.3529
  904MOL0     H24735   1.020   6.345   3.561  1.8259  0.1928 -2.6488
  904MOL0     H24736   1.007   5.183   2.301 -0.4251  2.6877  1.4280
  904MOL0     H24737   0.903   4.987   2.184  0.8117  1.3911 -2.0585
  904MOL0     H24738   0.775   4.665   2.025 -0.0085  2.5980 -0.7329
  904MOL0     H24739   0.632   4.489   1.880 -1.3177 -0.8822  0.6164
  904MOL0     H24740   0.458   4.485   1.747  0.4122 -0.9893 -0.0746
  904MOL0     H24741   0.315   4.402   1.737  1.5038  1.0026 -2.2464
  904MOL0     H24742   0.288   4.642   1.681 -2.1066  1.4402 -0.1301
  904MOL0     H24743   0.359   4.688   1.840 -2.9722  2.2397  1.0395
  904MOL0     H24744   0.089   4.545   1.789  1.7401 -0.5778 -1.7570
  904MOL0     H24745   0.160   4.547   1.947  0.7268 -3.3661 -1.9725
  904MOL0     H24746   0.163   4.804   1.936 -1.4468  0.9018  1.5418
  904MOL0     H24747   0.005   4.736   1.939 -0.5642 -2.9721  0.1780
  904MOL0     H24748   0.005   4.969   1.587 -0.2867  0.3204  0.3851
  904MOL0     H24749   0.288   4.575   2.121 -0.1455  2.3721 -1.4533
  904MOL0     H24750   0.468   4.737   2.382 -2.8942 -0.7724  2.3427
  904MOL0     H24751   0.397   4.873   2.278  0.0678 -0.4042  0.5196
  904MOL0     H24752   0.315   4.719   2.321 -0.6001  0.5941  0.0817
  905MOL0     O24753   7.517   6.002   1.594 -0.2243  0.2020 -0.2312
  905MOL0     C24754   7.520   5.973   1.476 -0.4001  0.2658  0.0619
  905MOL0     O24755   7.629   5.960   1.400 -0.0854 -0.3598  0.1068
  905MOL0     C24756   7.757   5.968   1.456  0.6764 -0.4925 -0.1647
  905MOL0     C24757   7.791   6.084   1.529 -0.2402  0.5990 -0.3368
  905MOL0     C24758   7.905   6.090   1.589 -1.7936 -0.0300 -0.3711
  905MOL0     C24759   8.003   5.998   1.570 -0.3355 -0.0941 -0.4856
  905MOL0     O24760   8.130   5.992   1.622 -0.5940 -0.7790 -0.0573
  905MOL0     C24761   8.183   6.100   1.706 -0.8884  0.5725  0.0403
  905MOL0     C24762   8.325   6.073   1.760 -0.2425 -0.5000  0.0409
  905MOL0     C24763   8.420   6.014   1.652  1.0507  0.4710 -0.6922
  905MOL0     C24764   8.552   5.986   1.715 -0.7010 -0.8343 -0.0200
  905MOL0     C24765   8.571   5.862   1.799  0.2834 -1.3067 -0.2281
  905MOL0     C24766   8.474   5.747   1.782  0.4820 -0.5149 -0.4795
  905MOL0     C24767   8.473   5.626   1.876  0.1549 -0.1572 -0.8283
  905MOL0     C24768   8.581   5.519   1.860 -0.0589 -0.5851  0.4352
  905MOL0     N24769   8.704   5.564   1.907  0.2927  0.0476 -0.9597
  905MOL0     C24770   8.743   5.625   2.027 -0.6378  0.2730 -0.4800
  905MOL0     C24771   8.872   5.652   2.009  0.8969  0.2907 -0.6319
  905MOL0     C24772   8.967   5.719   2.097  0.3478  0.2856 -0.2357
  905MOL0     C24773   9.024   5.839   2.023  0.6092  0.2288 -0.7209
  905MOL0     C24774   9.032   5.961   2.115  0.3398 -0.0645  0.0424
  905MOL0     C24775   9.154   5.940   2.217 -0.3268 -0.2703  0.1158
  905MOL0     O24776   9.282   5.929   2.146 -0.0561  0.7194  0.9507
  905MOL0     C24777   9.396   5.918   2.220 -0.9010  0.1729 -1.4978
  905MOL0     C24778   9.406   5.931   2.361  0.2742 -0.2042  0.9881
  905MOL0     C24779   9.516   5.901   2.441  0.1431  0.2172  0.2858
  905MOL0     C24780   9.518   5.952   2.585  0.3396  0.7071  0.7598
  905MOL0     C24781   9.628   5.850   2.377  0.2498 -0.0196  0.2488
  905MOL0     C24782   9.767   5.829   2.438 -1.5391 -0.5175  0.0110
  905MOL0     O24783   9.818   5.908   2.545  0.1714 -0.3168  0.5816
  905MOL0     C24784   9.948   5.899   2.585  0.1462  0.2987  0.7066
  905MOL0     C24785  10.056   5.869   2.501 -0.1835 -0.0157 -1.4389
  905MOL0     C24786  10.182   5.866   2.564  0.7634  0.7398 -0.4982
  905MOL0     C24787  10.199   5.901   2.693  0.3320 -0.4517  0.0189
  905MOL0     O24788  10.329   5.918   2.740  0.7531 -0.6108 -0.5014
  905MOL0     C24789  10.357   5.883   2.880 -0.0932 -0.2879 -0.7254
  905MOL0     C24790  10.505   5.887   2.896  0.2222 -0.0157 -0.1726
  905MOL0     C24791  10.577   5.784   2.811  0.7251 -0.1079 -0.5157
  905MOL0     C24792  10.700   5.722   2.885  0.6671  0.0085  0.6301
  905MOL0     C24793  10.757   5.619   2.787 -0.3739 -0.4153  0.4514
  905MOL0     C24794  10.897   5.560   2.825  0.1096 -0.5809 -0.1687
  905MOL0     C24795  10.949   5.465   2.711 -0.0047 -0.1640  0.6510
  905MOL0     C24796  11.073   5.388   2.746  0.4776 -0.0053 -0.4511
  905MOL0    Cl24797  11.208   5.498   2.798 -0.1017 -0.0050  0.0054
  905MOL0     C24798  10.095   5.924   2.777  1.1405 -0.1021 -0.6891
  905MOL0     C24799   9.968   5.919   2.719 -0.9368 -0.0382 -0.5493
  905MOL0     O24800   9.831   5.732   2.393 -0.7366  0.4095 -0.5345
  905MOL0     C24801   9.620   5.829   2.234 -0.3788  0.0568 -0.2025
  905MOL0     C24802   9.509   5.864   2.153 -0.7197  0.7223  0.5488
  905MOL0     N24803   8.919   5.589   1.902  0.2887 -0.6367 -0.3674
  905MOL0     N24804   8.816   5.548   1.837 -0.4617 -0.3300 -0.2012
  905MOL0     C24805   7.978   5.882   1.494 -0.3836 -0.8487  0.0261
  905MOL0     C24806   7.857   5.872   1.434  0.8228 -0.1667  0.6028
  905MOL0     C24807   7.391   5.930   1.409 -0.3661  0.0171  0.3603
  905MOL0     C24808   7.398   5.866   1.275 -0.7161  0.6097  0.3230
  905MOL0     C24809   7.290   5.840   1.194 -0.4903  0.6058 -0.3083
  905MOL0     C24810   7.164   5.869   1.233 -0.5136 -0.1903 -0.8066
  905MOL0     O24811   7.043   5.850   1.176  0.3139  0.5571  0.5195
  905MOL0     C24812   7.048   5.802   1.038  0.0621 -0.4189  0.0461
  905MOL0     C24813   6.909   5.749   1.008 -0.1030  0.8477 -0.5754
  905MOL0     C24814   6.786   5.831   1.060  0.2319  0.2808 -0.7266
  905MOL0     C24815   6.656   5.753   1.044 -0.3743  0.5116  0.6514
  905MOL0     C24816   6.612   5.750   0.901 -0.1179  0.0238  0.1261
  905MOL0     C24817   6.561   5.762   0.786 -0.3217 -0.2963  0.0730
  905MOL0     C24818   7.154   5.942   1.360 -0.2121 -0.0439 -0.4715
  905MOL0     C24819   7.258   5.967   1.452  0.0074 -0.1078  0.2540
  905MOL0     C24820   7.228   6.038   1.580  0.0466 -1.1212 -1.1683
  905MOL0     H24821   7.721   6.152   1.577  0.8753  0.5911  1.4081
  905MOL0     H24822   7.930   6.173   1.653 -0.0231  0.4307 -1.5796
  905MOL0     H24823   8.114   6.111   1.789  0.0533 -0.5427  1.0094
  905MOL0     H24824   8.185   6.197   1.655 -0.6589  0.6646  0.2241
  905MOL0     H24825   8.367   6.166   1.799  1.2640 -1.6768  1.3215
  905MOL0     H24826   8.300   6.007   1.843 -1.9134  0.1241  0.0731
  905MOL0     H24827   8.360   5.932   1.612 -1.4100  1.3565  0.9481
  905MOL0     H24828   8.410   6.091   1.575 -3.0628  3.0639  2.0981
  905MOL0     H24829   8.610   5.970   1.624 -1.2456 -0.1459 -0.4961
  905MOL0     H24830   8.594   6.077   1.758 -0.1215 -0.6847 -0.8869
  905MOL0     H24831   8.551   5.897   1.901  1.5603  1.3931 -0.8022
  905MOL0     H24832   8.678   5.838   1.804  0.5999 -0.3024 -1.5696
  905MOL0     H24833   8.373   5.788   1.785  0.1398 -1.2322  3.9526
  905MOL0     H24834   8.494   5.715   1.679  1.9853  1.2976 -0.7986
  905MOL0     H24835   8.374   5.579   1.878  0.4334 -0.7354 -0.1622
  905MOL0     H24836   8.491   5.665   1.977 -1.3804 -0.7803 -0.2817
  905MOL0     H24837   8.545   5.441   1.927  0.2679 -1.6313 -0.5914
  905MOL0     H24838   8.575   5.481   1.758 -0.8734 -0.6693  0.5082
  905MOL0     H24839   8.690   5.648   2.119 -0.2367  0.4671 -0.2956
  905MOL0     H24840   9.043   5.646   2.125  0.2208 -0.8487 -2.6776
  905MOL0     H24841   8.915   5.752   2.188 -0.3810 -1.5779  0.0552
  905MOL0     H24842   9.125   5.815   1.988  0.2203 -0.7656 -1.2345
  905MOL0     H24843   8.953   5.862   1.942 -0.7748 -2.5464 -0.4298
  905MOL0     H24844   9.061   6.038   2.043 -3.5174  0.1704 -1.4581
  905MOL0     H24845   8.936   5.989   2.159  1.1678  1.8708  0.7489
  905MOL0     H24846   9.158   6.018   2.294  1.3883  0.9150 -1.1023
  905MOL0     H24847   9.132   5.849   2.274 -1.8848  1.0893  1.7949
  905MOL0     H24848   9.326   5.941   2.433  0.4528 -0.2033  1.1882
  905MOL0     H24849   9.590   6.034   2.592  2.5333 -0.9485 -0.9010
  905MOL0     H24850   9.550   5.875   2.655 -2.1212  0.5757  1.8555
  905MOL0     H24851   9.419   5.984   2.619  0.4612  0.3800  1.4344
  905MOL0     H24852  10.052   5.852   2.394 -1.3726 -0.4621 -1.3362
  905MOL0     H24853  10.276   5.849   2.513  1.0435  0.1210  0.2088
  905MOL0     H24854  10.312   5.956   2.946 -0.7856 -0.8335 -0.5869
  905MOL0     H24855  10.316   5.784   2.904  0.3434 -0.7405 -1.7429
  905MOL0     H24856  10.529   5.987   2.858 -0.1326 -0.5659 -1.9360
  905MOL0     H24857  10.538   5.888   3.001 -0.3737 -0.5208  0.0224
  905MOL0     H24858  10.615   5.843   2.726  1.6739  1.2292  0.7826
  905MOL0     H24859  10.512   5.707   2.768 -1.2256  1.2878 -0.1909
  905MOL0     H24860  10.670   5.675   2.980  1.5734 -1.1903  0.3465
  905MOL0     H24861  10.775   5.793   2.921  0.5336 -0.0283  0.9851
  905MOL0     H24862  10.678   5.544   2.789  1.3117 -2.2688  0.4395
  905MOL0     H24863  10.768   5.654   2.684  0.4299 -1.5409  0.1405
  905MOL0     H24864  10.890   5.505   2.919 -0.6857  1.1372  0.8386
  905MOL0     H24865  10.960   5.645   2.851 -2.7567  2.5007 -2.3486
  905MOL0     H24866  10.971   5.529   2.625 -1.1698  1.6951  1.6395
  905MOL0     H24867  10.868   5.399   2.680 -1.6357  2.8365 -2.0186
  905MOL0     H24868  11.105   5.339   2.654  2.4403 -0.0386  0.1815
  905MOL0     H24869  11.060   5.316   2.828  0.7293  0.1072 -0.3103
  905MOL0     H24870  10.099   5.968   2.876 -0.2462  0.6828 -0.9516
  905MOL0     H24871   9.878   5.930   2.778 -1.3408  0.4544 -1.2468
  905MOL0     H24872   9.707   5.802   2.176 -1.1378 -1.4157 -0.7245
  905MOL0     H24873   9.521   5.852   2.046 -1.7615 -0.2721  0.5253
  905MOL0     H24874   8.053   5.804   1.494 -0.3709 -0.8734  1.7181
  905MOL0     H24875   7.815   5.795   1.371  2.2745 -0.0805 -0.5349
  905MOL0     H24876   7.494   5.845   1.229 -1.6151 -1.4461 -0.7690
  905MOL0     H24877   7.300   5.816   1.089  0.5650  1.8852 -0.5278
  905MOL0     H24878   7.071   5.885   0.971 -1.9529  1.4704  1.5313
  905MOL0     H24879   7.118   5.717   1.031  0.9254  0.2056  0.7931
  905MOL0     H24880   6.913   5.644   1.039 -0.2660  0.7274 -0.9609
  905MOL0     H24881   6.891   5.759   0.901 -1.6534 -1.8463 -0.6565
  905MOL0     H24882   6.807   5.852   1.166  1.0242  1.0555 -1.0287
  905MOL0     H24883   6.759   5.931   1.025  0.2526  0.2080 -0.9527
  905MOL0     H24884   6.572   5.796   1.098 -1.7822 -0.0917 -0.9588
  905MOL0     H24885   6.670   5.652   1.083 -1.4290  0.0053 -0.2053
  905MOL0     H24886   6.500   5.762   0.698  1.0546  0.9290 -0.9273
  905MOL0     H24887   7.058   5.981   1.393  0.1585  1.0192 -0.6097
  905MOL0     H24888   7.128   6.081   1.594 -0.1665 -2.2516  1.5087
  905MOL0     H24889   7.234   5.976   1.671 -2.1524 -1.6197 -1.3018
  905MOL0     H24890   7.283   6.132   1.587  0.1065 -1.2635  3.0852
  906MOL0     O24891   5.760   7.939   8.342  0.2311 -0.1372 -0.2551
  906MOL0     C24892   5.661   7.906   8.401  0.4285  0.8772 -0.7422
  906MOL0     O24893   5.663   7.859   8.536  0.3334 -0.0204  0.5941
  906MOL0     C24894   5.784   7.873   8.605  0.6206 -0.4973 -0.7917
  906MOL0     C24895   5.897   7.788   8.579 -0.0634 -0.1748 -0.0840
  906MOL0     C24896   6.015   7.807   8.648  0.5100  0.1245 -0.9305
  906MOL0     C24897   6.025   7.903   8.748  0.0344  0.4316  0.0053
  906MOL0     O24898   6.145   7.911   8.814  0.0949 -0.3934  0.6735
  906MOL0     C24899   6.165   7.796   8.888  1.3769  0.8807  0.0143
  906MOL0     C24900   6.223   7.817   9.038  0.4564  0.5854 -0.4753
  906MOL0     C24901   6.370   7.862   9.020  0.0651 -0.1185 -0.5120
  906MOL0     C24902   6.449   7.854   9.147  0.2727  0.1007  0.1637
  906MOL0     C24903   6.525   7.714   9.163  0.6835  0.0073  0.4341
  906MOL0     C24904   6.580   7.717   9.297 -0.1929 -0.0862  0.6326
  906MOL0     C24905   6.669   7.600   9.343  0.3275 -0.0919  0.8028
  906MOL0     C24906   6.613   7.467   9.310  0.2458  0.4600 -0.0791
  906MOL0     N24907   6.715   7.372   9.341 -0.7680 -0.7971 -0.2211
  906MOL0     C24908   6.742   7.338   9.467 -0.1776 -0.2692  0.0043
  906MOL0     C24909   6.870   7.288   9.447  1.0562 -0.4615  0.1115
  906MOL0     C24910   6.938   7.226   9.570 -0.3232 -0.2003  0.3828
  906MOL0     C24911   7.077   7.150   9.531 -0.5614 -0.1367  0.7105
  906MOL0     C24912   7.200   7.234   9.491 -1.1946  0.1599 -0.3207
  906MOL0     C24913   7.326   7.137   9.490  0.6194 -0.1301  0.1924
  906MOL0     O24914   7.294   7.023   9.414 -0.3520  0.3629 -0.3961
  906MOL0     C24915   7.398   6.969   9.342 -0.0919 -0.6860  0.4585
  906MOL0     C24916   7.492   6.897   9.415  0.3856  1.1116  0.7448
  906MOL0     C24917   7.611   6.842   9.350 -0.4078 -0.0124 -0.1514
  906MOL0     C24918   7.703   6.754   9.430 -1.0464  0.4396 -0.3584
  906MOL0     C24919   7.636   6.878   9.217 -0.6145  0.1270  1.2682
  906MOL0     C24920   7.760   6.850   9.131 -0.1060 -0.1467 -0.8170
  906MOL0     O24921   7.754   6.868   8.991  0.4124 -0.0929  0.2756
  906MOL0     C24922   7.851   6.849   8.900 -0.3769  0.8612  0.0884
  906MOL0     C24923   7.961   6.756   8.913  0.5645 -0.5145  0.3606
  906MOL0     C24924   8.056   6.745   8.809 -0.4321  1.0385 -0.8949
  906MOL0     C24925   8.051   6.830   8.702  0.6615  0.8588 -0.5545
  906MOL0     O24926   8.158   6.819   8.610 -0.1240 -0.5253 -0.7916
  906MOL0     C24927   8.120   6.849   8.476 -0.6501  0.5998  0.5232
  906MOL0     C24928   8.237   6.808   8.386 -0.0515  0.0588  0.1647
  906MOL0     C24929   8.369   6.868   8.421  0.1791  0.7745 -0.7604
  906MOL0     C24930   8.470   6.862   8.302  0.1078  0.0364  0.1970
  906MOL0     C24931   8.594   6.944   8.324 -0.4867  0.5343 -0.9730
  906MOL0     C24932   8.680   6.969   8.207 -0.8997  0.0305 -0.0389
  906MOL0     C24933   8.781   7.083   8.250 -0.2123 -0.1378 -0.1980
  906MOL0     C24934   8.885   7.107   8.152 -0.0824  0.1856  0.0951
  906MOL0    Cl24935   8.979   6.953   8.122 -0.0546  0.3904 -0.3367
  906MOL0     C24936   7.937   6.912   8.682  0.4101 -0.3956 -0.7038
  906MOL0     C24937   7.836   6.921   8.781 -0.6461  0.2077 -0.3473
  906MOL0     O24938   7.867   6.811   9.194  1.1109 -0.7606  0.9237
  906MOL0     C24939   7.535   6.946   9.145 -0.5925  0.3722  0.4679
  906MOL0     C24940   7.418   6.985   9.209 -0.1933 -0.5936  0.5391
  906MOL0     N24941   6.908   7.305   9.313  0.5682  0.0510 -0.8568
  906MOL0     N24942   6.811   7.344   9.248  0.6827 -0.1112 -0.9427
  906MOL0     C24943   5.913   7.978   8.781 -0.1117 -0.0142  0.4825
  906MOL0     C24944   5.795   7.968   8.710  0.5268 -0.1314  0.1565
  906MOL0     C24945   5.525   7.882   8.324 -0.0597 -0.4574 -0.0034
  906MOL0     C24946   5.418   7.834   8.391 -0.5388 -0.3108 -0.0828
  906MOL0     C24947   5.304   7.797   8.324  0.3434 -0.9816  0.4581
  906MOL0     C24948   5.297   7.794   8.188  0.9671 -0.0045  0.5411
  906MOL0     O24949   5.180   7.743   8.136  0.0192  0.1147  0.5326
  906MOL0     C24950   5.173   7.695   8.001 -0.1669  0.5532 -0.4771
  906MOL0     C24951   5.076   7.573   7.993 -0.2701  0.0061  0.3560
  906MOL0     C24952   5.075   7.504   7.851  0.7946  0.4889  0.3407
  906MOL0     C24953   5.031   7.360   7.864  0.6789 -0.6713  0.9952
  906MOL0     C24954   4.887   7.355   7.902  0.4121  0.0485 -0.3946
  906MOL0     C24955   4.766   7.364   7.937 -1.3101 -0.4260  0.0279
  906MOL0     C24956   5.410   7.839   8.112 -0.3069 -0.1560 -0.5338
  906MOL0     C24957   5.533   7.873   8.179 -0.1222 -0.0148  0.1257
  906MOL0     C24958   5.646   7.891   8.088  0.3675  0.0668 -0.2227
  906MOL0     H24959   5.887   7.715   8.499  0.0473  2.2804 -2.4965
  906MOL0     H24960   6.102   7.748   8.621  0.4961 -0.8716  0.9939
  906MOL0     H24961   6.237   7.725   8.845  0.3207 -0.0844 -0.2266
  906MOL0     H24962   6.072   7.740   8.905  1.7479 -0.4262 -1.8808
  906MOL0     H24963   6.161   7.892   9.089 -0.8557  0.4197 -1.7777
  906MOL0     H24964   6.228   7.721   9.089 -1.2738  1.0876  0.7124
  906MOL0     H24965   6.424   7.798   8.949 -0.7039 -0.6177 -0.6606
  906MOL0     H24966   6.368   7.959   8.970 -0.9147 -0.2430 -0.7285
  906MOL0     H24967   6.521   7.936   9.138 -0.3259  0.5124 -1.1205
  906MOL0     H24968   6.378   7.873   9.228  0.5607  0.3426  0.3612
  906MOL0     H24969   6.605   7.699   9.090  0.5719 -1.8148  0.6327
  906MOL0     H24970   6.465   7.622   9.161  3.5726 -2.0718  1.4039
  906MOL0     H24971   6.639   7.809   9.308 -0.3501  0.8015 -4.0375
  906MOL0     H24972   6.491   7.715   9.360 -3.4305 -1.9541 -3.5060
  906MOL0     H24973   6.672   7.603   9.453 -0.7175 -0.5137  0.8511
  906MOL0     H24974   6.770   7.612   9.303  0.0366 -2.1657 -0.7420
  906MOL0     H24975   6.522   7.452   9.369  0.8219  0.5322  0.8394
  906MOL0     H24976   6.579   7.468   9.206 -2.6960  2.1121  0.7735
  906MOL0     H24977   6.682   7.343   9.557  0.9498 -0.4340  0.7886
  906MOL0     H24978   6.864   7.157   9.611  0.8597 -0.9594  1.2948
  906MOL0     H24979   6.973   7.303   9.640  0.7768 -0.7146  0.4053
  906MOL0     H24980   7.110   7.082   9.611 -1.6944 -1.6680 -0.0642
  906MOL0     H24981   7.054   7.095   9.439  2.6641  3.1834 -2.3856
  906MOL0     H24982   7.189   7.288   9.396 -0.5421  1.9138  0.5645
  906MOL0     H24983   7.223   7.309   9.567 -2.5436  0.2360  0.0308
  906MOL0     H24984   7.418   7.176   9.444 -0.0272  0.3842 -0.7056
  906MOL0     H24985   7.360   7.113   9.591  1.9570 -3.7645 -0.9495
  906MOL0     H24986   7.469   6.875   9.519  0.2976  0.5497  0.6088
  906MOL0     H24987   7.805   6.793   9.439 -0.0217 -2.4159  1.6905
  906MOL0     H24988   7.708   6.653   9.389  1.7144  0.4191 -0.1646
  906MOL0     H24989   7.664   6.741   9.531 -2.9959 -0.3161 -1.1549
  906MOL0     H24990   7.970   6.689   8.998  4.5251 -3.2604 -1.8825
  906MOL0     H24991   8.137   6.675   8.825 -1.8240 -0.7245 -1.1173
  906MOL0     H24992   8.033   6.791   8.441 -0.5499  0.2186  0.8967
  906MOL0     H24993   8.095   6.954   8.458 -2.8729 -0.2042 -1.7465
  906MOL0     H24994   8.243   6.701   8.408 -3.8109 -0.2414  0.4269
  906MOL0     H24995   8.211   6.826   8.281  3.0826 -0.6377 -0.8244
  906MOL0     H24996   8.408   6.819   8.510  1.2331  0.7705 -1.2005
  906MOL0     H24997   8.353   6.971   8.455 -1.7922  1.2670 -2.9087
  906MOL0     H24998   8.420   6.893   8.210  2.1494  0.2581 -0.9061
  906MOL0     H24999   8.497   6.758   8.283 -0.1782 -0.2040  1.0344
  906MOL0     H25000   8.554   7.042   8.353  0.9479  1.5858 -2.3647
  906MOL0     H25001   8.655   6.908   8.407  0.5541  1.0323 -1.5055
  906MOL0     H25002   8.625   7.001   8.118  0.3009  2.3548 -0.0265
  906MOL0     H25003   8.730   6.873   8.190 -1.8284 -1.2878  3.7111
  906MOL0     H25004   8.837   7.058   8.340  3.1949  2.7518 -1.2522
  906MOL0     H25005   8.734   7.182   8.259  1.5447  0.6282  1.2591
  906MOL0     H25006   8.947   7.190   8.189 -1.5920  1.2083  0.3935
  906MOL0     H25007   8.836   7.132   8.058  1.5005  2.0315 -0.3052
  906MOL0     H25008   7.924   6.976   8.596 -0.4379  1.1967  0.5520
  906MOL0     H25009   7.756   6.982   8.741 -1.0261 -0.6658 -0.9477
  906MOL0     H25010   7.543   6.969   9.040 -1.7941 -1.0984  0.0177
  906MOL0     H25011   7.334   7.023   9.151  0.2851 -1.7408 -0.9606
  906MOL0     H25012   5.911   8.055   8.858 -1.5955  1.2626 -0.7603
  906MOL0     H25013   5.714   8.034   8.738  2.3436  1.7520  1.2679
  906MOL0     H25014   5.411   7.832   8.500  0.0368 -2.3041 -0.0351
  906MOL0     H25015   5.223   7.752   8.381 -1.0735 -1.4953 -1.8466
  906MOL0     H25016   5.147   7.779   7.936 -0.2933  0.2310 -0.8452
  906MOL0     H25017   5.275   7.662   7.983  0.2710  0.7179  1.4571
  906MOL0     H25018   4.977   7.606   8.024 -0.0123  0.0619  1.1393
  906MOL0     H25019   5.095   7.493   8.065 -1.1145 -0.6533 -0.1369
  906MOL0     H25020   5.017   7.551   7.771  2.2340 -2.1260 -2.4491
  906MOL0     H25021   5.176   7.505   7.811  0.4706 -1.0851 -0.6328
  906MOL0     H25022   5.101   7.305   7.928 -1.3531 -0.9250  3.1437
  906MOL0     H25023   5.026   7.300   7.773 -1.5117 -0.9168  1.2347
  906MOL0     H25024   4.672   7.373   7.988 -0.1787 -2.5736  2.7706
  906MOL0     H25025   5.412   7.832   8.004 -1.9034  3.1614 -0.9048
  906MOL0     H25026   5.613   7.865   7.987  1.5016 -2.9511  0.0740
  906MOL0     H25027   5.669   7.998   8.084 -0.5232  0.3784  1.9746
  906MOL0     H25028   5.737   7.839   8.121 -1.0070 -2.5681 -0.3028
  907MOL0     O25029   5.400   7.502   1.469  0.0557  0.1072 -0.5754
  907MOL0     C25030   5.352   7.406   1.534  0.1168  0.7424 -1.1700
  907MOL0     O25031   5.383   7.375   1.666  0.9286 -0.0469 -0.1415
  907MOL0     C25032   5.469   7.452   1.743 -0.1781 -0.0169  0.8368
  907MOL0     C25033   5.604   7.465   1.703  0.5276 -0.4710  0.4016
  907MOL0     C25034   5.694   7.520   1.801 -0.2533  0.3781 -0.1506
  907MOL0     C25035   5.658   7.552   1.936  1.2084  0.0933  0.0410
  907MOL0     O25036   5.753   7.587   2.021 -0.6431 -0.1036  0.3192
  907MOL0     C25037   5.729   7.672   2.136 -0.4448  0.0714  0.2195
  907MOL0     C25038   5.861   7.704   2.206 -0.6789  0.4709  0.5075
  907MOL0     C25039   5.955   7.809   2.149  0.3259 -0.3686 -0.3762
  907MOL0     C25040   6.089   7.813   2.230 -0.1755  1.0414 -0.8084
  907MOL0     C25041   6.071   7.865   2.377 -0.0264 -0.4058  0.2136
  907MOL0     C25042   6.218   7.892   2.424  0.4958  1.2119  0.1330
  907MOL0     C25043   6.213   7.915   2.577  0.8834  0.4375 -0.2278
  907MOL0     C25044   6.346   7.902   2.643 -0.3671  0.3344 -0.5417
  907MOL0     N25045   6.331   7.945   2.782  0.3198  0.3806 -0.3040
  907MOL0     C25046   6.440   7.949   2.865 -0.6807 -0.6288  0.0132
  907MOL0     C25047   6.406   8.034   2.959 -0.1428 -0.4980  0.5383
  907MOL0     C25048   6.497   8.077   3.073 -0.7416  0.2066  0.9682
  907MOL0     C25049   6.588   7.968   3.125  0.1803 -0.3942 -1.1785
  907MOL0     C25050   6.656   7.994   3.255 -0.2064 -0.1868 -0.3756
  907MOL0     C25051   6.733   8.137   3.254  0.1545  0.8365 -0.0970
  907MOL0     O25052   6.819   8.137   3.142 -0.6592  0.5652 -0.4351
  907MOL0     C25053   6.916   8.234   3.151 -0.4129 -1.1133 -0.5118
  907MOL0     C25054   6.922   8.329   3.249 -0.2770  0.1630  0.6971
  907MOL0     C25055   7.034   8.418   3.259 -0.0657  0.7297 -0.8291
  907MOL0     C25056   7.025   8.519   3.365 -0.0659 -1.1951  0.3582
  907MOL0     C25057   7.137   8.404   3.167  0.6808 -0.6679  1.2979
  907MOL0     C25058   7.255   8.491   3.161  0.3669 -0.4377 -0.3247
  907MOL0     O25059   7.287   8.552   3.277  0.6654 -0.0011  0.0556
  907MOL0     C25060   7.401   8.624   3.284  0.0159 -0.0994  0.4491
  907MOL0     C25061   7.525   8.580   3.231  1.0851 -0.9452  0.3074
  907MOL0     C25062   7.647   8.658   3.263 -0.1565  0.3166  1.1609
  907MOL0     C25063   7.638   8.772   3.343 -0.0664  0.2374  0.0563
  907MOL0     O25064   7.742   8.847   3.381 -0.1035  0.5868 -0.2227
  907MOL0     C25065   7.867   8.816   3.322  0.0921 -0.2612  0.2677
  907MOL0     C25066   7.956   8.917   3.384 -0.2325 -0.8456 -0.8825
  907MOL0     C25067   8.093   8.915   3.328 -0.2073  0.0211 -0.5062
  907MOL0     C25068   8.183   8.999   3.410 -1.0010  0.3305  0.4926
  907MOL0     C25069   8.329   8.983   3.361 -0.3887 -0.4302  0.3641
  907MOL0     C25070   8.447   9.047   3.449 -0.0376  0.0350 -0.0390
  907MOL0     C25071   8.446   9.198   3.442  0.1056  0.2615 -0.1282
  907MOL0     C25072   8.442   9.259   3.295  0.0414 -0.1037 -0.1889
  907MOL0    Cl25073   8.492   9.431   3.303 -0.2532 -0.3600 -0.1020
  907MOL0     C25074   7.511   8.808   3.388 -1.1629 -0.5649 -0.3966
  907MOL0     C25075   7.398   8.736   3.367 -0.3308 -0.3286  0.1138
  907MOL0     O25076   7.315   8.507   3.053 -0.3591 -0.0366  0.0416
  907MOL0     C25077   7.127   8.319   3.063  0.6276  0.3786  0.1639
  907MOL0     C25078   7.015   8.233   3.062 -0.6965 -0.5825  0.6801
  907MOL0     N25079   6.279   8.078   2.942  1.0308  0.8796  1.1106
  907MOL0     N25080   6.231   8.024   2.836 -0.2399 -0.3377  0.1226
  907MOL0     C25081   5.520   7.541   1.971 -0.5280 -0.4791  0.0883
  907MOL0     C25082   5.439   7.493   1.870  0.9238  0.0654 -0.0492
  907MOL0     C25083   5.253   7.319   1.460 -1.5364 -0.0568 -0.5308
  907MOL0     C25084   5.168   7.372   1.365  0.5160 -0.2361  1.1857
  907MOL0     C25085   5.065   7.301   1.297  1.1331 -0.6032 -0.9418
  907MOL0     C25086   5.059   7.168   1.322 -0.2682 -0.2672  1.0458
  907MOL0     O25087   4.978   7.081   1.254  0.6316  0.4752 -0.8267
  907MOL0     C25088   4.863   7.121   1.181  0.8592  0.3994  0.1088
  907MOL0     C25089   4.743   7.161   1.261 -0.2950 -0.3970  0.3675
  907MOL0     C25090   4.627   7.229   1.173 -1.2153 -0.1484  0.5883
  907MOL0     C25091   4.523   7.124   1.147  0.4904 -0.7048  0.0557
  907MOL0     C25092   4.557   7.030   1.039 -0.9893  0.8549 -0.2246
  907MOL0     C25093   4.573   6.943   0.951 -0.5343 -0.3451 -1.0577
  907MOL0     C25094   5.148   7.112   1.407  0.0427  0.4608 -0.2876
  907MOL0     C25095   5.245   7.178   1.479  1.3770  0.4147  0.3555
  907MOL0     C25096   5.329   7.088   1.574 -0.1837  0.7112 -0.1273
  907MOL0     H25097   5.639   7.421   1.610 -0.6176 -1.3671  0.3729
  907MOL0     H25098   5.795   7.545   1.769  0.0792 -0.7439  0.0065
  907MOL0     H25099   5.667   7.612   2.203  0.1629  0.2329  0.9346
  907MOL0     H25100   5.683   7.768   2.109  4.6701  2.7756  0.0553
  907MOL0     H25101   5.832   7.749   2.302  1.1814  1.2512  0.7365
  907MOL0     H25102   5.911   7.610   2.232 -0.2830  0.9730  1.6349
  907MOL0     H25103   5.986   7.793   2.046  0.8349 -0.9834 -0.1340
  907MOL0     H25104   5.904   7.906   2.151  0.0087 -0.4021 -3.0441
  907MOL0     H25105   6.142   7.717   2.226 -2.7419 -0.4573 -1.2475
  907MOL0     H25106   6.158   7.884   2.183  2.2545 -0.5983  0.0658
  907MOL0     H25107   6.009   7.789   2.426 -2.6004  0.0198 -2.0709
  907MOL0     H25108   6.004   7.951   2.366 -2.5311 -2.4915 -3.1904
  907MOL0     H25109   6.276   7.803   2.400 -0.9545 -0.1311  1.3321
  907MOL0     H25110   6.264   7.980   2.379  1.0528  0.1561 -1.4407
  907MOL0     H25111   6.144   7.846   2.628  1.2140  0.2833  0.0135
  907MOL0     H25112   6.171   8.015   2.592  1.3691  0.7591 -0.9688
  907MOL0     H25113   6.379   7.798   2.645 -0.5578  0.2768  1.3783
  907MOL0     H25114   6.426   7.952   2.586  1.7880 -1.9310  0.2987
  907MOL0     H25115   6.542   7.911   2.863  0.6776  2.4491  2.5254
  907MOL0     H25116   6.427   8.098   3.154  1.0164 -1.7695  3.1235
  907MOL0     H25117   6.559   8.164   3.049 -1.1761  0.7330  1.6967
  907MOL0     H25118   6.527   7.879   3.146  2.8304 -2.8668 -3.2330
  907MOL0     H25119   6.666   7.938   3.055  1.2257 -2.0430  0.5746
  907MOL0     H25120   6.593   7.984   3.344  1.0322 -2.1289  0.3642
  907MOL0     H25121   6.731   7.915   3.269  0.2087  0.6586  2.9506
  907MOL0     H25122   6.654   8.212   3.240 -2.2168 -1.4713  0.0099
  907MOL0     H25123   6.780   8.146   3.352 -0.5092 -0.1325  0.3269
  907MOL0     H25124   6.837   8.343   3.315 -2.5236  2.6895 -2.3613
  907MOL0     H25125   6.933   8.546   3.418  2.8562  1.6152  4.6889
  907MOL0     H25126   7.037   8.617   3.317 -0.1598 -0.1840  2.2852
  907MOL0     H25127   7.108   8.517   3.437  0.1013  3.5084  0.6310
  907MOL0     H25128   7.517   8.495   3.163 -1.6630  0.1345 -0.8667
  907MOL0     H25129   7.743   8.629   3.221  0.0667  1.7368  0.6127
  907MOL0     H25130   7.902   8.712   3.329  1.7765 -0.1311 -3.7017
  907MOL0     H25131   7.856   8.826   3.214  2.3853  0.0208  0.0130
  907MOL0     H25132   7.916   9.014   3.355  0.7926 -0.3805 -0.7999
  907MOL0     H25133   7.968   8.901   3.491  0.4887  1.5637 -0.5497
  907MOL0     H25134   8.076   8.946   3.225 -0.0407  1.4786 -0.1086
  907MOL0     H25135   8.125   8.811   3.310 -2.0192 -0.1050 -3.7759
  907MOL0     H25136   8.181   8.969   3.515 -0.8166  0.3873  0.5131
  907MOL0     H25137   8.152   9.104   3.411 -0.7542  0.4167 -0.1240
  907MOL0     H25138   8.357   8.879   3.338  2.2648  0.6294 -1.7301
  907MOL0     H25139   8.336   9.007   3.255  1.6252 -1.7365  0.1406
  907MOL0     H25140   8.537   9.001   3.407 -1.1436 -2.2785 -0.0535
  907MOL0     H25141   8.430   9.024   3.554 -1.1730  0.9040 -0.0131
  907MOL0     H25142   8.541   9.235   3.481  1.5013 -1.8209 -1.3454
  907MOL0     H25143   8.360   9.240   3.494 -0.6654 -0.0377 -1.1301
  907MOL0     H25144   8.344   9.244   3.248 -0.5997 -1.9455  1.5923
  907MOL0     H25145   8.523   9.216   3.235 -1.2501 -0.4386 -1.7665
  907MOL0     H25146   7.515   8.898   3.449 -3.2298 -1.8249  1.7327
  907MOL0     H25147   7.302   8.766   3.407 -2.0779 -0.3557 -3.6846
  907MOL0     H25148   7.197   8.314   2.980  3.2995 -1.0803  2.3293
  907MOL0     H25149   7.020   8.150   2.991 -1.2404  0.4199 -0.5671
  907MOL0     H25150   5.491   7.549   2.075 -0.6841 -4.5989  0.5097
  907MOL0     H25151   5.333   7.470   1.881  1.0581 -1.9904 -2.2690
  907MOL0     H25152   5.171   7.472   1.324 -2.0748 -1.4007 -2.2756
  907MOL0     H25153   4.989   7.357   1.243 -0.4624  3.3135  4.4882
  907MOL0     H25154   4.892   7.202   1.113 -2.7101  0.7827 -1.1443
  907MOL0     H25155   4.831   7.047   1.106 -0.5823  2.1941 -1.1206
  907MOL0     H25156   4.774   7.245   1.325  1.9154  0.1910 -1.3237
  907MOL0     H25157   4.704   7.081   1.324  1.1383  0.5503  2.5977
  907MOL0     H25158   4.585   7.316   1.226 -1.7908 -0.2383  0.2884
  907MOL0     H25159   4.672   7.272   1.083 -0.5158 -0.6157  0.7099
  907MOL0     H25160   4.428   7.168   1.113  0.3425 -2.1474 -1.5699
  907MOL0     H25161   4.497   7.067   1.236  0.5051 -0.1489  0.4206
  907MOL0     H25162   4.571   6.876   0.868  1.4414 -2.2323  0.3027
  907MOL0     H25163   5.132   7.005   1.424  3.4169 -0.3440 -1.4564
  907MOL0     H25164   5.326   7.138   1.671  0.4175  1.0889 -0.2961
  907MOL0     H25165   5.297   6.984   1.584  2.2507  0.1527  4.7566
  907MOL0     H25166   5.433   7.073   1.542  0.7803 -2.3427  3.7180
  908MOL0     O25167   6.337   6.648   8.312 -0.8389  0.3254  0.4326
  908MOL0     C25168   6.292   6.732   8.388 -0.6455  0.4822 -0.4374
  908MOL0     O25169   6.355   6.764   8.501 -0.1715  0.2060 -0.8505
  908MOL0     C25170   6.459   6.681   8.535  0.3861 -0.0730 -0.9301
  908MOL0     C25171   6.444   6.561   8.611 -0.8567 -0.0777 -0.0782
  908MOL0     C25172   6.562   6.489   8.652 -0.0775 -0.9273 -0.2706
  908MOL0     C25173   6.689   6.523   8.602 -1.0911 -0.1786  0.0000
  908MOL0     O25174   6.799   6.457   8.640  0.1488  0.3990 -0.6175
  908MOL0     C25175   6.769   6.328   8.678 -0.7423  0.4501 -0.0196
  908MOL0     C25176   6.892   6.254   8.645 -0.2620 -0.0995 -0.7044
  908MOL0     C25177   7.000   6.262   8.764  1.4949  1.0020 -0.2981
  908MOL0     C25178   7.131   6.189   8.724  0.6020 -0.4470  0.3695
  908MOL0     C25179   7.251   6.219   8.815  0.6994  0.5937 -0.4187
  908MOL0     C25180   7.381   6.138   8.790  0.2531 -0.0470  0.8515
  908MOL0     C25181   7.490   6.161   8.889  1.2106 -0.1447 -0.6138
  908MOL0     C25182   7.569   6.038   8.923 -0.7379  0.2563 -0.7689
  908MOL0     N25183   7.613   5.952   8.807  0.1859  0.4296 -0.3379
  908MOL0     C25184   7.644   5.986   8.680 -0.5906  0.1236 -0.2956
  908MOL0     C25185   7.634   5.871   8.603 -0.4234 -0.4310 -0.1323
  908MOL0     C25186   7.659   5.865   8.453  0.7666  0.1868  0.0338
  908MOL0     C25187   7.756   5.750   8.426 -1.0876  0.3903  0.5320
  908MOL0     C25188   7.787   5.744   8.270  0.2941 -0.0404 -0.5763
  908MOL0     C25189   7.842   5.871   8.214  0.2656  0.1310  0.4775
  908MOL0     O25190   7.885   5.858   8.080  0.4095 -0.0820  0.2742
  908MOL0     C25191   8.022   5.850   8.057  0.2986  0.1946 -1.1069
  908MOL0     C25192   8.105   5.785   8.139 -0.0823  0.2311  0.3291
  908MOL0     C25193   8.242   5.780   8.120  0.7647  0.4550  0.2758
  908MOL0     C25194   8.326   5.698   8.226 -0.1973  0.1874 -0.0797
  908MOL0     C25195   8.295   5.874   8.020  0.0009  1.0153  0.0132
  908MOL0     C25196   8.440   5.909   8.007  0.2043 -0.4499 -0.2091
  908MOL0     O25197   8.475   5.990   7.906  0.0970  0.6068 -0.0870
  908MOL0     C25198   8.603   6.022   7.880 -0.4741 -0.8083  0.7803
  908MOL0     C25199   8.700   6.062   7.973  0.5149 -0.3122 -0.1495
  908MOL0     C25200   8.826   6.108   7.943  0.5494  0.1126 -0.4245
  908MOL0     C25201   8.859   6.113   7.806  0.7706 -0.5806  0.4106
  908MOL0     O25202   8.979   6.155   7.757 -0.0041  0.0328  0.4168
  908MOL0     C25203   9.025   6.280   7.812 -0.3086 -0.0506 -0.2967
  908MOL0     C25204   9.012   6.399   7.721 -0.2797 -0.2105 -0.4861
  908MOL0     C25205   9.112   6.508   7.769  0.2260  0.1923 -0.0215
  908MOL0     C25206   9.099   6.644   7.683  0.4259 -0.5847 -0.0244
  908MOL0     C25207   9.164   6.643   7.548  0.4452  0.3558  0.4333
  908MOL0     C25208   9.136   6.772   7.472  0.1347 -0.0049 -0.2707
  908MOL0     C25209   9.114   6.749   7.319 -0.8388  0.8265  1.0545
  908MOL0     C25210   8.999   6.650   7.285  0.0418 -0.7048 -0.0331
  908MOL0    Cl25211   8.837   6.708   7.352 -0.3088  0.0716 -0.1809
  908MOL0     C25212   8.770   6.082   7.709 -0.3373  0.0199  0.2373
  908MOL0     C25213   8.640   6.042   7.746  0.3768 -0.2248  0.1504
  908MOL0     O25214   8.519   5.865   8.090  0.3020 -0.2807  0.3587
  908MOL0     C25215   8.209   5.927   7.927  0.2374  0.1543 -0.1765
  908MOL0     C25216   8.075   5.911   7.944 -0.2753  0.3378 -0.3269
  908MOL0     N25217   7.631   5.765   8.694 -0.0649 -0.3285  0.4020
  908MOL0     N25218   7.618   5.814   8.816  0.6156  0.5592 -0.4599
  908MOL0     C25219   6.699   6.641   8.529 -0.5327 -0.2310 -1.0071
  908MOL0     C25220   6.589   6.721   8.501  0.4086  0.7890  0.2416
  908MOL0     C25221   6.164   6.801   8.360 -0.0452 -0.4667  0.3900
  908MOL0     C25222   6.123   6.906   8.444 -0.2470  0.4142 -0.3395
  908MOL0     C25223   5.999   6.975   8.431  0.8208  0.4248  0.0897
  908MOL0     C25224   5.906   6.935   8.336 -0.0898 -0.6592  0.0082
  908MOL0     O25225   5.784   6.993   8.326 -0.7457 -0.2050  0.3399
  908MOL0     C25226   5.704   6.991   8.446 -0.5206  0.6724 -0.0492
  908MOL0     C25227   5.562   7.019   8.409 -0.3307  0.0660  0.6612
  908MOL0     C25228   5.524   6.913   8.301  0.5086  0.1217 -0.0841
  908MOL0     C25229   5.369   6.916   8.273 -1.1656  0.5316  0.0267
  908MOL0     C25230   5.273   6.891   8.383 -0.4319 -0.0901 -0.0184
  908MOL0     C25231   5.185   6.892   8.469 -0.4490 -0.2472 -0.1141
  908MOL0     C25232   5.952   6.834   8.252  0.3258 -0.8904  0.5151
  908MOL0     C25233   6.078   6.772   8.258  0.2656 -0.3932 -0.2722
  908MOL0     C25234   6.113   6.679   8.149  0.0424  0.1777 -0.0537
  908MOL0     H25235   6.344   6.527   8.639  0.2033 -1.6978  1.9965
  908MOL0     H25236   6.541   6.407   8.720 -0.5122 -2.2503 -1.9382
  908MOL0     H25237   6.691   6.274   8.624  0.7847  0.0098 -1.9034
  908MOL0     H25238   6.755   6.320   8.787  1.7232  5.0425  0.8718
  908MOL0     H25239   6.877   6.146   8.640  0.9008 -0.2398 -3.4369
  908MOL0     H25240   6.932   6.282   8.547  1.0979 -0.2713 -0.2142
  908MOL0     H25241   7.014   6.371   8.770 -2.3702  1.5316  1.6891
  908MOL0     H25242   6.974   6.211   8.857  1.0977  0.5179 -0.6764
  908MOL0     H25243   7.102   6.084   8.718 -3.7451  0.6252 -0.7095
  908MOL0     H25244   7.147   6.215   8.619 -0.7630 -0.5270  0.1273
  908MOL0     H25245   7.226   6.185   8.916 -2.8415  1.3051 -0.9313
  908MOL0     H25246   7.271   6.326   8.804  1.5278  0.2393 -3.0737
  908MOL0     H25247   7.372   6.030   8.780  2.5069 -0.3413  1.6126
  908MOL0     H25248   7.414   6.172   8.691 -0.6730  1.0702  0.8919
  908MOL0     H25249   7.458   6.218   8.976  0.5832 -0.7606 -0.4352
  908MOL0     H25250   7.562   6.227   8.839  1.6267 -0.8824 -1.0135
  908MOL0     H25251   7.651   6.069   8.988 -3.1010  2.6610  1.3007
  908MOL0     H25252   7.504   5.981   8.990 -2.4302  0.0892 -2.4505
  908MOL0     H25253   7.669   6.086   8.646  1.5066  0.4572  1.9688
  908MOL0     H25254   7.704   5.958   8.417  2.5844 -0.7611 -0.2531
  908MOL0     H25255   7.559   5.852   8.409  0.4607  0.1258  0.7427
  908MOL0     H25256   7.841   5.760   8.495 -2.2481 -0.1779  2.1192
  908MOL0     H25257   7.706   5.656   8.454 -0.0833 -0.7480 -1.2893
  908MOL0     H25258   7.865   5.667   8.269  1.7456  1.2060  2.7815
  908MOL0     H25259   7.707   5.703   8.207  1.6424 -1.4424 -1.4615
  908MOL0     H25260   7.753   5.933   8.201  0.6617  0.3964 -1.1862
  908MOL0     H25261   7.919   5.923   8.271  1.6561 -0.4802 -0.7885
  908MOL0     H25262   8.065   5.743   8.231 -4.2139  0.4964 -1.1215
  908MOL0     H25263   8.264   5.627   8.281  0.7924 -0.7995 -0.1960
  908MOL0     H25264   8.379   5.767   8.293  1.1656  0.6875 -1.6016
  908MOL0     H25265   8.398   5.651   8.158 -1.6078  0.1036 -1.5744
  908MOL0     H25266   8.667   6.065   8.077  0.0628 -2.3482 -0.2015
  908MOL0     H25267   8.898   6.136   8.019  4.4450 -0.2900 -3.5804
  908MOL0     H25268   8.978   6.306   7.907 -2.2089 -2.0835 -0.6202
  908MOL0     H25269   9.133   6.271   7.831 -0.2316 -0.2140 -0.7908
  908MOL0     H25270   9.031   6.358   7.621  0.3488 -1.6781  0.2076
  908MOL0     H25271   8.908   6.433   7.717 -0.1346  0.1627 -3.0042
  908MOL0     H25272   9.216   6.477   7.751  0.3650  0.3672  0.4751
  908MOL0     H25273   9.096   6.531   7.874 -1.0046  2.4391 -0.6212
  908MOL0     H25274   9.151   6.719   7.744  0.7291 -3.7150  3.9987
  908MOL0     H25275   8.991   6.662   7.680  0.5717  0.6836  1.2805
  908MOL0     H25276   9.272   6.627   7.552  0.6439  0.1284 -2.7060
  908MOL0     H25277   9.133   6.555   7.491  0.8379 -0.8341  1.9971
  908MOL0     H25278   9.223   6.838   7.480 -0.6282  1.4843 -3.0554
  908MOL0     H25279   9.049   6.824   7.511  0.8656 -0.4409  2.0958
  908MOL0     H25280   9.205   6.708   7.276 -2.5681  1.4380 -3.7678
  908MOL0     H25281   9.079   6.838   7.267 -0.3655 -0.2419 -1.2274
  908MOL0     H25282   9.010   6.549   7.325 -2.6878 -0.2718  2.1873
  908MOL0     H25283   8.987   6.655   7.177 -2.8788 -1.4946  0.1664
  908MOL0     H25284   8.784   6.093   7.602 -0.9101  0.9810  0.2529
  908MOL0     H25285   8.567   6.037   7.666 -1.2260  3.6702  1.1669
  908MOL0     H25286   8.249   5.987   7.846  0.6664 -0.4226 -0.4091
  908MOL0     H25287   8.011   5.967   7.876  0.0194  0.9426 -0.1125
  908MOL0     H25288   6.798   6.676   8.499 -0.7386  1.5428  0.2169
  908MOL0     H25289   6.608   6.812   8.445 -2.4190  1.6771  0.5981
  908MOL0     H25290   6.184   6.948   8.523 -0.2334  0.4923 -0.3913
  908MOL0     H25291   5.964   7.052   8.500  0.7296  0.2836  0.2013
  908MOL0     H25292   5.698   6.897   8.501 -1.5713  0.7324 -0.0434
  908MOL0     H25293   5.747   7.067   8.511  0.5934 -1.1912  1.5026
  908MOL0     H25294   5.556   7.121   8.371 -0.9317  0.3053  1.3598
  908MOL0     H25295   5.503   7.014   8.501  1.0982  0.2318  1.6203
  908MOL0     H25296   5.577   6.929   8.207  2.2584 -1.9921  0.4533
  908MOL0     H25297   5.566   6.817   8.334  1.6308  0.8364  0.6453
  908MOL0     H25298   5.337   6.836   8.205 -0.9222 -0.4597  1.0634
  908MOL0     H25299   5.355   7.012   8.223 -1.0161  0.4822 -0.1145
  908MOL0     H25300   5.103   6.911   8.535  0.6549  1.0255  0.9559
  908MOL0     H25301   5.886   6.797   8.174 -1.4975  0.4642  1.3443
  908MOL0     H25302   6.114   6.575   8.180  0.0551  0.4642  0.9362
  908MOL0     H25303   6.038   6.692   8.070  0.0352 -1.0384 -0.2531
  908MOL0     H25304   6.207   6.707   8.100 -1.0388  0.1352 -2.3238
  909MOL0     O25305   0.387   1.627   6.116 -0.0645  0.5807 -0.4528
  909MOL0     C25306   0.502   1.624   6.157 -0.1028 -0.3521  1.2299
  909MOL0     O25307   0.606   1.661   6.083  0.0179 -0.7110  0.2174
  909MOL0     C25308   0.585   1.702   5.953  0.5629  0.1529  0.5665
  909MOL0     C25309   0.604   1.836   5.905 -1.1126  0.3905  0.6059
  909MOL0     C25310   0.584   1.860   5.768 -0.7400 -0.2121 -0.2352
  909MOL0     C25311   0.559   1.762   5.673 -0.1511  0.0877  0.3338
  909MOL0     O25312   0.540   1.796   5.538 -0.0715 -0.8092 -0.3065
  909MOL0     C25313   0.535   1.701   5.429  1.0214  0.3667  1.0121
  909MOL0     C25314   0.541   1.791   5.312 -1.0758 -1.0609 -0.7945
  909MOL0     C25315   0.528   1.708   5.181  0.0114 -0.0075  0.3655
  909MOL0     C25316   0.384   1.650   5.155 -0.2341  0.2593  0.3934
  909MOL0     C25317   0.378   1.608   5.010 -0.3773 -0.3975 -0.8685
  909MOL0     C25318   0.234   1.597   4.955  0.1712 -0.4692 -0.7959
  909MOL0     C25319   0.235   1.540   4.817  0.7606 -0.3962  0.1229
  909MOL0     C25320   0.093   1.537   4.748  0.2386 -0.3095  0.2917
  909MOL0     N25321   0.043   1.664   4.701  0.4976  0.4627  0.2483
  909MOL0     C25322   0.003   1.778   4.773 -0.5452  0.1224  0.5464
  909MOL0     C25323  -0.042   1.862   4.680 -0.0431 -0.3635  0.4866
  909MOL0     C25324  -0.126   1.989   4.716  0.0418 -0.1926  0.7567
  909MOL0     C25325  -0.266   1.965   4.679  0.1482 -0.6136  0.0628
  909MOL0     C25326  -0.356   1.886   4.778 -0.3274 -1.1773 -0.0184
  909MOL0     C25327  -0.490   1.844   4.707 -1.4510 -0.5170  0.2219
  909MOL0     O25328  -0.572   1.951   4.668 -0.6561 -0.8179  0.2032
  909MOL0     C25329  -0.617   2.038   4.765 -0.3186  0.1835  0.1779
  909MOL0     C25330  -0.645   2.169   4.718  0.5795 -0.6185 -0.2368
  909MOL0     C25331  -0.698   2.269   4.810 -1.6009 -0.1592 -0.2997
  909MOL0     C25332  -0.707   2.406   4.758  0.5139 -0.3112  0.1441
  909MOL0     C25333  -0.727   2.236   4.939  0.1960 -0.2291 -0.6788
  909MOL0     C25334  -0.779   2.331   5.033  0.3081  0.1382 -0.4081
  909MOL0     O25335  -0.756   2.311   5.169 -0.1771  0.2721  0.3040
  909MOL0     C25336  -0.794   2.413   5.248 -0.3230 -0.3040  0.8181
  909MOL0     C25337  -0.765   2.549   5.229  0.4867  0.7604 -0.3416
  909MOL0     C25338  -0.813   2.644   5.327  0.6532  0.0712  0.7756
  909MOL0     C25339  -0.877   2.595   5.442  0.1304  0.0432 -0.0012
  909MOL0     O25340  -0.909   2.684   5.542 -0.7100 -0.1402  0.6337
  909MOL0     C25341  -0.981   2.801   5.500  0.1212  0.0432  0.0452
  909MOL0     C25342  -1.062   2.851   5.613 -0.2057 -0.6916  0.9024
  909MOL0     C25343  -1.118   2.999   5.595  0.5889  0.7797  0.2184
  909MOL0     C25344  -1.168   3.050   5.730  0.2754  0.7923 -0.4220
  909MOL0     C25345  -1.255   3.173   5.726 -0.2802 -0.3054  0.0826
  909MOL0     C25346  -1.187   3.290   5.648  0.3225 -0.1362 -0.1787
  909MOL0     C25347  -1.274   3.418   5.680 -0.6409 -0.0127  0.4507
  909MOL0     C25348  -1.180   3.528   5.652  0.4933 -0.2641 -0.8596
  909MOL0    Cl25349  -1.255   3.693   5.649 -0.2499 -0.1861  0.0725
  909MOL0     C25350  -0.898   2.460   5.460 -0.5068 -0.2302  0.6154
  909MOL0     C25351  -0.857   2.374   5.360  0.6549 -0.9610 -0.7933
  909MOL0     O25352  -0.858   2.415   4.992 -0.3000  0.3435 -0.4356
  909MOL0     C25353  -0.702   2.103   4.985  0.0868  0.6986 -0.1738
  909MOL0     C25354  -0.646   2.004   4.899  0.9721 -0.4892 -0.2005
  909MOL0     N25355  -0.035   1.807   4.554  0.3941  0.5342  0.3661
  909MOL0     N25356   0.028   1.694   4.566 -0.0239 -0.6887 -0.2904
  909MOL0     C25357   0.534   1.631   5.714  0.2835 -0.1807 -0.0507
  909MOL0     C25358   0.554   1.604   5.855 -0.7081  1.0506  0.7322
  909MOL0     C25359   0.547   1.593   6.296  0.2386  0.1621 -0.6514
  909MOL0     C25360   0.677   1.612   6.338  0.2978 -0.4563  0.4106
  909MOL0     C25361   0.729   1.577   6.463  0.2560 -1.1976  0.7541
  909MOL0     C25362   0.644   1.511   6.551 -0.2918  0.6523  0.3993
  909MOL0     O25363   0.680   1.476   6.679  0.7734 -0.1432 -0.6549
  909MOL0     C25364   0.814   1.476   6.731 -0.9453 -0.1900 -0.9212
  909MOL0     C25365   0.884   1.345   6.690 -0.2744 -0.1907  0.2377
  909MOL0     C25366   1.019   1.338   6.740 -0.2789 -0.2356 -0.3317
  909MOL0     C25367   1.113   1.225   6.700  0.7354  0.5078 -0.1539
  909MOL0     C25368   1.250   1.279   6.696 -1.0667  0.0700 -0.5143
  909MOL0     C25369   1.360   1.336   6.700  0.0843 -0.4156  0.0174
  909MOL0     C25370   0.508   1.504   6.520  0.2765 -0.2376 -0.5340
  909MOL0     C25371   0.458   1.537   6.394 -0.2632  0.0642  0.0835
  909MOL0     C25372   0.312   1.509   6.357  0.5525 -0.2468 -0.5620
  909MOL0     H25373   0.620   1.923   5.968  0.1495 -0.7742  1.9798
  909MOL0     H25374   0.603   1.960   5.728 -1.2635  0.0418  0.1409
  909MOL0     H25375   0.446   1.638   5.433  1.1941 -0.3578 -2.8380
  909MOL0     H25376   0.628   1.644   5.426  0.0165 -1.3022  0.4362
  909MOL0     H25377   0.469   1.873   5.319  1.1810  0.8840  2.0485
  909MOL0     H25378   0.641   1.836   5.306 -1.0461 -1.0605 -0.2736
  909MOL0     H25379   0.554   1.778   5.101 -1.9007  1.6512  1.1082
  909MOL0     H25380   0.608   1.634   5.169  0.6750  0.8980 -1.1087
  909MOL0     H25381   0.369   1.568   5.226  0.5109  0.1722  0.4592
  909MOL0     H25382   0.314   1.732   5.176  2.9921  3.1527  0.7277
  909MOL0     H25383   0.422   1.508   4.997 -0.0611 -0.5892  1.2619
  909MOL0     H25384   0.420   1.687   4.946  1.2536 -0.3179  0.2227
  909MOL0     H25385   0.183   1.531   5.026  2.4923 -0.0323  1.4103
  909MOL0     H25386   0.183   1.693   4.958  0.3870 -0.3717  1.3252
  909MOL0     H25387   0.264   1.435   4.825  1.7098 -0.0318  1.9800
  909MOL0     H25388   0.306   1.595   4.755  0.4322 -0.4988 -0.3473
  909MOL0     H25389   0.103   1.471   4.662 -0.7279  0.0292 -0.0955
  909MOL0     H25390   0.022   1.500   4.823 -1.1255 -1.6105 -1.5612
  909MOL0     H25391   0.005   1.807   4.878 -1.2247 -0.4640  0.7300
  909MOL0     H25392  -0.093   2.078   4.661  0.6100  0.8017  2.6193
  909MOL0     H25393  -0.122   2.013   4.823  0.2067  1.4096  0.4116
  909MOL0     H25394  -0.315   2.060   4.658 -0.8964 -1.4782 -1.6916
  909MOL0     H25395  -0.272   1.910   4.584  2.7595 -1.9662  0.5969
  909MOL0     H25396  -0.302   1.794   4.799 -0.0249 -0.8729  0.5521
  909MOL0     H25397  -0.385   1.950   4.862 -0.1069 -1.4896  0.2931
  909MOL0     H25398  -0.466   1.785   4.618  0.2908 -0.9566  0.9458
  909MOL0     H25399  -0.544   1.779   4.775  0.4049  0.0773  2.3830
  909MOL0     H25400  -0.631   2.185   4.611  1.3596 -0.8695 -0.1773
  909MOL0     H25401  -0.809   2.444   4.772  0.8802  0.1553  1.6686
  909MOL0     H25402  -0.683   2.412   4.651  1.3861 -2.2573  0.1973
  909MOL0     H25403  -0.646   2.472   4.820  0.2293 -1.4074  1.6508
  909MOL0     H25404  -0.718   2.587   5.139  0.5909  0.8882 -0.2317
  909MOL0     H25405  -0.779   2.747   5.321  5.2509 -1.2403  0.0767
  909MOL0     H25406  -0.913   2.874   5.455 -0.9760 -0.4008 -2.4489
  909MOL0     H25407  -1.052   2.781   5.420 -0.7133 -1.6360  1.1544
  909MOL0     H25408  -1.138   2.774   5.632 -1.0877 -0.7781 -2.3080
  909MOL0     H25409  -0.996   2.859   5.699  1.2557 -3.7629  0.2333
  909MOL0     H25410  -1.191   3.004   5.514  0.5386  0.0561  0.2056
  909MOL0     H25411  -1.040   3.069   5.564  2.6709 -1.6108 -0.2510
  909MOL0     H25412  -1.088   3.060   5.804  0.5930  1.7493 -0.8766
  909MOL0     H25413  -1.237   2.968   5.754 -0.0679  1.3294  0.5063
  909MOL0     H25414  -1.357   3.158   5.689 -0.0885 -2.5317  0.3065
  909MOL0     H25415  -1.256   3.210   5.829  2.6202  2.7886 -0.8222
  909MOL0     H25416  -1.195   3.259   5.543  2.2314 -2.8358  0.3735
  909MOL0     H25417  -1.080   3.293   5.668  0.6414 -1.5938 -1.4234
  909MOL0     H25418  -1.320   3.418   5.779  0.3343  2.8901  0.9995
  909MOL0     H25419  -1.357   3.426   5.608 -0.2578  1.3525  0.1255
  909MOL0     H25420  -1.139   3.514   5.551  0.6646  2.4520 -1.2240
  909MOL0     H25421  -1.095   3.522   5.721 -0.4539 -2.4641  0.2397
  909MOL0     H25422  -0.940   2.426   5.554 -1.8371 -0.7383 -0.1264
  909MOL0     H25423  -0.877   2.268   5.377  0.1186 -0.7781 -0.2805
  909MOL0     H25424  -0.728   2.075   5.086 -1.1906  0.7897 -0.4581
  909MOL0     H25425  -0.635   1.903   4.937  1.2020 -0.5052 -0.3037
  909MOL0     H25426   0.506   1.553   5.643  1.9309 -1.8527  1.0110
  909MOL0     H25427   0.531   1.506   5.894  0.2049  0.4177 -0.2583
  909MOL0     H25428   0.743   1.647   6.259 -0.6832 -0.4384 -0.4188
  909MOL0     H25429   0.827   1.601   6.503  0.2976 -2.6718  1.6068
  909MOL0     H25430   0.881   1.556   6.698  0.0255 -0.7445 -0.3394
  909MOL0     H25431   0.807   1.481   6.840 -1.3131 -1.5615 -0.8629
  909MOL0     H25432   0.881   1.319   6.584 -1.2318 -1.0117  0.4546
  909MOL0     H25433   0.828   1.264   6.738 -1.0208 -0.6894 -1.4113
  909MOL0     H25434   1.071   1.432   6.715  1.7439 -0.7679  1.5289
  909MOL0     H25435   1.003   1.328   6.847  0.5147  1.6204  0.0074
  909MOL0     H25436   1.087   1.197   6.597 -2.5946  2.7893 -0.1166
  909MOL0     H25437   1.100   1.142   6.769  1.4167 -0.1607 -0.8163
  909MOL0     H25438   1.452   1.392   6.696 -0.8101  1.3887  2.4318
  909MOL0     H25439   0.433   1.478   6.594 -0.8894  0.7435 -1.3343
  909MOL0     H25440   0.298   1.450   6.266 -2.8614 -0.7041  0.1432
  909MOL0     H25441   0.270   1.452   6.440  0.3415 -0.2654 -0.6824
  909MOL0     H25442   0.251   1.600   6.352  1.1277  0.6655  4.1275
  910MOL0     O25443  10.332   1.615   1.129 -0.3734  0.1783 -0.6687
  910MOL0     C25444  10.232   1.567   1.168  0.6562  0.4020  0.0409
  910MOL0     O25445  10.217   1.429   1.185 -0.4585  0.0807 -0.5549
  910MOL0     C25446  10.315   1.341   1.137  0.1887 -0.2936 -0.7847
  910MOL0     C25447  10.362   1.237   1.223  0.1693 -0.0335  0.5348
  910MOL0     C25448  10.437   1.131   1.178 -0.2452 -0.3113  0.4773
  910MOL0     C25449  10.469   1.118   1.044  0.2538 -0.1186 -0.7290
  910MOL0     O25450  10.524   1.005   0.992 -0.4743  0.1704  0.2839
  910MOL0     C25451  10.634   0.948   1.057 -0.2875  0.6928  0.5091
  910MOL0     C25452  10.740   0.910   0.953  0.1125 -0.7037 -0.2544
  910MOL0     C25453  10.861   0.831   1.015 -0.0444 -0.3693 -0.5962
  910MOL0     C25454  10.922   0.747   0.909 -0.0287 -0.5932  0.5242
  910MOL0     C25455  11.029   0.644   0.958  0.0143  0.4474  0.5632
  910MOL0     C25456  10.961   0.516   1.022 -0.2213  0.1150  0.6304
  910MOL0     C25457  11.063   0.448   1.107 -0.1007  1.1545  0.9473
  910MOL0     C25458  11.011   0.323   1.171  0.2413 -0.5252 -0.0368
  910MOL0     N25459  10.990   0.211   1.075 -0.3907  0.2633  0.1374
  910MOL0     C25460  11.072   0.161   0.980 -0.7744 -0.2931  0.1895
  910MOL0     C25461  11.005   0.061   0.916 -0.4867 -0.8713  0.0760
  910MOL0     C25462  11.038  -0.009   0.788 -0.5432 -1.2020 -0.7335
  910MOL0     C25463  11.187   0.008   0.762 -0.4286  0.4807  0.5104
  910MOL0     C25464  11.222  -0.079   0.643 -0.4113  0.6553  0.1962
  910MOL0     C25465  11.372  -0.079   0.595  0.0339 -0.2281 -0.6333
  910MOL0     O25466  11.386  -0.184   0.499  0.1348 -0.9636  1.0173
  910MOL0     C25467  11.512  -0.218   0.459 -0.3710  0.2412 -0.4017
  910MOL0     C25468  11.634  -0.163   0.514  1.1265  0.4926 -0.8218
  910MOL0     C25469  11.761  -0.204   0.471 -0.1475 -0.4063  0.0003
  910MOL0     C25470  11.872  -0.134   0.531 -0.6173  0.2078  0.3767
  910MOL0     C25471  11.778  -0.306   0.369  0.6982  0.5323  0.0042
  910MOL0     C25472  11.907  -0.339   0.301 -0.8315 -0.7471 -0.2399
  910MOL0     O25473  12.013  -0.267   0.322 -0.4821  0.1200 -0.2494
  910MOL0     C25474  12.136  -0.296   0.257  0.6775 -0.8459  0.0646
  910MOL0     C25475  12.159  -0.206   0.156 -0.7598  0.1145  0.3032
  910MOL0     C25476  12.286  -0.202   0.083 -0.2168 -0.5824  0.6695
  910MOL0     C25477  12.387  -0.297   0.119 -0.0912  0.0125  0.0820
  910MOL0     O25478  12.500  -0.305   0.046 -0.1457  0.3860  0.0623
  910MOL0     C25479  12.627  -0.347   0.099  0.1384 -0.3699 -0.0097
  910MOL0     C25480  12.687  -0.244   0.199  0.9046  0.1262 -0.0211
  910MOL0     C25481  12.699  -0.114   0.128  0.8718 -1.0601 -0.1406
  910MOL0     C25482  12.790  -0.014   0.206  0.5084 -0.0980 -0.4623
  910MOL0     C25483  12.832   0.108   0.133  0.2871  0.2571  0.3370
  910MOL0     C25484  12.726   0.185   0.057 -0.6355 -0.8079  0.8291
  910MOL0     C25485  12.773   0.335   0.035  0.1483  1.3571 -0.0138
  910MOL0     C25486  12.679   0.421  -0.038  0.3417 -0.0235 -0.1141
  910MOL0    Cl25487  12.691   0.385  -0.205  0.0289 -0.0523 -0.0232
  910MOL0     C25488  12.347  -0.393   0.226 -0.5698 -0.4659 -0.4959
  910MOL0     C25489  12.234  -0.385   0.303  0.4710 -0.4024  0.3260
  910MOL0     O25490  11.907  -0.433   0.223  0.3941 -0.1490 -0.4610
  910MOL0     C25491  11.655  -0.360   0.317 -0.6558  0.7515  0.1993
  910MOL0     C25492  11.530  -0.316   0.361  0.7490 -1.1271  0.5395
  910MOL0     N25493  10.882   0.056   0.972  0.3122  0.5878  0.6058
  910MOL0     N25494  10.876   0.137   1.072  0.2273 -0.8920 -0.3557
  910MOL0     C25495  10.416   1.218   0.954  0.2471 -0.1819 -0.2835
  910MOL0     C25496  10.345   1.326   1.006  0.1056  0.6720  0.5646
  910MOL0     C25497  10.109   1.646   1.193 -0.3292 -0.5894  0.1277
  910MOL0     C25498   9.986   1.598   1.156 -0.0521  0.7906  0.3833
  910MOL0     C25499   9.872   1.668   1.166 -0.2468 -0.4388  0.3196
  910MOL0     C25500   9.871   1.797   1.216 -0.2877 -0.0633  0.7824
  910MOL0     O25501   9.763   1.883   1.236  0.4919 -0.1042  0.4615
  910MOL0     C25502   9.629   1.833   1.266  0.2651 -0.4248  0.5575
  910MOL0     C25503   9.538   1.929   1.348  0.1789 -0.5866 -0.3963
  910MOL0     C25504   9.422   1.840   1.408  0.4514  0.0212  0.0108
  910MOL0     C25505   9.342   1.751   1.302 -0.2852 -0.2175 -1.2877
  910MOL0     C25506   9.233   1.685   1.368  0.1121 -0.3062  0.8312
  910MOL0     C25507   9.143   1.625   1.434 -0.6937 -0.1193  0.1516
  910MOL0     C25508   9.997   1.862   1.244 -0.0874  0.1390  0.2337
  910MOL0     C25509  10.114   1.781   1.239  0.0991 -0.3128  1.0328
  910MOL0     C25510  10.247   1.847   1.263  0.5466 -0.6426  0.2842
  910MOL0     H25511  10.317   1.237   1.322 -0.5466 -0.2616  0.2080
  910MOL0     H25512  10.463   1.048   1.243  0.8278  1.3032  2.2258
  910MOL0     H25513  10.601   0.859   1.112  0.4681 -1.3315 -2.1258
  910MOL0     H25514  10.681   1.013   1.132  0.0768 -0.4957  1.3411
  910MOL0     H25515  10.682   0.845   0.887 -1.2684  2.0699 -1.9265
  910MOL0     H25516  10.778   0.996   0.898  0.0389 -0.7416 -0.3649
  910MOL0     H25517  10.933   0.904   1.051 -1.0173 -0.1486  1.0281
  910MOL0     H25518  10.833   0.771   1.103  2.5527  0.1259  0.6773
  910MOL0     H25519  10.841   0.695   0.857 -0.3770  1.0030 -0.6112
  910MOL0     H25520  10.961   0.823   0.840 -1.5396  1.1277  1.4746
  910MOL0     H25521  11.096   0.711   1.012  1.0024  1.3406 -1.6528
  910MOL0     H25522  11.088   0.612   0.872  2.4191  0.9591  1.9380
  910MOL0     H25523  10.882   0.566   1.079  1.9906  2.8494  1.5959
  910MOL0     H25524  10.919   0.456   0.941  2.8336 -1.3616  0.0009
  910MOL0     H25525  11.090   0.523   1.182  1.3061  2.3844 -0.6977
  910MOL0     H25526  11.159   0.426   1.058 -1.1828  1.6817 -1.5504
  910MOL0     H25527  11.075   0.299   1.257 -0.5723  1.3488  1.1517
  910MOL0     H25528  10.915   0.354   1.214 -0.5793  1.2893 -2.9437
  910MOL0     H25529  11.175   0.182   0.953 -0.2173 -1.1296  1.5919
  910MOL0     H25530  10.971   0.044   0.720 -1.7035  2.1119  2.6441
  910MOL0     H25531  11.013  -0.115   0.780  3.2424 -2.2271 -1.1410
  910MOL0     H25532  11.211   0.108   0.725 -0.8645 -0.0603 -1.3485
  910MOL0     H25533  11.245  -0.021   0.850  0.2739  4.1747  1.4230
  910MOL0     H25534  11.204  -0.184   0.668 -0.1528  0.4161 -0.5958
  910MOL0     H25535  11.153  -0.048   0.564 -0.9337  2.3516  1.2724
  910MOL0     H25536  11.393   0.018   0.549 -1.7616 -0.4288 -2.0143
  910MOL0     H25537  11.431  -0.107   0.683 -2.0062 -1.1968  0.5035
  910MOL0     H25538  11.621  -0.080   0.582  0.0963 -0.3768  0.0907
  910MOL0     H25539  11.917  -0.066   0.457 -0.6838  0.3391  0.4584
  910MOL0     H25540  11.945  -0.210   0.561 -0.0652 -0.3368 -2.0807
  910MOL0     H25541  11.840  -0.074   0.616  1.5189 -1.0365  2.1720
  910MOL0     H25542  12.083  -0.138   0.118 -3.2375 -2.5162  0.2344
  910MOL0     H25543  12.294  -0.119   0.014 -2.7917  1.6771  2.8818
  910MOL0     H25544  12.601  -0.439   0.152 -2.4715  1.6519  2.5872
  910MOL0     H25545  12.701  -0.376   0.024 -0.0829 -2.7223  0.6187
  910MOL0     H25546  12.625  -0.232   0.289  1.6531  1.7948  0.3117
  910MOL0     H25547  12.785  -0.278   0.232  0.0646  0.0826  2.7077
  910MOL0     H25548  12.598  -0.072   0.121  0.3243 -1.7211  2.6347
  910MOL0     H25549  12.752  -0.129   0.033  0.6623  0.1814 -0.4795
  910MOL0     H25550  12.872  -0.072   0.249 -1.3687 -0.4122  3.0259
  910MOL0     H25551  12.734   0.033   0.287 -0.8738  2.1241 -2.5814
  910MOL0     H25552  12.857   0.178   0.213  3.2338  0.9508 -1.0637
  910MOL0     H25553  12.924   0.094   0.077 -1.0782 -1.0826 -1.7244
  910MOL0     H25554  12.624   0.190   0.097 -0.5061 -0.2475  1.0995
  910MOL0     H25555  12.714   0.141  -0.043  2.2562 -0.7228  0.3721
  910MOL0     H25556  12.872   0.341  -0.010  0.9817 -0.2923  1.4368
  910MOL0     H25557  12.779   0.377   0.136  0.7988  1.0147  0.0922
  910MOL0     H25558  12.702   0.528  -0.026 -1.8535  0.5278 -0.3433
  910MOL0     H25559  12.575   0.408  -0.007  0.1712  0.0885 -0.6326
  910MOL0     H25560  12.418  -0.466   0.265 -2.8407 -0.4231  4.5655
  910MOL0     H25561  12.220  -0.457   0.383 -0.5194 -0.6452 -0.0413
  910MOL0     H25562  11.668  -0.437   0.242  0.2280 -0.7164  1.8069
  910MOL0     H25563  11.437  -0.354   0.321  1.6232 -1.7723 -0.9647
  910MOL0     H25564  10.426   1.213   0.846  1.1506 -2.0949 -0.1564
  910MOL0     H25565  10.302   1.397   0.936 -2.0553  0.1369  1.2704
  910MOL0     H25566   9.968   1.502   1.110 -2.9678  0.4689  1.9920
  910MOL0     H25567   9.775   1.621   1.155 -0.5540  0.3468 -0.4214
  910MOL0     H25568   9.582   1.803   1.172 -0.0514 -1.9779  1.1802
  910MOL0     H25569   9.637   1.740   1.324 -3.7526 -0.4788  1.2648
  910MOL0     H25570   9.491   2.003   1.283 -1.3204  0.1618  1.4491
  910MOL0     H25571   9.599   1.983   1.421  0.0440 -1.0672  0.0808
  910MOL0     H25572   9.463   1.776   1.488 -0.3159  2.1640  2.2374
  910MOL0     H25573   9.357   1.917   1.450  0.3873  1.5008 -2.6432
  910MOL0     H25574   9.413   1.676   1.264  3.1213  1.6155  0.9466
  910MOL0     H25575   9.311   1.817   1.221 -1.1000 -1.4281 -1.9941
  910MOL0     H25576   9.075   1.559   1.484 -1.8150  1.1312  0.3377
  910MOL0     H25577   9.996   1.966   1.273  2.0974  0.6556 -1.2590
  910MOL0     H25578  10.290   1.877   1.168  1.3743  0.3593  0.9580
  910MOL0     H25579  10.232   1.930   1.333 -1.9670 -2.5367  2.1982
  910MOL0     H25580  10.325   1.781   1.301  0.5035 -2.1495 -2.0555
  911MOL0     O25581   9.086   7.750  10.149  0.2433 -0.0260  0.4548
  911MOL0     C25582   9.012   7.727  10.243 -0.1955  0.6715  1.0383
  911MOL0     O25583   9.040   7.748  10.372  0.5485 -0.7613 -0.6851
  911MOL0     C25584   9.159   7.813  10.399  0.2245 -0.4590  0.5577
  911MOL0     C25585   9.148   7.906  10.503 -1.1786  0.1838  0.0956
  911MOL0     C25586   9.269   7.973  10.537  0.0912 -0.4157 -0.2067
  911MOL0     C25587   9.396   7.942  10.491 -0.3704  0.2501 -0.0796
  911MOL0     O25588   9.514   8.000  10.537  0.1538  0.8823 -0.1224
  911MOL0     C25589   9.538   8.035  10.676  0.2002  0.5748  0.5246
  911MOL0     C25590   9.638   8.158  10.690 -0.5349  0.9607  1.3614
  911MOL0     C25591   9.763   8.153  10.598 -0.1089  0.9844  0.2024
  911MOL0     C25592   9.736   8.205  10.457  0.5195  0.5524 -0.1014
  911MOL0     C25593   9.863   8.190  10.376  0.1707 -0.9099 -0.7946
  911MOL0     C25594   9.839   8.251  10.234  0.4511  0.3941  0.3327
  911MOL0     C25595   9.933   8.168  10.138  0.1899 -0.4940  0.0748
  911MOL0     C25596  10.085   8.190  10.177  0.8859  0.0381 -0.4028
  911MOL0     N25597  10.134   8.326  10.159 -0.3359  0.0783 -0.6635
  911MOL0     C25598  10.168   8.388  10.044  0.4192  0.0946  0.4698
  911MOL0     C25599  10.215   8.510  10.076  0.4882  0.6735 -0.4871
  911MOL0     C25600  10.249   8.615   9.976 -0.4311 -0.3745 -0.0924
  911MOL0     C25601  10.398   8.660   9.983 -0.1350  0.2260  0.5771
  911MOL0     C25602  10.483   8.535   9.953 -1.0310 -0.5329  0.2033
  911MOL0     C25603  10.621   8.569   9.908 -0.1730  0.4735 -0.4591
  911MOL0     O25604  10.676   8.635  10.020 -0.1171 -0.4213 -1.2602
  911MOL0     C25605  10.794   8.697  10.013  0.5188 -0.3260 -0.1704
  911MOL0     C25606  10.871   8.718   9.900  0.5743 -0.2719  0.5840
  911MOL0     C25607  10.987   8.793   9.910 -0.7220 -0.9658  0.9127
  911MOL0     C25608  11.059   8.812   9.775  0.3248  0.5153 -0.3148
  911MOL0     C25609  11.033   8.847  10.036 -0.0798  0.0388  0.4018
  911MOL0     C25610  11.154   8.931  10.063 -0.2604  0.0199  0.5135
  911MOL0     O25611  11.161   9.003  10.180 -0.3983  0.0596  0.5804
  911MOL0     C25612  11.255   9.109  10.194  0.2476  0.4128 -0.6323
  911MOL0     C25613  11.211   9.232  10.229 -0.3046  0.0904 -0.5859
  911MOL0     C25614  11.295   9.337  10.259  0.1839  0.3546  0.2789
  911MOL0     C25615  11.433   9.314  10.271 -1.0929 -0.3277 -0.0994
  911MOL0     O25616  11.531   9.409  10.309 -0.0667 -0.0402  0.1707
  911MOL0     C25617  11.482   9.544  10.337  0.1597  0.0191 -0.3347
  911MOL0     C25618  11.593   9.646  10.318 -0.1198 -0.0868  0.2190
  911MOL0     C25619  11.710   9.615  10.404  1.0922  0.3454  0.0962
  911MOL0     C25620  11.790   9.748  10.423  0.4479  0.5338 -0.2113
  911MOL0     C25621  11.911   9.745  10.516 -0.4947 -0.9778  0.3593
  911MOL0     C25622  12.006   9.620  10.490 -0.0610 -0.5913  0.0606
  911MOL0     C25623  12.124   9.613  10.595  1.7180  0.0900  1.1957
  911MOL0     C25624  12.223   9.721  10.560 -0.0841 -0.5319  0.4273
  911MOL0    Cl25625  12.342   9.725  10.685 -0.1959  0.0420 -0.1472
  911MOL0     C25626  11.476   9.187  10.234  0.3644 -0.3777  0.0263
  911MOL0     C25627  11.393   9.083  10.196  0.3274  0.0212 -0.0654
  911MOL0     O25628  11.238   8.931   9.978 -0.2050  0.3250 -0.0962
  911MOL0     C25629  10.952   8.819  10.151 -0.5602  0.7412 -0.2757
  911MOL0     C25630  10.832   8.745  10.139 -0.1330 -0.5119 -0.0735
  911MOL0     N25631  10.209   8.526  10.217  0.1447  0.7714  0.2986
  911MOL0     N25632  10.168   8.408  10.267 -0.2932  0.0948  0.4728
  911MOL0     C25633   9.405   7.854  10.378 -0.2226 -0.4485  0.2469
  911MOL0     C25634   9.290   7.782  10.350 -0.1473 -0.8288 -0.0526
  911MOL0     C25635   8.884   7.691  10.199  0.8412 -0.2274  0.4532
  911MOL0     C25636   8.776   7.727  10.276  0.8869 -0.2644 -0.5466
  911MOL0     C25637   8.648   7.704  10.248 -0.0357  1.0701 -0.7402
  911MOL0     C25638   8.615   7.642  10.128  0.8132  0.0098  0.4024
  911MOL0     O25639   8.486   7.628  10.082  0.3795 -0.6554  0.3177
  911MOL0     C25640   8.446   7.496  10.055  0.2677 -0.5899 -0.6745
  911MOL0     C25641   8.308   7.488  10.112  1.3882  0.2582 -0.1950
  911MOL0     C25642   8.200   7.524  10.005  0.0365 -0.8811 -1.1924
  911MOL0     C25643   8.060   7.525  10.071 -0.3548  0.2280  0.4152
  911MOL0     C25644   7.970   7.600   9.985  0.5375 -0.2741 -0.1459
  911MOL0     C25645   7.899   7.679   9.936  0.2876  0.3308 -1.5447
  911MOL0     C25646   8.719   7.603  10.041  0.7499  1.2850  0.3555
  911MOL0     C25647   8.853   7.621  10.074  0.6726 -0.2239 -0.1776
  911MOL0     C25648   8.955   7.558   9.977  0.1960 -0.3251  0.7849
  911MOL0     H25649   9.055   7.913  10.557  0.0156  1.0794  2.1544
  911MOL0     H25650   9.256   8.038  10.623  2.5877 -0.0924  0.0074
  911MOL0     H25651   9.573   7.946  10.728  0.4361 -0.7098 -1.7161
  911MOL0     H25652   9.444   8.066  10.722 -1.0860  0.3175 -1.7622
  911MOL0     H25653   9.590   8.252  10.664 -3.5562 -1.3889 -2.8867
  911MOL0     H25654   9.679   8.163  10.791 -0.8539 -3.0835  1.8519
  911MOL0     H25655   9.840   8.217  10.641  1.9600 -1.3116  0.1275
  911MOL0     H25656   9.789   8.049  10.576  2.5369  2.2178 -3.6717
  911MOL0     H25657   9.649   8.155  10.413  0.1890 -0.4654  1.6165
  911MOL0     H25658   9.711   8.311  10.466  0.7090  0.7169 -1.3961
  911MOL0     H25659   9.887   8.084  10.376  6.9352  0.1935  0.0253
  911MOL0     H25660   9.950   8.232  10.427 -0.5590  0.1885 -0.4121
  911MOL0     H25661   9.737   8.237  10.198  0.9927  0.5472 -1.3084
  911MOL0     H25662   9.873   8.355  10.233 -0.2601  0.6653 -2.5250
  911MOL0     H25663   9.908   8.200  10.037  3.5285  0.9482 -0.4567
  911MOL0     H25664   9.911   8.061  10.143 -3.3938 -0.4262 -5.7298
  911MOL0     H25665  10.104   8.142  10.274  2.2195 -0.8778 -1.0835
  911MOL0     H25666  10.150   8.138  10.106 -0.9155 -1.2567 -1.2088
  911MOL0     H25667  10.150   8.356   9.942  0.1993 -0.0786  0.5635
  911MOL0     H25668  10.192   8.706   9.995  0.1178 -0.5103  2.5160
  911MOL0     H25669  10.236   8.585   9.871  1.0656  1.5267 -0.8824
  911MOL0     H25670  10.423   8.738   9.912  0.0348  0.7634  1.2192
  911MOL0     H25671  10.419   8.687  10.087 -2.2458 -0.9112  1.3727
  911MOL0     H25672  10.503   8.469  10.038 -0.8746 -2.5147 -1.2879
  911MOL0     H25673  10.444   8.476   9.870  2.3553 -0.6910 -1.4422
  911MOL0     H25674  10.674   8.480   9.873  0.5511  0.1319  1.3711
  911MOL0     H25675  10.622   8.635   9.820 -1.3017 -0.3774 -1.1318
  911MOL0     H25676  10.833   8.687   9.803 -0.4926  1.3170  0.4546
  911MOL0     H25677  11.168   8.814   9.783  0.4613 -1.2634 -1.1393
  911MOL0     H25678  11.042   8.910   9.729  1.1286  0.3070 -1.0789
  911MOL0     H25679  11.029   8.735   9.703  3.4449 -0.0824 -1.1551
  911MOL0     H25680  11.108   9.264  10.219  0.3976  2.2889 -1.3228
  911MOL0     H25681  11.251   9.431  10.292 -1.1544  0.0639 -0.5883
  911MOL0     H25682  11.405   9.578  10.268  0.5904  0.9807 -0.3637
  911MOL0     H25683  11.443   9.545  10.439 -0.3494 -1.5635 -0.4885
  911MOL0     H25684  11.625   9.638  10.213 -1.2019 -0.5153 -0.0911
  911MOL0     H25685  11.548   9.743  10.343 -1.1072 -0.8988  1.7297
  911MOL0     H25686  11.774   9.543  10.352  0.3277 -0.9581  0.9058
  911MOL0     H25687  11.686   9.570  10.501 -1.0342  2.9247  0.8886
  911MOL0     H25688  11.727   9.836  10.436  1.6790  1.5605 -0.9674
  911MOL0     H25689  11.825   9.775  10.323 -1.7190  2.6444 -0.4818
  911MOL0     H25690  11.966   9.839  10.504 -0.9552 -0.7622 -0.0937
  911MOL0     H25691  11.873   9.744  10.619  3.1821  4.4507  2.2578
  911MOL0     H25692  12.055   9.619  10.392  0.7246 -1.5598  0.4411
  911MOL0     H25693  11.951   9.525  10.493  1.3941 -1.4677  2.9674
  911MOL0     H25694  12.160   9.510  10.581  0.3972 -0.3358  0.7638
  911MOL0     H25695  12.089   9.630  10.697  1.3653 -1.9796  1.4587
  911MOL0     H25696  12.190   9.824  10.543  2.6006  0.2398 -0.6849
  911MOL0     H25697  12.276   9.688  10.470  0.7420  0.7327  0.4178
  911MOL0     H25698  11.584   9.174  10.231  0.4802  0.4846 -2.9132
  911MOL0     H25699  11.437   8.986  10.176 -0.3236  0.0519 -1.8709
  911MOL0     H25700  10.968   8.857  10.251 -0.9947  0.2272 -0.0027
  911MOL0     H25701  10.768   8.735  10.226 -1.1889 -0.1865 -0.7929
  911MOL0     H25702   9.493   7.816  10.328 -1.9464 -3.3111 -0.8375
  911MOL0     H25703   9.307   7.712  10.269  0.1626  1.7215 -2.3501
  911MOL0     H25704   8.803   7.761  10.376  0.3055  1.4588 -0.9396
  911MOL0     H25705   8.561   7.723  10.309 -1.0728 -0.5063 -1.6732
  911MOL0     H25706   8.435   7.482   9.948 -2.5238 -0.5745 -0.4606
  911MOL0     H25707   8.516   7.427  10.104  0.4946  1.1784  1.6691
  911MOL0     H25708   8.300   7.551  10.201  1.6564 -0.5210  0.3866
  911MOL0     H25709   8.285   7.386  10.146  2.3718 -1.1775 -3.4979
  911MOL0     H25710   8.235   7.628   9.998  3.2140 -1.4282  2.9340
  911MOL0     H25711   8.204   7.476   9.907  0.7546 -0.0086 -1.6020
  911MOL0     H25712   8.060   7.575  10.168 -0.3655 -0.1936  0.6343
  911MOL0     H25713   8.014   7.426  10.081  3.6951 -2.1492 -1.7809
  911MOL0     H25714   7.862   7.756   9.871  2.2450  0.7318 -2.2601
  911MOL0     H25715   8.692   7.550   9.951  1.0673 -1.5311  1.8066
  911MOL0     H25716   8.984   7.640   9.911 -0.0274 -0.6859  0.2376
  911MOL0     H25717   9.049   7.523  10.019  0.5066  0.7191  1.0005
  911MOL0     H25718   8.920   7.475   9.915  2.0469  0.2702 -1.1647
  912MOL0     O25719   5.153   3.434   1.315  0.2112 -0.9279 -0.0572
  912MOL0     C25720   5.180   3.563   1.315  0.2841  1.3667 -0.5604
  912MOL0     O25721   5.311   3.613   1.334  0.3212  0.3122 -0.2753
  912MOL0     C25722   5.418   3.532   1.375 -0.3828 -0.0191  0.3327
  912MOL0     C25723   5.402   3.414   1.456  0.5060  0.4338  0.5820
  912MOL0     C25724   5.512   3.345   1.516  0.2527  0.1878  0.1349
  912MOL0     C25725   5.638   3.403   1.507 -1.2260 -0.0274 -0.1910
  912MOL0     O25726   5.753   3.365   1.577 -0.9952 -0.2969  0.6337
  912MOL0     C25727   5.773   3.231   1.622  0.2223 -0.5821 -1.0868
  912MOL0     C25728   5.931   3.213   1.630  0.0449 -0.5528 -0.1689
  912MOL0     C25729   5.958   3.067   1.671  0.8782 -0.0404  0.4910
  912MOL0     C25730   5.934   3.053   1.821  0.1348 -0.5730  0.3367
  912MOL0     C25731   5.852   2.934   1.866 -0.2088 -0.2587  0.1170
  912MOL0     C25732   5.860   2.930   2.018 -0.2687 -0.0091  0.4469
  912MOL0     C25733   5.761   2.838   2.089  0.2817  0.4984  0.4974
  912MOL0     C25734   5.758   2.695   2.030  0.7531 -0.0587 -0.9923
  912MOL0     N25735   5.869   2.606   2.061 -0.6137  0.0541  0.0159
  912MOL0     C25736   5.983   2.583   1.991 -0.5680 -0.1046 -0.4415
  912MOL0     C25737   6.067   2.522   2.081  0.5088 -0.6432  0.1135
  912MOL0     C25738   6.206   2.499   2.048 -0.1298  0.4515  0.2323
  912MOL0     C25739   6.299   2.610   2.099 -0.4364  0.2434 -0.0334
  912MOL0     C25740   6.245   2.757   2.105 -0.7558 -0.6830  0.4084
  912MOL0     C25741   6.274   2.835   1.973 -0.0688 -0.9672  0.0185
  912MOL0     O25742   6.195   2.776   1.871 -0.7184  0.2590  0.8898
  912MOL0     C25743   6.236   2.796   1.733  0.4329  0.7154 -1.2775
  912MOL0     C25744   6.147   2.751   1.634  1.2629 -0.1895  0.2841
  912MOL0     C25745   6.168   2.758   1.494  0.4834 -0.3650 -0.5927
  912MOL0     C25746   6.075   2.700   1.391  0.2516  0.7606  0.2440
  912MOL0     C25747   6.290   2.815   1.451  0.4412  0.1501 -0.8666
  912MOL0     C25748   6.334   2.831   1.319 -0.6975  0.4040  0.4021
  912MOL0     O25749   6.421   2.935   1.295 -0.1736  0.4755 -0.3722
  912MOL0     C25750   6.501   2.923   1.193 -1.1909 -0.2794  0.2351
  912MOL0     C25751   6.632   2.868   1.211 -0.0114  0.1783 -0.3949
  912MOL0     C25752   6.711   2.863   1.089  0.2998 -0.5710 -0.4643
  912MOL0     C25753   6.675   2.912   0.958 -0.2018 -0.2714  0.2398
  912MOL0     O25754   6.737   2.901   0.836 -0.0302  0.6724  0.5431
  912MOL0     C25755   6.876   2.858   0.836 -0.2377  0.5137  0.3428
  912MOL0     C25756   6.921   2.828   0.695 -0.4377  0.1504 -1.1363
  912MOL0     C25757   7.080   2.811   0.689  1.2160 -0.7299 -0.3459
  912MOL0     C25758   7.137   2.829   0.543  0.6312  0.6751  0.2902
  912MOL0     C25759   7.110   2.965   0.483 -0.1369 -1.0900  0.0887
  912MOL0     C25760   7.207   2.987   0.373  0.3397 -0.5488  0.5363
  912MOL0     C25761   7.213   3.131   0.327 -0.5440 -0.0101 -0.8728
  912MOL0     C25762   7.260   3.161   0.195  1.2163  1.2316  0.5246
  912MOL0    Cl25763   7.132   3.106   0.074 -0.1174  0.3101  0.0162
  912MOL0     C25764   6.545   2.968   0.956 -0.5128 -0.6017 -1.3128
  912MOL0     C25765   6.470   2.986   1.070  1.3166  0.7329 -0.0379
  912MOL0     O25766   6.315   2.744   1.234  0.1082 -0.0217  0.3064
  912MOL0     C25767   6.373   2.868   1.553 -0.2133  0.1458  0.5674
  912MOL0     C25768   6.351   2.854   1.687  0.4346 -0.2037 -0.2281
  912MOL0     N25769   6.000   2.515   2.199  0.4425 -0.6376 -0.7329
  912MOL0     N25770   5.889   2.563   2.193  1.0341 -0.4435 -0.3797
  912MOL0     C25771   5.648   3.519   1.426  0.3155  0.0358  0.1451
  912MOL0     C25772   5.543   3.585   1.362 -0.0014  0.2282  0.7010
  912MOL0     C25773   5.063   3.655   1.278 -0.2932  0.3510 -0.0149
  912MOL0     C25774   4.953   3.595   1.222 -0.7877 -0.6103 -0.1144
  912MOL0     C25775   4.847   3.671   1.173  0.2013  0.4867 -0.6492
  912MOL0     C25776   4.850   3.816   1.176  0.5008  0.1074  0.0089
  912MOL0     O25777   4.745   3.882   1.117  0.6240 -0.4343  0.0960
  912MOL0     C25778   4.778   4.016   1.062 -0.5294  0.3179  1.0187
  912MOL0     C25779   4.718   4.015   0.923 -0.5860 -0.0622  0.5416
  912MOL0     C25780   4.707   4.160   0.870 -0.8430 -0.4832 -0.3839
  912MOL0     C25781   4.650   4.164   0.730  0.7782 -0.3489  0.7457
  912MOL0     C25782   4.511   4.119   0.706  0.1342 -0.2310 -0.5261
  912MOL0     C25783   4.392   4.086   0.694 -0.3370 -0.3142 -0.3030
  912MOL0     C25784   4.961   3.869   1.231 -0.2421 -0.6528  0.3185
  912MOL0     C25785   5.073   3.802   1.283  0.3950 -0.0025  0.3621
  912MOL0     C25786   5.198   3.869   1.339  0.9698  0.7895  0.0564
  912MOL0     H25787   5.303   3.368   1.461  0.1078  0.6991 -2.7156
  912MOL0     H25788   5.504   3.252   1.571 -0.0333 -0.4275 -0.9386
  912MOL0     H25789   5.743   3.159   1.546  1.3233 -1.5850 -0.6212
  912MOL0     H25790   5.721   3.230   1.718  4.6174  0.9076  1.6231
  912MOL0     H25791   5.978   3.232   1.533 -0.9111  2.2821 -0.1526
  912MOL0     H25792   5.978   3.290   1.692 -0.0374 -2.1170  1.9875
  912MOL0     H25793   5.905   2.991   1.615  1.7196 -0.6676  0.5329
  912MOL0     H25794   6.065   3.065   1.649  1.0518 -0.9871  1.3732
  912MOL0     H25795   6.038   3.041   1.853  0.9119  1.9821 -1.0015
  912MOL0     H25796   5.887   3.142   1.864 -0.9599 -1.4664  1.0830
  912MOL0     H25797   5.892   2.842   1.824 -2.9342 -0.3997 -2.4524
  912MOL0     H25798   5.751   2.944   1.826  0.1453 -0.6948 -0.9074
  912MOL0     H25799   5.959   2.906   2.057 -0.8429 -2.2541  0.6092
  912MOL0     H25800   5.844   3.032   2.055  0.8495  0.3740 -0.0617
  912MOL0     H25801   5.660   2.878   2.083  0.4461  0.8240 -0.1605
  912MOL0     H25802   5.783   2.835   2.196 -2.2142 -2.2446  1.0548
  912MOL0     H25803   5.672   2.644   2.074 -1.0080  1.8820 -2.0337
  912MOL0     H25804   5.747   2.695   1.921 -2.6786  0.0784 -0.7383
  912MOL0     H25805   6.013   2.616   1.892  0.5536  1.8090  0.4910
  912MOL0     H25806   6.218   2.495   1.939 -0.7590  0.3916  0.1640
  912MOL0     H25807   6.235   2.404   2.094 -2.3313 -1.1664 -1.5086
  912MOL0     H25808   6.332   2.574   2.197 -1.1159 -1.3328 -0.3689
  912MOL0     H25809   6.388   2.613   2.036  0.0667 -0.2115  0.6334
  912MOL0     H25810   6.139   2.760   2.129 -1.1996 -0.2111 -1.4393
  912MOL0     H25811   6.293   2.812   2.187 -0.0106 -2.0138  0.8980
  912MOL0     H25812   6.255   2.941   1.992  0.5276 -1.2241  2.4616
  912MOL0     H25813   6.379   2.820   1.946  0.7785  1.3812  1.6528
  912MOL0     H25814   6.055   2.710   1.674 -0.7666  1.2309 -2.6078
  912MOL0     H25815   6.068   2.770   1.307 -0.9243 -1.5224 -1.6815
  912MOL0     H25816   5.974   2.678   1.428  0.5286  4.3815  3.9160
  912MOL0     H25817   6.118   2.608   1.352  5.6487  2.6167  0.9438
  912MOL0     H25818   6.656   2.815   1.303  0.7245 -0.1841 -0.7831
  912MOL0     H25819   6.809   2.817   1.087  0.0120 -1.3556 -3.8040
  912MOL0     H25820   6.933   2.935   0.889 -0.3629  0.0831  1.1236
  912MOL0     H25821   6.893   2.767   0.893  0.1689  0.8157  0.7057
  912MOL0     H25822   6.869   2.742   0.652 -0.6287 -0.8741  0.9901
  912MOL0     H25823   6.895   2.914   0.633 -0.1427  1.0007 -0.1130
  912MOL0     H25824   7.108   2.712   0.725  2.1534 -0.0931  0.7154
  912MOL0     H25825   7.133   2.886   0.748 -0.5601 -0.9718  1.6539
  912MOL0     H25826   7.087   2.750   0.485 -0.3209  0.8495  0.8468
  912MOL0     H25827   7.243   2.816   0.564  0.1966 -1.5197  1.4537
  912MOL0     H25828   7.013   2.963   0.433 -0.3876  1.5329  0.3579
  912MOL0     H25829   7.122   3.046   0.556  2.3750 -0.0259 -1.3745
  912MOL0     H25830   7.178   2.931   0.284 -3.1715  1.8574 -0.0651
  912MOL0     H25831   7.305   2.951   0.404  1.6057  0.4880 -1.9822
  912MOL0     H25832   7.274   3.186   0.400 -2.7967  0.3131  0.9253
  912MOL0     H25833   7.112   3.174   0.334 -0.1575  0.7333  0.6211
  912MOL0     H25834   7.339   3.091   0.166 -0.1205  0.8734 -2.6118
  912MOL0     H25835   7.287   3.266   0.185 -0.0959  1.4169 -1.7475
  912MOL0     H25836   6.490   3.013   0.874 -2.0148  0.2017  0.0685
  912MOL0     H25837   6.378   3.044   1.062  1.2909  0.8778  1.2354
  912MOL0     H25838   6.472   2.906   1.532  1.2200 -3.6476 -0.3723
  912MOL0     H25839   6.431   2.888   1.751  0.5521 -1.1844  0.1595
  912MOL0     H25840   5.745   3.567   1.418 -0.3085  1.3358  0.0542
  912MOL0     H25841   5.566   3.675   1.306  2.9463 -0.4375  0.6748
  912MOL0     H25842   4.950   3.487   1.216 -1.7721 -0.5170 -3.0275
  912MOL0     H25843   4.766   3.620   1.122 -1.5761  3.7335 -1.4184
  912MOL0     H25844   4.733   4.085   1.133 -2.0200 -0.2053  0.6331
  912MOL0     H25845   4.884   4.042   1.058 -1.1152  2.8606  0.6825
  912MOL0     H25846   4.615   3.977   0.919  0.0590 -1.8521 -0.2685
  912MOL0     H25847   4.787   3.961   0.858  1.9522  2.2324  1.1228
  912MOL0     H25848   4.644   4.222   0.934  0.6440  0.8046 -0.1055
  912MOL0     H25849   4.804   4.212   0.871 -0.0230 -1.9527 -0.4978
  912MOL0     H25850   4.714   4.120   0.652  1.6065 -0.7504  1.6253
  912MOL0     H25851   4.646   4.270   0.704  0.1443  0.0353  2.2956
  912MOL0     H25852   4.300   4.042   0.661 -0.7833 -2.4066  3.1817
  912MOL0     H25853   4.975   3.977   1.223  2.5322 -1.0330 -1.7190
  912MOL0     H25854   5.169   3.971   1.365  0.0547  0.3300  0.9574
  912MOL0     H25855   5.237   3.817   1.427 -1.1017 -0.0935  0.5117
  912MOL0     H25856   5.273   3.867   1.260 -0.5422 -1.5371 -1.4442
  913MOL0     O25857   8.116   6.858   6.619  0.3793  0.8043  0.1429
  913MOL0     C25858   8.024   6.796   6.681 -0.0064 -0.4438  0.6756
  913MOL0     O25859   8.045   6.712   6.776 -0.3145 -0.0659  0.1507
  913MOL0     C25860   8.163   6.699   6.822  0.0124 -0.2577 -1.0057
  913MOL0     C25861   8.218   6.571   6.820 -0.4399 -0.4052  0.4819
  913MOL0     C25862   8.330   6.525   6.895 -0.5619 -0.6130  0.4849
  913MOL0     C25863   8.407   6.633   6.952  0.0016 -0.0499  0.3514
  913MOL0     O25864   8.528   6.619   7.002 -0.8671  0.5186  0.1294
  913MOL0     C25865   8.568   6.478   7.033 -0.9197 -0.1886 -0.7685
  913MOL0     C25866   8.718   6.471   7.068 -0.1092  0.2602 -0.1508
  913MOL0     C25867   8.813   6.503   6.957 -0.4008 -0.0292  0.3883
  913MOL0     C25868   8.760   6.460   6.822 -0.4472 -0.8040  0.0899
  913MOL0     C25869   8.878   6.487   6.724 -0.9326  0.5768 -0.9230
  913MOL0     C25870   8.852   6.448   6.576  0.2973  0.4007 -0.4638
  913MOL0     C25871   8.978   6.453   6.499 -0.5710  0.0465  0.4324
  913MOL0     C25872   8.947   6.482   6.348 -0.3220  0.4432  0.0932
  913MOL0     N25873   9.064   6.503   6.259  0.4390  0.0699  0.4123
  913MOL0     C25874   9.133   6.410   6.185 -0.0003  0.0539  0.6914
  913MOL0     C25875   9.227   6.483   6.116 -1.1752  0.1961 -0.1638
  913MOL0     C25876   9.316   6.439   6.009 -0.3207  0.0224  0.2218
  913MOL0     C25877   9.428   6.538   5.967 -0.0933  0.1153  0.2013
  913MOL0     C25878   9.371   6.649   5.877  0.2585 -0.0763 -0.2034
  913MOL0     C25879   9.490   6.735   5.822 -0.6296  0.7270 -0.3855
  913MOL0     O25880   9.546   6.831   5.924 -0.2727  0.3432 -0.1784
  913MOL0     C25881   9.680   6.834   5.922 -0.5686 -0.0626  0.9717
  913MOL0     C25882   9.757   6.791   6.025 -0.7191 -0.0595 -0.5141
  913MOL0     C25883   9.899   6.799   6.034  1.0031 -0.5680  0.7410
  913MOL0     C25884   9.965   6.774   6.167 -0.2036  0.6805 -0.6703
  913MOL0     C25885   9.965   6.858   5.915 -0.4160 -0.3793 -0.6268
  913MOL0     C25886  10.117   6.885   5.914 -0.1025 -0.6921  0.2896
  913MOL0     O25887  10.191   6.799   5.985 -0.2199 -0.3099 -0.3645
  913MOL0     C25888  10.328   6.803   5.982 -0.4775  0.4647  0.7435
  913MOL0     C25889  10.402   6.776   5.865 -0.1659 -0.2202 -0.3990
  913MOL0     C25890  10.538   6.772   5.869 -0.2861 -0.4535  0.6104
  913MOL0     C25891  10.611   6.806   5.983  0.2209  1.1357 -0.0277
  913MOL0     O25892  10.745   6.811   5.988 -0.1572 -0.0924 -0.0482
  913MOL0     C25893  10.801   6.679   6.005  0.1969  0.0561  0.2748
  913MOL0     C25894  10.940   6.674   5.950 -0.1651 -0.3858 -0.0491
  913MOL0     C25895  10.952   6.709   5.801  0.2008  0.1324  1.0985
  913MOL0     C25896  11.098   6.739   5.761 -0.6963  0.0661  0.1999
  913MOL0     C25897  11.101   6.802   5.620  0.1593 -0.1179 -0.6767
  913MOL0     C25898  11.242   6.840   5.578  0.1640  0.0034 -0.3608
  913MOL0     C25899  11.354   6.733   5.573 -0.0345 -0.0734 -0.5777
  913MOL0     C25900  11.493   6.795   5.579 -0.9207  0.6051  0.1904
  913MOL0    Cl25901  11.533   6.878   5.738 -0.0046  0.0763  0.2827
  913MOL0     C25902  10.539   6.836   6.097  0.1034 -0.0243 -0.3621
  913MOL0     C25903  10.399   6.833   6.099 -0.1536  0.3975 -0.6513
  913MOL0     O25904  10.162   6.975   5.844  0.6164  0.0837  1.0084
  913MOL0     C25905   9.889   6.898   5.805 -0.0528 -0.9211 -0.1999
  913MOL0     C25906   9.747   6.887   5.812  0.0889 -0.0110  0.3148
  913MOL0     N25907   9.207   6.617   6.144  0.1989  0.2931  0.6287
  913MOL0     N25908   9.109   6.624   6.229 -0.2333 -0.2193  0.6851
  913MOL0     C25909   8.363   6.760   6.936  0.8016 -0.1085  0.1634
  913MOL0     C25910   8.243   6.792   6.876  0.5575 -0.1363  0.4650
  913MOL0     C25911   7.877   6.824   6.658 -0.1107  0.8795  0.8682
  913MOL0     C25912   7.774   6.748   6.728  0.1327  0.1243  0.3445
  913MOL0     C25913   7.631   6.753   6.703  0.1453 -0.2559 -0.1567
  913MOL0     C25914   7.592   6.847   6.613  0.5646 -0.1555  0.5955
  913MOL0     O25915   7.457   6.875   6.586  0.1401  0.2876 -0.4467
  913MOL0     C25916   7.360   6.867   6.683 -0.3763  0.4143 -0.2998
  913MOL0     C25917   7.262   6.972   6.647  0.3513  0.7384  0.5568
  913MOL0     C25918   7.327   7.105   6.637 -0.3611  0.3885  0.1144
  913MOL0     C25919   7.263   7.214   6.721  0.0124  0.0474 -0.6165
  913MOL0     C25920   7.349   7.331   6.730 -0.0420  0.2501  0.6494
  913MOL0     C25921   7.405   7.431   6.749  0.1556 -0.1389  0.3579
  913MOL0     C25922   7.683   6.923   6.540 -0.0430 -0.1686  0.8982
  913MOL0     C25923   7.826   6.906   6.556 -0.1810 -0.0059 -0.6650
  913MOL0     C25924   7.907   6.974   6.446  0.0160  0.0730 -0.0590
  913MOL0     H25925   8.162   6.498   6.762 -3.1247  0.1184  2.2637
  913MOL0     H25926   8.362   6.422   6.888  2.3889  0.2430  0.1825
  913MOL0     H25927   8.541   6.407   6.955  1.0697  1.8100 -3.4829
  913MOL0     H25928   8.512   6.440   7.119  0.7014 -1.1991 -0.1149
  913MOL0     H25929   8.743   6.552   7.138  0.5653 -0.1128  0.0585
  913MOL0     H25930   8.750   6.379   7.118  1.2563  0.9876  0.3685
  913MOL0     H25931   8.839   6.609   6.964 -0.9422  0.0692  1.0112
  913MOL0     H25932   8.902   6.440   6.965 -0.9761 -0.6754  2.0679
  913MOL0     H25933   8.730   6.356   6.812 -2.7318 -0.0569 -1.7794
  913MOL0     H25934   8.672   6.522   6.800  0.2808  0.1462 -0.2071
  913MOL0     H25935   8.965   6.431   6.760  1.5279  3.6988 -1.5095
  913MOL0     H25936   8.910   6.591   6.731 -2.6384  1.0489  0.5986
  913MOL0     H25937   8.809   6.348   6.561  1.3034  0.4255 -4.4164
  913MOL0     H25938   8.782   6.520   6.535  0.7717  1.0455 -0.1502
  913MOL0     H25939   9.033   6.359   6.510 -0.0112  0.2853 -0.2692
  913MOL0     H25940   9.045   6.532   6.532  0.9594 -1.3099  0.6948
  913MOL0     H25941   8.898   6.393   6.307  1.8142 -1.9390  2.3262
  913MOL0     H25942   8.885   6.571   6.337 -1.4445 -0.3084  0.1182
  913MOL0     H25943   9.111   6.305   6.173 -3.2466  0.6589  0.3673
  913MOL0     H25944   9.254   6.410   5.924 -1.9279  0.1867  1.2987
  913MOL0     H25945   9.366   6.347   6.040 -0.4166 -1.3377 -3.2192
  913MOL0     H25946   9.474   6.586   6.054  2.1943  0.0560 -0.8972
  913MOL0     H25947   9.508   6.486   5.914 -3.5047 -1.1033 -4.2862
  913MOL0     H25948   9.311   6.606   5.797 -0.5961 -1.4231  1.1125
  913MOL0     H25949   9.311   6.714   5.942 -0.0991 -1.9727  1.4677
  913MOL0     H25950   9.569   6.665   5.793  0.7596  2.2155 -0.3686
  913MOL0     H25951   9.457   6.783   5.729  1.9060 -1.1046 -2.3971
  913MOL0     H25952   9.694   6.767   6.110 -0.5196  0.5344 -0.1877
  913MOL0     H25953  10.043   6.697   6.169  0.6007  1.4755 -0.4467
  913MOL0     H25954   9.893   6.758   6.247 -1.1818  2.2517 -1.1803
  913MOL0     H25955  10.018   6.862   6.206  1.7241 -1.7198  2.5684
  913MOL0     H25956  10.342   6.760   5.776 -0.2431 -1.1713 -0.1844
  913MOL0     H25957  10.585   6.738   5.777 -0.9388  4.9884 -2.1120
  913MOL0     H25958  10.811   6.650   6.110 -1.1571  0.8767  0.6485
  913MOL0     H25959  10.733   6.601   5.971  1.1941 -1.3429  1.3378
  913MOL0     H25960  11.007   6.740   6.007  0.4875 -1.3051  0.2757
  913MOL0     H25961  10.973   6.570   5.961  1.6759  0.3291  2.0336
  913MOL0     H25962  10.888   6.791   5.766 -0.6337 -1.3302 -1.0507
  913MOL0     H25963  10.910   6.625   5.745  0.5244  1.5885 -1.4801
  913MOL0     H25964  11.144   6.640   5.750  2.5127  1.6135 -1.8616
  913MOL0     H25965  11.161   6.803   5.823 -0.0971 -1.0799  0.7960
  913MOL0     H25966  11.053   6.746   5.540 -0.3350  0.8595 -1.0858
  913MOL0     H25967  11.040   6.893   5.620 -3.3635 -2.2688 -2.2733
  913MOL0     H25968  11.280   6.921   5.640  1.7150 -0.6945 -0.3643
  913MOL0     H25969  11.241   6.897   5.485 -0.2850 -0.5092 -0.6709
  913MOL0     H25970  11.351   6.665   5.488  0.9050 -0.2495 -0.4865
  913MOL0     H25971  11.346   6.672   5.663  1.9583  0.4418 -0.0011
  913MOL0     H25972  11.517   6.863   5.497  0.9580  1.5065  1.4301
  913MOL0     H25973  11.564   6.712   5.574 -1.0173  0.5164  0.2705
  913MOL0     H25974  10.580   6.875   6.190  1.8009 -0.5273 -0.8613
  913MOL0     H25975  10.345   6.852   6.191  1.0851  0.4888  0.0859
  913MOL0     H25976   9.926   6.942   5.713 -1.9780 -1.5061 -1.3217
  913MOL0     H25977   9.682   6.923   5.733 -0.2341 -0.3891  0.4066
  913MOL0     H25978   8.428   6.838   6.974  0.7977 -0.1202  0.1956
  913MOL0     H25979   8.205   6.892   6.893  0.3290 -0.1802  0.2266
  913MOL0     H25980   7.809   6.702   6.820 -0.7489 -1.8950 -0.2771
  913MOL0     H25981   7.558   6.699   6.764 -0.3574 -0.4917 -0.9592
  913MOL0     H25982   7.321   6.765   6.677  3.4330 -1.5687  3.3244
  913MOL0     H25983   7.410   6.878   6.779  1.1102 -0.2014 -0.9809
  913MOL0     H25984   7.167   6.974   6.702  1.3459  0.7815  2.3475
  913MOL0     H25985   7.227   6.948   6.546  2.0177  1.7196 -0.2980
  913MOL0     H25986   7.431   7.094   6.669  0.3366 -1.2134 -2.4240
  913MOL0     H25987   7.338   7.147   6.536  1.0788  1.9097  0.8412
  913MOL0     H25988   7.247   7.168   6.819  1.0176 -1.6465 -1.2132
  913MOL0     H25989   7.163   7.244   6.687 -0.8454  1.2595  2.5780
  913MOL0     H25990   7.451   7.525   6.775 -2.6993  1.4248  0.1568
  913MOL0     H25991   7.648   7.003   6.476 -2.3809 -0.3896  1.8051
  913MOL0     H25992   7.973   6.909   6.386  0.0281  1.0544 -1.1508
  913MOL0     H25993   7.844   7.008   6.363  0.6736 -1.1981 -1.1271
  913MOL0     H25994   7.960   7.063   6.482  0.2942  0.6218 -1.7039
  914MOL0     O25995   3.485   9.485   2.000 -0.9975 -0.0645 -0.3354
  914MOL0     C25996   3.519   9.603   1.995  0.1857  0.0537  0.7555
  914MOL0     O25997   3.653   9.646   2.004  0.3355  0.1518 -0.2860
  914MOL0     C25998   3.748   9.536   2.013  0.0977  0.3915  0.1946
  914MOL0     C25999   3.753   9.474   2.136 -0.7516  0.4662  0.1392
  914MOL0     C26000   3.850   9.374   2.161  1.4283  0.0357 -0.5332
  914MOL0     C26001   3.966   9.371   2.076  0.9641  0.9088  0.5353
  914MOL0     O26002   4.077   9.301   2.106 -0.0342 -0.6969  0.0961
  914MOL0     C26003   4.106   9.246   2.243  0.1594 -0.2528 -0.4977
  914MOL0     C26004   4.245   9.293   2.294  0.2570  0.4906  0.4756
  914MOL0     C26005   4.278   9.222   2.426  1.2247 -0.2781 -0.4315
  914MOL0     C26006   4.420   9.221   2.477  0.4040 -0.1708  0.0826
  914MOL0     C26007   4.510   9.117   2.400  1.3718 -0.3784 -0.7267
  914MOL0     C26008   4.657   9.108   2.424 -0.4130  0.2298  0.1815
  914MOL0     C26009   4.699   9.084   2.567 -0.6366 -0.5671 -0.6915
  914MOL0     C26010   4.842   9.122   2.611  0.2316  1.2158 -0.6746
  914MOL0     N26011   4.922   8.997   2.609  0.0432  0.1302  0.2826
  914MOL0     C26012   4.924   8.895   2.508  0.0777 -0.0462  0.8701
  914MOL0     C26013   5.021   8.811   2.544 -0.8156 -0.0365 -0.4238
  914MOL0     C26014   5.065   8.698   2.457  0.4424  0.4932 -0.5687
  914MOL0     C26015   5.146   8.741   2.334 -0.6320  0.1955  0.5183
  914MOL0     C26016   5.284   8.779   2.392  0.1648  0.0238  0.4220
  914MOL0     C26017   5.399   8.796   2.290  0.1895 -0.2621  0.8951
  914MOL0     O26018   5.379   8.706   2.181  0.0940 -0.2842 -0.1974
  914MOL0     C26019   5.492   8.680   2.104  0.2662  0.2454  0.9363
  914MOL0     C26020   5.626   8.709   2.133 -0.3825 -0.2836 -0.0552
  914MOL0     C26021   5.720   8.670   2.037  0.4444 -0.0322  0.1940
  914MOL0     C26022   5.859   8.721   2.066 -0.4698  0.3309 -1.2715
  914MOL0     C26023   5.684   8.610   1.914 -0.5460 -0.0090  0.6156
  914MOL0     C26024   5.779   8.575   1.811 -0.4835 -0.1227  0.9361
  914MOL0     O26025   5.910   8.559   1.846  0.2678  0.2874  0.6782
  914MOL0     C26026   6.002   8.523   1.758 -0.1209 -0.4225 -0.0130
  914MOL0     C26027   6.038   8.389   1.725  0.0773  0.3514 -0.2866
  914MOL0     C26028   6.157   8.363   1.654 -0.5924 -0.3457  0.6319
  914MOL0     C26029   6.245   8.466   1.612 -0.0993 -0.7075  0.0703
  914MOL0     O26030   6.356   8.451   1.529  0.1632  0.3811  0.2429
  914MOL0     C26031   6.436   8.333   1.525 -0.3760  0.4818  0.7135
  914MOL0     C26032   6.524   8.319   1.648 -0.1544  0.3258  0.8493
  914MOL0     C26033   6.593   8.183   1.674  0.0900 -0.7111 -0.2971
  914MOL0     C26034   6.676   8.108   1.569  0.4039  0.5646  0.0122
  914MOL0     C26035   6.797   8.187   1.519 -0.4935 -0.1013 -0.9733
  914MOL0     C26036   6.885   8.228   1.649  0.3566  0.2637  0.0427
  914MOL0     C26037   7.027   8.279   1.596  1.0941 -0.5183 -0.1200
  914MOL0     C26038   7.023   8.412   1.518 -0.4136 -0.4087  0.3884
  914MOL0    Cl26039   7.180   8.470   1.484  0.0952 -0.5570 -0.0088
  914MOL0     C26040   6.204   8.600   1.639  0.0176  0.3354  0.6781
  914MOL0     C26041   6.086   8.622   1.710 -0.7686  0.0253 -1.0763
  914MOL0     O26042   5.743   8.574   1.691  1.0660  0.4595 -0.1479
  914MOL0     C26043   5.545   8.580   1.889 -1.0423 -0.6260  0.4649
  914MOL0     C26044   5.458   8.621   1.983 -0.1430  0.3685 -0.1507
  914MOL0     N26045   5.068   8.843   2.673  0.9119 -0.0604  0.4334
  914MOL0     N26046   5.005   8.954   2.705 -0.6096  0.5138 -0.4666
  914MOL0     C26047   3.962   9.432   1.950  0.4253 -0.1672  0.2495
  914MOL0     C26048   3.850   9.519   1.918  0.6498  0.2435  0.4031
  914MOL0     C26049   3.412   9.702   1.979 -0.3468  0.2701 -0.7722
  914MOL0     C26050   3.455   9.834   1.935  0.3646 -0.3259  0.1873
  914MOL0     C26051   3.368   9.936   1.918 -0.8574  0.3660 -0.6112
  914MOL0     C26052   3.235   9.922   1.931  1.4315 -0.0573 -0.2317
  914MOL0     O26053   3.144  10.031   1.907 -0.5331 -0.4932  0.1667
  914MOL0     C26054   3.017  10.031   1.966 -0.9528 -0.2335  0.4936
  914MOL0     C26055   2.940  10.126   1.879 -0.3474 -0.0370  0.2428
  914MOL0     C26056   2.786  10.133   1.900  0.3893  0.0137 -0.6807
  914MOL0     C26057   2.761  10.221   2.026  0.5669  0.1124  0.1476
  914MOL0     C26058   2.619  10.213   2.074  0.2940 -0.2520  1.1269
  914MOL0     C26059   2.504  10.215   2.111 -0.4245  0.2482  0.1201
  914MOL0     C26060   3.186   9.792   1.970 -1.0587  0.6697 -0.1403
  914MOL0     C26061   3.274   9.685   1.998  0.5077 -0.0553 -0.8182
  914MOL0     C26062   3.212   9.565   2.055 -0.5758  0.2414 -0.2343
  914MOL0     H26063   3.680   9.499   2.212  0.3129 -1.9643  2.1037
  914MOL0     H26064   3.824   9.317   2.250  4.4002  0.4214  0.6976
  914MOL0     H26065   4.115   9.137   2.241 -0.8822 -0.3605  0.0848
  914MOL0     H26066   4.029   9.266   2.317 -0.5837 -1.9274 -0.7645
  914MOL0     H26067   4.308   9.276   2.206  1.2996 -1.8288  1.5769
  914MOL0     H26068   4.227   9.398   2.315  1.9032  0.9645 -0.3248
  914MOL0     H26069   4.217   9.259   2.508  0.9527 -1.1244 -0.2398
  914MOL0     H26070   4.236   9.121   2.421 -1.8678  0.9384 -1.1739
  914MOL0     H26071   4.467   9.320   2.477 -1.9847  1.0778 -1.3779
  914MOL0     H26072   4.416   9.187   2.581  1.2560  0.7144  0.4219
  914MOL0     H26073   4.483   9.138   2.296 -1.1545 -0.6675 -0.1875
  914MOL0     H26074   4.464   9.018   2.405 -1.8325  1.0161 -0.1582
  914MOL0     H26075   4.699   9.032   2.357 -1.9206 -0.1685 -0.3567
  914MOL0     H26076   4.711   9.197   2.390  0.4165 -0.2449  0.2240
  914MOL0     H26077   4.682   8.979   2.593 -2.1504  0.2921  2.3793
  914MOL0     H26078   4.632   9.139   2.634 -0.4238  0.9109 -1.6259
  914MOL0     H26079   4.877   9.192   2.534 -0.6425 -0.9308 -3.1572
  914MOL0     H26080   4.843   9.165   2.712 -1.5203 -2.0708  0.9152
  914MOL0     H26081   4.862   8.896   2.419 -2.0402  0.7076  2.2728
  914MOL0     H26082   4.969   8.653   2.429  1.5353 -1.3052 -1.5807
  914MOL0     H26083   5.124   8.629   2.518  0.6017 -0.7611 -2.0822
  914MOL0     H26084   5.155   8.656   2.265  0.0676 -1.0762  2.0968
  914MOL0     H26085   5.094   8.823   2.283 -0.5835 -1.7788 -3.0299
  914MOL0     H26086   5.274   8.872   2.450  0.9151  1.1130 -1.1093
  914MOL0     H26087   5.316   8.706   2.466  1.4718  1.4737  1.3720
  914MOL0     H26088   5.407   8.900   2.255  0.1174 -0.8181 -0.8457
  914MOL0     H26089   5.488   8.768   2.346  0.6955 -1.2841 -0.3844
  914MOL0     H26090   5.667   8.765   2.216 -0.8025  0.2709 -0.2174
  914MOL0     H26091   5.923   8.635   2.084  0.3848  1.1462 -0.3353
  914MOL0     H26092   5.860   8.786   2.153 -0.7617  0.9684 -1.7319
  914MOL0     H26093   5.900   8.781   1.983 -0.1355  1.5944 -0.2307
  914MOL0     H26094   5.978   8.309   1.767 -4.6697  4.0533  0.8887
  914MOL0     H26095   6.188   8.265   1.620 -0.0858  0.5255 -1.5643
  914MOL0     H26096   6.375   8.242   1.522  1.7171 -1.0296  1.5437
  914MOL0     H26097   6.494   8.356   1.434 -0.4186  1.9567  1.0361
  914MOL0     H26098   6.608   8.390   1.640  0.7461 -0.8984 -3.9851
  914MOL0     H26099   6.456   8.331   1.732  0.7076  1.4006  1.4378
  914MOL0     H26100   6.518   8.108   1.703  0.2545 -0.1976  1.6017
  914MOL0     H26101   6.646   8.181   1.770  1.1027  1.6460 -0.7395
  914MOL0     H26102   6.628   8.086   1.473  3.2383  3.8192 -2.4420
  914MOL0     H26103   6.694   8.011   1.616 -2.5121  0.2942  0.7608
  914MOL0     H26104   6.856   8.122   1.454 -0.3239 -0.7769 -0.1490
  914MOL0     H26105   6.771   8.272   1.455 -1.5349  0.9519  0.7482
  914MOL0     H26106   6.884   8.147   1.722 -1.2055  1.2208  1.1486
  914MOL0     H26107   6.833   8.315   1.690  0.1698 -1.1138  2.9506
  914MOL0     H26108   7.073   8.206   1.529  0.5841  0.2939 -1.3776
  914MOL0     H26109   7.091   8.299   1.683  1.0144 -0.3364 -0.1024
  914MOL0     H26110   6.975   8.479   1.590  0.7931 -1.0682  1.8578
  914MOL0     H26111   6.962   8.400   1.429 -1.2154 -3.1807  1.2074
  914MOL0     H26112   6.257   8.686   1.598  0.9054 -0.9808 -1.0881
  914MOL0     H26113   6.065   8.727   1.725  4.1512  1.0957  0.0441
  914MOL0     H26114   5.502   8.547   1.795 -0.1591  0.1169 -0.2258
  914MOL0     H26115   5.353   8.612   1.959 -0.0481  1.6208 -1.1647
  914MOL0     H26116   4.047   9.431   1.882  0.6100  1.6510  0.4116
  914MOL0     H26117   3.851   9.584   1.831 -0.7076 -1.1783 -0.7212
  914MOL0     H26118   3.561   9.856   1.930  0.3331  1.2339  3.6951
  914MOL0     H26119   3.399  10.028   1.869 -1.1885 -0.5569 -2.6909
  914MOL0     H26120   2.974   9.930   1.961 -1.0449 -0.2396  1.2940
  914MOL0     H26121   3.020  10.058   2.072 -3.2668 -0.7038  0.7320
  914MOL0     H26122   2.943  10.075   1.782 -0.3225  1.3409 -0.5005
  914MOL0     H26123   2.986  10.224   1.864  0.9886 -0.6059  0.4165
  914MOL0     H26124   2.739  10.180   1.813  0.2681  1.5015  0.1412
  914MOL0     H26125   2.745  10.033   1.911 -1.3187  0.9358  2.3268
  914MOL0     H26126   2.788  10.323   1.999  0.0388  0.0859 -0.4925
  914MOL0     H26127   2.828  10.196   2.109 -0.0345  2.3870  1.3776
  914MOL0     H26128   2.399  10.207   2.129 -0.4102  1.0694  0.6026
  914MOL0     H26129   3.084   9.770   1.998 -0.0181 -2.5963  1.6913
  914MOL0     H26130   3.254   9.543   2.153 -1.7301  1.2566  0.5183
  914MOL0     H26131   3.103   9.553   2.055 -0.6685  0.7142 -2.3291
  914MOL0     H26132   3.243   9.486   1.986 -1.8166 -2.1105  1.7515
  915MOL0     O26133   8.797  10.948  10.534 -0.5081 -0.5823 -0.1726
  915MOL0     C26134   8.785  11.064  10.565  1.0299 -0.2334  0.9428
  915MOL0     O26135   8.883  11.158  10.548  0.5429  0.1104  0.1594
  915MOL0     C26136   8.998  11.119  10.482 -0.7959 -0.4554  0.2987
  915MOL0     C26137   9.111  11.177  10.539 -0.0252  1.3401  0.3697
  915MOL0     C26138   9.239  11.148  10.476 -0.1093  0.6858 -0.7432
  915MOL0     C26139   9.246  11.062  10.369 -0.1155  0.4342 -0.2283
  915MOL0     O26140   9.363  11.021  10.315 -0.1197  0.0835 -0.3030
  915MOL0     C26141   9.472  11.104  10.308 -0.9329  0.0692  0.0434
  915MOL0     C26142   9.451  11.217  10.206  0.6915 -0.2979  0.6026
  915MOL0     C26143   9.425  11.168  10.059 -0.4822  0.2678 -0.6007
  915MOL0     C26144   9.488  11.262   9.949  0.2882 -0.3281 -0.4067
  915MOL0     C26145   9.633  11.286   9.953  1.0536 -0.8676 -0.0070
  915MOL0     C26146   9.679  11.380   9.841  0.4344  0.1156  0.2792
  915MOL0     C26147   9.829  11.413   9.858  1.3399 -0.4629  0.9555
  915MOL0     C26148   9.905  11.413   9.731 -0.4112 -0.3096 -0.8380
  915MOL0     N26149  10.039  11.471   9.749  0.6325 -0.3021  0.1804
  915MOL0     C26150  10.157  11.421   9.699  0.9616 -0.8142  0.0524
  915MOL0     C26151  10.258  11.498   9.741  0.6637  0.9374  1.3704
  915MOL0     C26152  10.402  11.482   9.709 -0.3268 -0.0043  0.4877
  915MOL0     C26153  10.482  11.388   9.803 -0.8324  0.0020  0.0278
  915MOL0     C26154  10.622  11.374   9.761  0.7044  0.3685 -0.5480
  915MOL0     C26155  10.700  11.290   9.868 -0.2203  0.0478 -0.3045
  915MOL0     O26156  10.671  11.147   9.886 -0.0429  0.5011  0.0044
  915MOL0     C26157  10.719  11.066   9.783  0.3814  0.0089 -0.1008
  915MOL0     C26158  10.649  10.953   9.760 -0.2085  0.2082  0.1603
  915MOL0     C26159  10.689  10.857   9.660 -0.1558  0.0348  0.1912
  915MOL0     C26160  10.596  10.746   9.622  0.0689 -0.0225 -0.9075
  915MOL0     C26161  10.815  10.881   9.596  0.3276 -0.2405  0.2881
  915MOL0     C26162  10.881  10.779   9.506 -0.1032  1.1175  0.3096
  915MOL0     O26163  10.986  10.823   9.440 -0.8165 -0.4368 -0.5105
  915MOL0     C26164  11.045  10.747   9.340 -0.8798 -0.6141 -0.8149
  915MOL0     C26165  11.011  10.767   9.212  0.6015 -0.9975  0.0448
  915MOL0     C26166  11.057  10.690   9.105 -0.7929 -0.1011 -0.3961
  915MOL0     C26167  11.171  10.606   9.133 -0.0678  0.4566  0.0537
  915MOL0     O26168  11.220  10.539   9.021 -0.3167  0.2381 -0.1646
  915MOL0     C26169  11.308  10.434   9.047  0.1730 -0.8837 -0.8041
  915MOL0     C26170  11.452  10.485   9.055 -0.4007  0.6595 -0.3019
  915MOL0     C26171  11.549  10.373   9.091 -0.0987  0.5293  0.8776
  915MOL0     C26172  11.546  10.323   9.241 -0.1616 -0.0757  0.1387
  915MOL0     C26173  11.645  10.213   9.271  0.5900 -0.7071  0.7348
  915MOL0     C26174  11.789  10.260   9.282 -0.8468  0.2251 -0.5487
  915MOL0     C26175  11.878  10.159   9.357  0.6773  0.4559 -0.2267
  915MOL0     C26176  12.018  10.218   9.365 -0.5802 -0.3721 -0.8517
  915MOL0    Cl26177  12.125  10.109   9.469 -0.3573  0.0256 -0.1508
  915MOL0     C26178  11.215  10.599   9.269 -0.4547  1.0022 -0.4902
  915MOL0     C26179  11.144  10.661   9.376  0.5034  0.1093  0.1825
  915MOL0     O26180  10.836  10.667   9.489  0.0503  0.3555 -0.2542
  915MOL0     C26181  10.888  10.999   9.612  0.4286  0.6899  0.1892
  915MOL0     C26182  10.838  11.095   9.707  0.2435 -0.5377  1.2673
  915MOL0     N26183  10.190  11.592   9.814 -0.1650 -0.0036  0.0089
  915MOL0     N26184  10.061  11.576   9.823  0.4982 -0.3275  0.8667
  915MOL0     C26185   9.138  11.015  10.310  0.4370  0.0174  0.2356
  915MOL0     C26186   9.005  11.048  10.359 -0.0528  0.5616  0.7729
  915MOL0     C26187   8.654  11.113  10.603 -0.7168  0.3911 -0.7065
  915MOL0     C26188   8.650  11.241  10.653 -0.0405  0.1462  0.8945
  915MOL0     C26189   8.532  11.306  10.688 -0.5582 -0.6425  1.3086
  915MOL0     C26190   8.410  11.241  10.667 -0.2008 -0.3217  0.5392
  915MOL0     O26191   8.284  11.302  10.679 -0.5942 -0.1288 -0.5901
  915MOL0     C26192   8.283  11.433  10.730 -0.1759 -0.7661 -0.3357
  915MOL0     C26193   8.304  11.435  10.888  0.0285  0.5351  0.2388
  915MOL0     C26194   8.335  11.571  10.951  0.2151 -0.6078  0.0046
  915MOL0     C26195   8.347  11.563  11.103 -0.1193  0.1531  0.0388
  915MOL0     C26196   8.466  11.490  11.145 -0.0446  0.1935 -0.9145
  915MOL0     C26197   8.565  11.427  11.171  0.1510  0.6738  0.0214
  915MOL0     C26198   8.411  11.103  10.626  0.1385 -0.6684  0.1145
  915MOL0     C26199   8.533  11.047  10.594 -0.1724  1.0915  0.4690
  915MOL0     C26200   8.519  10.896  10.570  0.4735 -0.3647  0.0695
  915MOL0     H26201   9.114  11.245  10.623  0.1995  2.8239 -0.7996
  915MOL0     H26202   9.327  11.202  10.509  0.2651  0.5873 -1.5692
  915MOL0     H26203   9.554  11.044  10.269 -1.0524  0.5855 -1.0633
  915MOL0     H26204   9.505  11.140  10.405 -1.7625 -0.3230  0.4839
  915MOL0     H26205   9.363  11.274  10.240  0.4807 -1.6016  2.3818
  915MOL0     H26206   9.536  11.285  10.213 -1.1510  2.0390  1.8820
  915MOL0     H26207   9.487  11.078  10.052 -0.8531 -0.1200  0.7002
  915MOL0     H26208   9.321  11.139  10.039 -0.8882  1.5347 -0.4221
  915MOL0     H26209   9.470  11.221   9.849 -2.0217 -0.5815  0.0531
  915MOL0     H26210   9.434  11.357   9.951  0.2610 -0.2558 -2.1998
  915MOL0     H26211   9.689  11.192   9.942  2.4139  0.0806 -1.7338
  915MOL0     H26212   9.667  11.323  10.050  0.0286 -1.5251  0.6296
  915MOL0     H26213   9.660  11.324   9.748 -0.0941 -0.7967  0.9180
  915MOL0     H26214   9.612  11.466   9.843 -2.1519 -1.7777  2.2991
  915MOL0     H26215   9.874  11.340   9.926  2.0573 -2.0120 -1.0857
  915MOL0     H26216   9.839  11.504   9.919 -0.9705 -1.5921  3.1879
  915MOL0     H26217   9.907  11.317   9.678  0.6586  0.3114 -1.9650
  915MOL0     H26218   9.855  11.482   9.662 -0.6044  0.8424  0.4299
  915MOL0     H26219  10.161  11.331   9.640 -0.2035  0.2820 -1.8027
  915MOL0     H26220  10.437  11.586   9.711 -1.3371  0.4899 -2.2276
  915MOL0     H26221  10.412  11.438   9.609  1.1323 -0.8580  0.9872
  915MOL0     H26222  10.473  11.425   9.905  3.0663  5.3819 -1.1186
  915MOL0     H26223  10.428  11.294   9.796 -0.8817  0.0594 -0.4351
  915MOL0     H26224  10.645  11.333   9.662  0.0188 -0.0130 -0.5528
  915MOL0     H26225  10.659  11.477   9.763  0.3478  0.4868  0.0861
  915MOL0     H26226  10.808  11.300   9.856 -0.2239  0.6014  0.1400
  915MOL0     H26227  10.684  11.327   9.969  0.1678 -1.5130  0.3735
  915MOL0     H26228  10.552  10.947   9.808  0.0182  0.9420  0.7161
  915MOL0     H26229  10.500  10.759   9.673 -1.7803 -3.1954 -3.2576
  915MOL0     H26230  10.637  10.651   9.655  0.1694 -0.5980 -2.6118
  915MOL0     H26231  10.581  10.729   9.515 -1.1798 -0.0201 -0.7536
  915MOL0     H26232  10.942  10.849   9.194  2.2167  0.6096  0.8983
  915MOL0     H26233  11.017  10.702   9.005 -2.0892  1.5363  0.2605
  915MOL0     H26234  11.278  10.374   9.134  0.9571 -2.0355 -1.3090
  915MOL0     H26235  11.304  10.365   8.963  0.1555 -0.5312 -1.0964
  915MOL0     H26236  11.481  10.533   8.962  0.9348  0.0687 -0.2160
  915MOL0     H26237  11.472  10.563   9.129  0.8007  2.5014 -2.4798
  915MOL0     H26238  11.646  10.420   9.071  0.2285 -0.9043 -1.3514
  915MOL0     H26239  11.532  10.289   9.023 -1.7159  1.0595  0.5768
  915MOL0     H26240  11.450  10.276   9.264  0.2759 -0.6791  0.7232
  915MOL0     H26241  11.571  10.408   9.306  3.2977 -0.7172 -0.1412
  915MOL0     H26242  11.615  10.171   9.367  1.2228  0.1036  1.3024
  915MOL0     H26243  11.638  10.134   9.196  2.8517  0.1107 -0.4638
  915MOL0     H26244  11.795  10.361   9.323  2.5426  1.6099 -3.8351
  915MOL0     H26245  11.823  10.281   9.180 -3.4015  1.5131 -1.2292
  915MOL0     H26246  11.866  10.064   9.304 -2.7851  1.6144 -1.8195
  915MOL0     H26247  11.846  10.141   9.460  1.9402 -0.4575  0.0366
  915MOL0     H26248  12.013  10.321   9.401 -1.6569 -0.7904  0.2413
  915MOL0     H26249  12.066  10.210   9.267  2.4315 -1.2177  0.5661
  915MOL0     H26250  11.300  10.539   9.299 -0.1139  2.1149  0.8796
  915MOL0     H26251  11.167  10.649   9.481 -2.7826  0.6810  1.0654
  915MOL0     H26252  10.977  11.027   9.558  0.6460 -1.2792 -0.5526
  915MOL0     H26253  10.880  11.195   9.711 -0.5246 -0.0631 -0.8633
  915MOL0     H26254   9.141  10.950  10.223  3.3475 -0.1582  0.3517
  915MOL0     H26255   8.923  11.006  10.302 -0.2457  2.3541 -0.3574
  915MOL0     H26256   8.745  11.287  10.677  1.3483 -3.0391  1.9629
  915MOL0     H26257   8.538  11.405  10.733  0.1270  0.9133 -1.9579
  915MOL0     H26258   8.356  11.491  10.673 -2.1420  1.1943 -0.9696
  915MOL0     H26259   8.192  11.487  10.704 -0.1676 -0.8979 -0.6446
  915MOL0     H26260   8.365  11.349  10.918 -2.9260 -1.9610 -0.3932
  915MOL0     H26261   8.207  11.403  10.927  0.0499  0.5290  0.2871
  915MOL0     H26262   8.431  11.603  10.909  1.1142 -2.0553  0.8897
  915MOL0     H26263   8.258  11.641  10.916  0.6752 -1.0444 -1.9938
  915MOL0     H26264   8.256  11.526  11.151 -1.0697  0.3084 -1.5650
  915MOL0     H26265   8.366  11.666  11.135  1.2317 -0.2293  0.5560
  915MOL0     H26266   8.647  11.359  11.182  0.0803  0.9085  2.5280
  915MOL0     H26267   8.318  11.050  10.613  1.1919 -2.4447 -0.6336
  915MOL0     H26268   8.414  10.865  10.571  0.7633 -1.3800 -0.6842
  915MOL0     H26269   8.549  10.860  10.472 -0.6393 -1.3583  0.0792
  915MOL0     H26270   8.563  10.829  10.645  2.0819 -1.0359 -1.4317
  916MOL0     O26271  10.103   8.722   6.373  0.3763  0.1739  0.0419
  916MOL0     C26272  10.038   8.730   6.269  1.3263 -0.7340  0.0111
  916MOL0     O26273  10.061   8.688   6.140 -0.0853  0.9905 -0.7672
  916MOL0     C26274  10.151   8.585   6.125 -0.5483  0.1013 -0.6374
  916MOL0     C26275  10.125   8.482   6.048  1.0517  0.1157 -0.3666
  916MOL0     C26276  10.206   8.378   6.026 -0.2479  0.4102  1.0127
  916MOL0     C26277  10.332   8.377   6.074  0.2609  0.6388 -0.3356
  916MOL0     O26278  10.437   8.296   6.033  0.3343 -0.0192  0.0554
  916MOL0     C26279  10.464   8.286   5.888  0.1752  0.3141  0.0054
  916MOL0     C26280  10.591   8.197   5.872  0.5653  1.0662  0.1902
  916MOL0     C26281  10.589   8.126   5.740 -0.1982 -0.4317 -0.3943
  916MOL0     C26282  10.667   8.195   5.627  0.1262  0.4396  0.7303
  916MOL0     C26283  10.611   8.152   5.490 -0.7704  0.3717 -0.8845
  916MOL0     C26284  10.609   8.000   5.465  0.0229  0.0262  0.6902
  916MOL0     C26285  10.567   7.964   5.324  0.7127 -0.6647  0.7152
  916MOL0     C26286  10.548   7.820   5.293  0.1234  0.1708 -0.1217
  916MOL0     N26287  10.672   7.735   5.309  0.1406  0.0853  0.3146
  916MOL0     C26288  10.766   7.707   5.220  0.1423  0.1414  0.8788
  916MOL0     C26289  10.827   7.599   5.269  0.2298  0.3384  0.2254
  916MOL0     C26290  10.938   7.527   5.198 -0.4376 -0.6816 -0.6770
  916MOL0     C26291  11.047   7.472   5.293 -0.3078  0.4790  0.3060
  916MOL0     C26292  11.135   7.365   5.230  0.1235 -0.1219 -0.0782
  916MOL0     C26293  11.237   7.315   5.324  0.2201  1.2676 -0.3444
  916MOL0     O26294  11.308   7.195   5.274  0.9837  0.3908  0.1889
  916MOL0     C26295  11.442   7.209   5.295 -0.0094  0.5171 -1.0678
  916MOL0     C26296  11.504   7.224   5.422 -0.1826  0.9911 -0.4539
  916MOL0     C26297  11.644   7.222   5.433 -0.1738  0.4848  0.0783
  916MOL0     C26298  11.709   7.241   5.572 -0.5940  0.0214 -0.2636
  916MOL0     C26299  11.726   7.204   5.315  0.4782  0.8873 -0.5206
  916MOL0     C26300  11.878   7.196   5.315 -0.8614 -0.2864  0.7139
  916MOL0     O26301  11.955   7.224   5.422 -0.4362 -0.4871  0.6462
  916MOL0     C26302  12.093   7.197   5.411 -0.0768  0.2048 -0.4174
  916MOL0     C26303  12.155   7.072   5.448  0.5874  0.3262  0.3393
  916MOL0     C26304  12.290   7.050   5.436  0.2521  1.2518  0.3238
  916MOL0     C26305  12.371   7.148   5.376  0.1231  0.2441 -0.4178
  916MOL0     O26306  12.500   7.146   5.336 -0.7920  1.1604  0.2385
  916MOL0     C26307  12.578   7.024   5.351 -0.1942  0.2367  0.0996
  916MOL0     C26308  12.714   7.057   5.289  0.3851 -0.3120  0.9325
  916MOL0     C26309  12.715   7.066   5.133  0.0089  0.7706 -0.3791
  916MOL0     C26310  12.668   6.942   5.062  0.4143 -0.5305 -0.2077
  916MOL0     C26311  12.647   6.978   4.912  0.9335 -0.5416 -0.3836
  916MOL0     C26312  12.611   6.841   4.845 -0.4619  0.0520  0.3388
  916MOL0     C26313  12.599   6.840   4.688  0.4333  0.2058  0.3335
  916MOL0     C26314  12.479   6.757   4.640 -0.3432  0.2036  0.3526
  916MOL0    Cl26315  12.312   6.802   4.697 -0.5094 -0.5656  0.1269
  916MOL0     C26316  12.315   7.281   5.364  0.0778  0.6883 -0.4368
  916MOL0     C26317  12.182   7.306   5.387 -0.6199  0.7243 -0.8559
  916MOL0     O26318  11.927   7.172   5.200 -0.3132 -0.7187  0.6040
  916MOL0     C26319  11.657   7.189   5.190  0.1969 -0.1248  0.1203
  916MOL0     C26320  11.522   7.198   5.183  0.6126 -0.1345 -0.9149
  916MOL0     N26321  10.776   7.561   5.390  0.2112  0.2868 -0.3717
  916MOL0     N26322  10.676   7.644   5.404  0.5491  0.2252  0.2064
  916MOL0     C26323  10.368   8.481   6.159  0.0892  0.0466  0.3812
  916MOL0     C26324  10.280   8.588   6.184  0.0928 -0.0985 -0.0595
  916MOL0     C26325   9.912   8.810   6.290 -0.0030 -0.0335 -0.0864
  916MOL0     C26326   9.786   8.742   6.284  0.4815  0.8267 -0.0362
  916MOL0     C26327   9.671   8.806   6.319  0.3404 -0.2330  0.4432
  916MOL0     C26328   9.670   8.941   6.357  0.1172 -0.4858 -0.6083
  916MOL0     O26329   9.552   9.011   6.377 -0.2306  0.3544 -0.2127
  916MOL0     C26330   9.423   8.944   6.397 -0.5344 -0.0161 -0.1418
  916MOL0     C26331   9.320   9.053   6.427  0.0721 -0.0121  0.7030
  916MOL0     C26332   9.234   9.029   6.553  0.3871 -0.2784 -0.0863
  916MOL0     C26333   9.317   9.021   6.684 -0.5508 -0.9638  0.9164
  916MOL0     C26334   9.223   9.026   6.793 -0.4015  0.0433  0.0059
  916MOL0     C26335   9.150   9.041   6.890  0.2598 -0.3933  1.1113
  916MOL0     C26336   9.788   9.009   6.353  0.5993  0.1349 -0.0670
  916MOL0     C26337   9.909   8.940   6.326  0.2052  0.2876  0.0397
  916MOL0     C26338  10.036   9.015   6.326 -0.1764 -0.2926  0.0341
  916MOL0     H26339  10.021   8.481   6.014  1.4357 -0.3774 -1.6009
  916MOL0     H26340  10.164   8.293   5.973  0.2027  1.1120 -0.5409
  916MOL0     H26341  10.483   8.383   5.841 -0.0989  0.3552 -0.0215
  916MOL0     H26342  10.376   8.243   5.839  0.5904 -0.7818  0.2089
  916MOL0     H26343  10.677   8.265   5.878  0.0968  1.7912 -0.9656
  916MOL0     H26344  10.588   8.121   5.951 -0.6236 -1.0143 -1.7464
  916MOL0     H26345  10.625   8.024   5.758  0.0705 -0.1926  0.4477
  916MOL0     H26346  10.484   8.111   5.713 -1.0316 -0.1256  2.3384
  916MOL0     H26347  10.661   8.305   5.628  0.5534  0.4641  0.7732
  916MOL0     H26348  10.770   8.163   5.647  0.5654  0.9144 -0.6380
  916MOL0     H26349  10.662   8.199   5.405 -3.0115  0.7752 -2.0841
  916MOL0     H26350  10.509   8.192   5.492 -0.5480  1.0890  2.7930
  916MOL0     H26351  10.709   7.956   5.471 -1.1797 -3.4689 -1.7260
  916MOL0     H26352  10.549   7.946   5.539 -0.9551 -1.6658 -1.2598
  916MOL0     H26353  10.631   8.005   5.246  0.0320 -1.9342 -0.5536
  916MOL0     H26354  10.472   8.008   5.293  0.7305  0.2236  1.8663
  916MOL0     H26355  10.470   7.781   5.360 -1.8072 -2.3269 -3.4599
  916MOL0     H26356  10.510   7.808   5.192 -3.7017 -0.0381  1.1898
  916MOL0     H26357  10.787   7.767   5.132  0.9864 -0.2782  0.7831
  916MOL0     H26358  10.986   7.602   5.134 -0.7978  0.4229  0.3104
  916MOL0     H26359  10.899   7.455   5.125 -1.4562 -0.6857 -0.1435
  916MOL0     H26360  11.102   7.562   5.320 -1.8089  2.3833 -2.4062
  916MOL0     H26361  11.005   7.434   5.387  2.7862 -2.7360  0.5925
  916MOL0     H26362  11.080   7.278   5.193 -0.8919  0.2746  0.4770
  916MOL0     H26363  11.185   7.404   5.141  0.9516 -1.0593 -0.0409
  916MOL0     H26364  11.314   7.387   5.352 -0.4775  1.7339  0.4517
  916MOL0     H26365  11.190   7.297   5.422  0.8099  3.0371  0.2987
  916MOL0     H26366  11.444   7.243   5.510 -1.9995 -0.8513 -1.2268
  916MOL0     H26367  11.765   7.150   5.599  1.2079  1.7050  2.1131
  916MOL0     H26368  11.643   7.248   5.659  1.5060 -0.7195  1.5001
  916MOL0     H26369  11.773   7.328   5.585 -0.7710 -0.2026  3.3929
  916MOL0     H26370  12.090   7.006   5.506 -1.4060  3.3771  1.8291
  916MOL0     H26371  12.329   6.952   5.462 -1.2964  0.7635  0.9291
  916MOL0     H26372  12.573   6.992   5.455 -2.2425 -1.8386 -0.5331
  916MOL0     H26373  12.540   6.938   5.295  0.4739 -0.2139  0.3386
  916MOL0     H26374  12.738   7.155   5.331 -1.1842 -0.0434  1.2700
  916MOL0     H26375  12.793   6.986   5.314 -2.3327 -4.3613 -0.8939
  916MOL0     H26376  12.812   7.096   5.092  0.6593  0.2890  0.7772
  916MOL0     H26377  12.643   7.143   5.105 -1.8673 -0.9371 -0.4388
  916MOL0     H26378  12.575   6.898   5.101 -0.1377  0.5592 -0.2638
  916MOL0     H26379  12.750   6.873   5.083  0.6249  0.4595  2.6978
  916MOL0     H26380  12.573   7.058   4.901  1.5197  0.0706 -0.0430
  916MOL0     H26381  12.735   7.018   4.860  0.4686 -0.2684 -0.9677
  916MOL0     H26382  12.520   6.792   4.881 -1.0064 -0.0164 -1.0694
  916MOL0     H26383  12.691   6.771   4.872 -0.9722  0.3928  3.0045
  916MOL0     H26384  12.694   6.795   4.658 -0.9723 -1.3793 -2.0650
  916MOL0     H26385  12.589   6.944   4.656  1.1214  0.2006  0.0848
  916MOL0     H26386  12.496   6.653   4.671 -0.3053  0.2590  0.5153
  916MOL0     H26387  12.486   6.770   4.531 -0.0295 -2.3830 -0.0182
  916MOL0     H26388  12.382   7.362   5.333 -2.0398  2.1276 -1.5178
  916MOL0     H26389  12.156   7.411   5.377 -4.0572  0.3838  2.1985
  916MOL0     H26390  11.717   7.166   5.102  1.2863  3.0566 -0.0893
  916MOL0     H26391  11.469   7.186   5.089 -0.0558  0.7562 -0.6610
  916MOL0     H26392  10.469   8.470   6.197  1.2636 -0.8268 -2.7537
  916MOL0     H26393  10.304   8.674   6.246 -2.3154 -1.6693  3.3598
  916MOL0     H26394   9.783   8.635   6.264 -2.5065  0.0752  3.4359
  916MOL0     H26395   9.577   8.752   6.320  0.4944 -0.5441 -0.6338
  916MOL0     H26396   9.389   8.891   6.308 -1.4176  2.9784 -1.7470
  916MOL0     H26397   9.425   8.875   6.482  0.5592 -4.5519 -3.5093
  916MOL0     H26398   9.251   9.062   6.342  0.3061  0.1465  0.5275
  916MOL0     H26399   9.375   9.146   6.446  2.7623 -1.1420 -0.9677
  916MOL0     H26400   9.160   9.110   6.553  0.5304 -0.1462  0.2629
  916MOL0     H26401   9.185   8.931   6.543 -2.6294  1.3089 -2.3978
  916MOL0     H26402   9.391   9.102   6.688  1.3091 -2.5577  0.5111
  916MOL0     H26403   9.380   8.931   6.688 -0.3119 -0.7916  1.0739
  916MOL0     H26404   9.076   9.061   6.965  0.5064 -0.3242  1.3401
  916MOL0     H26405   9.796   9.117   6.364  0.6644 -0.0675  2.3866
  916MOL0     H26406  10.107   8.992   6.245  0.9446  1.3381  0.4862
  916MOL0     H26407  10.015   9.122   6.330  1.5823  0.0710  0.3558
  916MOL0     H26408  10.086   8.989   6.420  0.1088 -1.4240 -0.4103
  917MOL0     O26409   8.470   9.501   5.097  0.6189 -0.0279  0.0731
  917MOL0     C26410   8.383   9.452   5.024  0.8454 -0.3604 -0.5532
  917MOL0     O26411   8.401   9.335   4.955  0.1992  0.3390 -0.1839
  917MOL0     C26412   8.501   9.247   4.988  0.5670  0.1476 -0.1787
  917MOL0     C26413   8.612   9.241   4.906  0.8364 -0.3896 -0.4320
  917MOL0     C26414   8.709   9.149   4.928 -0.3356 -0.2765 -0.3945
  917MOL0     C26415   8.707   9.061   5.033  0.8689 -0.4375  0.4867
  917MOL0     O26416   8.807   8.967   5.039  0.3297  0.1538 -0.3531
  917MOL0     C26417   8.866   8.957   5.169  0.3336 -0.7581  0.0966
  917MOL0     C26418   9.017   8.950   5.163 -0.0372 -1.0543 -0.2638
  917MOL0     C26419   9.065   8.799   5.165  0.1195  0.2523  0.2786
  917MOL0     C26420   9.209   8.786   5.139 -1.4457  0.0841  0.8120
  917MOL0     C26421   9.249   8.633   5.115 -0.2296  0.6547 -0.2879
  917MOL0     C26422   9.399   8.607   5.092  0.7805 -0.2038  1.0922
  917MOL0     C26423   9.450   8.659   4.954 -0.2952  2.1223 -0.6960
  917MOL0     C26424   9.577   8.592   4.901 -0.3558  0.0508  0.4254
  917MOL0     N26425   9.686   8.605   5.005 -0.0091  0.1094 -0.1844
  917MOL0     C26426   9.742   8.730   5.020  0.7077 -0.4326  0.6673
  917MOL0     C26427   9.853   8.709   5.094  0.5358  0.3890  0.3716
  917MOL0     C26428   9.961   8.811   5.102 -0.1590 -0.0701 -0.2125
  917MOL0     C26429  10.068   8.772   4.994  0.8431  0.0686 -0.2158
  917MOL0     C26430  10.156   8.660   5.042  0.1317  0.1709  0.1626
  917MOL0     C26431  10.280   8.651   4.958 -0.1324  0.3536  0.4048
  917MOL0     O26432  10.369   8.755   5.006 -0.1826 -0.0223 -0.3965
  917MOL0     C26433  10.499   8.747   4.962  0.0408  0.4745  0.2879
  917MOL0     C26434  10.549   8.671   4.854 -0.2614 -0.1450 -0.3065
  917MOL0     C26435  10.686   8.675   4.813  0.6921  0.3691  0.6941
  917MOL0     C26436  10.716   8.603   4.679  0.7735 -0.0688  1.0920
  917MOL0     C26437  10.775   8.757   4.874 -0.0966 -0.2419  0.4089
  917MOL0     C26438  10.922   8.777   4.834 -0.7208  0.3163 -0.6320
  917MOL0     O26439  11.004   8.838   4.929 -0.3906  0.0070 -0.5215
  917MOL0     C26440  11.138   8.858   4.904  0.1297 -0.2190 -0.4722
  917MOL0     C26441  11.207   8.747   4.853 -0.6301 -0.5716 -0.3016
  917MOL0     C26442  11.349   8.758   4.838 -0.5663 -0.3118  0.4986
  917MOL0     C26443  11.423   8.879   4.872  0.3525 -0.2257  0.5765
  917MOL0     O26444  11.560   8.890   4.879  0.8894  0.1934 -0.1366
  917MOL0     C26445  11.641   8.799   4.806 -0.5500  0.3662  0.6502
  917MOL0     C26446  11.791   8.803   4.846  0.5550  1.0817 -0.1275
  917MOL0     C26447  11.815   8.817   4.995  0.5647  1.7176  0.0805
  917MOL0     C26448  11.739   8.696   5.073 -0.6413 -0.2649  0.4120
  917MOL0     C26449  11.770   8.701   5.224  0.9593  0.6195 -0.0248
  917MOL0     C26450  11.664   8.616   5.300 -0.4543 -0.2051 -0.1267
  917MOL0     C26451  11.682   8.641   5.452  1.1511 -0.1982 -0.3833
  917MOL0     C26452  11.826   8.624   5.509 -0.3840  0.3121  0.3770
  917MOL0    Cl26453  11.809   8.670   5.678  0.0850  0.0758 -0.2104
  917MOL0     C26454  11.342   8.978   4.926 -0.0890 -0.3974  0.1322
  917MOL0     C26455  11.205   8.972   4.940 -0.1202 -0.2351 -0.8046
  917MOL0     O26456  10.960   8.737   4.722 -0.0017 -0.4235 -0.1568
  917MOL0     C26457  10.723   8.836   4.980 -0.3191 -0.4966 -0.8120
  917MOL0     C26458  10.589   8.827   5.037 -1.1064 -1.3678 -0.8111
  917MOL0     N26459   9.855   8.575   5.137 -0.0038  0.4840 -0.7739
  917MOL0     N26460   9.755   8.506   5.073  0.1183 -0.4461  0.3203
  917MOL0     C26461   8.600   9.073   5.121  0.6131  1.4514  0.5318
  917MOL0     C26462   8.494   9.161   5.098  0.1449  0.0281  0.7717
  917MOL0     C26463   8.254   9.524   4.993 -0.1493 -0.7384 -0.0349
  917MOL0     C26464   8.165   9.475   4.899  0.0222  0.4588  0.0453
  917MOL0     C26465   8.057   9.547   4.854 -0.2458  0.1861 -0.1758
  917MOL0     C26466   8.021   9.675   4.890  0.2201  0.2467  0.0612
  917MOL0     O26467   7.912   9.755   4.845 -0.3046 -0.1672  0.0342
  917MOL0     C26468   7.799   9.688   4.795  0.2776 -0.9453  1.4771
  917MOL0     C26469   7.680   9.775   4.750  0.2594 -0.2040  0.6868
  917MOL0     C26470   7.729   9.878   4.652  0.4670 -0.5184 -0.3946
  917MOL0     C26471   7.606   9.957   4.593 -0.1042  0.4050  0.4280
  917MOL0     C26472   7.526   9.885   4.488  0.6820  0.1806 -0.3721
  917MOL0     C26473   7.446   9.826   4.421 -0.2174  0.1687  0.0707
  917MOL0     C26474   8.109   9.731   4.990 -1.1361  0.4136 -0.0600
  917MOL0     C26475   8.214   9.656   5.046 -1.1477  0.1329  0.1347
  917MOL0     C26476   8.295   9.721   5.155  0.2831 -1.0230 -0.1647
  917MOL0     H26477   8.623   9.320   4.832 -2.3341 -0.6401 -1.3416
  917MOL0     H26478   8.795   9.143   4.861 -0.0990 -1.5244  0.0089
  917MOL0     H26479   8.826   8.880   5.236  1.2500 -1.1089  0.2695
  917MOL0     H26480   8.849   9.053   5.218 -1.3470  0.4600 -2.6576
  917MOL0     H26481   9.048   9.004   5.073 -0.8089 -1.8605 -1.0382
  917MOL0     H26482   9.060   9.006   5.247  1.8965 -2.8348 -0.0033
  917MOL0     H26483   9.029   8.734   5.245  2.8275 -0.2110  1.2177
  917MOL0     H26484   9.019   8.751   5.078  0.7001  0.3372 -0.0839
  917MOL0     H26485   9.233   8.823   5.039 -3.7655  0.6737  0.4055
  917MOL0     H26486   9.276   8.839   5.206 -0.8221 -0.3021  0.5018
  917MOL0     H26487   9.199   8.595   5.025 -0.5608  0.1753  0.0896
  917MOL0     H26488   9.222   8.578   5.205  2.2485  2.0191  1.3799
  917MOL0     H26489   9.464   8.656   5.166  1.4190  3.7074 -1.7361
  917MOL0     H26490   9.422   8.500   5.092  2.1493  0.0255 -0.7278
  917MOL0     H26491   9.450   8.766   4.976  2.0812  1.7536  1.6653
  917MOL0     H26492   9.380   8.621   4.879 -1.6366 -0.7026  1.7612
  917MOL0     H26493   9.566   8.487   4.874 -1.0855 -0.3593  2.1825
  917MOL0     H26494   9.608   8.640   4.807 -0.2613 -1.1329 -0.1615
  917MOL0     H26495   9.721   8.822   4.966 -0.5358  1.1726  3.6501
  917MOL0     H26496   9.999   8.812   5.205  2.1007 -1.9990 -0.9559
  917MOL0     H26497   9.916   8.907   5.074  1.2401  0.0008 -2.4947
  917MOL0     H26498  10.014   8.737   4.905  0.5230  2.8882 -1.2574
  917MOL0     H26499  10.120   8.860   4.954  0.0021  0.5950 -0.1641
  917MOL0     H26500  10.180   8.683   5.146 -0.5084  1.6902  0.0075
  917MOL0     H26501  10.102   8.565   5.033  0.6317 -0.0552 -0.5694
  917MOL0     H26502  10.329   8.553   4.966  0.8536  0.7572 -0.4846
  917MOL0     H26503  10.259   8.658   4.851  2.2142  0.7546 -0.0924
  917MOL0     H26504  10.473   8.623   4.793 -0.5538  0.0886 -0.1294
  917MOL0     H26505  10.703   8.680   4.602  0.3024  0.3276  1.5616
  917MOL0     H26506  10.644   8.521   4.663  3.3666 -2.2400 -0.3812
  917MOL0     H26507  10.814   8.555   4.681  0.2727 -1.1407  0.8433
  917MOL0     H26508  11.168   8.652   4.816  1.0183 -0.2463 -3.1441
  917MOL0     H26509  11.393   8.666   4.802  0.4150  0.2453  0.2479
  917MOL0     H26510  11.610   8.697   4.830 -2.1872  0.5005 -0.6960
  917MOL0     H26511  11.626   8.802   4.698 -0.9413 -0.2497  0.6796
  917MOL0     H26512  11.834   8.710   4.805 -2.6125  1.1466 -4.1925
  917MOL0     H26513  11.832   8.896   4.806 -0.2841  3.0420  3.2235
  917MOL0     H26514  11.790   8.920   5.021  0.6300  2.1034 -1.3291
  917MOL0     H26515  11.919   8.796   5.024 -0.5640 -1.5076  2.4485
  917MOL0     H26516  11.778   8.605   5.027  2.1551  1.3514 -0.6849
  917MOL0     H26517  11.630   8.702   5.061 -0.3883 -0.9330 -3.5861
  917MOL0     H26518  11.870   8.660   5.241  3.1099  4.5417 -1.8179
  917MOL0     H26519  11.775   8.804   5.262  1.6511  1.3022 -1.8709
  917MOL0     H26520  11.674   8.510   5.279 -2.3829 -0.3259 -0.6008
  917MOL0     H26521  11.565   8.636   5.260  0.6508  2.3064 -1.9605
  917MOL0     H26522  11.634   8.562   5.510  2.6582 -1.4184 -0.7319
  917MOL0     H26523  11.641   8.740   5.475  1.2237  0.1385 -1.6003
  917MOL0     H26524  11.892   8.700   5.465  1.0260 -1.4155 -0.6344
  917MOL0     H26525  11.864   8.524   5.488  3.3044  1.6504 -0.2106
  917MOL0     H26526  11.394   9.064   4.967  0.1157 -1.6672  2.7500
  917MOL0     H26527  11.153   9.060   4.978 -0.5091  0.0522 -1.9541
  917MOL0     H26528  10.800   8.897   5.025  0.8106 -1.1924 -1.7496
  917MOL0     H26529  10.558   8.891   5.119 -0.4783 -1.0758 -0.7947
  917MOL0     H26530   8.605   9.022   5.216 -2.8447  2.3384  1.3334
  917MOL0     H26531   8.404   9.174   5.157 -0.2512  2.0636 -0.1699
  917MOL0     H26532   8.163   9.373   4.862 -0.4170  0.6319 -0.4231
  917MOL0     H26533   7.998   9.492   4.781  0.6831 -1.1614  0.0521
  917MOL0     H26534   7.825   9.618   4.715 -0.4778  1.7106 -1.2938
  917MOL0     H26535   7.756   9.620   4.869 -3.5303 -2.8750 -2.0828
  917MOL0     H26536   7.642   9.828   4.837  1.1805 -0.4591  1.2645
  917MOL0     H26537   7.597   9.713   4.715 -0.8482 -0.0555  2.9166
  917MOL0     H26538   7.794   9.949   4.704 -0.7938 -0.3825  1.0615
  917MOL0     H26539   7.768   9.829   4.562 -2.5198 -1.0415 -1.5169
  917MOL0     H26540   7.655  10.040   4.542 -0.1167  0.6963  0.8865
  917MOL0     H26541   7.544   9.994   4.675  0.5399  2.2256  0.1480
  917MOL0     H26542   7.377   9.774   4.358 -1.5049  0.1594  1.4674
  917MOL0     H26543   8.094   9.837   5.005 -0.0469  0.5289  0.3174
  917MOL0     H26544   8.313   9.654   5.239  1.9886 -0.0163  0.3137
  917MOL0     H26545   8.391   9.760   5.119  0.9429  1.0788  3.4185
  917MOL0     H26546   8.246   9.811   5.196 -0.7229 -1.4954 -0.2886
  918MOL0     O26547   4.562  10.174   1.986  0.0644 -0.1697  0.5447
  918MOL0     C26548   4.576  10.195   1.864 -0.4890 -0.5101 -0.5768
  918MOL0     O26549   4.663  10.130   1.774 -0.3428 -0.8718 -0.0446
  918MOL0     C26550   4.751  10.043   1.830 -0.1664  0.7348 -0.0763
  918MOL0     C26551   4.717   9.912   1.857  0.4358 -0.0455 -0.3186
  918MOL0     C26552   4.813   9.826   1.924 -0.2305 -0.2082 -0.2363
  918MOL0     C26553   4.935   9.876   1.964 -0.7680 -0.0403 -0.1409
  918MOL0     O26554   5.023   9.787   2.032 -0.9493  0.2406  0.4991
  918MOL0     C26555   5.111   9.853   2.125  0.0985 -0.1916  0.1549
  918MOL0     C26556   5.200   9.754   2.187  0.9223 -0.2286  0.6632
  918MOL0     C26557   5.332   9.734   2.115  0.7382  0.3064  0.2420
  918MOL0     C26558   5.374   9.590   2.160 -0.9763  0.8593 -0.2107
  918MOL0     C26559   5.531   9.561   2.159 -0.6329 -0.6681  0.0553
  918MOL0     C26560   5.563   9.413   2.190 -0.7931 -0.2320 -0.4190
  918MOL0     C26561   5.564   9.314   2.072 -0.6658  0.0275  0.6000
  918MOL0     C26562   5.601   9.170   2.112 -0.1472 -0.0604 -0.6349
  918MOL0     N26563   5.579   9.066   2.007  0.0398 -0.4474  0.0389
  918MOL0     C26564   5.468   9.050   1.931  0.0953  0.7573 -0.3545
  918MOL0     C26565   5.505   8.963   1.832  1.0431 -0.0451 -0.1325
  918MOL0     C26566   5.414   8.904   1.727 -0.2839 -0.2303 -0.2795
  918MOL0     C26567   5.467   8.826   1.613  0.3829 -0.6084 -0.4399
  918MOL0     C26568   5.561   8.911   1.528  0.5998  1.1110  0.5826
  918MOL0     C26569   5.612   8.834   1.399 -0.4931 -0.1979  0.1507
  918MOL0     O26570   5.521   8.733   1.353 -0.0863 -0.1861 -0.0809
  918MOL0     C26571   5.403   8.770   1.292 -0.0389 -0.1380 -0.1149
  918MOL0     C26572   5.311   8.667   1.283  0.4808 -1.4960 -0.9157
  918MOL0     C26573   5.186   8.677   1.225 -0.2015  0.2435  0.1607
  918MOL0     C26574   5.089   8.557   1.231 -0.1993 -0.0556 -0.1510
  918MOL0     C26575   5.154   8.799   1.170 -0.1244  0.7998 -0.2697
  918MOL0     C26576   5.019   8.829   1.120  0.0052  0.6581  0.3678
  918MOL0     O26577   4.940   8.910   1.196  0.1882 -0.5552  0.1273
  918MOL0     C26578   4.839   8.969   1.131  0.6896  0.5026 -0.1864
  918MOL0     C26579   4.862   9.097   1.083  0.5036  0.4024 -0.1910
  918MOL0     C26580   4.752   9.163   1.021  0.0395 -0.5344 -0.0641
  918MOL0     C26581   4.630   9.100   1.005 -0.2832 -0.3109 -0.4936
  918MOL0     O26582   4.541   9.171   0.931  0.5578  0.3443  0.6225
  918MOL0     C26583   4.469   9.096   0.831 -0.2475 -0.3303  0.4756
  918MOL0     C26584   4.560   9.025   0.729 -0.6581  0.7719 -0.0319
  918MOL0     C26585   4.485   8.959   0.610 -0.0124 -0.2716  0.2488
  918MOL0     C26586   4.525   8.818   0.599  0.8263 -0.8674 -0.0113
  918MOL0     C26587   4.453   8.749   0.488 -0.5238  0.1082  0.2241
  918MOL0     C26588   4.508   8.599   0.463  0.8945  0.1639 -0.3486
  918MOL0     C26589   4.460   8.534   0.327  0.4318  0.1518 -0.9101
  918MOL0     C26590   4.542   8.410   0.304  0.2608  0.0341  1.0912
  918MOL0    Cl26591   4.486   8.291   0.423  0.2870  0.1149 -0.1058
  918MOL0     C26592   4.600   8.981   1.072 -0.5827  0.5339  0.4760
  918MOL0     C26593   4.705   8.921   1.137 -0.0202 -0.0549 -0.0081
  918MOL0     O26594   4.998   8.786   1.006 -0.8216 -0.4931 -0.0224
  918MOL0     C26595   5.236   8.910   1.183  0.4009 -0.7663  0.1371
  918MOL0     C26596   5.364   8.891   1.234  0.3818  0.1989  0.2222
  918MOL0     N26597   5.637   8.938   1.848 -1.1164 -0.0733 -0.3084
  918MOL0     N26598   5.688   9.004   1.946 -0.1601 -0.2577  0.3093
  918MOL0     C26599   4.960  10.008   1.931 -0.3758  0.0697 -0.1564
  918MOL0     C26600   4.875  10.091   1.860 -0.4701 -0.0440  0.1537
  918MOL0     C26601   4.474  10.296   1.811  0.0670 -0.3114 -0.2936
  918MOL0     C26602   4.453  10.286   1.682 -0.5978  0.0945  0.9226
  918MOL0     C26603   4.339  10.346   1.626 -0.8224 -0.0557 -0.0975
  918MOL0     C26604   4.260  10.445   1.697  0.0451 -0.4197 -0.4413
  918MOL0     O26605   4.156  10.517   1.643 -0.4151  0.3471 -0.3485
  918MOL0     C26606   4.096  10.464   1.526  0.5781  0.0534  0.5514
  918MOL0     C26607   3.950  10.491   1.502 -1.5441  0.0368  0.1259
  918MOL0     C26608   3.935  10.584   1.385  0.1769 -0.5757 -0.0050
  918MOL0     C26609   3.785  10.602   1.350  0.0068 -0.5457 -0.0534
  918MOL0     C26610   3.780  10.714   1.256 -0.0379 -0.8060 -0.9283
  918MOL0     C26611   3.769  10.805   1.178  0.2849  0.2208  0.6582
  918MOL0     C26612   4.292  10.467   1.827  0.5864  0.5680  0.0755
  918MOL0     C26613   4.403  10.395   1.886  0.8175 -0.2829  0.1158
  918MOL0     C26614   4.432  10.424   2.026  0.0093 -0.0537 -0.5506
  918MOL0     H26615   4.615   9.881   1.838 -0.3121  2.6267 -1.0884
  918MOL0     H26616   4.805   9.720   1.949 -0.7663  0.3069  2.0714
  918MOL0     H26617   5.053   9.900   2.206 -1.9910 -1.0460 -0.7878
  918MOL0     H26618   5.169   9.934   2.080 -2.2810  0.9738 -0.9989
  918MOL0     H26619   5.225   9.804   2.281 -1.2792  1.6574  0.3107
  918MOL0     H26620   5.144   9.660   2.201 -0.6719  0.7571  1.1593
  918MOL0     H26621   5.301   9.732   2.011 -0.5972 -1.6358  0.6312
  918MOL0     H26622   5.404   9.814   2.135  0.8979  0.5447 -1.1873
  918MOL0     H26623   5.343   9.567   2.262  3.6282  0.9721  1.4563
  918MOL0     H26624   5.327   9.520   2.090 -3.3299  2.7757 -0.6720
  918MOL0     H26625   5.557   9.636   2.234 -2.0030  2.1395 -2.0566
  918MOL0     H26626   5.575   9.597   2.065 -3.5396  0.6237 -0.9290
  918MOL0     H26627   5.668   9.413   2.222 -0.7480  0.0160 -0.5679
  918MOL0     H26628   5.495   9.377   2.268 -0.6735  0.3308 -0.0498
  918MOL0     H26629   5.628   9.345   1.989 -0.4052 -3.0670 -0.4836
  918MOL0     H26630   5.465   9.296   2.029 -0.7576 -0.2996  0.9387
  918MOL0     H26631   5.708   9.169   2.131  0.0066 -0.9142 -1.4567
  918MOL0     H26632   5.542   9.138   2.199  1.4012  1.0994  0.8932
  918MOL0     H26633   5.369   9.094   1.936 -0.7540 -1.1784  3.2980
  918MOL0     H26634   5.353   8.991   1.701  0.8559  0.9187  0.7679
  918MOL0     H26635   5.350   8.839   1.789  1.4269 -2.2362 -0.5198
  918MOL0     H26636   5.510   8.734   1.654  0.2737  0.4920  2.3142
  918MOL0     H26637   5.374   8.804   1.559 -2.4700  1.7723  3.0576
  918MOL0     H26638   5.509   9.000   1.491  0.8569  1.1817  0.3877
  918MOL0     H26639   5.647   8.947   1.584  4.8096  0.2879 -4.5865
  918MOL0     H26640   5.641   8.900   1.316  1.1611 -0.9857  0.0469
  918MOL0     H26641   5.703   8.776   1.417 -0.3900  0.1317  0.6961
  918MOL0     H26642   5.332   8.567   1.321 -0.7121 -0.9192  1.3976
  918MOL0     H26643   5.142   8.463   1.248  2.9155  1.9609  2.4304
  918MOL0     H26644   5.032   8.545   1.139 -1.8029  2.2669  0.4381
  918MOL0     H26645   5.010   8.569   1.307  1.6130 -2.3239  2.2731
  918MOL0     H26646   4.956   9.147   1.104  0.0318  1.4759 -0.5240
  918MOL0     H26647   4.773   9.262   0.982  2.3106 -0.6098  0.8103
  918MOL0     H26648   4.404   9.020   0.876 -1.6206  1.4039  1.5390
  918MOL0     H26649   4.404   9.167   0.780  1.9198  0.0869 -1.9253
  918MOL0     H26650   4.624   9.111   0.709  0.7471  0.1631  1.5589
  918MOL0     H26651   4.630   8.964   0.786  4.0865  2.8534 -2.9933
  918MOL0     H26652   4.510   9.026   0.527 -1.2143 -0.1132 -0.0061
  918MOL0     H26653   4.376   8.967   0.623  0.1435  0.9650  0.9006
  918MOL0     H26654   4.489   8.776   0.694  0.1836  2.1306  1.1881
  918MOL0     H26655   4.635   8.813   0.594  0.9335  1.8133 -2.5550
  918MOL0     H26656   4.344   8.758   0.491 -0.4005  2.5574 -0.4729
  918MOL0     H26657   4.483   8.803   0.397 -1.3167 -0.1522 -0.1972
  918MOL0     H26658   4.475   8.534   0.544 -0.3003 -0.2242 -1.1196
  918MOL0     H26659   4.617   8.610   0.465  1.1453 -0.5864 -3.5912
  918MOL0     H26660   4.477   8.595   0.238  3.4993 -0.8831 -1.1650
  918MOL0     H26661   4.354   8.512   0.341  0.8126 -0.8358  0.6831
  918MOL0     H26662   4.649   8.432   0.312 -0.0718  1.1601  3.1882
  918MOL0     H26663   4.530   8.371   0.203  0.4912  3.0649 -0.2264
  918MOL0     H26664   4.497   8.946   1.075 -0.3340 -0.4530 -1.3385
  918MOL0     H26665   4.681   8.835   1.198  0.7767 -0.4086 -0.1823
  918MOL0     H26666   5.202   9.001   1.135  0.5633 -0.7400  0.0691
  918MOL0     H26667   5.429   8.977   1.246  1.8018 -0.8201  0.2042
  918MOL0     H26668   5.047  10.061   1.968 -1.3281 -0.3499  2.9727
  918MOL0     H26669   4.891  10.191   1.822  0.2391 -1.0427 -2.3753
  918MOL0     H26670   4.511  10.219   1.620  1.7698  2.4130  0.4700
  918MOL0     H26671   4.320  10.331   1.520  0.0675  1.3462 -0.4770
  918MOL0     H26672   4.161  10.486   1.442  0.3261 -2.6037 -0.4442
  918MOL0     H26673   4.101  10.355   1.539  1.3175 -0.1157 -0.9741
  918MOL0     H26674   3.897  10.528   1.590 -1.8815  0.7443 -0.3626
  918MOL0     H26675   3.901  10.399   1.469 -0.9933  0.1496 -1.0801
  918MOL0     H26676   3.969  10.685   1.406 -0.4717 -0.0897 -1.2145
  918MOL0     H26677   3.990  10.549   1.297  1.1838 -1.7292  1.0279
  918MOL0     H26678   3.728  10.635   1.437 -3.8095 -0.6141 -2.2788
  918MOL0     H26679   3.738  10.513   1.306 -0.3468 -0.5430  0.3165
  918MOL0     H26680   3.786  10.878   1.102  1.8866 -1.5913 -0.8008
  918MOL0     H26681   4.243  10.555   1.869  0.3634  0.9872 -1.0222
  918MOL0     H26682   4.405  10.530   2.032 -2.4398 -0.5907 -1.0783
  918MOL0     H26683   4.377  10.357   2.093  0.6716  0.6392  0.7254
  918MOL0     H26684   4.537  10.418   2.056 -0.7287 -1.0210  2.1900
  919MOL0     O26685   5.080   7.345   8.812  0.5607  0.5715 -0.4095
  919MOL0     C26686   5.002   7.276   8.745  0.2669  0.3368 -0.4350
  919MOL0     O26687   5.033   7.203   8.632  0.5051 -0.6611 -0.4370
  919MOL0     C26688   5.148   7.254   8.575 -0.3700 -0.0771  0.5376
  919MOL0     C26689   5.278   7.211   8.624  1.2757 -0.2058  0.6700
  919MOL0     C26690   5.393   7.267   8.563  0.4867  0.4798  0.1055
  919MOL0     C26691   5.385   7.354   8.455  0.5347 -0.9261 -0.2122
  919MOL0     O26692   5.504   7.407   8.402  0.2141  1.1084  0.3280
  919MOL0     C26693   5.509   7.448   8.266 -1.4194 -0.4551  0.1834
  919MOL0     C26694   5.627   7.528   8.228 -0.0771 -0.5852  0.9394
  919MOL0     C26695   5.755   7.456   8.254 -0.2907  0.2343 -0.1222
  919MOL0     C26696   5.861   7.481   8.149 -0.7747  0.6114  0.2008
  919MOL0     C26697   5.977   7.379   8.160  0.1342  0.1473  0.2334
  919MOL0     C26698   6.067   7.410   8.275 -0.2787 -0.2227 -0.5083
  919MOL0     C26699   6.185   7.308   8.280 -0.2661 -0.5586  0.3960
  919MOL0     C26700   6.273   7.350   8.404 -0.2409  0.3710  0.2336
  919MOL0     N26701   6.393   7.269   8.412 -0.1016  0.4433 -0.8457
  919MOL0     C26702   6.494   7.260   8.322 -0.1512  0.0846  0.4210
  919MOL0     C26703   6.562   7.149   8.356  0.2618 -0.4729 -0.4878
  919MOL0     C26704   6.664   7.081   8.268 -0.1295  0.3427 -0.6270
  919MOL0     C26705   6.806   7.087   8.307 -1.1463  0.5904  0.4382
  919MOL0     C26706   6.841   6.971   8.399 -1.2263  1.4002  0.2653
  919MOL0     C26707   6.983   6.980   8.454  0.0013 -0.7950 -0.5621
  919MOL0     O26708   7.076   6.956   8.350  0.4037 -0.1404 -0.1694
  919MOL0     C26709   7.207   6.997   8.369  0.2991 -0.3384  0.3847
  919MOL0     C26710   7.302   6.907   8.419 -0.1361  0.1519  0.4313
  919MOL0     C26711   7.440   6.936   8.430 -0.6321  0.5220 -0.3946
  919MOL0     C26712   7.535   6.823   8.448 -0.0837  0.4618  0.5970
  919MOL0     C26713   7.489   7.065   8.398 -0.3764 -0.5369  0.3544
  919MOL0     C26714   7.627   7.113   8.416 -0.0234  0.9585  0.7428
  919MOL0     O26715   7.665   7.228   8.353 -0.0218 -0.3131  0.7394
  919MOL0     C26716   7.793   7.281   8.364  0.8529  0.4701 -0.0699
  919MOL0     C26717   7.914   7.208   8.338  0.3252 -0.0279  0.7215
  919MOL0     C26718   8.036   7.270   8.348 -0.5927  0.7398 -0.4927
  919MOL0     C26719   8.042   7.405   8.378 -0.5581 -0.2542  0.0768
  919MOL0     O26720   8.170   7.458   8.385  0.2693 -0.1209 -0.3082
  919MOL0     C26721   8.182   7.596   8.358 -0.5873 -0.2132 -0.2053
  919MOL0     C26722   8.334   7.647   8.342 -0.1226  0.4317 -0.2578
  919MOL0     C26723   8.427   7.592   8.458  0.0925 -0.5736 -0.7372
  919MOL0     C26724   8.529   7.703   8.490 -0.3284  1.0174 -0.9057
  919MOL0     C26725   8.632   7.657   8.594 -0.2635  0.6499  0.1634
  919MOL0     C26726   8.750   7.592   8.517 -0.3781  0.6716  0.0388
  919MOL0     C26727   8.876   7.604   8.600  0.1431  0.3443 -0.0337
  919MOL0     C26728   8.929   7.753   8.594  0.3720 -0.1801  0.4765
  919MOL0    Cl26729   9.034   7.780   8.729 -0.4736  0.3075  0.3841
  919MOL0     C26730   7.930   7.478   8.398 -0.1786 -0.3248 -0.8994
  919MOL0     C26731   7.804   7.413   8.394 -0.0063  0.3287  0.4954
  919MOL0     O26732   7.707   7.043   8.480  0.2562  0.0111  0.4169
  919MOL0     C26733   7.389   7.159   8.370  0.0065  0.3069 -0.0423
  919MOL0     C26734   7.253   7.123   8.348  0.0465  0.0759 -0.1530
  919MOL0     N26735   6.510   7.099   8.474 -0.3381  0.3858 -0.4753
  919MOL0     N26736   6.407   7.172   8.507  0.6859  0.5871 -0.5081
  919MOL0     C26737   5.260   7.389   8.403  0.4079 -0.8509  0.2636
  919MOL0     C26738   5.143   7.338   8.467 -0.4189 -0.2623  1.0253
  919MOL0     C26739   4.854   7.297   8.781 -0.2476 -0.0675 -0.1907
  919MOL0     C26740   4.802   7.411   8.832  0.6642 -0.2845 -0.0712
  919MOL0     C26741   4.660   7.434   8.853 -0.4826  0.3770 -0.2081
  919MOL0     C26742   4.570   7.337   8.807 -0.1146  0.7378  0.1730
  919MOL0     O26743   4.438   7.364   8.796  0.6550  0.1106  0.2720
  919MOL0     C26744   4.398   7.502   8.752 -0.1118  0.5370 -0.1320
  919MOL0     C26745   4.420   7.519   8.597 -1.0885 -0.1070  0.2811
  919MOL0     C26746   4.383   7.659   8.539 -0.4745  0.6291 -0.2718
  919MOL0     C26747   4.396   7.660   8.386 -0.0548  0.5201  0.0808
  919MOL0     C26748   4.349   7.787   8.327  0.6219  0.7559  1.0056
  919MOL0     C26749   4.318   7.895   8.278 -0.3935 -0.0132  0.0033
  919MOL0     C26750   4.625   7.221   8.753  0.5720  0.3955  0.5156
  919MOL0     C26751   4.763   7.201   8.740  0.2857  0.7601 -0.9758
  919MOL0     C26752   4.796   7.056   8.696  0.0971  0.2870  0.4805
  919MOL0     H26753   5.291   7.142   8.706  0.7347  0.3520  1.2423
  919MOL0     H26754   5.491   7.245   8.604  0.7179 -1.1432 -1.2038
  919MOL0     H26755   5.425   7.512   8.240  1.0672  3.4397  0.8400
  919MOL0     H26756   5.519   7.359   8.204  1.8157 -1.4359  1.8972
  919MOL0     H26757   5.609   7.567   8.127 -2.2029 -1.4228  0.9427
  919MOL0     H26758   5.640   7.623   8.281 -0.2522  0.4730 -0.8233
  919MOL0     H26759   5.794   7.494   8.348 -1.1018 -2.8347  1.5685
  919MOL0     H26760   5.725   7.352   8.266 -2.0256  0.7555  0.3179
  919MOL0     H26761   5.830   7.482   8.044  0.5856  2.3619 -0.2308
  919MOL0     H26762   5.906   7.579   8.169  2.8213 -0.8741  0.1062
  919MOL0     H26763   6.030   7.370   8.065  0.3768 -2.2768  0.5315
  919MOL0     H26764   5.934   7.280   8.177 -0.4389  0.2868 -0.3710
  919MOL0     H26765   6.109   7.509   8.257  3.3905 -1.4301  0.5411
  919MOL0     H26766   6.017   7.405   8.372  2.2999 -0.6615  0.8832
  919MOL0     H26767   6.253   7.318   8.195  2.5777 -2.8345  2.2217
  919MOL0     H26768   6.158   7.202   8.281  1.3745 -1.0092  0.8348
  919MOL0     H26769   6.299   7.456   8.395 -1.7987  0.7972  0.4287
  919MOL0     H26770   6.216   7.338   8.497 -0.5324 -1.6794 -0.1702
  919MOL0     H26771   6.510   7.319   8.232 -0.1628  0.2622  0.5360
  919MOL0     H26772   6.646   7.133   8.173  1.7844  1.0328 -0.6583
  919MOL0     H26773   6.635   6.976   8.275 -1.0190  0.6502  0.6003
  919MOL0     H26774   6.865   7.066   8.218 -0.5983  4.1018 -0.1611
  919MOL0     H26775   6.837   7.185   8.346 -0.3861 -0.8868  3.9060
  919MOL0     H26776   6.770   6.968   8.482 -0.2233  0.8341  1.1390
  919MOL0     H26777   6.838   6.877   8.343 -2.6390  1.7642 -0.3033
  919MOL0     H26778   7.018   7.073   8.500  1.2577 -0.5112 -1.9793
  919MOL0     H26779   6.996   6.910   8.537 -1.9083 -1.8904 -1.1323
  919MOL0     H26780   7.260   6.812   8.451  1.0807 -0.3924  0.4570
  919MOL0     H26781   7.570   6.820   8.552 -0.2747  2.2625  0.7497
  919MOL0     H26782   7.622   6.832   8.382 -0.2011  1.3618  0.5463
  919MOL0     H26783   7.495   6.724   8.424  1.9468 -0.3674  0.4168
  919MOL0     H26784   7.913   7.107   8.298  0.7313  0.5412 -0.8065
  919MOL0     H26785   8.129   7.222   8.320 -0.7656  0.7840 -1.1478
  919MOL0     H26786   8.130   7.627   8.267 -0.5375  2.4411  0.5795
  919MOL0     H26787   8.146   7.649   8.446  2.9756  0.8238  0.7958
  919MOL0     H26788   8.367   7.593   8.253 -1.7908  0.0876 -0.6857
  919MOL0     H26789   8.340   7.754   8.323 -3.8832  0.6249 -0.9862
  919MOL0     H26790   8.483   7.503   8.426 -0.1960 -1.1473  0.3103
  919MOL0     H26791   8.358   7.580   8.541 -0.3757 -1.7203 -1.2731
  919MOL0     H26792   8.474   7.788   8.531 -0.0797  0.1007  1.4959
  919MOL0     H26793   8.568   7.742   8.396 -3.6548 -0.6175 -3.1539
  919MOL0     H26794   8.668   7.738   8.658  0.4626  1.5827 -1.3706
  919MOL0     H26795   8.588   7.584   8.663  0.0784 -1.0626 -1.3611
  919MOL0     H26796   8.758   7.636   8.418 -0.6179 -1.4731 -0.9821
  919MOL0     H26797   8.736   7.484   8.507  0.7018  0.6094 -0.9993
  919MOL0     H26798   8.946   7.530   8.559 -1.6792  0.2792 -3.3336
  919MOL0     H26799   8.872   7.580   8.707  0.1421 -1.1285 -0.3327
  919MOL0     H26800   8.847   7.825   8.599 -0.8696 -1.4266 -0.9311
  919MOL0     H26801   8.980   7.760   8.497 -0.5891 -0.3037 -0.0456
  919MOL0     H26802   7.929   7.581   8.432  0.7022 -0.4715 -0.3898
  919MOL0     H26803   7.707   7.456   8.419 -0.2392  0.9348 -1.3231
  919MOL0     H26804   7.423   7.261   8.356  3.1446 -0.2579  2.3847
  919MOL0     H26805   7.179   7.196   8.316  0.3256  0.4748  0.1028
  919MOL0     H26806   5.240   7.465   8.328  0.7459 -0.5988  0.4286
  919MOL0     H26807   5.052   7.374   8.421 -0.7976 -0.1928  1.8176
  919MOL0     H26808   4.878   7.485   8.851  0.7506 -0.6344  1.0214
  919MOL0     H26809   4.622   7.527   8.894 -1.4878  0.5254 -1.4103
  919MOL0     H26810   4.289   7.508   8.765 -0.2348 -0.2573 -0.7468
  919MOL0     H26811   4.449   7.588   8.797  0.1258  2.0268 -3.0152
  919MOL0     H26812   4.370   7.437   8.545  1.2704 -0.0741 -2.2546
  919MOL0     H26813   4.527   7.501   8.578 -1.7027 -3.7998 -0.5343
  919MOL0     H26814   4.281   7.678   8.574 -0.5378 -0.9997  0.5166
  919MOL0     H26815   4.448   7.735   8.585  0.2761  0.4548 -1.0278
  919MOL0     H26816   4.335   7.577   8.349  2.7734 -1.8139  0.2834
  919MOL0     H26817   4.492   7.625   8.347 -0.7814  1.1276 -2.4303
  919MOL0     H26818   4.290   7.982   8.222 -1.6123  1.1862  2.3446
  919MOL0     H26819   4.558   7.148   8.708 -1.3372  1.5457  1.3694
  919MOL0     H26820   4.807   7.050   8.588 -0.0652  1.2616  0.3967
  919MOL0     H26821   4.883   7.014   8.747 -0.6431 -1.9503 -0.0027
  919MOL0     H26822   4.712   6.993   8.728 -2.2317  3.8905  2.1848
  920MOL0     O26823   2.567   6.836   9.483 -0.0843 -0.1572 -0.0847
  920MOL0     C26824   2.566   6.888   9.595  0.0389  0.1667 -0.5885
  920MOL0     O26825   2.630   6.999   9.634 -0.2296  0.8491  0.0969
  920MOL0     C26826   2.746   7.028   9.567  0.0770 -0.4652 -0.0366
  920MOL0     C26827   2.868   6.957   9.605  0.4448 -0.0058 -0.0576
  920MOL0     C26828   2.984   6.977   9.532 -0.3507 -0.5555 -0.4525
  920MOL0     C26829   2.993   7.068   9.430  0.4426  0.4425 -0.3402
  920MOL0     O26830   3.110   7.073   9.354 -0.4208  0.3074  0.1140
  920MOL0     C26831   3.078   7.031   9.221 -0.0353  0.2040  0.7523
  920MOL0     C26832   3.204   6.984   9.145  0.2661  0.4776 -0.6556
  920MOL0     C26833   3.315   7.093   9.134 -0.1873  0.4059 -0.2369
  920MOL0     C26834   3.409   7.053   9.017  0.2546 -0.5478 -0.1781
  920MOL0     C26835   3.519   7.159   9.012 -0.5694 -0.4557  0.3780
  920MOL0     C26836   3.650   7.102   8.950 -0.5665  0.0186 -0.1153
  920MOL0     C26837   3.759   7.208   8.946 -0.7290 -0.3363 -0.1590
  920MOL0     C26838   3.892   7.152   8.900  0.2345  0.5937 -0.4500
  920MOL0     N26839   3.968   7.075   9.004  0.4889  0.3150  0.3033
  920MOL0     C26840   4.052   7.128   9.097 -0.1847 -0.2467 -0.4307
  920MOL0     C26841   4.074   7.032   9.183 -0.1718 -0.1010 -0.8334
  920MOL0     C26842   4.145   7.021   9.317 -0.4161  0.0784  0.0463
  920MOL0     C26843   4.148   7.140   9.402  0.3671 -0.6397 -0.7191
  920MOL0     C26844   4.195   7.104   9.542 -0.3411 -0.1740 -0.0570
  920MOL0     C26845   4.347   7.116   9.563 -0.6813  0.2523 -0.2548
  920MOL0     O26846   4.374   7.120   9.704 -0.6472 -0.0230  0.2358
  920MOL0     C26847   4.503   7.101   9.753  0.5404  0.4733  0.7281
  920MOL0     C26848   4.612   7.129   9.669  0.8296 -0.5506 -0.0675
  920MOL0     C26849   4.743   7.114   9.716 -0.0294  0.1337  0.1980
  920MOL0     C26850   4.846   7.106   9.602 -0.1306 -0.3425  0.1811
  920MOL0     C26851   4.769   7.082   9.850 -1.0890  0.2967  0.0011
  920MOL0     C26852   4.892   7.045   9.916  0.1963  0.2423  0.7304
  920MOL0     O26853   4.876   6.950  10.009  0.4427  0.1999  0.6153
  920MOL0     C26854   4.988   6.895  10.064 -0.4886 -0.2619  0.6744
  920MOL0     C26855   5.007   6.757  10.074  0.7119 -0.8360 -0.5494
  920MOL0     C26856   5.118   6.691  10.127  0.4044 -0.4485  0.5722
  920MOL0     C26857   5.224   6.763  10.178  0.7270 -0.0073  0.2379
  920MOL0     O26858   5.345   6.726  10.234  0.6151  0.3423 -0.1399
  920MOL0     C26859   5.381   6.581  10.228 -0.5789 -0.2532  0.8479
  920MOL0     C26860   5.311   6.477  10.318  0.8831 -0.7331  0.3003
  920MOL0     C26861   5.377   6.470  10.456  0.2779 -0.3484 -0.2586
  920MOL0     C26862   5.420   6.600  10.523 -0.2252  0.2341 -0.5976
  920MOL0     C26863   5.491   6.567  10.662 -0.1245 -0.2363 -0.5578
  920MOL0     C26864   5.633   6.518  10.654 -0.1140 -0.4774 -0.2977
  920MOL0     C26865   5.661   6.415  10.768  0.6499 -0.5924 -0.3904
  920MOL0     C26866   5.778   6.330  10.723  0.0079 -1.0909  0.8887
  920MOL0    Cl26867   5.926   6.424  10.741  0.4978 -0.0165 -0.0378
  920MOL0     C26868   5.209   6.898  10.170  0.2892 -0.0043  1.0516
  920MOL0     C26869   5.099   6.967  10.109  0.4958  0.4058 -0.1072
  920MOL0     O26870   4.999   7.110   9.890  0.3597  0.6263 -0.3448
  920MOL0     C26871   4.657   7.068   9.929  0.4039  0.1355 -0.6525
  920MOL0     C26872   4.528   7.081   9.886 -0.3219 -0.4950 -0.3291
  920MOL0     N26873   4.000   6.923   9.140 -0.0086  0.0361  0.8548
  920MOL0     N26874   3.950   6.946   9.030  0.0368  0.2043  0.2208
  920MOL0     C26875   2.881   7.150   9.406  0.4663 -0.1272  0.8387
  920MOL0     C26876   2.748   7.131   9.468  0.2802  0.2256  0.9614
  920MOL0     C26877   2.486   6.822   9.701 -0.6018 -0.2600  0.2222
  920MOL0     C26878   2.424   6.919   9.787 -0.2123 -0.4215 -0.2793
  920MOL0     C26879   2.318   6.875   9.866  0.0903 -0.1097  1.1642
  920MOL0     C26880   2.269   6.747   9.865 -0.6823  0.2128  0.1848
  920MOL0     O26881   2.166   6.718   9.951 -0.1265 -0.1461 -0.0229
  920MOL0     C26882   2.078   6.812  10.015  0.8588 -0.2692 -0.7933
  920MOL0     C26883   1.951   6.743  10.086  0.7316 -0.4456 -0.6337
  920MOL0     C26884   1.875   6.654   9.984 -0.6063 -0.1847 -0.3834
  920MOL0     C26885   1.725   6.649  10.015 -0.0084  0.5165  0.2608
  920MOL0     C26886   1.704   6.572  10.139 -0.4279 -0.2095  0.2400
  920MOL0     C26887   1.667   6.516  10.242  0.0578  0.2274  0.2081
  920MOL0     C26888   2.337   6.651   9.786  0.9881 -0.1294  0.0872
  920MOL0     C26889   2.446   6.685   9.704  0.7577 -0.7681 -0.0148
  920MOL0     C26890   2.510   6.574   9.619  0.5988 -0.1053 -0.2748
  920MOL0     H26891   2.881   6.890   9.690  3.4442  0.2559 -0.1851
  920MOL0     H26892   3.073   6.921   9.562  0.4275  0.3663 -0.9876
  920MOL0     H26893   3.028   7.105   9.157 -3.2249 -2.1963  0.2165
  920MOL0     H26894   3.018   6.940   9.221 -1.4377  1.0668 -0.3450
  920MOL0     H26895   3.254   6.898   9.191  0.9540  0.9656 -0.4679
  920MOL0     H26896   3.180   6.957   9.042  2.0076 -0.2496 -0.9121
  920MOL0     H26897   3.258   7.180   9.099 -1.3005  1.1614  3.0221
  920MOL0     H26898   3.372   7.118   9.225  0.5275  0.1571 -0.6076
  920MOL0     H26899   3.457   6.958   9.042 -0.2367 -0.8522 -0.3828
  920MOL0     H26900   3.348   7.051   8.926 -1.4861  2.8653  0.7556
  920MOL0     H26901   3.539   7.183   9.116  0.3194 -1.3737  0.4375
  920MOL0     H26902   3.483   7.247   8.958  2.6525  1.8221  1.6109
  920MOL0     H26903   3.672   7.014   9.011 -0.6282  1.4199  2.0338
  920MOL0     H26904   3.634   7.068   8.847 -1.7909 -1.8341  0.6248
  920MOL0     H26905   3.774   7.263   9.039 -1.4090 -2.0301  1.0075
  920MOL0     H26906   3.733   7.289   8.877 -0.6037  1.9139  2.3010
  920MOL0     H26907   3.891   7.087   8.811  1.2848  0.6130 -0.4904
  920MOL0     H26908   3.950   7.237   8.862 -0.1405 -0.1294 -2.8078
  920MOL0     H26909   4.083   7.232   9.101 -1.3322  0.1210 -0.5350
  920MOL0     H26910   4.249   7.014   9.285 -1.0694  0.2934 -2.2831
  920MOL0     H26911   4.117   6.927   9.366 -0.8207 -1.0622 -2.2398
  920MOL0     H26912   4.210   7.223   9.369  0.4945 -1.0748 -1.5914
  920MOL0     H26913   4.045   7.177   9.407  0.3200 -0.6779 -1.3078
  920MOL0     H26914   4.142   7.176   9.605  0.3334 -2.2600  3.1542
  920MOL0     H26915   4.154   7.005   9.564  0.0565 -0.2864  0.1889
  920MOL0     H26916   4.393   7.024   9.525 -2.0754 -0.5447 -0.1204
  920MOL0     H26917   4.382   7.202   9.507  2.5467 -0.0087  1.1533
  920MOL0     H26918   4.591   7.168   9.570  0.8051  2.4412  1.0241
  920MOL0     H26919   4.945   7.139   9.636 -0.8646  0.7694  1.3086
  920MOL0     H26920   4.821   7.164   9.513 -0.2602 -0.6383  0.0244
  920MOL0     H26921   4.850   6.998   9.583 -0.8241 -1.2909  4.4086
  920MOL0     H26922   4.929   6.688  10.043  0.5457 -0.2035 -1.5967
  920MOL0     H26923   5.143   6.589  10.098  3.1894  0.7345 -1.6623
  920MOL0     H26924   5.375   6.552  10.123 -5.2618  1.4852  0.4142
  920MOL0     H26925   5.486   6.570  10.258 -0.8274 -0.1702  1.7766
  920MOL0     H26926   5.204   6.500  10.321  0.9165 -0.5191 -0.0551
  920MOL0     H26927   5.318   6.375  10.281  0.5344 -1.3708  1.9200
  920MOL0     H26928   5.460   6.399  10.443 -0.8508 -1.5969 -0.9352
  920MOL0     H26929   5.304   6.419  10.519 -2.0004 -0.6468 -2.9342
  920MOL0     H26930   5.326   6.650  10.547  0.5237  1.1910  0.4745
  920MOL0     H26931   5.481   6.665  10.460  0.4320  0.4483  0.2396
  920MOL0     H26932   5.486   6.651  10.732 -4.4535 -1.9377  1.5398
  920MOL0     H26933   5.429   6.489  10.708 -2.6685  0.5421 -2.4772
  920MOL0     H26934   5.698   6.606  10.658 -2.7640  1.6963 -1.5237
  920MOL0     H26935   5.642   6.474  10.555 -2.2802  0.6744 -1.0752
  920MOL0     H26936   5.581   6.341  10.769  0.3870 -0.3563 -1.6024
  920MOL0     H26937   5.666   6.457  10.869 -2.6237  0.4520 -0.5213
  920MOL0     H26938   5.752   6.302  10.621 -1.8897  1.1372  0.6655
  920MOL0     H26939   5.779   6.239  10.784 -2.5282 -1.9318 -0.1810
  920MOL0     H26940   5.286   6.965  10.206  0.4839 -1.1853  2.9195
  920MOL0     H26941   5.109   7.075  10.096  2.9815  0.0036 -2.1929
  920MOL0     H26942   4.655   7.056  10.037  2.0209  2.2984 -0.3062
  920MOL0     H26943   4.438   7.072   9.945 -0.8572  0.9686 -0.8790
  920MOL0     H26944   2.888   7.219   9.322  0.3651 -3.1122 -1.8327
  920MOL0     H26945   2.655   7.179   9.438  1.3120  1.0939 -1.0653
  920MOL0     H26946   2.443   7.026   9.779 -2.4342 -0.0207 -0.9445
  920MOL0     H26947   2.267   6.948   9.929  1.4404  1.8249  0.1090
  920MOL0     H26948   2.139   6.868  10.086  5.4358 -1.3304 -3.5092
  920MOL0     H26949   2.036   6.876   9.936 -0.6356 -1.0910 -0.6981
  920MOL0     H26950   1.882   6.820  10.122 -1.3344 -1.9002 -1.3090
  920MOL0     H26951   1.984   6.674  10.164  2.0206  1.5965  0.7247
  920MOL0     H26952   1.892   6.696   9.884  0.9257 -0.4345 -0.2548
  920MOL0     H26953   1.919   6.554   9.974 -1.8226 -1.0986  2.3177
  920MOL0     H26954   1.668   6.603   9.934  0.2517  2.6569 -1.2273
  920MOL0     H26955   1.690   6.753  10.022  0.4008  0.5849  1.6237
  920MOL0     H26956   1.628   6.450  10.316  0.2462 -0.8673 -0.6473
  920MOL0     H26957   2.318   6.544   9.791  3.5515 -0.6024  2.5523
  920MOL0     H26958   2.534   6.480   9.669 -2.3623 -1.6772 -1.5731
  920MOL0     H26959   2.451   6.557   9.528 -1.4982 -2.5392  1.3948
  920MOL0     H26960   2.607   6.610   9.583  1.7820 -1.7551  1.0890
  921MOL0     O26961   8.118   8.596   9.186  0.1431  0.4260  0.9018
  921MOL0     C26962   8.039   8.510   9.231 -0.3037  0.1086 -0.6827
  921MOL0     O26963   8.049   8.455   9.354  0.6326 -0.2795 -0.3145
  921MOL0     C26964   8.162   8.493   9.418  0.1356  0.5266  0.2726
  921MOL0     C26965   8.179   8.611   9.500  0.6120 -0.5269 -0.3704
  921MOL0     C26966   8.300   8.645   9.552  0.5468  0.2007  0.2623
  921MOL0     C26967   8.416   8.564   9.538 -0.7240  0.7204  0.2773
  921MOL0     O26968   8.541   8.592   9.592 -0.0154  0.3352  0.2077
  921MOL0     C26969   8.647   8.496   9.582 -0.7071  0.6060 -0.2312
  921MOL0     C26970   8.727   8.512   9.456  0.3850  0.0970 -0.5142
  921MOL0     C26971   8.857   8.441   9.453 -0.1792  0.3703 -0.4312
  921MOL0     C26972   8.920   8.467   9.313  0.2804  0.2354 -0.3812
  921MOL0     C26973   9.033   8.362   9.298 -0.2169 -0.8059 -0.2178
  921MOL0     C26974   9.105   8.394   9.169 -0.5733 -0.6058  0.1880
  921MOL0     C26975   9.227   8.301   9.135  0.2475  0.0685  0.4013
  921MOL0     C26976   9.255   8.312   8.980 -0.3680 -0.3767 -0.2493
  921MOL0     N26977   9.326   8.438   8.951  1.5070  0.4413  0.4393
  921MOL0     C26978   9.262   8.559   8.942 -0.6174  0.7658  0.2326
  921MOL0     C26979   9.365   8.650   8.955 -0.7552 -0.2271 -0.3436
  921MOL0     C26980   9.351   8.802   8.923 -0.1405  0.7017  0.3093
  921MOL0     C26981   9.455   8.878   8.994 -0.1650  0.4880  0.0628
  921MOL0     C26982   9.425   9.021   8.967 -0.0309 -0.5948  0.4332
  921MOL0     C26983   9.482   9.094   9.089  0.2510 -0.5845  0.4716
  921MOL0     O26984   9.448   9.230   9.095  0.4113 -1.0111 -0.0736
  921MOL0     C26985   9.518   9.326   9.027  0.2349 -0.3092  0.0428
  921MOL0     C26986   9.492   9.451   9.053 -0.0689 -0.2826  0.8395
  921MOL0     C26987   9.546   9.557   8.978  0.6128  0.3901  0.4833
  921MOL0     C26988   9.512   9.693   9.006  0.0382  0.0310  0.7221
  921MOL0     C26989   9.650   9.528   8.883  0.6465  1.1616  0.0972
  921MOL0     C26990   9.713   9.616   8.783  0.4872  0.5785 -0.2791
  921MOL0     O26991   9.808   9.702   8.838 -0.1207 -0.4281 -0.0431
  921MOL0     C26992   9.875   9.797   8.753  0.3355  0.3697  0.3070
  921MOL0     C26993   9.934   9.756   8.636 -0.6284 -0.3730 -0.4448
  921MOL0     C26994   9.997   9.860   8.564  0.0997  0.7055 -0.2507
  921MOL0     C26995   9.996   9.991   8.597 -0.3864  0.8484 -0.1390
  921MOL0     O26996  10.085  10.069   8.526  0.3594  0.2013  0.2433
  921MOL0     C26997  10.112  10.202   8.580  0.5437  1.2729 -0.3459
  921MOL0     C26998  10.224  10.276   8.492  0.5008  0.5566 -0.5409
  921MOL0     C26999  10.359  10.218   8.505 -0.8546  0.1318 -0.7192
  921MOL0     C27000  10.436  10.268   8.624  0.0600  0.8552 -0.1465
  921MOL0     C27001  10.566  10.198   8.621  0.0158 -0.3030 -0.2805
  921MOL0     C27002  10.659  10.272   8.719  0.0748 -0.6145 -0.4194
  921MOL0     C27003  10.792  10.200   8.742 -0.2472  0.5116 -0.8628
  921MOL0     C27004  10.870  10.237   8.869  0.6994 -1.2341  0.0822
  921MOL0    Cl27005  11.036  10.182   8.873 -0.0457  0.5275 -0.1158
  921MOL0     C27006   9.909  10.025   8.702  0.0964  0.4700  0.2829
  921MOL0     C27007   9.866   9.929   8.788 -0.5751 -0.5811  0.5137
  921MOL0     O27008   9.677   9.605   8.662  0.9150  0.3499  0.0808
  921MOL0     C27009   9.692   9.395   8.864 -0.0353 -0.2965 -0.1011
  921MOL0     C27010   9.623   9.298   8.939  0.2001  0.5972 -0.6420
  921MOL0     N27011   9.485   8.586   8.970 -0.0679 -0.6153 -0.4923
  921MOL0     N27012   9.457   8.456   8.986  0.8129 -0.7414 -0.4518
  921MOL0     C27013   8.395   8.446   9.455  1.3774 -0.2473  0.2841
  921MOL0     C27014   8.279   8.416   9.391  0.4714 -0.3748  1.1408
  921MOL0     C27015   7.920   8.457   9.148  0.8731 -0.0423 -0.6627
  921MOL0     C27016   7.847   8.346   9.206 -0.2807 -0.2832  0.0571
  921MOL0     C27017   7.720   8.303   9.158  0.0920 -0.3887 -0.6895
  921MOL0     C27018   7.670   8.366   9.045  0.7862 -0.4105  1.1617
  921MOL0     O27019   7.547   8.319   9.001  0.3246  0.5019  0.6777
  921MOL0     C27020   7.498   8.343   8.867 -0.5096  0.3005  0.4413
  921MOL0     C27021   7.546   8.244   8.757 -0.0010  0.1941 -0.1379
  921MOL0     C27022   7.460   8.246   8.638 -0.7362 -0.4653  0.7296
  921MOL0     C27023   7.464   8.384   8.560 -0.9108  1.0324  0.1301
  921MOL0     C27024   7.527   8.373   8.431 -0.4445 -0.9571  0.3911
  921MOL0     C27025   7.584   8.343   8.330  0.5131 -0.0393  1.1411
  921MOL0     C27026   7.754   8.453   8.973 -0.4602 -0.3710 -0.9579
  921MOL0     C27027   7.880   8.497   9.019  0.3707  0.0373  0.5611
  921MOL0     C27028   7.956   8.609   8.950 -0.5375 -0.4774 -0.4049
  921MOL0     H27029   8.089   8.667   9.523  1.3890  0.1649  1.0564
  921MOL0     H27030   8.302   8.732   9.617  3.0529  1.5158 -1.4040
  921MOL0     H27031   8.615   8.391   9.578 -1.0224  0.7287 -1.6818
  921MOL0     H27032   8.707   8.510   9.672  0.2951  1.5907 -1.0219
  921MOL0     H27033   8.664   8.475   9.375  1.6996 -2.8556 -0.3342
  921MOL0     H27034   8.752   8.618   9.447 -3.1758  0.8866 -2.6815
  921MOL0     H27035   8.919   8.467   9.539 -0.5105  2.8161 -0.8620
  921MOL0     H27036   8.832   8.336   9.470  0.1227  0.3323 -0.2168
  921MOL0     H27037   8.846   8.472   9.233  0.6549  0.3241 -0.7185
  921MOL0     H27038   8.966   8.566   9.311  3.0774 -0.9954 -1.7037
  921MOL0     H27039   9.000   8.258   9.291  3.1653 -2.0222 -0.1465
  921MOL0     H27040   9.111   8.364   9.375  1.2295 -0.9734 -1.6149
  921MOL0     H27041   9.045   8.394   9.078  0.0601 -1.6364 -0.2543
  921MOL0     H27042   9.156   8.491   9.169 -3.8251  1.2353  1.4886
  921MOL0     H27043   9.199   8.200   9.165 -0.0821 -0.0301 -0.2240
  921MOL0     H27044   9.317   8.328   9.190 -0.5979  1.1434  1.3099
  921MOL0     H27045   9.328   8.233   8.961 -0.3973 -0.2752 -0.8192
  921MOL0     H27046   9.174   8.299   8.908  0.0694  2.4079 -1.3750
  921MOL0     H27047   9.157   8.588   8.933 -1.0867 -0.8637  0.0998
  921MOL0     H27048   9.252   8.843   8.944 -0.7388 -0.2585 -0.5547
  921MOL0     H27049   9.357   8.801   8.814 -3.8309  1.6070 -0.0342
  921MOL0     H27050   9.462   8.845   9.098 -0.6219 -1.4701 -0.4886
  921MOL0     H27051   9.548   8.858   8.941 -0.2067  2.4645 -0.8445
  921MOL0     H27052   9.479   9.055   8.877 -0.7494 -0.2753  0.1121
  921MOL0     H27053   9.319   9.045   8.954  0.1452  0.6213  1.0381
  921MOL0     H27054   9.453   9.058   9.188  0.9333  1.4482  1.4753
  921MOL0     H27055   9.591   9.088   9.099  0.2669 -0.3620  0.4355
  921MOL0     H27056   9.418   9.471   9.130 -0.2455 -3.3234  1.5718
  921MOL0     H27057   9.599   9.760   9.006  0.1263 -0.0668  1.7934
  921MOL0     H27058   9.474   9.698   9.109 -0.3857  1.5746  0.5216
  921MOL0     H27059   9.431   9.728   8.942  0.6820 -2.6701 -1.7323
  921MOL0     H27060   9.953   9.650   8.620  0.5490 -0.7811  2.7399
  921MOL0     H27061  10.040   9.820   8.472  0.4597  0.5232 -0.0030
  921MOL0     H27062  10.024  10.264   8.562 -0.1539 -0.0857 -1.7947
  921MOL0     H27063  10.150  10.188   8.682  2.2745 -1.8717 -1.2913
  921MOL0     H27064  10.192  10.269   8.388 -1.5667 -1.2579  0.1450
  921MOL0     H27065  10.243  10.380   8.521  2.6489 -0.3087  1.5032
  921MOL0     H27066  10.407  10.244   8.410 -0.8990 -1.0958 -1.1026
  921MOL0     H27067  10.350  10.109   8.505  1.2881 -0.1165  1.3154
  921MOL0     H27068  10.378  10.239   8.712  0.8412 -1.0588 -0.2146
  921MOL0     H27069  10.435  10.377   8.624  2.4649  0.9503  1.3667
  921MOL0     H27070  10.556  10.093   8.650  2.4878 -0.4679  0.2157
  921MOL0     H27071  10.617  10.204   8.525 -1.1033  3.1020 -0.8179
  921MOL0     H27072  10.612  10.286   8.817  0.1021  2.7376 -0.7681
  921MOL0     H27073  10.680  10.370   8.675  0.4775  0.1472  1.3890
  921MOL0     H27074  10.855  10.215   8.654  1.4182 -2.2427 -0.2652
  921MOL0     H27075  10.777  10.092   8.754  0.5039 -0.0320 -4.0547
  921MOL0     H27076  10.825  10.201   8.962  0.0739 -2.8197 -0.8089
  921MOL0     H27077  10.880  10.346   8.875 -1.6957 -0.9353 -0.4896
  921MOL0     H27078   9.898  10.129   8.728  0.4248  0.4447  0.5303
  921MOL0     H27079   9.818   9.951   8.883 -1.4237 -0.9707  0.1770
  921MOL0     H27080   9.766   9.365   8.790  1.2768 -2.6297  1.9722
  921MOL0     H27081   9.650   9.194   8.920 -0.0605 -0.1611  2.5644
  921MOL0     H27082   8.473   8.370   9.456  1.6078 -0.0159  0.3361
  921MOL0     H27083   8.266   8.328   9.329 -3.0097 -0.8987  2.3700
  921MOL0     H27084   7.871   8.290   9.296  0.3817 -1.0735 -0.5961
  921MOL0     H27085   7.678   8.218   9.211  0.0106 -0.2337 -0.5026
  921MOL0     H27086   7.389   8.341   8.873 -0.8489 -1.0058 -3.3279
  921MOL0     H27087   7.510   8.446   8.831 -1.5119 -0.1583 -1.3376
  921MOL0     H27088   7.548   8.140   8.793  0.6538 -0.3062 -1.5397
  921MOL0     H27089   7.652   8.265   8.746  0.1022  0.8402  1.7160
  921MOL0     H27090   7.502   8.169   8.572  0.4522 -1.1742  2.2521
  921MOL0     H27091   7.359   8.213   8.665 -0.7958  0.0139  1.1071
  921MOL0     H27092   7.542   8.442   8.612 -0.4832  0.8855 -0.3455
  921MOL0     H27093   7.369   8.438   8.570 -0.4150  1.4808  4.4379
  921MOL0     H27094   7.638   8.326   8.239 -0.1652 -0.3742  0.7975
  921MOL0     H27095   7.723   8.483   8.874 -0.1310  0.5929 -0.7751
  921MOL0     H27096   8.061   8.581   8.943 -0.8799 -1.5827 -1.4181
  921MOL0     H27097   7.922   8.622   8.847  0.0948  1.5582 -0.3849
  921MOL0     H27098   7.947   8.701   9.009  1.3988 -0.8982  0.6232
  922MOL0     O27099   8.871   2.325   1.028 -0.5245 -0.2115 -0.3745
  922MOL0     C27100   8.767   2.394   1.037 -0.5983  0.3579 -0.1128
  922MOL0     O27101   8.757   2.529   1.022  0.4110 -0.5406 -0.3707
  922MOL0     C27102   8.861   2.603   0.985 -0.0077 -0.2588  0.2541
  922MOL0     C27103   8.942   2.573   0.874 -0.3342  0.7794 -0.1999
  922MOL0     C27104   9.069   2.625   0.863 -1.5383 -0.4156 -0.1807
  922MOL0     C27105   9.116   2.726   0.951 -0.7345  0.2816 -0.2678
  922MOL0     O27106   9.248   2.762   0.941 -0.5222 -0.3047 -0.3746
  922MOL0     C27107   9.299   2.874   1.021  0.3364  0.2048 -0.0502
  922MOL0     C27108   9.329   2.833   1.164  0.3526  0.2579 -0.1723
  922MOL0     C27109   9.455   2.761   1.189 -0.6399  0.4750 -0.7980
  922MOL0     C27110   9.578   2.852   1.167 -0.3493  0.0909  0.2206
  922MOL0     C27111   9.691   2.793   1.081  0.0954  0.4125 -0.0913
  922MOL0     C27112   9.654   2.801   0.935  0.2835 -0.1795  0.7222
  922MOL0     C27113   9.721   2.704   0.840  0.1512  0.7806 -0.0233
  922MOL0     C27114   9.683   2.723   0.691 -0.0028  0.2235  0.6079
  922MOL0     N27115   9.557   2.663   0.648 -0.7311 -0.0809  0.0181
  922MOL0     C27116   9.533   2.533   0.601  0.7787  0.2569  0.3074
  922MOL0     C27117   9.404   2.533   0.558  0.5153 -0.4957  0.1527
  922MOL0     C27118   9.338   2.418   0.499  0.5666  0.2758  0.2502
  922MOL0     C27119   9.411   2.359   0.376 -0.2119  0.7656  0.9036
  922MOL0     C27120   9.435   2.204   0.367 -0.2281 -0.1339 -0.7024
  922MOL0     C27121   9.584   2.163   0.352 -0.6956  0.5336 -0.4517
  922MOL0     O27122   9.608   2.020   0.371 -0.8504 -0.2683  0.7335
  922MOL0     C27123   9.742   1.978   0.368 -0.5687 -0.7062 -0.1379
  922MOL0     C27124   9.763   1.862   0.443  0.1609 -0.1200  0.0692
  922MOL0     C27125   9.891   1.817   0.462 -0.3218  0.7266 -0.8512
  922MOL0     C27126   9.906   1.693   0.550  0.3859 -0.6431 -0.1074
  922MOL0     C27127  10.007   1.873   0.400  0.5556 -0.0881 -0.3168
  922MOL0     C27128  10.136   1.803   0.384  0.3926  0.1153 -0.4852
  922MOL0     O27129  10.239   1.876   0.335 -0.0253 -0.3182  0.2448
  922MOL0     C27130  10.360   1.824   0.307  0.2079 -1.1196 -0.7847
  922MOL0     C27131  10.387   1.726   0.216 -0.0866  0.4456 -0.3095
  922MOL0     C27132  10.515   1.685   0.189  0.1814  0.4658 -0.4631
  922MOL0     C27133  10.623   1.743   0.250 -0.5990  0.3024  0.3496
  922MOL0     O27134  10.744   1.688   0.218  0.2385 -0.0572 -0.7257
  922MOL0     C27135  10.859   1.785   0.222  0.2572  0.1204 -0.1018
  922MOL0     C27136  10.972   1.721   0.138  0.3540  0.8333 -0.2173
  922MOL0     C27137  11.036   1.590   0.194  0.4654 -0.4100  0.2145
  922MOL0     C27138  11.148   1.557   0.103  0.2963  0.3643  0.1263
  922MOL0     C27139  11.223   1.434   0.163 -0.6075  0.8243  0.0384
  922MOL0     C27140  11.348   1.403   0.079 -0.5641  0.5066 -0.2421
  922MOL0     C27141  11.454   1.309   0.129 -0.6095 -0.7100  0.4595
  922MOL0     C27142  11.585   1.299   0.046  1.1558  0.1768 -0.2471
  922MOL0    Cl27143  11.680   1.182   0.143 -0.0889 -0.2773 -0.1749
  922MOL0     C27144  10.606   1.860   0.323 -0.0058  0.9238  0.1837
  922MOL0     C27145  10.475   1.891   0.363 -0.2827 -0.3534  0.0006
  922MOL0     O27146  10.146   1.681   0.411  0.9015 -0.4349  0.0666
  922MOL0     C27147   9.985   2.000   0.341 -0.3071  0.0355 -0.5774
  922MOL0     C27148   9.854   2.051   0.319 -0.1930 -0.2943  0.3446
  922MOL0     N27149   9.345   2.659   0.581  0.0883 -0.1747 -0.1033
  922MOL0     N27150   9.440   2.727   0.639 -0.7068  0.4511 -0.0503
  922MOL0     C27151   9.027   2.767   1.051 -0.0686 -0.9308  0.4024
  922MOL0     C27152   8.910   2.694   1.069 -0.1314  0.4265  1.5996
  922MOL0     C27153   8.641   2.318   1.084 -0.9788  0.2679  0.9556
  922MOL0     C27154   8.641   2.172   1.082  0.3309 -0.5349  0.1474
  922MOL0     C27155   8.531   2.092   1.115  0.2760  0.5639 -0.2228
  922MOL0     C27156   8.411   2.160   1.148  0.3246  0.3709  0.3259
  922MOL0     O27157   8.287   2.106   1.149 -1.2341 -0.4094 -0.0155
  922MOL0     C27158   8.262   1.967   1.124 -0.3915  0.4945  0.3133
  922MOL0     C27159   8.116   1.924   1.101  0.2705 -0.6397 -1.1028
  922MOL0     C27160   8.036   1.950   1.226  0.8266  0.0769  0.4315
  922MOL0     C27161   7.899   1.873   1.226  0.6683  1.0060 -0.2560
  922MOL0     C27162   7.792   1.928   1.142 -0.4477  0.2414  0.7857
  922MOL0     C27163   7.705   1.980   1.071 -0.0620  0.3781 -0.3598
  922MOL0     C27164   8.409   2.299   1.159  0.3506  0.0231  0.4605
  922MOL0     C27165   8.519   2.379   1.129  0.2194  0.8942 -0.1347
  922MOL0     C27166   8.497   2.535   1.150 -0.5086 -0.2277 -0.9220
  922MOL0     H27167   8.909   2.501   0.799 -1.6380  0.2557  0.8390
  922MOL0     H27168   9.141   2.600   0.786 -2.5051  2.5868 -2.2862
  922MOL0     H27169   9.230   2.959   1.021  2.5960  2.1699 -0.6783
  922MOL0     H27170   9.385   2.923   0.973 -0.0119  0.4111 -0.4681
  922MOL0     H27171   9.334   2.926   1.222  0.7713  0.8949 -1.1776
  922MOL0     H27172   9.241   2.776   1.196  1.7707 -1.6488  0.5186
  922MOL0     H27173   9.457   2.731   1.294 -2.5253  1.5544 -0.4019
  922MOL0     H27174   9.470   2.674   1.125  0.4382 -4.1070  4.8466
  922MOL0     H27175   9.546   2.941   1.111  2.9239  1.5099  0.3807
  922MOL0     H27176   9.631   2.878   1.259 -0.2567  0.1736  0.1443
  922MOL0     H27177   9.709   2.689   1.110 -1.2416 -0.1553 -1.1770
  922MOL0     H27178   9.781   2.853   1.100  0.1273  0.6427 -0.9267
  922MOL0     H27179   9.545   2.789   0.926  0.0138  1.2883  1.6346
  922MOL0     H27180   9.678   2.901   0.898  0.5490 -0.8056 -0.8987
  922MOL0     H27181   9.687   2.606   0.874 -0.6196  1.3361  0.8650
  922MOL0     H27182   9.830   2.696   0.854  0.1099 -3.1198 -0.8323
  922MOL0     H27183   9.699   2.831   0.682  1.3803 -0.1207 -2.8502
  922MOL0     H27184   9.762   2.675   0.633  1.8426  1.5431  1.9190
  922MOL0     H27185   9.595   2.445   0.615  0.8190  0.1093 -0.7777
  922MOL0     H27186   9.234   2.441   0.471  0.9284  0.1414 -1.2572
  922MOL0     H27187   9.338   2.345   0.581  1.8665  1.4646  1.3633
  922MOL0     H27188   9.372   2.393   0.279  2.9276  0.4802 -0.5772
  922MOL0     H27189   9.509   2.407   0.378  0.1934  0.0801 -0.7989
  922MOL0     H27190   9.404   2.174   0.467  1.9979  0.3259  0.1828
  922MOL0     H27191   9.372   2.154   0.293 -1.2857 -1.4458  1.0320
  922MOL0     H27192   9.625   2.200   0.258  3.2736  0.1186  0.9233
  922MOL0     H27193   9.643   2.212   0.430 -2.5463  1.5723  0.3654
  922MOL0     H27194   9.674   1.818   0.487  0.4823  0.2893  1.1578
  922MOL0     H27195   9.919   1.603   0.488 -1.2815 -2.7427  2.3500
  922MOL0     H27196   9.817   1.663   0.607 -0.4848 -0.2239 -1.2235
  922MOL0     H27197   9.994   1.682   0.614  2.3380 -1.2456 -2.7522
  922MOL0     H27198  10.301   1.665   0.190  0.3083 -2.1524  3.6009
  922MOL0     H27199  10.519   1.597   0.125 -2.0227 -0.1961  0.2128
  922MOL0     H27200  10.833   1.886   0.186 -3.6567 -0.5780  0.2952
  922MOL0     H27201  10.896   1.798   0.324 -1.9623  2.9147  0.4811
  922MOL0     H27202  10.923   1.710   0.041 -3.3315  2.9596  1.2140
  922MOL0     H27203  11.054   1.793   0.133 -1.4201  3.0095  0.1728
  922MOL0     H27204  10.965   1.508   0.176 -1.7750  1.4110  0.2312
  922MOL0     H27205  11.057   1.607   0.300  0.0579  2.7869 -0.1121
  922MOL0     H27206  11.216   1.641   0.089 -1.7654  2.3701  1.3953
  922MOL0     H27207  11.106   1.529   0.006  0.3185 -1.4405  0.6007
  922MOL0     H27208  11.255   1.453   0.266  0.4335 -2.2351  0.3782
  922MOL0     H27209  11.153   1.350   0.171  1.1271 -0.8149 -1.1654
  922MOL0     H27210  11.398   1.499   0.065  0.0408  0.3143  0.5733
  922MOL0     H27211  11.313   1.356  -0.014  0.1753  0.4915 -0.5187
  922MOL0     H27212  11.417   1.206   0.126  3.1649 -2.2071  0.2773
  922MOL0     H27213  11.479   1.331   0.233 -0.0139  1.3441 -0.0852
  922MOL0     H27214  11.639   1.395   0.049  1.2198  0.1192  0.7502
  922MOL0     H27215  11.554   1.271  -0.055 -2.2602  0.0880  0.6975
  922MOL0     H27216  10.684   1.924   0.366 -0.2631  0.0227  2.1246
  922MOL0     H27217  10.460   1.969   0.436 -1.3531 -1.3502  0.8701
  922MOL0     H27218  10.075   2.055   0.312  0.7439 -1.1856  0.2799
  922MOL0     H27219   9.835   2.131   0.248  1.0466 -2.3779 -2.5401
  922MOL0     H27220   9.050   2.854   1.112 -0.0007 -1.3853  1.0386
  922MOL0     H27221   8.848   2.710   1.157  1.5439 -1.7200  3.2767
  922MOL0     H27222   8.736   2.124   1.061  0.2296 -0.4023 -0.6449
  922MOL0     H27223   8.541   1.986   1.097  0.5979  0.5140  0.2299
  922MOL0     H27224   8.314   1.951   1.029  1.9302  1.3253  1.3722
  922MOL0     H27225   8.314   1.900   1.194 -0.1100  1.4701  1.0521
  922MOL0     H27226   8.127   1.815   1.095  0.1386 -0.6809 -0.6743
  922MOL0     H27227   8.067   1.966   1.013 -3.9332 -0.8078  0.8758
  922MOL0     H27228   8.087   1.902   1.310  0.4059 -1.0550  0.0709
  922MOL0     H27229   8.017   2.055   1.247  0.8382  0.9226 -3.0931
  922MOL0     H27230   7.864   1.873   1.330  0.5305  0.3636 -0.3013
  922MOL0     H27231   7.909   1.767   1.201 -1.7600  0.3756  1.0791
  922MOL0     H27232   7.641   2.027   0.999 -0.9335  0.0876  0.2144
  922MOL0     H27233   8.317   2.350   1.184  0.7166  0.4001  1.0608
  922MOL0     H27234   8.589   2.570   1.198 -1.5204  1.7565 -0.3126
  922MOL0     H27235   8.495   2.595   1.059  0.7526  2.7971  0.8829
  922MOL0     H27236   8.416   2.559   1.220  0.9625 -0.5923  0.9641
  923MOL0     O27237   4.903   0.727  10.925 -0.0579 -0.6087  0.6761
  923MOL0     C27238   4.921   0.678  10.814  0.0902  0.1287  0.2509
  923MOL0     O27239   4.822   0.662  10.721 -0.3938  0.7058 -0.3143
  923MOL0     C27240   4.688   0.662  10.759 -0.1348  0.4093  1.4504
  923MOL0     C27241   4.632   0.639  10.888 -0.3830 -0.3225 -0.4106
  923MOL0     C27242   4.491   0.638  10.906 -0.3392  0.0887 -0.6494
  923MOL0     C27243   4.402   0.662  10.800 -0.0296  0.4098 -0.4242
  923MOL0     O27244   4.269   0.649  10.808 -0.0425 -0.5579  0.3591
  923MOL0     C27245   4.215   0.543  10.891 -0.1005  0.3600 -0.3034
  923MOL0     C27246   4.066   0.516  10.867  0.4980  0.0940 -0.3993
  923MOL0     C27247   3.982   0.648  10.848 -0.4651 -0.1438 -0.5280
  923MOL0     C27248   3.831   0.625  10.835 -0.0955  0.1301 -1.5610
  923MOL0     C27249   3.763   0.754  10.823 -1.3114  0.2769 -0.4439
  923MOL0     C27250   3.616   0.746  10.867 -0.1178  0.5787  0.2636
  923MOL0     C27251   3.573   0.881  10.914 -0.1528 -0.3841  0.6924
  923MOL0     C27252   3.418   0.896  10.946 -0.3525 -0.1383  0.4459
  923MOL0     N27253   3.385   1.031  10.995 -0.5633 -0.4306  0.0269
  923MOL0     C27254   3.403   1.161  10.943  0.4223  1.0607 -0.0532
  923MOL0     C27255   3.357   1.248  11.042  0.7357 -0.6088  0.6107
  923MOL0     C27256   3.389   1.397  11.040  1.0356  0.7060  0.2189
  923MOL0     C27257   3.486   1.425  11.153  0.9024  0.0968  0.0695
  923MOL0     C27258   3.554   1.561  11.131 -0.5871 -0.1529  1.1544
  923MOL0     C27259   3.665   1.579  11.226  0.0596 -0.4162 -0.1457
  923MOL0     O27260   3.760   1.474  11.227 -0.5742 -0.1447 -0.2670
  923MOL0     C27261   3.891   1.500  11.261 -0.5651 -0.0457  0.1665
  923MOL0     C27262   3.994   1.444  11.191 -0.0224 -0.1237  0.3338
  923MOL0     C27263   4.127   1.487  11.203  0.1349 -0.4634  0.3368
  923MOL0     C27264   4.239   1.414  11.117  0.3361  0.1488 -0.0363
  923MOL0     C27265   4.154   1.598  11.286 -0.8485  0.5541  0.8443
  923MOL0     C27266   4.288   1.649  11.310  0.2628 -0.3470 -0.2261
  923MOL0     O27267   4.346   1.715  11.204  0.5040 -0.7364 -0.2501
  923MOL0     C27268   4.476   1.754  11.215  0.0264 -0.3861  0.9417
  923MOL0     C27269   4.507   1.880  11.262 -0.4985  0.5510 -0.1267
  923MOL0     C27270   4.647   1.915  11.274 -0.4283  0.5917 -0.7719
  923MOL0     C27271   4.746   1.828  11.225  0.4864  0.6059 -0.2102
  923MOL0     O27272   4.878   1.860  11.216 -0.5242  0.2908  0.3541
  923MOL0     C27273   4.924   1.895  11.083  0.2130 -0.0645  0.6642
  923MOL0     C27274   5.081   1.926  11.087  0.2685  0.0348 -0.7660
  923MOL0     C27275   5.168   1.806  11.137  0.9992  1.0760 -0.9075
  923MOL0     C27276   5.323   1.836  11.144 -0.0664 -0.1042  0.3268
  923MOL0     C27277   5.360   1.934  11.262 -0.5472  0.0842 -0.1710
  923MOL0     C27278   5.509   1.932  11.296 -0.9627 -0.6224 -0.7434
  923MOL0     C27279   5.580   1.792  11.321 -0.2721 -0.2599  0.2934
  923MOL0     C27280   5.512   1.721  11.438  0.0308  0.1267 -0.6952
  923MOL0    Cl27281   5.607   1.585  11.487  0.3916 -0.2373 -0.0924
  923MOL0     C27282   4.706   1.706  11.169  0.7749  0.2488  0.5756
  923MOL0     C27283   4.572   1.667  11.169 -0.2404  0.2664 -0.1827
  923MOL0     O27284   4.342   1.621  11.414  0.0308 -0.7951  0.0967
  923MOL0     C27285   4.050   1.649  11.362 -0.8439 -0.0019 -0.0384
  923MOL0     C27286   3.922   1.603  11.347  0.5130  0.0460  0.0359
  923MOL0     N27287   3.326   1.171  11.157  0.6868 -0.3853  0.5991
  923MOL0     N27288   3.337   1.048  11.126 -0.3457  0.7427 -0.0430
  923MOL0     C27289   4.463   0.682  10.675 -0.7016 -0.4119  0.0058
  923MOL0     C27290   4.602   0.678  10.648  0.0535 -0.2448 -0.1391
  923MOL0     C27291   5.064   0.662  10.770  0.2836 -0.0886 -0.2472
  923MOL0     C27292   5.087   0.665  10.633  0.6711 -0.0156 -0.2390
  923MOL0     C27293   5.208   0.636  10.574 -0.7397  0.4333 -0.1050
  923MOL0     C27294   5.314   0.592  10.658  0.0430  0.0696  0.5972
  923MOL0     O27295   5.446   0.576  10.616 -0.5379  0.4131  0.4887
  923MOL0     C27296   5.475   0.588  10.469  1.0125  0.9944 -0.0321
  923MOL0     C27297   5.625   0.593  10.446  0.3246 -0.5722  0.2050
  923MOL0     C27298   5.687   0.460  10.473 -0.2568 -0.5528  0.0496
  923MOL0     C27299   5.814   0.421  10.405  0.1819  0.4289 -0.0340
  923MOL0     C27300   5.798   0.444  10.261 -0.0515  0.1719 -0.0994
  923MOL0     C27301   5.800   0.483  10.144 -0.2151  0.3618 -0.5301
  923MOL0     C27302   5.292   0.594  10.796 -1.0108  0.2598 -0.4707
  923MOL0     C27303   5.169   0.626  10.859 -0.3938  0.6220  0.2588
  923MOL0     C27304   5.149   0.611  11.004 -0.5715 -1.0739  0.5191
  923MOL0     H27305   4.707   0.615  10.963 -0.7047  0.8738  0.3241
  923MOL0     H27306   4.441   0.635  11.003  0.4682  0.5891 -0.2024
  923MOL0     H27307   4.239   0.569  10.994 -0.9907 -0.6110  0.1654
  923MOL0     H27308   4.271   0.450  10.878  0.4283  0.0055  3.4388
  923MOL0     H27309   4.053   0.453  10.779 -1.4042 -0.5395  0.2817
  923MOL0     H27310   4.029   0.463  10.955 -2.1651  4.4991  1.4938
  923MOL0     H27311   4.000   0.706  10.938  0.9893  0.9202 -1.4787
  923MOL0     H27312   4.011   0.697  10.755 -0.7639 -0.8493 -1.0112
  923MOL0     H27313   3.813   0.548  10.760  0.1564 -0.3828 -1.1040
  923MOL0     H27314   3.795   0.568  10.922 -0.5244  2.0358 -0.4295
  923MOL0     H27315   3.763   0.794  10.722 -0.1094  2.5190  0.3591
  923MOL0     H27316   3.826   0.823  10.881 -0.4585 -0.7951 -0.0504
  923MOL0     H27317   3.546   0.711  10.790 -0.0501  1.8960 -0.4295
  923MOL0     H27318   3.624   0.680  10.954  5.2141 -1.5548 -1.4592
  923MOL0     H27319   3.603   0.961  10.846 -5.2713  0.9565 -0.4525
  923MOL0     H27320   3.617   0.905  11.012 -1.5636 -0.1565  1.2988
  923MOL0     H27321   3.361   0.888  10.853 -3.4344  1.0854  2.1018
  923MOL0     H27322   3.380   0.823  11.018 -1.7566 -0.0552 -0.1810
  923MOL0     H27323   3.440   1.201  10.849  1.0231  0.4118 -0.1061
  923MOL0     H27324   3.303   1.464  11.046  0.1099 -0.3991 -0.2891
  923MOL0     H27325   3.435   1.414  10.943 -1.1650 -2.9145 -1.6993
  923MOL0     H27326   3.440   1.431  11.253 -0.6183 -1.3067 -0.4982
  923MOL0     H27327   3.575   1.363  11.153  1.3693  0.7318 -1.1525
  923MOL0     H27328   3.593   1.560  11.029 -0.4718  0.0511  1.1964
  923MOL0     H27329   3.490   1.650  11.130  1.3919  1.3553 -0.2344
  923MOL0     H27330   3.714   1.676  11.209 -0.9920 -0.0322 -1.1095
  923MOL0     H27331   3.627   1.574  11.328  2.1356 -1.0125  0.6562
  923MOL0     H27332   3.982   1.357  11.127 -3.2005 -0.8093  1.6463
  923MOL0     H27333   4.264   1.469  11.025  1.6362  0.2827  0.3819
  923MOL0     H27334   4.199   1.319  11.081 -0.5525 -0.6022  2.7331
  923MOL0     H27335   4.322   1.380  11.179 -0.5758  0.3706  1.3611
  923MOL0     H27336   4.435   1.950  11.302 -2.8347 -1.6855 -0.1400
  923MOL0     H27337   4.669   2.014  11.311  0.1116  0.6307 -1.1926
  923MOL0     H27338   4.917   1.811  11.014 -1.3827  1.8882 -1.7298
  923MOL0     H27339   4.867   1.980  11.045 -1.4109 -1.3603  0.0894
  923MOL0     H27340   5.111   1.948  10.984 -0.6815 -1.3902 -1.3928
  923MOL0     H27341   5.092   2.008  11.158  0.4238 -1.5181  1.0627
  923MOL0     H27342   5.152   1.716  11.077  0.5577 -0.6338  1.6191
  923MOL0     H27343   5.123   1.782  11.234  0.1141  3.2697 -0.7101
  923MOL0     H27344   5.343   1.890  11.051 -1.4727 -1.4835 -0.8366
  923MOL0     H27345   5.377   1.742  11.150  2.7421  1.5012  2.2743
  923MOL0     H27346   5.333   2.038  11.245 -0.2624  0.0663 -0.7407
  923MOL0     H27347   5.298   1.903  11.347 -1.5260  0.9253 -0.5521
  923MOL0     H27348   5.526   1.992  11.387 -0.4903  0.0435 -1.2585
  923MOL0     H27349   5.562   1.982  11.215 -0.5150 -0.2000 -0.2050
  923MOL0     H27350   5.688   1.801  11.333 -0.4172 -0.0399  1.5228
  923MOL0     H27351   5.574   1.725  11.234  0.7819  0.8986 -0.6991
  923MOL0     H27352   5.411   1.685  11.420 -0.3404 -0.4843  2.2316
  923MOL0     H27353   5.511   1.794  11.519 -1.5279 -0.1914 -0.4073
  923MOL0     H27354   4.772   1.631  11.126 -1.4200  0.0762 -2.8351
  923MOL0     H27355   4.549   1.564  11.143 -0.7909 -0.3198  2.3097
  923MOL0     H27356   4.071   1.719  11.442  0.2690 -1.4204  0.9682
  923MOL0     H27357   3.853   1.667  11.401  0.6806 -0.9840  1.5332
  923MOL0     H27358   4.397   0.690  10.589  1.2890 -1.6390 -1.7290
  923MOL0     H27359   4.656   0.701  10.557 -0.2980  0.8572 -0.0895
  923MOL0     H27360   5.008   0.683  10.561  1.0949  1.3025 -0.3935
  923MOL0     H27361   5.216   0.637  10.466 -2.0579 -2.0634 -0.3058
  923MOL0     H27362   5.445   0.499  10.414  2.0117  0.7643 -0.2258
  923MOL0     H27363   5.417   0.665  10.418 -0.1624  0.7880  0.9600
  923MOL0     H27364   5.670   0.664  10.515  1.1156  0.1063 -0.9849
  923MOL0     H27365   5.644   0.632  10.346  0.1214  1.2309  0.8461
  923MOL0     H27366   5.703   0.465  10.582 -2.7813 -0.9268  0.5134
  923MOL0     H27367   5.616   0.378  10.455 -0.9096 -1.0605  3.9715
  923MOL0     H27368   5.829   0.314  10.419 -1.3331  0.1784 -0.1138
  923MOL0     H27369   5.891   0.479  10.455  0.0164  3.4194 -2.8598
  923MOL0     H27370   5.773   0.496  10.041 -1.2543  0.1236 -0.2979
  923MOL0     H27371   5.379   0.564  10.853 -0.7164  1.8819 -0.0069
  923MOL0     H27372   5.052   0.564  11.023 -1.6402  0.7590 -0.2315
  923MOL0     H27373   5.234   0.550  11.038  0.6273 -1.0766 -2.2264
  923MOL0     H27374   5.149   0.711  11.049 -0.4946 -1.5774  1.6792
  924MOL0     O27375   5.998  10.964   8.167 -0.2483 -0.7263 -0.5910
  924MOL0     C27376   5.992  10.902   8.267  0.3965  1.1143 -0.2093
  924MOL0     O27377   6.091  10.815   8.306  0.0275 -0.3445 -0.4200
  924MOL0     C27378   6.211  10.797   8.239 -0.6650  0.3399 -0.3170
  924MOL0     C27379   6.272  10.680   8.245 -0.9803 -0.7972 -0.0643
  924MOL0     C27380   6.391  10.648   8.177 -0.2996  0.4176  0.3957
  924MOL0     C27381   6.449  10.749   8.094  0.1924 -0.6622  0.0936
  924MOL0     O27382   6.558  10.720   8.016 -0.2453 -0.5914  0.4752
  924MOL0     C27383   6.661  10.827   8.020  0.2464  0.6961 -0.9664
  924MOL0     C27384   6.807  10.795   7.966 -0.3508  0.2753  1.2216
  924MOL0     C27385   6.913  10.907   7.998 -0.3521 -0.6138  0.0402
  924MOL0     C27386   7.054  10.876   7.941 -0.0206  0.8490  0.7655
  924MOL0     C27387   7.124  11.009   7.925  0.6156 -1.0303 -0.1023
  924MOL0     C27388   7.261  10.994   7.863  0.0689 -0.1886  0.1852
  924MOL0     C27389   7.317  11.122   7.797 -0.4735 -0.9406  0.0691
  924MOL0     C27390   7.456  11.096   7.753 -0.2521  0.4727  0.6121
  924MOL0     N27391   7.503  11.205   7.658  0.0532  0.0533  0.2141
  924MOL0     C27392   7.548  11.336   7.701 -0.0401 -0.9092  0.1954
  924MOL0     C27393   7.587  11.398   7.586 -0.8716 -0.3856 -0.2754
  924MOL0     C27394   7.642  11.535   7.567  0.5404  0.3783  0.2076
  924MOL0     C27395   7.779  11.529   7.500  0.6442 -0.5714  0.5294
  924MOL0     C27396   7.893  11.547   7.606 -0.6165  0.1543  0.6096
  924MOL0     C27397   7.893  11.659   7.713  1.0536 -1.0594  0.6284
  924MOL0     O27398   8.004  11.646   7.795 -0.6531 -0.0852  0.0571
  924MOL0     C27399   8.012  11.717   7.911 -0.2550 -0.1707 -0.0207
  924MOL0     C27400   7.930  11.825   7.946 -0.0719  0.9725  0.4854
  924MOL0     C27401   7.932  11.888   8.070 -0.8101  0.3654  0.0973
  924MOL0     C27402   7.826  12.003   8.087 -0.0349  0.4885  0.1423
  924MOL0     C27403   8.035  11.851   8.164 -0.3908 -0.1965  0.7191
  924MOL0     C27404   8.047  11.904   8.299  0.6298  0.3202 -0.4791
  924MOL0     O27405   8.161  11.872   8.375 -0.2166 -0.3289  0.3640
  924MOL0     C27406   8.175  11.952   8.483  1.2318  0.5567 -0.2021
  924MOL0     C27407   8.109  11.906   8.597  1.0540  0.3276 -0.4358
  924MOL0     C27408   8.110  11.979   8.719  1.0261  0.4560  0.7503
  924MOL0     C27409   8.173  12.101   8.718  0.4948  0.3733  0.8086
  924MOL0     O27410   8.187  12.175   8.829  0.1958 -0.7091  0.6977
  924MOL0     C27411   8.179  12.112   8.959 -0.9793 -0.2737 -0.7585
  924MOL0     C27412   8.237  12.217   9.061 -0.5918 -0.1661  0.1057
  924MOL0     C27413   8.393  12.224   9.055 -0.1157  0.1640  0.0560
  924MOL0     C27414   8.440  12.310   9.180  0.0607  0.9851 -0.0094
  924MOL0     C27415   8.598  12.325   9.163  0.0322  0.2617 -0.2867
  924MOL0     C27416   8.662  12.371   9.290  0.3591  0.4462 -0.5141
  924MOL0     C27417   8.792  12.442   9.266 -0.0893 -0.3459  0.4845
  924MOL0     C27418   8.892  12.417   9.388  1.0796  0.2460 -0.6710
  924MOL0    Cl27419   9.038  12.532   9.362  0.1822 -0.1070  0.0379
  924MOL0     C27420   8.228  12.156   8.605  0.2129  0.5044  0.6561
  924MOL0     C27421   8.221  12.083   8.480  0.7489 -0.0087  0.3133
  924MOL0     O27422   7.954  11.977   8.340 -0.4782 -0.1529  0.0138
  924MOL0     C27423   8.118  11.746   8.126 -0.2986  0.4161 -0.9991
  924MOL0     C27424   8.109  11.685   8.001  0.3810 -0.4389  0.2119
  924MOL0     N27425   7.570  11.308   7.480  0.4203 -0.6239  0.0077
  924MOL0     N27426   7.519  11.199   7.524  0.4188 -0.2625 -0.8563
  924MOL0     C27427   6.382  10.872   8.086 -0.1007  0.7115 -0.1464
  924MOL0     C27428   6.268  10.892   8.162  0.6700  0.7948  0.4836
  924MOL0     C27429   5.884  10.919   8.368  0.0638  0.3965 -0.9061
  924MOL0     C27430   5.893  10.843   8.488  0.8490 -0.1894  0.5421
  924MOL0     C27431   5.794  10.849   8.592  0.6825 -0.3155 -0.1980
  924MOL0     C27432   5.680  10.931   8.574 -1.0498 -0.2198 -0.3704
  924MOL0     O27433   5.589  10.936   8.675 -0.2246  0.5224  1.1059
  924MOL0     C27434   5.455  10.901   8.635 -0.6700 -0.7880 -0.3591
  924MOL0     C27435   5.356  10.879   8.754 -0.0902 -0.3420  0.9082
  924MOL0     C27436   5.340  11.003   8.849 -0.2753  0.0580  0.2448
  924MOL0     C27437   5.218  11.013   8.944 -0.4273 -0.3771  0.1476
  924MOL0     C27438   5.085  11.039   8.886 -0.5514  0.1683 -0.0078
  924MOL0     C27439   4.977  11.032   8.851  0.5784 -0.3284 -0.4157
  924MOL0     C27440   5.664  10.999   8.446 -0.1523 -0.7620 -0.8498
  924MOL0     C27441   5.773  10.997   8.345 -0.0402 -0.6139  0.6011
  924MOL0     C27442   5.740  11.083   8.223  0.5616 -0.1907  0.2833
  924MOL0     H27443   6.221  10.600   8.297 -0.9514 -1.0364 -0.3993
  924MOL0     H27444   6.442  10.553   8.182 -0.3494  0.3355 -0.5202
  924MOL0     H27445   6.672  10.866   8.122 -0.2077  1.6342 -1.2614
  924MOL0     H27446   6.625  10.911   7.960 -4.2306  1.7964  2.6743
  924MOL0     H27447   6.842  10.699   8.007  1.8262  0.0282 -0.9806
  924MOL0     H27448   6.800  10.768   7.860 -1.4612 -1.7782  1.7591
  924MOL0     H27449   6.872  11.001   7.960 -1.3859 -1.1565 -0.2145
  924MOL0     H27450   6.925  10.929   8.104  2.1583  2.1800 -0.6975
  924MOL0     H27451   7.102  10.818   8.020 -1.5619 -1.3167  0.2154
  924MOL0     H27452   7.050  10.823   7.845 -0.4155  1.6873  0.3149
  924MOL0     H27453   7.124  11.057   8.023  0.0997 -1.3365  0.0502
  924MOL0     H27454   7.072  11.076   7.856  2.5273  0.7635  0.0844
  924MOL0     H27455   7.333  10.948   7.930 -0.4556 -0.1391  0.7896
  924MOL0     H27456   7.256  10.926   7.778  2.5515 -0.5609  0.2648
  924MOL0     H27457   7.332  11.206   7.865 -1.1975 -0.5151 -0.2906
  924MOL0     H27458   7.241  11.139   7.721 -3.1507 -0.3126  2.6652
  924MOL0     H27459   7.525  11.101   7.838  2.7714  0.8405 -1.6641
  924MOL0     H27460   7.470  11.001   7.700 -2.1298  1.8091 -2.5284
  924MOL0     H27461   7.567  11.371   7.802  1.9638 -0.5430 -0.2712
  924MOL0     H27462   7.646  11.584   7.665 -0.9609 -1.6711  1.3994
  924MOL0     H27463   7.585  11.592   7.493 -0.0430  0.1456  0.4641
  924MOL0     H27464   7.813  11.435   7.456  1.5633 -1.2011  2.4617
  924MOL0     H27465   7.788  11.606   7.423  0.7284 -0.0389  1.0655
  924MOL0     H27466   7.904  11.454   7.662  1.3708 -0.7442 -1.1104
  924MOL0     H27467   7.984  11.564   7.547 -0.4114 -2.3313  0.1235
  924MOL0     H27468   7.889  11.760   7.670  0.9800 -1.4980 -0.4255
  924MOL0     H27469   7.803  11.651   7.775  0.9152  1.7123  0.9428
  924MOL0     H27470   7.851  11.844   7.874 -0.1874 -1.4335 -0.1130
  924MOL0     H27471   7.886  12.095   8.084 -0.5931  0.8332 -1.2444
  924MOL0     H27472   7.769  11.993   8.180 -3.1486 -2.3467 -1.8281
  924MOL0     H27473   7.752  12.001   8.007  0.8250  0.1826 -0.6710
  924MOL0     H27474   8.060  11.809   8.595 -1.3813  1.5044 -0.5328
  924MOL0     H27475   8.046  11.939   8.797  0.1878  1.5552  0.6574
  924MOL0     H27476   8.081  12.083   8.997 -0.0877 -2.4075  0.0482
  924MOL0     H27477   8.237  12.020   8.968  0.7039  0.9398  2.2418
  924MOL0     H27478   8.192  12.316   9.044 -0.2778  0.0133  0.3254
  924MOL0     H27479   8.216  12.186   9.164 -2.0195 -2.4416 -0.7886
  924MOL0     H27480   8.426  12.267   8.960  1.5066 -0.5352  0.2651
  924MOL0     H27481   8.442  12.126   9.053  2.9645  1.5723 -0.8454
  924MOL0     H27482   8.404  12.249   9.264 -1.2663  2.0910  0.2737
  924MOL0     H27483   8.388  12.405   9.193 -1.8877  0.0879 -0.7386
  924MOL0     H27484   8.643  12.232   9.129 -1.2866 -0.4123 -0.2388
  924MOL0     H27485   8.610  12.395   9.079  3.1629 -2.2078 -2.1016
  924MOL0     H27486   8.668  12.278   9.348 -1.8463 -1.2271 -2.7439
  924MOL0     H27487   8.597  12.440   9.345 -2.1501 -0.5818 -1.9882
  924MOL0     H27488   8.764  12.548   9.269 -0.9012 -0.5520  0.6528
  924MOL0     H27489   8.833  12.409   9.170  1.3875  0.2082  0.8959
  924MOL0     H27490   8.933  12.316   9.396 -0.2703 -0.2592  0.3630
  924MOL0     H27491   8.835  12.446   9.477  2.1926  1.6156 -0.3795
  924MOL0     H27492   8.264  12.257   8.617 -2.8850  1.5328  2.4617
  924MOL0     H27493   8.264  12.121   8.388 -3.1441  2.1153 -0.8344
  924MOL0     H27494   8.192  11.703   8.193  0.3822 -0.4771 -2.2703
  924MOL0     H27495   8.184  11.608   7.982 -1.5593 -2.3576 -0.1059
  924MOL0     H27496   6.423  10.951   8.025  0.9805  0.0060 -0.3585
  924MOL0     H27497   6.224  10.990   8.149 -1.8370 -0.5721 -2.8201
  924MOL0     H27498   5.974  10.771   8.503  1.3001 -0.1285 -1.3755
  924MOL0     H27499   5.823  10.786   8.676 -3.1106 -2.1344 -0.0458
  924MOL0     H27500   5.420  10.984   8.573 -2.4214 -1.2037  0.0364
  924MOL0     H27501   5.443  10.811   8.574 -4.4341 -2.3216  2.2958
  924MOL0     H27502   5.391  10.790   8.806 -1.1279 -1.4609 -0.2300
  924MOL0     H27503   5.260  10.853   8.708  0.4532 -0.1567 -0.3960
  924MOL0     H27504   5.426  11.005   8.917  1.4352 -2.3253 -1.6554
  924MOL0     H27505   5.346  11.100   8.797  1.0474  0.9162  1.8957
  924MOL0     H27506   5.238  11.094   9.014 -3.8923 -0.1902  1.1094
  924MOL0     H27507   5.216  10.919   9.000 -0.3759 -0.5238 -0.0908
  924MOL0     H27508   4.875  11.007   8.829  0.4936 -0.8887  0.5677
  924MOL0     H27509   5.566  11.042   8.427 -0.8514 -2.1958 -0.6165
  924MOL0     H27510   5.823  11.148   8.194  0.5028 -0.0598  0.4023
  924MOL0     H27511   5.736  11.020   8.134  1.8057  0.9237 -0.6156
  924MOL0     H27512   5.649  11.140   8.242  0.4268 -0.1965 -0.3353
  925MOL0     O27513   5.384   5.041  11.060  0.3633 -0.1169  0.1166
  925MOL0     C27514   5.359   5.102  10.959 -0.4347  1.1140  0.0468
  925MOL0     O27515   5.445   5.198  10.913  0.9741  0.5551  0.0400
  925MOL0     C27516   5.541   5.243  11.006 -0.6541  0.5316  0.6734
  925MOL0     C27517   5.667   5.234  10.976  0.1574  0.4798 -0.1099
  925MOL0     C27518   5.761   5.297  11.055 -0.3531  0.0242 -0.5426
  925MOL0     C27519   5.733   5.378  11.157 -0.1840 -0.3964 -0.8729
  925MOL0     O27520   5.835   5.428  11.235  0.6492  1.0927  0.4506
  925MOL0     C27521   5.815   5.443  11.374 -0.4115  0.1712 -0.4608
  925MOL0     C27522   5.956   5.443  11.439 -0.7548  0.3139 -1.2372
  925MOL0     C27523   6.048   5.554  11.387 -0.6029 -0.4009  0.2632
  925MOL0     C27524   6.177   5.598  11.469  0.0945  0.6425  0.7262
  925MOL0     C27525   6.306   5.559  11.392  0.0445 -0.6245 -0.1237
  925MOL0     C27526   6.432   5.618  11.455  0.3280  1.0521  0.2588
  925MOL0     C27527   6.557   5.588  11.370  0.5837  0.0581 -0.4423
  925MOL0     C27528   6.670   5.669  11.437  0.3340 -0.2477  0.5613
  925MOL0     N27529   6.748   5.589  11.536 -0.7675  0.2371 -0.9271
  925MOL0     C27530   6.702   5.547  11.663  0.0979 -0.7199 -0.3902
  925MOL0     C27531   6.803   5.490  11.722  0.4644  0.8229  0.2169
  925MOL0     C27532   6.791   5.422  11.862 -0.2049  0.5357  1.3727
  925MOL0     C27533   6.798   5.537  11.961 -0.0619 -0.1454 -0.0544
  925MOL0     C27534   6.934   5.612  11.956 -0.8714 -0.2363  0.3012
  925MOL0     C27535   7.051   5.532  12.020  0.8149  0.9766  0.0087
  925MOL0     O27536   7.164   5.620  12.049  0.2894  0.3015 -0.3051
  925MOL0     C27537   7.289   5.573  12.070  0.4151 -1.1161 -0.2886
  925MOL0     C27538   7.330   5.433  12.066 -0.1503  0.5166 -0.4749
  925MOL0     C27539   7.462   5.398  12.101  0.2897 -0.3171 -0.0899
  925MOL0     C27540   7.488   5.247  12.135  0.8915 -0.5322  0.0931
  925MOL0     C27541   7.558   5.494  12.129 -0.2866 -1.0007 -0.5114
  925MOL0     C27542   7.705   5.473  12.153 -0.4733 -0.3432  0.0233
  925MOL0     O27543   7.776   5.563  12.236  0.5607  0.5662 -0.4347
  925MOL0     C27544   7.909   5.542  12.272 -0.3926 -0.0544  0.5810
  925MOL0     C27545   7.966   5.423  12.332  0.3320  1.2370 -0.4031
  925MOL0     C27546   8.104   5.409  12.368  0.2583 -0.4439  1.2973
  925MOL0     C27547   8.190   5.514  12.342 -0.3892 -0.2078  0.1049
  925MOL0     O27548   8.322   5.498  12.376 -0.2118 -0.6905 -0.2252
  925MOL0     C27549   8.421   5.603  12.360 -0.0920  0.0986 -1.0914
  925MOL0     C27550   8.544   5.543  12.434 -0.2685 -0.6180  0.1251
  925MOL0     C27551   8.663   5.635  12.429 -0.0913  0.0284  0.2135
  925MOL0     C27552   8.737   5.636  12.309  0.8220 -0.1333 -0.8170
  925MOL0     C27553   8.862   5.546  12.293  0.4946  0.1771  0.1944
  925MOL0     C27554   8.986   5.601  12.362 -0.8860  0.2910  0.3952
  925MOL0     C27555   9.111   5.524  12.314 -0.5058  0.8206  0.7600
  925MOL0     C27556   9.240   5.597  12.342  1.3718  0.0269  0.5156
  925MOL0    Cl27557   9.287   5.616  12.510  0.1540  0.2331  0.1272
  925MOL0     C27558   8.140   5.634  12.278  0.3216  0.3746 -0.4883
  925MOL0     C27559   8.004   5.642  12.242  0.2492 -0.5172  0.1654
  925MOL0     O27560   7.752   5.372  12.098 -0.1348 -0.1634 -0.2540
  925MOL0     C27561   7.514   5.625  12.134 -0.1275  0.0783  0.0281
  925MOL0     C27562   7.382   5.667  12.114 -0.4171  0.1302  1.0303
  925MOL0     N27563   6.907   5.510  11.638 -0.1001 -0.7710 -0.5468
  925MOL0     N27564   6.879   5.570  11.531 -0.4602 -0.0497 -0.0062
  925MOL0     C27565   5.597   5.396  11.183 -0.4203  0.0738 -0.3009
  925MOL0     C27566   5.500   5.332  11.107  0.5003 -0.5649 -0.8442
  925MOL0     C27567   5.248   5.049  10.872  0.0194 -0.7289 -0.0728
  925MOL0     C27568   5.139   4.987  10.946 -0.5208 -0.2648  0.2617
  925MOL0     C27569   5.030   4.953  10.874  0.4235  0.0966 -1.0435
  925MOL0     C27570   5.016   4.959  10.734  0.5999  0.4744  0.3457
  925MOL0     O27571   4.903   4.903  10.676 -0.7543 -0.0130  0.3307
  925MOL0     C27572   4.879   4.932  10.532 -0.5367 -0.7366 -0.0229
  925MOL0     C27573   4.922   4.811  10.454  1.1240  0.0683 -0.0573
  925MOL0     C27574   4.871   4.682  10.526  0.6702 -0.0057 -0.5297
  925MOL0     C27575   4.913   4.544  10.462  0.0624  0.3410  0.1183
  925MOL0     C27576   4.852   4.513  10.332  1.2369  0.3341 -1.0434
  925MOL0     C27577   4.790   4.498  10.227 -0.1967  0.2234  0.8526
  925MOL0     C27578   5.127   5.007  10.660 -0.7704  0.4466 -0.2496
  925MOL0     C27579   5.242   5.057  10.731 -1.0042 -0.4192  0.1472
  925MOL0     C27580   5.368   5.096  10.651  0.8782  0.5651  0.0974
  925MOL0     H27581   5.694   5.174  10.890  2.8676 -1.4415  1.9370
  925MOL0     H27582   5.863   5.293  11.017 -0.7858 -0.6199 -1.6566
  925MOL0     H27583   5.763   5.351  11.404  0.2642  0.6409  2.4757
  925MOL0     H27584   5.763   5.536  11.397  0.9369  0.9876 -0.6405
  925MOL0     H27585   5.940   5.446  11.547  0.7119 -0.2888 -0.9767
  925MOL0     H27586   5.998   5.347  11.405  1.9374  0.1395  1.9899
  925MOL0     H27587   6.072   5.530  11.283 -0.6977  1.5362 -0.2475
  925MOL0     H27588   5.983   5.641  11.376  2.4375  1.7187 -3.6627
  925MOL0     H27589   6.180   5.707  11.482 -2.9110  2.0550 -6.2452
  925MOL0     H27590   6.172   5.544  11.565  0.6062 -1.1238 -0.1974
  925MOL0     H27591   6.305   5.611  11.296  2.6279  2.5475  1.3572
  925MOL0     H27592   6.307   5.450  11.380  3.0035 -0.7407  0.5067
  925MOL0     H27593   6.411   5.721  11.485  0.9914  1.5981 -1.0700
  925MOL0     H27594   6.449   5.563  11.548  0.5710 -1.4835 -1.1832
  925MOL0     H27595   6.540   5.621  11.267  1.9380 -0.0421 -0.7158
  925MOL0     H27596   6.575   5.481  11.361 -2.3984 -0.5361 -0.5455
  925MOL0     H27597   6.744   5.703  11.363  0.0590  0.2557  0.5168
  925MOL0     H27598   6.639   5.754  11.498  0.0188 -0.5753  0.8593
  925MOL0     H27599   6.601   5.566  11.698  0.5675  1.6658 -0.2193
  925MOL0     H27600   6.867   5.344  11.873 -2.6894 -2.4694 -1.0409
  925MOL0     H27601   6.707   5.355  11.878 -1.5997  1.6076 -0.8909
  925MOL0     H27602   6.717   5.608  11.941 -0.6911  0.5947  4.1328
  925MOL0     H27603   6.774   5.501  12.061  0.1435 -1.0237 -0.3118
  925MOL0     H27604   6.948   5.655  11.856 -0.4296  1.2232  0.9501
  925MOL0     H27605   6.929   5.705  12.014  2.3515 -0.0136  0.4156
  925MOL0     H27606   7.008   5.487  12.109  0.6913 -0.0492 -0.5529
  925MOL0     H27607   7.079   5.461  11.941 -1.4786  1.3894 -1.2746
  925MOL0     H27608   7.262   5.355  12.033 -1.1229  1.4443 -0.7407
  925MOL0     H27609   7.587   5.238  12.181  1.3677  0.1195 -0.7732
  925MOL0     H27610   7.491   5.189  12.043  0.6766 -1.6644  0.7885
  925MOL0     H27611   7.410   5.216  12.205  0.3092  1.4171  0.3936
  925MOL0     H27612   7.900   5.339  12.350  2.2030 -0.5453 -1.4494
  925MOL0     H27613   8.147   5.317  12.405  0.5415 -1.5157 -1.5140
  925MOL0     H27614   8.440   5.623  12.254  0.5422 -4.9017 -2.1639
  925MOL0     H27615   8.382   5.696  12.403 -0.8199  0.2477 -2.0237
  925MOL0     H27616   8.513   5.528  12.538 -3.6501  3.3010 -0.0490
  925MOL0     H27617   8.570   5.453  12.378 -1.8910 -2.5705  2.2799
  925MOL0     H27618   8.737   5.600  12.502 -0.7240 -2.1152 -0.1039
  925MOL0     H27619   8.622   5.730  12.463 -1.2332  0.0045 -1.0036
  925MOL0     H27620   8.777   5.738  12.310  0.5617 -0.0323  0.2659
  925MOL0     H27621   8.668   5.618  12.226 -2.3289  1.8247  1.1908
  925MOL0     H27622   8.845   5.444  12.328 -0.2394 -0.1269 -0.9721
  925MOL0     H27623   8.883   5.545  12.186 -1.7411  1.1190 -0.3147
  925MOL0     H27624   8.979   5.584  12.470  2.6748 -0.9662  0.5635
  925MOL0     H27625   8.992   5.710  12.350 -0.1467  0.0809 -1.3895
  925MOL0     H27626   9.122   5.504  12.207  2.2362 -0.5998  1.2212
  925MOL0     H27627   9.112   5.425  12.360  1.2035 -0.2673 -1.4152
  925MOL0     H27628   9.228   5.698  12.301  0.4398 -0.8331 -1.4862
  925MOL0     H27629   9.323   5.549  12.289 -0.2369 -0.3650 -1.7890
  925MOL0     H27630   8.216   5.710  12.267  0.1948  0.1571 -3.6659
  925MOL0     H27631   7.984   5.732  12.184 -0.6343 -1.4380 -1.0095
  925MOL0     H27632   7.579   5.704  12.171  1.5533  0.0864 -2.7259
  925MOL0     H27633   7.365   5.774  12.109 -1.6518 -0.0877 -0.1658
  925MOL0     H27634   5.569   5.464  11.262  1.1453 -0.5178  0.8083
  925MOL0     H27635   5.397   5.364  11.117  1.0045  0.6467  1.1661
  925MOL0     H27636   5.141   4.980  11.054 -5.2963  2.0425  0.7908
  925MOL0     H27637   4.952   4.914  10.939  1.7758 -0.4034  0.3206
  925MOL0     H27638   4.773   4.955  10.538 -0.4220 -0.1439 -0.2552
  925MOL0     H27639   4.929   5.024  10.500 -0.6960  0.6908  3.3300
  925MOL0     H27640   5.031   4.811  10.442  1.0570 -0.0936 -0.6937
  925MOL0     H27641   4.874   4.817  10.356 -2.9333 -2.1654  1.5275
  925MOL0     H27642   4.916   4.675  10.625  2.3241  2.9834 -0.9580
  925MOL0     H27643   4.763   4.687  10.540  0.7637 -0.4875  0.4390
  925MOL0     H27644   4.872   4.472  10.533  0.0514  0.7604  0.5402
  925MOL0     H27645   5.021   4.532  10.463  0.3445  2.4507  1.7604
  925MOL0     H27646   4.749   4.489  10.128  2.6106  2.0777 -0.6060
  925MOL0     H27647   5.132   5.010  10.551  1.4079 -0.8039 -0.2430
  925MOL0     H27648   5.368   5.197  10.610 -0.5410  0.8105  0.6503
  925MOL0     H27649   5.455   5.075  10.714 -0.8585  1.4013  2.9996
  925MOL0     H27650   5.379   5.035  10.561 -0.5172 -1.9993  1.5471
  926MOL0     O27651   6.198   8.985  10.240  0.5199 -0.1094  0.2471
  926MOL0     C27652   6.186   8.860  10.239  0.6622  0.1941 -0.2537
  926MOL0     O27653   6.090   8.792  10.172  0.0397 -0.3468 -0.6637
  926MOL0     C27654   5.992   8.859  10.102  0.3522  0.7239 -0.9595
  926MOL0     C27655   5.884   8.930  10.167  0.7329 -0.3352  1.1587
  926MOL0     C27656   5.784   8.982  10.091  0.6358 -0.9071  0.4865
  926MOL0     C27657   5.771   8.970   9.952 -0.5980 -0.1033  0.6741
  926MOL0     O27658   5.657   9.003   9.883  0.2395  0.3817  0.3948
  926MOL0     C27659   5.568   8.893   9.894 -0.0852 -0.2114  0.2376
  926MOL0     C27660   5.465   8.892   9.778 -0.0777 -0.9511 -0.4986
  926MOL0     C27661   5.365   8.782   9.757  0.6234  1.0735 -0.0874
  926MOL0     C27662   5.297   8.799   9.618 -0.3245  0.2238  0.0961
  926MOL0     C27663   5.165   8.875   9.601  0.4745  0.0305  0.3115
  926MOL0     C27664   5.039   8.800   9.638 -0.0604  0.2740 -0.2476
  926MOL0     C27665   4.903   8.886   9.631 -0.8119 -0.2213  0.6677
  926MOL0     C27666   4.853   8.879   9.486  0.5304 -0.1724 -0.2831
  926MOL0     N27667   4.748   8.981   9.462 -0.6775 -0.2794  0.4971
  926MOL0     C27668   4.613   8.962   9.464 -0.6936 -0.3262 -0.8422
  926MOL0     C27669   4.561   9.078   9.424  0.1504  0.2052  0.5806
  926MOL0     C27670   4.408   9.098   9.403  0.0626  0.1718  1.1098
  926MOL0     C27671   4.346   9.043   9.274  0.3479 -0.7232 -0.1520
  926MOL0     C27672   4.412   9.094   9.146  0.3164  0.9656  0.1157
  926MOL0     C27673   4.359   9.020   9.020  0.1650 -0.1012 -0.9639
  926MOL0     O27674   4.216   9.048   9.012 -0.3246 -0.4939  0.2306
  926MOL0     C27675   4.146   8.949   8.942  0.8211  0.1034  0.1281
  926MOL0     C27676   4.044   8.880   9.010  0.4541  0.4680  0.5104
  926MOL0     C27677   3.955   8.795   8.946  0.5310 -0.5239  0.2546
  926MOL0     C27678   3.834   8.762   9.030 -0.2146 -0.0433 -0.2519
  926MOL0     C27679   3.987   8.760   8.808 -0.6846  1.0836  1.1067
  926MOL0     C27680   3.917   8.650   8.737 -0.1680  0.3089 -0.7809
  926MOL0     O27681   3.833   8.569   8.812  0.8051 -0.1629  0.4734
  926MOL0     C27682   3.759   8.482   8.736  1.2799  0.2745  0.4350
  926MOL0     C27683   3.802   8.369   8.662  0.6226 -0.2591 -0.2127
  926MOL0     C27684   3.701   8.288   8.607 -0.0533  0.2929 -0.4448
  926MOL0     C27685   3.566   8.312   8.613 -0.5843 -0.0233  0.6343
  926MOL0     O27686   3.480   8.226   8.552  0.5780 -0.4944  0.1551
  926MOL0     C27687   3.348   8.260   8.517  0.4733 -1.1046 -0.6701
  926MOL0     C27688   3.288   8.168   8.415  0.1802 -0.0234  0.0658
  926MOL0     C27689   3.309   8.027   8.450 -0.1812  0.3699 -0.4593
  926MOL0     C27690   3.217   7.937   8.372 -0.4479  0.5504  0.2974
  926MOL0     C27691   3.072   7.948   8.426 -0.6041 -0.4433 -0.2859
  926MOL0     C27692   2.996   7.811   8.418  0.4645 -0.2121 -0.2322
  926MOL0     C27693   2.852   7.844   8.464  1.4585 -0.7335  0.3155
  926MOL0     C27694   2.770   7.725   8.482  0.4429 -0.4792  0.2188
  926MOL0    Cl27695   2.817   7.654   8.649  0.1150 -0.7493 -0.0785
  926MOL0     C27696   3.530   8.427   8.690  1.0970  0.7753 -0.9521
  926MOL0     C27697   3.621   8.513   8.755 -1.0471  1.1773 -0.7497
  926MOL0     O27698   3.938   8.636   8.619 -0.2223 -0.0005  0.0949
  926MOL0     C27699   4.092   8.831   8.735  0.6587  0.6234  0.6021
  926MOL0     C27700   4.160   8.929   8.809  0.4329 -0.1652  0.3530
  926MOL0     N27701   4.661   9.173   9.397  1.5224  0.2422 -0.1733
  926MOL0     N27702   4.771   9.114   9.418 -0.5627  0.2926  0.1640
  926MOL0     C27703   5.878   8.903   9.896 -0.1833  0.2818  0.0726
  926MOL0     C27704   5.992   8.850   9.963 -0.1179  0.1421 -0.9985
  926MOL0     C27705   6.269   8.774  10.330 -0.4260  0.2076 -0.2467
  926MOL0     C27706   6.411   8.772  10.310 -0.2842  0.6256  0.3445
  926MOL0     C27707   6.501   8.700  10.386 -0.4705 -0.4634  0.8488
  926MOL0     C27708   6.449   8.625  10.486  0.0141  0.5193  0.7923
  926MOL0     O27709   6.544   8.537  10.538  0.5186 -0.3659 -0.4871
  926MOL0     C27710   6.494   8.429  10.611 -0.4589  0.8759 -0.4003
  926MOL0     C27711   6.620   8.341  10.592 -0.4617  0.0438  1.0165
  926MOL0     C27712   6.737   8.378  10.688  0.0817  0.2056 -0.2788
  926MOL0     C27713   6.782   8.258  10.781  0.1565 -0.7639  0.3874
  926MOL0     C27714   6.886   8.315  10.864 -0.0142 -0.1118  0.7075
  926MOL0     C27715   6.967   8.377  10.936  0.5514  0.2155  0.4836
  926MOL0     C27716   6.306   8.629  10.506  0.0206 -1.2704  0.8309
  926MOL0     C27717   6.214   8.700  10.424 -0.4044 -0.9986 -0.1678
  926MOL0     C27718   6.067   8.704  10.463 -0.6029 -0.4881  0.3290
  926MOL0     H27719   5.874   8.952  10.272 -1.0512 -5.8248  2.4947
  926MOL0     H27720   5.702   9.036  10.138  2.2870 -0.2492  2.8072
  926MOL0     H27721   5.508   8.899   9.986 -0.2200  1.6249  0.0538
  926MOL0     H27722   5.616   8.795   9.889  1.8844  0.7136  0.2680
  926MOL0     H27723   5.407   8.983   9.794 -0.3774 -0.9230 -1.6452
  926MOL0     H27724   5.516   8.906   9.682 -2.6856  1.4536 -1.6927
  926MOL0     H27725   5.406   8.680   9.755  0.2567  0.7906  2.6665
  926MOL0     H27726   5.294   8.778   9.841 -0.8575 -3.6903 -1.2689
  926MOL0     H27727   5.369   8.842   9.548  0.4512 -1.4163 -0.1624
  926MOL0     H27728   5.286   8.699   9.575 -2.2276  0.2977  0.3528
  926MOL0     H27729   5.154   8.904   9.496 -0.0322 -0.2176  0.2945
  926MOL0     H27730   5.164   8.967   9.661 -1.1849  0.5702 -0.4902
  926MOL0     H27731   5.037   8.706   9.581  1.6169  0.5911 -0.8758
  926MOL0     H27732   5.045   8.768   9.742 -0.5407  3.4613  0.8421
  926MOL0     H27733   4.916   8.990   9.662 -1.2710 -0.0023  0.1391
  926MOL0     H27734   4.842   8.836   9.707  2.1052 -1.0885  2.6006
  926MOL0     H27735   4.927   8.896   9.408 -0.6103  4.5137 -0.6702
  926MOL0     H27736   4.814   8.777   9.479  0.4084 -0.1565  0.1500
  926MOL0     H27737   4.560   8.869   9.481  1.0813 -1.4594 -1.1958
  926MOL0     H27738   4.375   9.201   9.416 -1.8629 -0.3298  0.4575
  926MOL0     H27739   4.365   9.032   9.479  0.4958 -1.9412 -0.4024
  926MOL0     H27740   4.349   8.935   9.285 -3.9408 -0.9841  0.1833
  926MOL0     H27741   4.237   9.058   9.275  0.6422  2.4605  2.3292
  926MOL0     H27742   4.383   9.197   9.124 -3.0561 -0.2924 -2.1178
  926MOL0     H27743   4.521   9.082   9.144  0.1797 -0.3895 -0.3546
  926MOL0     H27744   4.416   9.049   8.931 -0.6964  2.6875 -0.6952
  926MOL0     H27745   4.390   8.917   9.039  0.4620  0.5002  2.4406
  926MOL0     H27746   4.037   8.898   9.117  0.9868 -2.2667  1.0981
  926MOL0     H27747   3.748   8.751   8.963  1.7147  3.1495 -3.6423
  926MOL0     H27748   3.813   8.842   9.101 -0.6316  0.0208 -0.4402
  926MOL0     H27749   3.853   8.666   9.079 -0.2193  0.7447  1.3493
  926MOL0     H27750   3.906   8.350   8.639  0.7717 -1.0651  1.0411
  926MOL0     H27751   3.732   8.201   8.550  0.3919 -0.8854  1.4943
  926MOL0     H27752   3.302   8.242   8.615 -2.3839  0.7288 -1.5504
  926MOL0     H27753   3.329   8.367   8.502  1.5253 -0.0505  3.8939
  926MOL0     H27754   3.180   8.184   8.407 -0.5503 -3.5986  0.9564
  926MOL0     H27755   3.327   8.189   8.315 -1.1440  3.0215  0.0672
  926MOL0     H27756   3.300   8.022   8.559 -0.6284  0.4030 -0.4942
  926MOL0     H27757   3.415   8.008   8.430 -0.2149  2.3749 -3.0337
  926MOL0     H27758   3.246   7.834   8.394 -1.2603  0.7628  2.7038
  926MOL0     H27759   3.219   7.949   8.263 -0.2971 -0.8594  0.1185
  926MOL0     H27760   3.074   7.982   8.530 -2.9721  0.8967 -0.6197
  926MOL0     H27761   3.022   8.029   8.373 -1.9202 -0.5342  0.7743
  926MOL0     H27762   3.043   7.732   8.478  0.4722  0.0549  0.1204
  926MOL0     H27763   2.992   7.783   8.313  2.8745  0.1827 -0.4892
  926MOL0     H27764   2.802   7.898   8.383 -1.4174 -1.5381  1.4378
  926MOL0     H27765   2.863   7.904   8.554  2.4066  0.7734 -0.7590
  926MOL0     H27766   2.795   7.650   8.407  1.7238 -2.5985  2.6267
  926MOL0     H27767   2.663   7.750   8.478  0.8575  1.8020  1.4437
  926MOL0     H27768   3.423   8.441   8.701  0.6784 -2.0534 -0.5679
  926MOL0     H27769   3.588   8.595   8.818 -1.0555  1.7591 -1.5050
  926MOL0     H27770   4.114   8.820   8.630 -3.6029 -1.4238 -0.2944
  926MOL0     H27771   4.228   9.003   8.768  3.1776 -2.7853 -0.1784
  926MOL0     H27772   5.888   8.883   9.790  1.9708 -1.0110  0.4433
  926MOL0     H27773   6.062   8.781   9.917  1.8177 -0.6556  2.7003
  926MOL0     H27774   6.459   8.835  10.236 -1.5239 -1.4165 -2.3637
  926MOL0     H27775   6.605   8.717  10.359 -2.0630  2.0914 -5.6189
  926MOL0     H27776   6.466   8.453  10.714  0.0740 -2.3914  0.6202
  926MOL0     H27777   6.417   8.374  10.557  0.1517  0.1710 -0.5677
  926MOL0     H27778   6.658   8.359  10.491  1.0519  0.4646  1.6391
  926MOL0     H27779   6.588   8.238  10.610 -0.9870 -0.2290 -1.2242
  926MOL0     H27780   6.821   8.394  10.620 -0.3661 -0.2868 -0.9640
  926MOL0     H27781   6.727   8.467  10.751  2.2394 -0.4756  1.1395
  926MOL0     H27782   6.815   8.163  10.738  0.8108  0.2544 -1.4495
  926MOL0     H27783   6.692   8.253  10.843  1.2675  0.8107  2.2291
  926MOL0     H27784   7.038   8.416  11.006  0.2879  0.8153  0.4276
  926MOL0     H27785   6.267   8.566  10.585  0.6180 -2.6399  0.0650
  926MOL0     H27786   6.060   8.662  10.563 -0.5009  2.0155  1.4822
  926MOL0     H27787   6.022   8.804  10.471 -0.6430 -0.3029 -1.5886
  926MOL0     H27788   6.008   8.642  10.396 -3.4786  0.9741  1.3137
  927MOL0     O27789   4.411   1.086   3.064 -0.1915  0.3140  0.6163
  927MOL0     C27790   4.319   1.062   3.138  0.6704 -0.3983  0.9002
  927MOL0     O27791   4.296   1.116   3.257  0.6345 -0.0071  0.8145
  927MOL0     C27792   4.387   1.195   3.321 -0.3257 -0.8155  0.0163
  927MOL0     C27793   4.524   1.168   3.329  0.0849 -0.3017  0.0696
  927MOL0     C27794   4.607   1.254   3.402  0.1145  1.8111 -1.3213
  927MOL0     C27795   4.552   1.359   3.474  0.6852 -0.2444 -0.6767
  927MOL0     O27796   4.626   1.437   3.556 -0.1103 -1.0949 -0.3592
  927MOL0     C27797   4.758   1.397   3.598  0.0911 -0.1472  0.3441
  927MOL0     C27798   4.861   1.464   3.511  0.3335 -0.7326  0.5033
  927MOL0     C27799   5.004   1.438   3.546 -0.3614  0.3308 -0.1347
  927MOL0     C27800   5.058   1.486   3.685 -0.1978 -0.0405  0.0010
  927MOL0     C27801   5.212   1.463   3.698  0.4814 -0.7629 -0.2564
  927MOL0     C27802   5.291   1.535   3.581  0.1601  0.7327  0.1880
  927MOL0     C27803   5.440   1.507   3.582 -0.2614  0.2503  0.0960
  927MOL0     C27804   5.503   1.535   3.719 -0.6852 -0.9837  0.8802
  927MOL0     N27805   5.641   1.490   3.703 -0.8187 -0.3060  1.1928
  927MOL0     C27806   5.700   1.384   3.757 -0.1591  1.6578  1.3238
  927MOL0     C27807   5.824   1.368   3.696 -0.3335 -0.4430  0.1629
  927MOL0     C27808   5.933   1.268   3.738  0.3192  0.9964  0.4243
  927MOL0     C27809   6.034   1.326   3.830 -0.4714  0.1508  0.1399
  927MOL0     C27810   6.115   1.452   3.773 -0.5400  0.5903 -0.1824
  927MOL0     C27811   6.262   1.452   3.817  0.2957 -0.2890  0.3285
  927MOL0     O27812   6.326   1.327   3.784 -0.0576  0.4818 -0.5526
  927MOL0     C27813   6.464   1.296   3.806  0.3552 -0.7697  0.2894
  927MOL0     C27814   6.556   1.375   3.870 -0.4683 -0.3894  0.3330
  927MOL0     C27815   6.689   1.339   3.886 -0.4131  0.0577  0.1650
  927MOL0     C27816   6.779   1.433   3.956 -0.1729  0.7704  0.2113
  927MOL0     C27817   6.734   1.203   3.836  0.8022  0.6957  0.0678
  927MOL0     C27818   6.871   1.150   3.842 -0.0681 -0.5968 -0.6033
  927MOL0     O27819   6.904   1.058   3.748  0.2916 -0.3309 -0.6806
  927MOL0     C27820   7.024   0.999   3.750 -0.1262  0.6139 -0.9680
  927MOL0     C27821   7.069   0.918   3.854 -0.5655  0.3920  0.1494
  927MOL0     C27822   7.197   0.883   3.853 -0.3751  0.5008  1.0698
  927MOL0     C27823   7.267   0.899   3.729 -0.3808  0.9551 -0.7508
  927MOL0     O27824   7.400   0.846   3.709  0.0813 -0.0966 -0.1235
  927MOL0     C27825   7.419   0.718   3.761  0.2312  0.4882  0.1424
  927MOL0     C27826   7.522   0.648   3.675  0.2833  0.3712  0.3405
  927MOL0     C27827   7.556   0.515   3.748  0.3814 -0.3349 -0.0346
  927MOL0     C27828   7.655   0.429   3.660 -0.1905  0.0555  0.2321
  927MOL0     C27829   7.707   0.316   3.744 -0.4000 -0.0403  0.1623
  927MOL0     C27830   7.799   0.222   3.663  0.4051 -0.6746 -0.2399
  927MOL0     C27831   7.825   0.105   3.748  0.0644  0.4537 -0.2497
  927MOL0     C27832   7.934   0.008   3.685  0.2508  0.1579  0.3668
  927MOL0    Cl27833   8.004  -0.094   3.813  0.4642  0.3509 -0.3714
  927MOL0     C27834   7.220   0.988   3.621  0.2623  0.2880 -1.2419
  927MOL0     C27835   7.096   1.037   3.635  0.7189  0.0749  0.0875
  927MOL0     O27836   6.943   1.181   3.946  0.1565  0.0978 -0.0467
  927MOL0     C27837   6.637   1.130   3.771  0.4148 -0.2659  0.5613
  927MOL0     C27838   6.504   1.174   3.763  0.6209  0.1086  0.6246
  927MOL0     N27839   5.841   1.483   3.618 -0.2151  0.1312 -0.2891
  927MOL0     N27840   5.726   1.544   3.607  0.0960 -0.5126 -0.8626
  927MOL0     C27841   4.417   1.395   3.455 -0.3497  0.3634  0.4184
  927MOL0     C27842   4.327   1.309   3.382 -0.0693  0.0922 -0.5400
  927MOL0     C27843   4.205   0.994   3.080  0.1541 -0.3563 -0.3706
  927MOL0     C27844   4.225   0.871   3.025  0.5382 -0.5964 -0.0529
  927MOL0     C27845   4.117   0.791   2.989 -0.2174 -0.6128 -0.2805
  927MOL0     C27846   3.989   0.846   2.984 -0.6468 -0.0976 -0.8840
  927MOL0     O27847   3.875   0.779   2.954 -0.0337  0.5297 -0.7694
  927MOL0     C27848   3.863   0.749   2.809 -0.3477 -0.0876  0.8445
  927MOL0     C27849   3.748   0.830   2.749  0.8122 -0.5099  1.2484
  927MOL0     C27850   3.782   0.981   2.736 -0.5027  0.6055 -0.8837
  927MOL0     C27851   3.684   1.062   2.641 -0.3448 -0.2328 -0.3794
  927MOL0     C27852   3.543   1.024   2.675  0.4696 -0.0212 -0.1568
  927MOL0     C27853   3.425   0.999   2.698 -0.2410  0.6532 -0.1410
  927MOL0     C27854   3.974   0.983   3.032 -0.3936 -0.1598  0.6403
  927MOL0     C27855   4.084   1.056   3.085  0.6034  0.2697  0.5791
  927MOL0     C27856   4.060   1.197   3.115  0.4649  0.0624 -0.1721
  927MOL0     H27857   4.571   1.092   3.268  3.3369  1.0012  0.7562
  927MOL0     H27858   4.713   1.231   3.399 -0.2600 -0.1068 -1.2009
  927MOL0     H27859   4.778   1.290   3.601  0.0507 -0.1975 -0.7284
  927MOL0     H27860   4.760   1.430   3.702 -4.8620 -1.3062  1.0406
  927MOL0     H27861   4.840   1.434   3.408 -0.5185  0.7046  0.2298
  927MOL0     H27862   4.843   1.571   3.522  1.3044 -0.2623 -1.8838
  927MOL0     H27863   5.029   1.331   3.543 -1.0315  0.1819 -0.6357
  927MOL0     H27864   5.062   1.488   3.469 -0.5008 -1.2140 -1.2925
  927MOL0     H27865   5.036   1.592   3.695  2.3181  0.5165  0.0856
  927MOL0     H27866   5.002   1.439   3.767  0.2130  3.5520  2.5512
  927MOL0     H27867   5.225   1.355   3.702 -1.8119 -1.1064 -0.8295
  927MOL0     H27868   5.238   1.499   3.798 -1.1917 -4.0303  1.5009
  927MOL0     H27869   5.256   1.500   3.483 -2.4997 -1.0293  1.6462
  927MOL0     H27870   5.282   1.643   3.572  0.6394  0.7010 -0.7975
  927MOL0     H27871   5.486   1.559   3.498 -2.1863 -0.3181 -1.3855
  927MOL0     H27872   5.471   1.403   3.575  2.8468  0.9872  1.3474
  927MOL0     H27873   5.506   1.642   3.741  1.4600 -0.5562 -1.0038
  927MOL0     H27874   5.457   1.476   3.798 -1.0744 -1.7545  0.1001
  927MOL0     H27875   5.678   1.321   3.843  2.8691 -1.9624 -0.2451
  927MOL0     H27876   5.977   1.219   3.651  1.2197  1.2725  0.7134
  927MOL0     H27877   5.878   1.191   3.792 -1.6957  0.2240 -2.5015
  927MOL0     H27878   5.982   1.363   3.918  0.0789  1.0630  0.0996
  927MOL0     H27879   6.097   1.243   3.864 -0.1599 -0.5368 -1.9496
  927MOL0     H27880   6.107   1.445   3.664 -2.2201 -0.8704 -0.0279
  927MOL0     H27881   6.071   1.542   3.816 -0.6589 -0.4158  1.9326
  927MOL0     H27882   6.314   1.542   3.782 -1.5383 -0.6406 -3.9810
  927MOL0     H27883   6.263   1.457   3.926 -0.0373  0.8264  0.3004
  927MOL0     H27884   6.519   1.469   3.910  1.8992  0.8064 -0.1068
  927MOL0     H27885   6.801   1.387   4.052  2.0227  1.2651  0.0065
  927MOL0     H27886   6.728   1.528   3.974  0.3050  0.5647  2.9816
  927MOL0     H27887   6.870   1.438   3.895 -0.6765 -0.4373 -0.6770
  927MOL0     H27888   6.996   0.901   3.933 -1.1883 -1.1876 -0.7074
  927MOL0     H27889   7.238   0.835   3.942 -0.9504 -1.1593  0.4681
  927MOL0     H27890   7.448   0.731   3.865 -0.0629  0.6474  0.2048
  927MOL0     H27891   7.327   0.659   3.753  0.7363 -0.5439  1.4876
  927MOL0     H27892   7.465   0.631   3.583 -1.0988  1.5320  0.9413
  927MOL0     H27893   7.612   0.708   3.664  1.3857 -0.4845  3.6334
  927MOL0     H27894   7.469   0.457   3.776 -0.2627  0.1568 -0.9466
  927MOL0     H27895   7.603   0.543   3.842  1.3277 -2.6431  0.2515
  927MOL0     H27896   7.742   0.487   3.630 -0.4896  0.7170  0.6099
  927MOL0     H27897   7.597   0.406   3.570  2.1098  0.3390 -1.3901
  927MOL0     H27898   7.772   0.351   3.824 -0.4392 -0.7022  0.4930
  927MOL0     H27899   7.626   0.262   3.794 -1.4562  1.6516  0.3389
  927MOL0     H27900   7.892   0.280   3.650 -0.7559  1.5146  0.6877
  927MOL0     H27901   7.762   0.197   3.564 -1.5611 -1.3840  0.6359
  927MOL0     H27902   7.730   0.054   3.761 -0.7370  1.5010 -1.7045
  927MOL0     H27903   7.865   0.147   3.841  2.1723 -0.6927 -0.5762
  927MOL0     H27904   8.015   0.072   3.648 -0.1024  0.9657  0.9606
  927MOL0     H27905   7.901  -0.056   3.603  3.8629 -3.6828  1.5671
  927MOL0     H27906   7.290   1.016   3.542  1.7599  2.0862  0.6119
  927MOL0     H27907   7.061   1.111   3.563 -0.9317  0.8463  1.6197
  927MOL0     H27908   6.663   1.033   3.731  1.2735 -0.7236  2.1671
  927MOL0     H27909   6.429   1.102   3.729 -2.6910  1.2470  4.6167
  927MOL0     H27910   4.388   1.492   3.495  2.3730  0.3464  2.7307
  927MOL0     H27911   4.220   1.328   3.379 -0.1135  0.3871  1.5732
  927MOL0     H27912   4.327   0.835   3.020  0.0397 -2.4211  1.5124
  927MOL0     H27913   4.125   0.688   2.956  0.4258  0.1014 -2.5031
  927MOL0     H27914   3.956   0.761   2.753 -0.4374  2.1926  1.0955
  927MOL0     H27915   3.829   0.645   2.797 -0.3395  0.1090 -1.2419
  927MOL0     H27916   3.655   0.816   2.804 -0.2953  0.7869 -0.2097
  927MOL0     H27917   3.739   0.783   2.651  1.8689 -3.2282  2.3353
  927MOL0     H27918   3.776   1.030   2.833  1.7600 -1.9849  0.6910
  927MOL0     H27919   3.881   0.985   2.689 -0.5179  0.9808 -0.8843
  927MOL0     H27920   3.700   1.030   2.538  1.4809 -1.4124  0.2227
  927MOL0     H27921   3.705   1.169   2.652  2.4850 -0.5340 -1.8719
  927MOL0     H27922   3.328   0.960   2.723  1.2494 -3.4619  0.0307
  927MOL0     H27923   3.870   1.012   3.022 -0.0596  0.6191 -0.7840
  927MOL0     H27924   4.067   1.204   3.224  3.3112 -0.8050 -0.2345
  927MOL0     H27925   4.148   1.254   3.084  0.9900 -1.1562 -0.9844
  927MOL0     H27926   3.972   1.245   3.070  0.0223  3.3116  3.5017
  928MOL0     O27927   7.281   1.406   6.928 -0.3374  0.4369  0.2962
  928MOL0     C27928   7.212   1.471   6.852  0.2407  0.4275 -0.2440
  928MOL0     O27929   7.265   1.540   6.752 -0.7609 -0.8315 -0.4355
  928MOL0     C27930   7.389   1.503   6.703  0.5973  0.3908 -0.2517
  928MOL0     C27931   7.418   1.373   6.646 -0.0112 -1.1065 -0.1756
  928MOL0     C27932   7.545   1.354   6.591 -0.2470  0.6753 -0.8098
  928MOL0     C27933   7.650   1.453   6.600  0.9511  0.0524  0.2882
  928MOL0     O27934   7.772   1.444   6.546 -0.1602  0.5893 -0.2820
  928MOL0     C27935   7.837   1.316   6.527  0.5725  0.6727 -0.3737
  928MOL0     C27936   7.989   1.344   6.512  0.0988  0.0063 -0.0099
  928MOL0     C27937   8.059   1.213   6.464  0.5269 -0.2473  0.1307
  928MOL0     C27938   8.216   1.222   6.496  0.0936  0.8785  0.6035
  928MOL0     C27939   8.303   1.116   6.431 -0.3717 -0.4734  0.0284
  928MOL0     C27940   8.338   1.157   6.283 -0.3624 -0.4200  0.1147
  928MOL0     C27941   8.443   1.083   6.208 -0.0203  0.6971  0.0287
  928MOL0     C27942   8.401   0.932   6.168  0.1304 -0.3022  0.1804
  928MOL0     N27943   8.500   0.874   6.069  0.2095 -0.3925  0.9651
  928MOL0     C27944   8.470   0.852   5.940  0.2768  0.3027  0.1341
  928MOL0     C27945   8.593   0.837   5.880  0.3320  0.9283 -0.1181
  928MOL0     C27946   8.616   0.830   5.741  1.0008  0.2789 -0.1779
  928MOL0     C27947   8.768   0.834   5.715 -0.2166  0.4947  0.2152
  928MOL0     C27948   8.797   0.813   5.563 -0.6107 -0.6058 -0.5608
  928MOL0     C27949   8.946   0.783   5.536  0.2612  0.6443 -0.2167
  928MOL0     O27950   8.969   0.793   5.392  0.5386  0.4752 -0.1785
  928MOL0     C27951   9.094   0.766   5.340 -0.0504  0.3264 -0.7031
  928MOL0     C27952   9.210   0.743   5.418  0.5391 -0.1720  0.7963
  928MOL0     C27953   9.336   0.717   5.361 -0.0892 -0.2162 -0.1312
  928MOL0     C27954   9.455   0.711   5.448 -0.7109  0.6173 -0.2980
  928MOL0     C27955   9.352   0.703   5.222  0.7299 -0.5336  0.7777
  928MOL0     C27956   9.468   0.683   5.141 -0.1337 -0.5942 -0.3449
  928MOL0     O27957   9.588   0.748   5.181 -0.4573  0.2518 -0.3384
  928MOL0     C27958   9.707   0.717   5.128  0.6514  0.3870  0.7095
  928MOL0     C27959   9.740   0.739   4.990 -0.5552 -0.2399 -0.4835
  928MOL0     C27960   9.868   0.702   4.941  0.2876  0.3962 -0.0498
  928MOL0     C27961   9.979   0.675   5.026 -0.4074 -0.5444 -0.0563
  928MOL0     O27962  10.098   0.635   4.971 -0.5375  0.1777 -0.9007
  928MOL0     C27963  10.190   0.566   5.058  0.2322  0.0018  0.5862
  928MOL0     C27964  10.318   0.585   4.979 -0.7896 -0.3285 -1.0082
  928MOL0     C27965  10.441   0.502   5.011 -0.0795 -0.4098 -0.6182
  928MOL0     C27966  10.534   0.472   4.893 -0.7929 -0.1095 -1.1333
  928MOL0     C27967  10.659   0.392   4.944  0.5792  0.0677 -0.7270
  928MOL0     C27968  10.748   0.353   4.823  0.1159 -0.0001 -0.2128
  928MOL0     C27969  10.877   0.288   4.868 -0.6630  0.0768 -0.6073
  928MOL0     C27970  10.932   0.192   4.761  0.0866  0.1115 -0.3956
  928MOL0    Cl27971  11.030   0.275   4.627  0.1532 -0.0374 -0.6607
  928MOL0     C27972   9.946   0.653   5.163 -0.1356  0.1668  0.2144
  928MOL0     C27973   9.816   0.679   5.217  0.1628 -0.0311  0.1888
  928MOL0     O27974   9.453   0.619   5.042 -0.1938 -0.5466 -0.5214
  928MOL0     C27975   9.230   0.730   5.140 -0.1985  0.3735 -0.2987
  928MOL0     C27976   9.111   0.767   5.204 -0.6233  0.0269  0.1226
  928MOL0     N27977   8.683   0.867   5.976 -0.8183 -0.4136  0.6875
  928MOL0     N27978   8.628   0.898   6.085  0.7047  0.1070 -0.2875
  928MOL0     C27979   7.618   1.583   6.651 -0.1966  0.1102  0.3372
  928MOL0     C27980   7.490   1.606   6.701 -0.0978 -0.0329 -0.4139
  928MOL0     C27981   7.063   1.495   6.883 -0.2969  0.1001 -0.2753
  928MOL0     C27982   6.988   1.391   6.943 -0.9953 -0.2024  0.2200
  928MOL0     C27983   6.853   1.404   6.978  0.0964  0.0163 -0.0416
  928MOL0     C27984   6.783   1.522   6.942  0.7471 -0.0494  0.2991
  928MOL0     O27985   6.646   1.540   6.966 -0.0985  0.7365  0.9273
  928MOL0     C27986   6.563   1.423   6.987 -1.3036  0.2559 -0.2641
  928MOL0     C27987   6.416   1.470   6.973  0.3242 -0.8593  0.9276
  928MOL0     C27988   6.305   1.373   7.015 -0.1102  0.7546  0.6659
  928MOL0     C27989   6.276   1.262   6.906  0.2690 -0.3343  0.9659
  928MOL0     C27990   6.378   1.160   6.892 -0.4198  0.4231 -0.2918
  928MOL0     C27991   6.477   1.094   6.892 -0.9098  0.7155  0.6290
  928MOL0     C27992   6.853   1.626   6.882 -0.2536 -0.2421  0.0692
  928MOL0     C27993   6.996   1.622   6.856 -0.3399 -0.4868  0.1220
  928MOL0     C27994   7.070   1.753   6.812  0.4654 -0.8189  0.0984
  928MOL0     H27995   7.339   1.299   6.645  0.0110 -1.1282 -0.8494
  928MOL0     H27996   7.581   1.264   6.542  1.2311 -0.8204  2.7206
  928MOL0     H27997   7.792   1.259   6.445  2.0885  0.8655 -1.3740
  928MOL0     H27998   7.828   1.261   6.621  0.3547  2.4091  0.6502
  928MOL0     H27999   8.019   1.420   6.439  0.9840  0.2924  0.6302
  928MOL0     H28000   8.030   1.360   6.613 -0.7842 -2.2855  0.7871
  928MOL0     H28001   8.021   1.132   6.528 -0.9870 -0.7757 -1.3542
  928MOL0     H28002   8.042   1.199   6.356 -1.6085  1.1445  0.2352
  928MOL0     H28003   8.244   1.319   6.453  1.0240 -0.7360 -2.7148
  928MOL0     H28004   8.229   1.229   6.605  1.1010  1.3313  0.4665
  928MOL0     H28005   8.257   1.017   6.439 -0.0173 -0.5918  0.6786
  928MOL0     H28006   8.397   1.100   6.485  0.0532 -0.8338 -0.7970
  928MOL0     H28007   8.245   1.152   6.225 -0.4842  2.9215 -0.2008
  928MOL0     H28008   8.364   1.263   6.274  0.1554 -0.6032 -0.5839
  928MOL0     H28009   8.532   1.083   6.272 -0.1469  0.8582  0.2029
  928MOL0     H28010   8.470   1.129   6.113 -0.2925 -2.4436 -1.7300
  928MOL0     H28011   8.395   0.865   6.254  3.1183 -1.2354 -0.1991
  928MOL0     H28012   8.299   0.936   6.129 -0.1274 -1.9727  0.6116
  928MOL0     H28013   8.373   0.851   5.892 -0.6252  0.4425  1.8820
  928MOL0     H28014   8.559   0.896   5.676  2.4694 -0.8389 -2.7756
  928MOL0     H28015   8.584   0.729   5.712  2.6510 -1.0828  2.3715
  928MOL0     H28016   8.804   0.934   5.740  0.0351  2.4032 -6.0803
  928MOL0     H28017   8.817   0.757   5.775 -0.8794  1.8121  2.5442
  928MOL0     H28018   8.747   0.722   5.529 -1.4599 -0.1527 -0.5480
  928MOL0     H28019   8.755   0.897   5.507 -1.0861  0.6016  1.5278
  928MOL0     H28020   9.021   0.834   5.597  1.5888 -1.7197  0.2704
  928MOL0     H28021   8.960   0.679   5.567 -0.2740  0.4145 -0.7247
  928MOL0     H28022   9.204   0.750   5.526  0.2781  2.3903  0.6807
  928MOL0     H28023   9.498   0.811   5.459  2.4853 -0.6487 -0.1150
  928MOL0     H28024   9.531   0.649   5.400 -1.4357 -0.9401  0.5063
  928MOL0     H28025   9.436   0.679   5.551  0.8271  0.1262 -0.1429
  928MOL0     H28026   9.665   0.755   4.913  1.3373 -1.2273 -2.6368
  928MOL0     H28027   9.892   0.701   4.835 -1.0575  0.0929 -0.3650
  928MOL0     H28028  10.215   0.618   5.150  0.5209  0.1615  0.4194
  928MOL0     H28029  10.175   0.459   5.076  0.1732  0.0385  0.7521
  928MOL0     H28030  10.305   0.559   4.873 -0.9115 -0.3724 -0.9817
  928MOL0     H28031  10.344   0.691   4.991 -0.4694 -0.3149 -1.7253
  928MOL0     H28032  10.406   0.406   5.048  1.1062 -0.4247  0.5481
  928MOL0     H28033  10.494   0.550   5.095  0.1354  0.2348 -1.1104
  928MOL0     H28034  10.575   0.561   4.845 -0.5800  0.3825 -0.0756
  928MOL0     H28035  10.480   0.418   4.815  1.1363 -0.0135 -2.5960
  928MOL0     H28036  10.721   0.456   5.007  0.0846  0.4204 -0.5898
  928MOL0     H28037  10.641   0.301   5.002  2.2059  0.1935  0.0191
  928MOL0     H28038  10.772   0.442   4.765  0.7451 -0.9507 -1.4626
  928MOL0     H28039  10.697   0.280   4.758 -2.4940  0.6528  0.9523
  928MOL0     H28040  10.857   0.230   4.958 -3.9777 -1.1090 -1.9394
  928MOL0     H28041  10.951   0.364   4.896  0.1376 -0.3565 -1.4835
  928MOL0     H28042  10.852   0.135   4.713 -0.6480 -0.1600  1.0695
  928MOL0     H28043  10.999   0.126   4.817 -0.2091 -0.4416 -0.6807
  928MOL0     H28044  10.019   0.623   5.237  0.8099  0.8975 -0.4065
  928MOL0     H28045   9.789   0.658   5.320 -1.4909  0.5381 -0.1144
  928MOL0     H28046   9.234   0.743   5.033 -0.0594 -0.2469 -0.3714
  928MOL0     H28047   9.026   0.796   5.143 -1.5742 -2.4521  0.1319
  928MOL0     H28048   7.691   1.663   6.654  2.0553 -1.7298 -1.3465
  928MOL0     H28049   7.464   1.703   6.741  0.5049  0.5891 -1.4844
  928MOL0     H28050   7.027   1.291   6.957 -1.8802 -0.1862  3.8444
  928MOL0     H28051   6.794   1.325   7.023 -3.0453  2.4876  0.5625
  928MOL0     H28052   6.584   1.341   6.919 -0.5571 -0.5230  0.8741
  928MOL0     H28053   6.585   1.391   7.089  0.2677  0.5078 -0.5026
  928MOL0     H28054   6.393   1.499   6.870 -1.9601 -0.7500  1.4094
  928MOL0     H28055   6.409   1.553   7.044  2.1851  0.4855 -0.3519
  928MOL0     H28056   6.332   1.322   7.108 -2.1757 -0.9156  0.4427
  928MOL0     H28057   6.217   1.431   7.044  0.4153  1.6551  0.4983
  928MOL0     H28058   6.265   1.301   6.804  0.3581 -2.2362  0.1814
  928MOL0     H28059   6.179   1.220   6.933 -0.4445  1.1808  0.8606
  928MOL0     H28060   6.564   1.037   6.869 -1.6264 -0.5316  0.9336
  928MOL0     H28061   6.794   1.710   6.848 -0.5220 -0.0059  1.0843
  928MOL0     H28062   7.122   1.811   6.889 -2.9767 -1.5582  3.3084
  928MOL0     H28063   7.138   1.721   6.733  0.8099  0.6674 -0.2358
  928MOL0     H28064   7.006   1.832   6.772  1.9142  1.5805  2.2022
  929MOL0     O28065   8.336   3.115   9.539  0.2729 -0.1727 -0.5126
  929MOL0     C28066   8.441   3.034   9.533  0.8407 -0.1956  0.3083
  929MOL0     O28067   8.572   3.073   9.546  0.5425 -0.2543 -0.2991
  929MOL0     C28068   8.594   3.211   9.536  0.6118  0.6865 -1.6694
  929MOL0     C28069   8.629   3.290   9.640 -0.9186  0.6533 -0.1430
  929MOL0     C28070   8.633   3.431   9.639 -0.0354 -0.0403  0.7041
  929MOL0     C28071   8.599   3.491   9.521 -0.3241 -0.0411 -0.0940
  929MOL0     O28072   8.598   3.626   9.516  0.0456 -0.0221 -0.0950
  929MOL0     C28073   8.654   3.702   9.628  0.2809 -0.4007  0.3596
  929MOL0     C28074   8.641   3.848   9.603 -0.4858  1.0348  0.3479
  929MOL0     C28075   8.744   3.933   9.690  0.0015 -0.6441  0.0305
  929MOL0     C28076   8.713   4.079   9.648 -0.2260  0.4101 -0.2403
  929MOL0     C28077   8.793   4.201   9.698 -0.1635 -0.9766 -0.0544
  929MOL0     C28078   8.811   4.184   9.846  0.6475 -0.6392 -0.3747
  929MOL0     C28079   8.883   4.290   9.920  0.3643  0.4857 -0.3621
  929MOL0     C28080   8.899   4.260  10.067  0.0745 -0.1440 -0.3339
  929MOL0     N28081   8.961   4.373  10.128  0.0712 -0.0721  0.3069
  929MOL0     C28082   9.085   4.379  10.180  0.0282  1.1410 -0.3030
  929MOL0     C28083   9.102   4.501  10.221  0.0834 -0.2626 -0.1290
  929MOL0     C28084   9.236   4.551  10.273 -0.2133 -0.0776  0.3320
  929MOL0     C28085   9.331   4.587  10.159  0.5385 -0.2743  0.0290
  929MOL0     C28086   9.263   4.681  10.058 -0.0421 -0.3534 -0.0373
  929MOL0     C28087   9.355   4.701   9.944 -0.9626  0.0372  0.4495
  929MOL0     O28088   9.494   4.728   9.985  0.1152 -0.6360 -0.2563
  929MOL0     C28089   9.595   4.738   9.894  0.2784  0.2035  0.2349
  929MOL0     C28090   9.583   4.732   9.752  0.1519  0.4921  0.7349
  929MOL0     C28091   9.692   4.750   9.665 -0.1610 -0.2437 -0.3374
  929MOL0     C28092   9.655   4.735   9.524  0.1755 -0.7287 -0.4498
  929MOL0     C28093   9.820   4.752   9.720 -0.1543  0.7436  0.1886
  929MOL0     C28094   9.949   4.750   9.635  0.7599 -0.4045  0.7716
  929MOL0     O28095  10.061   4.702   9.680 -0.6707 -0.0226 -0.0043
  929MOL0     C28096  10.177   4.678   9.618 -0.2861  0.6783  0.4020
  929MOL0     C28097  10.196   4.649   9.484 -0.7966 -0.8462 -0.5027
  929MOL0     C28098  10.324   4.608   9.438 -1.2270  0.4273 -0.0087
  929MOL0     C28099  10.437   4.604   9.519 -0.5934  0.1437 -0.8267
  929MOL0     O28100  10.566   4.573   9.478  0.1606  0.2808  0.9031
  929MOL0     C28101  10.582   4.439   9.428 -0.0773 -0.9909 -0.8399
  929MOL0     C28102  10.582   4.351   9.547 -0.0563 -0.0451 -0.3762
  929MOL0     C28103  10.694   4.380   9.652  0.1907 -1.0694 -0.4691
  929MOL0     C28104  10.684   4.282   9.772  0.7436  0.3259  0.0622
  929MOL0     C28105  10.565   4.314   9.872 -0.5672 -0.2814  0.8091
  929MOL0     C28106  10.578   4.225   9.992 -0.1614  0.5379 -0.4314
  929MOL0     C28107  10.478   4.273  10.099  0.0776  0.4016  0.0009
  929MOL0     C28108  10.331   4.274  10.051 -0.1050 -0.5343 -0.5324
  929MOL0    Cl28109  10.272   4.133   9.953  0.0990  0.1172 -0.0672
  929MOL0     C28110  10.420   4.640   9.657 -0.3936  0.1661 -0.4188
  929MOL0     C28111  10.292   4.666   9.705  0.2390 -0.3240  0.2804
  929MOL0     O28112   9.932   4.803   9.526 -0.2623 -0.6734 -0.4304
  929MOL0     C28113   9.840   4.748   9.859  0.4159  0.1393  0.5997
  929MOL0     C28114   9.726   4.753   9.948 -0.2633 -0.7289  0.6959
  929MOL0     N28115   8.981   4.571  10.194 -0.3184  0.6536  0.0773
  929MOL0     N28116   8.897   4.492  10.143 -0.2393  0.3608  0.0510
  929MOL0     C28117   8.589   3.414   9.407 -1.0916 -0.6117  0.5971
  929MOL0     C28118   8.589   3.277   9.415  0.5677  0.1961  0.2324
  929MOL0     C28119   8.418   2.894   9.503  0.2123 -0.4116  0.2171
  929MOL0     C28120   8.512   2.842   9.409 -0.1290 -0.4351  0.8036
  929MOL0     C28121   8.502   2.711   9.363 -0.3230  0.2908  0.5750
  929MOL0     C28122   8.409   2.631   9.420  0.0200  0.0657 -0.3999
  929MOL0     O28123   8.409   2.497   9.386 -0.2051  0.1305 -0.0197
  929MOL0     C28124   8.293   2.437   9.336  1.0449  0.3969 -0.1782
  929MOL0     C28125   8.297   2.406   9.188  0.1639 -0.9999 -0.7992
  929MOL0     C28126   8.151   2.353   9.155 -0.0586 -0.9212 -0.3968
  929MOL0     C28127   8.146   2.208   9.194 -0.1370 -0.5379  0.4207
  929MOL0     C28128   8.018   2.139   9.181 -0.0945 -0.3912 -0.0738
  929MOL0     C28129   7.909   2.087   9.189 -0.1601 -0.0120  0.3513
  929MOL0     C28130   8.321   2.677   9.517 -0.2575 -0.7723  0.0423
  929MOL0     C28131   8.324   2.806   9.561 -0.2988  0.4420  0.1302
  929MOL0     C28132   8.222   2.853   9.661 -0.7493  0.6228  0.4891
  929MOL0     H28133   8.658   3.247   9.736 -0.1497 -3.0717 -1.8837
  929MOL0     H28134   8.634   3.471   9.740 -0.8256 -1.3102  1.2246
  929MOL0     H28135   8.758   3.680   9.652  0.7798  0.0840 -1.2671
  929MOL0     H28136   8.596   3.684   9.720 -0.2465 -0.8692 -0.0614
  929MOL0     H28137   8.669   3.857   9.498 -1.1732 -0.4039  0.0101
  929MOL0     H28138   8.538   3.876   9.628  0.0055  1.7885  1.6337
  929MOL0     H28139   8.734   3.919   9.798  3.8654  1.7269  0.9290
  929MOL0     H28140   8.849   3.914   9.666  1.0408  2.5904  1.3831
  929MOL0     H28141   8.716   4.080   9.539  0.1079  1.1172 -0.2318
  929MOL0     H28142   8.606   4.092   9.669 -0.3474  2.5903 -1.8828
  929MOL0     H28143   8.745   4.297   9.675  1.8854 -0.2768 -1.6429
  929MOL0     H28144   8.892   4.200   9.652 -2.3900 -2.0165 -5.6244
  929MOL0     H28145   8.712   4.176   9.893  1.3034 -1.2943  0.9653
  929MOL0     H28146   8.878   4.099   9.864  1.6720  0.6826  2.7207
  929MOL0     H28147   8.831   4.386   9.919  0.2724  0.5459 -4.2245
  929MOL0     H28148   8.986   4.303   9.883  0.2984  0.7007 -0.4740
  929MOL0     H28149   8.797   4.256  10.107  0.0201  2.4768 -0.0787
  929MOL0     H28150   8.952   4.165  10.082  0.2097  0.0100  0.1893
  929MOL0     H28151   9.159   4.300  10.183 -4.1939 -3.3174  2.8552
  929MOL0     H28152   9.277   4.484  10.350  2.3057  2.3610  1.2844
  929MOL0     H28153   9.216   4.650  10.314  2.4984  0.9922 -0.6803
  929MOL0     H28154   9.419   4.645  10.191  0.1248  1.9342 -2.5224
  929MOL0     H28155   9.377   4.502  10.108  2.7913  0.2846  0.9789
  929MOL0     H28156   9.168   4.644  10.019 -0.5926 -0.6341  1.5176
  929MOL0     H28157   9.254   4.782  10.100  1.7718 -0.6638  1.2129
  929MOL0     H28158   9.355   4.612   9.881  3.1098  0.3873 -0.3777
  929MOL0     H28159   9.329   4.793   9.889 -0.8212  0.2044  0.6588
  929MOL0     H28160   9.483   4.715   9.713 -0.5832  0.4542  2.5393
  929MOL0     H28161   9.546   4.743   9.514  0.0237  1.2286  1.8411
  929MOL0     H28162   9.701   4.639   9.499  0.2267 -1.2219  1.4318
  929MOL0     H28163   9.697   4.813   9.459  1.6820 -1.2008 -0.0876
  929MOL0     H28164  10.118   4.650   9.409 -0.9966  1.8113 -0.3848
  929MOL0     H28165  10.323   4.570   9.336  1.2531 -2.3939  0.8885
  929MOL0     H28166  10.506   4.409   9.356 -0.5824  0.5577 -0.9935
  929MOL0     H28167  10.673   4.434   9.368  0.8044  1.1228  0.1919
  929MOL0     H28168  10.484   4.344   9.595  0.1417 -1.1075 -0.1111
  929MOL0     H28169  10.618   4.254   9.511  1.0894  1.3960 -3.4573
  929MOL0     H28170  10.693   4.481   9.694  2.9712 -2.2806  3.0028
  929MOL0     H28171  10.791   4.360   9.606  0.5088  1.4016 -1.0530
  929MOL0     H28172  10.773   4.279   9.836  0.5752  1.5961  0.3779
  929MOL0     H28173  10.665   4.181   9.734 -1.1218 -0.6421  3.2170
  929MOL0     H28174  10.572   4.421   9.897 -2.6412 -0.3818  2.0246
  929MOL0     H28175  10.464   4.307   9.830 -1.2122 -1.2269  2.4471
  929MOL0     H28176  10.679   4.232  10.032 -1.3106 -0.5216  3.0052
  929MOL0     H28177  10.562   4.119   9.970 -0.5162  0.7096 -1.0363
  929MOL0     H28178  10.508   4.370  10.139 -0.9503  0.0548  1.7517
  929MOL0     H28179  10.487   4.199  10.179  0.7505 -1.5743 -1.8231
  929MOL0     H28180  10.312   4.366   9.995 -2.2371 -0.3606  0.4129
  929MOL0     H28181  10.265   4.290  10.136  0.1873  3.5595 -0.8666
  929MOL0     H28182  10.504   4.617   9.722 -3.0554 -0.7018  3.0445
  929MOL0     H28183  10.287   4.682   9.812 -0.4742 -0.5953  0.2941
  929MOL0     H28184   9.939   4.747   9.903 -0.2261 -2.9762  2.2945
  929MOL0     H28185   9.745   4.762  10.054  0.0233 -1.2925  0.6950
  929MOL0     H28186   8.587   3.462   9.310  1.8048  1.6193  1.4910
  929MOL0     H28187   8.580   3.211   9.329  0.2327  0.4869  0.0425
  929MOL0     H28188   8.588   2.905   9.364  0.6925 -1.4159  0.7634
  929MOL0     H28189   8.577   2.671   9.297  0.9399  2.9473  0.2567
  929MOL0     H28190   8.275   2.349   9.398 -0.6696  1.0141  0.2485
  929MOL0     H28191   8.207   2.500   9.359  0.8794 -0.9473  3.5824
  929MOL0     H28192   8.377   2.332   9.178  2.0878  1.0597 -1.3627
  929MOL0     H28193   8.335   2.492   9.132  0.8312 -1.3214 -0.8405
  929MOL0     H28194   8.081   2.402   9.224  0.4239  0.4013 -0.8133
  929MOL0     H28195   8.121   2.388   9.055 -0.8601  2.2306  0.8072
  929MOL0     H28196   8.168   2.204   9.301  0.8355 -0.1109  0.2447
  929MOL0     H28197   8.227   2.166   9.133  1.9672  1.9837  1.2790
  929MOL0     H28198   7.814   2.045   9.165 -0.9230  0.9253  1.5678
  929MOL0     H28199   8.243   2.612   9.555 -1.8957  0.9299 -0.2484
  929MOL0     H28200   8.273   2.934   9.715 -0.0889  1.4647 -1.3102
  929MOL0     H28201   8.131   2.881   9.607  0.2331  0.2360 -1.4325
  929MOL0     H28202   8.204   2.773   9.733 -4.2018  0.4417 -0.4078
  930MOL0     O28203   0.071  11.262   4.540 -0.1105 -0.0563  0.1383
  930MOL0     C28204   0.019  11.376   4.521 -0.2968  0.3765  0.5872
  930MOL0     O28205   0.091  11.493   4.480 -0.0199 -0.7079 -0.2784
  930MOL0     C28206   0.228  11.483   4.480  0.4005 -0.9849  0.0787
  930MOL0     C28207   0.290  11.514   4.357  0.1608  0.2150  0.0646
  930MOL0     C28208   0.421  11.506   4.339 -0.3117  0.7170  0.0108
  930MOL0     C28209   0.509  11.483   4.445  0.1555 -0.2197  0.2743
  930MOL0     O28210   0.643  11.486   4.429 -0.4385 -0.2389  0.2381
  930MOL0     C28211   0.715  11.361   4.472  0.1422  0.1590 -0.0217
  930MOL0     C28212   0.850  11.337   4.399  0.1132  0.5987  0.3257
  930MOL0     C28213   0.959  11.437   4.425 -1.6197 -0.2468  0.2294
  930MOL0     C28214   1.096  11.380   4.378  0.0486  0.6351  0.0538
  930MOL0     C28215   1.211  11.475   4.397  0.0683  0.4114 -0.6232
  930MOL0     C28216   1.264  11.480   4.539 -0.8265 -1.4608 -0.7077
  930MOL0     C28217   1.413  11.513   4.536 -0.4511  0.3174  0.0858
  930MOL0     C28218   1.448  11.640   4.443 -0.2953  0.2157 -0.8530
  930MOL0     N28219   1.596  11.658   4.434 -0.7061  0.1595 -0.5203
  930MOL0     C28220   1.687  11.703   4.525  0.2681 -0.5338 -0.9290
  930MOL0     C28221   1.811  11.677   4.475  0.1408 -0.0229 -0.7802
  930MOL0     C28222   1.945  11.713   4.521 -0.4812 -0.7118 -0.2568
  930MOL0     C28223   1.969  11.752   4.669  0.9697  0.2697 -0.0100
  930MOL0     C28224   1.947  11.622   4.749 -0.2699  0.3521 -0.1616
  930MOL0     C28225   1.970  11.640   4.896 -0.5906  0.9202 -0.1786
  930MOL0     O28226   1.919  11.535   4.980  0.1586  0.5302 -0.1599
  930MOL0     C28227   1.780  11.538   5.001 -0.8709 -1.1579  0.4450
  930MOL0     C28228   1.737  11.427   5.074  0.3679  0.3513  0.3009
  930MOL0     C28229   1.607  11.401   5.094 -0.3683  0.1964  0.2166
  930MOL0     C28230   1.574  11.277   5.185  0.6736  0.5645  1.0178
  930MOL0     C28231   1.506  11.489   5.042  0.1387  0.3542 -0.0611
  930MOL0     C28232   1.364  11.460   5.053  0.8035 -0.1852 -0.1449
  930MOL0     O28233   1.296  11.472   4.930  0.7001  0.5145 -0.0010
  930MOL0     C28234   1.159  11.462   4.930 -0.6358  0.6624 -0.1821
  930MOL0     C28235   1.082  11.538   5.016 -0.3110 -0.0074 -0.1060
  930MOL0     C28236   0.946  11.535   5.001 -0.1344  0.2682 -0.2104
  930MOL0     C28237   0.873  11.452   4.918 -0.7796 -0.9596  0.3792
  930MOL0     O28238   0.743  11.443   4.908 -0.8473  0.1902  0.2449
  930MOL0     C28239   0.659  11.468   5.022 -0.9106 -0.6984 -0.9847
  930MOL0     C28240   0.511  11.461   5.000  0.3326 -0.3456 -0.0196
  930MOL0     C28241   0.457  11.330   4.959 -0.3206 -0.1279 -0.7611
  930MOL0     C28242   0.307  11.336   4.975 -0.2603  1.0125 -0.2289
  930MOL0     C28243   0.235  11.209   4.923  0.3198  0.5770  0.5699
  930MOL0     C28244   0.096  11.185   4.990  0.2154  1.2326  0.2459
  930MOL0     C28245  -0.001  11.305   4.971  0.3175 -0.0990 -0.1542
  930MOL0     C28246  -0.140  11.266   5.022 -0.9996 -0.1620 -0.2622
  930MOL0    Cl28247  -0.213  11.135   4.928 -0.5452  0.2528  0.4786
  930MOL0     C28248   0.954  11.375   4.832 -0.9043  0.3605  0.9398
  930MOL0     C28249   1.096  11.383   4.831  0.4928  1.0217 -0.1587
  930MOL0     O28250   1.307  11.446   5.162  0.0551  0.5820 -0.3269
  930MOL0     C28251   1.542  11.595   4.960  0.2856 -0.1785 -0.6807
  930MOL0     C28252   1.684  11.623   4.939  0.9647  0.2621  0.5337
  930MOL0     N28253   1.794  11.621   4.349  0.4119  0.3986 -0.2720
  930MOL0     N28254   1.666  11.615   4.329  0.2460  0.7430  1.2396
  930MOL0     C28255   0.457  11.442   4.573  0.5300  0.0416 -1.0642
  930MOL0     C28256   0.313  11.444   4.592  0.5956  0.8979  0.6883
  930MOL0     C28257  -0.133  11.366   4.512  0.0426 -0.0002  0.0291
  930MOL0     C28258  -0.196  11.294   4.614 -0.3664 -0.3048  0.2985
  930MOL0     C28259  -0.338  11.286   4.614 -0.4014 -0.3906 -0.9883
  930MOL0     C28260  -0.409  11.341   4.510  0.8464 -0.1024 -0.1389
  930MOL0     O28261  -0.549  11.319   4.525  0.1546  0.0937 -0.3203
  930MOL0     C28262  -0.649  11.415   4.463 -0.0401  0.1106 -0.3929
  930MOL0     C28263  -0.780  11.410   4.557  0.1061 -0.9504 -0.8487
  930MOL0     C28264  -0.876  11.515   4.497  0.2006 -0.4284 -0.7761
  930MOL0     C28265  -1.018  11.512   4.554  0.4641  0.0056  0.0569
  930MOL0     C28266  -1.009  11.542   4.694 -1.3623 -0.3615 -0.4274
  930MOL0     C28267  -1.022  11.570   4.812 -0.1948  0.2326 -0.5200
  930MOL0     C28268  -0.343  11.405   4.402  0.2757 -0.2169 -0.1180
  930MOL0     C28269  -0.210  11.418   4.400 -0.7970 -0.0197  0.4339
  930MOL0     C28270  -0.136  11.503   4.294  0.9311  0.0150 -0.6405
  930MOL0     H28271   0.224  11.542   4.275  0.0152  0.2802  0.2046
  930MOL0     H28272   0.458  11.507   4.237 -4.4193 -0.2736 -1.7128
  930MOL0     H28273   0.654  11.274   4.446 -0.3764  1.0039 -1.7634
  930MOL0     H28274   0.733  11.366   4.580  1.8411  1.4718 -0.3186
  930MOL0     H28275   0.891  11.242   4.433 -1.0704  0.3222  1.0192
  930MOL0     H28276   0.829  11.339   4.291  0.9102  1.4789  0.1759
  930MOL0     H28277   0.933  11.523   4.363  0.3582 -0.4073 -0.9015
  930MOL0     H28278   0.969  11.462   4.532  0.9500 -0.1759  0.0257
  930MOL0     H28279   1.117  11.277   4.409  0.4856  0.4988 -0.6917
  930MOL0     H28280   1.089  11.383   4.269 -0.9620  1.0895  0.1185
  930MOL0     H28281   1.175  11.572   4.359 -1.2738 -0.3107 -1.2647
  930MOL0     H28282   1.293  11.442   4.333 -0.1450 -0.9060 -0.2497
  930MOL0     H28283   1.217  11.554   4.605  2.4895 -1.2778  1.7233
  930MOL0     H28284   1.255  11.383   4.588  2.3225 -2.0436 -1.1180
  930MOL0     H28285   1.459  11.421   4.497 -2.8854 -0.3008 -1.5318
  930MOL0     H28286   1.458  11.521   4.636 -0.1069  0.1069 -0.0473
  930MOL0     H28287   1.407  11.638   4.341  0.3339  1.5043 -1.1444
  930MOL0     H28288   1.405  11.732   4.483 -2.8794 -0.8419 -0.9595
  930MOL0     H28289   1.656  11.753   4.616 -0.9963  1.5019 -2.3702
  930MOL0     H28290   1.977  11.798   4.460  0.1745  0.1983  1.2925
  930MOL0     H28291   2.015  11.641   4.477  1.4963  2.2618 -2.2977
  930MOL0     H28292   2.072  11.788   4.676  0.5833  1.5129 -0.3743
  930MOL0     H28293   1.892  11.821   4.706 -0.0970 -1.5579  1.3307
  930MOL0     H28294   1.851  11.571   4.736  0.3340 -0.2235 -2.8638
  930MOL0     H28295   2.027  11.555   4.719  1.7692  2.7765 -0.4153
  930MOL0     H28296   2.077  11.651   4.917 -0.7524  3.6959 -0.4958
  930MOL0     H28297   1.936  11.738   4.928 -2.3932 -0.1200  1.2455
  930MOL0     H28298   1.806  11.348   5.102  0.0035 -0.1381 -0.1577
  930MOL0     H28299   1.473  11.266   5.225  0.6781 -2.6510  0.3646
  930MOL0     H28300   1.637  11.268   5.274 -1.4212 -3.6900  2.3111
  930MOL0     H28301   1.592  11.183   5.132 -0.2078  1.4516 -0.9691
  930MOL0     H28302   1.123  11.615   5.081 -1.0261  1.9646 -1.8482
  930MOL0     H28303   0.891  11.612   5.053  1.3052  1.4372 -0.3549
  930MOL0     H28304   0.689  11.397   5.100 -3.4139 -0.3620  0.4003
  930MOL0     H28305   0.674  11.571   5.057  0.7898 -1.7623  1.8317
  930MOL0     H28306   0.462  11.483   5.095 -0.6212  1.5866 -0.9030
  930MOL0     H28307   0.484  11.533   4.922 -1.0375 -1.2042 -0.3606
  930MOL0     H28308   0.500  11.250   5.020  0.2408  1.1647  0.5848
  930MOL0     H28309   0.486  11.302   4.858  3.0522 -0.0186  0.0769
  930MOL0     H28310   0.270  11.419   4.913 -0.1332 -0.4363 -2.3522
  930MOL0     H28311   0.291  11.341   5.083  2.6866 -3.0556  0.6313
  930MOL0     H28312   0.222  11.205   4.815  0.2302  0.1272  0.5955
  930MOL0     H28313   0.302  11.125   4.940  0.0122  0.1501 -0.2926
  930MOL0     H28314   0.095  11.168   5.098  0.5886  2.0978  0.3994
  930MOL0     H28315   0.059  11.092   4.945 -0.3387  1.4410  0.2561
  930MOL0     H28316   0.004  11.339   4.868 -0.4039  1.8201  0.3994
  930MOL0     H28317   0.035  11.393   5.025 -0.2824  0.5658 -0.8223
  930MOL0     H28318  -0.198  11.359   5.024 -1.5861 -0.3760 -3.1447
  930MOL0     H28319  -0.128  11.235   5.126 -3.2900 -2.1289 -0.4792
  930MOL0     H28320   0.915  11.291   4.775  0.5976 -1.2887  2.2218
  930MOL0     H28321   1.143  11.329   4.750  2.5734  2.6820 -0.1308
  930MOL0     H28322   1.459  11.653   4.923 -0.6552  1.4394  3.4947
  930MOL0     H28323   1.710  11.702   4.870 -0.7463  2.8874  2.6540
  930MOL0     H28324   0.522  11.406   4.652  1.2390 -0.0582 -1.6787
  930MOL0     H28325   0.274  11.413   4.688  2.4107 -1.7022  0.6934
  930MOL0     H28326  -0.133  11.256   4.693 -0.0060 -1.8757 -0.7012
  930MOL0     H28327  -0.388  11.243   4.700 -0.2878  0.7059 -0.3574
  930MOL0     H28328  -0.600  11.512   4.449  0.8395 -0.5773 -2.5687
  930MOL0     H28329  -0.668  11.376   4.363 -1.9422 -2.3454  0.8106
  930MOL0     H28330  -0.758  11.428   4.662 -3.9774 -0.5482  0.1029
  930MOL0     H28331  -0.830  11.314   4.540  1.0951 -1.1152 -3.3866
  930MOL0     H28332  -0.838  11.616   4.515  0.9454 -0.4990 -1.9033
  930MOL0     H28333  -0.891  11.509   4.389  4.5425  2.4168 -1.8074
  930MOL0     H28334  -1.063  11.414   4.536 -0.5391  0.4199  0.2716
  930MOL0     H28335  -1.081  11.582   4.499 -0.0598  2.2429  3.2199
  930MOL0     H28336  -1.040  11.584   4.917 -0.2693  0.9627 -0.6262
  930MOL0     H28337  -0.406  11.457   4.330 -0.4168  0.2476  0.7931
  930MOL0     H28338  -0.058  11.446   4.243 -0.6522 -0.7517 -2.3317
  930MOL0     H28339  -0.217  11.530   4.225  1.0116 -1.0747 -1.1864
  930MOL0     H28340  -0.092  11.586   4.349  0.2475 -0.0624  0.0409
  931MOL0     O28341  10.947   9.367   7.028 -1.5784  0.3315  0.5272
  931MOL0     C28342  10.885   9.471   7.044 -1.0722 -0.4597  0.5681
  931MOL0     O28343  10.941   9.598   7.084 -0.3642  0.3528  1.0319
  931MOL0     C28344  11.074   9.632   7.120  0.3381  0.5678  0.7212
  931MOL0     C28345  11.107   9.768   7.116  0.0231 -0.4078 -0.1409
  931MOL0     C28346  11.230   9.824   7.154  0.4554  0.1475 -0.8893
  931MOL0     C28347  11.331   9.735   7.187  0.0177  0.1651  1.0107
  931MOL0     O28348  11.449   9.787   7.225 -0.2019  0.0814  0.3108
  931MOL0     C28349  11.537   9.708   7.307 -0.3363 -0.0523 -0.5918
  931MOL0     C28350  11.667   9.790   7.342  0.5548 -0.4433  0.1226
  931MOL0     C28351  11.789   9.699   7.352  1.3716 -0.0693 -1.2931
  931MOL0     C28352  11.907   9.776   7.412 -1.3778 -0.1481 -0.4197
  931MOL0     C28353  12.017   9.683   7.471  0.0701  0.4274 -0.6170
  931MOL0     C28354  12.098   9.602   7.369  0.3446  0.3415  0.0782
  931MOL0     C28355  12.190   9.517   7.454 -0.2283 -0.3466 -0.1907
  931MOL0     C28356  12.274   9.415   7.365  0.3317 -1.2434 -0.0287
  931MOL0     N28357  12.356   9.331   7.463 -0.3327 -0.4799  0.1582
  931MOL0     C28358  12.487   9.356   7.504 -0.3915 -0.0123 -0.0640
  931MOL0     C28359  12.519   9.241   7.570  0.4345  0.6105  0.0005
  931MOL0     C28360  12.661   9.210   7.627  1.1242  0.6101  0.8597
  931MOL0     C28361  12.775   9.256   7.532  0.6089  0.9548  0.5219
  931MOL0     C28362  12.917   9.243   7.598  0.1790 -0.1015  0.3119
  931MOL0     C28363  13.028   9.268   7.496  0.2630  0.4555 -0.3153
  931MOL0     O28364  13.160   9.277   7.561  0.3091  0.6844  0.3657
  931MOL0     C28365  13.203   9.401   7.607  0.2318  0.1920  0.1642
  931MOL0     C28366  13.128   9.521   7.617  0.2928 -0.1515  0.6235
  931MOL0     C28367  13.194   9.634   7.664  0.0745 -0.3888 -0.2594
  931MOL0     C28368  13.102   9.753   7.700 -0.3116 -0.4534 -0.1297
  931MOL0     C28369  13.327   9.631   7.691 -0.5602 -0.9792  0.7895
  931MOL0     C28370  13.408   9.752   7.741  0.3497  0.8925 -0.1138
  931MOL0     O28371  13.507   9.726   7.836 -0.6336 -0.0896  0.0094
  931MOL0     C28372  13.567   9.829   7.895 -0.1692  0.1095 -0.9086
  931MOL0     C28373  13.674   9.895   7.833 -0.5370 -0.6573 -0.2322
  931MOL0     C28374  13.737  10.001   7.887 -0.3941 -0.7687  0.5613
  931MOL0     C28375  13.698  10.037   8.011 -0.4661  0.2571 -0.6916
  931MOL0     O28376  13.764  10.138   8.075 -0.0987  0.3765 -0.0286
  931MOL0     C28377  13.848  10.091   8.182  0.4025 -0.5804  0.5398
  931MOL0     C28378  13.997  10.084   8.142  0.2052 -0.0722  0.4148
  931MOL0     C28379  14.086  10.119   8.261  0.1337  0.0647  0.3103
  931MOL0     C28380  14.224  10.157   8.208  0.4753  0.2210  0.3079
  931MOL0     C28381  14.327  10.157   8.323  0.0368  0.2090  0.1230
  931MOL0     C28382  14.452  10.241   8.297 -0.3660  1.1282  0.4546
  931MOL0     C28383  14.539  10.284   8.416  0.6104  0.4283  0.6818
  931MOL0     C28384  14.646  10.390   8.385  0.2252 -0.2202 -0.5479
  931MOL0    Cl28385  14.802  10.305   8.433 -0.3305  0.2753 -0.2848
  931MOL0     C28386  13.588   9.981   8.078  0.7884  0.1918 -0.3164
  931MOL0     C28387  13.524   9.877   8.018  0.8323 -0.1912  0.7297
  931MOL0     O28388  13.393   9.861   7.686  0.0747  0.2077 -0.3475
  931MOL0     C28389  13.403   9.520   7.670 -0.2318 -0.5187 -0.1535
  931MOL0     C28390  13.345   9.402   7.628  0.4227 -1.0327  0.3639
  931MOL0     N28391  12.402   9.154   7.575  0.1792 -0.2168  0.5067
  931MOL0     N28392  12.315   9.210   7.493 -0.1545  0.9654 -1.3889
  931MOL0     C28393  11.304   9.590   7.188 -0.4267 -0.1837  0.0704
  931MOL0     C28394  11.176   9.543   7.156 -0.6554 -0.3876  0.9553
  931MOL0     C28395  10.736   9.475   7.028  0.2306  0.1955 -0.1470
  931MOL0     C28396  10.675   9.356   7.063 -0.2014 -0.1620 -0.2219
  931MOL0     C28397  10.536   9.331   7.046 -0.3587 -0.7995 -0.3676
  931MOL0     C28398  10.458   9.435   7.002  0.2538 -0.1817 -0.2221
  931MOL0     O28399  10.317   9.430   6.997  0.1409 -0.0529 -0.6145
  931MOL0     C28400  10.248   9.303   7.024 -1.1389  0.0349 -0.1667
  931MOL0     C28401  10.101   9.330   7.015 -0.6119  0.1739 -0.3243
  931MOL0     C28402  10.052   9.357   6.870  0.3155  0.1744 -0.1871
  931MOL0     C28403   9.921   9.304   6.840  0.3879 -0.3649 -0.1132
  931MOL0     C28404   9.879   9.351   6.709 -0.1166  0.6185 -0.2164
  931MOL0     C28405   9.857   9.406   6.607  0.5049  0.1858  0.2954
  931MOL0     C28406  10.515   9.560   6.971  0.2921 -0.7851 -1.0750
  931MOL0     C28407  10.655   9.583   6.981 -0.1229  0.1048  0.3038
  931MOL0     C28408  10.714   9.715   6.948  1.0621 -0.7445  0.1341
  931MOL0     H28409  11.026   9.839   7.106 -2.2713 -2.7216  0.6787
  931MOL0     H28410  11.244   9.932   7.151  0.0703  0.2661  0.8211
  931MOL0     H28411  11.573   9.627   7.242  0.0487  0.5590 -1.1450
  931MOL0     H28412  11.494   9.667   7.399  1.7885 -0.8631  0.0868
  931MOL0     H28413  11.690   9.861   7.262  1.3456 -2.0796 -1.1560
  931MOL0     H28414  11.648   9.830   7.442 -0.5511 -1.0930  0.1868
  931MOL0     H28415  11.758   9.611   7.410 -2.8715  0.5870 -2.1926
  931MOL0     H28416  11.816   9.666   7.251 -0.2378 -0.7212 -1.5525
  931MOL0     H28417  11.961   9.830   7.334 -1.7064 -2.5627 -2.4343
  931MOL0     H28418  11.871   9.849   7.486 -2.8963 -0.3716 -0.9079
  931MOL0     H28419  11.966   9.623   7.547 -1.0735  2.9309  0.7238
  931MOL0     H28420  12.102   9.738   7.512  0.5905 -0.9701  0.2421
  931MOL0     H28421  12.035   9.545   7.300  0.7998 -1.6112  1.1936
  931MOL0     H28422  12.160   9.666   7.306  1.2719 -1.2414 -0.6711
  931MOL0     H28423  12.136   9.460   7.530  2.5226 -2.9032  0.0680
  931MOL0     H28424  12.267   9.587   7.490  0.1019 -1.7017  1.8804
  931MOL0     H28425  12.199   9.352   7.317 -2.5823  1.2756  0.9176
  931MOL0     H28426  12.335   9.471   7.294 -0.3999  1.4940  1.3663
  931MOL0     H28427  12.548   9.440   7.471  0.6798 -1.1124 -0.9561
  931MOL0     H28428  12.648   9.108   7.663 -2.0100  0.8304  0.6502
  931MOL0     H28429  12.671   9.267   7.720  1.3391  0.8071  0.7191
  931MOL0     H28430  12.767   9.191   7.444  0.0863 -0.5193  1.6213
  931MOL0     H28431  12.758   9.363   7.520 -0.6416  0.6918 -0.1415
  931MOL0     H28432  12.933   9.310   7.683 -0.5421 -0.1200  0.4683
  931MOL0     H28433  12.924   9.137   7.623  0.0068 -0.0577  0.5489
  931MOL0     H28434  13.018   9.184   7.426 -2.7004  0.7680 -0.3929
  931MOL0     H28435  13.008   9.357   7.435  2.3181  2.4860  1.7447
  931MOL0     H28436  13.020   9.525   7.604  0.0184  0.5065  2.7464
  931MOL0     H28437  13.017   9.716   7.758 -2.9117  3.0909 -1.3102
  931MOL0     H28438  13.071   9.814   7.615  3.4950 -0.0509 -1.4225
  931MOL0     H28439  13.156   9.819   7.769  0.3102 -2.9709  1.9436
  931MOL0     H28440  13.705   9.857   7.736  1.2609 -3.6130  1.3150
  931MOL0     H28441  13.822  10.042   7.834 -0.1818 -1.1390  0.6155
  931MOL0     H28442  13.843  10.173   8.255  1.1396 -1.3602  1.4878
  931MOL0     H28443  13.827   9.992   8.223  1.0909 -0.9125  0.1006
  931MOL0     H28444  14.031   9.987   8.106 -0.4243  0.8754 -3.0570
  931MOL0     H28445  14.020  10.148   8.056 -1.0053 -1.0438 -0.6610
  931MOL0     H28446  14.086  10.039   8.335 -0.9166  1.6369  2.1058
  931MOL0     H28447  14.046  10.209   8.309 -2.5419 -1.4497  1.1137
  931MOL0     H28448  14.217  10.255   8.159  2.0465  0.1628 -0.0955
  931MOL0     H28449  14.268  10.091   8.132  3.3370  2.2400  0.0274
  931MOL0     H28450  14.279  10.196   8.413  3.6338  1.8285  1.5424
  931MOL0     H28451  14.359  10.056   8.348  1.5630  1.2565  2.8939
  931MOL0     H28452  14.409  10.335   8.261 -0.3368  0.3686 -1.7153
  931MOL0     H28453  14.518  10.187   8.227  0.0382 -0.6474  2.1126
  931MOL0     H28454  14.578  10.199   8.472  1.7522  1.0312  0.8362
  931MOL0     H28455  14.469  10.326   8.488 -0.9677 -3.4954  1.6919
  931MOL0     H28456  14.634  10.489   8.431  0.6821 -0.1566 -0.5549
  931MOL0     H28457  14.643  10.421   8.280 -1.3751  1.1809 -0.1479
  931MOL0     H28458  13.550  10.026   8.169 -1.6345 -2.5089  0.1668
  931MOL0     H28459  13.434   9.839   8.064 -1.1798  0.9007 -2.0320
  931MOL0     H28460  13.511   9.529   7.661 -0.0133 -1.9942  0.7218
  931MOL0     H28461  13.399   9.310   7.609  0.9380 -0.7984  0.6730
  931MOL0     H28462  11.369   9.515   7.231 -2.2750 -1.5093  0.6430
  931MOL0     H28463  11.157   9.436   7.154 -0.2858 -0.4471  0.4295
  931MOL0     H28464  10.734   9.279   7.111 -1.5985 -0.4526  1.1157
  931MOL0     H28465  10.502   9.229   7.062 -1.0730 -0.7574 -1.5322
  931MOL0     H28466  10.270   9.232   6.945 -2.3147 -1.3971  0.7378
  931MOL0     H28467  10.275   9.261   7.121 -0.3899  1.9419  0.5034
  931MOL0     H28468  10.076   9.415   7.080  0.7631  1.7614 -1.7704
  931MOL0     H28469  10.035   9.256   7.060 -1.3150  0.1925 -1.2945
  931MOL0     H28470  10.074   9.460   6.841  1.6413 -0.3537 -1.2065
  931MOL0     H28471  10.122   9.290   6.819 -1.1650 -2.3913  0.9593
  931MOL0     H28472   9.848   9.350   6.907  1.1349 -1.0694  1.2254
  931MOL0     H28473   9.906   9.195   6.843  1.3276 -0.4854  2.8455
  931MOL0     H28474   9.841   9.454   6.513  2.7506  0.9314  0.2391
  931MOL0     H28475  10.442   9.638   6.953  0.8135  0.3154  1.1874
  931MOL0     H28476  10.626   9.777   6.931  1.6962  1.0338  2.8245
  931MOL0     H28477  10.769   9.764   7.029  1.0903  0.6421 -0.6989
  931MOL0     H28478  10.779   9.708   6.860  0.8917  3.4978 -0.5161
  932MOL0     O28479   9.769   7.341   8.957 -0.4075  0.0533 -0.1635
  932MOL0     C28480   9.753   7.281   9.060 -0.2759  0.1747  0.5332
  932MOL0     O28481   9.848   7.207   9.115  0.4938 -0.0857 -0.2435
  932MOL0     C28482   9.976   7.206   9.071 -0.5585 -0.7566 -0.4047
  932MOL0     C28483  10.043   7.087   9.074  0.1252 -0.4544 -0.1492
  932MOL0     C28484  10.177   7.073   9.038 -0.6434  0.3500  0.1149
  932MOL0     C28485  10.259   7.191   9.018  0.5266  0.1947  0.4589
  932MOL0     O28486  10.396   7.185   8.993  0.0016  0.3998 -0.5775
  932MOL0     C28487  10.464   7.315   8.978 -0.6614 -0.1840 -0.1319
  932MOL0     C28488  10.614   7.280   8.973  0.1578 -0.2287 -0.2086
  932MOL0     C28489  10.690   7.363   8.868 -1.9306 -0.3659  0.1798
  932MOL0     C28490  10.832   7.304   8.839 -0.0416 -0.8069  0.3132
  932MOL0     C28491  10.909   7.376   8.733 -0.1586 -0.3300  0.3899
  932MOL0     C28492  11.059   7.353   8.741  0.3801 -0.2930 -0.0540
  932MOL0     C28493  11.111   7.214   8.695  1.1329  0.0520 -0.2787
  932MOL0     C28494  11.243   7.184   8.766 -0.7001 -0.2979  0.1076
  932MOL0     N28495  11.355   7.286   8.740  0.3469  0.0710  0.3882
  932MOL0     C28496  11.399   7.378   8.832 -0.9657  0.9277 -0.5525
  932MOL0     C28497  11.488   7.453   8.765 -0.1561 -0.0814 -0.0184
  932MOL0     C28498  11.540   7.581   8.813 -0.5211 -0.2349 -0.4590
  932MOL0     C28499  11.605   7.553   8.950 -0.1850  0.6341  0.6126
  932MOL0     C28500  11.743   7.480   8.954  0.1585  0.2340 -0.0158
  932MOL0     C28501  11.836   7.524   9.065  0.0415 -0.2609  0.7955
  932MOL0     O28502  11.877   7.661   9.046  0.4939 -0.3313 -0.7531
  932MOL0     C28503  12.010   7.688   9.063  0.8432  0.0450  0.4506
  932MOL0     C28504  12.087   7.646   9.172 -0.1729 -0.2719  0.0708
  932MOL0     C28505  12.222   7.670   9.179  0.3394 -0.6458  0.0709
  932MOL0     C28506  12.299   7.638   9.307 -0.0855 -0.6274  0.7080
  932MOL0     C28507  12.285   7.739   9.071  0.2805  0.3156  0.7054
  932MOL0     C28508  12.432   7.778   9.061 -1.1270  0.2667 -0.4639
  932MOL0     O28509  12.468   7.871   8.974  0.2171 -0.2682 -0.6013
  932MOL0     C28510  12.599   7.897   8.935 -0.4710 -0.1954 -0.3395
  932MOL0     C28511  12.652   8.028   8.945  0.4915  0.3476  0.3195
  932MOL0     C28512  12.782   8.059   8.909 -0.0582 -0.1789  0.9131
  932MOL0     C28513  12.857   7.953   8.849  0.9358 -0.2523  0.3021
  932MOL0     O28514  12.972   7.988   8.794 -0.2128 -0.2336 -0.2554
  932MOL0     C28515  13.083   8.018   8.881 -0.4719  0.8282 -0.0333
  932MOL0     C28516  13.175   7.892   8.869  0.1608 -0.5631 -1.1341
  932MOL0     C28517  13.320   7.928   8.896  0.6902 -0.1374  0.0176
  932MOL0     C28518  13.415   7.819   8.909 -0.3855  0.2611 -1.0427
  932MOL0     C28519  13.543   7.877   8.980 -0.4156 -0.1160  0.8384
  932MOL0     C28520  13.658   7.762   8.979  0.0011 -0.3994 -0.4766
  932MOL0     C28521  13.766   7.816   9.068 -0.4464  0.9723  0.0125
  932MOL0     C28522  13.873   7.715   9.096  0.4109  1.1715  0.6235
  932MOL0    Cl28523  13.965   7.708   8.943  0.0595 -0.1695 -0.0440
  932MOL0     C28524  12.801   7.825   8.834 -0.3977  1.0533  0.4956
  932MOL0     C28525  12.680   7.794   8.887 -0.0421 -0.2642 -0.5565
  932MOL0     O28526  12.509   7.714   9.133 -0.4585  0.1533 -1.4297
  932MOL0     C28527  12.208   7.782   8.962  0.4473 -0.1447  1.0489
  932MOL0     C28528  12.072   7.755   8.958  0.3559  0.5136 -0.2547
  932MOL0     N28529  11.512   7.392   8.645 -0.8028 -0.4978  1.2841
  932MOL0     N28530  11.427   7.292   8.621 -0.1700  0.2016 -0.1026
  932MOL0     C28531  10.185   7.315   9.026  0.3213 -0.4693  0.2927
  932MOL0     C28532  10.047   7.323   9.045  0.2548  0.4991 -0.4738
  932MOL0     C28533   9.632   7.292   9.134  0.0710 -0.5381  0.3440
  932MOL0     C28534   9.562   7.409   9.120  0.2949 -0.3253  0.0209
  932MOL0     C28535   9.431   7.419   9.161 -0.5984  0.4884  0.8026
  932MOL0     C28536   9.367   7.318   9.232  0.2810  0.6013 -0.8753
  932MOL0     O28537   9.239   7.357   9.264 -0.1452 -0.3547 -0.9100
  932MOL0     C28538   9.184   7.278   9.371 -0.5123 -0.0032  0.3633
  932MOL0     C28539   9.108   7.157   9.303  0.3557 -0.0640  0.4094
  932MOL0     C28540   9.098   7.040   9.404 -1.0125 -0.4315 -0.3170
  932MOL0     C28541   9.002   6.933   9.366  0.1188  0.3953  1.4505
  932MOL0     C28542   9.043   6.855   9.249  0.3280 -0.2480  0.0669
  932MOL0     C28543   9.085   6.813   9.145  0.2794  1.0361  0.2433
  932MOL0     C28544   9.438   7.194   9.256 -0.6721 -0.2161 -0.0639
  932MOL0     C28545   9.569   7.185   9.192  0.5498 -0.8098 -0.1567
  932MOL0     C28546   9.627   7.053   9.202 -0.5698 -0.3252  0.2403
  932MOL0     H28547   9.992   6.995   9.102  0.9043 -0.3507  1.7451
  932MOL0     H28548  10.224   6.975   9.039  0.0021  0.5514 -2.7574
  932MOL0     H28549  10.446   7.374   9.068 -2.5142 -0.9650  0.0435
  932MOL0     H28550  10.440   7.372   8.887 -0.3852  0.4892  0.2107
  932MOL0     H28551  10.651   7.283   9.076 -0.3190 -0.2250 -0.0315
  932MOL0     H28552  10.613   7.175   8.945  0.2989 -0.3544  0.2462
  932MOL0     H28553  10.629   7.361   8.777 -3.0649 -0.9761  0.9336
  932MOL0     H28554  10.708   7.462   8.911  1.7623 -0.2272 -1.2391
  932MOL0     H28555  10.889   7.320   8.930  0.6611 -1.7379  0.0497
  932MOL0     H28556  10.812   7.198   8.819 -1.1341 -0.6286  0.3691
  932MOL0     H28557  10.889   7.482   8.745  1.1314  0.0311 -0.4669
  932MOL0     H28558  10.867   7.330   8.643 -1.2838  1.6861 -0.1583
  932MOL0     H28559  11.111   7.428   8.681 -2.2139  1.1516 -0.6413
  932MOL0     H28560  11.095   7.371   8.843  1.6827 -0.8970 -0.3822
  932MOL0     H28561  11.130   7.214   8.587  1.5711  1.4209 -0.2230
  932MOL0     H28562  11.043   7.134   8.727  0.6678  1.3170  2.0772
  932MOL0     H28563  11.215   7.175   8.871 -2.7820  3.0003 -0.0283
  932MOL0     H28564  11.283   7.092   8.722  2.8474  1.4732 -0.7422
  932MOL0     H28565  11.354   7.395   8.929  1.3749  2.2987  0.3858
  932MOL0     H28566  11.454   7.647   8.828 -0.9565 -1.0079  0.6419
  932MOL0     H28567  11.612   7.628   8.746 -0.5421 -2.4977 -2.1951
  932MOL0     H28568  11.624   7.649   9.000  5.0221 -0.6921  1.8057
  932MOL0     H28569  11.534   7.504   9.018  1.0240 -0.8075  0.8883
  932MOL0     H28570  11.738   7.371   8.960  1.3674  0.2549  3.2960
  932MOL0     H28571  11.799   7.484   8.860  0.0658 -4.5904 -0.5032
  932MOL0     H28572  11.784   7.519   9.161 -1.8080  0.8682 -0.0767
  932MOL0     H28573  11.920   7.454   9.070 -0.1320 -0.4962  0.4474
  932MOL0     H28574  12.044   7.577   9.244 -0.8610 -0.7817 -0.8124
  932MOL0     H28575  12.362   7.551   9.287 -2.2717 -1.7182 -2.1086
  932MOL0     H28576  12.236   7.618   9.394 -0.3476  3.6787  1.7697
  932MOL0     H28577  12.348   7.729   9.345  1.9439 -1.2071 -0.3877
  932MOL0     H28578  12.587   8.109   8.977 -2.7052 -1.3671 -1.3358
  932MOL0     H28579  12.814   8.161   8.930 -0.5574  0.1981 -0.1121
  932MOL0     H28580  13.128   8.109   8.840 -0.6523  1.2863  0.7566
  932MOL0     H28581  13.064   8.023   8.989  3.5698 -0.8768  0.9268
  932MOL0     H28582  13.145   7.841   8.960 -2.4503 -0.6940 -1.9712
  932MOL0     H28583  13.156   7.823   8.786 -0.7203 -1.7559  0.0237
  932MOL0     H28584  13.322   8.000   8.978  2.3596 -1.7708  1.4947
  932MOL0     H28585  13.355   7.995   8.817 -0.9315  0.9959  0.2253
  932MOL0     H28586  13.441   7.772   8.813  0.2352 -0.1942 -0.6572
  932MOL0     H28587  13.379   7.734   8.967  1.6115 -1.7004 -2.5248
  932MOL0     H28588  13.585   7.961   8.924 -1.2787 -0.3724 -0.2303
  932MOL0     H28589  13.505   7.914   9.075 -0.2973 -0.9679  1.2336
  932MOL0     H28590  13.687   7.743   8.875 -1.5507  0.2525 -1.0545
  932MOL0     H28591  13.627   7.671   9.030 -0.3570 -0.6380 -1.0983
  932MOL0     H28592  13.730   7.832   9.170  0.3462 -0.7379  0.6038
  932MOL0     H28593  13.796   7.915   9.033 -0.9889  0.3071 -2.5181
  932MOL0     H28594  13.838   7.618   9.132  0.5982  0.2024 -1.6541
  932MOL0     H28595  13.950   7.742   9.168 -0.4658  0.7426  1.7482
  932MOL0     H28596  12.857   7.750   8.779 -2.3536  0.6283 -1.0451
  932MOL0     H28597  12.632   7.697   8.875 -0.3417 -0.3360  1.0013
  932MOL0     H28598  12.253   7.833   8.878 -1.0670  0.9387  0.8543
  932MOL0     H28599  12.021   7.800   8.873 -4.1345 -1.0447  1.3515
  932MOL0     H28600  10.231   7.411   9.004 -0.6827 -0.3596 -1.6176
  932MOL0     H28601   9.993   7.416   9.060 -0.5152  0.2059 -1.3432
  932MOL0     H28602   9.610   7.496   9.076 -1.0694 -0.8656 -2.7808
  932MOL0     H28603   9.383   7.515   9.148 -0.2026  1.3574  4.5075
  932MOL0     H28604   9.263   7.249   9.441  0.8633  2.6329  0.0254
  932MOL0     H28605   9.117   7.343   9.428 -0.6787  1.2889 -1.2387
  932MOL0     H28606   9.153   7.124   9.209 -2.6433 -0.2535 -1.0648
  932MOL0     H28607   9.009   7.197   9.281  1.2713  1.6944 -0.7280
  932MOL0     H28608   9.201   7.009   9.428 -0.8637 -1.0229 -1.6540
  932MOL0     H28609   9.062   7.079   9.500 -0.9585 -1.9710  0.3666
  932MOL0     H28610   8.906   6.979   9.344  0.6179  1.1230  0.7484
  932MOL0     H28611   8.998   6.854   9.441 -1.6831 -0.0458  0.9301
  932MOL0     H28612   9.113   6.781   9.047 -1.5133 -1.3591  0.4378
  932MOL0     H28613   9.382   7.123   9.316 -1.4251  1.3092  1.1102
  932MOL0     H28614   9.694   7.051   9.289  0.2390 -0.8699 -0.3722
  932MOL0     H28615   9.553   6.974   9.218  0.0518 -1.4397 -2.0648
  932MOL0     H28616   9.687   7.026   9.115 -1.0581  0.2782 -0.2826
  933MOL0     O28617   1.808   8.392   5.271 -0.0457  0.1787 -0.2534
  933MOL0     C28618   1.813   8.325   5.163 -0.0212  0.0555  0.9058
  933MOL0     O28619   1.705   8.263   5.110 -0.2340  0.2843  0.0919
  933MOL0     C28620   1.601   8.245   5.198 -0.1444 -0.0764  0.3649
  933MOL0     C28621   1.492   8.332   5.201 -0.9027  0.1343  0.2457
  933MOL0     C28622   1.380   8.312   5.271  0.6763  0.4384  0.2692
  933MOL0     C28623   1.366   8.196   5.352  0.1722  0.0613 -0.1939
  933MOL0     O28624   1.237   8.181   5.405 -0.2669  0.1419 -0.3071
  933MOL0     C28625   1.216   8.074   5.500  1.2448  0.5101 -0.3518
  933MOL0     C28626   1.069   8.053   5.499 -1.3131 -0.2024 -0.2122
  933MOL0     C28627   1.028   7.929   5.586 -1.6910 -1.0531 -0.2140
  933MOL0     C28628   0.888   7.868   5.559  0.5325 -0.0026  0.7138
  933MOL0     C28629   0.842   7.763   5.667 -1.1224 -1.0705 -0.2506
  933MOL0     C28630   0.718   7.686   5.640  0.5285 -0.9717  0.4696
  933MOL0     C28631   0.695   7.555   5.717 -0.3484 -0.6641  0.4063
  933MOL0     C28632   0.543   7.510   5.712 -0.8666  0.4135  0.2675
  933MOL0     N28633   0.519   7.387   5.785 -0.0786  0.2375  0.3384
  933MOL0     C28634   0.569   7.265   5.763  0.2461 -0.3326  0.0718
  933MOL0     C28635   0.521   7.180   5.856 -0.1887  0.1882 -0.1329
  933MOL0     C28636   0.549   7.024   5.861 -0.2389  0.1533  0.2500
  933MOL0     C28637   0.686   6.995   5.931 -0.2816 -0.1931 -0.7748
  933MOL0     C28638   0.701   7.061   6.069  0.5544  0.7860 -0.2816
  933MOL0     C28639   0.842   7.075   6.115  0.5998 -1.1966 -0.6273
  933MOL0     O28640   0.904   6.953   6.137 -0.0995 -0.2631 -0.2557
  933MOL0     C28641   1.037   6.929   6.114 -0.1458  0.5448 -0.6842
  933MOL0     C28642   1.093   6.794   6.129 -0.1769 -0.1902 -0.1831
  933MOL0     C28643   1.230   6.762   6.100 -0.1856 -0.6157 -0.8006
  933MOL0     C28644   1.264   6.613   6.100 -0.5192  0.3565 -0.3389
  933MOL0     C28645   1.314   6.873   6.071 -0.2217  0.3253 -0.0767
  933MOL0     C28646   1.459   6.845   6.051  0.8579 -0.8418  0.0819
  933MOL0     O28647   1.541   6.949   6.037 -0.5842 -0.6385 -0.3378
  933MOL0     C28648   1.675   6.934   6.005  0.3414  0.2462  0.1886
  933MOL0     C28649   1.713   6.854   5.898  0.0185 -0.7147  0.1247
  933MOL0     C28650   1.849   6.850   5.854  0.1143  0.3712 -0.4477
  933MOL0     C28651   1.948   6.919   5.926 -0.3328  0.3807  0.7508
  933MOL0     O28652   2.082   6.911   5.903 -0.1493 -0.1562  0.9023
  933MOL0     C28653   2.127   6.944   5.773 -0.3396 -0.5550  0.4770
  933MOL0     C28654   2.116   7.093   5.750 -0.2914  0.0884  1.1203
  933MOL0     C28655   2.188   7.175   5.863  0.3516  0.2274 -0.1725
  933MOL0     C28656   2.328   7.205   5.828 -0.1578  0.3909 -0.6921
  933MOL0     C28657   2.389   7.286   5.941 -0.0451  0.1070  0.5371
  933MOL0     C28658   2.522   7.348   5.913 -0.9524 -1.0278  0.2502
  933MOL0     C28659   2.641   7.259   5.897 -0.3979  0.9881  0.5412
  933MOL0     C28660   2.774   7.325   5.904 -0.5587 -0.2902 -0.3079
  933MOL0    Cl28661   2.798   7.395   6.063 -0.0754  0.5275 -0.0063
  933MOL0     C28662   1.909   6.996   6.040  0.1784 -0.1277  0.5407
  933MOL0     C28663   1.774   7.008   6.078 -0.3236 -0.5130 -0.9042
  933MOL0     O28664   1.492   6.727   6.034 -0.5734  0.2843 -0.0103
  933MOL0     C28665   1.266   7.006   6.084  1.0357 -0.3220 -0.0318
  933MOL0     C28666   1.129   7.035   6.101  0.5080 -0.0116 -0.6856
  933MOL0     N28667   0.429   7.255   5.930 -0.2904  0.0890 -0.2347
  933MOL0     N28668   0.425   7.379   5.884  0.5673  0.3358 -0.1583
  933MOL0     C28669   1.475   8.107   5.359  0.4642  0.3100 -0.4865
  933MOL0     C28670   1.592   8.133   5.280 -0.1758  0.1484  1.4162
  933MOL0     C28671   1.937   8.301   5.092  0.2920 -0.1671  0.4350
  933MOL0     C28672   1.930   8.211   4.977 -0.4621  0.1099 -0.3597
  933MOL0     C28673   2.054   8.178   4.908 -0.2605 -0.6586  0.5150
  933MOL0     C28674   2.179   8.233   4.960 -0.2173 -0.5434  0.5165
  933MOL0     O28675   2.300   8.201   4.904  0.2699 -0.1473  0.1599
  933MOL0     C28676   2.312   8.092   4.820 -0.4207  0.3220  1.3097
  933MOL0     C28677   2.456   8.035   4.812 -0.5661 -0.1397  0.8435
  933MOL0     C28678   2.505   7.995   4.943  0.1383  0.4284 -1.2007
  933MOL0     C28679   2.628   7.903   4.936  0.6197 -0.4828  0.1671
  933MOL0     C28680   2.698   7.889   5.062  0.9025  0.0127  0.2422
  933MOL0     C28681   2.754   7.872   5.173 -0.3757 -0.6214  0.7678
  933MOL0     C28682   2.180   8.319   5.062 -0.7325  0.5581  0.4348
  933MOL0     C28683   2.061   8.344   5.131 -0.5887 -0.7505 -0.7974
  933MOL0     C28684   2.077   8.439   5.245 -0.4314  0.1061  0.0850
  933MOL0     H28685   1.487   8.425   5.145 -1.5158 -0.3604 -0.5374
  933MOL0     H28686   1.295   8.379   5.277  0.7671  0.4660  1.6149
  933MOL0     H28687   1.240   8.095   5.605 -3.3622 -2.1959  1.5587
  933MOL0     H28688   1.270   7.985   5.466  1.6451  1.0273 -1.0972
  933MOL0     H28689   1.028   8.142   5.548  1.0161  1.0017 -0.2971
  933MOL0     H28690   1.034   8.025   5.400 -1.9201 -0.2271  0.0065
  933MOL0     H28691   1.102   7.849   5.575  1.3398  1.7501 -1.8357
  933MOL0     H28692   1.036   7.960   5.691 -1.1327 -1.3209 -0.1735
  933MOL0     H28693   0.823   7.955   5.548 -0.5868 -0.3295  3.8951
  933MOL0     H28694   0.908   7.801   5.474  1.5544  0.8607  0.2466
  933MOL0     H28695   0.846   7.816   5.763  3.0116  0.9100 -1.2823
  933MOL0     H28696   0.924   7.692   5.681 -0.2285 -0.1498 -0.6815
  933MOL0     H28697   0.630   7.751   5.648  0.9327 -0.2625 -0.6695
  933MOL0     H28698   0.738   7.659   5.536 -0.1674  1.4060 -0.3343
  933MOL0     H28699   0.738   7.571   5.816  2.6796  1.7490 -1.1362
  933MOL0     H28700   0.757   7.478   5.671  0.4686  0.6504 -0.7379
  933MOL0     H28701   0.475   7.586   5.751 -0.1046  1.9460 -1.3067
  933MOL0     H28702   0.510   7.496   5.609 -0.0929 -0.3930  0.1133
  933MOL0     H28703   0.647   7.244   5.691  2.8080 -1.1593  2.8758
  933MOL0     H28704   0.541   6.974   5.764  0.2919  2.7497 -1.2326
  933MOL0     H28705   0.475   6.983   5.930 -1.4642 -0.4780 -1.3955
  933MOL0     H28706   0.701   6.887   5.941 -1.5526 -0.2400  1.0614
  933MOL0     H28707   0.766   7.030   5.865 -0.6062  4.4459  0.9972
  933MOL0     H28708   0.658   7.160   6.087 -2.9016 -0.7375  0.8228
  933MOL0     H28709   0.647   6.994   6.137  1.2425  1.0807  0.5649
  933MOL0     H28710   0.900   7.144   6.053 -1.1611  1.5500  0.5974
  933MOL0     H28711   0.835   7.134   6.207 -4.5186 -3.1335  0.5479
  933MOL0     H28712   1.025   6.710   6.141  0.6030 -0.8675 -0.4366
  933MOL0     H28713   1.287   6.588   5.996  1.8440 -1.9188  0.6209
  933MOL0     H28714   1.170   6.567   6.133 -1.9102  5.2336  3.8506
  933MOL0     H28715   1.342   6.585   6.172 -0.7632  2.2043  0.7103
  933MOL0     H28716   1.635   6.804   5.842 -0.5932  2.2158 -1.8285
  933MOL0     H28717   1.878   6.794   5.765 -0.8280  2.4848 -2.1785
  933MOL0     H28718   2.231   6.911   5.768  0.0130  0.7035 -1.3892
  933MOL0     H28719   2.076   6.889   5.694  0.7750 -0.4016 -0.3770
  933MOL0     H28720   2.147   7.103   5.645  2.7948 -2.5342  1.6312
  933MOL0     H28721   2.009   7.113   5.737  0.0168  0.5865 -1.0492
  933MOL0     H28722   2.179   7.147   5.968 -3.3279  0.2205 -0.3750
  933MOL0     H28723   2.135   7.270   5.867 -1.5586 -0.8058  0.0396
  933MOL0     H28724   2.334   7.264   5.736  1.2014  1.9058  0.3116
  933MOL0     H28725   2.388   7.116   5.809 -0.7700 -0.1685 -0.0635
  933MOL0     H28726   2.323   7.367   5.973 -1.5122 -0.1331 -1.6227
  933MOL0     H28727   2.403   7.214   6.022  2.0203  0.6559  0.7160
  933MOL0     H28728   2.544   7.417   5.995  1.8673  0.4570 -1.5659
  933MOL0     H28729   2.520   7.407   5.820 -3.6474  0.4367  1.1255
  933MOL0     H28730   2.641   7.202   5.803  2.2152  0.1183  0.9908
  933MOL0     H28731   2.638   7.187   5.980 -3.3949 -0.4525 -0.6581
  933MOL0     H28732   2.785   7.400   5.825 -4.6147  1.3602  0.4580
  933MOL0     H28733   2.856   7.252   5.895  0.7690  0.9469  1.0875
  933MOL0     H28734   1.991   7.042   6.095  0.0776 -0.1528  0.7125
  933MOL0     H28735   1.733   7.056   6.167 -0.0030 -2.5557  0.4136
  933MOL0     H28736   1.337   7.087   6.072  2.1337 -0.8916  2.2323
  933MOL0     H28737   1.086   7.133   6.082 -0.0840 -0.6445 -2.8429
  933MOL0     H28738   1.458   8.026   5.429 -1.0280  0.6576 -0.4172
  933MOL0     H28739   1.671   8.058   5.281  0.3283  0.5425 -1.4138
  933MOL0     H28740   1.834   8.185   4.933  0.7001  1.0170 -3.7308
  933MOL0     H28741   2.049   8.109   4.825  1.8756 -0.1951 -0.0524
  933MOL0     H28742   2.249   8.009   4.854 -3.3273  2.5385  1.8026
  933MOL0     H28743   2.283   8.113   4.716  1.2878 -3.7495 -0.1958
  933MOL0     H28744   2.517   8.113   4.764 -2.9582  0.2883 -1.7763
  933MOL0     H28745   2.449   7.951   4.743  1.2209  1.1369 -1.0317
  933MOL0     H28746   2.524   8.085   5.002 -0.0291 -0.3708  0.0932
  933MOL0     H28747   2.423   7.945   4.994  0.1037  1.2596 -0.4232
  933MOL0     H28748   2.696   7.919   4.851  1.3997 -4.3841 -0.1185
  933MOL0     H28749   2.588   7.805   4.911 -1.2334  0.6768 -1.7480
  933MOL0     H28750   2.787   7.851   5.272  0.5413  0.5375  0.7340
  933MOL0     H28751   2.280   8.357   5.083  1.0110 -1.9334 -2.5062
  933MOL0     H28752   1.999   8.515   5.234  0.3644  0.9147 -0.1070
  933MOL0     H28753   2.076   8.383   5.339 -0.6443 -0.6692 -0.3681
  933MOL0     H28754   2.174   8.489   5.252  0.2667 -1.2010  0.1053
  934MOL0     O28755   3.250   5.011   3.447 -0.1649  0.9382 -0.9388
  934MOL0     C28756   3.199   5.115   3.471 -0.8383 -0.3269 -0.3161
  934MOL0     O28757   3.269   5.231   3.507  0.0272  0.4079 -0.1941
  934MOL0     C28758   3.390   5.207   3.563 -0.3226 -0.3275  0.3252
  934MOL0     C28759   3.412   5.152   3.686  0.8059 -0.5327  0.2861
  934MOL0     C28760   3.544   5.139   3.738  0.4487 -0.9463 -0.0510
  934MOL0     C28761   3.657   5.196   3.672  0.7113  0.4823 -0.0850
  934MOL0     O28762   3.789   5.194   3.718  0.4464 -0.0155 -0.2186
  934MOL0     C28763   3.817   5.170   3.863 -0.3484  0.5815  0.3809
  934MOL0     C28764   3.968   5.185   3.896 -0.6960  0.4450 -0.6590
  934MOL0     C28765   4.007   5.337   3.902 -0.4947  0.0111 -0.0064
  934MOL0     C28766   4.142   5.365   3.968  0.0302 -0.1932  0.3115
  934MOL0     C28767   4.149   5.323   4.120  0.2445  0.5275  0.0542
  934MOL0     C28768   4.272   5.382   4.196  0.7608  0.9378  0.6598
  934MOL0     C28769   4.274   5.343   4.341 -0.2379 -0.4406 -0.0979
  934MOL0     C28770   4.402   5.391   4.403  0.1813  0.0709 -0.3207
  934MOL0     N28771   4.390   5.525   4.463  0.1237  0.4879 -0.4700
  934MOL0     C28772   4.450   5.643   4.425 -1.2630  0.7929 -0.0858
  934MOL0     C28773   4.417   5.734   4.522  0.5939 -1.2993  0.4577
  934MOL0     C28774   4.455   5.876   4.521 -0.3519 -0.3954  0.0502
  934MOL0     C28775   4.384   5.941   4.409 -1.1081 -0.0032  0.1187
  934MOL0     C28776   4.405   6.087   4.407 -0.0572 -0.8078  0.4676
  934MOL0     C28777   4.560   6.121   4.390  0.3471  0.6625  0.0236
  934MOL0     O28778   4.576   6.242   4.326  0.3512 -0.9671 -0.0330
  934MOL0     C28779   4.709   6.275   4.285  0.0116  0.4453 -0.6788
  934MOL0     C28780   4.719   6.379   4.200  0.4699 -0.1817 -0.1382
  934MOL0     C28781   4.848   6.427   4.157 -1.0644 -0.2624 -0.0735
  934MOL0     C28782   4.847   6.543   4.057 -0.7104 -0.4438  0.2368
  934MOL0     C28783   4.968   6.377   4.213  0.4896 -1.0883 -0.2742
  934MOL0     C28784   5.096   6.442   4.177  0.7840 -0.2359  0.6893
  934MOL0     O28785   5.113   6.570   4.195  1.0536  0.3367  0.3841
  934MOL0     C28786   5.240   6.627   4.197 -0.2888 -0.1389 -0.5536
  934MOL0     C28787   5.301   6.609   4.316  0.3330  0.5747 -0.2249
  934MOL0     C28788   5.419   6.679   4.354 -0.2854 -0.1828 -0.0559
  934MOL0     C28789   5.474   6.758   4.253  0.2059  0.6222 -0.6689
  934MOL0     O28790   5.597   6.816   4.273  0.0788 -0.1474  0.0387
  934MOL0     C28791   5.610   6.955   4.246 -0.3027  0.1786  0.1457
  934MOL0     C28792   5.760   6.972   4.219  0.2712 -0.4526 -0.1636
  934MOL0     C28793   5.855   6.898   4.306  0.0334 -0.0485 -0.8327
  934MOL0     C28794   5.999   6.896   4.257 -0.1170  0.5694  0.8424
  934MOL0     C28795   6.095   6.840   4.361 -0.3207 -0.6632  0.9723
  934MOL0     C28796   6.080   6.693   4.395  1.0443  0.3039  0.6091
  934MOL0     C28797   6.200   6.650   4.483  0.0044  0.2638 -0.0049
  934MOL0     C28798   6.159   6.536   4.572  0.3505  0.6272 -0.2160
  934MOL0    Cl28799   6.103   6.393   4.480 -0.0274  0.2853 -0.5268
  934MOL0     C28800   5.410   6.770   4.128 -0.0406  0.6123  1.1536
  934MOL0     C28801   5.281   6.718   4.107 -0.8534  0.5274  0.1394
  934MOL0     O28802   5.184   6.361   4.150 -0.4335 -0.1204 -0.2503
  934MOL0     C28803   4.955   6.266   4.296 -0.5258 -0.1778 -0.5071
  934MOL0     C28804   4.831   6.224   4.347 -0.1106 -1.3769  0.2940
  934MOL0     N28805   4.332   5.673   4.611 -0.4142  0.1592 -0.2002
  934MOL0     N28806   4.314   5.547   4.577 -0.5463 -0.0408  0.5465
  934MOL0     C28807   3.632   5.236   3.534 -0.3060  0.0978  0.1935
  934MOL0     C28808   3.505   5.243   3.484 -0.1740  0.0860 -0.1026
  934MOL0     C28809   3.054   5.140   3.425  0.2809 -0.0891 -0.9504
  934MOL0     C28810   3.035   5.216   3.310  0.3281  0.0870  0.5143
  934MOL0     C28811   2.901   5.242   3.273 -0.0963  0.8630  0.9294
  934MOL0     C28812   2.788   5.191   3.343  0.1112  0.2709  0.3455
  934MOL0     O28813   2.661   5.207   3.305 -0.4403 -0.1676  0.0872
  934MOL0     C28814   2.626   5.318   3.216  0.2151 -0.0074  0.1881
  934MOL0     C28815   2.486   5.356   3.238 -0.4200 -0.3724 -0.7563
  934MOL0     C28816   2.455   5.491   3.182 -0.2101 -0.2516  0.2569
  934MOL0     C28817   2.376   5.468   3.055 -0.1483  0.2692 -0.2139
  934MOL0     C28818   2.355   5.601   2.982  0.3168  1.7906  0.5731
  934MOL0     C28819   2.337   5.706   2.924 -0.0614 -0.2007 -0.2819
  934MOL0     C28820   2.810   5.107   3.454 -0.6181 -0.3788 -0.5752
  934MOL0     C28821   2.944   5.092   3.497  0.9093 -0.0667  0.1085
  934MOL0     C28822   2.956   5.009   3.616  0.2984  0.3635 -0.1485
  934MOL0     H28823   3.319   5.134   3.741 -0.5602  1.9638 -1.0422
  934MOL0     H28824   3.556   5.091   3.834 -2.6434 -1.5773  0.1144
  934MOL0     H28825   3.774   5.071   3.880 -0.1380 -0.0786 -2.4386
  934MOL0     H28826   3.757   5.247   3.913  0.2211  1.5246 -0.3567
  934MOL0     H28827   3.978   5.149   3.999 -0.0386 -0.9147 -1.1764
  934MOL0     H28828   4.034   5.126   3.832 -0.0947  0.6693 -0.2557
  934MOL0     H28829   4.011   5.381   3.802 -3.1450  4.0198  1.4067
  934MOL0     H28830   3.937   5.394   3.963 -0.1256 -2.2898  2.7982
  934MOL0     H28831   4.225   5.315   3.917  1.5784  1.3324  1.2345
  934MOL0     H28832   4.155   5.473   3.956 -3.2768  0.5422  2.0923
  934MOL0     H28833   4.153   5.214   4.128  2.8020  0.5302 -0.2986
  934MOL0     H28834   4.060   5.357   4.174  0.6707  0.3083  0.9244
  934MOL0     H28835   4.363   5.336   4.157  0.8075 -0.4451  2.2874
  934MOL0     H28836   4.272   5.490   4.175  0.9806  0.6472 -1.0019
  934MOL0     H28837   4.255   5.236   4.355 -1.7543 -0.6380 -3.0076
  934MOL0     H28838   4.189   5.387   4.394  2.3781  3.9182  0.9677
  934MOL0     H28839   4.429   5.324   4.485  2.0036  2.6767  1.3793
  934MOL0     H28840   4.497   5.393   4.350  0.7681  2.4054  0.6459
  934MOL0     H28841   4.503   5.655   4.332  0.5260 -0.7955  0.6619
  934MOL0     H28842   4.563   5.884   4.506 -0.1773 -2.8588 -0.4487
  934MOL0     H28843   4.430   5.914   4.620  2.4244 -2.4317  1.6566
  934MOL0     H28844   4.424   5.903   4.314 -0.0933 -0.4610  0.7115
  934MOL0     H28845   4.276   5.928   4.422 -1.2504 -0.4307 -1.2972
  934MOL0     H28846   4.354   6.139   4.326  0.5631  0.4828  0.8755
  934MOL0     H28847   4.365   6.134   4.498  3.0028  1.2678  0.9065
  934MOL0     H28848   4.599   6.131   4.492 -1.6892 -2.4530  1.3075
  934MOL0     H28849   4.608   6.041   4.333 -0.1028 -1.7004  2.7083
  934MOL0     H28850   4.631   6.428   4.159 -0.2616 -1.1450  0.2658
  934MOL0     H28851   4.912   6.512   3.976  0.5573  1.7184  0.3486
  934MOL0     H28852   4.886   6.637   4.098 -0.5841 -0.4459  0.1171
  934MOL0     H28853   4.746   6.567   4.021 -0.1402  0.3482 -0.8584
  934MOL0     H28854   5.264   6.555   4.403  0.9653  3.5399  2.0565
  934MOL0     H28855   5.473   6.666   4.447 -0.5772  0.5489  0.2227
  934MOL0     H28856   5.554   6.993   4.160 -0.5944  1.0448  0.7039
  934MOL0     H28857   5.582   7.016   4.332 -0.6861  1.5133 -0.8776
  934MOL0     H28858   5.769   6.933   4.117  0.5579  3.2798 -1.7482
  934MOL0     H28859   5.788   7.077   4.210  2.7592 -0.8398  1.9124
  934MOL0     H28860   5.822   6.800   4.342  0.7697 -0.3852 -1.0391
  934MOL0     H28861   5.865   6.962   4.394 -0.8402 -0.1856 -0.6335
  934MOL0     H28862   6.036   6.993   4.223  0.8698 -0.3722 -0.9110
  934MOL0     H28863   5.988   6.832   4.169 -0.8093 -0.6441  1.7790
  934MOL0     H28864   6.196   6.868   4.330 -1.2811  3.7454  1.2737
  934MOL0     H28865   6.080   6.888   4.458 -0.3237 -0.4718  0.8760
  934MOL0     H28866   6.082   6.634   4.303  1.6608  1.8045 -0.3827
  934MOL0     H28867   5.986   6.686   4.450  0.4886  1.3661 -0.1852
  934MOL0     H28868   6.236   6.740   4.535  1.7401 -0.3515 -0.0757
  934MOL0     H28869   6.285   6.620   4.421  0.6147  1.7758  0.0565
  934MOL0     H28870   6.076   6.563   4.638  0.0100  1.7514 -1.0821
  934MOL0     H28871   6.237   6.503   4.642 -1.6978 -0.7380  1.5485
  934MOL0     H28872   5.462   6.822   4.049 -0.3071 -1.6107 -0.5707
  934MOL0     H28873   5.224   6.737   4.016 -0.9230  1.8936  0.4415
  934MOL0     H28874   5.041   6.222   4.345 -0.3945  1.4167  0.7743
  934MOL0     H28875   4.814   6.152   4.425 -0.8379 -1.0794  0.4216
  934MOL0     H28876   3.707   5.285   3.473 -1.4911  0.2414 -1.1907
  934MOL0     H28877   3.480   5.277   3.384 -1.8791  1.9599  0.9030
  934MOL0     H28878   3.121   5.244   3.249  1.7521 -0.3626  2.2419
  934MOL0     H28879   2.890   5.294   3.179  1.3146  0.2049  0.3665
  934MOL0     H28880   2.682   5.411   3.233 -1.4803  1.9632 -3.8173
  934MOL0     H28881   2.652   5.299   3.111  0.3184 -0.8344  0.3577
  934MOL0     H28882   2.467   5.370   3.345 -3.4183 -3.3702 -0.7326
  934MOL0     H28883   2.417   5.279   3.200 -2.0437  1.7241 -2.3306
  934MOL0     H28884   2.407   5.560   3.252  0.2956  1.7689 -1.2766
  934MOL0     H28885   2.550   5.538   3.154 -1.1505 -0.2367 -3.4017
  934MOL0     H28886   2.282   5.414   3.068  0.6002 -2.3243 -4.0533
  934MOL0     H28887   2.436   5.413   2.983  1.5152  4.3891 -2.3158
  934MOL0     H28888   2.313   5.797   2.874  3.4784  0.5864 -0.8182
  934MOL0     H28889   2.725   5.052   3.495 -1.4787  0.9260 -0.5593
  934MOL0     H28890   3.047   4.947   3.617 -0.2382 -0.4860 -1.2569
  934MOL0     H28891   2.954   5.064   3.710 -0.2439  0.7950 -0.4076
  934MOL0     H28892   2.869   4.944   3.632 -0.2430  0.7409 -1.4390
  935MOL0     O28893   4.189   1.157   9.677 -0.2793  0.3616 -0.7075
  935MOL0     C28894   4.261   1.166   9.577  1.0186  0.2773 -0.4376
  935MOL0     O28895   4.232   1.251   9.472  0.3230  0.7097 -0.7817
  935MOL0     C28896   4.137   1.340   9.490 -0.1204  0.4182  0.2836
  935MOL0     C28897   4.166   1.467   9.552 -0.3721 -0.1990 -0.4437
  935MOL0     C28898   4.060   1.568   9.561  0.0051  0.2926 -0.0660
  935MOL0     C28899   3.934   1.554   9.507 -0.4828  0.6233  0.5292
  935MOL0     O28900   3.836   1.654   9.514 -0.5922  0.7894  0.2828
  935MOL0     C28901   3.773   1.672   9.639  0.4358  0.4074  0.1090
  935MOL0     C28902   3.627   1.631   9.620  1.0975 -0.5108  0.0486
  935MOL0     C28903   3.541   1.638   9.738 -0.2886 -0.2303 -0.2176
  935MOL0     C28904   3.399   1.581   9.711  0.2663 -0.6700 -0.0971
  935MOL0     C28905   3.327   1.603   9.840 -0.0903  0.4178  0.1453
  935MOL0     C28906   3.197   1.527   9.841 -0.6972  0.6918 -0.1989
  935MOL0     C28907   3.126   1.529   9.986  0.2208 -0.1809  0.3364
  935MOL0     C28908   3.026   1.663  10.000 -0.8514  0.0846 -0.0340
  935MOL0     N28909   3.115   1.791   9.990  0.4874 -0.0593 -0.3795
  935MOL0     C28910   3.188   1.832  10.091 -0.2459  0.5589 -0.3432
  935MOL0     C28911   3.210   1.964  10.068  0.4891  0.4908  0.5580
  935MOL0     C28912   3.278   2.056  10.169 -0.6098  0.0717  0.0355
  935MOL0     C28913   3.402   2.099  10.103 -1.1732 -0.3391 -0.1785
  935MOL0     C28914   3.504   1.976  10.070 -0.2972  0.1656 -0.2019
  935MOL0     C28915   3.647   2.020  10.034  0.3090 -0.4882 -0.4603
  935MOL0     O28916   3.727   1.911   9.998 -0.1812  0.6122  0.8214
  935MOL0     C28917   3.849   1.938   9.947  0.6798 -0.4465  0.0063
  935MOL0     C28918   3.945   1.832   9.933  0.5228  0.0458 -0.0271
  935MOL0     C28919   4.073   1.849   9.889  0.1346  0.4555  0.0940
  935MOL0     C28920   4.160   1.725   9.906 -0.3644 -0.4408  0.0356
  935MOL0     C28921   4.115   1.976   9.848 -0.2465 -0.6886  0.2518
  935MOL0     C28922   4.258   2.018   9.823  0.6025 -0.1128 -0.4584
  935MOL0     O28923   4.284   2.129   9.745 -0.1794 -0.5314 -0.0095
  935MOL0     C28924   4.412   2.166   9.717  0.0633  0.3964 -0.5883
  935MOL0     C28925   4.452   2.159   9.577 -0.2007 -0.1700 -0.5182
  935MOL0     C28926   4.590   2.185   9.552 -0.3076  0.0821  0.1388
  935MOL0     C28927   4.682   2.220   9.649  0.7031  0.9168  0.1674
  935MOL0     O28928   4.812   2.229   9.600 -0.3113 -0.3971 -0.3211
  935MOL0     C28929   4.914   2.262   9.696 -0.3597  0.4423 -0.4304
  935MOL0     C28930   4.993   2.135   9.724  1.1244  0.0889 -0.0638
  935MOL0     C28931   5.122   2.164   9.798 -0.8432  0.3089 -0.2230
  935MOL0     C28932   5.233   2.223   9.707  0.4166  0.0396  0.9543
  935MOL0     C28933   5.369   2.241   9.779  0.2411  0.9808  0.3196
  935MOL0     C28934   5.470   2.269   9.672  0.4856  0.2351  0.2577
  935MOL0     C28935   5.594   2.350   9.724 -0.2333  0.5307  0.2854
  935MOL0     C28936   5.693   2.368   9.608  0.4532  0.8193 -0.3820
  935MOL0    Cl28937   5.836   2.459   9.665 -0.0264 -0.0635 -0.1019
  935MOL0     C28938   4.640   2.204   9.786 -0.3771 -0.2139 -0.1556
  935MOL0     C28939   4.506   2.188   9.820 -0.0851 -0.2134  0.1507
  935MOL0     O28940   4.346   1.957   9.882  0.0626  0.2681 -0.6389
  935MOL0     C28941   4.016   2.072   9.826  0.2849 -1.0657  0.3562
  935MOL0     C28942   3.893   2.055   9.882  0.7422 -0.0728 -0.1446
  935MOL0     N28943   3.155   1.997   9.942  1.1658  0.3539 -0.0905
  935MOL0     N28944   3.112   1.887   9.892 -0.5958 -0.9278 -0.4805
  935MOL0     C28945   3.911   1.427   9.440 -0.6452 -0.1717 -0.8007
  935MOL0     C28946   4.007   1.322   9.436  0.2385  0.3300  0.0599
  935MOL0     C28947   4.379   1.075   9.567 -0.3341  0.4734  0.1311
  935MOL0     C28948   4.475   1.124   9.476 -0.4478  0.8088  0.1016
  935MOL0     C28949   4.598   1.068   9.470  0.3069 -0.0157  0.9797
  935MOL0     C28950   4.632   0.963   9.545  0.1983 -0.9753  0.0200
  935MOL0     O28951   4.751   0.900   9.519  0.2712  0.0542 -0.0463
  935MOL0     C28952   4.859   0.959   9.452 -0.3633 -0.1551  0.8552
  935MOL0     C28953   4.930   1.059   9.540  0.7543 -0.1460  0.2325
  935MOL0     C28954   4.985   0.996   9.662 -0.8919  0.2133 -0.1208
  935MOL0     C28955   5.040   1.081   9.772 -0.3609 -0.8234 -0.4825
  935MOL0     C28956   5.161   1.151   9.727 -0.2939  0.4094 -0.0456
  935MOL0     C28957   5.262   1.215   9.697 -0.0334 -0.1617  0.5214
  935MOL0     C28958   4.542   0.910   9.632 -0.3703  0.2148 -0.1760
  935MOL0     C28959   4.408   0.959   9.641  0.1126  0.0356 -0.0694
  935MOL0     C28960   4.316   0.893   9.730  0.4009  1.4400 -0.4754
  935MOL0     H28961   4.256   1.476   9.611 -1.7002 -1.7655  1.9940
  935MOL0     H28962   4.103   1.662   9.595  0.1642  2.1459 -4.6020
  935MOL0     H28963   3.779   1.775   9.675  2.5887 -0.0226  1.1308
  935MOL0     H28964   3.825   1.603   9.705 -1.6927 -0.7162  0.7194
  935MOL0     H28965   3.583   1.700   9.547  1.9456  1.0991  0.9943
  935MOL0     H28966   3.632   1.526   9.591  1.2218 -0.8030  1.0914
  935MOL0     H28967   3.583   1.578   9.819 -0.4922 -0.2031 -0.0924
  935MOL0     H28968   3.532   1.740   9.777  0.0523 -0.0734 -0.5417
  935MOL0     H28969   3.352   1.630   9.625 -0.9182 -0.7768  0.4743
  935MOL0     H28970   3.396   1.477   9.679 -0.6877 -0.6701 -0.0347
  935MOL0     H28971   3.320   1.709   9.863  2.5040  1.0804 -1.6987
  935MOL0     H28972   3.395   1.563   9.917  4.1942  1.2833 -2.8279
  935MOL0     H28973   3.126   1.541   9.759 -1.3819  0.3818  0.3273
  935MOL0     H28974   3.233   1.425   9.819 -0.4796  1.0948 -1.8181
  935MOL0     H28975   3.196   1.517  10.070 -0.4124  3.5454  1.6151
  935MOL0     H28976   3.054   1.448   9.995 -0.5186 -0.2871 -4.3764
  935MOL0     H28977   2.945   1.649   9.928 -2.2400 -1.1878  1.6543
  935MOL0     H28978   2.981   1.647  10.099  0.0102 -0.9800  0.2181
  935MOL0     H28979   3.219   1.781  10.181  1.5477  1.5039 -0.3717
  935MOL0     H28980   3.295   1.992  10.256 -0.9618 -0.5471 -0.3384
  935MOL0     H28981   3.204   2.129  10.203 -1.5742 -1.2506  0.8736
  935MOL0     H28982   3.365   2.158  10.018 -2.0752  3.3310  2.5406
  935MOL0     H28983   3.452   2.178  10.159 -1.1869 -0.4634  0.0112
  935MOL0     H28984   3.491   1.891  10.136 -3.6364 -1.0825 -2.2194
  935MOL0     H28985   3.476   1.938   9.971  0.3045  1.4677 -0.9073
  935MOL0     H28986   3.647   2.106   9.967  1.9467  2.3496  2.8316
  935MOL0     H28987   3.689   2.059  10.128 -2.1950 -1.4084  1.1649
  935MOL0     H28988   3.915   1.738   9.978  0.8877  0.7744  1.8223
  935MOL0     H28989   4.239   1.723   9.830 -0.1868  3.3505 -0.0397
  935MOL0     H28990   4.098   1.635   9.905 -0.1776 -0.6044  1.6057
  935MOL0     H28991   4.213   1.730  10.002 -1.6657  1.1863  0.6975
  935MOL0     H28992   4.375   2.144   9.501  1.0113 -0.4728 -1.7260
  935MOL0     H28993   4.624   2.179   9.449 -0.2576  4.5541 -0.2740
  935MOL0     H28994   4.971   2.342   9.646 -1.2387  0.8828 -0.7482
  935MOL0     H28995   4.867   2.315   9.779 -4.6049  1.3634 -3.1206
  935MOL0     H28996   4.942   2.057   9.781 -0.3500 -0.5949 -2.1888
  935MOL0     H28997   5.002   2.075   9.632  0.7866 -3.2010  1.8864
  935MOL0     H28998   5.153   2.067   9.838 -2.4733 -0.1899 -0.0660
  935MOL0     H28999   5.104   2.233   9.882 -0.1843  1.0902 -0.7127
  935MOL0     H29000   5.207   2.321   9.664  2.8196  0.0897 -0.5641
  935MOL0     H29001   5.249   2.154   9.624 -0.5587  2.0769 -1.0579
  935MOL0     H29002   5.355   2.320   9.854 -0.2527  1.7686 -0.5815
  935MOL0     H29003   5.412   2.157   9.834  1.0120  1.8259  1.0344
  935MOL0     H29004   5.426   2.319   9.585  1.1352  1.4405  0.5951
  935MOL0     H29005   5.495   2.171   9.631 -1.0715  0.2575 -0.8475
  935MOL0     H29006   5.650   2.302   9.804 -1.0703  1.8719  1.7293
  935MOL0     H29007   5.561   2.443   9.771  0.4317  0.3351  1.1567
  935MOL0     H29008   5.631   2.421   9.535  0.9874  0.7673 -0.8842
  935MOL0     H29009   5.723   2.275   9.559  0.8843  0.9362 -0.3422
  935MOL0     H29010   4.699   2.221   9.876 -1.3392  2.6227  0.0428
  935MOL0     H29011   4.480   2.193   9.926  0.6871 -2.9835  0.5419
  935MOL0     H29012   4.037   2.166   9.777 -1.1211 -1.3445 -0.8651
  935MOL0     H29013   3.832   2.145   9.874 -2.0276 -1.8898 -0.8636
  935MOL0     H29014   3.812   1.398   9.406 -0.7078 -0.3000 -0.5071
  935MOL0     H29015   3.977   1.231   9.386 -1.5835  0.3387  1.0480
  935MOL0     H29016   4.462   1.217   9.422 -1.6019 -0.1095 -1.2596
  935MOL0     H29017   4.664   1.107   9.393 -0.2482 -0.6094  0.1817
  935MOL0     H29018   4.919   0.879   9.407 -0.3222  0.3338  0.0000
  935MOL0     H29019   4.826   0.999   9.355 -1.3341 -0.7800  0.9251
  935MOL0     H29020   4.855   1.135   9.565 -0.0871 -0.9055  0.0967
  935MOL0     H29021   4.998   1.118   9.478 -1.8016  2.6214 -0.1759
  935MOL0     H29022   4.904   0.941   9.711 -1.1433 -0.7111 -1.5158
  935MOL0     H29023   5.067   0.925   9.647  1.5278  2.5993  1.0214
  935MOL0     H29024   5.059   1.018   9.859 -1.3439 -0.4657  0.0153
  935MOL0     H29025   4.960   1.154   9.787  0.2235 -0.1206 -0.7358
  935MOL0     H29026   5.338   1.280   9.660 -1.5392  0.4623 -1.6897
  935MOL0     H29027   4.563   0.825   9.696 -1.4370 -0.7185 -1.0131
  935MOL0     H29028   4.338   0.924   9.832 -1.7611  0.7796  0.2654
  935MOL0     H29029   4.210   0.914   9.711 -0.8127 -0.8350  2.7807
  935MOL0     H29030   4.332   0.785   9.716 -0.7379  1.0861  0.7029
  936MOL0     O29031   1.715   8.486   4.681 -0.1778  0.0545 -0.5460
  936MOL0     C29032   1.811   8.565   4.707  0.7136 -0.6623 -0.5801
  936MOL0     O29033   1.792   8.697   4.746 -0.8386 -0.3000 -0.2926
  936MOL0     C29034   1.669   8.740   4.790  0.1869 -0.3464 -0.7061
  936MOL0     C29035   1.586   8.662   4.880  0.4451 -1.0066  0.7270
  936MOL0     C29036   1.473   8.721   4.943  0.0657  0.3139 -0.0574
  936MOL0     C29037   1.440   8.859   4.921  0.6438 -0.2236  0.6887
  936MOL0     O29038   1.328   8.905   4.980  0.3248 -0.1611  0.0509
  936MOL0     C29039   1.326   9.051   4.980  0.5393  0.4211 -0.3091
  936MOL0     C29040   1.224   9.089   5.096  0.6510  0.0965 -0.1091
  936MOL0     C29041   1.234   9.229   5.132  0.1654 -0.3655 -0.2745
  936MOL0     C29042   1.353   9.279   5.207 -0.4119 -0.1028 -0.5063
  936MOL0     C29043   1.337   9.418   5.279 -0.4719  0.0829 -0.3348
  936MOL0     C29044   1.457   9.437   5.374  0.5006  0.3703 -0.6970
  936MOL0     C29045   1.465   9.588   5.423  0.0699 -0.5431  0.1593
  936MOL0     C29046   1.336   9.632   5.502  0.3459  0.6955 -0.2414
  936MOL0     N29047   1.369   9.728   5.603  0.4095 -0.6015 -0.0819
  936MOL0     C29048   1.458   9.703   5.699 -0.5361 -0.4638 -0.7931
  936MOL0     C29049   1.470   9.815   5.766  0.2898 -0.1191  0.0911
  936MOL0     C29050   1.556   9.814   5.887 -0.1348  0.4465 -0.8803
  936MOL0     C29051   1.694   9.837   5.855 -0.5706 -0.1425 -1.0070
  936MOL0     C29052   1.768   9.872   5.987 -0.1204  0.0685  0.4036
  936MOL0     C29053   1.917   9.890   5.967 -0.2315 -0.0739  0.1952
  936MOL0     O29054   1.983   9.759   5.954  0.3767 -0.3303  0.0109
  936MOL0     C29055   2.111   9.767   5.903  0.5049  0.3187 -0.1182
  936MOL0     C29056   2.193   9.878   5.899  0.4784  0.4041 -0.8238
  936MOL0     C29057   2.318   9.874   5.837 -0.0663 -0.1122  0.1949
  936MOL0     C29058   2.403  10.008   5.840 -0.1230 -0.1001  1.3055
  936MOL0     C29059   2.372   9.754   5.784 -0.0239  1.0022  0.1159
  936MOL0     C29060   2.505   9.740   5.715  1.0302 -0.3017  0.0975
  936MOL0     O29061   2.603   9.844   5.736  0.1313 -0.0990 -0.3776
  936MOL0     C29062   2.738   9.832   5.702 -0.0690 -0.0846 -1.4917
  936MOL0     C29063   2.812   9.714   5.682 -0.2646 -0.1243  0.1239
  936MOL0     C29064   2.952   9.719   5.647  0.2150 -0.3288 -0.2342
  936MOL0     C29065   3.010   9.845   5.614 -0.0824 -0.1613  0.6990
  936MOL0     O29066   3.138   9.850   5.554  0.2938 -0.5220 -0.4805
  936MOL0     C29067   3.168   9.960   5.477  0.3203  0.9543  0.0926
  936MOL0     C29068   3.309   9.945   5.417  0.6900  0.1002 -0.5178
  936MOL0     C29069   3.405   9.944   5.533 -0.7375  0.7422 -0.1950
  936MOL0     C29070   3.541   9.976   5.477  0.7077 -0.4075  0.2222
  936MOL0     C29071   3.640  10.022   5.588 -0.0286 -0.5721  0.7779
  936MOL0     C29072   3.788  10.037   5.537  1.1576  0.5568  0.7442
  936MOL0     C29073   3.833   9.892   5.512  0.1295  0.4490 -0.4137
  936MOL0     C29074   3.933   9.887   5.397 -0.2634 -0.0284 -0.4841
  936MOL0    Cl29075   4.051  10.013   5.433  0.0525 -0.1881 -0.5830
  936MOL0     C29076   2.934   9.964   5.633  0.5025 -0.1708 -0.4109
  936MOL0     C29077   2.799   9.956   5.689 -0.3651  0.1992 -0.3334
  936MOL0     O29078   2.522   9.633   5.657  0.1168  0.0376  0.1914
  936MOL0     C29079   2.290   9.636   5.794  0.0007  0.6259  0.8836
  936MOL0     C29080   2.157   9.644   5.844  0.2504 -0.2063 -0.8648
  936MOL0     N29081   1.395   9.917   5.713 -0.2567  0.1298  1.0495
  936MOL0     N29082   1.331   9.861   5.614 -0.1540 -0.9386  0.3019
  936MOL0     C29083   1.529   8.936   4.838  0.1645 -0.2658 -0.8198
  936MOL0     C29084   1.644   8.880   4.779 -0.4614  0.1844  0.6091
  936MOL0     C29085   1.953   8.532   4.699 -0.4039  0.8441 -0.5322
  936MOL0     C29086   2.045   8.597   4.780 -0.6932 -0.3869  0.2068
  936MOL0     C29087   2.179   8.565   4.777  0.4883  0.5371 -0.2109
  936MOL0     C29088   2.236   8.478   4.680 -0.6836  0.1804  0.9668
  936MOL0     O29089   2.373   8.479   4.669  0.2149  0.3812 -0.1422
  936MOL0     C29090   2.431   8.358   4.618 -0.5598  0.7076  0.4926
  936MOL0     C29091   2.495   8.374   4.479  0.0383 -0.8278 -0.1442
  936MOL0     C29092   2.597   8.261   4.454 -0.2761  0.4577  0.3155
  936MOL0     C29093   2.659   8.273   4.321  0.2262 -1.1672  0.0391
  936MOL0     C29094   2.563   8.232   4.211 -0.2239 -0.0244 -0.0818
  936MOL0     C29095   2.473   8.208   4.140  0.0952 -0.0853 -0.4821
  936MOL0     C29096   2.145   8.412   4.590 -0.4073 -0.5031 -0.7432
  936MOL0     C29097   2.006   8.442   4.597  0.1715 -0.3746 -0.0594
  936MOL0     C29098   1.915   8.362   4.514 -0.0669 -0.0489  0.2843
  936MOL0     H29099   1.622   8.564   4.907 -0.4264 -1.1538  1.3854
  936MOL0     H29100   1.415   8.671   5.020  1.9365 -3.0151 -0.6143
  936MOL0     H29101   1.292   9.079   4.880  0.9631 -0.7375 -0.7977
  936MOL0     H29102   1.424   9.090   5.008  1.2154 -0.7780 -0.9334
  936MOL0     H29103   1.123   9.068   5.059  0.7033 -2.8019  1.1045
  936MOL0     H29104   1.238   9.039   5.193 -1.0774  0.1001  0.1853
  936MOL0     H29105   1.231   9.290   5.041 -1.5560  1.6087  1.0023
  936MOL0     H29106   1.145   9.265   5.185 -1.0735 -1.2532 -1.6645
  936MOL0     H29107   1.372   9.207   5.287  1.0389  1.8646  1.0387
  936MOL0     H29108   1.443   9.278   5.145 -2.0933 -2.6774 -3.1745
  936MOL0     H29109   1.243   9.431   5.332  0.5516  2.6239  1.0341
  936MOL0     H29110   1.351   9.496   5.204  2.2818  0.1585  0.1490
  936MOL0     H29111   1.450   9.367   5.457  1.3704  0.7329 -0.2970
  936MOL0     H29112   1.552   9.407   5.328  1.0658  0.7159  0.2145
  936MOL0     H29113   1.471   9.659   5.340 -3.2785 -1.3944 -0.9796
  936MOL0     H29114   1.555   9.590   5.485 -1.1118  1.4153  1.9706
  936MOL0     H29115   1.264   9.670   5.429 -0.2611 -0.0414 -0.0342
  936MOL0     H29116   1.288   9.554   5.561  2.5432  1.1092  2.2883
  936MOL0     H29117   1.484   9.601   5.727 -1.3629 -0.8653 -1.4307
  936MOL0     H29118   1.547   9.721   5.945  2.0592  1.0862  0.6182
  936MOL0     H29119   1.514   9.892   5.950 -0.4995 -0.7045  0.3510
  936MOL0     H29120   1.738   9.745   5.816  1.1452  0.4928 -0.6612
  936MOL0     H29121   1.705   9.912   5.775 -1.9351 -1.1367 -2.1650
  936MOL0     H29122   1.717   9.963   6.021 -1.5100 -0.8165  0.7938
  936MOL0     H29123   1.753   9.799   6.067 -1.8332  0.4591  0.4797
  936MOL0     H29124   1.935   9.945   5.874  1.6709 -0.3619  0.3492
  936MOL0     H29125   1.966   9.945   6.048  0.6520  0.9815 -1.0199
  936MOL0     H29126   2.155   9.968   5.945 -2.8361 -1.4599  0.4148
  936MOL0     H29127   2.329  10.087   5.854  0.0501  0.8148 -2.1080
  936MOL0     H29128   2.440  10.041   5.743 -1.5218  0.1357  0.8216
  936MOL0     H29129   2.478  10.011   5.919  0.5624 -1.1060  0.7172
  936MOL0     H29130   2.765   9.617   5.696  1.9926 -1.2684  0.2845
  936MOL0     H29131   3.014   9.630   5.639  0.6695  0.1390 -2.3830
  936MOL0     H29132   3.097   9.975   5.396  0.4323  1.7038  0.1302
  936MOL0     H29133   3.160  10.054   5.533 -0.5240  1.1563 -0.3581
  936MOL0     H29134   3.304   9.845   5.372 -2.3164  1.1059 -2.7178
  936MOL0     H29135   3.319  10.029   5.347 -0.4597  0.8310  0.1636
  936MOL0     H29136   3.391   9.847   5.582 -2.5746  0.8292 -0.4971
  936MOL0     H29137   3.377  10.031   5.593 -2.8321  0.2440 -0.3703
  936MOL0     H29138   3.539  10.048   5.395  0.2583 -0.8162 -0.1285
  936MOL0     H29139   3.570   9.881   5.432 -0.1451 -0.4084 -0.3473
  936MOL0     H29140   3.606  10.124   5.610 -2.8862 -0.6593 -2.3393
  936MOL0     H29141   3.627   9.965   5.680 -2.1337  0.5492  1.2492
  936MOL0     H29142   3.847  10.088   5.614 -3.6960  5.0757  2.0620
  936MOL0     H29143   3.782  10.102   5.449 -3.8823  1.1005  1.2283
  936MOL0     H29144   3.747   9.827   5.498  0.4395  0.3569 -1.9857
  936MOL0     H29145   3.874   9.860   5.609 -0.3357  2.7814  0.6368
  936MOL0     H29146   3.889   9.918   5.302  1.2779  0.2401 -1.1386
  936MOL0     H29147   3.977   9.787   5.391 -2.2174 -1.1094  1.4902
  936MOL0     H29148   2.971  10.061   5.600  2.0375 -1.3238 -2.2939
  936MOL0     H29149   2.734  10.040   5.709  0.2754  0.2686  1.6468
  936MOL0     H29150   2.326   9.539   5.762 -2.4893 -0.4942  1.2384
  936MOL0     H29151   2.095   9.555   5.842  1.1263 -0.8512 -0.5604
  936MOL0     H29152   1.521   9.044   4.831 -2.6439 -0.3469 -0.0554
  936MOL0     H29153   1.711   8.933   4.712 -2.0164 -1.4617 -2.4633
  936MOL0     H29154   2.013   8.665   4.858 -0.4468 -0.2039  0.1490
  936MOL0     H29155   2.242   8.628   4.839  0.1659 -0.0674  0.7453
  936MOL0     H29156   2.514   8.324   4.682 -0.2035  2.1785  0.8695
  936MOL0     H29157   2.368   8.270   4.604  1.5286 -1.3385  2.7659
  936MOL0     H29158   2.535   8.475   4.472 -0.9979 -0.4386 -0.6822
  936MOL0     H29159   2.413   8.358   4.407  1.4488  1.3123 -2.4060
  936MOL0     H29160   2.676   8.258   4.529  0.5013 -2.1618 -0.4847
  936MOL0     H29161   2.549   8.164   4.472  3.9426 -1.2900  3.7347
  936MOL0     H29162   2.748   8.210   4.317 -0.3120 -1.9105 -2.4581
  936MOL0     H29163   2.688   8.378   4.310 -1.5609 -0.6479 -0.1528
  936MOL0     H29164   2.381   8.171   4.098 -0.5780  1.8341 -0.8062
  936MOL0     H29165   2.179   8.342   4.515 -1.5209 -2.3230  0.3613
  936MOL0     H29166   1.967   8.329   4.423 -1.3670  1.3690 -1.0213
  936MOL0     H29167   1.883   8.282   4.581 -1.0436  1.2491  1.4127
  936MOL0     H29168   1.821   8.410   4.486 -1.3892 -1.1419  2.5744
  937MOL0     O29169   9.235   2.731   7.057 -0.4164  0.2160 -0.0113
  937MOL0     C29170   9.135   2.696   7.005  0.5436 -0.1705  0.6279
  937MOL0     O29171   9.126   2.595   6.909 -0.2785  0.5797 -0.4278
  937MOL0     C29172   9.241   2.545   6.866 -0.4121 -0.2187 -0.1832
  937MOL0     C29173   9.309   2.621   6.767 -0.6032 -0.0530 -0.1265
  937MOL0     C29174   9.420   2.570   6.701  0.7104 -0.1379  0.2264
  937MOL0     C29175   9.469   2.438   6.729 -0.2914  0.1604 -0.7518
  937MOL0     O29176   9.586   2.398   6.670 -0.5228  0.1442 -0.3299
  937MOL0     C29177   9.664   2.295   6.736 -0.1622 -1.3448 -0.6267
  937MOL0     C29178   9.796   2.254   6.652  1.1467 -0.2782  0.1061
  937MOL0     C29179   9.902   2.197   6.746  0.3900  0.0851  0.3092
  937MOL0     C29180  10.028   2.152   6.665 -0.5187  0.2482  0.4944
  937MOL0     C29181  10.156   2.112   6.737  0.5814  0.3785 -0.2056
  937MOL0     C29182  10.272   2.061   6.655 -0.3012  0.4065  0.7357
  937MOL0     C29183  10.369   1.982   6.750  0.1976 -0.3686  0.4455
  937MOL0     C29184  10.457   1.888   6.664  0.5195 -0.9450  0.1358
  937MOL0     N29185  10.520   1.797   6.761  0.2325 -0.4677 -0.3041
  937MOL0     C29186  10.645   1.799   6.813  0.4910 -0.6944  0.0835
  937MOL0     C29187  10.658   1.702   6.905  0.9234  0.8951  0.8014
  937MOL0     C29188  10.789   1.673   6.973 -0.0819  0.2914 -0.5736
  937MOL0     C29189  10.858   1.787   7.040  1.0557  0.7033  0.0674
  937MOL0     C29190  10.993   1.748   7.100  0.0774 -0.0596  0.2950
  937MOL0     C29191  11.058   1.878   7.154  0.1222  0.8493 -0.4127
  937MOL0     O29192  10.991   1.940   7.250  0.2326  0.3470 -0.0200
  937MOL0     C29193  11.019   2.064   7.293  0.1695  0.5638 -0.1616
  937MOL0     C29194  10.933   2.119   7.385 -0.0583  0.2989 -0.4785
  937MOL0     C29195  10.956   2.237   7.453  0.1464  0.5937  0.2381
  937MOL0     C29196  10.831   2.288   7.513 -0.0721  0.1822  0.2962
  937MOL0     C29197  11.074   2.312   7.428  0.3380  0.2311 -0.3893
  937MOL0     C29198  11.102   2.454   7.473  0.7318 -0.0585 -1.3045
  937MOL0     O29199  11.203   2.526   7.411  0.7131 -0.4454 -0.9333
  937MOL0     C29200  11.227   2.658   7.427 -1.0368 -0.4911 -0.0453
  937MOL0     C29201  11.365   2.704   7.435 -0.0856  0.4791 -0.8446
  937MOL0     C29202  11.397   2.836   7.468  0.2934  0.0758  0.2380
  937MOL0     C29203  11.297   2.930   7.460 -0.2722 -0.2681 -0.1018
  937MOL0     O29204  11.319   3.064   7.459  0.5226 -0.2207 -0.5223
  937MOL0     C29205  11.443   3.116   7.499  0.3087 -0.8689 -0.7136
  937MOL0     C29206  11.422   3.268   7.504  0.7660  0.5282  0.1742
  937MOL0     C29207  11.550   3.338   7.561  0.1570 -0.0664  0.2841
  937MOL0     C29208  11.539   3.486   7.559 -0.2720 -0.8781 -0.3459
  937MOL0     C29209  11.650   3.570   7.642 -0.0201  0.6406  0.3078
  937MOL0     C29210  11.779   3.598   7.563 -0.4914 -0.7790 -0.0108
  937MOL0     C29211  11.883   3.663   7.652 -0.7888  0.0474  0.0206
  937MOL0     C29212  11.952   3.564   7.748 -0.3083  0.0401  0.3821
  937MOL0    Cl29213  12.058   3.642   7.856 -0.1801 -0.0799  0.4527
  937MOL0     C29214  11.161   2.893   7.442  0.1931 -0.0693 -1.0226
  937MOL0     C29215  11.124   2.760   7.429  0.7625  0.7645 -0.1175
  937MOL0     O29216  11.039   2.497   7.572 -1.3021 -0.6309  0.4390
  937MOL0     C29217  11.173   2.243   7.354  0.6422 -0.7327 -0.5011
  937MOL0     C29218  11.142   2.125   7.285 -0.4042  0.2772 -0.8482
  937MOL0     N29219  10.537   1.627   6.901  0.2766  0.0690  0.4122
  937MOL0     N29220  10.460   1.688   6.817 -0.3587 -0.5155 -0.7248
  937MOL0     C29221   9.400   2.368   6.839 -0.2517  0.6440  0.0439
  937MOL0     C29222   9.285   2.418   6.892 -0.4831  0.5000 -0.5135
  937MOL0     C29223   9.005   2.745   7.055 -0.5869  0.6451 -0.3775
  937MOL0     C29224   8.890   2.670   7.015 -0.3295  0.7603  0.4123
  937MOL0     C29225   8.760   2.716   7.053 -0.0576  0.3913 -0.0370
  937MOL0     C29226   8.742   2.838   7.127  0.4808  0.6787 -1.1150
  937MOL0     O29227   8.620   2.897   7.151 -0.6251  0.4404 -0.1816
  937MOL0     C29228   8.518   2.800   7.174  0.1605  0.8072 -0.4717
  937MOL0     C29229   8.389   2.875   7.202 -0.4588 -0.1743 -0.3261
  937MOL0     C29230   8.383   2.904   7.352  1.1038  0.8202 -0.0893
  937MOL0     C29231   8.259   2.991   7.402 -0.7722  0.5144 -0.1834
  937MOL0     C29232   8.230   2.959   7.546  0.5737 -0.3697 -0.0060
  937MOL0     C29233   8.215   2.955   7.669 -0.4808 -0.2216 -0.7172
  937MOL0     C29234   8.857   2.906   7.171 -0.4693  0.1116 -0.4128
  937MOL0     C29235   8.989   2.854   7.142 -0.0025 -0.1763  0.9984
  937MOL0     C29236   9.103   2.929   7.204 -1.1901  0.5353  0.5065
  937MOL0     H29237   9.273   2.723   6.754  1.9723  1.1541  1.4610
  937MOL0     H29238   9.477   2.621   6.623  0.5848 -1.7195 -0.9451
  937MOL0     H29239   9.598   2.209   6.745 -2.4535  0.3546 -0.4783
  937MOL0     H29240   9.690   2.321   6.839 -1.0951 -0.7111 -0.5452
  937MOL0     H29241   9.764   2.178   6.580 -0.7996 -0.8971  1.5486
  937MOL0     H29242   9.839   2.347   6.613 -1.4305  1.1152  0.3908
  937MOL0     H29243   9.926   2.272   6.822  2.7261  1.8751 -2.0399
  937MOL0     H29244   9.855   2.112   6.798  1.1364  0.3351  1.4274
  937MOL0     H29245   9.995   2.072   6.598  0.5869  0.2921 -0.1270
  937MOL0     H29246  10.050   2.244   6.609  0.5674  1.0091  2.0678
  937MOL0     H29247  10.127   2.042   6.816  2.1384  0.7299  0.7226
  937MOL0     H29248  10.199   2.198   6.790  0.8586 -1.2358  2.3649
  937MOL0     H29249  10.240   1.998   6.571  0.3846 -0.0731  0.8229
  937MOL0     H29250  10.319   2.144   6.602 -0.9407 -0.8490 -1.9479
  937MOL0     H29251  10.313   1.929   6.828  0.8814 -0.8407  0.6333
  937MOL0     H29252  10.427   2.052   6.811  0.6982  0.9773 -1.5130
  937MOL0     H29253  10.391   1.840   6.591 -0.5326 -2.6485  2.0980
  937MOL0     H29254  10.543   1.933   6.614  1.1185 -1.0572  1.0492
  937MOL0     H29255  10.725   1.870   6.797  1.7655 -2.4142 -1.6565
  937MOL0     H29256  10.853   1.625   6.899  0.1786  1.7348 -1.3121
  937MOL0     H29257  10.754   1.602   7.049  0.2858 -0.5746 -1.1940
  937MOL0     H29258  10.885   1.856   6.960 -1.5191 -0.4309 -1.9080
  937MOL0     H29259  10.786   1.832   7.110 -1.3721 -2.1132 -0.4027
  937MOL0     H29260  10.991   1.670   7.176  4.0815 -0.7248 -0.0527
  937MOL0     H29261  11.070   1.716   7.028  0.7355  4.2982 -1.2175
  937MOL0     H29262  11.146   1.838   7.204 -1.7019 -3.5791 -0.2619
  937MOL0     H29263  11.075   1.940   7.066 -2.8579  1.3452 -0.7388
  937MOL0     H29264  10.845   2.073   7.428 -0.9724  0.1838 -2.3565
  937MOL0     H29265  10.741   2.264   7.455 -1.0746 -3.2804  2.9507
  937MOL0     H29266  10.835   2.396   7.495 -0.3738 -0.0191 -1.1155
  937MOL0     H29267  10.830   2.257   7.618  2.1818 -2.9187 -0.4504
  937MOL0     H29268  11.445   2.631   7.442  1.7661  2.0555 -3.7579
  937MOL0     H29269  11.501   2.853   7.493  1.0458 -0.8840 -1.9898
  937MOL0     H29270  11.479   3.088   7.598 -0.1750  0.7252 -0.0676
  937MOL0     H29271  11.524   3.088   7.430  1.9817 -1.2527  1.3072
  937MOL0     H29272  11.402   3.306   7.403 -2.0976  1.7875  1.1022
  937MOL0     H29273  11.339   3.290   7.571  3.3319  3.1253  2.8012
  937MOL0     H29274  11.625   3.321   7.483  0.0218  2.2756 -0.4281
  937MOL0     H29275  11.572   3.300   7.661  1.5207  0.0769  0.0512
  937MOL0     H29276  11.443   3.504   7.610 -0.7733 -1.2757 -1.1236
  937MOL0     H29277  11.535   3.522   7.456 -0.7928 -1.0919 -0.4081
  937MOL0     H29278  11.607   3.668   7.668 -0.9471  0.3520 -0.0909
  937MOL0     H29279  11.673   3.507   7.728 -0.8239 -0.6729 -0.4109
  937MOL0     H29280  11.755   3.665   7.481 -0.7465  1.0563  1.4948
  937MOL0     H29281  11.820   3.504   7.524 -0.8047 -1.6149  1.5790
  937MOL0     H29282  11.835   3.746   7.705 -1.2063 -0.0592 -0.1838
  937MOL0     H29283  11.957   3.709   7.587 -0.1736 -3.0964 -1.6677
  937MOL0     H29284  12.013   3.493   7.690 -1.1670 -2.0304  1.8667
  937MOL0     H29285  11.887   3.503   7.811  0.3230 -0.6224  0.4144
  937MOL0     H29286  11.078   2.958   7.419 -0.4608  0.4554  2.2866
  937MOL0     H29287  11.019   2.735   7.426  1.1954 -1.1230 -1.3013
  937MOL0     H29288  11.268   2.291   7.332  0.4831 -0.6037 -0.9088
  937MOL0     H29289  11.211   2.091   7.208  0.1436 -0.8486  0.1072
  937MOL0     H29290   9.419   2.269   6.879 -3.0722 -0.4485 -1.0729
  937MOL0     H29291   9.233   2.366   6.972 -1.7868 -0.0845 -1.7074
  937MOL0     H29292   8.886   2.582   6.952  0.3337  1.1598 -0.1905
  937MOL0     H29293   8.679   2.653   7.019  0.3097 -0.7849  1.1884
  937MOL0     H29294   8.511   2.732   7.088  3.4003  1.3134 -1.2408
  937MOL0     H29295   8.542   2.736   7.259 -2.0912  0.6410  0.1179
  937MOL0     H29296   8.305   2.809   7.177 -1.7735  0.8487  1.1947
  937MOL0     H29297   8.383   2.970   7.147  2.5519  0.9350  1.0508
  937MOL0     H29298   8.388   2.806   7.401 -1.2438  0.6760 -0.0151
  937MOL0     H29299   8.478   2.945   7.388  2.1187 -0.5555 -1.0908
  937MOL0     H29300   8.176   2.972   7.332  1.8404 -1.2780 -3.0708
  937MOL0     H29301   8.280   3.095   7.379  2.1418 -0.2406 -1.3808
  937MOL0     H29302   8.213   2.963   7.776 -0.1611  2.6108 -0.8286
  937MOL0     H29303   8.842   2.990   7.239  0.1109 -1.3701  1.6335
  937MOL0     H29304   9.053   2.993   7.279  0.7280  0.9384  1.5002
  937MOL0     H29305   9.183   2.868   7.247 -1.8444  0.2781  1.3967
  937MOL0     H29306   9.150   2.990   7.127  2.1141 -2.3402 -0.0147
  938MOL0     O29307   1.375  10.332   0.151  0.4942  0.0074  0.6388
  938MOL0     C29308   1.327  10.219   0.150  0.4903 -0.6256  0.7212
  938MOL0     O29309   1.376  10.107   0.216 -0.1767 -0.0361  0.3001
  938MOL0     C29310   1.508  10.111   0.250 -0.1179  0.7847  0.0376
  938MOL0     C29311   1.590  10.036   0.161 -0.6833  0.4779  0.1260
  938MOL0     C29312   1.732  10.036   0.178 -0.0008  0.0152  0.8857
  938MOL0     C29313   1.789  10.095   0.296 -1.0379 -0.5741  0.2853
  938MOL0     O29314   1.917  10.100   0.334  0.4325 -0.2436  0.4373
  938MOL0     C29315   1.979  10.231   0.311 -0.1380  1.1410 -0.1801
  938MOL0     C29316   2.070  10.285   0.432  0.5521 -0.2663  0.8620
  938MOL0     C29317   2.157  10.415   0.403 -0.0404  0.1442  0.3999
  938MOL0     C29318   2.246  10.389   0.282 -0.2307 -0.6859 -0.3710
  938MOL0     C29319   2.374  10.486   0.279  0.3929 -0.0740  0.7284
  938MOL0     C29320   2.479  10.425   0.374  1.0288 -1.1313  0.6547
  938MOL0     C29321   2.606  10.510   0.363 -1.0034  0.1635 -0.2711
  938MOL0     C29322   2.725  10.437   0.417  0.9060  0.3333 -0.1206
  938MOL0     N29323   2.840  10.520   0.389  0.5152  0.0657  0.5065
  938MOL0     C29324   2.913  10.515   0.269  0.2853 -0.4808 -0.4844
  938MOL0     C29325   3.036  10.553   0.305  0.0927  0.8714  0.0148
  938MOL0     C29326   3.146  10.565   0.213  0.4498 -0.6770  0.2988
  938MOL0     C29327   3.274  10.591   0.291 -0.9395  0.4287 -0.5421
  938MOL0     C29328   3.391  10.598   0.189 -0.4163  0.0056 -0.8619
  938MOL0     C29329   3.513  10.658   0.243 -0.2135 -0.1295 -0.2618
  938MOL0     O29330   3.477  10.786   0.297 -0.4170  0.1218 -0.4579
  938MOL0     C29331   3.581  10.871   0.328  0.6189  0.6115 -0.0046
  938MOL0     C29332   3.559  10.994   0.394  0.6193 -0.3262  0.1560
  938MOL0     C29333   3.655  11.088   0.430  0.4868 -0.1650 -0.4897
  938MOL0     C29334   3.601  11.219   0.485 -0.7346 -0.3466  0.9940
  938MOL0     C29335   3.791  11.062   0.410  0.1716 -0.4032 -0.3391
  938MOL0     C29336   3.906  11.138   0.460 -0.2871  0.0306  0.4079
  938MOL0     O29337   3.886  11.272   0.483  0.1302  0.2906  0.8885
  938MOL0     C29338   3.991  11.349   0.525  0.0000 -0.1183  0.2306
  938MOL0     C29339   4.057  11.430   0.430 -0.8936 -0.4065  0.3953
  938MOL0     C29340   4.173  11.504   0.465  0.8325  0.1335  0.5087
  938MOL0     C29341   4.233  11.492   0.592  0.1724  0.4385 -0.5167
  938MOL0     O29342   4.338  11.557   0.645  0.4656  0.2122 -0.1381
  938MOL0     C29343   4.420  11.637   0.549 -0.3019 -0.2931  0.3361
  938MOL0     C29344   4.512  11.720   0.628  0.0269  0.1537 -0.0887
  938MOL0     C29345   4.649  11.670   0.680 -0.4486 -1.0378  0.2576
  938MOL0     C29346   4.742  11.790   0.711 -0.6816  0.6279 -0.3866
  938MOL0     C29347   4.875  11.736   0.773  0.1366 -0.1871 -0.0128
  938MOL0     C29348   4.994  11.690   0.686 -0.0945  0.3365 -0.4997
  938MOL0     C29349   5.098  11.623   0.768  1.3130  0.4402  0.9956
  938MOL0     C29350   5.176  11.724   0.859 -0.1475 -0.3824 -0.2729
  938MOL0    Cl29351   5.259  11.838   0.761  0.1673  0.1101 -0.0581
  938MOL0     C29352   4.165  11.403   0.684 -0.4928  0.3248  0.4290
  938MOL0     C29353   4.045  11.335   0.651  0.3114 -0.8743 -0.6782
  938MOL0     O29354   4.011  11.077   0.477 -0.2320  0.3084  0.2327
  938MOL0     C29355   3.821  10.936   0.350 -0.3137 -0.2900  0.2332
  938MOL0     C29356   3.720  10.845   0.310 -0.6609 -0.1979 -0.9229
  938MOL0     N29357   3.031  10.595   0.436 -0.6135 -0.5811  0.6979
  938MOL0     N29358   2.917  10.571   0.489  0.3704 -0.3528 -0.1426
  938MOL0     C29359   1.701  10.158   0.386 -1.5036  0.7898 -0.3242
  938MOL0     C29360   1.565  10.164   0.364 -0.2690 -0.0180 -0.6554
  938MOL0     C29361   1.206  10.191   0.068 -0.4297 -0.2106  0.2697
  938MOL0     C29362   1.178  10.063   0.017  0.4465 -0.7138  1.0277
  938MOL0     C29363   1.073  10.038  -0.062  0.4689 -0.5604  0.2476
  938MOL0     C29364   0.975  10.133  -0.096  0.3059 -1.0833 -0.1959
  938MOL0     O29365   0.873  10.084  -0.175  0.9084  0.3135 -0.0950
  938MOL0     C29366   0.741  10.139  -0.162 -0.1860  0.5002 -0.1385
  938MOL0     C29367   0.657  10.100  -0.282 -0.0629  0.3499  0.3772
  938MOL0     C29368   0.510  10.097  -0.238 -0.1639  0.1563 -0.0806
  938MOL0     C29369   0.421  10.045  -0.353 -0.2544  0.2151 -0.0003
  938MOL0     C29370   0.278  10.074  -0.316 -0.6829  0.7798 -0.0471
  938MOL0     C29371   0.170  10.119  -0.290  0.5487 -0.0642  0.5109
  938MOL0     C29372   1.006  10.268  -0.053  1.1239 -0.8190 -0.7864
  938MOL0     C29373   1.110  10.296   0.040  0.5114  0.5817  1.0311
  938MOL0     C29374   1.120  10.440   0.091 -0.1682 -0.6287  0.7020
  938MOL0     H29375   1.551  10.000   0.066  1.9614 -0.2092 -0.7747
  938MOL0     H29376   1.795   9.993   0.100  1.2921 -0.8180  2.3302
  938MOL0     H29377   1.901  10.306   0.291  0.7099  2.0266 -0.2350
  938MOL0     H29378   2.048  10.230   0.227  1.2650 -0.4098  0.9326
  938MOL0     H29379   2.011  10.301   0.523 -0.4592 -0.7646  0.3093
  938MOL0     H29380   2.136  10.202   0.458  2.1218  1.0559  1.3021
  938MOL0     H29381   2.087  10.498   0.390  0.1645  0.3830  0.7963
  938MOL0     H29382   2.221  10.453   0.483  0.2924  5.3765 -1.9782
  938MOL0     H29383   2.291  10.291   0.298  0.4870 -0.4270 -0.7424
  938MOL0     H29384   2.192  10.393   0.186  0.9759 -0.6750 -1.0700
  938MOL0     H29385   2.352  10.589   0.311 -1.7583  1.0747 -3.6699
  938MOL0     H29386   2.411  10.493   0.177 -3.2446 -0.4699 -0.7796
  938MOL0     H29387   2.431  10.427   0.472 -1.7005 -1.4418 -0.5889
  938MOL0     H29388   2.508  10.321   0.352  2.4793 -0.5092 -0.6126
  938MOL0     H29389   2.595  10.598   0.426  0.9949 -0.5894  1.2428
  938MOL0     H29390   2.627  10.539   0.260  1.2531 -0.9596 -0.1878
  938MOL0     H29391   2.715  10.419   0.524 -1.2908  1.4352 -0.0894
  938MOL0     H29392   2.748  10.338   0.377  2.4102  0.9076 -0.7794
  938MOL0     H29393   2.872  10.492   0.171  1.4236  0.7676 -1.2890
  938MOL0     H29394   3.134  10.635   0.129  1.7921 -0.6270  0.1175
  938MOL0     H29395   3.160  10.467   0.166  1.9478 -0.7653  0.8758
  938MOL0     H29396   3.254  10.691   0.330 -1.4515  0.7174 -1.5021
  938MOL0     H29397   3.298  10.511   0.361  5.7557  1.9781 -0.3517
  938MOL0     H29398   3.419  10.496   0.160 -2.4849 -0.3694 -1.7697
  938MOL0     H29399   3.366  10.643   0.093 -0.0087  0.5890 -0.7013
  938MOL0     H29400   3.560  10.579   0.304 -2.1136 -1.9640 -1.0343
  938MOL0     H29401   3.585  10.653   0.161 -0.8288  0.0889 -0.8172
  938MOL0     H29402   3.458  11.026   0.416  0.6239  1.8519 -2.4657
  938MOL0     H29403   3.629  11.299   0.415  1.3924 -1.5591  0.3496
  938MOL0     H29404   3.635  11.242   0.586 -1.7959  0.8884  1.0995
  938MOL0     H29405   3.492  11.221   0.484 -0.7789 -1.3066  2.2510
  938MOL0     H29406   4.024  11.438   0.327 -0.4216 -1.3859  0.1614
  938MOL0     H29407   4.206  11.573   0.388 -0.0923 -0.0119 -0.0255
  938MOL0     H29408   4.477  11.576   0.478  2.0538 -0.0065  1.8877
  938MOL0     H29409   4.360  11.705   0.487 -3.0415 -1.8557  1.1035
  938MOL0     H29410   4.548  11.792   0.554  3.2335 -0.2740  0.9376
  938MOL0     H29411   4.450  11.762   0.708 -1.3603  2.2943 -2.1290
  938MOL0     H29412   4.700  11.599   0.615  1.7502  0.4253  0.2766
  938MOL0     H29413   4.629  11.616   0.774 -0.5929  0.4552  1.1264
  938MOL0     H29414   4.699  11.849   0.791 -0.3856  0.1179  0.1617
  938MOL0     H29415   4.750  11.846   0.618  0.0924  1.5667  0.2245
  938MOL0     H29416   4.911  11.820   0.833 -0.5954  0.2537 -0.1782
  938MOL0     H29417   4.852  11.652   0.839  2.3502  0.0913  1.2197
  938MOL0     H29418   5.023  11.780   0.633 -3.3433  1.0862 -1.1805
  938MOL0     H29419   4.948  11.618   0.617  0.3408 -1.6025  1.1237
  938MOL0     H29420   5.170  11.580   0.698  0.3027  0.5129 -0.1351
  938MOL0     H29421   5.047  11.546   0.826 -0.4134 -1.6531 -2.8885
  938MOL0     H29422   5.246  11.661   0.914 -0.1923  0.7051  1.0958
  938MOL0     H29423   5.113  11.772   0.935  0.5795 -2.6990  1.8991
  938MOL0     H29424   4.212  11.371   0.777 -2.5086 -3.2378  0.3934
  938MOL0     H29425   4.012  11.259   0.721 -0.6887 -0.4785 -0.7098
  938MOL0     H29426   3.924  10.905   0.339 -1.0387 -2.1498 -1.9764
  938MOL0     H29427   3.748  10.748   0.270 -1.0478 -0.2253 -1.1444
  938MOL0     H29428   1.759  10.186   0.474  1.4835 -1.8041 -1.2513
  938MOL0     H29429   1.512  10.215   0.444 -0.0454 -1.5955  0.5365
  938MOL0     H29430   1.246   9.982   0.042 -2.1900 -2.4539  3.0378
  938MOL0     H29431   1.058   9.939  -0.104 -0.9877  0.0767 -0.8316
  938MOL0     H29432   0.715  10.093  -0.066 -0.2962  1.0867  0.1164
  938MOL0     H29433   0.747  10.247  -0.148  0.0570  0.4060  0.5357
  938MOL0     H29434   0.681  10.002  -0.326 -0.1332  0.6938 -0.4572
  938MOL0     H29435   0.657  10.168  -0.367 -0.4687 -0.9226 -0.6874
  938MOL0     H29436   0.502  10.032  -0.151 -0.8889 -1.9215 -1.6237
  938MOL0     H29437   0.480  10.200  -0.218 -0.8900 -0.2569  1.0409
  938MOL0     H29438   0.432   9.939  -0.376 -0.8047 -0.1914  1.4531
  938MOL0     H29439   0.453  10.110  -0.435 -0.7239  0.7489  0.2271
  938MOL0     H29440   0.075  10.153  -0.252 -0.3472 -2.2344  0.3486
  938MOL0     H29441   0.932  10.341  -0.085  1.0579 -0.9834 -1.0189
  938MOL0     H29442   1.089  10.450   0.196 -1.8149 -2.0011  0.3953
  938MOL0     H29443   1.214  10.490   0.067 -1.0460  0.0973 -1.4510
  938MOL0     H29444   1.049  10.506   0.040  2.2614  3.5212  2.2392
  939MOL0     O29445   4.276   7.614   1.712  0.4042  1.1019  0.5113
  939MOL0     C29446   4.188   7.560   1.646  0.0863 -0.4143 -0.4737
  939MOL0     O29447   4.199   7.436   1.579 -0.8311 -0.2995 -0.3470
  939MOL0     C29448   4.323   7.379   1.591 -0.6204 -0.2884  0.3323
  939MOL0     C29449   4.315   7.244   1.632 -0.6541 -0.7381 -0.9989
  939MOL0     C29450   4.424   7.160   1.647 -0.1416 -0.7220 -0.4976
  939MOL0     C29451   4.553   7.205   1.600  0.3822 -0.6213 -0.3264
  939MOL0     O29452   4.669   7.138   1.623 -0.0306  0.7124  0.4944
  939MOL0     C29453   4.664   6.999   1.653 -0.3960 -0.0610  0.4974
  939MOL0     C29454   4.799   6.934   1.614  0.2472  0.0524  0.3964
  939MOL0     C29455   4.918   7.016   1.661  0.7726  0.8993 -0.3062
  939MOL0     C29456   4.916   7.065   1.806  0.7956  0.0647 -0.2488
  939MOL0     C29457   5.012   7.177   1.840  0.6558  0.6610  0.0979
  939MOL0     C29458   4.959   7.306   1.792 -0.3420 -0.1572 -0.0921
  939MOL0     C29459   5.029   7.426   1.853  0.4882  0.7624  0.1812
  939MOL0     C29460   5.020   7.546   1.764  1.0408 -0.4148  0.3220
  939MOL0     N29461   5.124   7.653   1.791 -0.4334 -0.2340  0.5778
  939MOL0     C29462   5.219   7.705   1.704 -0.1980  0.2077 -0.7702
  939MOL0     C29463   5.287   7.795   1.781  0.3239 -0.2197  0.0657
  939MOL0     C29464   5.394   7.890   1.731  0.3266  0.0318  0.6433
  939MOL0     C29465   5.490   7.827   1.630 -0.3222  0.0712  0.8861
  939MOL0     C29466   5.598   7.909   1.564 -0.3222 -0.0586  0.6396
  939MOL0     C29467   5.652   7.823   1.444  0.9406  0.1307 -0.0093
  939MOL0     O29468   5.760   7.899   1.382 -0.0870 -0.3182  0.2480
  939MOL0     C29469   5.887   7.892   1.437  1.0510  0.5135 -0.6398
  939MOL0     C29470   5.945   7.778   1.495 -0.5065 -0.2269  0.4877
  939MOL0     C29471   6.069   7.776   1.556  0.7846  0.5881 -0.1735
  939MOL0     C29472   6.108   7.642   1.618 -0.2909 -0.0600 -0.2556
  939MOL0     C29473   6.143   7.895   1.555  0.0734 -0.2487 -1.1165
  939MOL0     C29474   6.285   7.902   1.610  0.2619 -0.5631 -0.1106
  939MOL0     O29475   6.333   7.804   1.688  0.6708 -0.5656  0.2864
  939MOL0     C29476   6.470   7.795   1.706  0.6033 -0.5484 -0.2229
  939MOL0     C29477   6.547   7.752   1.604 -0.6855  0.5423  0.4022
  939MOL0     C29478   6.676   7.743   1.619  0.1627  0.0979 -0.1180
  939MOL0     C29479   6.737   7.770   1.743 -0.4899  0.3250  0.0590
  939MOL0     O29480   6.876   7.764   1.773 -0.3146  0.3297 -0.0851
  939MOL0     C29481   6.976   7.716   1.673 -0.3363  0.0867  0.9769
  939MOL0     C29482   7.048   7.842   1.617 -0.2831 -0.5067 -0.1899
  939MOL0     C29483   7.146   7.883   1.728  0.1358 -0.3012  0.1741
  939MOL0     C29484   7.247   7.981   1.672 -0.7009  0.6204  0.1644
  939MOL0     C29485   7.362   7.914   1.598 -0.0827 -0.1599  0.7282
  939MOL0     C29486   7.452   8.024   1.541 -0.6299  0.0904  0.4261
  939MOL0     C29487   7.563   7.967   1.455  0.9961 -0.2703  0.9181
  939MOL0     C29488   7.671   8.066   1.420  0.0752 -0.3854  0.2809
  939MOL0    Cl29489   7.758   7.988   1.285 -0.0914  0.1875 -0.0733
  939MOL0     C29490   6.657   7.814   1.853  1.2298  0.1201  0.7141
  939MOL0     C29491   6.522   7.824   1.832  0.3687 -0.0999 -1.0901
  939MOL0     O29492   6.351   7.994   1.560 -0.9171  0.2268 -0.7721
  939MOL0     C29493   6.086   8.016   1.503 -0.7002 -0.6960 -0.1994
  939MOL0     C29494   5.959   8.010   1.438  0.6883  0.3104 -0.5964
  939MOL0     N29495   5.225   7.806   1.909  0.0989  0.3377  0.0757
  939MOL0     N29496   5.128   7.722   1.906 -0.3134 -0.0226 -0.5890
  939MOL0     C29497   4.562   7.341   1.567 -0.0801  0.5268  0.2222
  939MOL0     C29498   4.453   7.428   1.556  0.5492 -0.6044  0.1845
  939MOL0     C29499   4.051   7.618   1.651  0.5977  0.2819 -0.1750
  939MOL0     C29500   3.959   7.546   1.575  0.4456  0.2314 -0.3325
  939MOL0     C29501   3.826   7.603   1.563 -1.2430  0.0185  0.1462
  939MOL0     C29502   3.794   7.727   1.618 -0.1568 -0.5715 -0.3235
  939MOL0     O29503   3.679   7.790   1.575  0.8303 -0.3846 -1.4319
  939MOL0     C29504   3.608   7.885   1.660  0.5378  0.7277  0.3011
  939MOL0     C29505   3.511   7.967   1.567 -0.1813  0.3079 -0.3292
  939MOL0     C29506   3.417   7.872   1.482  0.2660 -0.2263  1.2238
  939MOL0     C29507   3.337   7.756   1.564  0.9516 -0.3967 -0.3257
  939MOL0     C29508   3.235   7.802   1.667  0.0887 -0.5556  0.3769
  939MOL0     C29509   3.144   7.848   1.727 -0.5025 -0.4191 -0.4980
  939MOL0     C29510   3.875   7.783   1.703 -0.2250 -0.8412 -0.8342
  939MOL0     C29511   4.007   7.739   1.718  0.9335 -0.1545 -1.0642
  939MOL0     C29512   4.099   7.817   1.807  0.1797 -0.0316  0.9812
  939MOL0     H29513   4.215   7.209   1.656 -0.3480 -1.0296 -0.0788
  939MOL0     H29514   4.420   7.067   1.702  1.9570 -0.0900  0.8649
  939MOL0     H29515   4.580   6.963   1.593  0.0764 -0.7854  0.2570
  939MOL0     H29516   4.645   6.983   1.760  3.4035  1.7275  1.6285
  939MOL0     H29517   4.799   6.834   1.657  0.0895 -0.1723 -0.1156
  939MOL0     H29518   4.803   6.916   1.506  0.7535 -4.1621  0.9679
  939MOL0     H29519   4.994   6.938   1.661 -0.2587 -0.1188 -0.3686
  939MOL0     H29520   4.940   7.097   1.591  1.5328  1.1439  0.1951
  939MOL0     H29521   4.813   7.094   1.828  0.5051 -0.8759 -0.2843
  939MOL0     H29522   4.936   6.987   1.881  1.2580  0.9702  0.5950
  939MOL0     H29523   5.113   7.151   1.807  0.0999  1.2726 -2.3166
  939MOL0     H29524   5.015   7.190   1.949  0.8473  0.6877  0.0901
  939MOL0     H29525   4.976   7.316   1.684 -1.4363  1.2919 -0.1678
  939MOL0     H29526   4.852   7.313   1.809 -1.1269  0.2859 -4.1847
  939MOL0     H29527   5.134   7.395   1.857  0.0846 -0.6254  0.5112
  939MOL0     H29528   4.995   7.462   1.950  0.2215  2.1419 -0.4067
  939MOL0     H29529   5.020   7.517   1.658 -2.6634 -1.8196  0.5704
  939MOL0     H29530   4.921   7.590   1.778 -0.2571 -2.8177 -0.7463
  939MOL0     H29531   5.225   7.679   1.599 -0.1893  0.7655 -0.9147
  939MOL0     H29532   5.449   7.918   1.822 -2.7213 -0.3409  2.7595
  939MOL0     H29533   5.347   7.977   1.685  0.4173  0.1574  0.7858
  939MOL0     H29534   5.536   7.739   1.674  1.2662 -1.4919 -3.3569
  939MOL0     H29535   5.420   7.784   1.557  0.2630  1.1721 -0.3756
  939MOL0     H29536   5.575   8.009   1.526  2.7508  0.6621  0.4260
  939MOL0     H29537   5.681   7.930   1.633  1.7742  0.2467 -1.8346
  939MOL0     H29538   5.690   7.725   1.473  0.3853 -0.9305 -2.5966
  939MOL0     H29539   5.569   7.799   1.377  2.2557  0.1814 -1.7238
  939MOL0     H29540   5.884   7.690   1.475 -0.4881  0.1112 -1.1620
  939MOL0     H29541   6.035   7.563   1.595  0.7769 -1.7958  1.8728
  939MOL0     H29542   6.111   7.652   1.727  1.7263 -2.7843  0.0505
  939MOL0     H29543   6.205   7.603   1.586  0.4225  0.6990  0.8794
  939MOL0     H29544   6.489   7.727   1.516 -0.4129  1.4198 -0.0375
  939MOL0     H29545   6.730   7.704   1.533 -0.4396 -1.8887  0.3488
  939MOL0     H29546   7.051   7.664   1.733  1.4160  2.8940  1.3817
  939MOL0     H29547   6.936   7.647   1.598 -0.0586  1.0659 -0.1006
  939MOL0     H29548   7.105   7.814   1.528  1.3125 -1.5011  1.0805
  939MOL0     H29549   6.977   7.921   1.592 -0.0405 -0.2877 -0.1948
  939MOL0     H29550   7.195   7.792   1.761  0.8722  0.4884  1.3048
  939MOL0     H29551   7.084   7.931   1.804  1.0607  1.7403 -0.2932
  939MOL0     H29552   7.289   8.028   1.761  1.9658 -2.1480  0.5323
  939MOL0     H29553   7.199   8.057   1.610  1.1326  1.0806 -0.7835
  939MOL0     H29554   7.420   7.854   1.667  0.6366  0.0785  0.3427
  939MOL0     H29555   7.318   7.846   1.524 -0.4896 -1.2594  1.9439
  939MOL0     H29556   7.495   8.086   1.620  1.3786 -0.2596 -0.3394
  939MOL0     H29557   7.393   8.090   1.477 -0.7162 -1.3463 -1.0333
  939MOL0     H29558   7.515   7.937   1.362 -1.7743  4.0620  0.6558
  939MOL0     H29559   7.611   7.884   1.508 -1.2351 -0.3114  3.0420
  939MOL0     H29560   7.729   8.083   1.511 -1.4579 -4.6652  2.3652
  939MOL0     H29561   7.631   8.162   1.387 -3.7385 -1.6968  0.5477
  939MOL0     H29562   6.706   7.831   1.949  2.1017 -2.6643  0.8320
  939MOL0     H29563   6.459   7.864   1.912 -0.2121  3.2401 -3.0407
  939MOL0     H29564   6.144   8.108   1.499 -0.7961 -0.5654  1.0148
  939MOL0     H29565   5.908   8.094   1.393  0.3567 -0.0812 -0.9632
  939MOL0     H29566   4.663   7.382   1.568 -0.1595  0.9241 -2.1820
  939MOL0     H29567   4.473   7.531   1.529  1.8946 -1.3782 -2.0242
  939MOL0     H29568   3.968   7.449   1.528 -1.2523 -0.5493  0.8574
  939MOL0     H29569   3.764   7.550   1.492 -2.0206 -0.1779  0.9491
  939MOL0     H29570   3.558   7.825   1.737  1.5314  0.1955  0.5540
  939MOL0     H29571   3.664   7.958   1.719  0.5590  2.7008 -2.0065
  939MOL0     H29572   3.577   8.034   1.513 -0.0369  0.6165  0.2219
  939MOL0     H29573   3.459   8.043   1.626  0.4917 -0.2446  1.0133
  939MOL0     H29574   3.347   7.930   1.422  0.7707  0.9507  1.7329
  939MOL0     H29575   3.479   7.818   1.410 -0.2673 -1.4219  1.6426
  939MOL0     H29576   3.394   7.682   1.620 -2.1908 -2.2418  0.7039
  939MOL0     H29577   3.271   7.715   1.487  0.3640 -0.8812  0.4085
  939MOL0     H29578   3.074   7.908   1.782  2.1775  1.3698  1.2557
  939MOL0     H29579   3.843   7.869   1.761  3.5820  1.8842 -2.3411
  939MOL0     H29580   4.180   7.867   1.752  0.6773 -0.5062  1.2712
  939MOL0     H29581   4.043   7.898   1.854 -1.0923 -0.4413  0.2141
  939MOL0     H29582   4.147   7.759   1.887  1.5974 -1.2473 -0.6725
  940MOL0     O29583  10.011  10.394   4.877  0.2663  0.4057 -0.5317
  940MOL0     C29584   9.899  10.401   4.830  0.1575  0.1347  0.0014
  940MOL0     O29585   9.870  10.378   4.701 -0.0976  0.5049  0.2712
  940MOL0     C29586   9.972  10.325   4.628 -1.4660 -0.0833 -0.1424
  940MOL0     C29587  10.078  10.401   4.568  0.1119  0.1790  0.3086
  940MOL0     C29588  10.184  10.338   4.503 -0.5927  0.6869 -0.3059
  940MOL0     C29589  10.184  10.197   4.487 -0.6192  0.3158  0.4856
  940MOL0     O29590  10.276  10.130   4.410 -0.3519  0.5019  0.5821
  940MOL0     C29591  10.325   9.991   4.445  0.3002 -0.4244  0.3215
  940MOL0     C29592  10.389   9.987   4.587  0.5932  0.4099 -0.4572
  940MOL0     C29593  10.524  10.048   4.600  0.2787 -0.0487  1.3017
  940MOL0     C29594  10.603   9.997   4.720  1.1304  0.2560  0.7733
  940MOL0     C29595  10.750  10.013   4.686 -0.9414  0.0600 -0.9469
  940MOL0     C29596  10.814   9.912   4.591 -0.6942 -0.5421 -0.3682
  940MOL0     C29597  10.966   9.945   4.557  0.4024  0.7062 -0.1798
  940MOL0     C29598  11.075   9.929   4.664 -0.0180 -0.1243  0.2854
  940MOL0     N29599  11.203   9.936   4.588  1.0508 -0.1341  0.0924
  940MOL0     C29600  11.226  10.012   4.475 -1.0375 -0.0616 -0.6235
  940MOL0     C29601  11.347   9.966   4.431 -0.1242 -0.2766  0.5254
  940MOL0     C29602  11.414  10.014   4.305 -0.0972 -0.5145  0.7594
  940MOL0     C29603  11.308  10.048   4.208  0.0942  0.1484 -0.8366
  940MOL0     C29604  11.340  10.048   4.061 -0.1400  0.0181  0.3286
  940MOL0     C29605  11.467  10.123   4.033 -0.1144  0.2174  0.4727
  940MOL0     O29606  11.472  10.125   3.895 -0.1901 -0.2084 -0.2782
  940MOL0     C29607  11.598  10.079   3.854 -0.3924 -0.0929  0.3119
  940MOL0     C29608  11.677  10.178   3.800 -0.6736 -0.2003  0.5818
  940MOL0     C29609  11.802  10.153   3.747  0.4730  0.0093  0.0775
  940MOL0     C29610  11.858  10.264   3.663 -0.5459  0.3347 -0.0075
  940MOL0     C29611  11.853  10.016   3.752 -0.4880  0.0592 -0.2230
  940MOL0     C29612  11.971   9.958   3.681 -0.1692 -0.7471  0.0424
  940MOL0     O29613  12.003   9.832   3.695  0.3757  0.5693 -0.3948
  940MOL0     C29614  12.129   9.790   3.677  0.3020 -0.0378 -0.5769
  940MOL0     C29615  12.173   9.741   3.550 -0.4287  1.2195  0.7842
  940MOL0     C29616  12.309   9.710   3.529  0.8232  0.1064  0.8795
  940MOL0     C29617  12.399   9.718   3.635 -0.6964 -0.3676  0.2087
  940MOL0     O29618  12.530   9.675   3.613 -0.1384 -0.6036  0.5942
  940MOL0     C29619  12.632   9.678   3.711 -0.2386 -0.6106  0.5165
  940MOL0     C29620  12.768   9.661   3.645 -0.1408  0.7151  0.8302
  940MOL0     C29621  12.868   9.591   3.733  0.3716 -0.7074  0.0708
  940MOL0     C29622  13.012   9.600   3.681  0.7383  0.9694  0.5692
  940MOL0     C29623  13.113   9.534   3.778  0.4106 -0.1098 -0.0302
  940MOL0     C29624  13.259   9.565   3.731  0.4485  0.1255 -0.8784
  940MOL0     C29625  13.371   9.469   3.787 -0.6742 -0.7908  0.4782
  940MOL0     C29626  13.502   9.483   3.706  0.2434  0.2485  0.1331
  940MOL0    Cl29627  13.597   9.613   3.768 -0.0718 -0.1023 -0.2767
  940MOL0     C29628  12.360   9.757   3.761  0.5137 -1.1210  0.5640
  940MOL0     C29629  12.224   9.802   3.777 -0.8374  0.1727 -0.7472
  940MOL0     O29630  12.035  10.034   3.616  0.8924  0.5626 -0.8247
  940MOL0     C29631  11.771   9.924   3.824  0.7527 -0.8615 -0.5709
  940MOL0     C29632  11.641   9.954   3.861  1.0320  0.3518  0.5137
  940MOL0     N29633  11.391   9.866   4.519 -0.3648  0.0385 -1.0081
  940MOL0     N29634  11.300   9.848   4.605  1.1061  0.1209 -0.2414
  940MOL0     C29635  10.071  10.126   4.525 -0.1838 -0.7655 -0.6152
  940MOL0     C29636   9.969  10.186   4.602  0.1689  0.0531 -0.2096
  940MOL0     C29637   9.794  10.449   4.925 -0.7433 -0.1025  0.4932
  940MOL0     C29638   9.772  10.585   4.938 -0.3008 -0.1754  0.0446
  940MOL0     C29639   9.675  10.629   5.028  0.4850  0.8434  1.2220
  940MOL0     C29640   9.588  10.532   5.102 -0.4083  0.2797  1.0635
  940MOL0     O29641   9.476  10.557   5.189 -0.2061 -0.1717 -0.5889
  940MOL0     C29642   9.447  10.698   5.181 -0.1173  0.1781  0.2471
  940MOL0     C29643   9.301  10.723   5.216 -0.5194 -0.7258  0.3979
  940MOL0     C29644   9.234  10.850   5.150 -0.4840  0.7926 -0.4423
  940MOL0     C29645   9.316  10.975   5.135  1.2575  0.4774 -0.5825
  940MOL0     C29646   9.364  11.032   5.265  0.3916  0.7856 -0.3896
  940MOL0     C29647   9.399  11.092   5.369 -0.3987 -0.0193  0.5910
  940MOL0     C29648   9.615  10.399   5.079 -0.5282  0.6329 -0.4543
  940MOL0     C29649   9.718  10.350   5.001  0.1661 -0.6379 -0.0915
  940MOL0     C29650   9.722  10.198   4.988 -0.0187  0.0449  0.3792
  940MOL0     H29651  10.090  10.509   4.575  0.9607  0.0183  1.6107
  940MOL0     H29652  10.269  10.392   4.464  1.0169 -0.5144  1.3947
  940MOL0     H29653  10.398   9.960   4.370 -0.6525  2.5715 -2.0363
  940MOL0     H29654  10.241   9.922   4.436 -2.6368  2.8898 -0.0626
  940MOL0     H29655  10.318  10.036   4.654  0.1321 -0.8999  0.0586
  940MOL0     H29656  10.392   9.882   4.618 -1.7894  0.0892 -1.1173
  940MOL0     H29657  10.576  10.014   4.510 -1.4850  0.4578  0.0468
  940MOL0     H29658  10.518  10.157   4.595 -0.8867 -0.1019  1.4159
  940MOL0     H29659  10.573  10.073   4.793 -0.0683  1.4813 -0.9173
  940MOL0     H29660  10.584   9.898   4.761 -0.3374  1.3699  2.9700
  940MOL0     H29661  10.797   9.993   4.782  0.3557 -1.8835 -1.9201
  940MOL0     H29662  10.775  10.115   4.655  0.6145 -0.0987 -0.2933
  940MOL0     H29663  10.805   9.809   4.627 -0.2607 -0.7999 -0.9794
  940MOL0     H29664  10.763   9.903   4.494  1.0993 -1.4981 -1.2615
  940MOL0     H29665  10.961  10.044   4.511 -2.4955  0.5570 -0.3832
  940MOL0     H29666  10.992   9.869   4.483  1.1772  1.2478 -0.4649
  940MOL0     H29667  11.069  10.007   4.742  0.9391  1.7447 -1.4163
  940MOL0     H29668  11.071   9.831   4.712  3.1530  0.5209  2.2029
  940MOL0     H29669  11.165  10.093   4.436 -0.7438  0.8063  0.6721
  940MOL0     H29670  11.490   9.942   4.273 -0.9272 -0.6563 -1.0402
  940MOL0     H29671  11.468  10.106   4.328 -0.7754  0.2554 -0.5650
  940MOL0     H29672  11.216   9.996   4.235 -0.0036  1.7691  2.5123
  940MOL0     H29673  11.289  10.154   4.223 -0.2238  0.0331 -0.4036
  940MOL0     H29674  11.350   9.948   4.020  3.1841 -0.3004  1.5873
  940MOL0     H29675  11.263  10.098   4.001  1.8571  1.6014 -1.0568
  940MOL0     H29676  11.476  10.223   4.076 -2.1446  0.2562  0.8890
  940MOL0     H29677  11.544  10.065   4.084  2.5386  2.4407 -0.7140
  940MOL0     H29678  11.623  10.268   3.773 -0.9900 -0.7245 -0.5752
  940MOL0     H29679  11.962  10.251   3.693 -0.8418 -0.2718  0.7933
  940MOL0     H29680  11.831  10.368   3.680  1.0493  0.7689  0.0261
  940MOL0     H29681  11.853  10.242   3.555  2.9184 -0.8503 -0.0431
  940MOL0     H29682  12.111   9.750   3.461 -1.5796  4.1235  1.7663
  940MOL0     H29683  12.350   9.683   3.433  0.0297  0.6366  0.3846
  940MOL0     H29684  12.635   9.772   3.768 -1.1819 -1.6045  2.2758
  940MOL0     H29685  12.612   9.593   3.776  1.3948 -1.6177 -0.2402
  940MOL0     H29686  12.759   9.596   3.557  2.4683 -1.7553  2.2041
  940MOL0     H29687  12.802   9.762   3.622 -0.8974  1.4706  2.7946
  940MOL0     H29688  12.839   9.486   3.747  0.0367 -0.8376 -1.4242
  940MOL0     H29689  12.873   9.646   3.827 -0.3332 -0.0122 -0.2886
  940MOL0     H29690  13.031   9.703   3.647  0.6752 -0.0940 -3.0845
  940MOL0     H29691  13.006   9.543   3.588 -2.9392  0.1459  1.1652
  940MOL0     H29692  13.105   9.571   3.881 -0.4743 -0.8152  0.1585
  940MOL0     H29693  13.098   9.426   3.777 -0.5598  0.0078 -2.0425
  940MOL0     H29694  13.282   9.670   3.750  1.2949 -0.0787 -0.7671
  940MOL0     H29695  13.247   9.557   3.623  0.1885  1.2134 -0.9493
  940MOL0     H29696  13.333   9.369   3.767  2.0897 -1.8053 -0.2353
  940MOL0     H29697  13.392   9.482   3.894  3.0642 -1.0087 -0.0916
  940MOL0     H29698  13.475   9.506   3.603 -1.1851 -3.6155 -0.5163
  940MOL0     H29699  13.554   9.387   3.701  1.3920  0.8852 -0.4832
  940MOL0     H29700  12.426   9.768   3.847  1.7053  1.9533 -0.5818
  940MOL0     H29701  12.205   9.839   3.877  0.9738 -3.6449  1.2286
  940MOL0     H29702  11.818   9.830   3.848  3.1112  0.7754  1.8027
  940MOL0     H29703  11.576   9.877   3.900 -1.2350  1.0781 -1.5776
  940MOL0     H29704  10.083  10.019   4.514 -0.0346 -1.0336  1.5813
  940MOL0     H29705   9.883  10.128   4.634 -2.7417  3.6978 -0.8045
  940MOL0     H29706   9.838  10.653   4.884  1.6102 -4.1852 -3.2620
  940MOL0     H29707   9.652  10.734   5.039 -0.8571  0.4689  2.1796
  940MOL0     H29708   9.519  10.749   5.246  1.6685  0.0866 -1.5498
  940MOL0     H29709   9.464  10.742   5.082  0.2140  0.0506  0.2447
  940MOL0     H29710   9.289  10.732   5.324 -3.4639  0.2196  0.1019
  940MOL0     H29711   9.245  10.638   5.176  0.2491 -1.6196  1.1705
  940MOL0     H29712   9.216  10.812   5.048 -0.5011  1.8464 -0.8465
  940MOL0     H29713   9.144  10.874   5.207 -1.0952 -1.0548 -0.5787
  940MOL0     H29714   9.256  11.046   5.078 -3.6193 -2.1186  0.7208
  940MOL0     H29715   9.408  10.957   5.079  1.4106 -1.8273  0.2796
  940MOL0     H29716   9.449  11.126   5.457 -1.9383  1.5281  0.9190
  940MOL0     H29717   9.561  10.327   5.139  0.7246  0.3878  0.4233
  940MOL0     H29718   9.807  10.163   4.928 -1.1862 -1.4905 -0.4660
  940MOL0     H29719   9.744  10.167   5.090 -2.5146 -0.8938  0.7088
  940MOL0     H29720   9.626  10.156   4.955 -0.9027  2.3762 -0.1884
  941MOL0     O29721   1.066   6.562   4.333 -0.0132 -0.3108 -0.0950
  941MOL0     C29722   1.045   6.495   4.434 -0.2253 -0.2468  0.4881
  941MOL0     O29723   1.140   6.446   4.514 -0.2169  0.2947 -1.2292
  941MOL0     C29724   1.266   6.413   4.478 -0.1306  0.4002  0.4033
  941MOL0     C29725   1.362   6.368   4.576  0.0789 -1.2374 -0.0096
  941MOL0     C29726   1.479   6.306   4.553 -0.8267  0.6134 -0.0804
  941MOL0     C29727   1.516   6.280   4.423 -0.1670  1.0683 -0.3901
  941MOL0     O29728   1.630   6.197   4.412  0.5221  0.1036  0.3142
  941MOL0     C29729   1.675   6.164   4.279  0.3959 -0.7066  0.6835
  941MOL0     C29730   1.768   6.048   4.303 -0.3878 -0.9729 -0.3134
  941MOL0     C29731   1.899   6.096   4.371 -0.0164  0.1147  0.4319
  941MOL0     C29732   1.989   5.972   4.378  0.2043 -0.4446 -0.1126
  941MOL0     C29733   2.134   6.013   4.428  0.0353 -0.1041  0.1333
  941MOL0     C29734   2.226   5.895   4.427  0.1521  0.0798  0.3354
  941MOL0     C29735   2.348   5.911   4.516  0.6746 -0.8315 -0.3317
  941MOL0     C29736   2.434   6.032   4.464 -0.2577  0.2790  0.7452
  941MOL0     N29737   2.569   6.034   4.529 -0.3812  0.2117 -0.0076
  941MOL0     C29738   2.647   6.146   4.561  0.4207 -0.2834 -0.3266
  941MOL0     C29739   2.757   6.093   4.622  0.4393 -0.7429 -0.0610
  941MOL0     C29740   2.881   6.177   4.668  0.3928 -0.1497 -0.2299
  941MOL0     C29741   3.008   6.094   4.691 -0.2776  0.4056  0.6159
  941MOL0     C29742   3.142   6.169   4.716  0.7912  0.3394 -0.7682
  941MOL0     C29743   3.203   6.235   4.608  0.5285  0.1022  0.8078
  941MOL0     O29744   3.321   6.297   4.658 -0.2103 -0.6193  0.2907
  941MOL0     C29745   3.424   6.350   4.580 -0.0183  0.3260 -0.2181
  941MOL0     C29746   3.420   6.351   4.440 -0.3071 -0.6286 -0.2039
  941MOL0     C29747   3.538   6.378   4.370 -0.3719  0.3560  0.0307
  941MOL0     C29748   3.524   6.374   4.226  1.1057  0.0050  0.0844
  941MOL0     C29749   3.669   6.411   4.426  1.1884  0.1011 -0.7129
  941MOL0     C29750   3.795   6.452   4.362 -0.1005  0.8068  0.7980
  941MOL0     O29751   3.897   6.467   4.447  0.2651  0.8426 -0.1522
  941MOL0     C29752   4.016   6.499   4.401 -0.5312  0.6162 -0.0802
  941MOL0     C29753   4.119   6.404   4.398 -0.0628  0.9420 -0.3060
  941MOL0     C29754   4.243   6.448   4.351 -0.9432  0.0076 -0.4288
  941MOL0     C29755   4.265   6.581   4.313  0.4155 -0.6221 -0.0271
  941MOL0     O29756   4.388   6.613   4.263  0.1737  1.0322 -0.3338
  941MOL0     C29757   4.446   6.739   4.310 -0.2358  0.3853  0.0731
  941MOL0     C29758   4.533   6.714   4.430 -0.5017  0.2962 -0.3548
  941MOL0     C29759   4.598   6.839   4.499 -0.2495  0.1801 -0.6225
  941MOL0     C29760   4.503   6.918   4.593 -0.3490  0.0468  0.2725
  941MOL0     C29761   4.591   6.982   4.708  0.6048 -0.4968 -0.5577
  941MOL0     C29762   4.498   7.041   4.811  0.5604  0.1444 -0.4206
  941MOL0     C29763   4.424   7.165   4.770  1.0384  0.0412  0.1629
  941MOL0     C29764   4.351   7.230   4.889 -0.9181  0.0522  0.1555
  941MOL0    Cl29765   4.223   7.137   4.957 -0.2136  0.0644 -0.1017
  941MOL0     C29766   4.163   6.674   4.325  0.5460 -0.4119 -0.1568
  941MOL0     C29767   4.037   6.633   4.361  0.0349 -0.9626  0.3818
  941MOL0     O29768   3.794   6.501   4.249  0.7775  0.2183  0.8207
  941MOL0     C29769   3.662   6.419   4.569 -0.6527  1.2039 -0.8771
  941MOL0     C29770   3.549   6.377   4.641  0.2915  0.7611 -0.6068
  941MOL0     N29771   2.751   5.959   4.618 -0.4236  0.0213  0.1464
  941MOL0     N29772   2.643   5.924   4.558 -0.1684  0.2264 -0.2273
  941MOL0     C29773   1.433   6.333   4.317 -1.1467  0.2041 -0.0805
  941MOL0     C29774   1.309   6.390   4.344 -0.1077  0.3766  0.6372
  941MOL0     C29775   0.905   6.467   4.479  0.6469  0.6414  0.4385
  941MOL0     C29776   0.884   6.364   4.574 -0.1350 -0.3217  0.4612
  941MOL0     C29777   0.760   6.345   4.621 -0.1141 -0.4230  0.3126
  941MOL0     C29778   0.648   6.422   4.586  0.3730  0.4609 -0.4987
  941MOL0     O29779   0.520   6.393   4.627 -0.0166 -0.6000 -0.5684
  941MOL0     C29780   0.470   6.262   4.642  0.3498  0.0027  0.9480
  941MOL0     C29781   0.321   6.261   4.617 -1.1164 -0.2684 -0.1186
  941MOL0     C29782   0.254   6.339   4.503 -0.7248 -0.2810 -0.4573
  941MOL0     C29783   0.316   6.309   4.365 -1.0493 -0.3100  0.3437
  941MOL0     C29784   0.265   6.405   4.265 -0.3904 -0.1280 -0.5116
  941MOL0     C29785   0.203   6.478   4.191 -1.0055 -0.0510  0.3219
  941MOL0     C29786   0.669   6.520   4.492  0.1175 -0.3295  0.2959
  941MOL0     C29787   0.791   6.543   4.434 -0.3979 -0.5491  0.6789
  941MOL0     C29788   0.784   6.664   4.337 -0.2787  0.7195 -0.0279
  941MOL0     H29789   1.330   6.372   4.680 -0.5494  1.1344 -0.2172
  941MOL0     H29790   1.535   6.264   4.636 -0.5408  0.7360 -0.2128
  941MOL0     H29791   1.725   6.250   4.231  0.3771 -1.4298 -0.6939
  941MOL0     H29792   1.588   6.127   4.223  0.0115 -1.2929  1.6611
  941MOL0     H29793   1.722   5.960   4.351 -2.8175  0.6118  0.4316
  941MOL0     H29794   1.785   6.023   4.198  2.8617 -1.4590  0.2301
  941MOL0     H29795   1.933   6.181   4.312 -0.2964  3.1679  4.2328
  941MOL0     H29796   1.880   6.128   4.474  2.4681  0.3580  0.8704
  941MOL0     H29797   1.954   5.898   4.450 -2.4100  2.0100  1.3797
  941MOL0     H29798   2.002   5.922   4.282  1.8327  0.4775 -0.4050
  941MOL0     H29799   2.115   6.054   4.527 -0.7743  0.5648 -0.2841
  941MOL0     H29800   2.174   6.097   4.371 -0.3066  1.8479  2.6146
  941MOL0     H29801   2.165   5.810   4.459 -1.7342  1.9577  2.0697
  941MOL0     H29802   2.261   5.871   4.326 -2.3097  1.0802 -0.8563
  941MOL0     H29803   2.405   5.817   4.508  0.2536 -1.2677  1.2731
  941MOL0     H29804   2.320   5.924   4.621  0.8459 -0.0477 -0.3773
  941MOL0     H29805   2.464   6.012   4.361  2.4909  0.5106  1.4400
  941MOL0     H29806   2.377   6.125   4.472  0.2387  0.6631 -0.0470
  941MOL0     H29807   2.624   6.251   4.543  0.3043 -0.4708 -1.2923
  941MOL0     H29808   2.852   6.228   4.760  1.3734  0.2919 -0.1545
  941MOL0     H29809   2.878   6.269   4.608 -0.0896  0.1406  0.2272
  941MOL0     H29810   3.004   6.019   4.771  2.2897 -0.4019  0.0882
  941MOL0     H29811   3.026   6.045   4.595 -0.3422  1.8770 -0.1719
  941MOL0     H29812   3.112   6.242   4.791 -1.0586  0.7540 -1.8517
  941MOL0     H29813   3.213   6.101   4.764  1.5269 -0.1641 -2.4882
  941MOL0     H29814   3.227   6.158   4.534 -2.2854 -1.3194  1.2364
  941MOL0     H29815   3.137   6.309   4.563  2.7368  1.7173  0.0366
  941MOL0     H29816   3.328   6.329   4.387 -1.5637  1.8446  0.7962
  941MOL0     H29817   3.513   6.478   4.193 -0.5149 -0.4084 -0.7658
  941MOL0     H29818   3.434   6.323   4.192 -0.5232  1.2501  2.2417
  941MOL0     H29819   3.613   6.329   4.181  0.8847 -0.3323 -0.0147
  941MOL0     H29820   4.104   6.302   4.432 -0.2293  0.2863 -2.2433
  941MOL0     H29821   4.335   6.390   4.354 -1.4593 -0.7852  1.6397
  941MOL0     H29822   4.494   6.786   4.224 -1.2319  1.0023 -0.1530
  941MOL0     H29823   4.371   6.813   4.337 -0.5016  1.4863 -3.2824
  941MOL0     H29824   4.464   6.678   4.506 -1.3391  1.0367 -0.7482
  941MOL0     H29825   4.619   6.651   4.404  1.0082  2.8544 -1.9992
  941MOL0     H29826   4.644   6.909   4.430 -3.5185 -1.2709 -4.6766
  941MOL0     H29827   4.680   6.793   4.555 -0.9757  0.5655  0.8133
  941MOL0     H29828   4.431   6.865   4.656  0.1535  2.8393  3.4558
  941MOL0     H29829   4.455   6.994   4.531  2.7499  0.0660 -2.3658
  941MOL0     H29830   4.646   6.901   4.757  2.3046 -0.4574 -2.2623
  941MOL0     H29831   4.664   7.054   4.668 -0.0791  0.6196  0.1671
  941MOL0     H29832   4.563   7.061   4.897  4.3628  1.2681 -3.2606
  941MOL0     H29833   4.430   6.959   4.832  1.3983 -1.2570 -2.7583
  941MOL0     H29834   4.351   7.143   4.692 -0.3967  0.7070  1.2823
  941MOL0     H29835   4.494   7.238   4.727 -0.7714  1.2372 -0.8761
  941MOL0     H29836   4.305   7.324   4.857 -2.3465 -0.7952 -0.3755
  941MOL0     H29837   4.422   7.250   4.970 -2.5216  2.3955  1.1123
  941MOL0     H29838   4.167   6.780   4.299 -2.9686  0.2266  1.2587
  941MOL0     H29839   3.962   6.707   4.387 -0.4885 -0.2956 -2.6681
  941MOL0     H29840   3.753   6.433   4.626 -0.0386 -0.0162 -1.5185
  941MOL0     H29841   3.547   6.366   4.749 -3.5339 -2.6808 -0.7671
  941MOL0     H29842   1.462   6.317   4.213 -1.1870  2.8965 -0.6040
  941MOL0     H29843   1.242   6.406   4.260 -0.3624 -0.1410  0.7412
  941MOL0     H29844   0.972   6.313   4.611  0.0392 -0.3698 -0.0150
  941MOL0     H29845   0.741   6.269   4.698 -1.4965 -0.7768 -0.3365
  941MOL0     H29846   0.517   6.184   4.582  0.3860 -0.7177  1.8803
  941MOL0     H29847   0.482   6.226   4.745 -0.4584 -2.5545  0.2119
  941MOL0     H29848   0.282   6.292   4.714  1.4341 -2.1354  1.6274
  941MOL0     H29849   0.291   6.155   4.615 -1.9491 -0.1755  3.0792
  941MOL0     H29850   0.148   6.316   4.502 -1.3547  1.6128  3.6837
  941MOL0     H29851   0.260   6.444   4.532  0.2543 -0.5245  0.2757
  941MOL0     H29852   0.292   6.207   4.334 -0.0452 -0.7927  1.1091
  941MOL0     H29853   0.424   6.320   4.365 -0.7742 -2.4137 -1.2739
  941MOL0     H29854   0.138   6.543   4.136 -0.8815  1.6426  2.0865
  941MOL0     H29855   0.583   6.581   4.469  0.2163 -0.1949  0.2788
  941MOL0     H29856   0.829   6.750   4.388 -0.4748 -0.1048  1.5932
  941MOL0     H29857   0.851   6.625   4.261  0.1127 -2.6355  1.8508
  941MOL0     H29858   0.682   6.679   4.299 -0.2807 -2.3734 -1.5834
  942MOL0     O29859   1.174   5.114   7.443  0.4928  0.0095  0.1143
  942MOL0     C29860   1.166   5.038   7.339 -0.1839  0.2601  0.3033
  942MOL0     O29861   1.271   4.996   7.269 -0.4190  0.1087  0.3111
  942MOL0     C29862   1.390   5.066   7.290 -0.1736 -0.5162  0.9658
  942MOL0     C29863   1.472   5.030   7.398 -0.0474 -0.4344  0.6336
  942MOL0     C29864   1.599   5.089   7.415  0.0496  0.4061 -0.6917
  942MOL0     C29865   1.652   5.186   7.329 -0.2515  0.6270  0.7232
  942MOL0     O29866   1.775   5.245   7.337  0.0799  0.0227 -0.6677
  942MOL0     C29867   1.870   5.180   7.422 -0.3242 -0.2284 -0.2334
  942MOL0     C29868   1.987   5.277   7.437  0.0285  1.0617 -0.1673
  942MOL0     C29869   2.063   5.295   7.306 -0.6801 -0.0644 -0.2780
  942MOL0     C29870   2.195   5.354   7.338 -0.1261 -0.4704  0.2375
  942MOL0     C29871   2.278   5.376   7.208  0.2135 -0.8232 -0.5405
  942MOL0     C29872   2.406   5.447   7.248 -0.1349  1.3415  0.7347
  942MOL0     C29873   2.515   5.344   7.282  0.5662 -0.0610  0.2733
  942MOL0     C29874   2.624   5.376   7.384  0.0687  0.1862  0.3337
  942MOL0     N29875   2.702   5.493   7.340  0.3679 -0.1800 -0.1704
  942MOL0     C29876   2.785   5.576   7.420  0.2660 -0.7463  0.1373
  942MOL0     C29877   2.840   5.660   7.330  0.3764  0.2162 -0.0862
  942MOL0     C29878   2.929   5.769   7.367 -0.1468  0.4905  0.0338
  942MOL0     C29879   2.849   5.902   7.368  0.1195 -0.1610  0.7202
  942MOL0     C29880   2.942   6.019   7.409 -0.4731 -1.0121 -0.5444
  942MOL0     C29881   2.875   6.160   7.402 -0.4765  0.0625  0.7364
  942MOL0     O29882   2.761   6.165   7.492  0.2080  0.7427  0.1636
  942MOL0     C29883   2.676   6.274   7.466  0.3883 -0.0062 -0.3859
  942MOL0     C29884   2.704   6.374   7.372  0.3257 -1.0880 -0.1230
  942MOL0     C29885   2.629   6.496   7.349  0.0987 -0.0514 -0.2601
  942MOL0     C29886   2.684   6.608   7.259 -0.5318  0.1628 -0.3719
  942MOL0     C29887   2.500   6.504   7.413  0.0947 -0.3063 -0.1708
  942MOL0     C29888   2.407   6.616   7.398  0.1041 -0.2692  0.6255
  942MOL0     O29889   2.392   6.656   7.263  0.0182  0.0973 -0.0972
  942MOL0     C29890   2.301   6.755   7.235  0.4711  0.1561  0.4203
  942MOL0     C29891   2.329   6.893   7.268  0.9062 -0.2554 -1.1329
  942MOL0     C29892   2.237   6.991   7.230 -0.6539  0.0162  0.2777
  942MOL0     C29893   2.131   6.960   7.150  0.2877 -0.7644 -0.0955
  942MOL0     O29894   2.054   7.057   7.092  0.2070  0.0197  0.7018
  942MOL0     C29895   2.113   7.188   7.067  0.2447 -0.1767  0.6630
  942MOL0     C29896   2.077   7.246   6.928  0.7186 -0.9112 -0.0847
  942MOL0     C29897   2.050   7.399   6.932  0.3632 -0.5473 -0.3276
  942MOL0     C29898   2.003   7.466   6.802  0.2174 -0.2519  0.1045
  942MOL0     C29899   1.987   7.615   6.831 -0.0722  0.1735  0.3570
  942MOL0     C29900   1.967   7.703   6.705 -1.4704  0.0435  0.4572
  942MOL0     C29901   1.881   7.818   6.745  0.7422  0.0426 -0.8408
  942MOL0     C29902   1.868   7.906   6.620  0.1772  0.1529 -0.2772
  942MOL0    Cl29903   1.769   7.833   6.489  0.2868 -0.2052  0.0738
  942MOL0     C29904   2.097   6.826   7.121  0.2195 -0.2645 -0.1041
  942MOL0     C29905   2.182   6.721   7.165  0.4802  0.0679  0.5051
  942MOL0     O29906   2.343   6.655   7.492  0.7484  0.5439  0.8229
  942MOL0     C29907   2.480   6.406   7.511 -0.0568 -0.0856 -0.3219
  942MOL0     C29908   2.562   6.294   7.541 -0.3515 -0.0535 -0.9516
  942MOL0     N29909   2.798   5.619   7.204 -0.0713 -0.5815  0.2048
  942MOL0     N29910   2.730   5.513   7.213 -0.4989  0.0299 -0.3325
  942MOL0     C29911   1.560   5.228   7.232  0.3274 -0.5883 -0.0521
  942MOL0     C29912   1.430   5.168   7.206  0.1574  0.3285 -0.3216
  942MOL0     C29913   1.030   4.979   7.322 -0.5319  0.0891  0.1721
  942MOL0     C29914   0.922   5.066   7.339 -0.5690 -0.8627  0.1759
  942MOL0     C29915   0.790   5.019   7.338 -0.5709  0.1953  0.1209
  942MOL0     C29916   0.763   4.887   7.302  0.0371  0.7342  0.3225
  942MOL0     O29917   0.630   4.845   7.290 -0.1983 -0.0333 -0.6572
  942MOL0     C29918   0.600   4.726   7.225 -0.5792 -0.3092  0.0428
  942MOL0     C29919   0.452   4.682   7.222  1.0028 -0.1446  0.2611
  942MOL0     C29920   0.361   4.754   7.121 -0.2791 -0.0852 -0.3112
  942MOL0     C29921   0.214   4.710   7.120  0.2328  0.0602  0.4821
  942MOL0     C29922   0.196   4.566   7.099 -0.3755  0.5309 -0.1630
  942MOL0     C29923   0.177   4.450   7.064  0.7213 -0.3515  1.2285
  942MOL0     C29924   0.871   4.800   7.268 -0.4086 -0.3624 -0.3390
  942MOL0     C29925   1.002   4.842   7.285  0.4706 -0.5898 -0.1849
  942MOL0     C29926   1.102   4.731   7.267  0.3122 -0.4960 -0.1333
  942MOL0     H29927   1.433   4.958   7.470 -0.2805  0.8125  1.7855
  942MOL0     H29928   1.674   5.049   7.482 -0.1114 -1.9175 -1.7959
  942MOL0     H29929   1.903   5.084   7.383 -1.6948 -0.2504 -1.4334
  942MOL0     H29930   1.827   5.162   7.522 -0.2539 -3.0083 -0.6307
  942MOL0     H29931   1.938   5.372   7.463 -1.1932  1.0586 -2.1903
  942MOL0     H29932   2.061   5.246   7.511 -0.3363  0.3654 -0.0842
  942MOL0     H29933   2.085   5.204   7.249 -1.8382  0.6334 -1.9281
  942MOL0     H29934   2.007   5.364   7.242 -1.3149  2.8305  3.0502
  942MOL0     H29935   2.182   5.444   7.400 -0.6623 -1.5301  1.7147
  942MOL0     H29936   2.251   5.284   7.401 -0.1767  0.3928  1.2756
  942MOL0     H29937   2.218   5.449   7.152  0.8544  1.0734  1.1458
  942MOL0     H29938   2.300   5.283   7.154 -0.8430 -1.8329  0.7169
  942MOL0     H29939   2.441   5.514   7.169  2.0041 -1.9017 -1.2727
  942MOL0     H29940   2.392   5.514   7.334 -2.4127  2.7319 -0.6201
  942MOL0     H29941   2.565   5.316   7.189 -3.1566 -1.2020 -1.5690
  942MOL0     H29942   2.460   5.257   7.316 -2.7924  1.1313 -1.6175
  942MOL0     H29943   2.566   5.401   7.473  0.5535 -1.6097  1.1841
  942MOL0     H29944   2.688   5.289   7.399 -1.3857 -1.1480 -0.8790
  942MOL0     H29945   2.806   5.584   7.526  3.4806  1.7232 -0.5296
  942MOL0     H29946   3.022   5.770   7.309  0.1391  2.0200  0.4784
  942MOL0     H29947   2.976   5.747   7.463  3.1521  0.1056 -1.5041
  942MOL0     H29948   2.806   5.917   7.269 -0.6719 -3.5659  0.3964
  942MOL0     H29949   2.764   5.883   7.435 -1.7187 -0.3861 -1.5523
  942MOL0     H29950   2.974   5.998   7.511 -0.1036 -4.2146 -1.2238
  942MOL0     H29951   3.030   6.030   7.345 -0.6135  1.1805 -0.4338
  942MOL0     H29952   2.939   6.245   7.427 -1.4279  0.7119  1.0064
  942MOL0     H29953   2.844   6.171   7.298  1.3011  2.4740  0.3560
  942MOL0     H29954   2.799   6.375   7.319  1.2512  0.1937  1.4617
  942MOL0     H29955   2.792   6.607   7.240 -0.6617 -2.2886 -1.4041
  942MOL0     H29956   2.653   6.709   7.289  0.2544  0.5611 -0.8527
  942MOL0     H29957   2.647   6.596   7.157 -0.1137 -0.3416 -0.4712
  942MOL0     H29958   2.422   6.910   7.322  0.7820  1.0748 -1.3089
  942MOL0     H29959   2.269   7.090   7.260  3.4641 -1.5002  1.5940
  942MOL0     H29960   2.078   7.255   7.146  0.1052  0.0532  0.4096
  942MOL0     H29961   2.222   7.183   7.068  0.1985 -1.5453  0.8446
  942MOL0     H29962   2.153   7.219   6.855  0.2998 -1.9706 -0.1409
  942MOL0     H29963   1.986   7.198   6.890  0.1181  2.6776 -3.8776
  942MOL0     H29964   2.138   7.458   6.958 -0.8628  1.4860 -0.5177
  942MOL0     H29965   1.971   7.416   7.006  1.0343 -1.3549  0.5965
  942MOL0     H29966   1.911   7.429   6.755 -0.3710 -1.3215  1.9802
  942MOL0     H29967   2.077   7.451   6.723 -0.1414 -2.8015  0.1418
  942MOL0     H29968   1.897   7.630   6.893 -1.4525  0.5403 -1.6449
  942MOL0     H29969   2.069   7.660   6.887  0.1157 -0.1449  0.3399
  942MOL0     H29970   1.925   7.651   6.618 -2.0620  0.6414  0.3735
  942MOL0     H29971   2.062   7.745   6.669 -0.4618 -1.8097  0.8544
  942MOL0     H29972   1.936   7.872   6.823  2.7442 -0.8687 -1.5631
  942MOL0     H29973   1.779   7.799   6.782  0.4236  2.7223 -0.1542
  942MOL0     H29974   1.963   7.939   6.576  0.0165  0.2755 -0.5327
  942MOL0     H29975   1.817   7.997   6.654 -0.5939 -0.6258  0.6801
  942MOL0     H29976   2.014   6.795   7.059  0.2957  0.0801 -0.3818
  942MOL0     H29977   2.172   6.619   7.131  3.5350 -0.7763  1.8670
  942MOL0     H29978   2.391   6.413   7.573  2.3984  1.8392  3.3202
  942MOL0     H29979   2.533   6.233   7.627 -0.7704 -0.2649 -1.2390
  942MOL0     H29980   1.587   5.310   7.168 -0.6062 -1.1095 -1.1411
  942MOL0     H29981   1.372   5.206   7.122  0.3828  0.6681 -0.3241
  942MOL0     H29982   0.940   5.167   7.374 -1.9842  0.3512 -2.3232
  942MOL0     H29983   0.712   5.089   7.364 -1.2223 -0.4775  0.0082
  942MOL0     H29984   0.646   4.724   7.125 -2.1595 -2.3369 -0.7314
  942MOL0     H29985   0.652   4.649   7.284 -0.0477 -0.8512 -1.0941
  942MOL0     H29986   0.405   4.696   7.320 -1.6284 -0.8250 -0.7905
  942MOL0     H29987   0.434   4.574   7.213 -1.7578  0.2435  0.2619
  942MOL0     H29988   0.380   4.861   7.135 -0.3238  0.3341 -2.8878
  942MOL0     H29989   0.402   4.722   7.025 -2.0115  1.3041 -1.5868
  942MOL0     H29990   0.163   4.752   7.033  2.0121 -1.4029 -1.3678
  942MOL0     H29991   0.163   4.749   7.210 -3.3168 -2.4880 -0.2035
  942MOL0     H29992   0.164   4.354   7.018 -0.6813  1.0222 -1.4780
  942MOL0     H29993   0.850   4.699   7.235 -1.2735 -1.3105  2.7340
  942MOL0     H29994   1.195   4.774   7.229 -1.4688  0.9609 -3.2532
  942MOL0     H29995   1.126   4.690   7.366 -0.0967  1.7465  0.9469
  942MOL0     H29996   1.066   4.655   7.197  0.0653  0.9023 -1.5726
  943MOL0     O29997   0.113   8.480   9.832  0.6957 -0.1333 -0.0006
  943MOL0     C29998   0.080   8.397   9.925  0.3795 -0.8311  0.2304
  943MOL0     O29999   0.170   8.335   9.996  0.2532 -0.6345 -0.0910
  943MOL0     C30000   0.308   8.357   9.964  0.6078  0.0183 -0.3334
  943MOL0     C30001   0.365   8.485   9.951 -0.2165  0.5155  0.3254
  943MOL0     C30002   0.503   8.496   9.925 -0.3890 -0.5617  0.9368
  943MOL0     C30003   0.582   8.378   9.909  0.7242  0.3251 -0.2194
  943MOL0     O30004   0.712   8.400   9.881 -1.0252  0.2223 -0.0717
  943MOL0     C30005   0.789   8.284   9.825  0.0049 -1.0770  0.0804
  943MOL0     C30006   0.925   8.336   9.767  0.1458 -0.1862  0.3592
  943MOL0     C30007   1.048   8.336   9.852  0.6502  0.0960  0.0794
  943MOL0     C30008   1.170   8.349   9.773 -0.0828 -0.3230  0.6482
  943MOL0     C30009   1.295   8.376   9.857  0.0149  0.6663  0.4219
  943MOL0     C30010   1.410   8.433   9.770 -0.6350  1.1498 -0.0317
  943MOL0     C30011   1.539   8.459   9.851  0.1843 -0.7440 -0.3231
  943MOL0     C30012   1.599   8.591   9.817  0.2869 -0.2600 -0.6691
  943MOL0     N30013   1.737   8.596   9.864 -0.0129 -0.9320  0.7286
  943MOL0     C30014   1.849   8.563   9.796 -0.3389 -0.4923 -0.6398
  943MOL0     C30015   1.951   8.575   9.882 -0.6948  0.3948 -0.0269
  943MOL0     C30016   2.099   8.577   9.852  1.1456  0.3847  0.4752
  943MOL0     C30017   2.149   8.716   9.836 -0.9054  0.1359  0.0593
  943MOL0     C30018   2.166   8.777   9.694  0.2068  0.0037 -0.0299
  943MOL0     C30019   2.269   8.894   9.693  0.1169 -0.2618 -0.2483
  943MOL0     O30020   2.223   9.016   9.758 -0.3394  0.1828  0.2226
  943MOL0     C30021   2.329   9.085   9.813  0.1622  0.4077  0.6889
  943MOL0     C30022   2.351   9.221   9.784  0.0701 -0.2015 -0.0014
  943MOL0     C30023   2.463   9.297   9.832  0.3083  0.4463 -0.5102
  943MOL0     C30024   2.484   9.440   9.797  0.3844  0.0625  0.0112
  943MOL0     C30025   2.548   9.228   9.928 -0.5554  0.5584 -0.3419
  943MOL0     C30026   2.674   9.298   9.977 -0.5702  0.0606  0.4184
  943MOL0     O30027   2.746   9.374   9.884  0.0272  0.3857 -0.0097
  943MOL0     C30028   2.841   9.458   9.928 -0.6301  0.4992 -1.3683
  943MOL0     C30029   2.975   9.424   9.948  0.1854 -0.5924  0.2540
  943MOL0     C30030   3.065   9.515   9.984 -0.0046  0.2305 -0.4143
  943MOL0     C30031   3.033   9.646  10.014 -0.4815  0.0923 -0.9286
  943MOL0     O30032   3.137   9.736  10.046 -0.5185 -0.4491 -0.4139
  943MOL0     C30033   3.109   9.798  10.171 -0.1788 -0.1269 -0.5562
  943MOL0     C30034   3.237   9.857  10.236  0.4352  0.3556 -0.3693
  943MOL0     C30035   3.312   9.965  10.168  0.0701 -0.5292 -0.2102
  943MOL0     C30036   3.425   9.902  10.078  0.0122  0.1251 -0.4015
  943MOL0     C30037   3.507  10.016  10.008  0.2810  0.1494 -0.1096
  943MOL0     C30038   3.556  10.126  10.110 -1.2396 -0.5955  0.2214
  943MOL0     C30039   3.641  10.223  10.025 -0.6512  0.3560 -0.9944
  943MOL0     C30040   3.707  10.331  10.102 -0.0278 -0.0832 -0.7083
  943MOL0    Cl30041   3.838  10.399  10.012 -0.0378 -0.2388  0.2920
  943MOL0     C30042   2.892   9.678  10.004 -0.5953  0.1771  0.6781
  943MOL0     C30043   2.796   9.587   9.960 -0.5480  0.0508  0.0954
  943MOL0     O30044   2.700   9.294  10.098 -0.2400  0.0137 -0.0282
  943MOL0     C30045   2.517   9.099   9.975  0.9149  0.1637  0.5424
  943MOL0     C30046   2.408   9.026   9.917  0.7492 -0.0011  0.3411
  943MOL0     N30047   1.901   8.592  10.011 -1.2967 -0.6781  0.3401
  943MOL0     N30048   1.774   8.610   9.993 -0.3061  0.1924 -0.3162
  943MOL0     C30049   0.526   8.250   9.924  0.2294 -0.2999 -0.0110
  943MOL0     C30050   0.386   8.246   9.948 -0.6459  0.3844 -0.0071
  943MOL0     C30051  -0.064   8.363   9.943  0.5387 -0.8418 -0.0507
  943MOL0     C30052  -0.096   8.273  10.039 -0.3682  0.3343 -0.5750
  943MOL0     C30053  -0.227   8.224  10.053  0.3605 -0.4254  0.1304
  943MOL0     C30054  -0.326   8.264   9.969 -0.2712  0.2356  0.8306
  943MOL0     O30055  -0.461   8.209   9.962  0.4262  0.3207  0.0669
  943MOL0     C30056  -0.545   8.267  10.053 -0.0810  0.8659 -0.0751
  943MOL0     C30057  -0.695   8.242  10.021 -0.2952  0.0258 -0.0627
  943MOL0     C30058  -0.733   8.104  10.075 -0.0681 -0.1706  0.8544
  943MOL0     C30059  -0.885   8.076  10.093  0.2079 -0.0097 -0.3429
  943MOL0     C30060  -0.972   8.116   9.981  0.0930 -0.0612 -0.3611
  943MOL0     C30061  -1.033   8.144   9.881 -0.5101  0.0120  0.1811
  943MOL0     C30062  -0.301   8.365   9.886 -0.1123 -0.2418  0.4829
  943MOL0     C30063  -0.170   8.420   9.872 -0.4409  0.4101 -0.1469
  943MOL0     C30064  -0.168   8.531   9.770 -0.1581  0.0054  0.1043
  943MOL0     H30065   0.308   8.577   9.941 -1.8231 -0.7026 -3.4332
  943MOL0     H30066   0.543   8.594   9.900  0.2138 -1.4048 -1.6837
  943MOL0     H30067   0.729   8.235   9.747 -1.1741 -1.0062  0.9086
  943MOL0     H30068   0.815   8.210   9.902 -1.3207 -3.7036 -1.8224
  943MOL0     H30069   0.950   8.280   9.676 -0.2956  1.1773 -0.6279
  943MOL0     H30070   0.902   8.440   9.742 -0.4673  0.3821  2.9645
  943MOL0     H30071   1.038   8.424   9.916 -0.4556 -1.1020  1.6369
  943MOL0     H30072   1.053   8.247   9.914 -0.2848 -0.3646 -0.4762
  943MOL0     H30073   1.181   8.270   9.699  1.7840  0.3254  0.1851
  943MOL0     H30074   1.162   8.447   9.724  0.2478  1.2119  3.4430
  943MOL0     H30075   1.316   8.291   9.923 -1.6649 -1.3911 -1.5314
  943MOL0     H30076   1.258   8.458   9.919 -1.0637  1.2674 -0.9729
  943MOL0     H30077   1.434   8.371   9.683 -0.6584 -1.5583  1.7623
  943MOL0     H30078   1.367   8.522   9.723  0.3967  0.4963 -2.3192
  943MOL0     H30079   1.606   8.374   9.832  0.3529 -0.7678  0.3424
  943MOL0     H30080   1.508   8.458   9.956 -4.1044  1.2743 -1.3479
  943MOL0     H30081   1.588   8.587   9.708  0.2853  1.1029 -0.7393
  943MOL0     H30082   1.539   8.676   9.852 -0.8505 -1.7841  1.2420
  943MOL0     H30083   1.852   8.558   9.687 -1.7623  1.3401 -0.8222
  943MOL0     H30084   2.125   8.524   9.760  4.0124 -0.1114  1.4510
  943MOL0     H30085   2.154   8.526   9.932 -1.2672  1.2823  2.8553
  943MOL0     H30086   2.092   8.788   9.894  1.2607  1.5229  0.6050
  943MOL0     H30087   2.240   8.710   9.896 -0.8492  2.7984  0.3423
  943MOL0     H30088   2.214   8.704   9.629 -0.0265 -4.2294  4.0529
  943MOL0     H30089   2.072   8.817   9.656  0.9066  0.5457 -1.2636
  943MOL0     H30090   2.358   8.855   9.742 -0.1431  0.1256  0.5401
  943MOL0     H30091   2.282   8.910   9.586 -0.2658 -0.7999 -0.3821
  943MOL0     H30092   2.288   9.270   9.711  1.8695  0.1568 -1.3749
  943MOL0     H30093   2.478   9.513   9.878 -0.9214 -0.0558  0.0487
  943MOL0     H30094   2.395   9.465   9.738 -2.8836  1.5467  4.9229
  943MOL0     H30095   2.573   9.460   9.738 -1.2538  2.3488 -1.8801
  943MOL0     H30096   3.010   9.322   9.938  1.6993 -0.0354 -0.4626
  943MOL0     H30097   3.165   9.473   9.984  0.0461  0.2585 -2.5224
  943MOL0     H30098   3.042   9.883  10.154  2.6321  2.7426  1.7269
  943MOL0     H30099   3.058   9.730  10.240 -3.3071  0.9171 -1.6475
  943MOL0     H30100   3.211   9.900  10.332  0.5812  0.1220 -0.2244
  943MOL0     H30101   3.295   9.766  10.253 -1.0074 -0.9010 -1.7812
  943MOL0     H30102   3.366  10.014  10.250  1.3695 -0.6359 -0.9779
  943MOL0     H30103   3.253  10.042  10.118 -2.0022 -1.0921  1.2294
  943MOL0     H30104   3.383   9.831  10.007  0.1138 -0.0514 -0.2849
  943MOL0     H30105   3.493   9.843  10.140  1.5992 -0.0424 -2.2089
  943MOL0     H30106   3.596   9.971   9.961  1.1212  0.0267  1.5067
  943MOL0     H30107   3.446  10.066   9.933  1.3859 -0.5538 -1.5356
  943MOL0     H30108   3.613  10.084  10.193 -1.0509  2.6418  1.8785
  943MOL0     H30109   3.471  10.176  10.158 -0.2379 -1.6855  3.4079
  943MOL0     H30110   3.581  10.280   9.954 -1.6396  1.4046  0.6229
  943MOL0     H30111   3.730  10.177   9.983  1.6473  2.3657  1.3114
  943MOL0     H30112   3.743  10.291  10.198  0.3732  0.6680 -0.5433
  943MOL0     H30113   3.642  10.416  10.125  0.9430  0.2459  0.9912
  943MOL0     H30114   2.854   9.779  10.014  2.5484  1.7200 -1.1789
  943MOL0     H30115   2.699   9.632   9.944 -0.4983 -0.6998 -3.0850
  943MOL0     H30116   2.583   9.054  10.049  2.5465 -0.4760 -1.2164
  943MOL0     H30117   2.387   8.924   9.948  0.0662  0.0089 -0.0770
  943MOL0     H30118   0.597   8.169   9.913  2.5021  1.4371  1.0781
  943MOL0     H30119   0.340   8.148   9.959 -0.9886  0.2570 -2.1891
  943MOL0     H30120  -0.023   8.226  10.104 -2.0940 -3.3478 -1.0636
  943MOL0     H30121  -0.249   8.154  10.133 -1.3501 -0.5191 -0.3650
  943MOL0     H30122  -0.519   8.225  10.151  1.8970  1.4074 -0.3261
  943MOL0     H30123  -0.536   8.376  10.056 -1.2355  0.9650  0.5041
  943MOL0     H30124  -0.715   8.255   9.914  1.5194  1.8094 -0.2317
  943MOL0     H30125  -0.750   8.317  10.077  0.8016 -0.7676  2.1902
  943MOL0     H30126  -0.684   8.024  10.019  1.7610  0.9276  0.7792
  943MOL0     H30127  -0.692   8.100  10.177  0.6377  0.0174  0.5894
  943MOL0     H30128  -0.923   8.128  10.181 -2.7539  0.5591 -1.8559
  943MOL0     H30129  -0.900   7.967  10.100 -0.9823  0.0467 -1.6279
  943MOL0     H30130  -1.076   8.163   9.785 -0.5787 -0.5552  0.0924
  943MOL0     H30131  -0.383   8.392   9.822  0.4456  1.1026  0.2998
  943MOL0     H30132  -0.130   8.626   9.809 -1.9604  0.7852  0.0635
  943MOL0     H30133  -0.105   8.487   9.692  0.5355 -0.6495  1.0086
  943MOL0     H30134  -0.268   8.548   9.730  0.9188  2.0836 -2.0037
  944MOL0     O30135   0.211   1.589  10.463  0.0558 -0.7911  0.4284
  944MOL0     C30136   0.182   1.707  10.444 -0.3074  0.6464 -0.2768
  944MOL0     O30137   0.271   1.800  10.398  0.1087  1.1266 -0.0647
  944MOL0     C30138   0.391   1.772  10.334  0.4906  0.0052  0.9610
  944MOL0     C30139   0.412   1.659  10.247 -0.1636 -0.0707 -0.0756
  944MOL0     C30140   0.538   1.657  10.176  0.5459 -1.0461  0.4451
  944MOL0     C30141   0.630   1.759  10.178  0.2006 -0.5271  0.0383
  944MOL0     O30142   0.749   1.771  10.105  0.0356  0.2699 -0.1653
  944MOL0     C30143   0.763   1.698   9.982  0.6655 -0.8379 -0.7698
  944MOL0     C30144   0.894   1.725   9.913 -0.3486  0.1193 -0.1329
  944MOL0     C30145   1.021   1.659   9.976  0.5738  0.0774 -0.3449
  944MOL0     C30146   1.147   1.711   9.914 -1.0548 -0.7899 -0.3449
  944MOL0     C30147   1.275   1.649   9.977 -0.3188 -0.0222 -1.1383
  944MOL0     C30148   1.302   1.696  10.123  0.1221  0.0758 -0.3933
  944MOL0     C30149   1.446   1.670  10.175 -0.7251  0.1378 -0.0124
  944MOL0     C30150   1.486   1.524  10.149 -0.0691  0.5178  0.4204
  944MOL0     N30151   1.601   1.479  10.223 -1.0755 -0.2936  0.4659
  944MOL0     C30152   1.702   1.558  10.264 -1.0812  0.1397 -0.2506
  944MOL0     C30153   1.798   1.473  10.314 -0.1728  0.1725 -0.0489
  944MOL0     C30154   1.923   1.517  10.378 -0.6844  0.3814 -0.2035
  944MOL0     C30155   1.899   1.587  10.520 -0.7419 -0.8714  0.9670
  944MOL0     C30156   1.891   1.503  10.649  0.6274 -0.3731  0.3228
  944MOL0     C30157   2.021   1.432  10.679 -0.2459  0.3086  0.1677
  944MOL0     O30158   2.116   1.537  10.693  0.1793  0.2392  0.0770
  944MOL0     C30159   2.242   1.503  10.658  0.2609  0.3680  0.1218
  944MOL0     C30160   2.298   1.375  10.691  0.3208  0.5334  0.4976
  944MOL0     C30161   2.424   1.342  10.644  0.2369  0.1948  0.6436
  944MOL0     C30162   2.464   1.198  10.687  0.0572 -0.1237 -0.5212
  944MOL0     C30163   2.504   1.445  10.580  0.9668  1.0724  0.4612
  944MOL0     C30164   2.649   1.419  10.537  0.5369 -1.0285  0.8296
  944MOL0     O30165   2.720   1.537  10.508 -0.5980 -0.4894  0.3224
  944MOL0     C30166   2.842   1.537  10.438  0.1218  0.8333 -0.0725
  944MOL0     C30167   2.893   1.658  10.398 -1.1336 -0.7607  1.0471
  944MOL0     C30168   3.028   1.665  10.357 -0.3561  0.2753  0.9371
  944MOL0     C30169   3.110   1.549  10.343  1.3359 -0.8494  0.0352
  944MOL0     O30170   3.235   1.568  10.296  0.2953 -0.3398 -0.2890
  944MOL0     C30171   3.334   1.490  10.361  0.9531 -0.7484  0.6200
  944MOL0     C30172   3.464   1.535  10.289 -0.0085  0.2575 -0.2560
  944MOL0     C30173   3.590   1.571  10.382  0.7737 -0.1619  0.0280
  944MOL0     C30174   3.582   1.705  10.450  0.5112 -0.1868  0.7181
  944MOL0     C30175   3.721   1.738  10.519  0.1282 -0.1170 -0.1278
  944MOL0     C30176   3.829   1.792  10.429 -0.6863  0.0216  0.6607
  944MOL0     C30177   3.949   1.853  10.508  1.6468  0.6067 -0.1368
  944MOL0     C30178   4.032   1.949  10.422  0.1350  0.1159 -0.1950
  944MOL0    Cl30179   4.073   1.860  10.271  0.0899 -0.0817  0.1140
  944MOL0     C30180   3.058   1.426  10.376  0.0770 -0.2307  0.8573
  944MOL0     C30181   2.924   1.419  10.419 -0.0647  0.3072 -0.4814
  944MOL0     O30182   2.691   1.304  10.552  0.7375  0.5042  0.2118
  944MOL0     C30183   2.447   1.566  10.551 -0.1554  0.3697 -0.0145
  944MOL0     C30184   2.311   1.588  10.576 -0.3468 -0.2824  0.5541
  944MOL0     N30185   1.752   1.340  10.308 -0.4957  0.3951 -0.1507
  944MOL0     N30186   1.634   1.350  10.255  0.2212  0.9397 -0.0412
  944MOL0     C30187   0.601   1.872  10.259  0.0347  0.3683 -0.2993
  944MOL0     C30188   0.479   1.885  10.327 -0.3286  0.1915  0.1371
  944MOL0     C30189   0.038   1.759  10.475 -0.1815  1.0064  0.5779
  944MOL0     C30190  -0.048   1.684  10.557  0.3190  1.3785 -0.1545
  944MOL0     C30191  -0.185   1.716  10.576 -0.0862 -0.0525  0.5280
  944MOL0     C30192  -0.234   1.839  10.525 -0.6203  0.3397  0.7199
  944MOL0     O30193  -0.358   1.893  10.553  0.8780 -0.4723  0.1557
  944MOL0     C30194  -0.457   1.823  10.629 -0.0871  0.1486 -0.0681
  944MOL0     C30195  -0.575   1.911  10.623 -0.4497  0.5129  0.2627
  944MOL0     C30196  -0.682   1.830  10.704 -0.4205 -0.0902  0.5202
  944MOL0     C30197  -0.791   1.921  10.757  1.5831 -0.6579  0.9233
  944MOL0     C30198  -0.867   1.992  10.645 -0.3178  0.6032 -1.3333
  944MOL0     C30199  -0.909   2.060  10.560  0.9661  0.5015 -0.6077
  944MOL0     C30200  -0.143   1.911  10.447  0.7915 -0.4179 -1.0498
  944MOL0     C30201  -0.009   1.881  10.435  0.3484  0.3519 -0.4016
  944MOL0     C30202   0.068   1.988  10.351 -0.0993  0.0800 -0.4014
  944MOL0     H30203   0.342   1.576  10.258 -2.3802  1.7837  0.5360
  944MOL0     H30204   0.556   1.577  10.105  1.7725  0.1661 -0.6634
  944MOL0     H30205   0.686   1.738   9.915  0.6450 -0.5756 -0.5912
  944MOL0     H30206   0.736   1.594   9.998  0.2490 -0.4991  0.9113
  944MOL0     H30207   0.887   1.714   9.804  1.0086 -2.2345 -0.0341
  944MOL0     H30208   0.920   1.830   9.935  1.0361 -0.3634  0.6644
  944MOL0     H30209   1.030   1.685  10.082  2.8846 -1.8498  0.0135
  944MOL0     H30210   1.008   1.551   9.968 -2.5942  0.2956  0.6210
  944MOL0     H30211   1.146   1.686   9.807 -2.7614  1.1579 -0.8475
  944MOL0     H30212   1.156   1.820   9.925  0.1496 -0.6215 -2.4210
  944MOL0     H30213   1.361   1.688   9.922  2.0141 -1.7795  1.0430
  944MOL0     H30214   1.270   1.539   9.971  0.7618 -0.1183 -0.5195
  944MOL0     H30215   1.270   1.799  10.139  0.7266  0.5606 -2.0768
  944MOL0     H30216   1.230   1.635  10.178  0.6306 -0.1330  0.0543
  944MOL0     H30217   1.447   1.690  10.282  0.6678  2.0614 -0.3376
  944MOL0     H30218   1.519   1.740  10.134  1.4704 -2.2862 -0.5116
  944MOL0     H30219   1.399   1.457  10.154 -0.8658  1.1314 -2.9286
  944MOL0     H30220   1.506   1.507  10.043  2.5395  1.6475  0.6494
  944MOL0     H30221   1.708   1.667  10.260  1.0824  0.0632 -0.2817
  944MOL0     H30222   1.980   1.583  10.312  3.0759 -1.3622  0.9729
  944MOL0     H30223   1.987   1.428  10.385  0.5901  1.2495 -0.3403
  944MOL0     H30224   1.985   1.652  10.538 -2.0207  2.2435 -2.7445
  944MOL0     H30225   1.808   1.648  10.512  0.1845  0.6415  1.6143
  944MOL0     H30226   1.876   1.573  10.731  2.0572  1.0074 -0.5371
  944MOL0     H30227   1.814   1.426  10.648  1.8069 -1.6305  1.5497
  944MOL0     H30228   2.017   1.363  10.763  0.0189 -1.6785 -1.3888
  944MOL0     H30229   2.040   1.375  10.588  0.1148  0.2405  0.2817
  944MOL0     H30230   2.235   1.298  10.734  1.5807 -1.0654 -0.4068
  944MOL0     H30231   2.476   1.141  10.595  0.7153  1.3599 -1.3944
  944MOL0     H30232   2.390   1.151  10.753 -2.1516 -0.1336 -2.8677
  944MOL0     H30233   2.564   1.196  10.732  0.2925  1.6752 -0.8927
  944MOL0     H30234   2.830   1.746  10.404 -3.1375 -1.9511 -0.9661
  944MOL0     H30235   3.065   1.764  10.334 -1.2044  0.4147  0.1020
  944MOL0     H30236   3.327   1.518  10.467 -2.1483  2.4170 -0.2546
  944MOL0     H30237   3.333   1.382  10.344 -0.2290 -0.4950 -1.1510
  944MOL0     H30238   3.501   1.459  10.219 -0.8548  0.1579 -0.6025
  944MOL0     H30239   3.449   1.632  10.241  1.2642  1.3863  1.4801
  944MOL0     H30240   3.674   1.579  10.312  1.7764 -1.4548  1.0481
  944MOL0     H30241   3.615   1.495  10.457 -0.2290 -1.1310 -0.5766
  944MOL0     H30242   3.502   1.704  10.524  0.7541  1.0995  1.0178
  944MOL0     H30243   3.559   1.789  10.384 -0.9157 -1.8397 -1.0187
  944MOL0     H30244   3.707   1.800  10.608  1.4338 -1.0356  0.7648
  944MOL0     H30245   3.768   1.652  10.568  0.9791  2.2381  3.6055
  944MOL0     H30246   3.791   1.871  10.365  0.6260 -0.4220 -0.7105
  944MOL0     H30247   3.865   1.709  10.367 -1.5607 -2.8467  3.6352
  944MOL0     H30248   4.001   1.774  10.562 -0.6786 -0.8659  0.0854
  944MOL0     H30249   3.910   1.922  10.584  2.0042  0.4114  0.2273
  944MOL0     H30250   4.115   1.979  10.487 -0.0356 -0.8123  0.4753
  944MOL0     H30251   3.974   2.039  10.400 -0.0477  0.4600  1.5106
  944MOL0     H30252   3.106   1.330  10.363 -2.0995 -1.0194 -2.8346
  944MOL0     H30253   2.901   1.319  10.453 -1.2758  0.5765 -0.4573
  944MOL0     H30254   2.497   1.641  10.490 -0.0751 -1.7589 -2.7949
  944MOL0     H30255   2.267   1.684  10.553  1.9688  1.2671  2.1215
  944MOL0     H30256   0.683   1.942  10.258 -0.8501  1.5246  2.0483
  944MOL0     H30257   0.464   1.979  10.380  3.0719 -0.1550  1.9724
  944MOL0     H30258  -0.014   1.588  10.595 -1.5672  1.1824  1.1721
  944MOL0     H30259  -0.251   1.647  10.628 -0.9740  0.5300  0.1965
  944MOL0     H30260  -0.486   1.729  10.580 -1.0752  0.5254 -0.2368
  944MOL0     H30261  -0.437   1.813  10.736 -1.4863  1.3402  0.3415
  944MOL0     H30262  -0.612   1.904  10.521 -0.1054 -0.1670  0.1775
  944MOL0     H30263  -0.567   2.015  10.658 -3.1662  0.9137 -0.0962
  944MOL0     H30264  -0.729   1.751  10.645  0.3976 -2.0220  2.3496
  944MOL0     H30265  -0.649   1.777  10.794 -0.3596  3.1562  2.5827
  944MOL0     H30266  -0.764   1.999  10.828  0.1226 -1.1888  2.1317
  944MOL0     H30267  -0.875   1.869  10.805 -2.3927  3.2023 -1.0985
  944MOL0     H30268  -0.939   2.121  10.477 -0.9516  1.5468  0.7614
  944MOL0     H30269  -0.194   1.995  10.401 -0.5195 -0.9862 -0.7096
  944MOL0     H30270   0.092   1.951  10.251  0.0978 -0.4341 -0.1632
  944MOL0     H30271   0.005   2.077  10.340 -3.1793 -1.8545  0.2951
  944MOL0     H30272   0.150   2.013  10.418  0.2568 -1.2567 -0.3276
  945MOL0     O30273   5.905   0.102   9.085  0.6295 -0.6811 -0.4985
  945MOL0     C30274   5.873   0.216   9.043  0.3948  0.2747 -0.7218
  945MOL0     O30275   5.949   0.290   8.958  0.0646 -0.5272  0.6124
  945MOL0     C30276   6.054   0.227   8.905  0.1274  0.3835 -0.2855
  945MOL0     C30277   6.176   0.261   8.964  0.3687 -0.1561  0.8794
  945MOL0     C30278   6.289   0.220   8.912 -0.0355  0.3492 -0.4785
  945MOL0     C30279   6.286   0.135   8.804 -0.0127 -0.2712  0.0986
  945MOL0     O30280   6.400   0.100   8.744  0.2208 -0.2413  0.2303
  945MOL0     C30281   6.517   0.071   8.820  0.1462 -0.1134 -0.1092
  945MOL0     C30282   6.603  -0.023   8.739 -0.2063 -0.2741 -0.1590
  945MOL0     C30283   6.525  -0.152   8.688  0.1183 -0.3990 -0.5850
  945MOL0     C30284   6.619  -0.246   8.609 -0.5395 -0.4507  0.1604
  945MOL0     C30285   6.544  -0.374   8.586  0.3977 -0.4206 -0.3396
  945MOL0     C30286   6.602  -0.483   8.498  0.3240 -0.8290  0.3220
  945MOL0     C30287   6.536  -0.619   8.517 -1.2937  0.1334 -0.4630
  945MOL0     C30288   6.586  -0.716   8.415 -0.7621  0.5547  0.5300
  945MOL0     N30289   6.738  -0.731   8.408 -0.0184 -0.0470 -0.3651
  945MOL0     C30290   6.811  -0.764   8.520  0.3389  1.1367  0.2373
  945MOL0     C30291   6.940  -0.799   8.476  0.2042 -0.8173 -0.8349
  945MOL0     C30292   7.056  -0.843   8.566 -0.1514  0.1371 -0.6866
  945MOL0     C30293   7.136  -0.721   8.612 -0.3176 -0.2127  0.6149
  945MOL0     C30294   7.251  -0.753   8.718  0.4385 -0.0190  0.1200
  945MOL0     C30295   7.351  -0.839   8.657  1.0673 -0.2772  0.3117
  945MOL0     O30296   7.475  -0.836   8.725  0.1075  0.3644 -0.7044
  945MOL0     C30297   7.569  -0.922   8.679 -0.9528 -0.3837 -0.0066
  945MOL0     C30298   7.544  -1.054   8.636  0.0528 -0.1016 -0.4954
  945MOL0     C30299   7.640  -1.136   8.572  1.0375  0.3367 -0.3506
  945MOL0     C30300   7.588  -1.270   8.527 -0.9403  0.8406 -0.7067
  945MOL0     C30301   7.764  -1.086   8.552  0.4492 -0.1344  0.2949
  945MOL0     C30302   7.863  -1.151   8.464 -0.0301 -0.2309  0.0592
  945MOL0     O30303   7.840  -1.279   8.421  0.4376  0.2635  0.1402
  945MOL0     C30304   7.943  -1.337   8.359  0.8501 -0.7849 -0.2132
  945MOL0     C30305   7.957  -1.335   8.219 -0.3565  0.4368 -0.6776
  945MOL0     C30306   8.063  -1.401   8.153  0.2311 -0.0084 -0.6821
  945MOL0     C30307   8.145  -1.477   8.235 -0.0742 -0.1963 -0.2794
  945MOL0     O30308   8.244  -1.551   8.178 -0.6132 -0.4442 -0.6244
  945MOL0     C30309   8.216  -1.681   8.147 -0.6363  1.1696 -0.1317
  945MOL0     C30310   8.344  -1.761   8.128 -0.1619 -0.6569 -1.0866
  945MOL0     C30311   8.325  -1.905   8.069 -0.0392 -0.3321  0.6668
  945MOL0     C30312   8.457  -1.969   8.079 -0.4500 -0.3138 -0.1912
  945MOL0     C30313   8.464  -2.118   8.050 -0.0026  0.6703 -0.2075
  945MOL0     C30314   8.423  -2.149   7.910 -0.0117  0.0735  0.7724
  945MOL0     C30315   8.377  -2.290   7.889  0.2252  0.6055  0.1826
  945MOL0     C30316   8.284  -2.301   7.771 -0.1793 -0.4501  1.0919
  945MOL0    Cl30317   8.114  -2.246   7.803  0.4944 -0.2004 -0.7099
  945MOL0     C30318   8.142  -1.471   8.373  0.2802  0.3114  0.4500
  945MOL0     C30319   8.032  -1.410   8.434  0.1677 -0.4629 -0.2502
  945MOL0     O30320   7.957  -1.086   8.425  0.0669 -0.7304  0.4197
  945MOL0     C30321   7.800  -0.965   8.609  0.7304  0.6687  0.3733
  945MOL0     C30322   7.700  -0.886   8.666 -0.2881  0.6024 -0.4548
  945MOL0     N30323   6.935  -0.788   8.334 -0.9118  0.7501 -0.3754
  945MOL0     N30324   6.808  -0.760   8.300 -0.1656  0.4686  0.4048
  945MOL0     C30325   6.169   0.102   8.738 -0.1363 -0.1571 -0.0994
  945MOL0     C30326   6.048   0.154   8.789 -0.4338 -0.6496 -0.4526
  945MOL0     C30327   5.773   0.293   9.113  0.8245  0.2284 -0.5000
  945MOL0     C30328   5.799   0.327   9.248 -0.2754  0.7160  0.7023
  945MOL0     C30329   5.708   0.411   9.313  0.9129 -0.3689 -0.4891
  945MOL0     C30330   5.604   0.478   9.246  0.2538 -0.0882  0.0239
  945MOL0     O30331   5.519   0.577   9.294  0.6400 -0.5466 -0.6509
  945MOL0     C30332   5.539   0.614   9.434  0.5712 -0.1382  0.6787
  945MOL0     C30333   5.428   0.709   9.473 -0.1948 -0.2766 -0.3386
  945MOL0     C30334   5.397   0.828   9.384  1.0355 -0.0631  0.2215
  945MOL0     C30335   5.268   0.891   9.439  0.0151  0.3647  0.0784
  945MOL0     C30336   5.268   1.020   9.376 -0.6719 -1.1123 -0.1198
  945MOL0     C30337   5.281   1.128   9.326  0.1697  0.5779 -0.5488
  945MOL0     C30338   5.586   0.446   9.113 -0.0807  0.2285 -0.7333
  945MOL0     C30339   5.659   0.350   9.045  0.1476 -0.0257 -0.3497
  945MOL0     C30340   5.637   0.319   8.901  0.1256 -0.4354 -0.0655
  945MOL0     H30341   6.181   0.327   9.051 -4.5642  3.2643 -1.0011
  945MOL0     H30342   6.380   0.255   8.960  0.3070 -0.7895 -0.2790
  945MOL0     H30343   6.482   0.015   8.908 -1.6976  0.1266 -0.6379
  945MOL0     H30344   6.574   0.155   8.860 -0.2124 -0.7744  1.9105
  945MOL0     H30345   6.654   0.012   8.649 -0.7615 -1.3854 -0.9202
  945MOL0     H30346   6.682  -0.073   8.795 -0.2747 -0.5494 -0.3088
  945MOL0     H30347   6.483  -0.215   8.766  0.3793 -1.2518 -1.1208
  945MOL0     H30348   6.445  -0.118   8.621 -1.1395 -0.5917  0.7855
  945MOL0     H30349   6.651  -0.203   8.513  0.0153 -2.6325 -0.6793
  945MOL0     H30350   6.710  -0.255   8.668 -0.9049  2.7994  1.4175
  945MOL0     H30351   6.445  -0.365   8.541 -0.2475 -0.1013  1.0668
  945MOL0     H30352   6.531  -0.415   8.687 -2.4132  0.0038 -0.4650
  945MOL0     H30353   6.594  -0.453   8.393  1.3661  0.9236  0.7039
  945MOL0     H30354   6.707  -0.493   8.526  0.6802  0.6541 -0.3764
  945MOL0     H30355   6.428  -0.604   8.507 -1.2764 -0.2281 -1.3002
  945MOL0     H30356   6.559  -0.675   8.608 -2.4345  0.7666  0.2357
  945MOL0     H30357   6.548  -0.817   8.433 -1.3240  0.5833 -0.4194
  945MOL0     H30358   6.558  -0.684   8.314  1.4555 -1.6249 -0.8841
  945MOL0     H30359   6.781  -0.754   8.624 -0.2614  1.1169  0.0729
  945MOL0     H30360   7.128  -0.894   8.502  4.2392  1.8657  2.2955
  945MOL0     H30361   7.019  -0.904   8.649 -0.5970  1.2729 -0.0278
  945MOL0     H30362   7.174  -0.666   8.526 -1.9680 -2.0626 -1.3942
  945MOL0     H30363   7.073  -0.650   8.667 -0.2594 -0.3033  0.8030
  945MOL0     H30364   7.304  -0.663   8.750  1.2121  0.2019 -1.6444
  945MOL0     H30365   7.210  -0.795   8.810  1.7711  1.0495  1.2497
  945MOL0     H30366   7.301  -0.935   8.671 -0.6299  0.8821  2.9803
  945MOL0     H30367   7.365  -0.812   8.552  0.6628  3.2890  1.0492
  945MOL0     H30368   7.440  -1.083   8.648  0.7886 -1.8779  2.9916
  945MOL0     H30369   7.654  -1.351   8.559  2.6628  3.3398 -1.1696
  945MOL0     H30370   7.574  -1.292   8.420  0.0382  1.4307 -0.9671
  945MOL0     H30371   7.494  -1.289   8.579  0.5992  1.2421  2.4285
  945MOL0     H30372   7.887  -1.281   8.158 -1.6293  0.0545  0.4003
  945MOL0     H30373   8.059  -1.403   8.045 -0.5198 -2.4965 -0.6846
  945MOL0     H30374   8.172  -1.734   8.232  0.6485 -2.8617 -1.7291
  945MOL0     H30375   8.146  -1.695   8.064 -1.5426  0.5982  0.7086
  945MOL0     H30376   8.420  -1.712   8.067 -0.2391 -2.1415 -2.4811
  945MOL0     H30377   8.380  -1.775   8.230  1.1181 -2.2010 -1.6986
  945MOL0     H30378   8.295  -1.899   7.964 -1.3279  0.7299  1.0581
  945MOL0     H30379   8.248  -1.962   8.122  2.2483 -3.9193  0.4202
  945MOL0     H30380   8.489  -1.959   8.183 -2.4941  3.0414  0.2597
  945MOL0     H30381   8.532  -1.921   8.015 -0.8661 -0.0380 -0.4822
  945MOL0     H30382   8.566  -2.155   8.062 -0.6024 -1.5408 -1.3537
  945MOL0     H30383   8.400  -2.166   8.126 -1.3831  2.4457 -0.1903
  945MOL0     H30384   8.509  -2.130   7.845  2.4778 -0.0139  3.7720
  945MOL0     H30385   8.342  -2.081   7.882  1.4709  2.0724  1.0808
  945MOL0     H30386   8.330  -2.339   7.975  3.7700 -0.3491  1.7643
  945MOL0     H30387   8.463  -2.356   7.876 -0.7729 -0.5587 -0.7944
  945MOL0     H30388   8.287  -2.406   7.740 -1.2277 -0.1761 -0.0050
  945MOL0     H30389   8.330  -2.248   7.687 -0.5666  0.8798  1.7032
  945MOL0     H30390   8.210  -1.536   8.427 -2.5004 -0.2443  3.6319
  945MOL0     H30391   8.019  -1.410   8.542 -1.6149  1.2029 -0.4095
  945MOL0     H30392   7.900  -0.928   8.589  0.2723  0.8738 -1.7934
  945MOL0     H30393   7.735  -0.788   8.697  0.5409  0.5078 -1.0532
  945MOL0     H30394   6.172   0.050   8.643  0.8293 -2.3046  1.0327
  945MOL0     H30395   5.960   0.129   8.730  0.0273 -0.6460 -1.1576
  945MOL0     H30396   5.887   0.278   9.288  1.0785 -0.0581 -2.8068
  945MOL0     H30397   5.705   0.427   9.421 -1.8213  1.7207 -0.7394
  945MOL0     H30398   5.525   0.527   9.499 -1.3145  0.4188  1.1005
  945MOL0     H30399   5.635   0.660   9.459  1.2544 -1.3766  0.4198
  945MOL0     H30400   5.437   0.737   9.578 -2.9757  2.7847 -0.7364
  945MOL0     H30401   5.337   0.651   9.456 -1.1992  1.6343 -1.9467
  945MOL0     H30402   5.479   0.901   9.377  1.9838 -1.1990 -1.0953
  945MOL0     H30403   5.387   0.801   9.279  1.9241 -1.4804  0.4724
  945MOL0     H30404   5.277   0.912   9.546  0.8361  1.7436 -0.2284
  945MOL0     H30405   5.178   0.835   9.411  0.3518 -2.1946  3.4984
  945MOL0     H30406   5.288   1.224   9.279 -2.3118  2.1673  2.0694
  945MOL0     H30407   5.518   0.505   9.052  0.3340  0.6547 -0.7858
  945MOL0     H30408   5.552   0.377   8.865  0.7241  1.0848  0.8589
  945MOL0     H30409   5.723   0.347   8.839  0.3686  2.3140  1.3532
  945MOL0     H30410   5.618   0.212   8.889 -0.3777 -0.0969 -2.9674
  946MOL0     O30411   2.046   5.568   4.337 -0.0578 -0.3154  0.2071
  946MOL0     C30412   2.105   5.575   4.230 -0.4596 -0.1544  0.0605
  946MOL0     O30413   2.238   5.572   4.216 -0.4880  0.6360 -0.7848
  946MOL0     C30414   2.326   5.519   4.314  0.6513 -0.6485 -0.5223
  946MOL0     C30415   2.455   5.556   4.294  0.1254 -0.4397  0.9365
  946MOL0     C30416   2.552   5.524   4.386 -0.3019 -0.2713 -0.7217
  946MOL0     C30417   2.515   5.465   4.505 -0.6874 -0.2473 -0.3896
  946MOL0     O30418   2.623   5.456   4.597 -0.1024  0.3550  0.0891
  946MOL0     C30419   2.611   5.365   4.706  0.5584  0.2318 -0.0280
  946MOL0     C30420   2.746   5.349   4.769  0.1166  0.0453  0.4823
  946MOL0     C30421   2.853   5.288   4.683  0.4345  0.3156 -0.5206
  946MOL0     C30422   2.996   5.287   4.739  0.7969 -0.4500  0.3108
  946MOL0     C30423   3.026   5.167   4.830  1.1131 -0.3216  0.4300
  946MOL0     C30424   3.179   5.166   4.847 -0.4896  0.6127 -1.2247
  946MOL0     C30425   3.216   5.073   4.966  0.7773  0.4414 -0.1731
  946MOL0     C30426   3.141   4.942   4.968  0.5024 -0.1169 -0.3563
  946MOL0     N30427   3.206   4.846   5.056  0.0621 -0.2730 -0.3187
  946MOL0     C30428   3.339   4.828   5.069 -0.6236 -0.2866 -0.7929
  946MOL0     C30429   3.350   4.722   5.154 -0.3077 -0.2516  0.1247
  946MOL0     C30430   3.480   4.663   5.200 -0.3683  0.5268 -0.1363
  946MOL0     C30431   3.569   4.601   5.085 -0.6725 -0.4517 -0.1353
  946MOL0     C30432   3.529   4.461   5.040  0.8438 -0.3123 -0.5631
  946MOL0     C30433   3.644   4.401   4.959 -0.6212 -0.3113  0.1212
  946MOL0     O30434   3.740   4.318   5.024  0.4558 -0.2186  0.3132
  946MOL0     C30435   3.848   4.272   4.950 -0.3222  0.2853 -0.4718
  946MOL0     C30436   3.932   4.181   5.009 -0.1292 -0.1671  0.6974
  946MOL0     C30437   4.054   4.144   4.944  1.2669  0.0611  1.5554
  946MOL0     C30438   4.152   4.052   5.016  0.5514 -0.9718  0.0710
  946MOL0     C30439   4.098   4.191   4.814  0.4982  0.0056  0.0407
  946MOL0     C30440   4.224   4.159   4.747 -0.3174  0.1386  0.7487
  946MOL0     O30441   4.336   4.134   4.817 -0.1319 -0.3411  0.4857
  946MOL0     C30442   4.451   4.124   4.748 -1.1179 -0.2651 -0.1697
  946MOL0     C30443   4.477   4.045   4.631  0.0027 -0.1751 -0.3909
  946MOL0     C30444   4.598   4.032   4.575  0.4103 -0.1376 -0.1593
  946MOL0     C30445   4.705   4.099   4.629 -1.0707 -0.8050 -0.6281
  946MOL0     O30446   4.826   4.091   4.571  0.3643  0.0022 -0.4117
  946MOL0     C30447   4.858   3.964   4.515 -0.9743 -0.1266 -0.5961
  946MOL0     C30448   5.019   3.954   4.509  0.5992 -0.2365  0.0465
  946MOL0     C30449   5.088   4.047   4.414  0.3768 -1.3073  0.9192
  946MOL0     C30450   5.247   4.031   4.402  0.7492  0.3680  0.1221
  946MOL0     C30451   5.319   4.118   4.293 -0.3428  0.0601 -0.2018
  946MOL0     C30452   5.476   4.123   4.335  0.8178 -0.5514  0.0690
  946MOL0     C30453   5.556   3.996   4.334  0.1042 -0.5115  0.1668
  946MOL0     C30454   5.704   4.015   4.308  0.3028 -0.0612 -0.2672
  946MOL0    Cl30455   5.757   4.144   4.431  0.3114  0.2966  0.0464
  946MOL0     C30456   4.683   4.177   4.750 -0.1575  0.4270  0.4797
  946MOL0     C30457   4.559   4.181   4.808 -0.1583 -0.4057 -0.2915
  946MOL0     O30458   4.214   4.167   4.623 -0.6940 -0.6043 -0.5844
  946MOL0     C30459   3.997   4.275   4.748  0.1346  0.0480  0.6274
  946MOL0     C30460   3.883   4.318   4.820 -0.0467  0.4507  0.6775
  946MOL0     N30461   3.225   4.682   5.191  0.1617 -0.7066  0.5274
  946MOL0     N30462   3.138   4.753   5.129 -0.0100  0.0936 -0.1530
  946MOL0     C30463   2.384   5.429   4.538 -0.2987 -0.4246 -0.7543
  946MOL0     C30464   2.289   5.456   4.436  0.3012  0.3511  0.5111
  946MOL0     C30465   2.023   5.600   4.107 -0.5393  0.0463 -0.4388
  946MOL0     C30466   2.104   5.660   4.002 -0.4161  0.1704 -0.4629
  946MOL0     C30467   2.042   5.718   3.898 -0.5703 -0.1660 -0.0162
  946MOL0     C30468   1.901   5.706   3.875 -0.7231 -0.0451 -0.7372
  946MOL0     O30469   1.838   5.741   3.760 -0.4599 -0.4422 -0.2665
  946MOL0     C30470   1.914   5.726   3.643  0.1402 -0.7134  0.3830
  946MOL0     C30471   1.823   5.688   3.520  0.4229 -0.5091 -0.6561
  946MOL0     C30472   1.727   5.792   3.476 -0.2256 -0.2001 -0.5187
  946MOL0     C30473   1.611   5.819   3.577  0.0448  0.2665  0.3851
  946MOL0     C30474   1.526   5.701   3.618 -0.6422 -0.8119  0.1718
  946MOL0     C30475   1.456   5.602   3.641 -0.4492  0.1372  0.3925
  946MOL0     C30476   1.826   5.634   3.975  1.2179 -0.6586  0.4138
  946MOL0     C30477   1.883   5.591   4.094 -0.2934 -0.6488 -0.3015
  946MOL0     C30478   1.799   5.533   4.207  0.0162 -0.5748  0.0743
  946MOL0     H30479   2.476   5.599   4.196  2.5659 -0.1205  1.5193
  946MOL0     H30480   2.660   5.527   4.373 -0.5696  0.1483 -3.1358
  946MOL0     H30481   2.583   5.267   4.664 -2.0883  0.3524  1.2440
  946MOL0     H30482   2.548   5.397   4.789  0.7070 -1.9291  1.0007
  946MOL0     H30483   2.777   5.442   4.817  2.8544 -0.0125 -1.0181
  946MOL0     H30484   2.740   5.271   4.845 -2.1197  0.8023  1.1702
  946MOL0     H30485   2.815   5.191   4.649 -2.7144  2.5042 -3.9900
  946MOL0     H30486   2.851   5.356   4.598 -1.8572  1.5074  0.3968
  946MOL0     H30487   3.065   5.275   4.655 -0.8725 -0.0876 -1.1611
  946MOL0     H30488   3.014   5.388   4.778  0.2096  0.5068 -1.7212
  946MOL0     H30489   2.993   5.081   4.772 -0.1827  0.9836 -0.8538
  946MOL0     H30490   2.969   5.169   4.923 -1.1357  0.3141 -0.8844
  946MOL0     H30491   3.236   5.134   4.759  0.7388 -2.4408  0.5189
  946MOL0     H30492   3.212   5.264   4.881 -0.9856  1.4719 -3.0926
  946MOL0     H30493   3.209   5.119   5.064  1.6603 -0.8288  0.5136
  946MOL0     H30494   3.324   5.054   4.962  0.9847  1.5764 -0.1409
  946MOL0     H30495   3.036   4.953   4.997 -0.0814 -2.3796 -1.4324
  946MOL0     H30496   3.149   4.907   4.865  0.2381  3.9927 -1.9400
  946MOL0     H30497   3.421   4.874   5.015  0.5727 -1.2334  0.1653
  946MOL0     H30498   3.463   4.579   5.268  3.5006 -2.1928 -2.1259
  946MOL0     H30499   3.545   4.734   5.251 -0.6932  0.2662  0.6746
  946MOL0     H30500   3.567   4.670   5.000  0.0646 -0.8669 -0.5017
  946MOL0     H30501   3.676   4.601   5.107 -0.6409  0.4143 -0.2560
  946MOL0     H30502   3.494   4.399   5.123 -1.2346  2.2878  0.6665
  946MOL0     H30503   3.442   4.471   4.974 -0.3123 -0.5432  0.8633
  946MOL0     H30504   3.609   4.351   4.869  2.7448  3.5131 -3.7529
  946MOL0     H30505   3.696   4.488   4.919 -1.5563  0.3001  0.2010
  946MOL0     H30506   3.922   4.138   5.108  1.4053  1.3975  1.5974
  946MOL0     H30507   4.180   3.968   4.952 -2.7914 -1.0801 -1.4838
  946MOL0     H30508   4.114   3.997   5.103  0.6064  0.8096  1.2638
  946MOL0     H30509   4.242   4.106   5.044 -1.6860  2.3030  1.6420
  946MOL0     H30510   4.393   3.990   4.589 -1.1148  0.8424  0.4233
  946MOL0     H30511   4.602   3.972   4.484  1.2277 -1.0141  0.4334
  946MOL0     H30512   4.819   3.877   4.568 -1.0904 -1.1078 -2.2342
  946MOL0     H30513   4.823   3.950   4.413  0.1599 -2.9916 -0.6732
  946MOL0     H30514   5.048   3.971   4.613  1.3324 -0.9583 -0.0308
  946MOL0     H30515   5.045   3.849   4.495  1.5492 -0.2688  1.8519
  946MOL0     H30516   5.061   4.149   4.441 -0.9817 -1.2840 -0.3964
  946MOL0     H30517   5.052   4.022   4.314  1.4412 -4.4183  1.1993
  946MOL0     H30518   5.272   3.925   4.391 -2.1416 -0.2800 -1.2798
  946MOL0     H30519   5.289   4.068   4.496  2.7843  1.1232 -1.0311
  946MOL0     H30520   5.298   4.074   4.195 -1.4856 -1.8544  0.8387
  946MOL0     H30521   5.275   4.218   4.300 -1.5218 -0.4247 -0.5283
  946MOL0     H30522   5.481   4.164   4.436  3.0498 -1.0444  0.2140
  946MOL0     H30523   5.528   4.195   4.271  2.1771  0.0395  1.7776
  946MOL0     H30524   5.514   3.926   4.261 -1.9001  0.3916  0.3982
  946MOL0     H30525   5.550   3.952   4.434 -0.1734  1.9607  1.3256
  946MOL0     H30526   5.725   4.058   4.209 -3.2103  4.9186  0.7561
  946MOL0     H30527   5.763   3.924   4.319  0.4519  0.1587  0.8964
  946MOL0     H30528   4.773   4.219   4.795  0.1135 -0.9380  1.2853
  946MOL0     H30529   4.557   4.212   4.912  1.5705  1.4670 -0.7546
  946MOL0     H30530   4.015   4.315   4.649  0.0774 -0.3914  0.4406
  946MOL0     H30531   3.820   4.392   4.774 -1.1886 -1.7643 -1.5673
  946MOL0     H30532   2.354   5.383   4.632  2.3306  1.1758  1.0078
  946MOL0     H30533   2.186   5.435   4.463 -0.0233 -0.7099 -1.3660
  946MOL0     H30534   2.212   5.667   3.992 -0.4492 -0.4807 -1.3113
  946MOL0     H30535   2.102   5.784   3.836  3.9363 -1.2475  2.7085
  946MOL0     H30536   1.984   5.807   3.621 -0.3787 -0.9422 -2.6719
  946MOL0     H30537   1.978   5.637   3.648 -0.5137 -1.3099 -1.1755
  946MOL0     H30538   1.767   5.597   3.542  2.8081 -1.9734 -0.3225
  946MOL0     H30539   1.879   5.659   3.431 -0.6368 -0.1504 -1.4544
  946MOL0     H30540   1.786   5.883   3.459 -0.5769 -0.0374 -0.9037
  946MOL0     H30541   1.692   5.776   3.373  0.9740  0.1970 -0.9986
  946MOL0     H30542   1.548   5.901   3.542  2.6173  2.2753  0.1853
  946MOL0     H30543   1.660   5.864   3.664 -1.3047  0.8050  0.9023
  946MOL0     H30544   1.385   5.522   3.633  0.3763 -0.7785  1.7175
  946MOL0     H30545   1.719   5.622   3.966  0.9819  1.8555 -1.1058
  946MOL0     H30546   1.692   5.527   4.182 -0.3802 -1.2574  1.7255
  946MOL0     H30547   1.837   5.431   4.222  0.3341 -0.3481  0.8838
  946MOL0     H30548   1.815   5.592   4.298  1.0006 -2.3577  1.1148
  947MOL0     O30549  11.120   5.988  10.605 -0.0559  0.1886 -0.3463
  947MOL0     C30550  11.112   6.093  10.548 -1.0403 -0.8947  0.3125
  947MOL0     O30551  11.223   6.174  10.518  0.5128  0.6356 -0.1168
  947MOL0     C30552  11.339   6.133  10.578  0.1411  0.0876  0.5516
  947MOL0     C30553  11.413   6.038  10.515  0.0953  0.5414  0.6511
  947MOL0     C30554  11.536   5.993  10.573  0.5300  0.0238  0.5960
  947MOL0     C30555  11.586   6.049  10.686  0.7282 -0.3788 -0.6331
  947MOL0     O30556  11.713   6.010  10.722  0.5593 -0.2541 -0.1537
  947MOL0     C30557  11.699   5.879  10.792  0.6442 -0.8348 -0.0280
  947MOL0     C30558  11.819   5.863  10.878 -0.5061  0.4651 -0.1799
  947MOL0     C30559  11.862   5.728  10.900 -0.4022  0.1902  0.3096
  947MOL0     C30560  12.014   5.723  10.943  0.0133  0.1359 -0.1614
  947MOL0     C30561  12.071   5.600  10.994 -0.0956 -0.0024 -0.4611
  947MOL0     C30562  12.057   5.471  10.901  0.5435  0.6302 -0.0334
  947MOL0     C30563  12.171   5.461  10.796 -0.9994  0.2412  0.3767
  947MOL0     C30564  12.306   5.424  10.858  0.0012 -0.1707 -0.8042
  947MOL0     N30565  12.385   5.351  10.757 -0.5974 -0.5176 -0.0883
  947MOL0     C30566  12.488   5.415  10.684 -0.1635 -0.3228  0.7705
  947MOL0     C30567  12.582   5.316  10.664 -0.4415  0.0272  0.3217
  947MOL0     C30568  12.720   5.347  10.610  1.4485  0.1080 -0.1157
  947MOL0     C30569  12.810   5.230  10.569 -0.7447  0.3977 -0.6004
  947MOL0     C30570  12.931   5.274  10.491 -0.9983  0.8676 -0.6963
  947MOL0     C30571  13.035   5.160  10.467 -0.0251  0.5790  0.5794
  947MOL0     O30572  13.135   5.216  10.384  0.6978  0.2307  0.0883
  947MOL0     C30573  13.242   5.121  10.364  0.2594  0.6641 -0.5365
  947MOL0     C30574  13.254   4.990  10.421  0.2775  0.2944 -0.3563
  947MOL0     C30575  13.375   4.928  10.426 -0.1585  0.9164  0.3727
  947MOL0     C30576  13.381   4.792  10.495 -0.2152  0.1625 -0.0447
  947MOL0     C30577  13.492   4.995  10.368  0.1317  0.4461 -0.0463
  947MOL0     C30578  13.630   4.947  10.382 -0.1772 -0.0253 -0.1713
  947MOL0     O30579  13.724   5.048  10.383 -0.0276  0.2043 -0.1803
  947MOL0     C30580  13.857   5.007  10.380 -0.3341 -0.7600 -0.2213
  947MOL0     C30581  13.930   5.012  10.256  0.0343  0.3881 -0.5063
  947MOL0     C30582  14.060   4.970  10.244  0.7902  0.5519  0.1251
  947MOL0     C30583  14.130   4.924  10.360 -0.2728 -0.2507 -0.1773
  947MOL0     O30584  14.260   4.893  10.340  0.2344  0.1667  0.0570
  947MOL0     C30585  14.277   4.755  10.368  0.0229  0.2575 -0.7982
  947MOL0     C30586  14.407   4.700  10.314  0.3597  0.5457  0.6100
  947MOL0     C30587  14.523   4.756  10.391  0.4856  0.9204 -0.7206
  947MOL0     C30588  14.523   4.699  10.535 -1.1354  0.6295  0.4197
  947MOL0     C30589  14.652   4.735  10.621 -0.0742  0.2211 -1.0274
  947MOL0     C30590  14.687   4.886  10.607  1.0148  0.9374 -0.5378
  947MOL0     C30591  14.807   4.922  10.691 -0.1281  0.1822 -1.0890
  947MOL0     C30592  14.918   5.004  10.624  0.9881 -0.0161 -0.6768
  947MOL0    Cl30593  15.037   5.031  10.753 -0.0321  0.0153  0.1199
  947MOL0     C30594  14.063   4.921  10.484 -0.2656 -0.6604 -0.2808
  947MOL0     C30595  13.931   4.966  10.496  0.7752 -0.7292  0.1596
  947MOL0     O30596  13.656   4.829  10.411  0.3173  0.3443 -0.0947
  947MOL0     C30597  13.471   5.105  10.293 -0.6037 -0.2951 -0.9064
  947MOL0     C30598  13.349   5.168  10.285  0.4685 -0.5017  0.0823
  947MOL0     N30599  12.532   5.197  10.721 -0.1110 -0.1918 -0.0546
  947MOL0     N30600  12.419   5.222  10.772 -0.2196  0.0474  0.4923
  947MOL0     C30601  11.508   6.141  10.759 -0.1957  0.8702  0.4279
  947MOL0     C30602  11.385   6.186  10.701 -0.1507 -0.1373 -0.8031
  947MOL0     C30603  10.975   6.153  10.521 -0.0947 -0.3458 -0.2358
  947MOL0     C30604  10.961   6.251  10.425 -0.7046  0.1679  0.6192
  947MOL0     C30605  10.835   6.293  10.389  0.3782 -0.1411 -0.6055
  947MOL0     C30606  10.720   6.239  10.448 -0.2284  1.0848 -0.3410
  947MOL0     O30607  10.597   6.304  10.433  0.0276 -0.2295  0.0114
  947MOL0     C30608  10.548   6.294  10.294 -0.2651  0.4708 -0.2411
  947MOL0     C30609  10.484   6.147  10.267  0.0380 -0.4754 -0.2018
  947MOL0     C30610  10.387   6.138  10.153 -0.3372 -0.1841  0.5355
  947MOL0     C30611  10.283   6.023  10.154  0.8678 -1.8290  0.7742
  947MOL0     C30612  10.192   6.055  10.045  1.0362  0.6793 -0.1758
  947MOL0     C30613  10.127   6.084   9.947 -0.3288  0.0025  0.4755
  947MOL0     C30614  10.736   6.143  10.551  0.4695  1.0594 -0.2930
  947MOL0     C30615  10.860   6.097  10.586 -0.2555  0.2938 -0.2167
  947MOL0     C30616  10.860   5.996  10.702  0.3839  0.8064  0.5909
  947MOL0     H30617  11.379   5.998  10.420  1.4610  0.8041  0.0176
  947MOL0     H30618  11.586   5.923  10.506  1.6270 -0.8587  2.2793
  947MOL0     H30619  11.689   5.798  10.718 -1.4525 -1.6550  1.0416
  947MOL0     H30620  11.611   5.864  10.856  0.3226 -0.1149 -0.2896
  947MOL0     H30621  11.896   5.917  10.823  0.9545 -1.9488 -0.6443
  947MOL0     H30622  11.809   5.912  10.975 -1.1678  0.2203 -0.1175
  947MOL0     H30623  11.808   5.683  10.984  1.2784 -0.8845  0.8768
  947MOL0     H30624  11.851   5.666  10.811  0.2702 -2.1866  1.7762
  947MOL0     H30625  12.072   5.761  10.859 -2.3922 -1.1372 -2.5548
  947MOL0     H30626  12.025   5.800  11.020  1.7140 -0.3892  0.1467
  947MOL0     H30627  12.020   5.575  11.087 -0.4030  0.6923 -0.4367
  947MOL0     H30628  12.178   5.615  11.013 -0.2136 -1.8675  2.0877
  947MOL0     H30629  12.040   5.384  10.965  0.3823  1.0585  0.5109
  947MOL0     H30630  11.964   5.485  10.845  0.7482  1.1368 -0.2564
  947MOL0     H30631  12.171   5.555  10.740 -0.3492 -0.2899 -0.5500
  947MOL0     H30632  12.138   5.380  10.731  0.1317  0.4065 -0.4393
  947MOL0     H30633  12.368   5.512  10.877  2.3591 -1.8899 -0.0625
  947MOL0     H30634  12.299   5.360  10.946  1.3001 -0.9355 -1.2393
  947MOL0     H30635  12.509   5.521  10.672 -1.4058 -0.0242  1.1590
  947MOL0     H30636  12.776   5.402  10.686  2.4166 -0.1445 -0.6181
  947MOL0     H30637  12.711   5.424  10.532  0.2700  2.3878  2.1591
  947MOL0     H30638  12.840   5.182  10.662  1.2270  0.4848 -1.1418
  947MOL0     H30639  12.743   5.157  10.523 -1.7980  1.5199 -0.9154
  947MOL0     H30640  12.892   5.301  10.393 -0.7910 -3.2162 -2.1136
  947MOL0     H30641  12.980   5.357  10.543  1.3134 -0.3834 -0.7715
  947MOL0     H30642  13.069   5.134  10.568 -0.9658 -0.5906  0.6105
  947MOL0     H30643  12.993   5.076  10.412  2.7631 -0.3200 -0.3327
  947MOL0     H30644  13.169   4.942  10.469 -2.5044  1.7882 -3.3918
  947MOL0     H30645  13.282   4.748  10.485 -0.1136 -0.2389  0.6703
  947MOL0     H30646  13.418   4.797  10.598 -0.0931 -0.8447 -0.0335
  947MOL0     H30647  13.440   4.721  10.436 -0.5809 -0.4491  0.3153
  947MOL0     H30648  13.877   5.040  10.165 -0.1828 -0.7777 -0.7526
  947MOL0     H30649  14.112   4.944  10.153 -0.5637  1.2231 -0.8678
  947MOL0     H30650  14.268   4.739  10.476  0.8153  0.2534 -0.7247
  947MOL0     H30651  14.194   4.698  10.325 -1.2405  2.0688 -0.8750
  947MOL0     H30652  14.399   4.591  10.311 -2.1097  0.6664 -1.5659
  947MOL0     H30653  14.427   4.730  10.211  0.0155  0.2391  0.4494
  947MOL0     H30654  14.503   4.864  10.391  1.0793  1.0812  1.2891
  947MOL0     H30655  14.617   4.745  10.336  0.1849  2.9121 -1.7241
  947MOL0     H30656  14.513   4.590  10.530  0.9558  0.4116 -0.1907
  947MOL0     H30657  14.433   4.735  10.587 -1.5794  1.8967 -1.1585
  947MOL0     H30658  14.624   4.706  10.723 -0.5455  0.7743 -0.9975
  947MOL0     H30659  14.745   4.687  10.588  0.1149  1.8317 -3.0244
  947MOL0     H30660  14.589   4.930  10.630  1.0350  0.1051  1.3337
  947MOL0     H30661  14.717   4.906  10.504  2.0053  0.7710 -0.2906
  947MOL0     H30662  14.860   4.836  10.734  0.7496  0.9386 -0.6251
  947MOL0     H30663  14.775   4.976  10.781 -0.2297 -0.0227 -1.0013
  947MOL0     H30664  14.878   5.097  10.582 -3.7140 -0.6044  1.7656
  947MOL0     H30665  14.965   4.944  10.546  1.1400 -0.8196  0.0166
  947MOL0     H30666  14.122   4.887  10.568 -0.0310 -2.4997 -1.1544
  947MOL0     H30667  13.874   4.962  10.588 -1.2220 -0.7660 -1.0274
  947MOL0     H30668  13.549   5.151  10.235 -0.4790 -1.8703 -2.0347
  947MOL0     H30669  13.340   5.259  10.225 -1.5864 -0.5764  0.2229
  947MOL0     H30670  11.547   6.183  10.851  1.4848  0.8544 -0.2514
  947MOL0     H30671  11.328   6.257  10.759  1.1745  1.4803 -1.4041
  947MOL0     H30672  11.051   6.285  10.374  1.7618 -2.3344  2.9755
  947MOL0     H30673  10.825   6.382  10.328  1.6859 -0.3768 -1.2052
  947MOL0     H30674  10.465   6.364  10.278 -0.3221  0.4819  0.1095
  947MOL0     H30675  10.624   6.315  10.219 -0.1687 -0.5160 -0.4296
  947MOL0     H30676  10.428   6.111  10.354 -2.1132 -1.4672 -1.8997
  947MOL0     H30677  10.562   6.072  10.250 -0.3914 -0.3277 -3.2647
  947MOL0     H30678  10.329   6.230  10.144  0.1710 -0.0337 -1.9371
  947MOL0     H30679  10.449   6.117  10.066  1.8899 -2.6200  2.5319
  947MOL0     H30680  10.231   6.033  10.250  0.7457 -0.4985  0.5816
  947MOL0     H30681  10.335   5.929  10.134  2.9422 -0.5712 -0.0493
  947MOL0     H30682  10.072   6.101   9.856  2.0950  3.7659 -0.5243
  947MOL0     H30683  10.645   6.102  10.594 -0.7472  0.3603 -3.2683
  947MOL0     H30684  10.774   5.998  10.770  0.4420  1.2954  0.6552
  947MOL0     H30685  10.859   5.893  10.665 -2.3492  1.6130 -1.9234
  947MOL0     H30686  10.950   5.992  10.765  0.0152 -3.7182  1.1724
  948MOL0     O30687   9.596  10.457   1.946  1.0421 -0.0243  0.3644
  948MOL0     C30688   9.673  10.472   2.033 -0.4851  0.9520 -0.3094
  948MOL0     O30689   9.788  10.539   2.018  0.6280 -0.0249  0.2017
  948MOL0     C30690   9.813  10.598   1.894  0.0999 -0.0273 -0.4127
  948MOL0     C30691   9.881  10.532   1.790 -0.8603  0.6418 -0.5124
  948MOL0     C30692   9.901  10.583   1.661 -0.7873 -0.0849  0.4998
  948MOL0     C30693   9.850  10.701   1.631  0.6892 -0.4841  0.7418
  948MOL0     O30694   9.855  10.755   1.506 -0.4026 -0.5534  0.1890
  948MOL0     C30695   9.848  10.669   1.394  0.4831 -0.7232  0.0200
  948MOL0     C30696   9.858  10.749   1.267  0.2700 -0.4040 -0.0169
  948MOL0     C30697   9.724  10.806   1.230  0.5519 -0.1755  0.9584
  948MOL0     C30698   9.729  10.880   1.094  0.1167  0.7535  0.4145
  948MOL0     C30699   9.623  10.987   1.076  0.3167 -0.5777  0.3118
  948MOL0     C30700   9.663  11.124   1.141 -0.3049  0.7081  0.2963
  948MOL0     C30701   9.801  11.190   1.105  1.1273  0.2464 -0.1169
  948MOL0     C30702   9.891  11.149   1.217  0.0715 -0.5306  0.2177
  948MOL0     N30703  10.031  11.154   1.180  0.4231  0.2203  0.0965
  948MOL0     C30704  10.117  11.048   1.132  0.0587 -0.9584  0.2610
  948MOL0     C30705  10.221  11.113   1.091 -0.8371 -0.2773 -0.2823
  948MOL0     C30706  10.352  11.040   1.053  0.5620  0.5463  0.2733
  948MOL0     C30707  10.433  11.127   0.958  0.1828 -0.1529  0.8022
  948MOL0     C30708  10.567  11.055   0.927 -0.5737 -0.1227  0.5291
  948MOL0     C30709  10.641  11.151   0.835  0.1544 -0.4778 -0.0112
  948MOL0     O30710  10.756  11.086   0.776 -0.6532  0.1183 -0.4324
  948MOL0     C30711  10.872  11.079   0.849  1.3362  0.2911  0.4433
  948MOL0     C30712  10.982  11.041   0.774 -0.7508 -0.0872  0.0310
  948MOL0     C30713  11.113  11.032   0.835  1.2428  0.6674 -0.3679
  948MOL0     C30714  11.235  10.984   0.754  0.4273 -0.0619 -0.7214
  948MOL0     C30715  11.120  11.055   0.977 -0.4623 -1.2507  1.0613
  948MOL0     C30716  11.240  11.010   1.068 -0.9795  0.1847  0.2335
  948MOL0     O30717  11.362  10.974   1.012 -0.0453  0.5770  0.2326
  948MOL0     C30718  11.482  10.962   1.082  0.2825 -0.3375 -0.1702
  948MOL0     C30719  11.507  10.981   1.222  0.2617 -0.0616  1.1911
  948MOL0     C30720  11.633  10.941   1.279 -0.3533  0.1231 -0.6022
  948MOL0     C30721  11.750  10.910   1.193  0.4542 -0.4476 -0.6552
  948MOL0     O30722  11.885  10.912   1.229 -0.2157 -0.1126  1.0366
  948MOL0     C30723  11.940  10.995   1.332  0.7392 -0.9220 -0.2047
  948MOL0     C30724  12.086  10.962   1.354 -0.1292 -0.1804  0.3117
  948MOL0     C30725  12.117  10.823   1.414 -0.6334 -0.5982 -0.3933
  948MOL0     C30726  12.248  10.819   1.492  0.0382  0.0420 -0.1796
  948MOL0     C30727  12.363  10.822   1.393  0.0440  0.2359  0.3012
  948MOL0     C30728  12.500  10.810   1.452 -0.2628 -0.4656 -0.2129
  948MOL0     C30729  12.561  10.942   1.523 -0.0617 -0.4210 -0.0167
  948MOL0     C30730  12.710  10.932   1.545 -0.2525 -0.7683  0.7252
  948MOL0    Cl30731  12.778  10.775   1.563  0.1464 -0.3250 -0.2131
  948MOL0     C30732  11.720  10.889   1.058  0.2045  0.0588 -0.2512
  948MOL0     C30733  11.597  10.927   1.004  1.2335  1.1046  0.3336
  948MOL0     O30734  11.217  11.006   1.189 -0.5759  0.0995 -0.3482
  948MOL0     C30735  11.009  11.100   1.049 -0.8539 -0.0434  0.0834
  948MOL0     C30736  10.885  11.107   0.992  0.5102 -0.3271  0.3337
  948MOL0     N30737  10.213  11.248   1.125  0.0306 -0.1367  0.4642
  948MOL0     N30738  10.097  11.265   1.170  0.1850 -0.4390  0.2870
  948MOL0     C30739   9.779  10.771   1.729 -0.2624  0.3595 -0.1616
  948MOL0     C30740   9.761  10.720   1.863 -0.4297 -0.4565  0.4637
  948MOL0     C30741   9.665  10.389   2.163 -0.4489  0.0189 -0.2629
  948MOL0     C30742   9.778  10.399   2.250  0.2434  0.2828  0.0140
  948MOL0     C30743   9.792  10.324   2.364 -0.7155  0.4147  0.7100
  948MOL0     C30744   9.689  10.238   2.408  0.1225  0.2499  0.9435
  948MOL0     O30745   9.695  10.166   2.520 -0.4674 -0.3869 -0.2260
  948MOL0     C30746   9.749  10.224   2.638  0.7935  0.6732 -0.2979
  948MOL0     C30747   9.890  10.171   2.680  0.2717  0.2834  0.0154
  948MOL0     C30748   9.883  10.071   2.797 -0.5663  0.3342 -0.3053
  948MOL0     C30749  10.022  10.028   2.849 -0.2830  1.2065 -0.0187
  948MOL0     C30750  10.113   9.979   2.750  0.3202 -0.1028  0.5311
  948MOL0     C30751  10.202   9.945   2.668  0.2684  0.2850  0.0302
  948MOL0     C30752   9.575  10.237   2.332 -0.0356 -0.1034 -0.8052
  948MOL0     C30753   9.563  10.310   2.205  0.3190 -0.2004 -0.1696
  948MOL0     C30754   9.436  10.283   2.128  0.1859 -0.2332  0.0570
  948MOL0     H30755   9.916  10.439   1.832  0.0396  0.8334 -0.8287
  948MOL0     H30756   9.945  10.522   1.583  0.9421  2.2663 -0.4784
  948MOL0     H30757   9.754  10.613   1.397 -0.7055  1.1641  2.8435
  948MOL0     H30758   9.933  10.600   1.381 -0.1093 -1.5343  0.3624
  948MOL0     H30759   9.928  10.831   1.285 -0.0617 -0.5514  2.2033
  948MOL0     H30760   9.883  10.687   1.181 -3.5090  1.0533 -2.4268
  948MOL0     H30761   9.644  10.731   1.230 -1.8387  2.1809 -0.9370
  948MOL0     H30762   9.695  10.875   1.309  0.1655 -2.0934  2.5919
  948MOL0     H30763   9.820  10.938   1.080 -0.4818  1.3321 -1.3936
  948MOL0     H30764   9.736  10.801   1.018  0.2542  2.7833 -1.8205
  948MOL0     H30765   9.526  10.956   1.117 -0.8924  1.6512 -0.6789
  948MOL0     H30766   9.609  11.001   0.969  0.9721 -0.6581  0.2138
  948MOL0     H30767   9.593  11.202   1.111 -1.1276 -0.7679 -1.9297
  948MOL0     H30768   9.651  11.116   1.249  0.7534  3.2167  0.6714
  948MOL0     H30769   9.787  11.299   1.104  0.6569  0.2180  1.1238
  948MOL0     H30770   9.838  11.150   1.011 -0.0216 -2.4520  0.5008
  948MOL0     H30771   9.867  11.212   1.304 -2.9308  0.1130 -0.9645
  948MOL0     H30772   9.872  11.047   1.254 -1.1532  0.4140  2.3822
  948MOL0     H30773  10.091  10.943   1.128 -1.5838 -0.6747  1.9312
  948MOL0     H30774  10.324  10.948   1.001  2.0591  1.1348 -1.6768
  948MOL0     H30775  10.409  11.024   1.145  1.1492  1.0535  0.0076
  948MOL0     H30776  10.369  11.141   0.871  0.5262  0.8376  0.6986
  948MOL0     H30777  10.442  11.220   1.015 -0.4540  1.6525 -1.8473
  948MOL0     H30778  10.628  11.025   1.013  1.7140 -0.5956 -1.1896
  948MOL0     H30779  10.539  10.965   0.871  0.7320  0.1381 -0.5736
  948MOL0     H30780  10.572  11.189   0.758 -0.3779 -1.0001  0.2102
  948MOL0     H30781  10.671  11.240   0.891  1.4982 -1.8757  1.5690
  948MOL0     H30782  10.958  11.022   0.670 -1.7336 -2.5430  0.6355
  948MOL0     H30783  11.216  11.019   0.652  2.3422  1.2662 -0.6757
  948MOL0     H30784  11.248  10.877   0.771  2.7014  0.3958  0.8224
  948MOL0     H30785  11.319  11.041   0.795  0.0133 -0.7756  1.2136
  948MOL0     H30786  11.423  11.003   1.288 -1.8249  2.1852 -1.9171
  948MOL0     H30787  11.654  10.953   1.384  2.1212 -0.5816 -0.9566
  948MOL0     H30788  11.930  11.103   1.320 -0.9550 -1.0779 -0.4331
  948MOL0     H30789  11.880  10.977   1.422 -2.7351  1.9806 -1.6584
  948MOL0     H30790  12.143  10.976   1.261 -0.3380 -1.9699 -0.1264
  948MOL0     H30791  12.131  11.037   1.419 -0.5895  2.1439 -1.8720
  948MOL0     H30792  12.123  10.751   1.332 -0.1480  0.0864 -0.9742
  948MOL0     H30793  12.032  10.801   1.479 -1.0094 -0.0953 -0.7070
  948MOL0     H30794  12.257  10.722   1.542 -1.0405  1.0967  2.2077
  948MOL0     H30795  12.256  10.898   1.567 -0.4325  0.2221 -0.3168
  948MOL0     H30796  12.341  10.744   1.320 -1.0029  0.0311  0.8121
  948MOL0     H30797  12.361  10.916   1.338 -0.3217 -0.6165 -1.1951
  948MOL0     H30798  12.575  10.787   1.376  2.4889  1.2748  1.7767
  948MOL0     H30799  12.489  10.730   1.526  0.7574  1.3621  2.0184
  948MOL0     H30800  12.513  10.966   1.618  1.5290  0.3630  0.6302
  948MOL0     H30801  12.557  11.026   1.453  3.2393  1.1452  1.4547
  948MOL0     H30802  12.731  10.990   1.635  0.7559 -0.7953  0.5191
  948MOL0     H30803  12.768  10.985   1.469 -1.5915  2.1109  1.5700
  948MOL0     H30804  11.799  10.869   0.986 -1.3099  0.0614 -1.9590
  948MOL0     H30805  11.580  10.921   0.897 -0.0361 -0.5369  0.5842
  948MOL0     H30806  11.024  11.128   1.153 -0.1146  2.0096 -0.5339
  948MOL0     H30807  10.808  11.146   1.058  1.5303  2.4214  0.0542
  948MOL0     H30808   9.741  10.868   1.700 -0.0791  0.0910 -1.3290
  948MOL0     H30809   9.703  10.773   1.938  0.5812  2.1794 -0.5002
  948MOL0     H30810   9.863  10.464   2.231 -0.2784  1.1478  0.5887
  948MOL0     H30811   9.880  10.333   2.428 -0.1642 -0.1170  0.0459
  948MOL0     H30812   9.762  10.331   2.622 -0.2985  1.2598  2.2782
  948MOL0     H30813   9.683  10.221   2.725 -0.1795 -1.7809 -1.0183
  948MOL0     H30814   9.950  10.259   2.706  0.2624  0.0795  0.7565
  948MOL0     H30815   9.940  10.108   2.606  1.0055 -1.0530  1.5841
  948MOL0     H30816   9.817  10.113   2.872 -0.0580  1.2963 -0.3799
  948MOL0     H30817   9.831   9.981   2.763 -3.7078  2.2519 -0.9711
  948MOL0     H30818  10.017   9.944   2.919  3.0749  1.2162  0.4103
  948MOL0     H30819  10.063  10.111   2.908  1.8706  0.1863  0.0442
  948MOL0     H30820  10.286   9.919   2.606  0.8848  2.2682 -0.0152
  948MOL0     H30821   9.499  10.172   2.374  2.1666 -2.7299 -0.5572
  948MOL0     H30822   9.374  10.214   2.186  2.0571 -1.2257  0.9526
  948MOL0     H30823   9.373  10.372   2.121 -0.9739 -0.9826  0.5640
  948MOL0     H30824   9.456  10.234   2.032  0.0592 -3.2779  1.4657
  949MOL0     O30825   4.274   0.598   4.913 -0.5114  0.2760  0.1106
  949MOL0     C30826   4.329   0.606   4.807 -0.9124 -0.2672 -0.1698
  949MOL0     O30827   4.258   0.590   4.687 -0.3474  0.2388  0.0411
  949MOL0     C30828   4.141   0.526   4.679  0.2263 -0.0278  0.6482
  949MOL0     C30829   4.122   0.461   4.558 -0.0273 -0.0507 -0.0755
  949MOL0     C30830   4.004   0.388   4.529 -0.8749  0.0950  0.1005
  949MOL0     C30831   3.904   0.370   4.625 -0.3656 -0.2571 -0.4487
  949MOL0     O30832   3.800   0.285   4.617 -0.6174 -0.6321 -0.0272
  949MOL0     C30833   3.765   0.238   4.486  0.8107  0.1154  0.0123
  949MOL0     C30834   3.654   0.137   4.493 -0.0915  0.3076 -0.6142
  949MOL0     C30835   3.595   0.108   4.361  0.4363 -0.4740  0.5283
  949MOL0     C30836   3.462   0.021   4.382 -0.4320 -0.3913 -0.1647
  949MOL0     C30837   3.380   0.015   4.253  0.8947  0.6768  0.7423
  949MOL0     C30838   3.263  -0.088   4.252 -0.6334 -0.3527  0.2172
  949MOL0     C30839   3.164  -0.062   4.130  0.3278  0.4832  0.2196
  949MOL0     C30840   3.054  -0.165   4.130 -0.2173  0.0429  0.1048
  949MOL0     N30841   3.116  -0.295   4.105 -0.2757  0.3102 -1.2206
  949MOL0     C30842   3.169  -0.333   3.989 -0.2226  0.8816 -0.5767
  949MOL0     C30843   3.212  -0.465   4.014 -0.6446 -0.0127 -0.1660
  949MOL0     C30844   3.261  -0.554   3.899 -0.3678  0.0082  0.2216
  949MOL0     C30845   3.408  -0.527   3.885  0.2752 -1.1729  0.6432
  949MOL0     C30846   3.490  -0.534   4.012 -0.4408  0.2657 -1.0771
  949MOL0     C30847   3.641  -0.541   3.979 -0.1839 -0.1410 -0.1177
  949MOL0     O30848   3.674  -0.671   3.924 -0.2587  0.0167 -0.4295
  949MOL0     C30849   3.791  -0.689   3.865 -0.7077  0.6755 -0.8768
  949MOL0     C30850   3.902  -0.607   3.885  0.3547  0.8926 -0.2400
  949MOL0     C30851   4.021  -0.629   3.810  0.4998  0.7119  0.4036
  949MOL0     C30852   4.128  -0.520   3.841  0.3584  0.3923 -0.0277
  949MOL0     C30853   4.038  -0.739   3.720 -0.2483 -0.5887 -0.3431
  949MOL0     C30854   4.171  -0.772   3.662  0.1267  0.0854  0.3279
  949MOL0     O30855   4.168  -0.871   3.565  0.1333  0.2277  0.7114
  949MOL0     C30856   4.292  -0.926   3.525 -0.1424 -0.4016  0.4911
  949MOL0     C30857   4.350  -0.912   3.396 -0.0404 -0.0808 -0.2339
  949MOL0     C30858   4.478  -0.972   3.367  0.1114 -0.0778 -0.2444
  949MOL0     C30859   4.542  -1.061   3.458 -0.6375  0.4301  0.0287
  949MOL0     O30860   4.653  -1.144   3.428  0.0266  0.1172  1.0774
  949MOL0     C30861   4.684  -1.155   3.290  0.8436 -0.6238 -0.6314
  949MOL0     C30862   4.770  -1.279   3.266  0.5274 -0.4689 -0.6332
  949MOL0     C30863   4.907  -1.242   3.338 -0.1851  0.5676  0.0380
  949MOL0     C30864   5.003  -1.355   3.295 -1.0439  0.5007  0.2121
  949MOL0     C30865   5.132  -1.332   3.388  1.2087 -0.9158 -0.4716
  949MOL0     C30866   5.252  -1.422   3.336  0.8548 -0.6365 -0.4903
  949MOL0     C30867   5.387  -1.388   3.395 -0.5877 -0.8074 -0.6328
  949MOL0     C30868   5.443  -1.246   3.356 -0.4787 -0.0172 -1.0612
  949MOL0    Cl30869   5.621  -1.225   3.352 -0.1149 -0.1179  0.4437
  949MOL0     C30870   4.473  -1.077   3.585 -0.4183 -0.1450  0.2952
  949MOL0     C30871   4.354  -1.012   3.616  0.4136 -0.4776 -0.1564
  949MOL0     O30872   4.272  -0.722   3.705 -0.3868 -0.0326  0.3101
  949MOL0     C30873   3.920  -0.816   3.697  0.1918 -0.0523  0.7469
  949MOL0     C30874   3.807  -0.787   3.771  0.8188  0.9786  0.1344
  949MOL0     N30875   3.176  -0.493   4.151 -0.0248 -0.7168  0.5239
  949MOL0     N30876   3.122  -0.385   4.202  0.0767  0.0884 -0.2611
  949MOL0     C30877   3.922   0.437   4.753  0.7170 -0.4260  0.3238
  949MOL0     C30878   4.039   0.515   4.780 -0.7764 -0.3123 -0.0997
  949MOL0     C30879   4.472   0.651   4.807 -0.2868  0.1744 -0.8201
  949MOL0     C30880   4.548   0.619   4.925 -0.3373  0.0314 -0.6694
  949MOL0     C30881   4.676   0.666   4.945  0.9902 -0.4468 -0.3324
  949MOL0     C30882   4.735   0.746   4.845 -0.1122  1.3542  0.2998
  949MOL0     O30883   4.868   0.779   4.847  0.9854 -0.6788 -0.0896
  949MOL0     C30884   4.950   0.758   4.962 -0.0177  0.2150  0.1194
  949MOL0     C30885   4.928   0.854   5.081 -0.2774 -1.0140  0.0934
  949MOL0     C30886   4.911   1.000   5.026  0.2379  0.5568 -0.6365
  949MOL0     C30887   4.813   1.083   5.113 -0.0894  0.0161  0.8353
  949MOL0     C30888   4.799   1.215   5.042  0.3544  0.6571  0.5733
  949MOL0     C30889   4.772   1.327   4.997 -0.2887 -0.7617 -0.3710
  949MOL0     C30890   4.667   0.760   4.725 -0.5505 -0.1162 -0.0834
  949MOL0     C30891   4.540   0.719   4.702  1.5532  0.0380 -0.4799
  949MOL0     C30892   4.473   0.757   4.567  0.0542 -0.2292  0.1622
  949MOL0     H30893   4.208   0.468   4.492  0.1872 -0.2201  0.1852
  949MOL0     H30894   3.985   0.346   4.431 -0.4506  0.8257 -0.3001
  949MOL0     H30895   3.842   0.177   4.437 -1.4854 -1.1598 -2.2247
  949MOL0     H30896   3.736   0.317   4.416  0.1748 -1.4247 -1.5470
  949MOL0     H30897   3.697   0.048   4.541  2.2739  2.2487  1.0586
  949MOL0     H30898   3.578   0.184   4.556  0.3281 -1.4816  1.3495
  949MOL0     H30899   3.564   0.200   4.310  2.2761 -0.2059 -0.1667
  949MOL0     H30900   3.679   0.068   4.304 -1.1898 -1.8945 -1.0193
  949MOL0     H30901   3.496  -0.079   4.414  3.1960  0.3304 -1.4023
  949MOL0     H30902   3.398   0.067   4.457 -1.7398  0.5319 -1.7989
  949MOL0     H30903   3.442   0.002   4.164  0.5792  4.0338 -0.1295
  949MOL0     H30904   3.333   0.112   4.234  0.2885  0.3743  0.6751
  949MOL0     H30905   3.319  -0.182   4.246  1.4129  0.7643  0.6846
  949MOL0     H30906   3.212  -0.067   4.347  1.3678  3.5849  0.6430
  949MOL0     H30907   3.212  -0.062   4.032 -0.1939  0.9735 -0.0391
  949MOL0     H30908   3.129   0.040   4.147  3.8972  2.2209 -1.7295
  949MOL0     H30909   3.003  -0.167   4.227  1.6094 -0.3437  1.0995
  949MOL0     H30910   2.986  -0.146   4.046  2.0436 -3.7373 -2.9571
  949MOL0     H30911   3.168  -0.275   3.898 -1.7807 -1.0001 -1.8574
  949MOL0     H30912   3.210  -0.522   3.807  1.1835  0.5101 -0.4933
  949MOL0     H30913   3.255  -0.660   3.925  3.4647 -0.4981 -0.4635
  949MOL0     H30914   3.439  -0.603   3.812 -1.4188 -0.9019 -0.4028
  949MOL0     H30915   3.415  -0.432   3.833 -2.3622 -1.6843 -0.7883
  949MOL0     H30916   3.481  -0.443   4.073  3.2214 -1.0842  1.8867
  949MOL0     H30917   3.459  -0.622   4.069  0.9179 -0.1929 -1.0228
  949MOL0     H30918   3.678  -0.477   3.899 -0.6499 -1.7576 -1.6727
  949MOL0     H30919   3.699  -0.537   4.072  1.8438 -0.3435 -1.3303
  949MOL0     H30920   3.893  -0.523   3.954  1.8591  0.2599  0.7783
  949MOL0     H30921   4.091  -0.445   3.912 -2.1843 -1.3333  0.6122
  949MOL0     H30922   4.149  -0.470   3.746 -0.1020 -1.8342 -1.3571
  949MOL0     H30923   4.219  -0.564   3.883 -1.1791 -2.5856  0.4413
  949MOL0     H30924   4.305  -0.849   3.320 -0.7259 -0.2593  0.0144
  949MOL0     H30925   4.517  -0.943   3.270 -0.1841  1.3057  0.0339
  949MOL0     H30926   4.597  -1.169   3.224  1.4505 -0.4218 -1.4977
  949MOL0     H30927   4.731  -1.063   3.254 -0.2106  0.2398  0.1423
  949MOL0     H30928   4.718  -1.369   3.301 -1.9428  0.3070 -2.0420
  949MOL0     H30929   4.799  -1.310   3.165  2.4530 -2.2140  0.3761
  949MOL0     H30930   4.890  -1.242   3.446 -0.0870 -0.7920  0.0754
  949MOL0     H30931   4.951  -1.147   3.305  0.6074  0.0547 -0.4317
  949MOL0     H30932   5.033  -1.338   3.191  1.0347 -0.5103  0.5880
  949MOL0     H30933   4.969  -1.458   3.312  1.2352 -0.3510 -0.1184
  949MOL0     H30934   5.167  -1.229   3.374 -0.5243 -0.4944 -2.1184
  949MOL0     H30935   5.101  -1.352   3.491  0.4525 -0.6582 -0.6397
  949MOL0     H30936   5.251  -1.417   3.227  1.1647  2.5649 -0.4479
  949MOL0     H30937   5.237  -1.529   3.353  3.5587 -1.3594 -2.0770
  949MOL0     H30938   5.462  -1.458   3.359  0.1362 -0.4593  0.1556
  949MOL0     H30939   5.382  -1.416   3.501 -2.7214 -3.0650 -1.2348
  949MOL0     H30940   5.402  -1.176   3.429  0.8035 -1.4541  1.1577
  949MOL0     H30941   5.413  -1.215   3.256  3.1540  1.0576 -1.9768
  949MOL0     H30942   4.520  -1.151   3.650  1.2164  0.4230 -0.1915
  949MOL0     H30943   4.319  -1.021   3.718  2.5119 -1.6771  0.5096
  949MOL0     H30944   3.920  -0.906   3.635 -0.0817  0.1670  0.4273
  949MOL0     H30945   3.721  -0.852   3.758  1.0597 -0.0013  2.8418
  949MOL0     H30946   3.860   0.426   4.841  0.8180  1.7161  0.7074
  949MOL0     H30947   4.039   0.568   4.875  1.5458 -0.6420  0.1464
  949MOL0     H30948   4.496   0.567   5.004 -0.4832  0.0005 -0.7838
  949MOL0     H30949   4.724   0.648   5.041  0.1264 -0.3373  0.1317
  949MOL0     H30950   4.949   0.653   4.994 -0.4126 -0.4169 -1.8271
  949MOL0     H30951   5.055   0.769   4.931  0.9173 -0.0602  2.8703
  949MOL0     H30952   5.019   0.864   5.140  0.6942  1.2176 -1.6439
  949MOL0     H30953   4.842   0.824   5.143 -0.0782  1.3112  1.6713
  949MOL0     H30954   5.008   1.049   5.015  1.6909 -2.5689 -3.8691
  949MOL0     H30955   4.876   1.010   4.923  0.5329  1.3005 -0.6680
  949MOL0     H30956   4.846   1.080   5.217 -1.5245 -0.7308  1.2949
  949MOL0     H30957   4.715   1.035   5.119  0.9040 -2.4451 -0.9883
  949MOL0     H30958   4.742   1.426   4.968 -0.2760 -0.4009  0.7913
  949MOL0     H30959   4.717   0.809   4.642 -0.0179 -0.7863 -0.1594
  949MOL0     H30960   4.528   0.842   4.526 -2.9138  1.2131 -1.1553
  949MOL0     H30961   4.478   0.671   4.499 -0.8285  0.8890 -1.3887
  949MOL0     H30962   4.369   0.790   4.569 -0.3632 -1.3820 -1.0219
  950MOL0     O30963   8.541   0.508   0.825  0.2376 -0.1992  0.3133
  950MOL0     C30964   8.587   0.570   0.926  0.1866  0.2081  0.0071
  950MOL0     O30965   8.653   0.690   0.914 -0.3907  0.1962 -0.2097
  950MOL0     C30966   8.727   0.704   0.803 -0.6094 -0.7466  0.4684
  950MOL0     C30967   8.819   0.613   0.753 -1.6519  0.1069 -0.3098
  950MOL0     C30968   8.918   0.644   0.650 -0.7145  0.8924 -0.2583
  950MOL0     C30969   8.904   0.760   0.582  0.4289 -0.4113  0.2990
  950MOL0     O30970   8.971   0.792   0.469  0.3003  0.0349  0.4089
  950MOL0     C30971   9.099   0.738   0.430 -0.3771  0.2374  0.2297
  950MOL0     C30972   9.208   0.776   0.529 -0.7953 -0.4178 -0.1863
  950MOL0     C30973   9.232   0.923   0.558  0.6138 -0.2759  0.5825
  950MOL0     C30974   9.364   0.954   0.626  0.6602  0.4630  0.6936
  950MOL0     C30975   9.372   1.098   0.669  0.4118  0.3820  1.8002
  950MOL0     C30976   9.507   1.161   0.666  0.1336  0.1650 -0.1593
  950MOL0     C30977   9.524   1.266   0.774 -0.7222 -0.2673 -0.9617
  950MOL0     C30978   9.423   1.379   0.755  0.5782  0.5663  0.9109
  950MOL0     N30979   9.437   1.502   0.840 -0.4030  0.1731  0.3348
  950MOL0     C30980   9.397   1.624   0.797  0.3575  0.2017 -0.5075
  950MOL0     C30981   9.444   1.714   0.886 -0.3628 -0.2489  0.4214
  950MOL0     C30982   9.430   1.864   0.885  0.7111  0.2787  0.5100
  950MOL0     C30983   9.506   1.955   0.788 -0.0994  0.3173  0.5770
  950MOL0     C30984   9.657   1.914   0.768 -0.5975 -0.5121  1.1119
  950MOL0     C30985   9.739   1.923   0.896 -0.1999  0.2146  0.4094
  950MOL0     O30986   9.865   1.847   0.882 -0.2307  0.2572  0.5267
  950MOL0     C30987   9.983   1.921   0.850  0.3767 -0.1604 -0.3468
  950MOL0     C30988   9.976   2.039   0.770  0.0005 -0.3353  0.1550
  950MOL0     C30989  10.094   2.101   0.731  0.2079 -0.5973 -0.5236
  950MOL0     C30990  10.074   2.220   0.635 -0.4417  0.7323 -0.5547
  950MOL0     C30991  10.218   2.042   0.756  0.4349 -0.4256 -0.4082
  950MOL0     C30992  10.351   2.099   0.706  1.1530 -0.0869  0.2831
  950MOL0     O30993  10.453   2.047   0.773 -0.0430 -0.2568 -0.1544
  950MOL0     C30994  10.576   2.040   0.708 -0.6470 -0.0724 -0.8297
  950MOL0     C30995  10.641   1.918   0.707  0.6738 -0.0103  0.2979
  950MOL0     C30996  10.764   1.905   0.641 -0.7154  0.2311  1.0068
  950MOL0     C30997  10.835   2.007   0.586 -0.4228 -0.2956  0.0720
  950MOL0     O30998  10.957   1.979   0.533 -0.5463  0.0893 -1.2744
  950MOL0     C30999  11.018   2.070   0.441  0.4120 -0.2566 -0.3147
  950MOL0     C31000  11.135   2.024   0.361  0.6671 -0.0068 -0.0467
  950MOL0     C31001  11.263   2.049   0.434 -0.2742  0.0986  0.1866
  950MOL0     C31002  11.378   1.983   0.353  0.4269 -0.0328 -0.7069
  950MOL0     C31003  11.517   1.994   0.416  0.1458 -0.2466 -0.6686
  950MOL0     C31004  11.542   1.902   0.542  1.1748  0.2802 -0.2406
  950MOL0     C31005  11.690   1.896   0.582  0.5175 -0.7297  0.1286
  950MOL0     C31006  11.705   1.818   0.710 -0.1980 -0.2922 -0.0560
  950MOL0    Cl31007  11.869   1.851   0.780  0.1222 -0.3300  0.0386
  950MOL0     C31008  10.767   2.135   0.582 -0.9256 -0.0700 -0.5363
  950MOL0     C31009  10.648   2.150   0.654  0.7979  0.0115 -0.1012
  950MOL0     O31010  10.360   2.179   0.605 -0.4274  0.4312 -0.7815
  950MOL0     C31011  10.224   1.922   0.832  0.2605  0.0229 -0.3113
  950MOL0     C31012  10.105   1.863   0.873 -0.7530  0.5864 -0.3631
  950MOL0     N31013   9.509   1.644   0.985 -0.1009  0.4510 -0.1285
  950MOL0     N31014   9.493   1.514   0.964  0.1594  0.6307 -0.6255
  950MOL0     C31015   8.812   0.854   0.626 -0.3239 -0.5500  0.8687
  950MOL0     C31016   8.714   0.823   0.728 -0.8010 -0.5253 -0.1842
  950MOL0     C31017   8.553   0.520   1.060  0.4254 -0.0225 -0.3888
  950MOL0     C31018   8.439   0.434   1.064 -0.1880 -0.8086 -0.6434
  950MOL0     C31019   8.386   0.397   1.184  0.1856  0.4119 -0.6257
  950MOL0     C31020   8.456   0.431   1.304 -0.3680  0.5690  0.2241
  950MOL0     O31021   8.428   0.378   1.420  0.0729 -0.3804  0.5297
  950MOL0     C31022   8.291   0.369   1.453 -0.1141  0.4218  0.3019
  950MOL0     C31023   8.291   0.349   1.606  0.0575 -0.0310 -0.5532
  950MOL0     C31024   8.149   0.334   1.661 -0.6137 -0.2827  0.2847
  950MOL0     C31025   8.167   0.290   1.807 -1.4633 -0.2321  0.0198
  950MOL0     C31026   8.037   0.263   1.865 -0.0974 -0.0553 -0.1607
  950MOL0     C31027   7.934   0.228   1.920 -0.4437 -0.5890  0.9421
  950MOL0     C31028   8.574   0.504   1.303 -0.4092  0.2961  0.0359
  950MOL0     C31029   8.626   0.547   1.180 -0.0527 -0.4189  0.5249
  950MOL0     C31030   8.758   0.624   1.181  0.1538 -0.3673  0.2288
  950MOL0     H31031   8.832   0.516   0.798 -0.7602 -0.4293 -1.6549
  950MOL0     H31032   8.980   0.559   0.623 -2.1154  0.4845 -2.4254
  950MOL0     H31033   9.128   0.773   0.330 -1.3233  1.1014  0.2387
  950MOL0     H31034   9.096   0.630   0.412 -4.3429  0.1033  0.7691
  950MOL0     H31035   9.187   0.723   0.622 -0.0822  0.2676  0.3779
  950MOL0     H31036   9.304   0.731   0.504  0.3453  2.0962 -0.6528
  950MOL0     H31037   9.233   0.981   0.465 -1.9781 -0.4771  0.3295
  950MOL0     H31038   9.147   0.963   0.615  0.1742 -1.7752  1.0241
  950MOL0     H31039   9.383   0.894   0.715 -1.9891 -2.7387 -0.6667
  950MOL0     H31040   9.444   0.937   0.552  2.0000 -2.1740  2.6004
  950MOL0     H31041   9.343   1.097   0.774  0.5207 -1.2165  1.8485
  950MOL0     H31042   9.308   1.161   0.607  0.2251 -0.7547  0.7925
  950MOL0     H31043   9.581   1.083   0.687 -0.9384 -0.0049  3.7291
  950MOL0     H31044   9.527   1.222   0.577  1.6584  0.3043  0.2462
  950MOL0     H31045   9.623   1.311   0.775 -0.5747 -0.4662  1.7603
  950MOL0     H31046   9.515   1.214   0.870  0.8866 -1.2440 -1.3029
  950MOL0     H31047   9.446   1.404   0.651 -0.3698 -0.9256  0.3111
  950MOL0     H31048   9.320   1.343   0.763  1.1552 -0.7407  3.1307
  950MOL0     H31049   9.328   1.641   0.715 -1.8618  0.5651  1.3267
  950MOL0     H31050   9.470   1.878   0.986 -0.8816 -1.7337  1.4952
  950MOL0     H31051   9.330   1.911   0.885  1.2644  1.6044  2.7316
  950MOL0     H31052   9.458   1.967   0.691 -0.5718 -0.6827  0.6734
  950MOL0     H31053   9.508   2.056   0.830  0.9073  2.1761 -3.4485
  950MOL0     H31054   9.660   1.813   0.725  3.7225 -1.3284  2.8170
  950MOL0     H31055   9.695   1.988   0.697  0.8928 -1.0760  1.2795
  950MOL0     H31056   9.735   2.031   0.916  0.9801  0.5539 -0.9813
  950MOL0     H31057   9.681   1.869   0.971  1.2056 -3.2979 -0.8067
  950MOL0     H31058   9.877   2.074   0.744 -0.0087 -0.8367 -0.4903
  950MOL0     H31059  10.149   2.298   0.654 -1.9420  1.3566  4.5243
  950MOL0     H31060   9.979   2.266   0.664 -0.4873 -0.1776  0.8742
  950MOL0     H31061  10.077   2.178   0.535  3.7193 -0.3243 -0.1458
  950MOL0     H31062  10.594   1.827   0.745  1.5027 -0.0700  1.2162
  950MOL0     H31063  10.813   1.808   0.652 -0.8303  0.2969  2.2042
  950MOL0     H31064  10.936   2.099   0.374  1.8836  2.0289 -1.2728
  950MOL0     H31065  11.044   2.157   0.502 -0.6137 -1.3479  1.7911
  950MOL0     H31066  11.120   1.915   0.356  1.8599 -0.1989  0.2468
  950MOL0     H31067  11.141   2.056   0.257 -0.7551 -2.1775 -0.8818
  950MOL0     H31068  11.256   2.011   0.537 -1.0867 -0.1663  0.0366
  950MOL0     H31069  11.283   2.157   0.436 -1.7218  0.3729  1.2416
  950MOL0     H31070  11.378   2.024   0.251  2.0558  0.7502 -0.4308
  950MOL0     H31071  11.357   1.877   0.341  0.6388 -0.1956  0.2974
  950MOL0     H31072  11.573   1.953   0.332 -2.2102  0.2778 -2.6261
  950MOL0     H31073  11.538   2.099   0.439  1.3746 -1.0093  2.1931
  950MOL0     H31074  11.518   1.798   0.515 -2.4682  0.1439  2.7561
  950MOL0     H31075  11.481   1.937   0.625  2.9909 -1.7577  2.1076
  950MOL0     H31076  11.732   1.995   0.601 -3.1740  1.2815 -1.1670
  950MOL0     H31077  11.740   1.848   0.497  0.3347 -0.8938  0.1163
  950MOL0     H31078  11.677   1.713   0.696 -1.4749 -0.1200  0.9939
  950MOL0     H31079  11.620   1.854   0.770 -1.5228 -3.0931 -0.0935
  950MOL0     H31080  10.797   2.223   0.528 -1.7025 -0.7728 -2.1837
  950MOL0     H31081  10.600   2.247   0.653 -2.4981 -1.4864 -2.5224
  950MOL0     H31082  10.319   1.873   0.851  1.0062  1.1896 -0.8591
  950MOL0     H31083  10.104   1.767   0.924  0.6498 -0.6050 -2.4061
  950MOL0     H31084   8.819   0.954   0.584  0.9435 -0.3847  1.4225
  950MOL0     H31085   8.638   0.898   0.750  0.0987 -0.6764  4.5310
  950MOL0     H31086   8.386   0.413   0.972  2.1332  0.5221 -2.4185
  950MOL0     H31087   8.304   0.326   1.193  1.2656 -0.6279  1.4965
  950MOL0     H31088   8.242   0.464   1.426  2.7092  1.5347 -1.3911
  950MOL0     H31089   8.252   0.283   1.399 -2.6040  2.1593 -0.9043
  950MOL0     H31090   8.329   0.435   1.662 -1.1326 -0.0565  0.3248
  950MOL0     H31091   8.349   0.259   1.627  2.6260  1.5611 -0.3791
  950MOL0     H31092   8.095   0.429   1.669  2.6507  1.7225  0.4082
  950MOL0     H31093   8.099   0.258   1.600  0.6218 -0.0806 -1.0479
  950MOL0     H31094   8.231   0.368   1.849  1.4301 -0.8106 -2.8805
  950MOL0     H31095   8.227   0.198   1.809 -1.1447 -0.0215  0.2873
  950MOL0     H31096   7.837   0.216   1.965 -0.7507  2.9192  1.4847
  950MOL0     H31097   8.640   0.518   1.388  1.3220 -4.5703 -0.1631
  950MOL0     H31098   8.807   0.628   1.278 -0.3571  1.8214  0.4445
  950MOL0     H31099   8.832   0.592   1.107 -1.2868  0.5986 -1.7358
  950MOL0     H31100   8.743   0.731   1.167 -0.1659 -0.6344 -1.7282
  951MOL0     O31101   3.614  10.293   7.432 -0.4468  0.1673  0.2281
  951MOL0     C31102   3.580  10.236   7.529  0.4670 -0.5395 -0.5597
  951MOL0     O31103   3.609  10.272   7.661 -0.2286 -0.8215 -0.3960
  951MOL0     C31104   3.716  10.351   7.697  0.2700  0.4618  0.4239
  951MOL0     C31105   3.714  10.393   7.831 -0.0871  0.2254 -0.0902
  951MOL0     C31106   3.839  10.449   7.882  0.7706 -0.1564 -0.5187
  951MOL0     C31107   3.942  10.489   7.795 -0.1683 -1.0354 -0.5401
  951MOL0     O31108   4.055  10.567   7.837 -0.3325  0.0455  0.6048
  951MOL0     C31109   4.047  10.641   7.964  0.2767  0.5120  0.2912
  951MOL0     C31110   4.155  10.747   7.976  0.0319 -0.0902  0.2923
  951MOL0     C31111   4.289  10.702   8.018 -0.5041  0.7685 -0.4601
  951MOL0     C31112   4.391  10.808   8.054  0.1160 -1.0189  0.1409
  951MOL0     C31113   4.534  10.766   8.110  0.5920 -0.4568 -0.6007
  951MOL0     C31114   4.613  10.671   8.017 -0.1619 -0.6123  0.3656
  951MOL0     C31115   4.741  10.610   8.075  0.3050  0.5838  0.0527
  951MOL0     C31116   4.859  10.708   8.077 -0.8098  1.0293 -0.0413
  951MOL0     N31117   4.950  10.695   7.954  0.0923  0.2165  0.3008
  951MOL0     C31118   5.064  10.623   7.940  0.5741  0.4122 -0.3528
  951MOL0     C31119   5.111  10.662   7.811  0.3059 -0.8598 -0.7345
  951MOL0     C31120   5.234  10.617   7.741  0.2207  0.4835  0.3141
  951MOL0     C31121   5.355  10.598   7.845  0.5651 -0.3047  0.2992
  951MOL0     C31122   5.426  10.725   7.868  0.3091  0.7582 -0.0701
  951MOL0     C31123   5.529  10.757   7.758 -0.6119  0.2914 -0.3615
  951MOL0     O31124   5.603  10.870   7.804 -0.0300  0.1985  0.1736
  951MOL0     C31125   5.728  10.882   7.742 -0.1053  0.2485 -0.5255
  951MOL0     C31126   5.770  10.812   7.624 -0.7641  0.0063  1.0068
  951MOL0     C31127   5.902  10.828   7.574 -0.0281  0.6778  0.0629
  951MOL0     C31128   5.926  10.747   7.450  0.0901  0.0313  0.3318
  951MOL0     C31129   5.993  10.924   7.632 -0.3788  0.7051  0.0599
  951MOL0     C31130   6.137  10.936   7.586 -0.1659  0.4024 -0.2495
  951MOL0     O31131   6.216  11.020   7.653 -0.5068 -0.0445 -0.0424
  951MOL0     C31132   6.346  11.043   7.615  0.3218 -0.4567 -0.2769
  951MOL0     C31133   6.443  10.990   7.705 -0.2952  0.1205 -0.1391
  951MOL0     C31134   6.579  11.002   7.672  0.4195 -0.0592  0.3967
  951MOL0     C31135   6.616  11.079   7.567 -0.1341 -0.4097 -0.2138
  951MOL0     O31136   6.747  11.127   7.541  0.0745 -0.2198 -0.3958
  951MOL0     C31137   6.858  11.054   7.585  0.0116  0.1628 -0.0346
  951MOL0     C31138   6.980  11.120   7.514 -0.1618 -0.6775 -1.0258
  951MOL0     C31139   6.999  11.266   7.565 -0.8626 -0.3406  0.6425
  951MOL0     C31140   7.126  11.314   7.499 -0.5906 -0.2966 -0.0809
  951MOL0     C31141   7.142  11.470   7.509 -1.0040  1.0183 -0.1122
  951MOL0     C31142   7.266  11.531   7.423 -0.1004  0.3181  0.7547
  951MOL0     C31143   7.227  11.582   7.287 -0.9297  0.1916 -0.6715
  951MOL0     C31144   7.347  11.621   7.205 -0.8625 -0.4326  0.2886
  951MOL0    Cl31145   7.442  11.744   7.288  0.7285 -0.2890  0.2299
  951MOL0     C31146   6.520  11.140   7.480  0.1064 -0.0782  0.7868
  951MOL0     C31147   6.385  11.132   7.505 -0.2023 -0.1831 -0.6693
  951MOL0     O31148   6.177  10.861   7.493 -0.0712 -0.0685  0.4614
  951MOL0     C31149   5.939  10.999   7.741 -0.7842 -0.1939  0.0154
  951MOL0     C31150   5.813  10.983   7.786  1.2250 -0.5975  0.2216
  951MOL0     N31151   5.026  10.755   7.766  0.2887  0.7219  0.3205
  951MOL0     N31152   4.934  10.782   7.856  0.2813 -0.2671 -0.1116
  951MOL0     C31153   3.944  10.457   7.666  0.0069  0.0519  0.9478
  951MOL0     C31154   3.829  10.392   7.616 -0.6425  0.5842 -0.6178
  951MOL0     C31155   3.473  10.140   7.516  0.4911  0.7048  0.3857
  951MOL0     C31156   3.389  10.118   7.625  0.4573  0.0044 -0.2662
  951MOL0     C31157   3.277  10.032   7.612  0.5958 -0.1217 -0.4234
  951MOL0     C31158   3.244   9.965   7.494  0.1934  0.2201 -0.1117
  951MOL0     O31159   3.130   9.884   7.515 -0.3467  0.4806  0.7203
  951MOL0     C31160   3.096   9.801   7.402  1.0503 -0.6704  0.0791
  951MOL0     C31161   3.034   9.665   7.456  0.2842  0.5649  0.6569
  951MOL0     C31162   3.141   9.563   7.500 -0.6062  0.6153 -0.4084
  951MOL0     C31163   3.094   9.417   7.448 -0.9989  0.0561 -0.8096
  951MOL0     C31164   3.175   9.300   7.489 -0.4084 -0.3758 -0.2293
  951MOL0     C31165   3.233   9.201   7.519 -0.1849  0.2702 -0.1558
  951MOL0     C31166   3.329   9.987   7.384 -0.6608  0.4489  0.1281
  951MOL0     C31167   3.443  10.067   7.392 -0.0608  1.1972  0.3253
  951MOL0     C31168   3.525  10.071   7.257 -0.1721  0.0588 -0.3773
  951MOL0     H31169   3.627  10.365   7.889  0.5033  1.3066  1.3845
  951MOL0     H31170   3.833  10.475   7.987 -1.5419  0.7660 -0.8191
  951MOL0     H31171   4.059  10.570   8.046  0.7818  0.4753  0.1932
  951MOL0     H31172   3.949  10.690   7.969  0.0121  0.1647 -1.1018
  951MOL0     H31173   4.171  10.791   7.877  1.1709 -0.3226  0.3543
  951MOL0     H31174   4.126  10.827   8.045  1.2004 -0.8887  1.7714
  951MOL0     H31175   4.271  10.640   8.107 -0.6169 -1.3204 -1.8610
  951MOL0     H31176   4.328  10.633   7.942  0.4986  2.1203 -1.2019
  951MOL0     H31177   4.415  10.869   7.966 -2.2712  0.3362  0.3319
  951MOL0     H31178   4.354  10.874   8.133  0.2576 -0.9597  0.1587
  951MOL0     H31179   4.522  10.715   8.206  2.1523 -1.0133 -0.6709
  951MOL0     H31180   4.586  10.862   8.116  1.1927 -0.7943 -0.2811
  951MOL0     H31181   4.550  10.585   7.995 -1.9018  0.8177 -0.4782
  951MOL0     H31182   4.633  10.721   7.922  0.8134 -1.0178  0.3488
  951MOL0     H31183   4.762  10.518   8.020 -2.0836  0.1341 -0.2129
  951MOL0     H31184   4.708  10.582   8.175 -0.9980  1.0818 -0.2244
  951MOL0     H31185   4.816  10.808   8.079 -2.8423  0.2300 -1.0606
  951MOL0     H31186   4.916  10.690   8.168 -2.8057  1.1610  1.2929
  951MOL0     H31187   5.113  10.551   8.004 -0.2570 -0.0396 -0.2071
  951MOL0     H31188   5.256  10.686   7.659 -0.7110  0.3161 -0.0908
  951MOL0     H31189   5.201  10.524   7.693  1.1211 -0.5510  1.6374
  951MOL0     H31190   5.322  10.542   7.934  3.5865 -0.3759  1.4813
  951MOL0     H31191   5.429  10.535   7.796  0.9656 -1.1500  1.9202
  951MOL0     H31192   5.357  10.807   7.889 -0.4963  0.5570 -1.8004
  951MOL0     H31193   5.484  10.710   7.960  2.1580 -3.1719 -1.6657
  951MOL0     H31194   5.598  10.673   7.764 -1.9562 -0.7600  3.0257
  951MOL0     H31195   5.489  10.772   7.658  0.4145  1.4949 -0.6094
  951MOL0     H31196   5.703  10.732   7.595 -0.4314  0.3298 -0.7321
  951MOL0     H31197   5.987  10.659   7.472  1.2137  0.0297 -2.3303
  951MOL0     H31198   5.967  10.811   7.372 -0.6712  1.4401  1.0474
  951MOL0     H31199   5.828  10.719   7.409 -0.0701  2.8541 -1.4883
  951MOL0     H31200   6.416  10.920   7.784  0.0716 -0.1243 -0.2302
  951MOL0     H31201   6.653  10.959   7.739  1.6505  3.6996  1.6729
  951MOL0     H31202   6.872  11.051   7.693  2.3178 -0.0227 -0.2910
  951MOL0     H31203   6.848  10.953   7.542  1.7609 -0.1604  0.2244
  951MOL0     H31204   7.062  11.053   7.542  0.4808  0.1952 -0.7937
  951MOL0     H31205   6.971  11.104   7.406  2.4274 -1.5706 -1.1669
  951MOL0     H31206   7.003  11.272   7.674  0.6386  0.0961  0.5948
  951MOL0     H31207   6.921  11.331   7.524  2.2654  1.9038 -2.4836
  951MOL0     H31208   7.116  11.287   7.393  0.9346  1.9546 -0.8774
  951MOL0     H31209   7.217  11.268   7.538  0.1804  2.3558  1.5203
  951MOL0     H31210   7.049  11.521   7.482  0.8842  4.2644 -1.0599
  951MOL0     H31211   7.157  11.490   7.615 -2.9458 -0.6421  0.5408
  951MOL0     H31212   7.345  11.458   7.402 -0.7713 -0.4631  0.8725
  951MOL0     H31213   7.307  11.611   7.485  0.9889 -0.8317  1.5796
  951MOL0     H31214   7.159  11.667   7.298 -0.6352  0.4853 -1.0915
  951MOL0     H31215   7.166  11.509   7.232 -0.2078 -2.6873  2.0393
  951MOL0     H31216   7.329  11.659   7.104  3.8870  2.4124  0.1839
  951MOL0     H31217   7.423  11.544   7.187  0.1192  1.2944 -4.2841
  951MOL0     H31218   6.554  11.203   7.399 -1.5726 -1.2869 -0.9386
  951MOL0     H31219   6.308  11.176   7.443 -2.2317 -1.5327  0.7355
  951MOL0     H31220   6.001  11.065   7.802 -2.0946 -0.0870  1.2927
  951MOL0     H31221   5.769  11.036   7.870 -2.2176 -0.4183 -1.5164
  951MOL0     H31222   4.027  10.470   7.597 -0.5659  1.1783  0.4522
  951MOL0     H31223   3.827  10.371   7.509 -0.5619  1.8248 -0.8863
  951MOL0     H31224   3.412  10.165   7.720 -2.0406 -0.1388  0.4518
  951MOL0     H31225   3.205  10.032   7.694  1.0746  0.4865  0.0074
  951MOL0     H31226   3.028   9.854   7.334  2.2227 -0.6531 -1.1353
  951MOL0     H31227   3.181   9.767   7.342 -0.2051  0.8917 -2.8063
  951MOL0     H31228   2.987   9.622   7.367 -0.2944 -0.7608  1.5795
  951MOL0     H31229   2.964   9.679   7.538  3.0427 -0.4663  3.4009
  951MOL0     H31230   3.237   9.588   7.453  1.0602  0.3800  2.6464
  951MOL0     H31231   3.147   9.559   7.609 -1.6575 -0.9508 -0.3737
  951MOL0     H31232   3.074   9.423   7.341  2.0817  2.1784 -1.4217
  951MOL0     H31233   2.996   9.392   7.490 -2.0777  1.6264 -2.2705
  951MOL0     H31234   3.282   9.107   7.537  0.9282  1.0489  1.1371
  951MOL0     H31235   3.315   9.930   7.293  1.5134  0.7751 -0.4757
  951MOL0     H31236   3.475  10.016   7.177 -0.8030 -0.3027  0.2572
  951MOL0     H31237   3.541  10.176   7.229 -2.3433  0.2818 -0.9297
  951MOL0     H31238   3.625  10.031   7.277  0.1065  0.5455 -0.7715
  952MOL0     O31239   6.702   3.537   1.893  0.4127  1.2107  0.2679
  952MOL0     C31240   6.743   3.550   2.010 -0.2555 -0.9576  0.1257
  952MOL0     O31241   6.877   3.564   2.034  0.3813  0.2482 -0.4964
  952MOL0     C31242   6.959   3.552   1.923  0.5797  0.7619  0.2396
  952MOL0     C31243   7.025   3.432   1.896  0.4120 -0.0409  0.8818
  952MOL0     C31244   7.109   3.413   1.782  0.0809 -0.3865 -0.8202
  952MOL0     C31245   7.134   3.519   1.704  0.3199 -0.0283  1.0351
  952MOL0     O31246   7.214   3.495   1.591  0.9210  1.5467 -0.4647
  952MOL0     C31247   7.189   3.572   1.477 -0.1513  0.2840  0.4374
  952MOL0     C31248   7.279   3.531   1.365  0.0172  0.8378  0.4960
  952MOL0     C31249   7.426   3.581   1.379 -0.0102  0.2340  0.0773
  952MOL0     C31250   7.510   3.550   1.249  0.5361 -0.5585  0.4505
  952MOL0     C31251   7.642   3.630   1.259 -0.0194 -0.3109  0.7573
  952MOL0     C31252   7.760   3.571   1.190  0.1159 -0.2407  0.2142
  952MOL0     C31253   7.869   3.676   1.199 -0.2719 -0.0151 -0.5212
  952MOL0     C31254   7.927   3.708   1.338 -0.0442  0.0421  0.3324
  952MOL0     N31255   8.022   3.821   1.333  0.6846  0.4134  0.2085
  952MOL0     C31256   7.992   3.956   1.361 -0.1628 -0.5821  0.1616
  952MOL0     C31257   8.102   4.019   1.328  0.2358 -0.6896 -0.0686
  952MOL0     C31258   8.111   4.175   1.317 -0.0541  0.0553 -0.0965
  952MOL0     C31259   8.050   4.245   1.439 -0.7537 -1.6726 -0.4935
  952MOL0     C31260   8.070   4.401   1.445 -0.1824 -0.4401 -1.3310
  952MOL0     C31261   8.019   4.480   1.323  0.3454  0.3989  0.1557
  952MOL0     O31262   7.993   4.616   1.346  0.0354  0.1385  0.1160
  952MOL0     C31263   8.100   4.696   1.372  0.5248  0.0105 -0.9485
  952MOL0     C31264   8.069   4.824   1.410  0.2745  0.0736  0.1794
  952MOL0     C31265   8.167   4.915   1.432 -0.3834 -0.2798 -0.9018
  952MOL0     C31266   8.113   5.061   1.460  0.1968  0.3290 -0.0220
  952MOL0     C31267   8.309   4.888   1.425 -0.9488 -0.1693  0.1613
  952MOL0     C31268   8.421   4.986   1.454 -0.2031 -0.6564  0.3644
  952MOL0     O31269   8.542   4.975   1.397  0.6739 -0.7629  0.0980
  952MOL0     C31270   8.632   5.074   1.426 -1.1430  0.7842  0.3876
  952MOL0     C31271   8.679   5.155   1.320  0.6477 -0.5578  0.3231
  952MOL0     C31272   8.784   5.240   1.334 -0.3572 -0.7839 -0.1844
  952MOL0     C31273   8.849   5.253   1.462 -0.1102 -0.1251  0.6553
  952MOL0     O31274   8.953   5.335   1.472 -0.3117 -0.7607 -0.2170
  952MOL0     C31275   9.033   5.342   1.592 -0.0143 -0.3790  0.3511
  952MOL0     C31276   9.144   5.445   1.564  0.7160 -0.0563  0.1796
  952MOL0     C31277   9.252   5.375   1.475  0.1498 -0.7850 -0.0259
  952MOL0     C31278   9.375   5.468   1.459  0.1264 -0.8844  0.7838
  952MOL0     C31279   9.476   5.385   1.368 -0.3992  0.8495 -0.2040
  952MOL0     C31280   9.616   5.433   1.367 -1.1099  0.0971  1.2982
  952MOL0     C31281   9.709   5.337   1.288 -1.4068 -0.4419  0.8199
  952MOL0     C31282   9.665   5.293   1.146  0.0661  0.4559  0.6196
  952MOL0    Cl31283   9.741   5.414   1.026 -0.2109 -0.5201  0.1220
  952MOL0     C31284   8.796   5.179   1.562  0.3219 -1.3407 -0.4545
  952MOL0     C31285   8.686   5.093   1.550 -0.3499  0.0364  0.2499
  952MOL0     O31286   8.390   5.093   1.508  0.7763  0.6507 -0.1678
  952MOL0     C31287   8.337   4.753   1.381  0.3172 -0.2445  0.0808
  952MOL0     C31288   8.232   4.661   1.357 -0.2238  0.5476 -0.1557
  952MOL0     N31289   8.205   3.925   1.292  0.1225  0.8441  0.6569
  952MOL0     N31290   8.151   3.808   1.295 -0.2202  0.0857  0.2704
  952MOL0     C31291   7.078   3.646   1.738  0.9431  0.5033  0.7647
  952MOL0     C31292   6.998   3.660   1.852 -0.6183 -0.8105  0.2231
  952MOL0     C31293   6.649   3.543   2.129 -0.3272 -0.0103 -0.6656
  952MOL0     C31294   6.701   3.542   2.253  0.5510 -0.3728 -1.3953
  952MOL0     C31295   6.628   3.522   2.369  0.6599 -0.1614 -0.3311
  952MOL0     C31296   6.488   3.539   2.368  0.1853  0.0575  0.8481
  952MOL0     O31297   6.412   3.568   2.479  0.0679  0.2519 -0.3570
  952MOL0     C31298   6.480   3.571   2.610 -0.7419  0.1942  0.0468
  952MOL0     C31299   6.544   3.713   2.624 -0.9109 -0.7754  0.5283
  952MOL0     C31300   6.624   3.714   2.750  0.4634  0.0415  0.4672
  952MOL0     C31301   6.710   3.837   2.750 -0.3086 -0.2531 -0.0128
  952MOL0     C31302   6.780   3.842   2.882  1.5174 -0.0188 -0.8880
  952MOL0     C31303   6.832   3.854   2.991  0.3091  0.3287  0.2595
  952MOL0     C31304   6.436   3.548   2.234  0.1375  0.0492 -0.5649
  952MOL0     C31305   6.507   3.557   2.123 -0.4002  0.3169 -0.3813
  952MOL0     C31306   6.435   3.593   1.995 -0.0221  0.5194 -0.2316
  952MOL0     H31307   6.998   3.349   1.960 -2.9583  0.1309 -0.1059
  952MOL0     H31308   7.153   3.316   1.763  3.4968  0.9086 -0.2424
  952MOL0     H31309   7.197   3.681   1.484  2.8167  0.2805 -1.3675
  952MOL0     H31310   7.089   3.543   1.447 -0.4305 -2.1281  3.2548
  952MOL0     H31311   7.269   3.422   1.355  0.8048  0.9378 -2.4914
  952MOL0     H31312   7.241   3.578   1.274  3.3517  2.4705 -0.1994
  952MOL0     H31313   7.420   3.690   1.390  0.7502  0.8435 -3.8920
  952MOL0     H31314   7.478   3.534   1.462 -1.2965  1.0047  1.3666
  952MOL0     H31315   7.543   3.446   1.247  3.0442  0.0668  2.6661
  952MOL0     H31316   7.452   3.580   1.161 -1.1590  0.7836  1.9356
  952MOL0     H31317   7.664   3.653   1.363  2.0316  0.2589  0.2435
  952MOL0     H31318   7.617   3.729   1.219  2.5749  1.5300  3.2917
  952MOL0     H31319   7.781   3.482   1.249  1.8186  0.3058  0.4787
  952MOL0     H31320   7.730   3.541   1.089  0.6924 -1.6036  0.4278
  952MOL0     H31321   7.836   3.770   1.154 -2.8322 -1.1839 -1.3005
  952MOL0     H31322   7.954   3.641   1.140 -0.8644 -1.5269 -0.5426
  952MOL0     H31323   7.850   3.735   1.410  0.6867  1.1413  0.7371
  952MOL0     H31324   7.979   3.622   1.382  2.0901 -0.2679 -2.4546
  952MOL0     H31325   7.901   4.002   1.397  0.0402 -0.4663  0.5370
  952MOL0     H31326   8.067   4.198   1.220  2.7608  1.1004 -1.2276
  952MOL0     H31327   8.218   4.194   1.308  0.1496 -1.1913 -0.4780
  952MOL0     H31328   7.943   4.224   1.438 -0.9867 -0.4922 -0.8379
  952MOL0     H31329   8.102   4.205   1.527  0.7709  3.1370  1.0787
  952MOL0     H31330   8.007   4.438   1.527 -0.1173 -0.6917 -1.1658
  952MOL0     H31331   8.175   4.423   1.465  0.0065 -0.9231 -1.7647
  952MOL0     H31332   8.083   4.456   1.238 -1.1174  1.5270 -1.3376
  952MOL0     H31333   7.916   4.458   1.291  2.1285 -0.4869 -6.3452
  952MOL0     H31334   7.966   4.859   1.411  0.0872 -0.4111  1.8105
  952MOL0     H31335   8.005   5.071   1.475  0.4645  1.8224  1.0970
  952MOL0     H31336   8.131   5.132   1.380  0.1274  2.9333  2.1281
  952MOL0     H31337   8.144   5.113   1.551 -0.8206  2.0300 -0.6134
  952MOL0     H31338   8.625   5.148   1.226  1.0200  0.0534  0.0530
  952MOL0     H31339   8.819   5.302   1.252 -0.6432 -0.1502  0.1763
  952MOL0     H31340   8.975   5.374   1.678 -0.4644  0.2727 -0.1853
  952MOL0     H31341   9.083   5.250   1.623  0.8408  0.3141  1.0658
  952MOL0     H31342   9.114   5.535   1.510  2.8792 -0.1114 -1.2366
  952MOL0     H31343   9.184   5.472   1.662 -2.7352 -1.6558  2.2307
  952MOL0     H31344   9.209   5.360   1.376 -0.4972  1.6250 -0.1559
  952MOL0     H31345   9.281   5.279   1.519  1.4082 -0.9150 -1.0730
  952MOL0     H31346   9.418   5.475   1.560 -0.2203 -0.0653  0.8774
  952MOL0     H31347   9.348   5.567   1.422 -2.8455 -1.0335  2.2204
  952MOL0     H31348   9.473   5.281   1.401 -1.9326  0.5257 -1.2214
  952MOL0     H31349   9.442   5.385   1.264  2.2428  3.0281 -1.1962
  952MOL0     H31350   9.657   5.451   1.467  0.0681  0.4060  0.7804
  952MOL0     H31351   9.626   5.534   1.324  1.0201  0.1835  1.8983
  952MOL0     H31352   9.730   5.245   1.344  1.1724 -0.0711  0.5863
  952MOL0     H31353   9.806   5.388   1.287 -1.0120 -1.1523  1.4953
  952MOL0     H31354   9.557   5.303   1.137 -0.5306 -1.7528  3.8280
  952MOL0     H31355   9.706   5.193   1.127  3.0561  1.5785  0.6162
  952MOL0     H31356   8.841   5.199   1.659  1.9237  0.7120 -1.5581
  952MOL0     H31357   8.659   5.037   1.638  0.3804  1.2101  1.2521
  952MOL0     H31358   8.435   4.709   1.373  1.5604  2.2794  0.3434
  952MOL0     H31359   8.273   4.565   1.330 -0.3222  0.9077 -1.6605
  952MOL0     H31360   7.092   3.725   1.664  3.0336 -0.0514  0.5234
  952MOL0     H31361   6.959   3.757   1.880  1.2818  0.0956 -0.0608
  952MOL0     H31362   6.808   3.556   2.266 -0.0509  2.9524  1.2868
  952MOL0     H31363   6.688   3.530   2.459 -0.1260  1.2860  0.1002
  952MOL0     H31364   6.403   3.574   2.688 -0.2742  4.1718  0.5773
  952MOL0     H31365   6.555   3.492   2.622 -0.2034  0.9140  1.8638
  952MOL0     H31366   6.464   3.787   2.622  0.1994  0.4698 -2.1428
  952MOL0     H31367   6.611   3.734   2.539  1.4177 -1.7403  2.0115
  952MOL0     H31368   6.560   3.727   2.838  0.2922  0.1459  0.3287
  952MOL0     H31369   6.693   3.632   2.768  0.3351  0.0016  0.7820
  952MOL0     H31370   6.656   3.932   2.741  1.2390  0.5443 -1.4370
  952MOL0     H31371   6.782   3.838   2.668  0.1740  2.9978  0.3232
  952MOL0     H31372   6.896   3.856   3.077  0.8721  0.6241 -0.1603
  952MOL0     H31373   6.330   3.540   2.215  0.0776 -0.0813 -0.1907
  952MOL0     H31374   6.491   3.674   1.947  1.2569 -1.0464 -1.4602
  952MOL0     H31375   6.436   3.510   1.925  0.5684 -1.6552  2.2040
  952MOL0     H31376   6.336   3.637   2.009 -0.2270 -0.1356  0.4305
  953MOL0     O31377   0.347   9.452   0.627 -0.3634 -0.6057 -0.5341
  953MOL0     C31378   0.291   9.358   0.567 -0.7562 -0.1054 -0.5115
  953MOL0     O31379   0.347   9.233   0.556 -0.2577  0.8621  0.5674
  953MOL0     C31380   0.471   9.188   0.586 -0.2568  0.6196 -0.5325
  953MOL0     C31381   0.529   9.112   0.480  0.6817  0.2032  0.8097
  953MOL0     C31382   0.654   9.059   0.484 -0.2357 -0.1687 -0.0141
  953MOL0     C31383   0.726   9.075   0.607  0.3769  0.2268 -0.2314
  953MOL0     O31384   0.857   9.031   0.627  0.0451 -0.1139  0.2410
  953MOL0     C31385   0.935   8.973   0.517  0.1945 -0.2815 -0.9364
  953MOL0     C31386   1.081   8.943   0.559 -0.3802  0.0161  0.2386
  953MOL0     C31387   1.173   8.922   0.438 -0.3767 -0.6853  0.9962
  953MOL0     C31388   1.125   8.796   0.350 -1.3385  1.3651 -0.0555
  953MOL0     C31389   1.224   8.780   0.233 -0.1805 -0.4551  0.1068
  953MOL0     C31390   1.176   8.669   0.141  0.9092  0.1245 -0.5685
  953MOL0     C31391   1.260   8.537   0.163  0.0639  0.0640 -0.0508
  953MOL0     C31392   1.265   8.451   0.033  0.0053  0.4114 -0.1157
  953MOL0     N31393   1.304   8.313   0.044 -0.0334  0.0149  0.1738
  953MOL0     C31394   1.427   8.271  -0.004 -0.4562 -0.0087  0.8423
  953MOL0     C31395   1.424   8.132  -0.012 -0.6217  0.6832 -0.8728
  953MOL0     C31396   1.525   8.035  -0.067  0.3223 -0.5724  0.1048
  953MOL0     C31397   1.581   7.925   0.022  0.5597 -0.3180 -0.0748
  953MOL0     C31398   1.724   7.872  -0.003  0.0089 -0.7429  0.1242
  953MOL0     C31399   1.774   7.800   0.117 -0.8071  0.2005  0.8799
  953MOL0     O31400   1.894   7.741   0.059  0.5273  0.0003 -0.4913
  953MOL0     C31401   1.992   7.686   0.141  0.1271 -0.1091 -0.1655
  953MOL0     C31402   2.089   7.618   0.069 -0.5311 -0.1944  0.9708
  953MOL0     C31403   2.199   7.555   0.128 -0.2376  0.1089  0.0965
  953MOL0     C31404   2.298   7.496   0.028 -0.3578  0.7212  0.1036
  953MOL0     C31405   2.206   7.542   0.270 -0.8040 -0.1821 -0.4501
  953MOL0     C31406   2.303   7.461   0.355  0.0322  0.3633 -0.3129
  953MOL0     O31407   2.384   7.370   0.290 -0.1521  0.4749 -0.5759
  953MOL0     C31408   2.467   7.301   0.375 -0.7937  0.1901 -1.0474
  953MOL0     C31409   2.405   7.185   0.438  0.1074 -0.4143 -0.7147
  953MOL0     C31410   2.486   7.115   0.534 -0.7491 -0.5623  1.1338
  953MOL0     C31411   2.624   7.147   0.557  0.5513 -0.1026  0.0123
  953MOL0     O31412   2.700   7.061   0.647 -0.1904  0.1204 -0.1422
  953MOL0     C31413   2.845   7.051   0.625  0.3373  0.2604  0.5075
  953MOL0     C31414   2.905   6.977   0.735  0.2667  0.0679  0.2708
  953MOL0     C31415   2.903   7.052   0.868  0.0556  0.2579 -0.4707
  953MOL0     C31416   3.001   7.006   0.971 -0.8653 -0.2111 -0.3321
  953MOL0     C31417   3.030   7.104   1.085 -0.3212  0.0709 -1.0099
  953MOL0     C31418   2.901   7.156   1.152  0.0616  0.8213 -0.5406
  953MOL0     C31419   2.826   7.046   1.221 -0.7223 -0.0249  0.2489
  953MOL0     C31420   2.699   7.100   1.298  0.0949  0.4971  0.4172
  953MOL0    Cl31421   2.610   6.957   1.359 -0.2244 -0.0940 -0.3287
  953MOL0     C31422   2.681   7.251   0.477  0.0613 -0.6931  0.4726
  953MOL0     C31423   2.607   7.332   0.393  0.5400  0.2849  0.5906
  953MOL0     O31424   2.300   7.484   0.472 -0.3852  0.4557 -0.0608
  953MOL0     C31425   2.127   7.627   0.345  0.0830 -0.1262  0.0575
  953MOL0     C31426   2.017   7.694   0.280  0.4707 -0.0698  0.9546
  953MOL0     N31427   1.296   8.093   0.028  0.9083  0.4333  0.3866
  953MOL0     N31428   1.229   8.197   0.059 -0.5815 -0.1240  0.2756
  953MOL0     C31429   0.671   9.143   0.715  1.2627 -0.0899 -0.5680
  953MOL0     C31430   0.542   9.204   0.706 -0.0540 -0.5578  0.7103
  953MOL0     C31431   0.149   9.366   0.523 -0.5797 -0.2021 -0.3361
  953MOL0     C31432   0.116   9.285   0.412  0.3684  0.3979 -0.1760
  953MOL0     C31433  -0.011   9.285   0.362  0.4143 -0.3337  0.3016
  953MOL0     C31434  -0.110   9.366   0.411  0.2744  0.5456  0.2509
  953MOL0     O31435  -0.225   9.368   0.330 -0.0286  0.3403 -0.7732
  953MOL0     C31436  -0.340   9.327   0.403  0.3425 -0.5168 -0.0844
  953MOL0     C31437  -0.455   9.287   0.305  0.8043  0.8174  0.6855
  953MOL0     C31438  -0.494   9.405   0.215 -0.4701 -0.5660  0.0618
  953MOL0     C31439  -0.604   9.390   0.117  0.2915 -0.7958  0.3016
  953MOL0     C31440  -0.618   9.511   0.026 -0.2234 -0.7911 -0.2463
  953MOL0     C31441  -0.625   9.602  -0.056  0.3485 -0.3653 -0.3382
  953MOL0     C31442  -0.076   9.447   0.515 -0.4644 -0.0830 -0.6405
  953MOL0     C31443   0.053   9.444   0.574 -0.2536 -1.1477  0.3493
  953MOL0     C31444   0.076   9.542   0.682  0.1051 -0.6444 -0.0738
  953MOL0     H31445   0.487   9.094   0.382 -0.1999  0.5634  1.1144
  953MOL0     H31446   0.701   9.033   0.390 -0.3637  0.8518 -0.3730
  953MOL0     H31447   0.935   9.047   0.437 -2.4100 -0.4787 -1.2087
  953MOL0     H31448   0.901   8.877   0.477  0.0328  0.0630 -1.6410
  953MOL0     H31449   1.127   9.023   0.618  1.2324 -1.0886  0.5297
  953MOL0     H31450   1.087   8.859   0.629 -0.3272 -1.4082 -1.4329
  953MOL0     H31451   1.173   9.011   0.374 -0.5694 -1.0274  0.5069
  953MOL0     H31452   1.271   8.904   0.482 -0.9461 -0.5990  2.3253
  953MOL0     H31453   1.126   8.706   0.413  1.4704 -2.0186 -4.2743
  953MOL0     H31454   1.021   8.796   0.317 -3.1278 -0.3807  4.7564
  953MOL0     H31455   1.323   8.761   0.276 -0.0811  1.2494  0.7135
  953MOL0     H31456   1.240   8.871   0.174  0.8425 -1.2248 -0.8511
  953MOL0     H31457   1.077   8.629   0.163  0.8174  0.4885 -0.3044
  953MOL0     H31458   1.189   8.705   0.038  0.9541  1.5713 -0.0830
  953MOL0     H31459   1.217   8.476   0.243  0.1653  0.0358 -0.0180
  953MOL0     H31460   1.360   8.566   0.196  0.5221 -1.4148 -0.0909
  953MOL0     H31461   1.163   8.450  -0.006  0.6805 -2.2608 -2.0877
  953MOL0     H31462   1.328   8.497  -0.044 -1.3461 -0.2794 -1.6858
  953MOL0     H31463   1.510   8.337  -0.029  1.0602 -0.8487  3.2719
  953MOL0     H31464   1.606   8.099  -0.104  2.4336 -0.7910  3.8611
  953MOL0     H31465   1.486   7.986  -0.156  1.6941 -2.1644  0.3258
  953MOL0     H31466   1.577   7.977   0.118 -1.5514  2.0761 -1.3369
  953MOL0     H31467   1.505   7.847   0.028 -2.2407  2.2613  0.4560
  953MOL0     H31468   1.708   7.802  -0.086  0.6032  1.4507 -1.9639
  953MOL0     H31469   1.793   7.951  -0.033  0.7592 -1.1778  0.6676
  953MOL0     H31470   1.802   7.852   0.209 -1.4832  1.2432  0.5152
  953MOL0     H31471   1.695   7.728   0.140 -1.1291 -0.5061 -2.0472
  953MOL0     H31472   2.088   7.602  -0.038  1.9877  0.4527  0.7857
  953MOL0     H31473   2.398   7.515   0.069  0.3846 -1.8884 -0.3659
  953MOL0     H31474   2.290   7.546  -0.069 -0.0354  1.9885  0.6990
  953MOL0     H31475   2.286   7.388   0.018 -0.9989  0.7849  0.1147
  953MOL0     H31476   2.301   7.159   0.426  0.4020 -1.7615 -0.4143
  953MOL0     H31477   2.435   7.042   0.596 -0.3688 -1.6106  0.2528
  953MOL0     H31478   2.854   6.996   0.531  2.6836  1.7392 -0.2465
  953MOL0     H31479   2.891   7.150   0.611 -0.9449  0.8220  0.1299
  953MOL0     H31480   2.853   6.885   0.761 -1.5472  0.7413 -0.8244
  953MOL0     H31481   3.005   6.962   0.694 -0.2231  2.0677 -1.9016
  953MOL0     H31482   2.802   7.046   0.910 -0.9305 -3.0718 -2.8394
  953MOL0     H31483   2.933   7.155   0.849 -1.2669  0.5969 -0.8136
  953MOL0     H31484   3.094   6.993   0.915 -1.4665  0.4322 -1.5092
  953MOL0     H31485   2.963   6.913   1.014  0.3173  0.0772  1.4645
  953MOL0     H31486   3.091   7.052   1.159 -0.3777 -0.1366 -1.1050
  953MOL0     H31487   3.082   7.197   1.062 -4.7737  3.9180  2.5533
  953MOL0     H31488   2.842   7.199   1.070  0.1531  0.2121 -0.9329
  953MOL0     H31489   2.929   7.228   1.229  2.7002 -1.2814  0.6090
  953MOL0     H31490   2.890   6.997   1.294 -0.9579  1.7242  1.6753
  953MOL0     H31491   2.791   6.969   1.151 -2.1069  2.1793 -1.6423
  953MOL0     H31492   2.635   7.145   1.221  1.9912 -0.4959 -1.8956
  953MOL0     H31493   2.724   7.176   1.372 -0.6775  0.0136  1.1860
  953MOL0     H31494   2.785   7.281   0.486  0.2085 -0.1337 -2.1688
  953MOL0     H31495   2.644   7.412   0.329 -3.0027  0.0755 -2.0046
  953MOL0     H31496   2.134   7.642   0.452  1.0218 -0.7655  0.0990
  953MOL0     H31497   1.947   7.749   0.343 -1.4546 -0.6899 -0.5291
  953MOL0     H31498   0.728   9.148   0.807  1.4882 -2.0416 -0.5542
  953MOL0     H31499   0.485   9.255   0.783  0.8562  0.9623  0.4243
  953MOL0     H31500   0.198   9.227   0.372  1.3640 -0.5198  2.8897
  953MOL0     H31501  -0.030   9.209   0.287 -0.5422 -0.3446  0.5467
  953MOL0     H31502  -0.311   9.235   0.454  1.8599 -0.4877 -0.8308
  953MOL0     H31503  -0.375   9.405   0.471  2.1959 -0.4002  0.8054
  953MOL0     H31504  -0.543   9.262   0.366  0.0831  5.5739  1.9810
  953MOL0     H31505  -0.412   9.202   0.252 -1.3802 -0.1697  0.3827
  953MOL0     H31506  -0.507   9.496   0.275  0.5266 -0.0685 -0.4369
  953MOL0     H31507  -0.406   9.432   0.155  0.0831 -0.8709  0.7312
  953MOL0     H31508  -0.698   9.368   0.169  1.7554  0.3464  3.6832
  953MOL0     H31509  -0.573   9.306   0.055 -0.8721 -0.2531 -1.0763
  953MOL0     H31510  -0.637   9.681  -0.127 -2.7650  2.1564  2.6054
  953MOL0     H31511  -0.160   9.507   0.550 -3.4863 -3.7076 -0.8893
  953MOL0     H31512   0.129   9.491   0.764  1.5661  0.6783 -0.1474
  953MOL0     H31513   0.156   9.611   0.654 -1.2357  2.0221  2.1891
  953MOL0     H31514  -0.012   9.603   0.701  1.9337  3.0125 -2.2433
  954MOL0     O31515  10.885   6.809  10.353 -0.6675 -0.4817  0.0555
  954MOL0     C31516  10.885   6.741  10.246  0.9703 -0.4468 -0.3637
  954MOL0     O31517  10.990   6.671  10.196  0.3450 -0.8273 -0.0138
  954MOL0     C31518  11.094   6.633  10.278 -0.1922 -0.3495 -1.9079
  954MOL0     C31519  11.219   6.642  10.228 -0.7205 -0.1225 -0.0752
  954MOL0     C31520  11.334   6.601  10.298  0.1001 -0.1957 -0.6899
  954MOL0     C31521  11.319   6.554  10.430 -0.4614 -0.4571  0.3362
  954MOL0     O31522  11.442   6.519  10.489  0.2852  0.4831 -0.0175
  954MOL0     C31523  11.459   6.550  10.629  0.4393  0.0294 -0.8541
  954MOL0     C31524  11.597   6.518  10.680 -0.3862 -0.2608 -0.6711
  954MOL0     C31525  11.709   6.586  10.598  0.9417  0.6661  0.2051
  954MOL0     C31526  11.845   6.524  10.622  0.3359 -0.2294  0.1412
  954MOL0     C31527  11.970   6.579  10.561  1.0633 -0.3187 -0.2064
  954MOL0     C31528  12.098   6.514  10.618 -0.6182  0.0182  0.5769
  954MOL0     C31529  12.225   6.575  10.558  0.4733  0.7222 -0.0057
  954MOL0     C31530  12.354   6.502  10.610 -0.8222  0.5512  0.2317
  954MOL0     N31531  12.475   6.584  10.595 -0.1984 -0.2565  0.2727
  954MOL0     C31532  12.552   6.577  10.480 -0.1159 -0.6583 -0.1194
  954MOL0     C31533  12.665   6.651  10.517 -0.2552  0.0893  0.0103
  954MOL0     C31534  12.794   6.675  10.432 -0.2538  0.2084  0.9390
  954MOL0     C31535  12.862   6.811  10.460  0.4897  0.2595 -0.5343
  954MOL0     C31536  12.978   6.848  10.367  0.2833  0.0096 -0.1810
  954MOL0     C31537  13.061   6.961  10.420 -0.2126 -0.3117  1.2421
  954MOL0     O31538  13.143   6.908  10.524  0.0448  0.5987 -0.0405
  954MOL0     C31539  13.280   6.895  10.496  0.1060  0.6412 -0.3773
  954MOL0     C31540  13.352   7.007  10.458  0.2980  0.0864 -0.0549
  954MOL0     C31541  13.485   7.002  10.416 -0.0733  0.1873 -0.3480
  954MOL0     C31542  13.542   7.125  10.353 -0.1969 -0.4124 -0.6208
  954MOL0     C31543  13.560   6.881  10.440 -0.0990  0.1281 -0.6292
  954MOL0     C31544  13.701   6.865  10.401  0.2731 -0.5023  0.2959
  954MOL0     O31545  13.767   6.778  10.487 -0.1966 -0.8074  0.5683
  954MOL0     C31546  13.890   6.732  10.467  0.7940  0.5795 -0.1612
  954MOL0     C31547  13.942   6.695  10.344 -0.6071 -0.0848  0.5444
  954MOL0     C31548  14.069   6.634  10.333 -0.8392 -0.7064  1.1812
  954MOL0     C31549  14.143   6.605  10.443  0.0243  0.3418 -0.3145
  954MOL0     O31550  14.268   6.563  10.425  0.1853 -0.6193 -0.4371
  954MOL0     C31551  14.379   6.639  10.484 -0.2976  0.5174  0.4417
  954MOL0     C31552  14.403   6.764  10.406 -0.2595 -0.3374  0.3113
  954MOL0     C31553  14.502   6.869  10.453  0.0088  0.1671 -1.4821
  954MOL0     C31554  14.465   7.006  10.406 -0.0746  0.3212  0.0766
  954MOL0     C31555  14.541   7.110  10.487 -0.3312  0.3489 -0.6909
  954MOL0     C31556  14.676   7.145  10.428  0.0972  0.0072  0.7329
  954MOL0     C31557  14.749   7.246  10.522 -0.6561 -0.2337  0.1667
  954MOL0     C31558  14.689   7.383  10.536 -0.4754 -1.3375  0.9259
  954MOL0    Cl31559  14.651   7.446  10.376 -0.1388 -0.4259  0.4938
  954MOL0     C31560  14.089   6.633  10.574 -0.9189 -0.3380 -0.1572
  954MOL0     C31561  13.969   6.693  10.583 -0.3473  0.5760  0.1161
  954MOL0     O31562  13.765   6.938  10.320 -0.5209 -0.5162  0.4433
  954MOL0     C31563  13.490   6.771  10.488  0.6820  0.2785  0.4835
  954MOL0     C31564  13.348   6.780  10.513 -0.0705  0.9682 -1.0194
  954MOL0     N31565  12.651   6.695  10.649  0.1499  0.3275  0.0942
  954MOL0     N31566  12.542   6.646  10.701  1.0737  0.4353 -0.4527
  954MOL0     C31567  11.187   6.544  10.481  0.8523 -0.0793 -0.4715
  954MOL0     C31568  11.072   6.578  10.411 -0.8373  0.4124 -0.2968
  954MOL0     C31569  10.750   6.717  10.174 -0.1952  0.2974 -0.5926
  954MOL0     C31570  10.740   6.612  10.086 -0.6662  0.4015 -0.3220
  954MOL0     C31571  10.620   6.580  10.037 -0.5116  0.7544  0.5188
  954MOL0     C31572  10.502   6.647  10.085 -0.4094  1.5771  0.6079
  954MOL0     O31573  10.385   6.588  10.051  0.4067  0.5507 -0.7615
  954MOL0     C31574  10.257   6.628  10.111 -0.6365  0.2352  0.6272
  954MOL0     C31575  10.169   6.509  10.131  0.5669 -0.8560 -0.5947
  954MOL0     C31576  10.021   6.555  10.179 -0.5519  0.8927  1.2708
  954MOL0     C31577   9.919   6.446  10.213  0.2762 -0.2216  0.2087
  954MOL0     C31578   9.879   6.377  10.088 -0.5528  0.7715  0.1204
  954MOL0     C31579   9.840   6.319   9.990 -0.1713  0.6994 -0.2481
  954MOL0     C31580  10.517   6.750  10.178  0.7053 -0.2591 -0.4447
  954MOL0     C31581  10.640   6.792  10.212  0.9013 -1.1284 -0.0565
  954MOL0     C31582  10.631   6.920  10.308  0.5671  0.8819 -0.1351
  954MOL0     H31583  11.234   6.695  10.135  1.5889 -2.3327 -1.0697
  954MOL0     H31584  11.432   6.603  10.252  0.4840  1.7178  0.1209
  954MOL0     H31585  11.385   6.495  10.688 -0.4177  2.3754  0.4122
  954MOL0     H31586  11.438   6.649  10.671  1.0709 -0.2968  0.2820
  954MOL0     H31587  11.607   6.538  10.787  0.2553 -0.2983 -0.7163
  954MOL0     H31588  11.611   6.410  10.668 -0.1961 -0.3928  0.6044
  954MOL0     H31589  11.689   6.573  10.491  2.1730 -0.5438  0.0966
  954MOL0     H31590  11.710   6.693  10.622 -1.9138  0.8632 -0.2661
  954MOL0     H31591  11.867   6.520  10.729  0.4819  0.1609  0.1264
  954MOL0     H31592  11.822   6.423  10.588  0.7271 -1.3919  3.0186
  954MOL0     H31593  11.963   6.686  10.582 -1.5837 -0.8296  2.2336
  954MOL0     H31594  11.966   6.577  10.452  1.5048 -1.8699 -0.2164
  954MOL0     H31595  12.098   6.508  10.727 -0.0625 -3.1018  0.5152
  954MOL0     H31596  12.082   6.409  10.590  1.0282 -0.3182  0.8200
  954MOL0     H31597  12.243   6.679  10.588  5.3825 -0.1707  1.0626
  954MOL0     H31598  12.222   6.565  10.450  1.2820 -1.5061  0.1337
  954MOL0     H31599  12.337   6.479  10.716  1.4771 -0.5598  0.4269
  954MOL0     H31600  12.361   6.404  10.561 -0.4128  0.5912  0.2108
  954MOL0     H31601  12.531   6.519  10.391  2.3959 -0.2579 -1.0486
  954MOL0     H31602  12.765   6.666  10.327  0.4877 -0.7449  0.8054
  954MOL0     H31603  12.867   6.594  10.442  0.0914  0.2475 -0.9297
  954MOL0     H31604  12.790   6.893  10.452  0.9361  0.6963 -0.1717
  954MOL0     H31605  12.891   6.819  10.565 -1.2545  1.3064 -0.1064
  954MOL0     H31606  13.035   6.757  10.351  0.9501  0.4264 -0.1950
  954MOL0     H31607  12.924   6.881  10.278  0.3393 -0.6975 -0.4805
  954MOL0     H31608  13.115   7.003  10.334 -3.4769  0.8785 -0.4289
  954MOL0     H31609  13.004   7.040  10.471  1.2389  0.1853  2.1472
  954MOL0     H31610  13.295   7.098  10.465 -2.2960 -1.2144 -2.3893
  954MOL0     H31611  13.584   7.095  10.257  1.0545  1.0805 -0.5855
  954MOL0     H31612  13.617   7.159  10.425  0.0272 -0.7819 -0.6820
  954MOL0     H31613  13.477   7.212  10.339  2.2123  1.4422 -1.0109
  954MOL0     H31614  13.884   6.696  10.253 -2.2257 -2.8928  1.4039
  954MOL0     H31615  14.095   6.605  10.232 -2.1055  0.7974  0.3828
  954MOL0     H31616  14.347   6.670  10.585 -0.7079  3.8243 -0.5883
  954MOL0     H31617  14.473   6.584  10.490  0.7186  2.3460  2.2138
  954MOL0     H31618  14.424   6.735  10.302  0.9283 -3.6049  1.3265
  954MOL0     H31619  14.309   6.820  10.414  0.2848  0.3687  2.2434
  954MOL0     H31620  14.599   6.835  10.416  0.0296  0.1903 -1.4488
  954MOL0     H31621  14.492   6.856  10.561 -2.3955  1.6705 -1.4395
  954MOL0     H31622  14.357   7.026  10.411 -0.0614  0.6798 -0.8402
  954MOL0     H31623  14.489   7.016  10.300  1.5553 -0.2429  0.3659
  954MOL0     H31624  14.476   7.198  10.486 -1.8696 -0.7487 -1.0708
  954MOL0     H31625  14.559   7.069  10.586 -1.1402 -1.5106 -1.2683
  954MOL0     H31626  14.680   7.177  10.323 -0.1826  0.3466  0.8274
  954MOL0     H31627  14.743   7.058  10.430  0.1065  0.0279  1.3217
  954MOL0     H31628  14.852   7.275  10.498 -1.1607  2.4548  0.9716
  954MOL0     H31629  14.753   7.184  10.612 -2.6767  0.1657  0.5643
  954MOL0     H31630  14.746   7.457  10.593 -1.0803  0.1816 -0.3604
  954MOL0     H31631  14.590   7.380  10.583 -0.5181 -1.9433  0.7991
  954MOL0     H31632  14.146   6.636  10.667 -2.2477  3.7020  0.6916
  954MOL0     H31633  13.919   6.726  10.674 -4.2291  2.2148 -2.3513
  954MOL0     H31634  13.539   6.677  10.515 -0.2619  0.0101  1.3582
  954MOL0     H31635  13.297   6.694  10.554  0.4728 -0.2535 -2.7909
  954MOL0     H31636  11.183   6.501  10.581  0.3232 -0.4333 -0.6423
  954MOL0     H31637  10.975   6.558  10.455 -0.3814 -1.3902 -0.0230
  954MOL0     H31638  10.824   6.546  10.069 -0.6700  0.7306 -1.6772
  954MOL0     H31639  10.604   6.500   9.965 -0.3990 -1.0787  2.4432
  954MOL0     H31640  10.275   6.678  10.206 -3.5694  0.5968  1.0750
  954MOL0     H31641  10.200   6.700  10.052 -0.5506 -1.8246 -2.2189
  954MOL0     H31642  10.211   6.439  10.205 -0.3396  1.3336  2.1596
  954MOL0     H31643  10.167   6.458  10.035 -2.6929  0.9019 -1.6101
  954MOL0     H31644  10.022   6.641  10.246 -0.1437  1.5710  0.4203
  954MOL0     H31645   9.978   6.596  10.087 -2.1497 -1.2806  0.9497
  954MOL0     H31646   9.832   6.491  10.260  0.5156  1.3459 -0.7758
  954MOL0     H31647   9.961   6.377  10.287  3.8012  1.7744  0.3292
  954MOL0     H31648   9.798   6.273   9.903  2.3114 -0.8593 -0.7033
  954MOL0     H31649  10.432   6.796  10.227  0.1277  0.7066 -2.2574
  954MOL0     H31650  10.538   6.973  10.285 -2.2488 -3.4813  0.0380
  954MOL0     H31651  10.637   6.887  10.412 -2.2114 -1.5188 -0.5994
  954MOL0     H31652  10.715   6.988  10.289  1.6270 -0.3309  0.0886
  955MOL0     O31653   1.799   2.724   1.804 -0.0248  0.5387  0.7788
  955MOL0     C31654   1.777   2.746   1.686 -0.7671  1.3142 -0.7932
  955MOL0     O31655   1.878   2.782   1.585  0.2474  0.2435  0.3352
  955MOL0     C31656   2.002   2.829   1.621  0.4984 -0.3184 -0.3899
  955MOL0     C31657   2.046   2.849   1.752  0.2708  0.0669 -0.6345
  955MOL0     C31658   2.181   2.891   1.769  0.1889 -0.3617 -0.0441
  955MOL0     C31659   2.271   2.909   1.666 -0.0735  0.2354  0.1656
  955MOL0     O31660   2.402   2.950   1.684  0.1999 -0.0207  0.4140
  955MOL0     C31661   2.504   2.870   1.626 -0.2391  0.2507  0.4161
  955MOL0     C31662   2.513   2.731   1.688  0.1825  0.4934 -0.5575
  955MOL0     C31663   2.621   2.644   1.622  0.5190 -0.6330 -0.2834
  955MOL0     C31664   2.606   2.609   1.471  0.5225 -0.1010 -0.0639
  955MOL0     C31665   2.731   2.531   1.425  0.2385  0.5398  0.0732
  955MOL0     C31666   2.730   2.497   1.278  0.6666 -0.2902 -1.0228
  955MOL0     C31667   2.613   2.424   1.224 -1.4518 -0.5662 -0.1901
  955MOL0     C31668   2.647   2.356   1.092 -0.1784  0.2825  0.2761
  955MOL0     N31669   2.564   2.232   1.070  0.3466 -0.1587  0.9908
  955MOL0     C31670   2.550   2.136   1.169 -0.3075  1.2262  0.3150
  955MOL0     C31671   2.462   2.049   1.105 -1.0980  0.4611 -0.0485
  955MOL0     C31672   2.444   1.899   1.151 -0.4207 -0.7867  0.5644
  955MOL0     C31673   2.449   1.799   1.036 -0.4099 -0.4444 -0.3323
  955MOL0     C31674   2.579   1.797   0.941  1.1639 -0.0954  0.1025
  955MOL0     C31675   2.546   1.711   0.823 -0.1645  0.5755  0.0669
  955MOL0     O31676   2.650   1.710   0.731 -0.7125 -0.5429  0.0524
  955MOL0     C31677   2.774   1.655   0.745 -0.1035  0.5153  0.0495
  955MOL0     C31678   2.867   1.673   0.642  0.7485 -0.4332  1.4083
  955MOL0     C31679   2.997   1.618   0.647 -0.7014  0.3247  0.6425
  955MOL0     C31680   3.094   1.656   0.543 -0.8083 -0.4826  0.2521
  955MOL0     C31681   3.027   1.532   0.751  0.7212  1.1831 -1.0278
  955MOL0     C31682   3.158   1.457   0.762  0.0699  0.0267 -0.0924
  955MOL0     O31683   3.259   1.527   0.825  0.8106 -0.5679 -0.2181
  955MOL0     C31684   3.381   1.459   0.813  0.2137  0.2393  0.4084
  955MOL0     C31685   3.457   1.460   0.698  0.2758  1.1026  0.2034
  955MOL0     C31686   3.578   1.387   0.685  0.5229  0.2270  0.9247
  955MOL0     C31687   3.621   1.294   0.788 -0.1975 -1.0904 -0.0651
  955MOL0     O31688   3.729   1.218   0.773 -0.5828  0.5819  0.1060
  955MOL0     C31689   3.783   1.210   0.638  0.2654  0.3069  0.5154
  955MOL0     C31690   3.891   1.099   0.637 -0.1506  0.3109  0.1033
  955MOL0     C31691   3.967   1.098   0.504  1.4427 -0.2412 -0.1075
  955MOL0     C31692   4.065   0.986   0.488  0.2225 -0.0940  0.6894
  955MOL0     C31693   4.174   1.001   0.376 -0.6178 -0.4193  0.0465
  955MOL0     C31694   4.298   0.908   0.389  0.8043  0.1632  0.3115
  955MOL0     C31695   4.396   0.952   0.274  0.0430  0.6600  0.2741
  955MOL0     C31696   4.534   0.884   0.290 -0.5592 -0.1441  0.7783
  955MOL0    Cl31697   4.543   0.729   0.197  0.4787 -0.4139  0.2787
  955MOL0     C31698   3.549   1.302   0.909  0.2972 -0.4173 -0.3881
  955MOL0     C31699   3.429   1.378   0.919 -0.2449  0.1682 -0.1835
  955MOL0     O31700   3.159   1.341   0.711 -0.4312  0.5687 -0.1159
  955MOL0     C31701   2.937   1.515   0.859  0.0261 -0.8105  0.5200
  955MOL0     C31702   2.809   1.576   0.866 -0.5299 -0.0813 -0.0129
  955MOL0     N31703   2.400   2.115   0.994  0.2786  0.1159  0.4360
  955MOL0     N31704   2.471   2.216   0.972  0.3513 -0.8636  0.1739
  955MOL0     C31705   2.221   2.877   1.537 -0.1603 -0.1576  0.6669
  955MOL0     C31706   2.084   2.857   1.519  0.3321  0.8367  0.7001
  955MOL0     C31707   1.635   2.750   1.631 -0.0208 -0.6140 -0.4560
  955MOL0     C31708   1.620   2.791   1.499  0.3336  0.1380  0.6101
  955MOL0     C31709   1.504   2.797   1.437 -0.3878  1.1683 -0.0090
  955MOL0     C31710   1.390   2.779   1.512  2.0706  0.2151 -0.2178
  955MOL0     O31711   1.257   2.803   1.477  0.5902  0.6719 -0.2229
  955MOL0     C31712   1.221   2.898   1.372 -0.1101  0.4614  0.1213
  955MOL0     C31713   1.085   2.954   1.396 -0.1314  0.3345 -0.1906
  955MOL0     C31714   0.963   2.871   1.348 -1.1785 -0.3405  0.4980
  955MOL0     C31715   0.832   2.935   1.384  0.4408  0.4535  0.1191
  955MOL0     C31716   0.796   3.056   1.313  0.6600 -0.5440 -0.4011
  955MOL0     C31717   0.773   3.164   1.263 -0.3726 -0.2486 -0.2515
  955MOL0     C31718   1.392   2.730   1.644 -0.4650 -0.4852 -0.1385
  955MOL0     C31719   1.517   2.716   1.709  0.1144 -0.1430  0.4876
  955MOL0     C31720   1.512   2.663   1.853  0.7562 -0.1390 -0.7373
  955MOL0     H31721   1.996   2.823   1.845 -0.1164 -0.0708 -0.8822
  955MOL0     H31722   2.221   2.903   1.869 -1.8209  0.3883  0.7171
  955MOL0     H31723   2.597   2.922   1.648  1.3967 -2.0699 -0.6661
  955MOL0     H31724   2.490   2.863   1.518 -1.4521 -0.4132  0.5892
  955MOL0     H31725   2.544   2.744   1.792 -1.5768  2.3201 -0.2120
  955MOL0     H31726   2.413   2.687   1.687  0.4610 -0.2119 -2.6575
  955MOL0     H31727   2.714   2.702   1.630  0.4015 -0.5697  0.8973
  955MOL0     H31728   2.624   2.555   1.685  2.3071 -0.6392 -0.3219
  955MOL0     H31729   2.516   2.549   1.457 -0.1843  0.8700  0.2535
  955MOL0     H31730   2.596   2.700   1.411  0.1300  0.9153  1.4881
  955MOL0     H31731   2.748   2.438   1.480  2.5443  0.6197 -0.4205
  955MOL0     H31732   2.824   2.585   1.445 -1.0978  2.8394  0.4130
  955MOL0     H31733   2.741   2.591   1.223  0.9911 -0.5742 -1.4430
  955MOL0     H31734   2.814   2.428   1.275 -1.2727 -2.7783 -1.6773
  955MOL0     H31735   2.522   2.484   1.215 -1.4331 -0.7965 -2.5528
  955MOL0     H31736   2.599   2.351   1.305  0.2387 -1.4410 -0.6341
  955MOL0     H31737   2.632   2.433   1.015  2.4419  2.4366  1.7567
  955MOL0     H31738   2.753   2.332   1.092 -0.3259 -0.4561 -0.8896
  955MOL0     H31739   2.598   2.140   1.265 -1.0154  2.1260  0.6548
  955MOL0     H31740   2.351   1.901   1.208 -0.1113 -0.0484  1.0704
  955MOL0     H31741   2.530   1.879   1.216  0.4122 -1.0552 -0.5991
  955MOL0     H31742   2.455   1.703   1.088  1.5165 -0.5187 -0.6157
  955MOL0     H31743   2.357   1.806   0.977 -0.6768 -0.0016  0.1347
  955MOL0     H31744   2.595   1.897   0.901 -0.6474  0.1259 -0.1580
  955MOL0     H31745   2.653   1.751   1.007 -1.1760 -1.2070  2.1231
  955MOL0     H31746   2.534   1.611   0.866  0.9738  0.5179  0.2871
  955MOL0     H31747   2.452   1.728   0.770 -0.7076 -0.0106  0.8082
  955MOL0     H31748   2.836   1.737   0.561 -2.2413 -1.7541  1.3982
  955MOL0     H31749   3.113   1.573   0.473 -1.0069 -1.7670  1.6591
  955MOL0     H31750   3.187   1.695   0.584 -0.8509 -1.2938  1.1763
  955MOL0     H31751   3.048   1.734   0.482  0.4503 -0.5310 -0.8016
  955MOL0     H31752   3.432   1.522   0.612 -1.9388 -0.8861 -0.6880
  955MOL0     H31753   3.628   1.393   0.589 -0.6976 -0.2165  0.2398
  955MOL0     H31754   3.705   1.167   0.574 -1.3102  2.3332  0.9751
  955MOL0     H31755   3.832   1.295   0.590 -0.7299 -0.1333 -1.4230
  955MOL0     H31756   3.966   1.116   0.714  1.5193 -1.9534 -0.9293
  955MOL0     H31757   3.840   1.003   0.652 -0.7978  0.7580  0.8492
  955MOL0     H31758   4.011   1.196   0.487  0.1208  0.6407  1.3054
  955MOL0     H31759   3.886   1.093   0.430  0.1772  2.8810  0.9158
  955MOL0     H31760   4.009   0.892   0.484 -1.2887  0.7388  1.3448
  955MOL0     H31761   4.126   0.973   0.578  2.3318  2.4408 -0.2484
  955MOL0     H31762   4.122   0.993   0.280 -2.9010  2.4539  0.8995
  955MOL0     H31763   4.217   1.102   0.377 -0.3444 -0.5378  0.8545
  955MOL0     H31764   4.284   0.802   0.364 -1.2353  0.9930 -2.6560
  955MOL0     H31765   4.344   0.908   0.488  0.1427  0.9515  0.6367
  955MOL0     H31766   4.416   1.057   0.297  0.3376  0.4003  1.2222
  955MOL0     H31767   4.355   0.946   0.173 -0.2095  1.1222  0.3498
  955MOL0     H31768   4.554   0.870   0.397 -2.5008 -1.4905  1.0272
  955MOL0     H31769   4.615   0.946   0.253 -1.5790  1.1619  0.6588
  955MOL0     H31770   3.577   1.231   0.986  1.0248  0.9010  0.6029
  955MOL0     H31771   3.372   1.371   1.012 -0.7235  1.0120 -0.3985
  955MOL0     H31772   2.977   1.450   0.936 -0.4346 -0.3995  1.1067
  955MOL0     H31773   2.743   1.558   0.950 -0.1447 -1.0422  0.1017
  955MOL0     H31774   2.283   2.888   1.449 -1.8048 -2.0373 -0.8217
  955MOL0     H31775   2.038   2.837   1.422 -3.3847  0.2591  2.3989
  955MOL0     H31776   1.698   2.822   1.430 -1.8572  4.3740 -0.2678
  955MOL0     H31777   1.506   2.815   1.330  2.8060 -2.5866 -0.8080
  955MOL0     H31778   1.295   2.979   1.374 -2.1698  2.5062  3.9316
  955MOL0     H31779   1.227   2.841   1.279  2.0639 -0.6673  0.8943
  955MOL0     H31780   1.083   3.054   1.351  1.3336  1.5253  2.1476
  955MOL0     H31781   1.065   2.969   1.503 -2.3738  0.5617 -0.5936
  955MOL0     H31782   0.968   2.858   1.240 -2.0740 -1.9852  0.6174
  955MOL0     H31783   0.970   2.775   1.401 -2.6212  1.6313  4.7063
  955MOL0     H31784   0.827   2.955   1.491 -2.1285 -2.7002  0.7412
  955MOL0     H31785   0.760   2.855   1.366  0.5049 -0.2163  2.5015
  955MOL0     H31786   0.738   3.260   1.230  0.8647 -0.1310 -1.3007
  955MOL0     H31787   1.308   2.689   1.700  0.4195 -0.0474  1.5750
  955MOL0     H31788   1.523   2.555   1.852 -2.9304 -1.0130  4.8888
  955MOL0     H31789   1.578   2.712   1.925  1.3702  3.1377 -3.2995
  955MOL0     H31790   1.413   2.683   1.897  1.0901  0.9911 -0.4645
  956MOL0     O31791   2.770   3.675   8.596  0.3209  0.2569  0.1985
  956MOL0     C31792   2.727   3.736   8.493 -0.2097  0.0004  0.3105
  956MOL0     O31793   2.796   3.773   8.379  0.4662  0.3152 -0.7535
  956MOL0     C31794   2.934   3.748   8.368  0.9184 -0.2108  0.5227
  956MOL0     C31795   3.003   3.833   8.288  0.0727  0.1616  0.4820
  956MOL0     C31796   3.133   3.813   8.240 -0.0395  0.4773  0.8787
  956MOL0     C31797   3.209   3.702   8.286 -0.0850 -0.2731  0.0195
  956MOL0     O31798   3.329   3.663   8.235 -0.2880  0.5039  0.0786
  956MOL0     C31799   3.392   3.773   8.162  0.5782  0.6503 -1.0825
  956MOL0     C31800   3.530   3.716   8.111 -0.5361 -0.4934  1.1802
  956MOL0     C31801   3.493   3.601   8.016  0.8122  0.4218 -0.7721
  956MOL0     C31802   3.615   3.540   7.947  0.0879  0.2308  0.3792
  956MOL0     C31803   3.587   3.450   7.829 -0.0506  0.0072 -0.5513
  956MOL0     C31804   3.519   3.325   7.875  0.6250 -0.1552  0.5278
  956MOL0     C31805   3.512   3.212   7.774 -0.5540  0.0020  0.7599
  956MOL0     C31806   3.377   3.188   7.697  0.0214 -0.4618 -0.8981
  956MOL0     N31807   3.269   3.143   7.792 -0.0206  0.2678 -0.7785
  956MOL0     C31808   3.174   3.049   7.766 -0.0246  0.0904 -1.1288
  956MOL0     C31809   3.089   3.047   7.873 -0.4732  0.8864  0.3933
  956MOL0     C31810   2.968   2.959   7.867  0.4424 -1.1026  0.4160
  956MOL0     C31811   2.863   3.022   7.765 -0.4757  0.0637 -0.3713
  956MOL0     C31812   2.847   3.172   7.784  0.1417  0.0464 -0.9303
  956MOL0     C31813   2.721   3.230   7.719 -0.0602  0.2247  0.4028
  956MOL0     O31814   2.758   3.275   7.587  0.2905  0.3832 -0.4799
  956MOL0     C31815   2.682   3.376   7.529 -0.3303 -0.3248  0.2422
  956MOL0     C31816   2.646   3.486   7.599 -0.8765 -0.6429  0.4171
  956MOL0     C31817   2.556   3.577   7.550 -0.6635 -0.6156 -0.1878
  956MOL0     C31818   2.529   3.690   7.634 -0.1539 -0.4855 -0.0968
  956MOL0     C31819   2.499   3.551   7.427 -0.0444  0.2429 -0.2850
  956MOL0     C31820   2.389   3.636   7.369 -0.5841  0.0184 -0.0791
  956MOL0     O31821   2.372   3.611   7.230  0.2918 -0.4247 -0.0797
  956MOL0     C31822   2.257   3.656   7.177 -0.2684 -0.3335 -0.0953
  956MOL0     C31823   2.135   3.581   7.170  0.1216 -1.2036 -0.1805
  956MOL0     C31824   2.019   3.641   7.115 -0.2383 -0.0605  0.3280
  956MOL0     C31825   2.012   3.765   7.064 -0.3339  0.2481 -0.5915
  956MOL0     O31826   1.892   3.828   7.031  0.2368  0.1144 -0.2094
  956MOL0     C31827   1.782   3.822   7.120 -0.3682 -0.4358 -0.0571
  956MOL0     C31828   1.680   3.909   7.064  0.0027 -0.1463 -0.3390
  956MOL0     C31829   1.578   3.961   7.161 -0.8542  0.1022 -0.0631
  956MOL0     C31830   1.497   3.845   7.224 -0.5503 -0.5961 -0.4469
  956MOL0     C31831   1.382   3.914   7.310  0.0908  0.3029 -0.1510
  956MOL0     C31832   1.258   3.934   7.215  0.5111  0.2800 -0.0371
  956MOL0     C31833   1.130   3.948   7.314  0.1259  0.2100 -0.2263
  956MOL0     C31834   1.000   3.962   7.235  0.8309 -0.1110  0.2776
  956MOL0    Cl31835   0.969   3.804   7.160 -0.1916 -0.2019 -0.0892
  956MOL0     C31836   2.130   3.840   7.069 -0.1887 -0.5000 -0.2018
  956MOL0     C31837   2.249   3.785   7.120  0.2859 -0.5067 -0.0543
  956MOL0     O31838   2.328   3.720   7.434  0.5827  0.5347 -0.2585
  956MOL0     C31839   2.546   3.450   7.343 -0.6108 -0.2030  0.2405
  956MOL0     C31840   2.638   3.357   7.405 -0.1861  0.1489  0.8284
  956MOL0     N31841   3.132   3.151   7.953  0.8501 -0.1369 -0.4731
  956MOL0     N31842   3.245   3.195   7.915  0.5069 -0.3206 -0.8864
  956MOL0     C31843   3.140   3.614   8.369  0.0646  0.2977 -0.6706
  956MOL0     C31844   3.007   3.631   8.406 -0.2676  0.2018  0.0692
  956MOL0     C31845   2.581   3.760   8.486  0.5628 -0.4514  0.5065
  956MOL0     C31846   2.538   3.886   8.441  0.5724  0.4506  0.0250
  956MOL0     C31847   2.399   3.920   8.446  0.2583  0.2366  0.4685
  956MOL0     C31848   2.299   3.833   8.500  0.1214  0.2896  0.3464
  956MOL0     O31849   2.170   3.879   8.477  0.0279 -0.0210 -0.0410
  956MOL0     C31850   2.063   3.780   8.492 -0.2243  0.3162 -0.0244
  956MOL0     C31851   1.925   3.847   8.466  0.1721  0.4107  0.2864
  956MOL0     C31852   1.919   3.870   8.316 -0.1999  0.2000  0.6726
  956MOL0     C31853   1.789   3.811   8.246 -0.8451  0.0284  0.2304
  956MOL0     C31854   1.802   3.813   8.096 -0.2180  0.4545 -0.4883
  956MOL0     C31855   1.827   3.831   7.978 -1.4699 -0.7939  0.2134
  956MOL0     C31856   2.343   3.704   8.541  0.4247 -0.5905  0.2042
  956MOL0     C31857   2.480   3.674   8.539  0.3461 -0.6370 -1.3137
  956MOL0     C31858   2.514   3.538   8.595 -0.3986  0.3481 -1.0829
  956MOL0     H31859   2.936   3.913   8.258 -1.6418 -2.3385 -3.1666
  956MOL0     H31860   3.171   3.881   8.165  2.0664 -1.7252 -0.2009
  956MOL0     H31861   3.407   3.863   8.223 -1.7453 -1.3743  2.8396
  956MOL0     H31862   3.328   3.808   8.081 -1.6170  3.2918  1.5625
  956MOL0     H31863   3.575   3.792   8.048 -0.5543  0.7655  2.6307
  956MOL0     H31864   3.602   3.686   8.188 -0.0048  1.3399  1.4310
  956MOL0     H31865   3.434   3.527   8.070  0.8177  1.5280  0.8215
  956MOL0     H31866   3.428   3.637   7.936 -2.3464  0.1761  1.5290
  956MOL0     H31867   3.676   3.622   7.906  1.2854 -0.5445  0.5500
  956MOL0     H31868   3.667   3.492   8.030 -0.4583  0.3433  0.7906
  956MOL0     H31869   3.677   3.415   7.777  1.7865  3.0015  0.3894
  956MOL0     H31870   3.522   3.507   7.762 -0.5634  0.4272  0.2961
  956MOL0     H31871   3.579   3.282   7.955  0.6579  0.6433  0.9411
  956MOL0     H31872   3.423   3.352   7.919 -0.4779 -0.1744 -1.7085
  956MOL0     H31873   3.541   3.125   7.833  0.1481 -1.6854 -1.9252
  956MOL0     H31874   3.587   3.219   7.695 -0.0769 -2.3920  0.9421
  956MOL0     H31875   3.339   3.278   7.648  2.1965  2.3421  2.1084
  956MOL0     H31876   3.393   3.120   7.613 -1.9459 -4.6500  1.7268
  956MOL0     H31877   3.169   2.985   7.678  1.4887 -2.4242  0.4724
  956MOL0     H31878   2.925   2.946   7.967  0.1185  0.8291  0.5655
  956MOL0     H31879   2.996   2.856   7.846  0.1744 -0.8609 -1.2304
  956MOL0     H31880   2.909   3.024   7.665  3.1725  2.1413  1.1184
  956MOL0     H31881   2.765   2.974   7.770 -1.0046  0.8411 -2.3037
  956MOL0     H31882   2.839   3.198   7.890  1.2491 -1.1331 -0.5328
  956MOL0     H31883   2.938   3.225   7.756  1.6541 -1.4193  0.9215
  956MOL0     H31884   2.639   3.158   7.716  0.4155 -0.3410  0.7965
  956MOL0     H31885   2.693   3.313   7.784 -1.1875 -1.3253  1.9799
  956MOL0     H31886   2.690   3.505   7.697 -1.2152  1.4061  0.2144
  956MOL0     H31887   2.422   3.711   7.647  0.1145  0.9607  0.0411
  956MOL0     H31888   2.586   3.774   7.593  0.2703 -1.3232 -1.2724
  956MOL0     H31889   2.568   3.680   7.736 -2.6456 -1.7793  0.8310
  956MOL0     H31890   2.135   3.476   7.196  0.7500 -0.9720  0.8304
  956MOL0     H31891   1.928   3.582   7.113 -0.6458  0.5671 -1.6000
  956MOL0     H31892   1.739   3.721   7.129 -0.4573 -0.3986 -0.0639
  956MOL0     H31893   1.818   3.867   7.212 -1.8620  1.4037 -0.3103
  956MOL0     H31894   1.730   4.000   7.032  1.0113 -0.5303  0.0898
  956MOL0     H31895   1.628   3.867   6.978  0.8996  0.5366 -1.2261
  956MOL0     H31896   1.515   4.025   7.098 -2.2396  1.4095  2.4633
  956MOL0     H31897   1.637   4.017   7.234  1.6063  0.7139 -2.3702
  956MOL0     H31898   1.567   3.795   7.291 -1.3971 -5.2482 -2.6623
  956MOL0     H31899   1.469   3.759   7.163 -0.2685 -1.8366  1.1054
  956MOL0     H31900   1.348   3.851   7.393 -0.6871  0.8626 -0.0222
  956MOL0     H31901   1.411   4.010   7.352 -0.7254 -0.4062  2.2255
  956MOL0     H31902   1.247   3.841   7.159  1.3648 -1.4809  2.5050
  956MOL0     H31903   1.278   4.014   7.143  2.3471  1.0728  1.2740
  956MOL0     H31904   1.131   4.045   7.366  0.9226 -1.2447  2.6943
  956MOL0     H31905   1.120   3.865   7.384  0.0784  0.7780  0.4486
  956MOL0     H31906   1.011   4.039   7.158  1.0148 -0.5225 -0.1080
  956MOL0     H31907   0.925   3.998   7.306  0.7982 -1.2118  0.8255
  956MOL0     H31908   2.102   3.938   7.031 -0.4188 -0.3599  0.3183
  956MOL0     H31909   2.337   3.846   7.135 -1.4324  2.8949 -2.2279
  956MOL0     H31910   2.519   3.421   7.242  1.6127 -3.0821  0.3121
  956MOL0     H31911   2.672   3.266   7.356  0.0821 -0.6554  2.4383
  956MOL0     H31912   3.198   3.526   8.396  2.0175  2.0451  1.2602
  956MOL0     H31913   2.956   3.561   8.471 -0.7479  1.7973  1.5115
  956MOL0     H31914   2.614   3.961   8.421  2.2846 -1.3880 -0.6980
  956MOL0     H31915   2.368   4.023   8.429 -0.7472 -0.5172 -3.0672
  956MOL0     H31916   2.083   3.688   8.437 -2.2009 -0.6842  0.8360
  956MOL0     H31917   2.061   3.760   8.599  1.0284 -0.7776 -0.1777
  956MOL0     H31918   1.923   3.938   8.525  0.0243  1.0895 -0.7372
  956MOL0     H31919   1.848   3.775   8.498 -0.2162  0.7837  0.1991
  956MOL0     H31920   1.938   3.973   8.284  0.1615 -0.5450 -1.7506
  956MOL0     H31921   1.998   3.810   8.270 -0.2484  0.3218  0.4307
  956MOL0     H31922   1.706   3.877   8.277  0.4948  1.1543  1.6050
  956MOL0     H31923   1.778   3.710   8.287  2.0616 -0.2107  0.6308
  956MOL0     H31924   1.853   3.844   7.875  1.7866 -3.7116  0.4709
  956MOL0     H31925   2.277   3.628   8.582 -1.1163  0.9254  0.6575
  956MOL0     H31926   2.561   3.549   8.694  1.9618 -0.0343 -2.0835
  956MOL0     H31927   2.426   3.474   8.596  1.2893 -2.1307  1.0555
  956MOL0     H31928   2.581   3.475   8.536 -3.1355 -1.6968 -2.1927
  957MOL0     O31929   5.003   5.969   8.051 -0.2780 -0.3606  0.5038
  957MOL0     C31930   4.996   5.911   7.945  0.1818 -0.1099  0.7716
  957MOL0     O31931   5.101   5.902   7.856 -0.4074  0.9406  0.0713
  957MOL0     C31932   5.230   5.932   7.896 -0.1093  1.1452 -0.2815
  957MOL0     C31933   5.325   5.832   7.906 -0.3143 -0.4762  0.0526
  957MOL0     C31934   5.465   5.860   7.920 -0.4425 -0.5092  0.3596
  957MOL0     C31935   5.514   5.992   7.921  0.5414  0.2595  0.2788
  957MOL0     O31936   5.651   6.028   7.915 -0.1341  0.1949 -0.8432
  957MOL0     C31937   5.756   5.931   7.942 -0.0590  0.3491 -0.4751
  957MOL0     C31938   5.889   6.003   7.923  0.2374 -0.6039  0.0839
  957MOL0     C31939   5.924   6.113   8.035 -0.4305 -0.2997  0.6758
  957MOL0     C31940   6.078   6.148   8.013  0.1447  0.0451 -0.3506
  957MOL0     C31941   6.119   6.266   8.110 -0.3187 -0.0461 -0.1662
  957MOL0     C31942   6.265   6.309   8.085 -0.3608  0.3085  0.1373
  957MOL0     C31943   6.286   6.399   7.966  0.3747  0.8453  0.2046
  957MOL0     C31944   6.416   6.481   7.998  0.3612  0.6528 -0.0134
  957MOL0     N31945   6.529   6.396   8.047  0.2796 -0.7566  0.2627
  957MOL0     C31946   6.578   6.423   8.172  1.1294 -0.5689  0.0301
  957MOL0     C31947   6.676   6.334   8.185  0.0947 -0.7766  0.5722
  957MOL0     C31948   6.791   6.340   8.276 -0.4109 -0.0213 -0.1051
  957MOL0     C31949   6.865   6.468   8.278  0.1245  0.4942  0.5035
  957MOL0     C31950   6.954   6.489   8.156 -0.6031  0.7593 -0.7444
  957MOL0     C31951   7.048   6.610   8.176 -0.8141  0.7178 -0.0132
  957MOL0     O31952   7.144   6.588   8.285  0.5798 -0.6996 -0.7177
  957MOL0     C31953   7.263   6.530   8.256  0.8822 -0.0300 -0.1729
  957MOL0     C31954   7.357   6.601   8.189  0.3186 -0.0003  0.7763
  957MOL0     C31955   7.487   6.544   8.169 -0.4133 -0.2339  0.1383
  957MOL0     C31956   7.583   6.626   8.082  0.4207  1.5391 -0.4449
  957MOL0     C31957   7.522   6.409   8.222  0.8616  0.0692 -0.0452
  957MOL0     C31958   7.652   6.339   8.197  0.6336 -0.0041 -0.7959
  957MOL0     O31959   7.753   6.411   8.140  0.0119 -0.8482 -0.7899
  957MOL0     C31960   7.887   6.385   8.157 -0.2086 -1.0148 -0.3281
  957MOL0     C31961   7.976   6.496   8.131 -0.3953  0.0433  0.8447
  957MOL0     C31962   8.112   6.489   8.153 -0.1141  0.0603  0.4140
  957MOL0     C31963   8.173   6.373   8.193  0.2627  0.7400  0.0828
  957MOL0     O31964   8.313   6.361   8.186  0.2688  0.6122 -0.1281
  957MOL0     C31965   8.375   6.227   8.213  0.3262  0.4204 -0.9968
  957MOL0     C31966   8.370   6.207   8.374 -0.0143 -0.9747  0.2298
  957MOL0     C31967   8.474   6.295   8.451 -0.6681 -0.0024 -0.2179
  957MOL0     C31968   8.450   6.449   8.450  0.7880  0.5697 -0.1666
  957MOL0     C31969   8.528   6.519   8.564 -0.1318 -0.0120 -0.1867
  957MOL0     C31970   8.439   6.551   8.687 -0.1861 -1.4006 -0.2214
  957MOL0     C31971   8.501   6.673   8.769  0.1118 -0.1620  0.1918
  957MOL0     C31972   8.402   6.743   8.866 -0.4133 -0.2768  0.1297
  957MOL0    Cl31973   8.337   6.626   8.996 -0.1314  0.0927  0.1502
  957MOL0     C31974   8.085   6.254   8.215  0.5730  0.5209  0.6287
  957MOL0     C31975   7.948   6.267   8.210 -0.3593  0.6741 -1.5381
  957MOL0     O31976   7.664   6.229   8.247  0.4866  0.1651 -0.5618
  957MOL0     C31977   7.416   6.346   8.295  0.4994 -0.6600 -0.1719
  957MOL0     C31978   7.287   6.401   8.313 -0.1339  0.0879  0.1662
  957MOL0     N31979   6.688   6.267   8.064  0.1381 -0.0781 -0.0467
  957MOL0     N31980   6.604   6.306   7.981 -0.4936 -0.4393  0.7698
  957MOL0     C31981   5.416   6.092   7.920  0.5325  0.1941  0.2240
  957MOL0     C31982   5.281   6.064   7.906 -0.6030  0.2389 -0.0530
  957MOL0     C31983   4.860   5.877   7.888  0.0520  0.0818 -0.9045
  957MOL0     C31984   4.849   5.818   7.762  0.3221 -0.2796  1.1590
  957MOL0     C31985   4.719   5.781   7.714  0.6269  0.4199  0.2431
  957MOL0     C31986   4.604   5.813   7.785  0.5595  0.0671 -0.1390
  957MOL0     O31987   4.482   5.802   7.733  0.4971 -0.0975  1.3084
  957MOL0     C31988   4.465   5.717   7.612  0.4494 -0.3956 -0.0445
  957MOL0     C31989   4.319   5.713   7.578  0.6167 -0.3105  0.5766
  957MOL0     C31990   4.234   5.612   7.665 -1.2922  0.2477 -0.2182
  957MOL0     C31991   4.086   5.620   7.634 -0.8523 -0.9582  0.3254
  957MOL0     C31992   4.061   5.518   7.528  0.4562 -0.5316  0.3199
  957MOL0     C31993   4.027   5.433   7.447  0.2024 -0.0011  0.5128
  957MOL0     C31994   4.615   5.873   7.905 -0.3545  0.1297 -0.3854
  957MOL0     C31995   4.734   5.901   7.960  0.4491  0.7448 -0.8393
  957MOL0     C31996   4.726   5.970   8.100  0.1437  0.0866  0.5318
  957MOL0     H31997   5.308   5.725   7.897  1.0727 -0.7501  0.3574
  957MOL0     H31998   5.535   5.778   7.930  1.3427  0.9982  0.6337
  957MOL0     H31999   5.736   5.844   7.879 -2.1803 -1.0900  1.9736
  957MOL0     H32000   5.747   5.887   8.042 -2.0117  0.6048 -0.4999
  957MOL0     H32001   5.965   5.924   7.931 -0.2441 -0.9158  2.8453
  957MOL0     H32002   5.898   6.053   7.827  2.1103  0.0713  0.5540
  957MOL0     H32003   5.868   6.204   8.013 -0.5665 -0.5565 -0.0693
  957MOL0     H32004   5.906   6.077   8.137 -2.4610 -2.1774 -0.2537
  957MOL0     H32005   6.132   6.056   8.036  0.0990 -0.4570 -2.1100
  957MOL0     H32006   6.105   6.176   7.910 -0.1423 -0.4038 -0.5514
  957MOL0     H32007   6.101   6.229   8.211  2.0333  2.9814  1.5323
  957MOL0     H32008   6.047   6.348   8.111 -0.7662 -0.4022 -1.2697
  957MOL0     H32009   6.280   6.372   8.173  1.3838  1.0605 -0.6669
  957MOL0     H32010   6.334   6.225   8.091  0.3656  0.6535 -2.3990
  957MOL0     H32011   6.199   6.464   7.968 -1.3923 -1.3559  3.3641
  957MOL0     H32012   6.294   6.333   7.879  1.2301 -1.3106  1.8500
  957MOL0     H32013   6.449   6.537   7.910  2.1491 -2.3784 -1.4212
  957MOL0     H32014   6.401   6.566   8.065  0.3664  0.0833  0.7232
  957MOL0     H32015   6.552   6.503   8.241 -1.6902 -0.9060 -0.5161
  957MOL0     H32016   6.859   6.259   8.250 -0.4695 -0.5286  1.2058
  957MOL0     H32017   6.751   6.306   8.372  1.9061 -5.3430 -0.6987
  957MOL0     H32018   6.801   6.557   8.279  0.9433  1.1823 -2.0377
  957MOL0     H32019   6.925   6.472   8.370 -2.6793  3.2360  2.4165
  957MOL0     H32020   7.016   6.401   8.135  0.3205  1.4160 -0.7952
  957MOL0     H32021   6.902   6.524   8.066 -0.6429 -0.4640 -1.2225
  957MOL0     H32022   7.099   6.639   8.084 -1.5004  0.1777 -0.5828
  957MOL0     H32023   6.986   6.697   8.195 -1.0699  0.2408  1.5286
  957MOL0     H32024   7.339   6.701   8.151 -0.0662  0.5368  2.3210
  957MOL0     H32025   7.664   6.664   8.145 -0.1980  1.6497  0.3086
  957MOL0     H32026   7.532   6.714   8.041 -2.1915 -0.1581 -1.0843
  957MOL0     H32027   7.606   6.561   7.997 -1.0047 -0.8270  0.8601
  957MOL0     H32028   7.934   6.591   8.099 -0.8760  0.1184  1.6861
  957MOL0     H32029   8.179   6.572   8.130 -0.0026 -0.1896 -0.1902
  957MOL0     H32030   8.330   6.145   8.157  0.3094 -0.4516  0.2630
  957MOL0     H32031   8.482   6.225   8.192  0.8098  0.0305  1.3001
  957MOL0     H32032   8.271   6.232   8.412  0.7773  1.8465  0.6770
  957MOL0     H32033   8.405   6.106   8.398  1.5325 -0.3370  0.8235
  957MOL0     H32034   8.575   6.274   8.415  0.3788  2.0333  1.2826
  957MOL0     H32035   8.462   6.279   8.559 -0.8489  1.7609  0.0630
  957MOL0     H32036   8.342   6.460   8.443  0.5087 -2.1385 -2.1204
  957MOL0     H32037   8.484   6.488   8.353  1.0133  1.5213  0.2885
  957MOL0     H32038   8.609   6.454   8.600  0.9418  1.3335 -0.0943
  957MOL0     H32039   8.574   6.612   8.531 -0.7129  1.1676  2.1213
  957MOL0     H32040   8.452   6.464   8.752  1.3569 -1.9881 -1.2446
  957MOL0     H32041   8.337   6.584   8.667  1.7809  4.8335 -2.3409
  957MOL0     H32042   8.541   6.748   8.700 -0.6420  0.1202  0.0458
  957MOL0     H32043   8.576   6.627   8.833 -0.5106 -1.4556  0.0184
  957MOL0     H32044   8.319   6.788   8.811 -0.3221 -0.6404 -0.3103
  957MOL0     H32045   8.453   6.829   8.911  0.8107 -1.1900  0.5457
  957MOL0     H32046   8.125   6.157   8.241 -0.4226 -1.4422 -4.2167
  957MOL0     H32047   7.892   6.188   8.258  1.7815  0.0322  0.0360
  957MOL0     H32048   7.433   6.244   8.329  2.2784 -0.5639 -0.6643
  957MOL0     H32049   7.206   6.354   8.367 -0.9406  0.9669 -0.2578
  957MOL0     H32050   5.448   6.196   7.925 -0.7729  0.6237  0.1254
  957MOL0     H32051   5.209   6.145   7.901 -1.0121 -0.1500 -0.5617
  957MOL0     H32052   4.932   5.786   7.699 -0.5241 -0.2903  0.0058
  957MOL0     H32053   4.718   5.730   7.619 -0.7297 -0.9291  0.9484
  957MOL0     H32054   4.525   5.762   7.532  1.9841 -0.4718  1.0123
  957MOL0     H32055   4.513   5.620   7.622  0.3699 -0.3126  1.2834
  957MOL0     H32056   4.310   5.689   7.471 -4.0477 -0.3425  0.7838
  957MOL0     H32057   4.269   5.808   7.595 -0.2033 -1.0019  2.2191
  957MOL0     H32058   4.269   5.510   7.647 -1.1865  0.2967 -0.2919
  957MOL0     H32059   4.245   5.620   7.773  0.6816 -2.0161 -0.1694
  957MOL0     H32060   4.049   5.718   7.601 -3.0595 -1.7056  0.4285
  957MOL0     H32061   4.025   5.607   7.724 -2.5476  0.0042 -0.6256
  957MOL0     H32062   3.980   5.349   7.400 -1.7702  1.2223  0.1834
  957MOL0     H32063   4.524   5.893   7.961  1.3210  2.5331  1.7250
  957MOL0     H32064   4.760   6.073   8.086 -1.0323  0.2292 -1.9594
  957MOL0     H32065   4.621   5.971   8.128 -0.7804  0.2386 -2.5055
  957MOL0     H32066   4.790   5.915   8.169  0.1688  0.7238  1.0191
  958MOL0     O32067   5.769   0.559   7.786 -0.1471  0.1625  0.1775
  958MOL0     C32068   5.742   0.621   7.688 -0.1439 -0.6084 -0.3488
  958MOL0     O32069   5.835   0.681   7.610 -0.9748  0.0640 -0.2110
  958MOL0     C32070   5.966   0.690   7.662 -0.4800 -0.4594  0.6043
  958MOL0     C32071   6.075   0.630   7.602 -0.4366  0.3287  0.5242
  958MOL0     C32072   6.194   0.648   7.659  0.1156  0.1930 -0.0586
  958MOL0     C32073   6.214   0.722   7.772  0.1202  0.2281 -0.4309
  958MOL0     O32074   6.342   0.737   7.802 -0.6461 -0.3771  0.4373
  958MOL0     C32075   6.378   0.853   7.875 -0.2292 -0.0900  0.7406
  958MOL0     C32076   6.529   0.879   7.857 -0.2689 -0.1479  0.0325
  958MOL0     C32077   6.570   0.918   7.719  1.2010 -0.0963  0.6457
  958MOL0     C32078   6.718   0.957   7.701 -0.4582  0.2466 -0.8686
  958MOL0     C32079   6.753   0.926   7.557 -0.4155  0.3851  0.2711
  958MOL0     C32080   6.855   1.025   7.493  0.5742  0.8115  0.0012
  958MOL0     C32081   6.879   0.996   7.347  0.4634  0.3418  0.4089
  958MOL0     C32082   6.961   1.092   7.278 -0.8004 -0.1816 -0.6995
  958MOL0     N32083   7.002   1.047   7.149  0.2680 -0.1800 -0.4084
  958MOL0     C32084   7.135   1.000   7.118  0.3454 -0.3218  0.4347
  958MOL0     C32085   7.139   0.973   6.988  0.2241  0.0936 -0.0906
  958MOL0     C32086   7.265   0.954   6.908 -0.2518  0.3191  0.8677
  958MOL0     C32087   7.378   1.039   6.956 -0.7698 -0.9876  0.2984
  958MOL0     C32088   7.491   1.057   6.856  0.2081 -0.0978  0.3202
  958MOL0     C32089   7.608   1.146   6.895 -0.2306  0.1808 -0.6492
  958MOL0     O32090   7.665   1.115   7.024  0.8556  0.2948 -0.0284
  958MOL0     C32091   7.801   1.130   7.041  0.8337 -0.5097  0.5024
  958MOL0     C32092   7.874   1.248   7.004  0.2711  0.4266 -1.1064
  958MOL0     C32093   8.019   1.259   7.000 -0.1185 -0.3709 -0.1720
  958MOL0     C32094   8.084   1.370   6.928  0.2595 -0.4377 -0.4886
  958MOL0     C32095   8.089   1.156   7.060 -1.1944 -0.0865  0.0112
  958MOL0     C32096   8.237   1.160   7.078 -0.0205 -0.1160  0.5457
  958MOL0     O32097   8.299   1.042   7.057  0.5009  0.0339 -0.3276
  958MOL0     C32098   8.433   1.027   7.084 -0.6124  0.1885 -0.3081
  958MOL0     C32099   8.469   0.998   7.216  0.6349  0.4445 -0.1743
  958MOL0     C32100   8.602   0.980   7.248 -0.3615  0.4456 -0.1105
  958MOL0     C32101   8.706   0.982   7.155  0.4829  0.4363  0.6061
  958MOL0     O32102   8.845   0.949   7.174  0.4238  0.0988  1.2048
  958MOL0     C32103   8.861   0.845   7.278  0.6174 -0.0340 -0.1187
  958MOL0     C32104   9.010   0.815   7.265 -0.3265  0.4085 -0.4004
  958MOL0     C32105   9.057   0.771   7.123  0.2092  0.3956  0.3481
  958MOL0     C32106   8.981   0.652   7.067 -0.2498 -0.0536  0.4878
  958MOL0     C32107   9.037   0.613   6.916  0.1445 -0.4827  0.2482
  958MOL0     C32108   9.021   0.740   6.821  0.1609  0.2825  0.5602
  958MOL0     C32109   9.061   0.694   6.676  0.3640  0.6776  0.1435
  958MOL0     C32110   9.217   0.694   6.657  0.4350  0.9511 -0.2990
  958MOL0    Cl32111   9.268   0.666   6.482 -0.4108 -0.2068 -0.3904
  958MOL0     C32112   8.668   1.005   7.025  0.6227  0.6067 -0.0763
  958MOL0     C32113   8.537   1.024   6.992  0.1233 -0.1281 -0.0885
  958MOL0     O32114   8.292   1.269   7.101  0.2426 -1.2411 -0.2027
  958MOL0     C32115   8.018   1.037   7.093 -0.3212 -0.9527 -0.0452
  958MOL0     C32116   7.883   1.029   7.090  0.1287  0.0237  0.9312
  958MOL0     N32117   7.010   0.991   6.940 -0.3069 -0.1794 -0.4598
  958MOL0     N32118   6.933   1.036   7.029 -0.0998  0.1573  0.3088
  958MOL0     C32119   6.107   0.770   7.844  0.0130 -0.3109  0.3856
  958MOL0     C32120   5.978   0.757   7.789 -0.2919  0.8179 -0.2309
  958MOL0     C32121   5.600   0.625   7.642 -0.5132 -0.2005 -0.3395
  958MOL0     C32122   5.570   0.587   7.513  0.2279  1.2544  0.8464
  958MOL0     C32123   5.446   0.596   7.456 -0.3117 -0.3054 -0.4173
  958MOL0     C32124   5.343   0.647   7.537 -0.3195  0.6487  0.2822
  958MOL0     O32125   5.228   0.656   7.461 -0.2265  0.3788  0.3601
  958MOL0     C32126   5.097   0.679   7.520  0.3342 -0.1689  0.2104
  958MOL0     C32127   4.981   0.633   7.433 -0.0782 -0.1320  0.2370
  958MOL0     C32128   4.992   0.697   7.293  0.0265 -1.5010  0.1227
  958MOL0     C32129   4.888   0.636   7.193 -0.8886 -0.0597 -0.7210
  958MOL0     C32130   4.758   0.705   7.211 -0.2612 -0.2826  0.5653
  958MOL0     C32131   4.653   0.764   7.217  0.8015  0.2117 -0.1938
  958MOL0     C32132   5.370   0.683   7.667  1.3023  0.6237  0.1241
  958MOL0     C32133   5.500   0.674   7.725  0.2307 -0.8742  0.5072
  958MOL0     C32134   5.518   0.743   7.861  0.2341  0.5865 -0.1923
  958MOL0     H32135   6.067   0.569   7.512  2.5222  0.7854 -0.1497
  958MOL0     H32136   6.278   0.594   7.616 -1.2673 -2.4166  0.3528
  958MOL0     H32137   6.369   0.831   7.982  0.6910  1.2703  1.1206
  958MOL0     H32138   6.321   0.943   7.849  1.8535  0.7277 -1.2940
  958MOL0     H32139   6.553   0.970   7.913  2.9411 -0.1794 -1.0389
  958MOL0     H32140   6.584   0.791   7.892 -0.1706 -0.4394 -0.8279
  958MOL0     H32141   6.546   0.833   7.655  0.5870  0.0233  0.7173
  958MOL0     H32142   6.508   1.003   7.690  1.4437 -0.4501 -1.0448
  958MOL0     H32143   6.728   1.062   7.730 -1.6918  0.5132 -1.3394
  958MOL0     H32144   6.789   0.900   7.761  0.8913  2.5488 -0.1841
  958MOL0     H32145   6.660   0.922   7.501  1.6608 -1.9318 -3.4644
  958MOL0     H32146   6.799   0.828   7.543  0.1837  0.8075 -0.8293
  958MOL0     H32147   6.805   1.122   7.481  1.2522  0.8387 -4.0571
  958MOL0     H32148   6.944   1.026   7.555 -0.8892 -3.9845  2.6363
  958MOL0     H32149   6.784   0.980   7.293 -1.0551 -2.9081  3.6088
  958MOL0     H32150   6.932   0.901   7.346  0.5750  0.3827 -1.5479
  958MOL0     H32151   6.916   1.190   7.261  1.7074  1.2255  0.2878
  958MOL0     H32152   7.051   1.102   7.340  0.7997 -3.2026 -2.2703
  958MOL0     H32153   7.224   0.995   7.179  0.0864 -2.6455  0.7231
  958MOL0     H32154   7.253   0.960   6.799 -0.5485 -0.7878  0.8274
  958MOL0     H32155   7.294   0.849   6.922 -0.9088 -0.0166 -0.1577
  958MOL0     H32156   7.341   1.141   6.974  0.6004 -0.0073 -2.0172
  958MOL0     H32157   7.421   1.003   7.050  1.3011  4.2595  1.7168
  958MOL0     H32158   7.529   0.957   6.831  1.3932  1.0287 -3.0165
  958MOL0     H32159   7.454   1.101   6.763 -1.4177  1.0737  1.4639
  958MOL0     H32160   7.681   1.155   6.815  0.0728 -3.5018 -0.9607
  958MOL0     H32161   7.561   1.244   6.910  1.5188  0.9203  0.3597
  958MOL0     H32162   7.809   1.326   6.966  0.2055  1.2791  0.6229
  958MOL0     H32163   8.144   1.437   6.991  0.2336 -0.5346 -0.3627
  958MOL0     H32164   8.006   1.424   6.872 -2.6527 -1.5458  2.2318
  958MOL0     H32165   8.153   1.330   6.853  2.5796  0.1540  1.2128
  958MOL0     H32166   8.401   0.981   7.299 -0.8722 -0.7462 -1.5754
  958MOL0     H32167   8.617   0.964   7.355 -0.1611  0.0953 -0.1919
  958MOL0     H32168   8.843   0.882   7.380  1.2481 -1.5460  0.5606
  958MOL0     H32169   8.805   0.756   7.249  2.4289 -1.0489 -0.6463
  958MOL0     H32170   9.068   0.905   7.290  0.5481  0.2651 -1.8318
  958MOL0     H32171   9.037   0.734   7.333 -3.8451  0.0346  0.7295
  958MOL0     H32172   9.161   0.740   7.132 -0.2960 -2.2601 -1.6255
  958MOL0     H32173   9.060   0.860   7.059  0.1571  1.1982  1.4309
  958MOL0     H32174   8.872   0.661   7.060 -0.4134 -0.6608  1.8823
  958MOL0     H32175   8.997   0.561   7.125 -3.9058 -3.2049 -2.8824
  958MOL0     H32176   9.142   0.587   6.933 -0.2284 -0.7901  2.4186
  958MOL0     H32177   8.979   0.527   6.881  0.9119 -1.8944  2.2349
  958MOL0     H32178   9.093   0.817   6.850 -0.6309  0.4277  2.2628
  958MOL0     H32179   8.921   0.784   6.818  0.0350  0.0663 -2.8966
  958MOL0     H32180   9.030   0.756   6.592  2.0355 -0.9985 -1.8311
  958MOL0     H32181   9.013   0.596   6.663 -0.4577  1.1912 -0.8447
  958MOL0     H32182   9.261   0.621   6.726 -0.3402 -0.8749 -1.6484
  958MOL0     H32183   9.247   0.795   6.686  0.7256  0.0102  3.2359
  958MOL0     H32184   8.749   0.997   6.953  1.7654  0.3862  1.1903
  958MOL0     H32185   8.497   1.046   6.893  0.0682  1.1295  0.1999
  958MOL0     H32186   8.079   0.955   7.128  0.6928  0.1732  0.9577
  958MOL0     H32187   7.837   0.937   7.123 -3.2288  1.4538  0.6464
  958MOL0     H32188   6.113   0.814   7.944 -0.7726 -0.2959  0.4308
  958MOL0     H32189   5.893   0.800   7.841 -2.3910 -2.0264 -1.0187
  958MOL0     H32190   5.654   0.557   7.450  0.0870 -1.6894  1.9052
  958MOL0     H32191   5.441   0.572   7.350  3.9312 -4.7976  0.0445
  958MOL0     H32192   5.097   0.632   7.618 -2.5067  1.5348  1.1568
  958MOL0     H32193   5.075   0.786   7.529 -2.1600 -0.5677 -0.2175
  958MOL0     H32194   4.878   0.652   7.466 -1.2682 -1.1579 -2.5780
  958MOL0     H32195   5.000   0.526   7.426  0.6068 -0.0144  0.2042
  958MOL0     H32196   4.977   0.805   7.287 -0.9502 -1.7247 -3.0526
  958MOL0     H32197   5.088   0.663   7.252 -0.5309 -0.1608 -2.4894
  958MOL0     H32198   4.879   0.528   7.205  0.5002 -0.0795  0.3114
  958MOL0     H32199   4.929   0.648   7.092 -0.8755 -3.4642 -1.2474
  958MOL0     H32200   4.565   0.823   7.206  2.1691  2.0108 -2.1594
  958MOL0     H32201   5.285   0.720   7.724 -0.1162 -3.2374  0.8268
  958MOL0     H32202   5.622   0.776   7.868  1.0349 -1.8533  0.5637
  958MOL0     H32203   5.439   0.817   7.878 -0.1791  0.1264 -0.0943
  958MOL0     H32204   5.515   0.665   7.937  2.2344  0.4930 -0.1513
  959MOL0     O32205   7.641  11.151   3.813 -0.0519  0.1733 -0.4365
  959MOL0     C32206   7.619  11.166   3.691  0.2566 -0.0593 -0.1392
  959MOL0     O32207   7.655  11.082   3.591 -0.5449  0.5614  0.7077
  959MOL0     C32208   7.724  10.971   3.625 -0.3541  0.0807  0.1871
  959MOL0     C32209   7.662  10.851   3.620  0.8398 -0.8853  0.6830
  959MOL0     C32210   7.717  10.733   3.676  1.5806 -0.1676  0.8364
  959MOL0     C32211   7.844  10.739   3.727 -0.2563 -0.2935  0.1304
  959MOL0     O32212   7.909  10.635   3.797  0.2872  0.1949  0.5411
  959MOL0     C32213   7.833  10.527   3.847 -0.5200  0.2261 -0.0065
  959MOL0     C32214   7.926  10.436   3.919 -0.3532  0.7250 -0.3122
  959MOL0     C32215   8.010  10.493   4.038  0.0442  0.2702  0.0560
  959MOL0     C32216   7.927  10.556   4.143  0.5176 -0.5314  0.4365
  959MOL0     C32217   8.025  10.612   4.258  0.2567 -0.4463  0.0315
  959MOL0     C32218   8.107  10.732   4.220  0.4218 -0.5082  0.9424
  959MOL0     C32219   8.053  10.848   4.146 -0.6545  0.9021 -0.1520
  959MOL0     C32220   7.955  10.934   4.231 -0.0910  0.5247 -0.5285
  959MOL0     N32221   7.818  10.887   4.207  0.3064  0.1799  0.6113
  959MOL0     C32222   7.746  10.914   4.087  0.4087  0.3683 -0.2242
  959MOL0     C32223   7.619  10.860   4.108 -0.1376 -0.7366 -0.5483
  959MOL0     C32224   7.498  10.868   4.017  0.1809 -0.0183  0.4274
  959MOL0     C32225   7.359  10.845   4.082  1.0031 -0.4761  0.4377
  959MOL0     C32226   7.330  10.949   4.190  0.5973  0.7107  0.4330
  959MOL0     C32227   7.207  10.907   4.268 -0.3315 -0.7217 -0.3644
  959MOL0     O32228   7.207  10.781   4.334 -0.1604 -0.1560 -0.6510
  959MOL0     C32229   7.099  10.757   4.415  0.7221  0.0093 -0.1061
  959MOL0     C32230   7.124  10.727   4.551  0.5087 -0.0947  0.4711
  959MOL0     C32231   7.022  10.685   4.641 -0.5578  0.8965  0.2727
  959MOL0     C32232   7.070  10.622   4.770  0.1867  0.6386  0.6078
  959MOL0     C32233   6.885  10.706   4.603 -0.9715  0.7664  0.8800
  959MOL0     C32234   6.762  10.666   4.686 -0.8496  0.8726  0.7785
  959MOL0     O32235   6.646  10.656   4.614  0.1986 -0.2495 -0.3425
  959MOL0     C32236   6.523  10.663   4.679  0.2268 -0.1269 -0.0659
  959MOL0     C32237   6.455  10.786   4.674  0.2799 -0.4238  0.1542
  959MOL0     C32238   6.328  10.800   4.747 -0.1440  0.1176 -0.4372
  959MOL0     C32239   6.264  10.687   4.795  0.1594 -0.2688  0.4253
  959MOL0     O32240   6.145  10.709   4.865  0.4889  0.8687  0.0462
  959MOL0     C32241   6.086  10.598   4.943  0.1989  0.2775 -0.0463
  959MOL0     C32242   6.133  10.617   5.084 -0.5564  0.6766 -0.3679
  959MOL0     C32243   6.100  10.752   5.153 -1.1616 -0.2583 -0.0382
  959MOL0     C32244   6.137  10.751   5.296 -1.2269  0.3134  0.2172
  959MOL0     C32245   6.106  10.894   5.360  0.3773  0.7126  0.4753
  959MOL0     C32246   6.128  10.896   5.514 -0.1573  0.5941  0.2352
  959MOL0     C32247   6.056  11.018   5.567  0.2673 -0.6602 -0.0599
  959MOL0     C32248   6.079  11.035   5.715  1.0529 -0.4869  0.0585
  959MOL0    Cl32249   6.013  10.891   5.809 -0.4536  0.0526 -0.3806
  959MOL0     C32250   6.329  10.563   4.785 -0.0611 -0.1676 -0.3438
  959MOL0     C32251   6.465  10.557   4.733  0.3014 -0.1918  1.1411
  959MOL0     O32252   6.770  10.657   4.807 -0.1440 -0.1865 -0.4742
  959MOL0     C32253   6.859  10.765   4.477 -0.7945  0.1992  1.2452
  959MOL0     C32254   6.963  10.791   4.385  0.2649 -0.7844  0.2644
  959MOL0     N32255   7.617  10.809   4.235 -0.4863  0.9309  0.6035
  959MOL0     N32256   7.729  10.828   4.290 -0.1579  0.0133  0.1488
  959MOL0     C32257   7.921  10.863   3.725 -0.3310 -0.5225 -0.4988
  959MOL0     C32258   7.856  10.973   3.673  0.5137 -0.2532 -0.3092
  959MOL0     C32259   7.550  11.286   3.655 -0.8779 -0.7001  0.0547
  959MOL0     C32260   7.479  11.356   3.758  0.3453 -0.1409  0.1733
  959MOL0     C32261   7.387  11.460   3.722 -0.9016 -0.2641 -0.2565
  959MOL0     C32262   7.376  11.507   3.588 -0.3006  0.0404 -0.8128
  959MOL0     O32263   7.296  11.617   3.575  0.1117 -0.4870  0.0088
  959MOL0     C32264   7.273  11.670   3.443  0.3566  0.4359  0.1430
  959MOL0     C32265   7.127  11.689   3.430  0.1352 -0.1076 -0.1746
  959MOL0     C32266   7.056  11.555   3.395 -0.5005  0.1045  0.3793
  959MOL0     C32267   7.047  11.531   3.249 -0.8419  0.3682  1.2806
  959MOL0     C32268   6.974  11.406   3.212  0.0821 -0.0397  0.4726
  959MOL0     C32269   6.911  11.308   3.184 -0.4836  0.3637 -0.4029
  959MOL0     C32270   7.473  11.451   3.494  0.3580  0.3187  0.5355
  959MOL0     C32271   7.556  11.338   3.522 -0.0007 -0.0580 -0.1660
  959MOL0     C32272   7.630  11.286   3.406  0.4192 -0.7577 -0.7204
  959MOL0     H32273   7.566  10.849   3.569  0.4195  0.2473  1.3899
  959MOL0     H32274   7.652  10.647   3.689  1.1729  0.1728  1.0583
  959MOL0     H32275   7.783  10.471   3.768 -1.6929 -0.0007  0.8539
  959MOL0     H32276   7.755  10.564   3.916  0.5893  1.2429  0.7513
  959MOL0     H32277   7.867  10.353   3.958  3.2871 -1.6826  0.5097
  959MOL0     H32278   8.001  10.395   3.850 -1.0725 -0.2179 -0.5467
  959MOL0     H32279   8.058  10.406   4.084 -1.6227 -2.5000 -3.0144
  959MOL0     H32280   8.079  10.569   4.001 -1.7827  1.4150 -1.1861
  959MOL0     H32281   7.870  10.640   4.102 -1.9340 -1.9570  0.7234
  959MOL0     H32282   7.848  10.489   4.178 -1.3943  1.9881  1.2760
  959MOL0     H32283   8.087  10.527   4.288  0.9470  1.2110  3.7520
  959MOL0     H32284   7.972  10.639   4.349  0.9678  1.1883 -0.0100
  959MOL0     H32285   8.147  10.773   4.314  0.2836  2.3036 -0.1440
  959MOL0     H32286   8.194  10.696   4.165 -0.8017  1.0089 -2.2041
  959MOL0     H32287   8.013  10.818   4.049  1.1307 -0.8499 -0.4112
  959MOL0     H32288   8.137  10.907   4.108 -0.8415  1.3531  0.1226
  959MOL0     H32289   7.982  10.922   4.336 -0.8451  0.0129 -0.3833
  959MOL0     H32290   7.963  11.039   4.202 -0.1425  0.4763 -0.7249
  959MOL0     H32291   7.787  10.958   3.996  2.7420 -2.2165 -0.5427
  959MOL0     H32292   7.521  10.801   3.934  0.6969 -0.9341  1.2940
  959MOL0     H32293   7.496  10.969   3.975 -1.9489 -0.8057 -1.5637
  959MOL0     H32294   7.295  10.850   3.994  0.8327  0.1752  0.5931
  959MOL0     H32295   7.348  10.750   4.136  0.1488  0.9517  2.9815
  959MOL0     H32296   7.405  10.947   4.269  1.2536  2.7351 -0.0780
  959MOL0     H32297   7.325  11.049   4.144 -3.2255 -0.1892 -1.6041
  959MOL0     H32298   7.194  10.984   4.345  0.0444  1.7864 -2.6287
  959MOL0     H32299   7.116  10.907   4.206 -1.1353 -1.5634  0.7727
  959MOL0     H32300   7.225  10.710   4.586  2.0657  2.0602 -2.4694
  959MOL0     H32301   7.034  10.695   4.843 -1.0089  1.0856 -0.3869
  959MOL0     H32302   7.178  10.617   4.788  0.2604  3.6364  1.6040
  959MOL0     H32303   7.026  10.527   4.800 -2.9501  2.9470  4.3123
  959MOL0     H32304   6.483  10.877   4.623 -0.9424  0.0859  0.3566
  959MOL0     H32305   6.275  10.894   4.763 -1.9043 -1.4277  4.6496
  959MOL0     H32306   5.978  10.601   4.924  0.5174  0.9162 -2.0456
  959MOL0     H32307   6.121  10.497   4.919  1.2702 -0.2861  3.3674
  959MOL0     H32308   6.089  10.541   5.150  0.3967  1.0240  0.7019
  959MOL0     H32309   6.241  10.600   5.082 -0.7793 -1.0382 -0.0359
  959MOL0     H32310   5.993  10.771   5.141 -1.8514 -1.7944  2.8159
  959MOL0     H32311   6.154  10.829   5.097 -2.7793  1.0638  0.1185
  959MOL0     H32312   6.238  10.711   5.314 -2.3414 -1.9816  1.8939
  959MOL0     H32313   6.075  10.680   5.352  0.1914 -2.7986 -1.8891
  959MOL0     H32314   6.171  10.967   5.312 -0.4525  1.8057  0.9714
  959MOL0     H32315   6.004  10.918   5.332  0.0194 -2.0010 -0.9036
  959MOL0     H32316   6.237  10.901   5.522  0.0502 -1.1706 -0.6992
  959MOL0     H32317   6.085  10.809   5.565 -1.8007  1.1344 -0.1831
  959MOL0     H32318   5.948  11.007   5.553  0.5260 -1.6614 -1.5193
  959MOL0     H32319   6.091  11.109   5.518  0.4990  1.2417  3.3739
  959MOL0     H32320   6.042  11.134   5.743  0.2412 -0.0525 -2.3304
  959MOL0     H32321   6.188  11.041   5.724  1.4473  0.3147 -3.5936
  959MOL0     H32322   6.286  10.467   4.810 -0.9952  0.1706 -0.6137
  959MOL0     H32323   6.522  10.468   4.760  0.2110 -0.9912 -1.1516
  959MOL0     H32324   6.763  10.796   4.437  0.7876  2.9124 -0.7683
  959MOL0     H32325   6.917  10.831   4.296 -1.8736 -2.1182  0.6990
  959MOL0     H32326   8.025  10.866   3.757 -0.5725 -0.2881  0.2847
  959MOL0     H32327   7.902  11.071   3.682  0.8698 -0.5134  0.8285
  959MOL0     H32328   7.482  11.320   3.860 -2.5521 -0.4620  0.2151
  959MOL0     H32329   7.319  11.506   3.794 -1.4766 -1.5503  0.0455
  959MOL0     H32330   7.323  11.765   3.423  2.6550 -0.9961 -1.3758
  959MOL0     H32331   7.306  11.609   3.359 -1.6280  0.5130 -0.7578
  959MOL0     H32332   7.099  11.762   3.353 -0.2781 -1.2702 -1.1828
  959MOL0     H32333   7.088  11.727   3.524 -0.0100 -1.3199  0.2757
  959MOL0     H32334   7.098  11.470   3.449 -1.9399  0.2405  1.7793
  959MOL0     H32335   6.956  11.568   3.436  0.2439 -1.4819  2.9219
  959MOL0     H32336   7.148  11.527   3.208  0.0085  1.4714  3.1502
  959MOL0     H32337   6.990  11.612   3.202 -0.4675 -0.4079 -0.6032
  959MOL0     H32338   6.876  11.214   3.146  3.0513  0.0632 -3.4611
  959MOL0     H32339   7.489  11.510   3.405 -1.4094  0.4401  0.2567
  959MOL0     H32340   7.737  11.282   3.431  0.4099  1.6230 -0.0517
  959MOL0     H32341   7.591  11.187   3.380 -1.9994 -0.0885  0.1133
  959MOL0     H32342   7.628  11.350   3.318  3.1708 -0.5558 -0.7293
  960MOL0     O32343   0.175   0.775   8.138  0.7904 -0.7703  0.0978
  960MOL0     C32344   0.145   0.665   8.100  0.5024  0.0817  0.1058
  960MOL0     O32345   0.208   0.542   8.124  0.0319  0.0685 -0.6764
  960MOL0     C32346   0.291   0.542   8.230  0.5447 -0.1177 -0.2356
  960MOL0     C32347   0.420   0.500   8.215  0.5877 -0.3015  0.2051
  960MOL0     C32348   0.495   0.486   8.330 -0.5668  0.9761  0.0407
  960MOL0     C32349   0.442   0.503   8.460 -0.4432 -0.0653  0.0857
  960MOL0     O32350   0.504   0.468   8.575  0.5338 -0.2530 -0.6258
  960MOL0     C32351   0.582   0.340   8.572 -0.6405 -0.7678  0.0279
  960MOL0     C32352   0.606   0.293   8.716  0.0747  0.3008  0.4760
  960MOL0     C32353   0.673   0.395   8.811 -0.5944 -0.5172 -0.5674
  960MOL0     C32354   0.829   0.405   8.788  0.2578 -0.4133  0.8801
  960MOL0     C32355   0.896   0.451   8.920  0.2215  0.2104  0.2260
  960MOL0     C32356   1.051   0.455   8.918  0.0702  0.3992 -0.1529
  960MOL0     C32357   1.119   0.534   8.801  1.0009 -0.4564  0.8385
  960MOL0     C32358   1.270   0.515   8.790  0.5310 -0.8860  0.5117
  960MOL0     N32359   1.327   0.404   8.706 -0.2225 -0.3114 -0.1918
  960MOL0     C32360   1.341   0.416   8.571 -0.3169 -0.2937 -0.4479
  960MOL0     C32361   1.394   0.297   8.537 -0.2822 -0.0816 -0.0256
  960MOL0     C32362   1.442   0.279   8.398 -0.0918  0.3029  0.4940
  960MOL0     C32363   1.594   0.325   8.384 -0.1035 -0.2245 -0.1403
  960MOL0     C32364   1.628   0.366   8.245 -0.0177  0.5646 -0.1834
  960MOL0     C32365   1.775   0.407   8.234  0.4575 -0.0883  0.2097
  960MOL0     O32366   1.781   0.471   8.114  0.1824 -0.2418  0.0410
  960MOL0     C32367   1.898   0.500   8.059 -0.2136  0.1337 -0.1560
  960MOL0     C32368   1.902   0.559   7.926 -0.1174  0.3701  0.2304
  960MOL0     C32369   2.025   0.587   7.862  0.9101  0.2518 -0.3348
  960MOL0     C32370   2.003   0.661   7.732 -0.7335 -0.5515 -0.9307
  960MOL0     C32371   2.149   0.569   7.932  0.6695  0.0353  0.3746
  960MOL0     C32372   2.285   0.612   7.894  0.1537 -0.7545 -0.1584
  960MOL0     O32373   2.388   0.589   7.985  0.0768 -0.0726  0.7489
  960MOL0     C32374   2.517   0.647   7.958 -0.4030 -0.2747  0.2579
  960MOL0     C32375   2.572   0.738   8.045 -0.5663  0.6584 -0.2480
  960MOL0     C32376   2.700   0.787   8.018  0.8647 -0.1312  1.1249
  960MOL0     C32377   2.770   0.750   7.900 -0.1171  0.1651  1.3078
  960MOL0     O32378   2.899   0.790   7.887  0.4637 -0.2038  0.8088
  960MOL0     C32379   2.991   0.685   7.880 -0.2102  0.7449 -0.5319
  960MOL0     C32380   3.139   0.740   7.917  0.0494  0.5060  0.3890
  960MOL0     C32381   3.177   0.852   7.823 -0.3760  0.0779  0.1473
  960MOL0     C32382   3.296   0.928   7.876 -0.2597 -0.7428  0.5346
  960MOL0     C32383   3.419   0.850   7.917  0.2802  0.1820  0.7266
  960MOL0     C32384   3.534   0.941   7.960 -0.4341 -0.0865  1.0245
  960MOL0     C32385   3.655   0.858   8.008 -0.1153 -0.0420 -0.1707
  960MOL0     C32386   3.771   0.948   8.065  0.2465  0.3476 -0.8806
  960MOL0    Cl32387   3.832   1.066   7.946 -0.2514  0.5968 -0.3451
  960MOL0     C32388   2.712   0.660   7.815 -0.0584 -0.4681  1.1392
  960MOL0     C32389   2.591   0.606   7.846 -0.2883  0.1225  0.1770
  960MOL0     O32390   2.290   0.688   7.797 -0.0245  0.1233 -0.1734
  960MOL0     C32391   2.140   0.520   8.066 -0.1163 -0.6307  0.5091
  960MOL0     C32392   2.015   0.488   8.125 -0.8489 -0.4632  1.0180
  960MOL0     N32393   1.418   0.222   8.647  0.0244 -0.0156  0.6013
  960MOL0     N32394   1.381   0.290   8.752 -0.6029  0.2907  0.3400
  960MOL0     C32395   0.304   0.538   8.474  0.1160  0.2679 -1.1906
  960MOL0     C32396   0.237   0.562   8.360  0.2278  0.8287 -0.7153
  960MOL0     C32397   0.033   0.659   8.005 -0.0291  1.3276  0.9495
  960MOL0     C32398   0.040   0.745   7.892  0.4546  0.2391  0.9050
  960MOL0     C32399  -0.073   0.752   7.814  0.2373  0.7235  0.0002
  960MOL0     C32400  -0.178   0.663   7.827  0.1897 -0.2407 -0.1743
  960MOL0     O32401  -0.278   0.672   7.730  0.9210 -0.3340  0.5521
  960MOL0     C32402  -0.408   0.614   7.761 -0.8186  0.1800 -0.0675
  960MOL0     C32403  -0.497   0.633   7.637 -0.0292  0.0458  0.6876
  960MOL0     C32404  -0.613   0.547   7.623  0.2851 -0.5930 -0.0747
  960MOL0     C32405  -0.665   0.552   7.476 -0.6187 -0.2579  0.1039
  960MOL0     C32406  -0.762   0.445   7.447 -0.8505  0.7754  0.2378
  960MOL0     C32407  -0.830   0.353   7.413  0.5265  0.3723 -0.2498
  960MOL0     C32408  -0.186   0.582   7.935  0.1864  0.0320  0.0551
  960MOL0     C32409  -0.082   0.579   8.033  0.7599  0.3670 -0.2670
  960MOL0     C32410  -0.103   0.502   8.160 -0.1719 -0.5015  0.2059
  960MOL0     H32411   0.457   0.494   8.114  0.1601  1.6823 -0.1196
  960MOL0     H32412   0.600   0.459   8.319 -0.4559  0.4565  1.9940
  960MOL0     H32413   0.677   0.340   8.518 -1.0017 -0.2659 -0.6268
  960MOL0     H32414   0.522   0.271   8.513  0.1604 -0.2481 -1.4538
  960MOL0     H32415   0.511   0.252   8.754  0.2910 -0.7304 -0.0429
  960MOL0     H32416   0.676   0.209   8.711 -0.4711 -0.1107 -0.6250
  960MOL0     H32417   0.626   0.493   8.798  2.7123  1.2283 -0.3305
  960MOL0     H32418   0.668   0.356   8.914  3.8962  1.8175  0.8004
  960MOL0     H32419   0.874   0.307   8.772 -1.3955 -0.8382 -1.6781
  960MOL0     H32420   0.848   0.471   8.703 -0.0138  0.4266  1.4526
  960MOL0     H32421   0.871   0.383   9.002  0.5306  0.1067  0.2363
  960MOL0     H32422   0.852   0.549   8.941 -0.7762 -0.2753  0.4655
  960MOL0     H32423   1.087   0.502   9.009 -0.7074  2.7488 -0.9700
  960MOL0     H32424   1.094   0.355   8.907  3.1639  1.6803 -1.0476
  960MOL0     H32425   1.097   0.641   8.815 -3.8901 -0.9326 -1.2440
  960MOL0     H32426   1.072   0.499   8.708  1.0898  1.2039  0.1131
  960MOL0     H32427   1.311   0.610   8.754 -2.7954  0.2251 -0.6370
  960MOL0     H32428   1.307   0.502   8.892 -0.5427  0.6418  1.1244
  960MOL0     H32429   1.303   0.493   8.504  0.4295 -0.8041 -1.4732
  960MOL0     H32430   1.369   0.339   8.341 -1.3833 -0.3894  1.3766
  960MOL0     H32431   1.440   0.172   8.380 -2.8979  0.3187  0.1812
  960MOL0     H32432   1.612   0.408   8.452 -0.1634  0.1218 -0.5437
  960MOL0     H32433   1.653   0.239   8.419 -2.3256 -1.8605 -0.2064
  960MOL0     H32434   1.608   0.277   8.185 -0.1851 -1.8992  3.2057
  960MOL0     H32435   1.557   0.440   8.208 -0.2661 -0.8698 -2.8209
  960MOL0     H32436   1.796   0.463   8.325  0.4095 -3.3435  2.3496
  960MOL0     H32437   1.834   0.315   8.239 -1.7269 -1.4879  1.9602
  960MOL0     H32438   1.810   0.602   7.888  2.0585  1.3611 -4.7394
  960MOL0     H32439   1.954   0.584   7.672 -0.9771 -0.2798 -1.0813
  960MOL0     H32440   2.092   0.679   7.671 -1.2194  0.3337 -1.3838
  960MOL0     H32441   1.942   0.751   7.743 -0.6032 -0.6326  0.8571
  960MOL0     H32442   2.521   0.776   8.132 -2.6497 -4.6561  1.2473
  960MOL0     H32443   2.745   0.869   8.073 -1.9918  1.9898  0.5253
  960MOL0     H32444   2.950   0.609   7.948 -0.4252  2.5765  1.4897
  960MOL0     H32445   2.985   0.643   7.779 -1.6146  2.3947 -1.1783
  960MOL0     H32446   3.144   0.761   8.025  1.6649 -2.1379  0.9286
  960MOL0     H32447   3.204   0.654   7.900  2.4882  1.5854  3.2890
  960MOL0     H32448   3.094   0.923   7.820 -0.6951 -0.3256 -1.0193
  960MOL0     H32449   3.200   0.807   7.726  0.3815  0.1372  0.2919
  960MOL0     H32450   3.263   0.982   7.965  0.6819 -0.4033  0.6921
  960MOL0     H32451   3.315   1.009   7.805  0.7111  1.0118  2.6635
  960MOL0     H32452   3.399   0.780   7.999 -0.1027  0.2016  0.6503
  960MOL0     H32453   3.461   0.797   7.831 -0.0630  0.3919  0.4261
  960MOL0     H32454   3.503   1.009   8.040  5.0398  0.9689  2.6431
  960MOL0     H32455   3.572   0.994   7.873  1.2517  0.5470  2.0904
  960MOL0     H32456   3.689   0.786   7.933 -0.1874  0.3253 -0.5566
  960MOL0     H32457   3.611   0.801   8.091  0.6215 -2.1247 -1.1240
  960MOL0     H32458   3.843   0.878   8.108 -1.7654 -0.6102  1.1613
  960MOL0     H32459   3.732   1.009   8.147 -2.6063 -0.8584 -1.2145
  960MOL0     H32460   2.754   0.649   7.716  0.3757  0.5819  1.1987
  960MOL0     H32461   2.558   0.531   7.775  3.5417 -1.1810 -0.4660
  960MOL0     H32462   2.226   0.478   8.118  0.1493 -2.0119 -0.9382
  960MOL0     H32463   2.027   0.453   8.226 -2.0895  0.0572  1.3690
  960MOL0     H32464   0.265   0.552   8.574  0.6093  0.6923 -1.0542
  960MOL0     H32465   0.137   0.602   8.374 -0.2103 -0.3550 -0.3255
  960MOL0     H32466   0.125   0.810   7.871  0.2917  0.4190  0.8029
  960MOL0     H32467  -0.051   0.809   7.725  0.2561  3.7617  1.8092
  960MOL0     H32468  -0.406   0.506   7.775  1.2382 -0.5298 -4.1224
  960MOL0     H32469  -0.453   0.667   7.846 -1.4901 -2.9806  1.7018
  960MOL0     H32470  -0.431   0.609   7.553  0.0780  0.9866  0.4906
  960MOL0     H32471  -0.528   0.738   7.636 -2.1583 -0.5423 -0.0960
  960MOL0     H32472  -0.585   0.444   7.647  1.3547  0.3812  3.3842
  960MOL0     H32473  -0.693   0.570   7.693 -3.0055 -4.0427 -2.3308
  960MOL0     H32474  -0.584   0.556   7.402 -0.6830 -0.4060  0.0253
  960MOL0     H32475  -0.718   0.647   7.464 -0.5159 -0.1538  0.4497
  960MOL0     H32476  -0.895   0.270   7.393  1.3979 -1.0989  2.4398
  960MOL0     H32477  -0.274   0.521   7.951  0.2587 -0.1438 -0.2035
  960MOL0     H32478  -0.203   0.457   8.161 -1.0304  1.3349  0.3678
  960MOL0     H32479  -0.030   0.421   8.167  0.6777 -0.0383 -2.2750
  960MOL0     H32480  -0.101   0.564   8.250  2.4348 -0.8217  0.4464
  961MOL0     O32481   5.195   4.050   5.230  0.3710  0.4278 -0.0255
  961MOL0     C32482   5.118   4.073   5.323  0.3378 -0.5186  0.5592
  961MOL0     O32483   5.119   4.001   5.442  0.5202  0.4113  0.4372
  961MOL0     C32484   5.216   3.912   5.476 -0.3432 -0.2809 -0.1674
  961MOL0     C32485   5.267   3.921   5.607 -0.2398  0.0668  0.0350
  961MOL0     C32486   5.386   3.858   5.642  0.2803 -0.6949  0.1479
  961MOL0     C32487   5.455   3.775   5.547 -0.5710 -0.2021  0.5685
  961MOL0     O32488   5.562   3.714   5.592  0.1572 -0.3298 -0.6664
  961MOL0     C32489   5.685   3.710   5.521 -0.9122 -0.4283  0.2031
  961MOL0     C32490   5.786   3.780   5.610 -0.2542 -0.0765 -0.0922
  961MOL0     C32491   5.805   3.706   5.748 -0.7176 -0.1436  0.5462
  961MOL0     C32492   5.914   3.786   5.829  0.1649  0.6666 -1.2872
  961MOL0     C32493   6.055   3.755   5.776 -0.3239  0.4278 -0.9810
  961MOL0     C32494   6.163   3.847   5.856 -0.3673  0.7895  0.0232
  961MOL0     C32495   6.296   3.791   5.819 -0.9022 -0.2693  0.4966
  961MOL0     C32496   6.407   3.847   5.915  0.1113 -0.1164 -0.4387
  961MOL0     N32497   6.532   3.767   5.894 -0.5539  0.2669 -0.7366
  961MOL0     C32498   6.628   3.798   5.792 -0.5988 -1.0501  0.1313
  961MOL0     C32499   6.718   3.692   5.812  0.5132 -0.3008  0.3476
  961MOL0     C32500   6.833   3.672   5.721 -1.0477 -0.4501 -0.7377
  961MOL0     C32501   6.791   3.593   5.590 -0.5653  0.0411 -0.2164
  961MOL0     C32502   6.908   3.518   5.529 -0.1698 -0.4405 -0.3392
  961MOL0     C32503   6.864   3.444   5.408 -0.4398  0.4423 -0.9950
  961MOL0     O32504   6.756   3.349   5.440 -0.3601  0.4321  0.1154
  961MOL0     C32505   6.627   3.357   5.392 -0.6664  0.5816 -1.0341
  961MOL0     C32506   6.537   3.254   5.428 -0.7055 -0.3113 -0.0827
  961MOL0     C32507   6.412   3.233   5.371  0.0586  1.0173  0.1610
  961MOL0     C32508   6.329   3.127   5.435 -0.4919 -0.4751 -0.9488
  961MOL0     C32509   6.370   3.316   5.266  0.8133 -1.2009 -0.3741
  961MOL0     C32510   6.241   3.296   5.190  0.7514 -1.3489 -0.8409
  961MOL0     O32511   6.198   3.411   5.120  0.6460 -0.4042  0.2867
  961MOL0     C32512   6.074   3.414   5.068  0.1211 -0.4913 -0.5166
  961MOL0     C32513   6.039   3.369   4.938  0.2442 -0.0376  0.1599
  961MOL0     C32514   5.906   3.395   4.893 -0.5667 -0.6183 -0.2007
  961MOL0     C32515   5.810   3.443   4.975 -0.0002  0.7348 -0.9659
  961MOL0     O32516   5.672   3.430   4.939 -0.3798  0.3892  0.3925
  961MOL0     C32517   5.593   3.551   4.924  0.1946  0.0855 -0.8797
  961MOL0     C32518   5.445   3.545   4.984  0.8557 -0.7833 -0.0845
  961MOL0     C32519   5.438   3.539   5.135 -0.0215 -0.1276 -0.9769
  961MOL0     C32520   5.465   3.396   5.188 -0.3916 -0.1455 -1.2405
  961MOL0     C32521   5.433   3.391   5.338 -1.0478  0.4530  0.6771
  961MOL0     C32522   5.288   3.417   5.377 -0.3325  0.0045 -0.1633
  961MOL0     C32523   5.283   3.404   5.530 -0.4137 -0.0606  0.7325
  961MOL0     C32524   5.158   3.475   5.585 -0.2596  0.1959 -0.0710
  961MOL0    Cl32525   5.012   3.393   5.520  0.2893 -0.2990  0.2377
  961MOL0     C32526   5.846   3.486   5.102  1.0298 -0.1297  0.5193
  961MOL0     C32527   5.980   3.489   5.140 -0.0835  0.5354  0.5739
  961MOL0     O32528   6.174   3.202   5.214  0.6914  0.6757  0.0783
  961MOL0     C32529   6.456   3.425   5.235  0.0698 -0.7615 -0.0652
  961MOL0     C32530   6.577   3.443   5.302 -0.4382  0.3454 -0.7003
  961MOL0     N32531   6.682   3.624   5.931  0.5656  0.1763  0.0235
  961MOL0     N32532   6.570   3.663   5.975  0.4072 -0.5391  1.3036
  961MOL0     C32533   5.394   3.759   5.422  0.5540  0.3999  0.0698
  961MOL0     C32534   5.272   3.821   5.387 -0.1892  0.1478  0.4469
  961MOL0     C32535   4.994   4.159   5.283  0.2158 -0.5821  0.1492
  961MOL0     C32536   4.997   4.237   5.165 -0.4405  0.7341  0.4494
  961MOL0     C32537   4.880   4.302   5.114  0.1664 -0.0734 -0.2876
  961MOL0     C32538   4.766   4.303   5.190  0.3364  0.2844  0.7921
  961MOL0     O32539   4.658   4.366   5.131  0.1829  0.4591  0.1700
  961MOL0     C32540   4.530   4.356   5.198  0.1600 -0.0844 -0.6824
  961MOL0     C32541   4.426   4.449   5.147 -0.3378  0.5427 -1.0474
  961MOL0     C32542   4.389   4.435   5.000 -0.4440  0.0921 -0.5867
  961MOL0     C32543   4.291   4.553   4.974  0.7584 -0.2909 -0.2398
  961MOL0     C32544   4.159   4.542   5.036 -0.6460  0.1136 -0.2072
  961MOL0     C32545   4.047   4.530   5.085  0.0307  0.6973 -1.1451
  961MOL0     C32546   4.769   4.229   5.311 -0.8120  0.1002 -0.5480
  961MOL0     C32547   4.877   4.156   5.355  0.5414 -0.2972 -0.1260
  961MOL0     C32548   4.855   4.078   5.480  0.5191  1.1773 -0.5564
  961MOL0     H32549   5.215   3.994   5.668 -1.3883 -0.4834 -0.2542
  961MOL0     H32550   5.443   3.884   5.731  1.0815  3.7075 -1.3780
  961MOL0     H32551   5.683   3.763   5.425 -1.5199  0.2119  0.5630
  961MOL0     H32552   5.717   3.609   5.496  1.9541  0.5852 -0.5825
  961MOL0     H32553   5.882   3.793   5.560  0.4362  2.4014  1.6809
  961MOL0     H32554   5.747   3.878   5.641 -1.5801 -0.8249  0.7120
  961MOL0     H32555   5.706   3.707   5.794 -0.2599 -3.7024  1.9220
  961MOL0     H32556   5.831   3.601   5.726 -0.9755  0.4454 -3.4724
  961MOL0     H32557   5.910   3.895   5.823 -1.8811  0.7061  0.0584
  961MOL0     H32558   5.900   3.755   5.933 -3.0855 -2.2020 -2.4134
  961MOL0     H32559   6.061   3.770   5.668  3.3172  0.5517 -0.8695
  961MOL0     H32560   6.067   3.646   5.784 -1.1106  0.4364  0.8517
  961MOL0     H32561   6.148   3.953   5.835  0.2935  1.3898  2.3129
  961MOL0     H32562   6.138   3.824   5.960 -0.7627 -2.1107 -0.6172
  961MOL0     H32563   6.317   3.822   5.716 -0.6980  2.4415  1.2843
  961MOL0     H32564   6.298   3.682   5.828  2.8750 -0.2346  1.5001
  961MOL0     H32565   6.415   3.956   5.910  3.0225 -0.1331  1.2340
  961MOL0     H32566   6.379   3.827   6.018  2.5720 -1.7045  0.0056
  961MOL0     H32567   6.622   3.865   5.707  0.1645 -2.8544 -1.4378
  961MOL0     H32568   6.911   3.618   5.775 -2.7733 -1.4707  0.8480
  961MOL0     H32569   6.866   3.775   5.702 -1.1083 -0.3693 -0.4006
  961MOL0     H32570   6.713   3.522   5.620 -1.6848  0.2219 -2.5603
  961MOL0     H32571   6.745   3.661   5.518 -2.9858 -1.4460 -0.1918
  961MOL0     H32572   6.978   3.599   5.504  0.0712 -0.4837  0.1757
  961MOL0     H32573   6.955   3.453   5.603 -1.0341 -2.3391 -1.3902
  961MOL0     H32574   6.842   3.510   5.324 -0.5704 -0.6862 -1.8735
  961MOL0     H32575   6.948   3.381   5.377 -0.6754 -3.3561  4.5320
  961MOL0     H32576   6.563   3.184   5.506  0.0264  0.5156  0.4338
  961MOL0     H32577   6.302   3.045   5.368 -0.9479  0.9283 -2.5620
  961MOL0     H32578   6.249   3.198   5.461  1.3896  1.5262 -0.2612
  961MOL0     H32579   6.378   3.103   5.530  2.2723  3.7983 -1.0331
  961MOL0     H32580   6.108   3.343   4.858  1.6076  1.8856  0.6537
  961MOL0     H32581   5.891   3.371   4.788  0.5854  0.8379 -0.7329
  961MOL0     H32582   5.643   3.629   4.982 -1.4055 -2.1972  4.1912
  961MOL0     H32583   5.599   3.564   4.816  0.8693  1.7739 -0.6610
  961MOL0     H32584   5.403   3.641   4.957 -0.2068 -0.7515  1.5365
  961MOL0     H32585   5.394   3.469   4.924  1.4238 -0.0086 -1.5873
  961MOL0     H32586   5.339   3.572   5.168 -1.3881 -2.8707 -1.9910
  961MOL0     H32587   5.518   3.595   5.185 -1.0291  0.3200  0.1763
  961MOL0     H32588   5.573   3.381   5.188 -0.0346  1.9322  0.6930
  961MOL0     H32589   5.412   3.320   5.129 -2.5008  0.2260  0.0490
  961MOL0     H32590   5.467   3.293   5.373 -2.1700  0.1078  0.8477
  961MOL0     H32591   5.496   3.466   5.388  1.5358 -0.9258 -0.3363
  961MOL0     H32592   5.228   3.334   5.338 -0.5935  1.9740 -4.4018
  961MOL0     H32593   5.252   3.514   5.343 -0.3922 -0.2501 -0.8274
  961MOL0     H32594   5.371   3.451   5.576 -0.8451  0.8075  0.6975
  961MOL0     H32595   5.281   3.302   5.569 -1.9003 -0.6146 -0.6634
  961MOL0     H32596   5.151   3.582   5.563 -0.4699  0.2363  0.1928
  961MOL0     H32597   5.169   3.462   5.693 -1.6320 -0.2826  0.0185
  961MOL0     H32598   5.773   3.529   5.171  0.6169  0.1053 -0.0590
  961MOL0     H32599   6.016   3.536   5.231  2.4590 -0.8097  0.3528
  961MOL0     H32600   6.420   3.501   5.166  1.6562 -0.5486 -0.7054
  961MOL0     H32601   6.632   3.531   5.271 -0.7091  0.9864  0.5794
  961MOL0     H32602   5.457   3.697   5.359 -0.5660 -0.6908 -0.0250
  961MOL0     H32603   5.240   3.811   5.284 -1.0307  0.2489  0.6921
  961MOL0     H32604   5.087   4.232   5.103  0.1576 -2.0498  1.3704
  961MOL0     H32605   4.877   4.350   5.016  3.8420  0.8448 -0.0995
  961MOL0     H32606   4.481   4.261   5.178 -0.4967 -0.2313  1.3233
  961MOL0     H32607   4.532   4.374   5.306 -0.1811  0.5957 -0.7820
  961MOL0     H32608   4.473   4.548   5.155  0.9647 -0.2069  1.9304
  961MOL0     H32609   4.342   4.432   5.214  0.0600 -2.2240 -1.1350
  961MOL0     H32610   4.481   4.444   4.942  0.4536 -0.0542  0.7718
  961MOL0     H32611   4.336   4.343   4.975 -2.3700  0.0882  2.8454
  961MOL0     H32612   4.270   4.547   4.867  1.0422  1.6625 -0.4430
  961MOL0     H32613   4.329   4.651   5.002  0.7682 -0.8603  1.8987
  961MOL0     H32614   3.943   4.520   5.108  0.6302 -3.1217  0.7336
  961MOL0     H32615   4.683   4.230   5.376 -1.2731 -0.1347 -1.1489
  961MOL0     H32616   4.751   4.078   5.516  0.5084 -0.0711 -0.5472
  961MOL0     H32617   4.890   3.977   5.458 -3.1709 -0.3764 -0.0782
  961MOL0     H32618   4.909   4.108   5.570 -1.1288 -2.2306  1.8113
  962MOL0     O32619   8.033   4.814   3.590  0.3942 -0.4005 -0.5788
  962MOL0     C32620   7.951   4.899   3.614  0.1241  0.6245 -0.1095
  962MOL0     O32621   7.949   5.026   3.560  0.0323  0.4161  0.4697
  962MOL0     C32622   8.073   5.090   3.567  0.4261 -0.9547 -0.5502
  962MOL0     C32623   8.128   5.162   3.458  0.5739 -0.5664 -0.7102
  962MOL0     C32624   8.243   5.229   3.467 -0.8091 -0.3326  0.1563
  962MOL0     C32625   8.314   5.242   3.595 -0.7924 -0.4167  0.6572
  962MOL0     O32626   8.439   5.302   3.614 -0.5252  0.4199 -0.6957
  962MOL0     C32627   8.499   5.372   3.509 -0.0109  0.5415 -0.4460
  962MOL0     C32628   8.621   5.451   3.545 -0.3955 -0.1275  0.4392
  962MOL0     C32629   8.736   5.368   3.589 -0.2342  0.4231 -0.1127
  962MOL0     C32630   8.852   5.433   3.673  0.1448 -0.0223  0.9321
  962MOL0     C32631   8.940   5.522   3.585 -0.2953 -0.1501  0.3480
  962MOL0     C32632   9.066   5.565   3.662 -0.4411  1.0151  0.6000
  962MOL0     C32633   9.155   5.652   3.583 -0.3416 -0.2107 -0.1578
  962MOL0     C32634   9.251   5.577   3.486  1.2089 -0.9359  0.6945
  962MOL0     N32635   9.363   5.666   3.453 -0.5061  0.2100  0.1335
  962MOL0     C32636   9.461   5.708   3.539 -0.5186  0.1683 -0.6742
  962MOL0     C32637   9.541   5.793   3.470  0.2203 -0.1721 -0.1530
  962MOL0     C32638   9.673   5.857   3.518  0.0264  0.0793  0.1831
  962MOL0     C32639   9.652   5.948   3.642 -0.6424  0.7214 -0.2062
  962MOL0     C32640   9.787   5.978   3.715 -0.3477 -0.2505 -0.5383
  962MOL0     C32641   9.749   6.034   3.860 -0.3352 -0.0743  0.3389
  962MOL0     O32642   9.874   6.054   3.933  0.3100  0.1364 -0.8072
  962MOL0     C32643   9.953   6.160   3.889  0.6149  0.8306  0.3672
  962MOL0     C32644   9.896   6.286   3.879  0.4574  0.2191  0.1391
  962MOL0     C32645   9.976   6.396   3.839  0.4760 -0.2528  0.0839
  962MOL0     C32646   9.913   6.535   3.843  0.2707  0.4772  0.2299
  962MOL0     C32647  10.118   6.380   3.811  0.8019 -0.4261 -0.2019
  962MOL0     C32648  10.215   6.490   3.790  0.3081  0.8765  0.7979
  962MOL0     O32649  10.334   6.459   3.723  0.0360  0.9000 -0.5185
  962MOL0     C32650  10.436   6.556   3.725 -1.0072 -0.7070  0.6666
  962MOL0     C32651  10.467   6.624   3.604  1.2357 -0.1916 -0.6473
  962MOL0     C32652  10.590   6.688   3.584 -0.5058  0.0244 -0.4581
  962MOL0     C32653  10.676   6.703   3.701 -0.5147 -0.2532 -0.3262
  962MOL0     O32654  10.797   6.768   3.679  0.8045 -0.1132  0.0574
  962MOL0     C32655  10.791   6.910   3.708 -1.0158  0.1257  0.8313
  962MOL0     C32656  10.928   6.961   3.751  0.6622  0.7320  0.1583
  962MOL0     C32657  10.944   7.112   3.787  0.1287  0.3401 -0.4479
  962MOL0     C32658  11.059   7.136   3.873  0.4230  0.0927 -0.1074
  962MOL0     C32659  11.198   7.080   3.837 -0.7640  0.7180 -0.1183
  962MOL0     C32660  11.255   7.148   3.706 -0.0976  0.4851 -0.3444
  962MOL0     C32661  11.387   7.092   3.657 -0.6811 -0.3162  0.4162
  962MOL0     C32662  11.498   7.193   3.647 -0.4716  0.1845  0.3076
  962MOL0    Cl32663  11.623   7.125   3.533 -0.2771  0.0480 -0.3433
  962MOL0     C32664  10.637   6.644   3.821 -0.4553 -1.2217  0.0968
  962MOL0     C32665  10.522   6.566   3.835 -0.0235  0.0371 -0.6602
  962MOL0     O32666  10.195   6.591   3.861 -0.0170  0.2388 -0.0796
  962MOL0     C32667  10.158   6.248   3.809  0.1312  0.4392 -0.8600
  962MOL0     C32668  10.080   6.141   3.842  0.8184  0.0815 -0.3145
  962MOL0     N32669   9.493   5.789   3.340  0.4552 -0.1458  0.1092
  962MOL0     N32670   9.392   5.711   3.329 -0.6720  0.6209 -0.9867
  962MOL0     C32671   8.254   5.185   3.707  0.0712  0.1929 -0.1748
  962MOL0     C32672   8.148   5.102   3.690 -0.1070 -0.3231 -0.0027
  962MOL0     C32673   7.817   4.856   3.684 -0.6158  0.7541 -0.1828
  962MOL0     C32674   7.704   4.932   3.652  1.0284  0.5584 -0.3346
  962MOL0     C32675   7.568   4.892   3.689  0.6588  0.1697 -0.2921
  962MOL0     C32676   7.554   4.774   3.756  0.4246  0.9395  0.3888
  962MOL0     O32677   7.436   4.723   3.803 -0.2417 -0.2070  0.7300
  962MOL0     C32678   7.309   4.778   3.748 -0.5174  0.3531 -0.2539
  962MOL0     C32679   7.268   4.733   3.603 -0.0313  0.5913  0.0072
  962MOL0     C32680   7.111   4.736   3.597  0.3485 -0.3481  0.3288
  962MOL0     C32681   7.063   4.599   3.659  0.4593  1.2026 -0.1647
  962MOL0     C32682   6.917   4.574   3.655  0.1216 -0.9371 -0.2010
  962MOL0     C32683   6.802   4.555   3.648  0.2130  0.3393  0.7506
  962MOL0     C32684   7.666   4.694   3.782  0.1014  0.5728  0.6417
  962MOL0     C32685   7.789   4.724   3.744  0.0589 -0.7215 -0.8077
  962MOL0     C32686   7.901   4.617   3.744  0.5677 -0.4691 -0.6549
  962MOL0     H32687   8.091   5.173   3.357  3.1360  1.2618 -1.5768
  962MOL0     H32688   8.278   5.284   3.380 -1.3900 -0.6236 -0.2660
  962MOL0     H32689   8.432   5.440   3.456  2.3867  1.8434 -1.9967
  962MOL0     H32690   8.526   5.296   3.435 -2.9840 -1.9870  0.8580
  962MOL0     H32691   8.650   5.512   3.459 -1.6632  1.3885  1.0358
  962MOL0     H32692   8.594   5.523   3.623  2.8458 -0.4303  1.9996
  962MOL0     H32693   8.701   5.281   3.646 -1.2095  0.1885 -1.0377
  962MOL0     H32694   8.775   5.321   3.498 -1.5654  0.0816 -0.5383
  962MOL0     H32695   8.806   5.483   3.759 -2.5215 -0.2225 -0.2816
  962MOL0     H32696   8.916   5.353   3.710  2.3696  0.7022 -1.0944
  962MOL0     H32697   8.886   5.608   3.546  1.4354  0.4453 -0.8523
  962MOL0     H32698   8.969   5.463   3.497 -0.6218  0.5487 -0.2308
  962MOL0     H32699   9.030   5.623   3.748  1.3303  0.6386  1.6602
  962MOL0     H32700   9.117   5.476   3.699  0.2416  1.2775  0.2985
  962MOL0     H32701   9.217   5.697   3.661 -0.3220  3.3319 -2.0151
  962MOL0     H32702   9.102   5.734   3.535 -1.6287 -0.4083  0.8870
  962MOL0     H32703   9.293   5.488   3.535  0.5816 -1.4716  0.2846
  962MOL0     H32704   9.195   5.534   3.402 -3.1071  2.1882  1.5980
  962MOL0     H32705   9.453   5.678   3.643 -2.0685 -1.9370 -1.3202
  962MOL0     H32706   9.709   5.915   3.433 -1.2849 -0.0855 -0.5061
  962MOL0     H32707   9.749   5.782   3.543  2.0016  2.4528  1.8958
  962MOL0     H32708   9.594   6.034   3.611 -0.1371  0.4072 -2.1117
  962MOL0     H32709   9.599   5.890   3.719  2.3654  2.2632  3.3164
  962MOL0     H32710   9.851   5.890   3.727 -1.0287 -0.6369  0.3797
  962MOL0     H32711   9.828   6.061   3.656  0.1906  0.3414  0.6362
  962MOL0     H32712   9.689   6.124   3.848  0.8691  0.5311 -1.7728
  962MOL0     H32713   9.684   5.966   3.916  1.4236 -1.5889  0.6384
  962MOL0     H32714   9.793   6.299   3.910  0.2611  1.4336 -0.9301
  962MOL0     H32715   9.804   6.527   3.841  0.2917 -0.5613  1.5252
  962MOL0     H32716   9.948   6.593   3.757  2.3491 -2.2721 -0.9126
  962MOL0     H32717   9.928   6.577   3.943 -2.6705  0.1396  0.9151
  962MOL0     H32718  10.397   6.621   3.521  0.0804 -1.4433  0.3300
  962MOL0     H32719  10.601   6.744   3.492  1.9662 -0.1868 -0.3570
  962MOL0     H32720  10.760   6.968   3.621  0.0030 -3.5566 -2.2288
  962MOL0     H32721  10.722   6.934   3.789 -1.0955 -0.2055  0.8644
  962MOL0     H32722  10.955   6.886   3.826  0.9051 -0.7114 -1.3074
  962MOL0     H32723  10.996   6.941   3.668  1.2532  1.0511  0.5592
  962MOL0     H32724  10.847   7.140   3.829 -0.5047  0.4520 -1.9159
  962MOL0     H32725  10.949   7.163   3.690 -0.2252  0.5861 -0.3406
  962MOL0     H32726  11.033   7.096   3.971 -0.9995  0.2866 -0.3774
  962MOL0     H32727  11.070   7.243   3.892 -0.2297  0.3032 -0.8202
  962MOL0     H32728  11.265   7.101   3.921  1.1632  0.2115 -1.4381
  962MOL0     H32729  11.185   6.972   3.826 -2.9324  1.0799 -1.6212
  962MOL0     H32730  11.266   7.255   3.730  3.2437  0.0665  0.4989
  962MOL0     H32731  11.176   7.133   3.632 -1.3708 -0.3477  1.1435
  962MOL0     H32732  11.380   7.051   3.556  2.6801  1.4058 -0.6601
  962MOL0     H32733  11.432   7.015   3.720 -1.3692 -1.1425 -0.0756
  962MOL0     H32734  11.541   7.210   3.746 -0.4849  1.2016  0.1455
  962MOL0     H32735  11.462   7.288   3.607 -1.6006  0.2181  1.3340
  962MOL0     H32736  10.701   6.657   3.908  0.2876 -2.1141 -0.2985
  962MOL0     H32737  10.496   6.523   3.931 -2.0182  1.6997 -0.3564
  962MOL0     H32738  10.264   6.234   3.789  0.8413  1.1736  2.0285
  962MOL0     H32739  10.129   6.046   3.827 -3.5585 -2.8086  1.5310
  962MOL0     H32740   8.297   5.211   3.803 -0.4884  1.1303 -0.1641
  962MOL0     H32741   8.107   5.049   3.775 -1.0682 -3.2461 -2.1371
  962MOL0     H32742   7.716   5.030   3.607 -0.5514  1.6565  1.4476
  962MOL0     H32743   7.487   4.962   3.671 -0.6875 -0.8405  1.5129
  962MOL0     H32744   7.228   4.754   3.818  1.7323 -4.5093  1.0869
  962MOL0     H32745   7.317   4.886   3.764  2.2481  0.0756  0.7351
  962MOL0     H32746   7.315   4.640   3.570  0.6975  0.2924  1.7680
  962MOL0     H32747   7.298   4.810   3.532  1.3693  2.0316  2.0326
  962MOL0     H32748   7.071   4.820   3.656 -1.6314 -0.1872 -1.1391
  962MOL0     H32749   7.086   4.755   3.492  0.4118 -1.0140  0.1912
  962MOL0     H32750   7.102   4.583   3.760 -1.3354  2.5068  0.7880
  962MOL0     H32751   7.114   4.516   3.610  0.1822 -0.0179  1.5242
  962MOL0     H32752   6.697   4.533   3.643  0.7669 -3.5520  2.6472
  962MOL0     H32753   7.657   4.598   3.831 -1.6597  0.0692 -0.5570
  962MOL0     H32754   7.934   4.597   3.642 -0.9245 -1.1332 -1.0379
  962MOL0     H32755   7.982   4.657   3.806  0.2173  1.3265 -1.2969
  962MOL0     H32756   7.868   4.526   3.795  0.4751  1.2752  2.6509
  963MOL0     O32757  10.536   0.947   5.738 -0.6811  0.1199  0.4835
  963MOL0     C32758  10.471   1.050   5.743 -0.1779  0.0023 -0.0281
  963MOL0     O32759  10.507   1.176   5.698  0.0720 -0.2894 -0.4112
  963MOL0     C32760  10.631   1.210   5.656 -0.3145  0.1498  0.6122
  963MOL0     C32761  10.643   1.330   5.587 -0.4317 -0.1667  0.7439
  963MOL0     C32762  10.768   1.377   5.539 -0.8848 -1.1177 -0.2266
  963MOL0     C32763  10.882   1.310   5.565 -0.3568 -0.0081 -0.3501
  963MOL0     O32764  10.998   1.375   5.523 -0.4474  0.8748 -0.1451
  963MOL0     C32765  11.115   1.385   5.600 -1.1376 -0.6643 -0.1467
  963MOL0     C32766  11.098   1.441   5.745  0.1284  0.1820  0.3433
  963MOL0     C32767  11.043   1.580   5.775 -0.0047 -0.0849  0.1293
  963MOL0     C32768  11.054   1.618   5.920  0.1691 -0.8653 -1.6652
  963MOL0     C32769  10.972   1.748   5.939 -0.0406  0.1271 -0.6201
  963MOL0     C32770  10.955   1.785   6.081  1.1335 -0.2373 -0.5451
  963MOL0     C32771  11.088   1.810   6.158  0.3553 -0.4953 -0.3023
  963MOL0     C32772  11.187   1.904   6.081  0.3875 -1.4891 -0.0073
  963MOL0     N32773  11.302   1.954   6.168 -0.0952 -0.4314  0.2158
  963MOL0     C32774  11.407   1.878   6.229 -0.3781 -0.7382 -0.1333
  963MOL0     C32775  11.473   1.968   6.309 -0.4254  0.2393  1.6403
  963MOL0     C32776  11.584   1.942   6.401 -0.1317  0.4496 -0.3934
  963MOL0     C32777  11.711   1.941   6.327  1.1506  0.1095  1.4739
  963MOL0     C32778  11.828   1.994   6.409  0.7643  0.0669 -0.0449
  963MOL0     C32779  11.877   2.124   6.340  0.6232 -0.1210 -0.0473
  963MOL0     O32780  11.975   2.184   6.427  0.4589 -0.2527 -0.1493
  963MOL0     C32781  11.934   2.259   6.535  0.0195  0.6021 -1.2575
  963MOL0     C32782  11.804   2.313   6.559  0.3336  0.7229 -0.0823
  963MOL0     C32783  11.776   2.359   6.689  0.4364  0.5374 -1.2534
  963MOL0     C32784  11.633   2.412   6.719  0.2029 -0.0152  0.2291
  963MOL0     C32785  11.877   2.374   6.785  0.4782 -0.5022  0.2264
  963MOL0     C32786  11.845   2.416   6.916  0.6425 -0.8109 -0.4893
  963MOL0     O32787  11.845   2.550   6.951  0.6142 -0.0019  0.2699
  963MOL0     C32788  11.815   2.572   7.085  0.2129 -0.6819 -0.0125
  963MOL0     C32789  11.887   2.525   7.194  0.2745 -0.1026  0.3885
  963MOL0     C32790  11.853   2.558   7.326  1.5990  0.9864 -0.7542
  963MOL0     C32791  11.734   2.627   7.360 -0.2631  0.8764  1.2674
  963MOL0     O32792  11.691   2.664   7.483  0.1823 -0.4036  0.9156
  963MOL0     C32793  11.782   2.642   7.588 -0.2605 -0.1726  0.5232
  963MOL0     C32794  11.728   2.708   7.719 -0.8065 -0.3884  0.3551
  963MOL0     C32795  11.827   2.669   7.831  0.7612 -0.4250 -0.2151
  963MOL0     C32796  11.925   2.784   7.861  0.1385  0.5606  0.2691
  963MOL0     C32797  11.998   2.733   7.989  0.3197 -0.5530 -1.2947
  963MOL0     C32798  12.059   2.843   8.061 -0.2774  0.1975 -0.1589
  963MOL0     C32799  11.965   2.917   8.157 -0.2778  0.2226  0.5052
  963MOL0     C32800  11.934   2.829   8.284 -0.2384  0.3342  0.2087
  963MOL0    Cl32801  11.821   2.933   8.394 -0.0562 -0.5688 -0.1585
  963MOL0     C32802  11.668   2.670   7.247  0.3648 -0.8246  0.9859
  963MOL0     C32803  11.700   2.648   7.110 -0.3913  0.8177 -0.4211
  963MOL0     O32804  11.826   2.322   6.993  0.0694 -0.1173 -0.3894
  963MOL0     C32805  12.013   2.348   6.747 -0.0449 -0.3215  0.5441
  963MOL0     C32806  12.045   2.284   6.625 -0.0044  0.4861 -0.2078
  963MOL0     N32807  11.412   2.088   6.289  0.0957  0.2458  0.1767
  963MOL0     N32808  11.323   2.076   6.207  0.7276 -0.5969  0.0066
  963MOL0     C32809  10.876   1.187   5.639  0.2379  0.0523  0.4569
  963MOL0     C32810  10.748   1.142   5.682 -0.4647  0.5832  0.1410
  963MOL0     C32811  10.327   1.046   5.787 -0.4423  0.1312  0.4039
  963MOL0     C32812  10.229   1.088   5.700  0.1839 -0.4757 -0.6073
  963MOL0     C32813  10.092   1.086   5.735 -0.8450 -0.3027 -0.5366
  963MOL0     C32814  10.057   1.040   5.865 -0.1713  0.4457  0.8756
  963MOL0     O32815   9.931   1.030   5.924 -0.0210  0.3594  0.1367
  963MOL0     C32816   9.819   1.031   5.845 -0.0427 -0.5029  0.7245
  963MOL0     C32817   9.770   1.175   5.830  0.4759  0.2062  0.2945
  963MOL0     C32818   9.635   1.193   5.756  1.0664 -0.5873  0.2725
  963MOL0     C32819   9.659   1.214   5.606 -0.1450 -0.2809  0.1871
  963MOL0     C32820   9.717   1.095   5.537 -0.0841  0.0830  0.4505
  963MOL0     C32821   9.762   0.996   5.478  0.4174 -0.2904  0.6423
  963MOL0     C32822  10.158   1.000   5.954 -0.7129  0.7790  0.2299
  963MOL0     C32823  10.291   1.000   5.919  0.2655 -0.3653 -0.3973
  963MOL0     C32824  10.390   0.948   6.020  0.3426 -0.2671 -0.4027
  963MOL0     H32825  10.553   1.387   5.566  0.5966  1.5377  0.7895
  963MOL0     H32826  10.767   1.468   5.480 -0.4502 -1.9297 -1.5141
  963MOL0     H32827  11.179   1.456   5.547  0.4417 -1.2610  0.8905
  963MOL0     H32828  11.170   1.291   5.593  0.7522  0.4979 -1.8910
  963MOL0     H32829  11.036   1.371   5.801 -3.6232 -0.9668 -4.4908
  963MOL0     H32830  11.201   1.437   5.782  0.2158  2.9081  0.5480
  963MOL0     H32831  11.090   1.659   5.717 -1.1051  2.5196  2.5107
  963MOL0     H32832  10.935   1.568   5.762  0.2837 -1.2439 -1.3693
  963MOL0     H32833  11.015   1.543   5.989  0.7841 -2.4347 -2.9824
  963MOL0     H32834  11.161   1.626   5.945 -0.2092  0.4854 -0.3101
  963MOL0     H32835  10.873   1.730   5.896 -2.1876  1.9207  3.1160
  963MOL0     H32836  11.029   1.827   5.889  2.5812 -0.2823  1.4482
  963MOL0     H32837  10.902   1.881   6.078  0.3996 -0.6232 -0.1220
  963MOL0     H32838  10.903   1.709   6.139  0.6639  0.3677 -0.1622
  963MOL0     H32839  11.141   1.721   6.192 -0.7982 -0.2710  2.3437
  963MOL0     H32840  11.072   1.855   6.257 -0.2755 -1.2705 -0.0355
  963MOL0     H32841  11.222   1.842   5.997  0.9178  1.0101 -1.7441
  963MOL0     H32842  11.138   1.995   6.047 -0.7768 -0.8715  3.0203
  963MOL0     H32843  11.429   1.774   6.211  3.6384  0.0587 -0.6409
  963MOL0     H32844  11.575   1.845   6.450  1.3937  0.2141 -0.5166
  963MOL0     H32845  11.576   2.015   6.482 -0.3205  1.9117 -1.6829
  963MOL0     H32846  11.719   1.835   6.301 -2.5474 -0.0835  0.6023
  963MOL0     H32847  11.701   1.995   6.233 -1.6131 -0.8678  1.1331
  963MOL0     H32848  11.806   2.011   6.515 -0.2580 -1.4717  0.0098
  963MOL0     H32849  11.908   1.922   6.394 -3.1851 -4.8600  0.1099
  963MOL0     H32850  11.926   2.103   6.245  2.0634  4.2656 -0.4940
  963MOL0     H32851  11.804   2.203   6.323 -0.1633 -0.3240  1.9966
  963MOL0     H32852  11.731   2.308   6.478  2.0079 -1.0258 -1.5842
  963MOL0     H32853  11.586   2.364   6.806  0.3702  0.5397  0.6310
  963MOL0     H32854  11.573   2.405   6.627  1.5590 -0.8682 -0.6174
  963MOL0     H32855  11.646   2.514   6.756  2.9303 -0.3155  0.2918
  963MOL0     H32856  11.961   2.447   7.180 -0.3855 -0.6124 -0.3119
  963MOL0     H32857  11.921   2.508   7.393 -0.1237 -0.4569 -0.0059
  963MOL0     H32858  11.793   2.534   7.603 -0.2605 -0.0072  1.8683
  963MOL0     H32859  11.881   2.684   7.568  0.0792 -0.6687  1.1263
  963MOL0     H32860  11.715   2.816   7.713  0.1889  0.1403  4.7761
  963MOL0     H32861  11.631   2.660   7.740 -0.9636  0.4788  1.6982
  963MOL0     H32862  11.880   2.579   7.799 -0.2738 -0.5882 -1.5487
  963MOL0     H32863  11.764   2.646   7.917 -1.2555 -2.8294 -2.2150
  963MOL0     H32864  11.871   2.875   7.890  1.6113  1.2471  0.9810
  963MOL0     H32865  11.992   2.807   7.778  0.6294  0.7542  0.7093
  963MOL0     H32866  11.933   2.686   8.064  0.2705 -2.2035 -2.3178
  963MOL0     H32867  12.068   2.652   7.968  2.0904  0.3795  0.7243
  963MOL0     H32868  12.097   2.899   7.975 -0.2783  0.7139  0.1736
  963MOL0     H32869  12.150   2.812   8.113  0.0472 -0.7240 -1.2254
  963MOL0     H32870  11.872   2.936   8.101  0.4953  4.4091  0.3305
  963MOL0     H32871  12.015   3.010   8.185 -0.3763  0.0103  1.4083
  963MOL0     H32872  12.025   2.800   8.338 -1.4992  1.3897  3.1001
  963MOL0     H32873  11.885   2.735   8.260  0.3759 -0.4334  1.7905
  963MOL0     H32874  11.572   2.721   7.259 -0.8983 -2.7702 -0.2894
  963MOL0     H32875  11.642   2.675   7.022 -3.9507  1.1147  1.8201
  963MOL0     H32876  12.096   2.386   6.805 -1.0156 -0.7543  2.2681
  963MOL0     H32877  12.151   2.264   6.616 -0.1801 -1.9665  1.9181
  963MOL0     H32878  10.959   1.117   5.648  1.2304  0.6191 -2.8748
  963MOL0     H32879  10.751   1.053   5.744  2.3560 -0.6223 -1.5000
  963MOL0     H32880  10.248   1.135   5.604  1.9360  0.9947  0.4027
  963MOL0     H32881  10.026   1.127   5.659 -2.4099 -2.3883 -0.4145
  963MOL0     H32882   9.836   0.991   5.745  0.4535  3.3623 -0.9104
  963MOL0     H32883   9.744   0.960   5.882 -0.1104 -1.7365 -1.5814
  963MOL0     H32884   9.839   1.237   5.772 -0.3760  1.2755  0.3908
  963MOL0     H32885   9.765   1.224   5.928 -0.9844 -0.0135  0.3563
  963MOL0     H32886   9.566   1.109   5.770 -1.0414  1.0570  0.4294
  963MOL0     H32887   9.596   1.280   5.811  0.1609 -2.3968  2.6692
  963MOL0     H32888   9.735   1.292   5.607 -0.2410  0.0546 -3.5123
  963MOL0     H32889   9.562   1.229   5.557 -0.3287 -0.7454  0.4035
  963MOL0     H32890   9.803   0.912   5.426  1.8505  0.6710  0.1667
  963MOL0     H32891  10.120   0.965   6.050 -2.7369 -1.5682 -1.3078
  963MOL0     H32892  10.397   0.840   6.001  3.6285 -0.1648 -0.3313
  963MOL0     H32893  10.494   0.981   6.026 -0.9646  4.1878  2.3081
  963MOL0     H32894  10.352   0.972   6.119  0.9742  2.3144 -0.7216
  964MOL0     O32895   1.463   9.640   8.964  0.0357  0.5512  0.2526
  964MOL0     C32896   1.356   9.697   8.938  0.2684  0.9092  0.9515
  964MOL0     O32897   1.342   9.829   8.905 -0.2201 -0.0380 -0.3330
  964MOL0     C32898   1.429   9.923   8.929 -0.5860 -0.5077 -0.0329
  964MOL0     C32899   1.526   9.926   9.026 -1.2968  0.5764  0.2244
  964MOL0     C32900   1.608  10.043   9.033 -0.8950  0.7956  0.5806
  964MOL0     C32901   1.603  10.150   8.942 -0.3402 -0.2980 -0.2280
  964MOL0     O32902   1.675  10.266   8.959  0.4569 -0.1423  0.3251
  964MOL0     C32903   1.797  10.270   9.017 -0.1831  1.0644  0.4792
  964MOL0     C32904   1.842  10.412   9.014  0.6342  0.5045 -0.2628
  964MOL0     C32905   1.811  10.489   9.143  0.0531  0.2687 -0.1152
  964MOL0     C32906   1.668  10.536   9.153  0.1792  0.6007  1.3455
  964MOL0     C32907   1.644  10.631   9.266 -0.2606 -0.1823  0.6067
  964MOL0     C32908   1.607  10.567   9.405  0.0578 -1.0523 -0.0630
  964MOL0     C32909   1.570  10.661   9.510 -0.5261 -0.5994  0.2814
  964MOL0     C32910   1.467  10.604   9.597  0.4388 -0.1228  0.2192
  964MOL0     N32911   1.333  10.577   9.546 -0.8316  0.6675  0.6953
  964MOL0     C32912   1.246  10.484   9.601 -0.7268 -0.2816  0.4539
  964MOL0     C32913   1.148  10.475   9.514  0.7330 -0.0922 -0.0150
  964MOL0     C32914   1.031  10.387   9.525 -0.1409 -0.0160  0.4858
  964MOL0     C32915   1.057  10.248   9.479  0.0293  0.2812  0.5017
  964MOL0     C32916   1.157  10.180   9.567 -0.1776  0.7324  0.5230
  964MOL0     C32917   1.178  10.033   9.512 -1.1606  0.0778  0.1338
  964MOL0     O32918   1.244  10.035   9.378  0.4586 -0.7054 -0.8057
  964MOL0     C32919   1.383  10.047   9.390 -0.6691  0.3401 -0.4085
  964MOL0     C32920   1.458   9.925   9.396 -0.8298 -0.3333 -0.5824
  964MOL0     C32921   1.597   9.923   9.395  0.3465  0.1676  0.8300
  964MOL0     C32922   1.662   9.787   9.397  0.3350 -0.3074 -0.6914
  964MOL0     C32923   1.662  10.048   9.405 -0.6601 -0.1894  0.6799
  964MOL0     C32924   1.818  10.054   9.418  0.0091  0.1976 -0.5850
  964MOL0     O32925   1.870   9.945   9.478  0.0812 -0.1055 -0.2474
  964MOL0     C32926   1.998   9.912   9.493  0.3795 -0.8558  0.9866
  964MOL0     C32927   2.105  10.001   9.495 -0.7426 -0.2033  0.3752
  964MOL0     C32928   2.239   9.958   9.516  0.6094  0.2992  0.3965
  964MOL0     C32929   2.263   9.820   9.536  0.2035  0.2722  0.1115
  964MOL0     O32930   2.396   9.770   9.557 -0.0350 -0.2915 -0.2114
  964MOL0     C32931   2.500   9.850   9.588 -0.4052 -0.7860  0.0830
  964MOL0     C32932   2.577   9.784   9.702 -0.5083 -0.4440 -0.1916
  964MOL0     C32933   2.705   9.869   9.731 -0.4568 -0.0782  0.1858
  964MOL0     C32934   2.832   9.827   9.647 -0.8610 -1.1518  0.4354
  964MOL0     C32935   2.962   9.906   9.683 -0.1315 -0.9303 -0.4328
  964MOL0     C32936   3.074   9.830   9.606 -0.2043 -0.5282 -0.2428
  964MOL0     C32937   3.203   9.903   9.628 -0.5152  0.0868  0.7050
  964MOL0     C32938   3.305   9.868   9.522  0.6354 -0.2079 -0.0214
  964MOL0    Cl32939   3.272   9.940   9.356 -0.0956  0.0563 -0.2596
  964MOL0     C32940   2.154   9.731   9.529  0.3508 -0.3500  0.3536
  964MOL0     C32941   2.020   9.774   9.509 -0.2016  0.9532  0.0304
  964MOL0     O32942   1.882  10.147   9.368 -0.2089  0.0920 -0.3777
  964MOL0     C32943   1.592  10.163   9.381 -0.1451 -0.5937 -0.7592
  964MOL0     C32944   1.457  10.170   9.372  1.1912  1.0438  0.3758
  964MOL0     N32945   1.173  10.562   9.409 -0.3221  0.6907  0.0598
  964MOL0     N32946   1.280  10.636   9.435  0.7784 -0.4102  0.0498
  964MOL0     C32947   1.508  10.141   8.840 -0.1998 -0.5986  0.8112
  964MOL0     C32948   1.422  10.036   8.841  0.0802 -0.2545  0.1934
  964MOL0     C32949   1.233   9.620   8.924  0.6275 -0.0195 -0.2361
  964MOL0     C32950   1.111   9.685   8.927 -0.9206 -0.0841 -0.1321
  964MOL0     C32951   0.983   9.621   8.905 -1.3189 -0.0447 -0.4566
  964MOL0     C32952   0.980   9.489   8.871 -0.5118  0.2683 -0.1186
  964MOL0     O32953   0.867   9.416   8.858  0.2363  0.6299 -0.4223
  964MOL0     C32954   0.758   9.493   8.808 -0.4548 -0.3423 -0.3485
  964MOL0     C32955   0.657   9.392   8.745  0.1723  0.8073 -0.2427
  964MOL0     C32956   0.521   9.468   8.726  0.4651  0.9161  0.8585
  964MOL0     C32957   0.435   9.399   8.617  0.1736  0.0107  0.0417
  964MOL0     C32958   0.317   9.489   8.584 -0.1380  0.3236 -0.0805
  964MOL0     C32959   0.211   9.546   8.571  0.2851  0.7784  0.0203
  964MOL0     C32960   1.103   9.422   8.872 -0.1365  0.2249  0.1848
  964MOL0     C32961   1.232   9.481   8.895 -0.3563 -0.6273 -0.4698
  964MOL0     C32962   1.356   9.390   8.878  0.7203 -0.2689  0.4160
  964MOL0     H32963   1.550   9.837   9.084  0.7300  0.0592 -1.3065
  964MOL0     H32964   1.683  10.056   9.110  1.2660  0.6728 -1.4014
  964MOL0     H32965   1.875  10.205   8.974  0.1914  0.8737  1.4161
  964MOL0     H32966   1.776  10.242   9.120 -3.5249  1.6401  0.0474
  964MOL0     H32967   1.951  10.410   9.014  0.6447  1.0313 -0.2576
  964MOL0     H32968   1.800  10.454   8.922  0.2365 -1.4847 -1.0365
  964MOL0     H32969   1.844  10.436   9.233 -0.0033  1.8583  0.8990
  964MOL0     H32970   1.870  10.581   9.147  1.4108 -0.6100  1.1089
  964MOL0     H32971   1.641  10.600   9.069 -0.5766 -1.1253  0.2196
  964MOL0     H32972   1.592  10.458   9.164 -0.7639  1.2011 -0.4785
  964MOL0     H32973   1.551  10.680   9.237  0.1249 -0.9206 -2.1602
  964MOL0     H32974   1.725  10.702   9.284 -2.5129  1.6787  5.2164
  964MOL0     H32975   1.528  10.496   9.382 -0.5073  0.2215 -2.3828
  964MOL0     H32976   1.702  10.521   9.434  1.5938  0.4326 -2.3543
  964MOL0     H32977   1.532  10.755   9.468 -0.0811 -0.3871  0.3552
  964MOL0     H32978   1.652  10.697   9.572  1.3503 -3.4741 -0.3067
  964MOL0     H32979   1.498  10.509   9.641 -3.8159 -0.7261  2.3698
  964MOL0     H32980   1.458  10.672   9.682 -0.3045 -1.0473  0.9018
  964MOL0     H32981   1.251  10.429   9.695  0.0265 -0.8207  0.1041
  964MOL0     H32982   0.962  10.425   9.449  1.4379 -1.2418 -1.6910
  964MOL0     H32983   0.976  10.396   9.619  0.7150 -2.0600  1.2542
  964MOL0     H32984   0.962  10.195   9.474  1.3129 -2.0224 -1.0592
  964MOL0     H32985   1.081  10.248   9.372 -2.3972  3.1323 -0.1910
  964MOL0     H32986   1.248  10.240   9.577 -1.3604  2.5400  1.0203
  964MOL0     H32987   1.110  10.171   9.666  1.3770 -0.7516  1.1689
  964MOL0     H32988   1.243   9.983   9.584  0.7193  0.4187 -1.2312
  964MOL0     H32989   1.082   9.981   9.509 -1.2227  0.2038 -1.8147
  964MOL0     H32990   1.405   9.831   9.389 -2.2271  0.3712  0.0559
  964MOL0     H32991   1.756   9.784   9.341  0.8401  1.8369 -0.0720
  964MOL0     H32992   1.591   9.714   9.356  0.0634 -1.1204  1.1141
  964MOL0     H32993   1.681   9.754   9.500 -4.1810  0.3596  0.5654
  964MOL0     H32994   2.094  10.108   9.488  0.8583 -0.0298  0.1099
  964MOL0     H32995   2.320  10.031   9.513  1.2247 -0.2533  2.1896
  964MOL0     H32996   2.564   9.876   9.503  0.4593 -0.8671  0.6935
  964MOL0     H32997   2.471   9.946   9.632  3.5166  0.1433  1.0847
  964MOL0     H32998   2.517   9.781   9.794  0.4965  3.1656  0.7497
  964MOL0     H32999   2.595   9.682   9.666  1.9070 -0.9822  2.2318
  964MOL0     H33000   2.734   9.827   9.828  0.7932  0.6543  0.1439
  964MOL0     H33001   2.674   9.974   9.735 -0.3140  0.0273 -1.2187
  964MOL0     H33002   2.812   9.845   9.541 -0.2653 -1.1847  0.3157
  964MOL0     H33003   2.847   9.720   9.660  0.2424 -0.8998  1.4037
  964MOL0     H33004   2.945  10.012   9.664  1.1315 -0.3448  1.3782
  964MOL0     H33005   2.980   9.921   9.790  0.8891  5.3221 -1.0628
  964MOL0     H33006   3.051   9.821   9.500  0.5577 -0.1755 -0.4478
  964MOL0     H33007   3.085   9.737   9.663  1.4348  0.6968  1.5882
  964MOL0     H33008   3.242   9.873   9.726  4.4846  0.3783 -0.8953
  964MOL0     H33009   3.190  10.012   9.632  0.2004  0.1435  2.9862
  964MOL0     H33010   3.308   9.759   9.516 -0.3796 -0.4859  2.9127
  964MOL0     H33011   3.403   9.909   9.548  0.1577  0.8658  0.1392
  964MOL0     H33012   2.188   9.629   9.540 -0.3281 -0.6913 -0.6235
  964MOL0     H33013   1.938   9.703   9.492  1.0748 -1.4958  3.0700
  964MOL0     H33014   1.643  10.259   9.375 -0.3915 -0.0616  3.1577
  964MOL0     H33015   1.398  10.259   9.356 -1.9912 -1.0103 -0.0998
  964MOL0     H33016   1.512  10.218   8.764  4.2113  2.2168  3.5060
  964MOL0     H33017   1.345  10.014   8.768  0.5626 -0.4495 -0.2673
  964MOL0     H33018   1.116   9.790   8.953  1.2709 -0.4813  1.3323
  964MOL0     H33019   0.896   9.684   8.921 -1.7350 -1.3801  3.3411
  964MOL0     H33020   0.705   9.552   8.884  1.1719 -0.8779  1.2414
  964MOL0     H33021   0.788   9.565   8.731  2.3957  2.7338  3.2435
  964MOL0     H33022   0.644   9.312   8.818 -2.4306  1.9937  0.7451
  964MOL0     H33023   0.689   9.336   8.657 -2.1883 -0.0539 -0.6153
  964MOL0     H33024   0.474   9.464   8.824 -2.4457  2.9673 -0.2975
  964MOL0     H33025   0.527   9.574   8.698 -0.7121  0.3687 -1.8556
  964MOL0     H33026   0.394   9.306   8.659 -0.4888  1.2727  2.3463
  964MOL0     H33027   0.491   9.382   8.525  1.3749 -1.8454  1.0581
  964MOL0     H33028   0.115   9.595   8.566 -0.0257  0.3605  1.5699
  964MOL0     H33029   1.098   9.317   8.842 -2.7295  0.1229  0.8066
  964MOL0     H33030   1.405   9.425   8.786  0.0492  0.4978  0.3381
  964MOL0     H33031   1.427   9.406   8.960  0.5542  3.5246  0.0305
  964MOL0     H33032   1.339   9.283   8.863  1.8996 -0.2155 -1.9519
  965MOL0     O33033   6.272  11.366   8.362  0.6456  0.3468 -0.9412
  965MOL0     C33034   6.202  11.468   8.375 -1.1548 -0.2084  0.3079
  965MOL0     O33035   6.248  11.597   8.357 -0.1382 -0.4308 -1.0048
  965MOL0     C33036   6.386  11.598   8.333 -0.2411 -0.8639 -0.3732
  965MOL0     C33037   6.435  11.630   8.202 -0.2018 -0.4070  0.5777
  965MOL0     C33038   6.573  11.643   8.173 -0.2832  0.6106  0.0830
  965MOL0     C33039   6.669  11.619   8.264  0.0310 -0.0809 -0.3157
  965MOL0     O33040   6.799  11.642   8.225  0.0633  0.0240 -0.5269
  965MOL0     C33041   6.894  11.678   8.330 -0.6221  0.7578 -0.4148
  965MOL0     C33042   7.027  11.716   8.262  0.1607  0.0564 -1.3071
  965MOL0     C33043   7.124  11.698   8.369 -0.4762  0.2350 -1.0977
  965MOL0     C33044   7.271  11.746   8.338 -0.1030  0.0568  0.5094
  965MOL0     C33045   7.383  11.687   8.420 -0.0198 -0.1548  0.3147
  965MOL0     C33046   7.518  11.756   8.408 -0.1867  0.4828  0.3664
  965MOL0     C33047   7.555  11.830   8.543  0.0904  0.6559 -0.5417
  965MOL0     C33048   7.698  11.872   8.533 -0.3637  0.7765  0.4231
  965MOL0     N33049   7.738  11.982   8.633 -0.4769 -0.0356 -0.9388
  965MOL0     C33050   7.722  12.116   8.600  0.3690  0.5912 -0.2895
  965MOL0     C33051   7.717  12.182   8.711  0.6270  0.0805 -1.1252
  965MOL0     C33052   7.684  12.330   8.727  0.1120 -0.4062  0.0265
  965MOL0     C33053   7.727  12.424   8.621 -0.2146 -0.3575 -0.3233
  965MOL0     C33054   7.883  12.437   8.614 -0.4731 -0.6573 -0.3862
  965MOL0     C33055   7.933  12.547   8.519 -0.6740 -0.0744 -0.8511
  965MOL0     O33056   7.952  12.677   8.580 -0.1690  0.7706 -0.1398
  965MOL0     C33057   8.060  12.704   8.663 -0.4377  0.6483 -0.3157
  965MOL0     C33058   8.170  12.613   8.680 -0.3224  0.0647  0.1504
  965MOL0     C33059   8.271  12.643   8.770 -1.0018  0.2323 -0.2735
  965MOL0     C33060   8.369  12.531   8.786 -0.8649  0.0510  1.6684
  965MOL0     C33061   8.272  12.760   8.846 -0.6750  0.0054 -0.0138
  965MOL0     C33062   8.383  12.796   8.940  0.1246 -1.2224 -1.1203
  965MOL0     O33063   8.338  12.869   9.047 -0.3984 -0.6557  0.3017
  965MOL0     C33064   8.428  12.892   9.150 -0.1244 -0.4578  0.9072
  965MOL0     C33065   8.470  12.783   9.239  0.0053 -0.8895 -0.1422
  965MOL0     C33066   8.573  12.809   9.329 -0.0330 -0.1557  0.5090
  965MOL0     C33067   8.630  12.938   9.340 -0.6630 -0.4137 -0.2467
  965MOL0     O33068   8.723  12.958   9.436 -0.2856  0.1994  0.7575
  965MOL0     C33069   8.844  12.883   9.407 -0.4365 -0.3914 -0.3530
  965MOL0     C33070   8.955  12.934   9.504 -0.3304 -0.4322  0.0442
  965MOL0     C33071   9.088  12.852   9.484 -0.3746  0.3570  0.4790
  965MOL0     C33072   9.181  12.834   9.604  0.3688 -0.6401  0.2072
  965MOL0     C33073   9.267  12.960   9.623 -0.5575  1.0342  0.1310
  965MOL0     C33074   9.354  12.944   9.753 -0.0254  0.7579  0.1523
  965MOL0     C33075   9.459  13.060   9.752  0.3087 -0.4525 -0.0087
  965MOL0     C33076   9.561  13.042   9.866 -0.6805 -0.3233  0.4454
  965MOL0    Cl33077   9.666  12.894   9.835 -0.1466 -0.0581  0.5483
  965MOL0     C33078   8.605  13.036   9.241 -0.2464 -0.6858  0.7151
  965MOL0     C33079   8.497  13.015   9.153 -0.7177  0.3135 -0.5311
  965MOL0     O33080   8.500  12.782   8.908  0.0617 -0.1586  1.1165
  965MOL0     C33081   8.166  12.846   8.826  0.0003  0.1119  0.5222
  965MOL0     C33082   8.066  12.819   8.735 -0.6305  0.0867  0.0930
  965MOL0     N33083   7.739  12.100   8.825 -0.1351 -0.2072  0.7182
  965MOL0     N33084   7.734  11.981   8.774  0.2852  0.5932  0.3874
  965MOL0     C33085   6.626  11.587   8.397 -0.2896 -0.5219  0.2739
  965MOL0     C33086   6.484  11.585   8.426 -0.0144 -0.2653  0.6668
  965MOL0     C33087   6.062  11.457   8.409 -0.7378 -0.1669 -0.2527
  965MOL0     C33088   5.977  11.573   8.410  0.0403 -0.0066 -0.3541
  965MOL0     C33089   5.839  11.562   8.427  0.3300  0.6422 -0.2424
  965MOL0     C33090   5.775  11.443   8.469 -1.1005 -0.2482 -0.0255
  965MOL0     O33091   5.638  11.433   8.483 -0.1626  0.3892  0.3329
  965MOL0     C33092   5.601  11.356   8.599  0.5691  0.2751 -0.5937
  965MOL0     C33093   5.448  11.368   8.618  0.9574  0.5317 -0.1604
  965MOL0     C33094   5.402  11.500   8.670 -0.7320 -0.4023 -0.7489
  965MOL0     C33095   5.253  11.490   8.717  0.0509  0.0743  0.4728
  965MOL0     C33096   5.199  11.620   8.753 -0.0806 -1.9157  0.8676
  965MOL0     C33097   5.163  11.733   8.777 -0.8672  0.2462 -0.3849
  965MOL0     C33098   5.855  11.330   8.466  0.4426  0.6034 -0.6770
  965MOL0     C33099   5.996  11.329   8.446  0.8382  0.1557 -0.0490
  965MOL0     C33100   6.064  11.194   8.435 -0.6097 -0.7142  0.0719
  965MOL0     H33101   6.366  11.641   8.119  2.1415 -2.3219 -1.8237
  965MOL0     H33102   6.617  11.674   8.079  2.8444 -0.5988  1.0040
  965MOL0     H33103   6.912  11.592   8.395  2.0496 -0.2458 -2.2610
  965MOL0     H33104   6.853  11.758   8.392 -1.5110  0.5662 -0.7441
  965MOL0     H33105   7.040  11.644   8.181 -1.3099 -1.8432  0.0722
  965MOL0     H33106   7.020  11.817   8.220 -4.7875  1.9808  3.1375
  965MOL0     H33107   7.109  11.751   8.463  1.4152  0.5866 -0.9608
  965MOL0     H33108   7.128  11.593   8.397  2.3282  0.8132  1.1063
  965MOL0     H33109   7.282  11.732   8.230 -1.1303  1.2100  0.2380
  965MOL0     H33110   7.267  11.853   8.361 -4.8895  0.7099 -2.0369
  965MOL0     H33111   7.396  11.594   8.363 -1.0686 -0.7887  1.0739
  965MOL0     H33112   7.352  11.667   8.523  2.7071 -4.4434  0.5712
  965MOL0     H33113   7.594  11.682   8.382 -0.5285 -0.9634  3.1540
  965MOL0     H33114   7.506  11.826   8.324  2.6968  1.4310  0.6391
  965MOL0     H33115   7.534  11.765   8.629 -0.4725  0.2117 -1.0067
  965MOL0     H33116   7.494  11.918   8.568  0.9180  1.1889 -0.3515
  965MOL0     H33117   7.759  11.781   8.530 -0.8284  0.3365  2.6430
  965MOL0     H33118   7.692  11.917   8.433 -0.4367  0.3947  0.2511
  965MOL0     H33119   7.713  12.150   8.497  0.3868  0.2625 -0.4022
  965MOL0     H33120   7.733  12.359   8.821  1.6656 -3.0816  0.1515
  965MOL0     H33121   7.576  12.342   8.740 -0.2455 -1.8650 -1.3071
  965MOL0     H33122   7.708  12.382   8.522 -0.3416 -0.9151 -0.0654
  965MOL0     H33123   7.682  12.521   8.644 -0.2454 -0.5310  0.3705
  965MOL0     H33124   7.925  12.455   8.713 -0.5191 -1.1484 -0.2711
  965MOL0     H33125   7.929  12.348   8.570  1.1190  1.5624 -3.5735
  965MOL0     H33126   8.025  12.518   8.467 -0.2751  1.3740 -1.0100
  965MOL0     H33127   7.857  12.568   8.444 -1.4955 -0.3041 -0.0982
  965MOL0     H33128   8.156  12.513   8.641 -3.4926  0.3772  0.2054
  965MOL0     H33129   8.355  12.492   8.888  1.5199  0.8524  2.3761
  965MOL0     H33130   8.472  12.568   8.778 -1.3704  1.3757  0.9921
  965MOL0     H33131   8.359  12.454   8.709 -0.5331  2.8894 -1.4142
  965MOL0     H33132   8.423  12.685   9.245 -0.7938 -0.5324 -0.4239
  965MOL0     H33133   8.601  12.731   9.399  2.5007  1.3760  1.3078
  965MOL0     H33134   8.827  12.775   9.400 -0.4994 -0.3735 -0.4643
  965MOL0     H33135   8.875  12.915   9.308 -1.8859  0.9320 -0.4123
  965MOL0     H33136   8.966  13.041   9.483  3.5474 -1.0853 -2.1827
  965MOL0     H33137   8.916  12.917   9.605  0.4785  1.6951  0.7673
  965MOL0     H33138   9.140  12.893   9.396 -2.2479  0.1159 -0.7917
  965MOL0     H33139   9.063  12.750   9.452  2.5377 -0.1358 -0.5882
  965MOL0     H33140   9.244  12.746   9.589  2.4740  1.0183 -1.1443
  965MOL0     H33141   9.123  12.816   9.696 -0.9012  1.4809 -0.1034
  965MOL0     H33142   9.336  12.980   9.541  0.1042  1.0754  0.6901
  965MOL0     H33143   9.203  13.049   9.625 -0.4074  1.1327  1.3430
  965MOL0     H33144   9.423  12.858   9.751  0.8837  1.4797 -0.6970
  965MOL0     H33145   9.298  12.952   9.847 -0.5438  1.1230 -0.1860
  965MOL0     H33146   9.411  13.154   9.781  0.2035 -0.9724  1.5822
  965MOL0     H33147   9.508  13.063   9.654 -2.0824 -2.2096 -1.3553
  965MOL0     H33148   9.518  13.031   9.966 -2.5274 -2.0601 -0.4587
  965MOL0     H33149   9.619  13.134   9.865 -3.3265  1.5084  2.1246
  965MOL0     H33150   8.665  13.126   9.242 -0.4703 -0.5359  1.5331
  965MOL0     H33151   8.486  13.091   9.077 -0.4076 -1.4786 -2.4645
  965MOL0     H33152   8.159  12.940   8.881  0.0865  0.2077  0.3691
  965MOL0     H33153   7.985  12.889   8.716 -1.2359 -0.8288 -0.8742
  965MOL0     H33154   6.699  11.560   8.472 -0.4437  0.0116  0.6132
  965MOL0     H33155   6.457  11.573   8.530  3.3115 -1.4562  1.4849
  965MOL0     H33156   6.015  11.666   8.369  0.8516 -0.1794 -0.0210
  965MOL0     H33157   5.776  11.650   8.423  0.7711  0.9910  0.2987
  965MOL0     H33158   5.613  11.249   8.584  0.9919  0.3098 -0.5134
  965MOL0     H33159   5.656  11.386   8.689 -1.2891  2.2552 -0.0279
  965MOL0     H33160   5.402  11.296   8.687  1.2163  2.2263  1.9063
  965MOL0     H33161   5.407  11.355   8.518  0.9344  1.0721 -0.2235
  965MOL0     H33162   5.470  11.532   8.749 -1.0594  0.6734 -0.8768
  965MOL0     H33163   5.412  11.571   8.587  3.3935 -0.0079 -0.1042
  965MOL0     H33164   5.240  11.427   8.805  0.5814 -0.5356  0.1235
  965MOL0     H33165   5.190  11.443   8.641  1.1354 -1.3368  0.4013
  965MOL0     H33166   5.126  11.831   8.798  1.2697  1.1540 -0.5628
  965MOL0     H33167   5.813  11.232   8.486  1.6838 -0.1587 -1.7137
  965MOL0     H33168   6.015  11.107   8.478  2.7882 -2.1755  1.3849
  965MOL0     H33169   6.090  11.165   8.333  0.4908 -0.4433  0.2557
  965MOL0     H33170   6.153  11.213   8.497 -0.8658 -0.6160  0.4146
  966MOL0     O33171   6.357  10.624   7.045  0.4766  0.7337 -0.2670
  966MOL0     C33172   6.348  10.748   7.043 -0.7698 -0.3102  0.1091
  966MOL0     O33173   6.450  10.843   7.065  0.2502  0.6587 -0.4225
  966MOL0     C33174   6.584  10.798   7.054 -0.7282  0.6223  0.3579
  966MOL0     C33175   6.663  10.796   7.172 -0.2500 -0.0950  1.9330
  966MOL0     C33176   6.795  10.766   7.167 -0.1734 -0.8486 -0.0561
  966MOL0     C33177   6.867  10.727   7.055  1.2318 -0.3092 -0.6996
  966MOL0     O33178   6.998  10.694   7.065  0.3527 -0.2051  0.0083
  966MOL0     C33179   7.074  10.665   6.949  0.4252 -0.2110  0.3147
  966MOL0     C33180   7.211  10.616   6.990  0.2631  0.4285  0.3971
  966MOL0     C33181   7.292  10.558   6.873 -0.0929  0.4660  0.7825
  966MOL0     C33182   7.435  10.512   6.910 -0.7311  0.6608  0.2618
  966MOL0     C33183   7.520  10.466   6.787  1.2025 -0.0970  0.2170
  966MOL0     C33184   7.645  10.397   6.823 -0.2994  0.4641 -0.0145
  966MOL0     C33185   7.736  10.375   6.701  0.2102  0.4188 -0.6361
  966MOL0     C33186   7.687  10.252   6.614 -0.7194 -0.5129  0.3163
  966MOL0     N33187   7.735  10.260   6.478 -0.4796  0.1855  0.8294
  966MOL0     C33188   7.652  10.294   6.371 -0.7279  1.6063  0.2857
  966MOL0     C33189   7.735  10.263   6.263 -0.5339 -0.0151 -0.1004
  966MOL0     C33190   7.710  10.283   6.111 -0.2134  0.0288 -0.2167
  966MOL0     C33191   7.785  10.193   6.018  0.6024 -0.6819 -0.1330
  966MOL0     C33192   7.732  10.054   6.015  0.6601 -0.0802  0.3745
  966MOL0     C33193   7.751   9.974   5.888 -0.9199 -0.2812  0.1178
  966MOL0     O33194   7.709  10.044   5.765  0.2159  0.6039 -0.5369
  966MOL0     C33195   7.586  10.099   5.765  0.4810  0.5269  0.3960
  966MOL0     C33196   7.475  10.045   5.840 -0.3604 -0.9866  0.4902
  966MOL0     C33197   7.354  10.122   5.856  0.0621  0.0617  0.7236
  966MOL0     C33198   7.265  10.056   5.955 -1.1655 -0.8113  0.8385
  966MOL0     C33199   7.341  10.249   5.805 -0.7596 -0.0846 -0.4465
  966MOL0     C33200   7.227  10.342   5.830  0.0317  0.5126  0.2733
  966MOL0     O33201   7.204  10.434   5.726 -0.4019 -0.3293  0.3305
  966MOL0     C33202   7.074  10.472   5.704  0.2422 -0.3162  0.4531
  966MOL0     C33203   7.004  10.569   5.781 -0.4808  0.0200 -0.3479
  966MOL0     C33204   6.869  10.596   5.771  0.6405 -0.2570  0.7053
  966MOL0     C33205   6.798  10.535   5.662 -0.1334  0.2005  0.6146
  966MOL0     O33206   6.670  10.560   5.629  0.9661  0.4226 -0.7185
  966MOL0     C33207   6.612  10.673   5.704 -0.2302  1.0872  0.8673
  966MOL0     C33208   6.456  10.654   5.668 -0.0843 -0.4449  0.2763
  966MOL0     C33209   6.399  10.554   5.766 -0.2667  0.7299  0.5533
  966MOL0     C33210   6.256  10.533   5.718  0.4463  0.5883 -0.3772
  966MOL0     C33211   6.170  10.498   5.836  0.0401 -0.4749  0.2377
  966MOL0     C33212   6.028  10.447   5.800  0.1149  0.9212 -0.2763
  966MOL0     C33213   5.953  10.534   5.682  0.3650  0.2925 -0.1800
  966MOL0     C33214   5.815  10.471   5.663 -0.7113 -0.8425  0.2933
  966MOL0    Cl33215   5.743  10.421   5.813 -0.2479  0.0759  0.0757
  966MOL0     C33216   6.868  10.444   5.586  0.0112 -0.1092 -0.0702
  966MOL0     C33217   7.006  10.417   5.597  0.3444  0.6739  0.0811
  966MOL0     O33218   7.156  10.323   5.931  0.3794 -0.1006  0.6128
  966MOL0     C33219   7.449  10.292   5.726  0.3286 -0.7560 -0.2692
  966MOL0     C33220   7.564  10.216   5.702  0.7775  0.0093  0.0838
  966MOL0     N33221   7.862  10.240   6.309 -0.4824  0.7133 -0.4212
  966MOL0     N33222   7.865  10.227   6.439  0.7536  0.5851  0.4713
  966MOL0     C33223   6.787  10.730   6.938  0.7317 -0.0226  0.0174
  966MOL0     C33224   6.647  10.766   6.931 -0.5327 -0.3863 -0.4897
  966MOL0     C33225   6.207  10.806   7.041  0.2908  0.0938  0.4922
  966MOL0     C33226   6.183  10.909   7.127  0.4860  0.1122 -0.6134
  966MOL0     C33227   6.051  10.957   7.149 -0.5190  0.2651  0.0602
  966MOL0     C33228   5.947  10.921   7.056 -0.4405 -0.0312  0.0643
  966MOL0     O33229   5.825  10.976   7.086 -0.3747 -0.7716 -0.4678
  966MOL0     C33230   5.717  10.939   7.008  1.0672  0.6089 -0.5219
  966MOL0     C33231   5.596  11.013   7.072  0.5519  0.3953 -0.4941
  966MOL0     C33232   5.612  11.169   7.070  0.0996 -0.1328  0.1157
  966MOL0     C33233   5.538  11.223   6.945 -0.2845  0.8004  0.1343
  966MOL0     C33234   5.396  11.228   6.977  0.2253  0.1210 -0.5239
  966MOL0     C33235   5.281  11.237   7.004 -0.1125  0.3670  0.3851
  966MOL0     C33236   5.971  10.824   6.957 -1.0004  0.8731  0.1655
  966MOL0     C33237   6.099  10.762   6.951 -0.4884  1.1956 -0.6153
  966MOL0     C33238   6.131  10.655   6.842  0.1796 -0.4325  0.2344
  966MOL0     H33239   6.621  10.832   7.265 -2.0460  2.2982  0.3134
  966MOL0     H33240   6.859  10.782   7.253  2.7808 -1.4964 -1.9922
  966MOL0     H33241   7.077  10.756   6.888 -0.9515  0.2947  0.9675
  966MOL0     H33242   7.026  10.589   6.886 -0.0112  1.8146 -1.9108
  966MOL0     H33243   7.259  10.706   7.029 -1.4325  1.4560  0.2053
  966MOL0     H33244   7.206  10.540   7.070  0.4465  0.1260  0.1237
  966MOL0     H33245   7.240  10.477   6.821  2.2143  0.3908 -1.6175
  966MOL0     H33246   7.289  10.638   6.798 -0.3164 -1.1384 -0.9934
  966MOL0     H33247   7.476  10.602   6.957 -0.6652  1.2478 -0.8963
  966MOL0     H33248   7.437  10.437   6.989  2.6691  1.0772  0.7098
  966MOL0     H33249   7.541  10.549   6.720  2.0112  0.4990  1.1835
  966MOL0     H33250   7.460  10.396   6.727  0.1445 -1.2926  2.5514
  966MOL0     H33251   7.697  10.468   6.888  0.9927  0.6514 -1.2124
  966MOL0     H33252   7.629  10.299   6.868  0.1178 -1.1281 -3.0443
  966MOL0     H33253   7.837  10.359   6.740  0.5183  2.5491 -0.4459
  966MOL0     H33254   7.742  10.468   6.645  0.4696  1.8226  1.5899
  966MOL0     H33255   7.718  10.162   6.668 -1.2510 -0.1169  1.3034
  966MOL0     H33256   7.578  10.247   6.607 -0.9146  1.5931  1.0639
  966MOL0     H33257   7.550  10.329   6.375 -0.2931  2.8364  1.9065
  966MOL0     H33258   7.732  10.386   6.083  0.0588 -0.2440 -1.0302
  966MOL0     H33259   7.603  10.278   6.088 -0.0859  1.3897 -1.1974
  966MOL0     H33260   7.776  10.249   5.925  1.7431  3.0887  1.7892
  966MOL0     H33261   7.891  10.188   6.046  0.8584 -2.0983 -1.2750
  966MOL0     H33262   7.791  10.001   6.091  1.7532  2.4726  1.4320
  966MOL0     H33263   7.629  10.042   6.049  1.2636 -0.9736  2.0179
  966MOL0     H33264   7.860   9.968   5.881 -0.8932  0.0694  0.1821
  966MOL0     H33265   7.707   9.874   5.883 -3.0881  0.5813  0.7828
  966MOL0     H33266   7.480   9.949   5.891 -3.1175 -0.5446  1.8186
  966MOL0     H33267   7.253  10.116   6.046  2.7361 -2.1450  2.4217
  966MOL0     H33268   7.297   9.958   5.991  1.0975  0.0105  1.2190
  966MOL0     H33269   7.161  10.059   5.922 -1.0061 -2.8721  0.0430
  966MOL0     H33270   7.068  10.614   5.856  0.2027 -2.5913  0.7371
  966MOL0     H33271   6.825  10.658   5.849 -3.1064 -0.5581 -0.9317
  966MOL0     H33272   6.623  10.652   5.811 -0.6436  2.8263  1.2843
  966MOL0     H33273   6.654  10.771   5.680  0.7328  0.2912 -0.8351
  966MOL0     H33274   6.412  10.753   5.680  1.8121  0.5067 -0.1163
  966MOL0     H33275   6.444  10.622   5.564 -0.4237  1.3093 -0.2529
  966MOL0     H33276   6.403  10.592   5.869 -1.2983 -2.2257  1.7926
  966MOL0     H33277   6.453  10.460   5.762 -0.9110  0.3972 -2.0003
  966MOL0     H33278   6.255  10.442   5.657 -0.2942  0.9371 -0.9141
  966MOL0     H33279   6.213  10.622   5.670 -1.9941  0.6291  1.6546
  966MOL0     H33280   6.219  10.438   5.914  1.2715 -0.7423 -0.7084
  966MOL0     H33281   6.149  10.592   5.889 -0.7744 -0.4331 -0.1529
  966MOL0     H33282   5.969  10.450   5.892  0.3927  0.8553 -0.0964
  966MOL0     H33283   6.041  10.344   5.764 -2.6488  0.5948 -0.5515
  966MOL0     H33284   6.007  10.539   5.587  1.6464  1.1150  0.5502
  966MOL0     H33285   5.940  10.640   5.708 -1.6003  0.6909 -2.4608
  966MOL0     H33286   5.829  10.380   5.605 -2.9800 -0.5746 -0.7866
  966MOL0     H33287   5.741  10.535   5.613  0.1090 -1.2497 -1.5100
  966MOL0     H33288   6.808  10.388   5.514 -0.1770  0.8573 -0.6775
  966MOL0     H33289   7.061  10.338   5.549 -1.0388 -1.6000  2.0181
  966MOL0     H33290   7.439  10.392   5.684  0.1631 -0.6413  0.0343
  966MOL0     H33291   7.633  10.264   5.633 -0.2502 -0.2636 -1.1750
  966MOL0     H33292   6.816  10.716   6.834  1.0358  0.7534 -0.0110
  966MOL0     H33293   6.599  10.777   6.834 -1.8934 -0.8255  0.1179
  966MOL0     H33294   6.250  10.955   7.199 -1.1261 -1.3473  1.9897
  966MOL0     H33295   6.026  11.029   7.226 -0.9317  0.6878 -0.4603
  966MOL0     H33296   5.729  10.968   6.903  0.4140 -0.1183 -0.8110
  966MOL0     H33297   5.696  10.832   7.018  0.4971  0.9235  2.8459
  966MOL0     H33298   5.596  10.987   7.178  0.3223 -0.5319 -0.7171
  966MOL0     H33299   5.508  10.985   7.013  1.2415  1.1674 -1.9550
  966MOL0     H33300   5.571  11.211   7.163 -0.2305 -0.6637  0.2172
  966MOL0     H33301   5.715  11.205   7.072 -0.2387  0.8774  2.0086
  966MOL0     H33302   5.554  11.153   6.863 -0.6634 -0.6102  1.2196
  966MOL0     H33303   5.577  11.322   6.920 -0.1334  0.6787 -0.1129
  966MOL0     H33304   5.177  11.233   7.031  0.6287  0.3334  3.5438
  966MOL0     H33305   5.895  10.785   6.890 -0.8395 -0.7401  0.8632
  966MOL0     H33306   6.110  10.552   6.872  0.0328 -0.1191  1.2571
  966MOL0     H33307   6.071  10.683   6.754  1.1063  1.7231  0.2158
  966MOL0     H33308   6.235  10.665   6.810  0.7930  0.9260  2.3932
  967MOL0     O33309   3.149   4.336   7.701  0.1727 -0.3081  0.0557
  967MOL0     C33310   3.046   4.377   7.766 -0.7133  0.0981 -0.5612
  967MOL0     O33311   3.055   4.443   7.889  0.9802  0.3414  0.0260
  967MOL0     C33312   3.167   4.504   7.947  0.2047 -0.0252 -0.5833
  967MOL0     C33313   3.263   4.572   7.868 -0.1698  0.7347 -0.1228
  967MOL0     C33314   3.376   4.640   7.926  0.5468  1.1628 -0.9932
  967MOL0     C33315   3.386   4.638   8.065 -0.5087 -1.6921  0.0136
  967MOL0     O33316   3.481   4.710   8.133  0.0145 -0.2659  0.6175
  967MOL0     C33317   3.581   4.785   8.066 -0.0857  0.5161 -0.3652
  967MOL0     C33318   3.680   4.854   8.158 -0.3257  0.1554  0.7640
  967MOL0     C33319   3.819   4.878   8.104  0.2796  0.3202  0.6177
  967MOL0     C33320   3.908   4.953   8.196  0.1874  0.1641 -0.2727
  967MOL0     C33321   4.049   4.968   8.161 -0.6088  0.3410 -0.0186
  967MOL0     C33322   4.116   5.066   8.265 -1.0979 -1.1312  0.4033
  967MOL0     C33323   4.188   4.996   8.383  0.5027  0.6443  0.0896
  967MOL0     C33324   4.217   5.090   8.500  0.6766 -0.6759 -0.1299
  967MOL0     N33325   4.333   5.168   8.459 -0.1873 -0.6886  0.0830
  967MOL0     C33326   4.457   5.120   8.438  0.7152 -0.7969  0.0704
  967MOL0     C33327   4.533   5.226   8.412  0.6783 -0.6521 -0.1390
  967MOL0     C33328   4.677   5.206   8.364 -0.0915 -0.2853 -0.0146
  967MOL0     C33329   4.714   5.240   8.219 -0.3368  0.4893  0.0635
  967MOL0     C33330   4.643   5.149   8.122  0.2348 -0.9895  0.3107
  967MOL0     C33331   4.506   5.190   8.072 -0.0983  0.2048 -0.0586
  967MOL0     O33332   4.461   5.086   7.982  0.2007 -0.1183 -0.2264
  967MOL0     C33333   4.344   5.104   7.910  0.5447 -0.4100  0.0391
  967MOL0     C33334   4.245   5.194   7.945 -0.0294 -0.3967  0.8319
  967MOL0     C33335   4.130   5.210   7.867  0.0086  0.5785  0.2250
  967MOL0     C33336   4.027   5.317   7.909  0.2630  0.2518  0.1097
  967MOL0     C33337   4.115   5.125   7.752  0.0708 -0.2814 -0.5057
  967MOL0     C33338   3.995   5.117   7.664 -0.3519 -0.6950  0.4190
  967MOL0     O33339   3.986   5.018   7.571 -0.0850  0.0535 -0.6522
  967MOL0     C33340   3.888   5.026   7.474 -0.7568  0.2759  0.2995
  967MOL0     C33341   3.752   5.046   7.495  0.6105 -0.1755  1.2022
  967MOL0     C33342   3.654   5.042   7.395 -0.6678  1.3867 -0.0672
  967MOL0     C33343   3.692   5.024   7.260  0.1489 -0.1516 -0.1000
  967MOL0     O33344   3.601   5.019   7.156 -0.2299  0.7220  0.5329
  967MOL0     C33345   3.465   5.072   7.163 -0.4404  0.0553  0.4858
  967MOL0     C33346   3.368   4.974   7.209  0.4141 -0.0474 -0.0045
  967MOL0     C33347   3.317   4.886   7.094 -0.0116  0.2598  0.7787
  967MOL0     C33348   3.180   4.823   7.115 -0.3470  0.2602 -0.0749
  967MOL0     C33349   3.158   4.721   7.006  0.2385  0.5240 -0.4982
  967MOL0     C33350   3.007   4.684   6.987 -0.1120  0.3610 -0.1504
  967MOL0     C33351   2.926   4.635   7.115  0.3476  0.7603 -0.0147
  967MOL0     C33352   2.992   4.512   7.183  0.2407  0.4668  0.7777
  967MOL0    Cl33353   3.010   4.362   7.080  0.3676 -0.2221  0.0451
  967MOL0     C33354   3.829   4.991   7.240 -0.2253 -0.3453  0.3221
  967MOL0     C33355   3.927   5.002   7.345  0.2032  0.7687 -0.1953
  967MOL0     O33356   3.919   5.213   7.670  0.0862 -0.2429  0.0513
  967MOL0     C33357   4.218   5.045   7.717 -0.5371 -0.0957  0.1655
  967MOL0     C33358   4.329   5.034   7.794 -0.0321 -0.9768 -0.0809
  967MOL0     N33359   4.455   5.341   8.430  0.3698 -0.4551  0.4547
  967MOL0     N33360   4.337   5.303   8.466  0.2504  0.3073  0.2845
  967MOL0     C33361   3.291   4.574   8.145  0.3384 -0.0569 -0.0384
  967MOL0     C33362   3.186   4.508   8.088  0.3530 -0.1273 -0.0083
  967MOL0     C33363   2.909   4.358   7.712  1.1940  0.2395  0.7075
  967MOL0     C33364   2.797   4.377   7.797  0.1496  0.4308 -0.2313
  967MOL0     C33365   2.668   4.353   7.759 -0.4382  0.3444 -0.1836
  967MOL0     C33366   2.645   4.309   7.630 -0.3005 -0.2760  0.4457
  967MOL0     O33367   2.512   4.290   7.605 -0.0806  0.2776  0.5284
  967MOL0     C33368   2.477   4.178   7.511  0.3501 -0.2135 -0.1903
  967MOL0     C33369   2.460   4.040   7.569 -0.0345 -0.4627 -0.8119
  967MOL0     C33370   2.375   4.046   7.694  0.1782  0.8242 -0.9459
  967MOL0     C33371   2.223   4.077   7.668 -0.4257 -1.1031  0.6454
  967MOL0     C33372   2.145   4.056   7.791  0.3049  0.6028 -0.3234
  967MOL0     C33373   2.088   4.038   7.890  0.0593 -0.1240 -0.8049
  967MOL0     C33374   2.750   4.301   7.536  0.9675 -0.8794  0.0521
  967MOL0     C33375   2.885   4.321   7.583 -0.3722 -0.6267  0.2908
  967MOL0     C33376   2.990   4.315   7.471 -0.0060  0.6878 -0.0218
  967MOL0     H33377   3.250   4.576   7.760 -2.1074  0.4859  0.0593
  967MOL0     H33378   3.436   4.693   7.852 -1.9999  1.4641 -2.9733
  967MOL0     H33379   3.539   4.853   7.991 -2.4367 -1.7028 -1.2174
  967MOL0     H33380   3.625   4.709   8.000 -1.2664 -2.6119  2.1688
  967MOL0     H33381   3.639   4.954   8.171 -0.3416  0.1321  0.8902
  967MOL0     H33382   3.702   4.801   8.251  0.6645 -0.6478  0.0967
  967MOL0     H33383   3.867   4.782   8.085 -0.5838 -0.0641  0.3567
  967MOL0     H33384   3.811   4.935   8.010  1.5554 -0.4243  0.0290
  967MOL0     H33385   3.866   5.053   8.210  0.5119  0.1218  1.2332
  967MOL0     H33386   3.904   4.905   8.294  2.2672  1.1235  0.3631
  967MOL0     H33387   4.059   5.004   8.058 -1.1617 -1.0926 -0.6059
  967MOL0     H33388   4.102   4.876   8.188 -1.0734  0.4981  1.5532
  967MOL0     H33389   4.193   5.123   8.214 -1.6111  1.9524  2.7676
  967MOL0     H33390   4.048   5.144   8.302 -0.9048  0.9451 -3.1652
  967MOL0     H33391   4.274   4.942   8.341  0.7460 -0.4295  1.8914
  967MOL0     H33392   4.112   4.931   8.428  0.3786  1.1169  0.5638
  967MOL0     H33393   4.136   5.156   8.533  3.7590  2.9537  0.8945
  967MOL0     H33394   4.247   5.029   8.586  1.1425 -0.0488  0.1568
  967MOL0     H33395   4.504   5.023   8.448  3.0704  0.3060  0.3117
  967MOL0     H33396   4.701   5.104   8.397  2.3439  0.7947  1.8750
  967MOL0     H33397   4.744   5.266   8.426 -0.9791 -0.2033  0.8955
  967MOL0     H33398   4.695   5.346   8.200 -0.5956  0.5483  0.6308
  967MOL0     H33399   4.821   5.222   8.214 -0.4009  0.5021 -3.5030
  967MOL0     H33400   4.702   5.129   8.033  4.9895  0.0945  2.9012
  967MOL0     H33401   4.635   5.047   8.161 -1.4277 -1.6159 -1.5016
  967MOL0     H33402   4.431   5.180   8.152  0.9391  2.3374  1.2490
  967MOL0     H33403   4.492   5.286   8.021  0.1743 -0.5878 -1.7077
  967MOL0     H33404   4.263   5.260   8.030  1.6923  3.4789 -2.2133
  967MOL0     H33405   4.014   5.390   7.829 -4.0873 -1.3019 -0.8757
  967MOL0     H33406   4.051   5.378   7.997 -2.3823  1.2809  0.2036
  967MOL0     H33407   3.934   5.261   7.925 -0.0425  0.8957  0.6371
  967MOL0     H33408   3.719   5.044   7.598  1.1400  1.0188  1.4132
  967MOL0     H33409   3.552   5.054   7.428 -0.8489 -1.0106  0.4671
  967MOL0     H33410   3.471   5.160   7.228  0.2825  1.5741 -1.5332
  967MOL0     H33411   3.445   5.100   7.059  3.5595  0.2848 -0.3924
  967MOL0     H33412   3.398   4.915   7.296  0.8419 -2.8457 -1.9321
  967MOL0     H33413   3.284   5.036   7.243  1.8188  2.5852 -1.0202
  967MOL0     H33414   3.387   4.804   7.078 -0.4096  0.2636 -1.3186
  967MOL0     H33415   3.305   4.946   7.003 -1.8304 -0.2856  0.6345
  967MOL0     H33416   3.106   4.900   7.094 -0.2165  0.7493  1.1696
  967MOL0     H33417   3.159   4.783   7.214 -2.3654 -0.1064 -0.6077
  967MOL0     H33418   3.183   4.756   6.906 -2.0667  2.7984 -0.3544
  967MOL0     H33419   3.221   4.635   7.032  1.3884  2.2277  3.1282
  967MOL0     H33420   2.992   4.610   6.909 -3.0814  0.8964 -0.2140
  967MOL0     H33421   2.964   4.775   6.945 -0.4007 -0.0480 -0.7449
  967MOL0     H33422   2.827   4.614   7.073  0.6610  0.2044 -0.4909
  967MOL0     H33423   2.925   4.721   7.183  0.6331  2.4031 -1.9812
  967MOL0     H33424   2.944   4.479   7.276  1.5951  1.3634  1.8131
  967MOL0     H33425   3.095   4.540   7.206  2.6708 -3.6918 -3.2119
  967MOL0     H33426   3.869   4.975   7.141  0.9090  0.7745  0.5595
  967MOL0     H33427   4.032   4.989   7.321 -0.3229 -1.7982 -1.4673
  967MOL0     H33428   4.223   4.993   7.622 -0.4609 -2.0055  1.1598
  967MOL0     H33429   4.406   4.965   7.760  0.3871 -1.7747  2.3332
  967MOL0     H33430   3.302   4.581   8.253  1.5506  0.9287 -0.2056
  967MOL0     H33431   3.113   4.464   8.156 -1.7207  0.5384 -1.6741
  967MOL0     H33432   2.822   4.382   7.903  1.8745  1.5498 -0.6398
  967MOL0     H33433   2.583   4.365   7.825  0.9727 -1.9070  2.2437
  967MOL0     H33434   2.380   4.213   7.472 -0.2462 -1.5443  0.0384
  967MOL0     H33435   2.551   4.171   7.431 -0.0153  2.1058 -0.8095
  967MOL0     H33436   2.559   4.005   7.600 -1.3109 -1.8728  2.1580
  967MOL0     H33437   2.415   3.977   7.491 -2.1909  0.4212 -0.3422
  967MOL0     H33438   2.378   3.945   7.736  2.7834  1.2251  0.0035
  967MOL0     H33439   2.410   4.113   7.773 -0.7998 -0.4514  0.6351
  967MOL0     H33440   2.181   4.020   7.585 -0.9012  3.9224 -3.0000
  967MOL0     H33441   2.208   4.182   7.641  0.2957 -1.1967 -0.1726
  967MOL0     H33442   2.039   4.024   7.984  0.0755  1.3348 -0.5527
  967MOL0     H33443   2.723   4.267   7.437  0.5027  1.4168 -0.6767
  967MOL0     H33444   3.062   4.233   7.479  2.3076  2.3779 -2.0936
  967MOL0     H33445   2.939   4.291   7.377  1.5742 -1.9115 -0.3129
  967MOL0     H33446   3.047   4.408   7.472 -2.3908  2.2427 -0.6087
  968MOL0     O33447   9.830   6.540   5.245  0.3168 -0.0245  0.3826
  968MOL0     C33448   9.778   6.530   5.134 -1.0813 -0.3561  0.1384
  968MOL0     O33449   9.647   6.559   5.113 -0.9891 -0.0813 -0.1812
  968MOL0     C33450   9.585   6.618   5.221  0.4117 -0.5385 -0.1038
  968MOL0     C33451   9.521   6.539   5.313  0.1167  0.4951  1.2159
  968MOL0     C33452   9.438   6.598   5.412 -0.0404 -0.8519 -0.0440
  968MOL0     C33453   9.426   6.740   5.421 -0.1147 -0.1138 -0.0061
  968MOL0     O33454   9.350   6.797   5.516  0.1424 -0.9472  0.3626
  968MOL0     C33455   9.268   6.904   5.465  0.4961 -0.0233 -0.3876
  968MOL0     C33456   9.125   6.862   5.448  0.7158  0.1010  0.0422
  968MOL0     C33457   9.061   6.844   5.589 -0.6674  0.2951 -0.3315
  968MOL0     C33458   9.044   6.695   5.628 -0.0522 -0.9277 -0.4478
  968MOL0     C33459   8.974   6.682   5.755  0.2941 -0.3535 -0.0298
  968MOL0     C33460   8.961   6.530   5.787 -0.8463  0.1594 -1.2630
  968MOL0     C33461   8.889   6.504   5.917  0.0420 -0.1361 -1.0423
  968MOL0     C33462   8.747   6.448   5.905  0.2065 -0.4359  0.0267
  968MOL0     N33463   8.669   6.436   6.033 -0.7486  0.3964  0.1589
  968MOL0     C33464   8.592   6.534   6.100 -0.1381 -0.0747  0.2123
  968MOL0     C33465   8.548   6.473   6.216  0.8660 -0.0072 -0.0081
  968MOL0     C33466   8.443   6.526   6.316  0.1354 -0.1673  0.3659
  968MOL0     C33467   8.512   6.602   6.436 -0.1510  0.0257 -0.0533
  968MOL0     C33468   8.412   6.678   6.530  0.3235 -0.2087  0.3930
  968MOL0     C33469   8.510   6.739   6.639  0.0854 -0.0599  0.4845
  968MOL0     O33470   8.618   6.810   6.580 -0.8046 -0.3478  0.5445
  968MOL0     C33471   8.720   6.857   6.657 -0.1439 -0.0517  0.2198
  968MOL0     C33472   8.723   6.855   6.798  0.6923 -0.1732 -0.3128
  968MOL0     C33473   8.822   6.904   6.873  0.0092 -1.1181  0.1795
  968MOL0     C33474   8.801   6.897   7.023 -0.1912 -0.0465 -0.4153
  968MOL0     C33475   8.929   6.967   6.801 -1.1182 -0.2573 -0.0081
  968MOL0     C33476   9.044   7.037   6.856  0.2014 -0.0484  0.4876
  968MOL0     O33477   9.160   7.034   6.780 -0.3710 -0.8042 -0.4283
  968MOL0     C33478   9.277   7.097   6.822 -0.6231 -1.0906  0.9411
  968MOL0     C33479   9.311   7.161   6.946  0.7107  0.6659 -0.2510
  968MOL0     C33480   9.434   7.219   6.974 -0.5429  0.2910  0.2024
  968MOL0     C33481   9.533   7.224   6.875  1.3208  0.8216 -0.6640
  968MOL0     O33482   9.648   7.281   6.903 -0.2428  0.6823  0.8320
  968MOL0     C33483   9.712   7.367   6.795  0.0198 -0.7306 -0.1704
  968MOL0     C33484   9.869   7.358   6.788  0.2849 -0.6625 -0.4761
  968MOL0     C33485   9.903   7.493   6.723  0.3972 -0.2785  0.5292
  968MOL0     C33486  10.058   7.480   6.711 -0.2260  0.2307  0.8282
  968MOL0     C33487  10.110   7.425   6.575 -0.5563  0.6261 -0.2726
  968MOL0     C33488  10.258   7.441   6.571  0.5607 -0.1963  0.3794
  968MOL0     C33489  10.315   7.416   6.424 -0.0104 -0.5752 -1.0492
  968MOL0     C33490  10.462   7.448   6.423 -0.1596  0.2972  0.2872
  968MOL0    Cl33491  10.565   7.317   6.503  0.2007 -0.1365  0.2869
  968MOL0     C33492   9.495   7.163   6.753 -0.6273 -0.1314 -0.6631
  968MOL0     C33493   9.377   7.100   6.728 -1.0315 -1.0274 -0.1328
  968MOL0     O33494   9.028   7.095   6.964 -0.2429 -0.5168 -0.0573
  968MOL0     C33495   8.933   6.970   6.664  0.2697  0.1482  0.6514
  968MOL0     C33496   8.826   6.921   6.598 -0.7944  0.1578 -0.0828
  968MOL0     N33497   8.596   6.347   6.213  0.6597  0.0696 -0.2943
  968MOL0     N33498   8.668   6.324   6.112 -0.2472 -0.3700  0.1003
  968MOL0     C33499   9.504   6.815   5.326 -0.3376 -0.5718  0.7275
  968MOL0     C33500   9.583   6.755   5.227  0.1210  0.3347 -0.3538
  968MOL0     C33501   9.854   6.467   5.018  0.3349  0.2652  0.1544
  968MOL0     C33502   9.777   6.414   4.911 -1.2763 -0.2542 -0.2639
  968MOL0     C33503   9.839   6.346   4.810 -0.2314 -0.4488  0.1896
  968MOL0     C33504   9.977   6.338   4.801 -0.5019 -1.2617 -0.2686
  968MOL0     O33505  10.018   6.278   4.693  0.3461 -0.1846 -0.6147
  968MOL0     C33506  10.151   6.224   4.689 -0.1194 -0.2900 -0.6973
  968MOL0     C33507  10.170   6.093   4.775  0.4734 -0.1603  0.1508
  968MOL0     C33508  10.096   5.976   4.705 -0.2189  0.0055  0.4275
  968MOL0     C33509  10.075   5.853   4.802  0.2734  0.3280 -0.2663
  968MOL0     C33510   9.929   5.830   4.815  1.3145  0.4736  0.1266
  968MOL0     C33511   9.810   5.798   4.810 -0.1470  0.1900 -0.1182
  968MOL0     C33512  10.051   6.396   4.904  0.3607 -0.6230  0.2233
  968MOL0     C33513   9.995   6.451   5.016 -0.5359 -0.3336  0.1218
  968MOL0     C33514  10.079   6.515   5.118 -0.1130  0.0555 -0.1935
  968MOL0     H33515   9.537   6.432   5.312  1.2346  0.6486  1.5168
  968MOL0     H33516   9.373   6.542   5.478 -2.4419  0.8308 -0.8436
  968MOL0     H33517   9.291   6.949   5.368 -2.2041  3.0621  0.2052
  968MOL0     H33518   9.278   6.978   5.545  0.3871  0.4826 -0.8313
  968MOL0     H33519   9.080   6.944   5.391 -0.0069 -1.2955 -1.4848
  968MOL0     H33520   9.114   6.772   5.386 -1.0427  0.3578 -0.0860
  968MOL0     H33521   9.113   6.896   5.670 -0.7341 -1.0739  0.6186
  968MOL0     H33522   8.967   6.899   5.601  0.7057  2.3993  1.5000
  968MOL0     H33523   8.993   6.634   5.553 -0.1026 -0.1747 -1.0379
  968MOL0     H33524   9.146   6.658   5.634  1.5584  3.1665  1.8589
  968MOL0     H33525   8.872   6.722   5.750 -2.3386 -6.1951 -0.6560
  968MOL0     H33526   9.035   6.734   5.830 -1.7070  0.5005  1.0781
  968MOL0     H33527   8.908   6.495   5.698  0.2641  0.5735 -2.1162
  968MOL0     H33528   9.063   6.492   5.795  0.5016  3.6727  0.3041
  968MOL0     H33529   8.872   6.603   5.959  0.3990 -0.5096 -0.0028
  968MOL0     H33530   8.940   6.436   5.986  0.8801 -0.1269 -1.6403
  968MOL0     H33531   8.690   6.510   5.835  1.4702 -0.3284 -0.9442
  968MOL0     H33532   8.756   6.351   5.857 -0.7229 -0.1967 -0.6611
  968MOL0     H33533   8.561   6.630   6.060  0.4444 -0.4312 -1.1433
  968MOL0     H33534   8.369   6.450   6.345 -0.7709  1.5582  2.9797
  968MOL0     H33535   8.378   6.593   6.258  0.8697 -1.4193 -2.0268
  968MOL0     H33536   8.562   6.531   6.504  2.0983  2.3084  0.8215
  968MOL0     H33537   8.580   6.672   6.387  2.6669 -3.0258 -0.9290
  968MOL0     H33538   8.367   6.763   6.478  0.7351 -0.3916 -0.2817
  968MOL0     H33539   8.330   6.618   6.570 -0.6368  0.4155 -0.5697
  968MOL0     H33540   8.452   6.808   6.700  2.4190  2.1519  0.3696
  968MOL0     H33541   8.542   6.662   6.711 -1.2055 -0.5274  0.5786
  968MOL0     H33542   8.643   6.805   6.852 -0.4296  2.0170  0.1658
  968MOL0     H33543   8.879   6.929   7.093  0.1283  0.3261 -0.9366
  968MOL0     H33544   8.770   6.795   7.049 -1.8188  0.0544 -1.7934
  968MOL0     H33545   8.717   6.961   7.053  1.4647  1.2764  1.6559
  968MOL0     H33546   9.245   7.162   7.032  0.1290  0.4002 -0.6909
  968MOL0     H33547   9.464   7.260   7.070 -1.4585  2.4239 -0.3664
  968MOL0     H33548   9.665   7.348   6.698  1.1235 -1.9047 -0.5066
  968MOL0     H33549   9.684   7.472   6.806 -0.5870 -0.6127 -2.4394
  968MOL0     H33550   9.910   7.344   6.889  1.7622  0.6644 -0.8610
  968MOL0     H33551   9.907   7.277   6.725  0.5265  0.1199 -1.3539
  968MOL0     H33552   9.869   7.582   6.777 -1.2362  1.1838 -2.6553
  968MOL0     H33553   9.862   7.494   6.622 -1.2300  0.6333  1.1544
  968MOL0     H33554  10.106   7.417   6.786  0.4627 -2.0359 -1.3773
  968MOL0     H33555  10.101   7.579   6.730 -0.7018  0.2594  1.7913
  968MOL0     H33556  10.084   7.319   6.576  1.1623  0.1385 -1.7459
  968MOL0     H33557  10.058   7.474   6.492  1.7672 -0.4864 -2.5305
  968MOL0     H33558  10.288   7.363   6.642 -4.0747 -0.8615  1.9935
  968MOL0     H33559  10.293   7.539   6.603  0.4429  0.1157 -0.4083
  968MOL0     H33560  10.252   7.473   6.356 -2.8274 -2.7126 -0.4084
  968MOL0     H33561  10.313   7.307   6.412  2.7640 -0.6145 -1.9864
  968MOL0     H33562  10.484   7.544   6.471  0.9374  0.3723 -0.3157
  968MOL0     H33563  10.489   7.440   6.317  1.3006  1.8841  0.5063
  968MOL0     H33564   9.574   7.147   6.680  0.3666 -1.5830  0.6671
  968MOL0     H33565   9.357   7.063   6.628  0.2070 -0.5239 -0.5761
  968MOL0     H33566   9.005   7.025   6.605 -0.6084 -0.1920 -0.7791
  968MOL0     H33567   8.804   6.930   6.492 -0.5210  0.1770 -0.1389
  968MOL0     H33568   9.517   6.922   5.319  1.7438 -0.8729 -4.3106
  968MOL0     H33569   9.651   6.812   5.165  0.3935 -0.2232 -0.5644
  968MOL0     H33570   9.669   6.421   4.909 -1.2404  0.7113  0.4355
  968MOL0     H33571   9.792   6.300   4.724  1.6216 -0.5668 -0.8168
  968MOL0     H33572  10.167   6.209   4.582  2.0075  0.0069 -0.4606
  968MOL0     H33573  10.229   6.291   4.728  1.1221 -1.3085 -1.3707
  968MOL0     H33574  10.132   6.109   4.876  0.6064  1.8161 -0.0801
  968MOL0     H33575  10.276   6.068   4.790  0.4966 -0.2370 -0.1281
  968MOL0     H33576  10.003   6.008   4.657  0.4019 -0.4038 -1.1028
  968MOL0     H33577  10.166   5.946   4.626 -0.4524  1.3644 -0.3088
  968MOL0     H33578  10.130   5.879   4.893 -1.4568  0.2707  0.8401
  968MOL0     H33579  10.133   5.766   4.770  1.9498 -1.1966  5.6962
  968MOL0     H33580   9.706   5.784   4.792  0.1468 -1.4589 -0.7270
  968MOL0     H33581  10.159   6.385   4.900  0.6146  1.8593 -1.9490
  968MOL0     H33582  10.046   6.619   5.131  1.7845  0.4194  2.4286
  968MOL0     H33583  10.061   6.461   5.211 -0.5105 -4.2605 -2.5426
  968MOL0     H33584  10.185   6.511   5.094 -0.2077 -0.2329 -0.5734
  969MOL0     O33585   0.617  10.105   1.712  0.9771  0.2284 -1.0306
  969MOL0     C33586   0.594  10.148   1.826  0.5263  0.2181  0.4528
  969MOL0     O33587   0.682  10.189   1.913 -0.1119 -0.1127 -0.3823
  969MOL0     C33588   0.820  10.162   1.904 -0.1799 -1.3814  0.2852
  969MOL0     C33589   0.890  10.191   2.025 -0.3812  0.2156  0.3117
  969MOL0     C33590   1.026  10.172   2.038 -0.0685 -0.1590  0.2049
  969MOL0     C33591   1.101  10.121   1.937 -0.2561 -0.1152 -0.7558
  969MOL0     O33592   1.239  10.112   1.952  0.2193 -0.1264  0.1314
  969MOL0     C33593   1.311  10.129   2.075  0.0587  0.2908 -0.3984
  969MOL0     C33594   1.438  10.051   2.056  0.1151 -0.0342  0.5670
  969MOL0     C33595   1.536  10.113   1.950  0.6097 -0.1653 -0.6648
  969MOL0     C33596   1.643  10.008   1.923 -0.3300 -0.8040 -0.2008
  969MOL0     C33597   1.764   9.979   2.016  0.0436  0.5340  0.4574
  969MOL0     C33598   1.833  10.108   2.057 -0.0936 -0.0292  0.0272
  969MOL0     C33599   1.979  10.082   2.100 -0.0246 -0.4658  0.5478
  969MOL0     C33600   1.983  10.011   2.239 -0.2423  0.1430  0.3141
  969MOL0     N33601   2.104   9.928   2.233  0.5546 -0.3611  0.6797
  969MOL0     C33602   2.109   9.796   2.192 -0.0889 -0.9585  0.0649
  969MOL0     C33603   2.232   9.756   2.217 -0.4328 -0.1653  0.2126
  969MOL0     C33604   2.290   9.622   2.193  0.3436  0.0046  0.6813
  969MOL0     C33605   2.370   9.570   2.310 -0.4334 -0.6230 -0.2698
  969MOL0     C33606   2.413   9.431   2.290  1.2761 -0.0336 -0.3542
  969MOL0     C33607   2.538   9.391   2.376  0.2257  1.1323  0.6736
  969MOL0     O33608   2.640   9.485   2.358 -0.9891 -0.5307  0.3318
  969MOL0     C33609   2.767   9.445   2.382  0.4579  0.7202  0.4516
  969MOL0     C33610   2.800   9.328   2.456 -0.1466  0.5156  0.0717
  969MOL0     C33611   2.933   9.289   2.493  0.1799  0.9295 -0.3114
  969MOL0     C33612   2.951   9.144   2.550 -0.4955  0.5471  0.2314
  969MOL0     C33613   3.039   9.377   2.467 -0.2749 -0.1483  0.1132
  969MOL0     C33614   3.186   9.341   2.504  0.5377  0.4959 -0.6790
  969MOL0     O33615   3.276   9.440   2.462  0.2541  0.4307  0.3514
  969MOL0     C33616   3.405   9.430   2.512 -0.6293 -0.3746  0.0683
  969MOL0     C33617   3.499   9.340   2.452 -0.2395 -0.4535 -1.0073
  969MOL0     C33618   3.631   9.346   2.493  0.0503 -0.3213  0.6221
  969MOL0     C33619   3.670   9.428   2.599  0.5896  0.6829 -0.0640
  969MOL0     O33620   3.804   9.429   2.627  0.1864  0.3118  0.4192
  969MOL0     C33621   3.828   9.438   2.769  0.2203 -0.1321 -0.5249
  969MOL0     C33622   3.966   9.379   2.806 -0.1722  0.3370 -0.5617
  969MOL0     C33623   4.069   9.492   2.785  0.2807  0.3511  0.7480
  969MOL0     C33624   4.211   9.433   2.801 -0.1237 -0.6645  0.0806
  969MOL0     C33625   4.325   9.506   2.742 -0.0026  0.0772  0.5576
  969MOL0     C33626   4.468   9.455   2.763 -0.4963 -0.4242 -0.4122
  969MOL0     C33627   4.578   9.532   2.685 -0.1662 -0.2559 -0.0507
  969MOL0     C33628   4.713   9.449   2.674 -0.5016 -0.0526  0.2281
  969MOL0    Cl33629   4.775   9.422   2.848  0.0744  0.1521  0.0374
  969MOL0     C33630   3.579   9.514   2.648  0.8046  0.4153 -0.4317
  969MOL0     C33631   3.449   9.518   2.617 -0.0063 -1.0252 -0.6693
  969MOL0     O33632   3.218   9.250   2.583 -0.1014 -0.2882 -0.0366
  969MOL0     C33633   3.007   9.494   2.386 -0.3493  0.7055  0.2382
  969MOL0     C33634   2.873   9.523   2.344 -0.3540 -0.5083 -0.3415
  969MOL0     N33635   2.306   9.855   2.279 -0.4305 -0.1258 -0.0501
  969MOL0     N33636   2.232   9.958   2.278  0.1991 -0.1622  0.3852
  969MOL0     C33637   1.038  10.095   1.814  0.4333  0.1822  0.8659
  969MOL0     C33638   0.900  10.121   1.793  0.1678 -0.1296 -0.6881
  969MOL0     C33639   0.450  10.160   1.880 -0.4136 -0.3615 -0.4065
  969MOL0     C33640   0.416  10.231   1.991  0.1261  0.1131  0.0017
  969MOL0     C33641   0.278  10.257   2.034  0.1507  0.0127  0.0665
  969MOL0     C33642   0.172  10.213   1.960  0.1842  0.8364  0.1705
  969MOL0     O33643   0.044  10.235   1.995  0.5985  0.3571 -1.0238
  969MOL0     C33644  -0.052  10.140   1.952 -0.0588 -0.4757  0.3743
  969MOL0     C33645  -0.176  10.148   2.042  0.1182  0.5367 -0.1799
  969MOL0     C33646  -0.250  10.278   2.027  0.3812  0.0223 -0.3179
  969MOL0     C33647  -0.380  10.287   2.106 -0.3480 -0.3691  0.2405
  969MOL0     C33648  -0.437  10.421   2.103 -0.6050 -0.1636 -0.2434
  969MOL0     C33649  -0.469  10.532   2.077 -0.0429 -0.5928  0.3170
  969MOL0     C33650   0.208  10.135   1.850  0.0875 -0.0303 -0.7305
  969MOL0     C33651   0.341  10.106   1.811 -0.9233  0.2089  0.3819
  969MOL0     C33652   0.356  10.005   1.699  0.3736  0.9764 -0.2861
  969MOL0     H33653   0.834  10.225   2.111  2.5125  1.8122  1.6936
  969MOL0     H33654   1.084  10.196   2.127  0.0861 -2.8112  0.8861
  969MOL0     H33655   1.255  10.085   2.157 -0.4645  2.9743  0.8084
  969MOL0     H33656   1.334  10.233   2.103  3.2481 -0.5195  0.4021
  969MOL0     H33657   1.484  10.043   2.155  1.2825 -2.8012 -0.1208
  969MOL0     H33658   1.412   9.948   2.032  2.7515 -0.5580 -0.4073
  969MOL0     H33659   1.491  10.126   1.851  1.1388 -2.6737 -1.3083
  969MOL0     H33660   1.572  10.211   1.986 -1.2382  0.5159 -0.5899
  969MOL0     H33661   1.588   9.919   1.890 -2.9566  1.5202 -2.6933
  969MOL0     H33662   1.696  10.041   1.833  1.1343  0.0119  0.9294
  969MOL0     H33663   1.834   9.919   1.957 -0.5810  2.2602 -2.2416
  969MOL0     H33664   1.718   9.919   2.095 -3.6768 -0.3519 -2.0643
  969MOL0     H33665   1.832  10.167   1.965  1.1859 -1.7793 -1.1779
  969MOL0     H33666   1.775  10.162   2.131  3.1479  2.6015  0.9059
  969MOL0     H33667   2.031  10.176   2.120  2.5258 -1.5638 -0.5442
  969MOL0     H33668   2.032  10.017   2.030  3.9467  0.3467  2.4758
  969MOL0     H33669   1.988  10.090   2.314 -1.9629  0.5446  0.0502
  969MOL0     H33670   1.899   9.943   2.256  0.7087 -1.6932 -1.8381
  969MOL0     H33671   2.029   9.731   2.158 -0.1234 -0.2214 -1.3606
  969MOL0     H33672   2.352   9.612   2.104  0.5437 -2.9025  1.0708
  969MOL0     H33673   2.203   9.556   2.191 -1.4894  2.0689  3.5759
  969MOL0     H33674   2.455   9.638   2.324 -0.1785 -0.2160 -3.2917
  969MOL0     H33675   2.314   9.573   2.404  0.7945 -0.0625  0.4733
  969MOL0     H33676   2.329   9.363   2.305  1.6171 -0.5678 -0.8360
  969MOL0     H33677   2.433   9.415   2.184 -2.1004  1.6214 -1.3991
  969MOL0     H33678   2.497   9.379   2.476 -1.0710 -2.1132 -0.1116
  969MOL0     H33679   2.571   9.293   2.339 -2.1880  1.1889 -2.0070
  969MOL0     H33680   2.718   9.264   2.486 -1.5720  1.3584 -1.8073
  969MOL0     H33681   2.856   9.106   2.590 -0.3110 -0.6703 -0.4427
  969MOL0     H33682   3.019   9.138   2.635  0.1049  0.2133 -0.2653
  969MOL0     H33683   2.990   9.092   2.462  4.1817  4.4803 -0.3913
  969MOL0     H33684   3.465   9.270   2.377  0.2490 -1.4995 -0.2730
  969MOL0     H33685   3.715   9.296   2.445  0.5942  3.1163 -2.4813
  969MOL0     H33686   3.830   9.543   2.798  1.4417  0.0573 -1.2274
  969MOL0     H33687   3.745   9.386   2.819 -1.8663  2.3135 -1.2671
  969MOL0     H33688   3.969   9.355   2.913  6.6132 -0.0589 -0.4267
  969MOL0     H33689   3.996   9.292   2.747  1.6753  0.4401  0.1536
  969MOL0     H33690   4.048   9.570   2.858 -1.4653  0.4540  0.1592
  969MOL0     H33691   4.053   9.535   2.686  1.0212  2.6147  1.5324
  969MOL0     H33692   4.219   9.334   2.756 -1.4927 -2.1310  2.7949
  969MOL0     H33693   4.228   9.426   2.909 -1.1319  1.6113  0.4452
  969MOL0     H33694   4.307   9.509   2.634 -1.4705  1.0772  0.7940
  969MOL0     H33695   4.314   9.612   2.769  0.4309 -0.2185  1.9556
  969MOL0     H33696   4.483   9.350   2.737 -1.2338 -0.1232 -2.1681
  969MOL0     H33697   4.488   9.491   2.864 -0.2318  3.8930 -1.7926
  969MOL0     H33698   4.595   9.631   2.730  1.7172  0.7167 -2.6615
  969MOL0     H33699   4.532   9.551   2.588  0.5243 -1.7310 -0.7004
  969MOL0     H33700   4.792   9.506   2.625  0.4868  0.6209  2.4587
  969MOL0     H33701   4.695   9.360   2.613 -0.0380 -0.0795  0.1213
  969MOL0     H33702   3.620   9.577   2.726  2.7090 -0.1358 -0.9366
  969MOL0     H33703   3.382   9.581   2.675 -0.0040  1.5184 -3.2678
  969MOL0     H33704   3.085   9.553   2.341  1.7839 -1.5369  0.8003
  969MOL0     H33705   2.866   9.608   2.277 -0.8416 -0.7324 -0.5792
  969MOL0     H33706   1.103  10.055   1.736 -1.2706 -0.3294 -0.3614
  969MOL0     H33707   0.876  10.086   1.693  1.8582 -1.9352 -0.5272
  969MOL0     H33708   0.499  10.273   2.048  2.8485 -0.5274 -3.1994
  969MOL0     H33709   0.243  10.306   2.124 -1.1769 -0.3799 -0.2148
  969MOL0     H33710  -0.075  10.166   1.848  1.2554  2.6098  0.7694
  969MOL0     H33711  -0.007  10.040   1.954  2.8624  0.7431  0.2829
  969MOL0     H33712  -0.143  10.134   2.145 -1.4914  2.6513  0.6822
  969MOL0     H33713  -0.247  10.071   2.010  1.2344 -0.0123 -1.4209
  969MOL0     H33714  -0.185  10.355   2.071 -0.6825  2.0041 -2.0438
  969MOL0     H33715  -0.273  10.308   1.924  1.5664  2.9616  0.1578
  969MOL0     H33716  -0.374  10.237   2.204 -1.5204  0.2835  0.6624
  969MOL0     H33717  -0.445  10.218   2.051 -0.8752 -0.3729  0.8560
  969MOL0     H33718  -0.495  10.635   2.065  0.7179 -0.2974  1.1683
  969MOL0     H33719   0.121  10.095   1.799 -1.2568 -0.7761  1.9718
  969MOL0     H33720   0.265   9.944   1.694  0.8214 -1.2471  6.9742
  969MOL0     H33721   0.380  10.055   1.605  1.5385  0.4429 -0.2985
  969MOL0     H33722   0.438   9.934   1.718 -1.1704 -0.2786  2.3349
  970MOL0     O33723   1.881   6.061   0.030 -0.0511  0.1765  0.1038
  970MOL0     C33724   1.868   6.105   0.145 -0.1633 -0.0740  0.6850
  970MOL0     O33725   1.914   6.039   0.262  0.3718 -0.1599  0.3002
  970MOL0     C33726   1.980   5.923   0.251  0.3726 -0.1814  0.5821
  970MOL0     C33727   2.104   5.913   0.317 -0.2128  0.2942 -0.3625
  970MOL0     C33728   2.176   5.790   0.309  0.0609  0.4808 -1.0696
  970MOL0     C33729   2.142   5.692   0.224  0.4921  0.1841 -0.1972
  970MOL0     O33730   2.215   5.575   0.206  0.2315 -0.2181 -0.0743
  970MOL0     C33731   2.191   5.490   0.317  0.0827  0.4392 -0.7944
  970MOL0     C33732   2.263   5.357   0.301 -0.2204  0.0483 -0.2474
  970MOL0     C33733   2.417   5.381   0.301  0.4234  0.6801 -0.0829
  970MOL0     C33734   2.486   5.237   0.323 -0.0760  0.7907 -0.2049
  970MOL0     C33735   2.640   5.263   0.336 -0.9229 -0.1446  0.2047
  970MOL0     C33736   2.710   5.126   0.373  0.4546 -0.6517 -0.6339
  970MOL0     C33737   2.852   5.154   0.411 -0.4116  0.4456 -1.1020
  970MOL0     C33738   2.886   5.099   0.554  0.5253  0.0469 -0.1097
  970MOL0     N33739   3.024   5.148   0.583  0.0909 -0.4348  0.2341
  970MOL0     C33740   3.048   5.275   0.624 -0.0281 -0.4139  0.7054
  970MOL0     C33741   3.184   5.274   0.650 -0.1733 -0.2493  0.5655
  970MOL0     C33742   3.276   5.384   0.701  1.1601 -0.1681  0.0317
  970MOL0     C33743   3.431   5.368   0.672  0.4610  1.0242  0.7322
  970MOL0     C33744   3.507   5.477   0.730  0.4465  0.0852 -0.5781
  970MOL0     C33745   3.664   5.464   0.687 -0.7745 -0.4998  0.4832
  970MOL0     O33746   3.737   5.350   0.738  0.6916  0.6027 -0.0412
  970MOL0     C33747   3.878   5.370   0.746 -0.0223 -0.1418 -0.4834
  970MOL0     C33748   3.947   5.288   0.839  0.0964 -0.1297  0.3152
  970MOL0     C33749   4.091   5.301   0.849 -0.0807  0.6914  0.0283
  970MOL0     C33750   4.146   5.213   0.961  0.4431 -0.8796  0.4979
  970MOL0     C33751   4.164   5.401   0.775  0.3663  0.3922 -0.0801
  970MOL0     C33752   4.309   5.426   0.786  0.3646 -0.1377  0.7870
  970MOL0     O33753   4.371   5.485   0.677 -0.7443  0.5974  0.5003
  970MOL0     C33754   4.497   5.543   0.689  1.2820 -0.2806  0.0595
  970MOL0     C33755   4.565   5.578   0.570 -0.3454  0.5760 -0.3472
  970MOL0     C33756   4.681   5.657   0.573  0.1171  0.1380 -0.1553
  970MOL0     C33757   4.724   5.720   0.691 -0.1324  0.0261 -0.4473
  970MOL0     O33758   4.838   5.792   0.686 -0.1499 -0.4975  0.5572
  970MOL0     C33759   4.896   5.862   0.799 -1.5411  0.0679 -0.7019
  970MOL0     C33760   5.047   5.850   0.787 -0.2057  0.0787  0.2870
  970MOL0     C33761   5.112   5.866   0.928  0.2483 -0.6628 -0.6172
  970MOL0     C33762   5.272   5.850   0.911  0.0076  0.2035  0.7189
  970MOL0     C33763   5.311   5.711   0.914  0.1676  0.0658  0.2989
  970MOL0     C33764   5.472   5.695   0.903  0.6112  0.1600  0.4165
  970MOL0     C33765   5.558   5.764   1.013 -0.4017  0.2914  0.1228
  970MOL0     C33766   5.686   5.694   1.006 -0.5780 -0.5202  0.0099
  970MOL0    Cl33767   5.761   5.735   0.850  0.1643 -0.1679 -0.3683
  970MOL0     C33768   4.637   5.711   0.800 -0.9252 -0.1665 -0.5939
  970MOL0     C33769   4.532   5.622   0.802 -0.2228  0.0628  0.4292
  970MOL0     O33770   4.365   5.402   0.892 -0.4248 -0.4701 -0.0968
  970MOL0     C33771   4.090   5.469   0.680 -0.2217 -0.7485  0.6348
  970MOL0     C33772   3.956   5.441   0.652  0.1289  0.2592  0.1098
  970MOL0     N33773   3.228   5.148   0.637  0.2945 -0.2764 -0.4995
  970MOL0     N33774   3.134   5.069   0.584 -0.4742 -1.2387  0.0772
  970MOL0     C33775   2.021   5.701   0.161  0.0668 -0.2627  0.3025
  970MOL0     C33776   1.936   5.810   0.183  0.3532 -0.4179 -0.5924
  970MOL0     C33777   1.804   6.239   0.169  0.8610  0.3914 -0.5312
  970MOL0     C33778   1.865   6.316   0.268 -1.1932 -0.2422  0.1203
  970MOL0     C33779   1.808   6.444   0.292 -0.5166 -0.2092  0.1169
  970MOL0     C33780   1.704   6.491   0.212  0.4655  0.4395 -0.1812
  970MOL0     O33781   1.635   6.618   0.234  0.7065 -0.1238  0.1104
  970MOL0     C33782   1.686   6.688   0.340  0.9688 -0.5515  0.0769
  970MOL0     C33783   1.638   6.825   0.326 -0.4441  0.1526 -0.1625
  970MOL0     C33784   1.499   6.851   0.384  0.3014  0.2626 -0.7106
  970MOL0     C33785   1.384   6.781   0.300  0.4313 -0.0798 -0.6705
  970MOL0     C33786   1.253   6.839   0.345 -0.0987 -0.0548  0.9404
  970MOL0     C33787   1.146   6.891   0.386  0.4689 -0.1702  0.6759
  970MOL0     C33788   1.645   6.410   0.117  0.3091  0.8591  0.3586
  970MOL0     C33789   1.690   6.282   0.095 -0.0466 -0.1252  0.4171
  970MOL0     C33790   1.613   6.205  -0.008  0.2550  0.2162  0.2514
  970MOL0     H33791   2.132   5.997   0.381 -1.8386  0.8841 -0.3746
  970MOL0     H33792   2.272   5.783   0.360 -0.1139  1.3617 -0.5969
  970MOL0     H33793   2.087   5.475   0.345  0.5311  2.0155  2.2061
  970MOL0     H33794   2.236   5.547   0.400 -4.7567 -1.7090  3.8686
  970MOL0     H33795   2.240   5.301   0.392 -1.1195 -1.1300 -1.1721
  970MOL0     H33796   2.217   5.304   0.218 -2.3386  0.6622  0.4713
  970MOL0     H33797   2.441   5.430   0.206  0.8223 -0.6665 -0.7111
  970MOL0     H33798   2.443   5.445   0.385 -1.4324  1.6918 -0.2221
  970MOL0     H33799   2.446   5.189   0.413  2.6253 -0.6750  0.3193
  970MOL0     H33800   2.465   5.169   0.240 -1.2122  0.0511  0.6540
  970MOL0     H33801   2.656   5.329   0.422  0.4511 -2.7377  2.0975
  970MOL0     H33802   2.687   5.315   0.252 -2.2085 -0.9767 -1.0572
  970MOL0     H33803   2.652   5.075   0.450 -2.6512  0.8670 -1.7739
  970MOL0     H33804   2.717   5.059   0.287 -1.1301 -0.5697 -0.8552
  970MOL0     H33805   2.874   5.261   0.413  3.0911 -0.1421 -1.0918
  970MOL0     H33806   2.918   5.100   0.341 -0.1027  0.6277 -0.9545
  970MOL0     H33807   2.814   5.142   0.624  0.1366 -0.2836 -0.3004
  970MOL0     H33808   2.870   4.991   0.548 -2.6541  0.4700 -1.1475
  970MOL0     H33809   2.982   5.361   0.628  1.3253  0.6472  0.6750
  970MOL0     H33810   3.259   5.378   0.809  0.2453  1.7524  0.0277
  970MOL0     H33811   3.237   5.479   0.665  0.1171 -1.0741 -1.3677
  970MOL0     H33812   3.458   5.271   0.714 -1.1181  0.2839  0.1114
  970MOL0     H33813   3.451   5.359   0.565 -1.8612 -1.3776  0.4102
  970MOL0     H33814   3.458   5.568   0.693 -1.1594 -1.4660 -2.5755
  970MOL0     H33815   3.494   5.485   0.838  0.1486 -0.0836 -0.5986
  970MOL0     H33816   3.687   5.464   0.580  0.8753 -0.3427  0.8036
  970MOL0     H33817   3.717   5.555   0.717  2.2032 -2.0977  0.5091
  970MOL0     H33818   3.892   5.208   0.889 -0.6558  0.2288  0.0826
  970MOL0     H33819   4.242   5.172   0.930  0.2757  0.4738 -2.0521
  970MOL0     H33820   4.076   5.130   0.979  1.7847 -2.2852 -0.4567
  970MOL0     H33821   4.163   5.277   1.048 -2.0108 -0.7095  0.9462
  970MOL0     H33822   4.541   5.519   0.482 -0.7885 -1.7480  1.2394
  970MOL0     H33823   4.719   5.654   0.471 -3.3807 -1.3320 -1.5820
  970MOL0     H33824   4.877   5.968   0.817  1.2172  0.4782  0.2917
  970MOL0     H33825   4.875   5.801   0.887 -2.2976  0.5934 -0.5095
  970MOL0     H33826   5.073   5.751   0.749  1.2142  0.4194  0.3301
  970MOL0     H33827   5.076   5.930   0.718  1.9006 -2.0018 -1.3765
  970MOL0     H33828   5.082   5.782   0.992  2.3532  0.7433  2.4793
  970MOL0     H33829   5.078   5.953   0.984  2.0811 -1.0983  1.3129
  970MOL0     H33830   5.334   5.898   0.987 -0.1031  3.4390 -1.0952
  970MOL0     H33831   5.306   5.888   0.814  0.1266  0.2906  0.7939
  970MOL0     H33832   5.286   5.666   1.011 -3.5395 -0.2714 -0.6724
  970MOL0     H33833   5.266   5.648   0.837 -0.1595 -1.2339  1.5042
  970MOL0     H33834   5.498   5.737   0.806  1.1833  3.8112  1.9739
  970MOL0     H33835   5.488   5.587   0.902  0.7146  0.1749  0.4166
  970MOL0     H33836   5.515   5.768   1.114  2.6539  2.0983  1.5174
  970MOL0     H33837   5.574   5.869   0.986 -1.5818  0.3351 -0.4375
  970MOL0     H33838   5.679   5.587   1.028  2.0449 -0.2731  2.6423
  970MOL0     H33839   5.758   5.734   1.077  2.3871 -0.0013 -3.0032
  970MOL0     H33840   4.661   5.781   0.880  1.8762 -0.2168 -1.2632
  970MOL0     H33841   4.466   5.627   0.888  0.1005  0.5846  0.6518
  970MOL0     H33842   4.132   5.549   0.620 -3.2732 -0.8095 -1.8655
  970MOL0     H33843   3.918   5.498   0.568  2.2156  2.2825  0.4172
  970MOL0     H33844   1.983   5.622   0.097 -0.8383  0.2094  0.2375
  970MOL0     H33845   1.844   5.811   0.125  0.6823 -0.4534 -1.1264
  970MOL0     H33846   1.946   6.280   0.331 -1.0400 -1.1732 -0.5900
  970MOL0     H33847   1.860   6.484   0.379 -1.6983  0.0206  0.7406
  970MOL0     H33848   1.661   6.656   0.442 -1.0468  0.3544 -0.0909
  970MOL0     H33849   1.791   6.717   0.326  0.2792  0.8711 -2.9492
  970MOL0     H33850   1.637   6.850   0.219  0.8344 -0.4224 -0.3300
  970MOL0     H33851   1.710   6.886   0.382 -0.1154 -1.0928  0.8057
  970MOL0     H33852   1.490   6.823   0.489 -0.8427  0.9700 -0.6005
  970MOL0     H33853   1.488   6.960   0.375  3.0666  0.7100  0.2943
  970MOL0     H33854   1.382   6.674   0.319 -2.0835  0.1884  0.9352
  970MOL0     H33855   1.408   6.804   0.195  3.7433  2.1944  0.3905
  970MOL0     H33856   1.062   6.927   0.441 -0.6377 -0.5848 -0.7032
  970MOL0     H33857   1.554   6.445   0.069  1.5347  0.7486 -2.1767
  970MOL0     H33858   1.643   6.226  -0.111  0.1330 -1.8911 -0.2630
  970MOL0     H33859   1.625   6.099   0.016  1.1194  0.2308 -0.0909
  970MOL0     H33860   1.512   6.234   0.022  0.0938 -0.5411  0.4562
  971MOL0     O33861   0.456   0.147   2.730 -0.0021 -1.2397 -0.2271
  971MOL0     C33862   0.439   0.023   2.723 -0.4688  0.0072  0.6662
  971MOL0     O33863   0.523  -0.069   2.667  1.2292 -0.5712  0.3314
  971MOL0     C33864   0.652  -0.047   2.627  0.0374 -0.4464 -0.2790
  971MOL0     C33865   0.721  -0.159   2.596 -0.6771  0.2498  0.0542
  971MOL0     C33866   0.850  -0.146   2.543 -0.0490 -0.8442 -0.4042
  971MOL0     C33867   0.918  -0.023   2.526  0.5977  0.1714  0.5327
  971MOL0     O33868   1.048  -0.018   2.495 -0.1394 -0.3068 -0.0110
  971MOL0     C33869   1.123   0.099   2.525 -0.9752  0.3317 -0.1132
  971MOL0     C33870   1.261   0.069   2.465 -0.8337 -0.3756 -0.9350
  971MOL0     C33871   1.366   0.179   2.508 -0.1742 -0.2387  0.6177
  971MOL0     C33872   1.505   0.155   2.464 -0.3424 -0.0222 -1.0427
  971MOL0     C33873   1.605   0.250   2.530  0.0430  0.2798 -0.2047
  971MOL0     C33874   1.585   0.395   2.483 -0.2648  0.8081  0.9612
  971MOL0     C33875   1.694   0.483   2.545 -0.6213  0.6572  0.1273
  971MOL0     C33876   1.836   0.419   2.533  0.2751 -0.7534 -0.3069
  971MOL0     N33877   1.938   0.525   2.566 -0.0609 -0.6928  0.2196
  971MOL0     C33878   2.068   0.500   2.603 -0.7992 -0.1653  0.2337
  971MOL0     C33879   2.133   0.625   2.607 -0.0269  0.0434 -0.4112
  971MOL0     C33880   2.275   0.658   2.658  0.0200  0.2157  0.0895
  971MOL0     C33881   2.362   0.528   2.668  0.0850 -0.4804 -0.4064
  971MOL0     C33882   2.498   0.554   2.720  0.2338 -0.0273 -0.4386
  971MOL0     C33883   2.591   0.594   2.604 -0.6084  0.1338  0.3806
  971MOL0     O33884   2.706   0.641   2.673 -0.2290 -0.3815 -0.2485
  971MOL0     C33885   2.804   0.699   2.600 -0.2999 -0.9286  0.5384
  971MOL0     C33886   2.799   0.728   2.463 -0.5192 -0.1655  0.0373
  971MOL0     C33887   2.908   0.784   2.388  0.5331 -0.0532  0.1982
  971MOL0     C33888   2.903   0.800   2.244 -0.4202 -0.1449  0.7307
  971MOL0     C33889   3.028   0.818   2.463  0.1396 -0.2680 -1.2284
  971MOL0     C33890   3.150   0.879   2.405 -0.1116  0.2448 -0.2823
  971MOL0     O33891   3.270   0.866   2.475  0.2791 -0.0554 -0.0405
  971MOL0     C33892   3.386   0.861   2.392 -0.2855  1.2458  0.0050
  971MOL0     C33893   3.440   0.739   2.347 -0.3388 -0.1280 -0.3741
  971MOL0     C33894   3.553   0.743   2.271  0.5760  0.4469 -0.9147
  971MOL0     C33895   3.607   0.871   2.235 -0.0303  0.6988  0.9721
  971MOL0     O33896   3.715   0.885   2.155 -0.1560 -0.0507  0.0651
  971MOL0     C33897   3.805   0.774   2.149  0.2308  0.5118 -0.2065
  971MOL0     C33898   3.875   0.744   2.288  0.2334 -0.0233  0.4096
  971MOL0     C33899   3.964   0.859   2.337 -0.0462 -0.0511  0.0094
  971MOL0     C33900   4.036   0.828   2.466  0.1681 -0.0813 -0.3173
  971MOL0     C33901   4.110   0.957   2.518 -0.7849 -0.4032  0.4914
  971MOL0     C33902   4.214   0.918   2.622  0.3438  0.9163  0.2926
  971MOL0     C33903   4.301   1.027   2.683  0.3196  0.1542 -0.4317
  971MOL0     C33904   4.420   0.966   2.751  0.1873 -0.2547 -0.6239
  971MOL0    Cl33905   4.540   0.894   2.633 -0.1042  0.3095 -0.2700
  971MOL0     C33906   3.542   0.987   2.288 -0.2593 -0.1468  0.3750
  971MOL0     C33907   3.446   0.982   2.380  0.0382 -0.0497 -0.7537
  971MOL0     O33908   3.134   0.946   2.300  0.3595  0.8530  0.7391
  971MOL0     C33909   3.034   0.794   2.601 -0.4584 -0.3399 -0.8537
  971MOL0     C33910   2.923   0.743   2.668 -0.3529 -0.0864 -0.2271
  971MOL0     N33911   2.040   0.717   2.565  0.3506 -0.8680  0.0817
  971MOL0     N33912   1.928   0.660   2.539 -0.5093  1.0119  0.1656
  971MOL0     C33913   0.840   0.087   2.554  1.3195  0.3363 -0.5222
  971MOL0     C33914   0.711   0.078   2.605  0.1335  0.0392  0.8613
  971MOL0     C33915   0.311  -0.034   2.772 -0.5029 -0.4382 -0.3005
  971MOL0     C33916   0.313  -0.164   2.817 -0.7611  0.4524 -0.4385
  971MOL0     C33917   0.205  -0.230   2.880 -0.2090  0.4297 -0.0506
  971MOL0     C33918   0.092  -0.151   2.906  0.3476  0.1746 -0.4597
  971MOL0     O33919  -0.026  -0.202   2.965 -0.6614 -0.1556 -0.0138
  971MOL0     C33920  -0.047  -0.345   2.980 -0.7043  0.7869 -0.2939
  971MOL0     C33921   0.007  -0.388   3.119  1.8826 -0.2316 -0.1246
  971MOL0     C33922  -0.045  -0.305   3.227  0.2496 -1.0421 -0.2492
  971MOL0     C33923  -0.036  -0.354   3.377 -0.3006 -0.4040 -0.5624
  971MOL0     C33924  -0.096  -0.259   3.474  0.6516 -0.6311  0.4071
  971MOL0     C33925  -0.146  -0.176   3.548 -0.0766 -0.0732 -0.6469
  971MOL0     C33926   0.087  -0.015   2.860  1.0922  0.2629  0.4055
  971MOL0     C33927   0.196   0.041   2.784 -0.5958 -0.4124 -0.3590
  971MOL0     C33928   0.174   0.184   2.746  0.2084  0.0045  0.8210
  971MOL0     H33929   0.671  -0.255   2.602  0.2089 -0.5843 -3.5670
  971MOL0     H33930   0.909  -0.233   2.517 -0.6761 -1.6436  0.7504
  971MOL0     H33931   1.115   0.139   2.627  0.3697  0.1124  0.0856
  971MOL0     H33932   1.071   0.181   2.474 -1.4681  0.5733  0.7545
  971MOL0     H33933   1.308  -0.019   2.510 -3.2853 -1.1956  0.2039
  971MOL0     H33934   1.261   0.053   2.357  3.5931  0.3741 -1.2497
  971MOL0     H33935   1.331   0.273   2.466  1.2791 -0.6052 -1.5745
  971MOL0     H33936   1.379   0.177   2.617 -0.2116 -1.9495  0.6227
  971MOL0     H33937   1.533   0.056   2.502 -0.1673 -0.6034 -2.6077
  971MOL0     H33938   1.517   0.152   2.355 -3.7158 -2.8920 -1.4989
  971MOL0     H33939   1.704   0.219   2.498  1.1398  2.6808  0.6252
  971MOL0     H33940   1.600   0.241   2.639  2.6500 -1.1658 -0.1416
  971MOL0     H33941   1.608   0.399   2.376  1.1346 -0.5374  1.1828
  971MOL0     H33942   1.488   0.439   2.507 -0.4001  0.3004  1.3740
  971MOL0     H33943   1.671   0.510   2.648  0.1569  0.9532  0.2350
  971MOL0     H33944   1.683   0.579   2.493 -1.6192  0.2850 -0.3747
  971MOL0     H33945   1.852   0.339   2.606  1.4352 -0.9556 -0.7684
  971MOL0     H33946   1.867   0.368   2.441  2.2388  1.9412 -1.2685
  971MOL0     H33947   2.115   0.403   2.613 -0.0436  0.1842  0.1353
  971MOL0     H33948   2.273   0.711   2.753  2.5556 -0.1401  0.4086
  971MOL0     H33949   2.315   0.722   2.579  3.5329 -1.0078  0.7240
  971MOL0     H33950   2.314   0.468   2.747 -0.0253  4.2654  3.6361
  971MOL0     H33951   2.362   0.471   2.575  1.1279 -2.1933  0.5704
  971MOL0     H33952   2.484   0.632   2.796 -1.7997  1.3902 -2.1664
  971MOL0     H33953   2.533   0.462   2.768  1.3131  0.9224  0.6631
  971MOL0     H33954   2.615   0.505   2.545  2.0454  0.0187  1.4824
  971MOL0     H33955   2.543   0.664   2.535 -2.6934  2.8988  4.2973
  971MOL0     H33956   2.719   0.695   2.397 -0.3931 -0.3352 -0.0322
  971MOL0     H33957   2.982   0.752   2.185 -0.2455  1.0332 -0.0332
  971MOL0     H33958   2.910   0.904   2.211  1.1854 -0.2658  0.6056
  971MOL0     H33959   2.803   0.774   2.208 -0.5061 -0.1291  0.9596
  971MOL0     H33960   3.385   0.650   2.373 -3.0644  1.4808 -0.3054
  971MOL0     H33961   3.589   0.649   2.231  2.8715  0.9879 -0.2711
  971MOL0     H33962   3.760   0.682   2.112  1.0019 -0.7383  1.8324
  971MOL0     H33963   3.880   0.791   2.071  2.2460  0.4945  1.6469
  971MOL0     H33964   3.797   0.733   2.364 -1.2391  0.5933 -0.9384
  971MOL0     H33965   3.928   0.649   2.275  0.4840 -0.2584  2.8442
  971MOL0     H33966   3.907   0.952   2.343 -0.4688 -0.1934 -1.4910
  971MOL0     H33967   4.036   0.878   2.257 -1.9456  0.1546 -1.7441
  971MOL0     H33968   4.105   0.743   2.470 -1.2137 -1.2588 -0.6674
  971MOL0     H33969   3.956   0.807   2.537  0.7025  1.9430  0.9772
  971MOL0     H33970   4.156   1.012   2.435  0.7293  1.6355  2.5636
  971MOL0     H33971   4.045   1.033   2.561  0.1302 -0.6415  2.4073
  971MOL0     H33972   4.281   0.846   2.573 -0.1343  0.9572 -0.4439
  971MOL0     H33973   4.174   0.872   2.713 -3.3679 -0.2694 -1.7328
  971MOL0     H33974   4.241   1.082   2.756 -1.9073  0.5417 -2.4010
  971MOL0     H33975   4.340   1.103   2.614  0.6945 -0.8224 -1.3283
  971MOL0     H33976   4.394   0.890   2.825  2.4028  1.0615  1.6550
  971MOL0     H33977   4.476   1.044   2.804 -0.6491 -1.4112  2.0898
  971MOL0     H33978   3.590   1.083   2.276 -0.4451 -0.1413 -0.3662
  971MOL0     H33979   3.401   1.068   2.428 -2.1705 -0.1843 -2.4397
  971MOL0     H33980   3.101   0.840   2.673 -0.2169 -2.4804  0.3757
  971MOL0     H33981   2.908   0.744   2.775  2.2695 -2.2233  0.2654
  971MOL0     H33982   0.870   0.191   2.545 -0.4862  0.8599 -0.9966
  971MOL0     H33983   0.658   0.169   2.630 -1.9824 -1.9007  4.1694
  971MOL0     H33984   0.405  -0.219   2.802  0.3493  2.3470 -0.9207
  971MOL0     H33985   0.211  -0.334   2.911  0.9624  0.4983  0.0170
  971MOL0     H33986  -0.151  -0.370   2.958 -0.6578 -1.4270  1.6340
  971MOL0     H33987   0.008  -0.403   2.906 -0.9376  0.6733 -0.3789
  971MOL0     H33988   0.116  -0.379   3.114  2.0530 -2.3156 -1.3085
  971MOL0     H33989  -0.025  -0.489   3.146 -2.1555  0.7656 -0.5345
  971MOL0     H33990   0.013  -0.213   3.224 -1.2927 -0.0214  0.1650
  971MOL0     H33991  -0.150  -0.286   3.202  0.9976  0.6518 -2.3145
  971MOL0     H33992   0.069  -0.364   3.406 -0.2485 -1.2205 -1.0019
  971MOL0     H33993  -0.088  -0.449   3.370 -1.8545  0.3543  0.2536
  971MOL0     H33994  -0.165  -0.086   3.603  1.3260 -0.7768  1.0812
  971MOL0     H33995  -0.005   0.043   2.862  0.4676 -0.6853 -0.4902
  971MOL0     H33996   0.072   0.221   2.758  0.6453  1.9658 -0.8800
  971MOL0     H33997   0.241   0.247   2.805 -1.2366  0.8822  1.5776
  971MOL0     H33998   0.193   0.196   2.639  2.0209 -1.7072  0.8875
  972MOL0     O33999  11.222   7.213  10.154 -0.3527  0.0118 -0.0921
  972MOL0     C34000  11.184   7.328  10.163  0.1439  0.9789 -0.8000
  972MOL0     O34001  11.263   7.442  10.151 -0.6731  0.1943  0.2227
  972MOL0     C34002  11.398   7.424  10.142 -0.5710 -0.5214 -0.2745
  972MOL0     C34003  11.465   7.497  10.043 -0.1297 -0.6288  0.7085
  972MOL0     C34004  11.605   7.498  10.033 -0.6373  0.0066 -0.0743
  972MOL0     C34005  11.684   7.424  10.117 -0.2181 -0.1410 -0.1854
  972MOL0     O34006  11.817   7.439  10.118  0.2121 -0.3084 -0.1288
  972MOL0     C34007  11.861   7.572  10.146 -0.1828  0.0240  0.7767
  972MOL0     C34008  12.002   7.547  10.209  0.0309  0.3398  0.4614
  972MOL0     C34009  12.068   7.670  10.261  0.0669 -0.4818  0.6313
  972MOL0     C34010  12.210   7.642  10.284 -0.6888  0.2701  0.0145
  972MOL0     C34011  12.305   7.758  10.292  0.8135 -0.7463 -0.1169
  972MOL0     C34012  12.445   7.709  10.294 -0.5589  0.5865  0.0853
  972MOL0     C34013  12.512   7.730  10.152 -0.9355  0.7904  0.1302
  972MOL0     C34014  12.649   7.662  10.138  0.0151 -0.5922  0.3004
  972MOL0     N34015  12.747   7.742  10.204  0.3210 -0.2099  0.3846
  972MOL0     C34016  12.788   7.714  10.329 -0.2679  0.7243 -0.8589
  972MOL0     C34017  12.890   7.798  10.354 -0.3030  0.3639  0.3435
  972MOL0     C34018  12.955   7.805  10.487  0.2865  0.0423  0.1884
  972MOL0     C34019  12.859   7.855  10.596 -0.7834  0.3590 -0.5090
  972MOL0     C34020  12.949   7.915  10.706  0.5364 -0.6318 -0.3350
  972MOL0     C34021  12.897   7.903  10.855 -1.1465  0.3041  0.4810
  972MOL0     O34022  12.928   8.017  10.932 -0.6520 -0.1719 -0.1651
  972MOL0     C34023  13.051   8.018  10.999  0.3941 -0.2446  0.5296
  972MOL0     C34024  13.086   8.135  11.067 -0.1899 -0.7443  0.0241
  972MOL0     C34025  13.216   8.160  11.126  0.6105  0.6398 -0.0185
  972MOL0     C34026  13.229   8.291  11.198 -0.0651 -1.1428  0.7200
  972MOL0     C34027  13.313   8.051  11.131  0.5242 -0.4328 -0.1512
  972MOL0     C34028  13.434   8.053  11.214  0.3155 -0.1553  0.0048
  972MOL0     O34029  13.547   7.993  11.166  0.1026 -0.4051 -0.8121
  972MOL0     C34030  13.666   7.997  11.246  0.0759  0.0484 -1.1325
  972MOL0     C34031  13.663   7.939  11.372 -0.6460 -0.1409  0.6028
  972MOL0     C34032  13.786   7.935  11.445  0.1997  0.0141 -0.0821
  972MOL0     C34033  13.904   7.998  11.387 -0.3680 -0.0620 -0.1691
  972MOL0     O34034  14.027   8.010  11.455  0.8349 -0.5740  0.0098
  972MOL0     C34035  14.154   8.027  11.380  1.3100  1.0021  0.0641
  972MOL0     C34036  14.274   7.978  11.459 -0.0910  0.3542 -0.3196
  972MOL0     C34037  14.390   8.071  11.432  0.2884  0.2340  0.6169
  972MOL0     C34038  14.448   8.053  11.293 -0.2116  0.8173  1.2684
  972MOL0     C34039  14.601   8.075  11.286 -0.2489 -0.7277 -1.0229
  972MOL0     C34040  14.697   7.971  11.321 -0.3387 -0.0848  0.7965
  972MOL0     C34041  14.747   7.971  11.470  0.2982 -0.3964  0.3073
  972MOL0     C34042  14.809   7.835  11.502 -0.2211  0.2256  0.6526
  972MOL0    Cl34043  14.663   7.731  11.526  0.0568  0.0959 -0.3649
  972MOL0     C34044  13.891   8.053  11.265 -0.8130  0.3610 -0.2363
  972MOL0     C34045  13.776   8.052  11.189 -0.1181 -0.3616 -0.5141
  972MOL0     O34046  13.427   8.114  11.321 -0.0337 -0.1960 -0.3667
  972MOL0     C34047  13.278   7.934  11.065  0.2004  0.1425 -0.7094
  972MOL0     C34048  13.145   7.915  11.008 -0.1668  0.2341 -0.2135
  972MOL0     N34049  12.905   7.877  10.242  0.3037 -0.5817  0.3787
  972MOL0     N34050  12.813   7.848  10.156  0.0355  0.2184  0.3434
  972MOL0     C34051  11.611   7.352  10.219 -0.1719  0.2366  0.2798
  972MOL0     C34052  11.473   7.354  10.227  0.6846 -0.1205 -0.0823
  972MOL0     C34053  11.039   7.354  10.194  0.1925  0.0222  0.7085
  972MOL0     C34054  11.004   7.484  10.242 -0.0602  0.1849  0.0522
  972MOL0     C34055  10.876   7.532  10.258 -0.6493 -0.6898  0.2444
  972MOL0     C34056  10.767   7.450  10.249 -0.1057  0.2363 -0.4465
  972MOL0     O34057  10.644   7.493  10.291  0.2822 -0.2251  0.1626
  972MOL0     C34058  10.537   7.405  10.284 -0.4541  0.1812 -0.4959
  972MOL0     C34059  10.413   7.468  10.357 -0.3962 -1.0212  0.5370
  972MOL0     C34060  10.296   7.377  10.342 -0.1659  0.1620 -0.4510
  972MOL0     C34061  10.175   7.432  10.424  0.4077 -0.4006 -0.0479
  972MOL0     C34062  10.057   7.333  10.412 -0.9084  0.7720 -0.1791
  972MOL0     C34063   9.962   7.259  10.381  0.4222 -0.0451  0.0999
  972MOL0     C34064  10.801   7.313  10.217  0.5311  0.5582  0.8151
  972MOL0     C34065  10.928   7.263  10.187  0.3721  0.0275  0.1397
  972MOL0     C34066  10.933   7.114  10.155  0.2375 -1.5147  0.4070
  972MOL0     H34067  11.405   7.564   9.982 -0.8739  0.0940  2.1775
  972MOL0     H34068  11.649   7.568   9.963  1.6911 -0.3932  0.9154
  972MOL0     H34069  11.795   7.636  10.206 -2.4248 -0.6439 -0.8724
  972MOL0     H34070  11.884   7.625  10.053  0.1268 -0.3612  0.6359
  972MOL0     H34071  11.990   7.468  10.284 -0.2641 -2.2758 -2.1652
  972MOL0     H34072  12.061   7.492  10.135 -0.6865  0.3828 -0.1468
  972MOL0     H34073  12.061   7.745  10.182  1.6816 -1.4803 -0.5371
  972MOL0     H34074  12.019   7.708  10.351  2.8214  0.5351  1.8363
  972MOL0     H34075  12.224   7.592  10.380 -1.7715  1.3541  0.7667
  972MOL0     H34076  12.255   7.576  10.208  1.9343 -3.3074  4.1675
  972MOL0     H34077  12.279   7.817  10.379 -0.6273  2.8055 -2.7327
  972MOL0     H34078  12.289   7.817  10.202 -0.8747 -2.3431 -0.9454
  972MOL0     H34079  12.482   7.777  10.372 -2.9787  2.7394 -0.4957
  972MOL0     H34080  12.456   7.608  10.335  1.6119  0.8385  0.2186
  972MOL0     H34081  12.516   7.837  10.131 -1.0526  0.8385  0.3484
  972MOL0     H34082  12.454   7.692  10.067 -1.5753  2.0424 -0.0217
  972MOL0     H34083  12.648   7.556  10.167 -0.7947 -0.6534  0.0854
  972MOL0     H34084  12.673   7.677  10.032  0.1668  0.5588  0.4872
  972MOL0     H34085  12.744   7.635  10.388 -0.4239  0.6821 -1.0334
  972MOL0     H34086  13.042   7.871  10.479  0.1816 -0.0309 -2.3602
  972MOL0     H34087  12.998   7.710  10.519 -0.1502 -0.9878 -2.1212
  972MOL0     H34088  12.783   7.927  10.564 -1.0168  0.1210 -0.4927
  972MOL0     H34089  12.800   7.775  10.644  1.1274  0.5166  2.3708
  972MOL0     H34090  13.047   7.868  10.700  1.0361 -0.0166  2.0025
  972MOL0     H34091  12.965   8.022  10.692 -0.5727 -0.7671 -3.2052
  972MOL0     H34092  12.788   7.890  10.858 -1.0933  0.0039  1.2183
  972MOL0     H34093  12.940   7.814  10.900  0.6395  1.2831  0.7894
  972MOL0     H34094  13.019   8.220  11.067  2.5054  1.5230  1.0454
  972MOL0     H34095  13.325   8.341  11.180 -0.9639  0.4174  0.0995
  972MOL0     H34096  13.224   8.274  11.306  2.4046  2.7134  1.6314
  972MOL0     H34097  13.148   8.362  11.180  2.7418  1.7165 -1.9058
  972MOL0     H34098  13.573   7.906  11.422 -0.0807  0.2881  1.9413
  972MOL0     H34099  13.783   7.893  11.545  1.6604 -0.5899 -0.2642
  972MOL0     H34100  14.146   7.968  11.288  1.6555 -1.5793  1.5894
  972MOL0     H34101  14.174   8.132  11.355 -0.2200  0.8206 -2.1447
  972MOL0     H34102  14.243   7.970  11.563  1.0752  2.1725  0.2111
  972MOL0     H34103  14.293   7.875  11.427  0.0495 -0.7368  2.9250
  972MOL0     H34104  14.474   8.060  11.501  0.5411 -1.6258  0.0856
  972MOL0     H34105  14.353   8.174  11.431 -2.0065 -0.5342 -0.3149
  972MOL0     H34106  14.400   8.115  11.217  1.0186 -0.5782 -0.7340
  972MOL0     H34107  14.431   7.948  11.268  2.3400  0.6188 -0.0011
  972MOL0     H34108  14.623   8.101  11.183  0.9154  2.3885 -0.1055
  972MOL0     H34109  14.631   8.168  11.336  0.7899 -0.9915 -1.1279
  972MOL0     H34110  14.785   8.003  11.265  1.5306 -1.2011  2.8877
  972MOL0     H34111  14.671   7.872  11.283 -1.5297  0.8704 -1.0058
  972MOL0     H34112  14.664   7.991  11.538 -0.3027 -0.4598 -0.3871
  972MOL0     H34113  14.813   8.057  11.484 -2.0886  1.4336  1.1410
  972MOL0     H34114  14.865   7.840  11.596 -2.0832 -2.2103  2.0047
  972MOL0     H34115  14.872   7.792  11.424  0.1174  1.7301  0.0562
  972MOL0     H34116  13.969   8.113  11.220  0.0886 -0.0105  0.7880
  972MOL0     H34117  13.784   8.096  11.090 -0.7791 -0.1945 -0.5037
  972MOL0     H34118  13.328   7.839  11.076 -1.9315 -1.3438 -2.7677
  972MOL0     H34119  13.125   7.819  10.961  1.0187 -0.7805  1.2566
  972MOL0     H34120  11.669   7.281  10.279 -1.4717 -1.1238 -0.0165
  972MOL0     H34121  11.428   7.293  10.304  1.0682  0.1693  0.3783
  972MOL0     H34122  11.076   7.560  10.270 -1.3702  0.1586  4.1671
  972MOL0     H34123  10.859   7.636  10.287 -0.0228 -0.7149  0.7284
  972MOL0     H34124  10.511   7.379  10.181  2.9029 -0.2728 -1.3569
  972MOL0     H34125  10.553   7.310  10.336  0.2126 -0.2845 -1.5318
  972MOL0     H34126  10.389   7.562  10.307 -0.4128 -1.3324 -0.0635
  972MOL0     H34127  10.441   7.487  10.461  0.1675 -0.8708  0.3636
  972MOL0     H34128  10.278   7.367  10.234  2.2391  2.3360 -1.1461
  972MOL0     H34129  10.324   7.278  10.380  0.9374 -0.3674 -2.4936
  972MOL0     H34130  10.151   7.533  10.390  1.2611 -0.0259  0.4292
  972MOL0     H34131  10.190   7.427  10.532  0.4188 -2.3807 -0.1053
  972MOL0     H34132   9.880   7.191  10.365  1.6079 -1.6302  0.4489
  972MOL0     H34133  10.728   7.234  10.204  1.7746 -0.6186  0.7756
  972MOL0     H34134  10.988   7.087  10.065  0.5647 -0.6677  0.3412
  972MOL0     H34135  10.972   7.049  10.233  3.6795 -1.6156 -1.2467
  972MOL0     H34136  10.832   7.080  10.129  0.1567 -0.2404 -1.0956
  973MOL0     O34137   4.518   6.041   5.295 -0.3100 -0.1065  0.5228
  973MOL0     C34138   4.479   6.039   5.407 -0.3663 -0.4541  0.1267
  973MOL0     O34139   4.543   5.978   5.517  0.4780  0.0166  0.2927
  973MOL0     C34140   4.669   5.936   5.492  0.5616 -0.4301 -0.7727
  973MOL0     C34141   4.706   5.828   5.421  0.0726  0.5703 -0.2814
  973MOL0     C34142   4.836   5.802   5.394  0.1836 -0.0751  0.0482
  973MOL0     C34143   4.936   5.884   5.446  0.2321  0.8204  0.3364
  973MOL0     O34144   5.070   5.873   5.416 -0.0028 -0.1309  0.2444
  973MOL0     C34145   5.127   5.779   5.323  0.7419  0.2038 -0.0067
  973MOL0     C34146   5.272   5.800   5.303 -0.0310 -0.5060  0.3111
  973MOL0     C34147   5.305   5.921   5.209  0.4980 -0.3082  0.3628
  973MOL0     C34148   5.317   6.053   5.287 -0.3147  0.3422 -0.2064
  973MOL0     C34149   5.332   6.173   5.194 -0.5533 -1.0782 -0.6793
  973MOL0     C34150   5.366   6.298   5.278 -0.6068 -0.1814  0.1921
  973MOL0     C34151   5.245   6.361   5.353  0.0873 -0.2651  0.5471
  973MOL0     C34152   5.281   6.506   5.398 -0.3864 -0.8459 -0.1414
  973MOL0     N34153   5.303   6.598   5.281  0.2071  0.3337  0.0053
  973MOL0     C34154   5.365   6.721   5.288  0.1694 -0.1016 -0.4548
  973MOL0     C34155   5.354   6.769   5.161  0.2226 -0.1985 -0.4673
  973MOL0     C34156   5.410   6.896   5.114  0.0132 -0.4787 -0.4831
  973MOL0     C34157   5.541   6.866   5.039 -0.5574  0.2102  1.0591
  973MOL0     C34158   5.648   6.830   5.146 -0.0204  0.1919 -0.1970
  973MOL0     C34159   5.793   6.822   5.094 -0.7068  0.6605  0.2056
  973MOL0     O34160   5.836   6.959   5.068  0.4425 -0.5873 -0.4586
  973MOL0     C34161   5.967   6.970   5.033 -0.1799 -0.7254 -0.2816
  973MOL0     C34162   6.037   6.884   4.947  0.2173  0.1896  0.4826
  973MOL0     C34163   6.177   6.888   4.926 -0.0303 -0.7928  1.1366
  973MOL0     C34164   6.237   6.770   4.851 -0.1356  0.7735 -0.2612
  973MOL0     C34165   6.252   6.993   4.977 -0.6534 -0.1525 -0.3052
  973MOL0     C34166   6.400   7.015   4.954 -0.1353  0.4254 -0.1590
  973MOL0     O34167   6.458   7.098   5.052  0.4339  0.4546 -0.6771
  973MOL0     C34168   6.597   7.102   5.056  0.6763 -0.2969  1.2305
  973MOL0     C34169   6.676   7.134   4.948 -0.0417 -0.6391 -0.0079
  973MOL0     C34170   6.818   7.134   4.954  0.2060 -0.0252 -0.0360
  973MOL0     C34171   6.883   7.096   5.077  0.7851  0.2151  1.0216
  973MOL0     O34172   7.020   7.097   5.076  0.3859 -0.2105 -0.4210
  973MOL0     C34173   7.080   7.058   5.200  0.5401  0.1553  0.4820
  973MOL0     C34174   7.236   7.077   5.173  0.2473  0.7164 -0.3514
  973MOL0     C34175   7.325   7.028   5.287  1.1990 -0.2996  0.1567
  973MOL0     C34176   7.314   7.127   5.402  0.1629 -0.5208 -0.8046
  973MOL0     C34177   7.428   7.226   5.410  0.8423  0.1055 -0.6871
  973MOL0     C34178   7.397   7.352   5.333 -0.2198 -0.3121 -0.1985
  973MOL0     C34179   7.525   7.443   5.338  0.3540 -0.2159 -0.3043
  973MOL0     C34180   7.525   7.554   5.229 -0.1778  1.0152  0.1222
  973MOL0    Cl34181   7.629   7.686   5.278 -0.3812  0.4295 -0.4896
  973MOL0     C34182   6.799   7.074   5.192  0.0178  0.0074  0.2366
  973MOL0     C34183   6.663   7.088   5.178 -0.4105 -1.1516  0.4223
  973MOL0     O34184   6.463   6.964   4.857  1.0707 -0.0106  0.3040
  973MOL0     C34185   6.183   7.073   5.067 -0.4882 -0.9403  1.2163
  973MOL0     C34186   6.047   7.075   5.095  0.7116 -0.0025  0.1135
  973MOL0     N34187   5.293   6.674   5.088  0.2814 -0.2825 -0.3494
  973MOL0     N34188   5.262   6.574   5.153 -0.3935 -0.6679 -0.7570
  973MOL0     C34189   4.897   5.994   5.533 -0.5407  0.5108  0.6838
  973MOL0     C34190   4.766   6.013   5.556 -0.1137  0.1002 -0.4543
  973MOL0     C34191   4.348   6.105   5.441  0.3915 -0.2104  0.0453
  973MOL0     C34192   4.283   6.058   5.559 -0.3863  0.9043  0.4635
  973MOL0     C34193   4.157   6.094   5.598  0.3048  0.2324  0.8823
  973MOL0     C34194   4.088   6.194   5.527 -0.2549 -0.6436  0.1365
  973MOL0     O34195   3.965   6.236   5.574  0.3029 -0.3045 -0.1353
  973MOL0     C34196   3.886   6.307   5.487  0.1561  0.7254 -0.2309
  973MOL0     C34197   3.732   6.312   5.517  0.1784 -0.1535 -0.0868
  973MOL0     C34198   3.707   6.405   5.636 -0.0956 -0.2754 -0.6416
  973MOL0     C34199   3.562   6.426   5.648  0.7480  0.7616 -0.5049
  973MOL0     C34200   3.512   6.531   5.552 -0.6013  0.0016 -0.4136
  973MOL0     C34201   3.489   6.622   5.472  0.2225 -0.2061  0.0746
  973MOL0     C34202   4.144   6.240   5.407  0.0452 -0.3164  0.3584
  973MOL0     C34203   4.275   6.196   5.363 -0.2408 -0.2331  0.5398
  973MOL0     C34204   4.340   6.259   5.250 -0.0131 -0.4882 -0.3664
  973MOL0     H34205   4.634   5.760   5.376 -0.6280  1.2149 -0.1718
  973MOL0     H34206   4.874   5.722   5.331  3.1720  1.4499 -0.2311
  973MOL0     H34207   5.072   5.782   5.228  0.8629  1.1323 -0.0589
  973MOL0     H34208   5.114   5.681   5.369  0.5855  0.6832  1.0028
  973MOL0     H34209   5.324   5.803   5.399  0.0760 -0.2225  0.2461
  973MOL0     H34210   5.315   5.719   5.243  0.2193  2.1557 -3.4751
  973MOL0     H34211   5.392   5.897   5.147 -0.8046 -3.4711 -0.4630
  973MOL0     H34212   5.230   5.937   5.130  1.5781 -1.1737 -0.8846
  973MOL0     H34213   5.228   6.069   5.349 -0.7700  0.3950 -0.8634
  973MOL0     H34214   5.408   6.041   5.346 -0.5382  0.1455  0.1031
  973MOL0     H34215   5.241   6.191   5.137  0.0848  0.6493 -1.2258
  973MOL0     H34216   5.416   6.160   5.125  0.6643  3.7694 -0.4821
  973MOL0     H34217   5.443   6.263   5.347 -0.7075 -2.7483 -0.8669
  973MOL0     H34218   5.403   6.371   5.206 -1.8907 -0.3267 -0.6629
  973MOL0     H34219   5.226   6.294   5.438 -0.1030 -1.4999 -0.4400
  973MOL0     H34220   5.158   6.364   5.286  1.0334  2.1279 -0.6708
  973MOL0     H34221   5.197   6.549   5.453 -0.6387  1.1033 -1.9223
  973MOL0     H34222   5.365   6.509   5.468 -0.4750  1.2247 -0.0554
  973MOL0     H34223   5.398   6.769   5.380  1.6551 -2.6252  0.4380
  973MOL0     H34224   5.432   6.963   5.197  2.1522 -2.0136  0.2614
  973MOL0     H34225   5.337   6.941   5.046 -1.1001 -1.1642  0.2143
  973MOL0     H34226   5.536   6.784   4.968  0.1194  0.1626  1.0599
  973MOL0     H34227   5.545   6.968   4.998 -0.1849 -0.5129 -0.7734
  973MOL0     H34228   5.647   6.897   5.233 -0.0687 -1.0058  0.7500
  973MOL0     H34229   5.634   6.729   5.184  3.9108 -0.1807  0.6623
  973MOL0     H34230   5.849   6.768   5.170  1.5325 -0.6275 -2.2012
  973MOL0     H34231   5.797   6.766   5.000 -1.8116  1.2211 -0.2042
  973MOL0     H34232   5.992   6.800   4.893 -1.0038  0.4118  1.1282
  973MOL0     H34233   6.302   6.793   4.766  1.5085  2.2461  1.3037
  973MOL0     H34234   6.167   6.693   4.817 -0.9101  0.4701  1.8663
  973MOL0     H34235   6.301   6.725   4.928 -1.2017 -1.1857 -0.4705
  973MOL0     H34236   6.631   7.160   4.853 -0.4878  0.0917  0.3946
  973MOL0     H34237   6.861   7.179   4.866  1.0833 -0.2611  0.2652
  973MOL0     H34238   7.045   7.121   5.282 -0.5054  1.0369 -0.6197
  973MOL0     H34239   7.048   6.959   5.234 -2.0829  1.1108  0.9869
  973MOL0     H34240   7.264   7.009   5.092 -4.3799 -1.0989 -0.6999
  973MOL0     H34241   7.262   7.181   5.149 -0.2857  0.6556 -1.2079
  973MOL0     H34242   7.429   7.027   5.253  1.7653  0.7575  1.7730
  973MOL0     H34243   7.293   6.925   5.304 -0.8737 -0.2339 -2.6473
  973MOL0     H34244   7.302   7.064   5.491 -0.8070 -1.2091 -1.4058
  973MOL0     H34245   7.225   7.190   5.388  1.1780  0.9895 -0.7068
  973MOL0     H34246   7.438   7.264   5.512 -2.1271  0.4797 -0.4430
  973MOL0     H34247   7.522   7.182   5.375  1.7172  2.1399 -1.0974
  973MOL0     H34248   7.304   7.395   5.370 -0.7151  0.2764 -2.0224
  973MOL0     H34249   7.376   7.321   5.230 -1.5652 -0.3744  0.0803
  973MOL0     H34250   7.611   7.377   5.331  0.3150 -0.1888 -1.0825
  973MOL0     H34251   7.529   7.501   5.431  1.8995  0.8302 -0.9771
  973MOL0     H34252   7.422   7.590   5.215 -0.4558 -0.1849 -1.2616
  973MOL0     H34253   7.559   7.521   5.130  1.2119  2.6455  0.0352
  973MOL0     H34254   6.840   7.049   5.289  3.0141  3.4541  0.0457
  973MOL0     H34255   6.621   7.069   5.276 -0.1761 -1.1852  0.5171
  973MOL0     H34256   6.237   7.160   5.104 -2.8505  0.6247  1.2006
  973MOL0     H34257   6.016   7.148   5.169  0.4239  0.5695 -0.5649
  973MOL0     H34258   4.980   6.057   5.564 -0.2852 -0.2355  1.5577
  973MOL0     H34259   4.740   6.096   5.621  1.9620 -0.7476  1.5780
  973MOL0     H34260   4.322   5.980   5.624  0.7882  0.7307 -0.4132
  973MOL0     H34261   4.120   6.049   5.690  1.1578 -0.6937  0.7967
  973MOL0     H34262   3.922   6.409   5.470  0.0966  0.6886 -0.5891
  973MOL0     H34263   3.888   6.260   5.388 -0.5365  0.1507  0.0273
  973MOL0     H34264   3.691   6.211   5.530 -2.7910  1.0372  0.6305
  973MOL0     H34265   3.676   6.349   5.430 -1.0174  0.6292  0.9713
  973MOL0     H34266   3.740   6.363   5.732 -2.8473  0.6508  0.8167
  973MOL0     H34267   3.754   6.503   5.630 -0.4394  0.1174  1.9230
  973MOL0     H34268   3.536   6.462   5.748 -0.8478  3.2816 -1.6997
  973MOL0     H34269   3.501   6.335   5.648 -0.3003  1.4378  0.2606
  973MOL0     H34270   3.477   6.701   5.400  0.8249 -0.4274 -0.2760
  973MOL0     H34271   4.093   6.323   5.359 -0.4365  0.1819  1.6726
  973MOL0     H34272   4.265   6.331   5.216 -0.4983 -0.7255  0.1836
  973MOL0     H34273   4.428   6.314   5.285  2.1849 -3.8617 -0.1040
  973MOL0     H34274   4.371   6.196   5.166  0.1130 -2.1735  0.8823
  974MOL0     O34275   4.458   5.391   6.862 -0.2268 -0.8241 -0.5368
  974MOL0     C34276   4.444   5.433   6.749 -0.3615  0.1472  0.3535
  974MOL0     O34277   4.542   5.492   6.671  0.2244 -0.3436 -0.5342
  974MOL0     C34278   4.638   5.558   6.734  0.1982 -0.1409  0.4080
  974MOL0     C34279   4.734   5.485   6.800  0.1575  0.5615  0.2188
  974MOL0     C34280   4.825   5.552   6.873 -0.2043  0.0862 -0.2541
  974MOL0     C34281   4.838   5.691   6.879 -0.4105 -0.1933  0.5411
  974MOL0     O34282   4.945   5.739   6.943 -0.2523 -0.0160  0.0402
  974MOL0     C34283   5.001   5.867   6.906  0.2520  0.2877  0.2471
  974MOL0     C34284   5.110   5.897   7.008  0.3625  0.5214  0.6647
  974MOL0     C34285   5.211   5.779   7.034  0.0236 -0.0147  0.5525
  974MOL0     C34286   5.337   5.816   7.108  0.0305 -0.5217  0.0194
  974MOL0     C34287   5.444   5.881   7.015 -0.6157 -0.6523  0.3894
  974MOL0     C34288   5.477   5.797   6.890 -0.1338 -0.2675  0.0054
  974MOL0     C34289   5.607   5.836   6.825 -0.2769  0.5769 -0.7035
  974MOL0     C34290   5.656   5.728   6.733  0.6094 -0.0342 -0.0442
  974MOL0     N34291   5.798   5.759   6.727  0.1573 -0.3459 -1.0304
  974MOL0     C34292   5.853   5.860   6.661  0.0749 -0.1299 -0.1791
  974MOL0     C34293   5.987   5.844   6.675  0.3137  0.7162 -0.0533
  974MOL0     C34294   6.099   5.929   6.628 -0.4843 -0.2825 -0.3590
  974MOL0     C34295   6.242   5.872   6.646 -0.8747  0.5829  0.5525
  974MOL0     C34296   6.337   5.935   6.537  0.0370  0.1982 -1.2661
  974MOL0     C34297   6.472   5.876   6.540 -0.0186  0.0657 -0.1262
  974MOL0     O34298   6.535   5.918   6.660  0.3020 -0.4871 -0.2969
  974MOL0     C34299   6.670   5.942   6.652 -0.1307  0.1258 -0.2534
  974MOL0     C34300   6.723   6.010   6.761 -0.8428  0.4155  0.0850
  974MOL0     C34301   6.858   6.059   6.766 -0.1183  0.6811 -0.4793
  974MOL0     C34302   6.905   6.156   6.866 -0.1695  0.1324  0.2219
  974MOL0     C34303   6.940   6.021   6.658 -0.4809 -0.4559  0.0582
  974MOL0     C34304   7.091   6.034   6.652 -0.2121  0.3856 -0.6787
  974MOL0     O34305   7.151   6.042   6.525 -0.7492 -0.4091 -1.0585
  974MOL0     C34306   7.284   6.053   6.498  0.0785 -0.5795  1.2631
  974MOL0     C34307   7.393   6.026   6.584  0.8868 -0.1973  0.4016
  974MOL0     C34308   7.524   6.023   6.534  0.2070  0.5092 -0.1875
  974MOL0     C34309   7.544   6.031   6.398 -1.0351  0.8348  0.6989
  974MOL0     O34310   7.664   6.010   6.326 -0.0519 -0.2923 -0.6280
  974MOL0     C34311   7.784   5.977   6.393  0.3758  0.5495 -0.3128
  974MOL0     C34312   7.842   5.858   6.301 -0.9709  0.0981 -0.5232
  974MOL0     C34313   7.925   5.757   6.380  0.2504 -0.2063  0.4751
  974MOL0     C34314   7.987   5.644   6.286 -0.4581 -0.4923  0.2656
  974MOL0     C34315   8.082   5.551   6.363 -0.6917 -0.3179  0.3481
  974MOL0     C34316   8.159   5.441   6.288  0.3739 -0.4257  0.4210
  974MOL0     C34317   8.138   5.305   6.354 -0.8878 -0.3514 -0.4584
  974MOL0     C34318   8.187   5.185   6.281 -0.5146  0.4991  0.0909
  974MOL0    Cl34319   8.109   5.165   6.117 -0.3008 -0.1193  0.3605
  974MOL0     C34320   7.441   6.070   6.317  1.1822  0.1266  0.2759
  974MOL0     C34321   7.311   6.083   6.368 -0.2657  0.8297 -0.2248
  974MOL0     O34322   7.149   6.048   6.757  0.2700 -0.5833 -0.3465
  974MOL0     C34323   6.885   5.930   6.562 -0.3795  0.5718  0.0395
  974MOL0     C34324   6.752   5.887   6.558  0.1496 -0.0668 -0.1452
  974MOL0     N34325   6.014   5.745   6.767  0.3653  0.8777 -0.3978
  974MOL0     N34326   5.899   5.696   6.799 -0.4116  0.0250 -0.4346
  974MOL0     C34327   4.745   5.764   6.807 -0.3023  0.3877  0.1667
  974MOL0     C34328   4.641   5.697   6.728 -0.0110 -0.1756  0.3949
  974MOL0     C34329   4.322   5.376   6.679  0.0322  0.3229  0.2607
  974MOL0     C34330   4.293   5.238   6.683  0.0812  0.2551 -0.2264
  974MOL0     C34331   4.176   5.189   6.610  0.1387  0.0669 -0.0681
  974MOL0     C34332   4.098   5.274   6.540  0.5369 -0.1152 -0.0476
  974MOL0     O34333   3.989   5.230   6.461 -0.4559  0.2551 -0.7817
  974MOL0     C34334   3.986   5.086   6.433 -1.0847  1.2839 -0.5839
  974MOL0     C34335   3.870   5.057   6.334 -0.0073 -0.2872 -0.0561
  974MOL0     C34336   3.843   4.913   6.315 -0.8044  0.3449 -0.2225
  974MOL0     C34337   3.776   4.831   6.423 -0.1128  0.2401  0.5322
  974MOL0     C34338   3.636   4.826   6.432  0.1209  0.6704  0.2249
  974MOL0     C34339   3.522   4.833   6.438  0.1930  0.8108 -0.3795
  974MOL0     C34340   4.130   5.408   6.534 -0.5995  0.0534 -0.3307
  974MOL0     C34341   4.241   5.459   6.607  0.2405 -0.3833 -0.5936
  974MOL0     C34342   4.260   5.605   6.608 -0.2877  0.5373 -0.1001
  974MOL0     H34343   4.740   5.377   6.806  0.6356  0.2906 -3.3174
  974MOL0     H34344   4.901   5.495   6.926 -2.1799 -0.8764  1.7203
  974MOL0     H34345   4.925   5.945   6.916  0.3506  0.2537  1.3875
  974MOL0     H34346   5.028   5.865   6.800  1.0528 -0.8164  0.4545
  974MOL0     H34347   5.171   5.978   6.967 -0.4309  1.1182  0.6467
  974MOL0     H34348   5.061   5.929   7.101 -0.8138 -0.2857  0.3428
  974MOL0     H34349   5.151   5.715   7.099 -1.2045 -0.0182 -0.5372
  974MOL0     H34350   5.233   5.716   6.947  0.4425  1.1633 -0.2177
  974MOL0     H34351   5.304   5.879   7.191 -0.4315 -2.9070  1.7496
  974MOL0     H34352   5.380   5.720   7.140 -2.3654 -1.6632  0.0323
  974MOL0     H34353   5.529   5.891   7.083  0.8666  3.8025 -1.7452
  974MOL0     H34354   5.412   5.982   6.989 -1.0405 -1.2936 -1.7930
  974MOL0     H34355   5.481   5.692   6.920  1.8222 -0.6897 -1.5173
  974MOL0     H34356   5.407   5.825   6.810  0.4632  1.6106  0.0817
  974MOL0     H34357   5.686   5.858   6.898 -1.6634 -0.5787  1.2638
  974MOL0     H34358   5.603   5.930   6.769  0.3972  1.7940  1.1669
  974MOL0     H34359   5.627   5.630   6.770 -2.1558  0.1674 -1.4443
  974MOL0     H34360   5.612   5.736   6.634  0.8681 -0.2867 -0.1810
  974MOL0     H34361   5.804   5.949   6.622 -1.8817 -0.0531  2.2149
  974MOL0     H34362   6.102   6.016   6.693 -0.4070  1.5341 -2.6419
  974MOL0     H34363   6.081   5.953   6.522 -0.0198 -0.2262 -0.4268
  974MOL0     H34364   6.276   5.907   6.744 -0.6125  0.9424  0.3349
  974MOL0     H34365   6.247   5.763   6.641  0.8007  0.6884 -1.2980
  974MOL0     H34366   6.301   5.902   6.440 -0.8939 -0.5936 -0.6622
  974MOL0     H34367   6.330   6.044   6.538 -2.9051  0.1183 -3.1115
  974MOL0     H34368   6.462   5.768   6.538 -0.5484 -0.0172  2.8435
  974MOL0     H34369   6.525   5.909   6.450 -0.2682 -2.9150 -1.4850
  974MOL0     H34370   6.656   6.034   6.843  0.2124  0.1430  1.0690
  974MOL0     H34371   6.831   6.192   6.939  0.8964 -1.4204  2.1552
  974MOL0     H34372   6.937   6.249   6.817 -1.3503 -0.5509 -1.9858
  974MOL0     H34373   6.993   6.115   6.915  1.2795  0.2777 -2.1169
  974MOL0     H34374   7.385   6.026   6.692  4.1728  0.4565  0.7589
  974MOL0     H34375   7.595   5.993   6.610 -1.3889  0.6849  1.4293
  974MOL0     H34376   7.860   6.055   6.381  0.4710  0.4791 -0.1551
  974MOL0     H34377   7.760   5.942   6.493 -2.4931 -0.5497 -1.2833
  974MOL0     H34378   7.766   5.800   6.248 -1.0208 -1.2150  0.9114
  974MOL0     H34379   7.904   5.914   6.230  0.3181  1.2174  1.3808
  974MOL0     H34380   7.865   5.699   6.450  1.2941  0.5763  2.0934
  974MOL0     H34381   8.008   5.802   6.436  0.3198 -0.0121  0.2139
  974MOL0     H34382   8.028   5.685   6.193 -3.7406  0.9090 -0.7043
  974MOL0     H34383   7.902   5.582   6.256 -0.3230 -1.4998  1.8631
  974MOL0     H34384   8.167   5.616   6.387 -0.1390 -0.7984 -0.2571
  974MOL0     H34385   8.036   5.505   6.451 -0.4679 -1.3757 -0.0733
  974MOL0     H34386   8.267   5.458   6.291  0.3925 -0.6531  1.2570
  974MOL0     H34387   8.127   5.446   6.184 -0.0674  0.5447  0.5914
  974MOL0     H34388   8.036   5.288   6.389 -0.1099 -0.0531  2.2213
  974MOL0     H34389   8.200   5.318   6.443  2.4917  0.8006 -2.7694
  974MOL0     H34390   8.154   5.103   6.345 -0.5011  0.6124  0.2417
  974MOL0     H34391   8.294   5.165   6.270  0.0446  1.0282  3.4369
  974MOL0     H34392   7.463   6.084   6.212  0.0624 -0.2648 -0.0319
  974MOL0     H34393   7.217   6.108   6.319 -0.8883 -1.1990 -0.1455
  974MOL0     H34394   6.969   5.905   6.498  2.1685  2.5569  2.3482
  974MOL0     H34395   6.711   5.817   6.486 -2.3394 -1.1387  2.1313
  974MOL0     H34396   4.739   5.873   6.810 -1.4670  0.3366  3.1331
  974MOL0     H34397   4.580   5.759   6.663  3.6053 -1.9434 -5.4365
  974MOL0     H34398   4.363   5.177   6.739  2.2522  2.8607  0.1039
  974MOL0     H34399   4.158   5.084   6.629 -0.8783  0.5049  1.6003
  974MOL0     H34400   4.082   5.059   6.389 -0.9917  2.3945 -1.0913
  974MOL0     H34401   3.975   5.038   6.531 -0.3955 -1.2506 -1.6828
  974MOL0     H34402   3.880   5.110   6.239 -1.6073 -0.5289 -0.3904
  974MOL0     H34403   3.777   5.102   6.371  0.0551  0.8937 -1.2816
  974MOL0     H34404   3.773   4.907   6.231  0.5869  0.4953 -1.4378
  974MOL0     H34405   3.941   4.868   6.296  0.2897  1.0380  3.0897
  974MOL0     H34406   3.816   4.875   6.515 -1.2272  3.4700 -0.3969
  974MOL0     H34407   3.802   4.725   6.411 -0.7313 -0.0430  1.5285
  974MOL0     H34408   3.415   4.828   6.445  0.1126  2.4212  0.0980
  974MOL0     H34409   4.075   5.474   6.467  3.7151  2.8551 -1.5811
  974MOL0     H34410   4.304   5.633   6.512 -0.7175 -2.6972 -1.3738
  974MOL0     H34411   4.162   5.652   6.598  0.4499  1.6100 -4.0330
  974MOL0     H34412   4.319   5.639   6.693 -1.6650  2.0516  0.2911
  975MOL0     O34413   7.159   6.930   9.868 -0.3861 -0.4940 -0.3405
  975MOL0     C34414   7.051   6.911   9.817 -0.3059  0.7259 -0.2641
  975MOL0     O34415   7.012   6.793   9.768  0.9977  0.0179  0.0935
  975MOL0     C34416   7.115   6.703   9.743 -0.4604 -0.1387 -0.9189
  975MOL0     C34417   7.117   6.576   9.802  0.2230  0.7400  0.4054
  975MOL0     C34418   7.211   6.482   9.768  0.5064  0.0821  0.9808
  975MOL0     C34419   7.311   6.515   9.677  0.5223 -0.4584  0.1189
  975MOL0     O34420   7.409   6.417   9.659  0.5843  0.2296 -0.5859
  975MOL0     C34421   7.544   6.445   9.627 -0.1307  0.0632 -0.5624
  975MOL0     C34422   7.628   6.409   9.755 -0.4060 -0.0341 -0.8417
  975MOL0     C34423   7.779   6.417   9.722  0.1296 -0.1179 -0.0900
  975MOL0     C34424   7.862   6.396   9.849 -0.7277 -0.5853 -0.0048
  975MOL0     C34425   8.009   6.433   9.833 -0.6905 -1.2566  0.4900
  975MOL0     C34426   8.038   6.589   9.826  0.0183  0.4696 -0.6890
  975MOL0     C34427   8.172   6.628   9.756  0.5428  0.4050  0.1716
  975MOL0     C34428   8.295   6.576   9.828  0.1157  0.8784 -0.1050
  975MOL0     N34429   8.424   6.626   9.778 -0.4520  0.3750 -0.4864
  975MOL0     C34430   8.490   6.587   9.669 -0.8017  0.4429  0.2218
  975MOL0     C34431   8.618   6.626   9.675 -1.4435 -1.0946  0.3542
  975MOL0     C34432   8.740   6.606   9.582  0.0755  0.2717  0.1151
  975MOL0     C34433   8.819   6.475   9.620 -0.2377 -0.3263 -0.6467
  975MOL0     C34434   8.903   6.416   9.503 -0.2270  1.2333 -0.2651
  975MOL0     C34435   8.987   6.525   9.420  0.0327 -0.1660 -1.2251
  975MOL0     O34436   9.099   6.566   9.496  0.4321  0.7058 -0.5860
  975MOL0     C34437   9.227   6.581   9.449 -0.5370  0.3209 -0.7872
  975MOL0     C34438   9.315   6.635   9.536 -1.2757  0.7762 -0.5646
  975MOL0     C34439   9.436   6.678   9.498 -0.4195  0.3310 -0.0521
  975MOL0     C34440   9.513   6.745   9.605 -0.6065 -0.2468 -0.2309
  975MOL0     C34441   9.480   6.667   9.364  0.4176 -0.9874  0.4034
  975MOL0     C34442   9.622   6.707   9.313  0.0769  0.1871 -0.0177
  975MOL0     O34443   9.644   6.658   9.181 -0.3503  0.5499 -0.0004
  975MOL0     C34444   9.763   6.691   9.113  0.3374 -0.4462 -0.7473
  975MOL0     C34445   9.889   6.683   9.172  0.3877 -0.6583  0.2632
  975MOL0     C34446  10.001   6.703   9.090 -0.4577  1.0445 -0.3081
  975MOL0     C34447   9.997   6.736   8.956  0.0554  0.2651  0.2918
  975MOL0     O34448  10.116   6.757   8.892  0.7798 -0.5038  0.3004
  975MOL0     C34449  10.112   6.718   8.750 -0.0379  0.6295 -0.0886
  975MOL0     C34450  10.253   6.705   8.692  0.2735 -0.4770 -0.0602
  975MOL0     C34451  10.253   6.712   8.539 -0.4751 -0.1042  0.1455
  975MOL0     C34452  10.393   6.739   8.495 -0.1995 -0.8488  0.4945
  975MOL0     C34453  10.401   6.738   8.342 -0.0606 -0.4073 -0.0333
  975MOL0     C34454  10.410   6.600   8.284  0.4868 -0.1473 -1.2113
  975MOL0     C34455  10.450   6.611   8.133  0.3315 -0.2448 -0.0355
  975MOL0     C34456  10.363   6.712   8.057  0.6004 -0.1012 -0.0975
  975MOL0    Cl34457  10.205   6.651   8.031  0.6428 -0.2741  0.2044
  975MOL0     C34458   9.873   6.741   8.895 -0.1621 -0.0968  0.0709
  975MOL0     C34459   9.758   6.716   8.975 -0.4683 -0.3769  0.1749
  975MOL0     O34460   9.694   6.789   9.373 -0.4714 -0.2293 -0.0129
  975MOL0     C34461   9.381   6.610   9.279 -0.3427  0.3559  0.8115
  975MOL0     C34462   9.256   6.569   9.315 -0.1366  0.2649  0.0798
  975MOL0     N34463   8.632   6.679   9.800  1.3261 -0.2264 -0.2131
  975MOL0     N34464   8.522   6.671   9.864  0.0535  0.4510 -0.8235
  975MOL0     C34465   7.304   6.637   9.610  0.0793  0.2123  0.5132
  975MOL0     C34466   7.209   6.732   9.648 -0.4381  0.9429  0.2090
  975MOL0     C34467   6.943   7.017   9.829  0.0498  0.0746  0.1425
  975MOL0     C34468   6.808   6.978   9.813  0.2243  0.5392 -0.7463
  975MOL0     C34469   6.703   7.078   9.829 -0.1652 -0.3566  0.3229
  975MOL0     C34470   6.724   7.206   9.873  0.0874 -0.6098 -0.6830
  975MOL0     O34471   6.622   7.288   9.901 -0.2206 -0.3541 -0.3986
  975MOL0     C34472   6.482   7.254   9.891 -0.0981 -0.7123 -0.3283
  975MOL0     C34473   6.388   7.375   9.901  0.1157 -0.4688 -0.3169
  975MOL0     C34474   6.371   7.461   9.768 -0.4471 -0.1134 -0.6501
  975MOL0     C34475   6.288   7.584   9.785  0.3223  0.1228  0.4508
  975MOL0     C34476   6.267   7.664   9.663 -0.1078  0.0085  0.5410
  975MOL0     C34477   6.255   7.739   9.572  0.3881  0.3968 -0.4770
  975MOL0     C34478   6.865   7.230   9.904 -0.2387 -0.1262  0.6832
  975MOL0     C34479   6.971   7.147   9.882  0.4767  0.1119 -1.1019
  975MOL0     C34480   7.108   7.196   9.914  0.2024  0.0510 -0.8102
  975MOL0     H34481   7.045   6.556   9.881  0.1803  1.7211  0.6287
  975MOL0     H34482   7.212   6.388   9.823 -0.4524 -0.8169 -0.4714
  975MOL0     H34483   7.566   6.551   9.607  2.2684 -0.3239 -0.2750
  975MOL0     H34484   7.583   6.381   9.548  2.8626 -1.1288  1.6769
  975MOL0     H34485   7.612   6.486   9.830  1.3986  0.9389 -1.3919
  975MOL0     H34486   7.601   6.311   9.797  0.6909  1.0080  2.6303
  975MOL0     H34487   7.818   6.338   9.658  2.5013  1.2565 -0.4660
  975MOL0     H34488   7.811   6.513   9.680  0.3729 -0.2492 -0.2064
  975MOL0     H34489   7.813   6.452   9.929 -2.2613  0.5342 -1.6434
  975MOL0     H34490   7.864   6.289   9.872 -2.0874 -1.5393 -3.5862
  975MOL0     H34491   8.041   6.398   9.735  2.1254  0.3338  0.7303
  975MOL0     H34492   8.064   6.384   9.913  0.8210  1.1297  1.0292
  975MOL0     H34493   7.950   6.632   9.779 -1.1217 -0.3347  0.6204
  975MOL0     H34494   8.046   6.625   9.929  5.1907 -1.1813 -0.2295
  975MOL0     H34495   8.171   6.737   9.752  1.5055  0.3834 -1.4919
  975MOL0     H34496   8.170   6.588   9.654 -0.0139 -0.5972  0.5541
  975MOL0     H34497   8.286   6.615   9.930  1.0405  3.0593 -0.7997
  975MOL0     H34498   8.304   6.467   9.829  2.5604  1.0094 -0.3749
  975MOL0     H34499   8.441   6.534   9.589  0.9528 -2.4821  0.9415
  975MOL0     H34500   8.809   6.690   9.581  0.3773  0.0390  0.7140
  975MOL0     H34501   8.701   6.602   9.480  0.8311 -0.8196 -0.1469
  975MOL0     H34502   8.883   6.489   9.707 -0.7683 -1.6429 -0.0230
  975MOL0     H34503   8.742   6.404   9.652 -1.0475  1.1561  0.8639
  975MOL0     H34504   8.975   6.345   9.544 -0.7611  0.8246 -0.0219
  975MOL0     H34505   8.831   6.362   9.441  2.2132 -3.5770  0.6640
  975MOL0     H34506   9.016   6.478   9.325 -1.8750  0.4133 -2.1593
  975MOL0     H34507   8.935   6.616   9.390  0.0639  0.8745  1.6039
  975MOL0     H34508   9.282   6.662   9.636  1.1388  0.9241  0.2654
  975MOL0     H34509   9.572   6.833   9.579  1.2918 -0.3495  3.1836
  975MOL0     H34510   9.579   6.675   9.658 -0.2362  1.0735  1.1154
  975MOL0     H34511   9.456   6.778   9.693  3.4063 -1.0182  2.9597
  975MOL0     H34512   9.894   6.652   9.275 -3.8203  0.1622  0.9056
  975MOL0     H34513  10.096   6.691   9.141 -1.3610  0.2179  1.2704
  975MOL0     H34514  10.065   6.621   8.732  1.2600 -0.1959  0.8039
  975MOL0     H34515  10.048   6.790   8.698 -0.7457  0.6546  0.8143
  975MOL0     H34516  10.296   6.798   8.731 -0.2665 -0.1968 -0.1213
  975MOL0     H34517  10.318   6.635   8.745  1.6301  1.6159  1.1881
  975MOL0     H34518  10.192   6.795   8.503  0.8635  0.4083 -1.0342
  975MOL0     H34519  10.222   6.614   8.504 -2.2166  0.7510 -0.8236
  975MOL0     H34520  10.464   6.664   8.529  1.2761 -0.6708 -1.9304
  975MOL0     H34521  10.411   6.842   8.525 -3.1790 -0.1361  0.1754
  975MOL0     H34522  10.321   6.802   8.305 -1.2418 -1.6464  0.2530
  975MOL0     H34523  10.493   6.778   8.300 -1.0017  1.5734 -0.3109
  975MOL0     H34524  10.308   6.565   8.302  1.1305 -2.8453 -2.3704
  975MOL0     H34525  10.474   6.533   8.343  0.1969  0.9953  0.4828
  975MOL0     H34526  10.423   6.512   8.095  1.4496 -0.0962 -1.3154
  975MOL0     H34527  10.556   6.635   8.119 -0.1075  1.0161 -1.5079
  975MOL0     H34528  10.411   6.718   7.958 -0.6985 -4.5142 -1.2389
  975MOL0     H34529  10.362   6.809   8.107  1.0017 -0.1386 -0.0120
  975MOL0     H34530   9.860   6.761   8.789  0.8625 -0.9294 -0.2296
  975MOL0     H34531   9.658   6.718   8.933 -0.6181 -0.2501  0.5415
  975MOL0     H34532   9.398   6.611   9.172  1.1622 -0.7036  1.0149
  975MOL0     H34533   9.189   6.545   9.234 -0.0288  0.6622 -0.1314
  975MOL0     H34534   7.392   6.653   9.549 -0.6901  1.9945 -0.2111
  975MOL0     H34535   7.219   6.838   9.627  1.6262  0.7982  0.3482
  975MOL0     H34536   6.796   6.872   9.793  2.1754 -0.2452  1.7571
  975MOL0     H34537   6.604   7.039   9.805  0.0989 -0.3572 -0.8580
  975MOL0     H34538   6.457   7.214   9.792 -1.9534  3.1710 -1.5907
  975MOL0     H34539   6.468   7.185   9.975  2.2230 -0.3382  0.4436
  975MOL0     H34540   6.418   7.440   9.984  2.1375 -0.1028 -1.2874
  975MOL0     H34541   6.293   7.335   9.938 -0.0398  0.4827  0.3627
  975MOL0     H34542   6.470   7.495   9.735  0.9737 -4.5958 -1.7535
  975MOL0     H34543   6.333   7.403   9.683  0.1687 -1.9470  0.2510
  975MOL0     H34544   6.327   7.646   9.867 -1.5394  2.0706 -0.0520
  975MOL0     H34545   6.190   7.541   9.809 -0.0675  1.0468  0.5615
  975MOL0     H34546   6.230   7.791   9.481  0.3035 -3.0765 -2.6133
  975MOL0     H34547   6.902   7.322   9.949  0.7445 -1.2909  2.3615
  975MOL0     H34548   7.103   7.301   9.944 -1.4197  0.9007 -3.7223
  975MOL0     H34549   7.160   7.137   9.989  0.6329  0.5129 -0.7420
  975MOL0     H34550   7.165   7.184   9.822  0.9599 -0.0264 -0.3398
  976MOL0     O34551   9.339   2.701   2.056 -0.4324 -0.1427  0.1517
  976MOL0     C34552   9.310   2.709   2.177  0.2782 -0.3967 -0.6406
  976MOL0     O34553   9.396   2.740   2.276 -0.6618  0.6524  0.4443
  976MOL0     C34554   9.527   2.765   2.252 -0.5665 -0.3753 -1.1172
  976MOL0     C34555   9.611   2.679   2.176  0.0692  0.5293  0.7229
  976MOL0     C34556   9.748   2.703   2.151 -0.6593  0.9551 -0.7815
  976MOL0     C34557   9.809   2.822   2.192 -0.3733  0.6591 -0.7351
  976MOL0     O34558   9.937   2.861   2.159 -0.8097  0.2034 -0.2638
  976MOL0     C34559  10.022   2.748   2.162 -0.5731  0.3987 -0.6976
  976MOL0     C34560  10.162   2.805   2.176 -1.3794  0.1303 -0.8350
  976MOL0     C34561  10.274   2.696   2.195 -0.1412 -0.4760  0.0862
  976MOL0     C34562  10.415   2.751   2.198 -0.0296 -0.0584 -0.7015
  976MOL0     C34563  10.518   2.645   2.240 -0.5040  0.3386 -0.1903
  976MOL0     C34564  10.661   2.685   2.201  0.1787 -0.5394  0.1375
  976MOL0     C34565  10.690   2.668   2.045 -0.3285 -0.8043 -0.2558
  976MOL0     C34566  10.715   2.519   1.998  0.1039 -0.0148  0.5560
  976MOL0     N34567  10.842   2.452   2.056  0.0384 -0.6561  0.7088
  976MOL0     C34568  10.974   2.479   2.010  1.1390 -0.9668  0.1949
  976MOL0     C34569  11.049   2.394   2.083  0.2301 -0.7271 -0.7953
  976MOL0     C34570  11.200   2.373   2.065  0.2155  1.5786 -0.7405
  976MOL0     C34571  11.227   2.251   1.965 -1.9211 -0.0320 -0.6921
  976MOL0     C34572  11.371   2.200   1.982 -0.4598 -0.0515  0.3281
  976MOL0     C34573  11.484   2.304   1.967 -0.2970 -0.2034 -0.7622
  976MOL0     O34574  11.594   2.236   1.906  0.4551  0.7915  0.3221
  976MOL0     C34575  11.607   2.241   1.765  0.5986  0.4324  0.2473
  976MOL0     C34576  11.509   2.267   1.668  0.5079 -0.3033 -0.2220
  976MOL0     C34577  11.535   2.280   1.536 -0.1955  0.4694 -0.5094
  976MOL0     C34578  11.430   2.344   1.449  1.5451 -0.2028 -0.7052
  976MOL0     C34579  11.661   2.240   1.484  0.2661 -0.0087  0.0967
  976MOL0     C34580  11.688   2.216   1.338 -0.9424  1.3791 -1.3728
  976MOL0     O34581  11.805   2.145   1.306  0.5937  0.3464 -0.3720
  976MOL0     C34582  11.859   2.162   1.180 -0.3071 -0.4217  0.2433
  976MOL0     C34583  11.804   2.123   1.060  0.6255 -0.3421  0.4135
  976MOL0     C34584  11.866   2.148   0.937  0.7082  0.0752  0.4188
  976MOL0     C34585  11.994   2.207   0.930 -0.1271  0.1608  0.4165
  976MOL0     O34586  12.064   2.243   0.814  0.0218  0.0221  0.3950
  976MOL0     C34587  12.017   2.196   0.682 -0.3328 -0.0441  1.0789
  976MOL0     C34588  12.088   2.263   0.563 -0.3695 -1.0897 -0.2434
  976MOL0     C34589  12.062   2.205   0.420  0.6195 -0.4798 -0.6398
  976MOL0     C34590  11.930   2.262   0.352 -1.2805 -0.1400 -0.2683
  976MOL0     C34591  11.909   2.205   0.214 -0.1315 -0.4920  0.4821
  976MOL0     C34592  11.811   2.280   0.120  0.1816 -0.0437  0.7724
  976MOL0     C34593  11.693   2.328   0.199 -0.1452 -0.6344 -0.4365
  976MOL0     C34594  11.572   2.353   0.114 -0.7449  0.1601  0.0117
  976MOL0    Cl34595  11.528   2.203   0.020 -0.1561 -0.3710 -0.6067
  976MOL0     C34596  12.052   2.242   1.054 -0.3054 -0.1907 -0.5330
  976MOL0     C34597  11.990   2.213   1.172  0.4650  0.2100 -0.0621
  976MOL0     O34598  11.602   2.250   1.260 -0.2098  0.0463  0.3244
  976MOL0     C34599  11.760   2.208   1.577 -0.2429 -0.4955  0.6746
  976MOL0     C34600  11.736   2.220   1.715 -0.2317 -0.8752 -0.2870
  976MOL0     N34601  10.971   2.324   2.172 -0.1687  0.1916  1.2387
  976MOL0     N34602  10.842   2.354   2.150 -0.4208 -0.8010  0.6647
  976MOL0     C34603   9.723   2.912   2.269 -0.2155 -0.0658  0.3798
  976MOL0     C34604   9.587   2.884   2.304 -0.1049 -0.5187 -0.1755
  976MOL0     C34605   9.176   2.692   2.219  0.2818  1.2523  0.1232
  976MOL0     C34606   9.126   2.776   2.319  0.0748 -1.5149  0.6075
  976MOL0     C34607   8.994   2.764   2.363 -0.1506  0.0793  0.0984
  976MOL0     C34608   8.909   2.668   2.307  0.3708 -0.2103  0.1787
  976MOL0     O34609   8.786   2.651   2.368 -0.2028 -0.1476  0.1756
  976MOL0     C34610   8.678   2.605   2.282 -0.3994  0.5179  0.7387
  976MOL0     C34611   8.553   2.638   2.356  0.2527  0.0047  0.3347
  976MOL0     C34612   8.427   2.561   2.322 -0.0926  0.3764  0.3076
  976MOL0     C34613   8.321   2.569   2.434  0.8505 -1.1162 -0.1630
  976MOL0     C34614   8.215   2.472   2.396 -0.4971  0.8383 -0.5080
  976MOL0     C34615   8.106   2.422   2.377 -0.6379  0.5050  0.1723
  976MOL0     C34616   8.950   2.600   2.191  0.2740 -0.0680 -0.2345
  976MOL0     C34617   9.088   2.600   2.160  0.7676  0.3353  0.2994
  976MOL0     C34618   9.136   2.499   2.056 -0.2928 -0.1315  0.0801
  976MOL0     H34619   9.562   2.592   2.134  1.3538 -0.4893  1.2613
  976MOL0     H34620   9.804   2.627   2.097 -0.2272  0.3429  0.4951
  976MOL0     H34621  10.017   2.689   2.070 -0.7169 -2.9838  1.2761
  976MOL0     H34622   9.999   2.678   2.244  1.0741 -0.3193 -0.8068
  976MOL0     H34623  10.184   2.864   2.087  2.2727 -1.1041 -0.9137
  976MOL0     H34624  10.165   2.856   2.273  1.8476 -3.9012  1.5371
  976MOL0     H34625  10.256   2.640   2.288 -0.0917  0.0271  0.4051
  976MOL0     H34626  10.261   2.617   2.120 -2.1813  1.7110 -2.0075
  976MOL0     H34627  10.432   2.802   2.102 -2.3717 -0.0227 -1.1626
  976MOL0     H34628  10.422   2.824   2.279  0.3566 -1.5463  0.6490
  976MOL0     H34629  10.491   2.542   2.216 -0.8255 -0.2270  2.2861
  976MOL0     H34630  10.520   2.633   2.349 -0.4504 -2.0679 -0.4030
  976MOL0     H34631  10.673   2.790   2.227 -0.4867  0.2083 -2.3673
  976MOL0     H34632  10.734   2.628   2.260  1.5841  1.4297  0.3789
  976MOL0     H34633  10.775   2.735   2.028  0.6190 -2.0630 -0.6000
  976MOL0     H34634  10.605   2.703   1.986 -1.8329 -4.1215 -0.2593
  976MOL0     H34635  10.627   2.460   2.027 -0.7662 -0.0929 -1.9370
  976MOL0     H34636  10.720   2.515   1.888  0.6461  3.5983  0.3454
  976MOL0     H34637  11.017   2.536   1.928  0.8677  0.5178  1.0471
  976MOL0     H34638  11.243   2.351   2.163 -0.0179 -1.8905 -1.2836
  976MOL0     H34639  11.252   2.460   2.026 -1.4576  2.5554 -0.8996
  976MOL0     H34640  11.153   2.172   1.982 -0.8125 -0.8468  0.5808
  976MOL0     H34641  11.215   2.284   1.861 -2.4988 -1.4931 -1.1256
  976MOL0     H34642  11.379   2.146   2.077  0.0359 -0.4336  0.0721
  976MOL0     H34643  11.381   2.131   1.898 -2.0044  0.6210 -0.4684
  976MOL0     H34644  11.454   2.398   1.920  0.6728  1.9845  2.6265
  976MOL0     H34645  11.511   2.335   2.069 -2.6963  0.0211 -0.1436
  976MOL0     H34646  11.410   2.278   1.710  0.1244 -0.8040 -0.9861
  976MOL0     H34647  11.460   2.410   1.366 -1.2647 -0.9245 -2.4482
  976MOL0     H34648  11.356   2.404   1.503 -0.0154 -3.4295  0.9804
  976MOL0     H34649  11.376   2.265   1.396  3.7220 -2.1830 -0.1488
  976MOL0     H34650  11.704   2.083   1.073  0.2517  0.9365  1.6809
  976MOL0     H34651  11.801   2.109   0.859 -0.9415  0.1643  1.6997
  976MOL0     H34652  12.014   2.087   0.678 -1.7240 -0.0766  2.2755
  976MOL0     H34653  11.914   2.232   0.675  0.1141  1.0162 -2.5230
  976MOL0     H34654  12.061   2.369   0.565  1.5179 -0.5711 -0.1604
  976MOL0     H34655  12.195   2.260   0.588  0.0365 -1.8798 -1.9264
  976MOL0     H34656  12.061   2.095   0.424  1.6217 -0.4916 -0.3859
  976MOL0     H34657  12.147   2.231   0.356 -0.3173  1.3030 -1.2161
  976MOL0     H34658  11.929   2.370   0.335  2.5206 -0.0930 -1.0987
  976MOL0     H34659  11.848   2.239   0.421 -0.2314  1.1008  1.4949
  976MOL0     H34660  11.998   2.181   0.155 -0.2330 -2.2370  0.9608
  976MOL0     H34661  11.871   2.104   0.234  1.8439 -2.1319 -3.0396
  976MOL0     H34662  11.778   2.213   0.040 -0.0997 -1.9841  2.4133
  976MOL0     H34663  11.862   2.355   0.059  0.1018 -1.5501 -1.2832
  976MOL0     H34664  11.710   2.422   0.251 -0.4281 -1.7293  1.7583
  976MOL0     H34665  11.676   2.259   0.283 -0.6985  2.2126  1.9354
  976MOL0     H34666  11.599   2.436   0.047  0.0683  2.4078  2.9034
  976MOL0     H34667  11.487   2.398   0.167 -1.4075  0.8401 -1.5609
  976MOL0     H34668  12.147   2.293   1.049 -0.4799  0.0210 -2.2687
  976MOL0     H34669  12.049   2.224   1.263  0.2735  0.6595  0.0116
  976MOL0     H34670  11.861   2.174   1.556  0.6455  3.3106 -2.1741
  976MOL0     H34671  11.823   2.211   1.779  0.2307 -1.7691 -1.0309
  976MOL0     H34672   9.766   3.011   2.278  1.1287 -0.2945 -2.2966
  976MOL0     H34673   9.537   2.950   2.373 -1.0450  1.2173 -2.4072
  976MOL0     H34674   9.192   2.855   2.356  2.6027 -0.3491 -5.2600
  976MOL0     H34675   8.953   2.828   2.441  3.5313 -0.1464  2.4609
  976MOL0     H34676   8.675   2.650   2.182  0.4616 -0.0614  0.4394
  976MOL0     H34677   8.687   2.496   2.270 -2.9134  0.4532 -1.3089
  976MOL0     H34678   8.524   2.741   2.336  1.1388  0.3358  0.7171
  976MOL0     H34679   8.567   2.634   2.464  0.1624  1.8501  0.4456
  976MOL0     H34680   8.378   2.598   2.231 -1.1417 -0.8591  0.3454
  976MOL0     H34681   8.455   2.456   2.312 -2.3289 -0.3191  0.7625
  976MOL0     H34682   8.276   2.668   2.448  0.4540 -1.4851  1.4107
  976MOL0     H34683   8.368   2.537   2.528  2.0085 -0.1776 -0.4096
  976MOL0     H34684   8.013   2.382   2.343  0.4435 -0.9613 -1.1808
  976MOL0     H34685   8.881   2.528   2.147 -1.9646 -1.1430  4.4157
  976MOL0     H34686   9.071   2.411   2.060 -0.2813 -0.1686 -0.4283
  976MOL0     H34687   9.124   2.546   1.958 -0.3311 -1.3082 -0.4941
  976MOL0     H34688   9.239   2.462   2.062 -1.2841 -3.1508 -0.1204
  977MOL0     O34689  10.664   9.013   2.252  0.9076 -0.3577 -0.1771
  977MOL0     C34690  10.660   8.967   2.143  0.6593 -0.3698  0.1280
  977MOL0     O34691  10.771   8.935   2.063 -0.5107 -0.0032  0.5819
  977MOL0     C34692  10.894   8.917   2.118  0.1899  0.8519  0.1769
  977MOL0     C34693  10.917   8.887   2.253 -0.8018 -0.7624 -0.7746
  977MOL0     C34694  11.054   8.889   2.300  1.1928  0.4828 -0.2931
  977MOL0     C34695  11.163   8.900   2.216 -0.4975  0.0595  0.7168
  977MOL0     O34696  11.285   8.889   2.272 -0.1235 -0.0005 -0.1508
  977MOL0     C34697  11.402   8.873   2.190  0.0151  0.0852  0.2780
  977MOL0     C34698  11.412   8.727   2.127 -0.2046 -0.1045 -0.4612
  977MOL0     C34699  11.541   8.711   2.037 -0.2426 -0.3325  0.1235
  977MOL0     C34700  11.668   8.706   2.127 -0.1798 -0.4380  0.5063
  977MOL0     C34701  11.699   8.563   2.175  0.6399 -0.3822 -0.0977
  977MOL0     C34702  11.804   8.569   2.284  0.4747 -0.1026  0.8114
  977MOL0     C34703  11.942   8.628   2.255  0.7251  0.3401  0.2861
  977MOL0     C34704  12.005   8.571   2.125  0.1463  0.3407 -1.3126
  977MOL0     N34705  12.134   8.647   2.104  0.0074 -0.0032 -0.0110
  977MOL0     C34706  12.250   8.592   2.161  0.0576 -0.2678 -0.1577
  977MOL0     C34707  12.337   8.694   2.135  0.5026  0.4968  0.4038
  977MOL0     C34708  12.479   8.694   2.180 -1.2925 -0.0681 -0.3445
  977MOL0     C34709  12.584   8.784   2.104 -0.3699 -0.4073  0.5730
  977MOL0     C34710  12.649   8.696   2.001 -0.5240 -0.4514 -0.3256
  977MOL0     C34711  12.754   8.773   1.914  0.5230 -0.4665 -0.6417
  977MOL0     O34712  12.868   8.825   1.988  0.0462 -0.0544 -0.2837
  977MOL0     C34713  12.985   8.764   1.963 -0.6981 -0.2734  0.9584
  977MOL0     C34714  13.099   8.824   2.012  0.3536 -0.7961  0.4946
  977MOL0     C34715  13.228   8.776   2.002  0.8032 -0.9529 -0.2499
  977MOL0     C34716  13.343   8.863   2.072  0.2344 -0.5960  0.1721
  977MOL0     C34717  13.250   8.650   1.941  0.0217  0.0305 -0.8504
  977MOL0     C34718  13.379   8.579   1.913 -0.2732  0.2820 -0.1677
  977MOL0     O34719  13.372   8.445   1.896  1.3213  0.0786 -0.2170
  977MOL0     C34720  13.490   8.378   1.860 -0.4924  0.3031 -0.5150
  977MOL0     C34721  13.576   8.299   1.952  0.9424  0.4341 -0.1077
  977MOL0     C34722  13.678   8.221   1.907  0.9235  1.2982  0.6797
  977MOL0     C34723  13.693   8.213   1.765  0.1181 -0.5800 -0.1019
  977MOL0     O34724  13.794   8.134   1.715  0.2817 -0.3932 -0.0322
  977MOL0     C34725  13.764   8.040   1.611  0.0512 -0.0893  0.5896
  977MOL0     C34726  13.873   7.945   1.565 -1.0430  0.3953  0.6595
  977MOL0     C34727  14.004   8.010   1.534 -0.0453  0.1667  0.3553
  977MOL0     C34728  14.114   7.910   1.508  0.2896  0.1586  0.0954
  977MOL0     C34729  14.184   7.871   1.633 -1.2178 -0.2534 -0.4848
  977MOL0     C34730  14.282   7.750   1.635 -0.7637 -0.0591  0.7319
  977MOL0     C34731  14.299   7.694   1.779  0.0787 -0.0744 -0.7780
  977MOL0     C34732  14.225   7.561   1.794 -0.7413 -0.7614 -0.6618
  977MOL0    Cl34733  14.060   7.558   1.731  0.6407  0.0934 -0.3617
  977MOL0     C34734  13.609   8.279   1.675  0.0360 -0.2391 -0.1038
  977MOL0     C34735  13.510   8.363   1.726 -0.2497  0.7923 -0.5625
  977MOL0     O34736  13.488   8.633   1.911  1.1774 -0.3240 -0.4066
  977MOL0     C34737  13.128   8.587   1.902  0.3775 -0.1457  0.1099
  977MOL0     C34738  13.006   8.641   1.904  0.2504 -0.6120  0.6958
  977MOL0     N34739  12.275   8.809   2.079 -0.2515  0.7287 -0.6353
  977MOL0     N34740  12.149   8.769   2.056 -0.9717  0.0792 -0.7549
  977MOL0     C34741  11.135   8.924   2.075  0.1171 -0.1352  0.1475
  977MOL0     C34742  11.004   8.930   2.026  0.2805 -0.7652 -0.3569
  977MOL0     C34743  10.527   8.927   2.089 -0.1237  0.0933 -0.2222
  977MOL0     C34744  10.442   8.842   2.168  0.5443 -0.9341 -0.3347
  977MOL0     C34745  10.319   8.793   2.122 -0.4957  0.4723 -0.9949
  977MOL0     C34746  10.287   8.804   1.989 -0.4475  0.3919 -0.5534
  977MOL0     O34747  10.174   8.739   1.941  0.3650 -0.3356 -0.0456
  977MOL0     C34748  10.074   8.823   1.879 -0.6023 -0.6181 -0.1056
  977MOL0     C34749  10.019   8.913   1.984 -0.3879  0.2209  0.1081
  977MOL0     C34750   9.898   9.001   1.935 -0.5405  0.2915 -0.3650
  977MOL0     C34751   9.945   9.137   1.879  0.0510 -0.3104 -0.4192
  977MOL0     C34752   9.854   9.184   1.771  0.3084  1.2523 -0.4437
  977MOL0     C34753   9.777   9.215   1.687  0.0981 -0.2423  0.3348
  977MOL0     C34754  10.370   8.881   1.909 -0.2810 -0.2775  1.1121
  977MOL0     C34755  10.480   8.954   1.959  0.8066  0.5893  0.8951
  977MOL0     C34756  10.543   9.070   1.884  0.4148  0.2914 -0.0142
  977MOL0     H34757  10.842   8.869   2.329 -0.7143 -1.1613 -0.7822
  977MOL0     H34758  11.067   8.866   2.406 -1.8681 -1.1910 -0.1561
  977MOL0     H34759  11.480   8.899   2.263 -0.4171 -0.2398  0.8569
  977MOL0     H34760  11.416   8.951   2.115 -2.0603  0.2301 -0.0092
  977MOL0     H34761  11.407   8.653   2.207  1.0339  0.7127  0.4200
  977MOL0     H34762  11.320   8.705   2.071 -1.3374  0.3035  1.1508
  977MOL0     H34763  11.529   8.617   1.983 -0.2948 -0.2192 -0.0608
  977MOL0     H34764  11.559   8.790   1.964  3.5910 -1.1308  0.0017
  977MOL0     H34765  11.750   8.738   2.063 -0.9007  1.7173  0.5636
  977MOL0     H34766  11.647   8.780   2.205 -1.4091 -0.9122  0.6520
  977MOL0     H34767  11.741   8.508   2.090  2.9619  1.8043 -0.4820
  977MOL0     H34768  11.610   8.512   2.214  1.1997  0.7076  2.8234
  977MOL0     H34769  11.759   8.633   2.360  0.5012  2.2202 -1.0265
  977MOL0     H34770  11.820   8.468   2.322 -1.7283 -1.7772 -2.1945
  977MOL0     H34771  12.012   8.596   2.333 -0.6678 -0.2335  1.3345
  977MOL0     H34772  11.946   8.737   2.244  0.1371  0.2328 -1.2869
  977MOL0     H34773  12.020   8.464   2.138 -1.9010  0.0849 -0.7507
  977MOL0     H34774  11.932   8.579   2.043 -2.6578 -0.2658  0.9576
  977MOL0     H34775  12.278   8.497   2.203  1.6071  0.1555 -0.1758
  977MOL0     H34776  12.514   8.591   2.190  0.2788  0.3379 -1.3724
  977MOL0     H34777  12.466   8.734   2.281 -0.8777  3.4858 -1.5553
  977MOL0     H34778  12.530   8.861   2.048  0.9261 -0.6694 -1.1017
  977MOL0     H34779  12.653   8.816   2.183  1.3212  1.1933 -1.4564
  977MOL0     H34780  12.701   8.613   2.048 -1.4228  0.7869  3.1312
  977MOL0     H34781  12.567   8.653   1.941  0.2654 -1.2752 -0.8488
  977MOL0     H34782  12.775   8.717   1.822  0.0114 -1.0706 -0.3992
  977MOL0     H34783  12.704   8.864   1.880 -1.0348 -0.2269  2.0049
  977MOL0     H34784  13.089   8.917   2.067  2.0908  0.0410 -0.5218
  977MOL0     H34785  13.325   8.966   2.038  0.1694 -1.2991 -2.0595
  977MOL0     H34786  13.447   8.838   2.047  1.5643  3.0339  1.4565
  977MOL0     H34787  13.328   8.860   2.180  1.4791 -0.0064  0.3766
  977MOL0     H34788  13.555   8.308   2.059  1.4959 -3.2697  0.4314
  977MOL0     H34789  13.733   8.166   1.983  0.3037 -0.5640 -0.1830
  977MOL0     H34790  13.680   7.981   1.651  2.0651 -1.7364  2.7073
  977MOL0     H34791  13.733   8.084   1.516  3.1323  2.0820  0.4557
  977MOL0     H34792  13.897   7.876   1.646 -0.3013 -0.0495  0.0778
  977MOL0     H34793  13.841   7.885   1.479 -0.4733 -0.4069  0.9899
  977MOL0     H34794  14.034   8.072   1.620 -0.8031 -1.6608  2.0181
  977MOL0     H34795  13.986   8.074   1.447 -3.4879 -0.6074  0.3861
  977MOL0     H34796  14.192   7.956   1.446 -0.8296  2.1170  0.0360
  977MOL0     H34797  14.067   7.825   1.457 -3.4549  3.2258 -2.1891
  977MOL0     H34798  14.246   7.957   1.657  0.8046 -2.1586  1.6430
  977MOL0     H34799  14.118   7.855   1.719 -1.1765 -2.8361 -0.8520
  977MOL0     H34800  14.375   7.776   1.583  0.4523  2.0699  3.6639
  977MOL0     H34801  14.239   7.671   1.573 -1.1263  0.6103  0.1102
  977MOL0     H34802  14.262   7.773   1.846 -0.5719 -1.6190  0.7488
  977MOL0     H34803  14.405   7.675   1.800 -0.1864 -2.8019 -1.5312
  977MOL0     H34804  14.221   7.542   1.902 -0.5589  1.2064 -0.2592
  977MOL0     H34805  14.277   7.481   1.741  1.8510  0.2265  0.2218
  977MOL0     H34806  13.619   8.266   1.568 -0.4139  0.8011 -0.2882
  977MOL0     H34807  13.435   8.407   1.661 -0.2608 -0.3325 -1.3431
  977MOL0     H34808  13.138   8.490   1.854  3.7873  0.1517 -0.0011
  977MOL0     H34809  12.926   8.580   1.863  0.3608  0.7785 -1.8073
  977MOL0     H34810  11.214   8.922   2.000  0.7972 -0.5148  0.8649
  977MOL0     H34811  10.986   8.951   1.921 -0.5635  1.1150  0.1242
  977MOL0     H34812  10.452   8.834   2.275 -1.5385  2.2637  0.2255
  977MOL0     H34813  10.250   8.739   2.187  0.4713 -2.0798 -1.9670
  977MOL0     H34814  10.116   8.872   1.791 -3.1788 -0.1273 -1.1580
  977MOL0     H34815  10.000   8.762   1.828  4.3542 -3.3655 -5.1392
  977MOL0     H34816  10.092   8.978   2.034  0.5659 -1.9911  1.7862
  977MOL0     H34817   9.985   8.855   2.070  1.4049  0.7213  1.2154
  977MOL0     H34818   9.850   8.941   1.857 -0.4808 -1.7041  1.0363
  977MOL0     H34819   9.825   9.026   2.012  0.0348  0.1862  0.2228
  977MOL0     H34820  10.035   9.119   1.820 -0.0469 -0.2703 -0.5840
  977MOL0     H34821   9.953   9.214   1.956  0.1287 -2.2910  1.6608
  977MOL0     H34822   9.720   9.252   1.604  0.1057  1.4148  1.0187
  977MOL0     H34823  10.347   8.910   1.807 -1.8334 -0.7892  1.2934
  977MOL0     H34824  10.463   9.105   1.818  0.4056  0.0923 -0.1087
  977MOL0     H34825  10.589   9.154   1.937  1.2998  1.6162 -2.6610
  977MOL0     H34826  10.622   9.017   1.828  0.9488  1.4345 -0.3681
  978MOL0     O34827   9.149   5.015   6.211 -0.3782  0.1471 -0.0083
  978MOL0     C34828   9.118   4.971   6.102 -0.2635  0.3300  0.2941
  978MOL0     O34829   9.206   4.896   6.023  0.2898  0.4553 -0.1596
  978MOL0     C34830   9.339   4.894   6.054 -0.1371  0.4916  0.5676
  978MOL0     C34831   9.403   4.785   6.112 -0.4842  0.2995  0.4317
  978MOL0     C34832   9.536   4.794   6.154 -1.0081  0.3404 -0.3148
  978MOL0     C34833   9.613   4.905   6.124  0.0070 -0.1436 -0.0557
  978MOL0     O34834   9.742   4.892   6.165 -0.2984 -0.4081  0.0193
  978MOL0     C34835   9.830   5.008   6.177  0.4391 -0.1505 -0.2077
  978MOL0     C34836   9.959   4.970   6.258  0.7573 -0.0123 -0.0138
  978MOL0     C34837  10.039   5.098   6.273 -0.4099 -0.1443  0.5055
  978MOL0     C34838  10.152   5.063   6.377 -0.0802  0.7358  0.4289
  978MOL0     C34839  10.219   5.187   6.429 -0.5951  0.2581  0.9999
  978MOL0     C34840  10.315   5.150   6.538  1.4357 -0.2658  0.0917
  978MOL0     C34841  10.362   5.275   6.593  0.2619 -0.3049  0.3391
  978MOL0     C34842  10.478   5.264   6.690 -0.2094 -0.9910 -0.9443
  978MOL0     N34843  10.521   5.404   6.716 -0.0409 -0.3054  0.2813
  978MOL0     C34844  10.451   5.511   6.773  0.1989  0.2443  0.4868
  978MOL0     C34845  10.530   5.618   6.758  0.0820 -0.7603 -0.5856
  978MOL0     C34846  10.513   5.759   6.822 -0.3196 -0.6287  0.1656
  978MOL0     C34847  10.526   5.762   6.977  0.3183  0.1653  0.0467
  978MOL0     C34848  10.535   5.903   7.045  0.3207  0.0524  0.6445
  978MOL0     C34849  10.492   5.925   7.196 -1.0159 -0.1284  0.2181
  978MOL0     O34850  10.601   5.884   7.284  0.1284  0.1564 -0.4302
  978MOL0     C34851  10.698   5.969   7.321 -0.0212 -0.1439 -0.4853
  978MOL0     C34852  10.690   6.105   7.346 -0.7431  0.0862 -0.1321
  978MOL0     C34853  10.794   6.185   7.396  0.0129 -0.2056 -0.3508
  978MOL0     C34854  10.761   6.330   7.412  0.0488  1.3029 -0.2610
  978MOL0     C34855  10.914   6.126   7.430 -0.6453  0.2989 -0.1711
  978MOL0     C34856  11.039   6.188   7.498 -0.5207  0.8466 -0.4348
  978MOL0     O34857  11.137   6.096   7.551 -0.0691  0.2499 -0.2514
  978MOL0     C34858  11.249   6.140   7.625  0.6212 -0.2271  0.7622
  978MOL0     C34859  11.362   6.067   7.595 -0.3814  0.3630 -0.5606
  978MOL0     C34860  11.485   6.097   7.657 -0.6416 -1.0819  0.3061
  978MOL0     C34861  11.490   6.192   7.757  0.0439  0.0532 -0.5903
  978MOL0     O34862  11.604   6.193   7.831  0.4267  0.0829 -0.0714
  978MOL0     C34863  11.631   6.290   7.929 -0.4620  0.1276  0.2412
  978MOL0     C34864  11.780   6.296   7.934  0.3433  1.2184  0.1578
  978MOL0     C34865  11.832   6.410   8.014 -0.1164  0.6730 -0.3937
  978MOL0     C34866  11.983   6.412   8.014 -0.4064 -0.2615 -0.6412
  978MOL0     C34867  12.017   6.534   8.107  0.0469  0.3010 -0.5386
  978MOL0     C34868  12.169   6.545   8.123  0.3191 -0.4074  0.0237
  978MOL0     C34869  12.213   6.658   8.209  0.0446  0.4146  0.9284
  978MOL0     C34870  12.369   6.662   8.214 -0.8413  0.2302 -0.0811
  978MOL0    Cl34871  12.449   6.580   8.364  0.0953  0.2291 -0.0193
  978MOL0     C34872  11.370   6.267   7.782  0.2336  0.1038  0.3946
  978MOL0     C34873  11.256   6.252   7.709  0.0524 -0.5957 -0.3142
  978MOL0     O34874  11.038   6.307   7.515 -0.0837 -0.2231 -0.0715
  978MOL0     C34875  10.928   5.993   7.405  0.2475  0.0597 -0.0453
  978MOL0     C34876  10.826   5.916   7.353  0.2412  0.1144 -0.3717
  978MOL0     N34877  10.657   5.576   6.709 -0.5668  0.4277  0.0257
  978MOL0     N34878  10.643   5.454   6.677 -0.4246 -0.4996  0.2649
  978MOL0     C34879   9.553   5.011   6.048  0.3329  0.9020  0.5395
  978MOL0     C34880   9.418   5.001   6.003  0.3344  0.6770 -0.3968
  978MOL0     C34881   8.977   4.986   6.055 -0.6885  0.4938  0.2784
  978MOL0     C34882   8.917   4.878   5.984  0.3340 -0.4727 -0.1010
  978MOL0     C34883   8.786   4.883   5.931 -0.2393  0.1136 -0.2467
  978MOL0     C34884   8.715   5.001   5.950  0.2027  0.9694 -0.4834
  978MOL0     O34885   8.590   5.023   5.894 -0.3835  0.2009  0.3318
  978MOL0     C34886   8.502   4.916   5.850  0.1747 -0.2542 -0.3315
  978MOL0     C34887   8.413   4.870   5.961  0.7912 -0.2734 -0.2629
  978MOL0     C34888   8.348   4.730   5.925 -0.0734  0.0370  0.1307
  978MOL0     C34889   8.230   4.708   6.023 -0.0181 -0.2063  0.5695
  978MOL0     C34890   8.179   4.570   5.997 -0.1840 -0.3107 -0.3001
  978MOL0     C34891   8.136   4.463   5.969  0.0408 -0.3979 -0.3612
  978MOL0     C34892   8.772   5.104   6.031  0.0256 -0.5374  0.1858
  978MOL0     C34893   8.901   5.096   6.087  1.0033 -0.3512  0.4395
  978MOL0     C34894   8.956   5.227   6.154  0.4689 -0.0245 -0.2971
  978MOL0     H34895   9.348   4.692   6.125 -1.1861  0.5777 -0.5035
  978MOL0     H34896   9.573   4.707   6.206 -3.6382 -0.4062  0.4422
  978MOL0     H34897   9.775   5.084   6.232  2.3469  0.5010  0.9173
  978MOL0     H34898   9.872   5.044   6.083  1.0301  0.5171  0.2938
  978MOL0     H34899   9.928   4.926   6.354 -1.1590  0.1356 -0.5172
  978MOL0     H34900  10.023   4.902   6.201  0.3660  1.4907 -2.3712
  978MOL0     H34901  10.081   5.130   6.177  2.8874 -1.2372  1.4880
  978MOL0     H34902   9.983   5.185   6.308  1.9945  0.4920  3.0422
  978MOL0     H34903  10.101   5.009   6.457 -0.2107  1.6931  1.0079
  978MOL0     H34904  10.220   4.986   6.341  1.1944  1.0324  2.0956
  978MOL0     H34905  10.150   5.265   6.460 -0.9157 -0.4450  2.0857
  978MOL0     H34906  10.279   5.220   6.343 -1.0404 -2.4101 -0.4657
  978MOL0     H34907  10.256   5.095   6.612  0.5017 -1.6473 -1.6099
  978MOL0     H34908  10.400   5.086   6.511  4.3040  3.1049  0.4777
  978MOL0     H34909  10.276   5.327   6.635  0.3781  1.0189 -0.9608
  978MOL0     H34910  10.399   5.347   6.520  0.0707  3.0179  3.2353
  978MOL0     H34911  10.434   5.225   6.783  1.9698 -0.7901  0.2410
  978MOL0     H34912  10.558   5.197   6.657  1.6410  0.4547  0.3648
  978MOL0     H34913  10.355   5.509   6.824  0.5653 -2.4018  1.2207
  978MOL0     H34914  10.424   5.805   6.778  2.1303  2.4111 -1.9996
  978MOL0     H34915  10.598   5.814   6.781 -0.0941 -0.6722  0.5766
  978MOL0     H34916  10.441   5.711   7.022  1.0658 -2.0087 -0.8570
  978MOL0     H34917  10.616   5.713   7.016  0.4104  0.6870  0.5137
  978MOL0     H34918  10.642   5.927   7.047  1.2920 -3.5193  3.4785
  978MOL0     H34919  10.479   5.981   6.992  0.8331  0.0536  0.0870
  978MOL0     H34920  10.457   6.027   7.215 -0.4302 -0.2039  1.8410
  978MOL0     H34921  10.405   5.863   7.216 -0.3367 -0.9006  0.8399
  978MOL0     H34922  10.602   6.161   7.315  3.4057  7.2068 -1.4126
  978MOL0     H34923  10.663   6.362   7.376 -1.5496 -1.5608  1.1920
  978MOL0     H34924  10.825   6.398   7.354  1.4631  2.0239  2.0214
  978MOL0     H34925  10.775   6.364   7.515  3.0743 -1.1586  0.2982
  978MOL0     H34926  11.375   5.985   7.525  3.6096  1.4044 -1.3229
  978MOL0     H34927  11.573   6.042   7.624  0.3770  0.8479 -0.3076
  978MOL0     H34928  11.597   6.388   7.896 -1.3688 -0.1899  0.2017
  978MOL0     H34929  11.584   6.269   8.025 -1.9315  0.5928 -0.3574
  978MOL0     H34930  11.815   6.199   7.968 -2.4805  0.0095 -0.0919
  978MOL0     H34931  11.818   6.309   7.833 -2.1931 -0.0471 -1.0406
  978MOL0     H34932  11.793   6.424   8.115  0.1880  0.3304 -0.2282
  978MOL0     H34933  11.794   6.496   7.959 -0.6213 -0.0797 -1.2509
  978MOL0     H34934  12.040   6.410   7.920 -0.7821  3.0393 -1.0554
  978MOL0     H34935  12.014   6.318   8.059 -0.3521 -0.2842 -0.7247
  978MOL0     H34936  11.978   6.626   8.062 -0.0953 -0.5450 -2.2343
  978MOL0     H34937  11.979   6.525   8.209  1.2401  2.1466  0.1156
  978MOL0     H34938  12.208   6.575   8.025 -2.9742 -0.3025 -1.3677
  978MOL0     H34939  12.217   6.451   8.154 -0.2231  0.0585  2.5529
  978MOL0     H34940  12.183   6.624   8.309  2.7218 -1.7066  1.1343
  978MOL0     H34941  12.170   6.753   8.176  2.6147  0.8093 -1.6947
  978MOL0     H34942  12.383   6.770   8.220 -2.6315  0.4122  2.3703
  978MOL0     H34943  12.413   6.633   8.118 -0.3231  0.3981  0.0970
  978MOL0     H34944  11.369   6.340   7.862 -3.6397  1.3385 -0.5697
  978MOL0     H34945  11.165   6.308   7.722  0.4650  0.3689 -1.4342
  978MOL0     H34946  11.014   5.933   7.436  1.0866  0.5278 -1.3789
  978MOL0     H34947  10.847   5.810   7.342  3.8239 -0.3711  5.9467
  978MOL0     H34948   9.620   5.091   6.018  0.5366  0.6639  0.3529
  978MOL0     H34949   9.374   5.081   5.943  1.3321  2.2372  0.8769
  978MOL0     H34950   8.977   4.790   5.963  0.9889 -0.3193  1.0581
  978MOL0     H34951   8.761   4.801   5.864 -3.7408  0.3746  0.6053
  978MOL0     H34952   8.437   4.970   5.780  0.6451  2.6427  1.2872
  978MOL0     H34953   8.544   4.833   5.793  2.7172  1.0227 -0.4703
  978MOL0     H34954   8.331   4.938   5.985 -0.2610 -1.7232  0.4134
  978MOL0     H34955   8.482   4.864   6.046  1.9826  0.0136 -1.1970
  978MOL0     H34956   8.306   4.727   5.824 -0.7914 -0.0118  0.4257
  978MOL0     H34957   8.412   4.642   5.914 -1.0448 -0.5750 -0.8769
  978MOL0     H34958   8.142   4.770   6.001 -0.3942 -0.5714  1.0149
  978MOL0     H34959   8.254   4.714   6.130 -1.0300 -1.9832  0.9533
  978MOL0     H34960   8.098   4.369   5.935  2.0254 -0.2127 -3.4714
  978MOL0     H34961   8.703   5.184   6.058  0.5858 -0.6812  2.1736
  978MOL0     H34962   8.932   5.217   6.261 -2.1749 -1.7553 -0.9495
  978MOL0     H34963   9.063   5.237   6.134  0.9262 -2.7617  0.3844
  978MOL0     H34964   8.897   5.305   6.107 -1.3648 -2.3804 -2.1708
  979MOL0     O34965   5.999   6.034   6.111 -0.0534  0.5143 -0.1642
  979MOL0     C34966   5.893   6.006   6.052 -1.2067 -0.2372  0.5256
  979MOL0     O34967   5.891   5.998   5.918 -0.1898 -0.3585  0.3543
  979MOL0     C34968   6.002   6.056   5.852  0.1064  0.1969  0.5663
  979MOL0     C34969   6.060   5.974   5.761 -0.2886  0.4168 -0.4073
  979MOL0     C34970   6.162   6.013   5.675  0.5133 -0.5662 -0.2710
  979MOL0     C34971   6.201   6.153   5.671 -0.2356  0.1451  0.1128
  979MOL0     O34972   6.293   6.208   5.582  0.0775 -0.6856 -0.3305
  979MOL0     C34973   6.317   6.116   5.470 -0.4211 -0.2808  1.5414
  979MOL0     C34974   6.402   6.197   5.361  0.3457 -1.0552 -0.4100
  979MOL0     C34975   6.546   6.240   5.414 -0.1879 -0.0250 -0.3686
  979MOL0     C34976   6.633   6.264   5.299 -0.1430  0.3890 -0.2914
  979MOL0     C34977   6.776   6.314   5.334  0.3357  0.9702 -0.2831
  979MOL0     C34978   6.870   6.325   5.219  0.5764 -0.0355 -0.0364
  979MOL0     C34979   7.004   6.380   5.262  0.4718 -0.1762  0.5524
  979MOL0     C34980   7.110   6.379   5.151  0.4660 -0.3078  0.9274
  979MOL0     N34981   7.202   6.492   5.181  0.0684  0.4171  0.3487
  979MOL0     C34982   7.304   6.488   5.264 -0.7376 -0.4532  0.8077
  979MOL0     C34983   7.369   6.604   5.246 -0.2237  0.3918 -0.2796
  979MOL0     C34984   7.496   6.664   5.308  0.3681  0.1415 -0.7397
  979MOL0     C34985   7.628   6.609   5.253 -0.3575 -0.0237  0.5683
  979MOL0     C34986   7.647   6.613   5.098 -0.5559 -0.7237  0.2586
  979MOL0     C34987   7.777   6.543   5.054  0.1979 -0.2917  0.4345
  979MOL0     O34988   7.880   6.611   5.117 -1.2161 -0.4565  0.3743
  979MOL0     C34989   8.010   6.570   5.074  0.7656  0.5737  1.2843
  979MOL0     C34990   8.114   6.623   5.149  0.0715  0.0622  0.6278
  979MOL0     C34991   8.243   6.573   5.142  0.0771  0.7244  0.0437
  979MOL0     C34992   8.351   6.619   5.239 -0.7054 -0.0539 -0.5582
  979MOL0     C34993   8.280   6.491   5.027  0.4020  0.3027  0.1437
  979MOL0     C34994   8.415   6.444   4.985 -0.2950 -0.5906  0.3355
  979MOL0     O34995   8.425   6.343   4.885 -0.2025 -0.8208 -1.3047
  979MOL0     C34996   8.550   6.325   4.832 -0.3114 -0.8052  0.5107
  979MOL0     C34997   8.601   6.193   4.822  0.5733 -0.4665 -0.8455
  979MOL0     C34998   8.725   6.167   4.756  0.0573 -0.6658  0.2082
  979MOL0     C34999   8.792   6.258   4.681  0.5284 -0.3575  0.4330
  979MOL0     O35000   8.901   6.213   4.609  0.1122 -0.8601 -0.3586
  979MOL0     C35001   8.999   6.311   4.573  0.1451 -0.8193  0.2062
  979MOL0     C35002   9.087   6.233   4.474  0.4655 -1.0694 -0.0492
  979MOL0     C35003   9.200   6.323   4.411 -0.1755 -0.3094 -0.6184
  979MOL0     C35004   9.280   6.234   4.307  0.3989 -0.4755  0.9747
  979MOL0     C35005   9.224   6.280   4.177 -0.5353  0.2877  0.1806
  979MOL0     C35006   9.258   6.191   4.055  0.7004  0.2502 -0.0131
  979MOL0     C35007   9.205   6.049   4.067 -0.8131 -0.2022 -0.9107
  979MOL0     C35008   9.222   5.971   3.933  1.0824  0.5443  0.2331
  979MOL0    Cl35009   9.385   5.898   3.909 -0.2476  0.3168 -0.2513
  979MOL0     C35010   8.759   6.392   4.697  0.6391 -0.7969 -0.2211
  979MOL0     C35011   8.642   6.422   4.777  0.9682  0.0319  0.6958
  979MOL0     O35012   8.508   6.478   5.056  0.0324 -0.4400 -0.1710
  979MOL0     C35013   8.172   6.443   4.944  0.2756 -0.7205  0.2331
  979MOL0     C35014   8.040   6.468   4.977 -0.3630 -1.0034 -0.4029
  979MOL0     N35015   7.307   6.682   5.156  1.2121 -0.0098  0.6841
  979MOL0     N35016   7.204   6.615   5.116 -0.7634  0.3759 -0.2389
  979MOL0     C35017   6.136   6.238   5.759  0.5756  0.9957  1.0396
  979MOL0     C35018   6.041   6.196   5.847  0.2490  1.2062 -0.3004
  979MOL0     C35019   5.771   5.971   6.130  0.9294 -0.0097 -1.0420
  979MOL0     C35020   5.779   5.942   6.269  0.0427 -0.9547 -0.1511
  979MOL0     C35021   5.665   5.926   6.350  0.1489 -0.2406  0.2665
  979MOL0     C35022   5.539   5.920   6.292  0.0471 -1.4236 -0.2710
  979MOL0     O35023   5.428   5.903   6.372 -0.3338  0.8742 -0.7009
  979MOL0     C35024   5.313   5.992   6.351  0.3096  0.0168  0.3266
  979MOL0     C35025   5.306   6.090   6.475 -0.2356 -0.3774  0.2114
  979MOL0     C35026   5.338   6.029   6.609 -0.1172  0.3134 -0.6534
  979MOL0     C35027   5.328   6.148   6.717 -1.0830  0.0089 -0.4458
  979MOL0     C35028   5.419   6.264   6.694  0.1736 -0.2422  0.1212
  979MOL0     C35029   5.500   6.351   6.678  0.7685 -0.5908 -0.0649
  979MOL0     C35030   5.526   5.940   6.150  0.2135 -0.3040  0.0627
  979MOL0     C35031   5.643   5.979   6.075  0.5908 -0.1762  0.1972
  979MOL0     C35032   5.611   6.042   5.941 -0.1070 -0.1168  0.0263
  979MOL0     H35033   6.023   5.873   5.751 -1.2010  0.5531  1.3766
  979MOL0     H35034   6.202   5.936   5.610 -0.1493 -1.5279  0.4367
  979MOL0     H35035   6.218   6.105   5.425 -1.3744  3.4139  2.4010
  979MOL0     H35036   6.369   6.023   5.494 -1.0932 -0.9506  0.5131
  979MOL0     H35037   6.399   6.132   5.273 -3.7263 -0.7091 -0.7034
  979MOL0     H35038   6.352   6.292   5.342  3.5786  1.1079  1.0798
  979MOL0     H35039   6.536   6.327   5.478 -0.4138  0.3469 -0.9009
  979MOL0     H35040   6.576   6.153   5.474 -2.3584 -2.2776 -2.3257
  979MOL0     H35041   6.638   6.172   5.239  4.7758 -0.2439  0.6111
  979MOL0     H35042   6.581   6.341   5.241  0.4891  0.9574 -0.1162
  979MOL0     H35043   6.822   6.245   5.406 -2.4906 -0.2552  0.4660
  979MOL0     H35044   6.767   6.411   5.383 -1.7343  1.1098 -0.8647
  979MOL0     H35045   6.874   6.228   5.169 -0.9040  0.1694 -0.6130
  979MOL0     H35046   6.837   6.394   5.141  1.4868  0.5986  0.1339
  979MOL0     H35047   7.040   6.320   5.347 -0.7333 -2.2388 -0.3242
  979MOL0     H35048   6.992   6.483   5.296 -1.2173 -0.4599  0.8734
  979MOL0     H35049   7.154   6.279   5.156 -1.4300 -1.2135  0.4148
  979MOL0     H35050   7.081   6.390   5.046  0.0342 -1.5291  0.9044
  979MOL0     H35051   7.334   6.408   5.331 -1.3683 -1.9762 -0.6636
  979MOL0     H35052   7.489   6.650   5.416  2.0647 -1.8494 -0.8359
  979MOL0     H35053   7.499   6.772   5.290 -0.5522  0.8516  2.6317
  979MOL0     H35054   7.706   6.673   5.296 -0.0827  2.5353 -3.2662
  979MOL0     H35055   7.626   6.504   5.285  1.3471 -0.4764 -0.6240
  979MOL0     H35056   7.565   6.576   5.036  1.2480  1.1708 -3.5662
  979MOL0     H35057   7.653   6.721   5.078 -0.6158 -0.6024  0.8736
  979MOL0     H35058   7.781   6.436   5.078  2.1239 -0.1161  1.1248
  979MOL0     H35059   7.780   6.548   4.945 -1.2642 -0.4387  0.3670
  979MOL0     H35060   8.087   6.697   5.224  0.5289  1.6645 -0.7144
  979MOL0     H35061   8.317   6.707   5.293 -1.8771 -0.6387 -0.3076
  979MOL0     H35062   8.449   6.654   5.207  0.1897  1.4010  3.2207
  979MOL0     H35063   8.369   6.537   5.309 -1.3305  0.4629  0.2177
  979MOL0     H35064   8.536   6.119   4.867  2.8815 -2.5854 -0.7934
  979MOL0     H35065   8.764   6.065   4.750  1.9467  0.0734 -1.2004
  979MOL0     H35066   8.949   6.400   4.533  0.2060 -1.2264 -0.8066
  979MOL0     H35067   9.053   6.338   4.665  0.3737  0.7489 -0.3557
  979MOL0     H35068   9.130   6.144   4.521 -1.1180 -2.5071 -1.1860
  979MOL0     H35069   9.018   6.197   4.397  1.5650 -0.1820 -1.5109
  979MOL0     H35070   9.262   6.347   4.498 -0.3952 -1.4297 -0.1377
  979MOL0     H35071   9.156   6.419   4.383 -0.4781 -0.6860 -1.4696
  979MOL0     H35072   9.260   6.128   4.321  2.3538 -0.6282  3.2696
  979MOL0     H35073   9.388   6.240   4.317  0.4783  1.8095 -0.4736
  979MOL0     H35074   9.115   6.281   4.170 -0.4554  0.0030 -1.5271
  979MOL0     H35075   9.252   6.385   4.166  2.0714 -0.3211  0.3247
  979MOL0     H35076   9.366   6.205   4.039  0.5401 -0.1538 -1.6580
  979MOL0     H35077   9.204   6.231   3.969 -0.8262 -0.2350  0.6802
  979MOL0     H35078   9.100   6.034   4.094 -0.9407 -4.1695 -2.8960
  979MOL0     H35079   9.274   6.011   4.142 -1.1723  2.6470  1.0508
  979MOL0     H35080   9.189   6.020   3.841  0.3437 -1.6002 -0.7154
  979MOL0     H35081   9.153   5.886   3.940  1.6712  0.1000  0.7700
  979MOL0     H35082   8.816   6.477   4.663 -0.0677  1.6679  3.9865
  979MOL0     H35083   8.627   6.529   4.790 -0.3553 -0.1092  0.5126
  979MOL0     H35084   8.196   6.391   4.852  1.6821  0.6717 -0.2300
  979MOL0     H35085   7.957   6.422   4.924 -3.8234  2.7841  1.1735
  979MOL0     H35086   6.146   6.346   5.747 -1.5147  1.2112  0.9022
  979MOL0     H35087   5.981   6.248   5.922 -0.2340  0.0001  0.1663
  979MOL0     H35088   5.877   5.928   6.312  0.7752  2.4528 -0.4302
  979MOL0     H35089   5.680   5.900   6.454 -1.9503  0.1054  0.6973
  979MOL0     H35090   5.319   6.051   6.260 -0.2651 -3.5070 -2.1934
  979MOL0     H35091   5.226   5.926   6.346  1.0165 -0.8841 -0.4604
  979MOL0     H35092   5.209   6.139   6.481 -0.9297 -1.6575 -0.2150
  979MOL0     H35093   5.370   6.176   6.451 -0.3288  0.5616  2.9050
  979MOL0     H35094   5.269   5.947   6.630  0.0866  0.1706 -0.5421
  979MOL0     H35095   5.435   5.979   6.616 -0.2017 -0.2420 -2.7628
  979MOL0     H35096   5.353   6.109   6.816  3.2143 -0.7706 -1.6279
  979MOL0     H35097   5.226   6.186   6.720 -2.6982 -3.8497  0.0924
  979MOL0     H35098   5.572   6.430   6.669  2.5549 -1.7136  2.7664
  979MOL0     H35099   5.432   5.913   6.104  0.9458  1.0962 -2.4557
  979MOL0     H35100   5.521   6.104   5.952  0.0685  0.3126 -0.8425
  979MOL0     H35101   5.690   6.108   5.904  0.4497  0.5278  2.2435
  979MOL0     H35102   5.598   5.961   5.868 -1.4172 -0.1018  0.2113
  980MOL0     O35103   2.079   8.450   8.243 -0.1172  0.2963 -0.2842
  980MOL0     C35104   2.065   8.554   8.178 -0.0242 -0.7771 -0.0661
  980MOL0     O35105   2.120   8.685   8.218 -0.7486 -0.3931 -0.2878
  980MOL0     C35106   2.216   8.688   8.316 -0.0541 -0.1957 -0.2483
  980MOL0     C35107   2.341   8.732   8.278 -0.2057  0.6137 -0.9814
  980MOL0     C35108   2.444   8.725   8.377 -0.2856 -0.5577  0.3490
  980MOL0     C35109   2.423   8.686   8.505  0.4881 -0.0427 -0.7562
  980MOL0     O35110   2.527   8.692   8.595 -0.0861 -0.5301 -0.0427
  980MOL0     C35111   2.615   8.576   8.588  0.2325 -0.8754  0.0451
  980MOL0     C35112   2.635   8.521   8.730 -0.1472  0.6963 -0.0481
  980MOL0     C35113   2.717   8.614   8.816  0.8551 -0.0360 -0.9534
  980MOL0     C35114   2.730   8.560   8.960 -0.7783 -0.0540 -0.3631
  980MOL0     C35115   2.843   8.627   9.031  0.4295  0.1963 -1.1127
  980MOL0     C35116   2.844   8.595   9.189 -0.6624  0.5301  1.1247
  980MOL0     C35117   2.963   8.690   9.248  0.2206  0.6439  0.6016
  980MOL0     C35118   2.968   8.678   9.408  0.0147 -0.4466  1.1243
  980MOL0     N35119   3.026   8.803   9.461 -1.1016  0.8153  0.6101
  980MOL0     C35120   3.138   8.810   9.535 -0.6240  0.4124  0.4171
  980MOL0     C35121   3.173   8.939   9.539  0.4809  0.1447  0.5267
  980MOL0     C35122   3.289   8.997   9.613  0.5554  0.1316  0.0604
  980MOL0     C35123   3.398   9.046   9.511  0.0910  0.2507  0.5077
  980MOL0     C35124   3.514   9.131   9.561  0.4359  0.1440  0.3620
  980MOL0     C35125   3.618   9.036   9.619  0.0765 -0.1721 -0.5094
  980MOL0     O35126   3.717   8.995   9.525 -0.3318  0.7187  0.1967
  980MOL0     C35127   3.814   8.920   9.578 -0.0147  0.9965  0.4790
  980MOL0     C35128   3.809   8.843   9.693  0.1000  0.6841  0.6099
  980MOL0     C35129   3.920   8.761   9.728 -0.5308  0.3847 -0.0515
  980MOL0     C35130   3.896   8.671   9.852  0.9217  0.3296  0.0727
  980MOL0     C35131   4.038   8.761   9.649 -0.1234 -0.3808  0.1107
  980MOL0     C35132   4.159   8.694   9.676 -0.6458  0.2779 -0.8725
  980MOL0     O35133   4.284   8.762   9.666  1.1442  0.2795  0.6168
  980MOL0     C35134   4.391   8.680   9.676  0.4865  0.6240 -0.9297
  980MOL0     C35135   4.423   8.593   9.577 -0.4192 -0.0564  0.4892
  980MOL0     C35136   4.540   8.515   9.586 -0.3560 -0.5030  0.7664
  980MOL0     C35137   4.618   8.523   9.707  0.4358 -0.0300  0.8331
  980MOL0     O35138   4.731   8.448   9.734  0.4814 -0.4360 -0.0722
  980MOL0     C35139   4.802   8.399   9.623 -0.6919  0.6089 -0.1558
  980MOL0     C35140   4.948   8.413   9.657 -0.0046  0.0137 -0.4776
  980MOL0     C35141   5.037   8.316   9.575 -0.4475  0.5064 -0.6447
  980MOL0     C35142   5.056   8.177   9.633  0.5086  0.5175 -0.0323
  980MOL0     C35143   5.118   8.084   9.525  0.2206  0.0888 -0.1545
  980MOL0     C35144   5.156   7.944   9.573 -0.3794  0.2380 -1.0913
  980MOL0     C35145   5.209   7.856   9.468 -0.0588 -0.9977  0.7856
  980MOL0     C35146   5.115   7.819   9.357  0.6181  0.4070  0.5698
  980MOL0    Cl35147   5.173   7.668   9.278  0.4769  0.2486  0.3511
  980MOL0     C35148   4.579   8.604   9.804  0.3534  0.3547 -0.5338
  980MOL0     C35149   4.475   8.688   9.791  0.1726 -0.6067 -0.2340
  980MOL0     O35150   4.153   8.582   9.728  0.2192  0.1282  0.0286
  980MOL0     C35151   4.039   8.840   9.530 -0.1942  0.7774 -0.0608
  980MOL0     C35152   3.927   8.915   9.496 -0.4500 -0.2244  0.6727
  980MOL0     N35153   3.070   9.008   9.476 -0.8538 -0.4168  0.1292
  980MOL0     N35154   2.983   8.921   9.428 -1.0170  0.5830  0.6015
  980MOL0     C35155   2.296   8.634   8.542  0.4953 -0.3041  1.0207
  980MOL0     C35156   2.193   8.639   8.447 -0.3178  0.3030  0.0322
  980MOL0     C35157   1.965   8.539   8.062  0.3494 -0.1341 -0.6601
  980MOL0     C35158   1.890   8.418   8.061  0.0617 -0.0844 -0.1012
  980MOL0     C35159   1.798   8.410   7.959  0.6155 -0.3307  1.2569
  980MOL0     C35160   1.778   8.502   7.859  1.5318 -0.2497 -0.0463
  980MOL0     O35161   1.681   8.468   7.769 -0.4926 -0.4818 -0.0010
  980MOL0     C35162   1.653   8.554   7.660 -0.5240  0.9545 -0.2155
  980MOL0     C35163   1.564   8.672   7.703  0.6250 -0.5883 -0.0520
  980MOL0     C35164   1.515   8.758   7.571  0.3481  0.1844 -0.0974
  980MOL0     C35165   1.619   8.826   7.485 -0.0066 -0.1683  0.2014
  980MOL0     C35166   1.718   8.895   7.562  0.1643  0.2259 -0.3831
  980MOL0     C35167   1.807   8.928   7.639 -0.0283 -0.7693  1.5707
  980MOL0     C35168   1.859   8.615   7.860  0.6093 -0.3443 -0.4955
  980MOL0     C35169   1.950   8.634   7.962 -0.3867 -0.0615 -0.3770
  980MOL0     C35170   2.045   8.756   7.945 -0.1314  0.3797  0.5590
  980MOL0     H35171   2.360   8.760   8.175 -0.0849  1.0358 -0.8461
  980MOL0     H35172   2.547   8.747   8.353  0.0242 -1.3195  0.9521
  980MOL0     H35173   2.709   8.617   8.549 -0.8293  2.2394  0.4465
  980MOL0     H35174   2.580   8.513   8.506  2.6717  0.9363 -2.6330
  980MOL0     H35175   2.538   8.498   8.775 -0.1530 -1.6992 -1.1370
  980MOL0     H35176   2.691   8.430   8.705  0.3991  1.1692 -0.5644
  980MOL0     H35177   2.814   8.625   8.766  0.0810  0.6498 -2.3811
  980MOL0     H35178   2.672   8.714   8.820 -1.5587 -1.0903 -0.2232
  980MOL0     H35179   2.633   8.573   9.008 -0.7000  0.8765 -0.4307
  980MOL0     H35180   2.754   8.454   8.953 -1.2422 -0.1010 -1.4565
  980MOL0     H35181   2.825   8.733   9.013  0.1816  0.2935 -0.3227
  980MOL0     H35182   2.942   8.602   8.992  0.2106  1.4820 -2.5972
  980MOL0     H35183   2.745   8.626   9.225 -0.9852  0.9144 -0.0438
  980MOL0     H35184   2.860   8.487   9.201 -0.8978  0.0980 -1.8150
  980MOL0     H35185   2.940   8.794   9.227 -1.6343  0.1338 -0.0793
  980MOL0     H35186   3.059   8.660   9.205  0.0252  1.5246 -0.4643
  980MOL0     H35187   2.867   8.665   9.449 -0.2886  1.6773  1.1792
  980MOL0     H35188   3.026   8.592   9.441  1.4029 -1.3958 -3.1585
  980MOL0     H35189   3.190   8.728   9.584 -0.9753 -0.5522 -0.7564
  980MOL0     H35190   3.325   8.920   9.682 -2.5257 -0.8891  0.6731
  980MOL0     H35191   3.252   9.081   9.674 -3.8572 -0.6091 -1.2244
  980MOL0     H35192   3.432   8.971   9.439  1.0462  0.8199  0.3600
  980MOL0     H35193   3.338   9.117   9.454 -0.3483 -0.6951 -0.2326
  980MOL0     H35194   3.552   9.191   9.477  0.8080  0.5723  0.8241
  980MOL0     H35195   3.480   9.205   9.634 -0.3649 -1.2513  1.4290
  980MOL0     H35196   3.674   9.098   9.690  1.4926 -1.6081 -0.3097
  980MOL0     H35197   3.560   8.960   9.671  0.7110  1.0206  2.0925
  980MOL0     H35198   3.724   8.839   9.760  0.1181 -1.4345  0.5734
  980MOL0     H35199   3.955   8.700   9.939  0.1732  0.2029  0.6421
  980MOL0     H35200   3.907   8.566   9.823 -0.8546 -0.3893  1.7451
  980MOL0     H35201   3.794   8.687   9.888  0.8784  1.2390 -0.4299
  980MOL0     H35202   4.361   8.600   9.488 -0.2602  2.5764  0.4979
  980MOL0     H35203   4.557   8.443   9.507 -0.8331 -0.3462  0.5167
  980MOL0     H35204   4.782   8.293   9.607  1.3419 -0.0304  1.2317
  980MOL0     H35205   4.782   8.445   9.526 -2.7382 -0.0116 -0.0788
  980MOL0     H35206   4.994   8.512   9.641  0.6925 -0.0417  0.9834
  980MOL0     H35207   4.962   8.392   9.764 -0.5977 -3.8147 -1.0370
  980MOL0     H35208   5.137   8.359   9.562  0.1924 -0.0173  1.9866
  980MOL0     H35209   4.996   8.313   9.474  0.8115  3.5161 -1.3618
  980MOL0     H35210   4.964   8.132   9.670  1.3908 -0.5517  0.9772
  980MOL0     H35211   5.129   8.182   9.714  0.0263  2.9034  0.3194
  980MOL0     H35212   5.037   8.075   9.452 -1.6598 -0.3965  1.9025
  980MOL0     H35213   5.207   8.130   9.482 -0.1708  1.2497  0.2615
  980MOL0     H35214   5.077   7.894   9.628  0.1142 -1.7410 -2.0812
  980MOL0     H35215   5.240   7.951   9.643 -0.1348  0.4039 -1.3966
  980MOL0     H35216   5.235   7.761   9.517  4.5875  0.2425  1.2645
  980MOL0     H35217   5.304   7.897   9.433 -1.4644  1.6006 -0.1878
  980MOL0     H35218   5.091   7.897   9.285 -3.3617 -0.3290  0.8561
  980MOL0     H35219   5.019   7.794   9.404 -1.2901  2.8168 -1.7652
  980MOL0     H35220   4.640   8.595   9.893 -0.3909 -0.7063 -0.1083
  980MOL0     H35221   4.440   8.760   9.864 -1.4799 -0.6936 -0.9103
  980MOL0     H35222   4.124   8.842   9.462 -0.5595  0.1303 -0.5516
  980MOL0     H35223   3.915   8.962   9.399  0.5675 -2.0276 -0.3754
  980MOL0     H35224   2.277   8.605   8.645 -1.5268  1.5421  1.2236
  980MOL0     H35225   2.089   8.624   8.475  0.1293  1.6918  2.7934
  980MOL0     H35226   1.894   8.352   8.146 -3.7207 -0.3507  0.0355
  980MOL0     H35227   1.738   8.320   7.964 -4.0358  2.3923  0.4874
  980MOL0     H35228   1.748   8.590   7.619 -0.4239 -0.9745 -1.8700
  980MOL0     H35229   1.612   8.494   7.577 -0.8066 -2.0391  1.9168
  980MOL0     H35230   1.609   8.735   7.780  0.4360 -1.9520  1.2245
  980MOL0     H35231   1.470   8.640   7.749 -1.2283  4.6223  0.4239
  980MOL0     H35232   1.450   8.693   7.512  1.0676  1.3011 -2.2172
  980MOL0     H35233   1.459   8.839   7.619  1.5899 -0.6032  2.8996
  980MOL0     H35234   1.560   8.894   7.424  1.9678  1.8483  0.4273
  980MOL0     H35235   1.665   8.754   7.416 -3.0966  0.3584 -2.6425
  980MOL0     H35236   1.891   8.952   7.701  0.1965  1.1179  0.6108
  980MOL0     H35237   1.855   8.692   7.784  2.0041  1.0617  0.7789
  980MOL0     H35238   2.027   8.800   7.846 -0.0837 -0.0150  0.3698
  980MOL0     H35239   2.023   8.823   8.028 -0.4309  2.3770 -1.0398
  980MOL0     H35240   2.150   8.727   7.950 -0.0506 -0.0437 -1.9853
  981MOL0     O35241   6.574  10.198  10.140  0.3441 -0.2865 -0.0386
  981MOL0     C35242   6.522  10.162  10.036  0.4134 -0.4771 -0.0074
  981MOL0     O35243   6.414  10.081  10.027  0.3670 -0.4245 -0.4722
  981MOL0     C35244   6.383  10.009  10.140  0.2914  0.0430 -0.3204
  981MOL0     C35245   6.301  10.063  10.241  0.0887  0.1499 -0.0531
  981MOL0     C35246   6.279   9.987  10.354  0.2012  0.2561 -0.3236
  981MOL0     C35247   6.317   9.859  10.365  0.3994 -0.5758  0.2434
  981MOL0     O35248   6.266   9.784  10.467  0.7638  0.5976  0.4120
  981MOL0     C35249   6.294   9.640  10.472  0.1654  0.2580 -0.5159
  981MOL0     C35250   6.227   9.564  10.593 -0.8107  0.5223  0.6753
  981MOL0     C35251   6.312   9.569  10.723 -0.2719 -0.1508 -0.2020
  981MOL0     C35252   6.417   9.451  10.733 -0.4875  1.0558  0.6719
  981MOL0     C35253   6.528   9.456  10.844  0.0280 -0.1620 -0.8812
  981MOL0     C35254   6.458   9.466  10.984  0.7268  0.4361  0.3356
  981MOL0     C35255   6.549   9.472  11.108 -0.8786  0.2531 -0.6357
  981MOL0     C35256   6.456   9.443  11.229 -0.8165  0.4931 -0.2387
  981MOL0     N35257   6.516   9.494  11.352  0.8902 -0.0644 -0.5318
  981MOL0     C35258   6.469   9.460  11.476 -0.5910 -0.5736 -0.1946
  981MOL0     C35259   6.551   9.525  11.562 -0.6542  0.5833  0.1193
  981MOL0     C35260   6.538   9.524  11.711 -0.8519  0.5547 -0.5590
  981MOL0     C35261   6.473   9.652  11.758  1.0600  0.0410  0.5480
  981MOL0     C35262   6.455   9.647  11.918 -0.8097  0.0259  0.6471
  981MOL0     C35263   6.552   9.738  11.995 -0.5847  0.0531  0.1412
  981MOL0     O35264   6.683   9.684  11.990  0.0541  0.5141 -0.9249
  981MOL0     C35265   6.775   9.697  11.890 -0.6013 -0.0617  0.2464
  981MOL0     C35266   6.778   9.798  11.801  0.0932  0.2778  0.0082
  981MOL0     C35267   6.883   9.812  11.710  0.2511  0.1298  0.2398
  981MOL0     C35268   6.888   9.945  11.625 -0.7525  0.1726 -0.0880
  981MOL0     C35269   6.989   9.715  11.715  0.2197 -0.1616 -0.5444
  981MOL0     C35270   7.107   9.716  11.617  0.3257  0.2844 -0.0242
  981MOL0     O35271   7.175   9.597  11.626  0.0018  0.3206  0.5018
  981MOL0     C35272   7.300   9.582  11.566  0.5419 -0.6229 -1.0943
  981MOL0     C35273   7.308   9.606  11.430 -0.6295  0.2763  0.3607
  981MOL0     C35274   7.427   9.582  11.357  1.1528 -0.1037 -0.0142
  981MOL0     C35275   7.540   9.533  11.422 -0.4411 -1.1852 -0.0274
  981MOL0     O35276   7.648   9.516  11.343  0.2348  0.5164  0.9329
  981MOL0     C35277   7.747   9.430  11.394  0.2722  0.0592  0.1576
  981MOL0     C35278   7.838   9.371  11.281  0.1678  0.0626  0.0736
  981MOL0     C35279   7.968   9.318  11.339 -0.2476 -1.0812  1.0420
  981MOL0     C35280   8.077   9.425  11.336 -0.3125  0.3729  0.6178
  981MOL0     C35281   8.211   9.373  11.407 -0.3054  0.6694  0.2287
  981MOL0     C35282   8.206   9.349  11.555 -0.3553  0.3538  0.3040
  981MOL0     C35283   8.344   9.337  11.620  0.4093  0.4375 -0.3359
  981MOL0     C35284   8.316   9.359  11.770  0.0598 -0.0784 -0.4430
  981MOL0    Cl35285   8.468   9.361  11.869  0.5920 -0.4170 -0.3453
  981MOL0     C35286   7.526   9.510  11.564 -1.1647 -0.4627  0.2593
  981MOL0     C35287   7.408   9.528  11.634  0.3595 -0.5444 -0.0508
  981MOL0     O35288   7.154   9.817  11.560 -0.3654  0.3127  0.3185
  981MOL0     C35289   6.981   9.610  11.800  1.4032  0.8068  0.4748
  981MOL0     C35290   6.878   9.604  11.893  0.5425 -0.6551  0.8871
  981MOL0     N35291   6.648   9.592  11.491 -0.1610 -0.3921 -0.6347
  981MOL0     N35292   6.631   9.564  11.366  0.0775  0.6223  0.0358
  981MOL0     C35293   6.406   9.808  10.273  0.0545  0.0556  0.6825
  981MOL0     C35294   6.441   9.882  10.162 -0.7355  0.1211 -0.2317
  981MOL0     C35295   6.587  10.205   9.913  0.3075  0.6169 -0.7335
  981MOL0     C35296   6.514  10.184   9.787 -0.8159  0.5003 -0.0369
  981MOL0     C35297   6.559  10.234   9.657 -0.5876 -0.1836  0.1151
  981MOL0     C35298   6.678  10.299   9.659 -0.1332 -0.2398 -0.2203
  981MOL0     O35299   6.709  10.349   9.535  0.8347  0.4026  0.2129
  981MOL0     C35300   6.819  10.436   9.510 -0.4102  0.2636 -0.3624
  981MOL0     C35301   6.835  10.463   9.358 -0.3910  0.0357  0.7633
  981MOL0     C35302   6.979  10.520   9.310  0.7299 -0.5723 -0.4819
  981MOL0     C35303   7.004  10.668   9.363 -0.2016 -0.6189  1.2230
  981MOL0     C35304   6.903  10.772   9.312  0.2072 -0.1105  0.0568
  981MOL0     C35305   6.833  10.854   9.254 -0.1245  0.0415  0.1119
  981MOL0     C35306   6.762  10.301   9.771 -0.2113  0.0155  0.0716
  981MOL0     C35307   6.718  10.271   9.902  0.1249 -0.1602 -1.0056
  981MOL0     C35308   6.801  10.326  10.011  0.6050 -0.2170 -0.9780
  981MOL0     H35309   6.259  10.163  10.243 -2.4208 -0.8091 -0.6105
  981MOL0     H35310   6.210  10.033  10.424  0.3853 -1.3749  0.9807
  981MOL0     H35311   6.402   9.620  10.482  0.2755  0.5672 -1.0792
  981MOL0     H35312   6.263   9.596  10.377 -0.5153  1.0031 -0.6450
  981MOL0     H35313   6.130   9.614  10.605 -1.3188 -0.7100  1.8667
  981MOL0     H35314   6.218   9.461  10.558  1.6077 -0.1622  1.8341
  981MOL0     H35315   6.361   9.667  10.731 -0.7422  0.0177  0.7161
  981MOL0     H35316   6.251   9.568  10.814 -0.0377  2.2895  0.0434
  981MOL0     H35317   6.362   9.359  10.757 -0.0130  0.6808  0.3281
  981MOL0     H35318   6.466   9.434  10.637 -2.3844 -0.5263 -0.1096
  981MOL0     H35319   6.600   9.537  10.828 -0.1748 -0.3566 -3.1847
  981MOL0     H35320   6.592   9.367  10.841  0.0426 -0.2281  0.5604
  981MOL0     H35321   6.401   9.559  10.991 -1.5714 -0.8884  0.3732
  981MOL0     H35322   6.387   9.384  11.002  0.9270 -0.0844 -1.1038
  981MOL0     H35323   6.582   9.575  11.116 -1.1815  0.3503 -0.6347
  981MOL0     H35324   6.642   9.414  11.104  0.3657  1.9200  1.7932
  981MOL0     H35325   6.361   9.491  11.205 -0.7393  0.4538 -0.6473
  981MOL0     H35326   6.434   9.338  11.247  1.0051  0.2209  0.6342
  981MOL0     H35327   6.389   9.390  11.501 -0.7277  0.6120  3.3408
  981MOL0     H35328   6.638   9.510  11.753 -1.9144 -1.5837  1.4673
  981MOL0     H35329   6.493   9.432  11.748 -0.1236  1.4105  2.7511
  981MOL0     H35330   6.524   9.740  11.718  0.9249  0.6793  1.7333
  981MOL0     H35331   6.373   9.643  11.715  0.5747 -0.2131  1.7032
  981MOL0     H35332   6.355   9.688  11.939 -0.4418  1.2104  0.1798
  981MOL0     H35333   6.455   9.544  11.953 -1.8287 -0.6565 -1.2411
  981MOL0     H35334   6.537   9.840  11.958 -2.4314  0.3359  1.4766
  981MOL0     H35335   6.541   9.728  12.104 -0.0542 -3.0124  0.0026
  981MOL0     H35336   6.691   9.862  11.796 -0.2185 -0.2099 -1.0319
  981MOL0     H35337   6.940   9.932  11.529 -1.0810 -1.5054 -0.0724
  981MOL0     H35338   6.943  10.022  11.680  0.4248 -0.3243 -0.5366
  981MOL0     H35339   6.788   9.980  11.595 -0.5731 -0.5106 -1.5922
  981MOL0     H35340   7.225   9.640  11.368  0.6168 -0.4272 -1.7777
  981MOL0     H35341   7.431   9.599  11.250  1.5165  0.3904  0.0745
  981MOL0     H35342   7.811   9.487  11.462  1.3096 -1.8121  0.8423
  981MOL0     H35343   7.711   9.342  11.448  0.4404  0.4972  1.0029
  981MOL0     H35344   7.787   9.285  11.237  0.5771 -1.1441  1.8547
  981MOL0     H35345   7.859   9.457  11.217  0.3293  0.6998  0.9508
  981MOL0     H35346   8.007   9.230  11.286  0.9739 -1.7163  2.9221
  981MOL0     H35347   7.944   9.285  11.440 -4.6163  1.2638  1.0141
  981MOL0     H35348   8.046   9.519  11.382 -1.4767  0.3149 -0.0170
  981MOL0     H35349   8.093   9.453  11.232 -1.6009  1.4687  0.6946
  981MOL0     H35350   8.240   9.276  11.365 -1.6109 -0.6428  2.2406
  981MOL0     H35351   8.294   9.444  11.396  1.3549 -1.1340  0.5465
  981MOL0     H35352   8.154   9.254  11.576 -0.0152  0.4193  1.5505
  981MOL0     H35353   8.145   9.433  11.589 -1.6455 -0.1559 -0.6586
  981MOL0     H35354   8.410   9.416  11.583  0.1349  0.3406 -1.0320
  981MOL0     H35355   8.398   9.242  11.617 -1.4495 -0.6708 -0.0263
  981MOL0     H35356   8.262   9.271  11.807  0.0069  0.1027 -0.0864
  981MOL0     H35357   8.260   9.452  11.785  2.0975  0.9131  1.7403
  981MOL0     H35358   7.613   9.481  11.622 -0.6427 -2.6159 -1.4426
  981MOL0     H35359   7.391   9.513  11.740  0.0667  1.2526  0.1851
  981MOL0     H35360   7.043   9.522  11.788  0.1297  0.1318 -1.9835
  981MOL0     H35361   6.875   9.524  11.968  1.7027 -1.2441  0.3295
  981MOL0     H35362   6.444   9.707  10.277 -0.1119  0.0009  0.8634
  981MOL0     H35363   6.510   9.847  10.086  1.1378 -2.4623  2.4571
  981MOL0     H35364   6.419  10.131   9.787 -0.4420 -0.4035 -3.3504
  981MOL0     H35365   6.502  10.232   9.565  0.3699  0.0392 -0.5059
  981MOL0     H35366   6.810  10.532   9.562 -0.3235  0.4024 -0.6044
  981MOL0     H35367   6.913  10.391   9.542 -1.0759 -0.6877  0.3299
  981MOL0     H35368   6.756  10.533   9.327 -1.9060 -0.5879  2.9037
  981MOL0     H35369   6.818  10.373   9.300  4.4588  0.6066 -2.0337
  981MOL0     H35370   7.056  10.462   9.363 -0.7712 -0.9429  1.3867
  981MOL0     H35371   6.988  10.508   9.202 -0.7924 -0.9791 -0.5740
  981MOL0     H35372   7.106  10.691   9.332 -1.6213  2.4721 -1.7320
  981MOL0     H35373   6.989  10.668   9.471 -3.1510  3.1330  1.0012
  981MOL0     H35374   6.770  10.926   9.205  0.7900 -0.2054 -1.5204
  981MOL0     H35375   6.852  10.358   9.754  0.4826 -0.5722  1.5761
  981MOL0     H35376   6.888  10.267  10.043  0.1402  0.1468  1.1257
  981MOL0     H35377   6.841  10.425   9.987  1.8100  0.0154  1.6122
  981MOL0     H35378   6.746  10.348  10.103  1.6553  2.1898 -0.8424
  982MOL0     O35379   6.873   4.593   0.888  0.2656 -0.2404 -0.4224
  982MOL0     C35380   6.777   4.568   0.812 -0.4613  0.3564  0.7607
  982MOL0     O35381   6.802   4.559   0.673  0.8654  0.2834  0.2318
  982MOL0     C35382   6.918   4.595   0.622  0.6335  0.2208  0.5228
  982MOL0     C35383   6.914   4.678   0.515 -0.3177 -0.5866 -0.3596
  982MOL0     C35384   7.030   4.707   0.449 -0.6188  0.6823 -0.3742
  982MOL0     C35385   7.159   4.654   0.467  0.8120  0.3235 -0.4122
  982MOL0     O35386   7.256   4.692   0.383  0.0677  0.3604  0.1437
  982MOL0     C35387   7.349   4.597   0.346 -0.4991 -0.4385  0.5312
  982MOL0     C35388   7.423   4.659   0.218  0.8718  0.6280 -0.5258
  982MOL0     C35389   7.530   4.552   0.176  0.4290 -0.5817 -0.4259
  982MOL0     C35390   7.623   4.630   0.078 -0.3625  0.0136  0.4331
  982MOL0     C35391   7.745   4.541   0.047 -0.3558  0.1908  0.5700
  982MOL0     C35392   7.848   4.615  -0.039 -0.0298  0.2334  0.5281
  982MOL0     C35393   7.976   4.523  -0.047 -0.0347  0.2605 -0.6465
  982MOL0     C35394   8.069   4.582  -0.144  0.8198 -0.0999  1.3827
  982MOL0     N35395   8.210   4.560  -0.129  0.4415  0.3802 -0.8611
  982MOL0     C35396   8.272   4.447  -0.166 -0.0637  0.6051  0.1157
  982MOL0     C35397   8.397   4.455  -0.120 -0.4855  0.6980 -0.1054
  982MOL0     C35398   8.501   4.349  -0.137  0.5769 -0.6633  0.1226
  982MOL0     C35399   8.605   4.391  -0.250 -0.0637  0.0934  0.5083
  982MOL0     C35400   8.724   4.300  -0.261  0.3590 -0.2593  0.6844
  982MOL0     C35401   8.813   4.345  -0.383  0.6300 -0.7198  0.1356
  982MOL0     O35402   8.936   4.259  -0.389  0.3398 -0.9082 -0.1359
  982MOL0     C35403   8.937   4.140  -0.456 -0.1013 -0.4350 -0.5863
  982MOL0     C35404   9.059   4.084  -0.473 -0.0898  0.0512 -0.1250
  982MOL0     C35405   9.073   3.968  -0.547 -0.3882 -1.0623 -0.3089
  982MOL0     C35406   9.216   3.922  -0.562  0.3297 -0.4790 -0.6648
  982MOL0     C35407   8.959   3.901  -0.594  0.9843  0.0878  0.3559
  982MOL0     C35408   8.955   3.777  -0.676  0.4491  0.7218 -0.5148
  982MOL0     O35409   9.068   3.696  -0.657 -0.4506  0.2760  0.0242
  982MOL0     C35410   9.079   3.572  -0.713  0.0939 -0.5628 -0.1095
  982MOL0     C35411   9.095   3.550  -0.853  0.3903  0.3396  0.0532
  982MOL0     C35412   9.118   3.418  -0.899 -0.5104 -0.1658 -0.8051
  982MOL0     C35413   9.115   3.304  -0.814  0.2067 -0.4746 -1.1676
  982MOL0     O35414   9.111   3.184  -0.875 -0.6620  0.6580 -0.1521
  982MOL0     C35415   9.135   3.060  -0.807 -0.2854  0.0948  0.4234
  982MOL0     C35416   9.086   2.926  -0.881 -0.1895 -0.1601  0.0758
  982MOL0     C35417   8.941   2.891  -0.864  0.3577 -0.8556 -0.7532
  982MOL0     C35418   8.907   2.744  -0.892  0.3010 -0.0973 -0.3441
  982MOL0     C35419   8.962   2.626  -0.804 -0.4806  0.4846 -0.2001
  982MOL0     C35420   8.933   2.492  -0.868 -0.1684  0.2095  0.4016
  982MOL0     C35421   8.983   2.383  -0.778 -0.4336 -0.4201  0.2870
  982MOL0     C35422   8.960   2.247  -0.832 -0.2928  0.3476  0.2749
  982MOL0    Cl35423   8.784   2.220  -0.853  0.1394 -0.0071 -0.4168
  982MOL0     C35424   9.106   3.329  -0.670  0.2902  0.8136  0.4165
  982MOL0     C35425   9.092   3.460  -0.621  0.0600 -1.1447  0.3946
  982MOL0     O35426   8.853   3.743  -0.734  0.9964  0.1260 -0.2146
  982MOL0     C35427   8.832   3.956  -0.571  1.1551  0.2716  0.0182
  982MOL0     C35428   8.823   4.070  -0.503  0.0069 -0.6020  0.6879
  982MOL0     N35429   8.413   4.577  -0.061  0.8304 -0.3601 -0.7834
  982MOL0     N35430   8.297   4.641  -0.062 -0.0661 -0.5118  0.9325
  982MOL0     C35431   7.162   4.568   0.578 -0.3856 -0.3632  0.1729
  982MOL0     C35432   7.044   4.545   0.659 -0.8599 -0.1377 -0.5147
  982MOL0     C35433   6.644   4.541   0.857  0.0579  0.1179 -0.8719
  982MOL0     C35434   6.565   4.447   0.789  0.5130  0.1859  0.9547
  982MOL0     C35435   6.431   4.417   0.824 -0.4587 -0.0133  0.3014
  982MOL0     C35436   6.363   4.490   0.925 -0.3168  0.4217  1.2576
  982MOL0     O35437   6.233   4.463   0.969  0.2685  0.0551  0.1713
  982MOL0     C35438   6.206   4.326   1.000  0.1737 -0.1002  0.3133
  982MOL0     C35439   6.059   4.303   1.028 -0.0991  0.0288  0.0631
  982MOL0     C35440   5.973   4.311   0.897  0.1605 -0.6820 -0.1536
  982MOL0     C35441   5.820   4.317   0.918  0.1903 -1.2306 -0.0678
  982MOL0     C35442   5.774   4.188   0.968 -0.4537 -0.1329  0.4039
  982MOL0     C35443   5.739   4.076   1.003  0.1592  0.4747 -0.0647
  982MOL0     C35444   6.448   4.578   0.999  0.5101 -0.4731 -0.5576
  982MOL0     C35445   6.584   4.591   0.974 -0.6295 -0.6237 -0.6325
  982MOL0     C35446   6.658   4.674   1.069 -0.8763 -0.1013  0.0882
  982MOL0     H35447   6.818   4.725   0.495 -0.2948  0.5433  1.8115
  982MOL0     H35448   7.025   4.784   0.373 -0.1197  1.9665  0.8578
  982MOL0     H35449   7.293   4.507   0.317 -1.8573  1.2324 -2.5532
  982MOL0     H35450   7.424   4.576   0.423 -0.9024 -1.1805  0.7339
  982MOL0     H35451   7.350   4.658   0.136 -0.7440 -1.7386  0.8180
  982MOL0     H35452   7.462   4.759   0.238  1.2389  0.0533  2.0048
  982MOL0     H35453   7.590   4.504   0.254 -1.4334 -3.8810 -0.8371
  982MOL0     H35454   7.487   4.468   0.120  2.0661 -2.1312  0.5448
  982MOL0     H35455   7.564   4.664  -0.007  0.6236  3.2350  0.8881
  982MOL0     H35456   7.656   4.720   0.131  0.0360 -0.4874  1.0596
  982MOL0     H35457   7.716   4.451  -0.009 -0.2162 -0.6117  1.7612
  982MOL0     H35458   7.788   4.502   0.140  0.3434  1.9861  1.0276
  982MOL0     H35459   7.808   4.634  -0.139  0.1500 -1.6297  0.0740
  982MOL0     H35460   7.881   4.711   0.003  0.3926  0.6263 -0.6597
  982MOL0     H35461   7.943   4.421  -0.067  0.2433 -0.3902  1.8185
  982MOL0     H35462   8.023   4.515   0.052 -0.7904  1.5427 -0.1496
  982MOL0     H35463   8.043   4.549  -0.245  1.5826 -0.6403  1.3582
  982MOL0     H35464   8.061   4.690  -0.131  4.2519  0.3894  0.3780
  982MOL0     H35465   8.234   4.358  -0.216 -0.7141  1.0269 -0.1520
  982MOL0     H35466   8.457   4.258  -0.177 -1.2172  0.0852  0.3186
  982MOL0     H35467   8.549   4.323  -0.042  1.1767  1.0133  0.3059
  982MOL0     H35468   8.549   4.390  -0.344  2.0573  1.8055 -0.8664
  982MOL0     H35469   8.638   4.493  -0.228  0.1582  0.1227  0.0580
  982MOL0     H35470   8.777   4.306  -0.165  0.3699 -2.9227  0.9400
  982MOL0     H35471   8.691   4.198  -0.283 -0.9765  0.4457 -0.6676
  982MOL0     H35472   8.750   4.342  -0.471  0.7076  1.4679 -0.0640
  982MOL0     H35473   8.823   4.454  -0.376  2.4522 -0.2726 -5.3331
  982MOL0     H35474   9.145   4.136  -0.431  0.7196  0.7817 -2.4927
  982MOL0     H35475   9.239   3.842  -0.491 -0.2594 -0.2671 -0.2268
  982MOL0     H35476   9.286   4.006  -0.566  3.1866 -2.5834  1.3737
  982MOL0     H35477   9.240   3.878  -0.659  0.0450  1.4793 -1.6985
  982MOL0     H35478   9.079   3.636  -0.917 -1.5972 -0.4066 -0.5377
  982MOL0     H35479   9.129   3.406  -1.006  3.7933  0.7563 -0.6241
  982MOL0     H35480   9.243   3.041  -0.799 -0.7052 -3.4369 -0.4365
  982MOL0     H35481   9.066   3.056  -0.722 -1.5414  1.2247 -0.5251
  982MOL0     H35482   9.094   2.945  -0.988 -1.7825  1.8737  0.2672
  982MOL0     H35483   9.157   2.849  -0.849  1.1159 -0.3265 -2.9454
  982MOL0     H35484   8.878   2.946  -0.935 -1.5653  1.0431  2.1940
  982MOL0     H35485   8.914   2.906  -0.759  1.6795 -3.2139 -0.0092
  982MOL0     H35486   8.935   2.728  -0.997 -1.4978  1.3428 -1.1014
  982MOL0     H35487   8.800   2.728  -0.881  0.0448  1.0901 -1.0197
  982MOL0     H35488   9.067   2.655  -0.794  0.7407 -2.5960 -2.4857
  982MOL0     H35489   8.918   2.630  -0.704 -0.2627 -1.6934  0.0324
  982MOL0     H35490   8.977   2.497  -0.968 -0.5447  1.5545  0.2879
  982MOL0     H35491   8.825   2.479  -0.884  0.0089  0.6609 -1.3705
  982MOL0     H35492   8.929   2.377  -0.683 -1.0920 -0.7936 -0.0999
  982MOL0     H35493   9.091   2.394  -0.765 -0.4581 -0.2092  0.3208
  982MOL0     H35494   8.992   2.168  -0.764  1.1663 -0.2359 -1.0423
  982MOL0     H35495   9.014   2.238  -0.926  1.0070  0.6951  0.9687
  982MOL0     H35496   9.095   3.245  -0.602 -1.1289 -1.7144 -2.6441
  982MOL0     H35497   9.075   3.479  -0.516  1.1814  3.1582 -0.0093
  982MOL0     H35498   8.738   3.918  -0.609  1.3641  0.5214 -0.7848
  982MOL0     H35499   8.721   4.104  -0.488  0.4468  1.9735 -1.3618
  982MOL0     H35500   7.254   4.515   0.600  0.2341  0.7044  0.2695
  982MOL0     H35501   7.037   4.487   0.751  1.0930 -1.8171 -1.3339
  982MOL0     H35502   6.609   4.389   0.709  2.8040  0.0469  2.2290
  982MOL0     H35503   6.381   4.331   0.780  0.1232 -0.1857 -0.0409
  982MOL0     H35504   6.228   4.254   0.921 -0.5700  0.7745 -0.7041
  982MOL0     H35505   6.263   4.294   1.088  3.3087  0.2911 -1.4454
  982MOL0     H35506   6.032   4.382   1.098 -3.5550 -0.9180  0.0071
  982MOL0     H35507   6.044   4.205   1.075  0.9713  0.2654  0.9217
  982MOL0     H35508   5.996   4.410   0.858  0.2965 -0.7669 -0.2896
  982MOL0     H35509   6.004   4.232   0.828  0.6086  0.7204 -1.6215
  982MOL0     H35510   5.764   4.337   0.826 -3.1509  3.1893  2.5448
  982MOL0     H35511   5.799   4.401   0.985  4.7051  1.7853 -1.8632
  982MOL0     H35512   5.720   3.979   1.045 -0.3719  1.1316  1.2762
  982MOL0     H35513   6.403   4.630   1.084  0.4191 -2.4460  0.6722
  982MOL0     H35514   6.710   4.757   1.020  0.6808  0.1457  2.0194
  982MOL0     H35515   6.607   4.718   1.155  0.8127 -0.9918  1.6054
  982MOL0     H35516   6.752   4.629   1.102 -0.2175  1.0589 -0.1507
  983MOL0     O35517   4.195  11.084   8.202  0.5903  0.0194  0.2669
  983MOL0     C35518   4.151  11.183   8.261  0.1855 -0.6751 -0.6853
  983MOL0     O35519   4.024  11.227   8.244  0.0906  0.1117 -0.1539
  983MOL0     C35520   3.945  11.165   8.156 -0.9644 -0.7604 -0.0135
  983MOL0     C35521   3.969  11.164   8.019  0.7816  0.2508 -0.2852
  983MOL0     C35522   3.872  11.102   7.934  1.0392 -0.1270  0.1312
  983MOL0     C35523   3.747  11.060   7.978  0.6034  0.0724  0.3339
  983MOL0     O35524   3.658  11.015   7.886  0.3494  0.1468  0.1067
  983MOL0     C35525   3.516  11.005   7.925  0.0094  0.3782  0.6712
  983MOL0     C35526   3.458  10.947   7.797  1.0036 -0.2272 -0.5634
  983MOL0     C35527   3.305  10.939   7.812 -0.1923 -0.4869  0.4040
  983MOL0     C35528   3.237  10.986   7.687  0.2693  0.2210  0.2655
  983MOL0     C35529   3.086  10.972   7.698  0.0346 -0.0426 -0.3920
  983MOL0     C35530   3.025  10.980   7.552 -0.0713 -0.4034  0.3999
  983MOL0     C35531   2.875  10.940   7.559 -0.8548 -0.3617 -0.9953
  983MOL0     C35532   2.804  10.922   7.423  0.3132  0.3604  0.3263
  983MOL0     N35533   2.661  10.904   7.435 -0.0619 -0.2008 -0.2405
  983MOL0     C35534   2.576  11.003   7.399 -0.3111 -0.0725 -0.0497
  983MOL0     C35535   2.454  10.961   7.437  0.3923  0.5663  0.0432
  983MOL0     C35536   2.322  11.034   7.413  0.7966 -0.5816  0.3744
  983MOL0     C35537   2.254  11.065   7.545  0.5880  0.1043 -0.2261
  983MOL0     C35538   2.337  11.170   7.633  0.4241  0.1825  0.3271
  983MOL0     C35539   2.427  11.100   7.742 -0.0249 -0.2206  0.4791
  983MOL0     O35540   2.486  11.212   7.824  0.3411  0.4621  0.4144
  983MOL0     C35541   2.609  11.200   7.879  1.4139 -0.2263  0.2699
  983MOL0     C35542   2.690  11.079   7.889  0.1989 -1.2522  0.9159
  983MOL0     C35543   2.817  11.082   7.954 -0.3101  1.1717 -0.3776
  983MOL0     C35544   2.883  10.948   7.978  0.2321  0.2120 -0.8875
  983MOL0     C35545   2.869  11.202   7.989 -0.0222 -0.1718  1.0492
  983MOL0     C35546   3.002  11.200   8.056 -0.5363  0.4404 -0.6678
  983MOL0     O35547   3.005  11.257   8.181  0.4443  0.4632 -0.0528
  983MOL0     C35548   3.116  11.319   8.236 -1.1267  0.4680  0.8859
  983MOL0     C35549   3.125  11.318   8.372  0.0882 -0.3859  0.3822
  983MOL0     C35550   3.232  11.387   8.437  0.2286 -0.0932 -1.1104
  983MOL0     C35551   3.337  11.453   8.364  0.6803  0.3811  0.0698
  983MOL0     O35552   3.445  11.491   8.435  0.1953  0.5435 -0.3213
  983MOL0     C35553   3.473  11.631   8.416  0.0873  0.6636 -0.2521
  983MOL0     C35554   3.521  11.702   8.548 -0.2224  0.8136  0.4373
  983MOL0     C35555   3.425  11.655   8.656 -0.0142  0.7598  0.2105
  983MOL0     C35556   3.441  11.746   8.773  0.3335  0.2823 -0.8762
  983MOL0     C35557   3.576  11.735   8.839  0.1652 -0.3501  0.1251
  983MOL0     C35558   3.624  11.591   8.876 -0.0894 -0.1801 -0.0732
  983MOL0     C35559   3.774  11.564   8.889 -0.0553 -0.5056 -0.3865
  983MOL0     C35560   3.852  11.559   8.761 -0.3844 -0.7261  1.2038
  983MOL0    Cl35561   4.024  11.502   8.796 -0.5171 -0.4784  0.0043
  983MOL0     C35562   3.318  11.459   8.224  0.1974 -0.1863 -0.3078
  983MOL0     C35563   3.207  11.396   8.161 -0.5026 -0.3024 -0.6880
  983MOL0     O35564   3.098  11.177   7.986  0.2157 -0.1826 -0.3307
  983MOL0     C35565   2.800  11.324   7.967  0.4206 -0.4824 -0.9446
  983MOL0     C35566   2.665  11.318   7.918 -0.3678 -0.3107  0.2188
  983MOL0     N35567   2.466  10.839   7.501 -0.5773 -0.4497 -0.2251
  983MOL0     N35568   2.592  10.807   7.498  0.2659  0.0140 -0.1133
  983MOL0     C35569   3.721  11.080   8.117  0.6611 -0.4336 -0.1676
  983MOL0     C35570   3.822  11.129   8.203  1.0083 -0.3813 -0.0986
  983MOL0     C35571   4.234  11.258   8.364  0.0240  0.2058  0.1459
  983MOL0     C35572   4.175  11.362   8.443 -0.7923  0.6802  0.8508
  983MOL0     C35573   4.257  11.446   8.514 -0.4639 -0.0732  1.0025
  983MOL0     C35574   4.395  11.426   8.525 -0.2364 -0.3161 -0.9157
  983MOL0     O35575   4.474  11.516   8.590 -0.1424  0.0829  0.4376
  983MOL0     C35576   4.439  11.655   8.613  1.2405  0.6322 -0.2857
  983MOL0     C35577   4.560  11.712   8.686  0.0348  1.0490  0.2412
  983MOL0     C35578   4.665  11.765   8.588  0.0586  0.0011  0.3748
  983MOL0     C35579   4.805  11.776   8.658  0.3476 -0.7695  0.1068
  983MOL0     C35580   4.894  11.845   8.560  0.6079  0.5998 -0.6887
  983MOL0     C35581   4.966  11.902   8.481 -0.6380  0.1740  0.2161
  983MOL0     C35582   4.446  11.311   8.468  0.2538  0.3768  0.9832
  983MOL0     C35583   4.371  11.230   8.381  0.0814  0.3346 -0.8189
  983MOL0     C35584   4.450  11.133   8.302  0.4819  0.3338  0.5741
  983MOL0     H35585   4.063  11.199   7.978  0.8606  0.2720 -0.0860
  983MOL0     H35586   3.901  11.089   7.830  1.8437  0.6283  0.2500
  983MOL0     H35587   3.472  11.104   7.939  0.4032  0.3780  2.0192
  983MOL0     H35588   3.493  10.939   8.009 -1.6215 -0.0417 -0.0691
  983MOL0     H35589   3.491  11.012   7.715 -0.5596  0.2641 -0.8233
  983MOL0     H35590   3.498  10.847   7.780 -1.8084 -1.5455  0.0186
  983MOL0     H35591   3.279  10.833   7.818 -0.9083 -0.4210 -1.2353
  983MOL0     H35592   3.263  10.977   7.906 -1.9518 -4.0552  1.2294
  983MOL0     H35593   3.259  11.090   7.664  1.0842 -0.1546 -0.7182
  983MOL0     H35594   3.264  10.935   7.594  0.3688 -1.6908  1.2790
  983MOL0     H35595   3.045  11.049   7.763  1.7045  0.1387  0.5051
  983MOL0     H35596   3.068  10.868   7.726 -1.8832 -0.0988 -1.6406
  983MOL0     H35597   3.041  11.083   7.518 -3.2980  0.2240  0.4829
  983MOL0     H35598   3.067  10.916   7.474  1.4822 -0.0601  0.9257
  983MOL0     H35599   2.824  11.014   7.621  0.3708  0.7595 -1.3041
  983MOL0     H35600   2.856  10.845   7.612 -1.6265 -0.1238 -0.8241
  983MOL0     H35601   2.820  11.015   7.368  2.0729 -1.2718 -2.1054
  983MOL0     H35602   2.837  10.828   7.380 -0.5257 -0.1057  0.6787
  983MOL0     H35603   2.597  11.098   7.351  0.8411  0.3346  1.2088
  983MOL0     H35604   2.262  10.980   7.339  2.0064  1.8481 -2.5597
  983MOL0     H35605   2.352  11.135   7.384 -2.0980  0.1323 -0.4407
  983MOL0     H35606   2.152  11.099   7.526  0.1464 -2.1515 -2.5684
  983MOL0     H35607   2.228  10.976   7.602 -3.0606  1.3616  0.2906
  983MOL0     H35608   2.392  11.239   7.568 -1.7774  1.7578  0.0282
  983MOL0     H35609   2.272  11.231   7.697  2.6367 -0.0185  2.9155
  983MOL0     H35610   2.369  11.035   7.808 -0.8498  1.4311  1.4623
  983MOL0     H35611   2.500  11.039   7.687 -0.1789 -1.2047  1.3503
  983MOL0     H35612   2.650  10.980   7.868 -1.2423 -0.4219 -0.5418
  983MOL0     H35613   2.969  10.961   8.045 -0.7872  3.6576 -0.0496
  983MOL0     H35614   2.921  10.913   7.882  1.8048 -1.2225  0.1973
  983MOL0     H35615   2.819  10.871   8.021 -1.6857  1.5303 -1.2660
  983MOL0     H35616   3.039  11.289   8.431 -0.3185  0.7763  0.3823
  983MOL0     H35617   3.236  11.384   8.545  0.3135 -0.7701 -1.1283
  983MOL0     H35618   3.562  11.642   8.353  1.2838  1.4627  1.5118
  983MOL0     H35619   3.387  11.689   8.378 -0.0280  0.7144  0.0863
  983MOL0     H35620   3.625  11.677   8.573 -0.5531 -1.2804 -0.1056
  983MOL0     H35621   3.521  11.810   8.532  2.1901  0.7243 -0.6248
  983MOL0     H35622   3.443  11.551   8.687  0.8067  1.2268  1.3790
  983MOL0     H35623   3.318  11.654   8.631 -0.5513 -1.2505  2.2787
  983MOL0     H35624   3.366  11.725   8.850  1.8016 -3.0573 -0.1760
  983MOL0     H35625   3.425  11.850   8.745 -0.0385  0.3951 -0.2498
  983MOL0     H35626   3.649  11.791   8.780 -0.4825  1.6405  1.1162
  983MOL0     H35627   3.575  11.790   8.934 -2.0979  1.7362 -1.0180
  983MOL0     H35628   3.598  11.521   8.796  0.8288 -0.6932  0.0624
  983MOL0     H35629   3.560  11.545   8.952  0.4153 -4.0464 -1.7174
  983MOL0     H35630   3.792  11.463   8.926 -0.6298 -1.2720 -2.1099
  983MOL0     H35631   3.819  11.640   8.953 -1.6873 -0.7754  1.1563
  983MOL0     H35632   3.851  11.661   8.722  5.1060  0.4986  3.4112
  983MOL0     H35633   3.810  11.492   8.685 -2.9537  0.4559  1.4902
  983MOL0     H35634   3.390  11.513   8.165  0.1907 -0.2892 -0.4111
  983MOL0     H35635   3.193  11.408   8.054 -4.0724  1.9485 -0.1436
  983MOL0     H35636   2.847  11.416   8.000  0.0820 -0.6460  0.0647
  983MOL0     H35637   2.595  11.400   7.908  0.1800  0.0754 -0.5507
  983MOL0     H35638   3.625  11.057   8.164 -0.0772 -0.4717 -1.6531
  983MOL0     H35639   3.792  11.152   8.305  0.7534 -0.4727 -0.1524
  983MOL0     H35640   4.069  11.380   8.436 -0.7784  0.9992  1.4149
  983MOL0     H35641   4.199  11.521   8.567  0.1498  1.0470  0.1319
  983MOL0     H35642   4.407  11.710   8.524  3.9524  1.1605 -1.0253
  983MOL0     H35643   4.362  11.651   8.691  1.1268 -0.0076 -0.4293
  983MOL0     H35644   4.601  11.633   8.749 -0.2769  0.3385 -0.4399
  983MOL0     H35645   4.528  11.796   8.748 -2.7795  0.5083 -0.3503
  983MOL0     H35646   4.673  11.697   8.503 -2.0329 -1.1021  0.9888
  983MOL0     H35647   4.638  11.861   8.541 -3.4165 -1.4572 -0.9892
  983MOL0     H35648   4.843  11.679   8.689 -0.0903 -0.0724  3.1942
  983MOL0     H35649   4.801  11.833   8.751 -2.0753 -2.7735  1.3482
  983MOL0     H35650   5.028  11.939   8.403 -0.2197  0.8667  0.8618
  983MOL0     H35651   4.552  11.301   8.489  0.4576 -0.5263 -0.3662
  983MOL0     H35652   4.452  11.160   8.196 -0.4558 -0.7735  0.2438
  983MOL0     H35653   4.548  11.124   8.348  1.2326 -2.1708 -1.2439
  983MOL0     H35654   4.414  11.030   8.309  0.8761  0.1047 -0.5207
  984MOL0     O35655  10.876   5.039   1.543  0.0999 -0.3584  0.4383
  984MOL0     C35656  10.962   4.984   1.610  0.3116  0.1800 -0.5197
  984MOL0     O35657  11.084   5.036   1.643 -0.7694 -0.2386  0.0588
  984MOL0     C35658  11.138   5.118   1.541 -0.0860 -0.3379  0.3210
  984MOL0     C35659  11.190   5.063   1.418  0.0355 -0.1464 -0.4372
  984MOL0     C35660  11.240   5.147   1.319 -0.1517  1.2255 -0.0114
  984MOL0     C35661  11.250   5.286   1.350 -0.3164  0.4617  0.1731
  984MOL0     O35662  11.297   5.374   1.247  0.2671  0.0444 -0.3720
  984MOL0     C35663  11.313   5.512   1.275  0.2770  1.4239  0.3615
  984MOL0     C35664  11.392   5.573   1.164 -0.2231 -0.3945 -0.8621
  984MOL0     C35665  11.452   5.708   1.208 -1.0630 -1.1205  0.0978
  984MOL0     C35666  11.562   5.691   1.313  0.2547 -0.1004  0.3720
  984MOL0     C35667  11.652   5.818   1.314  0.5268 -0.6415 -0.6236
  984MOL0     C35668  11.681   5.862   1.456  0.0536  0.3708 -0.8107
  984MOL0     C35669  11.761   5.997   1.459 -0.4206  0.5870 -0.1208
  984MOL0     C35670  11.820   6.036   1.593  0.0987 -0.0547  0.4973
  984MOL0     N35671  11.921   5.946   1.644  0.6684 -0.2028  0.4094
  984MOL0     C35672  12.049   5.918   1.598 -0.0930 -1.8706 -0.1020
  984MOL0     C35673  12.084   5.812   1.661 -0.6640  0.6650  0.9310
  984MOL0     C35674  12.199   5.724   1.628  0.4583  0.2691  0.7058
  984MOL0     C35675  12.331   5.805   1.630 -0.3027 -0.5879 -0.2926
  984MOL0     C35676  12.443   5.695   1.604 -0.3020 -0.0459 -0.8807
  984MOL0     C35677  12.591   5.761   1.584 -0.0391 -0.1505 -0.3342
  984MOL0     O35678  12.688   5.656   1.593  0.0870 -0.2527 -0.1977
  984MOL0     C35679  12.824   5.689   1.603  0.4964  0.6001 -0.0810
  984MOL0     C35680  12.881   5.821   1.607 -0.0755  0.7717  0.0735
  984MOL0     C35681  13.021   5.846   1.615  0.0799 -0.9653 -0.2314
  984MOL0     C35682  13.068   5.988   1.631  0.8105 -1.0766  0.7519
  984MOL0     C35683  13.112   5.739   1.619  1.0161  0.8138  0.0537
  984MOL0     C35684  13.254   5.742   1.611  1.0617  0.7329 -0.7219
  984MOL0     O35685  13.311   5.632   1.580  0.0815  0.5009  0.5444
  984MOL0     C35686  13.448   5.620   1.601  0.6931  0.4400 -0.0055
  984MOL0     C35687  13.497   5.503   1.656  0.7833 -0.8148  0.4582
  984MOL0     C35688  13.630   5.487   1.667 -0.2714 -0.3196 -0.3067
  984MOL0     C35689  13.720   5.591   1.649  0.0017 -0.6508  0.0949
  984MOL0     O35690  13.857   5.578   1.668 -0.4462  0.1886 -0.1961
  984MOL0     C35691  13.901   5.518   1.791 -0.3655 -0.3547 -0.4466
  984MOL0     C35692  14.048   5.547   1.818  0.5061 -1.1010 -0.3141
  984MOL0     C35693  14.085   5.697   1.824  0.5038 -0.1566  0.7144
  984MOL0     C35694  14.227   5.708   1.864 -1.1164 -0.6675  0.0036
  984MOL0     C35695  14.262   5.841   1.927  0.9622  0.5256 -0.2137
  984MOL0     C35696  14.286   5.968   1.837 -0.1322 -0.2418  0.5032
  984MOL0     C35697  14.327   6.097   1.915  0.0572 -0.3220  0.0453
  984MOL0     C35698  14.450   6.078   2.006  0.2580 -0.1102  0.2765
  984MOL0    Cl35699  14.601   6.033   1.906  0.2097  0.4111 -0.2888
  984MOL0     C35700  13.681   5.714   1.591 -0.2417  0.2158  0.0478
  984MOL0     C35701  13.543   5.721   1.565 -0.0232  0.5328 -0.0790
  984MOL0     O35702  13.306   5.850   1.642  0.4334 -0.7381  0.2239
  984MOL0     C35703  13.052   5.609   1.623  0.6761 -0.2783 -0.8435
  984MOL0     C35704  12.917   5.583   1.620 -0.5009  0.6199  0.4589
  984MOL0     N35705  11.980   5.767   1.743 -0.1904 -0.4702 -0.2856
  984MOL0     N35706  11.880   5.846   1.729 -0.3976  0.3304  0.1005
  984MOL0     C35707  11.184   5.338   1.466 -0.9279 -0.3877  0.5648
  984MOL0     C35708  11.121   5.254   1.553  0.6355 -0.0444  0.3574
  984MOL0     C35709  10.920   4.859   1.679 -0.2190  0.6081 -0.6829
  984MOL0     C35710  10.797   4.862   1.742  0.4278  0.1785 -0.1308
  984MOL0     C35711  10.742   4.748   1.803  0.2688 -0.3124  0.1913
  984MOL0     C35712  10.806   4.626   1.794 -0.0691  0.8737  0.1596
  984MOL0     O35713  10.730   4.518   1.839  0.1634  0.5885  0.3643
  984MOL0     C35714  10.798   4.392   1.859 -0.3037 -1.0027  0.2881
  984MOL0     C35715  10.716   4.277   1.924 -0.2154 -0.3783 -0.1413
  984MOL0     C35716  10.604   4.242   1.821  0.2144  0.3195  0.0361
  984MOL0     C35717  10.525   4.132   1.881  0.3575  0.7788  0.3984
  984MOL0     C35718  10.586   4.009   1.929  0.6280 -0.8683 -1.4211
  984MOL0     C35719  10.648   3.907   1.966  0.0885  0.7091  0.9634
  984MOL0     C35720  10.934   4.621   1.733  0.4217  0.1900 -0.8112
  984MOL0     C35721  11.000   4.739   1.678 -0.4701 -0.8140  0.6166
  984MOL0     C35722  11.128   4.732   1.597  0.2100 -0.2348 -0.6107
  984MOL0     H35723  11.185   4.955   1.409  2.4452 -0.3034 -0.4982
  984MOL0     H35724  11.258   5.110   1.219 -5.0947 -0.0460 -0.7069
  984MOL0     H35725  11.357   5.528   1.374 -1.6967  1.7202  1.2357
  984MOL0     H35726  11.216   5.562   1.277 -1.5126 -1.5128 -2.7122
  984MOL0     H35727  11.477   5.514   1.129  2.0841  2.2845 -0.1548
  984MOL0     H35728  11.317   5.596   1.087 -1.8969  1.9802  1.3030
  984MOL0     H35729  11.490   5.761   1.120 -1.6299  1.4503  1.3306
  984MOL0     H35730  11.374   5.775   1.245  0.0410 -0.2487  0.9206
  984MOL0     H35731  11.512   5.667   1.408 -0.0929 -0.8811  0.0058
  984MOL0     H35732  11.620   5.601   1.288 -1.0445 -0.4715 -1.5431
  984MOL0     H35733  11.591   5.893   1.260 -0.2809 -0.6146  0.3016
  984MOL0     H35734  11.740   5.789   1.255  0.8654 -2.2425  0.6234
  984MOL0     H35735  11.586   5.874   1.509 -0.6965  0.6252 -2.1670
  984MOL0     H35736  11.737   5.777   1.498 -0.1765  0.2922 -0.6562
  984MOL0     H35737  11.694   6.075   1.421 -0.2338  1.1105  0.5872
  984MOL0     H35738  11.844   5.991   1.388 -1.4361 -0.7020 -1.2424
  984MOL0     H35739  11.864   6.135   1.576 -0.4888 -0.1614 -2.1177
  984MOL0     H35740  11.737   6.040   1.665 -0.3718 -1.8279  0.1100
  984MOL0     H35741  12.102   5.976   1.523 -3.1040 -0.6543 -1.4656
  984MOL0     H35742  12.177   5.680   1.530 -2.3867  0.5758  1.1097
  984MOL0     H35743  12.199   5.643   1.701  0.0941  0.3613  0.8136
  984MOL0     H35744  12.337   5.886   1.556  1.8368  0.6152  1.0906
  984MOL0     H35745  12.341   5.844   1.732 -0.2799 -3.3923  0.8533
  984MOL0     H35746  12.451   5.635   1.695 -0.7749  0.7687 -0.2905
  984MOL0     H35747  12.418   5.640   1.513  1.0035  1.2548 -2.0622
  984MOL0     H35748  12.609   5.810   1.488 -1.2743  0.7991 -0.1049
  984MOL0     H35749  12.616   5.830   1.665  0.8868 -0.3115 -0.4784
  984MOL0     H35750  12.809   5.901   1.623 -2.0098 -0.9980  0.6659
  984MOL0     H35751  13.114   6.004   1.729 -0.3075 -0.3530  1.1853
  984MOL0     H35752  12.981   6.055   1.624 -0.0197 -2.2942 -3.8764
  984MOL0     H35753  13.137   6.016   1.551 -0.7164 -2.3362 -1.0914
  984MOL0     H35754  13.421   5.427   1.674  0.7301 -1.1316 -0.9933
  984MOL0     H35755  13.664   5.394   1.711  3.0286 -0.6275 -3.0487
  984MOL0     H35756  13.849   5.560   1.877  0.6804 -0.1243  0.0968
  984MOL0     H35757  13.881   5.412   1.774 -2.7087  0.3695 -2.8798
  984MOL0     H35758  14.068   5.494   1.912 -0.9868 -0.6422  0.2974
  984MOL0     H35759  14.101   5.500   1.735 -1.7058  0.6671 -2.8849
  984MOL0     H35760  14.019   5.751   1.893  2.4764  1.5694  1.3721
  984MOL0     H35761  14.056   5.735   1.726  0.7648 -2.7957 -0.4751
  984MOL0     H35762  14.295   5.689   1.781  0.9187  1.4781  1.0813
  984MOL0     H35763  14.248   5.636   1.944  2.2914  0.6022  0.4020
  984MOL0     H35764  14.188   5.868   2.003 -0.6962 -0.2319 -1.5022
  984MOL0     H35765  14.358   5.823   1.977  0.2205  0.3403  1.1960
  984MOL0     H35766  14.193   5.989   1.784  0.3493  1.5856  0.3264
  984MOL0     H35767  14.370   5.959   1.768 -1.9509  0.7395 -1.9701
  984MOL0     H35768  14.249   6.128   1.985  1.4256 -1.4753  2.2227
  984MOL0     H35769  14.345   6.183   1.850  0.5742  1.0227  1.8640
  984MOL0     H35770  14.421   6.004   2.081 -2.2301 -1.0143 -1.4503
  984MOL0     H35771  14.471   6.174   2.055  1.8297 -1.2142  1.8796
  984MOL0     H35772  13.745   5.796   1.560 -0.4844  0.7276  0.8745
  984MOL0     H35773  13.516   5.819   1.528 -0.0883  0.9062  0.9122
  984MOL0     H35774  13.110   5.518   1.625 -2.8790 -2.7188  0.7718
  984MOL0     H35775  12.884   5.480   1.629  0.4545  0.4226  1.8414
  984MOL0     H35776  11.174   5.443   1.489 -2.1578 -0.5909  1.0031
  984MOL0     H35777  11.064   5.289   1.638  0.2005 -1.3410  0.6207
  984MOL0     H35778  10.738   4.953   1.747 -0.4787 -0.4293  0.4647
  984MOL0     H35779  10.645   4.747   1.852  1.0539  2.6557  2.1137
  984MOL0     H35780  10.844   4.364   1.763 -0.5578  1.4094 -0.5863
  984MOL0     H35781  10.882   4.416   1.925  1.1570  2.4180 -2.4646
  984MOL0     H35782  10.669   4.329   2.008  1.3437  2.1465 -0.7377
  984MOL0     H35783  10.780   4.192   1.951  0.4891  0.3837  0.6612
  984MOL0     H35784  10.540   4.326   1.793  0.8776  0.5581 -0.8129
  984MOL0     H35785  10.661   4.208   1.734  2.6513 -0.5105  1.8594
  984MOL0     H35786  10.463   4.088   1.803  2.8683 -0.7638 -0.8302
  984MOL0     H35787  10.457   4.177   1.955  0.3056  2.1892 -0.4667
  984MOL0     H35788  10.719   3.829   1.983 -0.1859  0.2937  0.2243
  984MOL0     H35789  10.982   4.524   1.722 -0.2474 -0.2646  0.1912
  984MOL0     H35790  11.205   4.768   1.666 -0.6538 -2.2529  1.5387
  984MOL0     H35791  11.148   4.630   1.561  0.8220  0.4390 -2.3106
  984MOL0     H35792  11.138   4.797   1.510  0.6441 -0.0756 -0.4470
  985MOL0     O35793   8.241   8.446  10.698  0.5545 -0.2576  0.6959
  985MOL0     C35794   8.187   8.552  10.717 -0.0064 -0.4350  0.5272
  985MOL0     O35795   8.251   8.666  10.762 -0.3316  0.3205 -0.0253
  985MOL0     C35796   8.381   8.670  10.805  0.2098 -0.2078 -0.5337
  985MOL0     C35797   8.461   8.563  10.859  0.5816  0.5845  0.4997
  985MOL0     C35798   8.594   8.581  10.903 -0.0971 -0.9087  0.5710
  985MOL0     C35799   8.645   8.708  10.898  0.2511 -0.2431  0.5266
  985MOL0     O35800   8.778   8.736  10.932  0.2229  0.6005 -0.7888
  985MOL0     C35801   8.832   8.864  10.978 -0.8555  0.6240  0.4810
  985MOL0     C35802   8.980   8.844  11.005 -0.2702  0.2236 -0.4111
  985MOL0     C35803   9.063   8.853  10.879  0.8967 -0.4812  0.2633
  985MOL0     C35804   9.205   8.822  10.897 -0.6397  0.1417  0.0659
  985MOL0     C35805   9.290   8.851  10.769  0.3727  0.2617  0.6624
  985MOL0     C35806   9.433   8.808  10.793  0.5496  0.4614  0.1182
  985MOL0     C35807   9.520   8.833  10.679 -0.4439  0.5652  1.2481
  985MOL0     C35808   9.575   8.978  10.658  0.0499  0.1158 -0.2982
  985MOL0     N35809   9.699   9.018  10.731  0.7857  0.1507 -0.0096
  985MOL0     C35810   9.700   9.050  10.859 -0.5181 -0.8206 -0.9685
  985MOL0     C35811   9.827   9.093  10.883  0.1467 -0.1657  0.1233
  985MOL0     C35812   9.884   9.137  11.015  0.0776 -0.0417 -0.5006
  985MOL0     C35813   9.974   9.257  11.010 -0.0227 -0.2731 -0.3057
  985MOL0     C35814  10.002   9.314  11.150 -0.2642 -0.7405 -0.3403
  985MOL0     C35815   9.896   9.381  11.225 -0.4198 -0.1378 -0.2216
  985MOL0     O35816   9.860   9.511  11.187  0.5786  0.0223 -0.0020
  985MOL0     C35817   9.729   9.529  11.205  0.4498 -0.4524  0.1019
  985MOL0     C35818   9.686   9.651  11.137 -0.1643  0.0681 -0.2938
  985MOL0     C35819   9.555   9.709  11.155  0.0796  0.1692 -0.7825
  985MOL0     C35820   9.519   9.836  11.084  0.8716 -0.2631 -0.7475
  985MOL0     C35821   9.466   9.646  11.249  1.0502 -0.2636 -0.1018
  985MOL0     C35822   9.327   9.692  11.291  0.5536 -0.3375  0.8370
  985MOL0     O35823   9.279   9.800  11.225  0.4186 -0.2514 -0.4154
  985MOL0     C35824   9.153   9.850  11.231 -0.3840 -0.7165  0.4219
  985MOL0     C35825   9.066   9.852  11.334  0.0302 -0.0660  0.4485
  985MOL0     C35826   8.941   9.914  11.319  0.1706 -0.3701 -0.0759
  985MOL0     C35827   8.899   9.976  11.198 -0.3929 -0.2559 -0.3670
  985MOL0     O35828   8.766  10.015  11.185  0.0653  0.2070 -0.0469
  985MOL0     C35829   8.749  10.148  11.149 -0.1076 -1.3119 -0.2673
  985MOL0     C35830   8.609  10.184  11.197 -1.0517 -0.6794 -0.3195
  985MOL0     C35831   8.558  10.313  11.127 -0.4985  0.1718  0.2074
  985MOL0     C35832   8.542  10.310  10.978  1.4239  0.0391 -0.2730
  985MOL0     C35833   8.479  10.442  10.907 -0.5002  0.1906  0.1009
  985MOL0     C35834   8.529  10.459  10.758 -0.2644  0.0702 -0.0875
  985MOL0     C35835   8.470  10.360  10.656  0.3291 -0.3471 -0.1941
  985MOL0     C35836   8.488  10.414  10.516  0.2429  0.0187  1.0107
  985MOL0    Cl35837   8.669  10.435  10.490  0.0242 -0.2768 -0.0409
  985MOL0     C35838   8.999   9.987  11.099  0.9809 -0.5190  0.0120
  985MOL0     C35839   9.117   9.921  11.115  0.0376 -0.7416 -0.0513
  985MOL0     O35840   9.267   9.631  11.379  0.0398  0.6732  0.3851
  985MOL0     C35841   9.518   9.541  11.322 -0.2032 -0.6446  0.6534
  985MOL0     C35842   9.650   9.491  11.307 -0.3587  0.1086 -0.1490
  985MOL0     N35843   9.893   9.101  10.758 -0.3691 -0.5365  0.3952
  985MOL0     N35844   9.817   9.055  10.667  0.9143  0.3115 -0.0837
  985MOL0     C35845   8.566   8.817  10.843 -0.1006 -0.6434 -1.2936
  985MOL0     C35846   8.438   8.795  10.798 -0.2651 -0.1363  0.5942
  985MOL0     C35847   8.051   8.588  10.678  1.0596  0.4467  0.9917
  985MOL0     C35848   7.983   8.704  10.729  0.3723 -0.1655 -0.7547
  985MOL0     C35849   7.850   8.735  10.693 -0.5325  0.3504  0.8514
  985MOL0     C35850   7.788   8.660  10.596 -0.9657 -0.1723  0.2432
  985MOL0     O35851   7.664   8.712  10.551  0.1261  0.0905  0.1597
  985MOL0     C35852   7.576   8.634  10.463 -0.0791 -0.1503 -0.5730
  985MOL0     C35853   7.605   8.690  10.319  0.4407  0.3702 -0.4535
  985MOL0     C35854   7.506   8.634  10.213  0.4587 -0.4618  0.6121
  985MOL0     C35855   7.514   8.728  10.088  0.2235 -0.2053 -0.5846
  985MOL0     C35856   7.458   8.659   9.970  0.5666  0.1568  0.1983
  985MOL0     C35857   7.425   8.608   9.870  0.3752 -0.4887 -0.7558
  985MOL0     C35858   7.849   8.544  10.547  0.1978 -0.9082  0.2784
  985MOL0     C35859   7.971   8.496  10.598 -0.2884 -0.1501  0.0428
  985MOL0     C35860   8.027   8.367  10.534 -0.5152  0.4014  0.0853
  985MOL0     H35861   8.405   8.471  10.870 -1.0153  1.0306 -2.6415
  985MOL0     H35862   8.656   8.514  10.963  3.6453  1.2979 -0.4819
  985MOL0     H35863   8.788   8.887  11.075 -1.1457  0.2095  0.4519
  985MOL0     H35864   8.823   8.936  10.897 -0.9470  0.1096  0.0258
  985MOL0     H35865   9.018   8.902  11.090  0.8543 -2.6844  1.2349
  985MOL0     H35866   8.990   8.740  11.038  1.9483  0.0188 -1.5185
  985MOL0     H35867   9.024   8.779  10.810  1.0745  1.5360 -2.1522
  985MOL0     H35868   9.069   8.956  10.843  0.6708 -0.4286  0.3749
  985MOL0     H35869   9.240   8.889  10.976 -1.9561  1.3468 -0.3458
  985MOL0     H35870   9.215   8.716  10.924  0.3834  0.7524  2.3123
  985MOL0     H35871   9.282   8.957  10.742 -1.0865 -0.0192 -0.0891
  985MOL0     H35872   9.258   8.792  10.683  0.4204  2.1710 -0.7444
  985MOL0     H35873   9.473   8.862  10.880 -0.7026 -0.2771  1.1993
  985MOL0     H35874   9.442   8.702  10.822  2.6390  0.0948 -1.5997
  985MOL0     H35875   9.463   8.810  10.589 -1.4710  1.5093  1.6365
  985MOL0     H35876   9.606   8.766  10.673 -0.6061  0.3788  0.9783
  985MOL0     H35877   9.614   8.978  10.556 -1.1211 -1.9058 -0.8124
  985MOL0     H35878   9.489   9.045  10.666  0.0521 -0.0737  1.8299
  985MOL0     H35879   9.622   9.051  10.935  0.6800  1.9363  0.3473
  985MOL0     H35880   9.944   9.052  11.049  0.6792  1.1692  1.5991
  985MOL0     H35881   9.800   9.147  11.084 -0.7238 -0.8209 -1.3274
  985MOL0     H35882  10.060   9.224  10.950 -0.3209  0.5644 -1.2341
  985MOL0     H35883   9.918   9.329  10.948 -1.0240  1.4939  2.4712
  985MOL0     H35884  10.040   9.226  11.203  0.4770  0.5096  1.3179
  985MOL0     H35885  10.089   9.380  11.156  0.2880 -1.1951 -2.6098
  985MOL0     H35886   9.819   9.303  11.227  0.4420 -0.9961  1.0730
  985MOL0     H35887   9.937   9.388  11.326  0.8121  1.2690 -0.7986
  985MOL0     H35888   9.751   9.693  11.061 -0.1213 -0.0285 -0.3103
  985MOL0     H35889   9.601   9.885  11.030  0.0339  1.7575 -0.2830
  985MOL0     H35890   9.486   9.908  11.160  1.0710  1.5257 -2.2678
  985MOL0     H35891   9.439   9.823  11.011  1.3400  0.5926 -1.4390
  985MOL0     H35892   9.093   9.802  11.427 -1.1490 -0.5035  0.5672
  985MOL0     H35893   8.878   9.914  11.407  0.9005  0.5240  0.4712
  985MOL0     H35894   8.825  10.206  11.202  1.3400 -2.5717 -0.8537
  985MOL0     H35895   8.768  10.156  11.041 -0.9340  1.7541 -0.2732
  985MOL0     H35896   8.538  10.102  11.186 -0.8732 -0.8579 -0.1397
  985MOL0     H35897   8.619  10.210  11.303  1.8982  0.8234 -0.8789
  985MOL0     H35898   8.638  10.387  11.138 -0.1237  0.6975 -4.1526
  985MOL0     H35899   8.469  10.346  11.180  0.7437  0.8112  2.0170
  985MOL0     H35900   8.480  10.226  10.945  1.2201 -0.1407  0.5666
  985MOL0     H35901   8.643  10.291  10.939  1.8827 -0.0611  0.9162
  985MOL0     H35902   8.370  10.435  10.915 -0.6444  0.4190 -1.3047
  985MOL0     H35903   8.498  10.530  10.969 -1.0555 -0.9384  1.9477
  985MOL0     H35904   8.638  10.473  10.756 -0.5082  3.1682  1.3662
  985MOL0     H35905   8.496  10.560  10.733 -0.0858 -0.4733 -2.8211
  985MOL0     H35906   8.362  10.343  10.669  0.4135 -0.1663  0.7966
  985MOL0     H35907   8.513  10.260  10.665  0.9574  0.0104  0.8995
  985MOL0     H35908   8.426  10.502  10.496  0.2181  0.1184  1.5243
  985MOL0     H35909   8.448  10.333  10.454 -0.8803  0.1105  1.5988
  985MOL0     H35910   8.976  10.044  11.009  0.2512  1.4901  1.4164
  985MOL0     H35911   9.184   9.932  11.030 -0.3906  1.5275 -0.1388
  985MOL0     H35912   9.459   9.505  11.406  0.8324 -2.3011  0.7174
  985MOL0     H35913   9.682   9.418  11.380  0.8606  0.7105 -0.0502
  985MOL0     H35914   8.604   8.919  10.846 -2.2257  0.1926 -0.8630
  985MOL0     H35915   8.370   8.876  10.773  0.4331 -0.3048 -2.1330
  985MOL0     H35916   8.037   8.754  10.809 -1.2351  0.8548 -0.2618
  985MOL0     H35917   7.791   8.821  10.724 -0.2771  1.2763 -1.1255
  985MOL0     H35918   7.592   8.526  10.455 -1.6154 -0.2736 -3.2744
  985MOL0     H35919   7.473   8.653  10.493  0.4980  1.4660  0.5156
  985MOL0     H35920   7.712   8.671  10.305  1.2749  3.8135  0.2012
  985MOL0     H35921   7.592   8.799  10.316 -2.3140  0.0896 -1.5895
  985MOL0     H35922   7.555   8.542  10.182  0.3291  0.3329 -2.2120
  985MOL0     H35923   7.401   8.613  10.234  0.3526 -1.9544 -1.1262
  985MOL0     H35924   7.622   8.746  10.081  0.3866  0.2789  2.1645
  985MOL0     H35925   7.471   8.823  10.120  1.1940 -0.0208  0.2457
  985MOL0     H35926   7.385   8.548   9.792  2.4664 -0.8653 -1.5952
  985MOL0     H35927   7.799   8.480  10.474  0.8025  0.4752 -1.4389
  985MOL0     H35928   7.952   8.312  10.476 -0.8017 -0.1829  1.0038
  985MOL0     H35929   8.104   8.396  10.461  1.0521  0.4353  1.6898
  985MOL0     H35930   8.074   8.305  10.611 -0.1132 -0.5877 -0.9277
  986MOL0     O35931   6.895   3.211   9.970 -0.2879  0.1363 -0.1887
  986MOL0     C35932   6.816   3.193  10.072  0.0888 -0.0334  0.0289
  986MOL0     O35933   6.850   3.232  10.201  0.1684 -0.3668  0.4420
  986MOL0     C35934   6.945   3.323  10.227 -0.1291 -0.4359  0.3772
  986MOL0     C35935   6.925   3.394  10.344  0.3005 -0.9098  0.5224
  986MOL0     C35936   7.035   3.477  10.393  0.5701  0.5903  0.2108
  986MOL0     C35937   7.157   3.484  10.331 -0.5642  0.2997  0.8312
  986MOL0     O35938   7.265   3.556  10.379  0.6141 -0.1701 -0.2862
  986MOL0     C35939   7.348   3.482  10.458  0.1177  0.4659 -0.0057
  986MOL0     C35940   7.406   3.579  10.563 -1.1274  0.3751 -0.3242
  986MOL0     C35941   7.525   3.527  10.650 -0.8429  0.3808 -0.1214
  986MOL0     C35942   7.462   3.434  10.760  0.0029  0.7284  0.3194
  986MOL0     C35943   7.574   3.374  10.858 -1.2849 -0.5028  0.1183
  986MOL0     C35944   7.643   3.481  10.951  0.2813  0.0823  0.4136
  986MOL0     C35945   7.731   3.421  11.062 -0.4236  0.2874  0.3333
  986MOL0     C35946   7.862   3.396  11.005 -1.0159  0.8769  0.5300
  986MOL0     N35947   7.956   3.344  11.109 -0.7205 -0.0541  0.1840
  986MOL0     C35948   8.089   3.385  11.111  0.4492 -0.2609  0.9870
  986MOL0     C35949   8.137   3.353  11.226  0.1005  0.3789 -0.5151
  986MOL0     C35950   8.265   3.385  11.293 -0.2443 -0.3854  0.2611
  986MOL0     C35951   8.370   3.450  11.198 -0.1499  0.1873  0.4297
  986MOL0     C35952   8.483   3.525  11.273  0.9289  0.0140  0.6398
  986MOL0     C35953   8.558   3.431  11.367 -0.6119 -0.3733 -0.1828
  986MOL0     O35954   8.514   3.447  11.496  0.9029  0.0956 -0.1795
  986MOL0     C35955   8.567   3.540  11.582  0.3527 -0.0076 -0.4529
  986MOL0     C35956   8.485   3.621  11.661  1.3163  0.4447 -0.1941
  986MOL0     C35957   8.540   3.712  11.758  0.9517  0.5269  0.6974
  986MOL0     C35958   8.434   3.798  11.828  0.5560 -0.2481 -0.2711
  986MOL0     C35959   8.674   3.731  11.761 -0.1143 -0.1440  0.2472
  986MOL0     C35960   8.741   3.831  11.851  0.7461  0.4809 -0.3165
  986MOL0     O35961   8.851   3.891  11.802 -0.4982  1.2007  0.4742
  986MOL0     C35962   8.914   3.975  11.885  0.0692  0.1037 -0.0627
  986MOL0     C35963   9.024   3.922  11.948  0.2209 -0.5148 -0.6247
  986MOL0     C35964   9.096   3.997  12.041 -0.5113  0.4690 -0.2351
  986MOL0     C35965   9.054   4.124  12.081  0.7557 -0.3739 -0.1068
  986MOL0     O35966   9.139   4.191  12.165 -0.4002 -0.2324 -0.9760
  986MOL0     C35967   9.094   4.323  12.211  0.6728  0.5021 -0.4152
  986MOL0     C35968   9.190   4.386  12.310  0.0377  0.2573 -0.4393
  986MOL0     C35969   9.207   4.305  12.439  0.2715  0.3021  0.0778
  986MOL0     C35970   9.272   4.378  12.554 -0.2848  0.3579  0.6137
  986MOL0     C35971   9.349   4.278  12.642 -0.1247  0.0055 -0.2218
  986MOL0     C35972   9.401   4.354  12.764 -0.0449 -0.1094  0.5689
  986MOL0     C35973   9.452   4.263  12.880  0.0368 -0.8390 -0.0056
  986MOL0     C35974   9.586   4.199  12.831 -0.3348 -0.8253  0.8032
  986MOL0    Cl35975   9.715   4.327  12.820 -0.0902  0.0799  0.2114
  986MOL0     C35976   8.934   4.172  12.015  0.2929  0.2177 -0.1209
  986MOL0     C35977   8.873   4.101  11.914 -1.0728  0.0668 -0.3553
  986MOL0     O35978   8.705   3.827  11.973  0.3485  0.8506  0.3895
  986MOL0     C35979   8.756   3.656  11.675  0.2378  0.3031 -0.3853
  986MOL0     C35980   8.704   3.562  11.591 -0.4448 -0.6796 -0.1918
  986MOL0     N35981   8.032   3.281  11.292  0.2193 -0.2749 -0.1317
  986MOL0     N35982   7.939   3.260  11.218  0.6885 -0.6052  0.8296
  986MOL0     C35983   7.175   3.404  10.212 -0.0248 -0.6688 -0.1135
  986MOL0     C35984   7.071   3.326  10.161 -0.8089 -0.4449  0.7294
  986MOL0     C35985   6.680   3.141  10.057 -0.2580 -0.3797  0.1478
  986MOL0     C35986   6.601   3.141  10.169  0.1139  0.6791 -2.4598
  986MOL0     C35987   6.462   3.103  10.163 -0.3109  0.7801 -1.0981
  986MOL0     C35988   6.414   3.046  10.046 -0.0568 -0.6607 -0.1255
  986MOL0     O35989   6.280   3.004  10.054  0.1451  0.5750  0.4363
  986MOL0     C35990   6.227   2.926   9.943 -0.6254 -0.4853 -0.1392
  986MOL0     C35991   6.091   2.878   9.982  0.6416  0.4954  0.4621
  986MOL0     C35992   5.998   2.998   9.974 -0.2947 -0.0862  0.5068
  986MOL0     C35993   5.862   2.975  10.044 -0.0767 -0.7954 -0.0559
  986MOL0     C35994   5.779   3.099  10.035 -0.6166  0.2001  0.1506
  986MOL0     C35995   5.709   3.196  10.036 -0.2280 -0.4523 -0.4755
  986MOL0     C35996   6.495   3.037   9.936 -0.4211  0.4659 -0.5611
  986MOL0     C35997   6.621   3.093   9.942 -1.0442 -0.5341  0.2471
  986MOL0     C35998   6.704   3.072   9.815 -0.5339  0.2381 -0.0471
  986MOL0     H35999   6.827   3.396  10.390  0.0285  0.9932 -0.0679
  986MOL0     H36000   7.012   3.530  10.485 -2.1066 -2.1691  1.3278
  986MOL0     H36001   7.433   3.458  10.394  0.6793  1.7477  0.2371
  986MOL0     H36002   7.300   3.392  10.497  0.2999  0.8611  1.1757
  986MOL0     H36003   7.431   3.669  10.506  1.1283  0.8409  1.2680
  986MOL0     H36004   7.320   3.614  10.621 -1.3336 -0.9330  0.1813
  986MOL0     H36005   7.588   3.472  10.579 -0.4368  0.0487  0.4833
  986MOL0     H36006   7.581   3.614  10.685 -3.8692  1.5090  2.3837
  986MOL0     H36007   7.399   3.488  10.832  0.4814  1.2708  0.3504
  986MOL0     H36008   7.408   3.354  10.710  1.6094 -0.7506  0.8568
  986MOL0     H36009   7.650   3.324  10.797  0.2006  0.9416  0.6924
  986MOL0     H36010   7.515   3.306  10.919 -3.5678 -0.8635 -2.2934
  986MOL0     H36011   7.701   3.554  10.893 -0.1058  1.2835  1.5076
  986MOL0     H36012   7.576   3.536  11.018 -0.0381  0.1499  0.0454
  986MOL0     H36013   7.691   3.327  11.100 -1.3571 -0.3351 -2.0491
  986MOL0     H36014   7.739   3.487  11.149  0.4966 -1.9168  1.9985
  986MOL0     H36015   7.854   3.321  10.925 -1.3549 -0.3783  1.7060
  986MOL0     H36016   7.908   3.483  10.958 -0.1677 -1.1579 -2.8487
  986MOL0     H36017   8.138   3.443  11.033 -0.7548  0.4796  0.7513
  986MOL0     H36018   8.306   3.289  11.325  0.5820 -0.7294 -1.6653
  986MOL0     H36019   8.251   3.445  11.383 -1.5587 -0.8872  0.4114
  986MOL0     H36020   8.407   3.361  11.147  0.1789 -0.4757  1.7963
  986MOL0     H36021   8.327   3.515  11.120 -1.1266 -1.1976 -0.2261
  986MOL0     H36022   8.560   3.556  11.203  0.6498  0.5531  0.5679
  986MOL0     H36023   8.444   3.612  11.328 -0.4016 -0.2579  0.1778
  986MOL0     H36024   8.557   3.330  11.324  2.7402 -0.6711  0.1750
  986MOL0     H36025   8.664   3.454  11.356 -0.9785  0.4745 -2.5689
  986MOL0     H36026   8.379   3.611  11.638  1.9393 -0.3294 -3.1340
  986MOL0     H36027   8.343   3.738  11.838  0.8272 -0.5431  0.4772
  986MOL0     H36028   8.414   3.896  11.784 -0.2529  0.5476  1.7359
  986MOL0     H36029   8.460   3.816  11.933 -2.6685  1.8037  0.3192
  986MOL0     H36030   9.067   3.826  11.921  1.6951  0.1975 -0.9538
  986MOL0     H36031   9.191   3.956  12.073 -0.1130 -1.0789 -3.0147
  986MOL0     H36032   9.091   4.393  12.127 -1.0426  1.8452  0.6873
  986MOL0     H36033   8.990   4.324  12.245  0.8494 -0.2808  0.1734
  986MOL0     H36034   9.287   4.387  12.260  0.9379 -1.1729  1.1909
  986MOL0     H36035   9.148   4.485  12.332  1.0250  0.2244  1.7915
  986MOL0     H36036   9.253   4.207  12.423 -2.1533 -0.5948 -2.0869
  986MOL0     H36037   9.104   4.281  12.465  0.5277 -0.8060  0.1101
  986MOL0     H36038   9.190   4.433  12.601 -1.8533  1.2233 -2.7803
  986MOL0     H36039   9.344   4.450  12.513  1.1694 -1.0211  0.6269
  986MOL0     H36040   9.287   4.194  12.675  1.9793 -2.2933 -1.7872
  986MOL0     H36041   9.424   4.235  12.575  1.0674  4.1407 -1.8068
  986MOL0     H36042   9.328   4.417  12.815  0.4553 -0.2844  1.5146
  986MOL0     H36043   9.480   4.425  12.738  0.6758 -1.1297 -0.1211
  986MOL0     H36044   9.385   4.181  12.909 -0.5109 -0.5492 -0.4343
  986MOL0     H36045   9.474   4.323  12.969 -3.1827  0.8230 -0.1964
  986MOL0     H36046   9.571   4.167  12.728  1.1782  4.4457 -1.3673
  986MOL0     H36047   9.623   4.121  12.899 -2.6573  0.5064  3.8302
  986MOL0     H36048   8.901   4.273  12.035  1.3730  0.2271  1.8250
  986MOL0     H36049   8.790   4.153  11.868 -1.3645  1.6956  1.8530
  986MOL0     H36050   8.863   3.666  11.693  0.1662  2.0702 -0.6786
  986MOL0     H36051   8.776   3.503  11.536 -0.6894  0.1825 -1.4932
  986MOL0     H36052   7.266   3.423  10.157  1.0327 -2.7587  0.8492
  986MOL0     H36053   7.088   3.267  10.071  0.8930 -2.3103  2.1997
  986MOL0     H36054   6.637   3.160  10.269 -1.5951  1.1930 -1.9034
  986MOL0     H36055   6.404   3.084  10.253  0.8282 -0.0080 -0.5023
  986MOL0     H36056   6.223   2.980   9.848 -1.3634  1.7709  1.1219
  986MOL0     H36057   6.299   2.845   9.930  1.6326  1.3222  0.5150
  986MOL0     H36058   6.093   2.834  10.083 -1.0883 -0.9633 -0.0859
  986MOL0     H36059   6.057   2.808   9.905  0.1461  0.5877  0.5924
  986MOL0     H36060   6.045   3.086  10.020 -1.3492  0.3277  0.8238
  986MOL0     H36061   5.977   3.027   9.871  2.1039 -0.7499 -0.2284
  986MOL0     H36062   5.889   2.958  10.149  2.6268  0.6480 -0.4394
  986MOL0     H36063   5.801   2.892  10.008  1.8898 -2.9351  1.2656
  986MOL0     H36064   5.636   3.272  10.053  0.9547  0.0499  3.2611
  986MOL0     H36065   6.468   2.988   9.844  0.5984  2.9099 -2.2745
  986MOL0     H36066   6.644   3.034   9.732  0.1553  1.6650 -1.2523
  986MOL0     H36067   6.747   3.167   9.782  1.4793 -0.4840  0.3524
  986MOL0     H36068   6.792   3.008   9.824  1.3086  1.9724 -3.5743
  987MOL0     O36069   3.853   0.524  10.094  0.4258  0.0125 -0.5663
  987MOL0     C36070   3.929   0.571  10.012 -0.2613 -0.1112 -0.3991
  987MOL0     O36071   3.900   0.676   9.941  0.1147 -0.1071  0.1838
  987MOL0     C36072   3.781   0.738   9.958 -0.6759  0.4855  0.1624
  987MOL0     C36073   3.693   0.756   9.853  0.1683  0.7390 -0.0782
  987MOL0     C36074   3.577   0.839   9.860 -0.5471  0.2737 -0.2755
  987MOL0     C36075   3.543   0.911   9.975 -0.3571  0.0820  0.0363
  987MOL0     O36076   3.423   0.974   9.979  0.0739  0.6873  0.4467
  987MOL0     C36077   3.353   0.952  10.102  0.1179 -0.3581  0.4330
  987MOL0     C36078   3.207   0.998  10.077  0.5238 -0.4489  0.5587
  987MOL0     C36079   3.132   1.000  10.215 -0.1698 -0.0581  1.2731
  987MOL0     C36080   2.996   0.944  10.203 -0.4864 -0.1658  0.3749
  987MOL0     C36081   2.920   0.961  10.333  0.1281  0.0063  0.3233
  987MOL0     C36082   2.773   0.923  10.317 -0.4356  0.2351  1.1481
  987MOL0     C36083   2.691   1.008  10.221  0.4300 -1.2174 -0.2350
  987MOL0     C36084   2.560   1.058  10.291 -0.2570  1.1902  0.0170
  987MOL0     N36085   2.479   0.939  10.324  0.5419  1.1892  0.5196
  987MOL0     C36086   2.434   0.840  10.243 -0.3679  0.7320  1.1031
  987MOL0     C36087   2.377   0.739  10.320 -1.0514  0.6296 -0.2171
  987MOL0     C36088   2.359   0.599  10.280 -0.0456  1.3192 -0.7850
  987MOL0     C36089   2.210   0.593  10.238 -1.0321 -0.7095  0.0370
  987MOL0     C36090   2.105   0.622  10.354  0.1556  0.1531 -0.3969
  987MOL0     C36091   2.140   0.548  10.480 -0.1415 -0.0497 -0.0620
  987MOL0     O36092   2.057   0.590  10.597 -0.2295 -0.3171  0.5986
  987MOL0     C36093   1.939   0.530  10.620 -0.2090 -0.7664  0.3189
  987MOL0     C36094   1.864   0.608  10.713  0.1946 -0.7447  0.0032
  987MOL0     C36095   1.725   0.573  10.738 -1.0251 -0.4456  0.6840
  987MOL0     C36096   1.650   0.667  10.834 -0.4111  0.2041 -0.0672
  987MOL0     C36097   1.675   0.449  10.691  0.2295  0.5888 -0.3071
  987MOL0     C36098   1.543   0.399  10.718 -0.0806  1.0581 -0.8222
  987MOL0     O36099   1.468   0.462  10.824 -0.3560 -0.1671 -0.1541
  987MOL0     C36100   1.336   0.426  10.827 -0.1755 -0.1469 -0.3432
  987MOL0     C36101   1.295   0.315  10.915 -1.0018 -0.3959  0.1616
  987MOL0     C36102   1.157   0.282  10.925  0.0159 -0.1000  0.9267
  987MOL0     C36103   1.062   0.353  10.855  1.0083  0.0497  0.6531
  987MOL0     O36104   0.928   0.315  10.864  0.7111 -0.3383  0.2217
  987MOL0     C36105   0.852   0.388  10.963 -0.3503 -0.6267  0.0196
  987MOL0     C36106   0.703   0.411  10.910  0.1668 -0.4871  0.9989
  987MOL0     C36107   0.699   0.475  10.771 -0.5297 -0.1172  0.1317
  987MOL0     C36108   0.561   0.503  10.725 -0.0347  0.3897 -0.7055
  987MOL0     C36109   0.556   0.557  10.577 -1.2311 -0.0712 -0.1733
  987MOL0     C36110   0.412   0.555  10.532  0.0000  0.1648  0.0353
  987MOL0     C36111   0.372   0.599  10.387 -0.1008 -0.3347  0.5523
  987MOL0     C36112   0.223   0.574  10.366 -0.3839 -0.0222 -0.1389
  987MOL0    Cl36113   0.185   0.627  10.203 -0.3157 -0.2930 -0.2546
  987MOL0     C36114   1.100   0.465  10.780  1.3136 -0.5599  0.5406
  987MOL0     C36115   1.236   0.503  10.771 -0.1462  0.1706  0.0286
  987MOL0     O36116   1.505   0.297  10.661  0.8534 -0.7164  0.2028
  987MOL0     C36117   1.756   0.375  10.595 -0.8010  0.1116 -0.0682
  987MOL0     C36118   1.879   0.424  10.548  0.0697 -0.5352 -0.5306
  987MOL0     N36119   2.397   0.783  10.453 -0.0241  0.3614 -0.9060
  987MOL0     N36120   2.441   0.905  10.450 -0.1347  0.1518 -0.2011
  987MOL0     C36121   3.641   0.901  10.080 -0.0440  0.7151  0.3232
  987MOL0     C36122   3.752   0.814  10.069  0.2476 -0.0592  0.4854
  987MOL0     C36123   4.069   0.528   9.997  0.1215 -0.2014 -1.3046
  987MOL0     C36124   4.161   0.630   9.988 -0.1850 -0.4272 -0.2474
  987MOL0     C36125   4.299   0.600   9.987 -0.9432 -0.4517  0.1617
  987MOL0     C36126   4.344   0.473  10.007 -0.4387  0.0467  0.0177
  987MOL0     O36127   4.479   0.456   9.999  0.0774  0.8435  0.3172
  987MOL0     C36128   4.538   0.323   9.977  0.9638  0.8374 -0.4310
  987MOL0     C36129   4.693   0.334   9.954  0.4063 -0.1916 -0.4562
  987MOL0     C36130   4.724   0.420   9.834 -1.2117  0.5294  0.1828
  987MOL0     C36131   4.877   0.445   9.822 -0.3071  0.0894  0.1584
  987MOL0     C36132   4.910   0.544   9.719  0.0839 -0.3982  0.3139
  987MOL0     C36133   4.938   0.634   9.641  0.3722 -0.7071  0.6435
  987MOL0     C36134   4.251   0.374  10.017  0.2039  0.0748  0.7203
  987MOL0     C36135   4.113   0.399  10.010  0.1158  0.0022  0.6234
  987MOL0     C36136   4.017   0.284  10.014 -0.0336  0.1145  0.5857
  987MOL0     H36137   3.701   0.697   9.762 -1.8183  1.0602 -0.4924
  987MOL0     H36138   3.512   0.852   9.774  0.4413  0.8909 -0.9382
  987MOL0     H36139   3.405   1.011  10.177  0.2790  0.4288 -0.2820
  987MOL0     H36140   3.351   0.844  10.123 -1.4752 -0.9540 -2.2705
  987MOL0     H36141   3.207   1.098  10.034 -1.1825  0.2317  2.0249
  987MOL0     H36142   3.157   0.923  10.015  1.7750  0.0899 -1.1701
  987MOL0     H36143   3.179   0.938  10.292  0.2875  2.3815  3.1141
  987MOL0     H36144   3.131   1.106  10.243  4.4426  0.8325 -1.0941
  987MOL0     H36145   2.946   0.984  10.114 -1.9828 -0.1152  1.2061
  987MOL0     H36146   2.990   0.838  10.177  0.9818  0.5324 -3.3280
  987MOL0     H36147   2.928   1.062  10.375  1.2260  0.0030  0.1588
  987MOL0     H36148   2.962   0.889  10.403 -0.7697 -1.0393 -0.1896
  987MOL0     H36149   2.763   0.819  10.284 -1.9239  0.7981 -0.3190
  987MOL0     H36150   2.730   0.927  10.418 -3.6054 -1.0259 -0.0021
  987MOL0     H36151   2.674   0.949  10.131  1.6803 -0.7091 -0.8343
  987MOL0     H36152   2.749   1.093  10.182 -1.4575 -0.6998 -2.0692
  987MOL0     H36153   2.589   1.107  10.384  0.5991 -0.7120  0.7878
  987MOL0     H36154   2.514   1.126  10.218  0.7951  1.5389 -0.3420
  987MOL0     H36155   2.457   0.827  10.138  0.3787  2.7171  0.9945
  987MOL0     H36156   2.376   0.532  10.365 -1.8594 -1.6559 -2.6101
  987MOL0     H36157   2.425   0.562  10.201  0.9575 -0.3320  0.7481
  987MOL0     H36158   2.177   0.653  10.153  0.5042  0.4499  0.2110
  987MOL0     H36159   2.200   0.489  10.207 -2.2138 -0.5619 -0.1052
  987MOL0     H36160   2.111   0.729  10.377  0.4890  0.3202 -1.2138
  987MOL0     H36161   2.009   0.587  10.316  1.2725 -1.6378 -1.7402
  987MOL0     H36162   2.144   0.439  10.467  1.6894 -0.1126  0.7699
  987MOL0     H36163   2.241   0.574  10.513  0.5473 -1.8797 -0.6039
  987MOL0     H36164   1.915   0.685  10.770 -1.5336 -0.4965  1.2693
  987MOL0     H36165   1.712   0.755  10.856  2.0534 -1.8490  1.7582
  987MOL0     H36166   1.641   0.622  10.933  1.2867  1.6569  0.8233
  987MOL0     H36167   1.551   0.695  10.798  1.1022  4.0064 -1.8574
  987MOL0     H36168   1.376   0.261  10.963 -0.4638  0.5521  0.3442
  987MOL0     H36169   1.129   0.196  10.986 -1.6452  0.4462  1.0068
  987MOL0     H36170   0.849   0.331  11.056 -1.0746  2.3752  2.0108
  987MOL0     H36171   0.899   0.481  10.998 -1.8639 -0.6800  2.4589
  987MOL0     H36172   0.668   0.307  10.899 -1.2158  0.2069 -2.7341
  987MOL0     H36173   0.644   0.464  10.986  0.0018 -0.2656  0.7156
  987MOL0     H36174   0.748   0.406  10.700  0.5782  2.0212 -1.2941
  987MOL0     H36175   0.759   0.566  10.770 -1.1953  0.5172 -4.5617
  987MOL0     H36176   0.508   0.568  10.795 -3.0261  0.2901 -2.7011
  987MOL0     H36177   0.514   0.405  10.717 -0.4639  0.4116  1.1910
  987MOL0     H36178   0.589   0.660  10.561  2.5038 -0.8690  1.3857
  987MOL0     H36179   0.616   0.488  10.517 -0.2203 -1.4131  2.2405
  987MOL0     H36180   0.345   0.601  10.605 -0.5696 -0.0085 -0.3743
  987MOL0     H36181   0.394   0.447  10.540  1.3704 -0.3815 -2.8926
  987MOL0     H36182   0.421   0.542  10.307 -2.2466  1.7792 -2.4619
  987MOL0     H36183   0.407   0.700  10.364 -1.7137  0.4779  1.4854
  987MOL0     H36184   0.160   0.636  10.430 -2.5052 -3.8109  1.7913
  987MOL0     H36185   0.194   0.470  10.387 -4.3688  1.3145  2.0478
  987MOL0     H36186   1.023   0.521  10.727 -0.0890 -1.5170  1.4767
  987MOL0     H36187   1.259   0.591  10.710 -0.1248 -0.5740 -1.0711
  987MOL0     H36188   1.718   0.286  10.547 -0.6402  1.1518 -2.2586
  987MOL0     H36189   1.921   0.379  10.458  0.1679 -1.4146 -0.0583
  987MOL0     H36190   3.629   0.957  10.172  1.3538  1.1921  0.2482
  987MOL0     H36191   3.805   0.818  10.164  0.1424  1.8685  0.5130
  987MOL0     H36192   4.131   0.732   9.970  1.9235 -0.0016 -1.6726
  987MOL0     H36193   4.376   0.673   9.967  0.9634 -2.2935  0.4154
  987MOL0     H36194   4.523   0.255  10.062  1.0517 -0.9735 -1.7884
  987MOL0     H36195   4.498   0.280   9.885 -1.6242 -0.7607  1.2923
  987MOL0     H36196   4.721   0.231   9.931 -1.4711 -0.6937 -0.7285
  987MOL0     H36197   4.751   0.365  10.041  1.0891  1.2517 -1.3825
  987MOL0     H36198   4.681   0.384   9.741 -1.0922 -0.8742  0.6364
  987MOL0     H36199   4.688   0.523   9.842 -2.1726  0.2394 -0.2873
  987MOL0     H36200   4.929   0.354   9.790 -2.3277 -0.5166 -1.6448
  987MOL0     H36201   4.920   0.468   9.920  0.3672 -5.0404  1.3733
  987MOL0     H36202   4.981   0.695   9.564 -2.7333 -0.7215 -1.2847
  987MOL0     H36203   4.275   0.268  10.016  1.8822  0.4224 -0.1647
  987MOL0     H36204   4.058   0.198   9.963 -0.4963  1.6880 -2.7099
  987MOL0     H36205   3.986   0.276  10.119  1.1499 -3.5630  0.7734
  987MOL0     H36206   3.928   0.305   9.954  0.4721 -2.5814 -1.2280
  988MOL0     O36207   1.129   7.474   7.650  0.2553  0.6726  0.1236
  988MOL0     C36208   1.122   7.346   7.661  0.4370  0.0377  1.1913
  988MOL0     O36209   1.228   7.278   7.700 -0.4359  0.2209  0.5747
  988MOL0     C36210   1.330   7.336   7.770 -0.0537 -0.5321 -0.4437
  988MOL0     C36211   1.336   7.355   7.904  1.2908 -0.1011 -0.0464
  988MOL0     C36212   1.439   7.424   7.967  1.1933 -0.7802 -0.1981
  988MOL0     C36213   1.544   7.475   7.897  0.7865 -0.2672 -0.7787
  988MOL0     O36214   1.648   7.551   7.941 -0.1117  0.2747 -0.1370
  988MOL0     C36215   1.669   7.597   8.075 -0.0580  0.1997 -0.3756
  988MOL0     C36216   1.764   7.511   8.135 -0.7971  0.6972 -0.8578
  988MOL0     C36217   1.909   7.543   8.091 -0.1922  0.3814  0.8257
  988MOL0     C36218   2.001   7.424   8.128  0.4146  0.0611  0.4882
  988MOL0     C36219   2.147   7.455   8.103  0.5774 -0.2268 -0.1395
  988MOL0     C36220   2.231   7.324   8.086  0.3380 -0.1479  0.3293
  988MOL0     C36221   2.389   7.348   8.073  0.0364  0.0851  0.5442
  988MOL0     C36222   2.432   7.390   7.932  1.0727 -0.1542  0.5968
  988MOL0     N36223   2.569   7.438   7.943  0.4556  0.0790 -0.3938
  988MOL0     C36224   2.615   7.558   7.907 -0.5232 -0.1095 -0.5348
  988MOL0     C36225   2.751   7.551   7.940  0.4860  0.4826  0.2554
  988MOL0     C36226   2.850   7.661   7.908 -0.9698 -0.2139 -0.3678
  988MOL0     C36227   2.882   7.761   8.023 -0.4530 -0.6544  0.2010
  988MOL0     C36228   2.987   7.855   7.980  0.1984 -0.0214  0.9140
  988MOL0     C36229   2.987   7.984   8.060 -1.1027  0.0715  0.4227
  988MOL0     O36230   3.104   8.055   8.008  0.2058 -0.7437  0.7627
  988MOL0     C36231   3.154   8.177   8.046 -0.4010 -0.2966 -0.1882
  988MOL0     C36232   3.274   8.234   7.993 -0.0716  0.2941  0.1941
  988MOL0     C36233   3.322   8.357   8.040  0.2108 -0.0854  0.1366
  988MOL0     C36234   3.461   8.399   7.988 -0.0664  0.0494 -0.3687
  988MOL0     C36235   3.255   8.436   8.142 -0.3135 -0.3125  0.4836
  988MOL0     C36236   3.305   8.558   8.223 -0.3299 -0.2701 -0.6734
  988MOL0     O36237   3.387   8.645   8.165 -0.5927  0.5849 -0.1575
  988MOL0     C36238   3.470   8.726   8.235  0.3510 -0.4733 -0.3527
  988MOL0     C36239   3.473   8.868   8.204  0.5653  1.0677  0.3860
  988MOL0     C36240   3.573   8.945   8.254  0.7404  0.4234 -0.2252
  988MOL0     C36241   3.669   8.896   8.347 -0.1839  0.3815 -0.2493
  988MOL0     O36242   3.751   8.981   8.422 -0.4449  0.7424  0.6951
  988MOL0     C36243   3.884   8.943   8.439 -0.7684 -0.7989  0.3112
  988MOL0     C36244   3.983   9.058   8.499  0.2287  0.0467 -0.1702
  988MOL0     C36245   3.955   9.201   8.439  0.0121  0.4548 -0.2510
  988MOL0     C36246   4.035   9.313   8.499  0.3626 -0.2996 -0.3247
  988MOL0     C36247   4.007   9.455   8.435 -0.7555 -0.2470 -0.0668
  988MOL0     C36248   4.127   9.552   8.456  0.1326  0.5438 -0.3078
  988MOL0     C36249   4.157   9.583   8.600 -0.2005 -0.2520 -0.4593
  988MOL0     C36250   4.249   9.712   8.605  0.1005 -0.1577  0.0639
  988MOL0    Cl36251   4.425   9.670   8.588  0.0080  0.0892  0.0755
  988MOL0     C36252   3.661   8.761   8.384 -0.6151  0.0798 -0.4642
  988MOL0     C36253   3.567   8.675   8.328 -0.6721 -0.2694  0.0797
  988MOL0     O36254   3.258   8.569   8.335 -0.6988 -0.0051 -0.7051
  988MOL0     C36255   3.132   8.378   8.182 -0.5347 -0.1958  0.4694
  988MOL0     C36256   3.087   8.257   8.139 -0.0014 -0.7687  0.9672
  988MOL0     N36257   2.781   7.425   8.000 -0.6576 -0.5522 -0.0527
  988MOL0     N36258   2.663   7.357   7.999 -0.3159 -0.6448  0.0571
  988MOL0     C36259   1.536   7.453   7.763 -0.5951  0.8410  0.6644
  988MOL0     C36260   1.432   7.387   7.697 -0.2174 -0.1329 -0.2682
  988MOL0     C36261   0.994   7.276   7.633 -0.1157 -0.5594  0.2309
  988MOL0     C36262   1.001   7.139   7.615  0.3825 -0.7178 -0.7356
  988MOL0     C36263   0.892   7.060   7.594  0.6021  0.9923  0.3515
  988MOL0     C36264   0.767   7.115   7.583  0.4440  0.1147 -0.9324
  988MOL0     O36265   0.658   7.046   7.553 -0.6780  0.0765  0.2383
  988MOL0     C36266   0.664   6.914   7.503  0.8065  0.4523  0.3881
  988MOL0     C36267   0.727   6.903   7.359  0.0361  0.1749  0.1200
  988MOL0     C36268   0.683   6.776   7.290 -0.4320  0.5819  0.3518
  988MOL0     C36269   0.731   6.643   7.346  0.1190  0.0011 -0.4435
  988MOL0     C36270   0.649   6.540   7.298  1.0812 -0.3576  0.2824
  988MOL0     C36271   0.571   6.463   7.249 -0.4686 -0.3350  0.9888
  988MOL0     C36272   0.752   7.252   7.592  0.2537  0.4003  0.2558
  988MOL0     C36273   0.860   7.340   7.620  0.5676  0.8190  0.0099
  988MOL0     C36274   0.847   7.484   7.652 -0.7904 -0.3531  0.4733
  988MOL0     H36275   1.256   7.320   7.969  0.0771  4.6766  1.4541
  988MOL0     H36276   1.442   7.443   8.074  1.3283  1.4863 -0.5706
  988MOL0     H36277   1.578   7.595   8.135 -1.1606  0.8862 -1.9258
  988MOL0     H36278   1.707   7.699   8.084 -0.3980  0.2403  0.6461
  988MOL0     H36279   1.761   7.533   8.242  2.4727 -1.7985 -0.0871
  988MOL0     H36280   1.737   7.408   8.111  0.8593  0.4585 -1.8427
  988MOL0     H36281   1.912   7.558   7.983  0.1279  1.7706  1.0144
  988MOL0     H36282   1.949   7.637   8.130  0.4035  0.6929 -0.5007
  988MOL0     H36283   1.992   7.403   8.236  1.1007  3.2935  1.2831
  988MOL0     H36284   1.976   7.335   8.071  3.4841  0.1008 -1.1027
  988MOL0     H36285   2.198   7.502   8.187  0.7410  0.5888 -0.6829
  988MOL0     H36286   2.159   7.517   8.014 -0.3274 -0.8562 -0.7198
  988MOL0     H36287   2.211   7.270   8.179  1.8499 -0.5773  0.4462
  988MOL0     H36288   2.211   7.254   8.005 -0.0768  2.0857 -1.5912
  988MOL0     H36289   2.436   7.255   8.105  1.8719  1.2643  1.4900
  988MOL0     H36290   2.413   7.423   8.150  0.4207 -2.3550  2.9538
  988MOL0     H36291   2.429   7.299   7.873 -1.1012  0.0679  0.2508
  988MOL0     H36292   2.361   7.460   7.886 -1.5567 -2.2363  1.2624
  988MOL0     H36293   2.550   7.636   7.870 -0.8112 -0.1915 -0.2061
  988MOL0     H36294   2.818   7.710   7.816 -1.0322 -0.8612 -0.6958
  988MOL0     H36295   2.948   7.613   7.896 -0.3721  0.9187 -0.1845
  988MOL0     H36296   2.794   7.819   8.052 -1.3303 -1.9196  0.1341
  988MOL0     H36297   2.915   7.701   8.109  2.9431 -0.0623 -0.5325
  988MOL0     H36298   3.087   7.813   7.990  0.1903  0.0399  1.2754
  988MOL0     H36299   2.988   7.864   7.871 -2.7156  1.0041  0.8644
  988MOL0     H36300   2.896   8.039   8.039 -0.7326  0.2158 -0.9342
  988MOL0     H36301   3.000   7.955   8.165 -3.5936 -1.2661  0.4244
  988MOL0     H36302   3.333   8.179   7.920  0.0927  0.4702  0.1950
  988MOL0     H36303   3.521   8.461   8.055 -0.6969 -0.8866  1.1186
  988MOL0     H36304   3.446   8.450   7.892  0.8590 -1.0776 -1.1391
  988MOL0     H36305   3.518   8.309   7.966 -1.0792 -0.3874 -1.3436
  988MOL0     H36306   3.394   8.908   8.141  1.6533  3.6330  0.5231
  988MOL0     H36307   3.578   9.053   8.247  0.3531  0.3894 -1.1085
  988MOL0     H36308   3.893   8.865   8.515  0.7943 -0.4448  0.5258
  988MOL0     H36309   3.915   8.918   8.337 -1.3243  2.3790 -0.7660
  988MOL0     H36310   3.970   9.063   8.607  1.1250  0.9912 -0.0929
  988MOL0     H36311   4.082   9.029   8.464  0.1975  0.4057 -0.5630
  988MOL0     H36312   3.850   9.216   8.469  0.5411 -2.2638  3.7377
  988MOL0     H36313   3.960   9.196   8.330 -0.3951 -0.7260 -0.2235
  988MOL0     H36314   4.138   9.275   8.506  1.0073  1.1981 -1.1473
  988MOL0     H36315   4.003   9.328   8.602  1.4731 -0.7886  0.1076
  988MOL0     H36316   4.005   9.441   8.327 -0.5469  4.3655 -0.8978
  988MOL0     H36317   3.915   9.504   8.466 -0.2417 -1.2651  3.6384
  988MOL0     H36318   4.108   9.639   8.393  1.2572  1.4262  0.5194
  988MOL0     H36319   4.222   9.510   8.423 -0.3231  0.7960 -2.0040
  988MOL0     H36320   4.212   9.498   8.641  0.8923  0.9068  0.5620
  988MOL0     H36321   4.063   9.600   8.653  1.1812 -1.7302  2.7201
  988MOL0     H36322   4.227   9.766   8.697 -0.0560  2.0484 -1.1843
  988MOL0     H36323   4.227   9.783   8.524  1.4759  0.1953 -0.0249
  988MOL0     H36324   3.723   8.739   8.470  0.7759  2.3672 -0.7969
  988MOL0     H36325   3.563   8.573   8.362 -0.4178 -0.5743 -0.7778
  988MOL0     H36326   3.080   8.421   8.267  0.3136  4.6026 -1.1363
  988MOL0     H36327   2.996   8.225   8.189 -0.4741 -0.5322  0.2688
  988MOL0     H36328   1.612   7.492   7.696 -1.2051  0.1914 -0.4300
  988MOL0     H36329   1.429   7.370   7.590  0.0602  0.8677 -0.4470
  988MOL0     H36330   1.096   7.087   7.618  0.0025 -1.6192 -2.7333
  988MOL0     H36331   0.923   6.956   7.595  0.7600  1.0455  1.1994
  988MOL0     H36332   0.704   6.842   7.574 -1.4431 -0.0703  1.2123
  988MOL0     H36333   0.559   6.881   7.496  1.3551 -1.1054 -1.7148
  988MOL0     H36334   0.836   6.899   7.358  0.2056 -1.1209  4.1857
  988MOL0     H36335   0.699   6.989   7.298  0.9721 -1.1801 -2.3797
  988MOL0     H36336   0.574   6.765   7.296 -0.3075 -0.0530  2.0288
  988MOL0     H36337   0.716   6.779   7.186  2.8926 -1.4208  1.2069
  988MOL0     H36338   0.730   6.647   7.455  3.5311 -1.0949 -0.2438
  988MOL0     H36339   0.837   6.621   7.327  0.2037 -0.4519  0.5424
  988MOL0     H36340   0.504   6.401   7.192  1.6254 -3.1650  1.3667
  988MOL0     H36341   0.651   7.292   7.596 -0.5189 -0.7793 -3.4855
  988MOL0     H36342   0.886   7.538   7.565 -0.6906  1.7974  1.7748
  988MOL0     H36343   0.745   7.523   7.663 -0.6295  0.0329  0.6142
  988MOL0     H36344   0.901   7.515   7.742 -3.5022  3.7804  0.9928
  989MOL0     O36345   9.426   8.512   3.073  0.6260 -0.3463 -0.3156
  989MOL0     C36346   9.495   8.604   3.115 -0.5214 -0.6921  0.9688
  989MOL0     O36347   9.623   8.595   3.154 -0.0808 -0.2136  0.5179
  989MOL0     C36348   9.650   8.464   3.203 -0.1642 -0.0567 -0.5692
  989MOL0     C36349   9.597   8.411   3.321 -0.4528 -0.0610 -0.6549
  989MOL0     C36350   9.658   8.301   3.371  0.7645 -0.1546 -0.4922
  989MOL0     C36351   9.761   8.227   3.311 -0.1606 -0.8088 -0.1957
  989MOL0     O36352   9.834   8.114   3.361  0.0252 -1.0929  0.1197
  989MOL0     C36353   9.875   8.129   3.503 -0.9859  0.6678  0.2893
  989MOL0     C36354  10.020   8.068   3.518  0.2113 -0.1957  0.2424
  989MOL0     C36355  10.027   7.920   3.470 -1.0271  0.4563 -0.5081
  989MOL0     C36356  10.157   7.858   3.524 -0.2562 -0.1378 -0.0065
  989MOL0     C36357  10.163   7.717   3.463 -0.8908  0.2936  0.8074
  989MOL0     C36358  10.235   7.711   3.319  0.3530  1.1690  0.2709
  989MOL0     C36359  10.265   7.564   3.288 -0.2193 -0.2892 -0.2474
  989MOL0     C36360  10.334   7.551   3.149 -0.3982 -0.4292  0.9082
  989MOL0     N36361  10.483   7.578   3.149 -0.6895 -0.4859  0.2414
  989MOL0     C36362  10.581   7.490   3.182 -0.0701 -0.4428 -0.1213
  989MOL0     C36363  10.704   7.533   3.140 -0.6972  0.0260 -0.2390
  989MOL0     C36364  10.836   7.459   3.122  0.5008  0.2117  0.0835
  989MOL0     C36365  10.850   7.354   3.239 -0.0876  1.1064 -0.4051
  989MOL0     C36366  10.902   7.426   3.361  0.9801 -0.3052  0.8596
  989MOL0     C36367  10.951   7.341   3.476 -0.4682  0.5353  0.4580
  989MOL0     O36368  11.038   7.241   3.419  0.6385  0.0528  0.1349
  989MOL0     C36369  11.166   7.271   3.389  0.1961  0.1595  0.0626
  989MOL0     C36370  11.232   7.175   3.315 -0.4584 -0.3128  0.4238
  989MOL0     C36371  11.374   7.192   3.268 -0.3666 -0.5838 -0.2915
  989MOL0     C36372  11.437   7.086   3.178  0.6858  0.0564  0.2172
  989MOL0     C36373  11.432   7.314   3.303 -1.7424 -0.4103 -0.9621
  989MOL0     C36374  11.571   7.363   3.264  0.1185  0.1232  0.0594
  989MOL0     O36375  11.600   7.490   3.297 -0.4109  0.1556  0.0646
  989MOL0     C36376  11.725   7.537   3.289 -1.0210  0.0723 -0.9773
  989MOL0     C36377  11.729   7.675   3.281  0.3991  0.1260 -0.0759
  989MOL0     C36378  11.851   7.740   3.284  0.8001  0.0759 -0.2706
  989MOL0     C36379  11.971   7.670   3.267 -0.2691  0.8975  0.3255
  989MOL0     O36380  12.084   7.745   3.259 -0.5203  0.2749  0.4972
  989MOL0     C36381  12.202   7.676   3.203 -1.0026  0.2508 -0.2510
  989MOL0     C36382  12.322   7.779   3.182  0.5004 -0.5144  0.2550
  989MOL0     C36383  12.441   7.736   3.089  1.0177 -0.6421  0.2767
  989MOL0     C36384  12.530   7.647   3.176 -0.2921  0.4876 -0.5402
  989MOL0     C36385  12.660   7.592   3.120 -0.5653 -0.1088  0.0065
  989MOL0     C36386  12.778   7.689   3.139  0.1471  0.4093  0.9125
  989MOL0     C36387  12.910   7.632   3.096  0.3899  0.4838  0.5013
  989MOL0     C36388  13.017   7.731   3.126 -0.1244  0.5316  0.6523
  989MOL0    Cl36389  13.172   7.668   3.074  0.0154 -0.1090  0.3734
  989MOL0     C36390  11.967   7.528   3.259  0.0381 -0.0264 -0.1118
  989MOL0     C36391  11.847   7.460   3.282 -0.6203  0.6451  0.7715
  989MOL0     O36392  11.644   7.295   3.193  0.4806 -0.6334  0.2147
  989MOL0     C36393  11.361   7.407   3.380 -0.7530 -0.8743  0.0433
  989MOL0     C36394  11.232   7.392   3.415  0.0224 -0.3793 -0.1353
  989MOL0     N36395  10.680   7.662   3.100  0.2731 -0.6310  0.0459
  989MOL0     N36396  10.546   7.685   3.109 -0.4198 -0.6658 -0.2767
  989MOL0     C36397   9.808   8.282   3.191 -0.8533  0.5174  0.7837
  989MOL0     C36398   9.759   8.397   3.135 -0.7731 -0.6778  0.5927
  989MOL0     C36399   9.449   8.744   3.086 -0.7962  0.0305  0.4465
  989MOL0     C36400   9.366   8.759   2.972 -0.8275 -1.2973 -1.0011
  989MOL0     C36401   9.295   8.880   2.955 -0.2317  0.3803  0.6400
  989MOL0     C36402   9.324   8.993   3.033 -0.5011 -0.2889 -0.2645
  989MOL0     O36403   9.273   9.119   3.010 -0.1160 -0.1449  0.1853
  989MOL0     C36404   9.182   9.148   2.903  0.2063 -0.2959  0.1012
  989MOL0     C36405   9.268   9.173   2.775  0.1290 -0.4481 -0.1165
  989MOL0     C36406   9.168   9.209   2.664 -0.4535 -0.5444 -0.0564
  989MOL0     C36407   9.234   9.272   2.546 -0.0372 -0.5037  0.2592
  989MOL0     C36408   9.236   9.417   2.553 -0.5800 -0.0973 -0.2552
  989MOL0     C36409   9.236   9.536   2.559  0.0290 -0.9660 -0.6495
  989MOL0     C36410   9.414   8.975   3.137  0.0948  0.2258 -1.0658
  989MOL0     C36411   9.475   8.856   3.165  0.1365  0.5301 -0.1285
  989MOL0     C36412   9.571   8.844   3.278 -0.9872  0.1903 -0.1662
  989MOL0     H36413   9.525   8.463   3.383 -2.6052 -1.3275 -1.9607
  989MOL0     H36414   9.621   8.264   3.466 -1.6295 -1.8798 -1.9738
  989MOL0     H36415   9.805   8.078   3.569  0.2449 -2.3673 -0.6036
  989MOL0     H36416   9.887   8.234   3.533  0.4395  0.4871  0.4054
  989MOL0     H36417  10.083   8.123   3.447 -1.0804 -1.7670 -2.3037
  989MOL0     H36418  10.046   8.082   3.623  1.2990  0.4266 -0.0933
  989MOL0     H36419   9.942   7.861   3.505  1.3265 -2.1011  1.3602
  989MOL0     H36420  10.032   7.919   3.360 -1.6369  1.6482 -0.5648
  989MOL0     H36421  10.243   7.918   3.494  0.2961  0.6606  2.8626
  989MOL0     H36422  10.150   7.853   3.633 -5.0095 -1.4934 -0.1631
  989MOL0     H36423  10.059   7.684   3.455 -0.9431  0.7175 -0.6928
  989MOL0     H36424  10.223   7.655   3.530  0.1786 -3.3092 -3.0434
  989MOL0     H36425  10.178   7.753   3.236  2.3351  1.4526 -1.0240
  989MOL0     H36426  10.332   7.761   3.326  3.6202 -4.4494  0.8759
  989MOL0     H36427  10.173   7.506   3.288  0.0005 -0.6431  0.1311
  989MOL0     H36428  10.331   7.529   3.368  0.8293  3.3543  0.7174
  989MOL0     H36429  10.319   7.452   3.105  3.7334 -1.2030  0.7914
  989MOL0     H36430  10.277   7.614   3.081 -0.8805 -3.1359 -1.3618
  989MOL0     H36431  10.558   7.388   3.211  0.1389 -1.0293 -1.9065
  989MOL0     H36432  10.909   7.540   3.111 -2.2480  2.5457 -3.8072
  989MOL0     H36433  10.813   7.407   3.028  0.3429 -1.3328  0.9409
  989MOL0     H36434  10.757   7.306   3.271  0.8354 -0.9952 -0.7284
  989MOL0     H36435  10.917   7.276   3.203 -1.0999  0.9778 -2.1612
  989MOL0     H36436  10.991   7.472   3.317 -1.1054  1.4885 -1.7874
  989MOL0     H36437  10.832   7.505   3.391  0.3954  1.5769 -4.5144
  989MOL0     H36438  11.015   7.398   3.544  2.0203  1.1095 -2.1580
  989MOL0     H36439  10.876   7.279   3.526  0.6872 -0.5515  0.9035
  989MOL0     H36440  11.179   7.082   3.295 -1.0515  0.2391 -0.6655
  989MOL0     H36441  11.546   7.088   3.165  0.9024  1.1740  1.9286
  989MOL0     H36442  11.394   7.096   3.078  0.9059  1.3491  0.2402
  989MOL0     H36443  11.412   6.988   3.220  0.9945  0.6391  1.8381
  989MOL0     H36444  11.639   7.735   3.290 -0.4021 -1.0026 -0.3561
  989MOL0     H36445  11.851   7.848   3.296  0.0114  0.2954 -1.9375
  989MOL0     H36446  12.234   7.601   3.275 -3.6143  0.0892  0.8485
  989MOL0     H36447  12.176   7.638   3.104  0.5180 -0.4392 -0.4206
  989MOL0     H36448  12.270   7.854   3.122  1.0227  0.5509  1.1073
  989MOL0     H36449  12.374   7.822   3.268 -1.0676  2.8119 -0.2835
  989MOL0     H36450  12.505   7.819   3.057  1.5647 -0.8694  0.7668
  989MOL0     H36451  12.415   7.685   2.996  1.7877 -1.4676  0.5021
  989MOL0     H36452  12.470   7.559   3.204 -0.9960  1.6685  1.9538
  989MOL0     H36453  12.550   7.707   3.265  0.4656 -1.0197  0.3605
  989MOL0     H36454  12.680   7.505   3.183  2.3406  0.9130  0.6826
  989MOL0     H36455  12.659   7.556   3.017 -1.8076  0.6338 -0.2599
  989MOL0     H36456  12.784   7.715   3.245 -1.3743 -0.5490  1.2491
  989MOL0     H36457  12.758   7.783   3.087 -0.9774  0.1460  0.8617
  989MOL0     H36458  12.904   7.611   2.989 -0.6759  2.2785  0.1568
  989MOL0     H36459  12.923   7.544   3.160 -2.0391  1.3051  2.2854
  989MOL0     H36460  13.013   7.752   3.233  0.5313 -0.5484  0.8982
  989MOL0     H36461  12.996   7.826   3.076  1.2676  1.4029  1.6462
  989MOL0     H36462  12.059   7.471   3.254 -1.2383 -2.6729  3.2947
  989MOL0     H36463  11.842   7.352   3.296 -1.8592  0.4279 -1.0108
  989MOL0     H36464  11.402   7.502   3.412 -1.4111 -0.4479 -0.3509
  989MOL0     H36465  11.193   7.468   3.482  1.5783 -1.1433  1.7504
  989MOL0     H36466   9.887   8.223   3.144 -1.2991  0.2935  0.3087
  989MOL0     H36467   9.802   8.453   3.054 -2.7220  2.7599  1.7290
  989MOL0     H36468   9.348   8.687   2.893  0.8207 -2.2051 -0.5764
  989MOL0     H36469   9.218   8.870   2.879  0.9078  0.2922 -0.5395
  989MOL0     H36470   9.095   9.083   2.892 -1.3486  1.1775  2.6648
  989MOL0     H36471   9.141   9.245   2.932  2.1727 -0.4108  4.0578
  989MOL0     H36472   9.333   9.092   2.740 -0.6896 -1.2745  0.2546
  989MOL0     H36473   9.328   9.261   2.797 -0.9696  0.4725 -0.7112
  989MOL0     H36474   9.115   9.119   2.631 -2.1336  0.7251 -1.0102
  989MOL0     H36475   9.082   9.268   2.698 -1.8973 -2.5826  0.0433
  989MOL0     H36476   9.159   9.239   2.474  0.3060  0.5603 -0.6259
  989MOL0     H36477   9.329   9.223   2.523  0.0344 -0.3235  0.1668
  989MOL0     H36478   9.234   9.643   2.556  1.3227 -0.6484  3.4490
  989MOL0     H36479   9.437   9.052   3.210 -1.9953  1.0020 -1.1661
  989MOL0     H36480   9.673   8.808   3.260 -1.3490 -0.9419 -0.0469
  989MOL0     H36481   9.585   8.942   3.325  1.4647  1.5436 -3.3539
  989MOL0     H36482   9.527   8.773   3.350  0.0378  0.8340  1.1488
  990MOL0     O36483   0.622   2.565   4.645 -0.3414  0.2206  0.6440
  990MOL0     C36484   0.706   2.613   4.564 -0.1693 -0.3497  0.3590
  990MOL0     O36485   0.669   2.665   4.444  0.5625  0.7127 -0.0044
  990MOL0     C36486   0.566   2.604   4.378  0.1693 -0.4075 -0.6558
  990MOL0     C36487   0.436   2.632   4.413  0.4605 -0.1805  0.1073
  990MOL0     C36488   0.335   2.583   4.326 -0.5938  0.3976  0.1008
  990MOL0     C36489   0.363   2.489   4.226 -0.2709 -0.3012  0.0932
  990MOL0     O36490   0.257   2.434   4.172  0.1891 -0.0569  0.5672
  990MOL0     C36491   0.259   2.394   4.037  0.3120 -0.1671 -0.4466
  990MOL0     C36492   0.118   2.400   3.981 -0.2789  0.3335  0.4993
  990MOL0     C36493   0.017   2.323   4.074 -0.8111 -0.4833  0.5003
  990MOL0     C36494  -0.078   2.242   3.988 -1.0944  0.1780 -0.3921
  990MOL0     C36495  -0.199   2.197   4.065 -0.5176  0.6081 -0.5253
  990MOL0     C36496  -0.253   2.060   4.007 -1.4870 -0.7638 -1.2305
  990MOL0     C36497  -0.403   2.032   4.030 -0.8233  0.3201 -0.7785
  990MOL0     C36498  -0.464   1.936   3.929  0.1295  0.2484  0.5556
  990MOL0     N36499  -0.401   1.801   3.936 -0.0533  0.0341 -0.7689
  990MOL0     C36500  -0.406   1.715   4.051  0.3567  0.4954 -0.2244
  990MOL0     C36501  -0.313   1.618   4.021  0.3827  0.6278  0.3190
  990MOL0     C36502  -0.264   1.508   4.107  0.2346  0.3521 -0.4893
  990MOL0     C36503  -0.118   1.538   4.157  0.1082 -0.2627  0.8111
  990MOL0     C36504  -0.049   1.421   4.219 -0.5992 -0.7249 -0.4374
  990MOL0     C36505   0.088   1.447   4.289 -0.7004 -0.6184  0.4375
  990MOL0     O36506   0.183   1.510   4.198  0.0542 -0.0795  0.9464
  990MOL0     C36507   0.284   1.588   4.258 -0.9121  0.1045  0.5751
  990MOL0     C36508   0.355   1.681   4.177  0.7297  0.6924  0.5697
  990MOL0     C36509   0.481   1.735   4.213 -0.0403 -1.2642 -0.5577
  990MOL0     C36510   0.567   1.810   4.112 -0.0278  0.2062  0.2039
  990MOL0     C36511   0.531   1.695   4.342 -0.3164  0.7802 -0.4798
  990MOL0     C36512   0.675   1.727   4.389  0.5483 -0.1687 -0.3352
  990MOL0     O36513   0.755   1.819   4.318  0.2738 -0.1812  0.1623
  990MOL0     C36514   0.876   1.861   4.376 -0.6642  0.9073 -1.0538
  990MOL0     C36515   0.872   1.947   4.493 -0.0070  0.1873 -0.5220
  990MOL0     C36516   0.993   1.983   4.558  0.2678  0.6071  0.4743
  990MOL0     C36517   1.115   1.938   4.508  0.3932  0.4038 -0.0824
  990MOL0     O36518   1.225   1.998   4.565 -0.5742  0.3123 -0.1908
  990MOL0     C36519   1.351   1.994   4.504  0.6779  0.5224  0.9148
  990MOL0     C36520   1.452   2.070   4.587  0.3520  0.4996  0.5466
  990MOL0     C36521   1.594   2.041   4.551  0.0861 -0.4273 -0.0733
  990MOL0     C36522   1.638   2.083   4.401 -0.3478  0.1186 -0.2323
  990MOL0     C36523   1.799   2.101   4.377  0.2287 -0.1265  0.1486
  990MOL0     C36524   1.842   2.146   4.238 -0.0661 -0.2061  0.1396
  990MOL0     C36525   1.992   2.154   4.226  0.5283 -0.2273 -0.4138
  990MOL0     C36526   2.025   2.261   4.131 -0.1098  0.1369 -0.4151
  990MOL0    Cl36527   1.988   2.188   3.964  0.5936 -0.4740  0.0858
  990MOL0     C36528   1.115   1.843   4.409 -0.2676  0.5644  1.2088
  990MOL0     C36529   1.000   1.807   4.345 -0.4597 -0.4582  0.8947
  990MOL0     O36530   0.715   1.660   4.476 -0.7222  0.4255 -0.0405
  990MOL0     C36531   0.451   1.620   4.429  0.3314  0.0696  0.1228
  990MOL0     C36532   0.326   1.576   4.388 -1.2454 -0.0918  0.0730
  990MOL0     N36533  -0.264   1.640   3.894  0.1867 -0.2875  0.1519
  990MOL0     N36534  -0.309   1.757   3.847 -0.3874 -0.1337  0.2218
  990MOL0     C36535   0.497   2.467   4.185 -0.0433 -0.3869  0.2157
  990MOL0     C36536   0.602   2.521   4.269  0.1425 -0.3651 -0.5325
  990MOL0     C36537   0.851   2.626   4.614 -0.6301  0.5802  0.8167
  990MOL0     C36538   0.899   2.550   4.727 -0.0175 -0.1804 -0.2558
  990MOL0     C36539   1.030   2.551   4.771 -0.0234  0.0269 -0.2180
  990MOL0     C36540   1.125   2.625   4.716  0.4974 -0.7187  0.2617
  990MOL0     O36541   1.249   2.624   4.775 -0.3139  0.1650  0.6674
  990MOL0     C36542   1.353   2.705   4.724  0.4030  0.2112 -0.3880
  990MOL0     C36543   1.476   2.683   4.811  0.6583  0.2598  0.8377
  990MOL0     C36544   1.558   2.802   4.837 -0.1167 -0.7269 -0.7141
  990MOL0     C36545   1.660   2.843   4.731  0.0613  1.0529 -0.1225
  990MOL0     C36546   1.597   2.921   4.629  0.2954 -0.5308  0.0058
  990MOL0     C36547   1.549   2.987   4.545  0.4637 -0.1596 -0.4361
  990MOL0     C36548   1.085   2.710   4.606 -0.4931  0.2707 -0.0340
  990MOL0     C36549   0.956   2.702   4.553 -0.4500  0.1236 -0.2883
  990MOL0     C36550   0.928   2.789   4.427 -1.0399  1.0888 -0.4069
  990MOL0     H36551   0.401   2.699   4.491  0.7186  2.2292 -1.7141
  990MOL0     H36552   0.234   2.601   4.362 -1.6856 -0.5261 -2.2937
  990MOL0     H36553   0.286   2.288   4.044  1.7609  0.3120  2.1475
  990MOL0     H36554   0.335   2.453   3.986  0.0276  0.9056  0.3280
  990MOL0     H36555   0.084   2.503   3.964 -2.3084 -0.1778  1.1163
  990MOL0     H36556   0.119   2.352   3.883  1.0268  0.4829  0.4252
  990MOL0     H36557   0.064   2.254   4.144 -1.4629 -1.3431  0.0999
  990MOL0     H36558  -0.036   2.401   4.129 -1.5121  0.9649 -2.0331
  990MOL0     H36559  -0.109   2.291   3.896 -0.2226 -2.4682 -2.2232
  990MOL0     H36560  -0.023   2.154   3.952 -1.3607 -0.3456  0.4505
  990MOL0     H36561  -0.276   2.271   4.042  1.1013  2.7803  0.6308
  990MOL0     H36562  -0.180   2.190   4.173 -2.7636 -0.1558 -0.1291
  990MOL0     H36563  -0.223   2.052   3.902 -0.1010  1.0283 -1.0274
  990MOL0     H36564  -0.205   1.977   4.060  1.4662  0.8809 -1.1284
  990MOL0     H36565  -0.457   2.127   4.022 -0.6306  0.3184 -2.4211
  990MOL0     H36566  -0.420   1.981   4.125  0.9599 -2.1992 -1.7017
  990MOL0     H36567  -0.573   1.929   3.936  0.1650 -2.2202 -0.2628
  990MOL0     H36568  -0.454   1.980   3.830  0.7031 -1.1241 -0.0223
  990MOL0     H36569  -0.476   1.710   4.134 -0.3581 -1.3384 -0.8782
  990MOL0     H36570  -0.264   1.422   4.040 -1.3911 -0.7514  0.8449
  990MOL0     H36571  -0.328   1.490   4.194  0.3506 -1.2791 -0.7192
  990MOL0     H36572  -0.061   1.586   4.077 -0.3506  0.0231  0.6488
  990MOL0     H36573  -0.131   1.613   4.236 -0.1412 -0.5917  1.0845
  990MOL0     H36574  -0.124   1.379   4.287  0.2453  0.4806  1.3249
  990MOL0     H36575  -0.031   1.343   4.145 -0.7905 -1.1936  0.0009
  990MOL0     H36576   0.060   1.514   4.372 -1.5858 -0.4890  0.0490
  990MOL0     H36577   0.132   1.352   4.322 -0.8791 -0.6731  0.5202
  990MOL0     H36578   0.304   1.706   4.084 -0.4650  0.0263  1.0203
  990MOL0     H36579   0.652   1.746   4.086 -1.0322 -1.6423  1.2371
  990MOL0     H36580   0.602   1.897   4.167 -2.7154  0.6050  1.4254
  990MOL0     H36581   0.519   1.838   4.018  1.0474  1.2338 -0.0575
  990MOL0     H36582   0.771   1.971   4.527 -0.0676 -2.5625  1.6422
  990MOL0     H36583   0.983   2.048   4.644  0.3630  0.0824  0.8837
  990MOL0     H36584   1.378   1.888   4.497  2.8367  1.1456 -1.7236
  990MOL0     H36585   1.354   2.028   4.400  2.0828 -1.4337  0.2590
  990MOL0     H36586   1.441   2.178   4.569 -2.3406 -0.1636 -2.6963
  990MOL0     H36587   1.433   2.061   4.694  0.1937  3.6116  0.8741
  990MOL0     H36588   1.611   1.934   4.564 -1.4176 -1.1559 -3.2217
  990MOL0     H36589   1.649   2.093   4.630  0.3314 -5.1299  3.2326
  990MOL0     H36590   1.585   2.175   4.374 -1.8793 -0.6868 -0.0854
  990MOL0     H36591   1.609   1.999   4.337 -0.4796 -1.4932  1.8141
  990MOL0     H36592   1.845   2.174   4.444  0.7670  1.7807 -2.2076
  990MOL0     H36593   1.846   2.003   4.390  0.0920  0.0031  1.8170
  990MOL0     H36594   1.803   2.247   4.220  0.9269  0.4004  1.2777
  990MOL0     H36595   1.819   2.074   4.158 -1.1517 -1.2209  1.3152
  990MOL0     H36596   2.032   2.059   4.191  2.0996  0.7955 -1.5201
  990MOL0     H36597   2.030   2.174   4.326 -2.4303 -0.2129  0.8155
  990MOL0     H36598   2.129   2.293   4.143 -0.5175  1.9131 -1.2646
  990MOL0     H36599   1.969   2.351   4.156 -0.5236 -0.3665  0.5209
  990MOL0     H36600   1.198   1.785   4.369 -2.4027 -1.5020 -0.6288
  990MOL0     H36601   1.005   1.724   4.275  2.7936  1.4916 -1.4437
  990MOL0     H36602   0.489   1.602   4.529  1.5476 -1.0993 -0.5118
  990MOL0     H36603   0.275   1.511   4.459 -1.6298  1.5586  1.3961
  990MOL0     H36604   0.520   2.401   4.101  2.4351 -3.6534  3.1481
  990MOL0     H36605   0.703   2.493   4.243  0.4644  1.0486 -0.8569
  990MOL0     H36606   0.831   2.485   4.781  0.1676  2.1516  3.0638
  990MOL0     H36607   1.058   2.497   4.861 -0.9683  1.7613  1.1844
  990MOL0     H36608   1.370   2.699   4.617 -1.9291  0.4693 -0.8308
  990MOL0     H36609   1.317   2.807   4.738 -0.5099  0.0167 -1.2259
  990MOL0     H36610   1.541   2.606   4.768  1.8006  0.1737  2.5926
  990MOL0     H36611   1.451   2.644   4.910 -2.5636  0.7081  0.2946
  990MOL0     H36612   1.491   2.886   4.856 -0.5268 -0.8460 -1.5848
  990MOL0     H36613   1.629   2.792   4.919  1.0520  0.6651 -1.5066
  990MOL0     H36614   1.699   2.750   4.687  1.9145  1.1424  1.1979
  990MOL0     H36615   1.748   2.893   4.773  0.4804 -0.9845  1.5869
  990MOL0     H36616   1.499   3.049   4.473 -1.3445 -1.4042 -0.3070
  990MOL0     H36617   1.153   2.781   4.560  0.5477 -1.0176 -0.5371
  990MOL0     H36618   0.839   2.852   4.430 -2.3925 -0.6902 -1.0362
  990MOL0     H36619   1.023   2.837   4.400 -0.7067  0.6505 -0.0442
  990MOL0     H36620   0.914   2.720   4.343 -0.0713  1.1238 -0.6158
  991MOL0     O36621   7.874   6.192   0.503  0.4982  0.2782 -0.3449
  991MOL0     C36622   7.834   6.280   0.576 -0.9368 -0.3172  0.1314
  991MOL0     O36623   7.920   6.359   0.658  0.7244  0.3758 -0.2838
  991MOL0     C36624   8.057   6.331   0.652 -0.4036  0.8455  0.9144
  991MOL0     C36625   8.106   6.276   0.769 -0.2234 -0.3854  0.3328
  991MOL0     C36626   8.243   6.241   0.775 -0.1582 -0.0603 -0.3133
  991MOL0     C36627   8.341   6.271   0.686  0.0890  0.4228 -0.5162
  991MOL0     O36628   8.475   6.235   0.697  0.4614  0.4461  0.1772
  991MOL0     C36629   8.544   6.305   0.793 -0.5966 -0.2035 -0.7998
  991MOL0     C36630   8.569   6.445   0.741 -0.1873  0.0681  0.2506
  991MOL0     C36631   8.630   6.450   0.596  0.0341  0.3951 -0.5712
  991MOL0     C36632   8.788   6.458   0.603  0.5052 -0.2991 -0.0746
  991MOL0     C36633   8.844   6.501   0.472  0.7531 -0.2085 -0.0999
  991MOL0     C36634   8.990   6.485   0.487  0.0129  0.1923  0.4777
  991MOL0     C36635   9.069   6.521   0.360 -0.5146 -0.2074 -0.1451
  991MOL0     C36636   9.208   6.475   0.393 -0.0760 -0.2332 -0.1679
  991MOL0     N36637   9.273   6.503   0.265  0.5851 -0.0998  0.2646
  991MOL0     C36638   9.368   6.597   0.240 -0.0871 -0.5457  0.8112
  991MOL0     C36639   9.405   6.573   0.112 -0.0028 -0.1350 -0.7579
  991MOL0     C36640   9.505   6.645   0.020  0.4873  0.0385 -0.4236
  991MOL0     C36641   9.461   6.793   0.015 -1.1317 -0.3815 -0.6532
  991MOL0     C36642   9.545   6.889  -0.076 -0.0811 -0.3019  0.1798
  991MOL0     C36643   9.680   6.920  -0.018 -0.7175 -0.9108 -0.8454
  991MOL0     O36644   9.675   7.020   0.092  0.1693  0.1810  0.0885
  991MOL0     C36645   9.789   7.087   0.126 -0.0909 -0.5109  0.1201
  991MOL0     C36646   9.778   7.212   0.195 -0.1287  0.4909 -0.2007
  991MOL0     C36647   9.890   7.287   0.221 -0.2691  0.3443 -0.4369
  991MOL0     C36648   9.863   7.416   0.284 -0.5112 -0.4241 -0.4747
  991MOL0     C36649  10.019   7.228   0.194 -0.3238 -0.4943 -0.1980
  991MOL0     C36650  10.156   7.296   0.217  0.2058  0.3121 -0.4867
  991MOL0     O36651  10.270   7.216   0.219 -0.0895  0.2577  0.1036
  991MOL0     C36652  10.386   7.274   0.218  0.1602 -0.0331 -0.4845
  991MOL0     C36653  10.436   7.337   0.336  0.1994  0.3499 -0.1137
  991MOL0     C36654  10.570   7.372   0.336  0.3372  0.1026  0.3077
  991MOL0     C36655  10.650   7.357   0.222  0.1643  0.3820  0.5123
  991MOL0     O36656  10.788   7.395   0.235  0.8018 -0.8456  0.0470
  991MOL0     C36657  10.854   7.442   0.116  0.5273 -0.2702  0.7980
  991MOL0     C36658  10.986   7.505   0.157 -0.2441 -0.2895 -1.4846
  991MOL0     C36659  11.072   7.525   0.037  0.3283  0.2805  0.5547
  991MOL0     C36660  11.221   7.568   0.066  0.2992 -0.3675  1.2251
  991MOL0     C36661  11.300   7.571  -0.069  0.1041 -0.6216 -0.0024
  991MOL0     C36662  11.436   7.637  -0.056  0.8359  0.1661 -0.1879
  991MOL0     C36663  11.528   7.608  -0.177  0.0675 -0.9747  0.4639
  991MOL0     C36664  11.631   7.504  -0.164  0.5842  0.8877 -0.2272
  991MOL0    Cl36665  11.784   7.547  -0.071 -0.0771  0.4231 -0.0330
  991MOL0     C36666  10.602   7.295   0.107 -0.1590  0.0527 -0.6450
  991MOL0     C36667  10.466   7.260   0.104 -0.3361  0.0212 -0.4794
  991MOL0     O36668  10.156   7.419   0.215 -0.8172 -0.4428  0.5716
  991MOL0     C36669  10.023   7.103   0.129  0.0420 -0.4523 -0.2148
  991MOL0     C36670   9.908   7.033   0.098 -0.4302  0.3514 -0.2270
  991MOL0     N36671   9.345   6.458   0.069 -0.0585  1.1422 -0.0531
  991MOL0     N36672   9.261   6.417   0.160  0.1913  0.1634  0.0788
  991MOL0     C36673   8.282   6.319   0.567  0.2140 -0.1676 -1.0064
  991MOL0     C36674   8.144   6.350   0.553 -0.4709  0.8279 -0.5033
  991MOL0     C36675   7.684   6.305   0.588 -0.5845 -0.1560 -1.1110
  991MOL0     C36676   7.644   6.392   0.694 -0.6089 -0.4021  0.2690
  991MOL0     C36677   7.518   6.459   0.705  0.5990  0.2479 -0.8194
  991MOL0     C36678   7.416   6.423   0.614  0.3442 -0.5353 -0.5968
  991MOL0     O36679   7.294   6.473   0.623 -0.1422 -0.6679  0.1712
  991MOL0     C36680   7.245   6.546   0.735  0.0524 -0.2443  0.0943
  991MOL0     C36681   7.092   6.562   0.733  1.0101  0.7758  1.0087
  991MOL0     C36682   7.039   6.648   0.845  0.2597 -0.5536 -0.6777
  991MOL0     C36683   6.888   6.624   0.871  0.2522 -0.0197  1.1215
  991MOL0     C36684   6.800   6.632   0.754 -0.1307 -0.5542 -0.9642
  991MOL0     C36685   6.732   6.625   0.662 -0.1661 -0.1838  0.3554
  991MOL0     C36686   7.448   6.333   0.513 -0.0339  0.2447  0.3034
  991MOL0     C36687   7.579   6.270   0.504 -0.2204  0.2836  0.0964
  991MOL0     C36688   7.605   6.170   0.404 -0.4956  0.1599  0.6727
  991MOL0     H36689   8.027   6.259   0.841 -2.4388 -1.1707 -2.1049
  991MOL0     H36690   8.278   6.178   0.857  0.9255  2.3430  1.1800
  991MOL0     H36691   8.642   6.257   0.802 -0.4502  0.3298  1.0977
  991MOL0     H36692   8.490   6.297   0.888  2.4549 -4.4765  0.9074
  991MOL0     H36693   8.476   6.502   0.739  0.6213  1.7646  3.6801
  991MOL0     H36694   8.633   6.507   0.805 -0.2135  0.6668 -0.2882
  991MOL0     H36695   8.604   6.358   0.543  1.0697 -1.7422  2.3684
  991MOL0     H36696   8.593   6.539   0.544  3.7182  0.8028 -2.8182
  991MOL0     H36697   8.821   6.536   0.672  1.1380  0.1842 -0.9099
  991MOL0     H36698   8.822   6.358   0.632 -2.9974 -1.8464 -0.7346
  991MOL0     H36699   8.819   6.608   0.462  0.3117 -0.4990 -3.1449
  991MOL0     H36700   8.801   6.450   0.385 -0.3638  0.2334  0.1726
  991MOL0     H36701   9.022   6.542   0.575 -0.6501 -0.9741  1.5071
  991MOL0     H36702   9.000   6.381   0.518 -0.8577  0.7387  2.8016
  991MOL0     H36703   9.076   6.626   0.329  0.6340 -0.2319 -0.0303
  991MOL0     H36704   9.029   6.464   0.276  1.3198 -3.5371  1.0731
  991MOL0     H36705   9.240   6.527   0.484  0.6638  1.3534 -1.2727
  991MOL0     H36706   9.219   6.370   0.419  1.2865  0.0556  0.5433
  991MOL0     H36707   9.402   6.676   0.306  0.7840 -0.3035  0.0928
  991MOL0     H36708   9.502   6.617  -0.086 -0.4830  1.9643 -0.9621
  991MOL0     H36709   9.607   6.642   0.059  1.0072  0.8787 -1.6479
  991MOL0     H36710   9.354   6.801  -0.008 -1.3836 -1.5736  0.0318
  991MOL0     H36711   9.459   6.830   0.118 -1.8572 -1.2869 -0.3296
  991MOL0     H36712   9.570   6.840  -0.171  0.9070 -1.0447  0.8143
  991MOL0     H36713   9.492   6.984  -0.090 -1.6742 -0.8825  1.8936
  991MOL0     H36714   9.713   6.828   0.031 -1.2794  0.2377  1.8361
  991MOL0     H36715   9.755   6.944  -0.095 -1.8429 -0.1031 -1.7196
  991MOL0     H36716   9.679   7.256   0.203  0.6515  1.9551  2.6720
  991MOL0     H36717   9.855   7.398   0.392  0.0662  0.1139 -0.3359
  991MOL0     H36718   9.762   7.449   0.255 -0.9135  1.3935  2.5212
  991MOL0     H36719   9.928   7.497   0.251 -1.6245  1.3946  1.4876
  991MOL0     H36720  10.386   7.352   0.432  1.6014 -0.9780  0.8838
  991MOL0     H36721  10.610   7.425   0.422  2.9060  1.3080 -1.4884
  991MOL0     H36722  10.870   7.363   0.041  1.2467  1.5262 -1.0304
  991MOL0     H36723  10.785   7.508   0.062 -1.0309 -1.6322  1.0269
  991MOL0     H36724  10.975   7.605   0.201  2.7558 -0.4255 -0.1128
  991MOL0     H36725  11.035   7.444   0.233  1.2867  2.5011 -0.0610
  991MOL0     H36726  11.027   7.610  -0.014  2.9355  1.9552  0.8635
  991MOL0     H36727  11.069   7.435  -0.025 -0.9479  0.2428  0.6575
  991MOL0     H36728  11.276   7.492   0.123  1.1414 -2.0169 -1.5670
  991MOL0     H36729  11.215   7.665   0.115  1.5068  0.7375 -0.6731
  991MOL0     H36730  11.301   7.472  -0.115  1.6724  0.3819 -2.3051
  991MOL0     H36731  11.237   7.632  -0.134  1.4325  1.0401  0.1860
  991MOL0     H36732  11.486   7.593   0.031  0.3165 -3.6718 -1.6431
  991MOL0     H36733  11.409   7.741  -0.035 -2.4438 -0.7518  0.7500
  991MOL0     H36734  11.580   7.701  -0.204 -1.4808  0.4426  2.1206
  991MOL0     H36735  11.464   7.591  -0.263  1.1909 -0.1424 -0.5831
  991MOL0     H36736  11.672   7.469  -0.259  0.4012  1.2822 -0.4530
  991MOL0     H36737  11.578   7.417  -0.124  2.5048  0.6757  2.1022
  991MOL0     H36738  10.662   7.281   0.018  1.5796  1.6201  0.2112
  991MOL0     H36739  10.428   7.191   0.029  0.6944 -1.5848  0.4133
  991MOL0     H36740  10.118   7.063   0.094  1.7548  1.6994  1.6019
  991MOL0     H36741   9.938   6.938   0.056  1.9392  2.1400 -2.9244
  991MOL0     H36742   8.346   6.334   0.481  2.8134 -0.3279  0.7985
  991MOL0     H36743   8.113   6.385   0.455 -0.5097 -0.2954 -0.9051
  991MOL0     H36744   7.712   6.429   0.770  0.2963 -1.8063  0.1811
  991MOL0     H36745   7.502   6.533   0.783  0.6214  2.0445 -2.4522
  991MOL0     H36746   7.260   6.492   0.829  1.3388  1.4405  0.9128
  991MOL0     H36747   7.301   6.639   0.747 -2.9952  1.7029  0.2720
  991MOL0     H36748   7.049   6.462   0.750 -0.6451  1.6494  2.2386
  991MOL0     H36749   7.054   6.600   0.638 -0.2031  1.7572  1.8534
  991MOL0     H36750   7.089   6.634   0.942 -0.0629  1.2670 -0.2160
  991MOL0     H36751   7.056   6.751   0.813  0.8906 -0.5837 -0.4605
  991MOL0     H36752   6.849   6.700   0.940 -3.7347  0.4437 -1.3329
  991MOL0     H36753   6.876   6.522   0.911 -0.1782  0.3352  1.9274
  991MOL0     H36754   6.673   6.612   0.573  3.0634  0.6308 -2.0788
  991MOL0     H36755   7.370   6.309   0.440  0.4704  1.7975 -0.7871
  991MOL0     H36756   7.618   6.073   0.452 -2.7087 -1.4078 -1.5871
  991MOL0     H36757   7.535   6.155   0.321 -0.4313  2.2166  0.1996
  991MOL0     H36758   7.696   6.193   0.347  0.1837  0.4791  1.8479
  992MOL0     O36759   9.376   5.060   1.181 -0.5247 -0.0885 -0.1226
  992MOL0     C36760   9.348   4.937   1.180 -0.5043 -0.9685 -0.0730
  992MOL0     O36761   9.439   4.828   1.173 -0.1737  0.1732  0.4626
  992MOL0     C36762   9.575   4.865   1.155  0.2495  0.2471  1.0422
  992MOL0     C36763   9.655   4.783   1.076 -0.3101 -0.4183  0.5489
  992MOL0     C36764   9.790   4.796   1.074 -0.8851 -0.1190  0.2453
  992MOL0     C36765   9.852   4.878   1.168 -0.4929 -0.7241 -0.6356
  992MOL0     O36766   9.985   4.875   1.200 -0.0363 -0.3043 -0.2247
  992MOL0     C36767  10.067   4.815   1.105 -0.4962  0.6035  0.0716
  992MOL0     C36768  10.214   4.864   1.121  0.2459 -0.4631  0.6199
  992MOL0     C36769  10.279   4.810   1.240  0.4612  0.1472 -0.1407
  992MOL0     C36770  10.434   4.802   1.244  0.6736  0.3454  0.6184
  992MOL0     C36771  10.480   4.746   1.377 -0.7003  0.0806  0.6074
  992MOL0     C36772  10.632   4.751   1.395  0.4761 -0.7612 -0.6128
  992MOL0     C36773  10.721   4.682   1.284 -0.4928 -0.0658  0.1704
  992MOL0     C36774  10.864   4.694   1.318 -0.1317  0.8336 -0.7547
  992MOL0     N36775  10.944   4.695   1.200  0.3734 -0.0652  0.8415
  992MOL0     C36776  10.953   4.594   1.111  0.1893 -0.0620  0.1147
  992MOL0     C36777  11.027   4.648   1.015  0.1321 -0.6459  0.3327
  992MOL0     C36778  11.072   4.570   0.893 -0.5156  0.1445  0.5067
  992MOL0     C36779  11.221   4.537   0.900  0.4356  0.4579 -0.1515
  992MOL0     C36780  11.242   4.449   1.020  0.0570  0.0391 -0.3531
  992MOL0     C36781  11.389   4.410   1.035 -0.0914 -0.1415 -0.4035
  992MOL0     O36782  11.428   4.320   0.938 -0.3029  0.5503 -0.3181
  992MOL0     C36783  11.551   4.311   0.886 -0.2369  0.4972  0.0963
  992MOL0     C36784  11.670   4.339   0.951  0.3960  0.3389 -0.5425
  992MOL0     C36785  11.797   4.303   0.904  2.0512  0.1360 -0.3708
  992MOL0     C36786  11.914   4.325   0.994  0.2105 -0.0113 -0.0467
  992MOL0     C36787  11.816   4.258   0.773 -0.0747  0.0068 -0.3578
  992MOL0     C36788  11.945   4.229   0.696  0.3981  0.3426  0.6432
  992MOL0     O36789  11.935   4.174   0.572 -0.4403  0.2784 -0.1742
  992MOL0     C36790  12.046   4.145   0.500  0.1212 -1.0499  0.0561
  992MOL0     C36791  12.079   4.247   0.413  0.4041 -0.2213 -0.5203
  992MOL0     C36792  12.194   4.229   0.334  0.2895 -0.4464  0.8140
  992MOL0     C36793  12.269   4.113   0.337 -0.1707 -0.0380  0.2285
  992MOL0     O36794  12.375   4.101   0.262  0.6351 -0.7940 -0.4813
  992MOL0     C36795  12.363   4.145   0.124 -0.2426  0.1568 -0.4052
  992MOL0     C36796  12.500   4.107   0.058 -0.1921  0.2861  0.1605
  992MOL0     C36797  12.503   4.169  -0.084 -0.4341  0.0013 -0.3755
  992MOL0     C36798  12.641   4.155  -0.129 -0.7662  0.3298  0.5826
  992MOL0     C36799  12.673   4.225  -0.256  0.9162 -0.4446 -0.6090
  992MOL0     C36800  12.818   4.214  -0.291 -0.6483 -0.4969 -0.1559
  992MOL0     C36801  12.843   4.306  -0.414 -0.3535 -0.4010  0.4432
  992MOL0     C36802  12.996   4.289  -0.456  1.5210 -0.1635 -0.4115
  992MOL0    Cl36803  13.029   4.426  -0.568  0.1608 -0.2843  0.0823
  992MOL0     C36804  12.227   4.011   0.426  0.2857  0.6767 -0.3277
  992MOL0     C36805  12.110   4.028   0.501  0.1052  0.6918 -0.3820
  992MOL0     O36806  12.051   4.268   0.745 -0.3350  0.2985  0.3362
  992MOL0     C36807  11.697   4.218   0.703  0.0275 -0.4789  0.1546
  992MOL0     C36808  11.572   4.245   0.770 -0.4514  0.3175  0.0519
  992MOL0     N36809  11.051   4.780   1.034 -0.0518 -0.3278  0.8158
  992MOL0     N36810  11.006   4.809   1.158 -0.5607  1.1103  0.6204
  992MOL0     C36811   9.775   4.955   1.248  1.4208 -0.0046  1.0048
  992MOL0     C36812   9.637   4.953   1.242  0.2196 -0.1800  0.8613
  992MOL0     C36813   9.206   4.896   1.154 -0.2348 -1.3002 -0.2003
  992MOL0     C36814   9.179   4.757   1.159  0.1480  0.3433  0.1322
  992MOL0     C36815   9.058   4.700   1.123  0.3539 -0.3975 -0.8877
  992MOL0     C36816   8.945   4.786   1.110  0.1510  0.2399 -0.4259
  992MOL0     O36817   8.824   4.739   1.078  0.3574 -1.3076 -0.2512
  992MOL0     C36818   8.817   4.683   0.950  0.6576 -0.9574  0.0181
  992MOL0     C36819   8.676   4.630   0.921 -0.7419 -0.7657  0.0137
  992MOL0     C36820   8.548   4.716   0.938 -0.0114 -0.1270  0.2511
  992MOL0     C36821   8.480   4.709   1.070  0.7124  0.0003 -0.4216
  992MOL0     C36822   8.432   4.579   1.099  0.2935  0.6849  0.2478
  992MOL0     C36823   8.401   4.460   1.123  0.7530  0.3733 -0.5259
  992MOL0     C36824   8.968   4.931   1.113 -0.0882  0.9001  0.2442
  992MOL0     C36825   9.099   4.987   1.139  0.2581  0.4267  0.9867
  992MOL0     C36826   9.110   5.142   1.137 -0.5760  1.1879 -0.2819
  992MOL0     H36827   9.596   4.720   1.010  1.1465 -1.5239  0.2561
  992MOL0     H36828   9.838   4.715   1.019 -0.6486 -2.1809  3.2527
  992MOL0     H36829  10.034   4.853   1.008  3.6079 -1.1032 -2.2548
  992MOL0     H36830  10.057   4.706   1.109 -0.6926  0.3344 -3.6217
  992MOL0     H36831  10.272   4.821   1.039  1.1138  3.4133 -1.0706
  992MOL0     H36832  10.221   4.973   1.112 -1.7906 -0.3699 -0.5488
  992MOL0     H36833  10.254   4.873   1.326 -2.2301 -0.7725 -0.1745
  992MOL0     H36834  10.239   4.712   1.269  1.2905 -0.3209 -0.5484
  992MOL0     H36835  10.457   4.735   1.161 -3.7352 -2.0701  1.0059
  992MOL0     H36836  10.483   4.898   1.229  0.3609  0.3490 -0.4399
  992MOL0     H36837  10.443   4.643   1.384 -0.8120 -0.1456 -2.1548
  992MOL0     H36838  10.439   4.795   1.465  0.4266  1.9937  0.1192
  992MOL0     H36839  10.668   4.854   1.396  0.7140 -0.8082 -2.1769
  992MOL0     H36840  10.660   4.706   1.491  1.8370  0.2073 -0.5202
  992MOL0     H36841  10.698   4.713   1.182  0.4240  2.4945  0.6631
  992MOL0     H36842  10.697   4.575   1.281  0.6610 -0.3027 -2.1795
  992MOL0     H36843  10.885   4.790   1.365 -2.1056  1.5064 -1.1326
  992MOL0     H36844  10.898   4.622   1.392  3.7585  0.6204 -2.5114
  992MOL0     H36845  10.925   4.489   1.111 -2.6316  0.5939 -0.3346
  992MOL0     H36846  11.061   4.641   0.810 -1.2681 -2.1104 -1.4650
  992MOL0     H36847  11.009   4.485   0.864 -0.2863 -0.4597  1.7111
  992MOL0     H36848  11.243   4.492   0.803  0.7455  2.4507 -1.0463
  992MOL0     H36849  11.276   4.631   0.900 -0.5494  1.0764 -1.6407
  992MOL0     H36850  11.216   4.503   1.112 -1.9979 -3.4115  1.2994
  992MOL0     H36851  11.189   4.354   1.015  2.2135 -1.1907 -1.4416
  992MOL0     H36852  11.459   4.494   1.035  1.2526 -1.1158  2.4576
  992MOL0     H36853  11.401   4.356   1.130 -2.6260  1.0341  0.6756
  992MOL0     H36854  11.654   4.376   1.052 -0.2481  0.6521 -0.7550
  992MOL0     H36855  11.983   4.241   1.007  1.0259  0.5697 -0.5371
  992MOL0     H36856  11.894   4.362   1.095  2.5009  1.0922  0.0526
  992MOL0     H36857  11.978   4.399   0.946  2.1435 -1.3691  0.3062
  992MOL0     H36858  12.009   4.329   0.408  1.1601  0.4944  0.3125
  992MOL0     H36859  12.224   4.312   0.271  1.7478 -2.1208 -0.8281
  992MOL0     H36860  12.289   4.085   0.071 -0.4775  0.5096 -0.4771
  992MOL0     H36861  12.356   4.254   0.123 -0.6920  0.1352 -1.9789
  992MOL0     H36862  12.583   4.146   0.118 -0.0293  1.7449 -0.9512
  992MOL0     H36863  12.504   3.998   0.060 -0.7874  0.2456  3.0879
  992MOL0     H36864  12.470   4.273  -0.081 -1.7523 -0.4192  0.9110
  992MOL0     H36865  12.436   4.111  -0.148 -1.9869 -0.5035  1.5888
  992MOL0     H36866  12.665   4.049  -0.137 -0.1192  0.5695 -0.9793
  992MOL0     H36867  12.708   4.195  -0.052  2.4237 -1.4582 -1.1029
  992MOL0     H36868  12.631   4.181  -0.347  1.4452 -0.4406 -0.8555
  992MOL0     H36869  12.643   4.330  -0.248 -1.2296 -1.0581  0.1258
  992MOL0     H36870  12.848   4.114  -0.322  2.2204  0.0218  0.6450
  992MOL0     H36871  12.884   4.249  -0.211 -0.0978 -3.7196  0.9463
  992MOL0     H36872  12.815   4.409  -0.389  1.7252  1.2285 -3.1129
  992MOL0     H36873  12.785   4.284  -0.504 -0.5640  2.4632 -0.2258
  992MOL0     H36874  12.997   4.199  -0.519  2.8831 -0.6399  0.2644
  992MOL0     H36875  13.065   4.274  -0.373 -0.1565 -0.1656  1.0289
  992MOL0     H36876  12.273   3.913   0.421 -0.3907  0.4231 -3.1121
  992MOL0     H36877  12.065   3.945   0.554 -2.8331  2.5151  0.2273
  992MOL0     H36878  11.698   4.189   0.599 -2.0983  0.6277 -0.2223
  992MOL0     H36879  11.484   4.201   0.725 -0.2792 -1.1535  1.0741
  992MOL0     H36880   9.810   5.017   1.330  1.2124  2.0756 -0.4019
  992MOL0     H36881   9.578   5.009   1.314  0.1101  0.3157  0.3963
  992MOL0     H36882   9.258   4.687   1.185  1.3442  1.8520  0.7012
  992MOL0     H36883   9.036   4.594   1.125 -0.7982 -0.2432  2.9156
  992MOL0     H36884   8.844   4.756   0.873 -1.8760 -1.8334 -1.8348
  992MOL0     H36885   8.885   4.600   0.931 -1.2313 -1.9732 -2.9031
  992MOL0     H36886   8.664   4.526   0.953 -0.0414 -1.6825 -2.4265
  992MOL0     H36887   8.688   4.606   0.815 -0.6976  0.1718 -0.2037
  992MOL0     H36888   8.584   4.818   0.920  1.0995 -0.2483  1.6342
  992MOL0     H36889   8.469   4.687   0.868 -0.3888 -0.4976  0.8151
  992MOL0     H36890   8.391   4.771   1.082 -1.1907 -2.9009  1.6367
  992MOL0     H36891   8.540   4.734   1.158  1.5782  0.6919 -1.1862
  992MOL0     H36892   8.391   4.360   1.160  1.5279  1.1107  1.8133
  992MOL0     H36893   8.885   4.995   1.083  0.0424  1.8018  1.7533
  992MOL0     H36894   9.133   5.176   1.238  0.7978 -1.7034  0.4880
  992MOL0     H36895   9.187   5.172   1.065  0.2111 -1.2236 -0.5416
  992MOL0     H36896   9.012   5.185   1.113 -1.5651 -1.8395 -2.2227
  993MOL0     O36897   5.859   2.706   2.872  0.5963 -0.6365 -0.6548
  993MOL0     C36898   5.829   2.827   2.888  0.9790 -0.3046 -0.5339
  993MOL0     O36899   5.924   2.923   2.912  0.6277  0.7220 -0.3450
  993MOL0     C36900   6.057   2.884   2.927  0.4938 -1.4042  0.1403
  993MOL0     C36901   6.104   2.846   3.054 -0.0258  1.0075 -0.1825
  993MOL0     C36902   6.241   2.797   3.067  0.4786  0.0809 -0.1646
  993MOL0     C36903   6.331   2.771   2.956  0.2504  0.4701  0.2874
  993MOL0     O36904   6.460   2.720   2.984  0.6369  0.2530  0.4305
  993MOL0     C36905   6.563   2.797   2.929 -0.0234 -0.2857  0.2635
  993MOL0     C36906   6.691   2.736   2.986  0.3056  0.3519  0.0238
  993MOL0     C36907   6.815   2.788   2.915 -0.0101 -0.3209 -0.5329
  993MOL0     C36908   6.796   2.883   2.792 -0.4531 -0.9160 -0.0214
  993MOL0     C36909   6.921   2.977   2.765 -0.2595  0.6692  0.3275
  993MOL0     C36910   7.029   2.895   2.705 -0.1328 -0.3312  1.1578
  993MOL0     C36911   7.152   2.975   2.669  0.7396 -0.2362  1.0642
  993MOL0     C36912   7.129   3.069   2.552 -1.0250  0.4600  0.3570
  993MOL0     N36913   7.256   3.144   2.538 -0.3184 -0.0351 -0.1676
  993MOL0     C36914   7.357   3.087   2.464 -0.2823  0.5045 -0.1971
  993MOL0     C36915   7.447   3.183   2.471 -0.2398  0.0797 -0.8233
  993MOL0     C36916   7.581   3.181   2.404 -0.0003  0.1037 -0.3874
  993MOL0     C36917   7.685   3.289   2.441  0.5288 -0.0802 -0.7772
  993MOL0     C36918   7.718   3.299   2.588 -0.1441 -0.5208  0.2415
  993MOL0     C36919   7.781   3.176   2.644  0.1035 -0.6156  0.1100
  993MOL0     O36920   7.880   3.146   2.546 -0.3677 -0.2391 -0.9097
  993MOL0     C36921   7.998   3.097   2.594  0.1440  0.7251  0.8688
  993MOL0     C36922   8.024   3.032   2.720  0.2852 -0.2780  0.5458
  993MOL0     C36923   8.153   3.014   2.764  0.6665  0.1085 -0.5131
  993MOL0     C36924   8.167   2.958   2.904 -0.3606 -0.5926 -0.1459
  993MOL0     C36925   8.266   3.049   2.681  0.5814  0.2098  0.1224
  993MOL0     C36926   8.412   3.026   2.703  1.0071 -0.4471 -0.4140
  993MOL0     O36927   8.494   3.120   2.638  0.4616 -0.0021 -0.2472
  993MOL0     C36928   8.625   3.097   2.630  0.9937 -0.7190  0.1143
  993MOL0     C36929   8.701   3.054   2.741 -0.1631 -0.7375  0.4709
  993MOL0     C36930   8.843   3.043   2.723  0.0917  1.1296 -0.7937
  993MOL0     C36931   8.906   3.070   2.599  1.2736 -0.1042  0.3763
  993MOL0     O36932   9.042   3.038   2.587 -0.1076 -0.6928 -0.2506
  993MOL0     C36933   9.119   3.151   2.555 -0.6719 -0.6455  0.0017
  993MOL0     C36934   9.269   3.120   2.568  0.3245 -0.7537 -0.3527
  993MOL0     C36935   9.342   3.258   2.563 -0.1233 -0.0298 -0.0637
  993MOL0     C36936   9.490   3.220   2.564 -0.0639  0.7760 -0.2653
  993MOL0     C36937   9.575   3.352   2.557 -1.1277  0.2487 -0.1460
  993MOL0     C36938   9.726   3.312   2.539  0.0944  1.0611  0.0994
  993MOL0     C36939   9.808   3.416   2.477  0.0058 -0.4028 -0.3629
  993MOL0     C36940   9.954   3.362   2.472 -0.4586 -0.3694  0.9362
  993MOL0    Cl36941  10.069   3.502   2.450 -0.5263  0.3428 -0.2095
  993MOL0     C36942   8.828   3.114   2.490  0.9511 -0.0573  0.0159
  993MOL0     C36943   8.689   3.131   2.511 -0.0488  0.3289 -0.4255
  993MOL0     O36944   8.448   2.945   2.785 -0.7065 -0.1294 -0.5041
  993MOL0     C36945   8.237   3.099   2.550 -0.2744  0.2618  0.6166
  993MOL0     C36946   8.111   3.106   2.502 -0.3780 -0.4544  0.1619
  993MOL0     N36947   7.393   3.297   2.520 -0.2771 -0.1241 -0.1652
  993MOL0     N36948   7.280   3.279   2.567  0.3322  0.5522 -0.1274
  993MOL0     C36949   6.284   2.809   2.828 -0.1542  0.7167  0.2226
  993MOL0     C36950   6.145   2.866   2.818 -0.6643 -0.1622  0.0144
  993MOL0     C36951   5.697   2.870   2.850  1.1836  0.6283  1.0588
  993MOL0     C36952   5.678   2.995   2.789 -0.3148 -0.5915  0.0037
  993MOL0     C36953   5.555   3.039   2.744  0.1835 -0.4395  0.2250
  993MOL0     C36954   5.447   2.960   2.759  0.3463  0.8072  0.5019
  993MOL0     O36955   5.318   2.994   2.714 -0.4576 -0.3540  0.1295
  993MOL0     C36956   5.296   3.083   2.597 -1.3146  0.3117 -0.1843
  993MOL0     C36957   5.151   3.083   2.578  0.3209 -0.0791  0.7716
  993MOL0     C36958   5.083   2.947   2.574 -0.8513 -0.0816  0.3177
  993MOL0     C36959   5.155   2.837   2.493  0.0954  0.8326 -0.5566
  993MOL0     C36960   5.190   2.864   2.360 -0.7504 -1.2413  0.6428
  993MOL0     C36961   5.228   2.859   2.240  0.2310 -0.6033 -0.4093
  993MOL0     C36962   5.457   2.844   2.834 -0.4863  0.8172  0.1602
  993MOL0     C36963   5.577   2.790   2.869  0.7621  0.8221  0.4752
  993MOL0     C36964   5.572   2.655   2.935  0.2471 -0.1429  0.0986
  993MOL0     H36965   6.042   2.844   3.143  2.7324 -1.3748  1.8404
  993MOL0     H36966   6.271   2.764   3.166  0.3874  0.3311 -0.0513
  993MOL0     H36967   6.557   2.904   2.951  2.0820 -0.4324  1.8524
  993MOL0     H36968   6.576   2.781   2.821  1.8941 -0.9020  0.5440
  993MOL0     H36969   6.694   2.765   3.092 -1.3689  2.5192 -0.4695
  993MOL0     H36970   6.688   2.628   2.971  0.5279  0.5317 -1.4239
  993MOL0     H36971   6.894   2.815   2.986 -1.2187  0.6631  0.5103
  993MOL0     H36972   6.855   2.696   2.872  1.3558 -0.0479  0.1103
  993MOL0     H36973   6.765   2.829   2.703 -0.6796  0.7739 -1.0154
  993MOL0     H36974   6.722   2.959   2.819  0.3402  1.1662 -3.2010
  993MOL0     H36975   6.962   3.019   2.858 -2.1722 -1.2818  2.1759
  993MOL0     H36976   6.897   3.054   2.692 -3.7030 -0.8572 -0.3481
  993MOL0     H36977   7.062   2.812   2.768 -3.1707 -2.6134 -0.0066
  993MOL0     H36978   6.982   2.853   2.616 -3.0936  1.2722  1.8465
  993MOL0     H36979   7.237   2.909   2.650  0.0167 -0.3490 -2.3364
  993MOL0     H36980   7.169   3.035   2.759 -1.8646  1.7692  0.3477
  993MOL0     H36981   7.113   3.021   2.455 -0.2626  0.9730 -0.0359
  993MOL0     H36982   7.045   3.131   2.588 -0.7631  0.3862  1.1101
  993MOL0     H36983   7.365   2.996   2.406  2.4373  0.9898 -0.6988
  993MOL0     H36984   7.576   3.211   2.299  1.7024  2.6313  0.1669
  993MOL0     H36985   7.616   3.077   2.406 -0.5533 -0.2158 -3.1281
  993MOL0     H36986   7.775   3.269   2.383  1.9146  1.4258  0.7481
  993MOL0     H36987   7.653   3.386   2.403  0.3022  0.2257  0.1601
  993MOL0     H36988   7.784   3.387   2.593  1.2390 -1.3376 -2.0073
  993MOL0     H36989   7.631   3.323   2.650  0.7994  0.5713  1.2029
  993MOL0     H36990   7.820   3.183   2.746  0.0478  3.0437  0.0004
  993MOL0     H36991   7.705   3.098   2.635 -0.5187  0.1863 -2.4067
  993MOL0     H36992   7.937   3.005   2.780  1.5818 -0.9615  2.1977
  993MOL0     H36993   8.245   3.016   2.956 -0.8082  0.2853 -0.4415
  993MOL0     H36994   8.185   2.852   2.885  0.9561 -0.1679 -1.4455
  993MOL0     H36995   8.074   2.974   2.959  0.6845 -3.1678  2.6455
  993MOL0     H36996   8.660   3.051   2.841  2.0098  0.9344  1.5064
  993MOL0     H36997   8.894   2.993   2.805  1.9405  1.3638 -1.7398
  993MOL0     H36998   9.097   3.167   2.449 -1.4617 -1.0762  0.0970
  993MOL0     H36999   9.075   3.237   2.607 -1.5706 -2.6904  2.8416
  993MOL0     H37000   9.280   3.069   2.664  1.9061 -2.0228 -1.1551
  993MOL0     H37001   9.300   3.050   2.489 -1.0163 -0.9260 -0.7528
  993MOL0     H37002   9.323   3.305   2.660 -0.7020 -1.2116  0.4205
  993MOL0     H37003   9.310   3.318   2.477  2.2232  1.4666  0.0190
  993MOL0     H37004   9.513   3.146   2.487  0.4124  0.8795 -0.2263
  993MOL0     H37005   9.521   3.170   2.656 -0.3656  0.1707 -0.4884
  993MOL0     H37006   9.550   3.421   2.475 -0.0394  2.1192  1.0282
  993MOL0     H37007   9.543   3.408   2.645 -2.1515 -1.1817  0.4376
  993MOL0     H37008   9.732   3.224   2.475 -0.8036 -0.1562  1.6437
  993MOL0     H37009   9.770   3.287   2.636 -0.1212 -0.8239 -0.2611
  993MOL0     H37010   9.810   3.499   2.549  0.4840  0.0570 -0.8990
  993MOL0     H37011   9.779   3.436   2.374 -1.0900  0.6964  0.1359
  993MOL0     H37012   9.979   3.303   2.384  2.0656  2.7097 -0.6436
  993MOL0     H37013   9.971   3.311   2.567 -1.1532 -0.6693  0.9041
  993MOL0     H37014   8.887   3.137   2.401  0.8293  0.5161  0.0769
  993MOL0     H37015   8.629   3.157   2.425  2.6868  1.8596 -2.0167
  993MOL0     H37016   8.312   3.123   2.475  0.1331  2.3594  1.6246
  993MOL0     H37017   8.098   3.144   2.401 -2.1594  1.2100  0.9571
  993MOL0     H37018   6.337   2.785   2.737 -0.7217  0.4729 -0.0412
  993MOL0     H37019   6.099   2.896   2.724  0.0265 -1.3101 -0.7141
  993MOL0     H37020   5.752   3.075   2.793 -1.0594  0.1267  4.5195
  993MOL0     H37021   5.545   3.138   2.700  2.8985 -0.1185  0.1072
  993MOL0     H37022   5.338   3.182   2.614 -0.4117 -0.0276 -0.3952
  993MOL0     H37023   5.348   3.039   2.511 -0.5755  1.6154 -0.4340
  993MOL0     H37024   5.134   3.132   2.482 -1.1273 -2.4886 -0.3233
  993MOL0     H37025   5.105   3.145   2.655 -1.2223  0.4446 -0.5133
  993MOL0     H37026   5.057   2.901   2.670 -1.8631 -1.3751 -0.5451
  993MOL0     H37027   4.990   2.968   2.522 -0.8444  3.7345  1.5137
  993MOL0     H37028   5.079   2.759   2.488  0.2632  0.7456 -2.0987
  993MOL0     H37029   5.250   2.811   2.540  0.8333 -0.8953 -2.8584
  993MOL0     H37030   5.273   2.860   2.144 -0.5016  3.3578 -0.8617
  993MOL0     H37031   5.365   2.788   2.850 -0.8784  0.3391 -3.1068
  993MOL0     H37032   5.492   2.652   3.009  2.4968 -1.0779  2.6870
  993MOL0     H37033   5.551   2.582   2.855  0.8108 -0.2859  0.0769
  993MOL0     H37034   5.659   2.615   2.988 -2.3710 -1.4434  3.8147
  994MOL0     O37035   2.534  11.069   5.297  0.5138  0.1768  0.4832
  994MOL0     C37036   2.508  11.185   5.254  0.1917  0.3574  0.2344
  994MOL0     O37037   2.587  11.292   5.277  1.1064 -0.0256  0.1819
  994MOL0     C37038   2.714  11.265   5.335  0.7909 -0.6243  0.4777
  994MOL0     C37039   2.826  11.279   5.254  0.9704  0.0483 -0.3351
  994MOL0     C37040   2.954  11.234   5.294  0.1551  0.1477 -0.1631
  994MOL0     C37041   2.968  11.195   5.432  0.0664 -0.5649 -0.0113
  994MOL0     O37042   3.086  11.149   5.488  0.2396  0.0312 -0.2578
  994MOL0     C37043   3.208  11.166   5.415 -0.9759 -0.0226 -0.0712
  994MOL0     C37044   3.316  11.137   5.514  0.2973 -0.5574 -0.2709
  994MOL0     C37045   3.311  10.983   5.564 -0.4370  0.7047 -0.5465
  994MOL0     C37046   3.260  10.964   5.706  0.1740 -0.6082  0.1551
  994MOL0     C37047   3.355  11.009   5.814 -0.3032  0.3621  0.7920
  994MOL0     C37048   3.301  10.944   5.944  0.1966  0.9218  0.7908
  994MOL0     C37049   3.373  10.977   6.072 -0.9822 -0.2634  0.1987
  994MOL0     C37050   3.528  10.926   6.077 -0.3181 -0.2763  0.2496
  994MOL0     N37051   3.590  10.966   6.198 -0.6682 -0.2121 -0.1272
  994MOL0     C37052   3.630  11.092   6.226  0.2404 -0.8787  0.5843
  994MOL0     C37053   3.698  11.094   6.340  0.3206  0.4532 -0.5952
  994MOL0     C37054   3.723  11.208   6.428  0.2526 -1.1511 -0.1232
  994MOL0     C37055   3.826  11.182   6.534  0.2306  0.6235 -0.1907
  994MOL0     C37056   3.817  11.285   6.649 -0.1142  0.3262  0.9820
  994MOL0     C37057   3.917  11.260   6.756 -0.5020  0.6634 -0.0753
  994MOL0     O37058   4.048  11.241   6.698  0.6541  0.3831  0.0680
  994MOL0     C37059   4.154  11.220   6.784  0.2131 -0.6230 -0.5544
  994MOL0     C37060   4.127  11.185   6.918  0.0450 -0.3516  0.9272
  994MOL0     C37061   4.229  11.158   7.014  0.6519 -1.3786  0.4893
  994MOL0     C37062   4.179  11.113   7.153  0.4355  0.1930 -0.2555
  994MOL0     C37063   4.364  11.170   6.978  0.9133 -0.2995  0.3384
  994MOL0     C37064   4.483  11.148   7.067 -0.3698 -0.0386  0.3547
  994MOL0     O37065   4.606  11.173   7.021 -0.3474 -0.3081  0.0063
  994MOL0     C37066   4.715  11.162   7.103 -0.2867 -0.3460  0.0342
  994MOL0     C37067   4.742  11.250   7.216  0.3117 -0.1636  0.1031
  994MOL0     C37068   4.849  11.248   7.296 -1.3301  0.2201 -0.0895
  994MOL0     C37069   4.951  11.160   7.267 -0.2710  0.6918 -0.0366
  994MOL0     O37070   5.051  11.133   7.360  0.3625 -0.5500  0.7286
  994MOL0     C37071   5.003  11.127   7.501 -0.6902  0.0290  0.3006
  994MOL0     C37072   5.115  11.070   7.591 -0.7927  0.2888  0.5140
  994MOL0     C37073   5.249  11.153   7.566  0.0805 -1.1954  0.1060
  994MOL0     C37074   5.361  11.110   7.664  1.1743 -0.0201 -0.6665
  994MOL0     C37075   5.501  11.181   7.644 -0.5971  0.4279  0.4606
  994MOL0     C37076   5.556  11.147   7.497  0.4536 -0.3324  0.1478
  994MOL0     C37077   5.695  11.209   7.477 -0.7321  0.1091 -0.1318
  994MOL0     C37078   5.799  11.121   7.401  0.3385 -0.1907 -0.3674
  994MOL0    Cl37079   5.965  11.186   7.428 -0.3229 -0.3135  0.1043
  994MOL0     C37080   4.949  11.084   7.150 -0.9529  0.2300 -0.0144
  994MOL0     C37081   4.831  11.092   7.069  0.3391  0.4126 -0.1990
  994MOL0     O37082   4.463  11.099   7.180  0.6590  1.1184 -0.4502
  994MOL0     C37083   4.386  11.220   6.839  0.3436 -0.3783 -0.5098
  994MOL0     C37084   4.281  11.238   6.745  1.1370 -0.0491  0.0471
  994MOL0     N37085   3.700  10.962   6.391 -0.6573 -0.2337 -0.6109
  994MOL0     N37086   3.628  10.885   6.310 -0.4575  0.1239  0.7573
  994MOL0     C37087   2.857  11.188   5.517 -0.0366 -0.5067  0.3635
  994MOL0     C37088   2.735  11.212   5.460 -0.6344 -0.3753 -0.2685
  994MOL0     C37089   2.393  11.201   5.159 -0.1476  0.4942  0.1355
  994MOL0     C37090   2.372  11.323   5.100  0.2989  0.3068 -0.5744
  994MOL0     C37091   2.276  11.340   5.003  1.3314 -0.1680  0.6361
  994MOL0     C37092   2.191  11.239   4.964 -0.2417 -0.3344  0.1548
  994MOL0     O37093   2.084  11.269   4.885  0.3748  0.0387  1.4269
  994MOL0     C37094   1.987  11.171   4.850 -0.4502 -0.7600 -0.4889
  994MOL0     C37095   1.873  11.243   4.783 -0.5719 -0.3889  0.7019
  994MOL0     C37096   1.751  11.155   4.760  0.3662 -0.7325  0.2225
  994MOL0     C37097   1.626  11.245   4.738  0.5914  0.1697  1.0424
  994MOL0     C37098   1.512  11.154   4.711 -0.1712  0.4075  0.1657
  994MOL0     C37099   1.415  11.097   4.664 -0.2655  1.1886  0.2550
  994MOL0     C37100   2.211  11.113   5.013 -0.8063  0.8063 -0.7223
  994MOL0     C37101   2.313  11.090   5.113  1.0154 -0.0276  0.2435
  994MOL0     C37102   2.320  10.947   5.157 -0.4783  0.2382  0.3173
  994MOL0     H37103   2.815  11.301   5.149 -2.1150 -0.0358 -0.1262
  994MOL0     H37104   3.031  11.233   5.217  0.6682  1.9797  0.2658
  994MOL0     H37105   3.221  11.254   5.352  3.1194 -1.3258 -1.3613
  994MOL0     H37106   3.210  11.081   5.345 -0.3953 -0.4048  0.3944
  994MOL0     H37107   3.412  11.157   5.465 -1.0103  0.3354 -2.6889
  994MOL0     H37108   3.298  11.200   5.601  1.7995 -0.0031 -0.3321
  994MOL0     H37109   3.263  10.916   5.492 -0.3494  1.3442 -1.2059
  994MOL0     H37110   3.417  10.957   5.573 -0.0273  2.1592 -0.9417
  994MOL0     H37111   3.164  11.016   5.718  1.1016  1.8737 -2.0872
  994MOL0     H37112   3.241  10.858   5.727 -2.1160  0.3755  3.8836
  994MOL0     H37113   3.359  11.117   5.825  0.3567  0.0898  4.4785
  994MOL0     H37114   3.457  10.976   5.790 -0.4760  0.6048 -0.3343
  994MOL0     H37115   3.195  10.965   5.958  0.0931  0.5715  0.5549
  994MOL0     H37116   3.303  10.836   5.926  0.0069  1.2222 -1.2159
  994MOL0     H37117   3.329  10.954   6.169  0.7235  4.6372  2.4758
  994MOL0     H37118   3.378  11.087   6.076 -0.8616 -0.2152 -0.9742
  994MOL0     H37119   3.529  10.817   6.074 -0.7434 -0.2653 -2.8183
  994MOL0     H37120   3.586  10.969   5.995  3.7298 -3.2674  1.2545
  994MOL0     H37121   3.613  11.179   6.163 -1.7745 -0.8278  1.1249
  994MOL0     H37122   3.625  11.229   6.471  0.9046  2.3863 -0.0702
  994MOL0     H37123   3.750  11.291   6.362 -4.8344 -0.3592 -1.6181
  994MOL0     H37124   3.808  11.083   6.577  0.8799  0.6205  0.0836
  994MOL0     H37125   3.927  11.198   6.495  0.2443  2.5072  0.5139
  994MOL0     H37126   3.829  11.384   6.604 -0.0379  0.0381  0.3551
  994MOL0     H37127   3.723  11.288   6.704 -0.1797  0.4601  0.8622
  994MOL0     H37128   3.910  11.349   6.819 -0.7529 -0.3668  1.4185
  994MOL0     H37129   3.882  11.171   6.810 -0.9299  0.5289 -0.5576
  994MOL0     H37130   4.030  11.165   6.963 -0.6713 -0.2684 -0.5105
  994MOL0     H37131   4.207  11.010   7.176  0.4379 -0.1505 -1.6943
  994MOL0     H37132   4.072  11.134   7.166  0.1858 -0.0412 -1.7549
  994MOL0     H37133   4.220  11.183   7.227  1.6554 -0.4555 -0.2883
  994MOL0     H37134   4.660  11.313   7.250  0.9208 -1.0645  3.6061
  994MOL0     H37135   4.845  11.308   7.386 -0.8508  0.3891 -0.1748
  994MOL0     H37136   4.984  11.232   7.527 -1.5890  0.3492 -1.4776
  994MOL0     H37137   4.916  11.063   7.519 -0.3605 -0.1741  1.2240
  994MOL0     H37138   5.091  11.081   7.697 -4.5173  0.4381 -0.1830
  994MOL0     H37139   5.124  10.965   7.562  2.1898  0.6140  0.0021
  994MOL0     H37140   5.233  11.261   7.565  2.9273 -0.6865  0.1428
  994MOL0     H37141   5.289  11.146   7.464  3.5934  2.9839  0.8679
  994MOL0     H37142   5.379  11.005   7.640 -0.3439 -0.9559  1.8674
  994MOL0     H37143   5.324  11.126   7.766 -0.9222  0.2885 -1.4342
  994MOL0     H37144   5.491  11.290   7.655  1.0325  0.5663  0.7728
  994MOL0     H37145   5.575  11.153   7.719 -1.0327 -0.1863  0.6683
  994MOL0     H37146   5.500  11.186   7.411  2.3856  0.0501 -1.0123
  994MOL0     H37147   5.549  11.038   7.487 -0.7100 -0.1476 -1.5150
  994MOL0     H37148   5.737  11.237   7.574  0.7004  3.6031 -1.5965
  994MOL0     H37149   5.687  11.303   7.421 -0.1041 -0.8065 -1.8480
  994MOL0     H37150   5.767  11.129   7.296 -1.7523  0.1171  0.2520
  994MOL0     H37151   5.800  11.016   7.432 -0.7583  0.1514  0.9117
  994MOL0     H37152   5.034  11.017   7.142  1.5093  3.2707 -1.6659
  994MOL0     H37153   4.826  11.027   6.982 -1.7903  1.8259 -1.2020
  994MOL0     H37154   4.487  11.234   6.804 -0.2987  0.9132 -1.9232
  994MOL0     H37155   4.286  11.259   6.638 -1.7777 -0.2329 -0.2017
  994MOL0     H37156   2.855  11.154   5.620 -3.5127  0.0883  0.6232
  994MOL0     H37157   2.650  11.193   5.525 -0.2370 -0.9317  0.0974
  994MOL0     H37158   2.434  11.410   5.120  2.1266 -0.9590 -0.5231
  994MOL0     H37159   2.272  11.441   4.965  1.4730 -0.6222 -0.6433
  994MOL0     H37160   2.017  11.091   4.781  0.7147  2.0858 -3.5674
  994MOL0     H37161   1.952  11.127   4.943  0.6418  1.8842  1.2944
  994MOL0     H37162   1.910  11.298   4.696  2.3137 -3.2586 -0.0796
  994MOL0     H37163   1.856  11.318   4.860  0.9146 -1.3985  2.0693
  994MOL0     H37164   1.762  11.094   4.670 -1.0896  0.3491 -0.7374
  994MOL0     H37165   1.730  11.095   4.850 -0.4093  0.3706  0.7983
  994MOL0     H37166   1.651  11.322   4.664  1.8069 -0.4192  0.8071
  994MOL0     H37167   1.604  11.299   4.830  4.3132  2.5965  0.7547
  994MOL0     H37168   1.330  11.046   4.623  0.0355 -0.6166  1.7298
  994MOL0     H37169   2.159  11.025   4.976  0.4138 -0.5390  0.5992
  994MOL0     H37170   2.416  10.909   5.121  0.2680  1.6673  0.7018
  994MOL0     H37171   2.316  10.944   5.267  0.6309  4.6318  0.6655
  994MOL0     H37172   2.233  10.887   5.130 -2.3825  2.9278  0.0155
  995MOL0     O37173   7.360   3.918   9.690  0.2677 -0.4293  0.2550
  995MOL0     C37174   7.438   4.016   9.705  0.6839 -0.1207 -0.2422
  995MOL0     O37175   7.572   4.010   9.673  0.8467 -0.5184 -0.4648
  995MOL0     C37176   7.610   3.897   9.605  0.6014 -0.8901 -1.1483
  995MOL0     C37177   7.651   3.898   9.472  0.7004 -0.5793 -0.1171
  995MOL0     C37178   7.718   3.788   9.419  0.6042 -0.0316  0.2946
  995MOL0     C37179   7.726   3.670   9.491  0.2435 -0.1498 -0.3226
  995MOL0     O37180   7.788   3.564   9.444  0.3360  0.2506  0.1151
  995MOL0     C37181   7.743   3.436   9.487  0.6152  0.4725 -0.1572
  995MOL0     C37182   7.823   3.330   9.413  0.0551  0.2434  0.1663
  995MOL0     C37183   7.806   3.180   9.450 -0.0493 -0.1796 -0.8729
  995MOL0     C37184   7.703   3.104   9.372 -0.3382 -0.9166  0.8602
  995MOL0     C37185   7.709   2.949   9.413 -0.1126 -0.5994 -0.0094
  995MOL0     C37186   7.845   2.875   9.400 -1.1946  0.3734 -1.0814
  995MOL0     C37187   7.820   2.739   9.467  0.7647  0.3661  0.6718
  995MOL0     C37188   7.949   2.650   9.450 -0.2384  0.4211 -0.5921
  995MOL0     N37189   7.928   2.507   9.474  0.0807  0.3686  0.6219
  995MOL0     C37190   7.812   2.431   9.476  0.6284 -0.3083 -0.4178
  995MOL0     C37191   7.845   2.299   9.514 -0.0084 -0.5681 -0.4655
  995MOL0     C37192   7.750   2.180   9.519  0.1864  0.7059 -0.0556
  995MOL0     C37193   7.813   2.062   9.581 -0.2554  0.0040 -0.5418
  995MOL0     C37194   7.706   1.941   9.578  0.1195  0.8707  0.4635
  995MOL0     C37195   7.640   1.938   9.716 -0.1363  1.6000  0.2042
  995MOL0     O37196   7.572   2.054   9.756  0.5837 -0.1357  0.8527
  995MOL0     C37197   7.488   2.051   9.864 -0.1980  0.8323  0.0357
  995MOL0     C37198   7.467   1.939   9.953 -0.8291  1.3879  0.1927
  995MOL0     C37199   7.396   1.965  10.072  0.3400  0.5083  0.4726
  995MOL0     C37200   7.372   1.840  10.153 -0.1742  0.1787  0.4185
  995MOL0     C37201   7.354   2.093  10.113  0.4141 -0.5612  1.1446
  995MOL0     C37202   7.267   2.130  10.229 -0.5985 -0.1258 -0.4960
  995MOL0     O37203   7.163   2.220  10.193  1.0282  0.3821 -0.2274
  995MOL0     C37204   7.105   2.294  10.297  0.0811  0.1849 -0.3981
  995MOL0     C37205   7.180   2.354  10.403 -0.0305 -0.2196 -0.0845
  995MOL0     C37206   7.104   2.416  10.499  0.6528 -0.3002 -0.2981
  995MOL0     C37207   6.963   2.416  10.502  0.7907 -0.4697 -0.1206
  995MOL0     O37208   6.893   2.483  10.599 -0.7090 -0.6113  0.2234
  995MOL0     C37209   6.889   2.447  10.737 -0.3474  0.0619  0.4517
  995MOL0     C37210   6.932   2.563  10.823 -0.0428  0.2271 -0.5615
  995MOL0     C37211   6.829   2.680  10.808 -0.0294  0.7026 -0.3511
  995MOL0     C37212   6.861   2.808  10.878  0.1481  0.4615 -0.0487
  995MOL0     C37213   6.778   2.920  10.818  0.4948  0.3675 -0.0968
  995MOL0     C37214   6.635   2.932  10.883 -0.4178  0.9967  0.6083
  995MOL0     C37215   6.561   3.064  10.878 -0.7018  0.1960 -0.5909
  995MOL0     C37216   6.527   3.119  10.733 -1.0765  0.4464 -0.3647
  995MOL0    Cl37217   6.673   3.196  10.663  0.2522  0.3947 -0.4163
  995MOL0     C37218   6.885   2.362  10.398 -0.0386  0.0274  0.7269
  995MOL0     C37219   6.967   2.299  10.294  0.8561  0.4052 -0.9476
  995MOL0     O37220   7.283   2.086  10.342  0.5667 -0.0624  0.7850
  995MOL0     C37221   7.381   2.193  10.023  0.2156 -0.1269  0.2227
  995MOL0     C37222   7.461   2.178   9.910  0.1021  0.3014 -0.6610
  995MOL0     N37223   7.983   2.311   9.527 -0.4202  0.1542  0.8191
  995MOL0     N37224   8.033   2.431   9.513 -0.0388 -0.0477 -0.2463
  995MOL0     C37225   7.657   3.664   9.615  0.9655  0.4347 -0.3268
  995MOL0     C37226   7.604   3.779   9.679 -0.8109  0.3081 -0.8766
  995MOL0     C37227   7.400   4.147   9.778 -0.0931 -0.6756  0.5391
  995MOL0     C37228   7.497   4.250   9.772 -0.5939  0.2644 -0.6193
  995MOL0     C37229   7.462   4.388   9.801  0.5831  0.2189  0.2409
  995MOL0     C37230   7.331   4.425   9.834 -0.2535  0.6989  0.1450
  995MOL0     O37231   7.288   4.553   9.858  0.4024  0.1159 -0.1508
  995MOL0     C37232   7.383   4.646   9.902  0.5526 -0.8927 -0.5594
  995MOL0     C37233   7.445   4.618  10.045 -0.3121 -0.2080  1.1640
  995MOL0     C37234   7.337   4.611  10.149 -0.5020 -0.4972  0.8816
  995MOL0     C37235   7.384   4.585  10.291  0.6378 -0.2269 -0.4171
  995MOL0     C37236   7.507   4.657  10.328 -0.2946  0.6784  0.5679
  995MOL0     C37237   7.605   4.716  10.364 -0.3942 -0.8521  0.7027
  995MOL0     C37238   7.244   4.322   9.855 -0.0587  0.0773  0.2369
  995MOL0     C37239   7.265   4.191   9.820  0.3973 -0.0356  0.4725
  995MOL0     C37240   7.137   4.098   9.814  0.3848  0.2949  1.0046
  995MOL0     H37241   7.643   3.981   9.402  0.3862  1.0015  1.7008
  995MOL0     H37242   7.773   3.799   9.326 -0.8910 -0.1307 -0.6355
  995MOL0     H37243   7.637   3.420   9.466  0.7921 -2.0531  0.4903
  995MOL0     H37244   7.763   3.422   9.593 -0.1790 -0.4030 -0.1066
  995MOL0     H37245   7.789   3.347   9.311 -1.1352  1.5585  0.7531
  995MOL0     H37246   7.926   3.364   9.419  0.3468 -0.5949  0.0391
  995MOL0     H37247   7.907   3.142   9.428 -0.4183 -0.6617 -1.8137
  995MOL0     H37248   7.792   3.176   9.558 -0.3416  2.5367 -0.7593
  995MOL0     H37249   7.607   3.156   9.382 -0.2315 -0.5155 -0.0254
  995MOL0     H37250   7.722   3.112   9.264 -2.1804  2.4328  0.6378
  995MOL0     H37251   7.639   2.888   9.355  1.1037 -2.7115  0.6174
  995MOL0     H37252   7.677   2.947   9.517  1.3268 -1.0244  0.4598
  995MOL0     H37253   7.879   2.857   9.298  1.1979 -2.7565  0.1092
  995MOL0     H37254   7.924   2.927   9.455 -2.1575 -0.2987  1.0167
  995MOL0     H37255   7.742   2.692   9.407  2.2780 -0.7109 -0.5439
  995MOL0     H37256   7.795   2.744   9.574 -3.5019  1.5367 -0.2137
  995MOL0     H37257   7.982   2.662   9.346 -1.9000 -0.3063 -1.2498
  995MOL0     H37258   8.027   2.694   9.512  0.8812  0.7080 -2.1558
  995MOL0     H37259   7.715   2.474   9.454  2.4778  4.4558 -0.4645
  995MOL0     H37260   7.725   2.144   9.419  0.0934 -1.0618  0.5807
  995MOL0     H37261   7.653   2.199   9.566 -0.3497 -2.7869  0.4709
  995MOL0     H37262   7.900   2.032   9.521 -0.9188 -0.7045 -1.1845
  995MOL0     H37263   7.843   2.081   9.684 -1.4077  2.2632 -0.5788
  995MOL0     H37264   7.634   1.926   9.498 -0.0642  0.0614  0.7711
  995MOL0     H37265   7.758   1.845   9.575 -1.2081  0.0371  2.1916
  995MOL0     H37266   7.577   1.849   9.726  2.0993  0.0473  1.4781
  995MOL0     H37267   7.724   1.911   9.781 -1.4387 -0.2187  1.2419
  995MOL0     H37268   7.504   1.842   9.924  0.8784  1.1672  2.7788
  995MOL0     H37269   7.458   1.773  10.151 -1.3795 -1.5575  2.5561
  995MOL0     H37270   7.295   1.787  10.095 -0.9131  3.2268 -1.6236
  995MOL0     H37271   7.335   1.854  10.255 -2.2334 -1.8927  0.0425
  995MOL0     H37272   7.288   2.347  10.406  0.0731  1.4017  1.9494
  995MOL0     H37273   7.160   2.473  10.572 -0.3777  1.3792 -0.7701
  995MOL0     H37274   6.789   2.413  10.763 -0.4643 -0.8050 -1.0549
  995MOL0     H37275   6.954   2.360  10.752  0.3180  0.4000 -0.3920
  995MOL0     H37276   6.942   2.529  10.926  1.5043 -0.2386 -0.8340
  995MOL0     H37277   7.030   2.600  10.790  0.2309  1.4150  1.4191
  995MOL0     H37278   6.744   2.646  10.868  3.3666 -0.6738  4.3728
  995MOL0     H37279   6.809   2.707  10.704  1.5973  1.2808 -0.5425
  995MOL0     H37280   6.968   2.829  10.877  0.0886  0.9886  1.3957
  995MOL0     H37281   6.829   2.790  10.981 -2.3471 -2.1836 -1.1351
  995MOL0     H37282   6.830   3.016  10.829 -1.8641  1.7937 -0.7714
  995MOL0     H37283   6.773   2.913  10.709  1.1234 -2.5556 -0.0276
  995MOL0     H37284   6.647   2.922  10.992  3.4276  1.8729  0.4128
  995MOL0     H37285   6.574   2.849  10.848 -0.0328  1.7663 -2.0842
  995MOL0     H37286   6.622   3.143  10.923  1.9236 -0.8571 -2.0610
  995MOL0     H37287   6.468   3.040  10.930 -1.2151 -0.0703 -1.5974
  995MOL0     H37288   6.449   3.195  10.746 -0.9238  1.1300 -2.9912
  995MOL0     H37289   6.487   3.049  10.659  0.7424 -1.8137  0.6800
  995MOL0     H37290   6.778   2.376  10.387 -0.1988 -1.7630 -0.3767
  995MOL0     H37291   6.923   2.236  10.217  0.0091  0.9082 -0.8864
  995MOL0     H37292   7.350   2.293  10.050 -1.9227 -1.0974  1.6163
  995MOL0     H37293   7.480   2.263   9.846 -0.8499  1.6888  0.8183
  995MOL0     H37294   7.654   3.569   9.667  0.3882 -1.2057 -3.1801
  995MOL0     H37295   7.568   3.774   9.781 -0.0427 -2.7443 -0.6443
  995MOL0     H37296   7.604   4.239   9.757  0.1826  3.8799  1.0025
  995MOL0     H37297   7.538   4.465   9.793  0.1152  0.4442 -3.3207
  995MOL0     H37298   7.459   4.662   9.825 -0.9103 -0.7330 -2.0053
  995MOL0     H37299   7.331   4.742   9.911  1.8875 -0.2600  1.2035
  995MOL0     H37300   7.518   4.697  10.062 -2.5538  1.6819  2.5913
  995MOL0     H37301   7.503   4.525  10.041  1.4006  0.8340 -2.1450
  995MOL0     H37302   7.273   4.700  10.150 -2.1333 -1.6332  0.3862
  995MOL0     H37303   7.267   4.535  10.113 -0.9455  0.8702 -1.3740
  995MOL0     H37304   7.389   4.477  10.311 -0.5735 -0.8780 -3.1854
  995MOL0     H37305   7.298   4.617  10.350 -0.8787 -3.8444 -0.4091
  995MOL0     H37306   7.688   4.781  10.384 -0.0393 -0.5320 -1.6025
  995MOL0     H37307   7.147   4.356   9.889 -0.4872  0.8592 -1.6184
  995MOL0     H37308   7.135   4.039   9.906 -0.0402 -0.8777  0.2733
  995MOL0     H37309   7.049   4.162   9.807 -0.0489 -0.4203 -0.6451
  995MOL0     H37310   7.125   4.021   9.736 -1.3688 -0.0473  1.5774
  996MOL0     O37311   5.188   3.652  10.990  0.5521 -0.2486 -0.1593
  996MOL0     C37312   5.156   3.716  11.092  0.7326  1.0910 -0.1513
  996MOL0     O37313   5.025   3.756  11.114 -0.4143  0.6636  0.0185
  996MOL0     C37314   4.938   3.764  11.012  0.4407  0.3607  0.2327
  996MOL0     C37315   4.803   3.736  11.041  0.1118 -0.0441  0.2223
  996MOL0     C37316   4.706   3.762  10.946 -0.1530 -0.1955  0.3615
  996MOL0     C37317   4.741   3.805  10.815 -0.1276 -0.0604  0.2076
  996MOL0     O37318   4.654   3.809  10.703  0.2961 -0.5528 -0.0301
  996MOL0     C37319   4.715   3.822  10.573  0.3127  0.0638 -0.0886
  996MOL0     C37320   4.601   3.795  10.469 -0.2002  0.0140  0.1496
  996MOL0     C37321   4.658   3.798  10.322  0.1034 -0.4617  0.0115
  996MOL0     C37322   4.620   3.930  10.258  0.2320  0.1353 -0.3454
  996MOL0     C37323   4.664   3.955  10.113 -0.1036 -0.5347 -0.3505
  996MOL0     C37324   4.624   4.099  10.059  0.5609  1.1080  0.5003
  996MOL0     C37325   4.729   4.193  10.104 -0.7802 -0.3554 -0.0224
  996MOL0     C37326   4.857   4.184  10.015 -0.0294  0.1936 -0.3394
  996MOL0     N37327   4.964   4.264  10.089  0.3682  0.7154  0.4887
  996MOL0     C37328   5.058   4.342  10.033 -0.7599  0.7412  0.0659
  996MOL0     C37329   5.144   4.369  10.130 -0.6223 -0.4169 -0.0463
  996MOL0     C37330   5.259   4.462  10.122  0.3872  0.4844  0.4665
  996MOL0     C37331   5.212   4.608  10.131  0.5159  1.2880 -0.0983
  996MOL0     C37332   5.191   4.687   9.997 -0.9350 -0.7281  0.0445
  996MOL0     C37333   5.136   4.841  10.026 -0.5322  0.9323 -0.9221
  996MOL0     O37334   5.078   4.897   9.903  0.3979 -0.4546 -0.0458
  996MOL0     C37335   5.156   4.929   9.795  0.1388 -0.0060 -0.5910
  996MOL0     C37336   5.093   4.964   9.682  0.1393 -0.7073 -0.6642
  996MOL0     C37337   5.157   5.022   9.572  0.3793  0.2569  0.3229
  996MOL0     C37338   5.075   5.065   9.465  0.2039  0.2695  1.2941
  996MOL0     C37339   5.298   5.019   9.566  0.8043  0.2526 -0.4971
  996MOL0     C37340   5.388   5.043   9.454 -0.2861 -0.5080  1.0675
  996MOL0     O37341   5.442   5.179   9.441 -0.6234  0.4586  0.4194
  996MOL0     C37342   5.549   5.202   9.358 -0.6546  0.5510  0.8492
  996MOL0     C37343   5.654   5.109   9.317  0.3208  0.3846 -0.3503
  996MOL0     C37344   5.767   5.153   9.258  0.5868  0.1192  0.6374
  996MOL0     C37345   5.776   5.287   9.205  0.2861  0.0450 -0.2764
  996MOL0     O37346   5.886   5.324   9.135 -0.7794 -0.0430 -0.2540
  996MOL0     C37347   6.009   5.247   9.161  0.1211 -0.3689 -0.8425
  996MOL0     C37348   6.133   5.333   9.113 -0.1809 -0.0678 -1.0443
  996MOL0     C37349   6.273   5.268   9.133 -0.2977  0.7472 -0.2366
  996MOL0     C37350   6.306   5.168   9.020  0.3703 -0.0380  0.6789
  996MOL0     C37351   6.424   5.081   9.033 -0.4842 -0.9628  0.2823
  996MOL0     C37352   6.426   4.955   8.952 -0.0637  0.3281  0.0976
  996MOL0     C37353   6.547   4.857   8.986  0.0911  0.0841 -0.1535
  996MOL0     C37354   6.685   4.933   8.965 -0.4553 -0.8219 -0.8187
  996MOL0    Cl37355   6.747   5.001   9.112 -0.2908 -0.1029 -0.2732
  996MOL0     C37356   5.664   5.371   9.223 -0.3772  0.3976  1.1852
  996MOL0     C37357   5.561   5.335   9.305  0.4737  0.4777 -0.4607
  996MOL0     O37358   5.415   4.946   9.385  0.6749 -0.1726  0.6677
  996MOL0     C37359   5.360   4.965   9.682 -0.4854  0.0207  0.3068
  996MOL0     C37360   5.297   4.937   9.802  0.2509 -0.2084  0.0917
  996MOL0     N37361   5.110   4.311  10.247  0.4614  0.8500  0.5175
  996MOL0     N37362   5.000   4.239  10.221 -0.4316 -0.0911 -0.0504
  996MOL0     C37363   4.884   3.827  10.795  0.9607 -0.0951  0.3934
  996MOL0     C37364   4.973   3.813  10.887  0.1261  0.4119  1.0390
  996MOL0     C37365   5.263   3.745  11.198  0.5673 -0.1987 -0.2238
  996MOL0     C37366   5.233   3.843  11.298  0.4727  1.1653 -0.2529
  996MOL0     C37367   5.319   3.877  11.404  0.0998 -0.4726 -0.5626
  996MOL0     C37368   5.443   3.829  11.409  0.0236  0.1529  0.0113
  996MOL0     O37369   5.524   3.878  11.510 -0.1568  0.5986  0.5514
  996MOL0     C37370   5.667   3.883  11.476  0.4065  0.3684 -0.5122
  996MOL0     C37371   5.756   3.969  11.565 -0.3334 -0.4383  0.5481
  996MOL0     C37372   5.706   4.115  11.569 -0.0090 -0.7151  0.0899
  996MOL0     C37373   5.807   4.193  11.641  0.0073 -0.7473  0.5532
  996MOL0     C37374   5.886   4.281  11.551  0.3371  0.3301  0.1763
  996MOL0     C37375   5.952   4.366  11.496  0.0715  0.1232  0.3382
  996MOL0     C37376   5.483   3.737  11.313  0.5334  0.6344  0.2228
  996MOL0     C37377   5.393   3.689  11.217 -0.1441  0.4337  0.7804
  996MOL0     C37378   5.443   3.575  11.124 -0.3714 -0.5378  0.1874
  996MOL0     H37379   4.780   3.700  11.141 -1.5392 -3.3912 -1.2228
  996MOL0     H37380   4.600   3.745  10.963 -0.4455  2.0079  1.1223
  996MOL0     H37381   4.788   3.742  10.559  0.4651 -0.6665  3.7397
  996MOL0     H37382   4.763   3.920  10.558  1.1099 -0.2234  0.4862
  996MOL0     H37383   4.560   3.696  10.492 -2.6328  1.2440  1.5714
  996MOL0     H37384   4.523   3.872  10.471  0.9809  1.3184 -1.0902
  996MOL0     H37385   4.763   3.771  10.325  0.2530  0.1673  0.8294
  996MOL0     H37386   4.616   3.716  10.263 -1.7345 -1.2432  2.2155
  996MOL0     H37387   4.516   3.955  10.277  1.1941  1.3053  5.0810
  996MOL0     H37388   4.664   4.012  10.315  0.1346 -0.3780  0.4809
  996MOL0     H37389   4.610   3.883  10.049 -0.5835  1.0603 -1.8198
  996MOL0     H37390   4.772   3.942  10.101  0.3561  2.2087  0.2568
  996MOL0     H37391   4.628   4.103   9.950 -3.3821  0.9385  0.2022
  996MOL0     H37392   4.521   4.126  10.084 -0.8796 -2.7769 -0.4636
  996MOL0     H37393   4.748   4.181  10.211 -1.1173  3.2001  0.5705
  996MOL0     H37394   4.684   4.292  10.092  0.9552  0.3829 -0.7809
  996MOL0     H37395   4.893   4.083   9.993 -2.3923 -0.8811  0.4357
  996MOL0     H37396   4.851   4.238   9.920  0.7081 -1.0551 -1.1213
  996MOL0     H37397   5.065   4.388   9.934  0.5008 -0.2846 -0.3371
  996MOL0     H37398   5.319   4.438  10.034 -0.6686  1.9621 -0.6892
  996MOL0     H37399   5.325   4.434  10.205 -1.8892 -1.6538  1.6777
  996MOL0     H37400   5.133   4.608  10.207  0.2152  0.1407 -0.3838
  996MOL0     H37401   5.295   4.656  10.183  0.1007  0.8489  0.9988
  996MOL0     H37402   5.282   4.680   9.937 -1.5197  0.4350 -1.0148
  996MOL0     H37403   5.115   4.639   9.934 -0.3130 -0.4231 -0.9647
  996MOL0     H37404   5.057   4.828  10.101  0.4061 -2.0270 -0.3057
  996MOL0     H37405   5.222   4.888  10.075 -0.8124  2.4608 -1.8567
  996MOL0     H37406   4.985   4.965   9.684 -0.2713  6.3946 -0.0920
  996MOL0     H37407   5.135   5.109   9.384 -0.4198 -2.3227 -0.6864
  996MOL0     H37408   5.006   5.144   9.497 -1.5929 -1.0717  0.8741
  996MOL0     H37409   5.014   4.983   9.426 -1.2856  2.0959 -0.5177
  996MOL0     H37410   5.644   5.005   9.344 -0.5357  0.9656  1.7958
  996MOL0     H37411   5.837   5.071   9.244 -1.5476 -2.2376  2.9468
  996MOL0     H37412   6.013   5.230   9.269  0.3693 -0.9837 -0.9443
  996MOL0     H37413   6.008   5.144   9.124 -1.8804 -0.6063 -0.2235
  996MOL0     H37414   6.128   5.361   9.008 -2.5426  2.1968 -0.4251
  996MOL0     H37415   6.132   5.428   9.167  0.8214  0.8735 -2.6099
  996MOL0     H37416   6.281   5.221   9.232  1.7874 -3.1283 -2.0225
  996MOL0     H37417   6.346   5.348   9.123  0.5458 -0.1921 -2.0069
  996MOL0     H37418   6.311   5.231   8.930 -2.0151 -0.4047  0.2166
  996MOL0     H37419   6.220   5.103   9.000  0.8367 -0.3880 -0.2414
  996MOL0     H37420   6.502   5.149   8.999 -2.2317  0.2573 -1.5038
  996MOL0     H37421   6.431   5.059   9.140  0.9117  1.2186  0.7047
  996MOL0     H37422   6.427   4.963   8.843 -1.0434 -2.5204 -0.1900
  996MOL0     H37423   6.329   4.911   8.974  1.1176 -1.3045  2.5055
  996MOL0     H37424   6.534   4.779   8.910 -3.4100  1.6935 -1.4253
  996MOL0     H37425   6.544   4.808   9.083  2.7959 -2.2998 -1.1217
  996MOL0     H37426   6.684   5.005   8.882  0.8642  0.4267  0.2077
  996MOL0     H37427   6.747   4.846   8.939  1.3464 -0.3311  1.4545
  996MOL0     H37428   5.668   5.475   9.193 -1.0090 -0.1913 -1.1685
  996MOL0     H37429   5.489   5.406   9.345  1.5080  0.4596  1.5686
  996MOL0     H37430   5.468   4.966   9.681 -0.4109  3.3444  0.6172
  996MOL0     H37431   5.351   4.904   9.890 -0.2617 -2.9578 -0.5252
  996MOL0     H37432   4.930   3.851  10.699  0.9773 -0.8838  0.1912
  996MOL0     H37433   5.076   3.838  10.864 -1.0747  3.0730 -2.1780
  996MOL0     H37434   5.138   3.895  11.289  0.3181  0.6050 -2.7688
  996MOL0     H37435   5.286   3.954  11.473  0.0312 -1.1578  0.1873
  996MOL0     H37436   5.716   3.785  11.482 -0.0819  0.0332 -1.7443
  996MOL0     H37437   5.674   3.917  11.372  0.4656 -0.1818 -0.6953
  996MOL0     H37438   5.849   3.962  11.508 -2.4292 -3.5336 -3.0170
  996MOL0     H37439   5.767   3.911  11.658  1.6029  1.1167  1.3570
  996MOL0     H37440   5.694   4.159  11.470 -2.8770 -1.5884 -0.0641
  996MOL0     H37441   5.611   4.117  11.624  0.5610 -0.7431  1.0975
  996MOL0     H37442   5.872   4.120  11.689 -0.3036 -1.1831  0.3238
  996MOL0     H37443   5.742   4.253  11.705 -1.7965  0.9914 -2.5970
  996MOL0     H37444   6.018   4.442  11.460  1.6988 -2.9001 -3.8008
  996MOL0     H37445   5.582   3.693  11.310  0.1547 -0.2596  0.4539
  996MOL0     H37446   5.360   3.504  11.129 -0.6964 -0.1269  0.8200
  996MOL0     H37447   5.476   3.610  11.026  1.1363  0.6637  1.0732
  996MOL0     H37448   5.532   3.525  11.162 -0.9990  0.0336  2.6026
  997MOL0     O37449   9.437   3.131   0.788 -0.4470  0.3132  0.8239
  997MOL0     C37450   9.364   3.229   0.780 -0.3738  0.2743 -0.9523
  997MOL0     O37451   9.409   3.358   0.767 -0.0712 -0.4864 -0.1094
  997MOL0     C37452   9.530   3.391   0.724  0.5042  0.0786  0.7340
  997MOL0     C37453   9.611   3.314   0.637 -0.2981  0.0043  0.3491
  997MOL0     C37454   9.734   3.375   0.587 -0.0076 -0.0585 -0.8785
  997MOL0     C37455   9.771   3.503   0.613  0.6137 -0.0320  0.6076
  997MOL0     O37456   9.894   3.560   0.582  0.3527  0.6103  0.2094
  997MOL0     C37457  10.014   3.469   0.562  0.7078 -0.5070 -0.3974
  997MOL0     C37458  10.142   3.557   0.559  0.4240 -0.6893 -0.2924
  997MOL0     C37459  10.269   3.477   0.592  1.0575  0.3899  0.7144
  997MOL0     C37460  10.303   3.380   0.472  0.5038 -0.2370 -0.2450
  997MOL0     C37461  10.402   3.273   0.497  0.1791  0.5595 -1.0967
  997MOL0     C37462  10.533   3.325   0.553  0.5019 -0.5513  0.1121
  997MOL0     C37463  10.612   3.412   0.455 -0.5839  0.1723  0.4058
  997MOL0     C37464  10.759   3.421   0.509 -0.3442  0.2832  1.6111
  997MOL0     N37465  10.850   3.461   0.401  0.2183 -0.5773  0.7748
  997MOL0     C37466  10.812   3.511   0.276 -0.3728  0.1627  0.6635
  997MOL0     C37467  10.932   3.526   0.207  0.2438  0.8483  1.4512
  997MOL0     C37468  10.977   3.567   0.068 -0.5757  0.2876 -1.3176
  997MOL0     C37469  11.099   3.478   0.013  0.2226  0.1015 -0.0897
  997MOL0     C37470  11.129   3.531  -0.131  0.0942  0.2953 -0.2895
  997MOL0     C37471  11.232   3.438  -0.198  1.0626 -0.4118 -0.6333
  997MOL0     O37472  11.188   3.303  -0.185  0.0091  0.0930 -0.5440
  997MOL0     C37473  11.278   3.201  -0.223 -0.5488 -0.4900  1.2020
  997MOL0     C37474  11.391   3.228  -0.299  0.1731  0.7416 -0.6383
  997MOL0     C37475  11.486   3.131  -0.330 -0.1766 -0.2155  0.1488
  997MOL0     C37476  11.607   3.176  -0.414 -0.2839 -0.8128 -0.0490
  997MOL0     C37477  11.468   3.000  -0.272 -0.4710 -0.4337 -0.7630
  997MOL0     C37478  11.560   2.889  -0.289  0.4299 -0.1617 -1.2399
  997MOL0     O37479  11.519   2.765  -0.257  0.3683 -0.3807 -0.0748
  997MOL0     C37480  11.613   2.660  -0.259 -0.0358  0.2104 -0.0948
  997MOL0     C37481  11.741   2.646  -0.192 -0.1828 -1.2967 -0.5370
  997MOL0     C37482  11.821   2.533  -0.200  0.3873  0.2673  0.0991
  997MOL0     C37483  11.781   2.421  -0.272  1.1617 -0.3216 -0.9424
  997MOL0     O37484  11.866   2.311  -0.276 -0.0919 -0.4607  0.2158
  997MOL0     C37485  11.909   2.273  -0.408 -0.2226 -0.4612 -0.5980
  997MOL0     C37486  12.063   2.257  -0.402 -0.3243 -1.4903  0.1277
  997MOL0     C37487  12.125   2.376  -0.340  0.1090 -0.2736 -0.1778
  997MOL0     C37488  12.183   2.336  -0.213 -0.2990 -0.2839 -0.7232
  997MOL0     C37489  12.258   2.459  -0.148 -0.3337  0.8348  0.5091
  997MOL0     C37490  12.312   2.411  -0.007  0.4394  0.4875 -0.3367
  997MOL0     C37491  12.439   2.329  -0.020 -0.2143 -0.3445 -0.2441
  997MOL0     C37492  12.493   2.309   0.116 -0.1339  0.6972 -0.1240
  997MOL0    Cl37493  12.384   2.199   0.219  0.7187  0.4061  0.2014
  997MOL0     C37494  11.658   2.426  -0.336 -0.2953 -0.4371  0.2058
  997MOL0     C37495  11.576   2.543  -0.329  0.1906  0.0553  0.2398
  997MOL0     O37496  11.675   2.913  -0.328 -0.0522 -0.6215 -0.1082
  997MOL0     C37497  11.356   2.972  -0.200  0.6477  0.2575  0.5858
  997MOL0     C37498  11.255   3.073  -0.177  0.0048  0.1526 -0.4799
  997MOL0     N37499  11.029   3.469   0.287 -0.6554  0.5055 -0.1994
  997MOL0     N37500  10.982   3.423   0.397  0.4574 -0.4737 -1.3099
  997MOL0     C37501   9.680   3.574   0.702 -0.0926 -0.7985  0.4040
  997MOL0     C37502   9.563   3.524   0.744 -0.2365  0.6769 -0.4226
  997MOL0     C37503   9.214   3.197   0.780 -1.1987  0.1714 -0.4042
  997MOL0     C37504   9.179   3.065   0.755 -0.2007 -0.0496 -1.0451
  997MOL0     C37505   9.044   3.013   0.753 -0.9519  0.7095 -0.1650
  997MOL0     C37506   8.945   3.110   0.755  0.9389 -0.2848  0.1548
  997MOL0     O37507   8.808   3.077   0.747 -0.0406 -0.3278  0.6584
  997MOL0     C37508   8.766   2.939   0.749 -0.3042 -0.8534 -0.4843
  997MOL0     C37509   8.615   2.922   0.742  0.1580 -0.0497 -0.1246
  997MOL0     C37510   8.570   2.778   0.763 -0.1316 -0.4171  0.3021
  997MOL0     C37511   8.634   2.673   0.668  0.7075 -0.8325 -1.6690
  997MOL0     C37512   8.582   2.679   0.536  0.1901 -0.3786 -0.0355
  997MOL0     C37513   8.566   2.679   0.419 -0.8756  0.0541  0.0002
  997MOL0     C37514   8.975   3.245   0.783  0.1946  0.1366 -0.4316
  997MOL0     C37515   9.108   3.291   0.798 -1.4950 -0.5919 -1.3800
  997MOL0     C37516   9.150   3.436   0.829 -0.1516  0.0294 -0.0311
  997MOL0     H37517   9.584   3.214   0.605 -1.1124  0.5859 -0.8289
  997MOL0     H37518   9.803   3.306   0.539 -0.0288 -1.2207  0.6687
  997MOL0     H37519  10.007   3.415   0.467 -0.9256  0.9113 -1.1373
  997MOL0     H37520  10.024   3.388   0.635  1.7664  0.0360  0.0821
  997MOL0     H37521  10.146   3.614   0.466 -1.0052  2.6965  1.5170
  997MOL0     H37522  10.129   3.638   0.632 -1.7878  1.6779 -3.0365
  997MOL0     H37523  10.354   3.538   0.623  1.2285 -0.7241  2.6226
  997MOL0     H37524  10.244   3.410   0.675  0.8607  1.0019  1.1496
  997MOL0     H37525  10.214   3.322   0.445  1.1610 -1.3847 -0.0115
  997MOL0     H37526  10.345   3.441   0.392  1.9652  1.4021  1.6445
  997MOL0     H37527  10.418   3.206   0.412 -1.3071 -1.8570  0.4138
  997MOL0     H37528  10.354   3.217   0.578  0.0174 -0.4357 -1.8621
  997MOL0     H37529  10.509   3.396   0.633  0.1705  1.4859 -1.7118
  997MOL0     H37530  10.592   3.243   0.596 -0.9868 -1.4246  0.5492
  997MOL0     H37531  10.573   3.514   0.459 -2.3377 -0.4197 -0.4905
  997MOL0     H37532  10.597   3.375   0.354 -1.0729  1.0032  0.1644
  997MOL0     H37533  10.765   3.490   0.593 -1.6449 -0.3985  2.3043
  997MOL0     H37534  10.797   3.327   0.551 -2.1939 -0.9091  0.7786
  997MOL0     H37535  10.717   3.539   0.233 -0.1002 -1.6441 -1.2902
  997MOL0     H37536  11.024   3.666   0.074  0.8508 -0.3725 -1.2612
  997MOL0     H37537  10.894   3.571  -0.003 -0.5967  1.6281 -1.2520
  997MOL0     H37538  11.196   3.490   0.063  0.4034  1.6737 -0.7496
  997MOL0     H37539  11.055   3.378   0.016  1.1164 -0.3246 -0.7932
  997MOL0     H37540  11.047   3.542  -0.202  2.7471 -0.9966 -3.8551
  997MOL0     H37541  11.160   3.636  -0.123 -1.6283  0.9335 -1.4296
  997MOL0     H37542  11.243   3.469  -0.302  1.2987  3.6085  0.4001
  997MOL0     H37543  11.324   3.452  -0.139 -0.7061  2.4304  1.7267
  997MOL0     H37544  11.406   3.332  -0.327 -1.0515  1.2203  0.3919
  997MOL0     H37545  11.610   3.118  -0.507  0.6832 -1.0986  0.1501
  997MOL0     H37546  11.698   3.145  -0.362 -0.8439  0.2651  1.6459
  997MOL0     H37547  11.603   3.282  -0.439  0.5397  0.2232  3.6024
  997MOL0     H37548  11.782   2.732  -0.141 -0.8644 -0.9294 -0.6009
  997MOL0     H37549  11.920   2.535  -0.156  0.7046 -0.0445 -0.5764
  997MOL0     H37550  11.858   2.183  -0.444  0.3226 -1.4708  0.9921
  997MOL0     H37551  11.877   2.356  -0.471 -2.9329 -1.5394 -0.7966
  997MOL0     H37552  12.075   2.166  -0.342 -1.9956 -1.6745  0.2431
  997MOL0     H37553  12.107   2.237  -0.500 -0.6214 -3.0435  0.2825
  997MOL0     H37554  12.060   2.463  -0.332 -2.3588 -1.8201 -1.8499
  997MOL0     H37555  12.197   2.423  -0.407  0.3862 -1.0064 -0.4027
  997MOL0     H37556  12.248   2.249  -0.227 -1.3350 -1.2388  0.2144
  997MOL0     H37557  12.103   2.293  -0.153  1.6954 -2.1986  0.7148
  997MOL0     H37558  12.349   2.486  -0.203  1.0237 -2.6985  0.7427
  997MOL0     H37559  12.187   2.541  -0.135 -2.3596 -0.6895 -0.3509
  997MOL0     H37560  12.244   2.355   0.058  3.6582 -0.5760  2.4656
  997MOL0     H37561  12.343   2.500   0.048  1.7326  1.3463 -2.3266
  997MOL0     H37562  12.507   2.387  -0.083  1.2155  1.3905  2.6532
  997MOL0     H37563  12.421   2.239  -0.079 -0.1499 -0.5602  0.0654
  997MOL0     H37564  12.500   2.407   0.164 -2.5418  1.6772 -1.6080
  997MOL0     H37565  12.593   2.265   0.118 -0.3343  0.2652  1.1417
  997MOL0     H37566  11.628   2.337  -0.391  4.4349 -1.4215 -1.2527
  997MOL0     H37567  11.483   2.538  -0.384 -0.0778  1.1435  0.5775
  997MOL0     H37568  11.328   2.875  -0.159  0.7847 -0.1774 -0.3392
  997MOL0     H37569  11.162   3.051  -0.125  0.8222  0.0923  1.0371
  997MOL0     H37570   9.697   3.676   0.736 -0.5611 -0.8965  0.9577
  997MOL0     H37571   9.485   3.586   0.787  0.1835  1.2911 -0.5395
  997MOL0     H37572   9.258   2.989   0.757  1.3996  1.5419  0.3107
  997MOL0     H37573   9.022   2.906   0.754 -0.5558  0.5914  2.7830
  997MOL0     H37574   8.811   2.901   0.657  3.4771  3.3960 -0.7159
  997MOL0     H37575   8.806   2.880   0.832  0.1277 -1.7576 -1.3023
  997MOL0     H37576   8.573   2.946   0.645 -1.6442  1.3885  0.9559
  997MOL0     H37577   8.578   2.987   0.821 -1.3678  1.1952 -1.8036
  997MOL0     H37578   8.597   2.749   0.865 -0.2204 -1.7031 -0.0211
  997MOL0     H37579   8.463   2.786   0.744  0.0080  0.4903 -0.1628
  997MOL0     H37580   8.618   2.573   0.710  4.3801 -1.1633 -0.7647
  997MOL0     H37581   8.741   2.682   0.649  0.9528 -1.0554 -0.4339
  997MOL0     H37582   8.558   2.672   0.312  0.9416 -4.8342 -0.0567
  997MOL0     H37583   8.894   3.317   0.784  0.3277  0.3810 -2.3635
  997MOL0     H37584   9.053   3.487   0.837 -0.3482 -0.3722  0.1290
  997MOL0     H37585   9.204   3.442   0.924  1.2117  0.0538 -0.7879
  997MOL0     H37586   9.218   3.481   0.756  1.5255 -1.0322  0.8173
  998MOL0     O37587   9.802   9.032   9.224 -0.9098 -0.3485 -0.0597
  998MOL0     C37588   9.756   8.942   9.297 -0.4061  0.2457  0.1345
  998MOL0     O37589   9.749   8.812   9.261  0.5044  0.0099  0.3055
  998MOL0     C37590   9.853   8.769   9.173 -0.4821 -0.6051  0.0343
  998MOL0     C37591   9.819   8.681   9.064 -0.3584 -0.0641 -0.8381
  998MOL0     C37592   9.923   8.621   8.988 -0.9811  1.3283  0.2539
  998MOL0     C37593  10.054   8.655   9.003 -0.3482  0.0448 -0.2077
  998MOL0     O37594  10.141   8.584   8.917  0.5204  0.2277  0.0489
  998MOL0     C37595  10.259   8.656   8.887  0.4179 -1.0583  0.9909
  998MOL0     C37596  10.330   8.568   8.781 -0.7467 -0.4390  0.5952
  998MOL0     C37597  10.442   8.638   8.713 -0.2820 -0.4274  0.5005
  998MOL0     C37598  10.546   8.542   8.663 -0.6224  1.8829 -0.0150
  998MOL0     C37599  10.639   8.612   8.561  0.2830 -0.1523 -0.7141
  998MOL0     C37600  10.717   8.741   8.626 -0.5641 -0.6612  0.4000
  998MOL0     C37601  10.823   8.787   8.528  0.6665  1.2940 -0.7661
  998MOL0     C37602  10.925   8.879   8.598 -0.3335 -0.6870 -0.2085
  998MOL0     N37603  11.041   8.897   8.517 -0.4551  0.1071 -0.3886
  998MOL0     C37604  11.159   8.838   8.543  0.3100  0.0154 -0.1741
  998MOL0     C37605  11.237   8.867   8.441 -0.6809  1.1353 -0.3654
  998MOL0     C37606  11.387   8.832   8.433  0.2486  0.1168 -0.2519
  998MOL0     C37607  11.415   8.720   8.326  0.0418  0.5040  0.3834
  998MOL0     C37608  11.450   8.780   8.192  0.5443 -0.3260 -0.1088
  998MOL0     C37609  11.597   8.794   8.179 -0.3919 -1.2482 -0.5208
  998MOL0     O37610  11.635   8.813   8.041  0.4151  0.4119  0.2738
  998MOL0     C37611  11.766   8.804   8.022  0.5833  0.1090 -0.7367
  998MOL0     C37612  11.872   8.846   8.111  1.0828 -0.1888 -0.5428
  998MOL0     C37613  12.007   8.845   8.082 -0.1910  0.2394  0.6538
  998MOL0     C37614  12.111   8.909   8.179  0.6228 -0.9020  0.2357
  998MOL0     C37615  12.042   8.800   7.953 -0.5323 -0.1260  0.4941
  998MOL0     C37616  12.187   8.782   7.905 -0.6480 -0.0846 -0.6744
  998MOL0     O37617  12.208   8.693   7.795  0.0467 -0.2751  0.4245
  998MOL0     C37618  12.311   8.729   7.716 -0.8818 -0.1253 -0.0848
  998MOL0     C37619  12.283   8.802   7.599  0.4731  0.2314  1.3940
  998MOL0     C37620  12.391   8.845   7.516  0.7167  0.4351 -0.3549
  998MOL0     C37621  12.525   8.811   7.547  0.7696  0.8194  0.6294
  998MOL0     O37622  12.636   8.852   7.485 -0.8063  0.0421 -0.2037
  998MOL0     C37623  12.628   8.846   7.338 -0.5061 -0.3084 -0.7779
  998MOL0     C37624  12.628   8.698   7.293  0.3312 -0.4297  0.5500
  998MOL0     C37625  12.705   8.661   7.171  0.0773 -0.8133 -0.0559
  998MOL0     C37626  12.854   8.642   7.182 -0.3846 -0.0582 -0.1066
  998MOL0     C37627  12.919   8.645   7.044  0.1577 -0.8128 -0.7635
  998MOL0     C37628  13.069   8.610   7.039  0.1496  0.4897 -0.8216
  998MOL0     C37629  13.136   8.643   6.906 -1.2314  0.3576 -0.1465
  998MOL0     C37630  13.151   8.800   6.909 -0.1855  0.1935  0.0897
  998MOL0    Cl37631  13.228   8.868   6.772 -0.6947  0.2391 -0.2562
  998MOL0     C37632  12.551   8.730   7.658 -0.0291 -0.7901 -0.3660
  998MOL0     C37633  12.447   8.685   7.747  0.1463 -0.5194 -0.9681
  998MOL0     O37634  12.271   8.844   7.967 -0.4242 -0.1309 -0.0232
  998MOL0     C37635  11.938   8.770   7.856  0.2776 -0.4272  0.1345
  998MOL0     C37636  11.805   8.759   7.901  0.8148 -0.0746  0.7817
  998MOL0     N37637  11.166   8.938   8.345  0.2474  0.0982  0.8034
  998MOL0     N37638  11.052   8.962   8.397  0.7011 -1.1948 -0.7747
  998MOL0     C37639  10.088   8.739   9.115  0.6923 -0.0662  0.4319
  998MOL0     C37640   9.989   8.795   9.196  0.2892  0.8478 -0.2426
  998MOL0     C37641   9.685   8.997   9.426 -0.1183 -0.6058  0.2129
  998MOL0     C37642   9.642   9.131   9.426  0.5286 -0.2080  0.6292
  998MOL0     C37643   9.570   9.187   9.533 -0.1178  0.2680  0.4690
  998MOL0     C37644   9.541   9.109   9.641 -0.1565  0.0836 -0.7219
  998MOL0     O37645   9.476   9.162   9.749  0.5244  0.0839 -0.1869
  998MOL0     C37646   9.380   9.269   9.737  0.1968  1.0642 -1.0677
  998MOL0     C37647   9.437   9.406   9.777  0.5974  0.5551 -0.3627
  998MOL0     C37648   9.531   9.397   9.899  0.5184 -0.6589 -0.3922
  998MOL0     C37649   9.463   9.360  10.035  0.4057  0.9732 -1.1297
  998MOL0     C37650   9.372   9.461  10.086  0.9299  0.5312 -0.1994
  998MOL0     C37651   9.294   9.535  10.143 -0.1024  0.0474  0.2200
  998MOL0     C37652   9.585   8.977   9.650 -0.3157 -0.7692 -0.6204
  998MOL0     C37653   9.658   8.919   9.545  0.3496  0.3774  0.2763
  998MOL0     C37654   9.698   8.776   9.560 -0.1722 -0.5042  0.3587
  998MOL0     H37655   9.715   8.658   9.040 -1.2843 -0.1622  2.6859
  998MOL0     H37656   9.896   8.544   8.917  3.7107 -1.2240  0.8159
  998MOL0     H37657  10.326   8.676   8.971  0.2352 -0.5590  1.0253
  998MOL0     H37658  10.236   8.751   8.837 -1.8254 -1.6338  0.8126
  998MOL0     H37659  10.364   8.475   8.827  0.6975  0.0866  0.6316
  998MOL0     H37660  10.248   8.550   8.711 -0.9958  1.8213  0.2300
  998MOL0     H37661  10.398   8.707   8.641 -0.7045 -0.3439  0.8390
  998MOL0     H37662  10.487   8.708   8.784 -2.0129 -0.6331  1.8624
  998MOL0     H37663  10.604   8.516   8.752  0.3370  0.1584 -1.0700
  998MOL0     H37664  10.492   8.459   8.617  1.0265  1.1325 -0.6912
  998MOL0     H37665  10.582   8.659   8.481  0.2069  1.3911  0.2168
  998MOL0     H37666  10.705   8.531   8.527 -0.7432 -1.2953 -0.0862
  998MOL0     H37667  10.643   8.819   8.645  0.5366 -0.2475  3.5646
  998MOL0     H37668  10.766   8.718   8.721 -0.4237 -0.2342  0.4341
  998MOL0     H37669  10.791   8.848   8.443 -0.7479 -0.0126 -1.2195
  998MOL0     H37670  10.868   8.695   8.489 -0.5339  0.8240 -1.1045
  998MOL0     H37671  10.883   8.978   8.619  0.2542 -1.0535  3.3581
  998MOL0     H37672  10.952   8.834   8.694  3.4442 -2.1221 -1.7668
  998MOL0     H37673  11.185   8.788   8.635 -0.7809 -1.7204 -0.7642
  998MOL0     H37674  11.431   8.816   8.532 -1.2166  1.8136  0.7344
  998MOL0     H37675  11.440   8.921   8.400  1.8299 -0.2359  1.2165
  998MOL0     H37676  11.491   8.653   8.367  0.0647 -0.0900 -0.6002
  998MOL0     H37677  11.323   8.664   8.305 -0.5091  1.8972 -1.0640
  998MOL0     H37678  11.407   8.724   8.109 -2.7901  0.1911  1.1170
  998MOL0     H37679  11.408   8.881   8.187  1.7607  0.2241  0.2873
  998MOL0     H37680  11.626   8.879   8.241 -0.9194 -1.2842 -0.2224
  998MOL0     H37681  11.648   8.705   8.217  0.7278 -0.5410 -0.3313
  998MOL0     H37682  11.839   8.909   8.193 -0.0656 -1.4373 -0.0094
  998MOL0     H37683  12.059   8.921   8.275  1.0314 -0.3533  0.3906
  998MOL0     H37684  12.134   9.006   8.136  1.0576 -1.2182 -0.2513
  998MOL0     H37685  12.198   8.844   8.194  1.7515  0.8855  1.9713
  998MOL0     H37686  12.181   8.829   7.573  0.7866 -0.5916 -0.9396
  998MOL0     H37687  12.366   8.919   7.441 -1.4588  1.6342  1.4281
  998MOL0     H37688  12.538   8.899   7.306  0.1177  2.1829  1.2728
  998MOL0     H37689  12.717   8.895   7.297  1.4990 -1.6779  1.5786
  998MOL0     H37690  12.668   8.637   7.374 -3.7232 -1.4060  2.0794
  998MOL0     H37691  12.522   8.671   7.279  0.0764  0.0975  1.4257
  998MOL0     H37692  12.683   8.728   7.087  0.1662 -0.9550 -0.1919
  998MOL0     H37693  12.663   8.567   7.135  0.0839 -1.4121  1.4325
  998MOL0     H37694  12.864   8.543   7.229  0.0910  0.0526  0.0365
  998MOL0     H37695  12.882   8.718   7.256 -2.9541  1.5281 -0.6400
  998MOL0     H37696  12.870   8.574   6.977 -0.0242 -1.5064  0.0986
  998MOL0     H37697  12.893   8.746   7.010 -1.2743 -1.9692 -3.4925
  998MOL0     H37698  13.075   8.501   7.046 -1.1023  0.4935  0.9877
  998MOL0     H37699  13.125   8.656   7.121 -1.6354  2.2021 -0.4817
  998MOL0     H37700  13.082   8.605   6.819 -1.7955 -2.1639  1.1940
  998MOL0     H37701  13.237   8.606   6.891 -1.6249  0.3300 -3.3406
  998MOL0     H37702  13.210   8.810   7.001 -1.4009  0.0987  0.8989
  998MOL0     H37703  13.062   8.860   6.931 -2.1136 -1.6825 -2.1107
  998MOL0     H37704  12.654   8.712   7.684  0.4176  2.6749  0.7884
  998MOL0     H37705  12.467   8.630   7.838 -2.3661  1.7656  1.1403
  998MOL0     H37706  11.953   8.753   7.750  0.2808 -1.5744  0.3009
  998MOL0     H37707  11.737   8.746   7.818  0.8149 -2.7911  1.1155
  998MOL0     H37708  10.194   8.753   9.135  1.0437 -0.8784 -0.7388
  998MOL0     H37709  10.020   8.859   9.277  3.0090 -1.1527  0.4380
  998MOL0     H37710   9.678   9.198   9.349 -0.1589 -0.0536  0.4323
  998MOL0     H37711   9.539   9.290   9.515  0.2827  0.7583  2.3737
  998MOL0     H37712   9.328   9.269   9.641  2.3714  0.1789 -2.2960
  998MOL0     H37713   9.301   9.245   9.809  0.8191 -1.8729 -1.2686
  998MOL0     H37714   9.355   9.477   9.788 -1.3937 -1.2035 -2.7704
  998MOL0     H37715   9.499   9.446   9.696 -0.2968  1.2793 -0.7052
  998MOL0     H37716   9.603   9.318   9.877  1.8758  0.3484  0.3059
  998MOL0     H37717   9.575   9.496   9.914  0.5366 -1.0798  3.3274
  998MOL0     H37718   9.542   9.341  10.109 -0.9251  1.7126  0.5582
  998MOL0     H37719   9.398   9.273  10.029  1.2092  0.3504 -1.0355
  998MOL0     H37720   9.230   9.598  10.202 -1.7137  0.0607 -1.4797
  998MOL0     H37721   9.580   8.925   9.745  4.4111  1.5686  1.2002
  998MOL0     H37722   9.637   8.722   9.487  0.3345  0.8625 -1.1534
  998MOL0     H37723   9.804   8.748   9.558  0.2222  0.2554  3.8207
  998MOL0     H37724   9.681   8.722   9.653  4.0587 -0.5076  1.3576
  999MOL0     O37725   6.414   8.471   3.335 -0.0064  0.1231 -0.6430
  999MOL0     C37726   6.490   8.455   3.431 -0.4985  0.0629 -0.0545
  999MOL0     O37727   6.561   8.554   3.493 -0.4250 -0.4639  0.0966
  999MOL0     C37728   6.542   8.684   3.442 -0.3852 -0.0990  1.1123
  999MOL0     C37729   6.655   8.752   3.406 -0.7166  0.1869  0.0520
  999MOL0     C37730   6.651   8.887   3.371 -0.2688  0.3627 -0.5431
  999MOL0     C37731   6.527   8.943   3.345 -1.2664  0.3611  0.0466
  999MOL0     O37732   6.529   9.077   3.320  0.4497  0.3642  0.2723
  999MOL0     C37733   6.475   9.150   3.427 -0.6523  0.2516 -0.4952
  999MOL0     C37734   6.504   9.300   3.398 -0.0678  0.0452  0.1762
  999MOL0     C37735   6.445   9.383   3.513 -0.6037  0.2306 -0.3311
  999MOL0     C37736   6.483   9.530   3.484  0.3112 -0.6112 -0.1911
  999MOL0     C37737   6.454   9.624   3.596 -0.4264 -0.8438 -0.0392
  999MOL0     C37738   6.472   9.773   3.551 -0.1474  0.6669  0.6019
  999MOL0     C37739   6.499   9.858   3.677  0.3306  0.4580 -0.1905
  999MOL0     C37740   6.379   9.868   3.784 -0.1607  0.6431  0.4266
  999MOL0     N37741   6.280   9.958   3.741  0.2723  0.4964  0.4754
  999MOL0     C37742   6.192  10.038   3.819  0.2658 -0.1729  0.2710
  999MOL0     C37743   6.089  10.078   3.741  0.3899 -0.0850  0.0310
  999MOL0     C37744   5.957  10.138   3.784 -0.7509 -0.1366 -0.7562
  999MOL0     C37745   5.962  10.284   3.820 -0.4522  0.0102  0.5862
  999MOL0     C37746   5.974  10.373   3.691  0.4333 -0.4871  0.0941
  999MOL0     C37747   6.108  10.377   3.622 -0.6745  0.5486  0.3222
  999MOL0     O37748   6.220  10.398   3.717 -0.5991 -0.1232 -0.3297
  999MOL0     C37749   6.341  10.351   3.681  0.7790 -0.1525  0.2725
  999MOL0     C37750   6.379  10.305   3.553 -0.2610  0.1655  0.1662
  999MOL0     C37751   6.519  10.269   3.537  0.1463  0.0866  1.0316
  999MOL0     C37752   6.555  10.191   3.416 -0.7205  0.1059  1.0804
  999MOL0     C37753   6.617  10.281   3.635  0.3718  0.7639 -0.7495
  999MOL0     C37754   6.758  10.244   3.634 -0.2799  0.7477  0.5570
  999MOL0     O37755   6.825  10.255   3.752  0.2706  0.8982 -0.4144
  999MOL0     C37756   6.956  10.236   3.754  0.0923 -0.7778 -0.2632
  999MOL0     C37757   7.023  10.340   3.806 -0.8745 -0.3755 -0.3307
  999MOL0     C37758   7.166  10.329   3.830 -0.0260 -0.1436 -0.1759
  999MOL0     C37759   7.240  10.223   3.774  0.2024 -0.2596 -0.1498
  999MOL0     O37760   7.380  10.232   3.778  1.0539  0.7837 -0.2581
  999MOL0     C37761   7.447  10.133   3.699  0.1911  0.0376 -0.2733
  999MOL0     C37762   7.592  10.177   3.660  0.3209  0.0237 -0.0395
  999MOL0     C37763   7.676  10.057   3.682  0.4610 -0.5282  0.1625
  999MOL0     C37764   7.821  10.072   3.643 -0.7261  0.4861 -0.0356
  999MOL0     C37765   7.909  10.002   3.735 -0.2199  0.1588 -0.2014
  999MOL0     C37766   8.041  10.071   3.736 -0.6999  1.0237  0.5115
  999MOL0     C37767   8.129  10.008   3.834  0.0925 -0.4834  0.7407
  999MOL0     C37768   8.279  10.047   3.818  0.8488 -0.2206 -0.4001
  999MOL0    Cl37769   8.294  10.214   3.879 -0.4780 -0.2696 -0.4533
  999MOL0     C37770   7.165  10.116   3.728  1.7944 -0.2749  0.1909
  999MOL0     C37771   7.020  10.120   3.718 -0.0275 -0.7894  0.3366
  999MOL0     O37772   6.807  10.204   3.524  0.7597 -0.0694 -0.8679
  999MOL0     C37773   6.575  10.334   3.763  1.0578 -0.1679  0.1636
  999MOL0     C37774   6.439  10.372   3.775 -0.4521  0.3571  0.0815
  999MOL0     N37775   6.113  10.025   3.618 -0.4829  0.4388 -0.4743
  999MOL0     N37776   6.233   9.973   3.618  0.2867  1.2191  1.0332
  999MOL0     C37777   6.412   8.877   3.382 -0.3968  0.1288 -0.0438
  999MOL0     C37778   6.419   8.751   3.437  1.1635  0.7417  0.0034
  999MOL0     C37779   6.485   8.316   3.488 -0.3223 -0.4752 -0.2838
  999MOL0     C37780   6.397   8.222   3.433  0.4390  0.0434 -0.3679
  999MOL0     C37781   6.391   8.093   3.481 -0.4433  0.3240 -0.3479
  999MOL0     C37782   6.487   8.048   3.575 -0.2906 -0.1918 -0.1107
  999MOL0     O37783   6.484   7.915   3.607  0.0762  0.4250 -0.2467
  999MOL0     C37784   6.439   7.894   3.745 -1.1587 -0.2916 -0.6259
  999MOL0     C37785   6.407   7.747   3.765 -0.6228 -0.4650 -0.1382
  999MOL0     C37786   6.537   7.667   3.770  0.9852  0.6562 -1.4347
  999MOL0     C37787   6.617   7.697   3.899  0.3509  0.3397  1.0211
  999MOL0     C37788   6.703   7.583   3.940  0.0548  0.7642  0.0574
  999MOL0     C37789   6.760   7.485   3.985 -1.2325  0.0705  0.3561
  999MOL0     C37790   6.576   8.146   3.633  0.1240  0.5039 -0.6172
  999MOL0     C37791   6.573   8.278   3.598  0.2061  0.1676  0.2663
  999MOL0     C37792   6.649   8.374   3.684  1.1030 -0.0091  0.2114
  999MOL0     H37793   6.756   8.712   3.403 -0.5092  0.7411 -0.3980
  999MOL0     H37794   6.746   8.939   3.359  0.3920 -0.4159  0.9975
  999MOL0     H37795   6.520   9.129   3.524 -1.3186 -1.6575 -0.5578
  999MOL0     H37796   6.368   9.135   3.442 -0.3032 -0.5025  1.5749
  999MOL0     H37797   6.612   9.316   3.399 -0.2210  1.1958 -0.6590
  999MOL0     H37798   6.458   9.333   3.305  3.0217 -1.3282 -2.0086
  999MOL0     H37799   6.337   9.372   3.511 -0.6814 -0.7181  3.1277
  999MOL0     H37800   6.488   9.344   3.606  0.9349  0.4917 -0.9060
  999MOL0     H37801   6.590   9.540   3.463  0.3468  0.9674  0.5939
  999MOL0     H37802   6.436   9.557   3.389 -1.2831 -0.0306  0.7223
  999MOL0     H37803   6.512   9.597   3.685 -2.4421 -0.4343  1.4802
  999MOL0     H37804   6.350   9.611   3.628 -0.4430 -1.8415 -0.4754
  999MOL0     H37805   6.561   9.775   3.488 -1.0067  2.2016 -0.6070
  999MOL0     H37806   6.388   9.806   3.490  1.9538  0.0570 -2.8763
  999MOL0     H37807   6.516   9.958   3.635 -1.0392 -0.0292 -2.0902
  999MOL0     H37808   6.588   9.824   3.731  0.6413  0.5692 -0.6276
  999MOL0     H37809   6.343   9.766   3.799  3.9630 -0.8817  1.0634
  999MOL0     H37810   6.423   9.889   3.881  1.3470 -1.8843  0.3805
  999MOL0     H37811   6.201  10.057   3.926  1.5939 -0.5572  0.2462
  999MOL0     H37812   5.925  10.082   3.873  2.7172 -2.6306 -0.8690
  999MOL0     H37813   5.875  10.128   3.712 -2.6344  0.6502  1.1727
  999MOL0     H37814   5.869  10.302   3.873 -0.7180  0.2701  0.0395
  999MOL0     H37815   6.044  10.308   3.888 -0.1222 -1.3306  0.6932
  999MOL0     H37816   5.897  10.340   3.621  1.5362 -0.4792 -1.1617
  999MOL0     H37817   5.942  10.474   3.718 -1.8795 -0.9950 -0.5979
  999MOL0     H37818   6.115  10.279   3.575  0.9083 -0.1329  1.8792
  999MOL0     H37819   6.113  10.452   3.542 -0.3372 -0.3946 -0.5631
  999MOL0     H37820   6.301  10.289   3.479  0.4279 -2.4643 -0.0851
  999MOL0     H37821   6.587  10.087   3.427  2.7072  1.2095  3.1292
  999MOL0     H37822   6.630  10.237   3.352 -1.9292 -0.9718 -1.2234
  999MOL0     H37823   6.466  10.179   3.353 -0.6275  0.5471  0.8643
  999MOL0     H37824   6.967  10.429   3.831 -1.6153 -1.0925  0.6648
  999MOL0     H37825   7.218  10.410   3.881  2.1786 -1.0580 -0.8504
  999MOL0     H37826   7.460  10.044   3.761 -1.5394 -2.5095 -3.2613
  999MOL0     H37827   7.398  10.104   3.606  0.0756 -0.3994 -0.0831
  999MOL0     H37828   7.588  10.205   3.554  2.6821 -0.5605 -0.3318
  999MOL0     H37829   7.642  10.258   3.714 -1.1302  1.0276 -0.1138
  999MOL0     H37830   7.626   9.971   3.636 -1.2478 -0.1970  1.3285
  999MOL0     H37831   7.674  10.028   3.788 -1.0368  0.6319  0.4765
  999MOL0     H37832   7.846  10.178   3.638  0.4454  0.1804 -0.8893
  999MOL0     H37833   7.824  10.029   3.543  1.0078  0.2512  0.0898
  999MOL0     H37834   7.873  10.013   3.837  2.8963  0.8324  0.9314
  999MOL0     H37835   7.904   9.895   3.714 -2.9838  0.2764 -0.5067
  999MOL0     H37836   8.022  10.176   3.761  2.6011  1.6239  0.9551
  999MOL0     H37837   8.088  10.069   3.637  1.6827 -1.5224  1.5806
  999MOL0     H37838   8.118   9.900   3.816 -6.1527 -0.2808  0.8607
  999MOL0     H37839   8.086  10.029   3.932 -1.7217  4.0042 -0.7745
  999MOL0     H37840   8.320  10.038   3.717  0.6261  1.1926 -0.6347
  999MOL0     H37841   8.340   9.982   3.881  0.0607 -0.9837 -0.4053
  999MOL0     H37842   7.205  10.018   3.706  3.1111  0.4225 -0.7008
  999MOL0     H37843   6.976  10.027   3.683 -2.7280  0.8769 -1.0380
  999MOL0     H37844   6.649  10.358   3.839  3.8238  0.2013 -2.4577
  999MOL0     H37845   6.403  10.420   3.865 -2.9186  2.9469 -2.1153
  999MOL0     H37846   6.314   8.923   3.371 -0.4014 -0.3730 -2.9491
  999MOL0     H37847   6.330   8.712   3.485  0.3257  0.1758 -1.8836
  999MOL0     H37848   6.345   8.248   3.341 -0.4643 -0.7897 -0.1084
  999MOL0     H37849   6.321   8.028   3.429 -0.7393 -0.0436  0.4883
  999MOL0     H37850   6.518   7.932   3.810 -0.7756  0.0681 -1.2922
  999MOL0     H37851   6.352   7.959   3.755 -0.0760  0.9381  1.6130
  999MOL0     H37852   6.349   7.725   3.675  0.1563  1.9600 -1.3209
  999MOL0     H37853   6.345   7.747   3.856 -2.6241 -3.0327 -1.3812
  999MOL0     H37854   6.503   7.563   3.779 -0.3851  1.0063 -2.2046
  999MOL0     H37855   6.604   7.678   3.684  0.0526 -0.2962 -2.3197
  999MOL0     H37856   6.556   7.721   3.986 -1.5671  0.9683 -0.4156
  999MOL0     H37857   6.677   7.786   3.881  0.9733 -0.3730 -0.6413
  999MOL0     H37858   6.816   7.406   4.032  0.3299 -0.2276 -1.8670
  999MOL0     H37859   6.635   8.103   3.713 -0.4530 -2.7048 -1.7341
  999MOL0     H37860   6.712   8.441   3.625  1.5061  1.0394  1.7635
  999MOL0     H37861   6.577   8.432   3.743  1.5988 -0.6059  1.4374
  999MOL0     H37862   6.706   8.314   3.755  0.3522 -0.7271  0.2187
 1000MOL0     O37863  10.827   2.360   0.213 -0.2077 -0.5038  0.3261
 1000MOL0     C37864  10.762   2.465   0.212  0.0262  0.5649 -0.3617
 1000MOL0     O37865  10.814   2.587   0.176  1.1451  0.0087 -0.3155
 1000MOL0     C37866  10.950   2.610   0.173 -0.8136 -0.4995 -0.1650
 1000MOL0     C37867  11.067   2.525   0.218  0.3005  0.1495 -0.7606
 1000MOL0     C37868  11.191   2.581   0.207 -0.0904  0.2499 -0.3507
 1000MOL0     C37869  11.214   2.708   0.158 -0.1989 -0.4787  0.1243
 1000MOL0     O37870  11.338   2.771   0.150  0.4462  0.8250  0.7037
 1000MOL0     C37871  11.399   2.785   0.278 -0.9248  0.0210 -0.7359
 1000MOL0     C37872  11.531   2.856   0.255  0.2586 -0.8748  0.3717
 1000MOL0     C37873  11.649   2.761   0.206 -0.6330 -0.5628  0.4843
 1000MOL0     C37874  11.768   2.850   0.191 -0.8009 -0.1230  0.1958
 1000MOL0     C37875  11.895   2.797   0.132  0.4286 -1.0972  0.0358
 1000MOL0     C37876  11.974   2.717   0.233  0.0533  0.3779 -0.2522
 1000MOL0     C37877  12.084   2.624   0.182  0.4707  0.6589 -0.0117
 1000MOL0     C37878  12.167   2.580   0.304 -0.9131 -0.1434  0.2080
 1000MOL0     N37879  12.274   2.672   0.340  0.1888  0.8451 -0.6608
 1000MOL0     C37880  12.266   2.799   0.397  0.4714 -1.3838 -0.1226
 1000MOL0     C37881  12.391   2.855   0.393 -0.7299  0.4097 -0.1019
 1000MOL0     C37882  12.439   2.982   0.454  0.3150  0.0808  0.5914
 1000MOL0     C37883  12.548   2.944   0.555  0.5930 -0.1869  0.3188
 1000MOL0     C37884  12.693   2.986   0.509 -0.6592 -0.7170 -0.0378
 1000MOL0     C37885  12.799   2.939   0.616 -0.4739  0.0237 -0.3755
 1000MOL0     O37886  12.924   3.004   0.580  0.4687 -0.6071 -0.5344
 1000MOL0     C37887  12.988   3.064   0.688 -0.4873  0.3529  0.2736
 1000MOL0     C37888  12.994   3.018   0.823  0.0572 -0.3649  0.0422
 1000MOL0     C37889  13.075   3.071   0.918  0.8198  0.1183 -0.1849
 1000MOL0     C37890  13.086   2.984   1.046  0.0327  0.0482  0.7217
 1000MOL0     C37891  13.147   3.185   0.896  0.4376  0.3964 -0.0439
 1000MOL0     C37892  13.217   3.274   0.997 -0.1610 -0.8553 -0.4694
 1000MOL0     O37893  13.225   3.408   0.972  0.3512  0.4291  0.0342
 1000MOL0     C37894  13.292   3.484   1.064  0.0990  0.2400  0.5612
 1000MOL0     C37895  13.435   3.483   1.072  0.2993  0.5746 -0.0931
 1000MOL0     C37896  13.494   3.561   1.168 -0.4914 -0.5821  0.3063
 1000MOL0     C37897  13.410   3.638   1.254  0.6109  0.1989 -0.1582
 1000MOL0     O37898  13.461   3.713   1.355  0.1197 -0.8025 -0.5519
 1000MOL0     C37899  13.586   3.671   1.412  0.0233  0.7687  0.1160
 1000MOL0     C37900  13.596   3.724   1.558 -1.2670  0.0025 -0.6253
 1000MOL0     C37901  13.719   3.665   1.637  0.3608  0.0521  0.0418
 1000MOL0     C37902  13.839   3.749   1.618 -0.4427 -0.1659  0.6438
 1000MOL0     C37903  13.948   3.671   1.690  0.2478 -0.0959 -0.3269
 1000MOL0     C37904  14.090   3.731   1.658  0.3997 -0.1337 -0.0498
 1000MOL0     C37905  14.187   3.634   1.740  0.1358 -0.0367 -0.1779
 1000MOL0     C37906  14.332   3.671   1.721  0.2157 -0.1742  0.5020
 1000MOL0    Cl37907  14.411   3.561   1.606 -0.1929 -0.0233 -0.2125
 1000MOL0     C37908  13.272   3.649   1.237 -0.9672 -0.4628 -0.4358
 1000MOL0     C37909  13.209   3.579   1.137 -0.1103  0.5968  0.3001
 1000MOL0     O37910  13.255   3.218   1.105 -0.2435 -0.2772  0.2047
 1000MOL0     C37911  13.144   3.234   0.760  0.8393  0.3159 -0.3188
 1000MOL0     C37912  13.064   3.179   0.660  0.3809  0.0027 -0.7141
 1000MOL0     N37913  12.470   2.764   0.326  0.2754 -1.0035 -0.5075
 1000MOL0     N37914  12.403   2.655   0.304 -0.2701 -0.3862 -0.6179
 1000MOL0     C37915  11.109   2.789   0.115  0.1122 -0.3793 -0.0342
 1000MOL0     C37916  10.977   2.746   0.123 -0.3398  0.4112  0.4174
 1000MOL0     C37917  10.615   2.456   0.258 -0.1295 -0.1512 -0.0552
 1000MOL0     C37918  10.552   2.578   0.293 -0.6750 -1.1841 -0.0895
 1000MOL0     C37919  10.416   2.592   0.322 -0.3383 -0.1430  0.3017
 1000MOL0     C37920  10.335   2.480   0.321  0.8314  0.0920 -0.1988
 1000MOL0     O37921  10.204   2.478   0.355 -0.7537  0.1791  0.2659
 1000MOL0     C37922  10.135   2.597   0.386 -0.8533 -0.3804 -1.1196
 1000MOL0     C37923  10.009   2.570   0.464 -0.1077  0.0675 -0.2601
 1000MOL0     C37924   9.901   2.482   0.396 -0.2582  0.6170  0.6099
 1000MOL0     C37925   9.867   2.553   0.263  0.5990 -0.3715  0.0487
 1000MOL0     C37926   9.774   2.473   0.177  0.0030  0.2103 -0.9370
 1000MOL0     C37927   9.696   2.406   0.127 -0.2290 -0.3043  0.1722
 1000MOL0     C37928  10.398   2.357   0.299 -0.6597 -1.2050  0.6354
 1000MOL0     C37929  10.537   2.343   0.251 -0.2313  0.4269 -1.2104
 1000MOL0     C37930  10.589   2.200   0.221 -1.2490  0.2931 -0.4725
 1000MOL0     H37931  11.059   2.423   0.254  1.1377  0.5136  0.4948
 1000MOL0     H37932  11.272   2.517   0.240  0.4506  1.1703  0.1838
 1000MOL0     H37933  11.431   2.693   0.327 -0.7102  1.3355  1.7844
 1000MOL0     H37934  11.345   2.843   0.354  0.7507  1.9320 -0.9163
 1000MOL0     H37935  11.516   2.947   0.197 -2.8146 -0.1419  2.0871
 1000MOL0     H37936  11.570   2.894   0.350 -1.7940 -0.0213  0.9367
 1000MOL0     H37937  11.664   2.688   0.285  1.5364  1.7648  2.3949
 1000MOL0     H37938  11.634   2.704   0.113  1.8688 -3.0233  1.4817
 1000MOL0     H37939  11.745   2.934   0.125 -0.3110 -0.5318 -0.5003
 1000MOL0     H37940  11.790   2.890   0.290 -0.2673 -0.6416  0.2910
 1000MOL0     H37941  11.954   2.881   0.095 -2.1368  2.5005  3.2690
 1000MOL0     H37942  11.869   2.739   0.043 -0.3283  1.1488 -1.2898
 1000MOL0     H37943  12.004   2.781   0.316 -1.4454  0.1984  0.4614
 1000MOL0     H37944  11.904   2.650   0.283  1.6258 -1.8816 -0.8895
 1000MOL0     H37945  12.146   2.682   0.114  0.3911  0.6750 -0.0699
 1000MOL0     H37946  12.042   2.539   0.128 -0.2472  0.5930  0.6322
 1000MOL0     H37947  12.101   2.555   0.387 -1.2738  1.3748  0.4201
 1000MOL0     H37948  12.212   2.490   0.261  1.0729  0.9195 -0.0808
 1000MOL0     H37949  12.181   2.857   0.432  0.5754 -2.4715  2.0980
 1000MOL0     H37950  12.361   3.036   0.508  0.3819 -0.1687  0.9427
 1000MOL0     H37951  12.479   3.052   0.380 -2.0236  1.2022  0.3133
 1000MOL0     H37952  12.524   3.004   0.643  0.9413  0.8408 -0.2568
 1000MOL0     H37953  12.552   2.841   0.591 -0.0899 -0.2304  0.2701
 1000MOL0     H37954  12.705   2.931   0.415  0.1470  0.5176 -0.6783
 1000MOL0     H37955  12.700   3.093   0.489 -0.7924 -0.3409  1.7927
 1000MOL0     H37956  12.776   2.959   0.721  0.0389 -0.4456 -0.1681
 1000MOL0     H37957  12.797   2.829   0.616 -3.9544 -0.0672  0.9042
 1000MOL0     H37958  12.954   2.920   0.849 -0.2214 -1.0187 -2.6270
 1000MOL0     H37959  13.071   3.040   1.139  3.0452 -2.3343  2.8684
 1000MOL0     H37960  13.185   2.938   1.049  0.6928  1.1804 -1.5925
 1000MOL0     H37961  13.020   2.897   1.053 -0.4653  0.2219 -1.2756
 1000MOL0     H37962  13.503   3.421   1.015  0.5838  0.1499  0.6924
 1000MOL0     H37963  13.601   3.548   1.181 -0.5807 -1.1207  0.5052
 1000MOL0     H37964  13.605   3.563   1.416 -1.4312  0.5238  1.1331
 1000MOL0     H37965  13.675   3.698   1.354  0.4536 -2.7520 -1.0977
 1000MOL0     H37966  13.595   3.832   1.573  0.2385  0.0706 -0.8620
 1000MOL0     H37967  13.513   3.688   1.621 -0.5118  1.1385  1.1012
 1000MOL0     H37968  13.735   3.562   1.603  2.0882 -0.3038  1.7747
 1000MOL0     H37969  13.688   3.658   1.741  0.8695  3.3030  0.5144
 1000MOL0     H37970  13.829   3.852   1.653  2.1385  1.7749 -3.4890
 1000MOL0     H37971  13.861   3.743   1.511 -0.7752 -3.0292  0.6651
 1000MOL0     H37972  13.935   3.677   1.798  1.7590  0.2234 -0.1336
 1000MOL0     H37973  13.949   3.566   1.659  2.1765 -1.4897  3.8295
 1000MOL0     H37974  14.090   3.834   1.694 -0.3692 -1.0898  2.9623
 1000MOL0     H37975  14.119   3.722   1.553  1.8115 -0.5449  0.3550
 1000MOL0     H37976  14.164   3.532   1.708 -1.6527  0.6481 -1.2147
 1000MOL0     H37977  14.156   3.649   1.844 -0.0263 -1.3194 -0.0148
 1000MOL0     H37978  14.383   3.661   1.817  0.0895  2.2915  0.8849
 1000MOL0     H37979  14.343   3.776   1.693 -0.8558 -0.1613  0.0590
 1000MOL0     H37980  13.221   3.711   1.310 -0.5128 -2.2162  1.4732
 1000MOL0     H37981  13.102   3.587   1.126 -0.0663 -0.3713 -1.0430
 1000MOL0     H37982  13.205   3.322   0.741  2.9058 -1.1637 -0.9152
 1000MOL0     H37983  13.071   3.230   0.564  1.7733 -1.2060 -1.2887
 1000MOL0     H37984  11.123   2.890   0.077 -2.2216 -0.9039 -2.6054
 1000MOL0     H37985  10.906   2.824   0.098  1.3843  1.9691  0.1683
 1000MOL0     H37986  10.619   2.663   0.302  0.8527 -2.5304  3.9611
 1000MOL0     H37987  10.380   2.692   0.345 -2.4367 -0.1052 -2.6415
 1000MOL0     H37988  10.200   2.651   0.456 -0.7922 -1.4354 -0.3428
 1000MOL0     H37989  10.108   2.659   0.300  0.6110 -1.6139 -2.5355
 1000MOL0     H37990   9.960   2.658   0.507 -2.6688 -0.6832 -1.4504
 1000MOL0     H37991  10.050   2.505   0.542  4.2328  0.4251 -1.9602
 1000MOL0     H37992   9.939   2.382   0.375 -3.2747 -0.8366  1.4089
 1000MOL0     H37993   9.813   2.470   0.461 -0.8042  2.6034  0.2982
 1000MOL0     H37994   9.956   2.569   0.201 -0.0359 -0.2530 -0.8605
 1000MOL0     H37995   9.828   2.653   0.285 -1.2020 -0.6958 -1.4292
 1000MOL0     H37996   9.615   2.340   0.101  0.1313 -2.2885  3.5166
 1000MOL0     H37997  10.335   2.269   0.315 -1.4338 -0.5232  1.4052
 1000MOL0     H37998  10.666   2.174   0.294 -1.4813  2.7230  0.7342
 1000MOL0     H37999  10.516   2.119   0.226  1.1047 -2.0624 -1.6003
 1000MOL0     H38000  10.634   2.195   0.121 -0.0878 -0.7784  0.0841
 1001MOL0     O38001   4.563   8.236   5.255 -0.5097 -0.6143 -1.0276
 1001MOL0     C38002   4.606   8.169   5.164  0.0590  1.1094  0.2728
 1001MOL0     O38003   4.742   8.142   5.140  0.0398  0.3426  0.3941
 1001MOL0     C38004   4.835   8.178   5.232 -0.7513  0.0529  0.0295
 1001MOL0     C38005   4.925   8.084   5.275  0.4508 -1.0119 -0.0357
 1001MOL0     C38006   5.030   8.118   5.359 -0.1522 -0.2486 -0.2531
 1001MOL0     C38007   5.043   8.254   5.396  0.4149 -0.0630  0.3443
 1001MOL0     O38008   5.142   8.312   5.463  0.4086 -0.5049 -0.5479
 1001MOL0     C38009   5.264   8.240   5.468 -0.2070 -0.0575 -0.8373
 1001MOL0     C38010   5.351   8.299   5.572  0.7936 -0.7319 -0.6666
 1001MOL0     C38011   5.466   8.205   5.603 -0.3231 -1.3774  0.1319
 1001MOL0     C38012   5.552   8.272   5.715  0.7038  0.0115  0.6376
 1001MOL0     C38013   5.680   8.190   5.733 -0.3878 -0.0619  0.2790
 1001MOL0     C38014   5.657   8.066   5.818  0.4046 -0.6340 -0.2740
 1001MOL0     C38015   5.782   8.003   5.851  0.4499  0.0911 -0.9466
 1001MOL0     C38016   5.775   7.883   5.948  1.1627  0.1586 -0.1498
 1001MOL0     N38017   5.890   7.797   5.928  0.4011 -0.6031 -0.5463
 1001MOL0     C38018   6.005   7.828   6.004 -0.2427  1.1205  0.5188
 1001MOL0     C38019   6.082   7.715   5.984 -0.5119  0.4415 -0.2891
 1001MOL0     C38020   6.225   7.699   6.019  0.1984  0.0969  0.4899
 1001MOL0     C38021   6.259   7.565   6.087  1.5383  0.1490 -0.3055
 1001MOL0     C38022   6.391   7.586   6.158 -0.8626  0.4878 -0.1475
 1001MOL0     C38023   6.520   7.620   6.076  0.1520  0.7798  0.1945
 1001MOL0     O38024   6.631   7.609   6.175 -0.5657 -1.1410 -0.0918
 1001MOL0     C38025   6.748   7.656   6.122 -0.7632  0.1784 -0.6731
 1001MOL0     C38026   6.823   7.752   6.182 -0.5373 -0.0155 -0.0429
 1001MOL0     C38027   6.945   7.801   6.140 -0.3303  0.0172  0.1202
 1001MOL0     C38028   7.021   7.875   6.244 -0.1543  0.4561 -0.7077
 1001MOL0     C38029   7.003   7.748   6.023  0.4160  1.1136 -0.3772
 1001MOL0     C38030   7.137   7.793   5.983  0.5839  0.0458  0.2014
 1001MOL0     O38031   7.208   7.686   5.931  0.3383 -0.4461 -0.5512
 1001MOL0     C38032   7.341   7.710   5.906 -0.7855  0.2707  0.3835
 1001MOL0     C38033   7.394   7.681   5.771 -0.2226  0.1048  0.2328
 1001MOL0     C38034   7.526   7.715   5.733 -0.6800 -0.3174 -1.2279
 1001MOL0     C38035   7.614   7.778   5.833 -0.2577  0.6931 -0.3446
 1001MOL0     O38036   7.735   7.825   5.804 -0.4243 -0.6296  0.0623
 1001MOL0     C38037   7.786   7.802   5.671 -0.4489  0.2374 -0.3645
 1001MOL0     C38038   7.907   7.895   5.661 -0.2801 -0.5800 -0.0076
 1001MOL0     C38039   8.010   7.862   5.763 -0.6953  0.3038 -0.3667
 1001MOL0     C38040   8.143   7.925   5.727 -0.0525 -0.0233  0.3714
 1001MOL0     C38041   8.235   7.828   5.653 -0.1501  0.5793  0.7581
 1001MOL0     C38042   8.372   7.888   5.640 -0.3816 -0.4395  0.1512
 1001MOL0     C38043   8.463   7.782   5.572 -0.1858 -0.7157 -0.3084
 1001MOL0     C38044   8.591   7.853   5.539  0.2021  0.4306 -0.4445
 1001MOL0    Cl38045   8.715   7.740   5.475 -0.1980 -0.6589 -0.1659
 1001MOL0     C38046   7.566   7.801   5.966  0.1989 -0.1331  0.9601
 1001MOL0     C38047   7.431   7.766   5.995 -0.2863  0.4441 -0.6985
 1001MOL0     O38048   7.184   7.908   5.999  0.2518 -0.1486  0.2021
 1001MOL0     C38049   6.938   7.634   5.969  0.0893 -0.2104  0.0422
 1001MOL0     C38050   6.816   7.584   6.017  0.2170 -0.4780 -0.2629
 1001MOL0     N38051   6.000   7.620   5.923 -0.5440 -0.0054 -0.1698
 1001MOL0     N38052   5.892   7.676   5.881  0.2295 -0.1488  0.1076
 1001MOL0     C38053   4.957   8.343   5.360  0.8250  0.3569 -0.0362
 1001MOL0     C38054   4.854   8.312   5.269  0.4934  0.0364 -0.7401
 1001MOL0     C38055   4.509   8.100   5.077 -0.4941  0.4193 -0.5980
 1001MOL0     C38056   4.572   8.034   4.966  0.0479 -0.8031  0.7946
 1001MOL0     C38057   4.503   7.957   4.880  0.8136  0.4882  0.3329
 1001MOL0     C38058   4.365   7.955   4.876  1.1491  0.3795 -0.2299
 1001MOL0     O38059   4.276   7.901   4.785  0.0544 -0.6907 -0.2320
 1001MOL0     C38060   4.326   7.837   4.662  0.9459  0.3299 -0.6144
 1001MOL0     C38061   4.390   7.701   4.685  0.5563  1.0899 -0.4647
 1001MOL0     C38062   4.299   7.606   4.755  0.7929  1.0663 -0.4296
 1001MOL0     C38063   4.187   7.547   4.673  0.5934 -0.2979  1.0003
 1001MOL0     C38064   4.101   7.463   4.754  0.3016  1.1197 -0.3607
 1001MOL0     C38065   4.030   7.393   4.827 -0.4947 -0.0981  0.4829
 1001MOL0     C38066   4.303   8.030   4.981  0.5107 -0.5585  0.3593
 1001MOL0     C38067   4.370   8.091   5.091 -0.3741  0.4766  0.8391
 1001MOL0     C38068   4.294   8.157   5.194 -0.8197  1.1481  0.6044
 1001MOL0     H38069   4.905   7.979   5.254 -5.0661 -0.5369  1.2958
 1001MOL0     H38070   5.095   8.041   5.398  0.6919  0.7957  0.4746
 1001MOL0     H38071   5.312   8.236   5.370 -0.2377 -1.6345 -0.8127
 1001MOL0     H38072   5.251   8.133   5.485 -1.9725  0.1202 -0.8682
 1001MOL0     H38073   5.391   8.393   5.534 -0.0429  0.0132  0.2543
 1001MOL0     H38074   5.281   8.317   5.654  1.9476 -1.7703  0.6166
 1001MOL0     H38075   5.430   8.106   5.633  0.2655 -1.9326 -0.9346
 1001MOL0     H38076   5.520   8.194   5.508 -1.4009  0.2019 -0.7181
 1001MOL0     H38077   5.580   8.373   5.684 -0.6747  0.5345  1.0270
 1001MOL0     H38078   5.492   8.289   5.805 -1.2560  3.2997 -1.0686
 1001MOL0     H38079   5.746   8.264   5.779  1.4557 -3.1589  3.1166
 1001MOL0     H38080   5.727   8.159   5.640 -0.2790 -1.5294  0.7971
 1001MOL0     H38081   5.606   8.092   5.912  0.7410  0.2506 -0.3265
 1001MOL0     H38082   5.588   7.995   5.772 -0.1443 -0.0167 -0.4304
 1001MOL0     H38083   5.848   8.072   5.904  0.4192  0.5010 -1.4405
 1001MOL0     H38084   5.830   7.974   5.757 -0.3368  0.2145 -1.3949
 1001MOL0     H38085   5.767   7.919   6.051  3.6392 -0.3700  0.2831
 1001MOL0     H38086   5.681   7.832   5.928  0.5309  0.0573  2.7190
 1001MOL0     H38087   6.023   7.918   6.061 -1.8303  3.0024 -1.7858
 1001MOL0     H38088   6.253   7.783   6.083  0.1513  0.2709  0.2824
 1001MOL0     H38089   6.283   7.715   5.927  2.1860 -0.2704  1.6322
 1001MOL0     H38090   6.182   7.528   6.155  2.4433 -1.7135 -0.2255
 1001MOL0     H38091   6.252   7.487   6.010 -1.4119 -0.3497  0.3513
 1001MOL0     H38092   6.385   7.652   6.245  1.2547 -1.0021  1.2131
 1001MOL0     H38093   6.404   7.486   6.199 -1.8630 -0.5170 -2.1297
 1001MOL0     H38094   6.548   7.552   5.995  2.2655  0.6789  0.9334
 1001MOL0     H38095   6.513   7.722   6.037 -0.7454  0.4711 -0.4671
 1001MOL0     H38096   6.791   7.789   6.279  0.3073  0.2925  0.1249
 1001MOL0     H38097   7.116   7.829   6.273  0.1704  1.3528 -0.3277
 1001MOL0     H38098   6.972   7.899   6.338  0.5390  3.4917 -1.0142
 1001MOL0     H38099   7.055   7.973   6.209 -0.8696  0.6008 -1.0082
 1001MOL0     H38100   7.313   7.655   5.704 -0.5488  3.2490 -0.7721
 1001MOL0     H38101   7.564   7.708   5.632  1.2141  0.1230 -0.5792
 1001MOL0     H38102   7.810   7.696   5.660  0.2684  0.0875  2.1746
 1001MOL0     H38103   7.712   7.823   5.592  0.1454 -3.8608 -2.2580
 1001MOL0     H38104   7.947   7.887   5.559  0.3753 -1.6007  0.3177
 1001MOL0     H38105   7.883   7.998   5.688  1.4261 -0.6804  2.2387
 1001MOL0     H38106   8.020   7.753   5.758  1.1871  0.4343 -0.3416
 1001MOL0     H38107   7.971   7.894   5.860 -2.8461  0.0845 -1.1063
 1001MOL0     H38108   8.182   7.948   5.826  1.1206  2.5035 -0.5894
 1001MOL0     H38109   8.119   8.010   5.662 -1.5286  0.3341  1.3535
 1001MOL0     H38110   8.237   7.731   5.704  0.1886 -0.3319 -0.9188
 1001MOL0     H38111   8.190   7.806   5.556 -2.4461 -3.3695  2.4425
 1001MOL0     H38112   8.404   7.912   5.742 -0.6145 -0.4453  0.2270
 1001MOL0     H38113   8.369   7.980   5.581  2.1924  0.5680  1.4451
 1001MOL0     H38114   8.419   7.749   5.478 -0.4311 -0.2575 -0.3591
 1001MOL0     H38115   8.477   7.706   5.649  4.2268 -0.4136 -0.5643
 1001MOL0     H38116   8.649   7.873   5.629 -0.4918  0.5682 -0.0221
 1001MOL0     H38117   8.573   7.942   5.477 -1.2874  0.3394 -0.1826
 1001MOL0     H38118   7.627   7.856   6.037  1.0008  0.0296  0.1739
 1001MOL0     H38119   7.404   7.808   6.091  3.5960 -0.6550  1.0602
 1001MOL0     H38120   6.979   7.592   5.877 -0.0557  0.2655 -0.2427
 1001MOL0     H38121   6.769   7.495   5.977  1.9461 -1.1179 -0.9495
 1001MOL0     H38122   4.976   8.445   5.392  0.2826  0.4098  0.1272
 1001MOL0     H38123   4.788   8.393   5.239  1.1400  1.8512  2.2904
 1001MOL0     H38124   4.678   8.031   4.946  0.0689  1.4319  0.4172
 1001MOL0     H38125   4.566   7.901   4.811  0.2670 -0.7677  0.8214
 1001MOL0     H38126   4.236   7.830   4.600  1.1481  4.4067 -1.7000
 1001MOL0     H38127   4.396   7.903   4.609  0.8477  1.5172  0.6710
 1001MOL0     H38128   4.472   7.716   4.755 -2.6262  0.5657  3.8039
 1001MOL0     H38129   4.423   7.661   4.589  0.7265 -3.7957  1.3776
 1001MOL0     H38130   4.367   7.530   4.794  1.7468  0.1827 -3.5286
 1001MOL0     H38131   4.253   7.644   4.847  1.9538 -0.9606  1.0869
 1001MOL0     H38132   4.227   7.480   4.596 -2.6217  0.4774 -1.5504
 1001MOL0     H38133   4.116   7.619   4.632 -1.3176 -3.3329 -1.4596
 1001MOL0     H38134   3.976   7.338   4.901  1.7905 -1.9156  0.9318
 1001MOL0     H38135   4.195   8.027   4.987  0.3076  2.8144  0.3960
 1001MOL0     H38136   4.267   8.254   5.153  2.4523  1.2248 -1.7703
 1001MOL0     H38137   4.200   8.105   5.213 -0.4115 -0.7933 -2.0486
 1001MOL0     H38138   4.347   8.172   5.289  1.9826 -2.3950 -0.1857
 1002MOL0     O38139   1.800  10.476   9.671  0.2266 -0.1184  0.1835
 1002MOL0     C38140   1.869  10.392   9.727 -0.2970 -0.8428 -0.1190
 1002MOL0     O38141   1.807  10.302   9.813 -0.9501  0.1309  0.0177
 1002MOL0     C38142   1.676  10.320   9.835 -0.7613 -0.5848 -0.4598
 1002MOL0     C38143   1.622  10.402   9.937 -0.6188  0.0219  0.1223
 1002MOL0     C38144   1.486  10.400   9.968  0.4795 -0.5553  1.3236
 1002MOL0     C38145   1.395  10.318   9.882  0.7427 -0.1606 -0.0064
 1002MOL0     O38146   1.263  10.299   9.907 -0.1395  0.5053  0.1165
 1002MOL0     C38147   1.208  10.374  10.006  0.3259  0.0779 -0.2341
 1002MOL0     C38148   1.054  10.352   9.993  0.0345  0.7375 -0.2996
 1002MOL0     C38149   1.029  10.217  10.068 -0.1103  0.3002  0.1143
 1002MOL0     C38150   0.880  10.206  10.086  0.2301  0.5223  0.0774
 1002MOL0     C38151   0.784  10.230   9.961  0.0126 -0.3956 -0.2868
 1002MOL0     C38152   0.794  10.130   9.844  0.7282 -0.1587  0.8595
 1002MOL0     C38153   0.748   9.990   9.880  0.1374 -0.7415 -0.1070
 1002MOL0     C38154   0.746   9.889   9.764  0.0858 -0.6756  0.4367
 1002MOL0     N38155   0.871   9.810   9.768 -0.4066  0.1372  0.0926
 1002MOL0     C38156   1.004   9.853   9.790  0.4626  0.2350 -0.2007
 1002MOL0     C38157   1.065   9.738   9.831 -0.0712 -0.3448  1.0142
 1002MOL0     C38158   1.210   9.737   9.880 -0.4933  0.2045 -0.3182
 1002MOL0     C38159   1.266   9.593   9.915  0.4550 -0.1422  0.3560
 1002MOL0     C38160   1.424   9.576   9.916  0.2362 -0.3516 -0.0647
 1002MOL0     C38161   1.466   9.432   9.947  1.3346  0.3148 -0.5954
 1002MOL0     O38162   1.592   9.389   9.893  0.1095 -0.9418 -0.8583
 1002MOL0     C38163   1.710   9.444   9.949  0.6946 -0.0364  0.3265
 1002MOL0     C38164   1.818   9.432   9.866  0.9723  0.0594  0.3422
 1002MOL0     C38165   1.943   9.483   9.896  1.2110  0.5396 -0.3726
 1002MOL0     C38166   2.048   9.485   9.788  0.4845 -0.0203 -0.1683
 1002MOL0     C38167   1.966   9.529  10.024 -0.3403 -0.1312 -0.3363
 1002MOL0     C38168   2.104   9.564  10.079 -0.1050  0.7663  0.2541
 1002MOL0     O38169   2.124   9.524  10.200 -0.4649  0.5223 -0.8127
 1002MOL0     C38170   2.239   9.568  10.256 -0.2109 -0.0982  0.1852
 1002MOL0     C38171   2.231   9.683  10.347 -0.1627 -0.0157 -0.0027
 1002MOL0     C38172   2.353   9.714  10.417 -1.4366  0.4351  0.4254
 1002MOL0     C38173   2.470   9.646  10.389 -0.2735 -0.2067  0.9747
 1002MOL0     O38174   2.579   9.692  10.458 -0.1406 -0.3093  0.0123
 1002MOL0     C38175   2.710   9.624  10.451  0.7447  0.4121  0.5644
 1002MOL0     C38176   2.801   9.676  10.550  0.2993  0.9546 -0.9046
 1002MOL0     C38177   2.947   9.630  10.539 -0.6307 -0.3682 -0.1998
 1002MOL0     C38178   3.039   9.741  10.599 -0.0854  0.0659  0.0026
 1002MOL0     C38179   3.184   9.699  10.577  0.5335  0.3202 -0.2153
 1002MOL0     C38180   3.283   9.795  10.654 -0.1132 -0.2160 -0.4311
 1002MOL0     C38181   3.429   9.744  10.621 -0.2678 -0.8884  0.8153
 1002MOL0     C38182   3.501   9.813  10.505 -0.1717 -0.0884 -0.1575
 1002MOL0    Cl38183   3.513   9.993  10.519 -0.5070  0.3814  0.1159
 1002MOL0     C38184   2.483   9.537  10.300  0.3343 -0.1333 -0.4217
 1002MOL0     C38185   2.361   9.493  10.240  0.4709 -0.1225  0.5261
 1002MOL0     O38186   2.182   9.629  10.014 -0.7693  0.3548  0.3869
 1002MOL0     C38187   1.858   9.551  10.113  0.0968  0.1147  0.7252
 1002MOL0     C38188   1.735   9.501  10.073  0.8780  0.0459  0.6601
 1002MOL0     N38189   0.978   9.635   9.828  0.3602 -0.4483 -0.0376
 1002MOL0     N38190   0.862   9.677   9.789  0.7757  0.4685  0.5599
 1002MOL0     C38191   1.451  10.241   9.783 -0.7783 -0.1121 -0.2303
 1002MOL0     C38192   1.586  10.234   9.762  0.6329 -1.1709  0.2618
 1002MOL0     C38193   2.020  10.375   9.695 -1.1030 -0.3446  0.2947
 1002MOL0     C38194   2.084  10.262   9.746  0.0038 -0.3521 -0.0669
 1002MOL0     C38195   2.216  10.233   9.709 -0.5248  0.7770  0.1710
 1002MOL0     C38196   2.290  10.306   9.631  0.6611  0.0816  0.8661
 1002MOL0     O38197   2.421  10.264   9.600  0.0429 -0.1001  0.2263
 1002MOL0     C38198   2.469  10.291   9.467  0.9018 -0.4864 -0.3812
 1002MOL0     C38199   2.562  10.178   9.428  0.4583 -0.6078  0.7510
 1002MOL0     C38200   2.692  10.176   9.508  0.0076 -0.5608 -0.2329
 1002MOL0     C38201   2.781  10.300   9.480  0.9147  0.4320  0.9170
 1002MOL0     C38202   2.924  10.277   9.518  0.5191  0.6830  0.2469
 1002MOL0     C38203   3.044  10.259   9.535  0.0971  0.5588  0.4134
 1002MOL0     C38204   2.241  10.420   9.581  0.2387 -0.7663 -0.3911
 1002MOL0     C38205   2.104  10.462   9.615 -0.0442  1.0993  0.5174
 1002MOL0     C38206   2.046  10.593   9.564 -0.7966  0.7885 -0.7512
 1002MOL0     H38207   1.697  10.448  10.001 -1.8578  0.9625  0.9488
 1002MOL0     H38208   1.449  10.447  10.059  0.0509  0.9973  0.3953
 1002MOL0     H38209   1.233  10.480   9.990  0.5077 -0.0778 -1.0326
 1002MOL0     H38210   1.241  10.322  10.096  2.6922 -2.4224 -2.3511
 1002MOL0     H38211   1.001  10.423  10.058 -1.1983  0.8904 -1.4222
 1002MOL0     H38212   1.019  10.339   9.890 -3.0598 -0.2960  0.7513
 1002MOL0     H38213   1.061  10.140   9.998  0.4114  0.4818  0.1488
 1002MOL0     H38214   1.082  10.198  10.162  0.5084 -1.8097 -0.6326
 1002MOL0     H38215   0.865  10.103  10.120  1.9465 -1.2250 -3.8589
 1002MOL0     H38216   0.844  10.275  10.164 -0.3780  0.6322 -0.2919
 1002MOL0     H38217   0.809  10.326   9.916  0.1363 -1.0695 -1.7103
 1002MOL0     H38218   0.687  10.244  10.011  1.1622  1.4755  1.5728
 1002MOL0     H38219   0.726  10.160   9.765  1.7216 -2.9612 -1.2145
 1002MOL0     H38220   0.890  10.135   9.791 -0.0556  2.3371 -0.4929
 1002MOL0     H38221   0.647   9.998   9.920  0.1829  2.1542 -0.3051
 1002MOL0     H38222   0.814   9.957   9.961 -0.0897  0.6890  0.6971
 1002MOL0     H38223   0.652   9.836   9.780  0.6495 -1.9851 -0.4895
 1002MOL0     H38224   0.739   9.938   9.667 -0.6930  2.1434  1.7881
 1002MOL0     H38225   1.049   9.951   9.801 -0.9322  0.7305  1.5491
 1002MOL0     H38226   1.212   9.800   9.970 -1.1985 -2.5289  1.7462
 1002MOL0     H38227   1.272   9.797   9.813 -1.6388  1.3812 -0.3871
 1002MOL0     H38228   1.234   9.561  10.014  0.1244  0.7603  0.5525
 1002MOL0     H38229   1.225   9.534   9.832 -3.0707  0.0836  1.7592
 1002MOL0     H38230   1.469   9.607   9.821  1.3389 -3.4597 -0.6733
 1002MOL0     H38231   1.480   9.649   9.976 -1.5434  2.8059 -1.9460
 1002MOL0     H38232   1.476   9.426  10.055  1.7504 -1.1955 -0.6960
 1002MOL0     H38233   1.394   9.360   9.906  1.0099  0.7414 -0.7891
 1002MOL0     H38234   1.803   9.382   9.771  0.2382  0.4083  0.2634
 1002MOL0     H38235   2.121   9.415   9.830  0.2473  0.2035  0.6345
 1002MOL0     H38236   2.090   9.585   9.771  1.2277 -0.4463 -0.9426
 1002MOL0     H38237   2.011   9.444   9.693  2.0806 -0.4123 -0.6653
 1002MOL0     H38238   2.135   9.732  10.364 -0.2498 -0.1388 -0.1320
 1002MOL0     H38239   2.358   9.801  10.481  0.0468  1.7814 -1.4388
 1002MOL0     H38240   2.695   9.518  10.476  0.3182  0.7257  1.6935
 1002MOL0     H38241   2.758   9.628  10.353 -2.4628  2.1654 -1.0841
 1002MOL0     H38242   2.802   9.785  10.541  2.1490  1.5859  4.0564
 1002MOL0     H38243   2.756   9.644  10.645 -0.3549 -2.9125 -2.3354
 1002MOL0     H38244   2.957   9.613  10.431  0.6181  1.2274 -0.3899
 1002MOL0     H38245   2.958   9.527  10.575  1.3080 -0.1550 -0.0520
 1002MOL0     H38246   3.020   9.748  10.707 -0.8140 -0.7933 -0.0606
 1002MOL0     H38247   3.018   9.838  10.553  0.5728 -0.4495 -1.4389
 1002MOL0     H38248   3.206   9.594  10.601 -2.3034 -0.7042 -1.6525
 1002MOL0     H38249   3.204   9.711  10.470  0.3345  2.1290 -0.0865
 1002MOL0     H38250   3.273   9.802  10.762 -3.6166 -0.1342 -0.6596
 1002MOL0     H38251   3.259   9.897  10.620 -5.3443 -0.7083  0.9978
 1002MOL0     H38252   3.427   9.635  10.610 -0.3638 -1.0632  2.4313
 1002MOL0     H38253   3.498   9.757  10.704  0.3021 -1.3502  0.4219
 1002MOL0     H38254   3.460   9.778  10.410  1.5313  2.5653 -2.0061
 1002MOL0     H38255   3.606   9.782  10.511  0.4713  1.0868 -3.4800
 1002MOL0     H38256   2.574   9.480  10.284  0.3317  0.2881 -2.2182
 1002MOL0     H38257   2.358   9.416  10.164  2.0392  2.1325 -2.0342
 1002MOL0     H38258   1.869   9.599  10.210 -1.9453  2.9522 -0.3132
 1002MOL0     H38259   1.642   9.515  10.127  1.4074  1.5546  1.2307
 1002MOL0     H38260   1.384  10.185   9.719 -1.9483 -2.9325  3.1280
 1002MOL0     H38261   1.614  10.175   9.675  0.2958  1.5074 -1.8281
 1002MOL0     H38262   2.039  10.185   9.808  0.3369 -1.6319 -1.3585
 1002MOL0     H38263   2.261  10.141   9.745 -0.1776  1.2272  0.9141
 1002MOL0     H38264   2.389  10.310   9.395 -0.3139  0.8400  1.2323
 1002MOL0     H38265   2.535  10.378   9.475  0.1238  0.0475  0.5375
 1002MOL0     H38266   2.575  10.180   9.319 -0.2355 -0.7130  0.6621
 1002MOL0     H38267   2.515  10.080   9.427 -2.1357  0.5550 -0.3214
 1002MOL0     H38268   2.670  10.177   9.615 -0.4244 -0.4295 -0.3233
 1002MOL0     H38269   2.752  10.085   9.498  1.0524  0.0138  0.5946
 1002MOL0     H38270   2.735  10.387   9.528 -0.7908  1.3536 -2.1345
 1002MOL0     H38271   2.768  10.316   9.373 -2.2898 -0.9126  1.0180
 1002MOL0     H38272   3.150  10.253   9.548  0.1345  1.3203  0.5616
 1002MOL0     H38273   2.305  10.477   9.515  1.0201  0.7701  1.5959
 1002MOL0     H38274   1.995  10.648   9.643 -2.7689  0.3146 -1.6247
 1002MOL0     H38275   2.126  10.652   9.518  1.3111 -1.0358  0.3750
 1002MOL0     H38276   1.969  10.564   9.492 -0.4511 -1.8439 -0.1478
 1003MOL0     O38277   2.102   2.714   0.992  0.1474  0.4635  0.0308
 1003MOL0     C38278   2.062   2.730   1.109 -0.4150 -0.1266 -0.5744
 1003MOL0     O38279   2.141   2.795   1.203 -0.4904 -0.2600 -0.7004
 1003MOL0     C38280   2.252   2.850   1.155 -1.3455 -0.7151  0.3210
 1003MOL0     C38281   2.382   2.802   1.171  0.2687  0.0150 -0.0079
 1003MOL0     C38282   2.501   2.860   1.117 -0.3813 -0.4507 -0.1644
 1003MOL0     C38283   2.491   2.983   1.049  0.2088  0.2340 -0.2677
 1003MOL0     O38284   2.610   3.030   0.994 -0.0693 -0.4200 -0.2439
 1003MOL0     C38285   2.670   2.958   0.886 -0.1990 -0.4294 -0.2826
 1003MOL0     C38286   2.758   3.047   0.794 -0.1398 -0.7973 -0.5840
 1003MOL0     C38287   2.866   3.102   0.888 -0.5357 -0.3487 -0.8149
 1003MOL0     C38288   2.969   3.190   0.813 -0.3466  0.0437  0.9619
 1003MOL0     C38289   3.084   3.234   0.903 -0.1496  0.1300  0.3599
 1003MOL0     C38290   3.186   3.116   0.922 -0.2761  0.2854  0.5497
 1003MOL0     C38291   3.308   3.141   1.011  0.7938  0.3490  0.4108
 1003MOL0     C38292   3.406   3.255   0.969 -0.1084 -0.9519 -0.2015
 1003MOL0     N38293   3.436   3.251   0.827  0.0850 -0.2096 -0.9010
 1003MOL0     C38294   3.493   3.146   0.764 -0.6695  0.4063  0.0861
 1003MOL0     C38295   3.506   3.188   0.637  0.6263  0.6986 -0.1645
 1003MOL0     C38296   3.589   3.118   0.536 -1.4922 -0.7228  0.1099
 1003MOL0     C38297   3.738   3.117   0.583 -0.4587 -0.1627  0.1152
 1003MOL0     C38298   3.830   3.094   0.464 -0.6722 -0.5125 -0.1377
 1003MOL0     C38299   3.825   3.201   0.358  0.6629 -0.1675 -0.8896
 1003MOL0     O38300   3.951   3.209   0.295 -0.7893  0.6986 -0.3223
 1003MOL0     C38301   3.967   3.292   0.188 -0.6625 -0.7798 -0.4122
 1003MOL0     C38302   3.855   3.371   0.135 -0.9143 -0.3715  0.1504
 1003MOL0     C38303   3.872   3.459   0.023 -0.0356  0.0976 -1.2663
 1003MOL0     C38304   3.749   3.534  -0.025  0.4297 -0.1373  0.5466
 1003MOL0     C38305   4.002   3.474  -0.031 -0.5525 -0.0068 -0.4021
 1003MOL0     C38306   4.021   3.565  -0.144 -0.4368 -0.0354 -0.0750
 1003MOL0     O38307   4.146   3.605  -0.155 -0.4515  0.2266 -0.0212
 1003MOL0     C38308   4.172   3.722  -0.219  0.1795 -0.1354 -0.2309
 1003MOL0     C38309   4.092   3.820  -0.271 -1.4859  0.3680  0.9267
 1003MOL0     C38310   4.149   3.936  -0.334  0.3193  0.1312  0.7577
 1003MOL0     C38311   4.288   3.961  -0.341  0.2708 -0.4381 -0.7731
 1003MOL0     O38312   4.318   4.074  -0.410 -0.3520  0.0042 -0.6220
 1003MOL0     C38313   4.451   4.072  -0.474  1.0133  0.4574 -0.3819
 1003MOL0     C38314   4.455   4.188  -0.577  0.0588  0.8481 -1.1281
 1003MOL0     C38315   4.586   4.192  -0.669  0.8338 -0.3784 -0.9552
 1003MOL0     C38316   4.550   4.173  -0.816 -0.6318 -0.5993 -0.2985
 1003MOL0     C38317   4.473   4.284  -0.880 -0.8825  0.3372  0.1415
 1003MOL0     C38318   4.451   4.249  -1.031 -1.6075 -1.1669 -0.7180
 1003MOL0     C38319   4.442   4.384  -1.095  0.1665 -0.4260  0.0446
 1003MOL0     C38320   4.297   4.441  -1.070 -1.4077  0.2478  0.5140
 1003MOL0    Cl38321   4.165   4.370  -1.175  0.5853 -0.3262 -0.1978
 1003MOL0     C38322   4.369   3.861  -0.283  0.4092 -0.2218  0.9206
 1003MOL0     C38323   4.311   3.741  -0.227 -0.5006 -0.2104  0.1248
 1003MOL0     O38324   3.930   3.585  -0.228 -1.2186 -0.9952  0.0345
 1003MOL0     C38325   4.106   3.396   0.017 -0.0075  0.3001  0.0899
 1003MOL0     C38326   4.095   3.297   0.119  0.6031 -0.6610 -0.1237
 1003MOL0     N38327   3.459   3.321   0.634  0.7182  0.2576 -0.9557
 1003MOL0     N38328   3.400   3.350   0.746  0.8224 -0.1128 -0.3409
 1003MOL0     C38329   2.361   3.043   1.033  0.1664 -0.0619 -0.7492
 1003MOL0     C38330   2.248   2.971   1.079 -0.1644 -0.0289  0.8025
 1003MOL0     C38331   1.944   2.661   1.162 -0.3657  0.3457 -0.1727
 1003MOL0     C38332   1.950   2.617   1.297 -0.0708  1.1838  0.1959
 1003MOL0     C38333   1.839   2.549   1.352  0.9867 -0.0374  0.9978
 1003MOL0     C38334   1.727   2.521   1.275 -0.9399 -0.8521 -0.4145
 1003MOL0     O38335   1.618   2.448   1.326  0.6038 -0.3996  0.3585
 1003MOL0     C38336   1.635   2.371   1.444  0.5252 -0.1019 -1.0060
 1003MOL0     C38337   1.503   2.306   1.491 -0.6626  0.0915 -0.6436
 1003MOL0     C38338   1.512   2.232   1.627  0.2426 -0.7537  0.0367
 1003MOL0     C38339   1.617   2.127   1.631  0.2405  0.8624  0.0781
 1003MOL0     C38340   1.614   2.038   1.753  0.5786  0.6444  0.0242
 1003MOL0     C38341   1.613   1.965   1.848 -0.2989  0.1044  0.2419
 1003MOL0     C38342   1.735   2.554   1.139  0.0461  0.3345 -0.2785
 1003MOL0     C38343   1.832   2.623   1.079  0.4241 -0.0590 -0.8075
 1003MOL0     C38344   1.812   2.660   0.935 -0.0518  0.3232  0.1922
 1003MOL0     H38345   2.390   2.716   1.236 -3.0348 -1.5822 -1.5133
 1003MOL0     H38346   2.601   2.817   1.119  0.0521  0.4335 -1.5222
 1003MOL0     H38347   2.588   2.904   0.837 -1.5759 -0.4096  1.8809
 1003MOL0     H38348   2.735   2.877   0.922  0.4640 -0.0904 -0.7027
 1003MOL0     H38349   2.810   2.984   0.721  0.5617  1.3863 -2.0589
 1003MOL0     H38350   2.688   3.118   0.750  0.3526  1.0267  1.4366
 1003MOL0     H38351   2.822   3.158   0.971  0.6671 -0.2985 -0.1960
 1003MOL0     H38352   2.922   3.022   0.936  0.9226  1.7142  1.1056
 1003MOL0     H38353   3.014   3.131   0.733  4.4339  0.8645  2.7215
 1003MOL0     H38354   2.917   3.271   0.762 -1.0756 -0.8935  0.1922
 1003MOL0     H38355   3.053   3.278   0.998 -0.6611 -1.4652  0.9669
 1003MOL0     H38356   3.126   3.317   0.846  0.3913 -2.0897 -2.7342
 1003MOL0     H38357   3.140   3.032   0.974  0.6968 -0.2445  0.5530
 1003MOL0     H38358   3.211   3.079   0.822  1.2848  2.0289  0.2426
 1003MOL0     H38359   3.368   3.050   1.006  2.4288  1.3808 -4.3683
 1003MOL0     H38360   3.263   3.160   1.109 -0.4446  1.6817 -0.3674
 1003MOL0     H38361   3.351   3.346   0.992  1.9498  0.1452  0.6691
 1003MOL0     H38362   3.500   3.266   1.024  0.6155  1.2961 -1.7628
 1003MOL0     H38363   3.532   3.057   0.811 -2.1687 -0.0263  0.5371
 1003MOL0     H38364   3.573   3.182   0.448  0.7268 -0.4431 -0.1513
 1003MOL0     H38365   3.562   3.014   0.516  0.5712 -1.1400 -0.7518
 1003MOL0     H38366   3.767   3.213   0.627  1.5314 -0.8182  0.3296
 1003MOL0     H38367   3.764   3.037   0.654 -2.5127 -3.3777 -2.4460
 1003MOL0     H38368   3.933   3.093   0.502 -0.1790 -1.0224 -1.4287
 1003MOL0     H38369   3.816   2.991   0.430 -3.0681 -1.6543  3.7215
 1003MOL0     H38370   3.740   3.178   0.293  0.3160 -1.2031 -0.0857
 1003MOL0     H38371   3.790   3.296   0.401 -1.1032 -0.1633 -2.2014
 1003MOL0     H38372   3.754   3.363   0.176 -0.2018  1.5988  2.5739
 1003MOL0     H38373   3.723   3.495  -0.123 -1.8584  0.6107  0.7897
 1003MOL0     H38374   3.783   3.638  -0.028  1.9678 -0.6398 -0.3013
 1003MOL0     H38375   3.657   3.543   0.034  0.5299 -1.0607  0.8525
 1003MOL0     H38376   3.984   3.817  -0.257 -1.1627 -1.4580  3.6649
 1003MOL0     H38377   4.085   4.004  -0.388  0.3105 -0.8456 -0.4943
 1003MOL0     H38378   4.532   4.080  -0.401  1.2527 -0.5767 -0.5234
 1003MOL0     H38379   4.454   3.974  -0.523 -0.1546  0.5815 -0.7155
 1003MOL0     H38380   4.369   4.180  -0.645 -0.6684  1.7854 -0.3456
 1003MOL0     H38381   4.451   4.282  -0.522 -0.7828  0.5612 -0.6952
 1003MOL0     H38382   4.641   4.103  -0.639  0.8119  0.2328  1.0171
 1003MOL0     H38383   4.642   4.281  -0.638 -2.2642  1.1333  0.7778
 1003MOL0     H38384   4.513   4.072  -0.834 -1.5092 -0.5234  0.9904
 1003MOL0     H38385   4.644   4.178  -0.871  0.0978 -2.5563  0.7025
 1003MOL0     H38386   4.371   4.304  -0.846 -1.1757  4.3432 -2.4311
 1003MOL0     H38387   4.533   4.374  -0.866 -0.2004 -0.2288  0.9266
 1003MOL0     H38388   4.361   4.189  -1.052 -1.4057 -1.3771 -0.9861
 1003MOL0     H38389   4.546   4.214  -1.070 -0.9404 -2.8614  2.1267
 1003MOL0     H38390   4.457   4.372  -1.202 -3.7132 -0.3855 -0.6589
 1003MOL0     H38391   4.514   4.457  -1.055  2.5569 -1.0614 -2.7878
 1003MOL0     H38392   4.298   4.546  -1.101 -1.5076 -0.5808 -2.7278
 1003MOL0     H38393   4.274   4.429  -0.964 -1.1367 -3.5580  0.2763
 1003MOL0     H38394   4.477   3.873  -0.283  0.5009 -0.7668  2.7072
 1003MOL0     H38395   4.378   3.674  -0.173 -1.7017 -2.5585 -1.1175
 1003MOL0     H38396   4.197   3.398  -0.042 -0.2696  0.6436 -0.3114
 1003MOL0     H38397   4.180   3.237   0.148 -0.3301 -1.7059  0.5318
 1003MOL0     H38398   2.355   3.141   0.987  1.0239  1.6692  2.5329
 1003MOL0     H38399   2.150   3.012   1.059  0.0947  0.6896  0.9673
 1003MOL0     H38400   2.040   2.636   1.355  1.2259 -0.5727 -1.0950
 1003MOL0     H38401   1.838   2.519   1.456 -0.5144 -0.7479  0.8013
 1003MOL0     H38402   1.711   2.294   1.433  2.0744  1.3243 -0.6411
 1003MOL0     H38403   1.671   2.430   1.529  0.2406 -3.1366  1.4130
 1003MOL0     H38404   1.456   2.246   1.413 -0.8472  0.9051 -1.1576
 1003MOL0     H38405   1.439   2.392   1.508  0.5630  1.1341 -1.1709
 1003MOL0     H38406   1.531   2.302   1.709 -0.3312  0.2173 -0.6354
 1003MOL0     H38407   1.409   2.204   1.649  0.5561 -2.3622 -0.3997
 1003MOL0     H38408   1.717   2.168   1.614  0.3750 -0.8105 -4.6306
 1003MOL0     H38409   1.601   2.050   1.554 -0.3675  0.1014  0.9476
 1003MOL0     H38410   1.587   1.919   1.942 -0.3137 -0.1458  0.1161
 1003MOL0     H38411   1.656   2.509   1.079  0.7922 -0.6853 -0.5165
 1003MOL0     H38412   1.762   2.757   0.931  0.0874  0.7068  3.9810
 1003MOL0     H38413   1.904   2.663   0.875 -2.8109 -2.0679 -4.7445
 1003MOL0     H38414   1.746   2.589   0.885 -1.1975  0.5452  1.3547
 1004MOL0     O38415   9.746   4.914   8.078  0.1622 -0.5199  0.8622
 1004MOL0     C38416   9.722   5.035   8.088  0.4435  0.1457 -0.1532
 1004MOL0     O38417   9.778   5.116   8.184 -0.1861  0.6173  0.0940
 1004MOL0     C38418   9.885   5.064   8.257 -0.2145  0.1802  1.3468
 1004MOL0     C38419   9.980   5.157   8.290 -0.1192 -0.0432  0.1364
 1004MOL0     C38420  10.089   5.125   8.354 -0.2575 -0.1347  0.2567
 1004MOL0     C38421  10.114   4.989   8.400  0.0006 -0.1344  0.4876
 1004MOL0     O38422  10.225   4.947   8.463 -0.7402  0.1277 -0.2076
 1004MOL0     C38423  10.345   5.020   8.428 -0.5368  0.6019  0.0071
 1004MOL0     C38424  10.458   4.928   8.453  0.0280 -0.2890 -0.6147
 1004MOL0     C38425  10.458   4.805   8.356  0.2821 -0.1271 -0.2679
 1004MOL0     C38426  10.483   4.849   8.206 -0.4484 -0.7059  0.0246
 1004MOL0     C38427  10.539   4.723   8.131 -0.0758  0.4721  0.6218
 1004MOL0     C38428  10.625   4.761   8.002  0.1217 -0.3703 -0.5375
 1004MOL0     C38429  10.713   4.653   7.933  0.8772 -0.6492  0.0887
 1004MOL0     C38430  10.842   4.642   7.992 -0.3592 -0.1867 -0.1261
 1004MOL0     N38431  10.932   4.547   7.920  0.6365 -0.2538 -0.5102
 1004MOL0     C38432  10.974   4.429   7.979  0.4588  0.2333 -0.1036
 1004MOL0     C38433  11.056   4.374   7.885  0.1499  0.6932 -0.6238
 1004MOL0     C38434  11.135   4.239   7.888  0.7425 -0.0414  0.4627
 1004MOL0     C38435  11.287   4.243   7.868  0.5405 -0.1081  0.0150
 1004MOL0     C38436  11.308   4.248   7.716  0.0848 -0.0237  0.3149
 1004MOL0     C38437  11.460   4.283   7.692  0.2485 -0.4995 -0.3263
 1004MOL0     O38438  11.550   4.204   7.770  0.2037  0.4427 -0.7217
 1004MOL0     C38439  11.678   4.195   7.726  0.2671 -0.2905 -0.1937
 1004MOL0     C38440  11.733   4.271   7.613 -0.7063 -0.3019 -0.3348
 1004MOL0     C38441  11.863   4.245   7.564  0.0927  0.2743  0.5304
 1004MOL0     C38442  11.919   4.348   7.463 -0.7304  0.5582 -0.1863
 1004MOL0     C38443  11.937   4.133   7.613 -0.6852  0.4144  0.0407
 1004MOL0     C38444  12.070   4.088   7.574  0.2067  0.1870  0.0938
 1004MOL0     O38445  12.148   4.035   7.672  0.1349 -0.2252 -0.8463
 1004MOL0     C38446  12.289   4.028   7.657  0.8486  0.0911 -1.0809
 1004MOL0     C38447  12.370   4.124   7.593 -0.0057  0.7822  0.1515
 1004MOL0     C38448  12.512   4.116   7.602 -0.0162 -0.3006 -0.1065
 1004MOL0     C38449  12.571   4.007   7.664  0.2383  0.3881  0.8841
 1004MOL0     O38450  12.705   3.985   7.644  0.2670 -0.1625  0.1679
 1004MOL0     C38451  12.778   3.895   7.731  0.4168 -1.0965  0.5055
 1004MOL0     C38452  12.931   3.919   7.736 -0.0345 -0.2759 -0.0850
 1004MOL0     C38453  13.004   3.890   7.604 -0.6381  0.0379 -0.3554
 1004MOL0     C38454  13.143   3.946   7.595 -0.3093 -0.8925 -1.0690
 1004MOL0     C38455  13.235   3.859   7.512  0.2058 -0.3225 -0.0784
 1004MOL0     C38456  13.327   3.763   7.596 -0.3262  0.0861 -0.9012
 1004MOL0     C38457  13.432   3.693   7.506  0.5477  0.6512 -1.0319
 1004MOL0     C38458  13.521   3.605   7.590 -0.4278  0.8051  0.0659
 1004MOL0    Cl38459  13.438   3.508   7.712  0.2006  0.1023  0.2018
 1004MOL0     C38460  12.481   3.913   7.722 -0.1976  0.2402  0.3154
 1004MOL0     C38461  12.344   3.923   7.720 -0.2004 -0.1912 -0.0808
 1004MOL0     O38462  12.105   4.101   7.454 -0.1321  0.1043 -0.7144
 1004MOL0     C38463  11.885   4.066   7.733  0.0717 -0.1901  0.8589
 1004MOL0     C38464  11.758   4.090   7.778  0.3909 -0.4389 -0.3911
 1004MOL0     N38465  11.074   4.471   7.786  0.4129 -0.5711  0.1523
 1004MOL0     N38466  11.007   4.573   7.806 -0.4425 -0.4768 -0.0513
 1004MOL0     C38467  10.010   4.899   8.385 -0.5653  0.3705 -0.9031
 1004MOL0     C38468   9.896   4.933   8.319 -0.0846 -0.6123 -0.2162
 1004MOL0     C38469   9.603   5.088   8.011  0.1151 -0.1912 -0.8733
 1004MOL0     C38470   9.552   5.210   8.046 -0.6977 -0.3757 -0.0820
 1004MOL0     C38471   9.447   5.275   7.990  0.0356 -0.1439 -0.3573
 1004MOL0     C38472   9.363   5.207   7.893  0.5758 -0.1841 -0.3486
 1004MOL0     O38473   9.254   5.270   7.833  0.6916 -0.5026  0.0081
 1004MOL0     C38474   9.195   5.213   7.713 -0.2283 -0.5678  0.0330
 1004MOL0     C38475   9.055   5.152   7.741  0.0035  0.3061 -0.5369
 1004MOL0     C38476   8.963   5.239   7.820 -0.0493 -0.5360 -0.5651
 1004MOL0     C38477   8.820   5.187   7.829  0.9074  0.3700 -0.2064
 1004MOL0     C38478   8.753   5.195   7.698  0.7570  0.2257 -0.7157
 1004MOL0     C38479   8.707   5.188   7.586  0.2437  0.5899 -0.2224
 1004MOL0     C38480   9.407   5.084   7.859  0.4982 -0.8422  0.3114
 1004MOL0     C38481   9.524   5.018   7.915  0.4011  0.0915  1.2211
 1004MOL0     C38482   9.542   4.887   7.863 -0.0140 -0.7846  0.3392
 1004MOL0     H38483   9.964   5.257   8.253  1.7199 -0.4538 -2.0022
 1004MOL0     H38484  10.161   5.204   8.373 -0.5563  0.2054 -0.0213
 1004MOL0     H38485  10.350   5.115   8.483  3.8767  1.3391 -1.3194
 1004MOL0     H38486  10.350   5.044   8.321 -0.5402  1.4874  0.1974
 1004MOL0     H38487  10.553   4.979   8.436  1.0803 -1.0048  2.5255
 1004MOL0     H38488  10.448   4.887   8.554  3.3477  2.7838  1.2311
 1004MOL0     H38489  10.534   4.732   8.385  0.4728 -0.7679 -2.2274
 1004MOL0     H38490  10.359   4.757   8.356 -0.4900  1.4063  0.0712
 1004MOL0     H38491  10.392   4.885   8.157  0.5813  1.8669 -0.1492
 1004MOL0     H38492  10.559   4.927   8.194 -1.2245 -0.0401 -0.6683
 1004MOL0     H38493  10.460   4.657   8.094  0.9584 -1.5810  1.8211
 1004MOL0     H38494  10.614   4.664   8.186  1.5827  1.0475 -0.9249
 1004MOL0     H38495  10.558   4.800   7.925 -1.4786 -2.4402 -0.3219
 1004MOL0     H38496  10.695   4.843   8.020  1.8418 -1.8405 -0.2577
 1004MOL0     H38497  10.712   4.674   7.825 -1.3078  0.1067  0.1871
 1004MOL0     H38498  10.647   4.566   7.935 -1.5663  1.0662 -0.0662
 1004MOL0     H38499  10.882   4.744   7.998 -2.0918  0.5380 -0.1407
 1004MOL0     H38500  10.825   4.619   8.097  0.6382  2.2348  0.6371
 1004MOL0     H38501  10.950   4.388   8.076  1.1086  0.4973  0.1737
 1004MOL0     H38502  11.080   4.176   7.818  1.1487 -0.7194  0.7423
 1004MOL0     H38503  11.125   4.184   7.982 -0.3421  0.3379  0.5840
 1004MOL0     H38504  11.317   4.338   7.915  1.9897  0.7148 -2.3671
 1004MOL0     H38505  11.336   4.155   7.909  1.3958  0.4787  0.2843
 1004MOL0     H38506  11.275   4.152   7.675 -1.3819  0.5189  0.1435
 1004MOL0     H38507  11.236   4.320   7.675 -1.5245 -2.3749 -1.2958
 1004MOL0     H38508  11.484   4.266   7.586 -2.6780 -0.9249 -0.9960
 1004MOL0     H38509  11.486   4.385   7.719  4.0350 -0.2620 -3.8786
 1004MOL0     H38510  11.664   4.343   7.570 -1.7222  0.9735  3.0461
 1004MOL0     H38511  12.014   4.383   7.503  0.0835 -1.2608 -0.4388
 1004MOL0     H38512  11.856   4.435   7.445 -0.7210  0.5629 -0.1986
 1004MOL0     H38513  11.934   4.298   7.366  0.8874 -0.9165  0.7647
 1004MOL0     H38514  12.328   4.201   7.529 -0.3141  0.8822  0.4688
 1004MOL0     H38515  12.580   4.181   7.548 -1.6157 -1.4663 -3.8472
 1004MOL0     H38516  12.737   3.902   7.832  0.5759 -0.8960  0.5561
 1004MOL0     H38517  12.740   3.796   7.705  1.4754 -1.6471  0.9616
 1004MOL0     H38518  12.957   4.020   7.769  1.6184 -0.9719  0.8434
 1004MOL0     H38519  12.975   3.859   7.815  1.8500 -0.7771 -1.4642
 1004MOL0     H38520  12.946   3.939   7.525 -1.4064 -1.8662 -1.0118
 1004MOL0     H38521  13.012   3.783   7.585  3.1251  0.3731 -1.5027
 1004MOL0     H38522  13.195   3.962   7.690  2.8342  3.2361 -3.1449
 1004MOL0     H38523  13.138   4.045   7.549  1.9744 -0.1393  0.1103
 1004MOL0     H38524  13.181   3.804   7.435  0.8795 -2.3921  0.8367
 1004MOL0     H38525  13.301   3.925   7.456 -1.8994  0.9685 -1.1607
 1004MOL0     H38526  13.261   3.696   7.652 -0.1706 -0.5862 -1.5029
 1004MOL0     H38527  13.389   3.819   7.666 -0.4420 -1.6136  0.6486
 1004MOL0     H38528  13.492   3.765   7.450  0.2324 -1.2809 -4.0933
 1004MOL0     H38529  13.379   3.630   7.434  2.3135 -0.0081 -1.8123
 1004MOL0     H38530  13.593   3.668   7.642  0.4450  0.1816 -0.3485
 1004MOL0     H38531  13.573   3.520   7.543 -2.5375 -0.9169  0.6965
 1004MOL0     H38532  12.533   3.834   7.776 -0.2414  0.6052  0.9036
 1004MOL0     H38533  12.268   3.864   7.770 -2.6120  1.2615 -1.8596
 1004MOL0     H38534  11.941   3.981   7.768  3.4074  1.6022  0.2965
 1004MOL0     H38535  11.709   4.034   7.857 -0.5330 -1.0092 -1.3297
 1004MOL0     H38536  10.014   4.814   8.452 -0.3326  1.4423  0.4946
 1004MOL0     H38537   9.813   4.862   8.311  0.6940 -1.4636 -1.0311
 1004MOL0     H38538   9.606   5.266   8.122 -0.1458 -0.8290 -0.1346
 1004MOL0     H38539   9.433   5.380   8.013  0.2011 -0.4057  1.0063
 1004MOL0     H38540   9.176   5.295   7.644  3.7187 -1.8928 -2.9759
 1004MOL0     H38541   9.259   5.142   7.660 -0.8219 -0.4447 -0.8572
 1004MOL0     H38542   9.080   5.063   7.800 -3.1987  0.4081  1.2056
 1004MOL0     H38543   9.012   5.129   7.644 -0.8714  2.3139 -0.6640
 1004MOL0     H38544   8.996   5.265   7.921 -0.1172 -0.4808 -0.5568
 1004MOL0     H38545   8.962   5.331   7.761  0.0795 -0.4725 -0.4691
 1004MOL0     H38546   8.774   5.256   7.900 -0.5964 -1.4978  0.7193
 1004MOL0     H38547   8.828   5.085   7.868 -0.0775  0.1021 -0.6847
 1004MOL0     H38548   8.674   5.174   7.484  0.0511  0.1364 -0.1002
 1004MOL0     H38549   9.336   5.021   7.805  1.2253 -1.0053 -0.4730
 1004MOL0     H38550   9.632   4.890   7.802 -1.4926  1.8024 -1.9696
 1004MOL0     H38551   9.569   4.821   7.946  0.0828 -0.0202  0.9300
 1004MOL0     H38552   9.452   4.847   7.815 -1.5511  1.8891  0.7869
 1005MOL0     O38553   4.763   8.723   8.701 -0.3044 -0.0053  0.7647
 1005MOL0     C38554   4.825   8.711   8.599 -0.2894 -0.6503 -0.2418
 1005MOL0     O38555   4.934   8.633   8.590 -0.0301  0.2005 -0.0167
 1005MOL0     C38556   4.955   8.545   8.692  0.8403  0.3880  0.0247
 1005MOL0     C38557   4.908   8.416   8.691 -1.1347  0.6053 -0.3061
 1005MOL0     C38558   4.947   8.328   8.790 -0.0172 -0.4143  0.2060
 1005MOL0     C38559   5.016   8.372   8.907 -0.1946 -0.5028  0.9359
 1005MOL0     O38560   5.061   8.304   9.015  0.0582 -0.6759 -0.4074
 1005MOL0     C38561   4.981   8.187   9.031  0.2757 -0.3276  0.1565
 1005MOL0     C38562   4.833   8.203   9.080 -0.3754 -1.4502 -1.1459
 1005MOL0     C38563   4.825   8.236   9.230 -0.6915 -0.8979 -0.6535
 1005MOL0     C38564   4.681   8.204   9.278  0.1179  0.2930  0.3649
 1005MOL0     C38565   4.663   8.058   9.320 -0.1542  0.2036 -0.2371
 1005MOL0     C38566   4.530   8.036   9.396  0.2230  0.6773 -0.4944
 1005MOL0     C38567   4.526   7.893   9.456 -0.1898  0.0848 -0.1501
 1005MOL0     C38568   4.379   7.849   9.505 -0.4682 -0.8641  0.8273
 1005MOL0     N38569   4.323   7.942   9.604  0.2988 -0.4340 -0.6047
 1005MOL0     C38570   4.233   8.039   9.573 -0.4791 -1.0204  0.4544
 1005MOL0     C38571   4.188   8.101   9.681  0.3947  0.0493  0.4367
 1005MOL0     C38572   4.098   8.212   9.688 -0.4850  0.0065  1.2757
 1005MOL0     C38573   3.986   8.190   9.785 -0.3455  0.9134  0.4699
 1005MOL0     C38574   3.887   8.071   9.761  1.1162  0.5355  0.2482
 1005MOL0     C38575   3.802   8.091   9.631 -0.5215  0.3973 -0.5715
 1005MOL0     O38576   3.733   8.214   9.620  0.6833  0.1772 -0.0080
 1005MOL0     C38577   3.639   8.227   9.517 -0.1451 -1.0320 -0.2871
 1005MOL0     C38578   3.650   8.157   9.395  0.3954  0.2730 -0.3994
 1005MOL0     C38579   3.540   8.143   9.305  0.1815 -0.1115  0.2053
 1005MOL0     C38580   3.549   8.081   9.170 -0.5484 -0.7196 -0.6839
 1005MOL0     C38581   3.419   8.200   9.340 -0.0875  0.2146 -0.5545
 1005MOL0     C38582   3.297   8.183   9.258 -0.4238 -0.6145 -0.6710
 1005MOL0     O38583   3.284   8.233   9.137 -0.1124 -0.7891 -0.1427
 1005MOL0     C38584   3.166   8.212   9.068 -1.4244 -0.0599 -0.3649
 1005MOL0     C38585   3.167   8.166   8.934 -0.1915 -0.0999 -0.2879
 1005MOL0     C38586   3.050   8.140   8.857 -0.3633 -0.0406 -0.1914
 1005MOL0     C38587   2.922   8.173   8.914 -0.8148  0.4908 -0.2210
 1005MOL0     O38588   2.813   8.128   8.843  0.0392 -0.4908 -0.6218
 1005MOL0     C38589   2.677   8.151   8.889  0.4007 -0.1253 -0.2900
 1005MOL0     C38590   2.570   8.063   8.826 -0.0628  0.4350  0.4415
 1005MOL0     C38591   2.531   8.115   8.690  0.4549  0.3501 -0.2239
 1005MOL0     C38592   2.428   8.022   8.624 -0.4692 -0.1746 -0.2809
 1005MOL0     C38593   2.396   8.059   8.475  0.0746  1.0095  0.4516
 1005MOL0     C38594   2.259   8.027   8.418  0.3856  0.1719 -0.4062
 1005MOL0     C38595   2.202   7.895   8.462 -0.4140  0.5747 -0.0581
 1005MOL0     C38596   2.304   7.777   8.444 -0.0101  0.5302  0.0433
 1005MOL0    Cl38597   2.360   7.786   8.281  0.2906  0.1049 -0.0489
 1005MOL0     C38598   2.920   8.229   9.042  0.1693 -0.6486 -0.6990
 1005MOL0     C38599   3.033   8.244   9.124 -0.4004  0.4928 -0.4540
 1005MOL0     O38600   3.215   8.108   9.311 -0.1369 -0.0007 -0.5349
 1005MOL0     C38601   3.409   8.272   9.457  0.4390 -0.1220 -0.0222
 1005MOL0     C38602   3.517   8.289   9.546  0.1890 -1.0473 -1.1017
 1005MOL0     N38603   4.261   8.042   9.780  0.1200 -0.0292 -0.5513
 1005MOL0     N38604   4.344   7.953   9.739  0.6075  0.2640 -0.8154
 1005MOL0     C38605   5.061   8.503   8.902 -0.5531 -0.5855 -0.9859
 1005MOL0     C38606   5.030   8.591   8.802 -0.0853 -0.3327  0.3644
 1005MOL0     C38607   4.767   8.782   8.480  0.4028  0.2603  0.4737
 1005MOL0     C38608   4.790   8.716   8.358  0.0358 -0.0754 -0.6561
 1005MOL0     C38609   4.744   8.777   8.239 -0.8356  0.6540  0.2044
 1005MOL0     C38610   4.679   8.897   8.244 -0.3280  0.3085  0.4005
 1005MOL0     O38611   4.605   8.945   8.141 -0.0168 -0.0969  0.7256
 1005MOL0     C38612   4.583   8.861   8.030 -0.0164  0.2960  0.1094
 1005MOL0     C38613   4.467   8.922   7.951 -0.0366  0.0171 -0.1711
 1005MOL0     C38614   4.506   9.059   7.890 -0.1502 -0.0012  0.7408
 1005MOL0     C38615   4.413   9.102   7.783  0.2261 -0.1616  0.5039
 1005MOL0     C38616   4.413   9.021   7.663  0.1584  0.3952 -0.1194
 1005MOL0     C38617   4.438   8.974   7.557  0.4822  0.3580  0.5524
 1005MOL0     C38618   4.661   8.967   8.360 -0.3990 -0.2688  0.1042
 1005MOL0     C38619   4.702   8.908   8.479  0.7609 -1.0920 -0.2534
 1005MOL0     C38620   4.677   8.978   8.606 -0.6512  1.1900  0.0762
 1005MOL0     H38621   4.843   8.397   8.606 -1.9193  0.3725  0.3412
 1005MOL0     H38622   4.900   8.232   8.770  0.5389 -0.4739 -0.9055
 1005MOL0     H38623   5.027   8.126   9.110 -4.4950 -0.2176  3.4772
 1005MOL0     H38624   4.982   8.121   8.944  0.1647 -0.2680  0.1104
 1005MOL0     H38625   4.777   8.282   9.030 -0.0112 -0.5337 -0.1662
 1005MOL0     H38626   4.783   8.109   9.056 -2.8735 -0.1861 -1.1851
 1005MOL0     H38627   4.901   8.177   9.283 -1.0186 -2.0705 -1.4595
 1005MOL0     H38628   4.840   8.343   9.244 -1.1282 -1.1279  2.1755
 1005MOL0     H38629   4.656   8.256   9.371 -0.1199 -0.8564  0.9599
 1005MOL0     H38630   4.613   8.229   9.196  1.6429  2.2843 -0.4047
 1005MOL0     H38631   4.746   8.029   9.385  1.5976  3.6117 -0.7398
 1005MOL0     H38632   4.676   8.003   9.226 -2.0630  1.3721 -1.2410
 1005MOL0     H38633   4.517   8.111   9.475 -3.1177  0.8840 -1.0627
 1005MOL0     H38634   4.448   8.055   9.325  1.0835 -3.2501 -2.8232
 1005MOL0     H38635   4.596   7.902   9.540  1.7102 -1.1857 -1.5054
 1005MOL0     H38636   4.562   7.823   9.380  0.2835  1.5583 -1.3309
 1005MOL0     H38637   4.317   7.855   9.414  1.1661 -1.8707 -0.4105
 1005MOL0     H38638   4.380   7.749   9.547  1.4133 -1.4209 -0.4240
 1005MOL0     H38639   4.201   8.076   9.476  2.1409 -1.2243 -0.5709
 1005MOL0     H38640   4.051   8.234   9.592 -1.2143 -0.0591  1.6156
 1005MOL0     H38641   4.161   8.297   9.717  0.2081 -0.2355  0.5372
 1005MOL0     H38642   4.019   8.159   9.885 -2.7970 -1.8542  0.5761
 1005MOL0     H38643   3.927   8.280   9.803 -4.5760 -1.7917  1.5586
 1005MOL0     H38644   3.958   7.991   9.742  0.9581 -0.1075  2.1416
 1005MOL0     H38645   3.821   8.056   9.847  1.2260 -0.4965  0.1609
 1005MOL0     H38646   3.873   8.082   9.547  2.8767 -0.4377  2.1495
 1005MOL0     H38647   3.728   8.011   9.622 -1.0135  0.9138 -1.3427
 1005MOL0     H38648   3.746   8.114   9.366 -0.8164 -0.8835 -3.0864
 1005MOL0     H38649   3.460   8.021   9.151  1.0201 -4.5596  2.5350
 1005MOL0     H38650   3.634   8.013   9.157  0.3358 -0.1182  1.4651
 1005MOL0     H38651   3.565   8.149   9.087  1.9837 -2.7982 -2.0779
 1005MOL0     H38652   3.264   8.142   8.890  0.3323  0.2217  0.6564
 1005MOL0     H38653   3.061   8.094   8.759 -0.1978  1.6158 -0.9809
 1005MOL0     H38654   2.672   8.129   8.996 -2.2476  0.3216 -0.2612
 1005MOL0     H38655   2.659   8.256   8.864  0.0499  0.0094  0.5324
 1005MOL0     H38656   2.613   7.963   8.814  0.8412  0.9636 -1.0525
 1005MOL0     H38657   2.483   8.066   8.892 -0.2629 -0.3462  0.2207
 1005MOL0     H38658   2.626   8.126   8.637  0.9042 -2.3807 -0.1250
 1005MOL0     H38659   2.490   8.216   8.699  1.7584  0.7113  2.2437
 1005MOL0     H38660   2.335   8.041   8.677  0.3948  0.7399  0.9636
 1005MOL0     H38661   2.452   7.916   8.636 -2.2326 -0.5274  0.4681
 1005MOL0     H38662   2.419   8.165   8.462 -0.3684  0.9871 -0.6356
 1005MOL0     H38663   2.466   8.009   8.408 -1.4284  0.9126 -1.1204
 1005MOL0     H38664   2.251   8.040   8.310  0.5117 -4.1698 -1.1479
 1005MOL0     H38665   2.196   8.108   8.456  0.2164 -0.0039 -0.3105
 1005MOL0     H38666   2.119   7.867   8.397  1.5186 -1.6056 -1.7508
 1005MOL0     H38667   2.165   7.911   8.564 -0.5855 -0.5611  0.0697
 1005MOL0     H38668   2.255   7.682   8.463 -0.4557  0.2792 -2.1047
 1005MOL0     H38669   2.391   7.780   8.510  1.1809 -1.3056 -1.3577
 1005MOL0     H38670   2.826   8.261   9.086  0.5590  0.8323 -0.8852
 1005MOL0     H38671   3.015   8.274   9.227  1.0214 -1.4227  0.4281
 1005MOL0     H38672   3.322   8.329   9.487  0.3649  0.0548 -0.5654
 1005MOL0     H38673   3.496   8.345   9.637  1.4884 -2.5922  0.2308
 1005MOL0     H38674   5.124   8.532   8.986 -0.1190 -2.3761 -0.6509
 1005MOL0     H38675   5.068   8.692   8.812  1.4858 -1.0100  1.7415
 1005MOL0     H38676   4.831   8.616   8.362 -1.1149 -0.5319  0.2614
 1005MOL0     H38677   4.764   8.725   8.146 -0.5670  1.6194 -0.2886
 1005MOL0     H38678   4.669   8.864   7.963 -0.8927  2.0783 -1.0343
 1005MOL0     H38679   4.547   8.764   8.068 -0.7547  0.8347  0.8315
 1005MOL0     H38680   4.388   8.949   8.022 -1.0251  1.6084 -1.7904
 1005MOL0     H38681   4.436   8.848   7.878 -0.1802 -0.5737  0.4737
 1005MOL0     H38682   4.510   9.144   7.959 -1.2878  0.2054  0.5668
 1005MOL0     H38683   4.604   9.057   7.842 -0.6390  1.8255 -0.4077
 1005MOL0     H38684   4.438   9.205   7.755  3.3374 -0.7473  0.8276
 1005MOL0     H38685   4.310   9.110   7.820  0.3495 -0.3108  0.8762
 1005MOL0     H38686   4.448   8.922   7.464  4.2577  1.8519 -0.0690
 1005MOL0     H38687   4.605   9.060   8.352  2.9643  1.8539 -0.8701
 1005MOL0     H38688   4.606   8.923   8.669 -2.2568  1.7697 -1.1751
 1005MOL0     H38689   4.767   8.991   8.667 -1.4854 -0.8876  1.9113
 1005MOL0     H38690   4.653   9.082   8.585  0.8135  1.9753  1.9750
 1006MOL0     O38691   1.879   2.711  10.562 -1.1160  0.6434 -0.4584
 1006MOL0     C38692   1.834   2.827  10.582 -0.0857  1.2222 -0.2525
 1006MOL0     O38693   1.908   2.937  10.627  1.0297  0.4107  0.5675
 1006MOL0     C38694   2.038   2.923  10.667  0.6814  0.3731  0.0443
 1006MOL0     C38695   2.066   2.849  10.779  0.3560  0.0391 -0.8304
 1006MOL0     C38696   2.201   2.832  10.818 -0.8512 -1.0042  0.1554
 1006MOL0     C38697   2.305   2.895  10.753  0.0384 -0.2686  0.3049
 1006MOL0     O38698   2.429   2.883  10.811 -0.3137 -0.0301  0.1750
 1006MOL0     C38699   2.488   3.012  10.825 -0.4555 -0.2641 -0.3638
 1006MOL0     C38700   2.494   3.059  10.976 -0.6359 -0.6424  0.2779
 1006MOL0     C38701   2.596   3.178  10.979 -1.6728 -0.2344 -0.2353
 1006MOL0     C38702   2.574   3.305  10.895 -0.2165 -0.2078  0.7110
 1006MOL0     C38703   2.692   3.400  10.901 -0.4226 -0.1103 -0.2081
 1006MOL0     C38704   2.665   3.547  10.882 -1.8216 -0.1547 -0.0568
 1006MOL0     C38705   2.789   3.631  10.926  0.2054  0.8547 -0.0284
 1006MOL0     C38706   2.762   3.776  10.942 -0.6863 -0.5461 -0.3456
 1006MOL0     N38707   2.881   3.866  10.916  0.5063  0.0083 -0.5465
 1006MOL0     C38708   2.990   3.887  10.993  0.8037  0.6872  0.4210
 1006MOL0     C38709   3.070   3.963  10.923 -0.0734 -0.0641 -0.3067
 1006MOL0     C38710   3.215   4.018  10.942  0.2588  0.2245 -0.3172
 1006MOL0     C38711   3.229   4.161  10.896  0.7322  0.3136  0.6955
 1006MOL0     C38712   3.380   4.212  10.910  0.0809  1.0945  0.1707
 1006MOL0     C38713   3.421   4.322  10.819 -0.1030 -0.2997 -0.8944
 1006MOL0     O38714   3.560   4.345  10.834  0.4928 -0.4569 -0.7369
 1006MOL0     C38715   3.610   4.468  10.874  0.3059 -0.7049  0.4447
 1006MOL0     C38716   3.544   4.564  10.947  0.3530  0.7873 -0.5791
 1006MOL0     C38717   3.615   4.667  11.004 -0.1813 -0.5333  0.9280
 1006MOL0     C38718   3.538   4.761  11.090 -0.5204 -0.0571 -0.5418
 1006MOL0     C38719   3.749   4.690  10.969 -0.8461 -0.0626  0.1117
 1006MOL0     C38720   3.840   4.792  11.030  0.5197 -0.5790 -0.6922
 1006MOL0     O38721   3.776   4.919  11.069  0.0358  0.1283  0.6327
 1006MOL0     C38722   3.854   5.005  11.146 -0.6499 -0.0083  0.2233
 1006MOL0     C38723   3.880   5.127  11.090  0.0668 -0.3328  0.0406
 1006MOL0     C38724   3.957   5.220  11.159 -0.0300 -0.1074 -0.1436
 1006MOL0     C38725   4.007   5.183  11.287  1.7737  0.4092 -0.1383
 1006MOL0     O38726   4.076   5.276  11.363 -0.2573  0.1375  0.0244
 1006MOL0     C38727   4.216   5.267  11.336  0.4729  0.7952 -0.1245
 1006MOL0     C38728   4.278   5.371  11.428 -0.1555 -0.7766 -0.4711
 1006MOL0     C38729   4.432   5.350  11.432 -0.4976  0.6237 -0.2163
 1006MOL0     C38730   4.502   5.449  11.533 -0.0980 -0.1940  0.8601
 1006MOL0     C38731   4.651   5.446  11.527 -0.1352 -0.4939 -0.6428
 1006MOL0     C38732   4.727   5.515  11.646  1.1651  0.7940 -0.1413
 1006MOL0     C38733   4.861   5.454  11.640 -0.2343 -0.4443 -0.7743
 1006MOL0     C38734   4.948   5.475  11.765 -0.3854  0.1811 -0.4407
 1006MOL0    Cl38735   4.877   5.415  11.921 -0.0726 -0.0875  0.2542
 1006MOL0     C38736   3.976   5.066  11.339 -0.3771 -0.5479  0.9427
 1006MOL0     C38737   3.907   4.972  11.278  0.4813 -0.7817  0.7943
 1006MOL0     O38738   3.957   4.767  11.044 -0.2952 -0.3743  0.5513
 1006MOL0     C38739   3.814   4.585  10.887 -0.4555 -0.1131 -0.4150
 1006MOL0     C38740   3.741   4.475  10.846 -0.1907 -0.0439  0.0920
 1006MOL0     N38741   3.014   3.990  10.798  0.2213 -0.2967 -0.5099
 1006MOL0     N38742   2.895   3.932  10.800  0.7060  0.3206  0.3389
 1006MOL0     C38743   2.272   2.969  10.637  0.0455 -0.0499  0.5797
 1006MOL0     C38744   2.140   2.981  10.591 -0.7069 -0.2599 -0.0706
 1006MOL0     C38745   1.689   2.838  10.535  0.9345  0.1419  0.5129
 1006MOL0     C38746   1.618   2.730  10.476  0.5704 -0.1512  0.6771
 1006MOL0     C38747   1.480   2.741  10.443  0.5274  0.0102  0.4401
 1006MOL0     C38748   1.418   2.869  10.446 -1.1239  0.1310 -0.2997
 1006MOL0     O38749   1.281   2.870  10.408 -0.5097  0.1487 -0.4146
 1006MOL0     C38750   1.196   2.981  10.438  0.0303  0.0961  0.4158
 1006MOL0     C38751   1.147   2.975  10.582  0.3867  0.6719 -0.0115
 1006MOL0     C38752   1.033   2.874  10.602 -1.1270  0.2582  0.3156
 1006MOL0     C38753   1.031   2.806  10.733 -0.1083 -0.2237 -0.1046
 1006MOL0     C38754   0.918   2.711  10.749  1.2439  0.1519  0.6878
 1006MOL0     C38755   0.828   2.631  10.762  0.0708  0.7850  1.0682
 1006MOL0     C38756   1.485   2.983  10.498  0.4573  0.1112  0.4716
 1006MOL0     C38757   1.617   2.964  10.548  0.3569 -0.1101  0.3601
 1006MOL0     C38758   1.670   3.091  10.609  0.5601  0.2162 -0.0291
 1006MOL0     H38759   1.984   2.816  10.841 -0.6598  3.7749  0.0651
 1006MOL0     H38760   2.227   2.764  10.899 -0.4778 -0.8312  0.1800
 1006MOL0     H38761   2.437   3.096  10.778 -0.8764  0.0062  0.5468
 1006MOL0     H38762   2.590   3.000  10.786 -0.5900 -0.4826 -0.6499
 1006MOL0     H38763   2.393   3.087  11.006 -1.1281 -1.0752 -0.9176
 1006MOL0     H38764   2.531   2.974  11.033 -1.4469 -1.3851 -0.2784
 1006MOL0     H38765   2.601   3.207  11.084  0.2766 -2.4077  0.3631
 1006MOL0     H38766   2.700   3.144  10.969  0.2490  3.4413  3.9146
 1006MOL0     H38767   2.557   3.279  10.790  1.3022  1.9834 -0.1445
 1006MOL0     H38768   2.489   3.358  10.940 -0.2771 -0.8443  1.3682
 1006MOL0     H38769   2.766   3.357  10.832 -0.8448 -2.6635  0.8016
 1006MOL0     H38770   2.745   3.382  10.995  1.3381 -1.0080 -1.3040
 1006MOL0     H38771   2.637   3.573  10.780  1.0212 -0.2974 -0.9527
 1006MOL0     H38772   2.585   3.578  10.950 -0.8795  0.9606  0.5893
 1006MOL0     H38773   2.863   3.632  10.846 -0.3911 -1.9670 -0.7156
 1006MOL0     H38774   2.834   3.599  11.020 -0.2920  1.5479  0.4594
 1006MOL0     H38775   2.681   3.804  10.874 -0.5013 -0.5254 -0.5608
 1006MOL0     H38776   2.732   3.786  11.046  0.8389  0.4681  0.0292
 1006MOL0     H38777   3.017   3.847  11.091  2.2330  0.0901 -0.1869
 1006MOL0     H38778   3.268   3.962  10.864 -2.9995 -0.0757 -2.5004
 1006MOL0     H38779   3.251   3.993  11.042 -0.0604 -2.2228 -0.7568
 1006MOL0     H38780   3.196   4.159  10.792 -0.9976 -0.8506  1.2274
 1006MOL0     H38781   3.164   4.220  10.960  0.0921  0.4718 -0.0847
 1006MOL0     H38782   3.389   4.235  11.017 -1.1893  0.8618  0.3364
 1006MOL0     H38783   3.442   4.124  10.891  0.3855  1.5561 -1.0930
 1006MOL0     H38784   3.409   4.287  10.716  2.9796 -0.8671 -1.1678
 1006MOL0     H38785   3.354   4.405  10.842  0.0326 -0.7551  1.3750
 1006MOL0     H38786   3.439   4.553  10.972  0.6750 -2.2413 -0.1655
 1006MOL0     H38787   3.496   4.847  11.037  1.5765  1.7457  0.5474
 1006MOL0     H38788   3.592   4.800  11.176  1.3311 -2.2427 -0.6370
 1006MOL0     H38789   3.452   4.716  11.141 -1.2314  1.1427 -0.6152
 1006MOL0     H38790   3.838   5.143  10.991 -1.0905 -0.1860  0.5373
 1006MOL0     H38791   3.952   5.328  11.149 -1.3744 -0.1216  0.2381
 1006MOL0     H38792   4.250   5.166  11.360 -1.3814  0.1216 -0.1554
 1006MOL0     H38793   4.239   5.284  11.231  1.7891  0.9653  0.1844
 1006MOL0     H38794   4.272   5.476  11.401  0.4434 -0.9088 -1.1532
 1006MOL0     H38795   4.224   5.359  11.522 -0.7128 -2.8935 -0.9895
 1006MOL0     H38796   4.485   5.363  11.337  2.2985 -3.9929  0.4178
 1006MOL0     H38797   4.437   5.250  11.475  0.3963  0.5696 -0.4231
 1006MOL0     H38798   4.459   5.420  11.629  0.8358 -0.7252  1.1257
 1006MOL0     H38799   4.483   5.551  11.498 -2.8382 -0.9769 -0.2423
 1006MOL0     H38800   4.690   5.344  11.524  3.3589  0.7219 -2.0534
 1006MOL0     H38801   4.668   5.496  11.431 -3.4080  2.1887 -0.0286
 1006MOL0     H38802   4.677   5.490  11.740 -0.9194 -0.0919 -1.4045
 1006MOL0     H38803   4.737   5.624  11.647 -0.4054  0.9683 -0.1707
 1006MOL0     H38804   4.916   5.495  11.554 -1.1070 -1.7532 -2.0138
 1006MOL0     H38805   4.844   5.346  11.641 -0.1996 -0.4444 -0.2354
 1006MOL0     H38806   4.969   5.581  11.780 -0.3440  0.4610 -2.2339
 1006MOL0     H38807   5.044   5.424  11.756 -0.1516  0.3557  0.8796
 1006MOL0     H38808   4.011   5.037  11.438 -0.2319  0.7180  1.2791
 1006MOL0     H38809   3.874   4.877  11.319 -2.1656  0.2325  1.2368
 1006MOL0     H38810   3.920   4.583  10.864 -0.6044  1.1384 -1.3135
 1006MOL0     H38811   3.788   4.390  10.797  1.4429  1.2384 -0.6739
 1006MOL0     H38812   2.357   3.008  10.582 -0.6910  3.2393  1.5554
 1006MOL0     H38813   2.129   3.044  10.503  0.8826  1.9064  1.1897
 1006MOL0     H38814   1.672   2.638  10.455  3.6352  1.0723  2.6485
 1006MOL0     H38815   1.411   2.660  10.422  0.2666 -0.3050  2.3233
 1006MOL0     H38816   1.242   3.079  10.422 -1.1164  0.6000  0.1045
 1006MOL0     H38817   1.117   2.988  10.364  0.2106  0.8243  0.2811
 1006MOL0     H38818   1.114   3.073  10.620  2.3085  0.5121  2.3209
 1006MOL0     H38819   1.231   2.950  10.648  0.3103  0.8224  0.1448
 1006MOL0     H38820   0.940   2.925  10.573 -0.9291 -1.0542 -3.0170
 1006MOL0     H38821   1.045   2.795  10.528 -0.5556 -1.0917  1.8113
 1006MOL0     H38822   1.007   2.880  10.809 -1.3796  0.1639 -0.8657
 1006MOL0     H38823   1.126   2.755  10.755  0.3272  0.9140  0.7218
 1006MOL0     H38824   0.762   2.547  10.771  1.0162 -0.3138 -1.2733
 1006MOL0     H38825   1.446   3.084  10.507 -0.5856 -0.3028  0.8188
 1006MOL0     H38826   1.597   3.172  10.621 -0.8396 -1.2923  2.3266
 1006MOL0     H38827   1.686   3.087  10.717  0.2522  1.9685  0.1168
 1006MOL0     H38828   1.762   3.132  10.565 -0.5415  3.3131  0.2838
 1007MOL0     O38829   9.255   7.161   4.910 -0.2355 -0.0785  0.0828
 1007MOL0     C38830   9.331   7.158   5.003  0.1085  0.3233  1.1382
 1007MOL0     O38831   9.296   7.177   5.133 -0.0155  0.0779 -0.2583
 1007MOL0     C38832   9.158   7.205   5.157 -0.1471  0.6377 -0.0096
 1007MOL0     C38833   9.136   7.328   5.219  0.5043  0.1154  0.0987
 1007MOL0     C38834   9.001   7.363   5.253 -0.5457 -0.2337 -0.4869
 1007MOL0     C38835   8.897   7.268   5.234 -0.9335  0.3246 -1.3038
 1007MOL0     O38836   8.769   7.278   5.262  0.5253 -0.9506 -0.6058
 1007MOL0     C38837   8.737   7.408   5.308  0.4157 -0.8984  0.0472
 1007MOL0     C38838   8.589   7.414   5.332  0.0560  0.0973  0.4556
 1007MOL0     C38839   8.543   7.333   5.451  0.3007  0.7176 -0.1501
 1007MOL0     C38840   8.435   7.399   5.525  1.1289  1.1266 -0.2973
 1007MOL0     C38841   8.301   7.380   5.447  0.3903 -0.4472  0.4173
 1007MOL0     C38842   8.172   7.452   5.516 -0.6418  0.5135  1.2145
 1007MOL0     C38843   8.052   7.428   5.425  0.2906 -0.0372 -0.1010
 1007MOL0     C38844   7.933   7.501   5.491  0.2898 -0.4827  0.1244
 1007MOL0     N38845   7.850   7.421   5.580  0.7773  0.8403  0.3733
 1007MOL0     C38846   7.802   7.288   5.546  0.6813 -0.0835 -0.0314
 1007MOL0     C38847   7.744   7.235   5.670  0.5425 -0.1934  0.2172
 1007MOL0     C38848   7.685   7.099   5.704 -0.0199  0.8863 -0.5174
 1007MOL0     C38849   7.741   6.999   5.611  0.1078  0.0608  0.1341
 1007MOL0     C38850   7.707   6.857   5.668  0.6960  0.4773  1.5291
 1007MOL0     C38851   7.787   6.747   5.582 -0.4471  0.7077 -0.3165
 1007MOL0     O38852   7.755   6.615   5.621 -0.3883 -0.0789  0.1449
 1007MOL0     C38853   7.832   6.510   5.568  0.1467  0.4736  0.2426
 1007MOL0     C38854   7.825   6.378   5.625 -0.2791  0.1620 -0.2805
 1007MOL0     C38855   7.901   6.270   5.591  0.5191 -0.4517 -0.3526
 1007MOL0     C38856   7.865   6.138   5.659 -0.7076 -0.0538 -0.3761
 1007MOL0     C38857   7.998   6.285   5.493  0.4787 -0.2770  0.2800
 1007MOL0     C38858   8.080   6.178   5.437 -0.3808 -0.0351 -0.4005
 1007MOL0     O38859   8.107   6.194   5.297 -0.4507 -0.1952  0.0898
 1007MOL0     C38860   8.205   6.118   5.244  0.3843  0.5534  0.1650
 1007MOL0     C38861   8.178   5.983   5.221 -0.4072 -0.3807  0.0797
 1007MOL0     C38862   8.280   5.899   5.172  1.2959 -0.2106 -0.3768
 1007MOL0     C38863   8.403   5.956   5.140  0.5979  0.0308  0.8109
 1007MOL0     O38864   8.508   5.876   5.094  0.8292 -1.0439 -0.3744
 1007MOL0     C38865   8.474   5.745   5.043  0.2787  0.2673  0.7844
 1007MOL0     C38866   8.606   5.680   5.003 -0.3278  0.2865 -0.2752
 1007MOL0     C38867   8.685   5.770   4.909  0.4185 -0.2009 -0.2316
 1007MOL0     C38868   8.786   5.697   4.827  0.3702  0.2116 -0.6139
 1007MOL0     C38869   8.831   5.788   4.709 -0.2251  0.0970  0.6986
 1007MOL0     C38870   8.946   5.717   4.623 -0.5518  0.2104  0.2758
 1007MOL0     C38871   8.989   5.782   4.490 -0.2627 -0.2319 -0.3474
 1007MOL0     C38872   9.131   5.731   4.453 -0.6289 -0.6203  0.0399
 1007MOL0    Cl38873   9.197   5.821   4.319 -0.1227  0.3555  0.0194
 1007MOL0     C38874   8.422   6.098   5.158 -0.4341 -0.3336 -0.0368
 1007MOL0     C38875   8.327   6.181   5.211  0.7534 -0.6884 -0.1202
 1007MOL0     O38876   8.142   6.097   5.509  0.3294 -0.7177 -0.3162
 1007MOL0     C38877   8.003   6.413   5.429 -0.9813 -0.0056 -0.4984
 1007MOL0     C38878   7.918   6.522   5.460 -0.0529  0.0828 -0.2647
 1007MOL0     N38879   7.762   7.332   5.760  0.8840 -0.5742  0.9256
 1007MOL0     N38880   7.822   7.438   5.717  0.4836 -0.4786 -0.3172
 1007MOL0     C38881   8.930   7.147   5.173 -0.8735 -0.0204  0.1613
 1007MOL0     C38882   9.063   7.113   5.137  0.7909 -0.0409 -0.1976
 1007MOL0     C38883   9.474   7.122   4.977 -0.3017 -0.5727  0.0209
 1007MOL0     C38884   9.559   7.118   5.087  0.2461 -1.0778  0.2614
 1007MOL0     C38885   9.693   7.075   5.073 -0.8089  0.8140  0.9980
 1007MOL0     C38886   9.753   7.066   4.950 -0.3755  0.7946  0.6633
 1007MOL0     O38887   9.891   7.043   4.954 -0.0117 -0.4508  0.3437
 1007MOL0     C38888   9.965   7.060   4.834 -0.3090  0.4398 -0.3151
 1007MOL0     C38889  10.111   7.089   4.868  0.5505 -0.0652 -0.0921
 1007MOL0     C38890  10.163   6.977   4.960  1.1892 -0.4310 -0.6888
 1007MOL0     C38891  10.310   6.997   4.983  0.2528 -0.3746  0.2383
 1007MOL0     C38892  10.349   6.873   5.051 -0.6365 -0.6523  0.3436
 1007MOL0     C38893  10.386   6.778   5.110 -0.5379  0.4995  0.8736
 1007MOL0     C38894   9.665   7.069   4.838 -0.1110 -0.0974  0.5151
 1007MOL0     C38895   9.523   7.087   4.843  0.2877 -0.1059 -0.4370
 1007MOL0     C38896   9.447   7.077   4.708  0.1369 -0.5811  0.8215
 1007MOL0     H38897   9.213   7.403   5.231  1.6802 -0.5214 -2.6859
 1007MOL0     H38898   8.980   7.455   5.305 -3.7427 -1.0308 -0.1308
 1007MOL0     H38899   8.765   7.487   5.238  1.4784  0.0334  1.4618
 1007MOL0     H38900   8.785   7.409   5.406  0.3962  0.4991  0.0593
 1007MOL0     H38901   8.568   7.520   5.346  0.5879  0.7795 -2.9430
 1007MOL0     H38902   8.534   7.383   5.242 -0.4295 -0.8133  1.0468
 1007MOL0     H38903   8.517   7.233   5.415  1.5360  0.0631  0.7112
 1007MOL0     H38904   8.628   7.304   5.513  0.5832  0.9972 -0.4010
 1007MOL0     H38905   8.428   7.343   5.618  0.0918  2.1687  0.2842
 1007MOL0     H38906   8.449   7.503   5.555  0.5150  1.2948 -0.5624
 1007MOL0     H38907   8.284   7.274   5.422  2.3513 -0.3450 -1.7966
 1007MOL0     H38908   8.308   7.412   5.342  0.9184 -1.7429  0.0289
 1007MOL0     H38909   8.158   7.404   5.613  3.4223 -1.8652  0.8768
 1007MOL0     H38910   8.193   7.557   5.536  0.8819  0.9472 -1.9269
 1007MOL0     H38911   8.042   7.321   5.408 -0.4458 -0.1604  1.0346
 1007MOL0     H38912   8.063   7.485   5.331 -3.6044  1.3631  0.1017
 1007MOL0     H38913   7.961   7.593   5.542  2.2025 -0.0724 -1.5483
 1007MOL0     H38914   7.870   7.536   5.409  0.9474 -2.3124 -1.2367
 1007MOL0     H38915   7.807   7.249   5.445 -0.2406  0.2935 -0.2314
 1007MOL0     H38916   7.576   7.097   5.693 -0.1409  0.5643  0.6806
 1007MOL0     H38917   7.715   7.079   5.807  0.3956  2.6502 -0.2525
 1007MOL0     H38918   7.707   7.020   5.509  0.5124  1.4867  0.2829
 1007MOL0     H38919   7.851   7.000   5.613  0.1208 -0.4508  0.0327
 1007MOL0     H38920   7.728   6.843   5.774  1.0506  2.5027  1.7690
 1007MOL0     H38921   7.599   6.842   5.660  0.5764  1.7320  0.4482
 1007MOL0     H38922   7.764   6.770   5.478 -1.8858  1.3555  0.1271
 1007MOL0     H38923   7.894   6.767   5.596 -0.4267  0.0189  0.6752
 1007MOL0     H38924   7.759   6.372   5.711  1.7979  0.9197  1.4436
 1007MOL0     H38925   7.798   6.145   5.744 -0.2302 -2.2883  0.2566
 1007MOL0     H38926   7.958   6.104   5.705 -0.4157  1.0080 -0.1398
 1007MOL0     H38927   7.821   6.059   5.597  0.1183 -1.7565  1.1127
 1007MOL0     H38928   8.085   5.937   5.252 -0.6483  0.7527  1.1151
 1007MOL0     H38929   8.261   5.793   5.158 -2.2632  0.4070 -1.2298
 1007MOL0     H38930   8.430   5.686   5.124  5.1779 -1.6337  2.4350
 1007MOL0     H38931   8.400   5.738   4.962  1.6801  0.7779 -0.5806
 1007MOL0     H38932   8.663   5.673   5.096  1.4932  3.1752 -1.0523
 1007MOL0     H38933   8.593   5.585   4.950  4.5161  1.4642 -4.3730
 1007MOL0     H38934   8.725   5.849   4.973 -3.5086  1.2668  0.7496
 1007MOL0     H38935   8.612   5.814   4.840 -0.6324 -0.9040  0.3913
 1007MOL0     H38936   8.751   5.603   4.784 -1.3134 -0.7157  2.5087
 1007MOL0     H38937   8.868   5.660   4.890 -0.6618  0.5336  0.9713
 1007MOL0     H38938   8.746   5.804   4.642  0.0558 -0.9932  0.0525
 1007MOL0     H38939   8.869   5.886   4.741  0.5714  0.2238 -0.5556
 1007MOL0     H38940   8.914   5.612   4.613 -3.6204  0.3573  5.0746
 1007MOL0     H38941   9.032   5.727   4.690 -0.6292  0.6037  0.3154
 1007MOL0     H38942   9.002   5.891   4.495  3.6351 -0.5522 -0.4578
 1007MOL0     H38943   8.907   5.759   4.421 -0.7831 -1.2687  0.5801
 1007MOL0     H38944   9.133   5.623   4.435 -0.5062 -0.8895  1.5885
 1007MOL0     H38945   9.195   5.754   4.538 -1.6974  2.2165  0.2016
 1007MOL0     H38946   8.516   6.140   5.125 -0.4140  1.9563  2.5365
 1007MOL0     H38947   8.352   6.286   5.223 -1.5059  0.2582 -2.6754
 1007MOL0     H38948   8.070   6.423   5.344  2.8622  1.2477  2.3707
 1007MOL0     H38949   7.935   6.617   5.411 -0.5934 -0.2237 -1.0663
 1007MOL0     H38950   8.859   7.065   5.173  0.1921 -1.0921  3.4819
 1007MOL0     H38951   9.088   7.016   5.094  3.1440  0.6952 -0.6311
 1007MOL0     H38952   9.523   7.146   5.186  0.6322 -2.6775  0.8864
 1007MOL0     H38953   9.753   7.058   5.162  2.3418 -0.5379 -1.1819
 1007MOL0     H38954   9.948   6.975   4.768 -0.2308  2.5682 -3.2768
 1007MOL0     H38955   9.919   7.133   4.768  1.7744  0.2097 -2.1146
 1007MOL0     H38956  10.132   7.185   4.917  1.7617 -0.3368 -0.0466
 1007MOL0     H38957  10.165   7.088   4.774  2.0597 -2.2348  0.7207
 1007MOL0     H38958  10.101   6.969   5.050  1.1801  1.1767 -0.5133
 1007MOL0     H38959  10.154   6.884   4.904  1.0012 -0.2599 -0.9412
 1007MOL0     H38960  10.336   7.079   5.050  2.1743 -1.5329  1.0117
 1007MOL0     H38961  10.368   6.998   4.890  0.8450  1.2296  0.5842
 1007MOL0     H38962  10.411   6.693   5.171  0.3146  2.1689  2.9888
 1007MOL0     H38963   9.710   7.063   4.739 -2.2267 -3.9540 -0.4057
 1007MOL0     H38964   9.384   7.166   4.703  2.4635  1.4699  4.2316
 1007MOL0     H38965   9.514   7.085   4.621 -0.8572 -0.7742  0.0192
 1007MOL0     H38966   9.396   6.982   4.691 -0.6065  0.2166 -2.0978
 1008MOL0     O38967   8.141  10.604   6.857 -0.4888 -0.4515 -0.8399
 1008MOL0     C38968   8.229  10.519   6.863 -0.0082 -0.1767  0.0805
 1008MOL0     O38969   8.251  10.430   6.953  0.0012  0.0523 -0.1325
 1008MOL0     C38970   8.137  10.397   7.025  0.0866  0.3725  0.1972
 1008MOL0     C38971   8.116  10.433   7.156 -0.4787  0.5113 -0.1448
 1008MOL0     C38972   8.000  10.395   7.225  0.7857 -0.1248 -0.0212
 1008MOL0     C38973   7.898  10.315   7.164 -0.2569  0.2419 -0.0938
 1008MOL0     O38974   7.778  10.277   7.224  0.7586 -0.1720 -0.8314
 1008MOL0     C38975   7.697  10.163   7.198  0.3711 -0.0571 -0.8158
 1008MOL0     C38976   7.587  10.145   7.303  0.8393  0.2120 -0.5968
 1008MOL0     C38977   7.518  10.276   7.345  0.9242 -0.8240 -0.4535
 1008MOL0     C38978   7.367  10.258   7.356 -0.0704  0.2311  0.8886
 1008MOL0     C38979   7.296  10.264   7.227 -0.0962  0.4699  0.1227
 1008MOL0     C38980   7.155  10.304   7.243 -0.3880 -0.5060 -0.3763
 1008MOL0     C38981   7.076  10.281   7.108  0.4016  0.2971  0.1305
 1008MOL0     C38982   6.928  10.336   7.107 -0.3869 -0.1750  0.0991
 1008MOL0     N38983   6.869  10.343   6.969 -0.4845  0.8109 -0.4157
 1008MOL0     C38984   6.751  10.407   6.936 -0.3913 -0.2053  0.4866
 1008MOL0     C38985   6.712  10.364   6.817  0.1020  0.3897 -0.3350
 1008MOL0     C38986   6.592  10.413   6.749  1.2773 -1.0436  0.0699
 1008MOL0     C38987   6.467  10.349   6.816 -0.2577 -0.1257 -0.1356
 1008MOL0     C38988   6.465  10.192   6.801  0.1106  0.0900  0.3101
 1008MOL0     C38989   6.543  10.119   6.913  0.2309  0.9063  0.2372
 1008MOL0     O38990   6.470  10.131   7.045 -0.2207 -0.1433 -0.1232
 1008MOL0     C38991   6.536  10.085   7.151 -0.0617  0.2641 -0.2137
 1008MOL0     C38992   6.555   9.948   7.176  0.4644  0.5469 -0.2497
 1008MOL0     C38993   6.621   9.900   7.290 -0.8396 -0.0331  1.2553
 1008MOL0     C38994   6.620   9.745   7.302  0.5230 -0.8704 -0.6934
 1008MOL0     C38995   6.697   9.994   7.363  0.1690  0.4935  0.2061
 1008MOL0     C38996   6.782   9.955   7.479 -0.4627 -0.4716 -0.0867
 1008MOL0     O38997   6.731   9.861   7.559  0.4537 -0.1290  0.1195
 1008MOL0     C38998   6.805   9.792   7.649 -0.1803  0.3810  0.4181
 1008MOL0     C38999   6.918   9.715   7.615 -0.2863  0.2834 -0.0410
 1008MOL0     C39000   6.982   9.642   7.712 -0.6875 -0.6256  0.2452
 1008MOL0     C39001   6.934   9.641   7.844 -0.7679 -0.1161 -0.5734
 1008MOL0     O39002   6.987   9.550   7.933  0.4567  0.3017  0.2589
 1008MOL0     C39003   6.925   9.531   8.061  0.2778  0.5419 -0.1174
 1008MOL0     C39004   6.996   9.424   8.148 -0.0648 -0.9673  0.8420
 1008MOL0     C39005   7.144   9.458   8.164 -0.0033 -0.8615  0.1137
 1008MOL0     C39006   7.201   9.342   8.242  0.0220  0.1208 -0.1990
 1008MOL0     C39007   7.350   9.328   8.257 -0.2242 -0.2870 -0.2742
 1008MOL0     C39008   7.389   9.200   8.346 -0.2470  0.0337 -0.3014
 1008MOL0     C39009   7.534   9.207   8.393 -0.8237 -0.3496 -1.1180
 1008MOL0     C39010   7.566   9.095   8.491 -0.4838 -0.9042  0.7157
 1008MOL0    Cl39011   7.735   9.115   8.555 -0.2363 -0.4684  0.0893
 1008MOL0     C39012   6.822   9.718   7.876 -0.1272 -0.0857  0.1468
 1008MOL0     C39013   6.765   9.797   7.783 -0.0371  0.1470  0.8102
 1008MOL0     O39014   6.882  10.033   7.503  1.0039 -0.3762 -0.1399
 1008MOL0     C39015   6.689  10.132   7.331 -0.5569 -0.2944  0.2009
 1008MOL0     C39016   6.607  10.173   7.227  0.1395 -0.0668 -0.1805
 1008MOL0     N39017   6.816  10.286   6.777 -0.5912  0.2339 -0.1166
 1008MOL0     N39018   6.904  10.266   6.861 -0.1783  0.4086 -0.1230
 1008MOL0     C39019   7.916  10.278   7.032 -0.3474 -0.1890 -0.1142
 1008MOL0     C39020   8.035  10.317   6.967 -0.5241 -0.3800  0.3335
 1008MOL0     C39021   8.343  10.533   6.759 -0.3053  0.5169 -0.1549
 1008MOL0     C39022   8.395  10.408   6.717 -0.7659  0.6949 -0.5322
 1008MOL0     C39023   8.484  10.403   6.609 -1.1826 -0.7116 -0.1970
 1008MOL0     C39024   8.525  10.516   6.545  0.2216  0.3665  0.4507
 1008MOL0     O39025   8.598  10.493   6.432  0.5878  0.0677 -0.5778
 1008MOL0     C39026   8.699  10.588   6.414 -0.1326 -1.1083 -0.0606
 1008MOL0     C39027   8.789  10.554   6.294 -0.3231 -0.1053 -0.4271
 1008MOL0     C39028   8.711  10.588   6.164  0.4188  0.0015 -0.4303
 1008MOL0     C39029   8.800  10.585   6.050  0.1015  0.0107 -0.0224
 1008MOL0     C39030   8.713  10.582   5.928 -0.6503 -0.8932  0.0763
 1008MOL0     C39031   8.630  10.576   5.835 -0.2345 -0.4631 -0.5329
 1008MOL0     C39032   8.466  10.645   6.585  0.1747 -0.5015 -0.0153
 1008MOL0     C39033   8.378  10.657   6.697 -0.6005  0.6980 -0.8653
 1008MOL0     C39034   8.327  10.791   6.736  0.2971 -0.2338 -0.8599
 1008MOL0     H39035   8.194  10.487   7.209  0.8601 -0.0377 -1.4931
 1008MOL0     H39036   7.992  10.414   7.331  0.4337  0.8006 -0.2041
 1008MOL0     H39037   7.757  10.072   7.189  0.5150 -0.5429  3.2880
 1008MOL0     H39038   7.639  10.186   7.107 -0.0398  2.9238  0.1055
 1008MOL0     H39039   7.512  10.076   7.263 -2.9029  0.9965  4.1259
 1008MOL0     H39040   7.623  10.105   7.399  1.1681  4.6697  1.4061
 1008MOL0     H39041   7.550  10.312   7.444 -0.4402  0.9329 -0.6047
 1008MOL0     H39042   7.539  10.355   7.273  1.0732 -1.5057 -1.1732
 1008MOL0     H39043   7.343  10.174   7.421  0.2623  1.1598  2.2378
 1008MOL0     H39044   7.323  10.338   7.416 -2.5428 -0.3984  0.0558
 1008MOL0     H39045   7.299  10.173   7.166 -1.9368  2.3349 -3.0652
 1008MOL0     H39046   7.356  10.329   7.163  0.4766  0.7852  0.9609
 1008MOL0     H39047   7.115  10.246   7.328  3.2898 -0.6120  1.5007
 1008MOL0     H39048   7.145  10.408   7.275 -0.4467 -0.6424  0.0696
 1008MOL0     H39049   7.057  10.174   7.095 -1.7108  0.4859  1.2104
 1008MOL0     H39050   7.137  10.323   7.028  0.5813 -0.3551 -0.0765
 1008MOL0     H39051   6.863  10.274   7.170 -2.8106 -0.3133 -2.3236
 1008MOL0     H39052   6.926  10.435   7.154 -3.1010 -0.2077  0.2339
 1008MOL0     H39053   6.704  10.481   6.999 -0.8150 -0.3023  0.2881
 1008MOL0     H39054   6.593  10.383   6.644  1.4314 -1.5646  0.2138
 1008MOL0     H39055   6.587  10.521   6.768 -0.9696 -1.6418  4.0077
 1008MOL0     H39056   6.455  10.373   6.922 -1.7583 -1.7116  0.1190
 1008MOL0     H39057   6.374  10.383   6.770 -0.4208  0.6701  0.7614
 1008MOL0     H39058   6.363  10.153   6.794  1.1194 -2.5081 -1.6708
 1008MOL0     H39059   6.505  10.155   6.705 -2.0070 -1.2983 -0.1047
 1008MOL0     H39060   6.564  10.014   6.892 -1.3081  0.5296  0.4627
 1008MOL0     H39061   6.644  10.159   6.926  0.5290  0.1740  0.1938
 1008MOL0     H39062   6.520   9.873   7.105 -2.8359  0.5515  1.2112
 1008MOL0     H39063   6.717   9.696   7.314  0.8828 -0.0750 -0.2271
 1008MOL0     H39064   6.560   9.701   7.222  0.7072 -3.2805  0.3973
 1008MOL0     H39065   6.565   9.731   7.396  2.4568  3.1083  1.3021
 1008MOL0     H39066   6.953   9.712   7.512 -0.1003  0.2946  0.0226
 1008MOL0     H39067   7.058   9.570   7.684 -0.4278  0.7818 -3.1964
 1008MOL0     H39068   6.932   9.633   8.101 -1.8678  1.8489 -2.7133
 1008MOL0     H39069   6.817   9.512   8.064  0.3696  0.1900  1.0943
 1008MOL0     H39070   6.956   9.409   8.248  1.8276 -4.7436  1.1788
 1008MOL0     H39071   6.972   9.332   8.094 -1.2245 -2.0893  3.1439
 1008MOL0     H39072   7.164   9.550   8.218 -1.4009 -0.6448  0.3091
 1008MOL0     H39073   7.191   9.460   8.065 -1.6993 -0.0026 -0.7190
 1008MOL0     H39074   7.177   9.253   8.183  2.6054 -1.0907  0.4760
 1008MOL0     H39075   7.156   9.332   8.341  0.7786 -3.5054 -0.1059
 1008MOL0     H39076   7.406   9.320   8.163  1.7044  0.2129  0.7880
 1008MOL0     H39077   7.379   9.418   8.312 -4.8279  0.3460  1.5918
 1008MOL0     H39078   7.378   9.108   8.288  1.3481  0.8698 -2.0370
 1008MOL0     H39079   7.319   9.201   8.430 -3.5455 -0.1678 -2.8362
 1008MOL0     H39080   7.548   9.298   8.453 -1.0598 -1.2909  0.4283
 1008MOL0     H39081   7.600   9.209   8.306  0.6428  2.6204 -0.1022
 1008MOL0     H39082   7.559   9.008   8.425 -1.4597  0.4247 -1.0140
 1008MOL0     H39083   7.501   9.099   8.579 -1.3998  2.2720  0.0152
 1008MOL0     H39084   6.766   9.717   7.968 -1.0848  1.7599 -0.3652
 1008MOL0     H39085   6.694   9.870   7.821 -0.6108 -0.9072  1.8435
 1008MOL0     H39086   6.741  10.207   7.389 -2.3707  0.2017  1.2823
 1008MOL0     H39087   6.598  10.271   7.181 -1.3228  0.5048  1.2004
 1008MOL0     H39088   7.834  10.225   6.984 -1.4128  1.0065  0.3021
 1008MOL0     H39089   8.034  10.289   6.862 -1.6788  1.0763 -0.0847
 1008MOL0     H39090   8.366  10.314   6.762  1.0530 -1.1877 -3.0605
 1008MOL0     H39091   8.526  10.308   6.576 -1.6321 -0.9908  0.0335
 1008MOL0     H39092   8.671  10.693   6.396  2.8235 -0.1861  0.1621
 1008MOL0     H39093   8.753  10.591   6.509  1.5544  0.1903 -0.9954
 1008MOL0     H39094   8.808  10.447   6.287 -1.4744 -0.2685 -1.4424
 1008MOL0     H39095   8.883  10.609   6.308  2.2954 -3.5747 -2.6616
 1008MOL0     H39096   8.622  10.523   6.164 -0.9804  1.8311 -1.3320
 1008MOL0     H39097   8.679  10.691   6.177  0.7845  0.0643 -0.0315
 1008MOL0     H39098   8.868  10.500   6.062 -0.9530 -0.5986  2.1326
 1008MOL0     H39099   8.863  10.674   6.045 -0.6528  0.5601  0.0728
 1008MOL0     H39100   8.565  10.582   5.750 -1.1105 -1.2050  0.0589
 1008MOL0     H39101   8.503  10.735   6.538  2.9132 -1.0211  0.9151
 1008MOL0     H39102   8.231  10.803   6.685  0.3484 -2.0002 -1.4454
 1008MOL0     H39103   8.319  10.798   6.845 -2.7362  0.1644 -1.0293
 1008MOL0     H39104   8.389  10.876   6.706 -0.7572  0.0525 -2.3475
 1009MOL0     O39105   1.377   5.085   1.615  0.4421  0.0078  0.5244
 1009MOL0     C39106   1.287   5.002   1.568  0.1234  0.8223  0.2571
 1009MOL0     O39107   1.313   4.885   1.514  0.0418  0.2971 -0.0824
 1009MOL0     C39108   1.441   4.840   1.517  0.8246  0.6620 -0.5722
 1009MOL0     C39109   1.482   4.737   1.599  0.3831  1.3261  0.2820
 1009MOL0     C39110   1.605   4.691   1.621  0.6530 -0.2304 -0.0764
 1009MOL0     C39111   1.710   4.765   1.572 -0.4796 -0.8241  0.1766
 1009MOL0     O39112   1.829   4.721   1.618 -0.1876  0.1787  1.2201
 1009MOL0     C39113   1.934   4.827   1.607  0.9405  0.4225  0.5059
 1009MOL0     C39114   2.068   4.758   1.663  0.8499  0.3207 -0.8147
 1009MOL0     C39115   2.193   4.856   1.632 -0.0359 -0.2689  0.0639
 1009MOL0     C39116   2.183   4.992   1.699 -0.0496  0.3622 -0.0264
 1009MOL0     C39117   2.324   5.054   1.708  0.9343  0.3570  0.7421
 1009MOL0     C39118   2.426   4.972   1.788  0.7731  0.3009  0.2035
 1009MOL0     C39119   2.550   5.052   1.805 -0.6707 -0.3255 -0.5710
 1009MOL0     C39120   2.660   4.967   1.875  0.2686  0.0675  0.8839
 1009MOL0     N39121   2.787   5.043   1.864  0.1497 -0.0776 -0.0503
 1009MOL0     C39122   2.812   5.161   1.927  0.1092  0.2469 -0.2039
 1009MOL0     C39123   2.937   5.169   1.946 -0.3092 -0.3144  0.4499
 1009MOL0     C39124   3.010   5.271   2.022  0.2565 -0.6804  0.5640
 1009MOL0     C39125   3.159   5.281   1.991 -0.6858 -0.4890 -0.6065
 1009MOL0     C39126   3.195   5.420   2.058  0.1061  0.1930 -0.4392
 1009MOL0     C39127   3.347   5.450   2.065  0.1511  0.9759 -1.1706
 1009MOL0     O39128   3.384   5.445   1.931 -0.3980  0.1505  0.4218
 1009MOL0     C39129   3.519   5.454   1.890  0.7549 -0.5752 -0.5339
 1009MOL0     C39130   3.542   5.480   1.757  0.6403 -0.3919  0.1080
 1009MOL0     C39131   3.672   5.482   1.700 -0.5607  0.3846 -0.4099
 1009MOL0     C39132   3.683   5.522   1.559  0.6715 -0.0522  0.2844
 1009MOL0     C39133   3.780   5.461   1.786  0.0045  0.0502  0.9726
 1009MOL0     C39134   3.920   5.493   1.747 -0.6069  0.5634 -0.7953
 1009MOL0     O39135   3.998   5.570   1.834  0.8226 -0.3462 -0.4416
 1009MOL0     C39136   4.137   5.551   1.827  0.1603  0.0521 -0.7502
 1009MOL0     C39137   4.208   5.509   1.933  0.5700  0.5115  0.5043
 1009MOL0     C39138   4.338   5.475   1.927 -0.2632 -0.1737 -0.0894
 1009MOL0     C39139   4.404   5.487   1.807 -0.1847 -0.3472  0.3894
 1009MOL0     O39140   4.531   5.433   1.802 -0.0185  0.4509 -0.4688
 1009MOL0     C39141   4.629   5.500   1.720 -0.5599 -0.4343 -0.3244
 1009MOL0     C39142   4.771   5.436   1.721  0.1205 -0.1130 -0.2428
 1009MOL0     C39143   4.856   5.479   1.608  0.3004 -0.6433 -0.1088
 1009MOL0     C39144   4.964   5.386   1.567 -0.0100 -0.6069  0.0536
 1009MOL0     C39145   5.079   5.376   1.659 -0.2242 -0.1580  0.0726
 1009MOL0     C39146   5.183   5.287   1.590  0.0687  0.1955  0.1377
 1009MOL0     C39147   5.302   5.269   1.688  0.6471 -1.0757  0.3670
 1009MOL0     C39148   5.404   5.382   1.659 -0.5054  0.0276  0.1510
 1009MOL0    Cl39149   5.543   5.367   1.768 -0.2140 -0.1883  0.4519
 1009MOL0     C39150   4.339   5.554   1.694 -0.2277 -0.3116  0.1656
 1009MOL0     C39151   4.197   5.575   1.703 -1.0400 -0.0561 -0.1615
 1009MOL0     O39152   3.960   5.439   1.646 -0.6792 -0.4560 -0.6238
 1009MOL0     C39153   3.757   5.432   1.920 -0.8684  0.7691  1.2126
 1009MOL0     C39154   3.629   5.423   1.970 -0.3465  0.2133 -0.1315
 1009MOL0     N39155   2.996   5.058   1.896 -0.6169 -0.7832 -0.5264
 1009MOL0     N39156   2.906   4.987   1.844  0.3560  0.5554  1.6566
 1009MOL0     C39157   1.677   4.874   1.487 -0.0021  0.5188  0.5669
 1009MOL0     C39158   1.547   4.914   1.457 -0.0616  0.4005  0.0292
 1009MOL0     C39159   1.152   5.053   1.531 -0.1234 -0.1942 -1.0690
 1009MOL0     C39160   1.059   4.968   1.456 -0.1381  0.4261 -1.4775
 1009MOL0     C39161   0.931   5.013   1.427 -0.3147 -0.5689  0.0606
 1009MOL0     C39162   0.892   5.148   1.452 -0.2878 -0.1642  0.5032
 1009MOL0     O39163   0.755   5.173   1.438  0.0469  0.0092 -0.6280
 1009MOL0     C39164   0.717   5.307   1.411 -1.1261  0.0166 -0.8809
 1009MOL0     C39165   0.572   5.316   1.385  0.2450  0.4927  0.5092
 1009MOL0     C39166   0.521   5.455   1.367  0.6945  0.7576 -0.9989
 1009MOL0     C39167   0.574   5.540   1.243 -0.5658  0.2810 -0.5497
 1009MOL0     C39168   0.714   5.590   1.255 -0.6602  0.1118 -0.9886
 1009MOL0     C39169   0.827   5.642   1.281 -0.7347  0.5497 -0.5097
 1009MOL0     C39170   0.978   5.240   1.513  0.1956 -0.0295 -0.7169
 1009MOL0     C39171   1.112   5.191   1.547 -0.0924  0.2876 -0.6150
 1009MOL0     C39172   1.205   5.300   1.598 -0.8424  0.1197 -0.4037
 1009MOL0     H39173   1.401   4.692   1.654  0.4256  0.3209 -0.4356
 1009MOL0     H39174   1.624   4.602   1.681  3.2927 -0.1028 -0.6200
 1009MOL0     H39175   1.909   4.917   1.663  2.3447 -0.3417  2.4647
 1009MOL0     H39176   1.949   4.850   1.501 -2.1210 -0.0436 -0.1126
 1009MOL0     H39177   2.050   4.741   1.769  3.9964 -1.0850 -0.3903
 1009MOL0     H39178   2.077   4.665   1.605 -1.9733  1.2309 -2.9929
 1009MOL0     H39179   2.270   4.796   1.680 -1.4987 -0.8539  1.7763
 1009MOL0     H39180   2.207   4.860   1.524 -1.3202 -1.9988 -0.2116
 1009MOL0     H39181   2.118   5.057   1.638  1.1706  0.0628 -1.7096
 1009MOL0     H39182   2.140   4.978   1.798 -1.3205 -1.0887 -0.7351
 1009MOL0     H39183   2.312   5.153   1.754  0.8246  0.5508  0.3035
 1009MOL0     H39184   2.367   5.066   1.608  1.1498  1.1042  0.9161
 1009MOL0     H39185   2.385   4.944   1.886 -1.0770  2.7653  0.2302
 1009MOL0     H39186   2.453   4.882   1.732  2.8934  0.9176  0.1507
 1009MOL0     H39187   2.521   5.140   1.863 -1.3377 -0.2581 -0.9975
 1009MOL0     H39188   2.582   5.087   1.706  0.8389 -1.4945 -0.5392
 1009MOL0     H39189   2.629   4.948   1.978 -1.5114  0.0756  0.3791
 1009MOL0     H39190   2.662   4.870   1.825 -1.9434  0.1371  0.5933
 1009MOL0     H39191   2.741   5.227   1.975 -1.7583 -0.6897 -1.5319
 1009MOL0     H39192   3.007   5.260   2.131  1.9217 -0.2569  0.6902
 1009MOL0     H39193   2.973   5.371   1.996 -1.4985 -1.6188 -0.6770
 1009MOL0     H39194   3.210   5.198   2.041  0.4346  1.5722  1.8786
 1009MOL0     H39195   3.176   5.279   1.883  0.9837 -1.8341 -0.3596
 1009MOL0     H39196   3.150   5.503   2.004  0.3164  1.7627  1.6597
 1009MOL0     H39197   3.159   5.420   2.161  0.6521  1.6309 -0.2192
 1009MOL0     H39198   3.361   5.546   2.115 -0.8059 -0.1772  1.4858
 1009MOL0     H39199   3.387   5.372   2.130 -0.2133  0.3209 -1.7282
 1009MOL0     H39200   3.459   5.506   1.692  1.1339  0.2627 -0.2800
 1009MOL0     H39201   3.693   5.434   1.494  1.6225  0.1309  0.1598
 1009MOL0     H39202   3.766   5.590   1.539  0.0575  1.0000  1.2434
 1009MOL0     H39203   3.601   5.585   1.526  0.1152  0.0638  1.7906
 1009MOL0     H39204   4.153   5.481   2.023  0.3607  2.0117  0.8712
 1009MOL0     H39205   4.390   5.428   2.010 -2.3165  0.6951  1.8004
 1009MOL0     H39206   4.587   5.489   1.619 -0.0675  2.0147 -0.8699
 1009MOL0     H39207   4.629   5.608   1.742 -0.7277 -0.6612  0.8685
 1009MOL0     H39208   4.823   5.471   1.811 -0.4183  1.9707 -0.6925
 1009MOL0     H39209   4.752   5.329   1.712 -2.2635  0.1843  0.5330
 1009MOL0     H39210   4.898   5.579   1.626  1.0211 -0.7840 -0.9236
 1009MOL0     H39211   4.791   5.510   1.526  0.3232 -1.0166 -0.2662
 1009MOL0     H39212   4.993   5.435   1.474 -0.4681  1.5221  0.9686
 1009MOL0     H39213   4.919   5.290   1.538  0.2045 -0.1697 -1.8435
 1009MOL0     H39214   5.112   5.479   1.672 -0.6673  0.3302 -2.1919
 1009MOL0     H39215   5.058   5.339   1.760 -1.2362 -1.2695 -0.5096
 1009MOL0     H39216   5.209   5.338   1.497  0.1701 -2.0225 -1.1239
 1009MOL0     H39217   5.141   5.189   1.566 -2.0028  0.7442  1.2661
 1009MOL0     H39218   5.354   5.173   1.674 -1.9208 -2.2622 -2.0996
 1009MOL0     H39219   5.266   5.269   1.791  3.0266 -1.1156  1.2721
 1009MOL0     H39220   5.357   5.481   1.667 -1.0238 -0.2469  0.5231
 1009MOL0     H39221   5.431   5.382   1.553  0.3805  0.7829  0.3627
 1009MOL0     H39222   4.393   5.576   1.602  0.2211 -0.0425  0.4860
 1009MOL0     H39223   4.138   5.613   1.620  2.2807  2.5706 -1.5425
 1009MOL0     H39224   3.841   5.388   1.973  0.5028  2.4001  0.4869
 1009MOL0     H39225   3.606   5.399   2.074  1.7647  0.7788  0.5117
 1009MOL0     H39226   1.759   4.939   1.457  1.0409 -2.3456 -3.8505
 1009MOL0     H39227   1.512   5.009   1.417 -0.0932 -0.4249 -2.0428
 1009MOL0     H39228   1.082   4.864   1.434  0.5764  0.3483 -0.4516
 1009MOL0     H39229   0.844   4.960   1.389  0.0559  0.7653 -3.0173
 1009MOL0     H39230   0.754   5.373   1.491 -0.6988 -1.3591  0.0965
 1009MOL0     H39231   0.769   5.340   1.321 -1.5440  0.3181 -1.0148
 1009MOL0     H39232   0.520   5.267   1.468 -0.5598  2.2411  1.0903
 1009MOL0     H39233   0.555   5.253   1.298 -2.0139 -0.9577  1.8860
 1009MOL0     H39234   0.412   5.446   1.353  1.0673 -4.6023 -2.4099
 1009MOL0     H39235   0.532   5.514   1.459 -3.1150  1.6434 -0.9132
 1009MOL0     H39236   0.507   5.623   1.220 -0.6150  0.6316  0.7687
 1009MOL0     H39237   0.562   5.482   1.151  1.6744 -0.2077 -0.5903
 1009MOL0     H39238   0.926   5.680   1.297 -0.4785 -0.6770  1.0634
 1009MOL0     H39239   0.950   5.338   1.551  0.3357 -0.4326  0.4627
 1009MOL0     H39240   1.291   5.308   1.531 -1.0528 -0.9122 -0.8155
 1009MOL0     H39241   1.150   5.394   1.593  0.6985  0.9768 -2.3870
 1009MOL0     H39242   1.249   5.282   1.697 -1.4237  1.1843  0.0659
 1010MOL0     O39243   2.482  10.683   8.149 -0.2301 -0.8657 -0.3767
 1010MOL0     C39244   2.372  10.636   8.152  0.4678 -0.5261  0.6787
 1010MOL0     O39245   2.320  10.574   8.264 -0.6788 -0.7473 -0.6635
 1010MOL0     C39246   2.409  10.554   8.374  0.8702  0.5098 -0.4463
 1010MOL0     C39247   2.432  10.427   8.414  0.0702 -0.0046  0.3374
 1010MOL0     C39248   2.525  10.404   8.523  0.5443  0.0690  0.9680
 1010MOL0     C39249   2.568  10.505   8.605  0.5863 -0.3610 -0.2380
 1010MOL0     O39250   2.646  10.473   8.713 -0.2199  0.3746 -1.4114
 1010MOL0     C39251   2.766  10.552   8.743 -1.0417 -0.0243  0.1630
 1010MOL0     C39252   2.867  10.438   8.756  1.1318  0.4859 -1.0894
 1010MOL0     C39253   3.011  10.474   8.769 -0.1258 -0.4237 -0.7952
 1010MOL0     C39254   3.110  10.356   8.776  0.5534  0.3575  0.1983
 1010MOL0     C39255   3.245  10.407   8.792 -0.5108  0.3829 -0.0926
 1010MOL0     C39256   3.352  10.297   8.782 -0.3262 -0.1638  0.4883
 1010MOL0     C39257   3.496  10.344   8.791 -0.1109  0.1689  0.2739
 1010MOL0     C39258   3.515  10.490   8.784 -0.3585 -0.0498 -0.7689
 1010MOL0     N39259   3.656  10.531   8.820  0.0534  0.3229 -0.5865
 1010MOL0     C39260   3.690  10.540   8.948 -0.5263  0.3764  0.7037
 1010MOL0     C39261   3.814  10.594   8.941 -0.4140 -0.3713 -0.4690
 1010MOL0     C39262   3.894  10.648   9.061  0.2607  0.2243  0.0510
 1010MOL0     C39263   3.943  10.795   9.042 -0.6075 -0.3350 -0.7049
 1010MOL0     C39264   3.833  10.896   9.033 -0.8797  1.0752  0.3711
 1010MOL0     C39265   3.738  10.899   9.143 -0.3180  0.7871  0.8290
 1010MOL0     O39266   3.665  11.018   9.125  0.2696  0.0476  1.0642
 1010MOL0     C39267   3.554  11.025   9.041 -0.6036  1.1698  0.1884
 1010MOL0     C39268   3.475  11.140   9.040  0.1233 -0.6918  0.2073
 1010MOL0     C39269   3.352  11.160   8.962  0.1957 -0.6388  0.2293
 1010MOL0     C39270   3.295  11.295   8.962  0.4593 -0.3573  0.3668
 1010MOL0     C39271   3.300  11.043   8.895  0.7610 -0.9612 -1.4145
 1010MOL0     C39272   3.160  11.044   8.834  0.2331  0.2623  0.2248
 1010MOL0     O39273   3.133  10.950   8.748  0.5249 -0.0231  0.3371
 1010MOL0     C39274   3.022  10.961   8.664  0.3277  0.5577 -0.6960
 1010MOL0     C39275   2.905  10.911   8.709 -0.1773  0.1619 -0.2188
 1010MOL0     C39276   2.791  10.907   8.630  0.0480 -1.1834  1.0450
 1010MOL0     C39277   2.800  10.952   8.493  0.1939 -1.1247 -0.6667
 1010MOL0     O39278   2.672  10.948   8.428 -0.6812  0.0608 -0.3831
 1010MOL0     C39279   2.667  10.974   8.283 -0.1308 -0.1439 -0.0654
 1010MOL0     C39280   2.519  10.993   8.246 -0.1221  0.7473  0.5952
 1010MOL0     C39281   2.469  11.116   8.325  0.1958  0.4452  1.0904
 1010MOL0     C39282   2.496  11.244   8.232 -0.4368  1.0513 -0.0927
 1010MOL0     C39283   2.433  11.375   8.272  0.0142  0.2232 -0.6691
 1010MOL0     C39284   2.283  11.371   8.235 -0.0256 -0.2610  0.2859
 1010MOL0     C39285   2.186  11.482   8.298 -0.0679 -0.3185  0.4953
 1010MOL0     C39286   2.060  11.489   8.212  0.4937  1.0488  0.1818
 1010MOL0    Cl39287   2.084  11.626   8.097  0.1126 -0.0180  0.2791
 1010MOL0     C39288   2.919  11.004   8.453  0.5504 -0.0483  0.1418
 1010MOL0     C39289   3.036  11.009   8.540  1.2076 -0.1291  0.0012
 1010MOL0     O39290   3.079  11.121   8.886  0.0793  0.4006  1.0252
 1010MOL0     C39291   3.384  10.925   8.894  0.6707 -0.5604  0.9988
 1010MOL0     C39292   3.517  10.925   8.951  0.2079  0.7414  0.0086
 1010MOL0     N39293   3.856  10.605   8.806  0.4946 -0.2138  0.1982
 1010MOL0     N39294   3.753  10.574   8.736 -0.6769 -0.5229  0.0529
 1010MOL0     C39295   2.526  10.631   8.573  0.5412 -0.4832 -0.3280
 1010MOL0     C39296   2.453  10.662   8.457 -0.1160  0.5060  0.1933
 1010MOL0     C39297   2.291  10.634   8.026  0.6895 -0.7493 -0.3633
 1010MOL0     C39298   2.170  10.576   8.037  0.4669  0.3809 -0.4286
 1010MOL0     C39299   2.079  10.568   7.935  0.6604  0.2309  0.1918
 1010MOL0     C39300   2.106  10.634   7.818 -0.9952 -0.1474 -0.1600
 1010MOL0     O39301   2.012  10.629   7.721 -0.0864  0.0125  0.4706
 1010MOL0     C39302   2.055  10.662   7.586 -0.2947  0.5929  0.8517
 1010MOL0     C39303   1.936  10.690   7.488 -0.2020  0.0018  0.1611
 1010MOL0     C39304   1.847  10.567   7.467 -0.0890 -0.3329  0.4941
 1010MOL0     C39305   1.696  10.580   7.481  0.5836  0.0308 -0.3685
 1010MOL0     C39306   1.632  10.675   7.388 -0.3078  0.4323  0.7289
 1010MOL0     C39307   1.562  10.738   7.312  0.1427  0.6419  0.5397
 1010MOL0     C39308   2.232  10.700   7.804  0.3982  0.2415  0.7221
 1010MOL0     C39309   2.327  10.695   7.904 -0.6632 -0.2278  0.1216
 1010MOL0     C39310   2.461  10.775   7.885  0.3108 -0.7451 -0.1706
 1010MOL0     H39311   2.380  10.351   8.356 -1.4744 -0.9161  2.7515
 1010MOL0     H39312   2.533  10.301   8.558  0.9430 -1.2687 -2.6425
 1010MOL0     H39313   2.757  10.621   8.827 -2.9238  3.4151 -2.6031
 1010MOL0     H39314   2.799  10.619   8.663 -0.2133 -0.2327  0.3215
 1010MOL0     H39315   2.846  10.363   8.833 -0.1567  2.3252  0.4510
 1010MOL0     H39316   2.862  10.384   8.662 -0.3531 -0.3720 -0.5505
 1010MOL0     H39317   3.028  10.539   8.683 -2.4440  0.4509 -0.6617
 1010MOL0     H39318   3.025  10.526   8.864 -0.0447 -1.4686 -0.2173
 1010MOL0     H39319   3.077  10.294   8.860 -2.3726  1.5993  0.0661
 1010MOL0     H39320   3.108  10.290   8.690  0.2084  0.6761 -0.0427
 1010MOL0     H39321   3.246  10.469   8.881 -0.4768  0.6913 -0.3079
 1010MOL0     H39322   3.265  10.467   8.703  0.0159 -1.6118 -1.3972
 1010MOL0     H39323   3.328  10.220   8.856 -2.3996  0.9928  1.1100
 1010MOL0     H39324   3.341  10.258   8.681 -2.1728 -2.1263  1.3633
 1010MOL0     H39325   3.551  10.290   8.713  0.6863 -2.4430  2.4970
 1010MOL0     H39326   3.533  10.315   8.890 -0.3737  3.0172  1.2834
 1010MOL0     H39327   3.491  10.518   8.681  0.7206  0.9547 -0.7700
 1010MOL0     H39328   3.449  10.532   8.860 -0.1513  0.8673 -1.0813
 1010MOL0     H39329   3.629  10.526   9.036 -1.1518  0.3383  0.2706
 1010MOL0     H39330   3.985  10.590   9.083  0.6577  1.3309  1.5457
 1010MOL0     H39331   3.837  10.654   9.154  0.3246  0.8642  0.0549
 1010MOL0     H39332   4.002  10.822   9.130 -1.5744 -0.6706  0.0687
 1010MOL0     H39333   4.008  10.795   8.954 -0.2499 -1.0027 -0.4512
 1010MOL0     H39334   3.889  10.990   9.026  2.2903 -0.6474  0.5045
 1010MOL0     H39335   3.791  10.873   8.934  0.3971 -2.9576  0.5801
 1010MOL0     H39336   3.677  10.809   9.130  0.8444  0.0034  0.5607
 1010MOL0     H39337   3.793  10.884   9.236  2.4029 -2.5993 -1.0309
 1010MOL0     H39338   3.498  11.226   9.103 -1.2867 -1.2023  1.4980
 1010MOL0     H39339   3.373  11.370   8.972 -0.8557  1.0896  0.1049
 1010MOL0     H39340   3.233  11.308   9.050  1.5628  2.8652  0.7964
 1010MOL0     H39341   3.247  11.312   8.865 -0.9161  2.1815  1.4264
 1010MOL0     H39342   2.890  10.872   8.809 -1.9457  0.9613 -0.1285
 1010MOL0     H39343   2.694  10.876   8.668 -2.3583  1.7709 -2.0651
 1010MOL0     H39344   2.719  11.068   8.265  0.2408 -0.4927 -0.8451
 1010MOL0     H39345   2.707  10.894   8.220 -1.0919 -0.3622 -0.4214
 1010MOL0     H39346   2.509  10.990   8.137  2.7194 -2.2672  0.2922
 1010MOL0     H39347   2.451  10.915   8.282 -0.8326  0.6733 -0.8147
 1010MOL0     H39348   2.531  11.140   8.412  2.1666  1.8842 -0.6249
 1010MOL0     H39349   2.361  11.109   8.343 -1.5609  2.3975 -5.7668
 1010MOL0     H39350   2.465  11.229   8.129  0.6144 -3.3259  0.0228
 1010MOL0     H39351   2.603  11.265   8.234  0.1042 -1.3634 -0.7529
 1010MOL0     H39352   2.434  11.395   8.380  0.5641  0.1421 -0.6612
 1010MOL0     H39353   2.489  11.452   8.219 -0.3756 -0.5844 -2.2958
 1010MOL0     H39354   2.244  11.275   8.268  0.5878 -0.4126  0.5905
 1010MOL0     H39355   2.270  11.364   8.126  0.0522  0.2954  0.2371
 1010MOL0     H39356   2.229  11.581   8.317 -2.1850  0.5877  0.7883
 1010MOL0     H39357   2.157  11.448   8.397 -0.8534  0.8410  0.6818
 1010MOL0     H39358   1.988  11.517   8.290  0.4194 -0.1398  0.5607
 1010MOL0     H39359   2.029  11.395   8.166  3.7316  1.1178 -2.5366
 1010MOL0     H39360   2.919  11.031   8.347  0.0251 -1.5821 -0.2758
 1010MOL0     H39361   3.129  11.043   8.496  0.8901  1.8436  0.7819
 1010MOL0     H39362   3.332  10.846   8.841 -1.3314  0.1387  1.8360
 1010MOL0     H39363   3.571  10.831   8.948 -2.0231 -0.5914 -1.3628
 1010MOL0     H39364   2.576  10.708   8.632  2.6414 -1.1755 -1.1024
 1010MOL0     H39365   2.428  10.760   8.418 -1.5899 -0.2493 -0.8765
 1010MOL0     H39366   2.148  10.517   8.125  2.4444  2.0296  1.2451
 1010MOL0     H39367   1.983  10.518   7.936  1.6180 -1.7737 -1.6746
 1010MOL0     H39368   2.117  10.752   7.586  0.8680 -0.1885  0.2126
 1010MOL0     H39369   2.115  10.577   7.552 -1.7070 -0.0795 -0.0725
 1010MOL0     H39370   1.980  10.715   7.391 -0.8723 -0.5315 -0.2962
 1010MOL0     H39371   1.875  10.774   7.522 -0.3271  0.3769 -0.9503
 1010MOL0     H39372   1.873  10.533   7.367  0.0972  2.6396 -0.5370
 1010MOL0     H39373   1.871  10.481   7.531 -0.8316  0.2772  1.6443
 1010MOL0     H39374   1.674  10.604   7.586 -1.9589 -0.2940 -0.7697
 1010MOL0     H39375   1.656  10.479   7.469 -0.6951  0.5347 -0.5468
 1010MOL0     H39376   1.512  10.807   7.247  2.0156  1.9246  0.4063
 1010MOL0     H39377   2.266  10.737   7.708  0.8576  0.0202  0.7972
 1010MOL0     H39378   2.555  10.720   7.898  1.4370  0.1414 -3.5814
 1010MOL0     H39379   2.469  10.822   7.787 -0.1324  2.7489  1.3257
 1010MOL0     H39380   2.466  10.850   7.964  1.6863 -0.2471 -0.7057
 1011MOL0     O39381   1.245   5.152   4.731 -0.0026 -0.7919  0.3875
 1011MOL0     C39382   1.140   5.163   4.799  0.0965 -0.1468  0.5630
 1011MOL0     O39383   1.130   5.237   4.913  0.2505 -0.1225  0.2529
 1011MOL0     C39384   1.226   5.326   4.949 -0.1316 -0.0368  0.3992
 1011MOL0     C39385   1.286   5.413   4.856  0.2012 -0.3701  0.0791
 1011MOL0     C39386   1.383   5.500   4.904 -1.0167  0.0079  0.2607
 1011MOL0     C39387   1.429   5.505   5.040 -0.0780  1.4781  0.2970
 1011MOL0     O39388   1.535   5.562   5.095 -0.3893 -0.6129  0.3113
 1011MOL0     C39389   1.593   5.675   5.022 -1.0866  0.0853 -0.0071
 1011MOL0     C39390   1.699   5.747   5.110  0.1753 -0.6940 -0.6033
 1011MOL0     C39391   1.655   5.884   5.161  0.7109  0.1696  0.3183
 1011MOL0     C39392   1.757   5.944   5.270  0.9797 -0.9109 -0.0180
 1011MOL0     C39393   1.737   6.101   5.294  0.0563 -0.6629  0.4508
 1011MOL0     C39394   1.798   6.131   5.433  0.6214  0.4269  0.5668
 1011MOL0     C39395   1.950   6.109   5.466 -0.4529 -0.6503  0.0625
 1011MOL0     C39396   2.046   6.164   5.348  0.9078  0.6053  0.5200
 1011MOL0     N39397   2.186   6.124   5.353  0.0579 -0.1211 -0.2935
 1011MOL0     C39398   2.228   6.000   5.336 -0.4548  0.3731 -0.0477
 1011MOL0     C39399   2.365   5.996   5.345 -0.0873  0.6888 -0.6727
 1011MOL0     C39400   2.472   5.888   5.324 -0.6252  0.1879  0.5723
 1011MOL0     C39401   2.584   5.903   5.414  0.0220  0.0033 -0.3798
 1011MOL0     C39402   2.692   5.792   5.398 -0.2120 -0.5700 -0.4635
 1011MOL0     C39403   2.805   5.821   5.496  0.7579 -0.0102  0.0041
 1011MOL0     O39404   2.896   5.712   5.487 -0.3213 -0.5538 -0.3011
 1011MOL0     C39405   3.025   5.731   5.529  0.0640  0.5088  0.8410
 1011MOL0     C39406   3.119   5.623   5.507  0.2074 -0.3518  0.9464
 1011MOL0     C39407   3.255   5.624   5.544 -1.0359  1.0001 -0.4083
 1011MOL0     C39408   3.327   5.492   5.526 -0.3562  0.1824 -0.3423
 1011MOL0     C39409   3.303   5.744   5.607 -0.3578 -0.5816  0.6422
 1011MOL0     C39410   3.430   5.748   5.672 -0.8079 -0.0464 -0.5125
 1011MOL0     O39411   3.459   5.859   5.751 -0.3778  0.0720  0.0034
 1011MOL0     C39412   3.585   5.893   5.793 -0.5432  0.6037  0.1429
 1011MOL0     C39413   3.705   5.858   5.731  0.8255  0.0775  0.0220
 1011MOL0     C39414   3.824   5.899   5.798 -0.8924  0.2973  0.5076
 1011MOL0     C39415   3.818   5.987   5.905  0.4268  0.4804  0.0120
 1011MOL0     O39416   3.933   6.037   5.953  0.4766  0.7477  0.5422
 1011MOL0     C39417   3.942   6.172   5.978 -0.4919 -0.2411 -0.9005
 1011MOL0     C39418   4.091   6.230   5.964 -0.4873  0.8586 -0.0863
 1011MOL0     C39419   4.094   6.388   5.976  0.1546 -0.4714 -0.1626
 1011MOL0     C39420   4.114   6.437   5.834 -0.3208 -0.8624  0.8692
 1011MOL0     C39421   4.160   6.583   5.847  0.0133 -0.1580 -0.3593
 1011MOL0     C39422   4.057   6.683   5.915  0.4463 -0.5998  0.9585
 1011MOL0     C39423   3.917   6.689   5.836  0.0494 -0.9903 -1.0204
 1011MOL0     C39424   3.831   6.808   5.863 -0.4416 -0.3203  0.3518
 1011MOL0    Cl39425   3.677   6.776   5.772  0.0876  0.2991  0.3052
 1011MOL0     C39426   3.701   6.025   5.955  0.0120  0.3730 -0.5460
 1011MOL0     C39427   3.583   5.979   5.900  0.2527 -0.3603 -0.1648
 1011MOL0     O39428   3.493   5.643   5.674 -0.0177 -0.0989 -0.1490
 1011MOL0     C39429   3.212   5.857   5.611  0.1217 -0.0316  0.1044
 1011MOL0     C39430   3.078   5.851   5.574 -0.8477 -0.2242  0.4732
 1011MOL0     N39431   2.397   6.124   5.388 -0.1388  0.2626 -0.3899
 1011MOL0     N39432   2.289   6.192   5.395 -0.0977 -0.9853  0.5293
 1011MOL0     C39433   1.350   5.425   5.129 -1.1938  0.1837  0.4836
 1011MOL0     C39434   1.247   5.339   5.085  0.3383 -0.4830 -0.6255
 1011MOL0     C39435   1.015   5.116   4.739 -0.1376  0.0425 -0.1844
 1011MOL0     C39436   0.906   5.198   4.757 -0.1217 -0.4587  0.2853
 1011MOL0     C39437   0.783   5.150   4.700 -0.9703 -0.0301  0.5873
 1011MOL0     C39438   0.765   5.020   4.639  0.8933 -0.4120 -0.4014
 1011MOL0     O39439   0.640   4.980   4.599 -0.2968  0.1448  0.0391
 1011MOL0     C39440   0.573   4.902   4.702  0.5098 -0.4783  0.3391
 1011MOL0     C39441   0.435   4.857   4.655 -0.3387  0.2718  0.6659
 1011MOL0     C39442   0.348   4.981   4.639  0.2021  0.6323  1.0448
 1011MOL0     C39443   0.337   5.020   4.488 -1.0538 -0.3394  0.4066
 1011MOL0     C39444   0.243   5.131   4.477 -0.2710  0.1276 -0.0364
 1011MOL0     C39445   0.147   5.203   4.461 -0.4202 -0.0763  0.3869
 1011MOL0     C39446   0.876   4.944   4.621 -0.3519  0.5924 -0.7577
 1011MOL0     C39447   0.998   4.991   4.673 -0.0935 -0.3064 -0.5836
 1011MOL0     C39448   1.096   4.883   4.693  0.0168 -0.3032  0.2054
 1011MOL0     H39449   1.272   5.405   4.749 -2.2291 -0.3812  0.3445
 1011MOL0     H39450   1.431   5.560   4.828 -2.8459 -1.0369 -1.8384
 1011MOL0     H39451   1.530   5.761   5.000 -0.4556  0.0944 -2.0065
 1011MOL0     H39452   1.641   5.636   4.932  0.6227  0.1985  0.8188
 1011MOL0     H39453   1.708   5.689   5.202 -1.2417  0.1844  0.1366
 1011MOL0     H39454   1.798   5.753   5.064  1.0653  1.2493  1.3790
 1011MOL0     H39455   1.658   5.955   5.078 -0.1598  0.1637  0.2650
 1011MOL0     H39456   1.551   5.891   5.196  0.3180  1.4916 -1.0138
 1011MOL0     H39457   1.738   5.885   5.361  1.5434 -3.5218 -1.5012
 1011MOL0     H39458   1.858   5.918   5.236  1.4310  0.9465 -0.1955
 1011MOL0     H39459   1.636   6.142   5.301 -0.4189 -1.1919 -2.2696
 1011MOL0     H39460   1.788   6.148   5.210 -1.9708 -1.2715 -1.1994
 1011MOL0     H39461   1.779   6.237   5.449  1.0446  0.6739 -0.4948
 1011MOL0     H39462   1.747   6.071   5.510 -0.9549  0.6998 -0.2199
 1011MOL0     H39463   1.961   6.001   5.477 -0.7985 -1.1405 -3.3233
 1011MOL0     H39464   1.981   6.165   5.555 -0.8469 -1.9574  1.0586
 1011MOL0     H39465   1.998   6.144   5.251  1.2858  0.0467  0.4482
 1011MOL0     H39466   2.045   6.272   5.364  0.3246  0.2469  3.3988
 1011MOL0     H39467   2.167   5.911   5.323  0.3142 -0.4335  1.6190
 1011MOL0     H39468   2.507   5.892   5.220 -2.3671 -0.3712 -0.0829
 1011MOL0     H39469   2.427   5.790   5.344  0.3092 -0.1965  0.8529
 1011MOL0     H39470   2.619   6.002   5.384  0.1722 -0.3279 -1.3334
 1011MOL0     H39471   2.545   5.908   5.516 -0.8920  1.2579 -0.7700
 1011MOL0     H39472   2.654   5.692   5.418 -0.7948 -0.2428  0.1195
 1011MOL0     H39473   2.728   5.783   5.295  2.9033 -2.1392  0.6357
 1011MOL0     H39474   2.850   5.917   5.472 -1.3745  0.9561 -0.3510
 1011MOL0     H39475   2.770   5.833   5.599 -1.2359  0.4695 -0.6809
 1011MOL0     H39476   3.070   5.539   5.460 -0.5374 -0.0932  1.2391
 1011MOL0     H39477   3.341   5.449   5.626  0.2876 -0.3066 -0.6344
 1011MOL0     H39478   3.418   5.514   5.469  1.0459  0.1648  1.7633
 1011MOL0     H39479   3.263   5.421   5.473  1.3212  0.4073 -2.8638
 1011MOL0     H39480   3.719   5.781   5.655  1.7025 -1.8213  1.9749
 1011MOL0     H39481   3.929   5.880   5.779 -0.6734  2.1725 -0.3536
 1011MOL0     H39482   3.883   6.238   5.914  1.8648  0.7647 -2.2020
 1011MOL0     H39483   3.914   6.205   6.078 -0.4952 -0.4530 -0.8320
 1011MOL0     H39484   4.150   6.182   6.043 -1.0416 -0.7335 -0.5947
 1011MOL0     H39485   4.153   6.195   5.881 -0.2573  0.9507  0.0454
 1011MOL0     H39486   4.172   6.419   6.046 -1.5118 -1.7792  2.4417
 1011MOL0     H39487   3.999   6.428   6.013  2.7113  3.7388  2.6151
 1011MOL0     H39488   4.017   6.444   5.783  0.3224  0.1286 -0.2735
 1011MOL0     H39489   4.192   6.378   5.786  1.4111  1.0449  1.2004
 1011MOL0     H39490   4.240   6.589   5.921 -0.4123 -1.5267  0.2338
 1011MOL0     H39491   4.195   6.633   5.757 -2.5451  1.6612 -0.4541
 1011MOL0     H39492   4.097   6.783   5.893 -1.7033 -0.3564 -2.6641
 1011MOL0     H39493   4.041   6.668   6.022  0.8487  1.2017  1.3149
 1011MOL0     H39494   3.857   6.600   5.858  1.3377 -2.0268 -1.5402
 1011MOL0     H39495   3.945   6.709   5.732  2.2242  1.4356 -0.1119
 1011MOL0     H39496   3.887   6.901   5.847  0.8894 -1.4401 -2.0462
 1011MOL0     H39497   3.800   6.818   5.967  2.5512  3.5864  1.0988
 1011MOL0     H39498   3.693   6.100   6.033 -0.1043 -0.1712 -0.0361
 1011MOL0     H39499   3.487   6.020   5.929 -0.3999 -2.0976  0.2375
 1011MOL0     H39500   3.252   5.950   5.649  1.3895  0.3903 -2.1194
 1011MOL0     H39501   3.025   5.943   5.595 -0.7025 -0.1728  0.6179
 1011MOL0     H39502   1.368   5.442   5.235  0.4710 -0.5540  0.3501
 1011MOL0     H39503   1.195   5.274   5.155  1.9952  0.4211  1.5829
 1011MOL0     H39504   0.916   5.284   4.823  2.7707 -2.4935  2.8281
 1011MOL0     H39505   0.697   5.215   4.715  0.6036  2.4429 -0.3560
 1011MOL0     H39506   0.634   4.816   4.730  0.5940 -0.6747 -0.4395
 1011MOL0     H39507   0.557   4.951   4.799 -1.0384 -0.0788 -0.0841
 1011MOL0     H39508   0.398   4.780   4.724 -2.5859 -3.3418 -4.0251
 1011MOL0     H39509   0.449   4.811   4.557  1.9692  2.1259  0.0152
 1011MOL0     H39510   0.246   4.964   4.675 -0.4513  0.4040 -0.8081
 1011MOL0     H39511   0.379   5.066   4.701 -2.1106  0.8822  1.9408
 1011MOL0     H39512   0.296   4.935   4.432 -1.2121 -0.8235  1.2368
 1011MOL0     H39513   0.439   5.053   4.467 -1.3626  1.6560  1.7525
 1011MOL0     H39514   0.070   5.278   4.458  0.5399  0.9094 -1.3742
 1011MOL0     H39515   0.873   4.846   4.573  3.7504  0.5463 -1.3142
 1011MOL0     H39516   1.137   4.872   4.592  0.3319 -2.4984  0.5118
 1011MOL0     H39517   1.186   4.907   4.751  0.6485  0.3756 -1.0128
 1011MOL0     H39518   1.056   4.784   4.716 -3.9133  1.1349  0.2340
 1012MOL0     O39519  11.305   1.989   7.666 -0.9045  0.2282  0.5980
 1012MOL0     C39520  11.224   1.901   7.697 -0.8260  0.7993  0.5518
 1012MOL0     O39521  11.139   1.908   7.803 -0.0816  0.5124 -0.3736
 1012MOL0     C39522  11.127   2.021   7.883 -1.1966  1.1136  0.9142
 1012MOL0     C39523  11.142   2.010   8.019 -0.5601  0.3113  0.0379
 1012MOL0     C39524  11.117   2.122   8.106 -0.1074 -0.1941  0.4671
 1012MOL0     C39525  11.086   2.250   8.049 -0.2374 -0.0919  0.0447
 1012MOL0     O39526  11.080   2.360   8.130 -0.0378  0.0354 -0.2531
 1012MOL0     C39527  10.985   2.456   8.091 -0.0303  0.2647 -0.1282
 1012MOL0     C39528  10.967   2.544   8.213  0.1483 -0.5423 -0.6265
 1012MOL0     C39529  10.867   2.481   8.307  0.1767  0.8063 -0.2920
 1012MOL0     C39530  10.841   2.572   8.435  0.4794 -0.6081 -0.1896
 1012MOL0     C39531  10.725   2.494   8.505 -0.4866  0.6610 -0.3898
 1012MOL0     C39532  10.708   2.549   8.651  0.6579 -0.3385  0.2998
 1012MOL0     C39533  10.670   2.703   8.654 -0.0575  0.1071 -0.5251
 1012MOL0     C39534  10.627   2.747   8.798  0.4056  0.2150 -0.5287
 1012MOL0     N39535  10.730   2.714   8.898 -0.4408  0.8209 -0.3440
 1012MOL0     C39536  10.861   2.749   8.892 -0.7653 -0.1320 -0.7772
 1012MOL0     C39537  10.920   2.701   9.004 -0.7263  0.1002 -0.3278
 1012MOL0     C39538  11.058   2.696   9.055 -0.3500  0.0908 -0.2567
 1012MOL0     C39539  11.152   2.592   8.986  0.0301  0.0825  0.7897
 1012MOL0     C39540  11.158   2.587   8.830 -0.0400  0.6776  0.7487
 1012MOL0     C39541  11.255   2.481   8.781 -0.3065 -0.3663  0.2625
 1012MOL0     O39542  11.250   2.469   8.635 -0.5783  0.0737 -0.1896
 1012MOL0     C39543  11.305   2.359   8.575 -0.3222  0.2524 -1.3983
 1012MOL0     C39544  11.375   2.259   8.639 -1.1378  0.4766  0.6042
 1012MOL0     C39545  11.423   2.140   8.568  0.5051 -0.3427  0.0550
 1012MOL0     C39546  11.487   2.034   8.654 -0.1186  0.3170  0.5687
 1012MOL0     C39547  11.402   2.135   8.431 -0.6158  1.2869 -0.8394
 1012MOL0     C39548  11.432   2.018   8.344 -0.2018  0.1918  0.0120
 1012MOL0     O39549  11.407   2.028   8.210 -0.4568 -0.3039 -0.1986
 1012MOL0     C39550  11.417   1.918   8.118  0.2887  0.1024 -1.1956
 1012MOL0     C39551  11.433   1.961   7.989  0.1271 -0.3596  0.1979
 1012MOL0     C39552  11.471   1.878   7.882 -0.5923  0.0519 -0.4408
 1012MOL0     C39553  11.490   1.742   7.908  0.1398  0.2017 -0.8613
 1012MOL0     O39554  11.556   1.656   7.823  0.0327  0.0080  0.0272
 1012MOL0     C39555  11.665   1.577   7.871  0.6447  0.3862  0.3401
 1012MOL0     C39556  11.744   1.539   7.752  0.9677 -0.1816  0.9262
 1012MOL0     C39557  11.849   1.434   7.768  0.0353  0.5657  0.4418
 1012MOL0     C39558  11.909   1.384   7.630 -0.3879 -0.4123 -0.1896
 1012MOL0     C39559  11.977   1.253   7.640  0.2640  0.8900  0.5502
 1012MOL0     C39560  12.032   1.193   7.505  0.1253  0.3752 -0.1149
 1012MOL0     C39561  12.147   1.284   7.446  0.6033 -0.3709  0.3634
 1012MOL0     C39562  12.217   1.223   7.330  0.4630 -0.3354  0.0395
 1012MOL0    Cl39563  12.112   1.207   7.186 -0.2497  0.2844 -0.1229
 1012MOL0     C39564  11.456   1.700   8.040 -0.1627 -0.3128  0.1615
 1012MOL0     C39565  11.407   1.783   8.141 -0.9002 -0.6767  0.1292
 1012MOL0     O39566  11.480   1.917   8.399 -0.2640 -0.2075 -0.2180
 1012MOL0     C39567  11.337   2.240   8.364 -0.2613 -0.0456 -0.1567
 1012MOL0     C39568  11.296   2.351   8.437  0.3962  0.4447 -0.0659
 1012MOL0     N39569  10.826   2.629   9.070  0.3220 -0.0355  0.1967
 1012MOL0     N39570  10.715   2.631   9.007  0.0185 -0.7289 -0.1416
 1012MOL0     C39571  11.075   2.255   7.907  0.0502 -0.4999  0.0405
 1012MOL0     C39572  11.093   2.147   7.831 -0.2411 -0.8143  0.3900
 1012MOL0     C39573  11.230   1.777   7.620 -0.6948  0.1798 -0.3139
 1012MOL0     C39574  11.351   1.727   7.559 -0.2035  0.8003  0.1546
 1012MOL0     C39575  11.343   1.620   7.467 -0.3526  0.1591  0.4882
 1012MOL0     C39576  11.224   1.559   7.440 -0.4937  0.2447  0.2959
 1012MOL0     O39577  11.228   1.456   7.354 -0.3031 -0.6621  0.3927
 1012MOL0     C39578  11.124   1.361   7.368 -0.1638 -0.1526 -0.4094
 1012MOL0     C39579  11.153   1.260   7.261  0.4998  0.1223  0.6678
 1012MOL0     C39580  11.164   1.313   7.114  0.3734 -0.2239 -0.5192
 1012MOL0     C39581  11.166   1.213   7.002  0.4805 -0.2120 -0.3792
 1012MOL0     C39582  11.037   1.153   6.973  0.0534  0.8876  0.6687
 1012MOL0     C39583  10.945   1.093   6.914 -0.6892 -0.1883 -0.1113
 1012MOL0     C39584  11.109   1.611   7.501  0.1146  0.5038  0.3946
 1012MOL0     C39585  11.105   1.715   7.589 -0.4779 -0.5291 -0.5515
 1012MOL0     C39586  10.969   1.773   7.624 -0.0077  0.5845  0.4729
 1012MOL0     H39587  11.172   1.911   8.053 -0.5458  0.7032  1.2179
 1012MOL0     H39588  11.135   2.112   8.213  0.5055  1.6825  0.5726
 1012MOL0     H39589  10.892   2.407   8.065 -0.3945  0.0919  1.3887
 1012MOL0     H39590  11.026   2.519   8.011 -0.6746  0.8551  0.0055
 1012MOL0     H39591  11.064   2.564   8.258 -0.4343  1.7843 -0.2892
 1012MOL0     H39592  10.924   2.641   8.185  0.4715  0.5357  2.2998
 1012MOL0     H39593  10.772   2.454   8.261  1.5990 -0.0716 -2.9325
 1012MOL0     H39594  10.926   2.396   8.343  1.7889  1.7350 -0.6021
 1012MOL0     H39595  10.937   2.590   8.485  0.7900 -2.0345 -0.2469
 1012MOL0     H39596  10.804   2.672   8.407  1.3839 -0.0638  0.4881
 1012MOL0     H39597  10.759   2.391   8.515 -0.1802  0.7138 -0.8338
 1012MOL0     H39598  10.633   2.503   8.446  0.0999  0.9347 -1.2876
 1012MOL0     H39599  10.626   2.495   8.699 -0.1157 -0.9701 -1.6225
 1012MOL0     H39600  10.794   2.533   8.717 -0.8906  0.2501  2.5784
 1012MOL0     H39601  10.583   2.730   8.592 -1.9391 -0.5987  1.6531
 1012MOL0     H39602  10.753   2.768   8.625 -3.5913  4.0306 -3.0250
 1012MOL0     H39603  10.616   2.855   8.802 -1.5221  0.0556 -0.4840
 1012MOL0     H39604  10.535   2.692   8.823  1.1089  0.5636  3.5039
 1012MOL0     H39605  10.903   2.809   8.812  1.1574  1.4135  1.2632
 1012MOL0     H39606  11.048   2.692   9.164  0.3118  2.5079 -0.0508
 1012MOL0     H39607  11.103   2.795   9.044 -0.5454  0.3498  1.0858
 1012MOL0     H39608  11.251   2.617   9.024 -0.4514 -0.5074  2.5199
 1012MOL0     H39609  11.134   2.493   9.030  2.2380 -0.5301  0.3994
 1012MOL0     H39610  11.060   2.562   8.789  0.0488  0.1957  0.8259
 1012MOL0     H39611  11.188   2.678   8.778 -1.0399  1.4504  1.4716
 1012MOL0     H39612  11.354   2.513   8.815 -0.2563 -1.7898  1.5630
 1012MOL0     H39613  11.234   2.385   8.830  0.3520  0.2431  1.8143
 1012MOL0     H39614  11.390   2.240   8.744  1.8287  0.5606  0.2709
 1012MOL0     H39615  11.527   2.075   8.747  0.3710 -2.7869  1.8356
 1012MOL0     H39616  11.566   1.976   8.607 -2.1268 -0.6235 -1.8846
 1012MOL0     H39617  11.402   1.974   8.689  1.2964 -0.3080  3.1339
 1012MOL0     H39618  11.434   2.066   7.961  1.0935 -0.7714 -1.4266
 1012MOL0     H39619  11.504   1.908   7.783  0.5752  1.0682  0.2137
 1012MOL0     H39620  11.739   1.622   7.938  4.6391 -2.0322 -2.0030
 1012MOL0     H39621  11.629   1.487   7.921 -0.7941 -0.1792 -1.5889
 1012MOL0     H39622  11.685   1.507   7.665 -0.7919  0.0467  1.9926
 1012MOL0     H39623  11.799   1.632   7.735  3.4386 -0.5791  5.3658
 1012MOL0     H39624  11.802   1.348   7.816 -0.2335  0.1524 -0.5363
 1012MOL0     H39625  11.931   1.457   7.837  1.4458  0.6310 -1.1853
 1012MOL0     H39626  11.976   1.456   7.585 -1.4498  1.4437  1.0577
 1012MOL0     H39627  11.829   1.379   7.555 -0.4714  3.1753 -0.4905
 1012MOL0     H39628  12.060   1.272   7.708  1.6692 -0.7903 -0.6409
 1012MOL0     H39629  11.916   1.171   7.681  0.7819 -0.3919 -1.1574
 1012MOL0     H39630  11.954   1.179   7.430 -0.4992 -0.7928  0.7252
 1012MOL0     H39631  12.076   1.095   7.524  2.6969  1.4224 -0.2147
 1012MOL0     H39632  12.225   1.306   7.519 -0.5580  5.9408  0.3414
 1012MOL0     H39633  12.104   1.379   7.412  0.1433 -1.5481 -2.6624
 1012MOL0     H39634  12.266   1.128   7.353 -0.6902 -0.5688  1.7336
 1012MOL0     H39635  12.295   1.297   7.308  1.5133 -1.6260 -0.6847
 1012MOL0     H39636  11.483   1.597   8.058 -0.6586 -0.2109  1.5780
 1012MOL0     H39637  11.379   1.741   8.237 -1.3341  0.1749  0.3935
 1012MOL0     H39638  11.335   2.262   8.258  0.6032 -0.7025 -0.3246
 1012MOL0     H39639  11.243   2.430   8.385  0.7968 -0.6369 -2.2419
 1012MOL0     H39640  11.051   2.355   7.872  0.0812  0.6716  3.0081
 1012MOL0     H39641  11.077   2.176   7.728  3.7778  1.3426  0.1661
 1012MOL0     H39642  11.443   1.785   7.564  0.2561 -0.0100  3.8541
 1012MOL0     H39643  11.427   1.571   7.418 -0.1601  1.3348 -0.4041
 1012MOL0     H39644  11.131   1.312   7.465  1.5910  0.0868 -0.3732
 1012MOL0     H39645  11.023   1.398   7.350 -1.1485 -1.4589  1.9949
 1012MOL0     H39646  11.077   1.181   7.261 -0.4483  0.9469 -1.2927
 1012MOL0     H39647  11.252   1.228   7.293 -0.2281 -0.3967  2.5371
 1012MOL0     H39648  11.088   1.389   7.097 -0.0727 -0.4193  0.5570
 1012MOL0     H39649  11.261   1.363   7.103  0.8574 -1.1149 -0.4182
 1012MOL0     H39650  11.243   1.141   7.030 -0.3085 -1.7421 -1.9532
 1012MOL0     H39651  11.210   1.259   6.913  0.2813 -0.9600 -0.8758
 1012MOL0     H39652  10.863   1.044   6.865  0.0875 -0.7066 -0.9277
 1012MOL0     H39653  11.014   1.562   7.480 -0.1087 -0.2412  2.8221
 1012MOL0     H39654  10.950   1.871   7.579 -2.6935  0.6922  1.6396
 1012MOL0     H39655  10.881   1.709   7.609  1.0479 -0.5469 -1.2067
 1012MOL0     H39656  10.952   1.784   7.732 -4.3902  2.4772 -0.1858
 1013MOL0     O39657   3.961   2.998   2.051 -0.5075 -1.3202 -0.0919
 1013MOL0     C39658   3.971   2.912   2.131 -0.0556  0.1838  0.3331
 1013MOL0     O39659   4.085   2.864   2.177 -0.6642 -0.4201 -0.0328
 1013MOL0     C39660   4.208   2.925   2.163  1.2222  0.4682 -0.2901
 1013MOL0     C39661   4.225   3.060   2.183  0.3790  0.7402  0.3347
 1013MOL0     C39662   4.345   3.116   2.188 -0.3640  0.8553 -0.1886
 1013MOL0     C39663   4.465   3.041   2.178 -0.8475  0.6200  0.1037
 1013MOL0     O39664   4.589   3.099   2.182  0.5725  0.3812 -0.3108
 1013MOL0     C39665   4.615   3.184   2.067 -0.3711 -0.7286  0.6302
 1013MOL0     C39666   4.729   3.273   2.118  0.0943  0.2576 -0.9337
 1013MOL0     C39667   4.858   3.196   2.152  0.8326 -0.0931 -0.8131
 1013MOL0     C39668   4.953   3.307   2.201  0.4011  0.0820  0.5533
 1013MOL0     C39669   5.095   3.254   2.206  0.0112 -0.1938 -0.4274
 1013MOL0     C39670   5.151   3.195   2.070  0.0507  0.2198  0.1481
 1013MOL0     C39671   5.161   3.293   1.949  0.4677  0.6891 -0.4948
 1013MOL0     C39672   5.259   3.221   1.848 -0.2392  0.2778  0.4715
 1013MOL0     N39673   5.397   3.247   1.875  0.2433  0.7524 -0.1045
 1013MOL0     C39674   5.454   3.367   1.898  0.6537  0.2403 -0.0320
 1013MOL0     C39675   5.573   3.340   1.953 -0.8706 -0.5025 -0.2025
 1013MOL0     C39676   5.653   3.436   2.022  0.2401 -0.4123 -0.5396
 1013MOL0     C39677   5.699   3.544   1.927  0.1033 -0.0465  0.5158
 1013MOL0     C39678   5.858   3.540   1.902 -0.3818  0.5089 -0.2765
 1013MOL0     C39679   5.900   3.663   1.823 -0.1585  0.0074  0.1644
 1013MOL0     O39680   6.042   3.667   1.812  0.0380 -0.3338 -0.0942
 1013MOL0     C39681   6.110   3.621   1.704  0.2802 -0.5934  0.0844
 1013MOL0     C39682   6.063   3.576   1.577  0.8779 -1.1922  0.3032
 1013MOL0     C39683   6.157   3.533   1.475  0.2674 -0.1504 -0.0985
 1013MOL0     C39684   6.097   3.463   1.352  0.6335  0.2109  1.2628
 1013MOL0     C39685   6.303   3.550   1.494  0.3763  0.8917 -0.3837
 1013MOL0     C39686   6.416   3.514   1.403 -0.6196 -0.1553  0.5536
 1013MOL0     O39687   6.518   3.605   1.402 -0.5285  0.1861 -0.5695
 1013MOL0     C39688   6.604   3.605   1.294  0.5077  0.7606  0.2982
 1013MOL0     C39689   6.742   3.599   1.304 -0.4328  0.1339 -0.1495
 1013MOL0     C39690   6.817   3.607   1.192 -0.7186 -0.4744 -0.2341
 1013MOL0     C39691   6.765   3.621   1.065  0.5321  0.6077 -0.1092
 1013MOL0     O39692   6.857   3.624   0.962 -0.1185 -0.8878 -0.4900
 1013MOL0     C39693   6.801   3.621   0.833 -0.4456  0.2704  0.2831
 1013MOL0     C39694   6.911   3.644   0.737  0.5753  0.6815 -0.1855
 1013MOL0     C39695   6.983   3.782   0.745 -0.5840  1.3038  0.3114
 1013MOL0     C39696   7.124   3.782   0.678  0.1527  0.7112  0.8486
 1013MOL0     C39697   7.115   3.802   0.521  0.9402 -0.9447  0.2984
 1013MOL0     C39698   7.239   3.783   0.440 -0.2265 -0.7635 -0.0277
 1013MOL0     C39699   7.270   3.636   0.396 -0.4672 -0.1658 -0.2420
 1013MOL0     C39700   7.188   3.571   0.284 -0.6879  0.1802  0.6386
 1013MOL0    Cl39701   7.045   3.511   0.361  0.5466  0.0000 -0.1069
 1013MOL0     C39702   6.633   3.658   1.057  0.0280  0.3811 -0.0924
 1013MOL0     C39703   6.548   3.641   1.171  0.3618 -0.4060 -0.1839
 1013MOL0     O39704   6.401   3.426   1.318 -0.2670 -0.5100  1.1484
 1013MOL0     C39705   6.341   3.600   1.617 -0.3811  0.9201  0.4336
 1013MOL0     C39706   6.248   3.637   1.718  0.3065 -0.7798 -0.3688
 1013MOL0     N39707   5.596   3.203   1.941 -0.3117  0.2989  0.3698
 1013MOL0     N39708   5.489   3.148   1.904 -0.1285  0.2370  1.2812
 1013MOL0     C39709   4.457   2.903   2.168 -0.0606 -0.2809 -0.3697
 1013MOL0     C39710   4.325   2.846   2.160  0.2458  0.1186  0.6717
 1013MOL0     C39711   3.855   2.817   2.153 -0.1263 -1.2858  0.7727
 1013MOL0     C39712   3.886   2.681   2.159  0.3326  0.4109  0.4996
 1013MOL0     C39713   3.790   2.580   2.165 -0.5827  0.0224 -1.0990
 1013MOL0     C39714   3.656   2.622   2.163 -0.3089  1.0458  1.0319
 1013MOL0     O39715   3.553   2.531   2.184  0.2443  0.0403  0.7127
 1013MOL0     C39716   3.556   2.398   2.142 -0.5130  1.0856 -0.0997
 1013MOL0     C39717   3.591   2.383   1.996 -0.3520  0.3360 -0.0109
 1013MOL0     C39718   3.457   2.388   1.912 -0.1573 -0.9351 -0.2921
 1013MOL0     C39719   3.478   2.423   1.760 -0.3232  0.3852 -0.4473
 1013MOL0     C39720   3.593   2.350   1.702  1.1912 -0.8282  0.0677
 1013MOL0     C39721   3.680   2.294   1.647  0.7574 -0.5915  0.2215
 1013MOL0     C39722   3.621   2.756   2.139 -0.2162 -0.2951 -0.0245
 1013MOL0     C39723   3.719   2.856   2.141  0.2067 -0.2191 -0.4919
 1013MOL0     C39724   3.663   2.996   2.119 -0.0164 -0.7553 -0.2196
 1013MOL0     H39725   4.132   3.115   2.187  0.0191  0.3278 -1.5498
 1013MOL0     H39726   4.356   3.222   2.205  1.3772  0.6365  0.2540
 1013MOL0     H39727   4.539   3.256   2.038  0.0806 -0.5908 -0.2570
 1013MOL0     H39728   4.639   3.127   1.977  2.9581  0.9929  0.2454
 1013MOL0     H39729   4.758   3.357   2.054  0.0584  1.6718  0.8229
 1013MOL0     H39730   4.695   3.327   2.207  2.5790 -1.6754  1.3339
 1013MOL0     H39731   4.842   3.117   2.226  1.1255  1.5003  1.0270
 1013MOL0     H39732   4.901   3.156   2.059  2.7186  2.1501 -1.0097
 1013MOL0     H39733   4.956   3.387   2.126 -4.0424 -0.4911 -0.5116
 1013MOL0     H39734   4.927   3.336   2.303  0.3664 -2.5148  1.3523
 1013MOL0     H39735   5.107   3.174   2.279  1.7560 -0.0439 -0.5114
 1013MOL0     H39736   5.169   3.330   2.236  0.7909 -1.2347  0.3353
 1013MOL0     H39737   5.250   3.161   2.101 -1.1561 -1.7894  2.0888
 1013MOL0     H39738   5.102   3.105   2.032 -1.3839  0.9920  0.0825
 1013MOL0     H39739   5.192   3.391   1.985  2.6116 -0.0579 -0.1191
 1013MOL0     H39740   5.058   3.307   1.917 -0.7198 -1.7985  1.8770
 1013MOL0     H39741   5.241   3.113   1.847  0.6144  0.1380 -0.5489
 1013MOL0     H39742   5.229   3.261   1.751 -4.4310 -1.6299  0.7303
 1013MOL0     H39743   5.417   3.469   1.894  0.5505  0.1626 -1.7962
 1013MOL0     H39744   5.742   3.389   2.067 -0.2766 -0.5419  0.3717
 1013MOL0     H39745   5.599   3.475   2.108 -1.7955 -2.2842 -0.8821
 1013MOL0     H39746   5.644   3.534   1.833  2.7246 -0.7152 -1.0461
 1013MOL0     H39747   5.680   3.644   1.966 -3.8573 -1.3254  2.3580
 1013MOL0     H39748   5.916   3.541   1.994 -4.1997 -0.7583  2.4077
 1013MOL0     H39749   5.876   3.446   1.849 -1.4938  0.2729 -0.2625
 1013MOL0     H39750   5.850   3.652   1.727  0.6786 -0.8132 -0.1965
 1013MOL0     H39751   5.862   3.748   1.881  2.4387  1.9952 -0.8592
 1013MOL0     H39752   5.959   3.578   1.548  1.0819 -3.1200 -0.6930
 1013MOL0     H39753   5.989   3.473   1.337  0.8949 -0.6530 -2.2200
 1013MOL0     H39754   6.119   3.356   1.346 -1.2641 -0.1897  0.5311
 1013MOL0     H39755   6.148   3.510   1.267 -1.6031 -0.1111 -0.3716
 1013MOL0     H39756   6.793   3.576   1.397  0.8099 -0.9305 -1.0552
 1013MOL0     H39757   6.925   3.599   1.202 -0.5685  1.2736 -0.1265
 1013MOL0     H39758   6.750   3.526   0.819  0.9090 -0.2909 -1.1906
 1013MOL0     H39759   6.732   3.706   0.822  0.9579  1.3221 -0.8849
 1013MOL0     H39760   6.982   3.562   0.753 -2.4527 -1.8125  1.5510
 1013MOL0     H39761   6.862   3.640   0.639 -1.9216  4.2295  0.7081
 1013MOL0     H39762   6.994   3.806   0.851  2.4776  2.5555 -0.1849
 1013MOL0     H39763   6.912   3.853   0.702 -2.5323  0.9217  2.6761
 1013MOL0     H39764   7.171   3.685   0.692 -3.1459 -1.0534  0.7068
 1013MOL0     H39765   7.184   3.857   0.730  0.0616  1.0030  0.5444
 1013MOL0     H39766   7.042   3.732   0.480  1.9089 -2.7284  1.4335
 1013MOL0     H39767   7.094   3.908   0.508  1.9920 -0.2418  3.3920
 1013MOL0     H39768   7.321   3.806   0.508  0.5856 -0.8926 -0.9336
 1013MOL0     H39769   7.246   3.844   0.350 -0.0948 -2.0601 -0.9381
 1013MOL0     H39770   7.266   3.565   0.479 -1.9988 -0.4535 -0.5386
 1013MOL0     H39771   7.373   3.643   0.359 -1.1090  1.1018 -1.9458
 1013MOL0     H39772   7.239   3.486   0.238 -2.1454  0.1287 -0.9895
 1013MOL0     H39773   7.169   3.636   0.199 -1.0195 -2.6920 -1.6364
 1013MOL0     H39774   6.580   3.670   0.963 -0.0103 -2.0346 -0.4505
 1013MOL0     H39775   6.441   3.657   1.165  0.8234  3.4909 -0.4085
 1013MOL0     H39776   6.447   3.608   1.637  0.6059 -1.6286 -2.8807
 1013MOL0     H39777   6.282   3.686   1.809 -1.1960  1.2973 -0.8487
 1013MOL0     H39778   4.552   2.853   2.149  0.7024 -0.3372  2.9550
 1013MOL0     H39779   4.309   2.739   2.152 -3.6780  0.6651 -4.4558
 1013MOL0     H39780   3.988   2.644   2.154 -0.7365 -2.7599 -0.1917
 1013MOL0     H39781   3.823   2.477   2.179 -1.9918 -0.2892  0.2115
 1013MOL0     H39782   3.631   2.343   2.200 -3.0386 -1.0595  1.3746
 1013MOL0     H39783   3.460   2.348   2.161  0.4718 -0.8587  0.0868
 1013MOL0     H39784   3.640   2.286   1.985  1.1924  1.0896 -0.0293
 1013MOL0     H39785   3.667   2.456   1.968 -0.2546  1.5231  2.9808
 1013MOL0     H39786   3.401   2.295   1.928  1.5281 -1.9111  0.2043
 1013MOL0     H39787   3.392   2.468   1.949  1.1165 -0.6776  1.5363
 1013MOL0     H39788   3.504   2.529   1.748  1.5196 -0.3610 -5.6948
 1013MOL0     H39789   3.386   2.401   1.705 -0.4400 -2.0717  0.5874
 1013MOL0     H39790   3.756   2.232   1.605 -0.1575 -0.6090 -1.5161
 1013MOL0     H39791   3.517   2.786   2.129 -0.9261 -3.1938 -2.9700
 1013MOL0     H39792   3.553   2.994   2.114 -0.1763  0.7994  1.6477
 1013MOL0     H39793   3.693   3.065   2.197 -0.0352 -0.2837 -0.6282
 1013MOL0     H39794   3.703   3.031   2.024 -0.1945  1.0845  0.3573
 1014MOL0     O39795   1.099   4.917   6.473  0.2975  0.7215  0.3542
 1014MOL0     C39796   1.212   4.899   6.435 -0.0703  0.2351 -0.5544
 1014MOL0     O39797   1.251   4.836   6.318 -0.1281 -0.2838  0.2748
 1014MOL0     C39798   1.167   4.753   6.248  0.5095  0.1523 -0.2235
 1014MOL0     C39799   1.060   4.675   6.303 -0.1369  0.0836 -0.2319
 1014MOL0     C39800   0.989   4.573   6.240 -0.3320  0.2804  0.1348
 1014MOL0     C39801   1.013   4.542   6.107  0.0511  0.5433 -0.3459
 1014MOL0     O39802   0.946   4.427   6.054 -0.1621 -0.2156 -0.4857
 1014MOL0     C39803   0.962   4.410   5.911 -0.3368 -0.1044  0.1806
 1014MOL0     C39804   0.869   4.299   5.863 -0.2639 -0.4865  0.1484
 1014MOL0     C39805   0.897   4.271   5.718  0.1079 -0.3676 -0.6744
 1014MOL0     C39806   0.782   4.202   5.637  0.0098  0.2090 -0.2951
 1014MOL0     C39807   0.731   4.076   5.705  0.4039 -0.5874  0.6468
 1014MOL0     C39808   0.838   3.963   5.693 -0.7303 -0.1226 -0.6183
 1014MOL0     C39809   0.795   3.829   5.750 -0.7988  0.1831  0.2581
 1014MOL0     C39810   0.819   3.829   5.903  0.2861 -0.2677  1.0969
 1014MOL0     N39811   0.951   3.864   5.944 -0.2590 -0.1856  0.1519
 1014MOL0     C39812   1.061   3.790   5.925 -0.6688 -0.3993  0.4440
 1014MOL0     C39813   1.162   3.855   5.984  0.0530  0.7798  0.6746
 1014MOL0     C39814   1.300   3.809   5.992  0.1596  0.1690 -0.0438
 1014MOL0     C39815   1.360   3.786   5.849 -0.0748 -0.4081 -0.3372
 1014MOL0     C39816   1.499   3.719   5.850 -0.1930 -0.1598  0.2746
 1014MOL0     C39817   1.575   3.703   5.709  0.1572 -0.3487 -1.2888
 1014MOL0     O39818   1.509   3.600   5.635 -0.0957  0.1040 -0.2533
 1014MOL0     C39819   1.550   3.470   5.648 -0.2833 -0.5727  0.2822
 1014MOL0     C39820   1.522   3.403   5.530 -0.3613  1.2747 -0.0486
 1014MOL0     C39821   1.559   3.273   5.513 -0.8972  0.5613 -0.6929
 1014MOL0     C39822   1.535   3.214   5.375  0.3446  0.4802 -0.2591
 1014MOL0     C39823   1.631   3.204   5.620 -0.2683  0.3349  0.3063
 1014MOL0     C39824   1.675   3.063   5.621  0.5037  0.2455 -0.7038
 1014MOL0     O39825   1.649   2.989   5.738 -0.1459 -0.0112  0.3197
 1014MOL0     C39826   1.728   2.878   5.764 -0.6493  0.6951 -0.2275
 1014MOL0     C39827   1.867   2.872   5.731  0.2714  0.2908  0.3371
 1014MOL0     C39828   1.949   2.769   5.777 -0.2244  0.0661  0.2003
 1014MOL0     C39829   1.899   2.657   5.844  1.2061 -0.0464  0.5011
 1014MOL0     O39830   1.960   2.542   5.867 -0.4539  0.0549  0.7562
 1014MOL0     C39831   2.104   2.541   5.910 -0.2495  0.3853  0.2916
 1014MOL0     C39832   2.156   2.402   5.910 -0.1237 -0.3897 -0.0199
 1014MOL0     C39833   2.306   2.399   5.943 -0.1847  0.0314 -0.1017
 1014MOL0     C39834   2.355   2.251   5.947 -0.6626 -0.0714  0.0759
 1014MOL0     C39835   2.507   2.240   5.977 -0.6087 -0.0508  0.3252
 1014MOL0     C39836   2.543   2.216   6.130 -0.0102  0.1605 -0.4322
 1014MOL0     C39837   2.691   2.210   6.161  0.5569  0.5725 -0.6069
 1014MOL0     C39838   2.753   2.075   6.112  0.0495  0.1550 -0.5508
 1014MOL0    Cl39839   2.930   2.060   6.133  0.1254 -0.3530 -0.0607
 1014MOL0     C39840   1.761   2.668   5.881  0.0702 -0.0290  0.1560
 1014MOL0     C39841   1.674   2.775   5.840  0.8436 -0.3937 -0.5801
 1014MOL0     O39842   1.711   3.014   5.512 -0.0621 -0.2542 -0.9250
 1014MOL0     C39843   1.649   3.273   5.741  1.0187  0.0710 -0.1227
 1014MOL0     C39844   1.618   3.409   5.752 -0.0279  0.7145  0.2834
 1014MOL0     N39845   1.110   3.969   6.042 -0.2013 -0.2886 -0.5782
 1014MOL0     N39846   0.983   3.965   6.029 -0.0909  0.2884  0.2281
 1014MOL0     C39847   1.116   4.617   6.044  0.2851  0.4431  0.1554
 1014MOL0     C39848   1.193   4.717   6.114 -0.4225  0.7458  0.4724
 1014MOL0     C39849   1.315   4.951   6.521 -0.1456  0.7574 -0.8359
 1014MOL0     C39850   1.280   5.068   6.593 -0.1037 -0.4633  0.0693
 1014MOL0     C39851   1.374   5.127   6.672 -0.2253  1.0621  0.6619
 1014MOL0     C39852   1.504   5.074   6.691  0.6098 -0.5192  0.0035
 1014MOL0     O39853   1.569   5.134   6.785 -0.1045 -0.6464 -0.7430
 1014MOL0     C39854   1.627   5.055   6.894 -0.3010 -0.1684 -0.5221
 1014MOL0     C39855   1.768   5.090   6.948  0.0541  0.0168  1.0640
 1014MOL0     C39856   1.861   5.089   6.830  0.1617 -0.3884 -0.0742
 1014MOL0     C39857   1.887   5.233   6.776  0.1776  0.2650  0.0249
 1014MOL0     C39858   1.974   5.313   6.860  0.2844 -0.4152 -0.2690
 1014MOL0     C39859   2.037   5.387   6.932  1.0316 -0.4002  0.1473
 1014MOL0     C39860   1.538   4.963   6.623 -0.4117  0.5255  0.1134
 1014MOL0     C39861   1.449   4.899   6.531  1.0084  0.6191  0.4551
 1014MOL0     C39862   1.506   4.766   6.469 -0.8015  0.0110  0.1023
 1014MOL0     H39863   1.031   4.678   6.407 -0.9922 -1.1425 -0.4167
 1014MOL0     H39864   0.921   4.518   6.304  0.2012  2.0304  2.3152
 1014MOL0     H39865   1.063   4.371   5.895 -0.8034 -0.7730 -1.2129
 1014MOL0     H39866   0.951   4.506   5.859  1.1101 -0.3831 -0.6891
 1014MOL0     H39867   0.889   4.202   5.909  1.5621 -0.7779 -1.1860
 1014MOL0     H39868   0.764   4.328   5.878 -1.0919 -0.7966 -3.8607
 1014MOL0     H39869   0.904   4.367   5.666 -0.6093  1.6652  2.6401
 1014MOL0     H39870   0.986   4.211   5.700 -0.7286 -1.2981 -1.9225
 1014MOL0     H39871   0.695   4.268   5.629 -1.8825 -1.9549  1.3625
 1014MOL0     H39872   0.805   4.181   5.532  1.9233  0.4807  0.0373
 1014MOL0     H39873   0.639   4.039   5.657  0.0396 -1.5193  1.9993
 1014MOL0     H39874   0.706   4.093   5.810  1.8204  2.1394  0.6263
 1014MOL0     H39875   0.860   3.944   5.588 -0.0033 -4.6016  0.1383
 1014MOL0     H39876   0.938   3.983   5.732  0.7798 -2.7676 -2.7675
 1014MOL0     H39877   0.860   3.755   5.704  3.6076  4.0356 -0.4359
 1014MOL0     H39878   0.687   3.812   5.742 -1.0870  1.7342  0.4865
 1014MOL0     H39879   0.760   3.911   5.944 -0.5189  0.3061 -1.1024
 1014MOL0     H39880   0.783   3.734   5.945  2.7018 -2.0670 -0.6303
 1014MOL0     H39881   1.068   3.705   5.858  1.9215  1.2878 -1.6258
 1014MOL0     H39882   1.309   3.709   6.036 -1.9653 -0.7796 -1.6158
 1014MOL0     H39883   1.367   3.871   6.053  1.3307 -1.5845  0.5173
 1014MOL0     H39884   1.292   3.723   5.791  0.9873 -0.7154 -1.2857
 1014MOL0     H39885   1.361   3.882   5.797 -0.4840  0.5516  1.3386
 1014MOL0     H39886   1.568   3.780   5.909  2.6265 -1.2988 -1.5946
 1014MOL0     H39887   1.482   3.623   5.900 -0.6727  0.3170  1.0428
 1014MOL0     H39888   1.578   3.792   5.647  2.0488 -0.7462 -1.8541
 1014MOL0     H39889   1.678   3.676   5.738 -0.0808 -0.4577 -0.5202
 1014MOL0     H39890   1.478   3.466   5.453 -1.3647  0.3731 -0.2255
 1014MOL0     H39891   1.482   3.119   5.389 -0.1655  0.9378  1.1278
 1014MOL0     H39892   1.628   3.199   5.319  1.1189 -3.9489  1.7850
 1014MOL0     H39893   1.465   3.284   5.328 -1.4796  0.6937  2.5255
 1014MOL0     H39894   1.912   2.947   5.667  2.7067 -0.0750  1.4864
 1014MOL0     H39895   2.054   2.774   5.749 -0.8600  4.5082 -2.2435
 1014MOL0     H39896   2.155   2.610   5.842  1.8651 -2.7521 -1.5553
 1014MOL0     H39897   2.123   2.585   6.009 -0.4124  0.9636  0.0723
 1014MOL0     H39898   2.108   2.337   5.983  0.4792 -2.5442 -1.4346
 1014MOL0     H39899   2.151   2.353   5.812  1.8818 -0.1018 -0.2981
 1014MOL0     H39900   2.339   2.455   6.030 -1.4848  2.1492 -0.9092
 1014MOL0     H39901   2.359   2.438   5.855 -1.0715  1.4009 -0.0544
 1014MOL0     H39902   2.330   2.196   5.856  1.7236 -1.9946  0.4882
 1014MOL0     H39903   2.297   2.204   6.027 -0.1498 -0.1887  0.3820
 1014MOL0     H39904   2.554   2.171   5.907 -0.6871  1.9788 -1.8792
 1014MOL0     H39905   2.567   2.328   5.954  1.1850 -1.0616  0.9861
 1014MOL0     H39906   2.487   2.129   6.168  0.0298  1.0155  1.7199
 1014MOL0     H39907   2.508   2.290   6.203  1.1921  0.3807 -0.0552
 1014MOL0     H39908   2.702   2.203   6.269 -3.5808  0.2857 -0.0371
 1014MOL0     H39909   2.742   2.299   6.124 -0.1119  0.7636 -1.0740
 1014MOL0     H39910   2.749   2.062   6.004 -1.3152 -0.8281 -0.4041
 1014MOL0     H39911   2.698   1.987   6.147 -0.6932  1.1205  0.8131
 1014MOL0     H39912   1.727   2.588   5.947 -0.0196  0.6599  0.9541
 1014MOL0     H39913   1.568   2.783   5.864  0.8516 -1.0853 -0.2966
 1014MOL0     H39914   1.695   3.228   5.829 -0.5477  2.1475  1.8988
 1014MOL0     H39915   1.638   3.464   5.844  3.7661  1.4088 -0.7935
 1014MOL0     H39916   1.148   4.600   5.942  2.5031  0.4626  0.7859
 1014MOL0     H39917   1.274   4.760   6.057 -0.7181 -0.2449 -0.7182
 1014MOL0     H39918   1.184   5.118   6.585 -0.2840 -1.0659 -2.1610
 1014MOL0     H39919   1.357   5.219   6.727  1.3124  3.5815 -2.7581
 1014MOL0     H39920   1.568   5.071   6.984 -1.4836  0.7772 -1.4321
 1014MOL0     H39921   1.618   4.946   6.888  2.2883 -0.7061  2.6059
 1014MOL0     H39922   1.804   5.009   7.013  0.5986 -1.1077 -0.5889
 1014MOL0     H39923   1.766   5.190   6.993  1.3741  1.4261 -1.7972
 1014MOL0     H39924   1.953   5.041   6.865  1.1538  0.8824 -0.8574
 1014MOL0     H39925   1.820   5.024   6.752 -1.4140  0.4122  0.0377
 1014MOL0     H39926   1.790   5.282   6.764  0.4471  0.4746 -1.5872
 1014MOL0     H39927   1.936   5.232   6.678  1.6085 -0.5393  0.7138
 1014MOL0     H39928   2.084   5.470   6.980 -2.5625  2.0134 -0.1191
 1014MOL0     H39929   1.636   4.918   6.623 -0.8284 -0.4172  0.0706
 1014MOL0     H39930   1.549   4.784   6.370  0.3255  2.3079  0.9255
 1014MOL0     H39931   1.594   4.729   6.522 -1.1437  0.2799  0.8760
 1014MOL0     H39932   1.433   4.684   6.467 -1.0819  0.1663 -3.8119
 1015MOL0     O39933   5.747  10.432   2.941 -0.0775 -1.1726 -0.1070
 1015MOL0     C39934   5.670  10.353   2.884 -0.2724 -0.7951 -0.2396
 1015MOL0     O39935   5.703  10.242   2.814 -0.4946  0.0616  0.8620
 1015MOL0     C39936   5.840  10.228   2.785  0.3234  0.2821  0.5507
 1015MOL0     C39937   5.889  10.259   2.652 -0.5430  0.2544 -0.0775
 1015MOL0     C39938   6.027  10.258   2.624 -0.5406  0.5783  0.2774
 1015MOL0     C39939   6.117  10.219   2.720  0.2646 -0.2143 -0.2232
 1015MOL0     O39940   6.251  10.197   2.692 -0.0292 -0.1113 -0.2998
 1015MOL0     C39941   6.288  10.144   2.558 -0.3129 -0.3056  0.0939
 1015MOL0     C39942   6.310   9.993   2.567 -0.6085  0.6687  0.1217
 1015MOL0     C39943   6.442   9.939   2.628 -1.2838 -0.4844 -0.3652
 1015MOL0     C39944   6.444   9.786   2.638 -0.0766  0.0438  0.9459
 1015MOL0     C39945   6.560   9.711   2.695 -0.6923 -0.4518 -0.6445
 1015MOL0     C39946   6.696   9.708   2.627  0.1942 -0.5837 -0.1561
 1015MOL0     C39947   6.796   9.631   2.719 -0.0096 -0.2108  0.6984
 1015MOL0     C39948   6.917   9.712   2.759 -0.1041 -0.6922  0.6319
 1015MOL0     N39949   7.004   9.636   2.845 -1.1814  0.7017  0.4212
 1015MOL0     C39950   6.998   9.621   2.974  0.2587  0.2673 -0.0523
 1015MOL0     C39951   7.095   9.536   3.012 -0.7350 -0.1688  0.4320
 1015MOL0     C39952   7.106   9.482   3.151 -0.2883 -0.0228  0.0915
 1015MOL0     C39953   7.149   9.587   3.243  0.7290  0.5016  0.6058
 1015MOL0     C39954   7.147   9.522   3.384  0.6494 -0.6071  0.3618
 1015MOL0     C39955   7.286   9.471   3.429  0.3078 -0.8107 -0.2044
 1015MOL0     O39956   7.294   9.411   3.549  0.1195 -0.5106 -0.2059
 1015MOL0     C39957   7.354   9.483   3.652 -0.1562 -0.0658 -0.1618
 1015MOL0     C39958   7.286   9.567   3.743  0.4907 -0.2200 -0.0370
 1015MOL0     C39959   7.351   9.644   3.845 -0.4695 -0.1528  0.2732
 1015MOL0     C39960   7.259   9.721   3.932 -0.7959  0.7182  0.5703
 1015MOL0     C39961   7.492   9.635   3.855 -0.2667  0.1053 -0.1018
 1015MOL0     C39962   7.584   9.720   3.933 -0.1864 -0.2234  0.1696
 1015MOL0     O39963   7.719   9.676   3.936 -0.8356 -0.6836  0.3986
 1015MOL0     C39964   7.807   9.730   4.028  0.0982 -0.8117 -0.2460
 1015MOL0     C39965   7.772   9.772   4.157 -0.3710  0.6488 -0.2109
 1015MOL0     C39966   7.860   9.828   4.247 -0.4604 -0.0346 -0.3199
 1015MOL0     C39967   7.992   9.833   4.208 -0.8616  0.2602 -0.7866
 1015MOL0     O39968   8.096   9.874   4.291  0.7591 -0.2608 -0.4016
 1015MOL0     C39969   8.054   9.886   4.435  0.1163  0.5125  0.2687
 1015MOL0     C39970   8.179   9.892   4.528  0.8328 -0.2108  0.0220
 1015MOL0     C39971   8.247   9.763   4.562  0.3564  0.1116  0.1753
 1015MOL0     C39972   8.377   9.795   4.644  0.5388  0.5051 -0.5470
 1015MOL0     C39973   8.462   9.664   4.655 -0.2649  0.6461 -0.1621
 1015MOL0     C39974   8.583   9.685   4.751 -0.2193  0.1280 -0.6882
 1015MOL0     C39975   8.699   9.764   4.675  0.5622 -0.1571  0.3333
 1015MOL0     C39976   8.836   9.766   4.751 -0.4589 -0.7643 -0.6005
 1015MOL0    Cl39977   8.825   9.846   4.912  0.1084 -0.1610 -0.0290
 1015MOL0     C39978   8.029   9.778   4.091  0.0184  0.8255 -0.5571
 1015MOL0     C39979   7.940   9.728   3.995 -0.4646 -0.2465 -0.4556
 1015MOL0     O39980   7.548   9.831   3.986  0.4557 -0.0881 -0.4816
 1015MOL0     C39981   7.554   9.549   3.768  0.3147  0.1649  0.6230
 1015MOL0     C39982   7.492   9.479   3.662  0.5230 -0.6159  0.7819
 1015MOL0     N39983   7.161   9.493   2.907 -1.0317  0.2010 -0.1998
 1015MOL0     N39984   7.108   9.558   2.800  0.4935 -0.4340  0.5684
 1015MOL0     C39985   6.074  10.176   2.844 -0.2932  0.2159 -0.4313
 1015MOL0     C39986   5.935  10.184   2.881  0.0333  0.3703 -0.0113
 1015MOL0     C39987   5.523  10.380   2.887  0.5678  0.2748 -0.5032
 1015MOL0     C39988   5.438  10.273   2.863  0.3310 -0.2489 -0.2497
 1015MOL0     C39989   5.301  10.281   2.862  0.4052  0.4484  0.6172
 1015MOL0     C39990   5.242  10.407   2.873  0.3009 -0.2762  0.3963
 1015MOL0     O39991   5.113  10.433   2.847 -0.2188 -0.7547 -0.0338
 1015MOL0     C39992   5.035  10.325   2.789 -0.7306 -0.0192  0.0569
 1015MOL0     C39993   4.898  10.371   2.750  0.3776  0.9655 -0.6118
 1015MOL0     C39994   4.821  10.441   2.868 -1.0441 -0.0098 -0.3250
 1015MOL0     C39995   4.666  10.442   2.862  0.2808  0.2135 -0.0961
 1015MOL0     C39996   4.601  10.311   2.898 -0.3568 -0.2399 -0.1741
 1015MOL0     C39997   4.561  10.196   2.910 -0.2354  0.1679  0.1993
 1015MOL0     C39998   5.322  10.518   2.909 -0.0408  0.3922 -0.2045
 1015MOL0     C39999   5.464  10.506   2.917  0.4320  1.2785  0.6448
 1015MOL0     C40000   5.542  10.640   2.937 -0.2957  0.5231  0.3970
 1015MOL0     H40001   5.816  10.276   2.573 -0.9152 -3.0725 -0.6036
 1015MOL0     H40002   6.053  10.277   2.521  2.9119 -1.4374  0.6579
 1015MOL0     H40003   6.379  10.193   2.521 -1.3673  1.4228 -0.3064
 1015MOL0     H40004   6.211  10.159   2.482 -0.1040 -1.4035 -0.3475
 1015MOL0     H40005   6.222   9.949   2.616 -1.8003  0.5388 -2.0361
 1015MOL0     H40006   6.305   9.947   2.468 -0.7644  0.7911  0.0723
 1015MOL0     H40007   6.531   9.978   2.578  0.7132  3.6275  5.2878
 1015MOL0     H40008   6.468   9.977   2.728  1.9649 -1.3893 -0.7362
 1015MOL0     H40009   6.347   9.763   2.685 -1.6344  0.8320 -1.6604
 1015MOL0     H40010   6.424   9.753   2.536  0.2991  2.7762 -0.0958
 1015MOL0     H40011   6.529   9.606   2.695 -0.1219 -0.6647 -2.5115
 1015MOL0     H40012   6.572   9.747   2.797  1.6781  2.2638 -1.7217
 1015MOL0     H40013   6.685   9.654   2.533 -1.2527 -1.7694  0.6475
 1015MOL0     H40014   6.723   9.814   2.619  0.6044 -0.6357  0.5084
 1015MOL0     H40015   6.824   9.539   2.667 -1.5440 -1.1457  1.4737
 1015MOL0     H40016   6.748   9.610   2.814 -0.0144  0.1617  0.7802
 1015MOL0     H40017   6.979   9.753   2.678  1.0741  1.0338  2.3345
 1015MOL0     H40018   6.882   9.804   2.805  0.9350  0.5890 -1.0303
 1015MOL0     H40019   6.930   9.656   3.051 -1.6556 -3.2114  0.0364
 1015MOL0     H40020   7.169   9.392   3.142 -0.2034  0.1225 -0.8667
 1015MOL0     H40021   7.005   9.442   3.168 -0.5954 -0.7341 -2.8185
 1015MOL0     H40022   7.248   9.623   3.211  0.3441  0.2413 -0.9411
 1015MOL0     H40023   7.086   9.677   3.250  0.9700  0.6184  1.4105
 1015MOL0     H40024   7.112   9.599   3.454  0.7918 -0.0944 -0.1221
 1015MOL0     H40025   7.080   9.436   3.388 -0.2600 -0.0340 -1.7686
 1015MOL0     H40026   7.329   9.392   3.366  1.4491 -1.7263  1.6300
 1015MOL0     H40027   7.356   9.555   3.425  0.5552 -0.8811  1.6803
 1015MOL0     H40028   7.180   9.569   3.720 -0.0749 -0.9826  2.2252
 1015MOL0     H40029   7.282   9.705   4.037 -2.7743 -1.0324  0.8134
 1015MOL0     H40030   7.155   9.686   3.929 -0.4834 -0.5471  2.6557
 1015MOL0     H40031   7.262   9.825   3.896  1.4119  1.1429  1.7991
 1015MOL0     H40032   7.668   9.759   4.186  0.3197  0.8824  2.6491
 1015MOL0     H40033   7.816   9.859   4.341  1.5352  1.6154  0.1556
 1015MOL0     H40034   8.007   9.985   4.435 -1.5471 -0.0376 -4.1868
 1015MOL0     H40035   7.987   9.809   4.473 -0.0579  0.2505 -0.5629
 1015MOL0     H40036   8.259   9.952   4.482 -0.9068  1.1601 -1.3471
 1015MOL0     H40037   8.160   9.943   4.622  1.8013 -1.6977  1.0711
 1015MOL0     H40038   8.275   9.699   4.478 -0.6963  0.9530 -0.8446
 1015MOL0     H40039   8.181   9.709   4.631  0.2734 -0.3762 -0.2842
 1015MOL0     H40040   8.342   9.828   4.741  2.6344 -0.5871  0.6594
 1015MOL0     H40041   8.431   9.881   4.602  4.2339 -2.2153 -1.9932
 1015MOL0     H40042   8.415   9.580   4.708  0.6111  0.7513  0.8060
 1015MOL0     H40043   8.499   9.639   4.555 -1.3679  0.5972 -0.5719
 1015MOL0     H40044   8.629   9.588   4.774  1.9526  1.2631  0.0937
 1015MOL0     H40045   8.546   9.736   4.840 -0.7917  0.5829 -1.1820
 1015MOL0     H40046   8.663   9.861   4.643 -0.3582 -0.5417  0.1845
 1015MOL0     H40047   8.715   9.704   4.585 -2.0570 -1.5846  0.7363
 1015MOL0     H40048   8.915   9.812   4.691 -1.3303 -0.5879 -1.6226
 1015MOL0     H40049   8.855   9.662   4.778  3.1535  0.2083  1.2419
 1015MOL0     H40050   8.133   9.778   4.059  1.5397  3.1825  3.5377
 1015MOL0     H40051   7.965   9.686   3.898 -1.9087 -0.9997 -0.5424
 1015MOL0     H40052   7.662   9.535   3.767  0.4553  0.7379 -2.4319
 1015MOL0     H40053   7.541   9.405   3.599 -1.9000 -3.6211  2.1424
 1015MOL0     H40054   6.154  10.131   2.903  0.8643 -1.4548 -3.0934
 1015MOL0     H40055   5.894  10.138   2.970 -0.2043 -1.9443 -1.2307
 1015MOL0     H40056   5.473  10.170   2.857  0.9058 -0.1992  1.6810
 1015MOL0     H40057   5.241  10.192   2.850  3.4703 -1.8615  1.2929
 1015MOL0     H40058   5.090  10.295   2.699 -0.2423  0.8959  0.0342
 1015MOL0     H40059   5.026  10.240   2.857  0.5059  0.5570  1.0098
 1015MOL0     H40060   4.839  10.281   2.732 -1.6895  1.8773  1.2007
 1015MOL0     H40061   4.893  10.437   2.662 -0.8705  0.8056 -0.6742
 1015MOL0     H40062   4.843  10.393   2.964  4.4725  4.0998  0.9568
 1015MOL0     H40063   4.855  10.544   2.873  4.1314 -1.5082  2.8312
 1015MOL0     H40064   4.641  10.456   2.757  1.1637 -1.6871 -0.6102
 1015MOL0     H40065   4.625  10.514   2.933 -2.0908 -3.5597  2.7355
 1015MOL0     H40066   4.526  10.097   2.931 -1.2814  0.7157  1.1382
 1015MOL0     H40067   5.268  10.611   2.920 -3.0232 -1.4790  2.7478
 1015MOL0     H40068   5.587  10.629   3.037 -2.0348 -0.2774  1.1459
 1015MOL0     H40069   5.618  10.650   2.860  0.2404 -1.1008  0.6736
 1015MOL0     H40070   5.469  10.718   2.916 -0.5703 -0.5104 -3.0872
 1016MOL0     O40071  10.423   1.539   5.825  0.1358 -0.8946  0.1420
 1016MOL0     C40072  10.468   1.622   5.898  0.4162 -0.2426  0.1181
 1016MOL0     O40073  10.494   1.748   5.863  0.1553 -0.5740 -0.3665
 1016MOL0     C40074  10.483   1.778   5.730  0.9225  0.1347  0.0995
 1016MOL0     C40075  10.382   1.854   5.680 -0.3441  0.0248  0.6409
 1016MOL0     C40076  10.379   1.888   5.542  0.1212 -0.2333 -0.1036
 1016MOL0     C40077  10.477   1.845   5.454 -0.7119 -0.3213 -0.1633
 1016MOL0     O40078  10.484   1.878   5.318 -0.2405  0.1018 -0.4458
 1016MOL0     C40079  10.375   1.949   5.256 -0.4277  1.0630  0.3181
 1016MOL0     C40080  10.391   1.956   5.103 -0.7294 -0.2921  0.8966
 1016MOL0     C40081  10.251   2.003   5.056 -0.3152  0.5594 -0.4349
 1016MOL0     C40082  10.244   2.025   4.902 -0.0167  0.5451 -0.8242
 1016MOL0     C40083  10.306   2.141   4.832 -0.1881 -0.5241 -0.0713
 1016MOL0     C40084  10.314   2.110   4.680  0.3722  0.1566  0.5510
 1016MOL0     C40085  10.382   2.229   4.611 -0.5399 -0.0870 -0.4176
 1016MOL0     C40086  10.421   2.199   4.465  0.0654  0.1731  0.5152
 1016MOL0     N40087  10.534   2.273   4.417 -1.0100 -0.2565  0.2953
 1016MOL0     C40088  10.522   2.411   4.389  0.1834 -0.1020 -0.8159
 1016MOL0     C40089  10.652   2.446   4.367  0.3747  0.0629 -0.2729
 1016MOL0     C40090  10.689   2.582   4.325 -0.2799  0.4053 -0.1415
 1016MOL0     C40091  10.706   2.687   4.438  0.1478 -0.4070 -0.2546
 1016MOL0     C40092  10.765   2.815   4.388  0.4462 -0.7115 -0.1773
 1016MOL0     C40093  10.912   2.821   4.393  0.4977  0.9402 -0.7688
 1016MOL0     O40094  10.959   2.804   4.531 -0.3879  0.2023  0.7869
 1016MOL0     C40095  11.095   2.797   4.552  0.3305  0.6024  0.0128
 1016MOL0     C40096  11.141   2.812   4.676 -0.0535 -0.2332  0.6742
 1016MOL0     C40097  11.272   2.817   4.713 -0.8421 -0.1193  0.6310
 1016MOL0     C40098  11.306   2.821   4.861 -0.2962  0.6114  0.2253
 1016MOL0     C40099  11.373   2.802   4.607  0.2687  0.1586 -0.7088
 1016MOL0     C40100  11.516   2.822   4.640 -0.4920 -0.3776 -0.0466
 1016MOL0     O40101  11.557   2.925   4.732 -0.5775 -0.0683  0.2222
 1016MOL0     C40102  11.689   2.930   4.774  0.3985 -0.6308  0.0919
 1016MOL0     C40103  11.746   3.046   4.831 -0.0408  0.0034  0.0941
 1016MOL0     C40104  11.883   3.054   4.867  0.3792  0.1962  0.5258
 1016MOL0     C40105  11.955   2.938   4.858 -0.0997 -0.5067  0.1465
 1016MOL0     O40106  12.085   2.947   4.909 -0.2161 -0.1235  0.1146
 1016MOL0     C40107  12.132   2.834   4.984  0.0130 -0.2113 -0.9680
 1016MOL0     C40108  12.264   2.875   5.053  0.5587 -0.1717 -0.5081
 1016MOL0     C40109  12.245   2.899   5.203 -0.9413 -0.3681 -0.4221
 1016MOL0     C40110  12.374   2.956   5.269  0.5112 -0.9229 -0.4392
 1016MOL0     C40111  12.337   3.019   5.408 -0.5584  0.7330 -1.0470
 1016MOL0     C40112  12.452   3.065   5.497  0.0526  0.3644 -1.0420
 1016MOL0     C40113  12.527   2.950   5.543 -0.2033  0.6992 -0.5154
 1016MOL0     C40114  12.641   2.998   5.633  0.2672  1.0101  0.7749
 1016MOL0    Cl40115  12.762   2.871   5.693  0.2245  0.1836 -0.2813
 1016MOL0     C40116  11.899   2.813   4.824  0.5481  0.0393 -0.3022
 1016MOL0     C40117  11.772   2.812   4.777  1.0166  0.0342  0.2765
 1016MOL0     O40118  11.589   2.758   4.562 -0.1200 -0.1249  0.4300
 1016MOL0     C40119  11.325   2.776   4.478 -0.2785  0.3266 -0.4924
 1016MOL0     C40120  11.192   2.783   4.451  0.4179  0.6545 -0.2656
 1016MOL0     N40121  10.737   2.339   4.388  0.2265  0.5201  0.7472
 1016MOL0     N40122  10.671   2.231   4.412  0.2310  0.6679 -0.8010
 1016MOL0     C40123  10.579   1.770   5.506 -0.0942 -0.4504 -0.2989
 1016MOL0     C40124  10.582   1.735   5.644 -0.6883  1.5723 -0.6604
 1016MOL0     C40125  10.468   1.593   6.040  0.0088  0.6923  0.2819
 1016MOL0     C40126  10.486   1.697   6.138 -0.2847 -0.9078  0.4101
 1016MOL0     C40127  10.469   1.672   6.273  0.1858 -0.4091 -0.0893
 1016MOL0     C40128  10.453   1.547   6.328  0.4581 -0.2727  0.1329
 1016MOL0     O40129  10.441   1.548   6.463  0.6213 -0.3310 -0.2643
 1016MOL0     C40130  10.449   1.428   6.544  0.1136  0.3809  0.3525
 1016MOL0     C40131  10.593   1.385   6.538 -0.6982 -0.6783 -0.6251
 1016MOL0     C40132  10.647   1.324   6.665  0.2056 -0.6873 -0.6409
 1016MOL0     C40133  10.780   1.266   6.647  0.6511  0.0147  0.1220
 1016MOL0     C40134  10.876   1.370   6.685  0.0261  0.0398  0.1027
 1016MOL0     C40135  10.963   1.440   6.724  0.2255 -0.2746  0.0497
 1016MOL0     C40136  10.442   1.437   6.239 -0.5887 -0.5743 -0.5588
 1016MOL0     C40137  10.454   1.456   6.098  0.6163  0.3474  0.3055
 1016MOL0     C40138  10.448   1.330   6.010 -0.4979  0.4487  0.0602
 1016MOL0     H40139  10.309   1.891   5.751 -1.7508  0.3935 -0.9304
 1016MOL0     H40140  10.294   1.950   5.513 -0.5331 -0.9819  0.1828
 1016MOL0     H40141  10.358   2.044   5.307  0.2106 -0.8084  4.5440
 1016MOL0     H40142  10.290   1.885   5.282 -0.0416  0.1827 -0.5247
 1016MOL0     H40143  10.468   2.032   5.091 -1.8401  0.7276  0.0091
 1016MOL0     H40144  10.419   1.860   5.058 -1.4969 -0.9476  1.7631
 1016MOL0     H40145  10.175   1.932   5.088  1.3138 -0.7115  0.7582
 1016MOL0     H40146  10.222   2.094   5.110  0.6721  1.0250 -0.6695
 1016MOL0     H40147  10.278   1.935   4.851  2.5176  0.5012  0.7701
 1016MOL0     H40148  10.137   2.023   4.879 -0.5062 -0.2385  1.2336
 1016MOL0     H40149  10.407   2.151   4.872 -0.5045  2.9360  0.1181
 1016MOL0     H40150  10.242   2.221   4.869  0.0995 -0.5372  0.4614
 1016MOL0     H40151  10.362   2.012   4.672 -1.2050 -0.8151  2.1846
 1016MOL0     H40152  10.216   2.095   4.634  1.3185  1.1054 -1.9660
 1016MOL0     H40153  10.477   2.255   4.658  0.3626  0.0568 -2.2075
 1016MOL0     H40154  10.315   2.315   4.603 -0.4888 -0.1750 -2.4126
 1016MOL0     H40155  10.439   2.092   4.451 -3.9786 -0.3484 -2.8251
 1016MOL0     H40156  10.336   2.217   4.399  1.0208  0.0668 -0.7709
 1016MOL0     H40157  10.428   2.465   4.393  0.6650  0.6913  0.5163
 1016MOL0     H40158  10.597   2.617   4.276 -0.3595 -0.5873 -0.7334
 1016MOL0     H40159  10.772   2.589   4.255  0.3407 -0.9106  0.4338
 1016MOL0     H40160  10.602   2.716   4.456 -0.8264 -0.9508 -4.0205
 1016MOL0     H40161  10.775   2.645   4.512  0.8461 -5.6260 -3.3610
 1016MOL0     H40162  10.727   2.817   4.285 -1.6794  2.9507  0.4958
 1016MOL0     H40163  10.725   2.905   4.436  0.2892  0.1759 -1.8986
 1016MOL0     H40164  10.942   2.741   4.324  0.4719 -2.4218  2.7833
 1016MOL0     H40165  10.940   2.920   4.355 -1.3828  2.9264  2.5890
 1016MOL0     H40166  11.062   2.828   4.749 -2.1092  1.4310 -1.7267
 1016MOL0     H40167  11.312   2.917   4.912 -3.1680  0.3346  1.2828
 1016MOL0     H40168  11.398   2.764   4.879 -1.1587 -1.2584 -0.8676
 1016MOL0     H40169  11.229   2.769   4.920 -0.1385 -0.6140 -0.6058
 1016MOL0     H40170  11.681   3.132   4.842  0.0415 -0.1465  2.1670
 1016MOL0     H40171  11.924   3.140   4.919  0.1192 -0.6096  2.1194
 1016MOL0     H40172  12.056   2.802   5.055  1.7544 -0.8681  0.6882
 1016MOL0     H40173  12.161   2.757   4.912  3.1393  1.1984 -1.3900
 1016MOL0     H40174  12.334   2.792   5.038  0.0058 -0.6692 -0.4036
 1016MOL0     H40175  12.310   2.963   5.008 -1.7285  2.3986  1.7950
 1016MOL0     H40176  12.227   2.804   5.255 -0.5365 -1.4180 -2.1499
 1016MOL0     H40177  12.158   2.965   5.210 -1.7014 -1.3941  0.1580
 1016MOL0     H40178  12.412   3.042   5.214  1.5411  0.1382  1.8074
 1016MOL0     H40179  12.450   2.876   5.271  1.7167  0.1947  1.0552
 1016MOL0     H40180  12.266   3.097   5.380  0.3165  1.8506 -0.2640
 1016MOL0     H40181  12.274   2.944   5.457 -0.7780  2.2294  1.1179
 1016MOL0     H40182  12.416   3.128   5.578 -0.0879  0.1053 -0.9032
 1016MOL0     H40183  12.523   3.118   5.432  0.5638 -1.3283 -1.9486
 1016MOL0     H40184  12.557   2.891   5.456  0.4914  3.5721 -2.3870
 1016MOL0     H40185  12.470   2.881   5.606  1.8133  1.6293  2.5848
 1016MOL0     H40186  12.597   3.043   5.722  2.6924  2.7528  1.1708
 1016MOL0     H40187  12.702   3.075   5.586  2.3899 -0.7767  0.4342
 1016MOL0     H40188  11.945   2.717   4.842  2.6241  0.7501 -1.5405
 1016MOL0     H40189  11.731   2.714   4.758  1.4211 -0.5590  2.1856
 1016MOL0     H40190  11.402   2.759   4.403  2.0417  0.7844  1.6361
 1016MOL0     H40191  11.160   2.762   4.350  2.6794 -1.3748 -0.6633
 1016MOL0     H40192  10.659   1.736   5.441 -0.0645  0.6307 -0.8485
 1016MOL0     H40193  10.658   1.670   5.685 -1.3823  2.0696  1.5533
 1016MOL0     H40194  10.499   1.800   6.105 -3.0516 -1.3928 -2.7482
 1016MOL0     H40195  10.473   1.754   6.342  0.9774 -0.3575 -0.1819
 1016MOL0     H40196  10.414   1.443   6.646  0.0980  2.7956  0.0451
 1016MOL0     H40197  10.383   1.351   6.502  1.5259 -0.3056 -0.6992
 1016MOL0     H40198  10.654   1.474   6.520 -0.1571 -0.8342  0.3167
 1016MOL0     H40199  10.616   1.333   6.445  0.5444 -1.5584  0.1402
 1016MOL0     H40200  10.643   1.400   6.744 -1.1916 -1.8296  0.4300
 1016MOL0     H40201  10.585   1.240   6.696 -1.7544  0.5117 -1.0916
 1016MOL0     H40202  10.798   1.236   6.543 -0.3878 -1.9464  0.4718
 1016MOL0     H40203  10.795   1.176   6.706 -0.8341  0.3346  1.0323
 1016MOL0     H40204  11.044   1.499   6.763 -0.0466 -0.7071  1.3186
 1016MOL0     H40205  10.424   1.339   6.281 -0.0583 -0.4109  0.0673
 1016MOL0     H40206  10.367   1.319   5.937  0.3276 -6.0509 -0.4240
 1016MOL0     H40207  10.542   1.320   5.955  0.5837 -1.1915  2.0547
 1016MOL0     H40208  10.448   1.237   6.067  1.7401 -0.7066 -1.6908
 1017MOL0     O40209   5.730   5.702   5.480  0.2011 -0.0930  0.7717
 1017MOL0     C40210   5.818   5.663   5.554  0.8808  0.6210 -0.9308
 1017MOL0     O40211   5.800   5.607   5.670 -0.5125  0.4232 -0.8057
 1017MOL0     C40212   5.675   5.604   5.715  0.8289 -0.4199 -0.2182
 1017MOL0     C40213   5.640   5.682   5.826 -0.0746  0.8208 -0.0641
 1017MOL0     C40214   5.516   5.673   5.887  0.0523  0.0664  0.3953
 1017MOL0     C40215   5.417   5.585   5.835 -0.3896  0.9828  0.9816
 1017MOL0     O40216   5.284   5.587   5.881 -0.6800  0.0702 -0.1117
 1017MOL0     C40217   5.183   5.496   5.833 -0.1006 -0.0966  0.8812
 1017MOL0     C40218   5.067   5.564   5.752 -0.3642 -0.0378  0.8083
 1017MOL0     C40219   4.933   5.500   5.795 -0.8211 -0.2579  0.0041
 1017MOL0     C40220   4.816   5.557   5.728 -0.0569 -1.0916  0.5874
 1017MOL0     C40221   4.689   5.472   5.755  0.4466  0.5371 -0.5685
 1017MOL0     C40222   4.578   5.532   5.659 -0.2457  0.1684 -0.2784
 1017MOL0     C40223   4.464   5.431   5.646  0.1471  0.2313  0.1431
 1017MOL0     C40224   4.352   5.434   5.754 -0.6505  0.4014  0.4111
 1017MOL0     N40225   4.294   5.566   5.784 -0.6648 -0.4761 -0.4092
 1017MOL0     C40226   4.353   5.651   5.875  0.5247 -0.7217 -0.3244
 1017MOL0     C40227   4.277   5.764   5.871  0.7060 -0.0436 -0.2170
 1017MOL0     C40228   4.303   5.891   5.949 -0.3315  0.0037  0.1806
 1017MOL0     C40229   4.265   5.867   6.093 -0.0529 -0.4714  0.6408
 1017MOL0     C40230   4.344   5.960   6.188 -0.2245 -0.1555  0.2554
 1017MOL0     C40231   4.323   5.909   6.336  0.3403 -0.8099 -0.5376
 1017MOL0     O40232   4.353   6.009   6.439 -0.4288  0.1346 -0.2320
 1017MOL0     C40233   4.485   6.039   6.478 -0.9741 -0.3404 -0.8970
 1017MOL0     C40234   4.604   5.983   6.439  0.1118  0.6997 -0.0907
 1017MOL0     C40235   4.734   6.012   6.482 -0.2252 -0.3114  0.5611
 1017MOL0     C40236   4.850   5.962   6.412 -0.2267 -0.2341  0.4797
 1017MOL0     C40237   4.737   6.097   6.599  0.6798  0.2349  0.0218
 1017MOL0     C40238   4.863   6.141   6.658 -0.4139 -0.5123 -0.2719
 1017MOL0     O40239   4.848   6.244   6.751 -0.0970 -0.4451  0.3810
 1017MOL0     C40240   4.959   6.299   6.806  0.2746  0.7259 -0.6433
 1017MOL0     C40241   5.016   6.255   6.923  1.1368 -0.2352 -0.5977
 1017MOL0     C40242   5.128   6.319   6.976 -0.4502  0.0665  0.4750
 1017MOL0     C40243   5.182   6.423   6.912  0.5496 -0.3225 -1.0873
 1017MOL0     O40244   5.289   6.482   6.967  0.4148 -0.5507 -0.0923
 1017MOL0     C40245   5.324   6.618   6.952 -0.0641 -1.4085 -0.6180
 1017MOL0     C40246   5.466   6.645   6.979 -0.0690  0.5895  0.5689
 1017MOL0     C40247   5.562   6.598   6.880 -0.0655  0.2159 -0.1480
 1017MOL0     C40248   5.690   6.681   6.905  0.3988  1.0786 -0.1053
 1017MOL0     C40249   5.802   6.618   6.809  0.3017  0.2908 -0.8974
 1017MOL0     C40250   5.842   6.472   6.839 -0.1116  0.7190  0.7637
 1017MOL0     C40251   5.970   6.418   6.763 -0.0788 -0.3838 -0.9043
 1017MOL0     C40252   6.007   6.285   6.822  0.3669 -0.5904  0.1452
 1017MOL0    Cl40253   5.879   6.164   6.763 -0.6750  0.3774  0.0961
 1017MOL0     C40254   5.122   6.468   6.789 -0.5337  0.8391 -0.1745
 1017MOL0     C40255   5.013   6.406   6.739 -0.4276 -0.1660  1.0042
 1017MOL0     O40256   4.973   6.083   6.642 -0.4107 -0.6215  0.3115
 1017MOL0     C40257   4.616   6.145   6.656  0.2179  0.0515  0.5933
 1017MOL0     C40258   4.493   6.118   6.589 -0.1590  0.8155 -0.5142
 1017MOL0     N40259   4.176   5.748   5.778 -0.4106 -0.4110 -0.1441
 1017MOL0     N40260   4.185   5.626   5.734  0.1142  0.9618  0.5977
 1017MOL0     C40261   5.456   5.510   5.718 -0.0183 -0.0432  0.8434
 1017MOL0     C40262   5.579   5.519   5.662  0.5830  0.0025  0.4400
 1017MOL0     C40263   5.959   5.675   5.511 -0.2025 -0.2711 -0.9004
 1017MOL0     C40264   5.986   5.761   5.404  0.1180  0.7426  0.0126
 1017MOL0     C40265   6.117   5.782   5.358 -0.3588  0.4254 -0.2079
 1017MOL0     C40266   6.229   5.721   5.425  0.8194 -0.3701 -0.2472
 1017MOL0     O40267   6.348   5.763   5.367  0.9361  0.4843  0.0835
 1017MOL0     C40268   6.469   5.719   5.419  0.8750 -0.4989  0.7951
 1017MOL0     C40269   6.515   5.796   5.550  0.1171 -0.4165 -0.4803
 1017MOL0     C40270   6.629   5.714   5.619  0.8310 -1.4789 -0.3507
 1017MOL0     C40271   6.566   5.619   5.723 -0.1508 -0.0100  0.0263
 1017MOL0     C40272   6.664   5.567   5.816 -0.1400  0.4562 -0.1413
 1017MOL0     C40273   6.747   5.508   5.876  0.0129 -0.2021  0.2262
 1017MOL0     C40274   6.206   5.640   5.527  0.1388  0.7077  0.1574
 1017MOL0     C40275   6.076   5.621   5.580 -0.1146 -0.1519  0.9391
 1017MOL0     C40276   6.062   5.544   5.708  0.2307  0.2858  0.2190
 1017MOL0     H40277   5.720   5.737   5.875 -1.1478  0.0778  2.7547
 1017MOL0     H40278   5.492   5.727   5.978  2.0852  1.4285  0.1812
 1017MOL0     H40279   5.142   5.460   5.928 -0.0579 -0.0304  0.9245
 1017MOL0     H40280   5.229   5.412   5.780  2.8522  0.7513  1.9281
 1017MOL0     H40281   5.066   5.672   5.769 -2.2395 -0.1637  1.7137
 1017MOL0     H40282   5.083   5.558   5.644 -3.9158  1.5350  0.0681
 1017MOL0     H40283   4.949   5.395   5.768 -0.5630 -0.2565  0.1529
 1017MOL0     H40284   4.939   5.516   5.903  1.8940 -1.5320  0.1194
 1017MOL0     H40285   4.796   5.662   5.754  0.4817 -0.1013 -2.6247
 1017MOL0     H40286   4.837   5.536   5.623  0.9783 -3.0918  1.1512
 1017MOL0     H40287   4.660   5.484   5.860  0.9308 -0.4955 -0.3049
 1017MOL0     H40288   4.702   5.364   5.742 -1.9769  0.0331  0.6208
 1017MOL0     H40289   4.550   5.630   5.699  1.5274 -0.5744  3.0882
 1017MOL0     H40290   4.613   5.557   5.558  2.3875  1.9140  0.9707
 1017MOL0     H40291   4.503   5.329   5.654 -1.3343 -0.3915 -0.2658
 1017MOL0     H40292   4.419   5.440   5.547  3.0439 -1.0434 -1.4089
 1017MOL0     H40293   4.265   5.376   5.723 -1.5443  1.9939 -0.1935
 1017MOL0     H40294   4.395   5.398   5.848 -2.5234  2.1230  2.0167
 1017MOL0     H40295   4.438   5.632   5.940  0.2152  1.5138  0.8400
 1017MOL0     H40296   4.261   5.978   5.897  1.8356  0.5268 -0.8057
 1017MOL0     H40297   4.410   5.910   5.945 -0.5531  1.1279 -2.5863
 1017MOL0     H40298   4.156   5.863   6.091 -0.0269 -1.6026 -1.4016
 1017MOL0     H40299   4.300   5.766   6.117 -1.0770 -1.2277 -0.9269
 1017MOL0     H40300   4.448   5.942   6.160 -0.3182  1.5052 -1.4365
 1017MOL0     H40301   4.314   6.066   6.184 -1.6744 -0.2931  3.9124
 1017MOL0     H40302   4.216   5.888   6.340  0.4629 -1.8708 -2.1616
 1017MOL0     H40303   4.378   5.817   6.356  1.0010 -1.2916 -3.9688
 1017MOL0     H40304   4.603   5.916   6.354  0.1839  1.2517 -0.5297
 1017MOL0     H40305   4.821   5.920   6.315  1.1757  2.8442 -1.4306
 1017MOL0     H40306   4.903   5.884   6.467  0.2529 -3.4706 -4.0082
 1017MOL0     H40307   4.925   6.038   6.388 -1.9615  1.5077  0.3012
 1017MOL0     H40308   4.971   6.174   6.981 -0.4864  1.7065  1.0153
 1017MOL0     H40309   5.174   6.284   7.068  0.4693 -0.5914 -0.2168
 1017MOL0     H40310   5.308   6.656   6.851 -1.5771 -1.1775 -0.3130
 1017MOL0     H40311   5.262   6.672   7.024  0.2203 -2.4489  0.4374
 1017MOL0     H40312   5.485   6.752   6.992  1.0262  0.2801  1.7272
 1017MOL0     H40313   5.486   6.597   7.076 -3.9550 -2.2416  0.2140
 1017MOL0     H40314   5.525   6.619   6.779  1.5899  0.6653 -0.6907
 1017MOL0     H40315   5.574   6.491   6.898 -2.5312  0.2750  2.7059
 1017MOL0     H40316   5.734   6.666   7.004  0.3309 -1.0707 -0.3467
 1017MOL0     H40317   5.673   6.787   6.885 -4.0078  0.2522 -1.8831
 1017MOL0     H40318   5.772   6.630   6.705 -0.6594  0.8354 -0.5657
 1017MOL0     H40319   5.893   6.673   6.836  0.4059 -0.3947  0.2237
 1017MOL0     H40320   5.766   6.400   6.806 -0.4236  0.8971  1.0812
 1017MOL0     H40321   5.852   6.447   6.945 -0.8641  3.1238  1.4699
 1017MOL0     H40322   6.043   6.492   6.794  0.6854 -1.4155 -0.1859
 1017MOL0     H40323   5.957   6.418   6.654  2.0048  0.6008 -1.2056
 1017MOL0     H40324   5.995   6.289   6.931 -2.1891 -3.5183  0.1396
 1017MOL0     H40325   6.108   6.254   6.796 -0.1238 -2.3102  0.1387
 1017MOL0     H40326   5.161   6.560   6.745 -1.1113  1.4351  0.5331
 1017MOL0     H40327   4.975   6.427   6.640  3.0486  1.8770 -0.1066
 1017MOL0     H40328   4.620   6.209   6.744  3.9221  1.9345 -0.7358
 1017MOL0     H40329   4.398   6.157   6.624 -0.2164  0.4903 -0.3123
 1017MOL0     H40330   5.393   5.443   5.659  0.3324 -0.1064  0.5415
 1017MOL0     H40331   5.606   5.466   5.571 -2.8159  1.5242 -1.6614
 1017MOL0     H40332   5.903   5.808   5.353  1.0761  2.5015 -0.0133
 1017MOL0     H40333   6.135   5.849   5.274  0.4801  1.1435  0.5206
 1017MOL0     H40334   6.459   5.611   5.426  1.3999 -0.6333 -0.3740
 1017MOL0     H40335   6.544   5.724   5.340 -1.0942 -1.4151 -1.2569
 1017MOL0     H40336   6.433   5.814   5.620  2.7269  2.8851  2.0714
 1017MOL0     H40337   6.556   5.895   5.529  0.1836 -0.9081 -2.9812
 1017MOL0     H40338   6.699   5.673   5.547  1.8289 -2.3145  1.0512
 1017MOL0     H40339   6.686   5.783   5.682 -1.4262 -1.6287  2.0696
 1017MOL0     H40340   6.522   5.532   5.675 -0.2887  1.0648 -1.9035
 1017MOL0     H40341   6.488   5.667   5.783 -2.2294 -2.7668 -0.3148
 1017MOL0     H40342   6.822   5.456   5.933 -0.7299  2.4169  3.9730
 1017MOL0     H40343   6.291   5.591   5.575 -1.2330 -2.5722 -0.4522
 1017MOL0     H40344   6.011   5.449   5.687 -1.9547  1.6748 -1.3118
 1017MOL0     H40345   6.152   5.511   5.759  0.6894 -0.5606 -1.0984
 1017MOL0     H40346   6.002   5.606   5.776 -3.9585 -1.3298 -1.6570
 1018MOL0     O40347   4.666   4.820   9.463  0.3992 -0.1667  0.2730
 1018MOL0     C40348   4.619   4.708   9.435  0.3048  0.4078 -0.0100
 1018MOL0     O40349   4.691   4.598   9.399 -0.2584 -0.2235  0.4117
 1018MOL0     C40350   4.827   4.604   9.371 -0.8897 -0.1116  0.4833
 1018MOL0     C40351   4.919   4.678   9.454  0.6179 -0.3130 -0.6091
 1018MOL0     C40352   5.056   4.662   9.421  0.1945 -0.7720  0.2189
 1018MOL0     C40353   5.099   4.574   9.318 -0.8234  0.6139 -0.8187
 1018MOL0     O40354   5.227   4.530   9.294  0.6277 -0.1086 -0.7945
 1018MOL0     C40355   5.346   4.607   9.328 -0.1009 -0.1985 -0.1914
 1018MOL0     C40356   5.464   4.500   9.310  0.5566 -0.6888  0.3254
 1018MOL0     C40357   5.595   4.565   9.314 -0.5386 -0.2382 -0.2904
 1018MOL0     C40358   5.640   4.652   9.197 -0.0297  0.7736  0.5139
 1018MOL0     C40359   5.765   4.737   9.227 -0.1533 -0.0286  0.2092
 1018MOL0     C40360   5.890   4.643   9.224  0.2935  1.0735  0.1216
 1018MOL0     C40361   6.010   4.712   9.287  0.5074 -0.8298 -0.4987
 1018MOL0     C40362   6.080   4.825   9.210 -1.0673  0.1446 -0.4018
 1018MOL0     N40363   6.211   4.846   9.259 -0.1724 -0.7222 -0.2617
 1018MOL0     C40364   6.232   4.925   9.372  0.3335  0.5041 -0.2183
 1018MOL0     C40365   6.365   4.920   9.394  0.6216  0.3329 -0.4616
 1018MOL0     C40366   6.419   4.993   9.506  0.0225  0.3636  0.2056
 1018MOL0     C40367   6.561   4.947   9.545 -0.0277 -0.0052 -0.6560
 1018MOL0     C40368   6.664   4.978   9.432 -0.4732 -0.3533  0.0430
 1018MOL0     C40369   6.807   4.965   9.473 -0.7050 -0.3926  0.3031
 1018MOL0     O40370   6.841   5.060   9.581  0.0273  0.2998 -0.2848
 1018MOL0     C40371   6.968   5.064   9.617 -0.0088 -0.0319 -0.6685
 1018MOL0     C40372   7.077   4.997   9.568 -0.0891 -0.2119 -0.1843
 1018MOL0     C40373   7.209   5.010   9.624 -0.4684  0.0509 -0.6499
 1018MOL0     C40374   7.313   4.917   9.571  0.5567 -0.4905 -0.1398
 1018MOL0     C40375   7.226   5.089   9.733  0.6364 -0.1965 -0.3801
 1018MOL0     C40376   7.362   5.108   9.798 -0.0581  0.3770 -1.1216
 1018MOL0     O40377   7.353   5.143   9.929 -0.5487  0.1676 -0.4502
 1018MOL0     C40378   7.475   5.143  10.000 -0.1865  0.4216  0.1515
 1018MOL0     C40379   7.544   5.262  10.024 -0.3432 -0.1451  0.2106
 1018MOL0     C40380   7.653   5.256  10.112  0.1648  1.0685 -0.2037
 1018MOL0     C40381   7.703   5.139  10.161  0.2694  0.5935  0.1533
 1018MOL0     O40382   7.803   5.115  10.256  0.8567  0.5660 -0.3527
 1018MOL0     C40383   7.934   5.153  10.223  0.2016  0.3630  0.3220
 1018MOL0     C40384   8.037   5.107  10.333 -0.5009  0.1189 -0.4211
 1018MOL0     C40385   8.175   5.150  10.282 -1.2153  0.2154 -0.1629
 1018MOL0     C40386   8.286   5.095  10.374  0.4857 -0.1493  0.7663
 1018MOL0     C40387   8.424   5.150  10.348 -0.1585 -0.2610  0.8480
 1018MOL0     C40388   8.528   5.098  10.445 -0.3482  0.0653 -0.4200
 1018MOL0     C40389   8.663   5.134  10.390 -0.5417 -0.2730 -0.1115
 1018MOL0     C40390   8.685   5.281  10.359  0.6107  0.1275  0.2826
 1018MOL0    Cl40391   8.843   5.305  10.284 -0.0166  0.3428 -0.1552
 1018MOL0     C40392   7.639   5.020  10.123 -0.6150  0.7126 -0.2972
 1018MOL0     C40393   7.516   5.022  10.046 -0.3800  0.0698 -0.6427
 1018MOL0     O40394   7.462   5.077   9.739 -0.3584 -0.4140  0.0859
 1018MOL0     C40395   7.115   5.151   9.791 -0.4428  0.4308 -0.3200
 1018MOL0     C40396   6.989   5.143   9.733  0.0284 -0.4733 -0.2278
 1018MOL0     N40397   6.422   4.825   9.307 -0.6056  0.6105  0.8968
 1018MOL0     N40398   6.327   4.780   9.226 -0.4379 -0.1029 -0.2286
 1018MOL0     C40399   5.006   4.520   9.236 -0.2185  0.8441 -0.4257
 1018MOL0     C40400   4.872   4.519   9.272 -0.5969 -0.0066  0.6368
 1018MOL0     C40401   4.476   4.682   9.446 -0.1750  0.9799  0.0353
 1018MOL0     C40402   4.422   4.566   9.381  0.7470  0.3830 -0.8196
 1018MOL0     C40403   4.287   4.536   9.385 -0.5679 -0.2591 -0.3767
 1018MOL0     C40404   4.208   4.623   9.466  0.1896  0.6544  0.5641
 1018MOL0     O40405   4.071   4.611   9.492 -0.3216 -0.2937 -0.0128
 1018MOL0     C40406   4.015   4.490   9.449  0.0759 -0.2787 -0.2792
 1018MOL0     C40407   3.882   4.466   9.524  0.0581  0.0798  0.0323
 1018MOL0     C40408   3.767   4.532   9.454 -0.1667  0.3574 -0.2209
 1018MOL0     C40409   3.634   4.537   9.529 -0.1351 -0.1255  0.5262
 1018MOL0     C40410   3.539   4.626   9.460  0.5013 -0.5284  0.2002
 1018MOL0     C40411   3.456   4.687   9.392  0.7512 -0.8049  0.3444
 1018MOL0     C40412   4.266   4.724   9.534  0.9558 -0.0555 -0.2148
 1018MOL0     C40413   4.389   4.766   9.517 -1.2267 -0.7271  0.2874
 1018MOL0     C40414   4.427   4.894   9.596 -0.2271  0.1020 -0.4315
 1018MOL0     H40415   4.888   4.722   9.548  0.5695  0.3980 -0.9499
 1018MOL0     H40416   5.131   4.716   9.478  0.5983 -1.1012  0.0076
 1018MOL0     H40417   5.337   4.656   9.425  1.7324  0.6554 -0.4124
 1018MOL0     H40418   5.355   4.688   9.255 -1.6197  1.1123  1.0030
 1018MOL0     H40419   5.465   4.418   9.383 -1.3581 -1.6424 -0.6327
 1018MOL0     H40420   5.448   4.444   9.218 -2.0270 -1.6917  1.2838
 1018MOL0     H40421   5.603   4.621   9.407 -0.4628  1.1821 -1.1212
 1018MOL0     H40422   5.672   4.487   9.323  0.1075  0.4578  0.3779
 1018MOL0     H40423   5.665   4.590   9.111  0.0239 -0.1796  1.2027
 1018MOL0     H40424   5.553   4.716   9.178 -1.3204 -1.1692 -0.3581
 1018MOL0     H40425   5.755   4.796   9.319  1.8945 -2.4882  2.1397
 1018MOL0     H40426   5.773   4.810   9.145  3.0119  0.0730  0.4685
 1018MOL0     H40427   5.875   4.551   9.281  2.6629  1.1385  0.9914
 1018MOL0     H40428   5.906   4.614   9.120 -2.2191 -0.1556  0.0200
 1018MOL0     H40429   6.085   4.633   9.301  0.9699 -0.5211 -1.2171
 1018MOL0     H40430   5.980   4.747   9.386  1.8393 -3.3778  0.9305
 1018MOL0     H40431   6.085   4.784   9.108  0.5438 -0.2055 -0.2059
 1018MOL0     H40432   6.023   4.918   9.206 -3.6603 -1.1558  2.1090
 1018MOL0     H40433   6.152   4.986   9.412  2.1971  2.6800  0.3985
 1018MOL0     H40434   6.356   4.967   9.591 -2.5832  2.2247 -1.0229
 1018MOL0     H40435   6.417   5.101   9.486  1.7399  0.5842  1.0093
 1018MOL0     H40436   6.593   4.999   9.635  0.4487 -1.2424 -0.0827
 1018MOL0     H40437   6.549   4.844   9.582  0.3069  0.3596  0.4935
 1018MOL0     H40438   6.644   4.899   9.360 -0.2332 -1.1828  0.8669
 1018MOL0     H40439   6.646   5.078   9.392 -3.1679 -0.2809  1.2225
 1018MOL0     H40440   6.822   4.863   9.509  2.0010  0.2467  1.2503
 1018MOL0     H40441   6.880   4.979   9.392  1.5565 -1.6838  1.9843
 1018MOL0     H40442   7.064   4.918   9.495  0.6541 -1.8450  1.3707
 1018MOL0     H40443   7.385   4.975   9.513 -2.9313  2.0322 -2.3978
 1018MOL0     H40444   7.272   4.844   9.500  3.4990 -0.4365 -2.0476
 1018MOL0     H40445   7.354   4.859   9.654 -0.9336 -4.3676 -1.8417
 1018MOL0     H40446   7.501   5.359  10.002  0.4521  0.5956  1.7969
 1018MOL0     H40447   7.689   5.352  10.146 -1.3394  1.3172  0.7961
 1018MOL0     H40448   7.959   5.097  10.133 -3.3416 -2.4538  0.8502
 1018MOL0     H40449   7.935   5.262  10.212  1.5803  0.4462  1.1027
 1018MOL0     H40450   8.013   5.141  10.434  1.1090 -1.2325  0.4728
 1018MOL0     H40451   8.043   4.998  10.344  0.9265  0.1820 -0.2550
 1018MOL0     H40452   8.180   5.259  10.287  1.7547  0.0784  2.8505
 1018MOL0     H40453   8.188   5.119  10.178  1.7171 -2.8641  0.9649
 1018MOL0     H40454   8.288   4.986  10.364 -1.9569 -0.0206 -4.0621
 1018MOL0     H40455   8.261   5.110  10.479  0.4748 -1.6406  1.0041
 1018MOL0     H40456   8.462   5.132  10.247  1.7334  0.9397  1.2764
 1018MOL0     H40457   8.408   5.258  10.360  0.8807 -0.0775  0.7167
 1018MOL0     H40458   8.531   4.989  10.446 -1.3968  0.0195 -0.9552
 1018MOL0     H40459   8.524   5.133  10.548 -1.5415  0.5363 -0.6034
 1018MOL0     H40460   8.697   5.078  10.303 -1.0001 -2.7364  1.2091
 1018MOL0     H40461   8.734   5.109  10.469 -1.9974 -1.2040  0.9604
 1018MOL0     H40462   8.662   5.342  10.446 -2.1402 -1.7938  1.0127
 1018MOL0     H40463   8.612   5.303  10.281 -1.3364 -0.2517  1.9268
 1018MOL0     H40464   7.672   4.928  10.172 -3.0782 -0.7880 -1.2831
 1018MOL0     H40465   7.455   4.932  10.049  1.6867 -1.3965 -0.6774
 1018MOL0     H40466   7.131   5.211   9.879 -0.4068  2.4958 -1.6744
 1018MOL0     H40467   6.912   5.199   9.786  0.6534  2.0559 -1.8384
 1018MOL0     H40468   5.041   4.445   9.167  0.9285 -0.8988  1.9075
 1018MOL0     H40469   4.813   4.448   9.214 -0.3990 -0.4715  1.0015
 1018MOL0     H40470   4.490   4.511   9.316 -1.9632 -0.9468 -2.7949
 1018MOL0     H40471   4.250   4.443   9.344 -0.4191 -1.2262  1.5949
 1018MOL0     H40472   4.000   4.491   9.341  0.4934  1.1237 -0.3394
 1018MOL0     H40473   4.081   4.410   9.483  1.6332  0.6717 -0.9296
 1018MOL0     H40474   3.895   4.497   9.628  0.2936  0.8910 -0.2353
 1018MOL0     H40475   3.856   4.360   9.528 -0.6901  0.2920  1.8534
 1018MOL0     H40476   3.797   4.635   9.435 -1.0295  0.4828 -0.9473
 1018MOL0     H40477   3.758   4.476   9.360  1.5545  0.1282 -0.2928
 1018MOL0     H40478   3.655   4.574   9.630 -1.0228 -1.5787  1.2825
 1018MOL0     H40479   3.594   4.437   9.550  2.5566 -0.9891  2.1065
 1018MOL0     H40480   3.375   4.739   9.345  0.4783  1.5338  3.0924
 1018MOL0     H40481   4.192   4.774   9.595 -0.0302  0.9275 -2.1242
 1018MOL0     H40482   4.458   4.873   9.699 -0.3805  1.2802 -0.1399
 1018MOL0     H40483   4.503   4.955   9.546  1.5309 -0.9067  0.8573
 1018MOL0     H40484   4.338   4.957   9.596 -0.6644 -0.4627 -2.1443
 1019MOL0     O40485   3.048   9.795   2.560 -0.1602  0.0759  0.4223
 1019MOL0     C40486   3.009   9.889   2.504 -0.0375  0.6945 -0.9284
 1019MOL0     O40487   3.081   9.965   2.418  0.5064  0.1303  0.2223
 1019MOL0     C40488   3.220   9.943   2.417  0.0382 -0.0377 -0.6567
 1019MOL0     C40489   3.287   9.846   2.349  0.3837  0.0259 -0.0180
 1019MOL0     C40490   3.427   9.830   2.333 -0.0173 -0.1441  0.3917
 1019MOL0     C40491   3.509   9.919   2.408  0.3579 -0.0639 -0.3845
 1019MOL0     O40492   3.651   9.902   2.403  0.6577  0.2235 -0.0212
 1019MOL0     C40493   3.694   9.766   2.378  0.2059 -0.0886  0.3986
 1019MOL0     C40494   3.842   9.735   2.417 -0.4204  0.2027  0.2074
 1019MOL0     C40495   3.874   9.778   2.565 -0.9138 -0.0501  1.0287
 1019MOL0     C40496   3.934   9.922   2.561  0.2353  0.1173 -0.2861
 1019MOL0     C40497   4.093   9.914   2.534  0.0231 -0.5089  0.5247
 1019MOL0     C40498   4.151  10.045   2.478 -0.3084  0.9182 -1.0384
 1019MOL0     C40499   4.290  10.025   2.403  0.2174  1.1361  0.2842
 1019MOL0     C40500   4.388   9.964   2.504 -0.6834  0.2371  0.0628
 1019MOL0     N40501   4.524  10.027   2.488  0.1885 -0.0383  0.4882
 1019MOL0     C40502   4.589  10.028   2.368  0.3747 -0.5724 -0.0890
 1019MOL0     C40503   4.695  10.115   2.377  0.4293  0.8204  0.3534
 1019MOL0     C40504   4.801  10.127   2.272 -0.3885  0.1767 -0.6057
 1019MOL0     C40505   4.855  10.265   2.265  0.7858 -0.0311  0.2499
 1019MOL0     C40506   4.744  10.365   2.273  0.4381 -0.4285  0.8283
 1019MOL0     C40507   4.802  10.510   2.225  0.1662 -0.5173 -0.1974
 1019MOL0     O40508   4.927  10.552   2.287 -0.4617 -0.0030 -0.2954
 1019MOL0     C40509   4.918  10.611   2.414  0.3374 -0.1442  0.1607
 1019MOL0     C40510   4.807  10.673   2.465  1.0060 -0.2285 -0.0582
 1019MOL0     C40511   4.807  10.745   2.586  1.4635 -0.3766  0.0038
 1019MOL0     C40512   4.687  10.816   2.633 -0.8691 -0.4920 -1.3201
 1019MOL0     C40513   4.925  10.736   2.663 -0.2430 -0.3010  0.4416
 1019MOL0     C40514   4.937  10.789   2.801  0.5925  0.0557  0.7755
 1019MOL0     O40515   5.057  10.819   2.854 -0.1863 -0.4256  1.2450
 1019MOL0     C40516   5.075  10.882   2.974 -0.7245  0.0990  0.2001
 1019MOL0     C40517   5.207  10.879   3.022  0.7120  0.3187 -0.5587
 1019MOL0     C40518   5.254  10.943   3.140  0.3004 -0.0912 -0.3411
 1019MOL0     C40519   5.152  11.001   3.221 -0.1794 -0.0819 -0.6408
 1019MOL0     O40520   5.186  11.056   3.347 -0.4210  0.2338 -0.6911
 1019MOL0     C40521   5.086  11.050   3.457  0.4495  0.1904 -0.1188
 1019MOL0     C40522   5.050  10.912   3.516 -0.0392  0.1863  0.2865
 1019MOL0     C40523   5.165  10.853   3.598  0.4641 -0.0603 -0.1202
 1019MOL0     C40524   5.172  10.908   3.731 -0.0689  0.0346  0.2812
 1019MOL0     C40525   5.268  10.823   3.811  0.0303  0.5851  0.7717
 1019MOL0     C40526   5.199  10.699   3.878 -0.3599  1.0462  0.2194
 1019MOL0     C40527   5.116  10.739   3.994  0.3907  0.4740  0.8548
 1019MOL0     C40528   5.103  10.621   4.097  0.0756 -0.1614  0.8539
 1019MOL0    Cl40529   5.254  10.591   4.179  0.1266  0.2063 -0.0264
 1019MOL0     C40530   5.013  11.003   3.181 -1.0439 -1.0181 -0.1135
 1019MOL0     C40531   4.983  10.958   3.051 -0.0082  0.2790  0.4047
 1019MOL0     O40532   4.829  10.791   2.864  0.2166  0.1787  0.7348
 1019MOL0     C40533   5.041  10.671   2.611  0.7508 -0.4552 -0.2188
 1019MOL0     C40534   5.038  10.622   2.482 -0.3692 -0.9163  0.4006
 1019MOL0     N40535   4.693  10.159   2.509  0.0383 -0.5845  0.4610
 1019MOL0     N40536   4.587  10.113   2.566  0.1344  0.5809 -0.1868
 1019MOL0     C40537   3.446  10.009   2.494  0.3467 -0.6224  1.0366
 1019MOL0     C40538   3.306  10.031   2.491  0.6978 -0.4593 -0.0470
 1019MOL0     C40539   2.870   9.935   2.534 -0.6144 -1.0196 -0.2821
 1019MOL0     C40540   2.838   9.969   2.664 -0.3410  0.0888  0.5751
 1019MOL0     C40541   2.706  10.014   2.694  0.0943 -0.1671 -0.3462
 1019MOL0     C40542   2.609  10.031   2.591 -0.4221  0.2201 -0.2825
 1019MOL0     O40543   2.480  10.084   2.600 -0.9230  0.2869  0.1315
 1019MOL0     C40544   2.433  10.126   2.731  0.1920  0.1155  0.0228
 1019MOL0     C40545   2.308  10.217   2.715  0.4073  0.2574 -0.2079
 1019MOL0     C40546   2.185  10.138   2.650 -0.5772  0.1528  0.6892
 1019MOL0     C40547   2.072  10.238   2.655  0.2345 -0.4396 -0.4691
 1019MOL0     C40548   1.954  10.184   2.595  0.1280 -0.1719 -0.2013
 1019MOL0     C40549   1.852  10.134   2.551  0.3949  0.4781  0.5289
 1019MOL0     C40550   2.650  10.004   2.459 -0.2002  0.8554 -0.9906
 1019MOL0     C40551   2.778   9.953   2.430  0.8169  0.4017  0.7877
 1019MOL0     C40552   2.809   9.927   2.283 -0.3645  0.2691  0.2217
 1019MOL0     H40553   3.215   9.787   2.293 -1.2491  1.2456  0.7361
 1019MOL0     H40554   3.475   9.770   2.257  0.0951  0.2658  0.1354
 1019MOL0     H40555   3.694   9.738   2.272  1.3002 -1.3264  0.7021
 1019MOL0     H40556   3.639   9.691   2.435  0.0851 -0.5851 -0.3506
 1019MOL0     H40557   3.857   9.627   2.404  2.4346  0.6744 -1.3268
 1019MOL0     H40558   3.908   9.782   2.344  1.9812 -1.3229  1.2650
 1019MOL0     H40559   3.788   9.770   2.631 -1.5756 -0.3827  0.1524
 1019MOL0     H40560   3.951   9.712   2.604  0.1651  0.6612  0.1815
 1019MOL0     H40561   3.890   9.990   2.488  0.3430  1.3312  0.7343
 1019MOL0     H40562   3.915   9.965   2.660 -0.3101 -1.0098  0.1293
 1019MOL0     H40563   4.122   9.832   2.467  3.1359  1.2493 -0.4379
 1019MOL0     H40564   4.149   9.897   2.627 -0.3437  0.5347  0.9542
 1019MOL0     H40565   4.069  10.080   2.413 -2.5797  0.6770  1.5175
 1019MOL0     H40566   4.162  10.114   2.562  0.9157 -1.6088  1.0131
 1019MOL0     H40567   4.332  10.121   2.372  2.3556  0.7883  1.8553
 1019MOL0     H40568   4.290   9.969   2.309 -0.1017 -0.9829  1.4766
 1019MOL0     H40569   4.360   9.971   2.610  0.8063 -3.7883  0.8854
 1019MOL0     H40570   4.390   9.856   2.485  2.2771  0.6637 -2.9166
 1019MOL0     H40571   4.569   9.968   2.280  1.1332 -2.0158  0.6843
 1019MOL0     H40572   4.763  10.091   2.176  1.5531  0.5380 -1.5768
 1019MOL0     H40573   4.881  10.057   2.298 -0.2728  0.6521  0.3582
 1019MOL0     H40574   4.925  10.283   2.347  0.2450  0.8029  0.5347
 1019MOL0     H40575   4.911  10.277   2.171 -1.2040 -0.5258 -1.0502
 1019MOL0     H40576   4.661  10.341   2.207 -0.0207  1.7002  0.5641
 1019MOL0     H40577   4.702  10.374   2.374  0.4993 -0.7523  0.8856
 1019MOL0     H40578   4.809  10.509   2.116 -1.9752  2.1644 -0.4605
 1019MOL0     H40579   4.720  10.581   2.239  0.2058 -0.6992  1.1323
 1019MOL0     H40580   4.712  10.677   2.414  0.6416  0.5044  0.6474
 1019MOL0     H40581   4.645  10.777   2.726  1.9224 -1.1482 -0.2111
 1019MOL0     H40582   4.620  10.835   2.549 -0.6769  2.8751 -0.8728
 1019MOL0     H40583   4.717  10.917   2.665  1.6369 -1.1231 -1.4374
 1019MOL0     H40584   5.277  10.831   2.955  0.8448  2.4731 -2.0631
 1019MOL0     H40585   5.358  10.948   3.170  1.1445  4.0966 -3.0759
 1019MOL0     H40586   5.127  11.111   3.538 -2.9823  1.5589  0.7691
 1019MOL0     H40587   4.996  11.102   3.423 -0.5637 -0.7080  1.0895
 1019MOL0     H40588   4.959  10.933   3.573  0.4928 -0.9360  1.6094
 1019MOL0     H40589   5.011  10.847   3.438  3.0731 -0.4805 -0.8230
 1019MOL0     H40590   5.264  10.861   3.554  1.0158  0.8283  1.2432
 1019MOL0     H40591   5.143  10.745   3.601 -2.6810  0.4582 -0.2915
 1019MOL0     H40592   5.074  10.914   3.779 -0.0482  1.1939  0.1987
 1019MOL0     H40593   5.211  11.010   3.737 -1.9178  0.8665 -0.6181
 1019MOL0     H40594   5.348  10.787   3.746  0.3893  1.3753  0.7716
 1019MOL0     H40595   5.312  10.883   3.891  1.9615  3.0548 -1.9680
 1019MOL0     H40596   5.282  10.635   3.910 -1.1790 -0.5048 -0.6192
 1019MOL0     H40597   5.153  10.633   3.804  0.8043  1.2157 -0.6862
 1019MOL0     H40598   5.015  10.767   3.962 -0.8517 -3.6860  0.6219
 1019MOL0     H40599   5.158  10.827   4.044  0.2008  1.0271  0.0659
 1019MOL0     H40600   5.067  10.540   4.032  0.3503 -0.4230  1.0276
 1019MOL0     H40601   5.026  10.651   4.167 -0.6103 -0.7327  0.3607
 1019MOL0     H40602   4.938  11.035   3.251  1.0464  0.3778  1.6148
 1019MOL0     H40603   4.878  10.965   3.026 -0.5769  0.7217  2.7568
 1019MOL0     H40604   5.132  10.659   2.669 -1.7650 -1.1174  3.9782
 1019MOL0     H40605   5.122  10.570   2.435 -1.2778  0.4631 -3.0154
 1019MOL0     H40606   3.518  10.071   2.547 -0.5495  0.0865  1.4694
 1019MOL0     H40607   3.263  10.110   2.551 -1.0892  0.1895 -2.0323
 1019MOL0     H40608   2.914   9.959   2.740 -0.3246 -1.0182  0.4231
 1019MOL0     H40609   2.674  10.034   2.796  0.8847  0.4196 -0.2024
 1019MOL0     H40610   2.404  10.035   2.784 -2.5071  0.3477 -0.8875
 1019MOL0     H40611   2.505  10.183   2.790 -0.3506  1.3705 -0.4965
 1019MOL0     H40612   2.337  10.302   2.653  0.5429 -0.9930 -1.9181
 1019MOL0     H40613   2.281  10.251   2.815 -3.3541 -3.2865  0.2518
 1019MOL0     H40614   2.200  10.117   2.544 -2.9907 -0.9355  0.4838
 1019MOL0     H40615   2.171  10.042   2.700  0.2283 -0.1926  0.2627
 1019MOL0     H40616   2.099  10.335   2.612 -0.8959 -1.0429 -2.6812
 1019MOL0     H40617   2.049  10.259   2.759 -1.5146  1.4959 -1.1790
 1019MOL0     H40618   1.759  10.083   2.531  0.7822  0.3632 -1.1038
 1019MOL0     H40619   2.576  10.027   2.383 -1.5174 -0.9619 -0.3223
 1019MOL0     H40620   2.886   9.851   2.276 -0.9501 -0.3369  0.2866
 1019MOL0     H40621   2.718   9.893   2.232  1.0564  0.0489 -2.2832
 1019MOL0     H40622   2.841  10.024   2.244  2.8423 -0.5578  0.5358
 1020MOL0     O40623   4.537   9.194   6.403  0.7518 -0.2644 -0.0768
 1020MOL0     C40624   4.561   9.072   6.400 -0.2927  0.7277 -0.7817
 1020MOL0     O40625   4.529   8.983   6.298  0.3573 -0.1537 -0.2836
 1020MOL0     C40626   4.442   9.020   6.201  0.3367 -0.6316  0.2931
 1020MOL0     C40627   4.309   9.052   6.232 -0.8442 -0.1572  0.3569
 1020MOL0     C40628   4.211   9.076   6.137  1.3482 -0.4173 -0.5886
 1020MOL0     C40629   4.231   9.040   6.000 -0.7747 -1.1122 -0.1039
 1020MOL0     O40630   4.143   9.053   5.897  0.0566 -0.6179 -0.4722
 1020MOL0     C40631   4.016   9.115   5.920  0.4504  0.4116 -0.1698
 1020MOL0     C40632   3.909   9.016   5.959 -0.4726 -0.0764  0.5782
 1020MOL0     C40633   3.769   9.077   5.941  0.0214 -0.3192 -0.3360
 1020MOL0     C40634   3.651   8.983   5.980  0.5374  0.1662 -0.1142
 1020MOL0     C40635   3.511   9.059   5.977 -0.8375  0.1299 -0.3873
 1020MOL0     C40636   3.395   8.973   5.983  0.6026 -0.8149  0.2136
 1020MOL0     C40637   3.405   8.857   6.085 -0.9359  0.1162 -0.3416
 1020MOL0     C40638   3.273   8.839   6.148  0.4538  0.7149  0.0063
 1020MOL0     N40639   3.164   8.802   6.053  0.8466  0.2628  0.4427
 1020MOL0     C40640   3.146   8.673   6.004 -0.6084  0.6281 -0.2575
 1020MOL0     C40641   3.071   8.689   5.899  0.6751  0.4997 -1.1803
 1020MOL0     C40642   3.022   8.584   5.801  0.1981 -0.0412 -0.0036
 1020MOL0     C40643   2.875   8.553   5.822 -0.3700 -0.6808  0.2104
 1020MOL0     C40644   2.831   8.453   5.720 -0.4274 -0.9304 -0.9114
 1020MOL0     C40645   2.697   8.386   5.747 -0.1651  0.0217  0.5022
 1020MOL0     O40646   2.697   8.287   5.850  0.4293 -0.7781 -0.5736
 1020MOL0     C40647   2.596   8.197   5.865 -0.6326  0.0788  0.1311
 1020MOL0     C40648   2.596   8.118   5.983  0.2947  0.1772  0.0825
 1020MOL0     C40649   2.488   8.040   6.008  0.4302  0.9830  0.5674
 1020MOL0     C40650   2.471   7.988   6.153 -0.2619  1.1453  0.0233
 1020MOL0     C40651   2.392   8.009   5.905  0.5277  0.4697  0.1899
 1020MOL0     C40652   2.295   7.897   5.912  0.0897  0.6155  0.4226
 1020MOL0     O40653   2.181   7.912   5.842  0.3348  0.7461  0.0272
 1020MOL0     C40654   2.090   7.814   5.814 -0.0754  0.4287 -1.1918
 1020MOL0     C40655   1.967   7.822   5.874  1.0412 -0.1802 -0.1443
 1020MOL0     C40656   1.879   7.710   5.855 -0.8316 -0.0359 -0.1058
 1020MOL0     C40657   1.906   7.602   5.770  0.2440 -0.3762 -0.1850
 1020MOL0     O40658   1.809   7.504   5.771 -0.0672  0.1335  0.0827
 1020MOL0     C40659   1.834   7.378   5.707  0.0969  0.0024  0.2114
 1020MOL0     C40660   1.766   7.266   5.781  0.3141  0.7215 -0.4324
 1020MOL0     C40661   1.615   7.265   5.762  0.2086  0.8047 -0.9141
 1020MOL0     C40662   1.565   7.153   5.661 -0.1451  0.3021  0.2685
 1020MOL0     C40663   1.409   7.153   5.656 -0.1586 -0.5891  1.1870
 1020MOL0     C40664   1.336   7.121   5.787  1.1960 -0.5338 -0.1462
 1020MOL0     C40665   1.177   7.125   5.770 -0.5295 -0.8604  0.7120
 1020MOL0     C40666   1.122   7.259   5.719 -0.0553 -0.0120 -1.1225
 1020MOL0    Cl40667   0.961   7.276   5.786 -0.1704  0.4730 -0.1513
 1020MOL0     C40668   2.033   7.595   5.716 -0.1117  0.0332  0.3784
 1020MOL0     C40669   2.131   7.699   5.739  0.2610 -0.4447 -0.4926
 1020MOL0     O40670   2.322   7.798   5.979  0.4010 -0.1557  0.6325
 1020MOL0     C40671   2.402   8.073   5.775  0.6790 -0.7601 -0.0727
 1020MOL0     C40672   2.504   8.172   5.758  0.6617 -0.1340 -0.8088
 1020MOL0     N40673   3.017   8.810   5.896  0.2407  0.8035 -0.3961
 1020MOL0     N40674   3.077   8.887   5.986  0.1349  0.6541  0.4979
 1020MOL0     C40675   4.365   8.990   5.972 -0.0546  0.2086  0.2685
 1020MOL0     C40676   4.469   8.990   6.071 -0.0663  0.2799  0.3903
 1020MOL0     C40677   4.624   9.004   6.514 -1.0414 -0.0958 -0.4933
 1020MOL0     C40678   4.708   8.886   6.490  0.1749 -0.2002  0.6905
 1020MOL0     C40679   4.790   8.843   6.596  0.6220 -0.3610  0.9441
 1020MOL0     C40680   4.784   8.891   6.726 -0.5161 -0.9099 -0.3890
 1020MOL0     O40681   4.876   8.833   6.813  0.2363  0.7029  0.2025
 1020MOL0     C40682   4.925   8.908   6.922 -0.1184 -0.2520  0.8036
 1020MOL0     C40683   5.061   8.862   6.964 -0.3929  1.0695  0.1277
 1020MOL0     C40684   5.078   8.716   6.998 -0.6710 -0.4483  0.3104
 1020MOL0     C40685   5.227   8.690   7.042  0.3795  0.9423  0.5130
 1020MOL0     C40686   5.332   8.757   6.968 -0.5484 -0.5623 -0.4453
 1020MOL0     C40687   5.418   8.818   6.910 -0.4943 -0.4517  0.0295
 1020MOL0     C40688   4.700   8.993   6.751 -0.1965  0.1421 -0.5049
 1020MOL0     C40689   4.622   9.050   6.650 -0.1382  0.2190  0.2958
 1020MOL0     C40690   4.517   9.151   6.703  0.3699 -0.5723  0.0598
 1020MOL0     H40691   4.300   9.069   6.339  1.0707  0.4001  0.4736
 1020MOL0     H40692   4.117   9.110   6.180  2.3884  0.0670  1.4308
 1020MOL0     H40693   3.994   9.155   5.821  1.3565  0.7265 -0.2583
 1020MOL0     H40694   4.006   9.199   5.990 -3.1862  1.9820 -2.2720
 1020MOL0     H40695   3.912   8.932   5.889 -3.1283  0.3063 -0.1125
 1020MOL0     H40696   3.921   8.985   6.063  1.3159 -2.9635 -0.3729
 1020MOL0     H40697   3.783   9.169   5.998  3.2170 -0.0133 -1.4574
 1020MOL0     H40698   3.752   9.104   5.836  0.9078  4.3055  0.5037
 1020MOL0     H40699   3.644   8.894   5.916 -1.7872 -1.0246  1.6384
 1020MOL0     H40700   3.673   8.936   6.076  1.5174  1.9278  0.5640
 1020MOL0     H40701   3.497   9.127   5.892 -2.3738 -1.4011 -1.4264
 1020MOL0     H40702   3.511   9.121   6.067  1.8145  0.4416 -0.5189
 1020MOL0     H40703   3.311   9.040   6.002  0.2032 -1.4661  0.8179
 1020MOL0     H40704   3.384   8.930   5.883  0.9428  1.8100 -1.0294
 1020MOL0     H40705   3.478   8.879   6.163 -0.1180 -2.1281 -0.4021
 1020MOL0     H40706   3.448   8.770   6.034 -0.4184 -1.8247  3.0724
 1020MOL0     H40707   3.275   8.757   6.221 -0.2162  0.6008 -0.0991
 1020MOL0     H40708   3.255   8.924   6.215  1.9705 -0.6545  2.3037
 1020MOL0     H40709   3.197   8.584   6.039  1.0971  1.6285 -0.0752
 1020MOL0     H40710   3.082   8.493   5.799  3.8041  2.0940 -2.5758
 1020MOL0     H40711   3.038   8.627   5.702 -0.6879 -2.0879 -1.0855
 1020MOL0     H40712   2.872   8.505   5.920  2.0177  3.1140  2.4190
 1020MOL0     H40713   2.809   8.640   5.815 -0.0587 -0.4759 -0.2082
 1020MOL0     H40714   2.834   8.510   5.626  1.4900  0.7390  0.0931
 1020MOL0     H40715   2.906   8.373   5.717  1.1307  0.4666 -1.0574
 1020MOL0     H40716   2.617   8.452   5.782 -0.5823 -0.8659  1.2499
 1020MOL0     H40717   2.670   8.345   5.650  0.0688  1.8791 -0.4037
 1020MOL0     H40718   2.678   8.141   6.050  2.7779  1.7876 -3.1871
 1020MOL0     H40719   2.366   7.960   6.166 -0.0059 -0.7222 -1.4126
 1020MOL0     H40720   2.494   8.064   6.228 -1.3832  0.0234  1.5446
 1020MOL0     H40721   2.519   7.890   6.166 -3.1397 -0.2870  0.5168
 1020MOL0     H40722   1.940   7.915   5.923  2.5143 -0.0608  0.4736
 1020MOL0     H40723   1.780   7.717   5.899 -0.1292 -1.4141  1.8803
 1020MOL0     H40724   1.800   7.376   5.603 -0.0736 -3.3708  0.2238
 1020MOL0     H40725   1.942   7.360   5.707  0.0997 -0.1165  1.5382
 1020MOL0     H40726   1.794   7.168   5.742 -0.6475 -1.4970  3.9150
 1020MOL0     H40727   1.798   7.265   5.885  2.4810  0.7727 -1.0479
 1020MOL0     H40728   1.588   7.365   5.726  1.8662  2.1632  1.3605
 1020MOL0     H40729   1.576   7.238   5.861 -1.4801 -1.8161 -2.1633
 1020MOL0     H40730   1.594   7.048   5.677  1.2933 -0.0228 -3.4101
 1020MOL0     H40731   1.598   7.166   5.557 -0.6357 -3.0312 -0.4473
 1020MOL0     H40732   1.377   7.249   5.615  0.9212 -0.7796 -0.2124
 1020MOL0     H40733   1.385   7.079   5.578 -0.5807  1.1026 -0.3516
 1020MOL0     H40734   1.364   7.190   5.867 -2.5978  4.8509 -2.8712
 1020MOL0     H40735   1.353   7.014   5.803  5.1866 -0.4546 -2.4114
 1020MOL0     H40736   1.127   7.091   5.860 -0.3603 -2.2257  0.3027
 1020MOL0     H40737   1.144   7.058   5.691 -1.0329  1.4639 -1.1939
 1020MOL0     H40738   1.127   7.254   5.609 -2.0325  1.6516 -1.3613
 1020MOL0     H40739   1.189   7.341   5.749  0.8061 -0.7650 -0.9583
 1020MOL0     H40740   2.056   7.519   5.643 -3.7743 -0.5891 -0.2995
 1020MOL0     H40741   2.226   7.684   5.688 -0.1807 -0.5500 -1.2914
 1020MOL0     H40742   2.334   8.044   5.695 -0.7336  1.1049  0.3890
 1020MOL0     H40743   2.501   8.212   5.657  0.1911 -0.7003 -1.0271
 1020MOL0     H40744   4.377   8.972   5.865 -0.8386  2.4777 -0.2509
 1020MOL0     H40745   4.568   8.954   6.045 -0.2379 -1.1569  1.5874
 1020MOL0     H40746   4.715   8.835   6.394 -1.3314 -0.1789  0.5537
 1020MOL0     H40747   4.865   8.769   6.572 -0.7718 -0.6170 -3.5646
 1020MOL0     H40748   4.938   9.010   6.886  1.4220  0.2669  2.6406
 1020MOL0     H40749   4.850   8.898   7.001 -1.5061  1.0771 -0.2849
 1020MOL0     H40750   5.092   8.929   7.046 -1.1807 -0.1301  1.4495
 1020MOL0     H40751   5.132   8.883   6.884 -1.7747 -1.0478 -1.7734
 1020MOL0     H40752   5.004   8.702   7.077 -1.5786 -1.9635 -0.7298
 1020MOL0     H40753   5.040   8.647   6.921  0.4959  0.7454 -1.4184
 1020MOL0     H40754   5.258   8.586   7.055  2.8862  1.6190  0.5486
 1020MOL0     H40755   5.244   8.720   7.145 -0.6208 -0.1916  1.0269
 1020MOL0     H40756   5.498   8.860   6.851 -0.1113 -0.2226  0.6971
 1020MOL0     H40757   4.698   9.043   6.847  1.4962  3.1739 -1.9042
 1020MOL0     H40758   4.511   9.156   6.812  0.7022 -0.1725  0.0640
 1020MOL0     H40759   4.534   9.250   6.660 -0.4227  0.3448  1.7380
 1020MOL0     H40760   4.420   9.117   6.666  1.0935 -2.5396 -0.1722
 1021MOL0     O40761   8.377   1.388   1.313 -0.0046  0.0503  0.0223
 1021MOL0     C40762   8.291   1.421   1.236  0.6005  0.6013 -0.5520
 1021MOL0     O40763   8.269   1.544   1.186  0.0978 -0.9712  0.0381
 1021MOL0     C40764   8.386   1.616   1.183 -0.0862  0.2295 -0.0034
 1021MOL0     C40765   8.434   1.688   1.300  0.6704 -0.4383 -0.1200
 1021MOL0     C40766   8.550   1.767   1.300 -0.7435  0.0932  0.4185
 1021MOL0     C40767   8.631   1.777   1.179  1.1739  0.2539  0.8442
 1021MOL0     O40768   8.751   1.839   1.172  0.8795  0.3688  0.0191
 1021MOL0     C40769   8.823   1.869   1.289  0.1576 -0.3262  0.0381
 1021MOL0     C40770   8.970   1.911   1.274  0.6173 -0.0094 -0.6789
 1021MOL0     C40771   8.993   2.031   1.176  0.6349 -0.0051 -1.1052
 1021MOL0     C40772   9.146   2.064   1.162  0.0917  0.2823 -0.1097
 1021MOL0     C40773   9.163   2.143   1.029 -0.2606 -0.0810 -0.5276
 1021MOL0     C40774   9.288   2.222   1.034  0.4660 -0.6161 -0.2661
 1021MOL0     C40775   9.290   2.326   0.925  0.4141 -0.1035  1.1622
 1021MOL0     C40776   9.385   2.439   0.955  0.0031  0.6147 -0.3517
 1021MOL0     N40777   9.510   2.383   0.964  0.0142 -0.4892 -0.0384
 1021MOL0     C40778   9.589   2.369   1.082 -0.3340 -0.6149  0.6340
 1021MOL0     C40779   9.696   2.303   1.045  0.4841  0.6220  0.2389
 1021MOL0     C40780   9.807   2.270   1.136  0.1722  0.5523 -0.1443
 1021MOL0     C40781   9.947   2.288   1.081 -1.0459  0.5212  0.7151
 1021MOL0     C40782   9.971   2.430   1.007  0.5962 -0.1915 -0.5549
 1021MOL0     C40783  10.118   2.433   0.964  0.1077 -0.3669  0.2452
 1021MOL0     O40784  10.133   2.564   0.901 -0.3262  0.7404 -0.0730
 1021MOL0     C40785  10.262   2.599   0.864  0.3544  0.4062 -0.1892
 1021MOL0     C40786  10.332   2.680   0.953  0.4383  0.1375  0.8651
 1021MOL0     C40787  10.460   2.726   0.924 -0.1746  0.4416  0.5171
 1021MOL0     C40788  10.525   2.830   1.018  0.3220 -0.2370  0.2506
 1021MOL0     C40789  10.525   2.669   0.818  0.7668 -0.0201  1.1035
 1021MOL0     C40790  10.662   2.704   0.769  0.9543  0.2107 -0.0065
 1021MOL0     O40791  10.729   2.618   0.684  0.8149 -0.3188  0.4136
 1021MOL0     C40792  10.861   2.652   0.656 -0.1703 -0.6900  0.0608
 1021MOL0     C40793  10.958   2.645   0.750 -0.4996  0.4768 -0.3597
 1021MOL0     C40794  11.093   2.677   0.733  0.7704 -0.0068 -0.2436
 1021MOL0     C40795  11.135   2.724   0.609  0.3216  0.2824  0.1928
 1021MOL0     O40796  11.263   2.773   0.575 -0.1541  0.1829  0.2340
 1021MOL0     C40797  11.344   2.800   0.688 -0.1329 -0.0878 -0.2117
 1021MOL0     C40798  11.475   2.858   0.640  0.4509  0.5275  0.6684
 1021MOL0     C40799  11.566   2.895   0.751 -0.0560 -0.4888  0.1865
 1021MOL0     C40800  11.683   2.989   0.713 -0.6403  0.4790  0.4176
 1021MOL0     C40801  11.777   3.009   0.832 -0.5801 -0.1581  0.5325
 1021MOL0     C40802  11.909   3.069   0.777  0.0272  0.0982 -0.6720
 1021MOL0     C40803  12.009   3.075   0.893 -0.3918  0.5955  0.2838
 1021MOL0     C40804  12.134   3.149   0.855  0.1250  0.1205  0.9303
 1021MOL0    Cl40805  12.244   3.028   0.782  0.0479 -0.0612  0.2315
 1021MOL0     C40806  11.034   2.735   0.512  0.6242 -0.0719 -0.1147
 1021MOL0     C40807  10.901   2.704   0.535 -0.2197  0.0516  0.6195
 1021MOL0     O40808  10.698   2.820   0.794  0.3700  0.7772 -0.1294
 1021MOL0     C40809  10.459   2.577   0.731 -0.2139  0.8281 -0.3421
 1021MOL0     C40810  10.330   2.549   0.750  0.3333 -0.2771 -0.3442
 1021MOL0     N40811   9.692   2.286   0.905  0.6618 -1.1215 -0.3174
 1021MOL0     N40812   9.578   2.327   0.861  0.2623 -0.3134  0.7829
 1021MOL0     C40813   8.585   1.701   1.071  0.0193  0.7162 -0.5323
 1021MOL0     C40814   8.466   1.626   1.072 -0.0510  0.4508  0.4734
 1021MOL0     C40815   8.174   1.327   1.202  0.5400 -0.0324  0.3051
 1021MOL0     C40816   8.090   1.358   1.093 -0.2884  0.0406  0.3464
 1021MOL0     C40817   7.979   1.283   1.070 -0.2007  0.9524  0.0137
 1021MOL0     C40818   7.954   1.166   1.146  0.7948 -0.9607 -0.2692
 1021MOL0     O40819   7.832   1.104   1.119  0.0087  0.0358 -0.4002
 1021MOL0     C40820   7.851   0.968   1.069 -0.0827  0.1636 -0.1658
 1021MOL0     C40821   7.848   0.955   0.920 -0.0812  0.6351  0.3747
 1021MOL0     C40822   7.831   0.806   0.878 -0.1441 -0.0725  0.2872
 1021MOL0     C40823   7.698   0.734   0.904 -0.0733 -0.3585  0.3683
 1021MOL0     C40824   7.707   0.589   0.915  0.1615 -0.5275  0.1114
 1021MOL0     C40825   7.715   0.468   0.927 -0.1042 -0.2023 -0.0912
 1021MOL0     C40826   8.043   1.128   1.251 -0.4065 -0.0383 -0.0073
 1021MOL0     C40827   8.151   1.209   1.274 -0.3518 -0.6302  0.3710
 1021MOL0     C40828   8.236   1.161   1.395  0.2586  0.2453  0.9552
 1021MOL0     H40829   8.368   1.685   1.386  0.8518  2.6611  0.2607
 1021MOL0     H40830   8.581   1.829   1.383 -1.7580  4.7842 -2.3679
 1021MOL0     H40831   8.807   1.785   1.357 -1.5605  0.1464  0.2636
 1021MOL0     H40832   8.775   1.949   1.346 -1.3736 -0.0052 -1.6280
 1021MOL0     H40833   9.012   1.954   1.365 -5.1936  0.3159  2.3338
 1021MOL0     H40834   9.026   1.827   1.230  1.0578  0.9688 -2.0450
 1021MOL0     H40835   8.945   2.010   1.080 -0.1349  0.4523 -0.8389
 1021MOL0     H40836   8.947   2.119   1.223  3.3011  1.1139 -0.4344
 1021MOL0     H40837   9.193   2.130   1.235  0.7196 -1.3809  1.0514
 1021MOL0     H40838   9.194   1.966   1.166 -3.5464 -1.6407 -0.1636
 1021MOL0     H40839   9.077   2.210   1.022  1.0831  1.8605  0.6764
 1021MOL0     H40840   9.157   2.077   0.942 -1.0419  0.2443 -0.7293
 1021MOL0     H40841   9.297   2.275   1.129  1.8581  2.0205 -1.7566
 1021MOL0     H40842   9.374   2.155   1.026  2.0354  1.3837 -1.0135
 1021MOL0     H40843   9.189   2.365   0.908  0.5629 -0.3665 -0.5512
 1021MOL0     H40844   9.325   2.278   0.833 -2.0500  0.2558 -0.0580
 1021MOL0     H40845   9.385   2.516   0.878  0.5696  1.7127  0.7265
 1021MOL0     H40846   9.352   2.474   1.053  1.8938  0.6626  0.3113
 1021MOL0     H40847   9.569   2.387   1.187 -0.9036  0.5539  0.3409
 1021MOL0     H40848   9.794   2.171   1.180  0.5391  1.2201  1.5591
 1021MOL0     H40849   9.811   2.345   1.216  1.2348 -0.4146  0.7377
 1021MOL0     H40850  10.018   2.264   1.161 -1.1405 -0.6411  0.4760
 1021MOL0     H40851   9.966   2.209   1.008  1.8768 -1.8463  3.6966
 1021MOL0     H40852   9.902   2.443   0.923 -0.5565  0.2109  0.4252
 1021MOL0     H40853   9.944   2.511   1.076 -1.7333 -0.4927 -1.0196
 1021MOL0     H40854  10.180   2.423   1.054 -0.0372 -0.3784  0.3446
 1021MOL0     H40855  10.139   2.347   0.900  0.0372 -1.7811  2.0034
 1021MOL0     H40856  10.284   2.710   1.045 -0.0969  0.1182  0.5959
 1021MOL0     H40857  10.631   2.809   1.034  1.2846  2.7389 -1.4242
 1021MOL0     H40858  10.476   2.844   1.115  0.8665  0.9175  0.3761
 1021MOL0     H40859  10.520   2.927   0.968 -0.4708 -0.4934 -0.1857
 1021MOL0     H40860  10.933   2.603   0.847 -3.3411  0.7854 -0.8906
 1021MOL0     H40861  11.160   2.669   0.818  1.1510 -2.0620 -0.6843
 1021MOL0     H40862  11.289   2.869   0.754  2.2051  1.4742  0.2349
 1021MOL0     H40863  11.372   2.706   0.735  2.4594  0.3324 -0.7822
 1021MOL0     H40864  11.524   2.780   0.582  1.5111  1.2248  0.6009
 1021MOL0     H40865  11.460   2.945   0.577 -0.8979 -0.0279  0.1885
 1021MOL0     H40866  11.600   2.799   0.792 -0.8455 -0.4093  1.0722
 1021MOL0     H40867  11.511   2.953   0.825  2.5726  0.8395  1.2384
 1021MOL0     H40868  11.645   3.089   0.692  0.5856  0.8086 -0.3177
 1021MOL0     H40869  11.742   2.952   0.628  0.3883  1.8402  0.4988
 1021MOL0     H40870  11.732   3.077   0.905 -1.9626  0.8641 -1.2164
 1021MOL0     H40871  11.798   2.910   0.876 -2.9202 -2.0438 -2.2444
 1021MOL0     H40872  11.889   3.166   0.731 -2.4116  0.9743  1.9095
 1021MOL0     H40873  11.959   3.009   0.700  0.0565  0.2617 -0.7802
 1021MOL0     H40874  12.038   2.980   0.940  1.8582  2.3567  2.7311
 1021MOL0     H40875  11.974   3.139   0.974  3.3602  5.6939 -1.6246
 1021MOL0     H40876  12.175   3.189   0.948 -1.1471  0.1634  1.4969
 1021MOL0     H40877  12.113   3.221   0.776  0.0718 -1.8006 -0.9095
 1021MOL0     H40878  11.059   2.775   0.414  0.8321 -0.4776 -0.2271
 1021MOL0     H40879  10.825   2.713   0.458  0.1836 -0.4424  0.1523
 1021MOL0     H40880  10.505   2.554   0.635  3.5346 -3.7903  2.1412
 1021MOL0     H40881  10.282   2.480   0.682  0.6561 -2.1858  1.2776
 1021MOL0     H40882   8.655   1.688   0.989  3.0806 -1.9475  2.1718
 1021MOL0     H40883   8.434   1.575   0.981  0.5524  1.2357 -0.1911
 1021MOL0     H40884   8.100   1.458   1.052  1.5691  0.3899  1.5450
 1021MOL0     H40885   7.912   1.321   0.994  1.9586 -3.3445 -4.6440
 1021MOL0     H40886   7.929   0.915   1.125 -2.2870 -0.5903  2.4323
 1021MOL0     H40887   7.759   0.920   1.103  0.3104 -1.8576 -1.7351
 1021MOL0     H40888   7.942   0.996   0.885  0.8141 -1.8423 -0.3419
 1021MOL0     H40889   7.767   1.013   0.874  0.0038  2.3647  2.2782
 1021MOL0     H40890   7.857   0.790   0.773 -1.5419 -4.0852  0.3979
 1021MOL0     H40891   7.915   0.761   0.932  1.8427 -0.5224 -2.9491
 1021MOL0     H40892   7.620   0.750   0.829 -1.5726  0.6588  2.0746
 1021MOL0     H40893   7.661   0.759   1.004  0.9049 -1.2666  0.9770
 1021MOL0     H40894   7.744   0.365   0.933 -0.2597 -0.2252  0.3613
 1021MOL0     H40895   8.018   1.042   1.312  4.3981 -2.5560 -1.1652
 1021MOL0     H40896   8.250   1.245   1.464  1.1244  1.7740 -1.0183
 1021MOL0     H40897   8.194   1.072   1.443 -1.6198 -0.3075 -1.4951
 1021MOL0     H40898   8.339   1.137   1.369  0.1756 -1.1243  1.7765
 1022MOL0     O40899   4.291   4.493   8.009  0.0376  0.0041 -0.1699
 1022MOL0     C40900   4.237   4.597   7.980 -0.8114 -1.3790  0.5279
 1022MOL0     O40901   4.301   4.720   7.980 -0.8475  0.4029 -0.5947
 1022MOL0     C40902   4.425   4.716   8.043  0.5010  0.2387 -0.7826
 1022MOL0     C40903   4.434   4.755   8.182  0.0044 -0.2191 -0.3114
 1022MOL0     C40904   4.555   4.782   8.243  0.5168  0.5646  0.0983
 1022MOL0     C40905   4.675   4.772   8.175 -0.4498 -0.2489  1.1415
 1022MOL0     O40906   4.795   4.817   8.231  0.2488 -0.2855  0.2374
 1022MOL0     C40907   4.909   4.852   8.151  0.2578 -0.4871  1.0083
 1022MOL0     C40908   5.026   4.902   8.227  0.0863 -0.2112 -0.4604
 1022MOL0     C40909   5.122   4.963   8.133 -0.8070  0.0576 -0.0857
 1022MOL0     C40910   5.189   4.864   8.034 -0.9530  0.5721  0.0818
 1022MOL0     C40911   5.283   4.940   7.945 -0.2344  0.3784  0.1673
 1022MOL0     C40912   5.350   4.840   7.850  0.8999 -0.3349  0.2093
 1022MOL0     C40913   5.473   4.883   7.780  0.4363  0.5041  0.6281
 1022MOL0     C40914   5.585   4.935   7.873 -0.0091 -0.5495  0.1579
 1022MOL0     N40915   5.728   4.932   7.826 -0.2694  0.5392 -0.2034
 1022MOL0     C40916   5.776   4.940   7.695  0.0979  1.0021 -0.1939
 1022MOL0     C40917   5.908   4.899   7.704  0.1235 -0.3165 -0.5698
 1022MOL0     C40918   6.008   4.896   7.599 -0.1508  0.0214  0.4960
 1022MOL0     C40919   5.995   5.006   7.495 -0.2506  0.3293 -0.3343
 1022MOL0     C40920   6.066   5.141   7.522 -0.1826 -0.0688  0.4449
 1022MOL0     C40921   6.211   5.121   7.573  0.2071  0.1693  0.0256
 1022MOL0     O40922   6.290   5.065   7.470 -0.3151  0.2472  0.4590
 1022MOL0     C40923   6.419   5.039   7.503  1.0893  0.1745  0.4181
 1022MOL0     C40924   6.489   4.962   7.414 -0.0258  0.3111  0.1100
 1022MOL0     C40925   6.622   4.932   7.437 -0.4446 -0.4939  0.2530
 1022MOL0     C40926   6.676   4.820   7.355 -0.1771  0.3496 -0.3143
 1022MOL0     C40927   6.689   4.984   7.541  0.5677  0.7940 -0.4229
 1022MOL0     C40928   6.829   4.954   7.553 -0.2620 -0.0217 -0.3047
 1022MOL0     O40929   6.903   4.965   7.434  0.0021 -0.0455 -0.7974
 1022MOL0     C40930   7.039   4.963   7.440  0.2496 -0.6254 -0.9080
 1022MOL0     C40931   7.098   4.840   7.414  0.2812 -0.1010  0.8973
 1022MOL0     C40932   7.237   4.834   7.419 -0.5371 -0.5303  0.9249
 1022MOL0     C40933   7.318   4.948   7.450  0.6383 -0.2284 -0.6116
 1022MOL0     O40934   7.455   4.946   7.483  0.1009 -0.6666 -0.6672
 1022MOL0     C40935   7.534   4.969   7.365  0.1039  0.6000  1.2259
 1022MOL0     C40936   7.680   5.003   7.411 -0.0034  0.0611 -0.7528
 1022MOL0     C40937   7.695   5.144   7.459 -0.5392 -0.7012  0.2255
 1022MOL0     C40938   7.832   5.170   7.524  0.5019 -1.4234  0.0742
 1022MOL0     C40939   7.943   5.156   7.413  0.1624 -0.2082  0.3168
 1022MOL0     C40940   8.072   5.214   7.471  0.5299  0.7827 -0.4289
 1022MOL0     C40941   8.182   5.195   7.359  0.4704 -0.0618 -0.6021
 1022MOL0     C40942   8.324   5.226   7.399 -0.0787 -0.2138 -0.0168
 1022MOL0    Cl40943   8.404   5.099   7.479 -0.7327  0.1185  0.0271
 1022MOL0     C40944   7.252   5.072   7.477 -0.7827  0.8549  0.2935
 1022MOL0     C40945   7.110   5.075   7.479  0.5872  0.3823 -0.4132
 1022MOL0     O40946   6.880   4.953   7.667  0.2874  0.0529 -0.1548
 1022MOL0     C40947   6.620   5.046   7.643 -0.2068 -0.6518 -0.0734
 1022MOL0     C40948   6.488   5.077   7.626  0.0823 -0.0166  0.6452
 1022MOL0     N40949   5.938   4.866   7.836 -1.0777 -0.3382 -0.6057
 1022MOL0     N40950   5.828   4.884   7.905 -0.9854  0.6095  0.1924
 1022MOL0     C40951   4.660   4.743   8.037 -0.2953 -0.0509  1.1198
 1022MOL0     C40952   4.542   4.704   7.976 -0.3707  0.7566  0.0653
 1022MOL0     C40953   4.107   4.598   7.911  0.3752  0.0218 -0.4219
 1022MOL0     C40954   4.043   4.719   7.875  0.2874  0.2767  1.3804
 1022MOL0     C40955   3.916   4.716   7.805 -0.7016 -0.0223  0.0676
 1022MOL0     C40956   3.845   4.603   7.786  0.1216 -0.4274 -0.3371
 1022MOL0     O40957   3.720   4.606   7.723 -0.4862  0.1868  0.1834
 1022MOL0     C40958   3.737   4.595   7.577  0.2910 -0.4732 -0.8038
 1022MOL0     C40959   3.606   4.552   7.507 -0.5917  0.0467 -0.5211
 1022MOL0     C40960   3.521   4.675   7.477  0.3931  0.2232 -0.6732
 1022MOL0     C40961   3.375   4.651   7.448  0.6584  0.4118 -0.3337
 1022MOL0     C40962   3.361   4.543   7.355  1.5727  0.5103  0.4338
 1022MOL0     C40963   3.338   4.466   7.259  1.1901  0.1206 -0.2071
 1022MOL0     C40964   3.899   4.482   7.822 -0.2627 -0.4364  0.1629
 1022MOL0     C40965   4.030   4.469   7.882 -0.5343 -0.4346 -0.1370
 1022MOL0     C40966   4.082   4.329   7.909  0.6560 -0.1514  0.3367
 1022MOL0     H40967   4.347   4.754   8.247  0.2619  1.6098  0.1123
 1022MOL0     H40968   4.566   4.815   8.346 -1.8874 -0.0143  0.6040
 1022MOL0     H40969   4.877   4.923   8.074 -3.4906 -0.1113  2.6816
 1022MOL0     H40970   4.935   4.761   8.096  2.0433  0.3524  0.3672
 1022MOL0     H40971   4.984   4.975   8.296  0.8554  0.8648 -1.1111
 1022MOL0     H40972   5.067   4.822   8.290  2.0393 -0.3995 -1.8860
 1022MOL0     H40973   5.083   5.042   8.068  2.8972  0.1385 -2.5339
 1022MOL0     H40974   5.200   5.018   8.185 -1.8774  2.5079 -0.8911
 1022MOL0     H40975   5.241   4.784   8.086  2.8969  1.5205 -1.9317
 1022MOL0     H40976   5.107   4.821   7.976 -1.4864  0.4676  0.8986
 1022MOL0     H40977   5.359   4.985   8.010 -0.7958  1.8906 -0.1738
 1022MOL0     H40978   5.248   5.023   7.882 -1.3382  1.2402  1.8537
 1022MOL0     H40979   5.381   4.753   7.909 -1.5464 -0.7867  0.9141
 1022MOL0     H40980   5.277   4.808   7.776 -0.5624  2.5389  0.2935
 1022MOL0     H40981   5.448   4.971   7.721  3.7807  1.0120 -0.2756
 1022MOL0     H40982   5.510   4.809   7.709 -2.2554  0.4156 -0.8040
 1022MOL0     H40983   5.552   5.039   7.884 -2.5912 -0.7734 -3.5702
 1022MOL0     H40984   5.582   4.883   7.969  2.1771 -0.5983  0.2509
 1022MOL0     H40985   5.729   4.985   7.609 -0.8177  0.9301  0.2596
 1022MOL0     H40986   5.998   4.799   7.549  1.4673 -0.4817  1.0762
 1022MOL0     H40987   6.108   4.888   7.645  0.9683  2.8062 -1.2192
 1022MOL0     H40988   6.034   4.967   7.400  2.8234  2.3631 -0.0567
 1022MOL0     H40989   5.888   5.025   7.485 -0.3654 -0.4720 -0.7230
 1022MOL0     H40990   6.060   5.198   7.429 -1.1419 -1.0760 -0.1314
 1022MOL0     H40991   6.016   5.204   7.596 -1.9411 -0.5394 -0.2963
 1022MOL0     H40992   6.256   5.220   7.583  1.1142 -0.2183 -0.0506
 1022MOL0     H40993   6.224   5.071   7.669  3.9650  0.5518 -0.1146
 1022MOL0     H40994   6.441   4.923   7.324  1.8522 -0.1268 -0.7614
 1022MOL0     H40995   6.590   4.761   7.320 -1.6420  1.3848  1.3918
 1022MOL0     H40996   6.745   4.760   7.414 -1.9626 -1.2799  0.1995
 1022MOL0     H40997   6.721   4.871   7.269 -0.8621 -0.5861 -1.2490
 1022MOL0     H40998   7.030   4.755   7.422 -1.1852  1.1334  2.1083
 1022MOL0     H40999   7.286   4.737   7.416 -0.7915 -0.6423  0.0900
 1022MOL0     H41000   7.543   4.888   7.293 -4.2343  1.5009 -0.6311
 1022MOL0     H41001   7.494   5.053   7.308  0.2520 -1.6817 -2.5631
 1022MOL0     H41002   7.718   4.927   7.480  0.1553 -1.6486 -2.5930
 1022MOL0     H41003   7.741   5.003   7.320  0.4812  3.0047 -0.5176
 1022MOL0     H41004   7.616   5.172   7.530 -2.1359 -0.5020 -1.5370
 1022MOL0     H41005   7.682   5.210   7.372 -0.0585 -0.4335  0.3539
 1022MOL0     H41006   7.837   5.101   7.609 -1.0755 -0.9429  0.5912
 1022MOL0     H41007   7.847   5.270   7.566  2.3044 -2.2404  1.5385
 1022MOL0     H41008   7.945   5.049   7.391 -1.7139 -0.6972  2.1233
 1022MOL0     H41009   7.925   5.202   7.316  2.4282 -1.3817 -0.7181
 1022MOL0     H41010   8.096   5.157   7.561  1.1310  0.1084 -0.9958
 1022MOL0     H41011   8.067   5.320   7.497  0.2154  1.1966 -2.0435
 1022MOL0     H41012   8.144   5.246   7.270 -2.1711  1.9649  1.5049
 1022MOL0     H41013   8.176   5.085   7.355  0.3237 -0.3161  3.0298
 1022MOL0     H41014   8.320   5.317   7.461 -3.1849  1.4419 -2.3735
 1022MOL0     H41015   8.376   5.256   7.308 -0.1942 -0.4376 -0.1557
 1022MOL0     H41016   7.306   5.160   7.511 -2.0689  1.2688  1.3668
 1022MOL0     H41017   7.046   5.159   7.505  0.1079  0.3181 -1.3380
 1022MOL0     H41018   6.664   5.091   7.732 -1.1266 -1.0971  0.6167
 1022MOL0     H41019   6.449   5.140   7.705  2.3527  1.1567  0.9247
 1022MOL0     H41020   4.740   4.750   7.964 -0.5034  0.0417  0.8998
 1022MOL0     H41021   4.546   4.672   7.872  2.2753 -2.8084  1.0656
 1022MOL0     H41022   4.084   4.814   7.907 -0.1743 -0.1032  3.2223
 1022MOL0     H41023   3.884   4.814   7.772  0.4076  1.4648  3.0114
 1022MOL0     H41024   3.771   4.692   7.541  0.0644 -0.7232 -1.7071
 1022MOL0     H41025   3.809   4.521   7.542  0.7986  0.2126 -1.2314
 1022MOL0     H41026   3.545   4.489   7.573 -1.3239  2.4291  1.2281
 1022MOL0     H41027   3.620   4.496   7.414  1.4838 -0.0997 -0.1536
 1022MOL0     H41028   3.524   4.736   7.568  2.2099  1.4999 -1.5262
 1022MOL0     H41029   3.581   4.715   7.395  2.3441 -0.2954  0.4241
 1022MOL0     H41030   3.326   4.735   7.399 -2.1071 -1.7673 -1.5716
 1022MOL0     H41031   3.310   4.626   7.532 -1.9450  0.6433 -2.1684
 1022MOL0     H41032   3.329   4.409   7.168  0.2914  0.3794 -0.2818
 1022MOL0     H41033   3.831   4.401   7.800 -0.1120 -0.8135  1.0548
 1022MOL0     H41034   4.179   4.310   7.864 -0.7261 -1.7756 -2.1457
 1022MOL0     H41035   4.094   4.300   8.014  1.1095 -2.5138 -0.3310
 1022MOL0     H41036   4.009   4.265   7.859  0.4558 -0.9460  1.6133
 1023MOL0     O41037   9.767   4.150   9.280  0.4215  0.3543  0.5090
 1023MOL0     C41038   9.706   4.244   9.228  0.0057 -0.1854  0.5278
 1023MOL0     O41039   9.695   4.371   9.292  0.8904  0.4598 -0.0562
 1023MOL0     C41040   9.740   4.354   9.420 -0.2778 -0.5118  0.0651
 1023MOL0     C41041   9.878   4.366   9.458 -0.9280  0.6368  0.2131
 1023MOL0     C41042   9.909   4.356   9.594 -0.0056 -0.1845 -0.3014
 1023MOL0     C41043   9.815   4.327   9.696 -0.1963 -0.1763 -0.8337
 1023MOL0     O41044   9.843   4.319   9.830  0.7681 -0.1154 -0.1277
 1023MOL0     C41045   9.958   4.243   9.872 -0.0622  0.2262  0.4878
 1023MOL0     C41046   9.958   4.096   9.818  0.6341  0.2364 -0.6534
 1023MOL0     C41047   9.912   3.983   9.910 -0.8352  0.1885 -0.4491
 1023MOL0     C41048   9.921   3.848   9.837 -0.2972 -0.3417 -0.2842
 1023MOL0     C41049   9.904   3.721   9.926 -0.9812  0.4185 -0.3160
 1023MOL0     C41050   9.897   3.592   9.842 -0.2383 -0.5725  0.3516
 1023MOL0     C41051   9.904   3.480   9.953  0.0736 -0.2503  0.0101
 1023MOL0     C41052   9.873   3.338   9.897  0.7314  0.4794  0.4668
 1023MOL0     N41053   9.969   3.299   9.796  0.4241  0.7711  0.2523
 1023MOL0     C41054   9.975   3.340   9.666 -0.7803 -0.2807  1.4503
 1023MOL0     C41055  10.082   3.266   9.616 -0.3305  0.1834 -0.7001
 1023MOL0     C41056  10.138   3.260   9.481  0.1754 -0.3986  0.3187
 1023MOL0     C41057  10.253   3.360   9.455  0.1246  0.5388  0.1959
 1023MOL0     C41058  10.386   3.321   9.517  0.8126 -0.3339 -0.2077
 1023MOL0     C41059  10.486   3.439   9.514  0.7621 -0.3884  1.1297
 1023MOL0     O41060  10.607   3.434   9.595  0.1716  0.0918  1.1661
 1023MOL0     C41061  10.722   3.395   9.528 -0.5040 -0.7652 -0.3285
 1023MOL0     C41062  10.838   3.420   9.599  0.6323 -0.5374 -0.5365
 1023MOL0     C41063  10.965   3.390   9.540 -0.3454 -0.1187  0.1169
 1023MOL0     C41064  11.086   3.436   9.620 -0.5454 -0.7877 -0.1305
 1023MOL0     C41065  10.979   3.328   9.413 -0.7613 -0.4697 -0.1176
 1023MOL0     C41066  11.108   3.279   9.355  0.3416 -0.4588  0.3115
 1023MOL0     O41067  11.217   3.343   9.380 -0.2320 -0.3899  0.3320
 1023MOL0     C41068  11.335   3.286   9.347 -0.3226  0.2078 -0.2423
 1023MOL0     C41069  11.431   3.257   9.444 -0.9138  0.0449 -0.5766
 1023MOL0     C41070  11.563   3.240   9.410 -0.7394 -0.5168  0.3269
 1023MOL0     C41071  11.607   3.236   9.279  0.3759 -0.3666  0.0384
 1023MOL0     O41072  11.741   3.215   9.236  1.1397  0.0838 -0.2677
 1023MOL0     C41073  11.837   3.269   9.326 -0.7927 -0.0714 -0.0974
 1023MOL0     C41074  11.971   3.255   9.251  0.2909  0.7077  0.0252
 1023MOL0     C41075  12.022   3.388   9.188  0.1379  0.5192  0.3227
 1023MOL0     C41076  11.944   3.453   9.071  0.7719 -0.2747  0.5995
 1023MOL0     C41077  12.045   3.548   8.990 -0.1640 -0.3385 -1.1440
 1023MOL0     C41078  11.965   3.644   8.905 -0.1074 -0.2050 -0.4601
 1023MOL0     C41079  11.880   3.740   8.992 -0.2994  0.6591 -0.0853
 1023MOL0     C41080  11.866   3.884   8.938 -0.1984  0.0315  0.3215
 1023MOL0    Cl41081  11.762   3.875   8.779 -0.0859 -0.2011  0.3886
 1023MOL0     C41082  11.517   3.257   9.175  0.9347  0.2570 -0.1440
 1023MOL0     C41083  11.381   3.276   9.215  0.4117 -0.6111 -0.6193
 1023MOL0     O41084  11.097   3.175   9.294  0.5513 -0.3309  0.2626
 1023MOL0     C41085  10.856   3.304   9.356 -0.4029  0.0385 -0.7109
 1023MOL0     C41086  10.736   3.345   9.403  0.4980 -0.1494  0.1644
 1023MOL0     N41087  10.144   3.194   9.712  0.2332 -0.0009  0.2686
 1023MOL0     N41088  10.074   3.210   9.816 -0.0945 -0.1391 -0.4953
 1023MOL0     C41089   9.685   4.317   9.653 -0.4604 -0.4850  0.1335
 1023MOL0     C41090   9.643   4.330   9.523 -1.0212 -1.0321  0.1003
 1023MOL0     C41091   9.653   4.245   9.090  0.4233  0.3718 -0.0858
 1023MOL0     C41092   9.569   4.347   9.041 -0.5401 -1.1157 -0.7759
 1023MOL0     C41093   9.531   4.359   8.911 -0.0687  0.4987  0.6214
 1023MOL0     C41094   9.570   4.266   8.816 -0.6784 -0.1118  0.0946
 1023MOL0     O41095   9.528   4.260   8.684 -0.2990  1.0849  0.6238
 1023MOL0     C41096   9.473   4.372   8.614 -0.3875 -0.2180 -0.2870
 1023MOL0     C41097   9.578   4.477   8.581 -0.0588  0.4373 -0.3637
 1023MOL0     C41098   9.610   4.591   8.686  0.1813 -0.6252  0.4435
 1023MOL0     C41099   9.698   4.706   8.627 -0.3690  1.0271 -0.5040
 1023MOL0     C41100   9.638   4.783   8.519 -0.3266 -0.4535 -0.2666
 1023MOL0     C41101   9.581   4.838   8.425  0.0204 -0.9627 -0.0522
 1023MOL0     C41102   9.660   4.174   8.858  0.3207  1.2199  0.4090
 1023MOL0     C41103   9.695   4.153   8.988  0.1832 -0.5519 -0.6517
 1023MOL0     C41104   9.779   4.030   9.020 -0.1460  0.1710  0.6492
 1023MOL0     H41105   9.956   4.377   9.383 -0.0662 -3.0663  0.3733
 1023MOL0     H41106  10.014   4.358   9.622  0.2865  0.4166 -1.3995
 1023MOL0     H41107   9.965   4.248   9.981  0.2118  1.1830  0.4420
 1023MOL0     H41108  10.048   4.298   9.841 -0.9036  0.8000 -1.0357
 1023MOL0     H41109   9.897   4.097   9.728  0.5091  1.2942 -0.5655
 1023MOL0     H41110  10.064   4.072   9.801  0.0652 -2.0556 -1.3652
 1023MOL0     H41111   9.983   3.982   9.994  0.9878 -0.1132 -1.9245
 1023MOL0     H41112   9.808   3.997   9.938 -1.2018 -0.2430 -1.5583
 1023MOL0     H41113   9.854   3.850   9.751 -0.2854 -0.6507 -0.3021
 1023MOL0     H41114  10.023   3.830   9.802 -0.2057 -1.9381  0.6721
 1023MOL0     H41115   9.813   3.730   9.986 -4.3852 -2.2374 -4.4351
 1023MOL0     H41116   9.991   3.705   9.991 -0.4191  1.2442 -0.8401
 1023MOL0     H41117   9.810   3.588   9.777 -1.5955  0.9880  1.9585
 1023MOL0     H41118   9.987   3.573   9.783 -0.0085 -0.1674  0.5712
 1023MOL0     H41119   9.819   3.509  10.014  2.3637  1.1453  2.8058
 1023MOL0     H41120   9.994   3.476  10.016 -1.7799  0.2936  2.9086
 1023MOL0     H41121   9.884   3.266   9.978  1.1811  1.8903  1.7059
 1023MOL0     H41122   9.773   3.344   9.853  0.7836  1.6756  0.4662
 1023MOL0     H41123   9.911   3.410   9.614  0.2540  0.2781  0.8923
 1023MOL0     H41124  10.052   3.277   9.415  2.2418  0.6407 -2.2509
 1023MOL0     H41125  10.181   3.159   9.477  3.7037  0.9898  0.0426
 1023MOL0     H41126  10.270   3.373   9.348  2.0010  1.5997  0.5786
 1023MOL0     H41127  10.223   3.461   9.483  0.0441  1.2391 -2.2152
 1023MOL0     H41128  10.369   3.296   9.622  1.9187  0.3500  0.1470
 1023MOL0     H41129  10.434   3.237   9.466  1.1971 -0.0273 -0.3527
 1023MOL0     H41130  10.519   3.455   9.410  1.8134 -1.0784  1.3374
 1023MOL0     H41131  10.435   3.530   9.546  1.7747  0.7391 -0.2812
 1023MOL0     H41132  10.835   3.480   9.690 -1.8204  2.5220 -2.4302
 1023MOL0     H41133  11.147   3.505   9.560  0.6049 -2.3341 -0.8017
 1023MOL0     H41134  11.163   3.361   9.638 -1.0499 -1.2134  0.2983
 1023MOL0     H41135  11.070   3.482   9.718 -1.5472 -0.1766 -0.5657
 1023MOL0     H41136  11.393   3.264   9.545  0.8070 -0.5396  0.1401
 1023MOL0     H41137  11.635   3.231   9.490 -1.1509 -1.1474  0.6414
 1023MOL0     H41138  11.814   3.374   9.347  0.1767 -0.0779  1.1008
 1023MOL0     H41139  11.832   3.204   9.414 -3.7625 -0.6769 -0.6098
 1023MOL0     H41140  12.042   3.227   9.330  0.3887  2.1222  0.4642
 1023MOL0     H41141  11.962   3.189   9.164 -6.0210  0.1567  0.5756
 1023MOL0     H41142  12.118   3.353   9.148 -1.3677 -3.0266 -0.6029
 1023MOL0     H41143  12.041   3.469   9.259 -0.2007  0.7727  0.1238
 1023MOL0     H41144  11.844   3.488   9.098 -0.2573 -2.5305  0.0231
 1023MOL0     H41145  11.916   3.368   9.008  2.2993 -2.1306  2.2844
 1023MOL0     H41146  12.097   3.599   9.071 -1.0772  0.7043 -1.1989
 1023MOL0     H41147  12.113   3.484   8.932 -1.3933 -2.9336  0.1109
 1023MOL0     H41148  11.890   3.593   8.844  0.2959  1.7568 -2.7429
 1023MOL0     H41149  12.034   3.703   8.844  0.2436 -2.8234 -2.7700
 1023MOL0     H41150  11.932   3.746   9.088 -1.4208 -2.2553  0.8225
 1023MOL0     H41151  11.781   3.695   9.006 -0.3743  0.7238 -0.3965
 1023MOL0     H41152  11.969   3.922   8.932 -0.6795  1.6879  1.7285
 1023MOL0     H41153  11.826   3.958   9.008  0.0094  0.4323  0.0272
 1023MOL0     H41154  11.568   3.255   9.078  1.1247 -2.3617 -0.0632
 1023MOL0     H41155  11.308   3.309   9.143 -0.7582  2.3228  1.7012
 1023MOL0     H41156  10.856   3.246   9.265  0.2475 -1.7892  0.4137
 1023MOL0     H41157  10.647   3.324   9.343  0.5350  1.9152 -0.7101
 1023MOL0     H41158   9.616   4.283   9.730  1.1894 -1.5984  1.1878
 1023MOL0     H41159   9.538   4.321   9.496 -1.0029 -0.1236 -0.2932
 1023MOL0     H41160   9.525   4.421   9.107 -1.7223 -0.4447 -2.2321
 1023MOL0     H41161   9.459   4.436   8.886 -1.6056 -0.8036  0.8948
 1023MOL0     H41162   9.432   4.334   8.520 -3.1844 -1.0318  1.1853
 1023MOL0     H41163   9.390   4.412   8.673 -1.2159 -0.7267 -1.0907
 1023MOL0     H41164   9.552   4.517   8.483 -0.9163 -3.7781 -2.0566
 1023MOL0     H41165   9.673   4.423   8.570  0.9373  1.7014  1.4891
 1023MOL0     H41166   9.524   4.634   8.737  0.5301 -0.0644  0.5627
 1023MOL0     H41167   9.669   4.547   8.767  0.3998  1.3803  1.4263
 1023MOL0     H41168   9.790   4.656   8.594 -0.5566 -1.3673  2.2428
 1023MOL0     H41169   9.730   4.775   8.705  0.5165  1.4906 -1.2556
 1023MOL0     H41170   9.538   4.893   8.344 -1.7918  1.0020  2.1280
 1023MOL0     H41171   9.699   4.104   8.784  0.5807  2.5659 -0.7601
 1023MOL0     H41172   9.745   3.976   9.109 -2.2894 -0.2869 -0.3715
 1023MOL0     H41173   9.767   3.957   8.939  0.9920 -1.4774  1.8942
 1023MOL0     H41174   9.882   4.067   9.022 -0.1930  0.5861 -1.7256
 1024MOL0     O41175   9.506   3.248  10.162  0.1289 -0.5068  0.1114
 1024MOL0     C41176   9.484   3.127  10.163 -0.1354  0.5174 -0.2224
 1024MOL0     O41177   9.575   3.034  10.137 -0.7230  0.0852  0.2484
 1024MOL0     C41178   9.710   3.049  10.169  0.1944  0.1075  0.2118
 1024MOL0     C41179   9.767   3.142  10.259  0.1430 -0.1387  0.8967
 1024MOL0     C41180   9.905   3.162  10.264 -0.3158 -0.7332 -0.2759
 1024MOL0     C41181   9.990   3.080  10.184  0.3010  0.1174 -0.2373
 1024MOL0     O41182  10.123   3.084  10.220  0.5878 -0.7457 -0.1464
 1024MOL0     C41183  10.214   3.003  10.142  0.3494  0.6546  0.0142
 1024MOL0     C41184  10.229   2.863  10.199 -0.8786 -0.8020 -0.3942
 1024MOL0     C41185  10.345   2.795  10.140  0.2922  0.1274 -0.1227
 1024MOL0     C41186  10.390   2.819   9.994 -0.6177 -0.3309 -0.6649
 1024MOL0     C41187  10.511   2.731   9.957 -0.5815  1.5128  0.1946
 1024MOL0     C41188  10.635   2.725  10.057  0.5589 -0.7887 -1.0212
 1024MOL0     C41189  10.758   2.686   9.984 -0.5211 -0.1189  0.4705
 1024MOL0     C41190  10.753   2.543   9.931 -0.3019 -0.1510 -0.7415
 1024MOL0     N41191  10.885   2.492   9.925 -0.0805  0.1116 -0.2252
 1024MOL0     C41192  10.990   2.540   9.846 -0.0851  0.2684  0.0766
 1024MOL0     C41193  11.089   2.441   9.861 -0.2572  0.2749  1.0468
 1024MOL0     C41194  11.217   2.415   9.778  0.3560 -0.1712 -0.5210
 1024MOL0     C41195  11.331   2.520   9.789 -0.1251  0.2143  0.1402
 1024MOL0     C41196  11.432   2.495   9.667 -0.8194 -0.2003  0.3897
 1024MOL0     C41197  11.491   2.354   9.651  0.7429 -0.4759  0.1707
 1024MOL0     O41198  11.584   2.341   9.536 -1.3195 -0.8108  0.0447
 1024MOL0     C41199  11.721   2.378   9.532  0.4756  0.3873 -0.0926
 1024MOL0     C41200  11.780   2.411   9.408 -0.6117  0.1411  1.1454
 1024MOL0     C41201  11.918   2.444   9.399  0.1262 -0.0192 -0.1837
 1024MOL0     C41202  11.986   2.478   9.268 -0.4650  0.2354 -0.1205
 1024MOL0     C41203  11.993   2.458   9.518  0.2846 -0.2019  0.1940
 1024MOL0     C41204  12.132   2.492   9.514 -0.6965  0.0948  0.1949
 1024MOL0     O41205  12.215   2.439   9.412 -0.4132  0.6257  0.1404
 1024MOL0     C41206  12.347   2.470   9.417  0.3338 -0.0025  0.0944
 1024MOL0     C41207  12.448   2.398   9.485 -0.2361  0.1270  0.0422
 1024MOL0     C41208  12.580   2.432   9.487  0.0507  0.0788 -0.2372
 1024MOL0     C41209  12.613   2.544   9.414  0.0419 -0.0530  0.1099
 1024MOL0     O41210  12.741   2.580   9.388  0.2407 -0.0360 -1.3222
 1024MOL0     C41211  12.774   2.717   9.428 -0.2594 -0.2805 -0.0926
 1024MOL0     C41212  12.919   2.723   9.479 -0.1618  0.5549  0.6695
 1024MOL0     C41213  12.925   2.683   9.621 -0.5923  0.1727 -0.2391
 1024MOL0     C41214  13.076   2.699   9.673 -0.3297  1.2287 -0.4876
 1024MOL0     C41215  13.077   2.635   9.818  0.6842  0.6948  1.0689
 1024MOL0     C41216  13.207   2.667   9.893  0.6478  0.0440  0.8319
 1024MOL0     C41217  13.210   2.806   9.944 -0.4750  0.5320  0.7482
 1024MOL0     C41218  13.333   2.815  10.035 -0.8828 -0.2480 -0.1814
 1024MOL0    Cl41219  13.316   2.690  10.182  0.1535  0.2480 -0.7237
 1024MOL0     C41220  12.519   2.630   9.349  0.2529  1.4554  1.1176
 1024MOL0     C41221  12.383   2.592   9.354 -0.4238  0.6887  0.0154
 1024MOL0     O41222  12.169   2.584   9.592 -0.0144 -0.1508  0.7458
 1024MOL0     C41223  11.928   2.434   9.641  0.1550  0.2998  0.6251
 1024MOL0     C41224  11.792   2.391   9.646 -0.6214 -0.3070 -0.4358
 1024MOL0     N41225  11.041   2.348   9.945  0.3210 -0.1478 -0.9128
 1024MOL0     N41226  10.923   2.376   9.986 -0.3287 -0.2862 -0.8991
 1024MOL0     C41227   9.929   2.980  10.107 -0.2030  0.1585  0.1617
 1024MOL0     C41228   9.793   2.956  10.101  0.4627 -0.1639  0.1588
 1024MOL0     C41229   9.337   3.094  10.161 -0.7884  0.2265  0.4986
 1024MOL0     C41230   9.247   3.189  10.187 -0.3304  0.0166  0.3332
 1024MOL0     C41231   9.111   3.160  10.183  0.3018 -0.7647 -0.2533
 1024MOL0     C41232   9.066   3.032  10.158  0.6966 -0.0697  0.0276
 1024MOL0     O41233   8.928   2.992  10.163  0.2188 -0.0393 -0.0209
 1024MOL0     C41234   8.876   2.952  10.033 -0.4982 -0.4217 -1.0256
 1024MOL0     C41235   8.871   3.077   9.941 -0.1032 -0.3412 -0.5032
 1024MOL0     C41236   8.994   3.114   9.851  0.0547 -1.0521 -0.0156
 1024MOL0     C41237   9.037   3.012   9.756 -0.5932 -0.3303  0.2965
 1024MOL0     C41238   8.934   2.940   9.682  0.5741 -0.5173 -0.5151
 1024MOL0     C41239   8.851   2.881   9.621 -0.2757 -0.5062  0.7704
 1024MOL0     C41240   9.159   2.931  10.137  0.8118  0.1584  0.1961
 1024MOL0     C41241   9.296   2.964  10.131  0.5145 -0.6701  0.5170
 1024MOL0     C41242   9.384   2.844  10.106  0.8632  0.5762  0.0319
 1024MOL0     H41243   9.696   3.199  10.317 -2.5920  1.5885 -3.5847
 1024MOL0     H41244   9.948   3.231  10.335 -2.1296  2.2068 -1.8192
 1024MOL0     H41245  10.311   3.054  10.146  1.2899 -0.6937 -2.7980
 1024MOL0     H41246  10.199   2.995  10.034  0.2956  0.8549  0.0062
 1024MOL0     H41247  10.246   2.868  10.307 -0.5261 -1.9155 -0.3928
 1024MOL0     H41248  10.144   2.801  10.168  0.4763 -3.5323  1.0437
 1024MOL0     H41249  10.434   2.816  10.200  0.6063  0.9708 -0.8612
 1024MOL0     H41250  10.320   2.688  10.141  0.6496  0.0390  0.7215
 1024MOL0     H41251  10.306   2.811   9.924  0.6523 -2.6339 -2.0499
 1024MOL0     H41252  10.434   2.919   9.989 -1.2327  0.0475  0.8358
 1024MOL0     H41253  10.554   2.762   9.862  0.5621 -1.1240 -0.2564
 1024MOL0     H41254  10.474   2.632   9.928 -1.6909  2.4652 -1.7896
 1024MOL0     H41255  10.645   2.823  10.104 -0.7373 -1.7513  1.5177
 1024MOL0     H41256  10.620   2.658  10.143  0.6289  1.1555  0.5846
 1024MOL0     H41257  10.837   2.690  10.059  0.1526  1.9339 -0.2883
 1024MOL0     H41258  10.773   2.753   9.899 -1.5032 -2.7108 -1.9037
 1024MOL0     H41259  10.686   2.487   9.998  0.4881  1.1518  1.2479
 1024MOL0     H41260  10.712   2.541   9.830  0.0627 -0.7891 -0.8880
 1024MOL0     H41261  10.994   2.632   9.788  1.2401  2.5605  3.4428
 1024MOL0     H41262  11.175   2.404   9.678  0.9704  2.3919 -1.1187
 1024MOL0     H41263  11.264   2.321   9.810 -1.2320 -0.9674 -0.4418
 1024MOL0     H41264  11.277   2.615   9.785 -2.4994 -1.0725 -0.2748
 1024MOL0     H41265  11.392   2.515   9.880  2.2790  0.1838 -1.4139
 1024MOL0     H41266  11.389   2.531   9.573  2.7297  0.9855 -0.9140
 1024MOL0     H41267  11.509   2.570   9.680 -0.5881  0.5185 -3.6603
 1024MOL0     H41268  11.539   2.335   9.747  0.3520  0.6708  0.6027
 1024MOL0     H41269  11.417   2.277   9.624  1.2139 -0.1118 -2.3782
 1024MOL0     H41270  11.729   2.397   9.314  2.4998  0.3679 -0.7150
 1024MOL0     H41271  11.928   2.484   9.176  1.1256 -0.0003 -1.1719
 1024MOL0     H41272  12.061   2.404   9.239  0.3320  1.2855 -0.8121
 1024MOL0     H41273  12.037   2.575   9.274  1.8495 -0.9642  0.7881
 1024MOL0     H41274  12.406   2.306   9.524 -0.3774 -0.5707 -1.6667
 1024MOL0     H41275  12.661   2.375   9.531  1.2229  1.4666 -0.4999
 1024MOL0     H41276  12.755   2.786   9.345 -0.2101 -0.4462 -0.2423
 1024MOL0     H41277  12.702   2.741   9.507  1.3585 -0.8234  1.6248
 1024MOL0     H41278  12.984   2.664   9.415 -1.9095 -0.3582 -0.3372
 1024MOL0     H41279  12.948   2.828   9.465 -0.5996  0.3808 -2.0271
 1024MOL0     H41280  12.882   2.583   9.631 -0.8310 -0.0539 -2.8149
 1024MOL0     H41281  12.860   2.753   9.674  1.6207  2.0442  0.1320
 1024MOL0     H41282  13.099   2.805   9.679  0.0260  1.0983  0.7646
 1024MOL0     H41283  13.146   2.638   9.615 -0.3150  0.5892  0.1830
 1024MOL0     H41284  12.983   2.672   9.861 -0.0570  2.3011 -1.6254
 1024MOL0     H41285  13.062   2.528   9.800 -2.1691  1.0605  0.7353
 1024MOL0     H41286  13.293   2.660   9.826  1.4775  0.0917  1.8609
 1024MOL0     H41287  13.215   2.594   9.975  4.0974 -3.5453 -2.2880
 1024MOL0     H41288  13.120   2.829  10.002 -0.7754 -1.8410  1.3520
 1024MOL0     H41289  13.215   2.877   9.862  0.4753  1.1581  1.3241
 1024MOL0     H41290  13.345   2.919  10.067 -2.5856 -0.7978  2.6331
 1024MOL0     H41291  13.420   2.788   9.975 -1.5657 -0.6036 -1.0300
 1024MOL0     H41292  12.553   2.711   9.286  1.2924 -0.1421 -0.4935
 1024MOL0     H41293  12.300   2.646   9.308 -1.9672  0.3152  2.2228
 1024MOL0     H41294  11.998   2.428   9.724  1.8640 -0.0427 -0.7683
 1024MOL0     H41295  11.748   2.354   9.738 -1.3013  2.1524  0.3019
 1024MOL0     H41296   9.992   2.916  10.046 -1.4930 -0.0312 -1.0239
 1024MOL0     H41297   9.751   2.885  10.030  2.9197 -2.0373  0.4568
 1024MOL0     H41298   9.270   3.292  10.214 -3.8462  0.7578  1.0631
 1024MOL0     H41299   9.039   3.239  10.203  2.6147  1.4489 -0.1778
 1024MOL0     H41300   8.928   2.866   9.990 -0.2725 -0.7850 -0.0340
 1024MOL0     H41301   8.775   2.923  10.060  0.7307 -1.2776  3.4061
 1024MOL0     H41302   8.842   3.158  10.008 -0.8612 -1.9668  1.2313
 1024MOL0     H41303   8.787   3.073   9.872  0.6269 -1.0344 -1.3828
 1024MOL0     H41304   8.972   3.205   9.793  0.2119 -0.0300  1.4645
 1024MOL0     H41305   9.075   3.140   9.920  0.6652  3.0726 -1.9414
 1024MOL0     H41306   9.102   2.948   9.816 -0.2576 -0.7439 -0.4976
 1024MOL0     H41307   9.106   3.057   9.683  0.6570 -1.7841  0.5284
 1024MOL0     H41308   8.766   2.860   9.558 -2.6009 -1.2028  3.8940
 1024MOL0     H41309   9.122   2.829  10.134 -1.7648  1.0051  1.0134
 1024MOL0     H41310   9.454   2.860  10.023  2.2451  0.3375  1.1109
 1024MOL0     H41311   9.443   2.837  10.198 -5.1360 -1.5849  4.3417
 1024MOL0     H41312   9.334   2.747  10.103  1.4712  0.2036  1.3342
  11.42805  11.42805  11.42805
